/*--------------------------------*- C++ -*----------------------------------*\
| =========                 |                                                 |
| \\      /  F ield         | foam-extend: Open Source CFD                    |
|  \\    /   O peration     | Version:     3.2                                |
|   \\  /    A nd           | Web:         http://www.foam-extend.org         |
|    \\/     M anipulation  | For copyright notice see file Copyright         |
\*---------------------------------------------------------------------------*/
FoamFile
{
    version     2.0;
    format      ascii;
    class       volScalarField;
    location    "200";
    object      k;
}
// * * * * * * * * * * * * * * * * * * * * * * * * * * * * * * * * * * * * * //

dimensions      [0 2 -2 0 0 0 0];

internalField   nonuniform List<scalar> 
33000
(
0.000162402
0.000222158
0.000293875
0.000376555
0.00046796
0.000564832
0.00066343
0.000759814
0.000850466
0.000932461
0.00100383
0.00106347
0.00111112
0.00114717
0.00117241
0.00118797
0.00119516
0.00119533
0.00118987
0.00118034
0.00116762
0.00115249
0.00113559
0.00111749
0.00109871
0.00107966
0.00106068
0.00104212
0.00102421
0.00100694
0.00099035
0.00097449
0.000959399
0.000945091
0.000931569
0.00091882
0.000906827
0.000895565
0.000885003
0.000875107
0.000865845
0.000857183
0.000849083
0.00084151
0.000834428
0.000827808
0.000821621
0.000815844
0.00081045
0.000805414
0.000800713
0.000796323
0.000792221
0.00078838
0.000784779
0.000781394
0.000778206
0.000775196
0.000772348
0.000769647
0.000767078
0.00076463
0.000762293
0.000760059
0.000757919
0.000755866
0.000753894
0.000751998
0.000750171
0.000748408
0.000746703
0.00074505
0.000743443
0.000741877
0.000740348
0.000738852
0.000737387
0.000735952
0.000734548
0.000733174
0.000731829
0.00073051
0.000729216
0.000727944
0.000726692
0.000725459
0.000724242
0.000723038
0.000721847
0.000720665
0.000719491
0.000718323
0.00071716
0.000716003
0.000714853
0.000713711
0.000712578
0.000711455
0.000710346
0.000709248
0.000708159
0.000707076
0.000705998
0.000704922
0.000703846
0.00070277
0.000701691
0.000700607
0.000699518
0.000698421
0.000697318
0.000696206
0.000695086
0.000693958
0.000692823
0.000691677
0.000690522
0.000689358
0.000688186
0.000687006
0.000685818
0.000684622
0.000683419
0.000682208
0.000680991
0.000679767
0.000678537
0.000677302
0.000676062
0.000674819
0.000673574
0.000672328
0.000671081
0.000669837
0.000668594
0.000667356
0.000666121
0.000664893
0.00066367
0.000662455
0.000661248
0.000660049
0.000658859
0.000657679
0.000656508
0.000655347
0.000654195
0.000653054
0.000651923
0.000650803
0.000649694
0.000648595
0.000647506
0.000646429
0.000645361
0.000644304
0.000643257
0.00064222
0.000641192
0.000640174
0.000639165
0.000638166
0.000637176
0.000636195
0.000635223
0.000634261
0.000633308
0.000632364
0.000631429
0.000630503
0.000629586
0.000628677
0.000627778
0.000626887
0.000626005
0.000625132
0.000624269
0.000623415
0.000622571
0.000621737
0.000620914
0.0006201
0.000619297
0.000618505
0.000617724
0.000616954
0.000616194
0.000615446
0.00061471
0.000613984
0.000613271
0.00061257
0.000611881
0.000611204
0.000610539
0.000609886
0.000609244
0.000608615
0.000607997
0.000607391
0.000606797
0.000606214
0.000605643
0.000605083
0.000604536
0.000603999
0.000603475
0.000602962
0.000602461
0.000601971
0.000601493
0.000601026
0.000600571
0.000600128
0.000599698
0.000599279
0.000598873
0.000598479
0.000598098
0.000597729
0.000597373
0.000597029
0.000596698
0.000596379
0.000596071
0.00059577
0.000595477
0.000595191
0.00059491
0.000594635
0.000594366
0.000594103
0.000593845
0.000593592
0.000593343
0.0005931
0.000592861
0.000592626
0.000592396
0.00059217
0.000591947
0.000591728
0.000591512
0.000591299
0.000591088
0.000590879
0.00059067
0.000590463
0.000590255
0.000590047
0.000589839
0.00058963
0.000589419
0.000589207
0.000588992
0.000588776
0.000588557
0.000588335
0.000588109
0.00058788
0.000587648
0.000587411
0.00058717
0.000586925
0.000586676
0.000586424
0.000586168
0.000585909
0.000585646
0.00058538
0.00058511
0.000584836
0.000584557
0.000584274
0.000583986
0.000583692
0.000583393
0.000583089
0.00058278
0.000582466
0.000582147
0.000581825
0.000581499
0.000581169
0.000580837
0.000580502
0.000580164
0.000579824
0.000579482
0.000579139
0.000578793
0.000578446
0.000578098
0.000577748
0.000577398
0.000577047
0.000576696
0.000576343
0.000575991
0.000575637
0.000575283
0.000574928
0.000574572
0.000574215
0.000573857
0.000573497
0.000573137
0.000572774
0.00057241
0.000572044
0.000571677
0.00057131
0.000570942
0.000570575
0.000570209
0.000569844
0.000569482
0.000569122
0.000568765
0.000568411
0.000568059
0.00056771
0.000567363
0.000567019
0.000566678
0.000566339
0.000566003
0.00056567
0.000565341
0.000565016
0.000564695
0.00056438
0.000564069
0.000563764
0.000563465
0.000563171
0.000562883
0.000562599
0.000562321
0.000562047
0.000561777
0.000561509
0.000561244
0.00056098
0.000560717
0.000560454
0.000560191
0.000559926
0.000559659
0.00055939
0.000559119
0.000558845
0.00055857
0.000558293
0.000558015
0.000557735
0.000557456
0.000557176
0.000556897
0.000556619
0.000556343
0.00055607
0.0005558
0.000555532
0.000555268
0.000555007
0.000554748
0.000554492
0.000554236
0.000553981
0.000553725
0.000553467
0.000553207
0.000552942
0.000552674
0.000552399
0.000552118
0.00055183
0.000551535
0.000551231
0.000550918
0.000550597
0.000550267
0.000549929
0.000549582
0.000549227
0.000548866
0.000548498
0.000548124
0.000547747
0.000547365
0.000546981
0.000546595
0.000546206
0.000545817
0.000545426
0.000545035
0.000544644
0.000544254
0.000543863
0.000543474
0.000543085
0.000542696
0.000542308
0.00054192
0.000541532
0.000541142
0.000540749
0.000540355
0.000539956
0.000539554
0.000539147
0.000538736
0.000538321
0.0005379
0.000537476
0.000537047
0.000536614
0.000536177
0.000535736
0.00053529
0.00053484
0.000534384
0.000533924
0.000533459
0.00053299
0.000532516
0.000532038
0.000531556
0.000531072
0.000530585
0.000530095
0.000529603
0.000529108
0.000528611
0.00052811
0.000527607
0.000527101
0.000526592
0.00052608
0.000525566
0.000525048
0.000524529
0.000524009
0.000523488
0.000522968
0.000522449
0.000521933
0.00052142
0.000520911
0.000520409
0.000519913
0.000519423
0.000518941
0.000518466
0.000517998
0.000517537
0.000517083
0.000516635
0.000516193
0.000515756
0.000515324
0.000514897
0.000514474
0.000514055
0.00051364
0.00051323
0.000512825
0.000512425
0.00051203
0.000511641
0.000511257
0.000510879
0.000510505
0.000510135
0.000509769
0.000509405
0.000509043
0.000508682
0.000508321
0.000507961
0.0005076
0.000507238
0.000506877
0.000506513
0.000506149
0.000505782
0.000505413
0.000505041
0.000504667
0.000504292
0.000503915
0.000503535
0.000503152
0.000502765
0.000502375
0.00050198
0.000501582
0.000501182
0.00050078
0.000500378
0.000499976
0.000499575
0.000499175
0.000498776
0.000498378
0.000497979
0.000497578
0.000497173
0.000496762
0.000496343
0.000495917
0.000495481
0.000495039
0.000494588
0.000494136
0.000493679
0.000493222
0.000492763
0.000492307
0.000491847
0.000491389
0.000490926
0.000490464
0.000489993
0.000489516
0.000489021
0.000488508
0.000487953
0.000487353
0.000486658
0.000485859
0.00048486
0.000483634
0.000481987
0.00047985
0.000476828
0.00047274
0.000466788
0.000458443
0.000446295
0.000428838
0.00040364
0.000368942
0.000321642
0.000259235
0.000163833
7.83865e-05
8.64535e-05
0.00015239
0.00011338
0.00011702
0.000122693
0.000129955
0.000139423
0.000150342
0.000162171
0.000174801
0.000188233
0.000202184
0.000216298
0.000230245
0.000243671
0.000256462
0.000268743
0.000280704
0.000292548
0.000304833
0.000317956
0.000331941
0.000347283
0.000363913
0.000380193
0.000396562
0.00041342
0.000431123
0.000449949
0.000469276
0.000488049
0.000506251
0.000523811
0.00054066
0.000556758
0.000572066
0.000586555
0.000600208
0.000613024
0.000625013
0.000636193
0.000646588
0.000656226
0.000665142
0.000673375
0.000680962
0.000687948
0.000694376
0.000700338
0.000705862
0.000710973
0.000715691
0.000720034
0.000724018
0.000727656
0.000730963
0.000733955
0.000736649
0.000739057
0.000741205
0.000743115
0.000744802
0.00074628
0.000747562
0.000748654
0.000749563
0.000750298
0.000750869
0.000751285
0.000751557
0.000751697
0.000751715
0.000751621
0.000751426
0.000751137
0.000750759
0.0007503
0.000749762
0.000749152
0.000748473
0.000747731
0.000746933
0.000746088
0.0007452
0.000744279
0.000743328
0.000742354
0.00074136
0.000740348
0.000739319
0.000738272
0.000737206
0.00073612
0.00073501
0.000733876
0.000732717
0.000731532
0.000730319
0.000729076
0.000727803
0.000726496
0.000725154
0.000723774
0.000722355
0.000720899
0.000719405
0.000717876
0.000716314
0.000714721
0.000713099
0.00071145
0.000709776
0.000708079
0.000706363
0.000704628
0.000702878
0.000701118
0.000699349
0.000697571
0.00069579
0.000694008
0.000692228
0.000690452
0.000688682
0.000686921
0.000685171
0.000683434
0.000681712
0.000680005
0.000678317
0.000676647
0.000674997
0.000673368
0.000671762
0.00067018
0.000668624
0.000667094
0.000665592
0.000664118
0.000662673
0.000661258
0.000659873
0.000658518
0.000657195
0.000655903
0.000654642
0.00065341
0.000652208
0.000651033
0.000649886
0.000648765
0.00064767
0.000646601
0.000645556
0.000644537
0.00064354
0.000642567
0.000641615
0.000640684
0.000639772
0.000638878
0.000638002
0.000637144
0.000636302
0.000635478
0.00063467
0.000633879
0.000633104
0.000632344
0.000631601
0.000630873
0.00063016
0.000629462
0.000628778
0.000628108
0.000627452
0.00062681
0.000626181
0.000625567
0.000624966
0.000624379
0.000623807
0.00062325
0.000622708
0.000622182
0.000621671
0.000621175
0.000620696
0.000620232
0.000619785
0.000619353
0.000618938
0.000618539
0.000618156
0.000617791
0.000617442
0.000617111
0.000616795
0.000616496
0.000616211
0.000615941
0.000615684
0.00061544
0.00061521
0.000614991
0.000614785
0.000614591
0.000614408
0.000614236
0.000614074
0.000613922
0.00061378
0.000613648
0.000613526
0.000613414
0.000613313
0.000613222
0.000613143
0.000613076
0.00061302
0.000612975
0.000612943
0.000612923
0.000612914
0.000612917
0.000612931
0.000612944
0.000612948
0.000612949
0.00061295
0.000612951
0.000612956
0.000612964
0.000612975
0.00061299
0.000613007
0.000613025
0.000613045
0.000613064
0.000613083
0.000613099
0.000613112
0.000613121
0.000613125
0.000613122
0.000613112
0.000613094
0.000613066
0.000613028
0.000612979
0.000612919
0.000612846
0.000612761
0.000612662
0.000612551
0.000612427
0.00061229
0.00061214
0.000611979
0.000611805
0.000611619
0.000611421
0.000611211
0.000610988
0.000610753
0.000610506
0.000610246
0.000609976
0.000609694
0.000609402
0.000609101
0.00060879
0.00060847
0.000608141
0.000607803
0.000607456
0.000607101
0.000606737
0.000606365
0.000605986
0.000605599
0.000605205
0.000604804
0.000604399
0.000603988
0.000603574
0.000603158
0.000602741
0.000602324
0.000601908
0.000601494
0.000601083
0.000600676
0.000600273
0.000599874
0.000599481
0.000599091
0.000598707
0.000598326
0.000597948
0.000597574
0.000597202
0.000596832
0.000596465
0.000596098
0.000595733
0.000595369
0.000595006
0.000594643
0.000594282
0.000593923
0.000593566
0.000593211
0.000592861
0.000592514
0.000592173
0.000591837
0.000591507
0.000591184
0.000590868
0.000590559
0.000590256
0.000589958
0.000589666
0.000589378
0.000589094
0.000588814
0.000588536
0.000588263
0.000587994
0.000587729
0.000587472
0.000587222
0.000586981
0.000586749
0.000586528
0.000586318
0.000586118
0.000585928
0.000585747
0.000585574
0.000585407
0.000585244
0.000585084
0.000584924
0.000584763
0.000584599
0.00058443
0.000584256
0.000584074
0.000583883
0.000583682
0.000583471
0.00058325
0.000583019
0.000582779
0.000582531
0.000582275
0.000582012
0.000581745
0.000581473
0.000581198
0.000580922
0.000580646
0.000580371
0.000580098
0.000579828
0.000579559
0.000579293
0.000579028
0.000578762
0.000578494
0.000578224
0.000577949
0.000577669
0.00057738
0.000577083
0.000576774
0.000576454
0.000576121
0.000575775
0.000575413
0.000575036
0.000574643
0.000574234
0.000573808
0.000573366
0.000572908
0.000572435
0.000571949
0.00057145
0.000570941
0.000570424
0.000569901
0.000569374
0.000568843
0.000568311
0.000567778
0.000567245
0.000566712
0.000566181
0.000565653
0.000565127
0.000564604
0.000564083
0.000563564
0.000563047
0.00056253
0.000562013
0.000561495
0.000560975
0.000560454
0.00055993
0.000559404
0.000558876
0.000558345
0.000557812
0.000557279
0.000556745
0.000556213
0.000555682
0.000555152
0.000554625
0.0005541
0.000553577
0.000553056
0.000552536
0.000552019
0.000551504
0.000550991
0.00055048
0.000549972
0.000549467
0.000548963
0.000548462
0.000547961
0.000547459
0.000546956
0.00054645
0.000545942
0.00054543
0.000544916
0.000544399
0.000543882
0.000543365
0.000542851
0.000542341
0.000541837
0.000541342
0.000540857
0.000540384
0.000539925
0.00053948
0.00053905
0.000538634
0.000538232
0.000537842
0.000537463
0.000537093
0.000536731
0.000536374
0.000536022
0.000535673
0.000535327
0.000534983
0.000534642
0.000534303
0.000533967
0.000533635
0.000533307
0.000532984
0.000532667
0.000532355
0.000532049
0.000531748
0.000531452
0.00053116
0.000530871
0.000530581
0.000530291
0.000529996
0.000529697
0.000529389
0.000529075
0.000528751
0.000528422
0.000528084
0.000527741
0.000527388
0.000527032
0.000526666
0.000526299
0.000525925
0.000525553
0.000525175
0.000524798
0.000524411
0.000524022
0.000523622
0.00052322
0.000522805
0.000522392
0.000521965
0.000521545
0.000521112
0.00052069
0.000520257
0.00051984
0.000519408
0.000518991
0.00051855
0.000518121
0.000517656
0.000517199
0.000516695
0.000516204
0.000515664
0.000515148
0.000514589
0.000514068
0.000513504
0.000512987
0.000512422
0.000511909
0.000511341
0.000510832
0.000510263
0.000509764
0.000509201
0.000508716
0.000508168
0.000507708
0.000507161
0.000506731
0.00050617
0.000505788
0.000505184
0.000504897
0.00050419
0.000504129
0.000503214
0.000503361
0.000502049
0.000501536
0.000497665
0.000493443
0.000477384
0.000443636
0.000397462
0.000310174
0.000154622
0.000184619
0.000111285
0.000111939
0.000113068
0.000114257
0.000115542
0.000116865
0.000118276
0.000119703
0.000121158
0.000122585
0.000124035
0.000125351
0.000126596
0.000127742
0.000128827
0.000129907
0.000131038
0.000132277
0.000133685
0.000135305
0.00013721
0.000139481
0.000142149
0.000145255
0.000148861
0.000153057
0.000157965
0.000163645
0.000170161
0.000177624
0.000186126
0.000195748
0.000206564
0.00021785
0.000229357
0.00024106
0.000252929
0.000264936
0.000277051
0.000289243
0.000301473
0.000313692
0.000325888
0.000338039
0.000350141
0.000362178
0.000373929
0.000385384
0.000396545
0.000407412
0.000417985
0.000428261
0.000438235
0.000447898
0.000457236
0.000466235
0.000474882
0.000483165
0.000491081
0.000498633
0.000505826
0.000512686
0.000519234
0.000525476
0.000531421
0.000537077
0.000542453
0.000547557
0.000552399
0.000556985
0.000561323
0.00056542
0.000569282
0.000572913
0.000576319
0.000579504
0.000582473
0.000585232
0.00058779
0.000590155
0.000592338
0.000594348
0.000596195
0.00059789
0.000599441
0.000600859
0.000602149
0.000603319
0.000604372
0.000605317
0.000606153
0.000606887
0.000607519
0.000608058
0.000608508
0.000608885
0.000609159
0.000609302
0.000609331
0.000609255
0.000609079
0.000608811
0.000608458
0.000608028
0.000607527
0.000606964
0.000606345
0.000605677
0.000604965
0.000604215
0.000603431
0.000602616
0.000601775
0.000600912
0.000600031
0.000599134
0.000598222
0.0005973
0.000596372
0.00059544
0.000594506
0.000593572
0.000592641
0.000591715
0.000590795
0.000589883
0.000588981
0.00058809
0.000587212
0.000586347
0.000585498
0.000584666
0.000583852
0.000583059
0.000582286
0.000581536
0.000580809
0.000580106
0.000579427
0.000578772
0.000578142
0.000577538
0.000576959
0.000576405
0.000575876
0.000575372
0.00057489
0.00057443
0.000573991
0.000573572
0.000573172
0.000572791
0.000572428
0.000572083
0.000571755
0.000571442
0.000571144
0.00057086
0.000570589
0.00057033
0.000570082
0.000569845
0.000569619
0.000569404
0.0005692
0.000569007
0.000568825
0.000568654
0.000568494
0.000568344
0.000568206
0.000568078
0.000567961
0.000567855
0.000567759
0.000567675
0.000567601
0.00056754
0.000567491
0.000567455
0.000567432
0.000567423
0.000567429
0.000567451
0.000567488
0.000567542
0.000567612
0.000567699
0.000567803
0.000567924
0.000568063
0.000568219
0.000568394
0.000568587
0.000568798
0.000569027
0.000569273
0.000569535
0.000569813
0.000570105
0.00057041
0.000570728
0.000571058
0.0005714
0.000571752
0.000572114
0.000572486
0.000572868
0.000573258
0.000573656
0.000574064
0.00057448
0.000574906
0.000575341
0.000575786
0.000576241
0.000576707
0.000577184
0.000577671
0.00057817
0.000578679
0.000579199
0.000579729
0.000580268
0.000580814
0.000581364
0.000581917
0.00058247
0.000583023
0.000583576
0.000584126
0.000584674
0.000585217
0.000585756
0.000586287
0.000586811
0.000587325
0.000587828
0.000588319
0.000588796
0.000589257
0.000589702
0.00059013
0.000590538
0.000590927
0.000591295
0.000591641
0.000591964
0.000592265
0.000592542
0.000592795
0.000593025
0.000593231
0.000593414
0.000593574
0.000593711
0.000593827
0.00059392
0.000593992
0.000594043
0.000594073
0.000594081
0.000594069
0.000594035
0.000593981
0.000593907
0.000593813
0.000593699
0.000593568
0.000593418
0.00059325
0.000593066
0.000592866
0.000592649
0.000592418
0.000592172
0.000591912
0.000591638
0.000591352
0.000591054
0.000590746
0.000590428
0.000590102
0.000589769
0.000589432
0.000589092
0.000588751
0.000588411
0.000588073
0.000587739
0.00058741
0.000587086
0.000586768
0.000586456
0.000586149
0.000585847
0.000585548
0.000585252
0.000584958
0.000584665
0.000584371
0.000584077
0.000583782
0.000583485
0.000583188
0.000582889
0.00058259
0.000582291
0.000581994
0.0005817
0.00058141
0.000581126
0.000580848
0.000580578
0.000580316
0.000580063
0.00057982
0.000579585
0.000579359
0.000579141
0.00057893
0.000578725
0.000578526
0.000578333
0.000578144
0.000577961
0.000577783
0.000577612
0.000577449
0.000577297
0.000577155
0.000577028
0.000576915
0.000576818
0.000576737
0.000576673
0.000576623
0.000576588
0.000576563
0.000576547
0.000576537
0.000576528
0.000576519
0.000576506
0.000576485
0.000576455
0.000576414
0.000576358
0.000576287
0.0005762
0.000576095
0.000575972
0.000575832
0.000575676
0.000575504
0.000575318
0.000575121
0.000574914
0.0005747
0.00057448
0.000574257
0.000574034
0.000573811
0.00057359
0.000573371
0.000573154
0.000572939
0.000572723
0.000572506
0.000572286
0.00057206
0.000571826
0.000571582
0.000571325
0.000571054
0.000570765
0.000570457
0.000570128
0.000569777
0.000569402
0.000569002
0.000568576
0.000568124
0.000567645
0.000567141
0.000566612
0.000566059
0.000565485
0.000564892
0.000564284
0.000563662
0.000563031
0.000562394
0.000561752
0.000561109
0.000560466
0.000559824
0.000559185
0.000558551
0.00055792
0.000557294
0.000556672
0.000556054
0.000555437
0.000554822
0.000554206
0.000553589
0.000552968
0.000552345
0.000551718
0.000551087
0.000550453
0.000549815
0.000549175
0.000548534
0.000547892
0.000547249
0.000546608
0.000545969
0.000545331
0.000544697
0.000544065
0.000543436
0.00054281
0.000542188
0.00054157
0.000540957
0.000540347
0.000539743
0.000539144
0.000538549
0.000537959
0.000537372
0.000536786
0.0005362
0.000535613
0.000535023
0.000534429
0.00053383
0.000533228
0.000532623
0.000532017
0.000531412
0.000530813
0.000530222
0.000529643
0.000529079
0.000528534
0.000528009
0.000527508
0.000527032
0.000526579
0.00052615
0.000525743
0.000525354
0.000524983
0.000524624
0.000524276
0.000523936
0.000523602
0.000523271
0.000522944
0.00052262
0.000522299
0.000521982
0.000521669
0.000521362
0.000521062
0.000520769
0.000520485
0.00052021
0.000519943
0.000519684
0.000519432
0.000519184
0.000518938
0.000518693
0.000518443
0.000518187
0.000517921
0.000517645
0.000517354
0.000517051
0.000516733
0.000516403
0.000516061
0.000515707
0.000515342
0.000514968
0.000514585
0.000514196
0.000513802
0.000513402
0.000512996
0.000512585
0.000512164
0.000511736
0.000511299
0.000510855
0.000510402
0.000509943
0.000509477
0.000509008
0.000508533
0.000508056
0.000507574
0.00050709
0.000506597
0.000506097
0.000505582
0.000505053
0.000504504
0.000503937
0.000503346
0.00050274
0.000502117
0.000501487
0.000500851
0.000500216
0.000499581
0.000498948
0.000498317
0.000497688
0.000497063
0.000496441
0.000495829
0.000495224
0.000494635
0.00049406
0.000493509
0.000492982
0.00049249
0.00049204
0.000491651
0.000491343
0.000491163
0.000491157
0.000491439
0.000492097
0.000493386
0.000495474
0.000498468
0.000502051
0.000506331
0.000509481
0.000499474
0.00048568
0.000442762
0.000291587
0.000227819
0.000111117
0.000111442
0.000112033
0.000112661
0.000113271
0.000113825
0.000114172
0.000114365
0.000114432
0.000114409
0.000114305
0.000114126
0.000113878
0.000113565
0.000113192
0.000112768
0.000112307
0.000111823
0.000111316
0.0001108
0.000110291
0.000109805
0.000109354
0.000108954
0.000108623
0.000108387
0.000108272
0.000108305
0.00010852
0.000108946
0.000109622
0.000110577
0.000111844
0.000113431
0.000115342
0.000117584
0.000120163
0.000123087
0.000126369
0.000130015
0.000134053
0.000138544
0.000143526
0.000149041
0.000155134
0.000161855
0.00016895
0.000176226
0.000183679
0.000191304
0.000199099
0.000207063
0.000215196
0.000223494
0.000231948
0.000240544
0.000249259
0.000258057
0.000266911
0.000275792
0.000284672
0.000293477
0.000302147
0.000310674
0.000319049
0.000327267
0.000335315
0.000343181
0.000350858
0.000358341
0.000365625
0.00037271
0.000379593
0.000386273
0.000392749
0.000399018
0.000405081
0.000410933
0.000416576
0.00042201
0.000427239
0.000432263
0.000437086
0.000441711
0.000446143
0.000450385
0.000454442
0.000458315
0.00046201
0.00046553
0.000468883
0.000472074
0.000475111
0.000478
0.000480718
0.000483232
0.000485561
0.000487722
0.00048972
0.000491568
0.000493277
0.00049486
0.000496327
0.000497691
0.000498959
0.00050014
0.000501241
0.000502267
0.000503225
0.000504118
0.000504953
0.000505732
0.000506457
0.000507135
0.00050777
0.000508359
0.000508909
0.000509425
0.000509911
0.000510368
0.000510798
0.000511204
0.000511588
0.000511951
0.000512294
0.00051262
0.00051293
0.000513224
0.000513506
0.000513776
0.000514036
0.000514289
0.000514536
0.000514781
0.000515026
0.000515273
0.000515523
0.000515778
0.00051604
0.000516309
0.000516586
0.000516872
0.000517168
0.000517475
0.000517793
0.00051812
0.000518457
0.000518803
0.000519156
0.000519516
0.000519881
0.000520252
0.000520629
0.000521009
0.000521394
0.000521782
0.000522172
0.000522565
0.000522958
0.000523352
0.000523746
0.00052414
0.000524535
0.000524931
0.000525329
0.000525728
0.00052613
0.000526535
0.000526944
0.000527356
0.000527773
0.000528194
0.000528619
0.000529051
0.000529489
0.000529933
0.000530386
0.000530848
0.000531319
0.000531802
0.000532296
0.000532804
0.000533325
0.000533862
0.000534415
0.000534985
0.000535573
0.000536179
0.000536803
0.000537446
0.000538109
0.000538791
0.000539493
0.000540216
0.000540958
0.000541721
0.000542502
0.000543302
0.000544118
0.00054495
0.000545797
0.000546656
0.000547528
0.000548411
0.000549304
0.000550207
0.000551118
0.000552037
0.000552964
0.000553898
0.00055484
0.000555789
0.000556746
0.000557711
0.000558685
0.000559667
0.000560659
0.000561659
0.000562669
0.000563688
0.000564716
0.000565751
0.000566793
0.000567842
0.000568894
0.000569949
0.000571003
0.000572055
0.000573103
0.000574145
0.000575179
0.000576203
0.000577216
0.000578215
0.000579198
0.000580164
0.000581111
0.000582036
0.000582937
0.000583814
0.000584664
0.000585486
0.000586278
0.000587039
0.000587768
0.000588464
0.000589127
0.000589757
0.000590352
0.000590913
0.000591441
0.000591935
0.000592396
0.000592824
0.000593221
0.000593587
0.000593923
0.000594229
0.000594506
0.000594754
0.000594973
0.000595164
0.000595326
0.00059546
0.000595566
0.000595644
0.000595695
0.00059572
0.000595719
0.000595693
0.000595643
0.00059557
0.000595475
0.00059536
0.000595224
0.000595069
0.000594895
0.000594705
0.000594499
0.000594278
0.000594043
0.000593798
0.000593542
0.00059328
0.000593013
0.000592744
0.000592475
0.00059221
0.000591949
0.000591695
0.000591448
0.000591209
0.000590978
0.000590754
0.000590536
0.000590322
0.000590111
0.000589901
0.000589691
0.000589477
0.00058926
0.000589039
0.000588812
0.00058858
0.000588343
0.000588102
0.000587859
0.000587615
0.000587372
0.000587133
0.0005869
0.000586674
0.000586457
0.000586252
0.000586057
0.000585875
0.000585704
0.000585545
0.000585397
0.000585258
0.000585128
0.000585005
0.00058489
0.000584781
0.000584678
0.000584583
0.000584496
0.000584419
0.000584353
0.000584302
0.000584267
0.00058425
0.000584253
0.000584278
0.000584324
0.000584391
0.000584478
0.000584582
0.000584699
0.000584826
0.000584957
0.000585089
0.000585216
0.000585335
0.000585441
0.000585531
0.000585601
0.000585649
0.000585673
0.000585672
0.000585644
0.000585589
0.000585508
0.000585402
0.000585273
0.000585124
0.000584957
0.000584775
0.000584583
0.000584382
0.000584177
0.00058397
0.000583763
0.000583557
0.000583353
0.00058315
0.000582947
0.000582744
0.000582537
0.000582325
0.000582104
0.000581872
0.000581626
0.000581364
0.000581081
0.000580776
0.000580446
0.000580087
0.000579699
0.000579279
0.000578826
0.000578337
0.000577813
0.000577253
0.000576658
0.00057603
0.00057537
0.000574681
0.000573967
0.000573232
0.000572481
0.000571717
0.000570946
0.000570169
0.000569392
0.000568616
0.000567845
0.000567078
0.000566319
0.000565567
0.000564823
0.000564085
0.000563352
0.000562622
0.000561893
0.000561164
0.000560431
0.000559694
0.000558952
0.000558205
0.000557453
0.000556698
0.000555938
0.000555177
0.000554415
0.000553654
0.000552893
0.000552135
0.00055138
0.000550628
0.00054988
0.000549135
0.000548394
0.000547657
0.000546925
0.000546198
0.000545477
0.000544762
0.000544054
0.000543353
0.000542658
0.000541968
0.000541281
0.000540596
0.000539911
0.000539223
0.00053853
0.000537832
0.000537127
0.000536416
0.0005357
0.000534984
0.00053427
0.000533563
0.000532869
0.000532192
0.000531539
0.000530912
0.000530317
0.000529756
0.00052923
0.000528739
0.000528281
0.000527853
0.000527451
0.000527072
0.00052671
0.000526362
0.000526024
0.000525691
0.000525364
0.00052504
0.000524719
0.000524401
0.000524088
0.00052378
0.000523479
0.000523186
0.000522903
0.000522631
0.000522369
0.000522119
0.000521877
0.000521643
0.000521414
0.000521185
0.000520953
0.000520714
0.000520463
0.000520197
0.000519913
0.000519609
0.000519284
0.000518939
0.000518576
0.000518193
0.000517795
0.000517381
0.000516953
0.000516513
0.000516064
0.000515606
0.000515141
0.000514667
0.000514184
0.00051369
0.000513188
0.000512673
0.000512151
0.000511619
0.000511082
0.000510534
0.000509984
0.000509423
0.000508859
0.000508283
0.000507703
0.000507104
0.000506496
0.000505863
0.000505215
0.000504537
0.000503842
0.000503115
0.000502377
0.000501616
0.000500856
0.000500082
0.00049932
0.000498552
0.000497798
0.000497041
0.000496297
0.000495551
0.000494819
0.000494091
0.000493381
0.000492682
0.00049201
0.000491362
0.000490753
0.000490189
0.000489694
0.000489285
0.000489001
0.0004889
0.000489055
0.000489628
0.000490776
0.000492883
0.000496169
0.000500486
0.000505912
0.000512799
0.000522813
0.000523197
0.000524359
0.00051717
0.000410628
0.000284589
0.000111134
0.000111441
0.000111976
0.000112544
0.000113065
0.000113519
0.000113854
0.000114085
0.000114169
0.000114127
0.000113989
0.000113775
0.000113499
0.000113174
0.000112804
0.000112389
0.000111936
0.000111449
0.000110934
0.000110391
0.000109824
0.000109238
0.000108639
0.00010803
0.000107416
0.000106802
0.000106197
0.000105607
0.000105041
0.000104509
0.000104015
0.000103571
0.000103185
0.000102864
0.000102616
0.000102448
0.000102371
0.000102391
0.000102523
0.000102792
0.000103212
0.000103782
0.000104504
0.00010539
0.000106451
0.000107709
0.000109169
0.000110832
0.000112699
0.000114776
0.000117067
0.000119582
0.000122331
0.000125326
0.000128581
0.000132108
0.000135925
0.000140051
0.000144495
0.000149267
0.000154373
0.000159796
0.000165515
0.000171518
0.000177792
0.00018431
0.000190896
0.000197541
0.000204243
0.000210995
0.000217793
0.000224633
0.000231512
0.000238426
0.000245367
0.000252328
0.000259298
0.000266262
0.000273204
0.000280106
0.000286952
0.000293726
0.000300414
0.000307002
0.000313479
0.000319837
0.000326068
0.000332166
0.000338127
0.000343952
0.000349661
0.000355248
0.000360707
0.000366027
0.000371195
0.000376188
0.000381002
0.000385633
0.000390065
0.000394322
0.000398421
0.000402372
0.000406183
0.000409863
0.000413409
0.000416817
0.000420088
0.000423226
0.000426235
0.00042912
0.000431887
0.00043454
0.000437084
0.000439525
0.000441862
0.000444109
0.000446277
0.000448367
0.000450383
0.00045233
0.000454211
0.000456029
0.000457786
0.000459482
0.000461119
0.000462696
0.000464217
0.000465681
0.000467093
0.000468454
0.000469768
0.000471039
0.000472272
0.000473471
0.000474641
0.000475786
0.000476911
0.000478018
0.000479111
0.000480191
0.000481262
0.000482325
0.000483381
0.000484432
0.000485479
0.000486522
0.000487559
0.000488591
0.000489616
0.000490635
0.000491646
0.000492649
0.000493643
0.000494629
0.000495605
0.000496571
0.000497527
0.000498472
0.000499407
0.000500332
0.000501246
0.00050215
0.000503046
0.000503934
0.000504816
0.000505692
0.000506564
0.000507432
0.000508298
0.000509161
0.000510023
0.000510885
0.000511748
0.000512614
0.000513482
0.000514356
0.000515236
0.000516125
0.000517023
0.000517934
0.000518857
0.000519795
0.00052075
0.000521721
0.000522712
0.000523722
0.000524753
0.000525805
0.00052688
0.000527977
0.000529096
0.000530239
0.000531406
0.000532596
0.000533809
0.000535045
0.000536304
0.000537583
0.000538883
0.0005402
0.000541534
0.000542882
0.000544244
0.000545617
0.000547
0.000548393
0.000549793
0.000551199
0.000552612
0.00055403
0.000555454
0.000556883
0.000558317
0.000559757
0.000561203
0.000562655
0.000564113
0.000565577
0.000567046
0.000568521
0.000569999
0.000571481
0.000572964
0.000574448
0.00057593
0.000577408
0.00057888
0.000580342
0.000581793
0.000583231
0.000584652
0.000586054
0.000587435
0.000588792
0.000590124
0.000591426
0.000592699
0.000593938
0.000595142
0.00059631
0.000597438
0.000598527
0.000599574
0.000600578
0.000601539
0.000602456
0.000603329
0.000604157
0.000604942
0.000605684