/*--------------------------------*- C++ -*----------------------------------*\
| =========                 |                                                 |
| \\      /  F ield         | foam-extend: Open Source CFD                    |
|  \\    /   O peration     | Version:     3.2                                |
|   \\  /    A nd           | Web:         http://www.foam-extend.org         |
|    \\/     M anipulation  | For copyright notice see file Copyright         |
\*---------------------------------------------------------------------------*/
FoamFile
{
    version     2.0;
    format      ascii;
    class       volScalarField;
    location    "200";
    object      nut;
}
// * * * * * * * * * * * * * * * * * * * * * * * * * * * * * * * * * * * * * //

dimensions      [0 2 -1 0 0 0 0];

internalField   nonuniform List<scalar> 
33000
(
6.23195e-06
7.53755e-06
8.87591e-06
1.02162e-05
1.15254e-05
1.27716e-05
1.39285e-05
1.49747e-05
1.58969e-05
1.66876e-05
1.73469e-05
1.78793e-05
1.82937e-05
1.8601e-05
1.88133e-05
1.89429e-05
1.90025e-05
1.9004e-05
1.88585e-05
1.81417e-05
1.74602e-05
1.68191e-05
1.62215e-05
1.56695e-05
1.51635e-05
1.47044e-05
1.42921e-05
1.39235e-05
1.3588e-05
1.3282e-05
1.30036e-05
1.27509e-05
1.25217e-05
1.2314e-05
1.21271e-05
1.19592e-05
1.18093e-05
1.16753e-05
1.15567e-05
1.14515e-05
1.13603e-05
1.12797e-05
1.12104e-05
1.11504e-05
1.11002e-05
1.10576e-05
1.10238e-05
1.09983e-05
1.09805e-05
1.09698e-05
1.09654e-05
1.09666e-05
1.09731e-05
1.09839e-05
1.09985e-05
1.10164e-05
1.10372e-05
1.10604e-05
1.10855e-05
1.11123e-05
1.11406e-05
1.11702e-05
1.12009e-05
1.12327e-05
1.12656e-05
1.12994e-05
1.1334e-05
1.13693e-05
1.14049e-05
1.14409e-05
1.14768e-05
1.15127e-05
1.15482e-05
1.15834e-05
1.16182e-05
1.16526e-05
1.16865e-05
1.17202e-05
1.17534e-05
1.1786e-05
1.18179e-05
1.18491e-05
1.18794e-05
1.19087e-05
1.19368e-05
1.19638e-05
1.19893e-05
1.20137e-05
1.20366e-05
1.20583e-05
1.20786e-05
1.20983e-05
1.21168e-05
1.21347e-05
1.21517e-05
1.21682e-05
1.21844e-05
1.22013e-05
1.22181e-05
1.22351e-05
1.22524e-05
1.22698e-05
1.22872e-05
1.23047e-05
1.23219e-05
1.23389e-05
1.23557e-05
1.2372e-05
1.23879e-05
1.24033e-05
1.24184e-05
1.2433e-05
1.24471e-05
1.24609e-05
1.24738e-05
1.24862e-05
1.24985e-05
1.251e-05
1.25208e-05
1.25311e-05
1.25407e-05
1.25497e-05
1.25581e-05
1.25657e-05
1.25727e-05
1.2579e-05
1.25846e-05
1.25897e-05
1.25941e-05
1.2598e-05
1.26013e-05
1.26042e-05
1.26066e-05
1.26085e-05
1.26101e-05
1.26112e-05
1.26119e-05
1.26124e-05
1.26125e-05
1.26123e-05
1.26118e-05
1.2611e-05
1.261e-05
1.26087e-05
1.26071e-05
1.26053e-05
1.26034e-05
1.26014e-05
1.25993e-05
1.25971e-05
1.25948e-05
1.25924e-05
1.25899e-05
1.25873e-05
1.25846e-05
1.25819e-05
1.2579e-05
1.25762e-05
1.25733e-05
1.25703e-05
1.25674e-05
1.25645e-05
1.25616e-05
1.25586e-05
1.25557e-05
1.25527e-05
1.25497e-05
1.25467e-05
1.25437e-05
1.25407e-05
1.25378e-05
1.25348e-05
1.25319e-05
1.25291e-05
1.25263e-05
1.25237e-05
1.2521e-05
1.25185e-05
1.25161e-05
1.25137e-05
1.25115e-05
1.25093e-05
1.25072e-05
1.25053e-05
1.25034e-05
1.25016e-05
1.24999e-05
1.24983e-05
1.24969e-05
1.24957e-05
1.24946e-05
1.24937e-05
1.24929e-05
1.24922e-05
1.24917e-05
1.24912e-05
1.24909e-05
1.24908e-05
1.24908e-05
1.24911e-05
1.24915e-05
1.2492e-05
1.24928e-05
1.24937e-05
1.24948e-05
1.2496e-05
1.24974e-05
1.24989e-05
1.25007e-05
1.25026e-05
1.25047e-05
1.2507e-05
1.25095e-05
1.25123e-05
1.25153e-05
1.25185e-05
1.2522e-05
1.25257e-05
1.25297e-05
1.25339e-05
1.25384e-05
1.25431e-05
1.25482e-05
1.25535e-05
1.25588e-05
1.2564e-05
1.25691e-05
1.25739e-05
1.25786e-05
1.25832e-05
1.25877e-05
1.25921e-05
1.25964e-05
1.26007e-05
1.2605e-05
1.26092e-05
1.26134e-05
1.26177e-05
1.26219e-05
1.26262e-05
1.26305e-05
1.26349e-05
1.26392e-05
1.26436e-05
1.26479e-05
1.26523e-05
1.26566e-05
1.26609e-05
1.26652e-05
1.26694e-05
1.26736e-05
1.26777e-05
1.26817e-05
1.26857e-05
1.26895e-05
1.26932e-05
1.26968e-05
1.27002e-05
1.27034e-05
1.27064e-05
1.27093e-05
1.2712e-05
1.27145e-05
1.27169e-05
1.27191e-05
1.27212e-05
1.27232e-05
1.27249e-05
1.27265e-05
1.27279e-05
1.2729e-05
1.273e-05
1.27307e-05
1.27312e-05
1.27315e-05
1.27315e-05
1.27314e-05
1.2731e-05
1.27305e-05
1.27297e-05
1.27288e-05
1.27278e-05
1.27266e-05
1.27252e-05
1.27237e-05
1.2722e-05
1.27202e-05
1.27183e-05
1.27161e-05
1.27139e-05
1.27115e-05
1.2709e-05
1.27063e-05
1.27036e-05
1.27007e-05
1.26977e-05
1.26947e-05
1.26916e-05
1.26884e-05
1.26851e-05
1.26818e-05
1.26784e-05
1.2675e-05
1.26715e-05
1.26679e-05
1.26643e-05
1.26606e-05
1.26569e-05
1.26531e-05
1.26492e-05
1.26454e-05
1.26415e-05
1.26376e-05
1.26338e-05
1.263e-05
1.26262e-05
1.26225e-05
1.26189e-05
1.26153e-05
1.26117e-05
1.26081e-05
1.26046e-05
1.26011e-05
1.25977e-05
1.25943e-05
1.2591e-05
1.25877e-05
1.25846e-05
1.25816e-05
1.25787e-05
1.25759e-05
1.25732e-05
1.25706e-05
1.25682e-05
1.25659e-05
1.25637e-05
1.25616e-05
1.25597e-05
1.25578e-05
1.25561e-05
1.25544e-05
1.25528e-05
1.25513e-05
1.25498e-05
1.25483e-05
1.25468e-05
1.25452e-05
1.25435e-05
1.25418e-05
1.254e-05
1.25382e-05
1.25363e-05
1.25345e-05
1.25326e-05
1.25307e-05
1.25288e-05
1.25269e-05
1.2525e-05
1.25232e-05
1.25215e-05
1.25198e-05
1.25183e-05
1.25169e-05
1.25155e-05
1.25143e-05
1.25131e-05
1.2512e-05
1.25109e-05
1.25098e-05
1.25087e-05
1.25076e-05
1.25063e-05
1.25049e-05
1.25033e-05
1.25016e-05
1.24996e-05
1.24974e-05
1.24949e-05
1.24921e-05
1.24891e-05
1.24858e-05
1.24822e-05
1.24783e-05
1.24741e-05
1.24698e-05
1.24652e-05
1.24605e-05
1.24557e-05
1.24508e-05
1.24457e-05
1.24407e-05
1.24356e-05
1.24304e-05
1.24252e-05
1.242e-05
1.24148e-05
1.24097e-05
1.24046e-05
1.23995e-05
1.23945e-05
1.23896e-05
1.23846e-05
1.23796e-05
1.23746e-05
1.23695e-05
1.23644e-05
1.23591e-05
1.23537e-05
1.23481e-05
1.23423e-05
1.23364e-05
1.23304e-05
1.23241e-05
1.23178e-05
1.23112e-05
1.23046e-05
1.22978e-05
1.22908e-05
1.22837e-05
1.22763e-05
1.22688e-05
1.2261e-05
1.22531e-05
1.2245e-05
1.22367e-05
1.22284e-05
1.22199e-05
1.22114e-05
1.22028e-05
1.21943e-05
1.21857e-05
1.2177e-05
1.21684e-05
1.21597e-05
1.2151e-05
1.21422e-05
1.21334e-05
1.21246e-05
1.21158e-05
1.21069e-05
1.2098e-05
1.2089e-05
1.208e-05
1.2071e-05
1.2062e-05
1.2053e-05
1.20441e-05
1.20353e-05
1.20266e-05
1.20181e-05
1.20098e-05
1.20017e-05
1.19937e-05
1.1986e-05
1.19784e-05
1.1971e-05
1.19638e-05
1.19567e-05
1.19498e-05
1.19429e-05
1.19362e-05
1.19295e-05
1.1923e-05
1.19165e-05
1.19101e-05
1.19038e-05
1.18976e-05
1.18916e-05
1.18858e-05
1.18801e-05
1.18746e-05
1.18691e-05
1.18639e-05
1.18587e-05
1.18538e-05
1.18487e-05
1.18439e-05
1.18389e-05
1.18343e-05
1.18294e-05
1.18249e-05
1.18201e-05
1.18158e-05
1.1811e-05
1.18067e-05
1.18017e-05
1.17973e-05
1.17923e-05
1.1788e-05
1.17829e-05
1.17785e-05
1.17731e-05
1.17685e-05
1.17625e-05
1.17577e-05
1.17514e-05
1.17466e-05
1.17401e-05
1.17356e-05
1.17289e-05
1.17247e-05
1.17179e-05
1.17142e-05
1.17072e-05
1.17037e-05
1.16961e-05
1.16926e-05
1.16839e-05
1.16803e-05
1.16704e-05
1.16667e-05
1.1656e-05
1.16528e-05
1.16417e-05
1.16394e-05
1.16279e-05
1.16266e-05
1.16145e-05
1.16138e-05
1.16008e-05
1.16004e-05
1.15864e-05
1.15865e-05
1.15713e-05
1.15716e-05
1.15544e-05
1.1554e-05
1.15333e-05
1.15303e-05
1.15027e-05
1.14939e-05
1.14504e-05
1.14304e-05
1.13536e-05
1.13105e-05
1.11644e-05
1.10746e-05
1.07902e-05
1.06031e-05
1.00371e-05
9.68107e-06
8.65697e-06
8.01711e-06
6.73173e-06
6.29015e-06
4.80595e-06
6.26597e-06
3.8593e-06
4.13027e-06
2.48848e-05
5.10638e-05
3.07225e-05
2.21718e-05
1.76844e-05
1.50288e-05
1.34005e-05
1.23652e-05
1.17004e-05
1.12865e-05
1.10517e-05
1.0944e-05
1.09273e-05
1.09739e-05
1.10681e-05
1.12039e-05
1.13791e-05
1.15933e-05
1.18563e-05
1.2175e-05
1.25477e-05
1.29882e-05
1.34997e-05
1.40496e-05
1.46507e-05
1.53153e-05
1.60526e-05
1.68639e-05
1.75277e-05
1.7943e-05
1.83594e-05
1.87732e-05
1.91824e-05
1.9586e-05
1.99832e-05
2.03732e-05
2.07556e-05
2.11298e-05
2.14954e-05
2.18524e-05
2.22009e-05
2.25411e-05
2.2873e-05
2.31967e-05
2.35132e-05
2.38223e-05
2.41254e-05
2.44236e-05
2.47175e-05
2.50067e-05
2.52913e-05
2.55707e-05
2.58448e-05
2.61132e-05
2.63753e-05
2.66307e-05
2.68796e-05
2.71218e-05
2.73569e-05
2.75855e-05
2.78077e-05
2.80236e-05
2.82335e-05
2.84384e-05
2.86383e-05
2.88332e-05
2.9023e-05
2.92079e-05
2.93875e-05
2.95621e-05
2.97314e-05
2.98955e-05
3.0054e-05
3.02071e-05
3.03548e-05
3.04972e-05
3.06342e-05
3.07661e-05
3.08932e-05
3.10155e-05
3.11329e-05
3.12458e-05
3.13542e-05
3.14583e-05
3.15581e-05
3.16536e-05
3.17451e-05
3.18324e-05
3.19158e-05
3.19954e-05
3.2071e-05
3.2143e-05
3.22121e-05
3.22779e-05
3.23413e-05
3.24019e-05
3.24619e-05
3.25209e-05
3.25791e-05
3.2635e-05
3.26889e-05
3.2741e-05
3.27909e-05
3.28386e-05
3.28841e-05
3.29273e-05
3.2968e-05
3.30064e-05
3.30422e-05
3.30757e-05
3.31067e-05
3.31355e-05
3.3162e-05
3.31864e-05
3.32091e-05
3.32287e-05
3.32469e-05
3.3264e-05
3.32789e-05
3.32918e-05
3.33033e-05
3.33131e-05
3.33214e-05
3.33283e-05
3.33339e-05
3.33381e-05
3.33411e-05
3.33431e-05
3.33441e-05
3.33442e-05
3.33436e-05
3.33424e-05
3.33407e-05
3.33385e-05
3.3336e-05
3.33333e-05
3.33304e-05
3.33273e-05
3.33243e-05
3.33213e-05
3.33184e-05
3.33158e-05
3.33133e-05
3.33111e-05
3.3309e-05
3.33071e-05
3.33056e-05
3.33043e-05
3.33035e-05
3.33031e-05
3.33031e-05
3.33035e-05
3.33043e-05
3.33055e-05
3.33069e-05
3.33087e-05
3.33107e-05
3.33129e-05
3.33154e-05
3.33181e-05
3.3321e-05
3.33242e-05
3.33277e-05
3.33314e-05
3.33353e-05
3.33394e-05
3.33438e-05
3.33484e-05
3.33532e-05
3.33582e-05
3.33635e-05
3.3369e-05
3.33748e-05
3.33809e-05
3.33873e-05
3.3394e-05
3.34011e-05
3.34086e-05
3.34165e-05
3.34247e-05
3.34334e-05
3.34426e-05
3.34522e-05
3.34623e-05
3.34729e-05
3.3484e-05
3.34956e-05
3.35078e-05
3.35205e-05
3.35339e-05
3.35479e-05
3.35627e-05
3.35781e-05
3.35942e-05
3.3611e-05
3.36284e-05
3.36464e-05
3.3665e-05
3.36843e-05
3.37041e-05
3.37246e-05
3.37458e-05
3.37676e-05
3.37899e-05
3.38128e-05
3.38362e-05
3.386e-05
3.38843e-05
3.3909e-05
3.39341e-05
3.39597e-05
3.39858e-05
3.40123e-05
3.40394e-05
3.4067e-05
3.40952e-05
3.41241e-05
3.41535e-05
3.41837e-05
3.42145e-05
3.4246e-05
3.42783e-05
3.43112e-05
3.43449e-05
3.43793e-05
3.44074e-05
3.44302e-05
3.44525e-05
3.44747e-05
3.44968e-05
3.45189e-05
3.4541e-05
3.45631e-05
3.45853e-05
3.46074e-05
3.46294e-05
3.46513e-05
3.46731e-05
3.46946e-05
3.47159e-05
3.47369e-05
3.47575e-05
3.47777e-05
3.47974e-05
3.48166e-05
3.48351e-05
3.48531e-05
3.48703e-05
3.48868e-05
3.49025e-05
3.49174e-05
3.49315e-05
3.49447e-05
3.49571e-05
3.49686e-05
3.49793e-05
3.49892e-05
3.49982e-05
3.50064e-05
3.50137e-05
3.50202e-05
3.50257e-05
3.50305e-05
3.50344e-05
3.50375e-05
3.50397e-05
3.50413e-05
3.50421e-05
3.50422e-05
3.50416e-05
3.50403e-05
3.50382e-05
3.50354e-05
3.50319e-05
3.50276e-05
3.50226e-05
3.50169e-05
3.50106e-05
3.50036e-05
3.49961e-05
3.4988e-05
3.49794e-05
3.49704e-05
3.49611e-05
3.49514e-05
3.49415e-05
3.49314e-05
3.49211e-05
3.49108e-05
3.49004e-05
3.489e-05
3.48797e-05
3.48695e-05
3.48595e-05
3.48495e-05
3.48397e-05
3.48299e-05
3.48203e-05
3.48107e-05
3.48012e-05
3.47917e-05
3.47823e-05
3.47728e-05
3.47633e-05
3.47538e-05
3.47442e-05
3.47346e-05
3.47249e-05
3.47152e-05
3.47055e-05
3.46959e-05
3.46865e-05
3.46772e-05
3.46683e-05
3.46597e-05
3.46515e-05
3.46437e-05
3.46363e-05
3.46294e-05
3.46229e-05
3.46167e-05
3.46109e-05
3.46053e-05
3.45999e-05
3.45948e-05
3.45898e-05
3.45849e-05
3.45802e-05
3.45758e-05
3.45717e-05
3.45679e-05
3.45646e-05
3.45618e-05
3.45595e-05
3.45578e-05
3.45567e-05
3.45562e-05
3.45562e-05
3.45567e-05
3.45576e-05
3.45589e-05
3.45603e-05
3.45619e-05
3.45635e-05
3.4565e-05
3.45663e-05
3.45673e-05
3.45679e-05
3.4568e-05
3.45675e-05
3.45664e-05
3.45646e-05
3.45622e-05
3.45592e-05
3.45557e-05
3.45517e-05
3.45473e-05
3.45424e-05
3.45373e-05
3.45319e-05
3.45264e-05
3.45209e-05
3.45154e-05
3.451e-05
3.45047e-05
3.44996e-05
3.44947e-05
3.44898e-05
3.4485e-05
3.44801e-05
3.44751e-05
3.44698e-05
3.44642e-05
3.44582e-05
3.44516e-05
3.44443e-05
3.44363e-05
3.44275e-05
3.44179e-05
3.44072e-05
3.43956e-05
3.43829e-05
3.43692e-05
3.43544e-05
3.43386e-05
3.43217e-05
3.43039e-05
3.42851e-05
3.42656e-05
3.42454e-05
3.42246e-05
3.42034e-05
3.41819e-05
3.41601e-05
3.41381e-05
3.41161e-05
3.4094e-05
3.4072e-05
3.40501e-05
3.40283e-05
3.40068e-05
3.39855e-05
3.39644e-05
3.39436e-05
3.39228e-05
3.39021e-05
3.38813e-05
3.38604e-05
3.38392e-05
3.38179e-05
3.37962e-05
3.37743e-05
3.37521e-05
3.37296e-05
3.37069e-05
3.3684e-05
3.3661e-05
3.36378e-05
3.36147e-05
3.35915e-05
3.35682e-05
3.3545e-05
3.35217e-05
3.34983e-05
3.34749e-05
3.34515e-05
3.34281e-05
3.34047e-05
3.33815e-05
3.33584e-05
3.33356e-05
3.3313e-05
3.32906e-05
3.32683e-05
3.32462e-05
3.32241e-05
3.32021e-05
3.31799e-05
3.31577e-05
3.31354e-05
3.3113e-05
3.30905e-05
3.3068e-05
3.30457e-05
3.30236e-05
3.30018e-05
3.29805e-05
3.29598e-05
3.29398e-05
3.29207e-05
3.29026e-05
3.28856e-05
3.28695e-05
3.28545e-05
3.28405e-05
3.28273e-05
3.28149e-05
3.28031e-05
3.27918e-05
3.27808e-05
3.27701e-05
3.27595e-05
3.2749e-05
3.27386e-05
3.27282e-05
3.27179e-05
3.27077e-05
3.26977e-05
3.26878e-05
3.26782e-05
3.2669e-05
3.266e-05
3.26514e-05
3.26431e-05
3.2635e-05
3.2627e-05
3.26191e-05
3.26112e-05
3.26031e-05
3.25947e-05
3.2586e-05
3.25769e-05
3.25673e-05
3.25573e-05
3.25468e-05
3.25359e-05
3.25245e-05
3.25126e-05
3.25004e-05
3.24877e-05
3.2475e-05
3.2462e-05
3.2449e-05
3.24357e-05
3.24221e-05
3.24079e-05
3.23934e-05
3.23782e-05
3.23629e-05
3.23472e-05
3.23315e-05
3.23155e-05
3.22997e-05
3.22836e-05
3.2268e-05
3.2252e-05
3.22366e-05
3.22204e-05
3.22044e-05
3.21869e-05
3.21691e-05
3.21493e-05
3.2129e-05
3.21065e-05
3.20842e-05
3.206e-05
3.20369e-05
3.20125e-05
3.19899e-05
3.19659e-05
3.19438e-05
3.19199e-05
3.18977e-05
3.18731e-05
3.18502e-05
3.18244e-05
3.18002e-05
3.1772e-05
3.17443e-05
3.17106e-05
3.16749e-05
3.16278e-05
3.15745e-05
3.14991e-05
3.1409e-05
3.12749e-05
3.1109e-05
3.08537e-05
3.05344e-05
3.00377e-05
2.92427e-05
2.8507e-05
2.65549e-05
2.52292e-05
2.24959e-05
2.10688e-05
1.73173e-05
1.39544e-05
1.54267e-05
1.26394e-05
2.18095e-05
0.000146665
0.000110298
8.10818e-05
6.6005e-05
5.36111e-05
4.45868e-05
3.7023e-05
3.12723e-05
2.69803e-05
2.37591e-05
2.12777e-05
1.93314e-05
1.77852e-05
1.65409e-05
1.55316e-05
1.47107e-05
1.4041e-05
1.34955e-05
1.3056e-05
1.27083e-05
1.24445e-05
1.22611e-05
1.21556e-05
1.21242e-05
1.21632e-05
1.22711e-05
1.24478e-05
1.26887e-05
1.29879e-05
1.33429e-05
1.37518e-05
1.42153e-05
1.47347e-05
1.52787e-05
1.58368e-05
1.64087e-05
1.6994e-05
1.75929e-05
1.82055e-05
1.88322e-05
1.94733e-05
2.01289e-05
2.08005e-05
2.14895e-05
2.21981e-05
2.29282e-05
2.35135e-05
2.4091e-05
2.46685e-05
2.52467e-05
2.5826e-05
2.64065e-05
2.69879e-05
2.75696e-05
2.81504e-05
2.87292e-05
2.93039e-05
2.9874e-05
3.04385e-05
3.09965e-05
3.15472e-05
3.20909e-05
3.26276e-05
3.31565e-05
3.36774e-05
3.41898e-05
3.46936e-05
3.51889e-05
3.56755e-05
3.61536e-05
3.66228e-05
3.70831e-05
3.75343e-05
3.79762e-05
3.84083e-05
3.88305e-05
3.9243e-05
3.96455e-05
4.00382e-05
4.04214e-05
4.07967e-05
4.1164e-05
4.15248e-05
4.1879e-05
4.22283e-05
4.25722e-05
4.29125e-05
4.32479e-05
4.35803e-05
4.39072e-05
4.42328e-05
4.45532e-05
4.48711e-05
4.51828e-05
4.54927e-05
4.57974e-05
4.60738e-05
4.63015e-05
4.65211e-05
4.67328e-05
4.6937e-05
4.7134e-05
4.73242e-05
4.75079e-05
4.76855e-05
4.78574e-05
4.80238e-05
4.8185e-05
4.83411e-05
4.84922e-05
4.86385e-05
4.87802e-05
4.89174e-05
4.90504e-05
4.9179e-05
4.93032e-05
4.94235e-05
4.95402e-05
4.96532e-05
4.97626e-05
4.98687e-05
4.99715e-05
5.00711e-05
5.01678e-05
5.02615e-05
5.03525e-05
5.04409e-05
5.05268e-05
5.06103e-05
5.06918e-05
5.07712e-05
5.08489e-05
5.09251e-05
5.09999e-05
5.10734e-05
5.1146e-05
5.12176e-05
5.12885e-05
5.13586e-05
5.14282e-05
5.14975e-05
5.15664e-05
5.16352e-05
5.17037e-05
5.17721e-05
5.18403e-05
5.19081e-05
5.19757e-05
5.20429e-05
5.211e-05
5.21767e-05
5.22433e-05
5.23097e-05
5.23758e-05
5.24415e-05
5.25069e-05
5.25717e-05
5.26359e-05
5.26994e-05
5.27622e-05
5.28243e-05
5.28857e-05
5.29465e-05
5.30067e-05
5.30663e-05
5.31254e-05
5.31841e-05
5.32423e-05
5.33001e-05
5.33575e-05
5.34145e-05
5.34712e-05
5.35276e-05
5.35838e-05
5.36399e-05
5.36959e-05
5.3752e-05
5.38082e-05
5.38647e-05
5.39216e-05
5.39788e-05
5.40367e-05
5.40952e-05
5.41544e-05
5.42144e-05
5.42753e-05
5.43371e-05
5.44e-05
5.44638e-05
5.45288e-05
5.4595e-05
5.46625e-05
5.47313e-05
5.48016e-05
5.48732e-05
5.49461e-05
5.50204e-05
5.50958e-05
5.51723e-05
5.52499e-05
5.53285e-05
5.54081e-05
5.54887e-05
5.55703e-05
5.56527e-05
5.57359e-05
5.58198e-05
5.59044e-05
5.59896e-05
5.60753e-05
5.61616e-05
5.62485e-05
5.6336e-05
5.64242e-05
5.65131e-05
5.66028e-05
5.66933e-05
5.67847e-05
5.6877e-05
5.69702e-05
5.70642e-05
5.71592e-05
5.72549e-05
5.73514e-05
5.74486e-05
5.75463e-05
5.76444e-05
5.77427e-05
5.78413e-05
5.79399e-05
5.80384e-05
5.81367e-05
5.82348e-05
5.83323e-05
5.84291e-05
5.85252e-05
5.86202e-05
5.87142e-05
5.88069e-05
5.88981e-05
5.89878e-05
5.90758e-05
5.9162e-05
5.92462e-05
5.93284e-05
5.94084e-05
5.94861e-05
5.95614e-05
5.96342e-05
5.97045e-05
5.97722e-05
5.98374e-05
5.99e-05
5.996e-05
6.00176e-05
6.00727e-05
6.01253e-05
6.01754e-05
6.0223e-05
6.0268e-05
6.03106e-05
6.03506e-05
6.03882e-05
6.04233e-05
6.0456e-05
6.04864e-05
6.05145e-05
6.05404e-05
6.0564e-05
6.05855e-05
6.06048e-05
6.06219e-05
6.06368e-05
6.06495e-05
6.06602e-05
6.06687e-05
6.06753e-05
6.06799e-05
6.06828e-05
6.0684e-05
6.06837e-05
6.0682e-05
6.06792e-05
6.06753e-05
6.06706e-05
6.06653e-05
6.06595e-05
6.06534e-05
6.06471e-05
6.06409e-05
6.06348e-05
6.06288e-05
6.0623e-05
6.06174e-05
6.0612e-05
6.06067e-05
6.06014e-05
6.05959e-05
6.05903e-05
6.05845e-05
6.05784e-05
6.05718e-05
6.05649e-05
6.05575e-05
6.05497e-05
6.05415e-05
6.05329e-05
6.0524e-05
6.0515e-05
6.05061e-05
6.04974e-05
6.04892e-05
6.04815e-05
6.04747e-05
6.04687e-05
6.04637e-05
6.04598e-05
6.04568e-05
6.04548e-05
6.04537e-05
6.04532e-05
6.04534e-05
6.04542e-05
6.04554e-05
6.0457e-05
6.0459e-05
6.04616e-05
6.04648e-05
6.04689e-05
6.0474e-05
6.04804e-05
6.04882e-05
6.04976e-05
6.05087e-05
6.05216e-05
6.05362e-05
6.05524e-05
6.05701e-05
6.05889e-05
6.06087e-05
6.0629e-05
6.06497e-05
6.06703e-05
6.06906e-05
6.07102e-05
6.07288e-05
6.07461e-05
6.07619e-05
6.07759e-05
6.0788e-05
6.07981e-05
6.08063e-05
6.08125e-05
6.0817e-05
6.08198e-05
6.08212e-05
6.08213e-05
6.08204e-05
6.08187e-05
6.08165e-05
6.0814e-05
6.08116e-05
6.08093e-05
6.08075e-05
6.08059e-05
6.08048e-05
6.08039e-05
6.08031e-05
6.08022e-05
6.0801e-05
6.07991e-05
6.07964e-05
6.07925e-05
6.07871e-05
6.078e-05
6.07708e-05
6.07594e-05
6.07454e-05
6.07287e-05
6.0709e-05
6.06863e-05
6.06604e-05
6.06313e-05
6.0599e-05
6.05635e-05
6.0525e-05
6.04837e-05
6.04399e-05
6.03939e-05
6.0346e-05
6.02968e-05
6.02464e-05
6.01953e-05
6.01437e-05
6.00918e-05
6.00398e-05
5.99881e-05
5.99367e-05
5.98858e-05
5.98356e-05
5.97861e-05
5.97373e-05
5.9689e-05
5.96411e-05
5.95934e-05
5.95455e-05
5.94973e-05
5.94485e-05
5.93992e-05
5.93491e-05
5.92983e-05
5.92467e-05
5.91944e-05
5.91415e-05
5.9088e-05
5.90341e-05
5.898e-05
5.89256e-05
5.88711e-05
5.88164e-05
5.87615e-05
5.87064e-05
5.86511e-05
5.85955e-05
5.85398e-05
5.84839e-05
5.84281e-05
5.83724e-05
5.83169e-05
5.82618e-05
5.82072e-05
5.81529e-05
5.80988e-05
5.8045e-05
5.79911e-05
5.7937e-05
5.78827e-05
5.78279e-05
5.77726e-05
5.7717e-05
5.76611e-05
5.76052e-05
5.75495e-05
5.74944e-05
5.74402e-05
5.73873e-05
5.73362e-05
5.72872e-05
5.72408e-05
5.71972e-05
5.71565e-05
5.71189e-05
5.70841e-05
5.70521e-05
5.70225e-05
5.6995e-05
5.69693e-05
5.6945e-05
5.69218e-05
5.68993e-05
5.68774e-05
5.68558e-05
5.68346e-05
5.68136e-05
5.67929e-05
5.67726e-05
5.67529e-05
5.67338e-05
5.67156e-05
5.66984e-05
5.66822e-05
5.6667e-05
5.66528e-05
5.66392e-05
5.66262e-05
5.66135e-05
5.66006e-05
5.65874e-05
5.65734e-05
5.65584e-05
5.65421e-05
5.65246e-05
5.65058e-05
5.64856e-05
5.64642e-05
5.64413e-05
5.64172e-05
5.63918e-05
5.63655e-05
5.63385e-05
5.63109e-05
5.62828e-05
5.62541e-05
5.62244e-05
5.61935e-05
5.61613e-05
5.6128e-05
5.60937e-05
5.60586e-05
5.60229e-05
5.59867e-05
5.59502e-05
5.59135e-05
5.58767e-05
5.58399e-05
5.58028e-05
5.57651e-05
5.57261e-05
5.56853e-05
5.56418e-05
5.55955e-05
5.55457e-05
5.5493e-05
5.54375e-05
5.53803e-05
5.5322e-05
5.52637e-05
5.52058e-05
5.51487e-05
5.50922e-05
5.50359e-05
5.49796e-05
5.49228e-05
5.48658e-05
5.48075e-05
5.47484e-05
5.46866e-05
5.46217e-05
5.4551e-05
5.4472e-05
5.43796e-05
5.42689e-05
5.41291e-05
5.39501e-05
5.371e-05
5.33871e-05
5.29361e-05
5.23136e-05
5.14251e-05
5.02002e-05
4.84797e-05
4.61204e-05
4.27536e-05
3.74504e-05
3.14459e-05
2.61041e-05
1.95959e-05
1.83605e-05
2.08415e-05
3.05531e-05
0.000182117
0.000110627
7.83179e-05
7.82548e-05
8.4249e-05
9.55374e-05
9.11238e-05
7.98921e-05
7.07617e-05
6.32377e-05
5.69707e-05
5.17295e-05
4.72793e-05
4.3505e-05
4.02892e-05
3.75236e-05
3.51159e-05
3.30088e-05
3.11592e-05
2.95202e-05
2.80373e-05
2.66613e-05
2.53698e-05
2.41652e-05
2.30571e-05
2.20518e-05
2.11491e-05
2.03443e-05
1.96319e-05
1.90048e-05
1.84567e-05
1.79809e-05
1.75725e-05
1.72293e-05
1.69495e-05
1.67311e-05
1.65721e-05
1.64703e-05
1.64265e-05
1.6451e-05
1.65459e-05
1.67052e-05
1.6922e-05
1.71943e-05
1.75228e-05
1.79097e-05
1.83385e-05
1.87972e-05
1.92856e-05
1.98036e-05
2.03505e-05
2.09256e-05
2.15277e-05
2.21553e-05
2.28067e-05
2.34798e-05
2.41721e-05
2.48813e-05
2.56061e-05
2.63457e-05
2.70992e-05
2.77836e-05
2.83995e-05
2.90208e-05
2.96476e-05
3.02804e-05
3.09191e-05
3.15637e-05
3.22143e-05
3.28716e-05
3.35358e-05
3.42076e-05
3.48878e-05
3.55762e-05
3.62727e-05
3.69765e-05
3.76879e-05
3.84058e-05
3.91285e-05
3.98572e-05
4.05931e-05
4.13363e-05
4.20872e-05
4.28459e-05
4.36127e-05
4.43875e-05
4.51698e-05
4.59593e-05
4.67538e-05
4.75537e-05
4.83571e-05
4.91547e-05
4.99514e-05
5.07403e-05
5.14659e-05
5.20472e-05
5.26188e-05
5.31812e-05
5.37339e-05
5.42765e-05
5.48088e-05
5.53308e-05
5.5843e-05
5.63454e-05
5.68383e-05
5.73219e-05
5.77961e-05
5.82611e-05
5.87169e-05
5.91633e-05
5.96005e-05
6.00284e-05
6.04469e-05
6.08565e-05
6.12569e-05
6.16476e-05
6.20295e-05
6.2403e-05
6.27681e-05
6.31248e-05
6.34734e-05
6.38138e-05
6.41463e-05
6.4471e-05
6.4788e-05
6.50973e-05
6.5399e-05
6.56934e-05
6.59807e-05
6.62609e-05
6.65346e-05
6.68019e-05
6.70633e-05
6.73192e-05
6.75699e-05
6.78158e-05
6.80573e-05
6.82946e-05
6.8528e-05
6.87578e-05
6.89844e-05
6.92081e-05
6.94291e-05
6.96476e-05
6.98636e-05
7.0077e-05
7.02879e-05
7.04962e-05
7.07019e-05
7.09051e-05
7.11058e-05
7.13041e-05
7.15001e-05
7.16935e-05
7.18845e-05
7.20728e-05
7.22583e-05
7.24409e-05
7.26206e-05
7.27972e-05
7.29709e-05
7.31418e-05
7.33099e-05
7.34754e-05
7.36384e-05
7.37992e-05
7.39578e-05
7.41143e-05
7.42688e-05
7.44215e-05
7.45724e-05
7.47218e-05
7.48696e-05
7.50162e-05
7.51617e-05
7.53063e-05
7.54503e-05
7.5594e-05
7.57375e-05
7.58811e-05
7.60251e-05
7.61697e-05
7.63151e-05
7.64616e-05
7.66093e-05
7.67584e-05
7.69091e-05
7.70614e-05
7.72155e-05
7.73716e-05
7.75298e-05
7.76902e-05
7.78531e-05
7.80185e-05
7.81863e-05
7.83565e-05
7.85291e-05
7.87038e-05
7.88805e-05
7.90591e-05
7.92394e-05
7.94215e-05
7.96052e-05
7.97903e-05
7.99769e-05
8.01648e-05
8.03537e-05
8.05436e-05
8.07343e-05
8.09258e-05
8.11181e-05
8.13111e-05
8.15051e-05
8.16999e-05
8.18959e-05
8.20929e-05
8.22911e-05
8.24906e-05
8.26913e-05
8.28933e-05
8.30966e-05
8.33009e-05
8.35063e-05
8.37125e-05
8.39193e-05
8.41267e-05
8.43342e-05
8.45417e-05
8.47489e-05
8.49557e-05
8.51618e-05
8.53669e-05
8.55706e-05
8.57727e-05
8.59728e-05
8.61706e-05
8.63657e-05
8.6558e-05
8.6747e-05
8.69326e-05
8.71144e-05
8.72922e-05
8.74659e-05
8.76351e-05
8.77998e-05
8.79597e-05
8.81147e-05
8.82648e-05
8.84099e-05
8.85498e-05
8.86847e-05
8.88146e-05
8.89395e-05
8.90595e-05
8.91747e-05
8.92853e-05
8.93913e-05
8.94926e-05
8.95894e-05
8.96815e-05
8.9769e-05
8.98518e-05
8.99301e-05
9.00037e-05
9.00729e-05
9.01376e-05
9.01981e-05
9.02543e-05
9.03064e-05
9.03545e-05
9.03986e-05
9.04387e-05
9.0475e-05
9.05074e-05
9.05362e-05
9.05613e-05
9.05831e-05
9.06016e-05
9.06169e-05
9.06295e-05
9.06395e-05
9.06472e-05
9.0653e-05
9.06573e-05
9.06605e-05
9.0663e-05
9.06652e-05
9.06674e-05
9.06698e-05
9.06728e-05
9.06765e-05
9.06809e-05
9.0686e-05
9.06917e-05
9.06978e-05
9.0704e-05
9.07101e-05
9.07158e-05
9.07209e-05
9.0725e-05
9.07281e-05
9.073e-05
9.07307e-05
9.073e-05
9.07282e-05
9.07252e-05
9.07214e-05
9.07169e-05
9.07122e-05
9.07076e-05
9.07035e-05
9.07002e-05
9.06982e-05
9.06977e-05
9.06989e-05
9.0702e-05
9.07069e-05
9.07136e-05
9.0722e-05
9.07319e-05
9.07431e-05
9.07553e-05
9.07685e-05
9.07825e-05
9.07973e-05
9.0813e-05
9.08298e-05
9.08479e-05
9.08678e-05
9.08898e-05
9.09144e-05
9.09418e-05
9.09725e-05
9.10065e-05
9.1044e-05
9.10848e-05
9.11287e-05
9.11754e-05
9.12241e-05
9.12744e-05
9.13255e-05
9.13767e-05
9.14274e-05
9.1477e-05
9.15247e-05
9.157e-05
9.16124e-05
9.16512e-05
9.16862e-05
9.17169e-05
9.17434e-05
9.17655e-05
9.17835e-05
9.17976e-05
9.1808e-05
9.18154e-05
9.182e-05
9.18224e-05
9.18232e-05
9.18228e-05
9.18218e-05
9.18208e-05
9.182e-05
9.18197e-05
9.18201e-05
9.18209e-05
9.18222e-05
9.18235e-05
9.18245e-05
9.18249e-05
9.18242e-05
9.18218e-05
9.18173e-05
9.18101e-05
9.17996e-05
9.17855e-05
9.17672e-05
9.17442e-05
9.17161e-05
9.16825e-05
9.16431e-05
9.15977e-05
9.1546e-05
9.14881e-05
9.14239e-05
9.13539e-05
9.12782e-05
9.11976e-05
9.11126e-05
9.1024e-05
9.09325e-05
9.08388e-05
9.07437e-05
9.06477e-05
9.05513e-05
9.0455e-05
9.03593e-05
9.02644e-05
9.01708e-05
9.00786e-05
8.99879e-05
8.98986e-05
8.98105e-05
8.97231e-05
8.96361e-05
8.95488e-05
8.94611e-05
8.93725e-05
8.92828e-05
8.91919e-05
8.90998e-05
8.90065e-05
8.89122e-05
8.88169e-05
8.8721e-05
8.86247e-05
8.85281e-05
8.84314e-05
8.83346e-05
8.82377e-05
8.81406e-05
8.80434e-05
8.79459e-05
8.7848e-05
8.775e-05
8.76518e-05
8.75536e-05
8.74556e-05
8.73581e-05
8.7261e-05
8.71645e-05
8.70684e-05
8.69727e-05
8.68769e-05
8.67807e-05
8.66838e-05
8.6586e-05
8.64869e-05
8.63867e-05
8.62854e-05
8.61832e-05
8.60808e-05
8.59787e-05
8.58777e-05
8.57786e-05
8.56822e-05
8.55895e-05
8.55013e-05
8.54183e-05
8.5341e-05
8.52698e-05
8.52046e-05
8.51452e-05
8.5091e-05
8.50416e-05
8.49962e-05
8.49541e-05
8.49145e-05
8.48767e-05
8.48402e-05
8.48046e-05
8.47695e-05
8.4735e-05
8.47008e-05
8.46672e-05
8.46343e-05
8.46024e-05
8.45716e-05
8.45424e-05
8.45151e-05
8.44895e-05
8.44658e-05
8.44437e-05
8.44227e-05
8.44026e-05
8.43826e-05
8.43621e-05
8.43404e-05
8.43168e-05
8.42908e-05
8.42619e-05
8.42299e-05
8.4195e-05
8.4157e-05
8.41162e-05
8.40725e-05
8.40261e-05
8.39772e-05
8.39263e-05
8.38739e-05
8.38203e-05
8.37656e-05
8.37097e-05
8.36519e-05
8.35922e-05
8.35301e-05
8.34661e-05
8.34e-05
8.33327e-05
8.3264e-05
8.31947e-05
8.31243e-05
8.30537e-05
8.29823e-05
8.29109e-05
8.28383e-05
8.27647e-05
8.2688e-05
8.26083e-05
8.25234e-05
8.24337e-05
8.23373e-05
8.22358e-05
8.21287e-05
8.20186e-05
8.1906e-05
8.17937e-05
8.16817e-05
8.15718e-05
8.14629e-05
8.13557e-05
8.12485e-05
8.11419e-05
8.10348e-05
8.09272e-05
8.08182e-05
8.07068e-05
8.05912e-05
8.04691e-05
8.03363e-05
8.01873e-05
8.00142e-05
7.9805e-05
7.95434e-05
7.92042e-05
7.87533e-05
7.81365e-05
7.7284e-05
7.60788e-05
7.43837e-05
7.19524e-05
6.64476e-05
5.93337e-05
5.10022e-05
4.08416e-05
3.5454e-05
2.60778e-05
2.15099e-05
2.49982e-05
3.42059e-05
0.000180918
0.000101588
7.44939e-05
7.30605e-05
7.89496e-05
8.75903e-05
0.000103014
0.000117272
0.000124148
0.000115242
0.000107383
0.000100268
9.38183e-05
8.80124e-05
8.27936e-05
7.80924e-05
7.3832e-05
6.99624e-05
6.6446e-05
6.32289e-05
6.02519e-05
5.74587e-05
5.48147e-05
5.23111e-05
4.99541e-05
4.77504e-05
4.57007e-05
4.37994e-05
4.20393e-05
4.0413e-05
3.89108e-05
3.75235e-05
3.62402e-05
3.50528e-05
3.39547e-05
3.29411e-05
3.20077e-05
3.11504e-05
3.03521e-05
2.95425e-05
2.86918e-05
2.78394e-05
2.70255e-05
2.62723e-05
2.55895e-05
2.49806e-05
2.44475e-05
2.39904e-05
2.36077e-05
2.32976e-05
2.30573e-05
2.28844e-05
2.27767e-05
2.27322e-05
2.2749e-05
2.28259e-05
2.29617e-05
2.31563e-05
2.34087e-05
2.37187e-05
2.40855e-05
2.45074e-05
2.49821e-05
2.55084e-05
2.60852e-05
2.67105e-05
2.73704e-05
2.80651e-05
2.87949e-05
2.95599e-05
3.03601e-05
3.11952e-05
3.20649e-05
3.29684e-05
3.39048e-05
3.48728e-05
3.58711e-05
3.68979e-05
3.79516e-05
3.90306e-05
4.01336e-05
4.12591e-05
4.24059e-05
4.35727e-05
4.47582e-05
4.59602e-05
4.7176e-05
4.8402e-05
4.96341e-05
5.08683e-05
5.21003e-05
5.33246e-05
5.45354e-05
5.57274e-05
5.68965e-05
5.80395e-05
5.91552e-05
6.02438e-05
6.13052e-05
6.23414e-05
6.33541e-05
6.43447e-05
6.53143e-05
6.62639e-05
6.71934e-05
6.81024e-05
6.89911e-05
6.98597e-05
7.0709e-05
7.15389e-05
7.23502e-05
7.31429e-05
7.39175e-05
7.46746e-05
7.54137e-05
7.61355e-05
7.68419e-05
7.7533e-05
7.8209e-05
7.88702e-05
7.95169e-05
8.01491e-05
8.07666e-05
8.13694e-05
8.19572e-05
8.253e-05
8.30876e-05
8.36302e-05
8.4158e-05
8.46715e-05
8.51711e-05
8.56576e-05
8.61317e-05
8.65943e-05
8.70463e-05
8.74884e-05
8.79215e-05
8.83461e-05
8.87628e-05
8.91724e-05
8.95754e-05
8.99724e-05
9.03637e-05
9.07497e-05
9.11304e-05
9.15059e-05
9.18759e-05
9.22405e-05
9.25997e-05
9.29534e-05
9.33019e-05
9.36449e-05
9.39826e-05
9.43149e-05
9.46417e-05
9.49629e-05
9.52782e-05
9.55877e-05
9.58912e-05
9.61888e-05
9.64808e-05
9.67672e-05
9.70485e-05
9.73249e-05
9.75967e-05
9.78642e-05
9.81276e-05
9.83872e-05
9.86432e-05
9.88958e-05
9.91452e-05
9.93917e-05
9.96356e-05
9.98772e-05
0.000100117
0.000100355
0.000100593
0.000100829
0.000101066
0.000101303
0.000101541
0.00010178
0.000102021
0.000102264
0.000102509
0.000102756
0.000103007
0.00010326
0.000103516
0.000103776
0.00010404
0.000104307
0.000104578
0.000104853
0.000105132
0.000105415
0.000105702
0.000105992
0.000106286
0.000106582
0.000106881
0.000107183
0.000107488
0.000107794
0.000108102
0.000108412
0.000108724
0.000109036
0.000109349
0.000109664
0.000109979
0.000110295
0.000110611
0.000110929
0.000111248
0.000111568
0.000111889
0.000112211
0.000112535
0.00011286
0.000113186
0.000113513
0.00011384
0.000114168
0.000114496
0.000114824
0.000115151
0.000115476
0.0001158
0.000116122
0.000116442
0.000116759
0.000117072
0.000117381
0.000117687
0.000117987
0.000118282
0.000118571
0.000118854
0.00011913
0.000119399
0.000119661
0.000119916
0.000120163
0.000120402
0.000120633
0.000120856
0.000121071
0.000121277
0.000121476
0.000121667