/*--------------------------------*- C++ -*----------------------------------*\
| =========                 |                                                 |
| \\      /  F ield         | foam-extend: Open Source CFD                    |
|  \\    /   O peration     | Version:     3.2                                |
|   \\  /    A nd           | Web:         http://www.foam-extend.org         |
|    \\/     M anipulation  | For copyright notice see file Copyright         |
\*---------------------------------------------------------------------------*/
FoamFile
{
    version     2.0;
    format      ascii;
    class       volScalarField;
    location    "200";
    object      omega;
}
// * * * * * * * * * * * * * * * * * * * * * * * * * * * * * * * * * * * * * //

dimensions      [0 0 -1 0 0 0 0];

internalField   nonuniform List<scalar> 
33000
(
26.0595
29.4735
33.1093
36.8585
40.6023
44.2255
47.6311
50.7398
53.4989
55.8774
57.8682
59.4805
60.7382
61.6725
62.3184
62.7131
62.8947
62.8992
62.7613
62.5199
62.1963
61.8091
61.3738
60.9044
60.4131
59.9107
59.4061
58.9085
58.424
57.9533
57.4974
57.0581
56.637
56.2349
55.8521
55.4888
55.1449
54.82
54.5135
54.2247
53.9531
53.6978
53.458
53.2327
53.0213
52.8228
52.6367
52.4623
52.299
52.146
52.0028
51.8687
51.7431
51.6252
51.5144
51.4101
51.3116
51.2185
51.1302
51.0463
50.9664
50.8901
50.8172
50.7474
50.6805
50.6162
50.5543
50.4948
50.4373
50.3819
50.3281
50.276
50.2253
50.1758
50.1274
50.0801
50.0336
49.9881
49.9435
49.8999
49.8571
49.8151
49.7739
49.7333
49.6934
49.654
49.6151
49.5766
49.5385
49.5006
49.463
49.4255
49.3881
49.351
49.314
49.2772
49.2407
49.2046
49.1688
49.1333
49.0981
49.0632
49.0283
48.9935
48.9586
48.9237
48.8887
48.8535
48.8182
48.7825
48.7466
48.7104
48.6739
48.6372
48.6001
48.5627
48.5249
48.4869
48.4485
48.4098
48.3709
48.3317
48.2922
48.2524
48.2123
48.172
48.1315
48.0908
48.0499
48.0088
47.9677
47.9264
47.8852
47.8439
47.8027
47.7616
47.7206
47.6797
47.639
47.5985
47.5583
47.5183
47.4785
47.4391
47.3999
47.361
47.3225
47.2842
47.2462
47.2086
47.1713
47.1343
47.0977
47.0614
47.0254
46.9897
46.9543
46.9193
46.8845
46.85
46.8159
46.782
46.7484
46.7151
46.6821
46.6494
46.617
46.5849
46.553
46.5215
46.4902
46.4592
46.4284
46.398
46.3678
46.338
46.3084
46.2792
46.2502
46.2216
46.1934
46.1654
46.1378
46.1106
46.0837
46.0572
46.031
46.0053
45.9799
45.9548
45.9302
45.906
45.8822
45.8588
45.8358
45.8132
45.791
45.7691
45.7477
45.7267
45.7061
45.6858
45.666
45.6466
45.6275
45.6089
45.5906
45.5728
45.5553
45.5383
45.5216
45.5053
45.4895
45.474
45.459
45.4444
45.4302
45.4164
45.4031
45.3902
45.3778
45.3658
45.3542
45.343
45.3323
45.3218
45.3115
45.3015
45.2916
45.282
45.2726
45.2634
45.2543
45.2455
45.2368
45.2282
45.2198
45.2116
45.2035
45.1956
45.1878
45.1801
45.1725
45.165
45.1576
45.1503
45.1429
45.1356
45.1283
45.121
45.1137
45.1064
45.0989
45.0915
45.0839
45.0763
45.0686
45.0608
45.0528
45.0448
45.0365
45.0282
45.0197
45.0111
45.0023
44.9934
44.9844
44.9752
44.966
44.9566
44.947
44.9373
44.9275
44.9175
44.9073
44.8969
44.8863
44.8756
44.8647
44.8536
44.8423
44.8309
44.8193
44.8077
44.7959
44.784
44.7721
44.76
44.7479
44.7357
44.7235
44.7112
44.6988
44.6864
44.674
44.6615
44.649
44.6365
44.624
44.6114
44.5988
44.5862
44.5735
44.5608
44.5481
44.5353
44.5224
44.5095
44.4965
44.4835
44.4704
44.4573
44.4442
44.4311
44.418
44.405
44.392
44.3792
44.3664
44.3537
44.3412
44.3287
44.3163
44.3039
44.2917
44.2796
44.2675
44.2556
44.2438
44.2321
44.2206
44.2093
44.1982
44.1872
44.1765
44.1659
44.1556
44.1454
44.1354
44.1255
44.1158
44.1062
44.0966
44.0872
44.0777
44.0682
44.0587
44.0492
44.0396
44.0299
44.0201
44.0102
44.0003
43.9903
43.9803
43.9702
43.9601
43.95
43.9399
43.9299
43.9199
43.9101
43.9003
43.8906
43.8811
43.8717
43.8623
43.853
43.8438
43.8345
43.8253
43.816
43.8065
43.797
43.7872
43.7773
43.7671
43.7567
43.7459
43.7349
43.7236
43.7119
43.6999
43.6876
43.675
43.6621
43.649
43.6356
43.622
43.6083
43.5944
43.5804
43.5664
43.5522
43.538
43.5238
43.5096
43.4953
43.4811
43.4668
43.4526
43.4384
43.4243
43.4101
43.3959
43.3817
43.3674
43.3531
43.3387
43.3241
43.3093
43.2945
43.2794
43.2642
43.2488
43.2332
43.2175
43.2016
43.1855
43.1693
43.1529
43.1364
43.1196
43.1027
43.0856
43.0683
43.0509
43.0333
43.0155
42.9977
42.9797
42.9616
42.9434
42.9252
42.9068
42.8883
42.8697
42.851
42.8321
42.8132
42.7941
42.7749
42.7557
42.7364
42.717
42.6977
42.6784
42.6592
42.6402
42.6213
42.6025
42.5841
42.5658
42.5478
42.5301
42.5127
42.4955
42.4785
42.4618
42.4452
42.4289
42.4127
42.3967
42.3809
42.3652
42.3497
42.3343
42.3191
42.3041
42.2893
42.2747
42.2603
42.246
42.232
42.2181
42.2043
42.1907
42.177
42.1634
42.1499
42.1363
42.1227
42.1091
42.0955
42.0818
42.068
42.0542
42.0403
42.0262
42.0121
41.998
41.9837
41.9693
41.9549
41.9402
41.9255
41.9105
41.8955
41.8803
41.8651
41.8498
41.8346
41.8194
41.8042
41.7891
41.774
41.7588
41.7436
41.7282
41.7126
41.6966
41.6804
41.6638
41.6469
41.6298
41.6125
41.5951
41.5777
41.5602
41.5427
41.5252
41.5077
41.49
41.4723
41.4543
41.4361
41.4171
41.3975
41.3762
41.3532
41.3265
41.2958
41.2574
41.2102
41.1468
41.0643
40.9474
40.7888
40.5566
40.2289
39.7469
39.044
38.0064
36.5294
34.414
31.4058
26.1465
20.3111
20.9317
6.12381
2.22036
3.80892
5.53374
7.34855
9.27703
11.2191
13.1151
14.9398
16.6777
18.2943
19.7642
21.0706
22.2045
23.1712
23.9865
24.6684
25.2341
25.7106
26.1155
26.4544
26.7383
26.9571
27.0607
27.0677
26.9939
26.8569
26.6811
26.5003
26.3466
26.24
26.1826
26.1597
26.1598
26.1734
26.1933
26.2138
26.2306
26.2412
26.2437
26.2368
26.22
26.1934
26.1574
26.1124
26.0593
25.9989
25.933
25.8623
25.7871
25.7076
25.6239
25.5361
25.444
25.3477
25.2475
25.1436
25.036
24.9261
24.8149
24.7031
24.5912
24.4797
24.3687
24.2584
24.1488
24.0401
23.9325
23.8259
23.7207
23.617
23.5149
23.4146
23.3163
23.2198
23.1253
23.0326
22.9417
22.8525
22.7648
22.6789
22.5947
22.5122
22.4314
22.3523
22.275
22.1995
22.1257
22.0536
21.9832
21.9144
21.8472
21.7813
21.7166
21.6529
21.5901
21.5279
21.4663
21.4052
21.3449
21.2853
21.2265
21.1683
21.1108
21.0539
20.9976
20.9419
20.8869
20.8325
20.7788
20.7257
20.6733
20.6216
20.5705
20.52
20.4703
20.4214
20.373
20.3252
20.2781
20.2317
20.186
20.1411
20.0969
20.0534
20.0106
19.9685
19.9272
19.8866
19.8467
19.8074
19.7688
19.7308
19.6934
19.6566
19.6204
19.5848
19.5497
19.5153
19.4814
19.4481
19.4153
19.3831
19.3514
19.3202
19.2896
19.2595
19.2299
19.2007
19.1721
19.1439
19.1161
19.0888
19.0619
19.0354
19.0094
18.9837
18.9585
18.9337
18.9093
18.8853
18.8616
18.8383
18.8154
18.7928
18.7706
18.7486
18.727
18.7057
18.6848
18.6641
18.6437
18.6237
18.6038
18.5843
18.565
18.5459
18.527
18.5083
18.4898
18.4716
18.4535
18.4357
18.418
18.4006
18.3833
18.3662
18.3493
18.3326
18.316
18.2997
18.2834
18.2673
18.2514
18.2356
18.22
18.2046
18.1893
18.1741
18.1591
18.1443
18.1295
18.1149
18.1004
18.086
18.0718
18.0576
18.0436
18.0297
18.016
18.0024
17.989
17.9757
17.9625
17.9494
17.9365
17.9237
17.9111
17.8986
17.8861
17.8739
17.8617
17.8497
17.8377
17.826
17.8143
17.8027
17.7911
17.7797
17.7684
17.7571
17.746
17.7349
17.724
17.7132
17.7024
17.6918
17.6813
17.6708
17.6605
17.6502
17.64
17.6298
17.6198
17.6098
17.5999
17.59
17.5802
17.5705
17.5609
17.5513
17.5418
17.5323
17.5229
17.5136
17.5043
17.4951
17.486
17.477
17.468
17.4591
17.4503
17.4416
17.433
17.4244
17.4158
17.4073
17.3989
17.3905
17.3822
17.374
17.3659
17.3579
17.35
17.3422
17.3345
17.327
17.3195
17.3121
17.3048
17.2975
17.2903
17.2831
17.276
17.269
17.262
17.255
17.2481
17.2413
17.2346
17.2279
17.2213
17.2148
17.2084
17.202
17.1957
17.1894
17.1832
17.1771
17.1711
17.165
17.1591
17.1532
17.1473
17.1415
17.1358
17.1301
17.1244
17.1188
17.1132
17.1077
17.1021
17.0965
17.091
17.0853
17.0797
17.074
17.0683
17.0626
17.0569
17.0512
17.0455
17.0398
17.0341
17.0284
17.0228
17.0171
17.0115
17.0059
17.0003
16.9947
16.9891
16.9835
16.978
16.9724
16.9668
16.9613
16.9558
16.9503
16.9449
16.9394
16.934
16.9286
16.9232
16.9178
16.9124
16.907
16.9017
16.8964
16.8911
16.8858
16.8806
16.8754
16.8702
16.8649
16.8597
16.8544
16.8492
16.8439
16.8387
16.8334
16.8281
16.8228
16.8175
16.8121
16.8068
16.8014
16.7961
16.7907
16.7854
16.7801
16.7748
16.7695
16.7643
16.7592
16.7541
16.749
16.744
16.739
16.7341
16.7293
16.7245
16.7197
16.715
16.7103
16.7056
16.701
16.6963
16.6916
16.6869
16.6822
16.6774
16.6726
16.6678
16.663
16.6581
16.6533
16.6484
16.6435
16.6385
16.6335
16.6285
16.6234
16.6183
16.6131
16.608
16.603
16.598
16.593
16.5881
16.5833
16.5786
16.5739
16.5693
16.5647
16.5602
16.5556
16.5512
16.5467
16.5423
16.538
16.5338
16.5296
16.5255
16.5215
16.5175
16.5136
16.5097
16.5059
16.502
16.498
16.4941
16.4901
16.486
16.4819
16.4777
16.4735
16.4693
16.465
16.4607
16.4563
16.4518
16.4474
16.4428
16.4383
16.4337
16.429
16.4243
16.4196
16.4147
16.4098
16.4048
16.3997
16.3945
16.3893
16.384
16.3786
16.3732
16.3678
16.3624
16.3571
16.3517
16.3464
16.3411
16.3358
16.3306
16.3254
16.3203
16.3152
16.3101
16.305
16.2999
16.2948
16.2898
16.2847
16.2798
16.2748
16.2699
16.265
16.2602
16.2553
16.2505
16.2456
16.2407
16.2357
16.2308
16.2259
16.221
16.2162
16.2112
16.2063
16.2013
16.1963
16.1913
16.1864
16.1816
16.1768
16.172
16.1673
16.1623
16.1574
16.1522
16.1471
16.1417
16.1364
16.131
16.1258
16.1205
16.1155
16.1106
16.1062
16.1016
16.0976
16.0931
16.089
16.0843
16.0798
16.0746
16.0697
16.0641
16.059
16.0534
16.0485
16.043
16.0386
16.0337
16.0302
16.0267
16.0254
16.0252
16.0287
16.0353
16.0487
16.0694
16.1033
16.153
16.2299
16.3413
16.5102
16.7527
17.1119
17.6114
18.3392
19.2227
20.4102
21.5234
23.1058
23.8314
20.0469
12.2334
6.72561
0.75877
1.01488
1.34923
1.73103
2.15518
2.62107
3.19465
3.82777
4.49061
5.15949
5.82935
6.48433
7.11809
7.72281
8.29449
8.83075
9.33249
9.80153
10.2393
10.6469
11.0257
11.376
11.6941
11.9806
12.2386
12.4729
12.6902
12.8969
13.1015
13.3123
13.5347
13.7702
14.0188
14.2584
14.4825
14.691
14.8834
15.0593
15.218
15.3589
15.4813
15.5842
15.6674
15.7305
15.7735
15.7962
15.7998
15.7864
15.7584
15.7185
15.6697
15.6151
15.5577
15.5002
15.4445
15.3917
15.3432
15.2977
15.2542
15.2117
15.1696
15.1277
15.0861
15.0443
15.0024
14.9602
14.9175
14.8744
14.8306
14.7862
14.741
14.6948
14.6476
14.5991
14.5493
14.4981
14.4454
14.391
14.3352
14.2779
14.2194
14.1598
14.0992
14.0378
13.9759
13.9135
13.8508
13.7878
13.7247
13.6616
13.5984
13.5353
13.4721
13.409
13.346
13.2835
13.2214
13.1595
13.098
13.037
12.9765
12.9166
12.8572
12.7985
12.7403
12.6828
12.6259
12.5698
12.5145
12.4601
12.4064
12.3537
12.3019
12.2509
12.201
12.152
12.104
12.0569
12.0108
11.9656
11.9214
11.8782
11.836
11.7947
11.7544
11.7151
11.6767
11.6392
11.6026
11.5669
11.5321
11.4981
11.4649
11.4326
11.401
11.3701
11.34
11.3106
11.282
11.254
11.2266
11.1999
11.1738
11.1482
11.1233
11.0989
11.0752
11.0519
11.0292
11.007
10.9852
10.9639
10.9431
10.9227
10.9027
10.8832
10.8641
10.8455
10.8272
10.8094
10.792
10.775
10.7584
10.7421
10.7262
10.7106
10.6954
10.6805
10.6659
10.6516
10.6377
10.624
10.6106
10.5975
10.5846
10.572
10.5596
10.5475
10.5355
10.5237
10.5121
10.5007
10.4895
10.4784
10.4675
10.4567
10.4461
10.4356
10.4253
10.4151
10.405
10.3951
10.3852
10.3754
10.3657
10.3561
10.3466
10.3372
10.3279
10.3187
10.3095
10.3004
10.2914
10.2825
10.2736
10.2647
10.256
10.2473
10.2386
10.2301
10.2216
10.2133
10.2049
10.1967
10.1885
10.1804
10.1724
10.1644
10.1565
10.1486
10.1408
10.1331
10.1254
10.1178
10.1102
10.1026
10.0949
10.0873
10.0797
10.0721
10.0645
10.0569
10.0493
10.0417
10.0342
10.0266
10.0192
10.0117
10.0043
9.99685
9.98948
9.98213
9.97481
9.96752
9.96027
9.95305
9.94587
9.93873
9.93163
9.92458
9.91757
9.91061
9.9037
9.89683
9.89
9.88322
9.87649
9.86982
9.86322
9.85668
9.85022
9.84382
9.83749
9.83123
9.82501
9.81885
9.81273
9.80667
9.80066
9.79471
9.78883
9.78304
9.77733
9.77171
9.76618
9.76075
9.7554
9.75015
9.74497
9.73987
9.73484
9.72986
9.72495
9.72009
9.71528
9.71053
9.70584
9.7012
9.69663
9.69213
9.68768
9.6833
9.67897
9.67471
9.67051
9.66637
9.6623
9.65828
9.65431
9.6504
9.64653
9.64272
9.63895
9.63523
9.63155
9.62793
9.62435
9.62083
9.61735
9.61391
9.6105
9.60711
9.60373
9.60035
9.59697
9.59358
9.59017
9.58676
9.58334
9.57991
9.57649
9.57307
9.56967
9.56628
9.56291
9.55955
9.5562
9.55286
9.54953
9.5462
9.54286
9.53951
9.53616
9.53281
9.52945
9.52608
9.52272
9.51935
9.51599
9.51262
9.50925
9.50588
9.50249
9.49909
9.49569
9.49229
9.4889
9.48552
9.48217
9.47884
9.47554
9.47225
9.46898
9.46571
9.46244
9.45917
9.45591
9.45265
9.44939
9.44612
9.44285
9.43955
9.43623
9.43289
9.42952
9.42614
9.42273
9.41931
9.41588
9.41245
9.40902
9.40559
9.40218
9.39879
9.39542
9.39209
9.38879
9.38554
9.38234
9.3792
9.37612
9.3731
9.37014
9.36724
9.3644
9.36161
9.35887
9.35616
9.35347
9.3508
9.34813
9.34547
9.34282
9.34017
9.33754
9.3349
9.33226
9.32961
9.32693
9.32422
9.32146
9.31867
9.31584
9.31299
9.31013
9.30727
9.30444
9.30163
9.29886
9.29614
9.29347
9.29086
9.2883
9.28579
9.28334
9.28093
9.27856
9.27625
9.27398
9.27176
9.26962
9.26756
9.26558
9.26369
9.26188
9.26016
9.2585
9.2569
9.25534
9.25381
9.25229
9.25078
9.24927
9.24776
9.24626
9.24475
9.24323
9.24172
9.24019
9.23866
9.23712
9.23557
9.23401
9.23244
9.23086
9.22927
9.22766
9.22603
9.22436
9.22263
9.22085
9.21901
9.21711
9.21514
9.21311
9.21103
9.20889
9.20671
9.20449
9.20225
9.19999
9.19772
9.19546
9.19321
9.19097
9.18874
9.18653
9.18433
9.18211
9.17989
9.17765
9.1754
9.17314
9.17088
9.16861
9.16635
9.16408
9.16182
9.15956
9.15729
9.15502
9.15273
9.1504
9.14805
9.14568
9.14331
9.14095
9.1386
9.13623
9.13382
9.13138
9.12892
9.12648
9.12409
9.12178
9.11952
9.1173
9.11509
9.11286
9.11059
9.10828
9.10591
9.10349
9.10098
9.09844
9.09587
9.09332
9.09085
9.08852
9.08637
9.08444
9.08268
9.08108
9.07952
9.07795
9.07626
9.07444
9.07243
9.07031
9.06808
9.06587
9.06366
9.06158
9.05962
9.0579
9.05651
9.05566
9.05565
9.05685
9.05986
9.06557
9.07499
9.0901
9.11306
9.14807
9.20003
9.27829
9.3941
9.5692
9.82837
10.2202
10.808
11.661
12.9332
14.6736
17.1507
19.7753
19.6185
13.9907
7.45649
0.610139
0.656618
0.728795
0.823887
0.942604
1.08525
1.25294
1.43149
1.61714
1.80919
2.00638
2.20621
2.40863
2.61038
2.80948
3.00525
3.19817
3.38768
3.5725
3.75336
3.93373
4.11853
4.31041
4.50872
4.71104
4.91509
5.11944
5.3236
5.52774
5.73252
5.93944
6.14968
6.36472
6.58362
6.80504
7.02785
7.2509
7.47328
7.69295
7.9032
8.10186
8.2935
8.48162
8.66803
8.8533
9.03729
9.21284
9.37514
9.52413
9.66006
9.78348
9.89522
9.99625
10.0876
10.1702
10.2447
10.3119
10.3716
10.4237
10.4682
10.5048
10.5335
10.5543
10.5673
10.5726
10.5704
10.561
10.545
10.5228
10.495
10.4625
10.4259
10.3861
10.3437
10.2995
10.2543
10.2084
10.1622
10.1162
10.0704
10.0249
9.9796
9.93452
9.88935
9.84388
9.79792
9.75127
9.70378
9.65528
9.60571
9.55499
9.50309
9.44999
9.39578
9.34052
9.2845
9.2279
9.17093
9.11379
9.05674
8.99997
8.94365
8.88791
8.83286
8.77857
8.72512
8.67256
8.62096
8.57036
8.52079
8.47229
8.42488
8.37854
8.33329
8.28919
8.24621
8.20431
8.16347
8.12373
8.08506
8.04744
8.01087
7.97533
7.94079
7.90725
7.87468
7.84307
7.81241
7.78267
7.75382
7.72584
7.69871
7.6724
7.64687
7.62212
7.59812
7.57484
7.55226
7.53035
7.50909
7.48844
7.46837
7.44886
7.4299
7.41148
7.39358
7.3762
7.35931
7.34289
7.32692
7.31137
7.29624
7.28151
7.26717
7.25322
7.23965
7.22647
7.21366
7.20124
7.18917
7.17746
7.16609
7.15505
7.14432
7.1339
7.12377
7.11393
7.10437
7.09509
7.08607
7.07731
7.0688
7.06053
7.05249
7.04466
7.03704
7.0296
7.02235
7.01527
7.00835
7.00158
6.99496
6.98847
6.9821
6.97586
6.96973
6.96372
6.95781
6.95201
6.9463
6.94067
6.93512
6.92963
6.92421
6.91884
6.91354
6.9083
6.90312
6.89801
6.89295
6.88794
6.88298
6.87805
6.87315
6.86828
6.86345
6.85865
6.85389
6.84918
6.84452
6.83991
6.83534
6.83082
6.82633
6.82189
6.81748
6.81311
6.80877
6.80445
6.80016
6.7959
6.79165
6.78743
6.78324
6.77906
6.77489
6.77072
6.76655
6.76236
6.75816
6.75395
6.74973
6.74549
6.74125
6.737
6.73274
6.72849
6.72423
6.71997
6.71571
6.71145
6.70719
6.70293
6.69867
6.69441
6.69016
6.68591
6.68167
6.67745
6.67323
6.66903
6.66484
6.66066
6.6565
6.65235
6.64821
6.64409
6.63998
6.6359
6.63185
6.62783
6.62384
6.61988
6.61595
6.61205
6.60816
6.6043
6.60046
6.59664
6.59284
6.58908
6.58535
6.58166
6.57802
6.57443
6.57089
6.5674
6.56396
6.56057
6.55722
6.55392
6.55065
6.54741
6.5442
6.54103
6.53788
6.53476
6.53167
6.52862
6.5256
6.52261
6.51966
6.51675
6.51387
6.51102
6.50822
6.50546
6.50274
6.50005
6.49741
6.49479
6.49221
6.48967
6.48716
6.48468
6.48223
6.47983
6.47746
6.47512
6.47281
6.47053
6.46828
6.46603
6.4638
6.46157
6.45934
6.45711
6.45488
6.45264
6.45041
6.44818
6.44596
6.44375
6.44156
6.43938
6.43722
6.43507
6.43293
6.43081
6.42868
6.42656
6.42443
6.42231
6.42018
6.41804
6.4159
6.41376
6.41162
6.40948
6.40734
6.4052
6.40305
6.40089
6.39871
6.39653
6.39435
6.39216
6.38998
6.38781
6.38565
6.3835
6.38136
6.37923
6.3771
6.37497
6.37283
6.37069
6.36854
6.36639
6.36424
6.36207
6.35989
6.35768
6.35546
6.35321
6.35095
6.34866
6.34635
6.34402
6.34168
6.33933
6.33697
6.33461
6.33224
6.32989
6.32754
6.3252
6.32288
6.32058
6.31832
6.31608
6.31388
6.31172
6.3096
6.30752
6.30548
6.30347
6.30149
6.29954
6.2976
6.29567
6.29376
6.29185
6.28995
6.28806
6.28618
6.2843
6.28242
6.28052
6.2786
6.27665
6.27468
6.27267
6.27065
6.26861
6.26656
6.26452
6.26249
6.26047
6.25847
6.25651
6.25457
6.25267
6.2508
6.24897
6.24717
6.2454
6.24366
6.24195
6.24028
6.23866
6.23709
6.23559
6.23414
6.23277
6.23145
6.23021
6.22901
6.22787
6.22676
6.22567
6.22461
6.22358
6.22256
6.22156
6.22057
6.2196
6.21864
6.2177
6.21676
6.21583
6.21491
6.21398
6.21306
6.21215
6.21124
6.21033
6.20941
6.20847
6.20752
6.20653
6.20552
6.20447
6.20339
6.20228
6.20113
6.19994
6.19873
6.1975
6.19625
6.195
6.19373
6.19247
6.19122
6.18997
6.18874
6.18752
6.18631
6.1851
6.18388
6.18265
6.18142
6.18018
6.17894
6.1777
6.17645
6.1752
6.17396
6.17271
6.17146
6.17021
6.16893
6.16764
6.16632
6.16499
6.16365
6.16231
6.16096
6.15961
6.15821
6.15679
6.15534
6.1539
6.15248
6.1511
6.14976
6.14846
6.14716
6.14586
6.14454
6.1432
6.14182
6.14041
6.13893
6.13742
6.13585
6.1343
6.13274
6.13129
6.12993
6.12875
6.12768
6.12679
6.12594
6.12516
6.12429
6.1234
6.12233
6.12123
6.11999
6.11879
6.11753
6.1164
6.11528
6.11437
6.11361
6.11324
6.11336
6.11427
6.11631
6.12009
6.12628
6.13613
6.15117
6.17393
6.20799
6.25899
6.33544
6.45089
6.62622
6.89579
7.32021
7.96738
8.9972
10.5858
12.9753
16.0121
17.8801
14.9843
8.31988
0.589314
0.598876
0.617068
0.643316
0.679315
0.726308
0.78398
0.849282
0.919619
0.990331
1.06152
1.1347
1.20978
1.28589
1.36247
1.43918
1.51609
1.59299
1.66953
1.74589
1.82275
1.90116
1.98193
2.06514
2.15029
2.23668
2.32375
2.41115
2.49864
2.58602
2.67317
2.76017
2.84724
2.93454
3.02213
3.11004
3.19832
3.287
3.37779
3.47946
3.59725
3.72787
3.86688
4.01144
4.15996
4.3117
4.46545
4.61984
4.7738
4.9265
5.07723
5.22548
5.37087
5.51314
5.65213
5.78767
5.91965
6.04807
6.17268
6.29324
6.40937
6.52032
6.62534
6.72399
6.81584
6.9003
6.97453
7.03869
7.09302
7.13787
7.17366
7.20089
7.22013
7.23195
7.23694
7.23566
7.2286
7.21619
7.19874
7.17657
7.14992
7.11907
7.08426
7.04574
7.00385
6.95901
6.91174
6.86265
6.81239
6.76163
6.7113
6.662
6.61418
6.56817
6.52403
6.48158
6.44072
6.40121
6.36267
6.32521
6.2888
6.25338
6.2189
6.18532
6.15253
6.12045
6.08903
6.05822
6.02802
5.99841
5.9694
5.94097
5.91313
5.88587
5.85918
5.83314
5.80773
5.78292
5.75871
5.73512
5.71213
5.68976
5.66801
5.64687
5.62633
5.6064
5.58708
5.56834
5.55019
5.53261
5.51558
5.4991
5.48314
5.46769
5.45274
5.43828
5.42428
5.41075
5.39765
5.38498
5.3727
5.36081
5.34928
5.33811
5.3273
5.31683
5.30671
5.29692
5.28745
5.27829
5.26941
5.26082
5.25249
5.24444
5.23664
5.22911
5.22183
5.21482
5.20806
5.20155
5.19529
5.18926
5.18345
5.17786
5.17247
5.16729
5.1623
5.1575
5.15289
5.14846
5.1442
5.14012
5.1362
5.13244
5.12882
5.12535
5.12201
5.11879
5.11569
5.11271
5.10982
5.10703
5.10433
5.10172
5.09919
5.09674
5.09436
5.09205
5.08982
5.08765
5.08553
5.08346
5.08144
5.07945
5.07751
5.0756
5.07374
5.07192
5.07013
5.06839
5.06668
5.06499
5.06332
5.06167
5.06003
5.0584
5.05679
5.0552
5.05363
5.05209
5.05056
5.04905
5.04756
5.04609
5.04463
5.04317
5.04173
5.04028
5.03884
5.0374
5.03595
5.0345
5.03305
5.03159
5.03012
5.02864
5.02715
5.02564
5.02411
5.02256
5.02097
5.01936
5.01772
5.01606
5.01437
5.01265
5.01091
5.00914
5.00735
5.00554
5.0037
5.00183
4.99994
4.99803
4.99609
4.99412
4.99213
4.99012
4.9881
4.98605
4.98399
4.98191
4.97981
4.97769
4.97556
4.97341
4.97125
4.96907
4.96688
4.96469
4.96249
4.9603
4.9581
4.9559
4.9537
4.95149
4.94928
4.94706
4.94483
4.94261
4.94038
4.93816
4.93595
4.93375
4.93156
4.9294
4.92725
4.92511
4.923
4.9209
4.91881
4.91674
4.91467
4.91262
4.91057
4.90853
4.9065
4.90448
4.90247
4.90048
4.8985
4.89653
4.89459
4.89266
4.89075
4.88887
4.88701
4.88518
4.88337
4.88159
4.87983
4.87809
4.87638
4.87468
4.87301
4.87137
4.86974
4.86814
4.86657
4.86501
4.86348
4.86196
4.86045
4.85895
4.85746
4.85598
4.8545
4.85302
4.85155
4.85008
4.84862
4.84717
4.84573
4.84431
4.8429
4.8415
4.84012
4.83875
4.83739
4.83603
4.83468
4.83333
4.83197
4.83062
4.82926
4.8279
4.82654
4.82517
4.82381
4.82245
4.82108
4.81971
4.81833
4.81694
4.81553
4.81411
4.81268
4.81125
4.80981
4.80836
4.80692
4.80547
4.80401
4.80253
4.80104
4.79954
4.79802
4.79649
4.79494
4.79337
4.79179
4.79018
4.78856
4.78691
4.78524
4.78355
4.78184
4.78011
4.77836
4.77659
4.77481
4.77302
4.77121
4.7694
4.76758
4.76575
4.76392
4.7621
4.76028
4.75846
4.75666
4.75487
4.75309
4.75133
4.74959
4.74787
4.74616
4.74447
4.74279
4.74111
4.73944
4.73778
4.73612
4.73446
4.73281
4.73116
4.72952
4.72787
4.72622
4.72456
4.72288
4.72118
4.71947
4.71774
4.716
4.71425
4.7125
4.71076
4.70903
4.7073
4.70559
4.7039
4.70223
4.70058
4.69895
4.69734
4.69575
4.69418
4.69263
4.69111
4.68961
4.68816
4.68674
4.68537
4.68404
4.68277
4.68154
4.68035
4.67921
4.6781
4.67701
4.67596
4.67492
4.67391
4.67293
4.67196
4.67102
4.67009
4.66918
4.66829
4.66741
4.66654
4.66567
4.66482
4.66397
4.66314
4.66231
4.66148
4.66065
4.65982
4.65897
4.65811
4.65725
4.65637
4.65548
4.65459
4.65368
4.65276
4.65184
4.65092
4.65
4.64908
4.64816
4.64726
4.64637
4.6455
4.64463
4.64378
4.64293
4.64208
4.64123
4.64038
4.63953
4.63869
4.63784
4.63699
4.63615
4.6353
4.63446
4.63361
4.63277
4.63191
4.63103
4.63013
4.62921
4.62829
4.62735
4.6264
4.62544
4.62444
4.62341
4.62235
4.62128
4.62021
4.61917
4.61815
4.61714
4.61612
4.6151
4.61406
4.61301
4.61192
4.6108
4.60963
4.60843
4.60718
4.60592
4.60464
4.60343
4.60227
4.60123
4.60026
4.59943
4.59863
4.59791
4.59713
4.59634
4.59543
4.59449
4.59345
4.59243
4.59136
4.59038
4.5894
4.58856
4.58782
4.58736
4.58721
4.58761
4.58878
4.59112
4.59513
4.60159
4.61166
4.62694
4.65011
4.68471
4.73722
4.81633
4.93849
5.12933
5.43201
5.91285
6.69335
8.00303
10.0851
12.9565
15.7535
15.1035
9.19924
0.586243
0.590137
0.598252
0.608903
0.621708
0.6375
0.657431
0.682273
0.711797
0.74383
0.777659
0.811678
0.845929
0.880628
0.916132
0.952207
0.988773
1.02572
1.06294
1.10043
1.13821
1.17636
1.21504
1.25439
1.29449
1.33537
1.37703
1.41944
1.46256
1.50628
1.55053
1.59525
1.64031
1.68576
1.73156
1.77777
1.8245
1.87182
1.92031
1.97263
2.03034
2.0926
2.15819
2.22627
2.2963
2.36793
2.44092
2.51501
2.58998
2.66562
2.74177
2.81826
2.89496
2.97173
3.04848
3.12512
3.20157
3.2777
3.35341
3.42858
3.50306
3.5767
3.6493
3.72069
3.7907
3.85915
3.9257
3.99002
4.05184
4.11094
4.1671
4.22017
4.27001
4.31649
4.3595
4.39894
4.43473
4.46675
4.49493
4.51926
4.5397
4.5562
4.56878
4.57749
4.58248
4.58395
4.58221
4.57763
4.57077
4.56256
4.55333
4.54344
4.5333
4.52329
4.51363
4.50445
4.49576
4.48761
4.48021
4.47329
4.46666
4.46018
4.45376
4.44734
4.44035
4.43257
4.42414
4.41519
4.4058
4.39605
4.38601
4.37573
4.36527
4.35461
4.34385
4.33317
4.32255
4.31195
4.30146
4.2911
4.28091
4.27091
4.26109
4.25147
4.24203
4.2328
4.22378
4.21497
4.20639
4.19803
4.18988
4.18197
4.17428
4.16681
4.15958
4.15256
4.14578
4.13922
4.13288
4.12676
4.12085
4.11513
4.10961
4.10429
4.09916
4.09423
4.08949
4.08496
4.08061
4.07644
4.07245
4.06862
4.06496
4.06146
4.05812
4.05493
4.0519
4.04903
4.04632
4.04376
4.04135
4.03908
4.03695
4.03495
4.03308
4.03134
4.02971
4.02821
4.02682
4.02554
4.02438
4.02333
4.02238
4.02154
4.02079
4.02014
4.01957
4.01908
4.01868
4.01834
4.01808
4.01789
4.01775
4.01768
4.01766
4.01769
4.01778
4.01792
4.01812
4.01836
4.01864
4.01896
4.01931
4.01969
4.0201
4.02055
4.02102
4.02153
4.02206
4.02262
4.0232
4.0238
4.0244
4.02501
4.02562
4.02623
4.02683
4.02744
4.02804
4.02865
4.02924
4.02983
4.03041
4.03097
4.03152
4.03205
4.03256
4.03304
4.03349
4.03391
4.03431
4.03467
4.035
4.0353
4.03556
4.03579
4.03598
4.03613
4.03624
4.03631
4.03634
4.03632
4.03626
4.03615
4.036
4.03581
4.03557
4.0353
4.03498
4.03462
4.03421
4.03377
4.03328
4.03274
4.03217
4.03155
4.03089
4.0302
4.02946
4.02869
4.02788
4.02704
4.02616
4.02525
4.0243
4.02332
4.02231
4.02126
4.02019
4.0191
4.01799
4.01685
4.0157
4.01453
4.01334
4.01214
4.01091
4.00966
4.00839
4.00711
4.00581
4.0045
4.00319
4.00186
4.00053
3.9992
3.99787
3.99654
3.9952
3.99387
3.99253
3.99119
3.98985
3.98851
3.98716
3.98581
3.98446
3.98311
3.98176
3.98042
3.97909
3.97776
3.97645
3.97515
3.97386
3.97259
3.97134
3.97011
3.96889
3.96769
3.96651
3.96535
3.9642
3.96306
3.96194
3.96084
3.95975
3.95868
3.95763
3.95659
3.95556
3.95455
3.95356
3.95257
3.95159
3.95063
3.94967
3.94871
3.94777
3.94684
3.94591
3.945
3.9441
3.94321
3.94233
3.94146
3.94061
3.93976
3.93891
3.93807
3.93723
3.93638
3.93553
3.93468
3.93382
3.93295
3.93208
3.9312
3.93031
3.92942
3.92852
3.92761
3.92668
3.92573
3.92475
3.92376
3.92274
3.9217
3.92064
3.91956
3.91846
3.91734
3.91619
3.91502
3.91381
3.91258
3.91131
3.91002
3.90871
3.90737
3.906
3.90461
3.90319
3.90175
3.90029
3.89881
3.89731
3.89579
3.89425
3.8927
3.89113
3.88955
3.88795
3.88635
3.88473
3.88311
3.88148
3.87984
3.87819
3.87654
3.87489
3.87325
3.8716
3.86995
3.86831
3.86668
3.86504
3.86341
3.86178
3.86014
3.85851
3.85687
3.85523
3.85359
3.85196
3.85033
3.8487
3.84708
3.84545
3.84382
3.84219
3.84054
3.83888
3.83722
3.83556
3.8339
3.83224
3.83058
3.82893
3.82729
3.82566
3.82404
3.82244
3.82084
3.81927
3.81771
3.81616
3.81463
3.81311
3.81162
3.81014
3.8087
3.80728
3.8059
3.80456
3.80325
3.80198
3.80074
3.79954
3.79837
3.79722
3.7961
3.795
3.79392
3.79287
3.79184
3.79083
3.78985
3.78888
3.78793
3.78699
3.78607
3.78515
3.78424
3.78335
3.78246
3.78159
3.78073
3.77987
3.77901
3.77816
3.77731
3.77647
3.77564
3.77481
3.77399
3.77318
3.77237
3.77158
3.77079
3.77001
3.76925
3.76849
3.76774
3.76701
3.76628
3.76557
3.76487
3.76417
3.76347
3.76277
3.76207
3.76137
3.76067
3.75997
3.75927
3.75857
3.75786
3.75716
3.75645
3.75573
3.755
3.75424
3.75346
3.75266
3.75183
3.75099
3.75014
3.74925
3.74833
3.74737
3.74637
3.74536
3.74434
3.74332
3.74231
3.74129
3.74026
3.73921
3.73814
3.73705
3.73592
3.73478
3.73359
3.73236
3.73109
3.7298
3.7285
3.72724
3.72599
3.72483
3.72372
3.72269
3.7217
3.72075
3.71977
3.71877
3.71769
3.71658
3.7154
3.71422
3.71302
3.71187
3.71073
3.70969
3.70873
3.70797
3.70743
3.70729
3.7077
3.70893
3.71136
3.71551
3.72228
3.73268
3.74881
3.77296
3.81012
3.86626
3.95379
4.09225
4.30871
4.66805
5.25718
6.29487
8.05052
10.611
13.6422
14.6121
10.0397
0.586172
0.589959
0.596912
0.605239
0.613115
0.621137
0.629355
0.638881
0.650297
0.663919
0.679745
0.696774
0.714895
0.733734
0.752888
0.772354
0.79217
0.812378
0.833297
0.85511
0.877901
0.901754
0.926742
0.952901
0.980432
1.00955
1.04031
1.07265
1.10645
1.14158
1.17789
1.21527
1.25362
1.29288
1.33337
1.37577
1.42046
1.46737
1.5163
1.56716
1.61994
1.67456
1.73085
1.78863
1.84772
1.90789
1.96895
2.03074
2.09306
2.15573
2.21854
2.28125
2.34364
2.40549
2.46653
2.52649
2.58505
2.6419
2.69667
2.74904
2.79867
2.84538
2.88924
2.93069
2.97046
3.00909
3.04676
3.08351
3.11935
3.15429
3.18831
3.22134
3.25341
3.28447
3.31446
3.34329
3.37084
3.39702
3.42184
3.44512
3.46672
3.48646
3.50418
3.51987
3.53355
3.54524
3.55499
3.56286
3.56898
3.57347
3.57653
3.57832
3.57902
3.57882
3.57786
3.57632
3.57432
3.57199
3.56945
3.56676
3.56397
3.56109
3.55814
3.55516
3.55208
3.54883
3.54539
3.54173
3.53778
3.53349
3.52887
3.52401
3.5189
3.51363
3.50821
3.5029
3.49771
3.49272
3.48789
3.48322
3.47871
3.47429
3.4698
3.46529
3.46079
3.45633
3.45192
3.44759
3.44334
3.43916
3.43507
3.43109
3.42724
3.42352
3.41993
3.41647
3.41314
3.40994
3.40689
3.40396
3.40117
3.39852
3.39599
3.3936
3.39134
3.38922
3.38724
3.3854
3.3837
3.38213
3.38069
3.37937
3.37816
3.37707
3.3761
3.37523
3.37448
3.37384
3.37332
3.3729
3.37258
3.37237
3.37225
3.37223
3.37229
3.37245
3.37269
3.37302
3.37344
3.37394
3.37452
3.37518
3.37592
3.37673
3.37762
3.37858
3.3796
3.38069
3.38184
3.38305
3.38432
3.38564
3.38701
3.38843
3.3899
3.39142
3.39298
3.39459
3.39624
3.39794
3.39967
3.40144
3.40324
3.40507
3.40693
3.40882
3.41074
3.41267
3.41464
3.41662
3.41861
3.42061
3.4226
3.42459
3.42656
3.42852
3.43045
3.43236
3.43424
3.43609
3.43791
3.43969
3.44142
3.44312
3.44476
3.44635
3.44788
3.44936
3.45078
3.45215
3.45345
3.4547
3.45588
3.45701
3.45808
3.4591
3.46005
3.46095
3.46179
3.46257
3.46329
3.46396
3.46457
3.46512
3.46562
3.46607
3.46646
3.4668
3.46709
3.46733
3.46752
3.46766
3.46776
3.4678
3.46779
3.46774
3.46764
3.46749
3.4673
3.46707
3.4668
3.46649
3.46614
3.46575
3.46532
3.46486
3.46436
3.46383
3.46327
3.46269
3.46208
3.46144
3.46079
3.46011
3.4594
3.45868
3.45793
3.45717
3.45638
3.45557
3.45474
3.45389
3.45304
3.45217
3.45128
3.45039
3.4495
3.44859
3.44768
3.44676
3.44583
3.44489
3.44395
3.443
3.44205
3.44109
3.44014
3.43919
3.43824
3.4373
3.43636
3.43544
3.43453
3.43364
3.43276
3.43189
3.43105
3.43022
3.4294
3.4286
3.42781
3.42704
3.42628
3.42553
3.42479
3.42407
3.42336
3.42266
3.42198
3.42131
3.42065
3.42001
3.41938
3.41877
3.41817
3.41758
3.41701
3.41645
3.4159
3.41536
3.41483
3.41431
3.41381
3.41331
3.41281
3.41232
3.41183
3.41134
3.41084
3.41034
3.40982
3.4093
3.40875
3.4082
3.40762
3.40703
3.40642
3.4058
3.40515
3.40448
3.40379
3.40308
3.40233
3.40155
3.40073
3.39988
3.39898
3.39805
3.39709
3.39608
3.39504
3.39396
3.39284
3.39168
3.39048
3.38923
3.38795
3.38663
3.38528
3.3839
3.38249
3.38105
3.37959
3.3781
3.3766
3.37507
3.37353
3.37197
3.3704
3.36881
3.36722
3.36561
3.36399
3.36237
3.36073
3.35908
3.35743
3.35577
3.35411
3.35243
3.35076
3.34908
3.3474
3.34571
3.34402
3.34233