/*--------------------------------*- C++ -*----------------------------------*\
| =========                 |                                                 |
| \\      /  F ield         | foam-extend: Open Source CFD                    |
|  \\    /   O peration     | Version:     3.2                                |
|   \\  /    A nd           | Web:         http://www.foam-extend.org         |
|    \\/     M anipulation  | For copyright notice see file Copyright         |
\*---------------------------------------------------------------------------*/
FoamFile
{
    version     2.0;
    format      ascii;
    class       volScalarField;
    location    "200";
    object      p;
}
// * * * * * * * * * * * * * * * * * * * * * * * * * * * * * * * * * * * * * //

dimensions      [1 -1 -2 0 0 0 0];

internalField   nonuniform List<scalar> 
33000
(
1162.61
1163.91
1165.28
1167.25
1168.65
1170.31
1171.48
1172.67
1173.59
1174.48
1175.22
1175.92
1176.53
1177.09
1177.61
1178.12
1178.6
1179.06
1179.51
1179.94
1180.36
1180.77
1181.17
1181.58
1181.97
1182.37
1182.76
1183.15
1183.54
1183.92
1184.31
1184.69
1185.07
1185.45
1185.82
1186.2
1186.58
1186.96
1187.33
1187.7
1188.08
1188.45
1188.82
1189.19
1189.56
1189.93
1190.3
1190.67
1191.03
1191.4
1191.76
1192.13
1192.49
1192.85
1193.21
1193.57
1193.93
1194.29
1194.65
1195.01
1195.36
1195.72
1196.08
1196.43
1196.78
1197.14
1197.49
1197.84
1198.19
1198.54
1198.89
1199.24
1199.59
1199.95
1200.3
1200.65
1201
1201.35
1201.7
1202.05
1202.4
1202.75
1203.1
1203.45
1203.8
1204.15
1204.5
1204.85
1205.2
1205.55
1205.89
1206.24
1206.59
1206.94
1207.29
1207.64
1207.98
1208.33
1208.67
1209.02
1209.36
1209.7
1210.05
1210.39
1210.73
1211.07
1211.41
1211.75
1212.09
1212.43
1212.77
1213.1
1213.44
1213.78
1214.11
1214.45
1214.79
1215.12
1215.46
1215.8
1216.13
1216.47
1216.81
1217.14
1217.48
1217.82
1218.15
1218.49
1218.82
1219.16
1219.49
1219.83
1220.16
1220.5
1220.83
1221.17
1221.5
1221.83
1222.17
1222.5
1222.83
1223.16
1223.49
1223.83
1224.16
1224.49
1224.82
1225.15
1225.48
1225.81
1226.14
1226.47
1226.8
1227.13
1227.46
1227.79
1228.12
1228.46
1228.79
1229.12
1229.46
1229.8
1230.13
1230.47
1230.81
1231.15
1231.49
1231.83
1232.18
1232.52
1232.86
1233.21
1233.55
1233.9
1234.25
1234.59
1234.94
1235.29
1235.64
1235.99
1236.34
1236.69
1237.04
1237.39
1237.74
1238.1
1238.45
1238.8
1239.15
1239.5
1239.85
1240.2
1240.56
1240.91
1241.26
1241.61
1241.96
1242.31
1242.66
1243.01
1243.36
1243.7
1244.05
1244.4
1244.75
1245.09
1245.44
1245.79
1246.13
1246.48
1246.83
1247.17
1247.52
1247.87
1248.21
1248.56
1248.91
1249.26
1249.61
1249.96
1250.31
1250.66
1251.02
1251.37
1251.72
1252.08
1252.43
1252.79
1253.14
1253.5
1253.86
1254.21
1254.57
1254.92
1255.28
1255.64
1255.99
1256.35
1256.7
1257.06
1257.41
1257.76
1258.12
1258.47
1258.82
1259.17
1259.52
1259.87
1260.22
1260.57
1260.92
1261.26
1261.61
1261.95
1262.3
1262.64
1262.99
1263.33
1263.67
1264.01
1264.35
1264.69
1265.03
1265.36
1265.7
1266.04
1266.37
1266.71
1267.05
1267.38
1267.72
1268.05
1268.39
1268.73
1269.06
1269.4
1269.74
1270.07
1270.41
1270.75
1271.09
1271.43
1271.76
1272.1
1272.44
1272.78
1273.12
1273.47
1273.81
1274.15
1274.49
1274.84
1275.18
1275.53
1275.87
1276.22
1276.56
1276.91
1277.26
1277.61
1277.96
1278.31
1278.66
1279.01
1279.36
1279.72
1280.07
1280.42
1280.78
1281.13
1281.48
1281.84
1282.19
1282.55
1282.9
1283.25
1283.61
1283.96
1284.31
1284.66
1285.01
1285.36
1285.71
1286.06
1286.41
1286.76
1287.11
1287.46
1287.81
1288.16
1288.5
1288.85
1289.2
1289.55
1289.9
1290.24
1290.59
1290.94
1291.29
1291.64
1291.99
1292.33
1292.68
1293.03
1293.38
1293.72
1294.07
1294.42
1294.76
1295.11
1295.45
1295.8
1296.14
1296.49
1296.83
1297.17
1297.52
1297.86
1298.21
1298.55
1298.9
1299.24
1299.59
1299.94
1300.28
1300.63
1300.97
1301.32
1301.67
1302.01
1302.36
1302.71
1303.05
1303.4
1303.74
1304.09
1304.43
1304.78
1305.12
1305.46
1305.8
1306.15
1306.49
1306.83
1307.17
1307.51
1307.85
1308.19
1308.53
1308.87
1309.21
1309.55
1309.9
1310.24
1310.58
1310.93
1311.27
1311.61
1311.96
1312.31
1312.65
1313
1313.35
1313.7
1314.04
1314.39
1314.74
1315.09
1315.44
1315.8
1316.15
1316.5
1316.85
1317.21
1317.56
1317.92
1318.27
1318.63
1318.99
1319.35
1319.71
1320.07
1320.43
1320.79
1321.16
1321.52
1321.89
1322.26
1322.63
1323
1323.37
1323.74
1324.12
1324.49
1324.86
1325.23
1325.61
1325.98
1326.35
1326.72
1327.09
1327.46
1327.83
1328.2
1328.57
1328.93
1329.3
1329.66
1330.02
1330.39
1330.75
1331.1
1331.46
1331.82
1332.17
1332.52
1332.88
1333.23
1333.57
1333.92
1334.27
1334.61
1334.96
1335.3
1335.64
1335.99
1336.33
1336.67
1337.01
1337.36
1337.7
1338.04
1338.39
1338.73
1339.08
1339.43
1339.78
1340.13
1340.47
1340.83
1341.18
1341.53
1341.88
1342.24
1342.59
1342.95
1343.3
1343.66
1344.01
1344.37
1344.73
1345.08
1345.44
1345.8
1346.15
1346.51
1346.86
1347.21
1347.57
1347.92
1348.27
1348.62
1348.97
1349.33
1349.68
1350.03
1350.38
1350.73
1351.08
1351.43
1351.78
1352.13
1352.47
1352.82
1353.17
1353.52
1353.87
1354.22
1354.57
1354.92
1355.27
1355.62
1355.97
1356.32
1356.67
1357.02
1357.37
1357.73
1358.08
1358.44
1358.8
1359.18
1359.55
1359.97
1360.36
1360.84
1361.3
1361.92
1362.49
1363.39
1364.23
1365.59
1366.9
1368.95
1371.05
1373.77
1374.85
1376.07
1375.58
1376.68
1113.65
1115.08
1116.43
1118.4
1119.8
1121.47
1122.65
1123.84
1124.75
1125.64
1126.38
1127.08
1127.69
1128.25
1128.77
1129.28
1129.76
1130.22
1130.66
1131.09
1131.51
1131.92
1132.32
1132.72
1133.12
1133.52
1133.91
1134.3
1134.69
1135.07
1135.46
1135.84
1136.22
1136.6
1136.97
1137.35
1137.73
1138.1
1138.48
1138.85
1139.23
1139.6
1139.97
1140.34
1140.71
1141.08
1141.45
1141.82
1142.18
1142.55
1142.91
1143.28
1143.64
1144
1144.36
1144.72
1145.08
1145.44
1145.8
1146.16
1146.51
1146.87
1147.22
1147.58
1147.93
1148.29
1148.64
1148.99
1149.34
1149.69
1150.04
1150.39
1150.74
1151.09
1151.44
1151.8
1152.15
1152.5
1152.85
1153.2
1153.55
1153.9
1154.25
1154.6
1154.95
1155.3
1155.65
1156
1156.34
1156.69
1157.04
1157.39
1157.74
1158.09
1158.44
1158.78
1159.13
1159.48
1159.82
1160.16
1160.51
1160.85
1161.19
1161.54
1161.88
1162.22
1162.56
1162.9
1163.24
1163.57
1163.91
1164.25
1164.59
1164.93
1165.26
1165.6
1165.94
1166.27
1166.61
1166.94
1167.28
1167.62
1167.95
1168.29
1168.63
1168.96
1169.3
1169.63
1169.97
1170.31
1170.64
1170.98
1171.31
1171.65
1171.98
1172.32
1172.65
1172.98
1173.31
1173.65
1173.98
1174.31
1174.64
1174.97
1175.3
1175.63
1175.96
1176.29
1176.62
1176.95
1177.28
1177.61
1177.94
1178.27
1178.61
1178.94
1179.27
1179.6
1179.94
1180.27
1180.61
1180.94
1181.28
1181.62
1181.96
1182.3
1182.64
1182.98
1183.32
1183.67
1184.01
1184.36
1184.7
1185.05
1185.39
1185.74
1186.09
1186.44
1186.79
1187.14
1187.49
1187.84
1188.19
1188.54
1188.89
1189.24
1189.59
1189.95
1190.3
1190.65
1191
1191.35
1191.7
1192.05
1192.41
1192.76
1193.11
1193.46
1193.81
1194.15
1194.5
1194.85
1195.2
1195.55
1195.89
1196.24
1196.59
1196.93
1197.28
1197.63
1197.97
1198.32
1198.67
1199.01
1199.36
1199.71
1200.06
1200.41
1200.76
1201.11
1201.46
1201.81
1202.16
1202.52
1202.87
1203.22
1203.58
1203.93
1204.29
1204.65
1205
1205.36
1205.72
1206.07
1206.43
1206.78
1207.14
1207.49
1207.85
1208.2
1208.56
1208.91
1209.26
1209.61
1209.97
1210.32
1210.67
1211.02
1211.37
1211.72
1212.06
1212.41
1212.76
1213.1
1213.45
1213.79
1214.13
1214.47
1214.82
1215.16
1215.5
1215.84
1216.17
1216.51
1216.85
1217.19
1217.52
1217.86
1218.19
1218.53
1218.86
1219.2
1219.54
1219.87
1220.21
1220.54
1220.88
1221.22
1221.56
1221.89
1222.23
1222.57
1222.91
1223.25
1223.59
1223.93
1224.27
1224.61
1224.95
1225.3
1225.64
1225.98
1226.33
1226.67
1227.02
1227.36
1227.71
1228.06
1228.41
1228.75
1229.1
1229.46
1229.81
1230.16
1230.51
1230.86
1231.22
1231.57
1231.92
1232.28
1232.63
1232.99
1233.34
1233.69
1234.05
1234.4
1234.75
1235.1
1235.46
1235.81
1236.16
1236.51
1236.86
1237.21
1237.56
1237.91
1238.26
1238.61
1238.95
1239.3
1239.65
1240
1240.35
1240.69
1241.04
1241.39
1241.74
1242.09
1242.44
1242.78
1243.13
1243.48
1243.83
1244.18
1244.52
1244.87
1245.22
1245.56
1245.91
1246.25
1246.6
1246.94
1247.29
1247.63
1247.98
1248.32
1248.67
1249.01
1249.35
1249.7
1250.05
1250.39
1250.74
1251.08
1251.43
1251.77
1252.12
1252.47
1252.81
1253.16
1253.51
1253.85
1254.2
1254.54
1254.89
1255.23
1255.58
1255.92
1256.27
1256.61
1256.95
1257.29
1257.63
1257.97
1258.32
1258.66
1259
1259.34
1259.68
1260.02
1260.36
1260.7
1261.04
1261.39
1261.73
1262.07
1262.42
1262.76
1263.11
1263.45
1263.8
1264.15
1264.49
1264.84
1265.19
1265.54
1265.89
1266.24
1266.59
1266.94
1267.29
1267.65
1268
1268.35
1268.71
1269.06
1269.42
1269.78
1270.13
1270.49
1270.85
1271.21
1271.58
1271.94
1272.31
1272.67
1273.04
1273.41
1273.78
1274.15
1274.52
1274.89
1275.26
1275.63
1276.01
1276.38
1276.75
1277.12
1277.5
1277.87
1278.24
1278.61
1278.98
1279.35
1279.71
1280.08
1280.44
1280.81
1281.17
1281.53
1281.89
1282.25
1282.61
1282.96
1283.32
1283.67
1284.02
1284.37
1284.72
1285.07
1285.41
1285.76
1286.1
1286.45
1286.79
1287.13
1287.47
1287.82
1288.16
1288.5
1288.85
1289.19
1289.54
1289.88
1290.23
1290.57
1290.92
1291.27
1291.62
1291.97
1292.32
1292.68
1293.03
1293.38
1293.74
1294.09
1294.45
1294.8
1295.16
1295.52
1295.87
1296.23
1296.59
1296.94
1297.3
1297.65
1298.01
1298.36
1298.71
1299.07
1299.42
1299.77
1300.12
1300.47
1300.82
1301.17
1301.52
1301.87
1302.22
1302.57
1302.92
1303.27
1303.62
1303.97
1304.32
1304.67
1305.02
1305.37
1305.72
1306.07
1306.42
1306.77
1307.11
1307.47
1307.81
1308.17
1308.52
1308.87
1309.23
1309.59
1309.95
1310.33
1310.7
1311.11
1311.51
1311.99
1312.44
1313.06
1313.63
1314.53
1315.36
1316.72
1318.03
1320.08
1322.16
1324.86
1326
1327.25
1326.66
1327.72
1064.68
1066.19
1067.55
1069.56
1070.96
1072.63
1073.79
1074.99
1075.9
1076.79
1077.53
1078.22
1078.83
1079.39
1079.91
1080.42
1080.9
1081.36
1081.8
1082.23
1082.65
1083.06
1083.47
1083.87
1084.27
1084.67
1085.06
1085.45
1085.84
1086.22
1086.61
1086.99
1087.37
1087.75
1088.13
1088.5
1088.88
1089.26
1089.63
1090
1090.38
1090.75
1091.12
1091.49
1091.86
1092.23
1092.6
1092.97
1093.33
1093.7
1094.06
1094.43
1094.79
1095.15
1095.51
1095.87
1096.23
1096.59
1096.95
1097.31
1097.66
1098.02
1098.37
1098.73
1099.08
1099.43
1099.79
1100.14
1100.49
1100.84
1101.19
1101.54
1101.89
1102.24
1102.59
1102.94
1103.29
1103.64
1103.99
1104.34
1104.69
1105.04
1105.39
1105.74
1106.09
1106.44
1106.79
1107.14
1107.49
1107.84
1108.19
1108.54
1108.89
1109.23
1109.58
1109.93
1110.28
1110.62
1110.97
1111.31
1111.65
1112
1112.34
1112.68
1113.02
1113.36
1113.7
1114.04
1114.38
1114.72
1115.06
1115.4
1115.73
1116.07
1116.41
1116.74
1117.08
1117.42
1117.75
1118.09
1118.43
1118.76
1119.1
1119.44
1119.77
1120.11
1120.45
1120.78
1121.12
1121.45
1121.79
1122.12
1122.46
1122.79
1123.13
1123.46
1123.8
1124.13
1124.46
1124.79
1125.13
1125.46
1125.79
1126.12
1126.45
1126.78
1127.11
1127.44
1127.77
1128.1
1128.43
1128.76
1129.09
1129.42
1129.75
1130.08
1130.42
1130.75
1131.08
1131.42
1131.75
1132.09
1132.43
1132.77
1133.1
1133.44
1133.78
1134.13
1134.47
1134.81
1135.16
1135.5
1135.85
1136.19
1136.54
1136.89
1137.24
1137.59
1137.93
1138.28
1138.63
1138.98
1139.34
1139.69
1140.04
1140.39
1140.74
1141.09
1141.44
1141.8
1142.15
1142.5
1142.85
1143.2
1143.55
1143.9
1144.25
1144.6
1144.95
1145.3
1145.65
1146
1146.35
1146.69
1147.04
1147.39
1147.73
1148.08
1148.43
1148.77
1149.12
1149.47
1149.81
1150.16
1150.51
1150.85
1151.2
1151.55
1151.9
1152.25
1152.6
1152.96
1153.31
1153.66
1154.02
1154.37
1154.73
1155.08
1155.44
1155.79
1156.15
1156.51
1156.86
1157.22
1157.57
1157.93
1158.29
1158.64
1158.99
1159.35
1159.7
1160.06
1160.41
1160.76
1161.11
1161.46
1161.81
1162.16
1162.51
1162.86
1163.21
1163.56
1163.9
1164.25
1164.59
1164.94
1165.28
1165.62
1165.96
1166.3
1166.64
1166.98
1167.32
1167.66
1167.99
1168.33
1168.67
1169
1169.34
1169.68
1170.01
1170.35
1170.68
1171.02
1171.35
1171.69
1172.03
1172.37
1172.7
1173.04
1173.38
1173.72
1174.06
1174.4
1174.74
1175.08
1175.42
1175.76
1176.1
1176.44
1176.79
1177.13
1177.47
1177.82
1178.16
1178.51
1178.86
1179.2
1179.55
1179.9
1180.25
1180.6
1180.95
1181.3
1181.66
1182.01
1182.36
1182.72
1183.07
1183.42
1183.78
1184.13
1184.49
1184.84
1185.19
1185.55
1185.9
1186.25
1186.6
1186.95
1187.31
1187.66
1188.01
1188.36
1188.71
1189.05
1189.4
1189.75
1190.1
1190.45
1190.8
1191.14
1191.49
1191.84
1192.19
1192.54
1192.89
1193.23
1193.58
1193.93
1194.28
1194.63
1194.97
1195.32
1195.67
1196.02
1196.36
1196.71
1197.05
1197.4
1197.74
1198.09
1198.43
1198.78
1199.12
1199.47
1199.81
1200.16
1200.5
1200.85
1201.19
1201.54
1201.88
1202.23
1202.57
1202.92
1203.27
1203.61
1203.96
1204.31
1204.65
1205
1205.35
1205.69
1206.04
1206.38
1206.72
1207.07
1207.41
1207.75
1208.1
1208.44
1208.78
1209.12
1209.46
1209.8
1210.14
1210.48
1210.82
1211.16
1211.51
1211.85
1212.19
1212.53
1212.87
1213.22
1213.56
1213.91
1214.25
1214.6
1214.95
1215.29
1215.64
1215.99
1216.34
1216.69
1217.04
1217.39
1217.74
1218.09
1218.44
1218.79
1219.15
1219.5
1219.85
1220.21
1220.57
1220.92
1221.28
1221.64
1222
1222.36
1222.72
1223.09
1223.45
1223.82
1224.18
1224.55
1224.92
1225.29
1225.66
1226.04
1226.41
1226.78
1227.15
1227.53
1227.9
1228.27
1228.64
1229.01
1229.38
1229.75
1230.12
1230.49
1230.86
1231.23
1231.59
1231.95
1232.32
1232.68
1233.04
1233.4
1233.76
1234.11
1234.46
1234.82
1235.17
1235.52
1235.87
1236.21
1236.56
1236.91
1237.25
1237.59
1237.94
1238.28
1238.62
1238.96
1239.31
1239.65
1239.99
1240.34
1240.68
1241.03
1241.37
1241.72
1242.07
1242.42
1242.77
1243.12
1243.47
1243.82
1244.18
1244.53
1244.88
1245.24
1245.59
1245.95
1246.31
1246.66
1247.02
1247.38
1247.73
1248.09
1248.44
1248.8
1249.15
1249.51
1249.86
1250.21
1250.56
1250.92
1251.27
1251.62
1251.97
1252.32
1252.67
1253.02
1253.37
1253.72
1254.07
1254.42
1254.77
1255.12
1255.47
1255.82
1256.17
1256.52
1256.86
1257.21
1257.56
1257.91
1258.26
1258.61
1258.96
1259.31
1259.66
1260.02
1260.37
1260.73
1261.09
1261.47
1261.84
1262.25
1262.65
1263.12
1263.57
1264.18
1264.74
1265.63
1266.43
1267.77
1269.05
1271.06
1273.04
1275.7
1276.92
1278.29
1277.74
1278.91
1015.61
1017.27
1018.65
1020.72
1022.14
1023.82
1024.99
1026.19
1027.09
1027.97
1028.7
1029.39
1029.99
1030.55
1031.08
1031.58
1032.06
1032.52
1032.96
1033.39
1033.81
1034.22
1034.62
1035.02
1035.42
1035.82
1036.21
1036.6
1036.99
1037.37
1037.75
1038.14
1038.51
1038.89
1039.27
1039.65
1040.03
1040.4
1040.78
1041.15
1041.53
1041.9
1042.27
1042.64
1043.01
1043.38
1043.75
1044.11
1044.48
1044.85
1045.21
1045.57
1045.94
1046.3
1046.66
1047.02
1047.38
1047.74
1048.1
1048.45
1048.81
1049.17
1049.52
1049.88
1050.23
1050.58
1050.93
1051.29
1051.64
1051.99
1052.34
1052.69
1053.04
1053.39
1053.74
1054.09
1054.44
1054.79
1055.14
1055.49
1055.84
1056.19
1056.54
1056.89
1057.24
1057.59
1057.94
1058.29
1058.64
1058.99
1059.34
1059.69
1060.03
1060.38
1060.73
1061.08
1061.42
1061.77
1062.12
1062.46
1062.8
1063.15
1063.49
1063.83
1064.17
1064.51
1064.85
1065.19
1065.53
1065.87
1066.21
1066.54
1066.88
1067.22
1067.56
1067.89
1068.23
1068.57
1068.9
1069.24
1069.58
1069.91
1070.25
1070.58
1070.92
1071.26
1071.59
1071.93
1072.26
1072.6
1072.94
1073.27
1073.61
1073.94
1074.28
1074.61
1074.94
1075.28
1075.61
1075.94
1076.27
1076.6
1076.94
1077.27
1077.6
1077.93
1078.26
1078.59
1078.92
1079.25
1079.58
1079.91
1080.24
1080.57
1080.9
1081.23
1081.56
1081.9
1082.23
1082.57
1082.9
1083.24
1083.57
1083.91
1084.25
1084.59
1084.93
1085.27
1085.62
1085.96
1086.3
1086.65
1086.99
1087.34
1087.69
1088.04
1088.38
1088.73
1089.08
1089.43
1089.78
1090.13
1090.48
1090.83
1091.18
1091.54
1091.89
1092.24
1092.59
1092.94
1093.29
1093.65
1094
1094.35
1094.7
1095.05
1095.4
1095.75
1096.1
1096.45
1096.8
1097.15
1097.49
1097.84
1098.19
1098.53
1098.88
1099.23
1099.57
1099.92
1100.27
1100.61
1100.96
1101.31
1101.65
1102
1102.35
1102.7
1103.05
1103.4
1103.75
1104.1
1104.46
1104.81
1105.16
1105.52
1105.87
1106.23
1106.58
1106.94
1107.3
1107.65
1108.01
1108.36
1108.72
1109.08
1109.43
1109.79
1110.14
1110.5
1110.85
1111.2
1111.56
1111.91
1112.26
1112.61
1112.96
1113.31
1113.66
1114.01
1114.36
1114.7
1115.05
1115.39
1115.74
1116.08
1116.43
1116.77
1117.11
1117.45
1117.79
1118.13
1118.47
1118.8
1119.14
1119.48
1119.81
1120.15
1120.49
1120.82
1121.16
1121.49
1121.83
1122.16
1122.5
1122.84
1123.17
1123.51
1123.85
1124.19
1124.53
1124.86
1125.2
1125.54
1125.88
1126.22
1126.56
1126.91
1127.25
1127.59
1127.93
1128.28
1128.62
1128.96
1129.31
1129.66
1130
1130.35
1130.7
1131.05
1131.4
1131.75
1132.1
1132.45
1132.8
1133.16
1133.51
1133.86
1134.22
1134.57
1134.92
1135.28
1135.63
1135.99
1136.34
1136.69
1137.05
1137.4
1137.75
1138.1
1138.45
1138.8
1139.15
1139.5
1139.85
1140.2
1140.55
1140.9
1141.25
1141.6
1141.94
1142.29
1142.64
1142.99
1143.34
1143.68
1144.03
1144.38
1144.73
1145.08
1145.42
1145.77
1146.12
1146.47
1146.82
1147.16
1147.51
1147.85
1148.2
1148.55
1148.89
1149.24
1149.58
1149.93
1150.27
1150.61
1150.96
1151.3
1151.65
1151.99
1152.34
1152.68
1153.03
1153.37
1153.72
1154.07
1154.41
1154.76
1155.11
1155.45
1155.8
1156.15
1156.49
1156.84
1157.18
1157.53
1157.87
1158.22
1158.56
1158.9
1159.24
1159.58
1159.93
1160.27
1160.61
1160.95
1161.29
1161.63
1161.97
1162.31
1162.65
1162.99
1163.34
1163.68
1164.02
1164.36
1164.71
1165.05
1165.4
1165.74
1166.09
1166.44
1166.79
1167.13
1167.48
1167.83
1168.18
1168.53
1168.88
1169.24
1169.59
1169.94
1170.29
1170.65
1171
1171.36
1171.71
1172.07
1172.43
1172.78
1173.14
1173.51
1173.87
1174.23
1174.6
1174.96
1175.33
1175.7
1176.07
1176.44
1176.81
1177.18
1177.55
1177.93
1178.3
1178.67
1179.05
1179.42
1179.79
1180.16
1180.53
1180.9
1181.27
1181.64
1182.01
1182.37
1182.74
1183.1
1183.46
1183.83
1184.19
1184.54
1184.9
1185.26
1185.61
1185.96
1186.32
1186.67
1187.01
1187.36
1187.71
1188.05
1188.4
1188.74
1189.08
1189.42
1189.77
1190.11
1190.45
1190.8
1191.14
1191.48
1191.83
1192.17
1192.52
1192.87
1193.22
1193.56
1193.91
1194.26
1194.62
1194.97
1195.32
1195.68
1196.03
1196.39
1196.74
1197.1
1197.45
1197.81
1198.17
1198.52
1198.88
1199.24
1199.59
1199.95
1200.3
1200.65
1201.01
1201.36
1201.71
1202.06
1202.41
1202.77
1203.12
1203.47
1203.82
1204.17
1204.52
1204.87
1205.21
1205.56
1205.91
1206.26
1206.61
1206.96
1207.31
1207.66
1208.01
1208.36
1208.71
1209.06
1209.41
1209.76
1210.11
1210.46
1210.81
1211.16
1211.52
1211.88
1212.24
1212.62
1212.98
1213.39
1213.78
1214.26
1214.69
1215.3
1215.84
1216.71
1217.49
1218.8
1220.01
1221.97
1223.83
1226.42
1227.75
1229.22
1228.86
1230.08
966.485
968.316
969.728
971.862
973.3
975
976.163
977.366
978.263
979.143
979.866
980.548
981.149
981.707
982.227
982.728
983.205
983.661
984.102
984.533
984.952
985.363
985.77
986.173
986.571
986.966
987.359
987.75
988.137
988.521
988.904
989.286
989.666
990.044
990.421
990.799
991.176
991.552
991.927
992.301
992.675
993.047
993.418
993.788
994.157
994.526
994.894
995.261
995.628
995.993
996.358
996.721
997.084
997.446
997.807
998.168
998.528
998.886
999.244
999.601
999.957
1000.31
1000.67
1001.02
1001.38
1001.73
1002.08
1002.43
1002.78
1003.13
1003.48
1003.84
1004.19
1004.54
1004.89
1005.24
1005.59
1005.94
1006.29
1006.64
1006.99
1007.34
1007.69
1008.04
1008.39
1008.74
1009.09
1009.44
1009.79
1010.14
1010.48
1010.83
1011.18
1011.53
1011.88
1012.23
1012.57
1012.92
1013.26
1013.61
1013.95
1014.29
1014.64
1014.98
1015.32
1015.66
1016
1016.34
1016.68
1017.02
1017.35
1017.69
1018.03
1018.37
1018.7
1019.04
1019.38
1019.71
1020.05
1020.39
1020.72
1021.06
1021.39
1021.73
1022.07
1022.4
1022.74
1023.08
1023.41
1023.75
1024.08
1024.42
1024.75
1025.09
1025.42
1025.76
1026.09
1026.42
1026.76
1027.09
1027.42
1027.75
1028.08
1028.41
1028.74
1029.07
1029.4
1029.73
1030.06
1030.39
1030.72
1031.05
1031.38
1031.72
1032.05
1032.38
1032.71
1033.04
1033.38
1033.71
1034.05
1034.38
1034.72
1035.06
1035.4
1035.74
1036.08
1036.42
1036.76
1037.11
1037.45
1037.8
1038.14
1038.49
1038.83
1039.18
1039.53
1039.88
1040.23
1040.58
1040.93
1041.28
1041.63
1041.98
1042.33
1042.68
1043.03
1043.39
1043.74
1044.09
1044.44
1044.79
1045.14
1045.49
1045.85
1046.2
1046.55
1046.9
1047.25
1047.6
1047.94
1048.29
1048.64
1048.99
1049.33
1049.68
1050.03
1050.37
1050.72
1051.07
1051.41
1051.76
1052.11
1052.45
1052.8
1053.15
1053.5
1053.85
1054.2
1054.55
1054.9
1055.25
1055.6
1055.96
1056.31
1056.66
1057.02
1057.37
1057.73
1058.09
1058.44
1058.8
1059.16
1059.51
1059.87
1060.22
1060.58
1060.93
1061.29
1061.64
1062
1062.35
1062.7
1063.05
1063.41
1063.76
1064.11
1064.46
1064.81
1065.16
1065.5
1065.85
1066.2
1066.54
1066.89
1067.23
1067.57
1067.92
1068.26
1068.6
1068.94
1069.28
1069.61
1069.95
1070.29
1070.62
1070.96
1071.3
1071.63
1071.97
1072.3
1072.64
1072.98
1073.31
1073.65
1073.98
1074.32
1074.66
1075
1075.33
1075.67
1076.01
1076.35
1076.69
1077.03
1077.37
1077.71
1078.05
1078.39
1078.74
1079.08
1079.42
1079.77
1080.11
1080.46
1080.8
1081.15
1081.5
1081.84
1082.19
1082.54
1082.89
1083.25
1083.6
1083.95
1084.3
1084.66
1085.01
1085.36
1085.72
1086.07
1086.43
1086.78
1087.13
1087.49
1087.84
1088.19
1088.54
1088.9
1089.25
1089.6
1089.95
1090.3
1090.65
1091
1091.35
1091.7
1092.04
1092.39
1092.74
1093.09
1093.44
1093.79
1094.13
1094.48
1094.83
1095.18
1095.53
1095.88
1096.22
1096.57
1096.92
1097.27
1097.61
1097.96
1098.31
1098.66
1099
1099.35
1099.69
1100.04
1100.38
1100.73
1101.07
1101.42
1101.76
1102.1
1102.45
1102.79
1103.14
1103.48
1103.83
1104.18
1104.52
1104.87
1105.21
1105.56
1105.91
1106.25
1106.6
1106.95
1107.29
1107.64
1107.98
1108.33
1108.67
1109.02
1109.36
1109.7
1110.05
1110.39
1110.73
1111.07
1111.41
1111.75
1112.09
1112.44
1112.78
1113.12
1113.46
1113.8
1114.14
1114.48
1114.82
1115.17
1115.51
1115.86
1116.2
1116.55
1116.89
1117.24
1117.58
1117.93
1118.28
1118.63
1118.98
1119.33
1119.68
1120.03
1120.38
1120.73
1121.09
1121.44
1121.79
1122.15
1122.5
1122.86
1123.21
1123.57
1123.93
1124.29
1124.65
1125.01
1125.38
1125.74
1126.11
1126.48
1126.85
1127.22
1127.59
1127.96
1128.33
1128.7
1129.07
1129.45
1129.82
1130.19
1130.56
1130.94
1131.31
1131.68
1132.05
1132.42
1132.79
1133.15
1133.52
1133.88
1134.25
1134.61
1134.97
1135.33
1135.69
1136.05
1136.4
1136.76
1137.11
1137.46
1137.81
1138.16
1138.51
1138.85
1139.2
1139.54
1139.89
1140.23
1140.57
1140.91
1141.26
1141.6
1141.94
1142.28
1142.63
1142.97
1143.32
1143.67
1144.01
1144.36
1144.71
1145.06
1145.41
1145.76
1146.11
1146.47
1146.82
1147.18
1147.53
1147.89
1148.24
1148.6
1148.96
1149.31
1149.67
1150.03
1150.38
1150.74
1151.09
1151.45
1151.8
1152.15
1152.51
1152.86
1153.21
1153.56
1153.91
1154.26
1154.61
1154.96
1155.31
1155.66
1156.01
1156.36
1156.71
1157.06
1157.41
1157.76
1158.11
1158.46
1158.81
1159.16
1159.51
1159.86
1160.21
1160.55
1160.9
1161.25
1161.61
1161.96
1162.31
1162.66
1163.02
1163.38
1163.76
1164.12
1164.53
1164.91
1165.39
1165.81
1166.41
1166.93
1167.78
1168.5
1169.77
1170.89
1172.78
1174.48
1176.95
1178.34
1179.99
1179.9
1181.43
917.276
919.34
920.791
923.019
924.473
926.192
927.352
928.558
929.451
930.327
931.044
931.721
932.316
932.871
933.39
933.888
934.364
934.819
935.259
935.689
936.107
936.518
936.923
937.325
937.722
938.117
938.509
938.899
939.285
939.669
940.052
940.433
940.813
941.191
941.569
941.947
942.323
942.699
943.074
943.448
943.822
944.194
944.565
944.936
945.305
945.674
946.042
946.409
946.776
947.142
947.506
947.87
948.233
948.595
948.956
949.317
949.676
950.035
950.392
950.749
951.106
951.461
951.816
952.17
952.524
952.877
953.229
953.581
953.932
954.283
954.633
954.984
955.334
955.685
956.036
956.386
956.737
957.088
957.439
957.788
958.139
958.489
958.839
959.189
959.539
959.888
960.238
960.588
960.937
961.285
961.634
961.983
962.332
962.68
963.028
963.375
963.722
964.068
964.412
964.756
965.099
965.442
965.784
966.126
966.467
966.808
967.148
967.487
967.826
968.165
968.503
968.84
969.178
969.515
969.851
970.188
970.525
970.861
971.198
971.534
971.87
972.207
972.543
972.879
973.215
973.552
973.888
974.224
974.56
974.895
975.231
975.566
975.901
976.236
976.57
976.904
977.238
977.571
977.904
978.236
978.568
978.899
979.23
979.561
979.892
980.222
980.552
980.882
981.211
981.541
981.871
982.201
982.532
982.862
983.194
983.525
983.858
984.191
984.525
984.859
985.194
985.531
985.868
986.206
986.545
986.885
987.225
987.567
987.91
988.253
988.597
988.942
989.288
989.634
989.982
990.329
990.678
991.026
991.376
991.725
992.075
992.426
992.776
993.127
993.478
993.83
994.181
994.533
994.885
995.236
995.588
995.94
996.291
996.642
996.993
997.344
997.694
998.044
998.394
998.743
999.092
999.44
999.788
1000.14
1000.48
1000.83
1001.18
1001.52
1001.87
1002.21
1002.56
1002.91
1003.25
1003.6
1003.95
1004.29
1004.64
1004.99
1005.34
1005.69
1006.04
1006.4
1006.75
1007.1
1007.46
1007.81
1008.17
1008.52
1008.88
1009.23
1009.59
1009.95
1010.3
1010.66
1011.01
1011.37
1011.73
1012.08
1012.44
1012.79
1013.14
1013.5
1013.85
1014.2
1014.55
1014.9
1015.26
1015.6
1015.95
1016.3
1016.65
1017
1017.34
1017.69
1018.03
1018.38
1018.72
1019.06
1019.4
1019.74
1020.08
1020.42
1020.76
1021.1
1021.43
1021.77
1022.11
1022.44
1022.78
1023.11
1023.45
1023.79
1024.12
1024.46
1024.79
1025.13
1025.47
1025.8
1026.14
1026.48
1026.82
1027.16
1027.5
1027.84
1028.18
1028.52
1028.86
1029.2
1029.54
1029.88
1030.22
1030.57
1030.91
1031.26
1031.6
1031.95
1032.3
1032.64
1032.99
1033.34
1033.69
1034.04
1034.39
1034.74
1035.1
1035.45
1035.8
1036.16
1036.51
1036.86
1037.22
1037.57
1037.93
1038.28
1038.63
1038.99
1039.34
1039.69
1040.04
1040.39
1040.75
1041.1
1041.45
1041.8
1042.15
1042.49
1042.84
1043.19
1043.54
1043.89
1044.24
1044.58
1044.93
1045.28
1045.63
1045.98
1046.33
1046.67
1047.02
1047.37
1047.72
1048.07
1048.41
1048.76
1049.11
1049.46
1049.8
1050.15
1050.49
1050.84
1051.18
1051.53
1051.87
1052.22
1052.56
1052.91
1053.25
1053.6
1053.94
1054.29
1054.63
1054.98
1055.32
1055.67
1056.01
1056.36
1056.71
1057.05
1057.4
1057.75
1058.09
1058.44
1058.79
1059.13
1059.48
1059.82
1060.16
1060.51
1060.85
1061.19
1061.54
1061.88
1062.22
1062.56
1062.9
1063.24
1063.58
1063.92
1064.26
1064.6
1064.94
1065.29
1065.63
1065.97
1066.31
1066.66
1067
1067.35
1067.69
1068.04
1068.38
1068.73
1069.08
1069.43
1069.78
1070.13
1070.48
1070.83
1071.18
1071.53
1071.88
1072.23
1072.59
1072.94
1073.29
1073.65
1074
1074.36
1074.72
1075.08
1075.44
1075.8
1076.16
1076.52
1076.89
1077.26
1077.62
1077.99
1078.36
1078.73
1079.1
1079.47
1079.85
1080.22
1080.59
1080.97
1081.34
1081.71
1082.08
1082.45
1082.82
1083.19
1083.56
1083.93
1084.3
1084.67
1085.03
1085.4
1085.76
1086.12
1086.48
1086.84
1087.2
1087.55
1087.91
1088.26
1088.61
1088.96
1089.31
1089.65
1090
1090.35
1090.69
1091.03
1091.38
1091.72
1092.06
1092.4
1092.74
1093.09
1093.43
1093.78
1094.12
1094.47
1094.81
1095.16
1095.51
1095.86
1096.21
1096.56
1096.91
1097.26
1097.61
1097.97
1098.32
1098.68
1099.03
1099.39
1099.75
1100.1
1100.46
1100.82
1101.17
1101.53
1101.88
1102.24
1102.59
1102.95
1103.3
1103.65
1104
1104.36
1104.71
1105.06
1105.41
1105.76
1106.11
1106.46
1106.81
1107.16
1107.51
1107.86
1108.21
1108.56
1108.91
1109.26
1109.61
1109.96
1110.3
1110.65
1111
1111.35
1111.7
1112.05
1112.4
1112.75
1113.1
1113.46
1113.81
1114.17
1114.52
1114.9
1115.26
1115.67
1116.04
1116.51
1116.92
1117.51
1118
1118.83
1119.48
1120.71
1121.73
1123.51
1125.06
1127.37
1128.83
1130.52
1130.91
1132.72
867.982
870.342
871.841
874.185
875.661
877.403
878.553
879.756
880.637
881.506
882.215
882.888
883.479
884.033
884.549
885.044
885.517
885.971
886.41
886.839
887.257
887.668
888.073
888.475
888.872
889.267
889.659
890.048
890.435
890.819
891.202
891.583
891.963
892.341
892.719
893.097
893.473
893.849
894.224
894.598
894.971
895.343
895.714
896.084
896.454
896.822
897.19
897.557
897.924
898.289
898.654
899.017
899.38
899.742
900.103
900.463
900.823
901.182
901.539
901.897
902.253
902.609
902.963
903.318
903.671
904.024
904.377
904.728
905.08
905.431
905.781
906.131
906.481
906.832
907.183
907.533
907.884
908.236
908.586
908.936
909.286
909.636
909.986
910.336
910.686
911.036
911.385
911.735
912.084
912.433
912.782
913.131
913.48
913.828
914.176
914.523
914.87
915.216
915.56
915.904
916.248
916.59
916.933
917.274
917.615
917.956
918.296
918.635
918.974
919.313
919.651
919.989
920.326
920.663
920.999
921.335
921.673
922.01
922.346
922.682
923.018
923.354
923.691
924.027
924.363
924.699
925.035
925.372
925.707
926.043
926.379
926.714
927.049
927.384
927.718
928.052
928.386
928.719
929.051
929.384
929.715
930.047
930.378
930.709
931.039
931.369
931.699
932.029
932.359
932.688
933.018
933.348
933.679
934.01
934.341
934.672
935.005
935.338
935.671
936.006
936.341
936.677
937.014
937.352
937.691
938.031
938.372
938.714
939.056
939.4
939.744
940.089
940.435
940.781
941.128
941.476
941.824
942.173
942.522
942.872
943.222
943.573
943.923
944.274
944.625
944.977
945.328
945.68
946.032
946.383
946.735
947.087
947.438
947.789
948.14
948.491
948.841
949.191
949.541
949.89
950.239
950.587
950.935
951.282
951.629
951.976
952.322
952.669
953.015
953.361
953.707
954.053
954.399
954.746
955.093
955.441
955.79
956.139
956.489
956.839
957.19
957.543
957.895
958.249
958.603
958.958
959.313
959.668
960.024
960.381
960.737
961.093
961.45
961.806
962.162
962.518
962.873
963.228
963.583
963.937
964.291
964.644
964.997
965.349
965.701
966.052
966.402
966.752
967.101
967.45
967.797
968.144
968.491
968.836
969.181
969.524
969.867
970.209
970.55
970.891
971.23
971.569
971.907
972.245
972.582
972.918
973.254
973.59
973.926
974.262
974.597
974.933
975.268
975.604
975.94
976.277
976.614
976.951
977.289
977.627
977.965
978.304
978.643
978.982
979.322
979.662
980.003
980.344
980.686
981.028
981.371
981.715
982.059
982.403
982.749
983.095
983.441
983.789
984.137
984.486
984.836
985.186
985.538
985.889
986.242
986.595
986.948
987.302
987.656
988.01
988.364
988.718
989.072
989.426
989.78
990.133
990.486
990.838
991.19
991.542
991.892
992.243
992.593
992.943
993.292
993.641
993.99
994.338
994.687
995.035
995.383
995.731
996.079
996.427
996.776
997.124
997.472
997.82
998.169
998.517
998.865
999.213
999.561
999.908
1000.26
1000.6
1000.95
1001.29
1001.64
1001.99
1002.33
1002.68
1003.02
1003.36
1003.71
1004.05
1004.4
1004.74
1005.09
1005.43
1005.78
1006.12
1006.47
1006.81
1007.16
1007.51
1007.85
1008.2
1008.55
1008.89
1009.24
1009.59
1009.93
1010.28
1010.62
1010.97
1011.31
1011.66
1012
1012.34
1012.68
1013.02
1013.37
1013.71
1014.05
1014.39
1014.73
1015.07
1015.41
1015.75
1016.09
1016.43
1016.77
1017.12
1017.46
1017.8
1018.15