/*--------------------------------*- C++ -*----------------------------------*\
| =========                 |                                                 |
| \\      /  F ield         | foam-extend: Open Source CFD                    |
|  \\    /   O peration     | Version:     3.2                                |
|   \\  /    A nd           | Web:         http://www.foam-extend.org         |
|    \\/     M anipulation  | For copyright notice see file Copyright         |
\*---------------------------------------------------------------------------*/
FoamFile
{
    version     2.0;
    format      ascii;
    class       surfaceScalarField;
    location    "200";
    object      phi;
}
// * * * * * * * * * * * * * * * * * * * * * * * * * * * * * * * * * * * * * //

dimensions      [0 3 -1 0 0 0 0];

internalField   nonuniform List<scalar> 
65390
(
3.55141e-05
5.85868e-07
3.49632e-05
5.5096e-07
3.43054e-05
6.57794e-07
3.36562e-05
6.49141e-07
3.29882e-05
6.67998e-07
3.23621e-05
6.26158e-07
3.17517e-05
6.10358e-07
3.1174e-05
5.77728e-07
3.06119e-05
5.62067e-07
3.00741e-05
5.37804e-07
2.95557e-05
5.18444e-07
2.90598e-05
4.9587e-07
2.85845e-05
4.75275e-07
2.81271e-05
4.57453e-07
2.76859e-05
4.41206e-07
2.72628e-05
4.23056e-07
2.68594e-05
4.03398e-07
2.64743e-05
3.85158e-07
2.61046e-05
3.69616e-07
2.57495e-05
3.55147e-07
2.54087e-05
3.40777e-07
2.50821e-05
3.26614e-07
2.47699e-05
3.12211e-07
2.44727e-05
2.97227e-07
2.41908e-05
2.81851e-07
2.39246e-05
2.66235e-07
2.36735e-05
2.51062e-07
2.34362e-05
2.37331e-07
2.32112e-05
2.25005e-07
2.29977e-05
2.13536e-07
2.27951e-05
2.02523e-07
2.26034e-05
1.91757e-07
2.24219e-05
1.81472e-07
2.22502e-05
1.71723e-07
2.20877e-05
1.62438e-07
2.19343e-05
1.53467e-07
2.17894e-05
1.44857e-07
2.16527e-05
1.36705e-07
2.15237e-05
1.29002e-07
2.14021e-05
1.21573e-07
2.12877e-05
1.14453e-07
2.11798e-05
1.0793e-07
2.10779e-05
1.01882e-07
2.09817e-05
9.62103e-08
2.08908e-05
9.08562e-08
2.08051e-05
8.57163e-08
2.07243e-05
8.08242e-08
2.06481e-05
7.61784e-08
2.05763e-05
7.17727e-08
2.05087e-05
6.75761e-08
2.04451e-05
6.36112e-08
2.03852e-05
5.98791e-08
2.03288e-05
5.64236e-08
2.02755e-05
5.32879e-08
2.02251e-05
5.04073e-08
2.01774e-05
4.77151e-08
2.01322e-05
4.51677e-08
2.00894e-05
4.28607e-08
2.00486e-05
4.07945e-08
2.00097e-05
3.88786e-08
1.99726e-05
3.70694e-08
1.99373e-05
3.53489e-08
1.99036e-05
3.37307e-08
1.98714e-05
3.22088e-08
1.98406e-05
3.0771e-08
1.98112e-05
2.94142e-08
1.9783e-05
2.8128e-08
1.97561e-05
2.69256e-08
1.97303e-05
2.58248e-08
1.97055e-05
2.48232e-08
1.96815e-05
2.39266e-08
1.96584e-05
2.31534e-08
1.96359e-05
2.24738e-08
1.96141e-05
2.18382e-08
1.95928e-05
2.12327e-08
1.95722e-05
2.06549e-08
1.95521e-05
2.00686e-08
1.95327e-05
1.94054e-08
1.95139e-05
1.87695e-08
1.94957e-05
1.82432e-08
1.94779e-05
1.77677e-08
1.94606e-05
1.7328e-08
1.94437e-05
1.69143e-08
1.94272e-05
1.6529e-08
1.9411e-05
1.61696e-08
1.93952e-05
1.58369e-08
1.93796e-05
1.55317e-08
1.93644e-05
1.52517e-08
1.93494e-05
1.50153e-08
1.93345e-05
1.48971e-08
1.93196e-05
1.481e-08
1.9305e-05
1.464e-08
1.92906e-05
1.44453e-08
1.92763e-05
1.42354e-08
1.92623e-05
1.39915e-08
1.92486e-05
1.36936e-08
1.92353e-05
1.33261e-08
1.92225e-05
1.28657e-08
1.92099e-05
1.25235e-08
1.91976e-05
1.23389e-08
1.91854e-05
1.21653e-08
1.91734e-05
1.20289e-08
1.91615e-05
1.19049e-08
1.91497e-05
1.18035e-08
1.9138e-05
1.17152e-08
1.91263e-05
1.16494e-08
1.91147e-05
1.16061e-08
1.91031e-05
1.1591e-08
1.90915e-05
1.16013e-08
1.90799e-05
1.16408e-08
1.90682e-05
1.1697e-08
1.90564e-05
1.17722e-08
1.90446e-05
1.18334e-08
1.90327e-05
1.19057e-08
1.90205e-05
1.21396e-08
1.90082e-05
1.23785e-08
1.89957e-05
1.24636e-08
1.89831e-05
1.25645e-08
1.89704e-05
1.27204e-08
1.89575e-05
1.28776e-08
1.89445e-05
1.30469e-08
1.89313e-05
1.32153e-08
1.89179e-05
1.33852e-08
1.89043e-05
1.35528e-08
1.88906e-05
1.37183e-08
1.88767e-05
1.38812e-08
1.88627e-05
1.40383e-08
1.88485e-05
1.41866e-08
1.88342e-05
1.43216e-08
1.88197e-05
1.44403e-08
1.88052e-05
1.45402e-08
1.87906e-05
1.46219e-08
1.87759e-05
1.46858e-08
1.87612e-05
1.47326e-08
1.87464e-05
1.47638e-08
1.87316e-05
1.4781e-08
1.87168e-05
1.47861e-08
1.87021e-05
1.47807e-08
1.86873e-05
1.47642e-08
1.86726e-05
1.4736e-08
1.86579e-05
1.46961e-08
1.86432e-05
1.46462e-08
1.86286e-05
1.459e-08
1.86141e-05
1.45312e-08
1.85996e-05
1.44726e-08
1.85852e-05
1.44156e-08
1.85708e-05
1.43598e-08
1.85565e-05
1.43053e-08
1.85423e-05
1.42512e-08
1.85281e-05
1.41975e-08
1.85139e-05
1.41446e-08
1.84999e-05
1.40932e-08
1.84858e-05
1.40433e-08
1.84718e-05
1.39966e-08
1.84579e-05
1.39545e-08
1.84439e-05
1.39184e-08
1.843e-05
1.3889e-08
1.84162e-05
1.38662e-08
1.84023e-05
1.38499e-08
1.83885e-05
1.38374e-08
1.83747e-05
1.38265e-08
1.83609e-05
1.38151e-08
1.83471e-05
1.38024e-08
1.83333e-05
1.37874e-08
1.83195e-05
1.37694e-08
1.83057e-05
1.37483e-08
1.8292e-05
1.37239e-08
1.82783e-05
1.36965e-08
1.82647e-05
1.36658e-08
1.8251e-05
1.36319e-08
1.82374e-05
1.35939e-08
1.82239e-05
1.35501e-08
1.82104e-05
1.34991e-08
1.81969e-05
1.34391e-08
1.81836e-05
1.33692e-08
1.81703e-05
1.32904e-08
1.81571e-05
1.32037e-08
1.8144e-05
1.31096e-08
1.8131e-05
1.30095e-08
1.81181e-05
1.29046e-08
1.81053e-05
1.27958e-08
1.80926e-05
1.26822e-08
1.808e-05
1.25634e-08
1.80676e-05
1.24396e-08
1.80553e-05
1.23097e-08
1.80431e-05
1.21753e-08
1.80311e-05
1.2035e-08
1.80192e-05
1.18905e-08
1.80074e-05
1.17394e-08
1.79958e-05
1.15822e-08
1.79844e-05
1.14169e-08
1.79732e-05
1.12449e-08
1.79621e-05
1.10646e-08
1.79512e-05
1.08788e-08
1.79406e-05
1.06888e-08
1.79301e-05
1.04965e-08
1.79198e-05
1.03024e-08
1.79096e-05
1.01074e-08
1.78997e-05
9.91112e-09
1.789e-05
9.71401e-09
1.78805e-05
9.51484e-09
1.78712e-05
9.31313e-09
1.78621e-05
9.10884e-09
1.78532e-05
8.90329e-09
1.78445e-05
8.6985e-09
1.7836e-05
8.49843e-09
1.78277e-05
8.30611e-09
1.78196e-05
8.12384e-09
1.78116e-05
7.95266e-09
1.78038e-05
7.79322e-09
1.77962e-05
7.64553e-09
1.77887e-05
7.50797e-09
1.77813e-05
7.37981e-09
1.7774e-05
7.25883e-09
1.77669e-05
7.14419e-09
1.77598e-05
7.03331e-09
1.77529e-05
6.92478e-09
1.77461e-05
6.81677e-09
1.77394e-05
6.70818e-09
1.77328e-05
6.59887e-09
1.77263e-05
6.48841e-09
1.77199e-05
6.37836e-09
1.77137e-05
6.26693e-09
1.77075e-05
6.1715e-09
1.77014e-05
6.11106e-09
1.76953e-05
6.06461e-09
1.76893e-05
6.01016e-09
1.76834e-05
5.94432e-09
1.76775e-05
5.86614e-09
1.76717e-05
5.77647e-09
1.7666e-05
5.67764e-09
1.76605e-05
5.57153e-09
1.7655e-05
5.46018e-09
1.76497e-05
5.34447e-09
1.76444e-05
5.22581e-09
1.76393e-05
5.10491e-09
1.76343e-05
4.98325e-09
1.76295e-05
4.86204e-09
1.76247e-05
4.74303e-09
1.76201e-05
4.62647e-09
1.76156e-05
4.51378e-09
1.76112e-05
4.4049e-09
1.76069e-05
4.30047e-09
1.76027e-05
4.19919e-09
1.75986e-05
4.10147e-09
1.75946e-05
4.00629e-09
1.75907e-05
3.91506e-09
1.75868e-05
3.82796e-09
1.75831e-05
3.74617e-09
1.75794e-05
3.66928e-09
1.75758e-05
3.59669e-09
1.75723e-05
3.52758e-09
1.75688e-05
3.46101e-09
1.75654e-05
3.39775e-09
1.75621e-05
3.33741e-09
1.75588e-05
3.28312e-09
1.75556e-05
3.23519e-09
1.75524e-05
3.19688e-09
1.75492e-05
3.1665e-09
1.75461e-05
3.14522e-09
1.75429e-05
3.12979e-09
1.75398e-05
3.11985e-09
1.75367e-05
3.11287e-09
1.75336e-05
3.10929e-09
1.75305e-05
3.10914e-09
1.75274e-05
3.11397e-09
1.75243e-05
3.1259e-09
1.75211e-05
3.14705e-09
1.75179e-05
3.17969e-09
1.75147e-05
3.22447e-09
1.75114e-05
3.2826e-09
1.75081e-05
3.3535e-09
1.75046e-05
3.43644e-09
1.75011e-05
3.52819e-09
1.74975e-05
3.62559e-09
1.74938e-05
3.72398e-09
1.74899e-05
3.82129e-09
1.7486e-05
3.9148e-09
1.7482e-05
4.00441e-09
1.74779e-05
4.08901e-09
1.74738e-05
4.16874e-09
1.74695e-05
4.24365e-09
1.74652e-05
4.31489e-09
1.74608e-05
4.38349e-09
1.74564e-05
4.45138e-09
1.74518e-05
4.51919e-09
1.74473e-05
4.58779e-09
1.74426e-05
4.65631e-09
1.74379e-05
4.72384e-09
1.74331e-05
4.78894e-09
1.74282e-05
4.85126e-09
1.74233e-05
4.91087e-09
1.74184e-05
4.96846e-09
1.74133e-05
5.02512e-09
1.74083e-05
5.08078e-09
1.74031e-05
5.13675e-09
1.73979e-05
5.19146e-09
1.73927e-05
5.24571e-09
1.73874e-05
5.29727e-09
1.7382e-05
5.34791e-09
1.73766e-05
5.39632e-09
1.73712e-05
5.44491e-09
1.73657e-05
5.492e-09
1.73602e-05
5.53937e-09
1.73546e-05
5.58598e-09
1.73489e-05
5.63258e-09
1.73433e-05
5.67663e-09
1.73376e-05
5.71674e-09
1.73318e-05
5.74867e-09
1.7326e-05
5.76979e-09
1.73203e-05
5.7753e-09
1.73145e-05
5.76463e-09
1.73088e-05
5.73635e-09
1.73031e-05
5.69399e-09
1.72974e-05
5.63841e-09
1.72919e-05
5.5729e-09
1.72864e-05
5.49853e-09
1.72809e-05
5.41927e-09
1.72756e-05
5.33763e-09
1.72703e-05
5.25788e-09
1.72652e-05
5.18155e-09
1.726e-05
5.11015e-09
1.7255e-05
5.044e-09
1.725e-05
4.98387e-09
1.72451e-05
4.92933e-09
1.72402e-05
4.88083e-09
1.72354e-05
4.83736e-09
1.72306e-05
4.79803e-09
1.72258e-05
4.76157e-09
1.72211e-05
4.72657e-09
1.72164e-05
4.69211e-09
1.72117e-05
4.65768e-09
1.72071e-05
4.62235e-09
1.72025e-05
4.58602e-09
1.7198e-05
4.54793e-09
1.71935e-05
4.50832e-09
1.7189e-05
4.46699e-09
1.71846e-05
4.42455e-09
1.71802e-05
4.38068e-09
1.71759e-05
4.33511e-09
1.71716e-05
4.28702e-09
1.71673e-05
4.23679e-09
1.71632e-05
4.18369e-09
1.7159e-05
4.12944e-09
1.7155e-05
4.07564e-09
1.71509e-05
4.02692e-09
1.71469e-05
3.98648e-09
1.7143e-05
3.95725e-09
1.7139e-05
3.93881e-09
1.71351e-05
3.93081e-09
1.71312e-05
3.93094e-09
1.71272e-05
3.93786e-09
1.71233e-05
3.95005e-09
1.71193e-05
3.96676e-09
1.71153e-05
3.98747e-09
1.71113e-05
4.01246e-09
1.71073e-05
4.04122e-09
1.71032e-05
4.07189e-09
1.70991e-05
4.10146e-09
1.7095e-05
4.12762e-09
1.70908e-05
4.14676e-09
1.70867e-05
4.15892e-09
1.70825e-05
4.16362e-09
1.70784e-05
4.16315e-09
1.70742e-05
4.15599e-09
1.70701e-05
4.14371e-09
1.70659e-05
4.12566e-09
1.70618e-05
4.10436e-09
1.70577e-05
4.0807e-09
1.70537e-05
4.05713e-09
1.70497e-05
4.03567e-09
1.70456e-05
4.01786e-09
1.70416e-05
4.00501e-09
1.70376e-05
3.99667e-09
1.70336e-05
3.99532e-09
1.70296e-05
4.00177e-09
1.70256e-05
4.01839e-09
1.70216e-05
4.04448e-09
1.70175e-05
4.08249e-09
1.70134e-05
4.13047e-09
1.70092e-05
4.18896e-09
1.70049e-05
4.25423e-09
1.70006e-05
4.32642e-09
1.69962e-05
4.40287e-09
1.69917e-05
4.48536e-09
1.69871e-05
4.57004e-09
1.69825e-05
4.65772e-09
1.69777e-05
4.74409e-09
1.69729e-05
4.83128e-09
1.6968e-05
4.91628e-09
1.6963e-05
5.0018e-09
1.69579e-05
5.08595e-09
1.69527e-05
5.17018e-09
1.69475e-05
5.25158e-09
1.69421e-05
5.33209e-09
1.69367e-05
5.40795e-09
1.69313e-05
5.47874e-09
1.69257e-05
5.53962e-09
1.69201e-05
5.58748e-09
1.69145e-05
5.61972e-09
1.69089e-05
5.63612e-09
1.69032e-05
5.64213e-09
1.68976e-05
5.64464e-09
1.68919e-05
5.65121e-09
1.68863e-05
5.66523e-09
1.68806e-05
5.69024e-09
1.68749e-05
5.72503e-09
1.68691e-05
5.77147e-09
1.68633e-05
5.82811e-09
1.68574e-05
5.89513e-09
1.68514e-05
5.97067e-09
1.68453e-05
6.05273e-09
1.68392e-05
6.14097e-09
1.6833e-05
6.23529e-09
1.68266e-05
6.33727e-09
1.68202e-05
6.44649e-09
1.68136e-05
6.56446e-09
1.68069e-05
6.69142e-09
1.68001e-05
6.82833e-09
1.67931e-05
6.97577e-09
1.6786e-05
7.13431e-09
1.67787e-05
7.30074e-09
1.67712e-05
7.47296e-09
1.67636e-05
7.64581e-09
1.67557e-05
7.81514e-09
1.67478e-05
7.9767e-09
1.67396e-05
8.12616e-09
1.67314e-05
8.26048e-09
1.6723e-05
8.37557e-09
1.67145e-05
8.46989e-09
1.6706e-05
8.54249e-09
1.66974e-05
8.59504e-09
1.66888e-05
8.62859e-09
1.66801e-05
8.64519e-09
1.66715e-05
8.64751e-09
1.66628e-05
8.63896e-09
1.66542e-05
8.62183e-09
1.66456e-05
8.59884e-09
1.6637e-05
8.57075e-09
1.66285e-05
8.5388e-09
1.662e-05
8.50154e-09
1.66115e-05
8.45786e-09
1.66031e-05
8.40721e-09
1.65948e-05
8.35075e-09
1.65865e-05
8.28953e-09
1.65783e-05
8.2208e-09
1.65701e-05
8.14004e-09
1.65621e-05
8.04202e-09
1.65542e-05
7.92273e-09
1.65464e-05
7.78e-09
1.65388e-05
7.61577e-09
1.65313e-05
7.4344e-09
1.65241e-05
7.24122e-09
1.65171e-05
7.03882e-09
1.65102e-05
6.83216e-09
1.65036e-05
6.62633e-09
1.64972e-05
6.42564e-09
1.64909e-05
6.23508e-09
1.64849e-05
6.05502e-09
1.6479e-05
5.89165e-09
1.64732e-05
5.74413e-09
1.64676e-05
5.62021e-09
1.64621e-05
5.51782e-09
1.64567e-05
5.44248e-09
1.64513e-05
5.38964e-09
1.64459e-05
5.36166e-09
1.64406e-05
5.34948e-09
1.64352e-05
5.35018e-09
1.64299e-05
5.35145e-09
1.64245e-05
5.35502e-09
1.64191e-05
5.36033e-09
1.64138e-05
5.37161e-09
1.64084e-05
5.39034e-09
1.6403e-05
5.41875e-09
1.63975e-05
5.45711e-09
1.6392e-05
5.50269e-09
1.63865e-05
5.55279e-09
1.63808e-05
5.60689e-09
1.63752e-05
5.66458e-09
1.63695e-05
5.7225e-09
1.63637e-05
5.78047e-09
1.63578e-05
5.83449e-09
1.6352e-05
5.88787e-09
1.6346e-05
5.94351e-09
1.634e-05
6.00419e-09
1.63339e-05
6.06882e-09
1.63278e-05
6.1283e-09
1.63216e-05
6.17014e-09
1.63155e-05
6.18508e-09
1.63093e-05
6.17188e-09
1.63031e-05
6.14063e-09
1.6297e-05
6.10729e-09
1.62909e-05
6.09032e-09
1.62849e-05
6.09238e-09
1.62787e-05
6.11652e-09
1.62726e-05
6.14465e-09
1.62664e-05
6.17345e-09
1.62602e-05
6.17717e-09
1.62541e-05
6.16709e-09
1.6248e-05
6.12174e-09
1.62419e-05
6.07553e-09
1.62359e-05
6.00763e-09
1.62299e-05
5.95746e-09
1.6224e-05
5.88827e-09
1.62182e-05
5.84919e-09
1.62124e-05
5.79807e-09
1.62066e-05
5.80297e-09
1.62008e-05
5.81465e-09
1.61948e-05
5.91767e-09
1.61888e-05
6.02482e-09
1.61826e-05
6.21318e-09
1.61762e-05
6.3576e-09
1.61697e-05
6.55788e-09
1.6163e-05
6.66536e-09
1.61562e-05
6.81593e-09
1.61494e-05
6.83779e-09
1.61424e-05
6.91923e-09
1.61356e-05
6.85866e-09
1.61287e-05
6.91512e-09
1.61218e-05
6.83833e-09
1.61149e-05
6.96519e-09
1.61079e-05
6.95951e-09
1.61007e-05
7.24573e-09
1.60933e-05
7.38148e-09
1.60853e-05
7.95564e-09
1.60769e-05
8.44033e-09
1.60673e-05
9.5478e-09
1.60564e-05
1.09342e-08
1.60431e-05
1.32864e-08
1.60267e-05
1.64381e-08
1.6005e-05
2.17314e-08
1.59766e-05
2.83058e-08
1.59371e-05
3.95364e-08
1.58836e-05
5.34609e-08
1.58066e-05
7.70847e-08
1.56999e-05
1.06681e-07
1.55427e-05
1.57191e-07
1.53225e-05
2.20178e-07
1.49936e-05
3.28957e-07
1.45333e-05
4.60234e-07
1.38513e-05
6.82041e-07
1.28986e-05
9.52648e-07
1.1591e-05
1.30764e-06
9.87721e-06
1.71379e-06
7.66567e-06
2.21154e-06
4.17985e-06
3.48582e-06
9.80052e-07
3.19979e-06
-8.51531e-07
1.83158e-06
-2.22871e-06
1.37718e-06
-2.22871e-06
3.59052e-05
7.80699e-07
3.56309e-05
8.25184e-07
3.52122e-05
1.07657e-06
3.48087e-05
1.05259e-06
3.44076e-05
1.06914e-06
3.40481e-05
9.85682e-07
3.36972e-05
9.61228e-07
3.33872e-05
8.87732e-07
3.312e-05
8.29202e-07
3.2893e-05
7.64834e-07
3.26807e-05
7.30758e-07
3.24795e-05
6.9704e-07
3.22822e-05
6.7265e-07
3.20872e-05
6.52407e-07
3.18927e-05
6.35732e-07
3.16965e-05
6.19207e-07
3.14928e-05
6.071e-07
3.12821e-05
5.95923e-07
3.1071e-05
5.80657e-07
3.08621e-05
5.64023e-07
3.06554e-05
5.47548e-07
3.04501e-05
5.3191e-07
3.02461e-05
5.16158e-07
3.00439e-05
4.99418e-07
2.98438e-05
4.82026e-07
2.96456e-05
4.64389e-07
2.94496e-05
4.4703e-07
2.92573e-05
4.29671e-07
2.90697e-05
4.12574e-07
2.88866e-05
3.96676e-07
2.87079e-05
3.81257e-07
2.85339e-05
3.65674e-07
2.8365e-05
3.50412e-07
2.82009e-05
3.35821e-07
2.80416e-05
3.21787e-07
2.7887e-05
3.08025e-07
2.77373e-05
2.94512e-07
2.75925e-05
2.81555e-07
2.74523e-05
2.69144e-07
2.73167e-05
2.57176e-07
2.71858e-05
2.45374e-07
2.70594e-05
2.34329e-07
2.69372e-05
2.24074e-07
2.6819e-05
2.14429e-07
2.67047e-05
2.05191e-07
2.65941e-05
1.9626e-07
2.64868e-05
1.88177e-07
2.63826e-05
1.80404e-07
2.62814e-05
1.72906e-07
2.61834e-05
1.656e-07
2.60885e-05
1.58524e-07
2.59966e-05
1.51751e-07
2.59077e-05
1.45302e-07
2.58218e-05
1.3926e-07
2.57386e-05
1.33593e-07
2.56581e-05
1.28209e-07
2.55803e-05
1.22969e-07
2.55051e-05
1.18079e-07
2.54322e-05
1.13626e-07
2.53617e-05
1.0945e-07
2.52933e-05
1.05451e-07
2.5227e-05
1.01614e-07
2.51627e-05
9.80061e-08
2.51003e-05
9.46145e-08
2.50397e-05
9.13915e-08
2.49808e-05
8.83239e-08
2.49236e-05
8.53688e-08
2.4868e-05
8.25314e-08
2.48139e-05
7.98502e-08
2.47614e-05
7.73222e-08
2.47104e-05
7.49646e-08
2.46607e-05
7.28214e-08
2.46123e-05
7.08805e-08
2.45651e-05
6.9035e-08
2.45191e-05
6.72609e-08
2.44742e-05
6.55594e-08
2.44304e-05
6.38927e-08
2.43877e-05
6.20787e-08
2.43462e-05
6.02514e-08
2.43058e-05
5.86267e-08
2.42665e-05
5.71009e-08
2.42282e-05
5.56022e-08
2.4191e-05
5.41343e-08
2.41548e-05
5.26873e-08
2.41197e-05
5.12839e-08
2.40856e-05
4.99223e-08
2.40525e-05
4.86279e-08
2.40204e-05
4.74138e-08
2.39891e-05
4.6293e-08
2.39586e-05
4.54386e-08
2.39286e-05
4.47822e-08
2.38992e-05
4.4008e-08
2.38705e-05
4.31967e-08
2.38423e-05
4.24005e-08
2.38147e-05
4.15785e-08
2.37877e-05
4.07428e-08
2.3761e-05
3.9968e-08
2.37348e-05
3.90734e-08
2.37091e-05
3.82908e-08
2.36835e-05
3.78961e-08
2.36581e-05
3.75395e-08
2.36329e-05
3.72251e-08
2.36079e-05
3.69225e-08
2.35831e-05
3.66405e-08
2.35584e-05
3.63554e-08
2.3534e-05
3.61023e-08
2.35097e-05
3.58757e-08
2.34856e-05
3.57053e-08
2.34616e-05
3.55845e-08
2.34377e-05
3.55217e-08
2.34139e-05
3.55028e-08
2.33902e-05
3.55114e-08
2.33665e-05
3.55213e-08
2.33429e-05
3.54732e-08
2.33193e-05
3.57275e-08
2.32956e-05
3.61348e-08
2.32719e-05
3.61859e-08
2.32483e-05
3.61805e-08
2.32247e-05
3.63187e-08
2.32011e-05
3.64551e-08
2.31775e-05
3.66074e-08
2.3154e-05
3.67578e-08
2.31305e-05
3.69034e-08
2.3107e-05
3.70432e-08
2.30835e-05
3.71767e-08
2.30601e-05
3.73101e-08
2.30367e-05
3.74386e-08
2.30133e-05
3.75573e-08
2.299e-05
3.76556e-08
2.29667e-05
3.77263e-08
2.29435e-05
3.77637e-08
2.29203e-05
3.77675e-08
2.28973e-05
3.77383e-08
2.28743e-05
3.76758e-08
2.28515e-05
3.7583e-08
2.28288e-05
3.74654e-08
2.28063e-05
3.73284e-08
2.27839e-05
3.71758e-08
2.27616e-05
3.70045e-08
2.27396e-05
3.68086e-08
2.27177e-05
3.65857e-08
2.2696e-05
3.63399e-08
2.26745e-05
3.6082e-08
2.26532e-05
3.58261e-08
2.26321e-05
3.55815e-08
2.26112e-05
3.53541e-08
2.25904e-05
3.51413e-08
2.25697e-05
3.4939e-08
2.25492e-05
3.474e-08
2.25289e-05
3.45406e-08
2.25087e-05
3.43407e-08
2.24887e-05
3.41422e-08
2.24688e-05
3.39476e-08
2.2449e-05
3.37618e-08
2.24294e-05
3.35893e-08
2.24098e-05
3.3434e-08
2.23904e-05
3.32999e-08
2.23711e-05
3.31863e-08
2.23519e-05
3.30918e-08
2.23327e-05
3.30082e-08
2.23136e-05
3.2929e-08
2.22946e-05
3.28479e-08
2.22756e-05
3.27632e-08
2.22567e-05
3.26734e-08
2.22379e-05
3.25784e-08
2.22192e-05
3.24785e-08
2.22005e-05
3.23736e-08
2.2182e-05
3.22653e-08
2.21635e-05
3.21523e-08
2.21451e-05
3.20357e-08
2.21267e-05
3.19148e-08
2.21085e-05
3.17866e-08
2.20904e-05
3.16486e-08
2.20723e-05
3.14955e-08
2.20543e-05
3.13243e-08
2.20365e-05
3.11353e-08
2.20188e-05
3.09294e-08
2.20012e-05
3.07095e-08
2.19837e-05
3.04766e-08
2.19664e-05
3.02348e-08
2.19492e-05
2.99824e-08
2.19322e-05
2.9718e-08
2.19153e-05
2.9445e-08
2.18986e-05
2.91579e-08
2.1882e-05
2.88629e-08
2.18656e-05
2.8561e-08
2.18494e-05
2.82491e-08
2.18334e-05
2.79355e-08
2.18175e-05
2.76087e-08
2.18018e-05
2.72718e-08
2.17863e-05
2.69145e-08
2.1771e-05
2.65394e-08
2.17559e-05
2.61435e-08
2.17411e-05
2.57332e-08
2.17264e-05
2.53167e-08
2.1712e-05
2.48988e-08
2.16979e-05
2.44815e-08
2.16839e-05
2.40678e-08
2.16702e-05
2.36568e-08
2.16566e-05
2.32464e-08
2.16433e-05
2.2832e-08
2.16302e-05
2.24092e-08
2.16173e-05
2.19768e-08
2.16047e-05
2.15387e-08
2.15923e-05
2.11007e-08
2.15801e-05
2.06745e-08
2.15682e-05
2.02657e-08
2.15564e-05
1.98809e-08
2.15448e-05
1.95209e-08
2.15335e-05
1.91879e-08
2.15222e-05
1.88801e-08
2.15111e-05
1.85944e-08
2.15002e-05
1.83284e-08
2.14894e-05
1.80768e-08
2.14787e-05
1.78401e-08
2.14681e-05
1.76099e-08
2.14576e-05
1.73882e-08
2.14473e-05
1.71665e-08
2.1437e-05
1.6946e-08
2.14269e-05
1.67244e-08
2.14169e-05
1.65012e-08
2.1407e-05
1.62812e-08
2.13972e-05
1.60575e-08
2.13875e-05
1.58461e-08
2.1378e-05
1.56507e-08
2.13686e-05
1.54557e-08
2.13594e-05
1.52503e-08
2.13503e-05
1.50299e-08
2.13414e-05
1.47942e-08
2.13326e-05
1.45445e-08
2.1324e-05
1.42845e-08
2.13155e-05
1.40168e-08
2.13072e-05
1.37447e-08
2.12991e-05
1.34694e-08
2.12912e-05
1.31933e-08
2.12833e-05
1.29178e-08
2.12757e-05
1.26457e-08
2.12682e-05
1.23786e-08
2.12608e-05
1.21195e-08
2.12535e-05
1.18674e-08
2.12464e-05
1.16248e-08
2.12394e-05
1.13907e-08
2.12326e-05
1.11667e-08
2.12258e-05
1.09493e-08
2.12192e-05
1.07396e-08
2.12127e-05
1.0535e-08
2.12062e-05
1.03386e-08
2.11999e-05
1.01505e-08
2.11937e-05
9.97374e-09
2.11876e-05
9.8068e-09
2.11815e-05
9.64853e-09
2.11755e-05
9.49615e-09
2.11696e-05
9.34721e-09
2.11638e-05
9.20211e-09
2.11581e-05
9.05923e-09
2.11525e-05
8.92519e-09
2.11469e-05
8.80066e-09
2.11414e-05
8.69386e-09
2.1136e-05
8.60244e-09
2.11306e-05
8.53132e-09
2.11252e-05
8.47413e-09
2.11199e-05
8.43163e-09
2.11147e-05
8.39745e-09
2.11094e-05
8.37182e-09
2.11041e-05
8.35248e-09
2.10989e-05
8.34002e-09
2.10937e-05
8.33777e-09
2.10885e-05
8.35006e-09
2.10833e-05
8.38276e-09
2.10781e-05
8.4378e-09
2.10729e-05
8.51849e-09
2.10676e-05
8.62437e-09
2.10623e-05
8.75486e-09
2.10569e-05
8.90524e-09
2.10514e-05
9.06877e-09
2.10459e-05
9.23661e-09
2.10404e-05
9.40491e-09
2.10347e-05
9.56821e-09
2.1029e-05
9.72621e-09
2.10232e-05
9.87544e-09
2.10173e-05
1.00163e-08
2.10114e-05
1.0147e-08
2.10055e-05
1.02695e-08
2.09995e-05
1.03843e-08
2.09934e-05
1.04953e-08
2.09874e-05
1.06041e-08
2.09812e-05
1.07137e-08
2.09751e-05
1.08231e-08
2.09689e-05
1.09311e-08
2.09626e-05
1.10344e-08
2.09563e-05
1.1132e-08
2.095e-05
1.12245e-08
2.09437e-05
1.13132e-08
2.09373e-05
1.14017e-08
2.09309e-05
1.14904e-08
2.09244e-05
1.15826e-08
2.0918e-05
1.16749e-08
2.09114e-05
1.17688e-08
2.09049e-05
1.18587e-08
2.08983e-05
1.1948e-08
2.08916e-05
1.20335e-08
2.0885e-05
1.21197e-08
2.08782e-05
1.22034e-08
2.08715e-05
1.22879e-08
2.08647e-05
1.23714e-08
2.08579e-05
1.2456e-08
2.0851e-05
1.25366e-08
2.08441e-05
1.26117e-08
2.08372e-05
1.26734e-08
2.08303e-05
1.27159e-08
2.08233e-05
1.27293e-08
2.08164e-05
1.27121e-08
2.08094e-05
1.26599e-08
2.08026e-05
1.25797e-08
2.07957e-05
1.2472e-08
2.0789e-05
1.23426e-08
2.07823e-05
1.21928e-08
2.07756e-05
1.20302e-08
2.07691e-05
1.18608e-08
2.07627e-05
1.16948e-08
2.07563e-05
1.15362e-08
2.07501e-05
1.13887e-08
2.07438e-05
1.12536e-08
2.07377e-05
1.11323e-08
2.07316e-05
1.10256e-08
2.07255e-05
1.09332e-08
2.07195e-05
1.08534e-08
2.07135e-05
1.07825e-08
2.07076e-05
1.07169e-08
2.07017e-05
1.06524e-08
2.06958e-05
1.05866e-08
2.06899e-05
1.05198e-08
2.06841e-05
1.04502e-08
2.06783e-05
1.03789e-08
2.06725e-05
1.03029e-08
2.06668e-05
1.02229e-08
2.06611e-05
1.0139e-08
2.06555e-05
1.00545e-08
2.06499e-05
9.96865e-09
2.06444e-05
9.88161e-09
2.06389e-05
9.7896e-09
2.06334e-05
9.69164e-09
2.0628e-05
9.58383e-09
2.06227e-05
9.46957e-09
2.06174e-05
9.35348e-09
2.06122e-05
9.24533e-09
2.0607e-05
9.15476e-09
2.06019e-05
9.08928e-09
2.05968e-05
9.05005e-09
2.05917e-05
9.03603e-09
2.05866e-05
9.04214e-09
2.05814e-05
9.06322e-09
2.05763e-05
9.09415e-09
2.05711e-05
9.13204e-09
2.05659e-05
9.17595e-09
2.05607e-05
9.22826e-09
2.05555e-05
9.29097e-09
2.05502e-05
9.36222e-09
2.05448e-05
9.43473e-09
2.05395e-05
9.50329e-09
2.05341e-05
9.55804e-09
2.05286e-05
9.59585e-09
2.05232e-05
9.61401e-09
2.05177e-05
9.61864e-09
2.05123e-05
9.60683e-09
2.05068e-05
9.58244e-09
2.05014e-05
9.5448e-09
2.0496e-05
9.49827e-09
2.04907e-05
9.44378e-09
2.04853e-05
9.38519e-09
2.048e-05
9.32713e-09
2.04748e-05
9.27399e-09
2.04696e-05
9.22856e-09
2.04644e-05
9.19014e-09
2.04592e-05
9.16388e-09
2.0454e-05
9.15184e-09
2.04489e-05
9.15843e-09
2.04438e-05
9.18246e-09
2.04386e-05
9.23004e-09
2.04334e-05
9.29976e-09
2.04282e-05
9.39306e-09
2.0423e-05
9.50324e-09
2.04177e-05
9.62998e-09
2.04123e-05
9.77038e-09
2.04069e-05
9.92865e-09
2.04014e-05
1.00979e-08
2.03957e-05
1.02775e-08
2.039e-05
1.04578e-08
2.03842e-05
1.06398e-08
2.03783e-05
1.08168e-08
2.03723e-05
1.09935e-08
2.03662e-05
1.11652e-08
2.03601e-05
1.13378e-08
2.03538e-05
1.15045e-08
2.03475e-05
1.16739e-08
2.0341e-05
1.18365e-08
2.03345e-05
1.1993e-08
2.03279e-05
1.21286e-08
2.03213e-05
1.22368e-08
2.03146e-05
1.23098e-08
2.03079e-05
1.23457e-08
2.03012e-05
1.23541e-08
2.02945e-05
1.23482e-08
2.02878e-05
1.23465e-08
2.02811e-05
1.23559e-08
2.02744e-05
1.23862e-08
2.02677e-05
1.24336e-08
2.0261e-05
1.25034e-08
2.02542e-05
1.2593e-08
2.02474e-05
1.27042e-08
2.02405e-05
1.28356e-08
2.02336e-05
1.29838e-08
2.02266e-05
1.31484e-08
2.02195e-05
1.33277e-08
2.02123e-05
1.35223e-08
2.0205e-05
1.37288e-08
2.01976e-05
1.39487e-08
2.01901e-05
1.4182e-08
2.01825e-05
1.44321e-08
2.01748e-05
1.47013e-08
2.0167e-05
1.49925e-08
2.0159e-05
1.53026e-08
2.01508e-05
1.56289e-08
2.01425e-05
1.59618e-08
2.0134e-05
1.62944e-08
2.01254e-05
1.66185e-08
2.01166e-05
1.69246e-08
2.01076e-05
1.72048e-08
2.00985e-05
1.7448e-08
2.00894e-05
1.76489e-08
2.00801e-05
1.78046e-08
2.00708e-05
1.79191e-08
2.00614e-05
1.7996e-08
2.0052e-05
1.80396e-08
2.00426e-05
1.80554e-08
2.00332e-05
1.80483e-08
2.00238e-05
1.8024e-08
2.00144e-05
1.79885e-08
2.0005e-05
1.79418e-08
1.99957e-05
1.78857e-08
1.99864e-05
1.78175e-08
1.99771e-05
1.77343e-08
1.99679e-05
1.76366e-08
1.99587e-05
1.75288e-08
1.99496e-05
1.74138e-08
1.99405e-05
1.72871e-08
1.99315e-05
1.71404e-08
1.99226e-05
1.69625e-08
1.99138e-05
1.67411e-08
1.99051e-05
1.64703e-08
1.98965e-05
1.61533e-08
1.98882e-05
1.58019e-08
1.988e-05
1.54265e-08
1.9872e-05
1.50319e-08
1.98642e-05
1.46241e-08
1.98566e-05
1.42134e-08
1.98492e-05
1.38093e-08
1.9842e-05
1.34251e-08
1.9835e-05
1.30608e-08
1.98282e-05
1.27298e-08
1.98215e-05
1.24299e-08
1.98149e-05
1.21763e-08
1.98085e-05
1.19671e-08
1.98021e-05
1.18145e-08
1.97958e-05
1.17095e-08
1.97895e-05
1.16596e-08
1.97832e-05
1.16441e-08
1.97769e-05
1.16591e-08
1.97706e-05
1.16712e-08
1.97642e-05
1.1688e-08
1.97579e-05
1.17037e-08
1.97515e-05
1.17356e-08
1.97452e-05
1.17749e-08
1.97387e-05
1.1838e-08
1.97323e-05
1.19121e-08
1.97258e-05
1.20081e-08
1.97192e-05
1.21074e-08
1.97126e-05
1.22241e-08
1.97059e-05
1.23474e-08
1.96992e-05
1.24862e-08
1.96923e-05
1.26216e-08
1.96854e-05
1.27558e-08
1.96784e-05
1.28651e-08
1.96714e-05
1.29811e-08
1.96643e-05
1.30887e-08
1.96571e-05
1.32247e-08
1.96499e-05
1.3345e-08
1.96426e-05
1.34585e-08
1.96353e-05
1.34929e-08
1.9628e-05
1.34768e-08
1.96208e-05
1.33797e-08
1.96136e-05
1.3289e-08
1.96065e-05
1.32037e-08
1.95994e-05
1.32011e-08
1.95923e-05
1.32283e-08
1.95851e-05
1.33173e-08
1.95779e-05
1.33742e-08
1.95706e-05
1.34286e-08
1.95634e-05
1.34036e-08
1.95562e-05
1.33658e-08
1.9549e-05
1.32596e-08
1.95418e-05
1.31819e-08
1.95347e-05
1.30446e-08
1.95277e-05
1.29399e-08
1.95207e-05
1.27727e-08
1.95139e-05
1.26722e-08
1.95071e-05
1.25467e-08
1.95004e-05
1.25607e-08
1.94937e-05
1.26384e-08
1.94868e-05
1.28898e-08
1.94798e-05
1.3199e-08
1.94726e-05
1.36075e-08
1.94651e-05
1.40068e-08
1.94574e-05
1.4398e-08
1.94495e-05
1.46976e-08
1.94414e-05
1.48974e-08
1.94334e-05
1.49911e-08
1.94253e-05
1.49505e-08
1.94172e-05
1.49426e-08
1.94092e-05
1.48364e-08
1.94012e-05
1.49636e-08
1.93932e-05
1.50235e-08
1.9385e-05
1.54493e-08
1.93766e-05
1.57679e-08
1.93679e-05
1.66907e-08
1.93587e-05
1.76271e-08
1.93487e-05
1.95025e-08
1.93376e-05
2.20909e-08
1.93247e-05
2.61118e-08
1.93091e-05
3.2024e-08
1.92898e-05
4.10602e-08
1.92646e-05
5.35444e-08
1.92313e-05
7.27669e-08
1.91854e-05
9.93708e-08
1.91226e-05
1.39897e-07
1.90327e-05
1.96564e-07
1.89071e-05
2.82823e-07
1.87241e-05
4.03164e-07
1.84651e-05
5.8799e-07
1.80832e-05
8.42087e-07
1.75468e-05
1.21845e-06
1.67547e-05
1.74474e-06
1.56423e-05
2.42012e-06
1.39401e-05
3.41593e-06
1.16537e-05
4.49796e-06
8.31173e-06
6.82778e-06
4.10968e-06
7.40185e-06
5.88909e-07
5.35235e-06
-1.3021e-06
3.26819e-06
-3.53081e-06
3.59001e-05
9.80585e-07
3.56385e-05
1.08683e-06
3.52374e-05
1.47768e-06
3.48611e-05
1.42884e-06
3.44936e-05
1.43664e-06
3.4182e-05
1.29726e-06
3.39154e-05
1.22786e-06
3.3694e-05
1.10913e-06
3.35065e-05
1.01675e-06
3.33483e-05
9.22973e-07
3.32158e-05
8.63258e-07
3.31005e-05
8.12305e-07
3.29879e-05
7.85279e-07
3.28885e-05
7.51821e-07
3.28054e-05
7.18798e-07
3.27319e-05
6.92784e-07
3.26609e-05
6.78039e-07
3.25913e-05
6.65529e-07
3.25221e-05
6.49886e-07
3.24523e-05
6.33817e-07
3.2381e-05
6.18873e-07
3.23078e-05
6.05063e-07
3.22324e-05
5.91576e-07
3.21542e-05
5.7766e-07
3.20726e-05
5.63597e-07
3.19873e-05
5.49668e-07
3.1898e-05
5.36321e-07
3.18029e-05
5.24772e-07
3.17019e-05
5.1357e-07
3.15972e-05
5.0142e-07
3.14894e-05
4.89061e-07
3.13789e-05
4.76135e-07
3.1266e-05
4.63346e-07
3.11507e-05
4.51097e-07
3.10333e-05
4.3919e-07
3.09142e-05
4.27103e-07
3.07939e-05
4.1478e-07
3.06729e-05
4.02648e-07
3.05512e-05
3.90756e-07
3.04295e-05
3.78929e-07
3.03081e-05
3.66812e-07
3.01871e-05
3.55264e-07
3.00667e-05
3.44443e-07
2.99472e-05
3.34008e-07
2.98285e-05
3.23819e-07
2.97112e-05
3.13615e-07
2.95955e-05
3.03873e-07
2.94816e-05
2.94303e-07
2.93696e-05
2.84864e-07
2.92598e-05
2.7545e-07
2.91522e-05
2.66132e-07
2.90469e-05
2.57069e-07
2.89439e-05
2.48266e-07
2.88433e-05
2.39846e-07
2.87451e-05
2.31826e-07
2.86492e-05
2.24104e-07
2.85557e-05
2.1644e-07
2.84646e-05
2.09155e-07
2.83758e-05
2.02458e-07
2.82891e-05
1.96111e-07
2.82046e-05
1.89984e-07
2.8122e-05
1.84246e-07
2.8041e-05
1.78941e-07
2.79618e-05
1.73881e-07
2.78842e-05
1.68998e-07
2.78082e-05
1.64272e-07
2.7734e-05
1.59636e-07
2.76614e-05
1.55096e-07
2.75905e-05
1.50717e-07
2.75214e-05
1.4649e-07
2.74539e-05
1.42449e-07
2.7388e-05
1.38667e-07
2.73237e-05
1.35163e-07
2.7261e-05
1.31782e-07
2.71998e-05
1.28495e-07
2.714e-05
1.25327e-07
2.70816e-05
1.22237e-07
2.70248e-05
1.18939e-07
2.69694e-05
1.15594e-07
2.69155e-05
1.12562e-07
2.68629e-05
1.09685e-07
2.68117e-05
1.0684e-07
2.67618e-05
1.0404e-07
2.67132e-05
1.01271e-07
2.66659e-05
9.85713e-08
2.66199e-05
9.59479e-08
2.65751e-05
9.34396e-08
2.65314e-05
9.10814e-08
2.64888e-05
8.88901e-08
2.64471e-05
8.71327e-08
2.64061e-05
8.57629e-08
2.63659e-05
8.42641e-08
2.63263e-05
8.27568e-08
2.62874e-05
8.13123e-08
2.6249e-05
8.00363e-08
2.62108e-05
7.89329e-08
2.61729e-05
7.78162e-08
2.61356e-05
7.63711e-08
2.60989e-05
7.50315e-08
2.60625e-05
7.4297e-08
2.60264e-05
7.36279e-08
2.59906e-05
7.30121e-08
2.59551e-05
7.24146e-08
2.59199e-05
7.18362e-08
2.5885e-05
7.1235e-08
2.58505e-05
7.06691e-08
2.58162e-05
7.01258e-08
2.57823e-05
6.96601e-08
2.57486e-05
6.92618e-08
2.57152e-05
6.89481e-08
2.5682e-05
6.87038e-08
2.5649e-05
6.84939e-08
2.56162e-05
6.82985e-08
2.55837e-05
6.79629e-08
2.55514e-05
6.80693e-08
2.5519e-05
6.84918e-08
2.54868e-05
6.83477e-08
2.5455e-05
6.80588e-08
2.54233e-05
6.80041e-08
2.53918e-05
6.79461e-08
2.53605e-05
6.79048e-08
2.53294e-05
6.78603e-08
2.52985e-05
6.78053e-08
2.52678e-05
6.77428e-08
2.52373e-05
6.76714e-08