/*--------------------------------*- C++ -*----------------------------------*\
| =========                 |                                                 |
| \\      /  F ield         | foam-extend: Open Source CFD                    |
|  \\    /   O peration     | Version:     3.2                                |
|   \\  /    A nd           | Web:         http://www.foam-extend.org         |
|    \\/     M anipulation  | For copyright notice see file Copyright         |
\*---------------------------------------------------------------------------*/
FoamFile
{
    version     2.0;
    format      ascii;
    class       volVectorField;
    location    "200";
    object      U;
}
// * * * * * * * * * * * * * * * * * * * * * * * * * * * * * * * * * * * * * //

dimensions      [0 1 -1 0 0 0 0];

internalField   nonuniform List<vector> 
33000
(
(0.357678 0 0.000541233)
(0.352716 0 0.000508923)
(0.346468 -4.32497e-30 0.000590809)
(0.339793 0 0.000610947)
(0.333212 3.54429e-29 0.000652314)
(0.32665 0 0.000630615)
(0.320517 -1.03471e-28 0.000603206)
(0.314555 1.12312e-28 0.000563261)
(0.308885 1.35947e-28 0.000562212)
(0.303368 -7.6318e-29 0.000548238)
(0.298098 8.16496e-29 0.000524868)
(0.293018 0 0.00048809)
(0.288171 -2.92271e-38 0.000454811)
(0.283515 7.71946e-29 0.000420995)
(0.279022 0 0.000381042)
(0.274694 8.04568e-29 0.000335232)
(0.270561 -8.50512e-29 0.000280671)
(0.266624 7.97107e-29 0.000223889)
(0.262859 5.12797e-29 0.00017123)
(0.259233 0 0.000121398)
(0.255755 2.09951e-29 7.93073e-05)
(0.252418 -1.72306e-29 4.1847e-05)
(0.249223 0 7.60121e-06)
(0.246174 1.82372e-29 -2.51477e-05)
(0.243278 0 -5.70995e-05)
(0.240537 0 -8.85093e-05)
(0.237954 2.48514e-29 -0.000117964)
(0.235516 0 -0.000139178)
(0.233207 0 -0.000152335)
(0.231016 0 -0.000164281)
(0.228936 -1.59939e-29 -0.000175619)
(0.226966 1.61943e-29 -0.000186002)
(0.225101 -1.57939e-29 -0.000195703)
(0.223336 -1.57453e-29 -0.000204939)
(0.221667 1.62342e-29 -0.000213776)
(0.220088 -1.67709e-29 -0.000222346)
(0.218597 0 -0.000230486)
(0.217191 0 -0.000238132)
(0.215863 0 -0.000245501)
(0.214611 1.80716e-29 -0.000252875)
(0.213432 -1.87864e-29 -0.000260656)
(0.212321 0 -0.000268623)
(0.211273 0 -0.000276014)
(0.210284 0 -0.000283277)
(0.209349 -1.98475e-29 -0.000290353)
(0.208467 0 -0.0002977)
(0.207635 0 -0.000305867)
(0.20685 -2.19001e-29 -0.000313862)
(0.206111 2.21469e-29 -0.000321443)
(0.205415 -2.22835e-29 -0.000328553)
(0.20476 0 -0.000335149)
(0.204143 0 -0.000341274)
(0.203562 -2.22492e-29 -0.000346769)
(0.203014 2.20177e-29 -0.000351579)
(0.202496 -2.18337e-29 -0.000355853)
(0.202006 -2.17222e-29 -0.00035973)
(0.201542 -2.13623e-29 -0.000362971)
(0.201103 0 -0.000365457)
(0.200685 0 -0.000367513)
(0.200287 0 -0.000369241)
(0.199907 -1.98677e-29 -0.000370691)
(0.199545 -1.93746e-29 -0.000371677)
(0.1992 0 -0.000372244)
(0.198871 0 -0.000372631)
(0.198556 0 -0.000372927)
(0.198255 -1.7899e-29 -0.000373158)
(0.197968 1.76297e-29 -0.000373341)
(0.197693 0 -0.000373463)
(0.197429 0 -0.000373514)
(0.197176 0 -0.000373574)
(0.196933 0 -0.000373674)
(0.196698 0 -0.000373759)
(0.19647 1.54102e-29 -0.000373878)
(0.196248 0 -0.000374072)
(0.196033 -1.48434e-29 -0.000374312)
(0.195824 -1.45921e-29 -0.000374594)
(0.19562 1.44235e-29 -0.000375001)
(0.195422 0 -0.000375507)
(0.195232 -1.37821e-29 -0.000375858)
(0.195047 1.34239e-29 -0.000376075)
(0.194867 1.31085e-29 -0.000376201)
(0.194692 0 -0.000376269)
(0.19452 0 -0.000376295)
(0.194353 0 -0.000376265)
(0.19419 -2.39488e-29 -0.000376183)
(0.19403 0 -0.00037604)
(0.193873 0 -0.000375864)
(0.193719 0 -0.000375627)
(0.193568 -1.08129e-29 -0.000375337)
(0.193419 -1.04619e-29 -0.000374848)
(0.19327 1.01581e-29 -0.000374237)
(0.193123 -9.94609e-30 -0.000373707)
(0.192977 2.70866e-46 -0.000373268)
(0.192834 -9.5935e-30 -0.000372945)
(0.192693 3.04102e-46 -0.000372549)
(0.192554 8.85928e-30 -0.000372087)
(0.192419 0 -0.000371968)
(0.192288 0 -0.000372311)
(0.192161 -1.76252e-29 -0.000372592)
(0.192037 -8.61476e-30 -0.000372641)
(0.191915 0 -0.000372604)
(0.191794 8.37794e-30 -0.000372489)
(0.191674 -8.30696e-30 -0.000372364)
(0.191556 0 -0.000372211)
(0.191438 -8.15287e-30 -0.000372038)
(0.191321 0 -0.000371831)
(0.191205 -1.59782e-29 -0.000371591)
(0.191089 1.58098e-29 -0.000371306)
(0.190973 -7.83389e-30 -0.000370985)
(0.190857 0 -0.00037063)
(0.19074 -7.71555e-30 -0.000370241)
(0.190623 -1.53324e-29 -0.000369825)
(0.190505 1.53283e-29 -0.000369452)
(0.190387 7.46687e-30 -0.000368917)
(0.190267 -1.45691e-29 -0.000368142)
(0.190144 -7.4963e-30 -0.000367566)
(0.190019 -1.51325e-29 -0.000367129)
(0.189894 7.41736e-30 -0.000366562)
(0.189768 -7.35736e-30 -0.000365933)
(0.18964 -7.34184e-30 -0.000365305)
(0.18951 -7.32197e-30 -0.00036466)
(0.189379 1.46276e-29 -0.000364011)
(0.189246 -1.45982e-29 -0.00036335)
(0.189111 7.29278e-30 -0.000362687)
(0.188975 -1.40649e-39 -0.00036202)
(0.188837 -7.28149e-30 -0.000361358)
(0.188698 -7.28481e-30 -0.000360706)
(0.188556 -1.4586e-29 -0.000360072)
(0.188414 -7.30152e-30 -0.000359461)
(0.18827 1.45179e-39 -0.000358876)
(0.188125 -7.3102e-30 -0.000358321)
(0.187979 1.48725e-39 -0.000357796)
(0.187833 -1.46034e-29 -0.000357299)
(0.187685 -7.28891e-30 -0.000356828)
(0.187538 7.27195e-30 -0.000356384)
(0.18739 -1.45013e-29 -0.000355967)
(0.187242 -2.16747e-29 -0.000355574)
(0.187094 0 -0.000355204)
(0.186947 -2.1477e-29 -0.000354854)
(0.186799 -1.42296e-29 -0.000354524)
(0.186652 7.06065e-30 -0.000354211)
(0.186505 -6.99722e-30 -0.000353915)
(0.186359 1.79348e-39 -0.000353631)
(0.186213 -1.37075e-29 -0.000353359)
(0.186068 -6.7808e-30 -0.000353096)
(0.185924 1.85316e-39 -0.000352842)
(0.18578 -6.64183e-30 -0.000352596)
(0.185637 -1.31448e-29 -0.000352354)
(0.185494 -6.50038e-30 -0.000352114)
(0.185352 -6.42552e-30 -0.000351872)
(0.18521 1.26972e-29 -0.000351629)
(0.185069 6.27054e-30 -0.000351384)
(0.184928 -1.23877e-29 -0.000351138)
(0.184788 -1.78369e-39 -0.00035089)
(0.184648 -6.05246e-30 -0.000350638)
(0.184509 -5.98931e-30 -0.000350383)
(0.18437 -5.93257e-30 -0.000350121)
(0.184231 5.88468e-30 -0.000349854)
(0.184093 -1.1688e-29 -0.00034958)
(0.183954 5.80894e-30 -0.000349302)
(0.183816 -5.7797e-30 -0.000349021)
(0.183678 5.75467e-30 -0.000348739)
(0.183539 1.14676e-29 -0.000348458)
(0.183402 -1.14326e-29 -0.000348181)
(0.183264 -5.70324e-30 -0.000347908)
(0.183126 -5.69347e-30 -0.000347642)
(0.182989 -5.73446e-46 -0.000347381)
(0.182852 1.13657e-29 -0.000347127)
(0.182715 -5.68113e-30 -0.00034688)
(0.182578 -4.68762e-46 -0.00034664)
(0.182442 -5.68582e-30 -0.00034641)
(0.182306 -4.05345e-46 -0.000346193)
(0.182171 0 -0.000345992)
(0.182037 0 -0.000345809)
(0.181902 5.71285e-30 -0.000345643)
(0.181769 -5.71491e-30 -0.000345494)
(0.181637 5.71119e-30 -0.000345357)
(0.181505 5.70366e-30 -0.000345235)
(0.181374 1.1388e-29 -0.000345122)
(0.181245 -5.68302e-30 -0.000345019)
(0.181116 -2.01345e-46 -0.000344922)
(0.180989 -5.65052e-30 -0.000344834)
(0.180863 -1.77293e-46 -0.000344758)
(0.180738 -5.61164e-30 -0.000344691)
(0.180614 1.11847e-29 -0.000344639)
(0.180491 0 -0.0003446)
(0.18037 5.55202e-30 -0.000344574)
(0.180251 -5.53465e-30 -0.000344561)
(0.180133 -1.4929e-46 -0.000344562)
(0.180016 1.09919e-29 -0.000344576)
(0.179901 -5.47294e-30 -0.000344602)
(0.179788 0 -0.00034464)
(0.179676 0 -0.000344692)
(0.179566 0 -0.000344756)
(0.179458 -5.34033e-30 -0.000344834)
(0.179353 7.69247e-46 -0.000344921)
(0.179249 8.25321e-46 -0.000345023)
(0.179147 1.04554e-29 -0.000345138)
(0.179046 -5.18718e-30 -0.000345265)
(0.178948 -5.14225e-30 -0.0003454)
(0.178852 5.09047e-30 -0.000345542)
(0.178758 -5.03096e-30 -0.000345691)
(0.178666 -4.96305e-30 -0.000345847)
(0.178576 4.88723e-30 -0.00034601)
(0.178488 -4.8069e-30 -0.000346177)
(0.178402 4.7098e-30 -0.000346338)
(0.178318 4.60926e-30 -0.000346488)
(0.178236 -4.50194e-30 -0.000346622)
(0.178155 -4.38705e-30 -0.00034673)
(0.178077 0 -0.000346818)
(0.177999 0 -0.000346887)
(0.177924 0 -0.000346942)
(0.177849 3.99115e-30 -0.000346984)
(0.177776 1.29745e-45 -0.000347016)
(0.177704 7.6686e-30 -0.000347042)
(0.177633 3.76707e-30 -0.000347063)
(0.177563 0 -0.000347084)
(0.177495 3.65901e-30 -0.000347106)
(0.177427 3.61699e-30 -0.000347131)
(0.177361 0 -0.000347161)
(0.177295 0 -0.000347194)
(0.177231 -3.53315e-30 -0.00034723)
(0.177168 3.51836e-30 -0.000347271)
(0.177106 0 -0.000347256)
(0.177044 0 -0.000347124)
(0.176983 0 -0.000346946)
(0.176923 -3.26667e-30 -0.000346795)
(0.176863 0 -0.000346676)
(0.176804 0 -0.00034659)
(0.176746 0 -0.000346532)
(0.176688 0 -0.0003465)
(0.176632 0 -0.000346487)
(0.176577 0 -0.000346491)
(0.176523 0 -0.000346508)
(0.17647 3.12278e-30 -0.000346537)
(0.176418 -3.09057e-30 -0.000346577)
(0.176368 0 -0.000346624)
(0.176319 0 -0.000346676)
(0.176271 2.96906e-30 -0.00034673)
(0.176224 2.92326e-30 -0.000346785)
(0.176178 -2.87753e-30 -0.000346837)
(0.176134 0 -0.000346887)
(0.17609 0 -0.000346935)
(0.176048 -2.74659e-30 -0.00034698)
(0.176006 2.70722e-30 -0.000347024)
(0.175966 0 -0.000347066)
(0.175926 0 -0.000347106)
(0.175887 0 -0.000347141)
(0.175849 0 -0.000347172)
(0.175812 0 -0.000347198)
(0.175776 0 -0.000347219)
(0.17574 0 -0.000347236)
(0.175706 0 -0.00034725)
(0.175671 0 -0.000347258)
(0.175638 0 -0.00034726)
(0.175605 0 -0.000347253)
(0.175572 0 -0.000347234)
(0.17554 0 -0.000347204)
(0.175508 0 -0.000347165)
(0.175476 0 -0.000347118)
(0.175445 -2.1172e-30 -0.000347066)
(0.175414 0 -0.000347011)
(0.175383 0 -0.000346954)
(0.175352 1.97959e-30 -0.000346894)
(0.175321 0 -0.000346828)
(0.175289 0 -0.00034675)
(0.175258 0 -0.000346658)
(0.175227 0 -0.000346547)
(0.175195 0 -0.000346417)
(0.175163 0 -0.000346266)
(0.175131 0 -0.000346093)
(0.175098 0 -0.0003459)
(0.175064 0 -0.000345688)
(0.175029 0 -0.000345462)
(0.174993 0 -0.000345228)
(0.174956 0 -0.000344991)
(0.174919 1.59441e-30 -0.000344755)
(0.17488 0 -0.000344524)
(0.17484 0 -0.000344298)
(0.1748 0 -0.000344078)
(0.174759 0 -0.000343864)
(0.174717 0 -0.000343655)
(0.174674 0 -0.000343449)
(0.17463 0 -0.000343243)
(0.174586 1.70785e-30 -0.000343035)
(0.174541 0 -0.000342825)
(0.174496 0 -0.000342612)
(0.174449 0 -0.000342399)
(0.174403 0 -0.000342187)
(0.174355 0 -0.000341977)
(0.174307 1.73179e-30 -0.00034177)
(0.174258 0 -0.000341566)
(0.174209 0 -0.000341364)
(0.174159 0 -0.000341163)
(0.174108 0 -0.000340964)
(0.174057 1.74079e-30 -0.000340765)
(0.174005 -1.75182e-30 -0.000340568)
(0.173953 0 -0.000340371)
(0.1739 0 -0.000340177)
(0.173847 0 -0.000339983)
(0.173794 -1.83922e-30 -0.00033979)
(0.173739 1.87043e-30 -0.000339597)
(0.173685 0 -0.000339404)
(0.173629 1.94724e-30 -0.00033921)
(0.173574 0 -0.000339016)
(0.173518 0 -0.000338822)
(0.173461 0 -0.000338632)
(0.173404 0 -0.000338449)
(0.173347 -2.21314e-30 -0.000338281)
(0.173289 2.2712e-30 -0.000338131)
(0.173231 0 -0.000338006)
(0.173174 0 -0.000337907)
(0.173116 0 -0.000337835)
(0.173059 0 -0.000337787)
(0.173002 2.45367e-30 -0.00033776)
(0.172946 -2.46087e-30 -0.00033775)
(0.172891 0 -0.000337753)
(0.172836 -2.44438e-30 -0.000337763)
(0.172782 0 -0.000337778)
(0.172729 0 -0.000337792)
(0.172677 2.35846e-30 -0.000337804)
(0.172626 0 -0.000337811)
(0.172575 0 -0.000337813)
(0.172525 0 -0.00033781)
(0.172475 0 -0.000337801)
(0.172426 0 -0.000337786)
(0.172378 0 -0.000337767)
(0.17233 0 -0.000337742)
(0.172282 2.06756e-30 -0.000337713)
(0.172234 -2.03994e-30 -0.000337681)
(0.172187 0 -0.000337647)
(0.172141 1.99231e-30 -0.000337613)
(0.172094 0 -0.00033758)
(0.172048 0 -0.000337548)
(0.172002 0 -0.000337518)
(0.171957 0 -0.000337489)
(0.171912 0 -0.000337463)
(0.171868 0 -0.000337439)
(0.171824 0 -0.000337418)
(0.17178 1.96084e-30 -0.000337402)
(0.171737 0 -0.000337389)
(0.171694 0 -0.000337379)
(0.171652 0 -0.000337371)
(0.171611 0 -0.000337362)
(0.17157 0 -0.000337352)
(0.171529 1.94638e-30 -0.000337335)
(0.171489 0 -0.000337307)
(0.17145 0 -0.000337267)
(0.17141 0 -0.000337216)
(0.171371 0 -0.000337154)
(0.171331 1.83114e-30 -0.000337083)
(0.171292 -1.80547e-30 -0.000337001)
(0.171253 0 -0.000336911)
(0.171213 0 -0.000336812)
(0.171173 0 -0.000336705)
(0.171133 -1.69663e-30 -0.000336592)
(0.171093 1.67593e-30 -0.000336476)
(0.171053 0 -0.000336361)
(0.171012 1.65796e-30 -0.000336249)
(0.170971 0 -0.000336143)
(0.170929 0 -0.000336046)
(0.170888 0 -0.000335954)
(0.170846 0 -0.000335869)
(0.170804 -1.70272e-30 -0.000335788)
(0.170763 1.72149e-30 -0.000335714)
(0.170721 0 -0.000335647)
(0.17068 0 -0.000335586)
(0.170639 0 -0.000335528)
(0.170598 -1.81235e-30 -0.000335471)
(0.170557 1.83417e-30 -0.000335411)
(0.170517 0 -0.000335345)
(0.170476 0 -0.000335274)
(0.170436 -1.88369e-30 -0.000335194)
(0.170396 0 -0.000335107)
(0.170356 0 -0.000335009)
(0.170316 1.89586e-30 -0.000334899)
(0.170276 0 -0.000334773)
(0.170236 0 -0.000334633)
(0.170195 0 -0.000334475)
(0.170154 0 -0.000334304)
(0.170113 0 -0.00033412)
(0.170071 0 -0.000333926)
(0.170028 0 -0.000333725)
(0.169984 1.76811e-30 -0.000333519)
(0.16994 -1.74918e-30 -0.000333308)
(0.169894 0 -0.000333097)
(0.169848 1.71718e-30 -0.000332882)
(0.169801 0 -0.000332668)
(0.169753 0 -0.000332451)
(0.169705 0 -0.000332233)
(0.169655 0 -0.000332012)
(0.169605 0 -0.000331789)
(0.169553 -1.66774e-30 -0.000331566)
(0.169501 0 -0.000331344)
(0.169448 1.68722e-30 -0.000331126)
(0.169395 0 -0.000330912)
(0.16934 0 -0.000330708)
(0.169285 0 -0.000330513)
(0.169229 0 -0.000330335)
(0.169173 0 -0.000330176)
(0.169117 1.81769e-30 -0.000330035)
(0.16906 -1.82636e-30 -0.000329905)
(0.169004 0 -0.000329774)
(0.168948 0 -0.000329635)
(0.168891 0 -0.000329483)
(0.168834 1.83884e-30 -0.000329314)
(0.168777 0 -0.000329127)
(0.16872 0 -0.000328922)
(0.168662 0 -0.0003287)
(0.168603 0 -0.000328463)
(0.168544 -1.86242e-30 -0.000328216)
(0.168484 1.86684e-30 -0.00032796)
(0.168423 0 -0.000327696)
(0.168361 4.23945e-46 -0.000327423)
(0.168298 0 -0.000327137)
(0.168234 0 -0.000326836)
(0.168169 0 -0.000326516)
(0.168103 0 -0.000326178)
(0.168035 0 -0.00032582)
(0.167966 -1.32809e-45 -0.000325444)
(0.167896 0 -0.000325051)
(0.167824 0 -0.000324647)
(0.16775 0 -0.000324236)
(0.167674 0 -0.000323825)
(0.167597 1.50224e-47 -0.000323422)
(0.167518 0 -0.000323033)
(0.167437 0 -0.000322661)
(0.167355 -2.47913e-30 -0.000322311)
(0.167272 0 -0.000321986)
(0.167188 0 -0.000321687)
(0.167103 -5.14568e-45 -0.000321417)
(0.167017 0 -0.000321175)
(0.166931 0 -0.00032096)
(0.166844 0 -0.00032077)
(0.166758 0 -0.000320601)
(0.166671 -3.21746e-30 -0.000320448)
(0.166585 0 -0.000320307)
(0.166499 0 -0.000320176)
(0.166413 -1.04222e-44 -0.000320051)
(0.166328 0 -0.000319932)
(0.166242 0 -0.000319822)
(0.166158 0 -0.000319721)
(0.166073 0 -0.000319632)
(0.165989 0 -0.000319555)
(0.165906 0 -0.00031949)
(0.165824 0 -0.000319442)
(0.165742 0 -0.000319417)
(0.165661 0 -0.000319423)
(0.165581 0 -0.000319463)
(0.165502 0 -0.000319536)
(0.165425 0 -0.000319642)
(0.16535 0 -0.000319776)
(0.165277 -3.4424e-30 -0.000319929)
(0.165205 0 -0.000320098)
(0.165136 0 -0.000320271)
(0.165069 0 -0.000320442)
(0.165003 0 -0.000320605)
(0.16494 0 -0.000320756)
(0.164879 0 -0.000320894)
(0.164819 0 -0.000321014)
(0.164761 -2.62657e-30 -0.000321113)
(0.164704 0 -0.000321184)
(0.164648 0 -0.000321227)
(0.164594 3.89527e-45 -0.000321236)
(0.16454 0 -0.000321215)
(0.164486 0 -0.000321163)
(0.164432 -1.94701e-30 -0.000321089)
(0.164379 0 -0.000321001)
(0.164325 0 -0.000320905)
(0.164272 0 -0.000320804)
(0.164218 0 -0.000320695)
(0.164165 0 -0.000320578)
(0.164111 0 -0.000320442)
(0.164057 0 -0.000320293)
(0.164002 -1.23865e-47 -0.00032012)
(0.163948 0 -0.000319941)
(0.163892 0 -0.000319749)
(0.163837 -8.61053e-48 -0.000319557)
(0.16378 0 -0.000319359)
(0.163723 -1.7305e-30 -0.00031917)
(0.163666 0 -0.000318974)
(0.163608 0 -0.000318784)
(0.163549 0 -0.000318574)
(0.16349 0 -0.000318363)
(0.16343 0 -0.000318131)
(0.16337 -2.00902e-30 -0.000317919)
(0.163309 0 -0.00031771)
(0.163247 0 -0.000317548)
(0.163185 -3.74048e-46 -0.000317393)
(0.163124 0 -0.00031728)
(0.163062 0 -0.000317158)
(0.163001 0 -0.000317051)
(0.16294 0 -0.00031691)
(0.162879 -2.41964e-30 -0.000316786)
(0.162818 0 -0.000316626)
(0.162757 0 -0.000316497)
(0.162695 2.47302e-30 -0.00031634)
(0.162633 0 -0.000316247)
(0.162571 0 -0.00031614)
(0.16251 0 -0.000316121)
(0.162449 0 -0.000316064)
(0.162389 0 -0.000316085)
(0.162329 0 -0.000316015)
(0.16227 0 -0.00031602)
(0.162211 -2.24039e-30 -0.000315894)
(0.162153 0 -0.000315833)
(0.162095 0 -0.000315618)
(0.162037 0 -0.000315454)
(0.161978 0 -0.000315114)
(0.161919 0 -0.000314858)
(0.161857 -2.04794e-30 -0.000314457)
(0.161795 0 -0.000314217)
(0.16173 -2.23933e-30 -0.000313848)
(0.161664 0 -0.000313671)
(0.161596 0 -0.000313346)
(0.161528 0 -0.000313242)
(0.161459 0 -0.000312962)
(0.161391 0 -0.000312902)
(0.161321 -2.42765e-30 -0.000312638)
(0.161253 0 -0.000312568)
(0.161183 0 -0.000312226)
(0.161115 0 -0.000312057)
(0.161043 0 -0.000311485)
(0.160971 0 -0.000311058)
(0.160894 0 -0.000309957)
(0.160814 0 -0.000308895)
(0.160723 0 -0.000306792)
(0.160625 0 -0.000304084)
(0.160502 0 -0.000299443)
(0.160363 8.30744e-48 -0.00029353)
(0.160168 0 -0.000283642)
(0.159936 0 -0.000271881)
(0.15959 5.35222e-47 -0.000252618)
(0.159161 0 -0.00022969)
(0.158497 0 -0.000190106)
(0.157651 0 -0.000141558)
(0.156317 0 -5.18884e-05)
(0.154568 2.86244e-29 5.65286e-05)
(0.151826 0 0.000249464)
(0.1481 0 0.000476499)
(0.142474 0 0.000873628)
(0.134627 0 0.00132025)
(0.123207 0 0.00185915)
(0.108652 6.16686e-29 0.00231419)
(0.0886624 0 0.00277872)
(0.0648765 3.3575e-28 0.00504009)
(0.018326 0 0.00313356)
(0.00159225 0 0.00179551)
(-0.0191075 0 0.00168553)
(-0.0250895 0 -0.00425864)
(0.360222 0 0.00120927)
(0.35798 0 0.0011603)
(0.354491 -2.59843e-28 0.00168211)
(0.34994 0 0.00163102)
(0.346094 0 0.00170716)
(0.34218 0 0.00152627)
(0.338715 -2.31731e-28 0.00148793)
(0.335316 2.65604e-28 0.00135465)
(0.332421 1.85904e-28 0.00126692)
(0.330013 -2.17082e-28 0.00115892)
(0.32783 1.294e-28 0.00109603)
(0.325782 0 0.00102644)
(0.323795 -1.19592e-28 0.000960751)
(0.321837 7.68427e-29 0.000912594)
(0.319893 0 0.000880848)
(0.317947 0 0.000843753)
(0.315973 0 0.000808067)
(0.313878 -1.57408e-29 0.000777733)
(0.311761 0 0.000750165)
(0.309659 0 0.000726347)
(0.307583 -1.8269e-29 0.000698331)
(0.305524 0 0.000667084)
(0.303477 0 0.000631523)
(0.301445 0 0.000591305)
(0.299433 0 0.00054795)
(0.297442 0 0.000502507)
(0.295471 -5.09541e-29 0.000457)
(0.293523 0 0.000409275)
(0.291623 0 0.000360565)
(0.289771 0 0.00031642)
(0.287961 -4.7588e-29 0.000273835)
(0.286197 4.90154e-29 0.000231229)
(0.284482 -4.91287e-29 0.000190284)
(0.282818 -4.88982e-29 0.00015172)
(0.2812 4.90938e-29 0.000115204)
(0.279631 -4.95687e-29 7.99053e-05)
(0.278109 0 4.59059e-05)
(0.276638 -4.9307e-29 1.37288e-05)
(0.275212 -4.90916e-29 -1.64255e-05)
(0.273835 -1.60298e-45 -4.5217e-05)
(0.2725 -4.7086e-29 -7.18852e-05)
(0.271216 0 -9.52423e-05)
(0.269972 -4.43034e-29 -0.000116942)
(0.268773 0 -0.000136762)
(0.267608 -4.21304e-29 -0.000155191)
(0.266486 0 -0.000172172)
(0.265397 0 -0.000186878)
(0.264339 -3.77143e-29 -0.000200768)
(0.263312 3.67729e-29 -0.00021395)
(0.262316 -3.58644e-29 -0.000226624)
(0.261352 -3.48031e-29 -0.000238685)
(0.260418 0 -0.000250065)
(0.259514 -3.26006e-29 -0.000260731)
(0.25864 3.14499e-29 -0.000270474)
(0.257795 -3.04889e-29 -0.000279461)
(0.256977 0 -0.000287922)
(0.256185 -2.93322e-29 -0.000296414)
(0.255421 -2.84499e-29 -0.00030446)
(0.254681 0 -0.000311644)
(0.253964 0 -0.00031842)
(0.253269 0 -0.000324983)
(0.252596 0 -0.000331668)
(0.251944 2.57271e-29 -0.000338282)
(0.251311 0 -0.000344562)
(0.250696 0 -0.00035051)
(0.250098 0 -0.000356127)
(0.249518 2.31502e-29 -0.000361449)
(0.248954 0 -0.000366416)
(0.248406 0 -0.000370943)
(0.247873 -2.09595e-29 -0.000374975)
(0.247356 2.01762e-29 -0.000378447)
(0.246852 1.93786e-29 -0.000381279)
(0.246362 1.8715e-29 -0.000383572)
(0.245884 1.81841e-29 -0.000385568)
(0.245418 -1.76919e-29 -0.000387384)
(0.244964 1.72533e-29 -0.000389033)
(0.24452 1.70632e-29 -0.000390632)
(0.244087 -1.68905e-29 -0.000392609)
(0.243667 0 -0.000394651)
(0.243258 0 -0.000396227)
(0.242859 1.51904e-29 -0.000397648)
(0.242471 0 -0.000398955)
(0.242094 0 -0.000400188)
(0.241726 0 -0.000401351)
(0.24137 -1.36545e-29 -0.000402456)
(0.241024 0 -0.000403505)
(0.240689 0 -0.000404458)
(0.240362 0 -0.000405363)
(0.240046 -1.22401e-29 -0.000406084)
(0.239737 0 -0.000406395)
(0.239435 2.60885e-46 -0.0004067)
(0.239137 -1.21997e-29 -0.000407375)
(0.238847 2.42747e-29 -0.000408095)
(0.238562 -1.22154e-29 -0.000408792)
(0.238284 2.51482e-29 -0.000409848)
(0.238011 1.28239e-29 -0.000411295)
(0.237743 0 -0.000412681)
(0.237478 0 -0.000414051)
(0.237219 -1.18399e-29 -0.000414889)
(0.236962 -1.15294e-29 -0.000415132)
(0.236708 0 -0.000415409)
(0.236455 0 -0.000415558)
(0.236204 -1.11642e-29 -0.000415643)
(0.235954 0 -0.000415635)
(0.235707 -1.083e-29 -0.000415579)
(0.235462 0 -0.000415438)
(0.235218 -1.045e-29 -0.000415208)
(0.234976 -1.32063e-45 -0.000414872)
(0.234736 0 -0.000414429)
(0.234497 9.86856e-30 -0.000413857)
(0.234258 9.7061e-30 -0.000413229)
(0.23402 -2.36047e-39 -0.00041252)
(0.233783 -1.37397e-39 -0.000411843)
(0.233547 -9.19598e-30 -0.000411298)
(0.233312 -8.62712e-30 -0.000410071)
(0.233075 -8.74815e-30 -0.000408554)
(0.232837 -2.47285e-39 -0.000407799)
(0.2326 -1.43583e-39 -0.000407115)
(0.232365 -8.63483e-30 -0.000406157)
(0.232129 -8.54626e-30 -0.000405186)
(0.231893 8.47083e-30 -0.000404164)
(0.231657 1.68554e-29 -0.000403148)
(0.231422 -2.53767e-39 -0.000402136)
(0.231187 -8.37657e-30 -0.000401134)
(0.230952 -1.45543e-39 -0.000400147)
(0.230718 8.37724e-30 -0.000399167)
(0.230484 8.39692e-30 -0.000398205)
(0.23025 -2.58307e-39 -0.000397271)
(0.230016 8.46819e-30 -0.000396387)
(0.229783 -1.70208e-29 -0.000395566)
(0.229551 8.55e-30 -0.000394818)
(0.229319 1.53859e-39 -0.000394144)
(0.229088 -1.72375e-29 -0.00039354)
(0.228858 8.64382e-30 -0.000393007)
(0.228629 -8.66356e-30 -0.000392536)
(0.228401 1.47834e-39 -0.000392119)
(0.228175 -8.68408e-30 -0.000391748)
(0.22795 0 -0.000391415)
(0.227727 -8.66508e-30 -0.000391127)
(0.227506 1.59215e-39 -0.00039089)
(0.227286 -8.59495e-30 -0.000390705)
(0.227068 8.53535e-30 -0.000390566)
(0.226852 1.85545e-39 -0.000390454)
(0.226638 -1.67361e-29 -0.00039035)
(0.226426 8.26693e-30 -0.000390238)
(0.226216 -1.63191e-29 -0.000390112)
(0.226007 8.04571e-30 -0.000389975)
(0.2258 -3.38772e-39 -0.00038983)
(0.225595 7.79559e-30 -0.000389685)
(0.22539 7.66103e-30 -0.000389543)
(0.225188 1.5046e-29 -0.000389403)
(0.224986 -7.38392e-30 -0.000389261)
(0.224787 -3.2823e-39 -0.000389114)
(0.224588 -1.84459e-39 -0.000388955)
(0.224391 6.9885e-30 -0.000388777)
(0.224196 -6.86857e-30 -0.000388572)
(0.224001 -6.75512e-30 -0.000388337)
(0.223807 0 -0.000388072)
(0.223615 -2.81733e-39 -0.000387779)
(0.223423 6.4911e-30 -0.000387471)
(0.223231 -2.60015e-39 -0.000387158)
(0.223041 -6.38659e-30 -0.000386849)
(0.222851 -1.35119e-39 -0.000386549)
(0.222661 -2.24307e-39 -0.000386261)
(0.222473 6.33189e-30 -0.000385986)
(0.222285 6.33707e-30 -0.000385724)
(0.222098 1.27056e-29 -0.000385476)
(0.221912 6.37486e-30 -0.000385241)
(0.221727 6.40503e-30 -0.000385019)
(0.221542 1.28838e-29 -0.00038481)
(0.221359 6.48809e-30 -0.000384616)
(0.221176 1.30833e-29 -0.000384443)
(0.220994 0 -0.000384298)
(0.220813 6.66658e-30 -0.000384188)
(0.220633 6.73106e-30 -0.000384119)
(0.220454 6.79188e-30 -0.000384087)
(0.220276 0 -0.00038409)
(0.220099 6.89102e-30 -0.000384127)
(0.219924 6.93509e-30 -0.000384191)
(0.21975 0 -0.000384278)
(0.219578 7.01361e-30 -0.000384384)
(0.219406 0 -0.000384515)
(0.219237 7.0849e-30 -0.000384668)
(0.219069 0 -0.000384846)
(0.218902 1.64692e-46 -0.000385049)
(0.218738 1.4397e-29 -0.00038527)
(0.218575 0 -0.000385517)
(0.218413 7.28498e-30 -0.000385779)
(0.218254 1.46621e-29 -0.000386072)
(0.218096 1.4942e-46 -0.000386392)
(0.21794 0 -0.000386753)
(0.217786 1.4946e-29 -0.000387148)
(0.217634 0 -0.000387583)
(0.217484 1.51069e-29 -0.000388046)
(0.217337 7.5872e-30 -0.000388527)
(0.217192 -7.61173e-30 -0.000389019)
(0.217049 7.62136e-30 -0.000389511)
(0.216908 7.62214e-30 -0.000390003)
(0.21677 0 -0.000390499)
(0.216633 0 -0.000391)
(0.216499 0 -0.000391513)
(0.216367 7.48961e-30 -0.000392042)
(0.216237 7.4137e-30 -0.000392587)
(0.21611 0 -0.000393143)
(0.215985 0 -0.000393698)
(0.215862 0 -0.000394246)
(0.215741 -6.95889e-30 -0.00039477)
(0.215622 6.79098e-30 -0.00039526)
(0.215506 6.58739e-30 -0.000395723)
(0.215391 6.38144e-30 -0.000396145)
(0.215278 0 -0.000396525)
(0.215166 0 -0.000396869)
(0.215056 0 -0.000397178)
(0.214947 5.61874e-30 -0.000397462)
(0.21484 5.46399e-30 -0.000397721)
(0.214734 1.06579e-29 -0.000397968)
(0.214628 1.04365e-29 -0.000398206)
(0.214524 0 -0.000398445)
(0.214421 5.06084e-30 -0.000398688)
(0.21432 5.01563e-30 -0.000398935)
(0.214219 0 -0.000399189)
(0.214119 -4.98484e-30 -0.000399441)
(0.214021 9.97328e-30 -0.000399701)
(0.213923 0 -0.000399938)
(0.213827 0 -0.000400112)
(0.213733 0 -0.000400257)
(0.213639 -1.74991e-49 -0.000400418)
(0.213548 0 -0.000400611)
(0.213458 4.91782e-30 -0.000400846)
(0.213369 4.97163e-30 -0.000401119)
(0.213282 0 -0.000401423)
(0.213197 0 -0.000401753)
(0.213113 5.09918e-30 -0.0004021)
(0.213031 5.12572e-30 -0.000402463)
(0.212951 0 -0.000402838)
(0.212872 -1.06369e-47 -0.00040322)
(0.212795 0 -0.000403603)
(0.212719 5.13054e-30 -0.000403985)
(0.212644 0 -0.000404357)
(0.212571 1.01277e-29 -0.000404721)
(0.2125 7.34473e-47 -0.000405069)
(0.212429 0 -0.000405402)
(0.21236 0 -0.000405718)
(0.212292 1.36413e-46 -0.000406023)
(0.212225 9.70484e-30 -0.000406313)
(0.212159 0 -0.000406594)
(0.212094 4.78244e-30 -0.00040686)
(0.212031 0 -0.000407111)
(0.211968 -4.71679e-30 -0.000407341)
(0.211906 0 -0.000407551)
(0.211845 -4.65259e-30 -0.000407744)
(0.211785 -4.61938e-30 -0.000407925)
(0.211726 0 -0.000408099)
(0.211667 0 -0.000408262)
(0.21161 -4.48037e-30 -0.000408418)
(0.211553 0 -0.000408553)
(0.211497 4.32015e-30 -0.000408665)
(0.211441 -4.21555e-30 -0.000408735)
(0.211387 0 -0.000408772)
(0.211333 -3.98273e-30 -0.000408768)
(0.211279 -3.85948e-30 -0.000408737)
(0.211226 -3.73254e-30 -0.00040868)
(0.211173 0 -0.000408608)
(0.21112 -3.45523e-30 -0.000408521)
(0.211068 -3.30258e-30 -0.000408422)
(0.211015 0 -0.000408307)
(0.210963 -2.97914e-30 -0.000408167)
(0.210911 -2.81511e-30 -0.000407995)
(0.210859 0 -0.000407777)
(0.210807 -2.50101e-30 -0.000407511)
(0.210755 2.35734e-30 -0.00040719)
(0.210702 0 -0.000406816)
(0.210649 -2.12663e-30 -0.000406391)
(0.210596 0 -0.000405927)
(0.210542 0 -0.000405438)
(0.210487 0 -0.000404942)
(0.210432 0 -0.000404447)
(0.210375 -1.97507e-30 -0.000403965)
(0.210319 0 -0.000403497)
(0.210261 1.99721e-30 -0.000403048)
(0.210203 0 -0.000402617)
(0.210144 0 -0.000402206)
(0.210085 -2.01989e-30 -0.00040181)
(0.210025 -2.0167e-30 -0.000401427)
(0.209965 0 -0.000401047)
(0.209904 -1.99197e-30 -0.000400668)
(0.209843 -1.9747e-30 -0.000400284)
(0.209782 -1.95736e-30 -0.0003999)
(0.20972 -1.9407e-30 -0.000399517)
(0.209657 0 -0.000399144)
(0.209595 -1.90021e-30 -0.000398782)
(0.209532 0 -0.00039843)
(0.209469 -1.85131e-30 -0.000398086)
(0.209405 0 -0.000397743)
(0.209341 0 -0.000397403)
(0.209277 -1.80281e-30 -0.000397058)
(0.209212 -1.80907e-30 -0.000396717)
(0.209147 0 -0.000396377)
(0.209082 -1.86571e-30 -0.000396047)
(0.209016 -1.91232e-30 -0.000395719)
(0.20895 -3.94533e-30 -0.000395402)
(0.208883 -2.04341e-30 -0.000395082)
(0.208816 0 -0.000394769)
(0.208749 2.22612e-30 -0.000394453)
(0.208681 0 -0.000394139)
(0.208613 2.46017e-30 -0.000393824)
(0.208545 2.59736e-30 -0.000393518)
(0.208476 0 -0.000393224)
(0.208407 -2.9042e-30 -0.00039296)
(0.208337 3.06637e-30 -0.000392737)
(0.208268 3.22591e-30 -0.000392577)
(0.208198 0 -0.000392481)
(0.208129 3.4906e-30 -0.000392457)
(0.20806 0 -0.000392488)
(0.207991 3.65384e-30 -0.000392574)
(0.207923 -3.69951e-30 -0.000392702)
(0.207856 3.72084e-30 -0.000392869)
(0.207789 3.71954e-30 -0.000393059)
(0.207724 0 -0.000393263)
(0.207659 0 -0.00039346)
(0.207595 3.58828e-30 -0.000393644)
(0.207532 3.51321e-30 -0.000393808)
(0.207469 0 -0.00039395)
(0.207408 3.34149e-30 -0.000394066)
(0.207346 0 -0.000394158)
(0.207286 0 -0.000394225)
(0.207225 0 -0.00039427)
(0.207165 3.00631e-30 -0.000394298)
(0.207106 0 -0.000394316)
(0.207046 -5.7419e-30 -0.00039433)
(0.206987 0 -0.000394345)
(0.206928 -2.76933e-30 -0.000394361)
(0.20687 2.73656e-30 -0.000394383)
(0.206812 0 -0.000394409)
(0.206754 0 -0.000394446)
(0.206697 0 -0.000394491)
(0.20664 -2.73961e-30 -0.000394546)
(0.206583 0 -0.000394606)
(0.206527 0 -0.000394672)
(0.206471 0 -0.000394744)
(0.206416 0 -0.000394829)
(0.206361 0 -0.000394925)
(0.206307 0 -0.000395038)
(0.206253 0 -0.00039516)
(0.2062 0 -0.000395284)
(0.206148 -2.97765e-30 -0.000395389)
(0.206096 0 -0.00039546)
(0.206044 0 -0.000395482)
(0.205993 0 -0.000395455)
(0.205942 2.75619e-30 -0.000395381)
(0.205891 -2.67275e-30 -0.00039527)
(0.20584 -2.5843e-30 -0.000395131)
(0.205789 0 -0.000394971)
(0.205737 -2.39468e-30 -0.000394795)
(0.205685 2.29875e-30 -0.000394603)
(0.205633 -4.41848e-30 -0.000394392)
(0.205581 0 -0.000394161)
(0.205528 0 -0.000393918)
(0.205475 0 -0.000393675)
(0.205422 0 -0.000393443)
(0.205368 0 -0.000393242)
(0.205313 0 -0.000393073)
(0.205259 0 -0.00039294)
(0.205204 -2.11876e-30 -0.000392831)
(0.20515 0 -0.000392753)
(0.205095 0 -0.000392698)
(0.205041 0 -0.000392669)
(0.204987 -2.41962e-30 -0.000392656)
(0.204933 -2.50208e-30 -0.000392656)
(0.20488 -2.58214e-30 -0.00039266)
(0.204827 0 -0.000392659)
(0.204774 2.71997e-30 -0.000392646)
(0.204722 -2.77106e-30 -0.000392613)
(0.20467 0 -0.000392564)
(0.204618 0 -0.000392487)
(0.204566 0 -0.000392379)
(0.204515 2.79743e-30 -0.000392229)
(0.204463 0 -0.000392042)
(0.204412 0 -0.000391803)
(0.20436 0 -0.000391521)
(0.204309 0 -0.000391193)
(0.204256 0 -0.000390833)
(0.204204 2.34651e-30 -0.00039044)
(0.20415 0 -0.000390024)
(0.204096 -4.28621e-30 -0.000389576)
(0.204041 0 -0.000389113)
(0.203986 0 -0.000388632)
(0.203929 0 -0.000388155)
(0.203871 0 -0.000387672)
(0.203813 0 -0.0003872)
(0.203753 0 -0.000386723)
(0.203693 0 -0.000386254)
(0.203632 -1.50529e-30 -0.000385781)