/*--------------------------------*- C++ -*----------------------------------*\
| =========                 |                                                 |
| \\      /  F ield         | foam-extend: Open Source CFD                    |
|  \\    /   O peration     | Version:     3.2                                |
|   \\  /    A nd           | Web:         http://www.foam-extend.org         |
|    \\/     M anipulation  | For copyright notice see file Copyright         |
\*---------------------------------------------------------------------------*/
FoamFile
{
    version     2.0;
    format      ascii;
    class       surfaceScalarField;
    location    "120";
    object      AdSS2;
}
// * * * * * * * * * * * * * * * * * * * * * * * * * * * * * * * * * * * * * //

dimensions      [0 3 -1 0 0 0 0];

internalField   nonuniform List<scalar> 
65390
(
3.54969e-05
4.63639e-07
3.49774e-05
3.79975e-07
3.43149e-05
5.23043e-07
3.36653e-05
5.10176e-07
3.2995e-05
5.30817e-07
3.23758e-05
4.79753e-07
3.17628e-05
4.73543e-07
3.11903e-05
4.33009e-07
3.06275e-05
4.23312e-07
3.00942e-05
3.93803e-07
2.9575e-05
3.79794e-07
2.90822e-05
3.53243e-07
2.86066e-05
3.36135e-07
2.81505e-05
3.16638e-07
2.77094e-05
3.01662e-07
2.72872e-05
2.82741e-07
2.68837e-05
2.64069e-07
2.64986e-05
2.45596e-07
2.61286e-05
2.30552e-07
2.5773e-05
2.16082e-07
2.54315e-05
2.02071e-07
2.51041e-05
1.87943e-07
2.47909e-05
1.73708e-07
2.44927e-05
1.58745e-07
2.42098e-05
1.43417e-07
2.39426e-05
1.27748e-07
2.36906e-05
1.12522e-07
2.34524e-05
9.8687e-08
2.32267e-05
8.6233e-08
2.30126e-05
7.46223e-08
2.28096e-05
6.35757e-08
2.26173e-05
5.27974e-08
2.24353e-05
4.24878e-08
2.22631e-05
3.27501e-08
2.21001e-05
2.35078e-08
2.19461e-05
1.45942e-08
2.18006e-05
6.03106e-09
2.16632e-05
-2.0982e-09
2.15336e-05
-9.82404e-09
2.14114e-05
-1.7287e-08
2.12963e-05
-2.443e-08
2.11879e-05
-3.1027e-08
2.10856e-05
-3.7149e-08
2.0989e-05
-4.28767e-08
2.08978e-05
-4.82592e-08
2.08117e-05
-5.33771e-08
2.07304e-05
-5.82215e-08
2.06537e-05
-6.27912e-08
2.05814e-05
-6.7095e-08
2.05131e-05
-7.11697e-08
2.04486e-05
-7.50353e-08
2.03878e-05
-7.86462e-08
2.03303e-05
-8.19699e-08
2.02758e-05
-8.50002e-08
2.02241e-05
-8.7759e-08
2.0175e-05
-9.03255e-08
2.01282e-05
-9.26982e-08
2.00838e-05
-9.50394e-08
2.0041e-05
-9.66758e-08
1.99998e-05
-9.83031e-08
1.99621e-05
-1.01781e-07
1.99282e-05
-1.05577e-07
1.98968e-05
-1.08073e-07
1.98669e-05
-1.09536e-07
1.98381e-05
-1.10623e-07
1.98104e-05
-1.11783e-07
1.97838e-05
-1.12901e-07
1.97583e-05
-1.1399e-07
1.97339e-05
-1.1501e-07
1.97103e-05
-1.15945e-07
1.96877e-05
-1.16806e-07
1.96658e-05
-1.1759e-07
1.96446e-05
-1.18259e-07
1.9624e-05
-1.18854e-07
1.96039e-05
-1.19425e-07
1.95844e-05
-1.19969e-07
1.95654e-05
-1.20489e-07
1.9547e-05
-1.21058e-07
1.95292e-05
-1.21701e-07
1.9512e-05
-1.22272e-07
1.94953e-05
-1.2275e-07
1.94791e-05
-1.23198e-07
1.94632e-05
-1.23607e-07
1.94477e-05
-1.23989e-07
1.94326e-05
-1.24339e-07
1.94178e-05
-1.24663e-07
1.94033e-05
-1.24957e-07
1.9389e-05
-1.25235e-07
1.9375e-05
-1.25486e-07
1.93612e-05
-1.25641e-07
1.93475e-05
-1.25729e-07
1.93339e-05
-1.25856e-07
1.93204e-05
-1.26e-07
1.93071e-05
-1.26149e-07
1.92939e-05
-1.26328e-07
1.9281e-05
-1.26518e-07
1.92683e-05
-1.26755e-07
1.92559e-05
-1.27113e-07
1.92438e-05
-1.2739e-07
1.92319e-05
-1.27528e-07
1.92201e-05
-1.27655e-07
1.92083e-05
-1.27745e-07
1.91967e-05
-1.27814e-07
1.91851e-05
-1.27853e-07
1.91735e-05
-1.2787e-07
1.91618e-05
-1.27861e-07
1.91502e-05
-1.27833e-07
1.91385e-05
-1.27787e-07
1.91268e-05
-1.27726e-07
1.9115e-05
-1.27656e-07
1.91031e-05
-1.27574e-07
1.90911e-05
-1.275e-07
1.90791e-05
-1.2747e-07
1.9067e-05
-1.27398e-07
1.90547e-05
-1.27188e-07
1.90422e-05
-1.26973e-07
1.90297e-05
-1.26914e-07
1.90171e-05
-1.26862e-07
1.90044e-05
-1.26757e-07
1.89916e-05
-1.26654e-07
1.89786e-05
-1.26543e-07
1.89656e-05
-1.26434e-07
1.89524e-05
-1.26323e-07
1.89392e-05
-1.26212e-07
1.89258e-05
-1.26102e-07
1.89123e-05
-1.25998e-07
1.88988e-05
-1.25902e-07
1.88851e-05
-1.25815e-07
1.88714e-05
-1.25738e-07
1.88576e-05
-1.25668e-07
1.88437e-05
-1.25603e-07
1.88298e-05
-1.25541e-07
1.88158e-05
-1.25481e-07
1.88018e-05
-1.25424e-07
1.87877e-05
-1.25371e-07
1.87735e-05
-1.25322e-07
1.87593e-05
-1.25278e-07
1.87451e-05
-1.25237e-07
1.87308e-05
-1.252e-07
1.87165e-05
-1.25169e-07
1.87022e-05
-1.25142e-07
1.86878e-05
-1.25122e-07
1.86735e-05
-1.25105e-07
1.86591e-05
-1.25095e-07
1.86447e-05
-1.25088e-07
1.86303e-05
-1.25086e-07
1.86159e-05
-1.25085e-07
1.86016e-05
-1.25086e-07
1.85872e-05
-1.25087e-07
1.85728e-05
-1.25091e-07
1.85584e-05
-1.25099e-07
1.85441e-05
-1.25114e-07
1.85297e-05
-1.25137e-07
1.85154e-05
-1.25169e-07
1.85012e-05
-1.25209e-07
1.8487e-05
-1.25259e-07
1.84728e-05
-1.25317e-07
1.84587e-05
-1.25383e-07
1.84447e-05
-1.25459e-07
1.84308e-05
-1.25543e-07
1.84169e-05
-1.25635e-07
1.84032e-05
-1.25735e-07
1.83896e-05
-1.25845e-07
1.83761e-05
-1.25964e-07
1.83627e-05
-1.26091e-07
1.83494e-05
-1.26225e-07
1.83363e-05
-1.26364e-07
1.83234e-05
-1.26509e-07
1.83106e-05
-1.26658e-07
1.82979e-05
-1.26809e-07
1.82854e-05
-1.26962e-07
1.8273e-05
-1.27116e-07
1.82608e-05
-1.2727e-07
1.82488e-05
-1.27424e-07
1.82369e-05
-1.27575e-07
1.82252e-05
-1.27723e-07
1.82135e-05
-1.27866e-07
1.82021e-05
-1.28004e-07
1.81907e-05
-1.28134e-07
1.81795e-05
-1.28255e-07
1.81684e-05
-1.28368e-07
1.81574e-05
-1.28473e-07
1.81465e-05
-1.28573e-07
1.81357e-05
-1.28672e-07
1.8125e-05
-1.28769e-07
1.81144e-05
-1.28861e-07
1.81039e-05
-1.28945e-07
1.80934e-05
-1.29022e-07
1.80831e-05
-1.29096e-07
1.80728e-05
-1.29163e-07
1.80625e-05
-1.29227e-07
1.80523e-05
-1.29285e-07
1.80422e-05
-1.29341e-07
1.80321e-05
-1.29393e-07
1.80221e-05
-1.29441e-07
1.80121e-05
-1.29488e-07
1.80022e-05
-1.29535e-07
1.79923e-05
-1.29584e-07
1.79825e-05
-1.29636e-07
1.79727e-05
-1.2969e-07
1.7963e-05
-1.29749e-07
1.79533e-05
-1.29814e-07
1.79437e-05
-1.29889e-07
1.79342e-05
-1.29974e-07
1.79248e-05
-1.30068e-07
1.79155e-05
-1.30163e-07
1.79063e-05
-1.30262e-07
1.78972e-05
-1.30365e-07
1.78882e-05
-1.30471e-07
1.78793e-05
-1.30574e-07
1.78705e-05
-1.30649e-07
1.78617e-05
-1.30706e-07
1.7853e-05
-1.30769e-07
1.78444e-05
-1.30841e-07
1.78358e-05
-1.30923e-07
1.78274e-05
-1.31015e-07
1.7819e-05
-1.31114e-07
1.78108e-05
-1.31218e-07
1.78026e-05
-1.31324e-07
1.77946e-05
-1.31432e-07
1.77867e-05
-1.31541e-07
1.77788e-05
-1.3165e-07
1.77711e-05
-1.31768e-07
1.77636e-05
-1.31896e-07
1.77561e-05
-1.32028e-07
1.77488e-05
-1.32159e-07
1.77416e-05
-1.3229e-07
1.77346e-05
-1.32427e-07
1.77277e-05
-1.32569e-07
1.77209e-05
-1.32713e-07
1.77143e-05
-1.32861e-07
1.77079e-05
-1.33014e-07
1.77016e-05
-1.33174e-07
1.76954e-05
-1.33341e-07
1.76895e-05
-1.3351e-07
1.76837e-05
-1.33682e-07
1.76781e-05
-1.3386e-07
1.76727e-05
-1.34043e-07
1.76674e-05
-1.34227e-07
1.76624e-05
-1.34415e-07
1.76575e-05
-1.34605e-07
1.76528e-05
-1.34797e-07
1.76483e-05
-1.34989e-07
1.7644e-05
-1.35177e-07
1.76399e-05
-1.35359e-07
1.7636e-05
-1.35534e-07
1.76322e-05
-1.35705e-07
1.76286e-05
-1.35867e-07
1.76252e-05
-1.36019e-07
1.76219e-05
-1.36164e-07
1.76187e-05
-1.36304e-07
1.76157e-05
-1.36437e-07
1.76128e-05
-1.36565e-07
1.761e-05
-1.36689e-07
1.76073e-05
-1.36809e-07
1.76048e-05
-1.36922e-07
1.76023e-05
-1.37023e-07
1.76e-05
-1.37118e-07
1.75977e-05
-1.37207e-07
1.75955e-05
-1.37293e-07
1.75934e-05
-1.37387e-07
1.75915e-05
-1.37476e-07
1.75895e-05
-1.37548e-07
1.75877e-05
-1.37611e-07
1.75859e-05
-1.37661e-07
1.75841e-05
-1.37704e-07
1.75824e-05
-1.37744e-07
1.75807e-05
-1.37778e-07
1.7579e-05
-1.37803e-07
1.75774e-05
-1.37813e-07
1.75757e-05
-1.37809e-07
1.7574e-05
-1.37792e-07
1.75723e-05
-1.3776e-07
1.75705e-05
-1.37715e-07
1.75687e-05
-1.37654e-07
1.75668e-05
-1.37582e-07
1.75649e-05
-1.37504e-07
1.75628e-05
-1.3742e-07
1.75607e-05
-1.37327e-07
1.75584e-05
-1.37228e-07
1.75561e-05
-1.37123e-07
1.75536e-05
-1.37017e-07
1.75511e-05
-1.3691e-07
1.75484e-05
-1.36803e-07
1.75456e-05
-1.36696e-07
1.75428e-05
-1.36596e-07
1.75398e-05
-1.365e-07
1.75367e-05
-1.36411e-07
1.75336e-05
-1.36325e-07
1.75304e-05
-1.36246e-07
1.75271e-05
-1.36167e-07
1.75237e-05
-1.36091e-07
1.75202e-05
-1.36015e-07
1.75167e-05
-1.35942e-07
1.75131e-05
-1.35869e-07
1.75094e-05
-1.35797e-07
1.75057e-05
-1.35723e-07
1.75018e-05
-1.35643e-07
1.74979e-05
-1.35556e-07
1.74939e-05
-1.3546e-07
1.74898e-05
-1.35359e-07
1.74856e-05
-1.35253e-07
1.74813e-05
-1.35143e-07
1.74768e-05
-1.35032e-07
1.74723e-05
-1.34919e-07
1.74676e-05
-1.34805e-07
1.74628e-05
-1.34691e-07
1.74579e-05
-1.34581e-07
1.7453e-05
-1.34477e-07
1.74479e-05
-1.34378e-07
1.74427e-05
-1.34284e-07
1.74374e-05
-1.34195e-07
1.7432e-05
-1.34111e-07
1.74266e-05
-1.34033e-07
1.74211e-05
-1.33961e-07
1.74155e-05
-1.33896e-07
1.74099e-05
-1.33839e-07
1.74042e-05
-1.33788e-07
1.73985e-05
-1.33745e-07
1.73927e-05
-1.3371e-07
1.73869e-05
-1.33686e-07
1.73811e-05
-1.33673e-07
1.73753e-05
-1.33672e-07
1.73695e-05
-1.3368e-07
1.73638e-05
-1.33699e-07
1.7358e-05
-1.33723e-07
1.73523e-05
-1.33757e-07
1.73466e-05
-1.33794e-07
1.7341e-05
-1.33834e-07
1.73354e-05
-1.33875e-07
1.73298e-05
-1.33916e-07
1.73243e-05
-1.33957e-07
1.73189e-05
-1.33999e-07
1.73134e-05
-1.34039e-07
1.7308e-05
-1.34073e-07
1.73027e-05
-1.34104e-07
1.72973e-05
-1.34128e-07
1.7292e-05
-1.34145e-07
1.72867e-05
-1.34153e-07
1.72814e-05
-1.34155e-07
1.7276e-05
-1.34151e-07
1.72707e-05
-1.34139e-07
1.72654e-05
-1.34111e-07
1.726e-05
-1.34069e-07
1.72545e-05
-1.34016e-07
1.7249e-05
-1.33952e-07
1.72434e-05
-1.33876e-07
1.72377e-05
-1.33793e-07
1.7232e-05
-1.3371e-07
1.72261e-05
-1.33637e-07
1.72202e-05
-1.33576e-07
1.72143e-05
-1.33523e-07
1.72083e-05
-1.33462e-07
1.72022e-05
-1.33391e-07
1.7196e-05
-1.33326e-07
1.71899e-05
-1.33277e-07
1.71836e-05
-1.33245e-07
1.71774e-05
-1.33225e-07
1.71711e-05
-1.33215e-07
1.71649e-05
-1.33214e-07
1.71586e-05
-1.33223e-07
1.71524e-05
-1.33238e-07
1.71462e-05
-1.33263e-07
1.714e-05
-1.33302e-07
1.71339e-05
-1.33349e-07
1.71278e-05
-1.334e-07
1.71218e-05
-1.33463e-07
1.71159e-05
-1.33537e-07
1.711e-05
-1.33625e-07
1.71043e-05
-1.3372e-07
1.70986e-05
-1.33828e-07
1.70931e-05
-1.33945e-07
1.70877e-05
-1.3407e-07
1.70824e-05
-1.342e-07
1.70773e-05
-1.34333e-07
1.70723e-05
-1.34466e-07
1.70674e-05
-1.34593e-07
1.70627e-05
-1.34713e-07
1.7058e-05
-1.34823e-07
1.70535e-05
-1.34927e-07
1.7049e-05
-1.3503e-07
1.70447e-05
-1.35134e-07
1.70405e-05
-1.35235e-07
1.70363e-05
-1.35334e-07
1.70323e-05
-1.35432e-07
1.70283e-05
-1.35528e-07
1.70245e-05
-1.35622e-07
1.70207e-05
-1.35705e-07
1.70171e-05
-1.35785e-07
1.70134e-05
-1.35864e-07
1.70099e-05
-1.35927e-07
1.70064e-05
-1.35981e-07
1.7003e-05
-1.36036e-07
1.69996e-05
-1.36084e-07
1.69962e-05
-1.3612e-07
1.69929e-05
-1.36145e-07
1.69896e-05
-1.36164e-07
1.69863e-05
-1.36178e-07
1.6983e-05
-1.36185e-07
1.69797e-05
-1.36184e-07
1.69765e-05
-1.36176e-07
1.69731e-05
-1.36161e-07
1.69698e-05
-1.36139e-07
1.69664e-05
-1.36102e-07
1.6963e-05
-1.36054e-07
1.69595e-05
-1.35996e-07
1.6956e-05
-1.35936e-07
1.69524e-05
-1.35875e-07
1.69488e-05
-1.35812e-07
1.6945e-05
-1.35744e-07
1.69412e-05
-1.35676e-07
1.69374e-05
-1.35607e-07
1.69335e-05
-1.35547e-07
1.69295e-05
-1.35491e-07
1.69254e-05
-1.35445e-07
1.69214e-05
-1.35399e-07
1.69173e-05
-1.35356e-07
1.69131e-05
-1.35309e-07
1.69089e-05
-1.35266e-07
1.69046e-05
-1.35222e-07
1.69004e-05
-1.35183e-07
1.6896e-05
-1.35147e-07
1.68917e-05
-1.35115e-07
1.68873e-05
-1.3508e-07
1.68829e-05
-1.35042e-07
1.68784e-05
-1.34995e-07
1.68739e-05
-1.34937e-07
1.68692e-05
-1.34863e-07
1.68646e-05
-1.34775e-07
1.68598e-05
-1.34674e-07
1.68548e-05
-1.34565e-07
1.68498e-05
-1.34452e-07
1.68447e-05
-1.34336e-07
1.68394e-05
-1.34217e-07
1.68341e-05
-1.34096e-07
1.68286e-05
-1.33972e-07
1.68229e-05
-1.33848e-07
1.68172e-05
-1.33724e-07
1.68113e-05
-1.336e-07
1.68053e-05
-1.33474e-07
1.67992e-05
-1.3335e-07
1.6793e-05
-1.33226e-07
1.67866e-05
-1.33106e-07
1.67801e-05
-1.32992e-07
1.67735e-05
-1.32887e-07
1.67669e-05
-1.32792e-07
1.67601e-05
-1.32708e-07
1.67533e-05
-1.32634e-07
1.67464e-05
-1.32563e-07
1.67394e-05
-1.32494e-07
1.67323e-05
-1.3243e-07
1.67252e-05
-1.32373e-07
1.67181e-05
-1.32319e-07
1.67109e-05
-1.32261e-07
1.67036e-05
-1.32197e-07
1.66963e-05
-1.32126e-07
1.66888e-05
-1.3205e-07
1.66813e-05
-1.31968e-07
1.66738e-05
-1.31879e-07
1.66661e-05
-1.31787e-07
1.66583e-05
-1.31693e-07
1.66504e-05
-1.31602e-07
1.66425e-05
-1.31514e-07
1.66344e-05
-1.31434e-07
1.66263e-05
-1.31359e-07
1.66181e-05
-1.31291e-07
1.66099e-05
-1.31231e-07
1.66016e-05
-1.31181e-07
1.65933e-05
-1.31142e-07
1.65849e-05
-1.31116e-07
1.65766e-05
-1.31101e-07
1.65682e-05
-1.31102e-07
1.65598e-05
-1.31119e-07
1.65515e-05
-1.31158e-07
1.65433e-05
-1.3121e-07
1.65351e-05
-1.31276e-07
1.65269e-05
-1.31346e-07
1.65189e-05
-1.31422e-07
1.65109e-05
-1.31493e-07
1.6503e-05
-1.31558e-07
1.64951e-05
-1.31605e-07
1.64873e-05
-1.31638e-07
1.64795e-05
-1.31652e-07
1.64717e-05
-1.31661e-07
1.64639e-05
-1.31663e-07
1.64561e-05
-1.31674e-07
1.64483e-05
-1.31691e-07
1.64406e-05
-1.31725e-07
1.64329e-05
-1.31769e-07
1.64252e-05
-1.3183e-07
1.64176e-05
-1.31896e-07
1.64101e-05
-1.31974e-07
1.64027e-05
-1.32058e-07
1.63954e-05
-1.32161e-07
1.63882e-05
-1.32277e-07
1.63812e-05
-1.32424e-07
1.63743e-05
-1.32585e-07
1.63676e-05
-1.32777e-07
1.63611e-05
-1.32971e-07
1.63548e-05
-1.33179e-07
1.63487e-05
-1.33362e-07
1.63428e-05
-1.3354e-07
1.6337e-05
-1.33672e-07
1.63313e-05
-1.33791e-07
1.63257e-05
-1.33861e-07
1.63201e-05
-1.33924e-07
1.63146e-05
-1.33939e-07
1.63091e-05
-1.33962e-07
1.63036e-05
-1.33938e-07
1.6298e-05
-1.33938e-07
1.62924e-05
-1.33882e-07
1.62868e-05
-1.33863e-07
1.62812e-05
-1.33784e-07
1.62754e-05
-1.33766e-07
1.62697e-05
-1.33684e-07
1.62639e-05
-1.33685e-07
1.6258e-05
-1.33609e-07
1.62522e-05
-1.33645e-07
1.62463e-05
-1.33574e-07
1.62405e-05
-1.33632e-07
1.62345e-05
-1.33541e-07
1.62286e-05
-1.33593e-07
1.62226e-05
-1.33419e-07
1.62165e-05
-1.3337e-07
1.621e-05
-1.33021e-07
1.62031e-05
-1.32548e-07
1.61956e-05
-1.31903e-07
1.61865e-05
-1.30419e-07
1.61758e-05
-1.28763e-07
1.61622e-05
-1.25878e-07
1.61446e-05
-1.21904e-07
1.61213e-05
-1.1618e-07
1.60895e-05
-1.07635e-07
1.60464e-05
-9.63191e-08
1.59876e-05
-8.06937e-08
1.59022e-05
-5.41021e-08
1.58082e-05
-4.54599e-08
1.55289e-05
1.39885e-07
1.50286e-05
3.60797e-07
1.44981e-05
3.90971e-07
1.3832e-05
5.26649e-07
1.28984e-05
7.94185e-07
1.1542e-05
1.21693e-06
9.81374e-06
1.58876e-06
7.53693e-06
2.13734e-06
4.01125e-06
3.38621e-06
8.4064e-07
3.03114e-06
-1.03083e-06
1.732e-06
-2.74438e-06
1.57408e-06
-2.88385e-06
3.58777e-05
6.85905e-07
3.56368e-05
6.20951e-07
3.52274e-05
9.32392e-07
3.48126e-05
9.24958e-07
3.44152e-05
9.28239e-07
3.40551e-05
8.39833e-07
3.3705e-05
8.23665e-07
3.34052e-05
7.32791e-07
3.31357e-05
6.9285e-07
3.29112e-05
6.18265e-07
3.26985e-05
5.92562e-07
3.25002e-05
5.51472e-07
3.23025e-05
5.33811e-07
3.211e-05
5.09225e-07
3.19159e-05
4.95745e-07
3.17221e-05
4.76559e-07
3.15188e-05
4.67345e-07
3.13095e-05
4.54835e-07
3.10992e-05
4.40924e-07
3.08904e-05
4.24898e-07
3.06835e-05
4.08929e-07
3.04777e-05
3.93747e-07
3.02732e-05
3.78213e-07
3.00702e-05
3.6171e-07
2.98693e-05
3.4435e-07
2.96704e-05
3.26657e-07
2.94737e-05
3.09154e-07
2.92807e-05
2.91704e-07
2.90926e-05
2.7437e-07
2.8909e-05
2.58173e-07
2.873e-05
2.4259e-07
2.85558e-05
2.26989e-07
2.83866e-05
2.11688e-07
2.82223e-05
1.97129e-07
2.80625e-05
1.83225e-07
2.79075e-05
1.69652e-07
2.77572e-05
1.56343e-07
2.76115e-05
1.43552e-07
2.74705e-05
1.31226e-07
2.73339e-05
1.19317e-07
2.72019e-05
1.07488e-07
2.70747e-05
9.62468e-08
2.69517e-05
8.58099e-08
2.68329e-05
7.59832e-08
2.6718e-05
6.65755e-08
2.66071e-05
5.75889e-08
2.64994e-05
4.94788e-08
2.63948e-05
4.17651e-08
2.62933e-05
3.44137e-08
2.61948e-05
2.73359e-08
2.60993e-05
2.04569e-08
2.60067e-05
1.3914e-08
2.5917e-05
7.76231e-09
2.583e-05
1.97287e-09
2.57456e-05
-3.38044e-09
2.56638e-05
-8.43564e-09
2.55843e-05
-1.32275e-08
2.55073e-05
-1.80129e-08
2.54324e-05
-2.17656e-08
2.53595e-05
-2.54915e-08
2.52896e-05
-3.18501e-08
2.5223e-05
-3.89691e-08
2.51596e-05
-4.46597e-08
2.50985e-05
-4.84132e-08
2.50391e-05
-5.12613e-08
2.49815e-05
-5.41722e-08
2.49255e-05
-5.69437e-08
2.48712e-05
-5.96843e-08
2.48185e-05
-6.22745e-08
2.47673e-05
-6.47112e-08
2.47174e-05
-6.69773e-08
2.4669e-05
-6.91122e-08
2.46217e-05
-7.10188e-08
2.45756e-05
-7.27468e-08
2.45306e-05
-7.44333e-08
2.44867e-05
-7.60677e-08
2.44439e-05
-7.76601e-08
2.44021e-05
-7.93099e-08
2.43616e-05
-8.11577e-08
2.43222e-05
-8.29136e-08
2.42839e-05
-8.4454e-08
2.42467e-05
-8.59536e-08
2.42105e-05
-8.7389e-08
2.41753e-05
-8.87792e-08
2.41411e-05
-9.01253e-08
2.41078e-05
-9.14262e-08
2.40755e-05
-9.2679e-08
2.40442e-05
-9.38829e-08
2.40137e-05
-9.50436e-08
2.39841e-05
-9.60076e-08
2.39551e-05
-9.67391e-08
2.39268e-05
-9.74909e-08
2.3899e-05
-9.82727e-08
2.38719e-05
-9.9023e-08
2.38453e-05
-9.97416e-08
2.38192e-05
-1.00368e-07
2.37932e-05
-1.00796e-07
2.37675e-05
-1.01454e-07
2.37423e-05
-1.02097e-07
2.37171e-05
-1.02375e-07
2.36921e-05
-1.02634e-07
2.36672e-05
-1.02873e-07
2.36425e-05
-1.03075e-07
2.36179e-05
-1.03245e-07
2.35934e-05
-1.03373e-07
2.3569e-05
-1.03466e-07
2.35447e-05
-1.03519e-07
2.35204e-05
-1.03541e-07
2.34962e-05
-1.03537e-07
2.34721e-05
-1.03515e-07
2.3448e-05
-1.03487e-07
2.3424e-05
-1.0346e-07
2.34e-05
-1.03537e-07
2.33762e-05
-1.03588e-07
2.33524e-05
-1.03371e-07
2.33285e-05
-1.03041e-07
2.33046e-05
-1.03041e-07
2.32809e-05
-1.03137e-07
2.32572e-05
-1.03098e-07
2.32336e-05
-1.03081e-07
2.32102e-05
-1.03061e-07
2.31868e-05
-1.03044e-07
2.31635e-05
-1.03026e-07
2.31403e-05
-1.03003e-07
2.31171e-05
-1.02979e-07
2.30941e-05
-1.0296e-07
2.30711e-05
-1.02953e-07
2.30483e-05
-1.02963e-07
2.30255e-05
-1.0299e-07
2.30029e-05
-1.0303e-07
2.29804e-05
-1.03078e-07
2.2958e-05
-1.03128e-07
2.29357e-05
-1.03182e-07
2.29135e-05
-1.03239e-07
2.28914e-05
-1.03301e-07
2.28695e-05
-1.03368e-07
2.28476e-05
-1.03439e-07
2.28259e-05
-1.03512e-07
2.28043e-05
-1.03586e-07
2.27828e-05
-1.03664e-07
2.27614e-05
-1.03744e-07
2.27401e-05
-1.03835e-07
2.27189e-05
-1.03929e-07
2.26979e-05
-1.04032e-07
2.26769e-05
-1.04137e-07
2.26561e-05
-1.04245e-07
2.26353e-05
-1.0435e-07
2.26147e-05
-1.04448e-07
2.25941e-05
-1.04541e-07
2.25737e-05
-1.04633e-07
2.25533e-05
-1.04728e-07
2.2533e-05
-1.0483e-07
2.25128e-05
-1.04947e-07
2.24928e-05
-1.05079e-07
2.24728e-05
-1.05227e-07
2.24529e-05
-1.05391e-07
2.24332e-05
-1.0557e-07
2.24135e-05
-1.05762e-07
2.2394e-05
-1.05968e-07
2.23747e-05
-1.06188e-07
2.23555e-05
-1.0642e-07
2.23364e-05
-1.06665e-07
2.23175e-05
-1.06925e-07
2.22987e-05
-1.07198e-07
2.22801e-05
-1.07487e-07
2.22617e-05
-1.07787e-07
2.22434e-05
-1.08098e-07
2.22253e-05
-1.08417e-07
2.22074e-05
-1.08744e-07
2.21897e-05
-1.09074e-07
2.21721e-05
-1.09406e-07
2.21547e-05
-1.09739e-07
2.21375e-05
-1.10072e-07
2.21205e-05
-1.10408e-07
2.21037e-05
-1.10741e-07
2.2087e-05
-1.11072e-07
2.20706e-05
-1.11399e-07
2.20543e-05
-1.11714e-07
2.20382e-05
-1.12015e-07
2.20222e-05
-1.12292e-07
2.20064e-05
-1.12548e-07
2.19907e-05
-1.12783e-07
2.19751e-05
-1.13002e-07
2.19597e-05
-1.13223e-07
2.19443e-05
-1.1344e-07
2.19291e-05
-1.13654e-07
2.1914e-05
-1.13858e-07
2.18991e-05
-1.14053e-07
2.18842e-05
-1.14245e-07
2.18695e-05
-1.14424e-07
2.18549e-05
-1.14598e-07
2.18403e-05
-1.14759e-07
2.18259e-05
-1.14908e-07
2.18115e-05
-1.15045e-07
2.17973e-05
-1.15168e-07
2.17831e-05
-1.15283e-07
2.17689e-05
-1.15395e-07
2.17549e-05
-1.15511e-07
2.17409e-05
-1.15634e-07
2.17269e-05
-1.15765e-07
2.17131e-05
-1.1591e-07
2.16993e-05
-1.16068e-07
2.16857e-05
-1.16247e-07
2.16722e-05
-1.16441e-07
2.16588e-05
-1.16652e-07
2.16455e-05
-1.16864e-07
2.16323e-05
-1.17082e-07
2.16192e-05
-1.17304e-07
2.16063e-05
-1.17534e-07
2.15935e-05
-1.17766e-07
2.15808e-05
-1.17985e-07
2.15683e-05
-1.18211e-07
2.1556e-05
-1.18449e-07
2.15438e-05
-1.18697e-07
2.15319e-05
-1.18959e-07
2.15201e-05
-1.19233e-07
2.15085e-05
-1.19517e-07
2.14971e-05
-1.19802e-07
2.14859e-05
-1.20088e-07
2.14748e-05
-1.20372e-07
2.14639e-05
-1.20652e-07
2.14532e-05
-1.20931e-07
2.14426e-05
-1.2122e-07
2.14323e-05
-1.21524e-07
2.14221e-05
-1.21835e-07
2.14121e-05
-1.22144e-07
2.14022e-05
-1.22452e-07
2.13926e-05
-1.22766e-07
2.13831e-05
-1.23087e-07
2.13738e-05
-1.23412e-07
2.13647e-05
-1.23741e-07
2.13557e-05
-1.24078e-07
2.1347e-05
-1.24428e-07
2.13384e-05
-1.2479e-07
2.13301e-05
-1.25158e-07
2.13219e-05
-1.25532e-07
2.1314e-05
-1.25912e-07
2.13062e-05
-1.26301e-07
2.12987e-05
-1.26689e-07
2.12914e-05
-1.27082e-07
2.12842e-05
-1.27475e-07
2.12773e-05
-1.27871e-07
2.12706e-05
-1.28265e-07
2.12641e-05
-1.28653e-07
2.12577e-05
-1.2903e-07
2.12516e-05
-1.29393e-07
2.12456e-05
-1.29743e-07
2.12398e-05
-1.30072e-07
2.12342e-05
-1.30381e-07
2.12287e-05
-1.30671e-07
2.12233e-05
-1.30948e-07
2.12181e-05
-1.31209e-07
2.1213e-05
-1.3146e-07
2.1208e-05
-1.31703e-07
2.12032e-05
-1.31939e-07
2.11984e-05
-1.32163e-07
2.11937e-05
-1.32369e-07
2.11892e-05
-1.32561e-07
2.11847e-05
-1.32741e-07
2.11803e-05
-1.32913e-07
2.1176e-05
-1.33096e-07
2.11718e-05
-1.33267e-07
2.11677e-05
-1.33415e-07
2.11636e-05
-1.33549e-07
2.11596e-05
-1.33658e-07
2.11557e-05
-1.33757e-07
2.11518e-05
-1.33848e-07
2.11479e-05
-1.33926e-07
2.11441e-05
-1.33986e-07
2.11403e-05
-1.34021e-07
2.11366e-05
-1.34027e-07
2.11328e-05
-1.34007e-07
2.1129e-05
-1.33957e-07
2.11251e-05
-1.3388e-07
2.11212e-05
-1.33774e-07
2.11173e-05
-1.33648e-07
2.11133e-05
-1.3351e-07
2.11093e-05
-1.33365e-07
2.11051e-05
-1.33202e-07
2.11009e-05
-1.33029e-07
2.10967e-05
-1.32844e-07
2.10923e-05
-1.32658e-07
2.10879e-05
-1.32469e-07
2.10833e-05
-1.32279e-07
2.10787e-05
-1.32089e-07
2.1074e-05
-1.31911e-07
2.10693e-05
-1.31741e-07
2.10645e-05
-1.31584e-07
2.10596e-05
-1.31437e-07
2.10546e-05
-1.31304e-07
2.10496e-05
-1.31172e-07
2.10446e-05
-1.31044e-07
2.10395e-05
-1.30914e-07
2.10343e-05
-1.30788e-07
2.10291e-05
-1.3066e-07
2.10239e-05
-1.30534e-07
2.10185e-05
-1.30404e-07
2.10132e-05
-1.30262e-07
2.10077e-05
-1.30108e-07
2.10022e-05
-1.29939e-07
2.09966e-05
-1.29758e-07
2.09909e-05
-1.29568e-07
2.09851e-05
-1.29369e-07
2.09793e-05
-1.29166e-07
2.09733e-05
-1.28957e-07
2.09672e-05
-1.28744e-07
2.09611e-05
-1.28532e-07
2.09548e-05
-1.28327e-07
2.09485e-05
-1.28132e-07
2.09421e-05
-1.27949e-07
2.09356e-05
-1.27777e-07
2.0929e-05
-1.27614e-07
2.09223e-05
-1.27461e-07
2.09156e-05
-1.27319e-07
2.09088e-05
-1.2719e-07
2.0902e-05
-1.27073e-07
2.08951e-05
-1.26973e-07
2.08882e-05
-1.26885e-07
2.08813e-05
-1.26814e-07
2.08744e-05
-1.26756e-07
2.08674e-05
-1.26722e-07
2.08604e-05
-1.26706e-07
2.08535e-05
-1.26716e-07
2.08465e-05
-1.26743e-07
2.08396e-05
-1.26793e-07
2.08328e-05
-1.26855e-07
2.08259e-05
-1.26934e-07
2.08192e-05
-1.27019e-07
2.08124e-05
-1.27112e-07
2.08058e-05
-1.27204e-07
2.07992e-05
-1.27299e-07
2.07926e-05
-1.27395e-07
2.07861e-05
-1.2749e-07
2.07796e-05
-1.2758e-07
2.07732e-05
-1.27659e-07
2.07668e-05
-1.27727e-07
2.07605e-05
-1.27781e-07
2.07542e-05
-1.27818e-07
2.07478e-05
-1.27839e-07
2.07415e-05
-1.27847e-07
2.07352e-05
-1.27844e-07
2.07289e-05
-1.27824e-07
2.07226e-05
-1.27778e-07
2.07162e-05
-1.27706e-07
2.07098e-05
-1.27606e-07
2.07033e-05
-1.27481e-07
2.06968e-05
-1.27331e-07
2.06902e-05
-1.27164e-07
2.06834e-05
-1.26994e-07
2.06766e-05
-1.26838e-07
2.06698e-05
-1.26699e-07
2.06628e-05
-1.26578e-07
2.06558e-05
-1.26448e-07
2.06487e-05
-1.26307e-07
2.06416e-05
-1.26173e-07
2.06344e-05
-1.26065e-07
2.06271e-05
-1.2599e-07
2.06198e-05
-1.25943e-07
2.06125e-05
-1.25915e-07
2.06052e-05
-1.25909e-07
2.05979e-05
-1.25923e-07
2.05906e-05
-1.25952e-07
2.05834e-05
-1.26003e-07
2.05762e-05
-1.26079e-07
2.0569e-05
-1.26171e-07
2.05618e-05
-1.26272e-07
2.05548e-05
-1.26394e-07
2.05478e-05
-1.26537e-07
2.05409e-05
-1.26707e-07
2.0534e-05
-1.26896e-07
2.05273e-05
-1.2711e-07
2.05207e-05
-1.27346e-07
2.05142e-05
-1.27599e-07
2.05079e-05
-1.27864e-07
2.05017e-05
-1.28135e-07
2.04957e-05
-1.28404e-07
2.04897e-05
-1.28662e-07
2.04839e-05
-1.28902e-07
2.04782e-05
-1.29122e-07
2.04726e-05
-1.29327e-07
2.04671e-05
-1.29525e-07
2.04617e-05
-1.29723e-07
2.04564e-05
-1.2992e-07
2.04512e-05
-1.30115e-07
2.0446e-05
-1.30307e-07
2.0441e-05
-1.30495e-07
2.04361e-05
-1.30676e-07
2.04312e-05
-1.30839e-07
2.04264e-05
-1.30994e-07
2.04217e-05
-1.31142e-07
2.0417e-05
-1.31268e-07
2.04124e-05
-1.31379e-07
2.04079e-05
-1.31487e-07
2.04034e-05
-1.31584e-07
2.03989e-05
-1.31662e-07
2.03945e-05
-1.31716e-07
2.03901e-05
-1.31757e-07
2.03857e-05
-1.31785e-07
2.03813e-05
-1.31798e-07
2.03769e-05
-1.31794e-07
2.03725e-05
-1.31779e-07
2.03681e-05
-1.3175e-07
2.03637e-05
-1.31711e-07
2.03592e-05
-1.31646e-07
2.03547e-05
-1.31558e-07
2.03502e-05
-1.31448e-07
2.03456e-05
-1.31328e-07
2.03409e-05
-1.31197e-07
2.03361e-05
-1.31056e-07
2.03313e-05
-1.30902e-07
2.03264e-05
-1.30748e-07
2.03213e-05
-1.30602e-07
2.03163e-05
-1.3048e-07
2.03112e-05
-1.30375e-07
2.0306e-05
-1.30292e-07
2.03008e-05
-1.30209e-07
2.02956e-05
-1.3013e-07
2.02903e-05
-1.30041e-07
2.0285e-05
-1.29956e-07
2.02797e-05
-1.29866e-07
2.02743e-05
-1.29786e-07
2.02688e-05
-1.29715e-07
2.02634e-05
-1.29661e-07
2.02579e-05
-1.29611e-07
2.02524e-05
-1.2956e-07
2.02469e-05
-1.29492e-07
2.02414e-05
-1.29401e-07
2.02358e-05
-1.29275e-07
2.02302e-05
-1.29118e-07
2.02244e-05
-1.28933e-07
2.02186e-05
-1.28729e-07
2.02126e-05
-1.28514e-07
2.02066e-05
-1.28294e-07
2.02004e-05
-1.28071e-07
2.01942e-05
-1.27851e-07
2.01879e-05
-1.27633e-07
2.01814e-05
-1.27419e-07
2.01749e-05
-1.27204e-07
2.01683e-05
-1.26984e-07
2.01616e-05
-1.26753e-07
2.01547e-05
-1.26511e-07
2.01478e-05
-1.26264e-07
2.01407e-05
-1.26019e-07
2.01335e-05
-1.25786e-07
2.01262e-05
-1.2557e-07
2.01188e-05
-1.25377e-07
2.01112e-05
-1.25208e-07
2.01037e-05
-1.25061e-07
2.0096e-05
-1.24926e-07
2.00883e-05
-1.24796e-07
2.00806e-05
-1.24682e-07
2.00728e-05
-1.24577e-07
2.0065e-05
-1.24481e-07
2.00571e-05
-1.24373e-07
2.00491e-05
-1.2425e-07
2.00411e-05
-1.24107e-07
2.0033e-05
-1.23948e-07
2.00248e-05
-1.23772e-07
2.00165e-05
-1.23585e-07
2.00081e-05
-1.23391e-07
1.99996e-05
-1.23195e-07
1.9991e-05
-1.23005e-07
1.99823e-05
-1.22829e-07
1.99736e-05
-1.22668e-07
1.99647e-05
-1.22527e-07
1.99558e-05
-1.22401e-07
1.99469e-05
-1.22289e-07
1.99379e-05
-1.22188e-07
1.99289e-05
-1.22102e-07
1.99198e-05
-1.22028e-07
1.99107e-05
-1.2198e-07
1.99015e-05
-1.21959e-07
1.98924e-05
-1.21976e-07
1.98832e-05
-1.22029e-07
1.98742e-05
-1.22116e-07
1.98651e-05
-1.22226e-07
1.98561e-05
-1.22359e-07
1.98472e-05
-1.22502e-07
1.98384e-05
-1.22649e-07
1.98296e-05
-1.22772e-07
1.98208e-05
-1.22868e-07
1.98121e-05
-1.22919e-07
1.98034e-05
-1.22946e-07
1.97947e-05
-1.2294e-07
1.9786e-05
-1.22933e-07
1.97772e-05
-1.22912e-07
1.97684e-05
-1.22927e-07
1.97597e-05
-1.22955e-07
1.97509e-05
-1.23045e-07
1.97422e-05
-1.23144e-07
1.97336e-05
-1.23292e-07
1.97251e-05
-1.23429e-07
1.97167e-05
-1.23611e-07
1.97083e-05
-1.23789e-07
1.97e-05
-1.24035e-07
1.96919e-05
-1.24297e-07
1.9684e-05
-1.24646e-07
1.96762e-05
-1.25003e-07
1.96687e-05
-1.25427e-07
1.96613e-05
-1.25809e-07
1.96541e-05
-1.26219e-07
1.96471e-05
-1.26536e-07
1.96403e-05
-1.26852e-07
1.96336e-05
-1.27047e-07
1.9627e-05
-1.2725e-07
1.96204e-05
-1.27328e-07
1.96139e-05
-1.27431e-07
1.96073e-05
-1.27417e-07
1.96008e-05
-1.2745e-07
1.95943e-05
-1.27383e-07
1.95877e-05
-1.2736e-07
1.95811e-05
-1.27249e-07
1.95745e-05
-1.27187e-07
1.95679e-05
-1.27083e-07
1.95612e-05
-1.27021e-07
1.95545e-05
-1.26966e-07
1.95477e-05
-1.26884e-07
1.9541e-05
-1.26894e-07
1.95342e-05
-1.26767e-07
1.95274e-05
-1.26818e-07
1.95205e-05
-1.26674e-07
1.95137e-05
-1.26736e-07
1.95068e-05
-1.26524e-07
1.94998e-05
-1.26453e-07
1.94927e-05
-1.25905e-07
1.94852e-05
-1.25024e-07
1.94772e-05
-1.23874e-07
1.94679e-05
-1.21141e-07
1.94573e-05
-1.18187e-07
1.94442e-05
-1.12781e-07
1.94281e-05
-1.05786e-07
1.9407e-05
-9.50732e-08
1.93793e-05
-7.99852e-08
1.93409e-05
-5.78691e-08
1.92898e-05
-2.95837e-08
1.92078e-05
2.78624e-08
1.91101e-05
5.23093e-08
1.89009e-05
3.49062e-07
1.85844e-05
6.77239e-07
1.81433e-05
8.32141e-07
1.75438e-05
1.12615e-06
1.675e-05
1.58793e-06
1.5612e-05
2.35492e-06
1.39008e-05
3.3e-06
1.15486e-05
4.4895e-06
8.1853e-06
6.74953e-06
3.80422e-06
7.41221e-06
2.87698e-07
5.24853e-06
-1.61248e-06
3.47426e-06
-4.49633e-06
3.58755e-05
9.10411e-07
3.56437e-05
8.52757e-07
3.52399e-05
1.33613e-06
3.48674e-05
1.29755e-06
3.44996e-05
1.29595e-06
3.41911e-05
1.14833e-06
3.39263e-05
1.0885e-06
3.37044e-05
9.54698e-07
3.35212e-05
8.76032e-07
3.33629e-05
7.76625e-07
3.32343e-05
7.2116e-07
3.31186e-05
6.67099e-07
3.3007e-05
6.45439e-07
3.29115e-05
6.04682e-07
3.28287e-05
5.7855e-07
3.27562e-05
5.49071e-07
3.26856e-05
5.37929e-07
3.26166e-05
5.23925e-07
3.25475e-05
5.09978e-07
3.24781e-05
4.94319e-07
3.24068e-05
4.8025e-07
3.23336e-05
4.6691e-07
3.22579e-05
4.53872e-07
3.21794e-05
4.40198e-07
3.20975e-05
4.26264e-07
3.20119e-05
4.12258e-07
3.19224e-05
3.98716e-07
3.18273e-05
3.86818e-07
3.17263e-05
3.75367e-07
3.16215e-05
3.62982e-07
3.15136e-05
3.50415e-07
3.14032e-05
3.37428e-07
3.12903e-05
3.24531e-07
3.11752e-05
3.12318e-07
3.10577e-05
3.00633e-07
3.09385e-05
2.88887e-07
3.08179e-05
2.76936e-07
3.06963e-05
2.65143e-07
3.05741e-05
2.53496e-07
3.04515e-05
2.41884e-07
3.03291e-05
2.29834e-07
3.02073e-05
2.18097e-07
3.00861e-05
2.07036e-07
2.99657e-05
1.96316e-07
2.98465e-05
1.85836e-07
2.97286e-05
1.75489e-07
2.96124e-05
1.65646e-07
2.94981e-05
1.56079e-07
2.93857e-05
1.46778e-07
2.92754e-05
1.37643e-07
2.91673e-05
1.28577e-07
2.90614e-05
1.19819e-07
2.89577e-05
1.11458e-07
2.88563e-05
1.03415e-07
2.8757e-05
9.58878e-08
2.86598e-05
8.87133e-08
2.85649e-05
8.17276e-08
2.84722e-05
7.4722e-08
2.83815e-05
6.89011e-08
2.82931e-05
6.2899e-08
2.8207e-05
5.42155e-08
2.81233e-05
4.47389e-08
2.80424e-05
3.62695e-08
2.79637e-05
3.02949e-08
2.78867e-05
2.56836e-08
2.78116e-05
2.0989e-08
2.77382e-05
1.64673e-08
2.76666e-05
1.19239e-08
2.75967e-05
7.55854e-09
2.75286e-05
3.37035e-09
2.74623e-05
-5.85489e-10
2.73975e-05
-4.37798e-09
2.73343e-05
-7.84197e-09
2.72726e-05
-1.10239e-08
2.72123e-05
-1.41576e-08
2.71535e-05
-1.72169e-08
2.7096e-05
-2.02168e-08
2.704e-05
-2.32787e-08
2.69855e-05
-2.66676e-08
2.69326e-05
-2.99413e-08
2.68809e-05
-3.2845e-08
2.68307e-05
-3.568e-08
2.67817e-05
-3.84199e-08
2.6734e-05