/*--------------------------------*- C++ -*----------------------------------*\
| =========                 |                                                 |
| \\      /  F ield         | foam-extend: Open Source CFD                    |
|  \\    /   O peration     | Version:     3.2                                |
|   \\  /    A nd           | Web:         http://www.foam-extend.org         |
|    \\/     M anipulation  | For copyright notice see file Copyright         |
\*---------------------------------------------------------------------------*/
FoamFile
{
    version     2.0;
    format      ascii;
    class       areaVectorField;
    location    "120";
    object      aMeshCentreN;
}
// * * * * * * * * * * * * * * * * * * * * * * * * * * * * * * * * * * * * * //

dimensions      [0 0 0 0 0 0 0];

internalField   nonuniform List<vector> 
550
(
(0.00909091 0.01 -1.81818e-05)
(0.0272727 0.01 -5.45455e-05)
(0.0454545 0.01 -9.09091e-05)
(0.0636364 0.01 -0.000127273)
(0.0818182 0.01 -0.000163636)
(0.1 0.01 -0.0002)
(0.118182 0.01 -0.000236364)
(0.136364 0.01 -0.000272727)
(0.154545 0.01 -0.000309091)
(0.172727 0.01 -0.000345455)
(0.190909 0.01 -0.000381818)
(0.209091 0.01 -0.000418182)
(0.227273 0.01 -0.000454545)
(0.245455 0.01 -0.000490909)
(0.263636 0.01 -0.000527273)
(0.281818 0.01 -0.000563636)
(0.3 0.01 -0.0006)
(0.318182 0.01 -0.000636364)
(0.336364 0.01 -0.000672727)
(0.354545 0.01 -0.000709091)
(0.372727 0.01 -0.000745455)
(0.390909 0.01 -0.000781818)
(0.409091 0.01 -0.000818182)
(0.427273 0.01 -0.000854545)
(0.445455 0.01 -0.000890909)
(0.463636 0.01 -0.000927273)
(0.481818 0.01 -0.000963636)
(0.5 0.01 -0.001)
(0.518182 0.01 -0.00103636)
(0.536364 0.01 -0.00107273)
(0.554545 0.01 -0.00110909)
(0.572727 0.01 -0.00114545)
(0.590909 0.01 -0.00118182)
(0.609091 0.01 -0.00121818)
(0.627273 0.01 -0.00125455)
(0.645455 0.01 -0.00129091)
(0.663636 0.01 -0.00132727)
(0.681818 0.01 -0.00136364)
(0.7 0.01 -0.0014)
(0.718182 0.01 -0.00143636)
(0.736364 0.01 -0.00147273)
(0.754545 0.01 -0.00150909)
(0.772727 0.01 -0.00154545)
(0.790909 0.01 -0.00158182)
(0.809091 0.01 -0.00161818)
(0.827273 0.01 -0.00165455)
(0.845455 0.01 -0.00169091)
(0.863636 0.01 -0.00172727)
(0.881818 0.01 -0.00176364)
(0.9 0.01 -0.0018)
(0.918182 0.01 -0.00183636)
(0.936364 0.01 -0.00187273)
(0.954545 0.01 -0.00190909)
(0.972727 0.01 -0.00194545)
(0.990909 0.01 -0.00198182)
(1.00909 0.01 -0.00201818)
(1.02727 0.01 -0.00205455)
(1.04545 0.01 -0.00209094)
(1.06364 0.01 -0.00212727)
(1.08182 0.01 -0.00216364)
(1.1 0.01 -0.00219981)
(1.11818 0.01 -0.00223441)
(1.13636 0.01 -0.00226699)
(1.15455 0.01 -0.00229874)
(1.17273 0.01 -0.00233038)
(1.19091 0.01 -0.00236202)
(1.20909 0.01 -0.00239376)
(1.22727 0.01 -0.0024256)
(1.24545 0.01 -0.00245755)
(1.26364 0.01 -0.00248961)
(1.28182 0.01 -0.00252175)
(1.3 0.01 -0.00255397)
(1.31818 0.01 -0.00258625)
(1.33636 0.01 -0.00261858)
(1.35455 0.01 -0.00265097)
(1.37273 0.01 -0.0026834)
(1.39091 0.01 -0.0027159)
(1.40909 0.01 -0.00274848)
(1.42727 0.01 -0.00278114)
(1.44545 0.01 -0.00281388)
(1.46364 0.01 -0.00284669)
(1.48182 0.01 -0.00287956)
(1.5 0.01 -0.00291249)
(1.51818 0.01 -0.00294548)
(1.53636 0.01 -0.00297854)
(1.55455 0.01 -0.00301164)
(1.57273 0.01 -0.00304481)
(1.59091 0.01 -0.00307801)
(1.60909 0.01 -0.00311125)
(1.62727 0.01 -0.0031445)
(1.64545 0.01 -0.00317775)
(1.66364 0.01 -0.00321102)
(1.68182 0.01 -0.0032443)
(1.7 0.01 -0.00327761)
(1.71818 0.01 -0.00331095)
(1.73636 0.01 -0.00334434)
(1.75455 0.01 -0.00337778)
(1.77273 0.01 -0.00341128)
(1.79091 0.01 -0.00344482)
(1.80909 0.01 -0.00347837)
(1.82727 0.01 -0.00351191)
(1.84545 0.01 -0.00354543)
(1.86364 0.01 -0.00357893)
(1.88182 0.01 -0.00361242)
(1.9 0.01 -0.00364587)
(1.91818 0.01 -0.00367931)
(1.93636 0.01 -0.00371273)
(1.95455 0.01 -0.00374612)
(1.97273 0.01 -0.0037795)
(1.99091 0.01 -0.00381286)
(2.00909 0.01 -0.00384619)
(2.02727 0.01 -0.00387951)
(2.04545 0.01 -0.00391282)
(2.06364 0.01 -0.0039461)
(2.08182 0.01 -0.00397936)
(2.1 0.01 -0.00401259)
(2.11818 0.01 -0.00404581)
(2.13636 0.01 -0.00407903)
(2.15455 0.01 -0.00411226)
(2.17273 0.01 -0.00414549)
(2.19091 0.01 -0.00417872)
(2.20909 0.01 -0.00421196)
(2.22727 0.01 -0.0042452)
(2.24545 0.01 -0.00427845)
(2.26364 0.01 -0.00431171)
(2.28182 0.01 -0.00434499)
(2.3 0.01 -0.00437829)
(2.31818 0.01 -0.0044116)
(2.33636 0.01 -0.00444493)
(2.35455 0.01 -0.00447828)
(2.37273 0.01 -0.00451166)
(2.39091 0.01 -0.00454506)
(2.40909 0.01 -0.0045785)
(2.42727 0.01 -0.00461198)
(2.44545 0.01 -0.00464549)
(2.46364 0.01 -0.00467904)
(2.48182 0.01 -0.00471264)
(2.5 0.01 -0.00474628)
(2.51818 0.01 -0.00477996)
(2.53636 0.01 -0.00481369)
(2.55455 0.01 -0.00484746)
(2.57273 0.01 -0.00488128)
(2.59091 0.01 -0.00491514)
(2.60909 0.01 -0.00494905)
(2.62727 0.01 -0.00498301)
(2.64545 0.01 -0.00501701)
(2.66364 0.01 -0.00505105)
(2.68182 0.01 -0.00508513)
(2.7 0.01 -0.00511925)
(2.71818 0.01 -0.0051534)
(2.73636 0.01 -0.00518759)
(2.75455 0.01 -0.00522182)
(2.77273 0.01 -0.00525609)
(2.79091 0.01 -0.00529039)
(2.80909 0.01 -0.00532472)
(2.82727 0.01 -0.00535909)
(2.84545 0.01 -0.00539349)
(2.86364 0.01 -0.00542793)
(2.88182 0.01 -0.00546239)
(2.9 0.01 -0.00549688)
(2.91818 0.01 -0.0055314)
(2.93636 0.01 -0.00556594)
(2.95455 0.01 -0.00560052)
(2.97273 0.01 -0.00563512)
(2.99091 0.01 -0.00566975)
(3.00909 0.01 -0.00570441)
(3.02727 0.01 -0.00573911)
(3.04545 0.01 -0.00577383)
(3.06364 0.01 -0.00580859)
(3.08182 0.01 -0.00584337)
(3.1 0.01 -0.00587818)
(3.11818 0.01 -0.00591303)
(3.13636 0.01 -0.00594791)
(3.15455 0.01 -0.00598281)
(3.17273 0.01 -0.00601775)
(3.19091 0.01 -0.00605272)
(3.20909 0.01 -0.00608773)
(3.22727 0.01 -0.00612277)
(3.24545 0.01 -0.00615784)
(3.26364 0.01 -0.00619295)
(3.28182 0.01 -0.0062281)
(3.3 0.01 -0.00626329)
(3.31818 0.01 -0.00629851)
(3.33636 0.01 -0.00633378)
(3.35455 0.01 -0.00636908)
(3.37273 0.01 -0.00640442)
(3.39091 0.01 -0.0064398)
(3.40909 0.01 -0.00647522)
(3.42727 0.01 -0.00651069)
(3.44545 0.01 -0.00654619)
(3.46364 0.01 -0.00658173)
(3.48182 0.01 -0.00661732)
(3.5 0.01 -0.00665295)
(3.51818 0.01 -0.00668862)
(3.53636 0.01 -0.00672433)
(3.55455 0.01 -0.00676008)
(3.57273 0.01 -0.00679588)
(3.59091 0.01 -0.00683171)
(3.60909 0.01 -0.00686758)
(3.62727 0.01 -0.00690348)
(3.64545 0.01 -0.00693942)
(3.66364 0.01 -0.00697539)
(3.68182 0.01 -0.00701139)
(3.7 0.01 -0.00704742)
(3.71818 0.01 -0.00708348)
(3.73636 0.01 -0.00711957)
(3.75455 0.01 -0.00715569)
(3.77273 0.01 -0.00719183)
(3.79091 0.01 -0.007228)
(3.80909 0.01 -0.00726419)
(3.82727 0.01 -0.00730042)
(3.84545 0.01 -0.00733666)
(3.86364 0.01 -0.00737293)
(3.88182 0.01 -0.00740923)
(3.9 0.01 -0.00744555)
(3.91818 0.01 -0.00748189)
(3.93636 0.01 -0.00751826)
(3.95455 0.01 -0.00755465)
(3.97273 0.01 -0.00759107)
(3.99091 0.01 -0.00762751)
(4.00909 0.01 -0.00766399)
(4.02727 0.01 -0.0077005)
(4.04545 0.01 -0.00773704)
(4.06364 0.01 -0.0077736)
(4.08182 0.01 -0.00781018)
(4.1 0.01 -0.00784676)
(4.11818 0.01 -0.00788337)
(4.13636 0.01 -0.00792)
(4.15455 0.01 -0.00795664)
(4.17273 0.01 -0.0079933)
(4.19091 0.01 -0.00802998)
(4.20909 0.01 -0.00806669)
(4.22727 0.01 -0.00810341)
(4.24545 0.01 -0.00814014)
(4.26364 0.01 -0.00817689)
(4.28182 0.01 -0.00821366)
(4.3 0.01 -0.00825044)
(4.31818 0.01 -0.00828724)
(4.33636 0.01 -0.00832406)
(4.35455 0.01 -0.00836089)
(4.37273 0.01 -0.00839774)
(4.39091 0.01 -0.0084346)
(4.40909 0.01 -0.00847147)
(4.42727 0.01 -0.00850836)
(4.44545 0.01 -0.00854525)
(4.46364 0.01 -0.00858214)
(4.48182 0.01 -0.00861904)
(4.5 0.01 -0.00865594)
(4.51818 0.01 -0.00869284)
(4.53636 0.01 -0.00872973)
(4.55455 0.01 -0.00876662)
(4.57273 0.01 -0.00880349)
(4.59091 0.01 -0.00884036)
(4.60909 0.01 -0.0088772)
(4.62727 0.01 -0.00891402)
(4.64545 0.01 -0.00895082)
(4.66364 0.01 -0.00898759)
(4.68182 0.01 -0.00902434)
(4.7 0.01 -0.00906107)
(4.71818 0.01 -0.00909776)
(4.73636 0.01 -0.00913443)
(4.75455 0.01 -0.00917104)
(4.77273 0.01 -0.00920761)
(4.79091 0.01 -0.00924415)
(4.80909 0.01 -0.00928066)
(4.82727 0.01 -0.00931716)
(4.84545 0.01 -0.00935365)
(4.86364 0.01 -0.00939014)
(4.88182 0.01 -0.0094266)
(4.9 0.01 -0.00946305)
(4.91818 0.01 -0.00949948)
(4.93636 0.01 -0.0095359)
(4.95455 0.01 -0.00957229)
(4.97273 0.01 -0.00960866)
(4.99091 0.01 -0.00964501)
(5.00909 0.01 -0.00968135)
(5.02727 0.01 -0.00971766)
(5.04545 0.01 -0.00975396)
(5.06364 0.01 -0.00979024)
(5.08182 0.01 -0.0098265)
(5.1 0.01 -0.00986275)
(5.11818 0.01 -0.00989899)
(5.13636 0.01 -0.00993521)
(5.15455 0.01 -0.00997143)
(5.17273 0.01 -0.0100076)
(5.19091 0.01 -0.0100438)
(5.20909 0.01 -0.01008)
(5.22727 0.01 -0.0101162)
(5.24545 0.01 -0.0101524)
(5.26364 0.01 -0.0101886)
(5.28182 0.01 -0.0102247)
(5.3 0.01 -0.0102609)
(5.31818 0.01 -0.0102971)
(5.33636 0.01 -0.0103333)
(5.35455 0.01 -0.0103694)
(5.37273 0.01 -0.0104056)
(5.39091 0.01 -0.0104418)
(5.40909 0.01 -0.010478)
(5.42727 0.01 -0.0105141)
(5.44545 0.01 -0.0105503)
(5.46364 0.01 -0.0105865)
(5.48182 0.01 -0.0106227)
(5.5 0.01 -0.0106589)
(5.51818 0.01 -0.0106951)
(5.53636 0.01 -0.0107313)
(5.55455 0.01 -0.0107675)
(5.57273 0.01 -0.0108037)
(5.59091 0.01 -0.0108398)
(5.60909 0.01 -0.010876)
(5.62727 0.01 -0.0109122)
(5.64545 0.01 -0.0109484)
(5.66364 0.01 -0.0109846)
(5.68182 0.01 -0.0110208)
(5.7 0.01 -0.0110571)
(5.71818 0.01 -0.0110933)
(5.73636 0.01 -0.0111295)
(5.75455 0.01 -0.0111658)
(5.77273 0.01 -0.011202)
(5.79091 0.01 -0.0112383)
(5.80909 0.01 -0.0112746)
(5.82727 0.01 -0.0113109)
(5.84545 0.01 -0.0113472)
(5.86364 0.01 -0.0113835)
(5.88182 0.01 -0.0114198)
(5.9 0.01 -0.0114562)
(5.91818 0.01 -0.0114925)
(5.93636 0.01 -0.0115289)
(5.95455 0.01 -0.0115652)
(5.97273 0.01 -0.0116016)
(5.99091 0.01 -0.011638)
(6.00909 0.01 -0.0116744)
(6.02727 0.01 -0.0117108)
(6.04545 0.01 -0.0117472)
(6.06364 0.01 -0.0117836)
(6.08182 0.01 -0.0118201)
(6.1 0.01 -0.0118566)
(6.11818 0.01 -0.0118931)
(6.13636 0.01 -0.0119296)
(6.15455 0.01 -0.0119662)
(6.17273 0.01 -0.0120027)
(6.19091 0.01 -0.0120393)
(6.20909 0.01 -0.0120758)
(6.22727 0.01 -0.0121124)
(6.24545 0.01 -0.0121489)
(6.26364 0.01 -0.0121855)
(6.28182 0.01 -0.0122221)
(6.3 0.01 -0.0122586)
(6.31818 0.01 -0.0122952)
(6.33636 0.01 -0.0123317)
(6.35455 0.01 -0.0123682)
(6.37273 0.01 -0.0124047)
(6.39091 0.01 -0.0124412)
(6.40909 0.01 -0.0124776)
(6.42727 0.01 -0.0125141)
(6.44545 0.01 -0.0125505)
(6.46364 0.01 -0.0125869)
(6.48182 0.01 -0.0126234)
(6.5 0.01 -0.0126599)
(6.51818 0.01 -0.0126964)
(6.53636 0.01 -0.0127328)
(6.55455 0.01 -0.0127693)
(6.57273 0.01 -0.0128058)
(6.59091 0.01 -0.0128423)
(6.60909 0.01 -0.0128788)
(6.62727 0.01 -0.0129154)
(6.64545 0.01 -0.0129519)
(6.66364 0.01 -0.0129884)
(6.68182 0.01 -0.013025)
(6.7 0.01 -0.0130615)
(6.71818 0.01 -0.0130981)
(6.73636 0.01 -0.0131347)
(6.75455 0.01 -0.0131713)
(6.77273 0.01 -0.0132079)
(6.79091 0.01 -0.0132445)
(6.80909 0.01 -0.0132811)
(6.82727 0.01 -0.0133177)
(6.84545 0.01 -0.0133543)
(6.86364 0.01 -0.0133909)
(6.88182 0.01 -0.0134275)
(6.9 0.01 -0.013464)
(6.91818 0.01 -0.0135006)
(6.93636 0.01 -0.0135372)
(6.95455 0.01 -0.0135737)
(6.97273 0.01 -0.0136102)
(6.99091 0.01 -0.0136467)
(7.00909 0.01 -0.0136831)
(7.02727 0.01 -0.0137195)
(7.04545 0.01 -0.0137558)
(7.06364 0.01 -0.0137921)
(7.08182 0.01 -0.0138284)
(7.1 0.01 -0.0138647)
(7.11818 0.01 -0.0139009)
(7.13636 0.01 -0.0139372)
(7.15455 0.01 -0.0139734)
(7.17273 0.01 -0.0140096)
(7.19091 0.01 -0.0140459)
(7.20909 0.01 -0.0140821)
(7.22727 0.01 -0.0141183)
(7.24545 0.01 -0.0141546)
(7.26364 0.01 -0.0141908)
(7.28182 0.01 -0.014227)
(7.3 0.01 -0.0142632)
(7.31818 0.01 -0.0142995)
(7.33636 0.01 -0.0143357)
(7.35455 0.01 -0.0143719)
(7.37273 0.01 -0.0144081)
(7.39091 0.01 -0.0144444)
(7.40909 0.01 -0.0144806)
(7.42727 0.01 -0.0145168)
(7.44545 0.01 -0.014553)
(7.46364 0.01 -0.0145891)
(7.48182 0.01 -0.0146253)
(7.5 0.01 -0.0146615)
(7.51818 0.01 -0.0146976)
(7.53636 0.01 -0.0147338)
(7.55455 0.01 -0.0147699)
(7.57273 0.01 -0.014806)
(7.59091 0.01 -0.0148421)
(7.60909 0.01 -0.0148782)
(7.62727 0.01 -0.0149143)
(7.64545 0.01 -0.0149504)
(7.66364 0.01 -0.0149864)
(7.68182 0.01 -0.0150225)
(7.7 0.01 -0.0150586)
(7.71818 0.01 -0.0150947)
(7.73636 0.01 -0.0151307)
(7.75455 0.01 -0.0151668)
(7.77273 0.01 -0.0152028)
(7.79091 0.01 -0.0152389)
(7.80909 0.01 -0.0152749)
(7.82727 0.01 -0.015311)
(7.84545 0.01 -0.0153471)
(7.86364 0.01 -0.0153832)
(7.88182 0.01 -0.0154192)
(7.9 0.01 -0.0154553)
(7.91818 0.01 -0.0154914)
(7.93636 0.01 -0.0155275)
(7.95455 0.01 -0.0155636)
(7.97273 0.01 -0.0155997)
(7.99091 0.01 -0.0156358)
(8.00909 0.01 -0.0156719)
(8.02727 0.01 -0.015708)
(8.04545 0.01 -0.0157441)
(8.06364 0.01 -0.0157802)
(8.08182 0.01 -0.0158163)
(8.1 0.01 -0.0158525)
(8.11818 0.01 -0.0158886)
(8.13636 0.01 -0.0159248)
(8.15455 0.01 -0.015961)
(8.17273 0.01 -0.0159971)
(8.19091 0.01 -0.0160334)
(8.20909 0.01 -0.0160696)
(8.22727 0.01 -0.0161059)
(8.24545 0.01 -0.0161421)
(8.26364 0.01 -0.0161784)
(8.28182 0.01 -0.0162147)
(8.3 0.01 -0.0162511)
(8.31818 0.01 -0.0162874)
(8.33636 0.01 -0.0163238)
(8.35455 0.01 -0.0163601)
(8.37273 0.01 -0.0163965)
(8.39091 0.01 -0.0164329)
(8.40909 0.01 -0.0164692)
(8.42727 0.01 -0.0165056)
(8.44545 0.01 -0.016542)
(8.46364 0.01 -0.0165784)
(8.48182 0.01 -0.0166148)
(8.5 0.01 -0.0166511)
(8.51818 0.01 -0.0166875)
(8.53636 0.01 -0.0167239)
(8.55455 0.01 -0.0167603)
(8.57273 0.01 -0.0167968)
(8.59091 0.01 -0.0168332)
(8.60909 0.01 -0.0168696)
(8.62727 0.01 -0.0169061)
(8.64545 0.01 -0.0169426)
(8.66364 0.01 -0.016979)
(8.68182 0.01 -0.0170155)
(8.7 0.01 -0.0170519)
(8.71818 0.01 -0.0170884)
(8.73636 0.01 -0.0171248)
(8.75455 0.01 -0.0171613)
(8.77273 0.01 -0.0171977)
(8.79091 0.01 -0.0172342)
(8.80909 0.01 -0.0172706)
(8.82727 0.01 -0.0173071)
(8.84545 0.01 -0.0173435)
(8.86364 0.01 -0.01738)
(8.88182 0.01 -0.0174164)
(8.9 0.01 -0.0174529)
(8.91818 0.01 -0.0174894)
(8.93636 0.01 -0.0175258)
(8.95455 0.01 -0.0175623)
(8.97273 0.01 -0.0175987)
(8.99091 0.01 -0.0176352)
(9.00909 0.01 -0.0176716)
(9.02727 0.01 -0.0177081)
(9.04545 0.01 -0.0177445)
(9.06364 0.01 -0.0177809)
(9.08182 0.01 -0.0178174)
(9.1 0.01 -0.0178538)
(9.11818 0.01 -0.0178902)
(9.13636 0.01 -0.0179267)
(9.15455 0.01 -0.0179631)
(9.17273 0.01 -0.0179996)
(9.19091 0.01 -0.0180361)
(9.20909 0.01 -0.0180725)
(9.22727 0.01 -0.018109)
(9.24545 0.01 -0.0181454)
(9.26364 0.01 -0.0181819)
(9.28182 0.01 -0.0182183)
(9.3 0.01 -0.0182547)
(9.31818 0.01 -0.0182911)
(9.33636 0.01 -0.0183274)
(9.35455 0.01 -0.0183638)
(9.37273 0.01 -0.0184001)
(9.39091 0.01 -0.0184364)
(9.40909 0.01 -0.0184728)
(9.42727 0.01 -0.0185091)
(9.44545 0.01 -0.0185454)
(9.46364 0.01 -0.0185818)
(9.48182 0.01 -0.0186181)
(9.5 0.01 -0.0186544)
(9.51818 0.01 -0.0186907)
(9.53636 0.01 -0.018727)
(9.55455 0.01 -0.0187632)
(9.57273 0.01 -0.0187993)
(9.59091 0.01 -0.0188353)
(9.60909 0.01 -0.0188712)
(9.62727 0.01 -0.0189067)
(9.64545 0.01 -0.0189418)
(9.66364 0.01 -0.0189763)
(9.68182 0.01 -0.0190098)
(9.7 0.01 -0.0190421)
(9.71818 0.01 -0.0190727)
(9.73636 0.01 -0.0191006)
(9.75455 0.01 -0.0191278)
(9.77273 0.01 -0.0191521)
(9.79091 0.01 -0.0192773)
(9.80909 0.01 -0.0195144)
(9.82727 0.01 -0.0196545)
(9.84545 0.01 -0.0196909)
(9.86364 0.01 -0.0197273)
(9.88182 0.01 -0.0197636)
(9.9 0.01 -0.0198)
(9.91818 0.01 -0.0198364)
(9.93636 0.01 -0.0198727)
(9.95455 0.01 -0.0199091)
(9.97273 0.01 -0.0199455)
(9.99091 0.01 -0.0199818)
)
;

boundaryField
{
    inlet
    {
        type            calculated;
        value           uniform (0 0 0);
    }
    endWall
    {
        type            calculated;
        value           uniform (0 0 0);
    }
    sideWall
    {
        type            empty;
    }
}


// ************************************************************************* //
