/*--------------------------------*- C++ -*----------------------------------*\
| =========                 |                                                 |
| \\      /  F ield         | foam-extend: Open Source CFD                    |
|  \\    /   O peration     | Version:     3.2                                |
|   \\  /    A nd           | Web:         http://www.foam-extend.org         |
|    \\/     M anipulation  | For copyright notice see file Copyright         |
\*---------------------------------------------------------------------------*/
FoamFile
{
    version     2.0;
    format      ascii;
    class       areaScalarField;
    location    "120";
    object      angBeta;
}
// * * * * * * * * * * * * * * * * * * * * * * * * * * * * * * * * * * * * * //

dimensions      [0 0 0 0 0 0 0];

internalField   nonuniform List<scalar> 
550
(
0.002
0.002
0.002
0.002
0.002
0.002
0.002
0.002
0.002
0.002
0.002
0.002
0.002
0.002
0.002
0.002
0.002
0.002
0.002
0.002
0.002
0.002
0.002
0.002
0.002
0.002
0.002
0.002
0.002
0.002
0.002
0.002
0.002
0.002
0.002
0.002
0.002
0.002
0.002
0.002
0.002
0.002
0.002
0.002
0.002
0.002
0.002
0.002
0.002
0.002
0.002
0.002
0.002
0.002
0.002
0.00200008
0.00200018
0.00200241
0.00199466
0.0020059
0.00197246
0.00183392
0.00174983
0.00174262
0.00173789
0.0017426
0.00174826
0.0017545
0.00176033
0.00176563
0.00177023
0.00177396
0.00177689
0.00177953
0.00178233
0.00178548
0.0017894
0.00179419
0.0017988
0.00180265
0.00180616
0.00180958
0.00181291
0.00181623
0.00181949
0.00182253
0.00182522
0.00182742
0.00182865
0.00182887
0.00182909
0.00182993
0.00183116
0.00183283
0.00183498
0.00183765
0.001841
0.00184398
0.00184517
0.001845
0.00184434
0.0018433
0.00184209
0.00184084
0.00183959
0.00183846
0.00183737
0.00183628
0.00183514
0.00183401
0.00183296
0.00183214
0.00183147
0.00183006
0.00182802
0.001827
0.00182722
0.00182746
0.00182755
0.00182767
0.00182785
0.00182815
0.00182856
0.00182912
0.00182985
0.00183069
0.00183159
0.00183259
0.00183372
0.00183502
0.00183652
0.00183822
0.0018401
0.00184213
0.0018443
0.00184657
0.00184891
0.00185132
0.00185378
0.00185627
0.00185876
0.00186126
0.00186377
0.00186628
0.00186873
0.0018711
0.00187334
0.00187549
0.00187756
0.00187958
0.00188159
0.00188356
0.00188554
0.00188747
0.00188937
0.00189124
0.001893
0.00189464
0.00189619
0.00189769
0.00189919
0.00190076
0.00190236
0.00190398
0.00190563
0.0019073
0.00190899
0.00191068
0.00191231
0.00191392
0.00191558
0.0019173
0.00191906
0.00192079
0.00192251
0.00192433
0.00192622
0.00192811
0.00193007
0.0019321
0.00193418
0.00193629
0.00193843
0.00194057
0.00194269
0.00194483
0.00194709
0.00194939
0.00195162
0.00195381
0.00195605
0.00195836
0.00196068
0.00196299
0.00196531
0.0019676
0.00196976
0.00197175
0.00197366
0.00197558
0.00197748
0.0019793
0.00198105
0.00198266
0.00198404
0.00198545
0.0019871
0.00198865
0.00199005
0.00199147
0.00199289
0.00199428
0.00199561
0.00199694
0.00199823
0.00199941
0.00200072
0.00200222
0.00200379
0.00200551
0.00200722
0.00200891
0.00201042
0.00201131
0.00201185
0.00201265
0.00201384
0.002015
0.00201594
0.00201694
0.00201805
0.00201913
0.00202007
0.00202083
0.00202167
0.00202268
0.00202364
0.00202446
0.0020253
0.00202621
0.002027
0.00202767
0.00202828
0.00202877
0.00202919
0.00202952
0.00202954
0.00202931
0.00202916
0.002029
0.00202854
0.00202781
0.00202702
0.00202597
0.00202457
0.00202313
0.00202178
0.00202059
0.00201918
0.00201752
0.00201543
0.00201243
0.00201012
0.00200885
0.00200768
0.00200724
0.0020069
0.00200608
0.00200518
0.00200425
0.0020032
0.00200217
0.00200102
0.00199993
0.00199879
0.0019978
0.00199681
0.00199589
0.00199491
0.00199415
0.00199337
0.00199269
0.00199201
0.00199146
0.00199104
0.00199069
0.00199033
0.00199009
0.00198988
0.00198972
0.00198957
0.00198955
0.00198949
0.00198955
0.00198958
0.00198972
0.00198979
0.00198989
0.00199003
0.00199013
0.00199027
0.00199029
0.00199035
0.00199043
0.00199045
0.00199046
0.0019905
0.00199051
0.0019906
0.00199071
0.00199095
0.00199129
0.00199171
0.00199219
0.00199276
0.0019934
0.00199409
0.00199475
0.00199545
0.00199609
0.00199669
0.00199715
0.00199763
0.00199799
0.00199847
0.00199891
0.00199947
0.00199998
0.00200062
0.0020013
0.00200218
0.0020031
0.00200407
0.00200505
0.00200612
0.00200714
0.00200813
0.002009
0.00200979
0.00201041
0.0020108
0.00201081
0.00201082
0.00201095
0.00201092
0.00201073
0.00201055
0.00201022
0.00200956
0.00200834
0.0020065
0.00200448
0.00200297
0.00200309
0.00200428
0.00200517
0.00200576
0.00200616
0.00200656
0.00200696
0.0020072
0.0020075
0.00200805
0.00200845
0.00200862
0.00200929
0.00201018
0.00201073
0.00201113
0.00201157
0.00201205
0.0020124
0.0020126
0.00201279
0.00201294
0.002013
0.00201296
0.00201286
0.00201265
0.00201225
0.00201146
0.00201003
0.0020081
0.00200611
0.00200408
0.00200206
0.00200005
0.00199822
0.0019969
0.00199533
0.00199379
0.00199344
0.00199311
0.00199233
0.00199216
0.00199251
0.0019927
0.0019927
0.00199272
0.0019928
0.0019928
0.00199265
0.00199235
0.00199204
0.00199207
0.00199214
0.00199191
0.0019915
0.00199093
0.00199031
0.00198965
0.00198899
0.00198832
0.00198769
0.00198705
0.00198648
0.00198601
0.00198554
0.00198517
0.00198481
0.00198451
0.00198421
0.00198384
0.00198359
0.00198341
0.00198327
0.0019832
0.00198317
0.00198331
0.00198352
0.00198378
0.00198405
0.00198434
0.00198461
0.00198484
0.00198499
0.00198517
0.00198522
0.00198534
0.00198538
0.00198551
0.00198568
0.001986
0.00198639
0.00198699
0.00198759
0.00198832
0.00198918
0.0019901
0.00199122
0.00199248
0.00199367
0.00199481
0.00199584
0.00199679
0.00199762
0.00199835
0.00199901
0.00199954
0.00199996
0.00200025
0.00200049
0.00200067
0.00200079
0.00200087
0.00200093
0.0020011
0.00200142
0.00200186
0.00200239
0.00200302
0.00200361
0.0020041
0.00200452
0.00200479
0.00200509
0.00200521
0.00200527
0.00200519
0.00200513
0.00200501
0.00200489
0.00200477
0.00200476
0.00200476
0.0020048
0.00200479
0.00200478
0.00200486
0.00200499
0.0020052
0.00200534
0.00200535
0.00200519
0.00200486
0.00200442
0.002004
0.00200367
0.00200361
0.00200373
0.00200402
0.00200439
0.00200472
0.00200505
0.0020053
0.00200543
0.00200541
0.0020051
0.0020045
0.00200356
0.00200249
0.00200129
0.00200017
0.00199919
0.00199853
0.00199815
0.00199814
0.00199822
0.00199845
0.00199855
0.0019985
0.00199807
0.00199724
0.00199582
0.00199342
0.0019902
0.00198449
0.00197605
0.00196327
0.00194449
0.00191626
0.00187651
0.00181774
0.00173534
0.00162134
0.00144889
0.00155067
0.0011172
0.0126568
0.013418
0.002
0.002
0.002
0.002
0.002
0.002
0.002
0.002
0.002
0.002
)
;

boundaryField
{
    inlet
    {
        type            calculated;
        value           uniform 0;
    }
    endWall
    {
        type            calculated;
        value           uniform 0;
    }
    sideWall
    {
        type            empty;
    }
}


// ************************************************************************* //
