/*--------------------------------*- C++ -*----------------------------------*\
| =========                 |                                                 |
| \\      /  F ield         | foam-extend: Open Source CFD                    |
|  \\    /   O peration     | Version:     3.2                                |
|   \\  /    A nd           | Web:         http://www.foam-extend.org         |
|    \\/     M anipulation  | For copyright notice see file Copyright         |
\*---------------------------------------------------------------------------*/
FoamFile
{
    version     2.0;
    format      ascii;
    class       areaScalarField;
    location    "120";
    object      Ce1;
}
// * * * * * * * * * * * * * * * * * * * * * * * * * * * * * * * * * * * * * //

dimensions      [1 -3 0 0 0 0 0];

internalField   nonuniform List<scalar> 
550
(
0.00288442
0.00524707
0.00864332
0.0131999
0.018937
0.0257264
0.0333203
0.0413482
0.0494178
0.0571177
0.0641263
0.0701861
0.0751688
0.0790137
0.0817526
0.0834604
0.084263
0.0842964
0.0837114
0.0826809
0.0813077
0.0796798
0.0778729
0.0759516
0.0739728
0.0719826
0.0700179
0.0681133
0.066291
0.0645504
0.0628924
0.0613206
0.059837
0.0584413
0.0571319
0.0559062
0.0547611
0.0536929
0.0526975
0.0517708
0.0509086
0.050107
0.0493616
0.0486682
0.048023
0.0474223
0.046863
0.0463421
0.0458567
0.0454044
0.0449825
0.0445887
0.0442207
0.0438762
0.0435531
0.0432494
0.0429632
0.042693
0.0424379
0.042156
0.0419468
0.0417432
0.0415486
0.0413596
0.0411781
0.0410037
0.0408361
0.0406748
0.0405194
0.0403693
0.0402242
0.0400837
0.0399471
0.0398141
0.0396843
0.0395574
0.0394332
0.0393114
0.0391921
0.0390753
0.0389607
0.0388483
0.038738
0.0386296
0.0385231
0.0384184
0.0383155
0.0382141
0.0381143
0.0380158
0.0379184
0.0378217
0.0377257
0.0376303
0.0375356
0.0374414
0.037348
0.0372554
0.0371638
0.0370731
0.0369831
0.0368937
0.0368046
0.0367157
0.0366268
0.0365379
0.0364488
0.0363595
0.0362699
0.0361799
0.0360895
0.0359985
0.035907
0.0358149
0.0357222
0.0356287
0.0355343
0.0354392
0.0353436
0.0352473
0.0351506
0.0350533
0.0349555
0.0348572
0.0347586
0.0346596
0.0345604
0.0344609
0.0343611
0.0342612
0.0341612
0.0340612
0.0339612
0.0338614
0.0337618
0.0336625
0.0335637
0.0334653
0.0333674
0.0332702
0.0331736
0.0330778
0.0329826
0.0328883
0.0327948
0.0327021
0.0326103
0.0325194
0.0324293
0.03234
0.0322515
0.0321638
0.032077
0.0319909
0.0319057
0.0318213
0.0317377
0.031655
0.031573
0.0314918
0.0314113
0.0313315
0.0312524
0.0311741
0.0310964
0.0310195
0.0309433
0.0308678
0.0307931
0.0307191
0.0306459
0.0305734
0.0305016
0.0304306
0.0303604
0.030291
0.0302223
0.0301545
0.0300875
0.0300213
0.0299559
0.0298915
0.029828
0.0297654
0.0297037
0.029643
0.0295832
0.0295244
0.0294666
0.0294099
0.0293542
0.0292995
0.0292458
0.0291932
0.0291417
0.0290912
0.0290418
0.0289935
0.0289463
0.0289
0.0288547
0.0288104
0.0287671
0.0287247
0.0286832
0.0286426
0.0286029
0.0285641
0.0285262
0.0284891
0.0284528
0.0284173
0.0283825
0.0283486
0.0283155
0.0282831
0.0282516
0.0282209
0.0281911
0.0281621
0.028134
0.0281068
0.0280806
0.0280553
0.0280308
0.028007
0.0279837
0.0279611
0.027939
0.0279174
0.0278963
0.0278758
0.0278558
0.0278364
0.0278174
0.027799
0.027781
0.0277635
0.0277464
0.0277297
0.0277134
0.0276975
0.0276818
0.0276665
0.0276514
0.0276365
0.0276218
0.0276073
0.0275929
0.0275785
0.0275642
0.0275499
0.0275356
0.0275212
0.0275067
0.0274921
0.0274774
0.0274624
0.0274472
0.0274317
0.027416
0.0274
0.0273836
0.0273668
0.0273497
0.0273321
0.0273141
0.0272957
0.027277
0.0272579
0.0272384
0.0272186
0.0271984
0.0271777
0.0271566
0.0271351
0.0271131
0.0270907
0.0270678
0.0270445
0.0270207
0.0269966
0.0269721
0.0269471
0.0269219
0.0268963
0.0268704
0.0268443
0.026818
0.0267914
0.0267647
0.0267378
0.0267108
0.0266836
0.0266564
0.0266292
0.0266018
0.0265745
0.0265472
0.0265198
0.0264925
0.0264651
0.0264378
0.0264105
0.0263832
0.0263559
0.0263286
0.0263012
0.0262739
0.0262465
0.0262191
0.0261918
0.0261645
0.0261373
0.0261101
0.0260832
0.0260564
0.0260298
0.0260035
0.0259775
0.0259517
0.0259262
0.025901
0.025876
0.0258512
0.0258266
0.0258023
0.0257781
0.0257541
0.0257304
0.0257069
0.0256837
0.0256608
0.0256383
0.0256161
0.0255943
0.025573
0.0255522
0.0255317
0.0255117
0.0254921
0.0254729
0.0254539
0.0254352
0.0254168
0.0253985
0.0253803
0.0253621
0.0253439
0.0253256
0.0253071
0.0252885
0.0252696
0.0252503
0.0252308
0.0252111
0.0251911
0.025171
0.0251507
0.0251303
0.0251099
0.0250895
0.0250691
0.0250488
0.0250287
0.0250088
0.0249891
0.0249696
0.0249503
0.0249313
0.0249123
0.0248935
0.0248746
0.0248558
0.0248368
0.0248176
0.0247982
0.0247784
0.0247582
0.0247375
0.0247162
0.0246943
0.0246719
0.0246487
0.0246248
0.0246002
0.0245749
0.0245489
0.0245222
0.024495
0.0244672
0.0244389
0.0244102
0.0243811
0.0243516
0.024322
0.0242921
0.0242621
0.0242319
0.0242017
0.0241714
0.0241411
0.0241109
0.0240807
0.0240506
0.0240205
0.0239904
0.0239603
0.02393
0.0238996
0.023869
0.0238381
0.0238069
0.0237754
0.0237436
0.0237114
0.0236788
0.0236458
0.0236126
0.0235789
0.023545
0.0235108
0.0234763
0.0234415
0.0234065
0.0233712
0.0233356
0.0232999
0.023264
0.0232279
0.0231918
0.0231556
0.0231195
0.0230833
0.0230472
0.0230111
0.022975
0.022939
0.0229031
0.0228671
0.0228312
0.0227952
0.0227593
0.0227234
0.0226875
0.0226518
0.0226163
0.022581
0.0225459
0.0225113
0.022477
0.0224432
0.02241
0.0223774
0.0223454
0.022314
0.0222832
0.0222529
0.0222231
0.0221938
0.0221649
0.0221364
0.0221082
0.0220802
0.0220524
0.0220248
0.0219973
0.02197
0.0219427
0.0219156
0.0218887
0.021862
0.0218356
0.0218095
0.0217836
0.0217579
0.0217324
0.0217071
0.0216819
0.0216567
0.0216316
0.0216065
0.0215813
0.021556
0.0215306
0.0215052
0.0214797
0.0214541
0.0214285
0.0214027
0.0213769
0.0213511
0.0213252
0.0212993
0.0212734
0.0212473
0.021221
0.0211945
0.0211676
0.0211406
0.0211134
0.0210861
0.0210587
0.0210314
0.0210041
0.0209769
0.0209497
0.0209227
0.0208955
0.0208683
0.0208407
0.0208128
0.0207843
0.0207554
0.0207257
0.0206955
0.0206646
0.0206335
0.0206019
0.0205704
0.0205384
0.0205067
0.0204745
0.0204425
0.0204097
0.0203768
0.0203425
0.0203076
0.0202693
0.0202293
0.0201819
0.0201297
0.0200621
0.0199829
0.0198718
0.0197348
0.0195264
0.0192642
0.0186972
0.0181038
0.017758
0.0166525
0.0149932
0.012851
0.0101097
0.00685228
0.00280842
0.000462959
0.000982058
0.0031485
)
;

boundaryField
{
    inlet
    {
        type            calculated;
        value           uniform 0;
    }
    endWall
    {
        type            calculated;
        value           uniform 0;
    }
    sideWall
    {
        type            empty;
    }
}


// ************************************************************************* //
