/*--------------------------------*- C++ -*----------------------------------*\
| =========                 |                                                 |
| \\      /  F ield         | foam-extend: Open Source CFD                    |
|  \\    /   O peration     | Version:     3.2                                |
|   \\  /    A nd           | Web:         http://www.foam-extend.org         |
|    \\/     M anipulation  | For copyright notice see file Copyright         |
\*---------------------------------------------------------------------------*/
FoamFile
{
    version     2.0;
    format      ascii;
    class       areaScalarField;
    location    "120";
    object      ddmax;
}
// * * * * * * * * * * * * * * * * * * * * * * * * * * * * * * * * * * * * * //

dimensions      [0 1 0 0 0 0 0];

internalField   nonuniform List<scalar> 
550
(
0.000405
0.000405
0.000405
0.000405
0.000405
0.000405
0.000405
0.000405
0.000405
0.000405
0.000405
0.000405
0.000405
0.000405
0.000405
0.000405
0.000405
0.000405
0.000405
0.000405
0.000405
0.000405
0.000405
0.000405
0.000405
0.000405
0.000405
0.000405
0.000405
0.000405
0.000405
0.000405
0.000405
0.000405
0.000405
0.000405
0.000405
0.000405
0.000405
0.000405
0.000405
0.000405
0.000405
0.000405
0.000405
0.000405
0.000405
0.000405
0.000405
0.000405
0.000405
0.000405
0.000405
0.000405
0.000405
0.000405
0.000405
0.000405
0.00040501
0.000405021
0.000405268
0.000406952
0.000410736
0.00041535
0.000420072
0.000424795
0.000429424
0.000433944
0.000438354
0.000442664
0.000446883
0.000451027
0.00045511
0.000459142
0.000463125
0.000467054
0.000470919
0.000474705
0.000478405
0.000482028
0.000485584
0.000489077
0.000492509
0.00049588
0.000499192
0.000502446
0.000505648
0.000508806
0.000511933
0.000515046
0.000518156
0.000521255
0.000524336
0.000527391
0.000530411
0.000533387
0.000536308
0.000539172
0.000541998
0.000544815
0.000547639
0.000550478
0.000553338
0.000556221
0.000559126
0.000562053
0.000565
0.000567966
0.000570953
0.000573961
0.000576989
0.000580033
0.000583091
0.000586168
0.000589276
0.000592413
0.000595556
0.000598695
0.000601832
0.000604966
0.000608097
0.000611225
0.000614346
0.000617458
0.000620558
0.000623644
0.000626714
0.000629767
0.0006328
0.000635812
0.000638798
0.000641755
0.000644679
0.000647568
0.000650418
0.000653229
0.000655997
0.000658722
0.000661403
0.000664039
0.000666629
0.000669174
0.000671674
0.000674128
0.000676537
0.000678902
0.000681225
0.000683509
0.000685754
0.000687962
0.000690133
0.000692268
0.000694367
0.00069643
0.000698459
0.000700453
0.000702415
0.000704345
0.000706247
0.000708121
0.000709967
0.000711786
0.000713575
0.000715336
0.000717067
0.000718767
0.000720437
0.000722077
0.000723686
0.000725265
0.000726815
0.000728334
0.000729822
0.000731278
0.000732703
0.000734095
0.000735453
0.000736778
0.000738067
0.00073932
0.000740536
0.000741713
0.000742852
0.000743952
0.000745013
0.000746036
0.000747018
0.000747959
0.000748859
0.000749719
0.000750538
0.000751316
0.000752052
0.000752746
0.000753398
0.000754008
0.000754577
0.000755109
0.000755605
0.000756066
0.000756493
0.000756886
0.000757246
0.000757576
0.000757879
0.000758156
0.000758406
0.000758626
0.00075882
0.000758988
0.00075913
0.000759247
0.000759339
0.000759406
0.00075945
0.000759472
0.00075947
0.000759444
0.000759389
0.000759304
0.000759189
0.000759042
0.000758866
0.000758669
0.000758458
0.000758235
0.000757994
0.000757732
0.000757451
0.000757152
0.000756834
0.000756495
0.000756139
0.000755767
0.000755381
0.000754978
0.000754556
0.000754119
0.000753667
0.000753198
0.000752714
0.000752217
0.000751709
0.00075119
0.000750663
0.000750129
0.000749592
0.000749057
0.000748526
0.000747997
0.000747474
0.000746961
0.000746463
0.000745981
0.000745522
0.000745088
0.00074468
0.000744294
0.000743933
0.000743599
0.000743299
0.000743046
0.000742841
0.000742669
0.000742518
0.000742383
0.000742254
0.000742136
0.000742034
0.000741948
0.00074188
0.000741831
0.000741802
0.000741794
0.000741805
0.000741836
0.000741885
0.000741951
0.000742035
0.000742134
0.000742248
0.000742374
0.000742513
0.000742663
0.000742823
0.000742989
0.000743161
0.000743339
0.000743521
0.000743707
0.000743895
0.000744085
0.000744275
0.000744466
0.000744655
0.000744844
0.00074503
0.000745215
0.000745397
0.000745577
0.000745756
0.000745932
0.000746108
0.000746283
0.000746457
0.00074663
0.000746803
0.000746976
0.000747148
0.000747317
0.000747484
0.000747645
0.0007478
0.000747946
0.000748083
0.000748209
0.000748323
0.000748424
0.000748513
0.00074859
0.000748656
0.000748711
0.000748759
0.000748799
0.000748831
0.000748855
0.000748869
0.000748874
0.000748869
0.000748851
0.00074882
0.000748772
0.000748706
0.000748623
0.000748522
0.000748401
0.000748262
0.000748106
0.000747935
0.000747752
0.000747559
0.000747362
0.000747166
0.000746968
0.000746769
0.000746572
0.000746378
0.00074619
0.00074601
0.000745847
0.000745712
0.000745612
0.000745544
0.000745489
0.000745422
0.000745336
0.000745237
0.000745129
0.000745013
0.00074489
0.000744761
0.000744627
0.000744486
0.000744336
0.000744181
0.000744018
0.000743841
0.000743651
0.000743452
0.000743245
0.000743031
0.000742808
0.000742581
0.00074235
0.000742116
0.000741881
0.000741644
0.00074141
0.000741178
0.000740951
0.000740736
0.00074054
0.000740375
0.000740246
0.000740153
0.000740097
0.000740078
0.000740094
0.000740138
0.000740209
0.000740308
0.000740424
0.000740546
0.000740678
0.000740819
0.000740959
0.000741093
0.000741226
0.000741358
0.00074149
0.000741621
0.000741753
0.000741889
0.000742031
0.000742175
0.000742319
0.000742464
0.000742615
0.000742774
0.000742945
0.000743127
0.000743321
0.000743527
0.000743745
0.000743975
0.000744215
0.000744465
0.000744724
0.00074499
0.000745263
0.000745542
0.000745826
0.000746117
0.000746413
0.000746713
0.000747015
0.00074732
0.000747626
0.000747931
0.000748232
0.000748529
0.000748822
0.000749109
0.000749391
0.000749669
0.000749943
0.000750214
0.000750484
0.000750751
0.000751017
0.000751282
0.000751544
0.000751801
0.000752052
0.000752294
0.000752525
0.000752744
0.000752949
0.000753137
0.000753307
0.000753455
0.000753581
0.000753685
0.00075377
0.000753837
0.000753888
0.000753925
0.000753948
0.000753961
0.000753966
0.000753964
0.000753957
0.000753947
0.000753933
0.000753918
0.000753902
0.000753883
0.00075386
0.00075383
0.000753792
0.000753742
0.000753682
0.000753612
0.000753533
0.000753449
0.000753359
0.000753265
0.00075317
0.000753075
0.000752981
0.000752889
0.000752799
0.000752711
0.000752624
0.000752537
0.00075245
0.000752363
0.000752276
0.000752188
0.000752099
0.000752006
0.00075191
0.000751813
0.000751717
0.000751626
0.000751541
0.000751464
0.000751395
0.000751329
0.000751262
0.000751191
0.000751115
0.000751032
0.000750943
0.000750849
0.000750752
0.000750653
0.000750557
0.00075047
0.000750397
0.000750342
0.000750307
0.000750294
0.0007503
0.000750321
0.000750351
0.000750385
0.000750418
0.000750448
0.000750475
0.000750502
0.000750533
0.000750575
0.000750638
0.000750736
0.000750885
0.000751115
0.000751474
0.000752025
0.000752864
0.00075413
0.000756014
0.000758793
0.000762856
0.000768704
0.000777157
0.000786252
0.000798362
0.000709501
0.000508808
0.000405
0.000405
0.000405
0.000405
0.000405
0.000405
0.000405
0.000405
0.000405
0.000405
)
;

boundaryField
{
    inlet
    {
        type            calculated;
        value           uniform 0;
    }
    endWall
    {
        type            calculated;
        value           uniform 0;
    }
    sideWall
    {
        type            empty;
    }
}


// ************************************************************************* //
