/*--------------------------------*- C++ -*----------------------------------*\
| =========                 |                                                 |
| \\      /  F ield         | foam-extend: Open Source CFD                    |
|  \\    /   O peration     | Version:     3.2                                |
|   \\  /    A nd           | Web:         http://www.foam-extend.org         |
|    \\/     M anipulation  | For copyright notice see file Copyright         |
\*---------------------------------------------------------------------------*/
FoamFile
{
    version     2.0;
    format      ascii;
    class       areaScalarField;
    location    "120";
    object      deltaHb;
}
// * * * * * * * * * * * * * * * * * * * * * * * * * * * * * * * * * * * * * //

dimensions      [0 1 -1 0 0 0 0];

internalField   nonuniform List<scalar> 
550
(
0
0
0
-1.63157e-08
-4.6614e-08
-7.12357e-08
-8.97555e-08
-1.02066e-07
-1.07056e-07
-1.04834e-07
-9.6464e-08
-8.35967e-08
-6.80437e-08
-5.13895e-08
-3.49995e-08
-1.98594e-08
-6.62971e-09
4.37479e-09
1.27965e-08
1.8988e-08
2.3617e-08
2.69042e-08
2.90444e-08
3.02008e-08
3.05335e-08
3.02141e-08
2.93479e-08
2.80609e-08
2.66269e-08
2.52101e-08
2.37804e-08
2.23306e-08
2.08902e-08
1.94851e-08
1.81324e-08
1.68414e-08
1.56181e-08
1.44677e-08
1.33922e-08
1.23892e-08
1.14565e-08
1.05942e-08
9.80071e-09
9.07217e-09
8.40364e-09
7.78846e-09
7.22109e-09
6.69832e-09
6.21728e-09
5.77511e-09
5.36895e-09
4.9971e-09
4.65847e-09
4.35148e-09
4.07401e-09
3.82323e-09
3.59534e-09
3.3907e-09
3.32863e-09
3.10788e-09
2.83796e-09
2.72202e-09
2.52492e-09
2.366e-09
2.2461e-09
2.1401e-09
2.04797e-09
1.9653e-09
1.89094e-09
1.82376e-09
1.7631e-09
1.70841e-09
1.6593e-09
1.61498e-09
1.5745e-09
1.53708e-09
1.50193e-09
1.46813e-09
1.43516e-09
1.40338e-09
1.37311e-09
1.34444e-09
1.31735e-09
1.29181e-09
1.26783e-09
1.24552e-09
1.22503e-09
1.20655e-09
1.19026e-09
1.17658e-09
1.16535e-09
1.15576e-09
1.14728e-09
1.13941e-09
1.13155e-09
1.12329e-09
1.11429e-09
1.10432e-09
1.09447e-09
1.08589e-09
1.07878e-09
1.07347e-09
1.07e-09
1.06827e-09
1.06813e-09
1.06935e-09
1.0717e-09
1.07504e-09
1.07926e-09
1.08419e-09
1.08965e-09
1.09544e-09
1.10126e-09
1.1072e-09
1.11401e-09
1.12139e-09
1.128e-09
1.13374e-09
1.13892e-09
1.14355e-09
1.14774e-09
1.15151e-09
1.15483e-09
1.15766e-09
1.15995e-09
1.16162e-09
1.16262e-09
1.16295e-09
1.16254e-09
1.16135e-09
1.15934e-09
1.1565e-09
1.1528e-09
1.14828e-09
1.14294e-09
1.13683e-09
1.13004e-09
1.1226e-09
1.11455e-09
1.10599e-09
1.09696e-09
1.08754e-09
1.07777e-09
1.0677e-09
1.05739e-09
1.04695e-09
1.03646e-09
1.02598e-09
1.01555e-09
1.00514e-09
9.94716e-10
9.84278e-10
9.73774e-10
9.63192e-10
9.52565e-10
9.41918e-10
9.31288e-10
9.2074e-10
9.10311e-10
8.99981e-10
8.89696e-10
8.79435e-10
8.69181e-10
8.58879e-10
8.48514e-10
8.38077e-10
8.27573e-10
8.17023e-10
8.0648e-10
7.95983e-10
7.85528e-10
7.75106e-10
7.64692e-10
7.54325e-10
7.44066e-10
7.33879e-10
7.23745e-10
7.13721e-10
7.03803e-10
6.93957e-10
6.8416e-10
6.74401e-10
6.64659e-10
6.54921e-10
6.45214e-10
6.3554e-10
6.25859e-10
6.16138e-10
6.06427e-10
5.96796e-10
5.87213e-10
5.77648e-10
5.68111e-10
5.58604e-10
5.49088e-10
5.39547e-10
5.30035e-10
5.20634e-10
5.1136e-10
5.02156e-10
4.9299e-10
4.83867e-10
4.74813e-10
4.65821e-10
4.56789e-10
4.47657e-10
4.38572e-10
4.29638e-10
4.20756e-10
4.12001e-10
4.03711e-10
3.95926e-10
3.8836e-10
3.80799e-10
3.73111e-10
3.65154e-10
3.56833e-10
3.48241e-10
3.39417e-10
3.30375e-10
3.21183e-10
3.1189e-10
3.02583e-10
2.9368e-10
2.85421e-10
2.77662e-10
2.70394e-10
2.63522e-10
2.56784e-10
2.50084e-10
2.43488e-10
2.36954e-10
2.3046e-10
2.24035e-10
2.17739e-10
2.1165e-10
2.05755e-10
1.9997e-10
1.94313e-10
1.88888e-10
1.83647e-10
1.78502e-10
1.73483e-10
1.68632e-10
1.63965e-10
1.59572e-10
1.55501e-10
1.51638e-10
1.47995e-10
1.44696e-10
1.41744e-10
1.39027e-10
1.36594e-10
1.34553e-10
1.32792e-10
1.31269e-10
1.30096e-10
1.29457e-10
1.294e-10
1.29808e-10
1.30679e-10
1.31615e-10
1.32522e-10
1.33994e-10
1.35887e-10
1.38071e-10
1.40735e-10
1.43583e-10
1.46504e-10
1.49646e-10
1.53019e-10
1.56677e-10
1.60646e-10
1.64915e-10
1.69455e-10
1.74166e-10
1.78994e-10
1.83967e-10
1.89018e-10
1.94096e-10
1.99148e-10
2.04138e-10
2.09096e-10
2.13956e-10
2.18638e-10
2.23112e-10
2.27387e-10
2.31473e-10
2.35343e-10
2.38994e-10
2.42437e-10
2.45673e-10
2.4867e-10
2.51435e-10
2.53963e-10
2.56232e-10
2.58295e-10
2.60173e-10
2.61929e-10
2.63538e-10
2.65058e-10
2.66541e-10
2.67979e-10
2.69402e-10
2.70782e-10
2.72124e-10
2.73455e-10
2.74708e-10
2.75849e-10
2.76905e-10
2.77789e-10
2.78453e-10
2.78892e-10
2.79087e-10
2.79056e-10
2.78765e-10
2.78225e-10
2.77497e-10
2.76596e-10
2.75557e-10
2.7445e-10
2.73328e-10
2.72249e-10
2.71198e-10
2.70162e-10
2.69083e-10
2.6792e-10
2.66656e-10
2.65277e-10
2.63733e-10
2.61917e-10
2.59804e-10
2.57421e-10
2.54792e-10
2.51928e-10
2.48849e-10
2.45639e-10
2.42381e-10
2.39143e-10
2.36035e-10
2.33137e-10
2.3045e-10
2.27946e-10
2.25767e-10
2.24038e-10
2.22728e-10
2.21821e-10
2.21424e-10
2.21599e-10
2.22264e-10
2.23181e-10
2.24014e-10
2.24521e-10
2.24961e-10
2.2581e-10
2.268e-10
2.27435e-10
2.27658e-10
2.2757e-10
2.27209e-10
2.26424e-10
2.25092e-10
2.23382e-10
2.21371e-10
2.18863e-10
2.16028e-10
2.1324e-10
2.10483e-10
2.07729e-10
2.05128e-10
2.02841e-10
2.00947e-10
1.99414e-10
1.98314e-10
1.97767e-10
1.97834e-10
1.98506e-10
1.99753e-10
2.01576e-10
2.03979e-10
2.06905e-10
2.1017e-10
2.13581e-10
2.17116e-10
2.20779e-10
2.24476e-10
2.28023e-10
2.31284e-10
2.34389e-10
2.37261e-10
2.39507e-10
2.41435e-10
2.43403e-10
2.44965e-10
2.46052e-10
2.47071e-10
2.48087e-10
2.48949e-10
2.49636e-10
2.50171e-10
2.50557e-10
2.50853e-10
2.51066e-10
2.51192e-10
2.51486e-10
2.52195e-10
2.53277e-10
2.54652e-10
2.56335e-10
2.58335e-10
2.60576e-10
2.63008e-10
2.65576e-10
2.68261e-10
2.71054e-10
2.73888e-10
2.76721e-10
2.79504e-10
2.82213e-10
2.84823e-10
2.87307e-10
2.89734e-10
2.92166e-10
2.94604e-10
2.97027e-10
2.99444e-10
3.01889e-10
3.04292e-10
3.06566e-10
3.08652e-10
3.10527e-10
3.12201e-10
3.13698e-10
3.15043e-10
3.16297e-10
3.17506e-10
3.18729e-10
3.19995e-10
3.21297e-10
3.22612e-10
3.23862e-10
3.24959e-10
3.25816e-10
3.26317e-10
3.26372e-10
3.25971e-10
3.25125e-10
3.23849e-10
3.22106e-10
3.19853e-10
3.17079e-10
3.13832e-10
3.10281e-10
3.06609e-10
3.02892e-10
2.99234e-10
2.95712e-10
2.92354e-10
2.89208e-10
2.8635e-10
2.83805e-10
2.81588e-10
2.79677e-10
2.7803e-10
2.76696e-10
2.75655e-10
2.74738e-10
2.73773e-10
2.72623e-10
2.7118e-10
2.69394e-10
2.67304e-10
2.64996e-10
2.62624e-10
2.60234e-10
2.57882e-10
2.55651e-10
2.53635e-10
2.51884e-10
2.504e-10
2.49176e-10
2.48216e-10
2.47428e-10
2.46725e-10
2.46017e-10
2.45279e-10
2.44519e-10
2.43767e-10
2.42975e-10
2.42101e-10
2.41127e-10
2.40124e-10
2.39185e-10
2.38506e-10
2.38139e-10
2.38155e-10
2.38481e-10
2.38977e-10
2.39358e-10
2.39475e-10
2.3914e-10
2.3846e-10
2.37432e-10
2.36271e-10
2.34986e-10
2.33791e-10
2.32732e-10
2.32128e-10
2.32062e-10
2.32857e-10
2.34452e-10
2.36921e-10
2.39934e-10
2.43451e-10
2.46951e-10
2.50303e-10
2.52983e-10
2.55111e-10
2.56407e-10
2.57276e-10
2.5766e-10
2.58198e-10
2.59122e-10
2.6117e-10
2.64628e-10
2.71324e-10
2.80233e-10
2.97633e-10
3.20263e-10
3.6009e-10
4.13114e-10
5.00858e-10
6.16902e-10
8.0149e-10
1.04521e-09
1.37642e-09
1.88047e-09
9.43804e-10
2.07417e-09
6.03725e-09
7.88462e-09
9.30458e-09
8.00974e-09
2.76403e-09
0
0
0
0
0
0
)
;

boundaryField
{
    inlet
    {
        type            zeroGradient;
    }
    endWall
    {
        type            zeroGradient;
    }
    sideWall
    {
        type            empty;
    }
}


// ************************************************************************* //
