/*--------------------------------*- C++ -*----------------------------------*\
| =========                 |                                                 |
| \\      /  F ield         | foam-extend: Open Source CFD                    |
|  \\    /   O peration     | Version:     3.2                                |
|   \\  /    A nd           | Web:         http://www.foam-extend.org         |
|    \\/     M anipulation  | For copyright notice see file Copyright         |
\*---------------------------------------------------------------------------*/
FoamFile
{
    version     2.0;
    format      ascii;
    class       areaScalarField;
    location    "120";
    object      deltaHs1;
}
// * * * * * * * * * * * * * * * * * * * * * * * * * * * * * * * * * * * * * //

dimensions      [0 1 -1 0 0 0 0];

internalField   nonuniform List<scalar> 
550
(
6.39524e-08
5.99011e-08
5.40775e-08
4.62641e-08
3.64267e-08
2.47848e-08
1.17634e-08
-2.00229e-09
-1.58394e-08
-2.90426e-08
-4.10603e-08
-5.14512e-08
-5.99952e-08
-6.65881e-08
-7.12845e-08
-7.4213e-08
-7.55893e-08
-7.56465e-08
-7.46434e-08
-7.28763e-08
-7.05217e-08
-6.77303e-08
-6.4632e-08
-6.13375e-08
-5.79443e-08
-5.45317e-08
-5.11628e-08
-4.7897e-08
-4.47722e-08
-4.17876e-08
-3.89446e-08
-3.62494e-08
-3.37053e-08
-3.13121e-08
-2.90669e-08
-2.69652e-08
-2.50016e-08
-2.31699e-08
-2.14632e-08
-1.98741e-08
-1.83958e-08
-1.70212e-08
-1.5743e-08
-1.45541e-08
-1.34477e-08
-1.24177e-08
-1.14586e-08
-1.05654e-08
-9.73319e-09
-8.9575e-09
-8.23405e-09
-7.55881e-09
-6.9278e-09
-6.33715e-09
-5.78315e-09
-5.26234e-09
-4.77168e-09
-4.30831e-09
-3.87083e-09
-3.38749e-09
-3.00858e-09
-2.64387e-09
-2.29783e-09
-1.96429e-09
-1.64609e-09
-1.34253e-09
-1.05265e-09
-7.75474e-10
-5.09996e-10
-2.55243e-10
-1.02967e-11
2.25725e-10
4.53745e-10
6.74655e-10
8.89206e-10
1.09799e-09
1.30153e-09
1.50012e-09
1.69377e-09
1.88266e-09
2.06708e-09
2.24732e-09
2.42359e-09
2.5961e-09
2.76498e-09
2.93037e-09
3.09243e-09
3.25137e-09
3.40739e-09
3.56082e-09
3.71226e-09
3.86204e-09
4.01031e-09
4.15723e-09
4.30283e-09
4.44708e-09
4.5899e-09
4.731e-09
4.87005e-09
5.00733e-09
5.14318e-09
5.27786e-09
5.41168e-09
5.54492e-09
5.6778e-09
5.81053e-09
5.94325e-09
6.07608e-09
6.20914e-09
6.34258e-09
6.47653e-09
6.6111e-09
6.7464e-09
6.8823e-09
7.01889e-09
7.15663e-09
7.29554e-09
7.4353e-09
7.57579e-09
7.71695e-09
7.85873e-09
8.00108e-09
8.14395e-09
8.28727e-09
8.43097e-09
8.57496e-09
8.71916e-09
8.8635e-09
9.00792e-09
9.15233e-09
9.29663e-09
9.4407e-09
9.58441e-09
9.72762e-09
9.87017e-09
1.00119e-08
1.01528e-08
1.02925e-08
1.04312e-08
1.05686e-08
1.07047e-08
1.08393e-08
1.09726e-08
1.11043e-08
1.12345e-08
1.13631e-08
1.14901e-08
1.16155e-08
1.17394e-08
1.18618e-08
1.19828e-08
1.21022e-08
1.22202e-08
1.23368e-08
1.24519e-08
1.25655e-08
1.26778e-08
1.27886e-08
1.2898e-08
1.30061e-08
1.3113e-08
1.32186e-08
1.3323e-08
1.34262e-08
1.35281e-08
1.36289e-08
1.37283e-08
1.38266e-08
1.39235e-08
1.40192e-08
1.41136e-08
1.42067e-08
1.42985e-08
1.43891e-08
1.44783e-08
1.45662e-08
1.46527e-08
1.47378e-08
1.48215e-08
1.49038e-08
1.49845e-08
1.50637e-08
1.51413e-08
1.52172e-08
1.52915e-08
1.53642e-08
1.54351e-08
1.55044e-08
1.55718e-08
1.56374e-08
1.57013e-08
1.57633e-08
1.58235e-08
1.58818e-08
1.59382e-08
1.59928e-08
1.60455e-08
1.60963e-08
1.61453e-08
1.61926e-08
1.62382e-08
1.6282e-08
1.63243e-08
1.63649e-08
1.64039e-08
1.64414e-08
1.64774e-08
1.65119e-08
1.6545e-08
1.65766e-08
1.66069e-08
1.66358e-08
1.66634e-08
1.66897e-08
1.67147e-08
1.67384e-08
1.67607e-08
1.67816e-08
1.68011e-08
1.68192e-08
1.68359e-08
1.68511e-08
1.68648e-08
1.68769e-08
1.68878e-08
1.68976e-08
1.69066e-08
1.69147e-08
1.69219e-08
1.69284e-08
1.69342e-08
1.69391e-08
1.69433e-08
1.69466e-08
1.69493e-08
1.69512e-08
1.69525e-08
1.69532e-08
1.69533e-08
1.69529e-08
1.6952e-08
1.69506e-08
1.69489e-08
1.69469e-08
1.69446e-08
1.6942e-08
1.69393e-08
1.69366e-08
1.69338e-08
1.6931e-08
1.69283e-08
1.69257e-08
1.69234e-08
1.69213e-08
1.69194e-08
1.6918e-08
1.6917e-08
1.69164e-08
1.69164e-08
1.6917e-08
1.69182e-08
1.692e-08
1.69225e-08
1.69258e-08
1.69299e-08
1.69348e-08
1.69406e-08
1.69471e-08
1.69543e-08
1.69622e-08
1.69709e-08
1.69804e-08
1.69906e-08
1.70016e-08
1.70134e-08
1.70262e-08
1.70398e-08
1.70542e-08
1.70695e-08
1.70857e-08
1.71026e-08
1.71204e-08
1.71389e-08
1.71581e-08
1.7178e-08
1.71985e-08
1.72195e-08
1.72411e-08
1.72632e-08
1.72856e-08
1.73085e-08
1.73317e-08
1.73552e-08
1.73789e-08
1.74029e-08
1.74271e-08
1.74514e-08
1.74758e-08
1.75003e-08
1.75249e-08
1.75496e-08
1.75743e-08
1.75991e-08
1.76239e-08
1.76488e-08
1.76738e-08
1.76989e-08
1.77241e-08
1.77494e-08
1.77747e-08
1.78002e-08
1.78257e-08
1.78511e-08
1.78765e-08
1.79018e-08
1.79269e-08
1.79517e-08
1.79761e-08
1.80002e-08
1.80239e-08
1.80471e-08
1.80699e-08
1.80922e-08
1.81141e-08
1.81357e-08
1.81569e-08
1.81777e-08
1.81982e-08
1.82182e-08
1.82378e-08
1.8257e-08
1.82757e-08
1.82937e-08
1.83111e-08
1.83278e-08
1.83436e-08
1.83587e-08
1.83729e-08
1.83863e-08
1.83989e-08
1.84107e-08
1.84218e-08
1.84324e-08
1.84424e-08
1.84519e-08
1.84611e-08
1.84701e-08
1.84789e-08
1.84877e-08
1.84966e-08
1.85056e-08
1.8515e-08
1.85247e-08
1.85348e-08
1.85453e-08
1.85562e-08
1.85673e-08
1.85787e-08
1.85902e-08
1.86018e-08
1.86135e-08
1.86251e-08
1.86366e-08
1.86478e-08
1.86587e-08
1.86692e-08
1.86794e-08
1.8689e-08
1.86983e-08
1.87073e-08
1.87161e-08
1.87247e-08
1.87332e-08
1.87419e-08
1.87507e-08
1.87599e-08
1.87696e-08
1.87799e-08
1.87909e-08
1.88028e-08
1.88157e-08
1.88296e-08
1.88445e-08
1.88607e-08
1.88781e-08
1.88968e-08
1.89166e-08
1.89377e-08
1.89599e-08
1.89831e-08
1.90072e-08
1.90322e-08
1.90579e-08
1.90842e-08
1.91111e-08
1.91384e-08
1.91661e-08
1.9194e-08
1.92221e-08
1.92503e-08
1.92786e-08
1.93069e-08
1.93351e-08
1.93632e-08
1.93913e-08
1.94193e-08
1.94473e-08
1.94754e-08
1.95037e-08
1.95323e-08
1.95613e-08
1.95907e-08
1.96207e-08
1.96513e-08
1.96825e-08
1.97143e-08
1.97467e-08
1.97798e-08
1.98135e-08
1.98478e-08
1.98827e-08
1.99181e-08
1.99539e-08
1.99903e-08
2.00272e-08
2.00645e-08
2.01022e-08
2.01403e-08
2.01787e-08
2.02173e-08
2.02561e-08
2.0295e-08
2.03339e-08
2.03727e-08
2.04115e-08
2.04503e-08
2.0489e-08
2.05276e-08
2.05661e-08
2.06047e-08
2.06432e-08
2.06818e-08
2.07203e-08
2.07588e-08
2.07972e-08
2.08354e-08
2.08733e-08
2.09109e-08
2.0948e-08
2.09845e-08
2.10204e-08
2.10555e-08
2.10897e-08
2.11229e-08
2.11551e-08
2.11864e-08
2.12167e-08
2.12462e-08
2.12749e-08
2.13028e-08
2.13301e-08
2.13569e-08
2.13832e-08
2.14092e-08
2.14348e-08
2.14602e-08
2.14855e-08
2.15106e-08
2.15355e-08
2.15602e-08
2.15846e-08
2.16086e-08
2.16322e-08
2.16554e-08
2.16781e-08
2.17004e-08
2.17225e-08
2.17442e-08
2.17657e-08
2.17872e-08
2.18086e-08
2.183e-08
2.18515e-08
2.18731e-08
2.18948e-08
2.19165e-08
2.19384e-08
2.19603e-08
2.19824e-08
2.20045e-08
2.20267e-08
2.20488e-08
2.20709e-08
2.2093e-08
2.21152e-08
2.21375e-08
2.21601e-08
2.2183e-08
2.22063e-08
2.223e-08
2.22539e-08
2.22778e-08
2.23018e-08
2.23256e-08
2.23493e-08
2.23728e-08
2.23962e-08
2.24193e-08
2.24425e-08
2.24657e-08
2.24895e-08
2.25137e-08
2.2539e-08
2.25649e-08
2.25921e-08
2.26199e-08
2.26489e-08
2.26781e-08
2.27081e-08
2.27379e-08
2.27683e-08
2.27983e-08
2.2829e-08
2.28594e-08
2.28908e-08
2.29225e-08
2.29564e-08
2.29911e-08
2.30313e-08
2.30741e-08
2.31288e-08
2.31911e-08
2.32783e-08
2.33835e-08
2.35408e-08
2.37383e-08
2.40554e-08
2.44551e-08
2.53724e-08
2.65385e-08
2.72594e-08
2.92667e-08
3.22095e-08
3.5965e-08
4.07389e-08
4.63825e-08
5.33851e-08
5.78552e-08
5.73605e-08
5.36624e-08
)
;

boundaryField
{
    inlet
    {
        type            zeroGradient;
    }
    endWall
    {
        type            zeroGradient;
    }
    sideWall
    {
        type            empty;
    }
}


// ************************************************************************* //
