/*--------------------------------*- C++ -*----------------------------------*\
| =========                 |                                                 |
| \\      /  F ield         | foam-extend: Open Source CFD                    |
|  \\    /   O peration     | Version:     3.2                                |
|   \\  /    A nd           | Web:         http://www.foam-extend.org         |
|    \\/     M anipulation  | For copyright notice see file Copyright         |
\*---------------------------------------------------------------------------*/
FoamFile
{
    version     2.0;
    format      ascii;
    class       areaScalarField;
    location    "120";
    object      deltaH;
}
// * * * * * * * * * * * * * * * * * * * * * * * * * * * * * * * * * * * * * //

dimensions      [0 1 -1 0 0 0 0];

internalField   nonuniform List<scalar> 
550
(
0
0
0
0
0
0
0
0
0
0
0
0
0
0
0
0
0
0
0
0
0
0
0
0
0
0
0
0
0
0
0
0
0
0
0
0
0
0
0
0
0
0
0
0
0
0
0
0
0
0
0
0
0
0
0
0
0
0
0
0
-1.7062e-10
7.81457e-11
2.27087e-10
4.01705e-10
6.00009e-10
7.97569e-10
9.95312e-10
1.18982e-09
1.38094e-09
1.56852e-09
1.7528e-09
1.93414e-09
2.11304e-09
2.28963e-09
2.46371e-09
2.63507e-09
2.80347e-09
2.96825e-09
3.12894e-09
3.28604e-09
3.44019e-09
3.59176e-09
3.74095e-09
3.8879e-09
4.03281e-09
4.17589e-09
4.31746e-09
4.45791e-09
4.59764e-09
4.73741e-09
4.87761e-09
5.01779e-09
5.15759e-09
5.29664e-09
5.43438e-09
5.57037e-09
5.70419e-09
5.83531e-09
5.96452e-09
6.09322e-09
6.22196e-09
6.35133e-09
6.48169e-09
6.61319e-09
6.74593e-09
6.87988e-09
7.01495e-09
7.15112e-09
7.2884e-09
7.42677e-09
7.56618e-09
7.70654e-09
7.84766e-09
7.9895e-09
8.13289e-09
8.27802e-09
8.42355e-09
8.56904e-09
8.71471e-09
8.8605e-09
9.00647e-09
9.1526e-09
9.29878e-09
9.44493e-09
9.59092e-09
9.73658e-09
9.88179e-09
1.00265e-08
1.01705e-08
1.03137e-08
1.0456e-08
1.05972e-08
1.07372e-08
1.08759e-08
1.10131e-08
1.11488e-08
1.12828e-08
1.14151e-08
1.15457e-08
1.16746e-08
1.18016e-08
1.19269e-08
1.20503e-08
1.2172e-08
1.22919e-08
1.241e-08
1.25265e-08
1.26415e-08
1.2755e-08
1.2867e-08
1.29775e-08
1.30865e-08
1.3194e-08
1.33e-08
1.34044e-08
1.35075e-08
1.3609e-08
1.37093e-08
1.38083e-08
1.39061e-08
1.40027e-08
1.4098e-08
1.41922e-08
1.4285e-08
1.43766e-08
1.44669e-08
1.45559e-08
1.46436e-08
1.473e-08
1.48151e-08
1.48991e-08
1.49818e-08
1.50632e-08
1.51434e-08
1.52223e-08
1.53e-08
1.53764e-08
1.54515e-08
1.55253e-08
1.55977e-08
1.56687e-08
1.57381e-08
1.58059e-08
1.58722e-08
1.59368e-08
1.59997e-08
1.6061e-08
1.61205e-08
1.61782e-08
1.62342e-08
1.62885e-08
1.63409e-08
1.63916e-08
1.64404e-08
1.64873e-08
1.65324e-08
1.65755e-08
1.66169e-08
1.66567e-08
1.66947e-08
1.67311e-08
1.67659e-08
1.67991e-08
1.68307e-08
1.68607e-08
1.68891e-08
1.6916e-08
1.69415e-08
1.69657e-08
1.69886e-08
1.70106e-08
1.70318e-08
1.70518e-08
1.70705e-08
1.70878e-08
1.71035e-08
1.71175e-08
1.71298e-08
1.71405e-08
1.71496e-08
1.7157e-08
1.71629e-08
1.71673e-08
1.71706e-08
1.71732e-08
1.71753e-08
1.7177e-08
1.71782e-08
1.71787e-08
1.71785e-08
1.71776e-08
1.71761e-08
1.71737e-08
1.71707e-08
1.7167e-08
1.71629e-08
1.71583e-08
1.71532e-08
1.71476e-08
1.71417e-08
1.71356e-08
1.71291e-08
1.71224e-08
1.71155e-08
1.71085e-08
1.71016e-08
1.70948e-08
1.70882e-08
1.70818e-08
1.70757e-08
1.707e-08
1.70648e-08
1.706e-08
1.70558e-08
1.70522e-08
1.70493e-08
1.70471e-08
1.70459e-08
1.70458e-08
1.70468e-08
1.70489e-08
1.70516e-08
1.7055e-08
1.70598e-08
1.70658e-08
1.70729e-08
1.70813e-08
1.70906e-08
1.71008e-08
1.71119e-08
1.71239e-08
1.7137e-08
1.71512e-08
1.71665e-08
1.71829e-08
1.72004e-08
1.72188e-08
1.72382e-08
1.72586e-08
1.72798e-08
1.73018e-08
1.73245e-08
1.73479e-08
1.7372e-08
1.73966e-08
1.74216e-08
1.74469e-08
1.74726e-08
1.74985e-08
1.75246e-08
1.75509e-08
1.75774e-08
1.76039e-08
1.76304e-08
1.76569e-08
1.76833e-08
1.77097e-08
1.7736e-08
1.77622e-08
1.77885e-08
1.78146e-08
1.78408e-08
1.7867e-08
1.78933e-08
1.79196e-08
1.79459e-08
1.79724e-08
1.79988e-08
1.80252e-08
1.80516e-08
1.8078e-08
1.81041e-08
1.813e-08
1.81556e-08
1.81809e-08
1.82056e-08
1.82299e-08
1.82536e-08
1.82768e-08
1.82995e-08
1.83216e-08
1.83432e-08
1.83645e-08
1.83853e-08
1.84059e-08
1.8426e-08
1.84456e-08
1.84648e-08
1.84835e-08
1.85016e-08
1.8519e-08
1.85355e-08
1.85511e-08
1.85659e-08
1.85797e-08
1.85925e-08
1.86043e-08
1.86153e-08
1.86254e-08
1.86349e-08
1.86439e-08
1.86523e-08
1.86603e-08
1.86681e-08
1.8676e-08
1.86838e-08
1.86919e-08
1.87003e-08
1.87093e-08
1.87188e-08
1.87288e-08
1.8739e-08
1.87492e-08
1.87597e-08
1.87711e-08
1.8783e-08
1.87948e-08
1.88063e-08
1.88178e-08
1.88291e-08
1.88399e-08
1.88502e-08
1.886e-08
1.88692e-08
1.88776e-08
1.88853e-08
1.88926e-08
1.88995e-08
1.89061e-08
1.89125e-08
1.89189e-08
1.89256e-08
1.89326e-08
1.89402e-08
1.89485e-08
1.89577e-08
1.89681e-08
1.89796e-08
1.89925e-08
1.90068e-08
1.90226e-08
1.90397e-08
1.90581e-08
1.90778e-08
1.90989e-08
1.91213e-08
1.91447e-08
1.9169e-08
1.91943e-08
1.92203e-08
1.92467e-08
1.92736e-08
1.93013e-08
1.93292e-08
1.93572e-08
1.93855e-08
1.94142e-08
1.94429e-08
1.94717e-08
1.95005e-08
1.95292e-08
1.95577e-08
1.95862e-08
1.96144e-08
1.96428e-08
1.96715e-08
1.97006e-08
1.97301e-08
1.97601e-08
1.97907e-08
1.98219e-08
1.98538e-08
1.98863e-08
1.99195e-08
1.99535e-08
1.99882e-08
2.00235e-08
2.00593e-08
2.00958e-08
2.01327e-08
2.017e-08
2.02078e-08
2.02461e-08
2.02849e-08
2.03242e-08
2.0364e-08
2.04041e-08
2.04446e-08
2.04853e-08
2.0526e-08
2.05666e-08
2.06072e-08
2.06476e-08
2.06878e-08
2.07278e-08
2.07678e-08
2.08077e-08
2.08476e-08
2.08874e-08
2.09273e-08
2.09671e-08
2.10068e-08
2.10462e-08
2.10851e-08
2.11236e-08
2.11614e-08
2.11984e-08
2.12347e-08
2.12701e-08
2.13044e-08
2.13375e-08
2.13693e-08
2.13999e-08
2.14295e-08
2.1458e-08
2.14856e-08
2.15124e-08
2.15386e-08
2.15641e-08
2.15892e-08
2.16139e-08
2.16385e-08
2.16629e-08
2.16872e-08
2.17115e-08
2.17359e-08
2.17602e-08
2.17844e-08
2.18081e-08
2.18314e-08
2.1854e-08
2.18759e-08
2.18972e-08
2.1918e-08
2.19383e-08
2.19583e-08
2.19781e-08
2.19978e-08
2.20176e-08
2.20376e-08
2.20578e-08
2.20782e-08
2.20989e-08
2.21198e-08
2.21408e-08
2.21618e-08
2.21829e-08
2.22041e-08
2.22254e-08
2.22466e-08
2.22678e-08
2.2289e-08
2.23101e-08
2.23315e-08
2.23533e-08
2.23756e-08
2.23985e-08
2.24219e-08
2.24457e-08
2.24694e-08
2.2493e-08
2.25163e-08
2.25392e-08
2.25619e-08
2.25843e-08
2.26066e-08
2.26289e-08
2.26514e-08
2.26746e-08
2.26986e-08
2.2724e-08
2.27507e-08
2.27789e-08
2.28084e-08
2.2839e-08
2.28702e-08
2.29019e-08
2.29332e-08
2.29645e-08
2.29952e-08
2.3026e-08
2.30565e-08
2.30881e-08
2.31206e-08
2.31555e-08
2.31939e-08
2.32366e-08
2.32888e-08
2.33515e-08
2.34342e-08
2.35419e-08
2.36919e-08
2.38952e-08
2.4185e-08
2.45861e-08
2.51147e-08
2.59359e-08
2.53989e-08
2.74466e-08
0
0
0
0
0
0
0
0
0
0
0
)
;

boundaryField
{
    inlet
    {
        type            zeroGradient;
    }
    endWall
    {
        type            zeroGradient;
    }
    sideWall
    {
        type            empty;
    }
}


// ************************************************************************* //
