/*--------------------------------*- C++ -*----------------------------------*\
| =========                 |                                                 |
| \\      /  F ield         | foam-extend: Open Source CFD                    |
|  \\    /   O peration     | Version:     3.2                                |
|   \\  /    A nd           | Web:         http://www.foam-extend.org         |
|    \\/     M anipulation  | For copyright notice see file Copyright         |
\*---------------------------------------------------------------------------*/
FoamFile
{
    version     2.0;
    format      ascii;
    class       areaScalarField;
    location    "120";
    object      Fi1;
}
// * * * * * * * * * * * * * * * * * * * * * * * * * * * * * * * * * * * * * //

dimensions      [0 1 -1 0 0 0 0];

internalField   nonuniform List<scalar> 
550
(
6.39524e-08
5.99011e-08
5.40775e-08
2.99485e-08
-1.01874e-08
-4.6451e-08
-7.79922e-08
-1.04069e-07
-1.22896e-07
-1.33877e-07
-1.37525e-07
-1.35048e-07
-1.2804e-07
-1.17978e-07
-1.06285e-07
-9.40729e-08
-8.22194e-08
-7.12721e-08
-6.18472e-08
-5.38885e-08
-4.69049e-08
-4.08263e-08
-3.55878e-08
-3.1137e-08
-2.74111e-08
-2.43179e-08
-2.18152e-08
-1.98364e-08
-1.81456e-08
-1.65778e-08
-1.51644e-08
-1.3919e-08
-1.28153e-08
-1.18273e-08
-1.09347e-08
-1.01241e-08
-9.38386e-09
-8.7027e-09
-8.07148e-09
-7.4853e-09
-6.93971e-09
-6.42746e-09
-5.94275e-09
-5.48238e-09
-5.04454e-09
-4.62966e-09
-4.23791e-09
-3.86745e-09
-3.51629e-09
-3.18275e-09
-2.86542e-09
-2.562e-09
-2.26957e-09
-1.98586e-09
-1.7093e-09
-1.43925e-09
-1.17647e-09
-9.1774e-10
-5.4254e-10
-2.79419e-10
-1.69913e-10
7.81939e-11
2.27143e-10
4.0177e-10
6.00086e-10
7.97659e-10
9.95415e-10
1.18994e-09
1.38107e-09
1.56865e-09
1.75293e-09
1.93426e-09
2.11316e-09
2.28973e-09
2.46379e-09
2.63514e-09
2.80351e-09
2.96827e-09
3.12893e-09
3.28602e-09
3.44016e-09
3.59171e-09
3.7409e-09
3.88785e-09
4.03276e-09
4.17585e-09
4.31743e-09
4.4579e-09
4.59764e-09
4.73742e-09
4.87763e-09
5.01782e-09
5.15762e-09
5.29667e-09
5.43441e-09
5.5704e-09
5.70421e-09
5.83532e-09
5.96451e-09
6.09321e-09
6.22194e-09
6.35131e-09
6.48167e-09
6.61317e-09
6.74591e-09
6.87985e-09
7.01493e-09
7.15109e-09
7.28837e-09
7.42674e-09
7.56615e-09
7.70651e-09
7.84763e-09
7.98947e-09
8.13287e-09
8.27799e-09
8.42352e-09
8.56901e-09
8.71469e-09
8.86048e-09
9.00645e-09
9.15258e-09
9.29877e-09
9.44493e-09
9.59092e-09
9.73659e-09
9.88179e-09
1.00265e-08
1.01705e-08
1.03137e-08
1.0456e-08
1.05972e-08
1.07372e-08
1.08759e-08
1.10131e-08
1.11488e-08
1.12828e-08
1.14152e-08
1.15458e-08
1.16746e-08
1.18016e-08
1.19269e-08
1.20503e-08
1.2172e-08
1.22919e-08
1.241e-08
1.25266e-08
1.26415e-08
1.2755e-08
1.2867e-08
1.29775e-08
1.30865e-08
1.3194e-08
1.33e-08
1.34044e-08
1.35074e-08
1.3609e-08
1.37093e-08
1.38083e-08
1.39061e-08
1.40027e-08
1.4098e-08
1.41922e-08
1.4285e-08
1.43766e-08
1.44669e-08
1.45559e-08
1.46436e-08
1.473e-08
1.48151e-08
1.48991e-08
1.49818e-08
1.50632e-08
1.51434e-08
1.52223e-08
1.53e-08
1.53764e-08
1.54515e-08
1.55253e-08
1.55977e-08
1.56687e-08
1.57381e-08
1.5806e-08
1.58722e-08
1.59368e-08
1.59998e-08
1.6061e-08
1.61205e-08
1.61783e-08
1.62343e-08
1.62885e-08
1.6341e-08
1.63916e-08
1.64404e-08
1.64874e-08
1.65324e-08
1.65756e-08
1.6617e-08
1.66567e-08
1.66947e-08
1.67311e-08
1.67659e-08
1.67991e-08
1.68307e-08
1.68607e-08
1.68891e-08
1.6916e-08
1.69415e-08
1.69657e-08
1.69886e-08
1.70106e-08
1.70317e-08
1.70518e-08
1.70705e-08
1.70878e-08
1.71035e-08
1.71174e-08
1.71298e-08
1.71405e-08
1.71495e-08
1.7157e-08
1.71629e-08
1.71673e-08
1.71706e-08
1.71732e-08
1.71753e-08
1.71769e-08
1.71782e-08
1.71787e-08
1.71785e-08
1.71776e-08
1.7176e-08
1.71737e-08
1.71707e-08
1.7167e-08
1.71629e-08
1.71583e-08
1.71532e-08
1.71476e-08
1.71418e-08
1.71356e-08
1.71291e-08
1.71224e-08
1.71155e-08
1.71085e-08
1.71016e-08
1.70949e-08
1.70882e-08
1.70818e-08
1.70757e-08
1.70701e-08
1.70648e-08
1.706e-08
1.70558e-08
1.70522e-08
1.70493e-08
1.70471e-08
1.70459e-08
1.70458e-08
1.70468e-08
1.70488e-08
1.70516e-08
1.7055e-08
1.70598e-08
1.70658e-08
1.70729e-08
1.70813e-08
1.70906e-08
1.71008e-08
1.71119e-08
1.71239e-08
1.7137e-08
1.71512e-08
1.71665e-08
1.71829e-08
1.72004e-08
1.72188e-08
1.72382e-08
1.72586e-08
1.72798e-08
1.73018e-08
1.73245e-08
1.73479e-08
1.7372e-08
1.73966e-08
1.74216e-08
1.74469e-08
1.74726e-08
1.74985e-08
1.75246e-08
1.75509e-08
1.75774e-08
1.76039e-08
1.76304e-08
1.76569e-08
1.76833e-08
1.77097e-08
1.7736e-08
1.77623e-08
1.77885e-08
1.78146e-08
1.78408e-08
1.7867e-08
1.78933e-08
1.79196e-08
1.79459e-08
1.79723e-08
1.79988e-08
1.80252e-08
1.80516e-08
1.80779e-08
1.81041e-08
1.813e-08
1.81556e-08
1.81808e-08
1.82056e-08
1.82299e-08
1.82536e-08
1.82768e-08
1.82994e-08
1.83215e-08
1.83432e-08
1.83644e-08
1.83853e-08
1.84059e-08
1.8426e-08
1.84456e-08
1.84648e-08
1.84835e-08
1.85016e-08
1.8519e-08
1.85355e-08
1.85512e-08
1.85659e-08
1.85797e-08
1.85925e-08
1.86044e-08
1.86153e-08
1.86255e-08
1.8635e-08
1.86439e-08
1.86523e-08
1.86603e-08
1.86682e-08
1.8676e-08
1.86839e-08
1.86919e-08
1.87004e-08
1.87093e-08
1.87188e-08
1.87288e-08
1.8739e-08
1.87492e-08
1.87597e-08
1.87711e-08
1.87829e-08
1.87947e-08
1.88063e-08
1.88177e-08
1.8829e-08
1.88399e-08
1.88502e-08
1.886e-08
1.88692e-08
1.88775e-08
1.88852e-08
1.88926e-08
1.88995e-08
1.8906e-08
1.89124e-08
1.89189e-08
1.89256e-08
1.89326e-08
1.89401e-08
1.89484e-08
1.89577e-08
1.89681e-08
1.89796e-08
1.89925e-08
1.90068e-08
1.90226e-08
1.90397e-08
1.90581e-08
1.90779e-08
1.90989e-08
1.91213e-08
1.91447e-08
1.9169e-08
1.91943e-08
1.92203e-08
1.92467e-08
1.92736e-08
1.93013e-08
1.93292e-08
1.93572e-08
1.93855e-08
1.94142e-08
1.94429e-08
1.94717e-08
1.95005e-08
1.95292e-08
1.95577e-08
1.95862e-08
1.96144e-08
1.96428e-08
1.96715e-08
1.97006e-08
1.97301e-08
1.97601e-08
1.97906e-08
1.98219e-08
1.98537e-08
1.98863e-08
1.99195e-08
1.99535e-08
1.99881e-08
2.00234e-08
2.00593e-08
2.00957e-08
2.01326e-08
2.017e-08
2.02078e-08
2.02461e-08
2.02849e-08
2.03242e-08
2.0364e-08
2.04041e-08
2.04446e-08
2.04853e-08
2.0526e-08
2.05667e-08
2.06072e-08
2.06476e-08
2.06878e-08
2.07279e-08
2.07678e-08
2.08077e-08
2.08476e-08
2.08874e-08
2.09273e-08
2.09671e-08
2.10068e-08
2.10462e-08
2.10852e-08
2.11236e-08
2.11614e-08
2.11984e-08
2.12347e-08
2.12701e-08
2.13044e-08
2.13375e-08
2.13693e-08
2.13999e-08
2.14295e-08
2.1458e-08
2.14856e-08
2.15124e-08
2.15385e-08
2.15641e-08
2.15892e-08
2.16139e-08
2.16385e-08
2.16629e-08
2.16872e-08
2.17115e-08
2.17358e-08
2.17602e-08
2.17843e-08
2.18081e-08
2.18314e-08
2.1854e-08
2.18759e-08
2.18972e-08
2.1918e-08
2.19383e-08
2.19583e-08
2.19781e-08
2.19978e-08
2.20176e-08
2.20376e-08
2.20578e-08
2.20782e-08
2.20989e-08
2.21198e-08
2.21408e-08
2.21618e-08
2.21829e-08
2.22041e-08
2.22254e-08
2.22466e-08
2.22678e-08
2.22889e-08
2.23101e-08
2.23315e-08
2.23533e-08
2.23756e-08
2.23985e-08
2.2422e-08
2.24457e-08
2.24695e-08
2.2493e-08
2.25163e-08
2.25393e-08
2.25619e-08
2.25843e-08
2.26066e-08
2.26289e-08
2.26514e-08
2.26746e-08
2.26986e-08
2.2724e-08
2.27507e-08
2.27789e-08
2.28084e-08
2.2839e-08
2.28702e-08
2.29019e-08
2.29332e-08
2.29645e-08
2.29952e-08
2.3026e-08
2.30565e-08
2.30881e-08
2.31206e-08
2.31555e-08
2.31939e-08
2.32366e-08
2.32887e-08
2.33515e-08
2.34342e-08
2.35419e-08
2.36919e-08
2.38952e-08
2.4185e-08
2.45861e-08
2.51148e-08
2.59359e-08
2.53991e-08
2.74467e-08
3.25757e-08
3.5144e-08
3.85714e-08
4.02192e-08
3.8729e-08
4.0739e-08
4.63826e-08
5.33851e-08
5.78552e-08
5.73605e-08
5.36624e-08
)
;

boundaryField
{
    inlet
    {
        type            calculated;
        value           uniform 0;
    }
    endWall
    {
        type            calculated;
        value           uniform 0;
    }
    sideWall
    {
        type            empty;
    }
}


// ************************************************************************* //
