/*--------------------------------*- C++ -*----------------------------------*\
| =========                 |                                                 |
| \\      /  F ield         | foam-extend: Open Source CFD                    |
|  \\    /   O peration     | Version:     3.2                                |
|   \\  /    A nd           | Web:         http://www.foam-extend.org         |
|    \\/     M anipulation  | For copyright notice see file Copyright         |
\*---------------------------------------------------------------------------*/
FoamFile
{
    version     2.0;
    format      ascii;
    class       volScalarField;
    location    "120";
    object      k;
}
// * * * * * * * * * * * * * * * * * * * * * * * * * * * * * * * * * * * * * //

dimensions      [0 2 -2 0 0 0 0];

internalField   nonuniform List<scalar> 
33000
(
0.000162373
0.000222159
0.000293913
0.000376596
0.000468045
0.000564958
0.000663674
0.000760142
0.000850977
0.000933127
0.00100474
0.00106457
0.00111248
0.00114874
0.0011742
0.00118994
0.0011973
0.0011976
0.00119224
0.00118277
0.00117009
0.00115496
0.00113804
0.00111991
0.00110108
0.00108197
0.00106293
0.0010443
0.00102632
0.00100898
0.000992325
0.000976398
0.000961239
0.000946863
0.000933273
0.000920456
0.000908397
0.000897072
0.000886452
0.000876503
0.000867195
0.000858492
0.000850358
0.000842756
0.000835648
0.000829003
0.000822789
0.000816981
0.000811549
0.00080647
0.000801717
0.000797267
0.000793097
0.000789183
0.000785503
0.000782035
0.000778761
0.000775663
0.000772728
0.000769932
0.000767262
0.000764744
0.000762395
0.000760186
0.000758095
0.000756106
0.000754204
0.000752379
0.000750624
0.00074893
0.000747291
0.000745701
0.000744156
0.000742651
0.000741182
0.000739745
0.000738339
0.000736962
0.000735614
0.000734296
0.000733006
0.000731743
0.000730505
0.00072929
0.000728097
0.000726924
0.000725768
0.000724628
0.000723501
0.000722387
0.00072128
0.00072018
0.000719085
0.000717994
0.000716906
0.000715822
0.000714743
0.000713668
0.000712602
0.000711542
0.000710487
0.000709435
0.000708385
0.000707335
0.000706282
0.000705225
0.000704163
0.000703095
0.000702019
0.000700934
0.000699841
0.000698739
0.000697628
0.00069651
0.000695383
0.000694246
0.0006931
0.000691945
0.000690783
0.000689614
0.000688439
0.000687257
0.00068607
0.000684878
0.00068368
0.000682479
0.000681274
0.000680066
0.000678856
0.000677646
0.000676436
0.000675226
0.000674019
0.000672813
0.000671611
0.000670412
0.000669218
0.000668028
0.000666844
0.000665665
0.000664492
0.000663326
0.000662167
0.000661015
0.00065987
0.000658733
0.000657604
0.000656483
0.000655371
0.000654266
0.000653171
0.000652084
0.000651006
0.000649937
0.000648878
0.000647829
0.00064679
0.00064576
0.000644742
0.000643734
0.000642737
0.00064175
0.000640776
0.000639813
0.000638861
0.000637922
0.000636996
0.000636081
0.000635179
0.00063429
0.000633413
0.000632549
0.000631698
0.000630859
0.000630032
0.000629217
0.000628413
0.000627621
0.000626839
0.000626067
0.000625304
0.000624551
0.000623806
0.000623069
0.000622341
0.00062162
0.000620906
0.0006202
0.000619501
0.000618809
0.000618123
0.000617442
0.000616768
0.000616099
0.000615436
0.000614778
0.000614125
0.000613478
0.000612837
0.000612202
0.000611573
0.000610951
0.000610336
0.000609728
0.000609127
0.000608535
0.000607952
0.000607377
0.000606811
0.000606254
0.000605706
0.000605166
0.000604632
0.000604104
0.000603582
0.000603068
0.000602561
0.000602062
0.000601572
0.000601091
0.00060062
0.000600159
0.000599707
0.000599266
0.000598836
0.000598416
0.000598007
0.000597608
0.000597219
0.00059684
0.000596471
0.000596113
0.000595763
0.000595424
0.000595094
0.000594773
0.000594462
0.000594161
0.000593868
0.000593586
0.000593313
0.000593049
0.000592797
0.000592554
0.000592322
0.000592101
0.000591891
0.000591691
0.000591502
0.000591323
0.000591155
0.000590996
0.000590848
0.000590709
0.000590579
0.000590458
0.000590346
0.000590241
0.000590143
0.000590052
0.000589965
0.000589884
0.000589807
0.000589733
0.000589661
0.000589591
0.000589521
0.000589451
0.00058938
0.000589307
0.000589232
0.000589153
0.00058907
0.000588983
0.00058889
0.000588791
0.000588686
0.000588574
0.000588454
0.000588327
0.000588191
0.000588046
0.000587893
0.000587731
0.000587559
0.000587379
0.000587189
0.000586989
0.000586781
0.000586563
0.000586336
0.000586101
0.000585856
0.000585604
0.000585343
0.000585074
0.000584798
0.000584514
0.000584224
0.000583926
0.000583622
0.000583312
0.000582996
0.000582673
0.000582344
0.000582009
0.000581669
0.000581324
0.000580973
0.000580617
0.000580257
0.000579893
0.000579524
0.00057915
0.000578773
0.000578391
0.000578004
0.000577614
0.000577219
0.000576821
0.000576418
0.000576012
0.000575603
0.00057519
0.000574775
0.000574357
0.000573937
0.000573515
0.000573092
0.000572667
0.000572241
0.000571814
0.000571387
0.000570959
0.000570531
0.000570103
0.000569675
0.000569247
0.00056882
0.000568394
0.000567968
0.000567544
0.000567122
0.0005667
0.000566281
0.000565862
0.000565445
0.000565029
0.000564614
0.0005642
0.000563787
0.000563375
0.000562966
0.000562558
0.000562153
0.000561749
0.000561347
0.000560947
0.00056055
0.000560156
0.000559766
0.000559379
0.000558996
0.000558616
0.000558242
0.000557871
0.000557506
0.000557145
0.00055679
0.000556441
0.000556097
0.00055576
0.000555429
0.000555104
0.000554786
0.000554474
0.000554168
0.000553867
0.000553571
0.00055328
0.000552994
0.000552712
0.000552434
0.00055216
0.000551891
0.000551625
0.000551363
0.000551106
0.000550852
0.000550601
0.000550355
0.000550112
0.000549872
0.000549635
0.0005494
0.000549167
0.000548935
0.000548703
0.000548472
0.000548239
0.000548006
0.00054777
0.000547533
0.000547293
0.00054705
0.000546803
0.000546551
0.000546296
0.000546037
0.000545774
0.000545507
0.000545236
0.000544962
0.000544686
0.000544406
0.000544124
0.000543839
0.000543551
0.000543261
0.000542967
0.00054267
0.000542369
0.000542066
0.000541759
0.000541448
0.000541132
0.000540811
0.000540483
0.000540148
0.000539805
0.000539454
0.000539095
0.000538726
0.000538349
0.000537963
0.000537567
0.000537163
0.000536749
0.000536326
0.000535894
0.000535454
0.000535004
0.000534547
0.000534083
0.000533612
0.000533135
0.000532653
0.000532165
0.000531674
0.000531177
0.000530677
0.000530173
0.000529664
0.000529153
0.000528637
0.000528118
0.000527595
0.000527069
0.000526541
0.000526009
0.000525475
0.000524939
0.0005244
0.00052386
0.000523318
0.000522773
0.000522227
0.000521679
0.000521129
0.000520578
0.000520025
0.000519473
0.000518921
0.000518371
0.000517823
0.000517278
0.000516736
0.000516199
0.000515667
0.000515139
0.000514617
0.0005141
0.000513587
0.00051308
0.000512577
0.00051208
0.000511588
0.000511101
0.000510621
0.000510146
0.000509677
0.000509214
0.000508755
0.000508303
0.000507854
0.000507411
0.000506972
0.000506539
0.000506111
0.00050569
0.000505272
0.000504861
0.000504455
0.000504054
0.000503656
0.000503264
0.000502874
0.000502489
0.000502105
0.000501725
0.000501346
0.000500971
0.000500595
0.000500223
0.000499848
0.000499476
0.000499101
0.000498727
0.00049835
0.000497975
0.000497597
0.000497224
0.000496848
0.000496475
0.000496096
0.000495716
0.00049532
0.000494917
0.000494471
0.000494007
0.000493448
0.000492838
0.000492027
0.000491092
0.000489744
0.000488149
0.000485669
0.000482975
0.000476451
0.000465197
0.000450878
0.000432914
0.000406399
0.000370647
0.000321832
0.000257559
0.000160223
7.64289e-05
0.000100492
0.000170755
0.000113486
0.000116977
0.000122716
0.00012994
0.000139484
0.000150428
0.000162266
0.000174785
0.000188309
0.000202097
0.000216298
0.000230173
0.000243621
0.000256419
0.000268763
0.000280746
0.000292622
0.00030495
0.000318045
0.000332047
0.000347352
0.000364069
0.000380419
0.000396843
0.000413742
0.000431477
0.000450327
0.000469709
0.000488541
0.000506804
0.000524432
0.000541354
0.000557528
0.000572912
0.000587474
0.000601193
0.000614066
0.0006261
0.000637315
0.000647736
0.000657393
0.000666324
0.000674572
0.000682177
0.000689188
0.000695646
0.000701643
0.00070721
0.000712367
0.000717134
0.000721525
0.000725553
0.000729231
0.000732568
0.00073558
0.000738281
0.000740683
0.000742813
0.00074469
0.000746342
0.000747794
0.000749027
0.00075005
0.00075089
0.000751563
0.000752085
0.000752465
0.000752714
0.00075284
0.000752851
0.000752754
0.000752557
0.000752264
0.000751883
0.000751416
0.000750872
0.000750254
0.00074957
0.000748823
0.000748022
0.000747173
0.000746282
0.000745354
0.000744394
0.000743408
0.0007424
0.000741373
0.000740331
0.000739273
0.000738201
0.000737112
0.000736006
0.00073488
0.000733732
0.000732561
0.00073136
0.000730129
0.000728862
0.000727558
0.000726215
0.000724832
0.000723409
0.000721948
0.000720448
0.000718912
0.000717341
0.000715736
0.0007141
0.000712436
0.000710746
0.000709034
0.000707301
0.000705552
0.00070379
0.00070202
0.000700242
0.000698456
0.000696668
0.000694882
0.000693099
0.000691324
0.000689558
0.000687805
0.000686066
0.000684344
0.000682639
0.000680954
0.00067929
0.000677648
0.00067603
0.000674437
0.000672871
0.000671331
0.000669819
0.000668336
0.000666883
0.000665459
0.000664066
0.000662703
0.00066137
0.000660066
0.000658793
0.000657549
0.000656335
0.000655149
0.000653992
0.000652862
0.000651759
0.000650681
0.000649629
0.0006486
0.000647595
0.000646614
0.000645655
0.000644718
0.000643803
0.00064291
0.000642038
0.000641187
0.000640356
0.000639545
0.000638753
0.000637981
0.000637227
0.000636491
0.000635774
0.000635074
0.000634391
0.000633726
0.000633079
0.000632447
0.000631832
0.000631233
0.000630649
0.000630081
0.000629527
0.000628987
0.000628461
0.000627947
0.000627445
0.000626953
0.000626471
0.000625997
0.000625531
0.000625072
0.000624621
0.000624176
0.000623739
0.000623309
0.000622885
0.000622467
0.000622054
0.000621647
0.000621244
0.000620844
0.000620448
0.000620056
0.000619667
0.000619283
0.000618903
0.000618529
0.000618161
0.000617799
0.000617445
0.000617098
0.000616758
0.000616426
0.000616102
0.000615787
0.000615481
0.00061518
0.000614873
0.000614565
0.00061426
0.000613962
0.000613674
0.000613398
0.000613135
0.000612886
0.000612653
0.000612436
0.000612235
0.000612051
0.000611884
0.000611734
0.0006116
0.000611482
0.000611379
0.000611292
0.000611218
0.000611159
0.000611112
0.000611079
0.000611057
0.000611048
0.000611051
0.000611065
0.000611089
0.000611124
0.000611169
0.000611223
0.000611286
0.000611359
0.00061144
0.00061153
0.000611628
0.000611733
0.000611845
0.000611962
0.000612084
0.00061221
0.000612338
0.000612469
0.000612601
0.000612734
0.000612866
0.000612997
0.000613126
0.000613251
0.000613371
0.000613486
0.000613593
0.000613691
0.000613781
0.00061386
0.000613929
0.000613986
0.000614031
0.000614063
0.00061408
0.000614083
0.00061407
0.000614041
0.000613994
0.000613931
0.00061385
0.000613752
0.000613636
0.000613503
0.000613353
0.000613186
0.000613001
0.000612801
0.000612583
0.000612349
0.000612099
0.000611833
0.000611551
0.000611255
0.000610945
0.000610621
0.000610284
0.000609934
0.000609571
0.000609197
0.000608811
0.000608415
0.000608009
0.000607594
0.00060717
0.000606738
0.000606299
0.000605854
0.000605402
0.000604944
0.00060448
0.000604012
0.000603539
0.000603062
0.000602582
0.000602099
0.000601613
0.000601125
0.000600635
0.000600142
0.000599648
0.000599151
0.000598654
0.000598155
0.000597655
0.000597156
0.000596656
0.000596157
0.000595659
0.000595162
0.000594668
0.000594176
0.000593687
0.000593201
0.000592718
0.000592239
0.000591763
0.000591291
0.000590824
0.00059036
0.0005899
0.000589445
0.000588994
0.000588547
0.000588106
0.000587669
0.000587238
0.000586812
0.000586392
0.000585977
0.000585566
0.00058516
0.000584759
0.000584361
0.000583966
0.000583575
0.000583188
0.000582803
0.000582421
0.000582043
0.000581669
0.000581299
0.000580934
0.000580573
0.000580218
0.000579869
0.000579527
0.000579191
0.000578863
0.000578543
0.000578231
0.000577927
0.000577632
0.000577347
0.000577071
0.000576806
0.000576551
0.000576306
0.00057607
0.000575843
0.000575624
0.000575412
0.000575205
0.000575003
0.000574805
0.000574609
0.000574414
0.000574221
0.000574029
0.000573837
0.000573646
0.000573455
0.000573263
0.000573071
0.000572879
0.000572687
0.000572494
0.000572301
0.000572106
0.000571909
0.000571709
0.000571505
0.000571296
0.000571079
0.000570855
0.000570622
0.00057038
0.000570128
0.000569866
0.000569592
0.000569305
0.000569006
0.000568694
0.000568369
0.000568031
0.000567682
0.000567322
0.000566955
0.000566581
0.000566201
0.000565816
0.000565427
0.000565033
0.000564635
0.000564232
0.000563824
0.000563412
0.000562995
0.000562574
0.000562148
0.000561716
0.000561277
0.00056083
0.000560373
0.000559905
0.000559425
0.000558935
0.000558432
0.000557919
0.000557397
0.000556865
0.000556325
0.000555778
0.000555223
0.00055466
0.000554089
0.000553511
0.000552926
0.000552335
0.000551739
0.000551139
0.000550537
0.000549934
0.00054933
0.000548726
0.000548122
0.000547517
0.000546912
0.000546306
0.000545699
0.000545091
0.000544481
0.00054387
0.000543258
0.000542647
0.000542036
0.000541426
0.000540818
0.000540213
0.000539611
0.000539012
0.000538416
0.000537823
0.000537232
0.000536643
0.000536055
0.000535472
0.000534892
0.000534318
0.00053375
0.000533191
0.000532639
0.000532099
0.000531568
0.000531051
0.000530542
0.000530047
0.00052956
0.000529084
0.000528616
0.000528158
0.000527706
0.000527265
0.000526828
0.000526405
0.000525985
0.000525578
0.000525173
0.000524782
0.00052439
0.000524011
0.000523631
0.000523264
0.000522893
0.000522535
0.00052217
0.00052182
0.000521461
0.000521118
0.000520763
0.000520428
0.000520076
0.000519748
0.000519399
0.000519076
0.000518727
0.000518408
0.000518057
0.000517739
0.000517385
0.000517066
0.000516704
0.000516381
0.000516008
0.000515677
0.000515298
0.000514968
0.000514592
0.000514277
0.000513915
0.000513615
0.000513266
0.000512978
0.000512646
0.000512382
0.000512068
0.000511839
0.000511542
0.000511359
0.000511041
0.000510753
0.000510434
0.000507869
0.00050671
0.000509011
0.000508613
0.00050769
0.000503487
0.000499016
0.000482323
0.000446312
0.000402106
0.000296739
0.000159369
0.000202434
0.000111388
0.000111938
0.000113074
0.000114267
0.000115557
0.000116877
0.000118302
0.00011969
0.000121165
0.000122557
0.000124008
0.000125339
0.000126577
0.000127706
0.000128798
0.000129861
0.000131001
0.000132238
0.000133653
0.000135282
0.000137194
0.000139477
0.000142152
0.000145262
0.000148868
0.000153059
0.000157958
0.000163629
0.000170131
0.000177579
0.000186062
0.000195668
0.000206469
0.000217797
0.00022935
0.000241099
0.000253013
0.000265061
0.000277211
0.00028943
0.000301684
0.000313918
0.000326124
0.000338283
0.000350395
0.000362448
0.000374235
0.000385739
0.00039696
0.0004079
0.000418553
0.000428916
0.00043898
0.00044873
0.000458154
0.000467232
0.000475949
0.00048429
0.000492255
0.000499844
0.000507052
0.000513898
0.000520398
0.000526579
0.000532461
0.000538056
0.000543378
0.000548437
0.000553243
0.000557803
0.000562125
0.000566211
0.000570066
0.000573692
0.000577093
0.000580271
0.000583231
0.00058598
0.000588525
0.000590876
0.000593044
0.000595039
0.000596871
0.000598549
0.000600084
0.000601483
0.000602754
0.000603903
0.000604935
0.000605857
0.000606671
0.000607381
0.000607992
0.000608509
0.000608947
0.000609311
0.000609556
0.000609675
0.000609684
0.000609592
0.000609403
0.000609125
0.000608763
0.000608326
0.00060782
0.000607251
0.000606627
0.000605953
0.000605234
0.000604475
0.000603681
0.000602857
0.000602006
0.000601134
0.000600245
0.00059934
0.00059842
0.00059749
0.000596555
0.000595617
0.000594681
0.00059375
0.000592826
0.000591912
0.000591012
0.000590126
0.000589257
0.000588406
0.000587574
0.000586763
0.000585974
0.000585208
0.000584465
0.000583747
0.000583052
0.000582383
0.000581738
0.000581118
0.000580522
0.000579951
0.000579403
0.000578879
0.000578378
0.000577899
0.000577444
0.00057701
0.000576597
0.000576206
0.000575834
0.000575482
0.000575147
0.000574831
0.000574531
0.000574249
0.000573982
0.000573731
0.000573496
0.000573276
0.000573071
0.00057288
0.000572703
0.000572539
0.000572389
0.000572251
0.000572127
0.000572015
0.000571916
0.00057183
0.000571757
0.000571697
0.000571651
0.000571617
0.000571596
0.000571589
0.000571593
0.00057161
0.000571638
0.000571678
0.000571729
0.000571789
0.000571858
0.000571935
0.000572017
0.000572104
0.000572196
0.000572291
0.00057239
0.000572492
0.000572596
0.000572703
0.000572812
0.000572924
0.000573037
0.000573151
0.000573266
0.00057338
0.000573495
0.000573609
0.000573723
0.000573838
0.000573955
0.000574075
0.000574198
0.000574327
0.00057446
0.000574601
0.000574748
0.000574902
0.000575065
0.000575237
0.000575418
0.000575606
0.000575803
0.000576008
0.000576222
0.000576446
0.000576682
0.00057693
0.000577191
0.000577466
0.000577756
0.00057806
0.00057838
0.000578716
0.000579068
0.000579435
0.000579818
0.000580217
0.00058063
0.000581058
0.0005815
0.000581955
0.000582423
0.000582905
0.000583398
0.000583904
0.000584421
0.00058495
0.000585491
0.000586041
0.000586602
0.000587172
0.00058775
0.000588337
0.000588931
0.000589531
0.000590135
0.000590743
0.000591352
0.000591962
0.00059257
0.000593175
0.000593776
0.000594372
0.000594961
0.000595541
0.000596112
0.000596673
0.000597221
0.000597755
0.000598274
0.000598777
0.000599262
0.000599728
0.000600174
0.000600599
0.000601002
0.000601383
0.00060174
0.000602073
0.000602379
0.00060266
0.000602912
0.000603137
0.000603334
0.000603501
0.00060364
0.00060375
0.000603832
0.000603886
0.000603912
0.000603911
0.000603883
0.000603827
0.000603745
0.000603636
0.000603502
0.000603343
0.000603159
0.000602952
0.000602723
0.000602471
0.000602199
0.000601906
0.000601594
0.000601264
0.000600917
0.000600554
0.000600175
0.000599782
0.000599376
0.000598958
0.000598528
0.000598088
0.000597637
0.000597178
0.00059671
0.000596235
0.000595752
0.000595264
0.00059477
0.000594271
0.000593768
0.00059326
0.000592749
0.000592234
0.000591716
0.000591195
0.000590673
0.000590149
0.000589625
0.0005891
0.000588577
0.000588054
0.000587534
0.000587016
0.000586501
0.00058599
0.000585483
0.00058498
0.000584481
0.000583988
0.000583499
0.000583016
0.000582538
0.000582067
0.000581601
0.000581141
0.000580688
0.000580242
0.000579803
0.000579371
0.000578947
0.00057853
0.00057812
0.000577717
0.00057732
0.00057693
0.000576546
0.000576168
0.000575795
0.000575428
0.000575065
0.000574707
0.000574355
0.000574009
0.000573669
0.000573336
0.000573011
0.000572695
0.000572388
0.000572092
0.000571806
0.000571533
0.000571272
0.000571024
0.000570789
0.000570568
0.00057036
0.000570168
0.000569989
0.000569824
0.000569673
0.000569533
0.000569406
0.000569288
0.000569178
0.000569074
0.000568976
0.00056888
0.000568786
0.000568693
0.000568599
0.000568503
0.000568406
0.000568308
0.000568207
0.000568104
0.000567999
0.000567892
0.000567782
0.000567669
0.000567552
0.000567432
0.000567306
0.000567173
0.000567032
0.000566881
0.000566717
0.00056654
0.000566348
0.000566139
0.000565913
0.000565668
0.000565403
0.000565118
0.000564813
0.000564488
0.000564143
0.000563779
0.000563398
0.000563002
0.000562593
0.000562172
0.000561743
0.000561306
0.000560862
0.000560412
0.000559956
0.000559495
0.000559027
0.000558553
0.000558072
0.000557584
0.000557088
0.000556583
0.000556067
0.000555539
0.000554997
0.00055444
0.000553867
0.000553277
0.000552671
0.000552049
0.000551412
0.000550761
0.000550097
0.000549421
0.000548734
0.000548038
0.000547332
0.000546617
0.000545895
0.000545166
0.000544431
0.000543692
0.000542949
0.000542204
0.000541456
0.000540706
0.000539955
0.000539203
0.000538449
0.000537693
0.000536937
0.000536178
0.000535418
0.000534657
0.000533896
0.000533136
0.000532377
0.00053162
0.000530866
0.000530117
0.000529372
0.000528633
0.000527899
0.00052717
0.000526447
0.000525729
0.000525016
0.000524311
0.000523613
0.000522925
0.000522246
0.000521579
0.000520926
0.000520286
0.000519664
0.000519057
0.00051847
0.000517899
0.000517348
0.000516813
0.000516296
0.000515795
0.000515309
0.000514838
0.00051438
0.000513936
0.000513504
0.000513084
0.000512677
0.000512278
0.000511892
0.000511513
0.000511144
0.000510783
0.00051043
0.000510082
0.000509741
0.000509403
0.000509071
0.00050874
0.000508414
0.000508088
0.000507768
0.000507447
0.000507131
0.000506814
0.000506501
0.000506186
0.000505872
0.000505554
0.000505235
0.000504911
0.000504583
0.000504248
0.000503908
0.000503561
0.000503209
0.000502857
0.000502503
0.000502159
0.000501821
0.000501499
0.000501189
0.000500901
0.000500631
0.000500395
0.00050019
0.000500034
0.000499922
0.000499884
0.000499921
0.000499955
0.000500414
0.000499417
0.000498771
0.000501897
0.000505297
0.0005084
0.000511768
0.000515567
0.000518215
0.000506033
0.000493034
0.000438801
0.000285412
0.000242475
0.000111202
0.000111475
0.000112071
0.000112691
0.000113297
0.000113851
0.000114188
0.000114387
0.000114444
0.000114423
0.000114313
0.000114137
0.000113888
0.000113573
0.000113203
0.000112779
0.000112321
0.000111839
0.000111334
0.000110822
0.000110318
0.000109837
0.00010939
0.000108995
0.000108664
0.000108427
0.00010831
0.00010834
0.00010855
0.000108971
0.000109642
0.000110592
0.000111855
0.000113441
0.000115353
0.000117597
0.000120178
0.000123101
0.000126378
0.000130016
0.000134037
0.000138505
0.00014346
0.000148945
0.000155005
0.000161694
0.000168799
0.000176096
0.00018358
0.000191248
0.000199096
0.000207123
0.000215326
0.0002237
0.000232235
0.000240914
0.000249717
0.000258597
0.00026753
0.000276481
0.000285405
0.000294205
0.000302833
0.000311302
0.000319617
0.000327774
0.000335767
0.000343586
0.000351227
0.000358685
0.000365954
0.000373032
0.000379914
0.000386597
0.000393075
0.000399347
0.000405408
0.000411258
0.000416896
0.000422323
0.000427544
0.000432561
0.000437377
0.000441995
0.000446418
0.000450649
0.000454691
0.000458547
0.000462221
0.000465717
0.000469041
0.000472204
0.000475211
0.000478072
0.000480741
0.000483213
0.000485503
0.000487631
0.0004896
0.000491422
0.000493106
0.000494665
0.000496109
0.00049745
0.000498696
0.000499855
0.000500933
0.000501936
0.000502869
0.000503737
0.000504544
0.000505293
0.000505991
0.000506641
0.000507249
0.000507811
0.000508336
0.00050883
0.000509297
0.00050974
0.000510163
0.000510568
0.00051096
0.000511341
0.000511715
0.000512085
0.000512452
0.000512817
0.000513184
0.000513552
0.000513923
0.000514299
0.000514679
0.000515065
0.000515457
0.000515854
0.000516258
0.000516668
0.000517084
0.000517505
0.000517931
0.000518362
0.000518797
0.000519236
0.00051968
0.000520127
0.000520579
0.000521034
0.000521493
0.000521954
0.000522419
0.000522886
0.000523355
0.000523827
0.000524301
0.000524778
0.000525257
0.000525738
0.000526221
0.000526706
0.000527193
0.000527681
0.000528171
0.000528663
0.000529156
0.000529653
0.000530153
0.000530658
0.000531167
0.000531683
0.000532205
0.000532734
0.000533271
0.000533816
0.00053437
0.000534932
0.000535502
0.000536081
0.000536668
0.000537262
0.000537863
0.000538468
0.000539077
0.000539688
0.0005403
0.000540912
0.000541524
0.000542135
0.000542744
0.000543352
0.000543957
0.00054456
0.000545161
0.000545758
0.000546352
0.000546943
0.000547529
0.000548112
0.000548691
0.000549267
0.000549842
0.000550418
0.000550994
0.000551573
0.000552157
0.000552747
0.000553343
0.000553947
0.00055456
0.000555183
0.000555817
0.000556462
0.000557118
0.000557787
0.000558468
0.000559162
0.00055987
0.000560594
0.000561332
0.000562087
0.000562858
0.000563645
0.00056445
0.000565271
0.000566109
0.000566964
0.000567836
0.000568724
0.000569628
0.000570548
0.000571482
0.000572431
0.000573395
0.000574372
0.000575362
0.000576365
0.000577382
0.00057841
0.000579451
0.000580502
0.000581564
0.000582635
0.000583713
0.000584798
0.000585886
0.000586977
0.000588068
0.000589156
0.00059024
0.000591315
0.000592381
0.000593436
0.000594476
0.000595501
0.000596509
0.000597498
0.000598466
0.000599412
0.000600335
0.000601232
0.000602104
0.000602949
0.000603765
0.000604551
0.000605307
0.000606032
0.000606724
0.000607384
0.000608008
0.000608598
0.000609151
0.000609668
0.000610146
0.000610587
0.000610988
0.000611351
0.000611675
0.000611961
0.000612209
0.000612419
0.000612593
0.000612729
0.000612829
0.000612893
0.000612921
0.000612915
0.000612873
0.000612798
0.000612691
0.000612552
0.000612382
0.000612184
0.000611958
0.000611706
0.000611428
0.000611127
0.000610803
0.000610459
0.000610094
0.000609712
0.000609312
0.000608896
0.000608465
0.00060802
0.000607563
0.000607093
0.000606613
0.000606123
0.000605625
0.000605118
0.000604604
0.000604085
0.000603559
0.000603028
0.000602493
0.000601953
0.00060141
0.000600865
0.000600317
0.000599769
0.00059922
0.000598672
0.000598125
0.00059758
0.000597037
0.000596498
0.000595963
0.000595432
0.000594905
0.000594384
0.000593868
0.000593358
0.000592855
0.000592358
0.000591868
0.000591385
0.00059091
0.000590443
0.000589985
0.000589535
0.000589093
0.000588661
0.000588238
0.000587824
0.000587418
0.000587022
0.000586633
0.000586252
0.000585879
0.000585513
0.000585154
0.000584801
0.000584455
0.000584115
0.000583782
0.000583458
0.000583142
0.000582836
0.000582541
0.000582258
0.000581989
0.000581735
0.000581496
0.000581274
0.00058107
0.000580883
0.000580715
0.000580565
0.000580434
0.000580322
0.000580227
0.000580148
0.000580086
0.000580038
0.000580001
0.000579975
0.000579957
0.000579944
0.000579934
0.000579925
0.000579914
0.000579902
0.000579885
0.000579863
0.000579837
0.000579806
0.000579769
0.000579727
0.000579679
0.000579626
0.000579568
0.000579503
0.000579432
0.000579352
0.000579263
0.000579162
0.000579047
0.000578917
0.000578768
0.000578599
0.000578407
0.000578191
0.000577949
0.000577679
0.000577381
0.000577054
0.000576699
0.000576316
0.000575907
0.000575473
0.000575016
0.00057454
0.000574047
0.000573541
0.000573023
0.000572496
0.000571961
0.000571419
0.00057087
0.000570315
0.000569753
0.000569184
0.000568607
0.000568022
0.000567427
0.000566821
0.000566202
0.000565568
0.000564917
0.000564248
0.000563559
0.000562851
0.000562122
0.000561374
0.000560607
0.000559822
0.000559022
0.000558207
0.000557379
0.000556539
0.000555689
0.00055483
0.000553962
0.000553088
0.000552207
0.000551321
0.000550431
0.000549536
0.000548637
0.000547734
0.000546828
0.000545918
0.000545004
0.000544087
0.000543166
0.000542243
0.000541318
0.000540391
0.000539464
0.000538538
0.000537614
0.000536693
0.000535776
0.000534865
0.000533961
0.000533064
0.000532175
0.000531293
0.000530421
0.000529556
0.0005287
0.000527854
0.000527019
0.000526195
0.000525386
0.00052459
0.000523811
0.000523051
0.000522311
0.000521593
0.000520899
0.000520229
0.000519585
0.000518965
0.00051837
0.000517799
0.000517251
0.000516724
0.000516218
0.00051573
0.000515261
0.000514808
0.000514371
0.000513947
0.000513539
0.00051314
0.000512757
0.000512383
0.000512022
0.000511667
0.000511324
0.000510983
0.000510652
0.00051032
0.000509998
0.000509673
0.000509356
0.000509035
0.000508723
0.000508405
0.000508096
0.000507779
0.00050747
0.00050715
0.000506835
0.000506506
0.000506179
0.000505834
0.000505488
0.000505124
0.000504758
0.00050438
0.000504005
0.000503628
0.000503264
0.000502911
0.000502577
0.000502265
0.000501985
0.000501744
0.000501552
0.000501426
0.000501367
0.000501407
0.000501564
0.000501764
0.000502347
0.000502236
0.000502155
0.00050544
0.000509942
0.000514542
0.000519738
0.000526223
0.000535592
0.000533492
0.000535123
0.000518302
0.000404362
0.000292864
0.000111203
0.000111467
0.000112011
0.000112569
0.000113086
0.000113543
0.000113872
0.000114107
0.000114183
0.000114146
0.000114004
0.000113794
0.000113519
0.0001132
0.000112832
0.000112422
0.000111973
0.00011149
0.000110978
0.000110439
0.000109876
0.000109293
0.000108697
0.000108091
0.00010748
0.000106869
0.000106266
0.000105679
0.000105115
0.000104584
0.000104094
0.000103652
0.000103267
0.000102948
0.000102702
0.000102536
0.00010246
0.000102481
0.000102611
0.000102875
0.000103289
0.000103852
0.000104566
0.000105443
0.000106496
0.000107746
0.000109202
0.000110865
0.000112736
0.000114823
0.00011713
0.000119664
0.000122436
0.000125458
0.000128743
0.000132304
0.000136155
0.000140316
0.000144798
0.0001496
0.000154722
0.000160145
0.000165839
0.000171801
0.000178028
0.000184507
0.000191069
0.000197699
0.000204392
0.000211144
0.000217952
0.000224808
0.000231707
0.000238643
0.000245605
0.000252585
0.000259571
0.000266547
0.000273498
0.000280406
0.000287255
0.00029403
0.000300716
0.000307299
0.000313768
0.000320114
0.000326329
0.000332405
0.00033834
0.000344134
0.000349802
0.000355348
0.000360764
0.000366043
0.000371163
0.000376108
0.000380873
0.000385457
0.000389836
0.000394035
0.000398068
0.000401947
0.000405681
0.000409278
0.000412738
0.000416058
0.000419239
0.000422285
0.000425202
0.000427998
0.000430676
0.000433245
0.00043571
0.000438076
0.000440347
0.000442537
0.000444658
0.000446711
0.000448702
0.000450636
0.000452516
0.00045435
0.00045614
0.00045789
0.000459602
0.000461279
0.000462924
0.000464537
0.000466122
0.000467679
0.00046921
0.000470718
0.000472202
0.000473665
0.000475107
0.000476529
0.000477931
0.000479314
0.000480678
0.000482021
0.000483344
0.000484647
0.000485931
0.000487194
0.000488438
0.000489664
0.000490871
0.000492061
0.000493234
0.000494392
0.000495534
0.000496661
0.000497774
0.000498875
0.000499963
0.000501039
0.000502103
0.000503156
0.000504197
0.000505227
0.000506246
0.000507254
0.000508251
0.000509238
0.000510216
0.000511186
0.00051215
0.000513109
0.000514066
0.000515021
0.000515977
0.000516935
0.000517897
0.000518863
0.000519836
0.000520815
0.000521801
0.000522794
0.000523795
0.000524802
0.000525815
0.000526832
0.000527852
0.000528873
0.000529895
0.000530915
0.000531933
0.000532947
0.000533957
0.000534963
0.000535963
0.000536958
0.000537948
0.000538932
0.000539909
0.000540881
0.000541847
0.000542807
0.000543763
0.000544714
0.000545664
0.000546612
0.000547562
0.000548515
0.000549474
0.000550439
0.000551413
0.000552397
0.000553393
0.000554401
0.000555424
0.000556461
0.000557514
0.000558583
0.00055967
0.000560774
0.000561897
0.000563039
0.000564201
0.000565383
0.000566584
0.000567806
0.000569047
0.000570309
0.000571591
0.000572891
0.000574211
0.000575549
0.000576906
0.000578279
0.00057967
0.000581077
0.0005825
0.000583938
0.000585391
0.000586859
0.000588341
0.000589837
0.000591344
0.000592863
0.000594392
0.000595927
0.000597468
0.000599011
0.000600552
0.000602089
0.000603618
0.000605135
0.000606636