/*--------------------------------*- C++ -*----------------------------------*\
| =========                 |                                                 |
| \\      /  F ield         | foam-extend: Open Source CFD                    |
|  \\    /   O peration     | Version:     3.2                                |
|   \\  /    A nd           | Web:         http://www.foam-extend.org         |
|    \\/     M anipulation  | For copyright notice see file Copyright         |
\*---------------------------------------------------------------------------*/
FoamFile
{
    version     2.0;
    format      ascii;
    class       tetPointVectorField;
    location    "120";
    object      motionU;
}
// * * * * * * * * * * * * * * * * * * * * * * * * * * * * * * * * * * * * * //

dimensions      [0 1 -1 0 0 0 0];

internalField   nonuniform List<vector> 
232832
(
(0 0 0)
(0 0 0)
(0 0 0)
(0 0 0)
(0 0 0)
(0 0 0)
(0 0 0)
(0 0 0)
(0 0 0)
(0 0 0)
(0 0 0)
(0 0 0)
(0 0 0)
(0 0 0)
(0 0 0)
(0 0 0)
(0 0 0)
(0 0 0)
(0 0 0)
(0 0 0)
(0 0 0)
(0 0 0)
(0 0 0)
(0 0 0)
(0 0 0)
(0 0 0)
(0 0 0)
(0 0 0)
(0 0 0)
(0 0 0)
(0 0 0)
(0 0 0)
(0 0 0)
(0 0 0)
(0 0 0)
(0 0 0)
(0 0 0)
(0 0 0)
(0 0 0)
(0 0 0)
(0 0 0)
(0 0 0)
(0 0 0)
(0 0 0)
(0 0 0)
(0 0 0)
(0 0 0)
(0 0 0)
(0 0 0)
(0 0 0)
(0 0 0)
(0 0 0)
(0 0 0)
(0 0 0)
(0 0 0)
(0 0 0)
(0 0 0)
(0 0 0)
(0 0 0)
(0 0 0)
(0 0 -2.13275e-08)
(0 0 -1.15593e-08)
(0 0 3.8154e-08)
(0 0 7.8599e-08)
(0 0 1.25214e-07)
(0 0 1.74697e-07)
(0 0 2.2411e-07)
(0 0 2.73142e-07)
(0 0 3.21346e-07)
(0 0 3.68683e-07)
(0 0 4.15165e-07)
(0 0 4.60867e-07)
(0 0 5.05897e-07)
(0 0 5.50334e-07)
(0 0 5.94167e-07)
(0 0 6.37348e-07)
(0 0 6.79818e-07)
(0 0 7.21465e-07)
(0 0 7.62148e-07)
(0 0 8.01872e-07)
(0 0 8.40779e-07)
(0 0 8.78994e-07)
(0 0 9.16588e-07)
(0 0 9.53606e-07)
(0 0 9.90089e-07)
(0 0 1.02609e-06)
(0 0 1.06167e-06)
(0 0 1.09692e-06)
(0 0 1.13194e-06)
(0 0 1.16688e-06)
(0 0 1.20188e-06)
(0 0 1.23693e-06)
(0 0 1.27192e-06)
(0 0 1.30678e-06)
(0 0 1.34138e-06)
(0 0 1.37559e-06)
(0 0 1.40932e-06)
(0 0 1.44244e-06)
(0 0 1.47498e-06)
(0 0 1.50722e-06)
(0 0 1.5394e-06)
(0 0 1.57166e-06)
(0 0 1.60413e-06)
(0 0 1.63686e-06)
(0 0 1.66989e-06)
(0 0 1.70323e-06)
(0 0 1.73685e-06)
(0 0 1.77076e-06)
(0 0 1.80494e-06)
(0 0 1.8394e-06)
(0 0 1.87412e-06)
(0 0 1.90909e-06)
(0 0 1.94427e-06)
(0 0 1.97965e-06)
(0 0 2.0153e-06)
(0 0 2.05136e-06)
(0 0 2.0877e-06)
(0 0 2.12407e-06)
(0 0 2.16047e-06)
(0 0 2.1969e-06)
(0 0 2.23337e-06)
(0 0 2.26988e-06)
(0 0 2.30642e-06)
(0 0 2.34296e-06)
(0 0 2.37948e-06)
(0 0 2.41594e-06)
(0 0 2.4523e-06)
(0 0 2.48853e-06)
(0 0 2.52461e-06)
(0 0 2.56052e-06)
(0 0 2.59621e-06)
(0 0 2.63165e-06)
(0 0 2.6668e-06)
(0 0 2.70164e-06)
(0 0 2.73613e-06)
(0 0 2.77023e-06)
(0 0 2.80394e-06)
(0 0 2.83724e-06)
(0 0 2.87011e-06)
(0 0 2.90254e-06)
(0 0 2.93452e-06)
(0 0 2.96606e-06)
(0 0 2.99715e-06)
(0 0 3.02779e-06)
(0 0 3.05798e-06)
(0 0 3.08773e-06)
(0 0 3.11707e-06)
(0 0 3.14601e-06)
(0 0 3.17456e-06)
(0 0 3.20275e-06)
(0 0 3.23056e-06)
(0 0 3.258e-06)
(0 0 3.28506e-06)
(0 0 3.31175e-06)
(0 0 3.33805e-06)
(0 0 3.36399e-06)
(0 0 3.38956e-06)
(0 0 3.41479e-06)
(0 0 3.4397e-06)
(0 0 3.4643e-06)
(0 0 3.4886e-06)
(0 0 3.51259e-06)
(0 0 3.53628e-06)
(0 0 3.55965e-06)
(0 0 3.58271e-06)
(0 0 3.60545e-06)
(0 0 3.62785e-06)
(0 0 3.64994e-06)
(0 0 3.67169e-06)
(0 0 3.69314e-06)
(0 0 3.71428e-06)
(0 0 3.73511e-06)
(0 0 3.75563e-06)
(0 0 3.77583e-06)
(0 0 3.79572e-06)
(0 0 3.8153e-06)
(0 0 3.83456e-06)
(0 0 3.8535e-06)
(0 0 3.87211e-06)
(0 0 3.89038e-06)
(0 0 3.9083e-06)
(0 0 3.92584e-06)
(0 0 3.943e-06)
(0 0 3.95976e-06)
(0 0 3.97612e-06)
(0 0 3.99206e-06)
(0 0 4.00759e-06)
(0 0 4.02269e-06)
(0 0 4.03734e-06)
(0 0 4.05156e-06)
(0 0 4.06534e-06)
(0 0 4.07868e-06)
(0 0 4.09156e-06)
(0 0 4.104e-06)
(0 0 4.11597e-06)
(0 0 4.12746e-06)
(0 0 4.13849e-06)
(0 0 4.14906e-06)
(0 0 4.1592e-06)
(0 0 4.16893e-06)
(0 0 4.17824e-06)
(0 0 4.18713e-06)
(0 0 4.19562e-06)
(0 0 4.20372e-06)
(0 0 4.21143e-06)
(0 0 4.21872e-06)
(0 0 4.22563e-06)
(0 0 4.23219e-06)
(0 0 4.23841e-06)
(0 0 4.24429e-06)
(0 0 4.2499e-06)
(0 0 4.2553e-06)
(0 0 4.26044e-06)
(0 0 4.26529e-06)
(0 0 4.2698e-06)
(0 0 4.27392e-06)
(0 0 4.27762e-06)
(0 0 4.28091e-06)
(0 0 4.28379e-06)
(0 0 4.28626e-06)
(0 0 4.28833e-06)
(0 0 4.29e-06)
(0 0 4.29129e-06)
(0 0 4.29224e-06)
(0 0 4.29298e-06)
(0 0 4.29357e-06)
(0 0 4.29404e-06)
(0 0 4.2944e-06)
(0 0 4.29462e-06)
(0 0 4.29466e-06)
(0 0 4.29452e-06)
(0 0 4.29421e-06)
(0 0 4.29372e-06)
(0 0 4.29305e-06)
(0 0 4.29221e-06)
(0 0 4.29124e-06)
(0 0 4.29015e-06)
(0 0 4.28893e-06)
(0 0 4.2876e-06)
(0 0 4.28617e-06)
(0 0 4.28467e-06)
(0 0 4.28309e-06)
(0 0 4.28144e-06)
(0 0 4.27974e-06)
(0 0 4.278e-06)
(0 0 4.27627e-06)
(0 0 4.27456e-06)
(0 0 4.27288e-06)
(0 0 4.27124e-06)
(0 0 4.26968e-06)
(0 0 4.26822e-06)
(0 0 4.26685e-06)
(0 0 4.26559e-06)
(0 0 4.26447e-06)
(0 0 4.26351e-06)
(0 0 4.26269e-06)
(0 0 4.26204e-06)
(0 0 4.26162e-06)
(0 0 4.26147e-06)
(0 0 4.26158e-06)
(0 0 4.26196e-06)
(0 0 4.26255e-06)
(0 0 4.26332e-06)
(0 0 4.26435e-06)
(0 0 4.2657e-06)
(0 0 4.26734e-06)
(0 0 4.26928e-06)
(0 0 4.27149e-06)
(0 0 4.27393e-06)
(0 0 4.27658e-06)
(0 0 4.27948e-06)
(0 0 4.28262e-06)
(0 0 4.28603e-06)
(0 0 4.28971e-06)
(0 0 4.29368e-06)
(0 0 4.29791e-06)
(0 0 4.30239e-06)
(0 0 4.30712e-06)
(0 0 4.3121e-06)
(0 0 4.31729e-06)
(0 0 4.3227e-06)
(0 0 4.32829e-06)
(0 0 4.33406e-06)
(0 0 4.34e-06)
(0 0 4.34608e-06)
(0 0 4.35227e-06)
(0 0 4.35856e-06)
(0 0 4.36494e-06)
(0 0 4.37138e-06)
(0 0 4.37789e-06)
(0 0 4.38444e-06)
(0 0 4.39104e-06)
(0 0 4.39765e-06)
(0 0 4.40428e-06)
(0 0 4.41091e-06)
(0 0 4.41752e-06)
(0 0 4.42412e-06)
(0 0 4.43071e-06)
(0 0 4.43728e-06)
(0 0 4.44384e-06)
(0 0 4.45039e-06)
(0 0 4.45693e-06)
(0 0 4.46348e-06)
(0 0 4.47005e-06)
(0 0 4.47662e-06)
(0 0 4.48319e-06)
(0 0 4.48979e-06)
(0 0 4.49639e-06)
(0 0 4.503e-06)
(0 0 4.5096e-06)
(0 0 4.5162e-06)
(0 0 4.52276e-06)
(0 0 4.52927e-06)
(0 0 4.53571e-06)
(0 0 4.54206e-06)
(0 0 4.54831e-06)
(0 0 4.55444e-06)
(0 0 4.56044e-06)
(0 0 4.56631e-06)
(0 0 4.57204e-06)
(0 0 4.57763e-06)
(0 0 4.5831e-06)
(0 0 4.58846e-06)
(0 0 4.59372e-06)
(0 0 4.5989e-06)
(0 0 4.60398e-06)
(0 0 4.60895e-06)
(0 0 4.61381e-06)
(0 0 4.61854e-06)
(0 0 4.62313e-06)
(0 0 4.62757e-06)
(0 0 4.6318e-06)
(0 0 4.63583e-06)
(0 0 4.63963e-06)
(0 0 4.6432e-06)
(0 0 4.64652e-06)
(0 0 4.6496e-06)
(0 0 4.65245e-06)
(0 0 4.65509e-06)
(0 0 4.65755e-06)
(0 0 4.65985e-06)
(0 0 4.66202e-06)
(0 0 4.66407e-06)
(0 0 4.66606e-06)
(0 0 4.66801e-06)
(0 0 4.66998e-06)
(0 0 4.67197e-06)
(0 0 4.67403e-06)
(0 0 4.6762e-06)
(0 0 4.67852e-06)
(0 0 4.68095e-06)
(0 0 4.68347e-06)
(0 0 4.68602e-06)
(0 0 4.68861e-06)
(0 0 4.69135e-06)
(0 0 4.69426e-06)
(0 0 4.69722e-06)
(0 0 4.70014e-06)
(0 0 4.70301e-06)
(0 0 4.70585e-06)
(0 0 4.70862e-06)
(0 0 4.71127e-06)
(0 0 4.71378e-06)
(0 0 4.71615e-06)
(0 0 4.71835e-06)
(0 0 4.72035e-06)
(0 0 4.72223e-06)
(0 0 4.72402e-06)
(0 0 4.7257e-06)
(0 0 4.72732e-06)
(0 0 4.72892e-06)
(0 0 4.73057e-06)
(0 0 4.73228e-06)
(0 0 4.7341e-06)
(0 0 4.73608e-06)
(0 0 4.73827e-06)
(0 0 4.74072e-06)
(0 0 4.74346e-06)
(0 0 4.74651e-06)
(0 0 4.74991e-06)
(0 0 4.75367e-06)
(0 0 4.75778e-06)
(0 0 4.76223e-06)
(0 0 4.767e-06)
(0 0 4.77209e-06)
(0 0 4.77752e-06)
(0 0 4.78324e-06)
(0 0 4.7892e-06)
(0 0 4.7954e-06)
(0 0 4.80182e-06)
(0 0 4.80838e-06)
(0 0 4.81504e-06)
(0 0 4.82186e-06)
(0 0 4.82881e-06)
(0 0 4.8358e-06)
(0 0 4.84283e-06)
(0 0 4.84996e-06)
(0 0 4.85713e-06)
(0 0 4.86433e-06)
(0 0 4.87152e-06)
(0 0 4.8787e-06)
(0 0 4.88586e-06)
(0 0 4.89299e-06)
(0 0 4.90007e-06)
(0 0 4.90715e-06)
(0 0 4.91428e-06)
(0 0 4.92151e-06)
(0 0 4.92883e-06)
(0 0 4.93627e-06)
(0 0 4.94384e-06)
(0 0 4.95157e-06)
(0 0 4.95945e-06)
(0 0 4.96751e-06)
(0 0 4.97573e-06)
(0 0 4.98413e-06)
(0 0 4.99271e-06)
(0 0 5.00145e-06)
(0 0 5.01035e-06)
(0 0 5.01939e-06)
(0 0 5.02855e-06)
(0 0 5.03783e-06)
(0 0 5.04723e-06)
(0 0 5.05674e-06)
(0 0 5.06638e-06)
(0 0 5.07615e-06)
(0 0 5.08603e-06)
(0 0 5.09601e-06)
(0 0 5.10609e-06)
(0 0 5.11624e-06)
(0 0 5.12641e-06)
(0 0 5.13658e-06)
(0 0 5.14673e-06)
(0 0 5.15684e-06)
(0 0 5.16692e-06)
(0 0 5.17695e-06)
(0 0 5.18695e-06)
(0 0 5.19693e-06)
(0 0 5.2069e-06)
(0 0 5.21687e-06)
(0 0 5.22684e-06)
(0 0 5.2368e-06)
(0 0 5.24673e-06)
(0 0 5.25661e-06)
(0 0 5.26641e-06)
(0 0 5.27609e-06)
(0 0 5.28562e-06)
(0 0 5.29498e-06)
(0 0 5.30415e-06)
(0 0 5.3131e-06)
(0 0 5.32181e-06)
(0 0 5.33024e-06)
(0 0 5.33836e-06)
(0 0 5.34616e-06)
(0 0 5.35367e-06)
(0 0 5.36093e-06)
(0 0 5.36795e-06)
(0 0 5.37475e-06)
(0 0 5.38137e-06)
(0 0 5.38783e-06)
(0 0 5.39416e-06)
(0 0 5.40039e-06)
(0 0 5.40655e-06)
(0 0 5.41267e-06)
(0 0 5.41876e-06)
(0 0 5.42483e-06)
(0 0 5.43092e-06)
(0 0 5.43701e-06)
(0 0 5.44307e-06)
(0 0 5.44906e-06)
(0 0 5.45494e-06)
(0 0 5.46068e-06)
(0 0 5.46625e-06)
(0 0 5.47164e-06)
(0 0 5.4769e-06)
(0 0 5.48204e-06)
(0 0 5.48708e-06)
(0 0 5.49205e-06)
(0 0 5.49699e-06)
(0 0 5.50193e-06)
(0 0 5.5069e-06)
(0 0 5.51192e-06)
(0 0 5.517e-06)
(0 0 5.52214e-06)
(0 0 5.52734e-06)
(0 0 5.53257e-06)
(0 0 5.53783e-06)
(0 0 5.54309e-06)
(0 0 5.54838e-06)
(0 0 5.55369e-06)
(0 0 5.559e-06)
(0 0 5.56431e-06)
(0 0 5.5696e-06)
(0 0 5.57489e-06)
(0 0 5.58021e-06)
(0 0 5.5856e-06)
(0 0 5.59112e-06)
(0 0 5.59677e-06)
(0 0 5.60256e-06)
(0 0 5.60845e-06)
(0 0 5.61439e-06)
(0 0 5.62031e-06)
(0 0 5.62616e-06)
(0 0 5.63194e-06)
(0 0 5.63764e-06)
(0 0 5.64328e-06)
(0 0 5.64886e-06)
(0 0 5.65443e-06)
(0 0 5.66004e-06)
(0 0 5.66574e-06)
(0 0 5.67164e-06)
(0 0 5.67782e-06)
(0 0 5.68433e-06)
(0 0 5.6912e-06)
(0 0 5.69841e-06)
(0 0 5.70593e-06)
(0 0 5.71366e-06)
(0 0 5.72151e-06)
(0 0 5.72939e-06)
(0 0 5.73722e-06)
(0 0 5.74497e-06)
(0 0 5.75265e-06)
(0 0 5.76032e-06)
(0 0 5.76808e-06)
(0 0 5.77609e-06)
(0 0 5.7845e-06)
(0 0 5.79366e-06)
(0 0 5.80381e-06)
(0 0 5.81567e-06)
(0 0 5.83003e-06)
(0 0 5.84822e-06)
(0 0 5.87202e-06)
(0 0 5.90423e-06)
(0 0 5.94839e-06)
(0 0 6.01002e-06)
(0 0 6.09638e-06)
(0 0 6.2126e-06)
(0 0 6.38133e-06)
(0 0 6.41685e-06)
(0 0 6.60568e-06)
(0 0 3.43083e-06)
(0 0 0)
(0 0 0)
(0 0 0)
(0 0 0)
(0 0 0)
(0 0 0)
(0 0 0)
(0 0 0)
(0 0 0)
(0 0 0)
(0 0 0)
(0 0 0)
(0 0 0)
(0 0 0)
(0 0 0)
(0 0 0)
(0 0 0)
(0 0 0)
(0 0 0)
(0 0 0)
(0 0 0)
(0 0 0)
(0 0 0)
(0 0 0)
(0 0 0)
(0 0 0)
(0 0 0)
(0 0 0)
(0 0 0)
(0 0 0)
(0 0 0)
(0 0 0)
(0 0 0)
(0 0 0)
(0 0 0)
(0 0 0)
(0 0 0)
(0 0 0)
(0 0 0)
(0 0 0)
(0 0 0)
(0 0 0)
(0 0 0)
(0 0 0)
(0 0 0)
(0 0 0)
(0 0 0)
(0 0 0)
(0 0 0)
(0 0 0)
(0 0 0)
(0 0 0)
(0 0 0)
(0 0 0)
(0 0 0)
(0 0 0)
(0 0 0)
(0 0 0)
(0 0 0)
(0 0 0)
(0 0 0)
(0 0 0)
(0 0 0)
(0 0 0)
(0 0 0)
(0 0 0)
(0 0 0)
(0 0 0)
(0 0 0)
(0 0 0)
(0 0 0)
(0 0 -2.13275e-08)
(0 0 -1.15593e-08)
(0 0 3.8154e-08)
(0 0 7.8599e-08)
(0 0 1.25214e-07)
(0 0 1.74697e-07)
(0 0 2.2411e-07)
(0 0 2.73142e-07)
(0 0 3.21346e-07)
(0 0 3.68683e-07)
(0 0 4.15165e-07)
(0 0 4.60867e-07)
(0 0 5.05897e-07)
(0 0 5.50334e-07)
(0 0 5.94167e-07)
(0 0 6.37348e-07)
(0 0 6.79818e-07)
(0 0 7.21465e-07)
(0 0 7.62148e-07)
(0 0 8.01872e-07)
(0 0 8.40779e-07)
(0 0 8.78994e-07)
(0 0 9.16588e-07)
(0 0 9.53606e-07)
(0 0 9.90089e-07)
(0 0 1.02609e-06)
(0 0 1.06167e-06)
(0 0 1.09692e-06)
(0 0 1.13194e-06)
(0 0 1.16688e-06)
(0 0 1.20188e-06)
(0 0 1.23693e-06)
(0 0 1.27192e-06)
(0 0 1.30678e-06)
(0 0 1.34138e-06)
(0 0 1.37559e-06)
(0 0 1.40932e-06)
(0 0 1.44244e-06)
(0 0 1.47498e-06)
(0 0 1.50722e-06)
(0 0 1.5394e-06)
(0 0 1.57166e-06)
(0 0 1.60413e-06)
(0 0 1.63686e-06)
(0 0 1.66989e-06)
(0 0 1.70323e-06)
(0 0 1.73685e-06)
(0 0 1.77076e-06)
(0 0 1.80494e-06)
(0 0 1.8394e-06)
(0 0 1.87412e-06)
(0 0 1.90909e-06)
(0 0 1.94427e-06)
(0 0 1.97965e-06)
(0 0 2.0153e-06)
(0 0 2.05136e-06)
(0 0 2.0877e-06)
(0 0 2.12407e-06)
(0 0 2.16047e-06)
(0 0 2.1969e-06)
(0 0 2.23337e-06)
(0 0 2.26988e-06)
(0 0 2.30642e-06)
(0 0 2.34296e-06)
(0 0 2.37948e-06)
(0 0 2.41594e-06)
(0 0 2.4523e-06)
(0 0 2.48853e-06)
(0 0 2.52461e-06)
(0 0 2.56052e-06)
(0 0 2.59621e-06)
(0 0 2.63165e-06)
(0 0 2.6668e-06)
(0 0 2.70164e-06)
(0 0 2.73613e-06)
(0 0 2.77023e-06)
(0 0 2.80394e-06)
(0 0 2.83724e-06)
(0 0 2.87011e-06)
(0 0 2.90254e-06)
(0 0 2.93452e-06)
(0 0 2.96606e-06)
(0 0 2.99715e-06)
(0 0 3.02779e-06)
(0 0 3.05798e-06)
(0 0 3.08773e-06)
(0 0 3.11707e-06)
(0 0 3.14601e-06)
(0 0 3.17456e-06)
(0 0 3.20275e-06)
(0 0 3.23056e-06)
(0 0 3.258e-06)
(0 0 3.28506e-06)
(0 0 3.31175e-06)
(0 0 3.33805e-06)
(0 0 3.36399e-06)
(0 0 3.38956e-06)
(0 0 3.41479e-06)
(0 0 3.4397e-06)
(0 0 3.4643e-06)
(0 0 3.4886e-06)
(0 0 3.51259e-06)
(0 0 3.53628e-06)
(0 0 3.55965e-06)
(0 0 3.58271e-06)
(0 0 3.60545e-06)
(0 0 3.62785e-06)
(0 0 3.64994e-06)
(0 0 3.67169e-06)
(0 0 3.69314e-06)
(0 0 3.71428e-06)
(0 0 3.73511e-06)
(0 0 3.75563e-06)
(0 0 3.77583e-06)
(0 0 3.79572e-06)
(0 0 3.8153e-06)
(0 0 3.83456e-06)
(0 0 3.8535e-06)
(0 0 3.87211e-06)
(0 0 3.89038e-06)
(0 0 3.9083e-06)
(0 0 3.92584e-06)
(0 0 3.943e-06)
(0 0 3.95976e-06)
(0 0 3.97612e-06)
(0 0 3.99206e-06)
(0 0 4.00759e-06)
(0 0 4.02269e-06)
(0 0 4.03734e-06)
(0 0 4.05156e-06)
(0 0 4.06534e-06)
(0 0 4.07868e-06)
(0 0 4.09156e-06)
(0 0 4.104e-06)
(0 0 4.11597e-06)
(0 0 4.12746e-06)
(0 0 4.13849e-06)
(0 0 4.14906e-06)
(0 0 4.1592e-06)
(0 0 4.16893e-06)
(0 0 4.17824e-06)
(0 0 4.18713e-06)
(0 0 4.19562e-06)
(0 0 4.20372e-06)
(0 0 4.21143e-06)
(0 0 4.21872e-06)
(0 0 4.22563e-06)
(0 0 4.23219e-06)
(0 0 4.23841e-06)
(0 0 4.24429e-06)
(0 0 4.2499e-06)
(0 0 4.2553e-06)
(0 0 4.26044e-06)
(0 0 4.26529e-06)
(0 0 4.2698e-06)
(0 0 4.27392e-06)
(0 0 4.27762e-06)
(0 0 4.28091e-06)
(0 0 4.28379e-06)
(0 0 4.28626e-06)
(0 0 4.28833e-06)
(0 0 4.29e-06)
(0 0 4.29129e-06)
(0 0 4.29224e-06)
(0 0 4.29298e-06)
(0 0 4.29357e-06)
(0 0 4.29404e-06)
(0 0 4.2944e-06)
(0 0 4.29462e-06)
(0 0 4.29466e-06)
(0 0 4.29452e-06)
(0 0 4.29421e-06)
(0 0 4.29372e-06)
(0 0 4.29305e-06)
(0 0 4.29221e-06)
(0 0 4.29124e-06)
(0 0 4.29015e-06)
(0 0 4.28893e-06)
(0 0 4.2876e-06)
(0 0 4.28617e-06)
(0 0 4.28467e-06)
(0 0 4.28309e-06)
(0 0 4.28144e-06)
(0 0 4.27974e-06)
(0 0 4.278e-06)
(0 0 4.27627e-06)
(0 0 4.27456e-06)
(0 0 4.27288e-06)
(0 0 4.27124e-06)
(0 0 4.26968e-06)
(0 0 4.26822e-06)
(0 0 4.26685e-06)
(0 0 4.26559e-06)
(0 0 4.26447e-06)
(0 0 4.26351e-06)
(0 0 4.26269e-06)
(0 0 4.26204e-06)
(0 0 4.26162e-06)
(0 0 4.26147e-06)
(0 0 4.26158e-06)
(0 0 4.26196e-06)
(0 0 4.26255e-06)
(0 0 4.26332e-06)
(0 0 4.26435e-06)
(0 0 4.2657e-06)
(0 0 4.26734e-06)
(0 0 4.26928e-06)
(0 0 4.27149e-06)
(0 0 4.27393e-06)
(0 0 4.27658e-06)
(0 0 4.27948e-06)
(0 0 4.28262e-06)
(0 0 4.28603e-06)
(0 0 4.28971e-06)
(0 0 4.29368e-06)
(0 0 4.29791e-06)
(0 0 4.30239e-06)
(0 0 4.30712e-06)
(0 0 4.3121e-06)
(0 0 4.31729e-06)
(0 0 4.3227e-06)
(0 0 4.32829e-06)
(0 0 4.33406e-06)
(0 0 4.34e-06)
(0 0 4.34608e-06)
(0 0 4.35227e-06)
(0 0 4.35856e-06)
(0 0 4.36494e-06)
(0 0 4.37138e-06)
(0 0 4.37789e-06)
(0 0 4.38444e-06)
(0 0 4.39104e-06)
(0 0 4.39765e-06)
(0 0 4.40428e-06)
(0 0 4.41091e-06)
(0 0 4.41752e-06)
(0 0 4.42412e-06)
(0 0 4.43071e-06)
(0 0 4.43728e-06)
(0 0 4.44384e-06)
(0 0 4.45039e-06)
(0 0 4.45693e-06)
(0 0 4.46348e-06)
(0 0 4.47005e-06)
(0 0 4.47662e-06)
(0 0 4.48319e-06)
(0 0 4.48979e-06)
(0 0 4.49639e-06)
(0 0 4.503e-06)
(0 0 4.5096e-06)
(0 0 4.5162e-06)
(0 0 4.52276e-06)
(0 0 4.52927e-06)
(0 0 4.53571e-06)
(0 0 4.54206e-06)
(0 0 4.54831e-06)
(0 0 4.55444e-06)
(0 0 4.56044e-06)
(0 0 4.56631e-06)
(0 0 4.57204e-06)
(0 0 4.57763e-06)
(0 0 4.5831e-06)
(0 0 4.58846e-06)
(0 0 4.59372e-06)
(0 0 4.5989e-06)
(0 0 4.60398e-06)
(0 0 4.60895e-06)
(0 0 4.61381e-06)
(0 0 4.61854e-06)
(0 0 4.62313e-06)
(0 0 4.62757e-06)
(0 0 4.6318e-06)
(0 0 4.63583e-06)
(0 0 4.63963e-06)
(0 0 4.6432e-06)
(0 0 4.64652e-06)
(0 0 4.6496e-06)
(0 0 4.65245e-06)
(0 0 4.65509e-06)
(0 0 4.65755e-06)
(0 0 4.65985e-06)
(0 0 4.66202e-06)
(0 0 4.66407e-06)
(0 0 4.66606e-06)
(0 0 4.66801e-06)
(0 0 4.66998e-06)
(0 0 4.67197e-06)
(0 0 4.67403e-06)
(0 0 4.6762e-06)
(0 0 4.67852e-06)
(0 0 4.68095e-06)
(0 0 4.68347e-06)
(0 0 4.68602e-06)
(0 0 4.68861e-06)
(0 0 4.69135e-06)
(0 0 4.69426e-06)
(0 0 4.69722e-06)
(0 0 4.70014e-06)
(0 0 4.70301e-06)
(0 0 4.70585e-06)
(0 0 4.70862e-06)
(0 0 4.71127e-06)
(0 0 4.71378e-06)
(0 0 4.71615e-06)
(0 0 4.71835e-06)
(0 0 4.72035e-06)
(0 0 4.72223e-06)
(0 0 4.72402e-06)
(0 0 4.7257e-06)
(0 0 4.72732e-06)
(0 0 4.72892e-06)
(0 0 4.73057e-06)
(0 0 4.73228e-06)
(0 0 4.7341e-06)
(0 0 4.73608e-06)
(0 0 4.73827e-06)
(0 0 4.74072e-06)
(0 0 4.74346e-06)
(0 0 4.74651e-06)
(0 0 4.74991e-06)
(0 0 4.75367e-06)
(0 0 4.75778e-06)
(0 0 4.76223e-06)
(0 0 4.767e-06)
(0 0 4.77209e-06)
(0 0 4.77752e-06)
(0 0 4.78324e-06)
(0 0 4.7892e-06)
(0 0 4.7954e-06)
(0 0 4.80182e-06)
(0 0 4.80838e-06)
(0 0 4.81504e-06)
(0 0 4.82186e-06)
(0 0 4.82881e-06)
(0 0 4.8358e-06)
(0 0 4.84283e-06)
(0 0 4.84996e-06)
(0 0 4.85713e-06)
(0 0 4.86433e-06)
(0 0 4.87152e-06)
(0 0 4.8787e-06)
(0 0 4.88586e-06)
(0 0 4.89299e-06)
(0 0 4.90007e-06)
(0 0 4.90715e-06)
(0 0 4.91428e-06)
(0 0 4.92151e-06)
(0 0 4.92883e-06)
(0 0 4.93627e-06)
(0 0 4.94384e-06)
(0 0 4.95157e-06)
(0 0 4.95945e-06)
(0 0 4.96751e-06)
(0 0 4.97573e-06)
(0 0 4.98413e-06)
(0 0 4.99271e-06)
(0 0 5.00145e-06)
(0 0 5.01035e-06)
(0 0 5.01939e-06)
(0 0 5.02855e-06)
(0 0 5.03783e-06)
(0 0 5.04723e-06)
(0 0 5.05674e-06)
(0 0 5.06638e-06)
(0 0 5.07615e-06)
(0 0 5.08603e-06)
(0 0 5.09601e-06)
(0 0 5.10609e-06)
(0 0 5.11624e-06)
(0 0 5.12641e-06)
(0 0 5.13658e-06)
(0 0 5.14673e-06)
(0 0 5.15684e-06)
(0 0 5.16692e-06)
(0 0 5.17695e-06)
(0 0 5.18695e-06)
(0 0 5.19693e-06)
(0 0 5.2069e-06)
(0 0 5.21687e-06)
(0 0 5.22684e-06)
(0 0 5.2368e-06)
(0 0 5.24673e-06)
(0 0 5.25661e-06)
(0 0 5.26641e-06)
(0 0 5.27609e-06)
(0 0 5.28562e-06)
(0 0 5.29498e-06)
(0 0 5.30415e-06)
(0 0 5.3131e-06)
(0 0 5.32181e-06)
(0 0 5.33024e-06)
(0 0 5.33836e-06)
(0 0 5.34616e-06)
(0 0 5.35367e-06)
(0 0 5.36093e-06)
(0 0 5.36795e-06)
(0 0 5.37475e-06)
(0 0 5.38137e-06)
(0 0 5.38783e-06)
(0 0 5.39416e-06)
(0 0 5.40039e-06)
(0 0 5.40655e-06)
(0 0 5.41267e-06)
(0 0 5.41876e-06)
(0 0 5.42483e-06)
(0 0 5.43092e-06)
(0 0 5.43701e-06)
(0 0 5.44307e-06)
(0 0 5.44906e-06)
(0 0 5.45494e-06)
(0 0 5.46068e-06)
(0 0 5.46625e-06)
(0 0 5.47164e-06)
(0 0 5.4769e-06)
(0 0 5.48204e-06)
(0 0 5.48708e-06)
(0 0 5.49205e-06)
(0 0 5.49699e-06)
(0 0 5.50193e-06)
(0 0 5.5069e-06)
(0 0 5.51192e-06)
(0 0 5.517e-06)
(0 0 5.52214e-06)
(0 0 5.52734e-06)
(0 0 5.53257e-06)
(0 0 5.53783e-06)
(0 0 5.54309e-06)
(0 0 5.54838e-06)
(0 0 5.55369e-06)
(0 0 5.559e-06)
(0 0 5.56431e-06)
(0 0 5.5696e-06)
(0 0 5.57489e-06)
(0 0 5.58021e-06)
(0 0 5.5856e-06)
(0 0 5.59112e-06)
(0 0 5.59677e-06)
(0 0 5.60256e-06)
(0 0 5.60845e-06)
(0 0 5.61439e-06)
(0 0 5.62031e-06)
(0 0 5.62616e-06)
(0 0 5.63194e-06)
(0 0 5.63764e-06)
(0 0 5.64328e-06)
(0 0 5.64886e-06)
(0 0 5.65443e-06)
(0 0 5.66004e-06)
(0 0 5.66574e-06)
(0 0 5.67164e-06)
(0 0 5.67782e-06)
(0 0 5.68433e-06)
(0 0 5.6912e-06)
(0 0 5.69841e-06)
(0 0 5.70593e-06)
(0 0 5.71366e-06)
(0 0 5.72151e-06)
(0 0 5.72939e-06)
(0 0 5.73722e-06)
(0 0 5.74497e-06)
(0 0 5.75265e-06)
(0 0 5.76032e-06)
(0 0 5.76808e-06)
(0 0 5.77609e-06)
(0 0 5.7845e-06)
(0 0 5.79366e-06)
(0 0 5.80381e-06)
(0 0 5.81567e-06)
(0 0 5.83003e-06)
(0 0 5.84822e-06)
(0 0 5.87202e-06)
(0 0 5.90423e-06)
(0 0 5.94839e-06)
(0 0 6.01002e-06)
(0 0 6.09638e-06)
(0 0 6.2126e-06)
(0 0 6.38133e-06)
(0 0 6.41685e-06)
(0 0 6.60568e-06)
(0 0 3.43083e-06)
(0 0 0)
(0 0 0)
(0 0 0)
(0 0 0)
(0 0 0)
(0 0 0)
(0 0 0)
(0 0 0)
(0 0 0)
(0 0 0)
(0 0 0)
(0 0 0)
(0 0 1.26422e-19)
(0 0 2.63272e-19)
(0 0 4.16508e-19)
(0 0 6.03455e-19)
(0 0 8.33742e-19)
(0 0 1.12708e-18)
(0 0 1.50386e-18)
(0 0 1.99306e-18)
(0 0 2.63061e-18)
(0 0 3.46437e-18)
(0 0 4.55631e-18)
(0 0 5.98793e-18)
(0 0 7.86592e-18)
(0 0 1.03303e-17)
(0 0 1.35649e-17)
(0 0 1.78109e-17)
(0 0 2.33849e-17)
(0 0 3.07027e-17)
(0 0 4.03102e-17)
(0 0 5.29243e-17)
(0 0 6.94865e-17)
(0 0 9.12333e-17)
(0 0 1.19789e-16)
(0 0 1.57286e-16)
(0 0 2.06529e-16)
(0 0 2.712e-16)
(0 0 3.56141e-16)
(0 0 4.67717e-16)
(0 0 6.14297e-16)
(0 0 8.06892e-16)
(0 0 1.05999e-15)
(0 0 1.39269e-15)
(0 0 1.83012e-15)
(0 0 2.40545e-15)
(0 0 3.16247e-15)
(0 0 4.15902e-15)
(0 0 5.4717e-15)
(0 0 7.20203e-15)
(0 0 9.48491e-15)
(0 0 1.25e-14)
(0 0 1.64873e-14)
(0 0 2.17685e-14)
(0 0 2.8777e-14)
(0 0 3.80997e-14)
(0 0 5.05352e-14)
(0 0 6.71784e-14)
(0 0 8.95406e-14)
(0 0 1.19726e-13)
(0 0 1.60692e-13)
(0 0 2.16641e-13)
(0 0 2.93557e-13)
(0 0 3.99786e-13)
(0 0 5.45983e-13)
(0 0 7.42572e-13)
(0 0 9.7675e-13)
(0 0 1.21374e-12)
(0 0 -1.79881e-12)
(0 0 3.2463e-11)
(0 0 -1.43974e-09)
(0 0 -1.92267e-08)
(0 0 -8.88272e-09)
(0 0 3.74901e-08)
(0 0 7.90223e-08)
(0 0 1.25385e-07)
(0 0 1.74672e-07)
(0 0 2.24064e-07)
(0 0 2.73063e-07)
(0 0 3.21264e-07)
(0 0 3.68602e-07)
(0 0 4.15089e-07)
(0 0 4.60798e-07)
(0 0 5.05833e-07)
(0 0 5.50269e-07)
(0 0 5.94099e-07)
(0 0 6.37276e-07)
(0 0 6.79739e-07)
(0 0 7.21376e-07)
(0 0 7.6206e-07)
(0 0 8.01794e-07)
(0 0 8.4071e-07)
(0 0 8.78929e-07)
(0 0 9.16527e-07)
(0 0 9.53548e-07)
(0 0 9.90034e-07)
(0 0 1.02604e-06)
(0 0 1.06162e-06)
(0 0 1.09688e-06)
(0 0 1.13192e-06)
(0 0 1.16686e-06)
(0 0 1.20186e-06)
(0 0 1.2369e-06)
(0 0 1.27189e-06)
(0 0 1.30674e-06)
(0 0 1.34133e-06)
(0 0 1.37554e-06)
(0 0 1.40926e-06)
(0 0 1.44238e-06)
(0 0 1.47494e-06)
(0 0 1.50719e-06)
(0 0 1.53938e-06)
(0 0 1.57165e-06)
(0 0 1.60412e-06)
(0 0 1.63686e-06)
(0 0 1.66989e-06)
(0 0 1.70322e-06)
(0 0 1.73685e-06)
(0 0 1.77075e-06)
(0 0 1.80493e-06)
(0 0 1.83939e-06)
(0 0 1.87411e-06)
(0 0 1.90908e-06)
(0 0 1.94426e-06)
(0 0 1.97964e-06)
(0 0 2.0153e-06)
(0 0 2.05136e-06)
(0 0 2.08767e-06)
(0 0 2.12405e-06)
(0 0 2.16045e-06)
(0 0 2.19688e-06)
(0 0 2.23335e-06)
(0 0 2.26986e-06)
(0 0 2.3064e-06)
(0 0 2.34294e-06)
(0 0 2.37945e-06)
(0 0 2.4159e-06)
(0 0 2.45226e-06)
(0 0 2.48849e-06)
(0 0 2.52457e-06)
(0 0 2.56047e-06)
(0 0 2.59616e-06)
(0 0 2.6316e-06)
(0 0 2.66675e-06)
(0 0 2.70159e-06)
(0 0 2.73607e-06)
(0 0 2.77018e-06)
(0 0 2.80389e-06)
(0 0 2.83719e-06)
(0 0 2.87005e-06)
(0 0 2.90248e-06)
(0 0 2.93447e-06)
(0 0 2.966e-06)
(0 0 2.99709e-06)
(0 0 3.02773e-06)
(0 0 3.05792e-06)
(0 0 3.08768e-06)
(0 0 3.11702e-06)
(0 0 3.14596e-06)
(0 0 3.17451e-06)
(0 0 3.2027e-06)
(0 0 3.23051e-06)
(0 0 3.25795e-06)
(0 0 3.28501e-06)
(0 0 3.3117e-06)
(0 0 3.338e-06)
(0 0 3.36394e-06)
(0 0 3.38951e-06)
(0 0 3.41475e-06)
(0 0 3.43965e-06)
(0 0 3.46426e-06)
(0 0 3.48855e-06)
(0 0 3.51254e-06)
(0 0 3.53623e-06)
(0 0 3.55961e-06)
(0 0 3.58266e-06)
(0 0 3.6054e-06)
(0 0 3.62781e-06)
(0 0 3.64989e-06)
(0 0 3.67165e-06)
(0 0 3.69309e-06)
(0 0 3.71423e-06)
(0 0 3.73506e-06)
(0 0 3.75558e-06)
(0 0 3.77578e-06)
(0 0 3.79567e-06)
(0 0 3.81525e-06)
(0 0 3.83451e-06)
(0 0 3.85345e-06)
(0 0 3.87206e-06)
(0 0 3.89033e-06)
(0 0 3.90825e-06)
(0 0 3.92579e-06)
(0 0 3.94295e-06)
(0 0 3.95971e-06)
(0 0 3.97607e-06)
(0 0 3.99201e-06)
(0 0 4.00754e-06)
(0 0 4.02264e-06)
(0 0 4.03729e-06)
(0 0 4.05151e-06)
(0 0 4.06529e-06)
(0 0 4.07863e-06)
(0 0 4.09151e-06)
(0 0 4.10394e-06)
(0 0 4.11591e-06)
(0 0 4.12741e-06)
(0 0 4.13844e-06)
(0 0 4.14901e-06)
(0 0 4.15915e-06)
(0 0 4.16888e-06)
(0 0 4.17819e-06)
(0 0 4.18708e-06)
(0 0 4.19558e-06)
(0 0 4.20368e-06)
(0 0 4.21138e-06)
(0 0 4.21868e-06)
(0 0 4.22559e-06)
(0 0 4.23215e-06)
(0 0 4.23837e-06)
(0 0 4.24425e-06)
(0 0 4.24987e-06)
(0 0 4.25526e-06)
(0 0 4.26041e-06)
(0 0 4.26525e-06)
(0 0 4.26975e-06)
(0 0 4.27387e-06)
(0 0 4.27758e-06)
(0 0 4.28087e-06)
(0 0 4.28375e-06)
(0 0 4.28622e-06)
(0 0 4.28828e-06)
(0 0 4.28996e-06)
(0 0 4.29125e-06)
(0 0 4.29221e-06)
(0 0 4.29295e-06)
(0 0 4.29354e-06)
(0 0 4.29401e-06)
(0 0 4.29437e-06)
(0 0 4.29459e-06)
(0 0 4.29463e-06)
(0 0 4.29449e-06)
(0 0 4.29418e-06)
(0 0 4.29369e-06)
(0 0 4.29302e-06)
(0 0 4.29219e-06)
(0 0 4.29121e-06)
(0 0 4.29012e-06)
(0 0 4.28891e-06)
(0 0 4.28758e-06)
(0 0 4.28615e-06)
(0 0 4.28465e-06)
(0 0 4.28307e-06)
(0 0 4.28142e-06)
(0 0 4.27972e-06)
(0 0 4.27799e-06)
(0 0 4.27625e-06)
(0 0 4.27454e-06)
(0 0 4.27287e-06)
(0 0 4.27123e-06)
(0 0 4.26967e-06)
(0 0 4.26821e-06)
(0 0 4.26684e-06)
(0 0 4.26559e-06)
(0 0 4.26447e-06)
(0 0 4.2635e-06)
(0 0 4.26269e-06)
(0 0 4.26205e-06)
(0 0 4.26163e-06)
(0 0 4.26147e-06)
(0 0 4.26158e-06)
(0 0 4.26196e-06)
(0 0 4.26255e-06)
(0 0 4.26333e-06)
(0 0 4.26436e-06)
(0 0 4.2657e-06)
(0 0 4.26734e-06)
(0 0 4.26928e-06)
(0 0 4.27149e-06)
(0 0 4.27393e-06)
(0 0 4.27658e-06)
(0 0 4.27948e-06)
(0 0 4.28262e-06)
(0 0 4.28603e-06)
(0 0 4.28971e-06)
(0 0 4.29368e-06)
(0 0 4.29791e-06)
(0 0 4.30239e-06)
(0 0 4.30712e-06)
(0 0 4.31209e-06)
(0 0 4.31729e-06)
(0 0 4.32269e-06)
(0 0 4.32828e-06)
(0 0 4.33405e-06)
(0 0 4.33999e-06)
(0 0 4.34606e-06)
(0 0 4.35226e-06)
(0 0 4.35855e-06)
(0 0 4.36492e-06)
(0 0 4.37137e-06)
(0 0 4.37788e-06)
(0 0 4.38443e-06)
(0 0 4.39102e-06)
(0 0 4.39763e-06)
(0 0 4.40426e-06)
(0 0 4.41089e-06)
(0 0 4.4175e-06)
(0 0 4.4241e-06)
(0 0 4.43069e-06)
(0 0 4.43726e-06)
(0 0 4.44382e-06)
(0 0 4.45037e-06)
(0 0 4.45692e-06)
(0 0 4.46347e-06)
(0 0 4.47003e-06)
(0 0 4.4766e-06)
(0 0 4.48318e-06)
(0 0 4.48977e-06)
(0 0 4.49637e-06)
(0 0 4.50298e-06)
(0 0 4.50958e-06)
(0 0 4.51618e-06)
(0 0 4.52274e-06)
(0 0 4.52924e-06)
(0 0 4.53568e-06)
(0 0 4.54204e-06)
(0 0 4.54829e-06)
(0 0 4.55442e-06)
(0 0 4.56041e-06)
(0 0 4.56628e-06)
(0 0 4.57201e-06)
(0 0 4.5776e-06)
(0 0 4.58307e-06)
(0 0 4.58843e-06)
(0 0 4.5937e-06)
(0 0 4.59887e-06)
(0 0 4.60395e-06)
(0 0 4.60892e-06)
(0 0 4.61378e-06)
(0 0 4.61851e-06)
(0 0 4.6231e-06)
(0 0 4.62753e-06)
(0 0 4.63177e-06)
(0 0 4.6358e-06)
(0 0 4.6396e-06)
(0 0 4.64316e-06)
(0 0 4.64649e-06)
(0 0 4.64957e-06)
(0 0 4.65242e-06)
(0 0 4.65506e-06)
(0 0 4.65752e-06)
(0 0 4.65982e-06)
(0 0 4.66199e-06)
(0 0 4.66405e-06)
(0 0 4.66604e-06)
(0 0 4.66799e-06)
(0 0 4.66996e-06)
(0 0 4.67196e-06)
(0 0 4.67402e-06)
(0 0 4.6762e-06)
(0 0 4.67851e-06)
(0 0 4.68094e-06)
(0 0 4.68346e-06)
(0 0 4.68601e-06)
(0 0 4.68861e-06)
(0 0 4.69135e-06)
(0 0 4.69424e-06)
(0 0 4.69719e-06)
(0 0 4.70012e-06)
(0 0 4.70299e-06)
(0 0 4.70583e-06)
(0 0 4.7086e-06)
(0 0 4.71124e-06)
(0 0 4.71375e-06)
(0 0 4.71612e-06)
(0 0 4.71832e-06)
(0 0 4.72033e-06)
(0 0 4.72221e-06)
(0 0 4.72399e-06)
(0 0 4.72568e-06)
(0 0 4.7273e-06)
(0 0 4.72891e-06)
(0 0 4.73055e-06)
(0 0 4.73227e-06)
(0 0 4.73409e-06)
(0 0 4.73608e-06)
(0 0 4.73827e-06)
(0 0 4.74072e-06)
(0 0 4.74346e-06)
(0 0 4.74652e-06)
(0 0 4.74991e-06)
(0 0 4.75367e-06)
(0 0 4.75779e-06)
(0 0 4.76223e-06)
(0 0 4.767e-06)
(0 0 4.7721e-06)
(0 0 4.77752e-06)
(0 0 4.78324e-06)
(0 0 4.7892e-06)
(0 0 4.7954e-06)
(0 0 4.80181e-06)
(0 0 4.80836e-06)
(0 0 4.81503e-06)
(0 0 4.82185e-06)
(0 0 4.82879e-06)
(0 0 4.83578e-06)
(0 0 4.84282e-06)
(0 0 4.84994e-06)
(0 0 4.85711e-06)
(0 0 4.86431e-06)
(0 0 4.8715e-06)
(0 0 4.87868e-06)
(0 0 4.88584e-06)
(0 0 4.89296e-06)
(0 0 4.90005e-06)
(0 0 4.90713e-06)
(0 0 4.91427e-06)
(0 0 4.92149e-06)
(0 0 4.92882e-06)
(0 0 4.93626e-06)
(0 0 4.94383e-06)
(0 0 4.95156e-06)
(0 0 4.95944e-06)
(0 0 4.9675e-06)
(0 0 4.97572e-06)
(0 0 4.98412e-06)
(0 0 4.9927e-06)
(0 0 5.00144e-06)
(0 0 5.01034e-06)
(0 0 5.01937e-06)
(0 0 5.02854e-06)
(0 0 5.03782e-06)
(0 0 5.04721e-06)
(0 0 5.05673e-06)
(0 0 5.06637e-06)
(0 0 5.07613e-06)
(0 0 5.08601e-06)
(0 0 5.09599e-06)
(0 0 5.10607e-06)
(0 0 5.11621e-06)
(0 0 5.12638e-06)
(0 0 5.13655e-06)
(0 0 5.1467e-06)
(0 0 5.15682e-06)
(0 0 5.16689e-06)
(0 0 5.17693e-06)
(0 0 5.18693e-06)
(0 0 5.19691e-06)
(0 0 5.20688e-06)
(0 0 5.21685e-06)
(0 0 5.22682e-06)
(0 0 5.23678e-06)
(0 0 5.2467e-06)
(0 0 5.25658e-06)
(0 0 5.26638e-06)
(0 0 5.27606e-06)
(0 0 5.28559e-06)
(0 0 5.29494e-06)
(0 0 5.30411e-06)
(0 0 5.31306e-06)
(0 0 5.32177e-06)
(0 0 5.33019e-06)
(0 0 5.33831e-06)
(0 0 5.34612e-06)
(0 0 5.35363e-06)
(0 0 5.36089e-06)
(0 0 5.36791e-06)
(0 0 5.37472e-06)
(0 0 5.38134e-06)
(0 0 5.3878e-06)
(0 0 5.39413e-06)
(0 0 5.40036e-06)
(0 0 5.40653e-06)
(0 0 5.41265e-06)
(0 0 5.41874e-06)
(0 0 5.42481e-06)
(0 0 5.4309e-06)
(0 0 5.43698e-06)
(0 0 5.44304e-06)
(0 0 5.44903e-06)
(0 0 5.45491e-06)
(0 0 5.46065e-06)
(0 0 5.46621e-06)
(0 0 5.47161e-06)
(0 0 5.47687e-06)
(0 0 5.48201e-06)
(0 0 5.48705e-06)
(0 0 5.49203e-06)
(0 0 5.49697e-06)
(0 0 5.50191e-06)
(0 0 5.50688e-06)
(0 0 5.5119e-06)
(0 0 5.51698e-06)
(0 0 5.52212e-06)
(0 0 5.52732e-06)
(0 0 5.53255e-06)
(0 0 5.53781e-06)
(0 0 5.54307e-06)
(0 0 5.54836e-06)
(0 0 5.55366e-06)
(0 0 5.55898e-06)
(0 0 5.56428e-06)
(0 0 5.56957e-06)
(0 0 5.57487e-06)
(0 0 5.58019e-06)
(0 0 5.58559e-06)
(0 0 5.5911e-06)
(0 0 5.59676e-06)
(0 0 5.60254e-06)
(0 0 5.60843e-06)
(0 0 5.61437e-06)
(0 0 5.62028e-06)
(0 0 5.62614e-06)
(0 0 5.63191e-06)
(0 0 5.63761e-06)
(0 0 5.64325e-06)
(0 0 5.64884e-06)
(0 0 5.65441e-06)
(0 0 5.66002e-06)
(0 0 5.66573e-06)
(0 0 5.67164e-06)
(0 0 5.67782e-06)
(0 0 5.68433e-06)
(0 0 5.6912e-06)
(0 0 5.69841e-06)
(0 0 5.70592e-06)
(0 0 5.71364e-06)
(0 0 5.72149e-06)
(0 0 5.72936e-06)
(0 0 5.73719e-06)
(0 0 5.74494e-06)
(0 0 5.75263e-06)
(0 0 5.7603e-06)
(0 0 5.76807e-06)
(0 0 5.77609e-06)
(0 0 5.78453e-06)
(0 0 5.7937e-06)
(0 0 5.8039e-06)
(0 0 5.81581e-06)
(0 0 5.83026e-06)
(0 0 5.84856e-06)
(0 0 5.87254e-06)
(0 0 5.90497e-06)
(0 0 5.94946e-06)
(0 0 6.01153e-06)
(0 0 6.09807e-06)
(0 0 6.21583e-06)
(0 0 6.3708e-06)
(0 0 6.42948e-06)
(0 0 6.38448e-06)
(0 0 3.4262e-06)
(0 0 2.37677e-07)
(0 0 -2.64266e-09)
(0 0 1.3351e-09)
(0 0 3.72658e-10)
(0 0 1.82979e-10)
(0 0 9.77889e-11)
(0 0 5.63089e-11)
(0 0 3.31728e-11)
(0 0 1.8722e-11)
(0 0 8.4787e-12)
(0 0 0)
(0 0 0)
(0 0 1.26431e-19)
(0 0 2.63496e-19)
(0 0 4.16307e-19)
(0 0 6.0359e-19)
(0 0 8.33655e-19)
(0 0 1.12713e-18)
(0 0 1.50382e-18)
(0 0 1.99307e-18)
(0 0 2.63059e-18)
(0 0 3.46437e-18)
(0 0 4.55629e-18)
(0 0 5.98792e-18)
(0 0 7.8659e-18)
(0 0 1.03303e-17)
(0 0 1.35649e-17)
(0 0 1.78108e-17)
(0 0 2.33848e-17)
(0 0 3.07026e-17)
(0 0 4.03101e-17)
(0 0 5.29242e-17)
(0 0 6.94863e-17)
(0 0 9.1233e-17)
(0 0 1.19788e-16)
(0 0 1.57286e-16)
(0 0 2.06528e-16)
(0 0 2.71199e-16)
(0 0 3.5614e-16)
(0 0 4.67716e-16)
(0 0 6.14295e-16)
(0 0 8.0689e-16)
(0 0 1.05999e-15)
(0 0 1.39268e-15)
(0 0 1.83011e-15)
(0 0 2.40545e-15)
(0 0 3.16246e-15)
(0 0 4.15901e-15)
(0 0 5.47168e-15)
(0 0 7.20201e-15)
(0 0 9.48488e-15)
(0 0 1.25e-14)
(0 0 1.64872e-14)
(0 0 2.17684e-14)
(0 0 2.8777e-14)
(0 0 3.80996e-14)
(0 0 5.05351e-14)
(0 0 6.71782e-14)
(0 0 8.95401e-14)
(0 0 1.19725e-13)
(0 0 1.60691e-13)
(0 0 2.16642e-13)
(0 0 2.93563e-13)
(0 0 3.99784e-13)
(0 0 5.45947e-13)
(0 0 7.4251e-13)
(0 0 9.77189e-13)
(0 0 1.21243e-12)