/*--------------------------------*- C++ -*----------------------------------*\
| =========                 |                                                 |
| \\      /  F ield         | foam-extend: Open Source CFD                    |
|  \\    /   O peration     | Version:     3.2                                |
|   \\  /    A nd           | Web:         http://www.foam-extend.org         |
|    \\/     M anipulation  | For copyright notice see file Copyright         |
\*---------------------------------------------------------------------------*/
FoamFile
{
    version     2.0;
    format      ascii;
    class       volScalarField;
    location    "120";
    object      omega;
}
// * * * * * * * * * * * * * * * * * * * * * * * * * * * * * * * * * * * * * //

dimensions      [0 0 -1 0 0 0 0];

internalField   nonuniform List<scalar> 
33000
(
26.0578
29.4736
33.1112
36.8602
40.6057
44.2301
47.6393
50.75
53.5141
55.8963
57.893
59.5099
60.7738
61.7129
62.3641
62.763
62.9488
62.9565
62.8212
62.5816
62.2592
61.8725
61.4374
60.9674
60.4754
59.972
59.4663
58.9672
58.4813
58.0092
57.5519
57.1112
56.6886
56.2849
55.9005
55.5356
55.1901
54.8636
54.5556
54.2656
53.9928
53.7365
53.4958
53.2699
53.0578
52.8588
52.672
52.4967
52.3323
52.1781
52.0334
51.8976
51.77
51.6499
51.5367
51.4299
51.3288
51.2329
51.142
51.055
50.971
50.8922
50.8198
50.7514
50.686
50.6238
50.5642
50.5069
50.4517
50.3984
50.3468
50.2966
50.2479
50.2003
50.1539
50.1084
50.0639
50.0202
49.9775
49.9356
49.8946
49.8544
49.815
49.7763
49.7383
49.7008
49.6639
49.6275
49.5915
49.5558
49.5204
49.4851
49.45
49.415
49.38
49.3452
49.3105
49.2759
49.2415
49.2074
49.1734
49.1394
49.1055
49.0716
49.0375
49.0033
48.9689
48.9343
48.8994
48.8642
48.8287
48.7929
48.7568
48.7204
48.6837
48.6466
48.6092
48.5715
48.5336
48.4954
48.4569
48.4182
48.3793
48.3402
48.3009
48.2614
48.2218
48.182
48.1422
48.1023
48.0624
48.0224
47.9825
47.9427
47.9029
47.8631
47.8235
47.7841
47.7447
47.7055
47.6665
47.6277
47.5891
47.5506
47.5124
47.4745
47.4367
47.3992
47.362
47.325
47.2882
47.2517
47.2155
47.1796
47.144
47.1087
47.0737
47.039
47.0046
46.9706
46.9369
46.9036
46.8706
46.838
46.8057
46.7739
46.7425
46.7114
46.6808
46.6506
46.6207
46.5913
46.5623
46.5337
46.5055
46.4777
46.4503
46.4232
46.3965
46.3701
46.344
46.3182
46.2927
46.2674
46.2424
46.2177
46.1932
46.1689
46.1449
46.1211
46.0975
46.0741
46.0508
46.0278
46.0049
45.9822
45.9597
45.9373
45.9152
45.8932
45.8715
45.85
45.8287
45.8076
45.7869
45.7663
45.7461
45.7262
45.7065
45.6872
45.6682
45.6494
45.6308
45.6125
45.5944
45.5765
45.5588
45.5414
45.5244
45.5076
45.4912
45.4751
45.4594
45.444
45.4289
45.4143
45.4
45.386
45.3725
45.3592
45.3463
45.3338
45.3215
45.3097
45.2981
45.2869
45.276
45.2654
45.2552
45.2452
45.2357
45.2264
45.2176
45.2091
45.2009
45.1931
45.1858
45.1787
45.1721
45.1658
45.1599
45.1543
45.1491
45.1442
45.1396
45.1354
45.1314
45.1278
45.1243
45.1211
45.118
45.1152
45.1125
45.1099
45.1073
45.1049
45.1024
45.1
45.0975
45.0949
45.0923
45.0895
45.0866
45.0835
45.0802
45.0767
45.073
45.0691
45.0649
45.0604
45.0556
45.0505
45.0451
45.0394
45.0334
45.027
45.0203
45.0133
45.0059
44.9983
44.9903
44.982
44.9733
44.9644
44.9552
44.9457
44.936
44.926
44.9157
44.9052
44.8945
44.8835
44.8723
44.8609
44.8493
44.8374
44.8254
44.8132
44.8008
44.7882
44.7754
44.7625
44.7494
44.7362
44.7228
44.7093
44.6956
44.6817
44.6677
44.6536
44.6393
44.6248
44.6103
44.5956
44.5808
44.5659
44.551
44.536
44.5209
44.5057
44.4906
44.4753
44.4601
44.4448
44.4295
44.4142
44.3989
44.3836
44.3684
44.3531
44.3379
44.3227
44.3076
44.2925
44.2774
44.2624
44.2475
44.2326
44.2177
44.2028
44.188
44.1732
44.1585
44.1439
44.1293
44.1148
44.1003
44.0859
44.0717
44.0575
44.0434
44.0295
44.0157
44.002
43.9885
43.9752
43.962
43.949
43.9361
43.9235
43.9111
43.899
43.887
43.8753
43.8638
43.8525
43.8414
43.8305
43.8198
43.8093
43.7989
43.7887
43.7786
43.7687
43.7589
43.7493
43.7398
43.7304
43.7212
43.7121
43.7032
43.6944
43.6857
43.6771
43.6685
43.6601
43.6516
43.6432
43.6348
43.6263
43.6178
43.6093
43.6006
43.5919
43.583
43.574
43.5649
43.5556
43.5461
43.5365
43.5268
43.517
43.507
43.4969
43.4867
43.4764
43.466
43.4555
43.4449
43.4342
43.4233
43.4124
43.4013
43.3901
43.3787
43.3671
43.3554
43.3434
43.3311
43.3186
43.3057
43.2926
43.2791
43.2652
43.251
43.2365
43.2217
43.2065
43.191
43.1751
43.1589
43.1424
43.1256
43.1085
43.0912
43.0736
43.0558
43.0379
43.0197
43.0014
42.983
42.9644
42.9456
42.9267
42.9076
42.8884
42.8691
42.8496
42.83
42.8103
42.7905
42.7707
42.7507
42.7306
42.7105
42.6903
42.67
42.6496
42.6291
42.6086
42.588
42.5675
42.5469
42.5264
42.5059
42.4856
42.4654
42.4453
42.4254
42.4057
42.3861
42.3668
42.3476
42.3286
42.3097
42.2911
42.2726
42.2544
42.2363
42.2185
42.2009
42.1835
42.1662
42.1492
42.1323
42.1156
42.0991
42.0828
42.0666
42.0507
42.035
42.0195
42.0041
41.989
41.9739
41.9591
41.9443
41.9298
41.9152
41.9008
41.8865
41.8723
41.858
41.8439
41.8297
41.8156
41.8014
41.7872
41.7729
41.7586
41.7443
41.7301
41.7157
41.7016
41.6871
41.6727
41.6576
41.6422
41.6251
41.6073
41.5859
41.5625
41.5313
41.4953
41.4433
41.3837
41.2864
41.2448
41.0012
40.4371
39.8675
39.2095
38.1209
36.6031
34.4227
31.3209
25.9265
20.1576
21.9699
6.47361
2.22722
3.79845
5.52956
7.34435
9.27691
11.2168
13.1152
14.9356
16.6786
18.2903
19.7657
21.0712
22.2082
23.177
23.9963
24.6804
25.2486
25.7278
26.1331
26.474
26.7584
26.9816
27.0886
27.0982
27.0265
26.8908
26.7156
26.5346
26.3802
26.2728
26.2149
26.1918
26.1919
26.2059
26.2264
26.2475
26.265
26.2761
26.2789
26.272
26.2549
26.2278
26.191
26.1452
26.0913
26.0302
25.9639
25.8929
25.8178
25.7386
25.6555
25.5683
25.4771
25.3816
25.2822
25.1789
25.0719
24.9621
24.851
24.7395
24.6265
24.5114
24.3956
24.2808
24.1676
24.0559
23.9458
23.8374
23.7308
23.6261
23.5233
23.4225
23.3237
23.2269
23.1321
23.0391
22.9479
22.8585
22.7707
22.6845
22.6001
22.5175
22.4365
22.3573
22.2798
22.204
22.1299
22.0575
21.9867
21.9176
21.8501
21.784
21.7191
21.6555
21.5928
21.5308
21.4697
21.4092
21.3493
21.2902
21.2317
21.1739
21.1168
21.0603
21.0045
20.9494
20.8949
20.841
20.7878
20.7353
20.6833
20.632
20.5812
20.5311
20.4818
20.4332
20.3852
20.3378
20.291
20.2449
20.1995
20.1548
20.1109
20.0676
20.0251
19.9833
19.9422
19.9017
19.862
19.8229
19.7844
19.7466
19.7094
19.6729
19.637
19.6017
19.567
19.5329
19.4994
19.4664
19.4341
19.4022
19.3709
19.3401
19.3098
19.28
19.2507
19.2219
19.1935
19.1656
19.1382
19.1112
19.0845
19.0583
19.0324
19.007
18.9818
18.9571
18.9327
18.9086
18.8849
18.8614
18.8383
18.8155
18.7929
18.7706
18.7486
18.7269
18.7054
18.6841
18.6631
18.6423
18.6218
18.6015
18.5814
18.5616
18.542
18.5226
18.5035
18.4846
18.466
18.4475
18.4293
18.4113
18.3935
18.3758
18.3584
18.3411
18.3241
18.3072
18.2905
18.2741
18.2578
18.2417
18.2258
18.2101
18.1945
18.1791
18.1639
18.1487
18.1337
18.1189
18.1041
18.0895
18.075
18.0606
18.0463
18.0321
18.018
18.0041
17.9903
17.9765
17.9629
17.9493
17.9358
17.9225
17.9093
17.8962
17.8833
17.8705
17.8579
17.8454
17.8331
17.821
17.809
17.7972
17.7856
17.7741
17.7627
17.7516
17.7405
17.7296
17.7189
17.7083
17.6978
17.6874
17.6772
17.667
17.657
17.647
17.6372
17.6274
17.6177
17.6081
17.5986
17.5891
17.5797
17.5704
17.5612
17.552
17.543
17.534
17.525
17.5161
17.5073
17.4985
17.4898
17.4811
17.4726
17.4641
17.4557
17.4473
17.439
17.4307
17.4226
17.4145
17.4065
17.3985
17.3906
17.3828
17.3751
17.3674
17.3599
17.3523
17.3449
17.3375
17.3302
17.3229
17.3158
17.3086
17.3016
17.2946
17.2877
17.2809
17.2741
17.2673
17.2606
17.254
17.2473
17.2408
17.2342
17.2277
17.2212
17.2147
17.2083
17.2018
17.1954
17.189
17.1827
17.1763
17.1701
17.1638
17.1576
17.1514
17.1453
17.1391
17.1331
17.127
17.121
17.115
17.1091
17.1031
17.0972
17.0913
17.0855
17.0797
17.0739
17.0681
17.0623
17.0566
17.0509
17.0452
17.0395
17.0337
17.028
17.0223
17.0166
17.0109
17.0052
16.9996
16.9939
16.9882
16.9826
16.9769
16.9713
16.9657
16.9602
16.9546
16.9491
16.9435
16.938
16.9325
16.9271
16.9217
16.9163
16.911
16.9057
16.9005
16.8953
16.8901
16.885
16.8798
16.8746
16.8695
16.8643
16.8592
16.854
16.8489
16.8437
16.8385
16.8333
16.828
16.8228
16.8176
16.8124
16.8072
16.802
16.7968
16.7916
16.7864
16.7812
16.776
16.7708
16.7655
16.7603
16.7551
16.75
16.7448
16.7397
16.7346
16.7296
16.7245
16.7195
16.7144
16.7094
16.7044
16.6993
16.6943
16.6893
16.6843
16.6794
16.6744
16.6695
16.6646
16.6597
16.6549
16.6501
16.6453
16.6406
16.6358
16.6311
16.6264
16.6218
16.6171
16.6125
16.608
16.6034
16.5989
16.5944
16.5898
16.5853
16.5807
16.5761
16.5714
16.5667
16.5621
16.5574
16.5527
16.548
16.5434
16.5387
16.534
16.5293
16.5245
16.5198
16.5151
16.5105
16.5059
16.5014
16.4969
16.4925
16.4881
16.4837
16.4793
16.475
16.4707
16.4664
16.4621
16.4579
16.4537
16.4496
16.4455
16.4413
16.4372
16.433
16.4288
16.4246
16.4203
16.4159
16.4116
16.4072
16.4028
16.3984
16.394
16.3896
16.3852
16.3808
16.3764
16.372
16.3676
16.3632
16.3587
16.3543
16.3498
16.3453
16.3409
16.3364
16.3319
16.3275
16.323
16.3185
16.3139
16.3093
16.3046
16.2998
16.2949
16.29
16.285
16.2799
16.2749
16.2698
16.2647
16.2597
16.2547
16.2496
16.2446
16.2395
16.2343
16.2291
16.2238
16.2185
16.2132
16.2079
16.2026
16.1972
16.1918
16.1863
16.1809
16.1753
16.1698
16.1642
16.1587
16.153
16.1476
16.1421
16.1368
16.1313
16.1262
16.1208
16.1158
16.1106
16.1057
16.1006
16.096
16.0909
16.0865
16.0816
16.0773
16.0725
16.0682
16.0634
16.0592
16.0544
16.0504
16.0461
16.0432
16.04
16.0391
16.0386
16.0415
16.0465
16.0571
16.0732
16.0994
16.1354
16.1936
16.2513
16.4682
16.898
17.3524
17.8126
18.4779
19.3839
20.5586
21.7104
23.2272
24.0914
19.6669
12.7606
7.03622
0.762086
1.01134
1.34568
1.72918
2.15342
2.61912
3.19405
3.82239
4.4873
5.15314
5.82392
6.47742
7.11175
7.7154
8.28799
8.82381
9.32686
9.79664
10.2358
10.645
11.0254
11.3775
11.6975
11.9857
12.2452
12.4807
12.6988
12.9062
13.1109
13.3218
13.544
13.7794
14.0279
14.269
14.4945
14.7045
14.8983
15.0755
15.2356
15.3777
15.5011
15.6048
15.6886
15.7522
15.7956
15.8188
15.8227
15.8096
15.7818
15.7421
15.6935
15.6391
15.582
15.5249
15.4697
15.4176
15.3699
15.3254
15.2828
15.2414
15.1997
15.1572
15.1138
15.0699
15.0258
14.9814
14.9365
14.8913
14.8456
14.7994
14.7526
14.7051
14.6567
14.6073
14.5567
14.5047
14.4512
14.3963
14.3397
14.2818
14.2226
14.1622
14.101
14.0389
13.9764
13.9134
13.8501
13.7866
13.723
13.6592
13.5955
13.5317
13.4679
13.4041
13.3406
13.2777
13.2152
13.1531
13.0915
13.0305
12.9701
12.9103
12.8511
12.7927
12.7349
12.6779
12.6217
12.5663
12.5118
12.4581
12.4054
12.3535
12.3025
12.2524
12.2034
12.1553
12.1082
12.0619
12.0166
11.9722
11.9287
11.8861
11.8445
11.8038
11.7639
11.725
11.687
11.6498
11.6134
11.5779
11.5432
11.5093
11.4762
11.4438
11.4122
11.3813
11.3511
11.3216
11.2928
11.2646
11.2371
11.2102
11.1839
11.1582
11.1331
11.1086
11.0846
11.0612
11.0383
11.0159
10.994
10.9727
10.9518
10.9314
10.9115
10.892
10.8729
10.8542
10.836
10.8181
10.8006
10.7835
10.7667
10.7503
10.7342
10.7184
10.7028
10.6876
10.6727
10.658
10.6436
10.6295
10.6155
10.6019
10.5884
10.5751
10.5621
10.5492
10.5366
10.5242
10.512
10.5
10.4881
10.4765
10.4651
10.4538
10.4426
10.4317
10.4209
10.4102
10.3997
10.3893
10.3791
10.3691
10.3592
10.3495
10.34
10.3306
10.3213
10.3121
10.3031
10.2941
10.2853
10.2765
10.2679
10.2593
10.2508
10.2423
10.234
10.2257
10.2175
10.2093
10.2011
10.1929
10.1847
10.1766
10.1684
10.1603
10.1522
10.1441
10.136
10.128
10.1201
10.1122
10.1043
10.0965
10.0888
10.0811
10.0735
10.0659
10.0585
10.0511
10.0437
10.0364
10.0292
10.022
10.0149
10.0079
10.0009
9.99392
9.98702
9.98016
9.97334
9.96654
9.95977
9.95302
9.9463
9.9396
9.93293
9.92629
9.91966
9.91305
9.90644
9.89984
9.89325
9.88666
9.88007
9.8735
9.86694
9.8604
9.85388
9.84737
9.84088
9.83441
9.82797
9.82156
9.81518
9.80884
9.80254
9.79629
9.79008
9.78393
9.77783
9.77179
9.7658
9.75987
9.75399
9.74818
9.74242
9.73674
9.73112
9.72557
9.7201
9.71469
9.70935
9.70408
9.69887
9.69373
9.68865
9.68362
9.67865
9.67374
9.66888
9.66408
9.65933
9.65462
9.64997
9.64536
9.64079
9.63628
9.63181
9.62739
9.62302
9.6187
9.61443
9.61021
9.60604
9.60191
9.59783
9.59379
9.58979
9.58582
9.5819
9.57802
9.57417
9.57037
9.5666
9.56288
9.55919
9.55554
9.55193
9.54835
9.5448
9.54127
9.53777
9.53429
9.53084
9.5274
9.524
9.52062
9.51726
9.51393
9.51062
9.50734
9.50409
9.50087
9.49768
9.49452
9.49138
9.48827
9.48518
9.48212
9.47908
9.47608
9.47311
9.47018
9.46729
9.46444
9.46164
9.45886
9.4561
9.45334
9.4506
9.44787
9.44515
9.44243
9.43971
9.43698
9.43423
9.43148
9.42871
9.42593
9.42314
9.42034
9.41754
9.41473
9.41191
9.40909
9.40625
9.4034
9.40052
9.39762
9.3947
9.39176
9.3888
9.38583
9.38285
9.37988
9.37692
9.37397
9.37102
9.36807
9.36511
9.36213
9.35914
9.35614
9.35313
9.35012
9.3471
9.34409
9.34106
9.33803
9.335
9.33196
9.32893
9.3259
9.32289
9.3199
9.31691
9.31393
9.31097
9.30801
9.30506
9.30212
9.29921
9.29632
9.29346
9.29062
9.2878
9.28499
9.28219
9.27937
9.27654
9.27368
9.27081
9.26792
9.26503
9.26216
9.25929
9.25642
9.25356
9.25069
9.24781
9.24493
9.24204
9.23917
9.23632
9.23352
9.23077
9.22808
9.22544
9.22286
9.22033
9.21784
9.21539
9.21298
9.21061
9.20829
9.20603
9.20384
9.20173
9.19969
9.19772
9.19579
9.1939
9.19202
9.19015
9.18827
9.1864
9.18453
9.18266
9.18081
9.17897
9.17716
9.17538
9.17363
9.17192
9.17025
9.1686
9.16697
9.16536
9.16375
9.16216
9.16057
9.15898
9.15741
9.15586
9.15433
9.15283
9.15136
9.1499
9.14844
9.14696
9.14546
9.14393
9.14236
9.14074
9.13906
9.13735
9.1356
9.13384
9.13207
9.1303
9.12853
9.12677
9.12498
9.12317
9.12131
9.11939
9.11741
9.11537
9.11328
9.11115
9.10898
9.10678
9.10451
9.10219
9.09981
9.09738
9.09491
9.09241
9.08988
9.08735
9.08481
9.08228
9.07975
9.07724
9.07474
9.07227
9.06981
9.06739
9.06498
9.06263
9.0603
9.05803
9.0558
9.05365
9.05154
9.0495
9.04748
9.04549
9.04348
9.0415
9.0396
9.0379
9.03661
9.03573
9.03579
9.03674
9.03935
9.04394
9.0517
9.06374
9.08229
9.10906
9.15177
9.20454
9.33669
9.57878
9.90111
10.3226
10.9032
11.781
13.0565
14.8559
17.3154
20.0821
19.5809
14.0123
7.68867
0.61053
0.656594
0.728247
0.823484
0.941958
1.08392
1.25158
1.42938
1.61487
1.80618
2.00298
2.20205
2.40434
2.60493
2.80397
2.99909
3.1921
3.38145
3.56648
3.74772
3.92865
4.11413
4.30681
4.50596
4.70903
4.91371
5.11854
5.32302
5.52733
5.73218
5.93906
6.14927
6.36429
6.58337
6.8052
7.02862
7.25243
7.47565
7.69629
7.90774
8.10735
8.29956
8.48793
8.67435
8.85943
9.04314
9.21926
9.38214
9.53176
9.66842
9.79263
9.90524
10.0072
10.0996
10.1833
10.259
10.3275
10.3885
10.442
10.4878
10.5253
10.5543
10.5746
10.5868
10.5912
10.588
10.5774
10.5601
10.5366
10.5076
10.4737
10.4358
10.3947
10.3512
10.3059
10.2595
10.2125
10.1653
10.1182
10.0713
10.0247
9.97835
9.93226
9.88617
9.83987
9.79315
9.74584
9.69773
9.64865
9.59848
9.54717
9.49466
9.44095
9.38613
9.3303
9.27379
9.21676
9.15951
9.10219
9.04505
8.9883
8.93209
8.87657
8.82186
8.76806
8.71524
8.66344
8.61273
8.56312
8.51462
8.46725
8.42097
8.37579
8.3317
8.28875
8.24689
8.20607
8.16629
8.12755
8.08981
8.05305
8.01724
7.98236
7.94841
7.91536
7.88321
7.85193
7.8215
7.7919
7.76311
7.73512
7.7079
7.68143
7.65571
7.6307
7.60639
7.58276
7.5598
7.53748
7.51579
7.4947
7.47421
7.45428
7.43491
7.41609
7.39779
7.38002
7.36276
7.346
7.32974
7.31395
7.29864
7.28377
7.26934
7.25532
7.24172
7.2285
7.21567
7.2032
7.19108
7.17931
7.16787
7.15674
7.14592
7.1354
7.12515
7.11517
7.10546
7.09598
7.08675
7.07775
7.06896
7.06038
7.052
7.04381
7.03579
7.02794
7.02025
7.01272
7.00536
6.99817
6.99113
6.98425
6.97751
6.97091
6.96444
6.95809
6.95186
6.94574
6.93972
6.93381
6.92801
6.92233
6.91677
6.91134
6.90603
6.90084
6.89576
6.89078
6.88589
6.88108
6.87635
6.87167
6.86706
6.8625
6.858
6.85355
6.84916
6.84482
6.84052
6.83626
6.83203
6.82781
6.8236
6.81938
6.81516
6.81093
6.80668
6.80243
6.79818
6.79393
6.78968
6.78542
6.78118
6.77693
6.77269
6.76846
6.76425
6.76006
6.75589
6.75174
6.74762
6.74352
6.73944
6.73538
6.73135
6.72734
6.72336
6.7194
6.71547
6.71156
6.70766
6.70378
6.6999
6.69604
6.69218
6.68832
6.68447
6.68063
6.6768
6.67296
6.66913
6.66529
6.66144
6.65758
6.65371
6.64982
6.64592
6.64202
6.6381
6.63418
6.63024
6.6263
6.62235
6.61839
6.61444
6.61048
6.60653
6.60258
6.59864
6.59472
6.5908
6.58691
6.58303
6.57918
6.57534
6.57152
6.56772
6.56395
6.56021
6.55649
6.5528
6.54914
6.54552
6.54192
6.53837
6.53484
6.53134
6.52788
6.52444
6.52103
6.51765
6.51429
6.51097
6.50768
6.50441
6.50117
6.49795
6.49477
6.4916
6.48847
6.48536
6.48228
6.47923
6.47621
6.47322
6.47026
6.46732
6.46441
6.46153
6.45867
6.45584
6.45303
6.45025
6.44749
6.44475
6.44205
6.43937
6.43671
6.43408
6.43148
6.4289
6.42635
6.42381
6.4213
6.4188
6.41633
6.41387
6.41144
6.40902
6.40663
6.40427
6.40192
6.3996
6.3973
6.39503
6.39279
6.39057
6.38838
6.38622
6.38408
6.38197
6.37988
6.37782
6.37578
6.37379
6.37182
6.3699
6.36801
6.36614
6.36431
6.36249
6.36069
6.3589
6.35712
6.35536
6.3536
6.35184
6.35008
6.34832
6.34655
6.34478
6.343
6.34122
6.33944
6.33765
6.33587
6.33409
6.33229
6.33049
6.32867
6.32684
6.325
6.32314
6.32127
6.31938
6.3175
6.31562
6.31374
6.31187
6.31
6.30813
6.30626
6.30437
6.30247
6.30056
6.29864
6.29671
6.29478
6.29284
6.29089
6.28893
6.28696
6.28498
6.28299
6.281
6.279
6.27701
6.27501
6.27302
6.27102
6.26902
6.26702
6.26502
6.26302
6.26103
6.25905
6.25708
6.25512
6.25317
6.25122
6.24926
6.24727
6.24527
6.24324
6.2412
6.23914
6.23709
6.23503
6.23297
6.2309
6.22883
6.22675
6.22465
6.22254
6.22043
6.21833
6.21625
6.2142
6.21218
6.21019
6.20824
6.20632
6.20443
6.20257
6.20072
6.19889
6.19709
6.19533
6.19361
6.19195
6.19035
6.1888
6.1873
6.18583
6.18439
6.18297
6.18156
6.18015
6.17875
6.17736
6.17598
6.17461
6.17327
6.17196
6.17068
6.16944
6.16823
6.16706
6.16592
6.1648
6.1637
6.16262
6.16154
6.16048
6.15942
6.15839
6.15739
6.15641
6.15547
6.15455
6.15365
6.15276
6.15187
6.15098
6.15008
6.14916
6.14822
6.14726
6.14628
6.1453
6.14432
6.14335
6.14239
6.14144
6.14049
6.13954
6.13856
6.13756
6.13651
6.13544
6.13433
6.1332
6.13204
6.13084
6.1296
6.12832
6.12699
6.12563
6.12423
6.12283
6.1214
6.11998
6.11854
6.11712
6.11568
6.11427
6.11283
6.11143
6.11001
6.10863
6.10724
6.1059
6.10453
6.10324
6.10193
6.10072
6.0995
6.09839
6.09725
6.09618
6.09506
6.094
6.09293
6.09203
6.09134
6.09097
6.09117
6.092
6.09388
6.09709
6.10237
6.11043
6.12289
6.14093
6.16977
6.20827
6.29303
6.43399
6.64358
6.94514
7.37385
8.0435
9.08714
10.7419
13.1261
16.3441
17.9282
14.9516
8.43834
0.58949
0.598878
0.617047
0.643217
0.679131
0.725813
0.783436
0.848326
0.918394
0.989025
1.05996
1.13286
1.20776
1.28348
1.35986
1.43629
1.51307
1.58984
1.66634
1.74275
1.81976
1.8984
1.97947
2.06299
2.14844
2.2351
2.3224
2.40997
2.49758
2.58503
2.67224
2.75927
2.84638
2.93374
3.02148
3.10963
3.19824
3.28734
3.37835
3.47978
3.59722
3.72756
3.86631
4.01056
4.15872
4.31005
4.4635
4.61772
4.77167
4.9246
5.07578
5.22469
5.37094
5.51427
5.65448
5.79141
5.92488
6.05486
6.18113
6.30316
6.4203
6.53173
6.63652
6.73451
6.82548
6.909
6.98235
7.0455
7.09873
7.14242
7.17703
7.20307
7.22111
7.23176
7.23561
7.2332
7.22504
7.21156
7.19307
7.16987
7.14226
7.1105
7.07489
7.03569
6.99327
6.94804
6.90053
6.8513
6.801
6.75027
6.69991
6.65061
6.6028
6.55678
6.51255
6.47002
6.42914
6.38969
6.35124
6.31392
6.27767
6.24248
6.20831
6.1751
6.14279
6.11131
6.08057
6.05055
6.02121
5.99251
5.96444
5.93696
5.91006
5.8837
5.85792
5.83275
5.8082
5.78421
5.76079
5.73792
5.71559
5.6938
5.67256
5.65185
5.63169
5.61206
5.59295
5.57437
5.5563
5.53873
5.52166
5.50508
5.48899
5.47336
5.4582
5.44349
5.42923
5.4154
5.40201
5.38903
5.37646
5.36428
5.35249
5.34107
5.33002
5.31933
5.30899
5.29899
5.28934
5.28003
5.27104
5.26236
5.254
5.24592
5.23814
5.23062
5.22338
5.21639
5.20965
5.20316
5.19689
5.19085
5.18503
5.17942
5.17401
5.1688
5.16377
5.15892
5.15424
5.14972
5.14536
5.14115
5.13709
5.13316
5.12936
5.12568
5.12211
5.11865
5.1153
5.11206
5.10893
5.10591
5.10298
5.10016
5.09743
5.09478
5.09222
5.08972
5.0873
5.08494
5.08264
5.08042
5.07826
5.07617
5.07416
5.07223
5.07038
5.06859
5.06687
5.0652
5.06358
5.062
5.06045
5.05893
5.05744
5.05598
5.05455
5.05315
5.05177
5.05041
5.04907
5.04775
5.04643
5.04511
5.04379
5.04245
5.04111
5.03975
5.03838
5.037
5.03561
5.03421
5.0328
5.03138
5.02995
5.02851
5.02706
5.02561
5.02416
5.02271
5.02126
5.01981
5.01836
5.01692
5.01547
5.01402
5.01258
5.01113
5.00968
5.00824
5.00679
5.00534
5.00388
5.00241
5.00092
4.99943
4.99792
4.9964
4.99486
4.99331
4.99175
4.99016
4.98855
4.98692
4.98525
4.98355
4.98182
4.98006
4.97827
4.97644
4.97458
4.97268
4.97076
4.96879
4.9668
4.96477
4.96272
4.96063
4.95853
4.9564
4.95424
4.95207
4.94989
4.94769
4.94547
4.94324
4.941
4.93874
4.93648
4.93421
4.93193
4.92965
4.92737
4.92508
4.92279
4.92051
4.91822
4.91594
4.91366
4.91138
4.90909
4.90681
4.90453
4.90226
4.89999
4.89772
4.89546
4.8932
4.89095
4.88871
4.88647
4.88424
4.88202
4.87981
4.87762
4.87543
4.87326
4.87109
4.86894
4.86681
4.86468
4.86256
4.86045
4.85836
4.85628
4.85422
4.85216
4.85013
4.8481
4.8461
4.8441
4.84213
4.84016
4.83821
4.83628
4.83435
4.83245
4.83055
4.82867
4.82681
4.82497
4.82314
4.82133
4.81953
4.81776
4.81601
4.81429
4.81258
4.8109
4.80925
4.80761
4.806
4.80441
4.80285
4.80131
4.7998
4.79832
4.79687
4.79545
4.79406
4.7927
4.79136
4.79003
4.78873
4.78744
4.78616
4.7849
4.78364
4.78239
4.78114
4.7799
4.77866
4.77742
4.77618
4.77495
4.77373
4.77251
4.77129
4.77007
4.76886
4.76764
4.76641
4.76518
4.76393
4.76269
4.76143
4.76018
4.75893
4.75768
4.75643
4.75518
4.75393
4.75267
4.7514
4.75011
4.74881
4.7475
4.74617
4.74483
4.74347
4.7421
4.74072
4.73931
4.73789
4.73646
4.73501
4.73355
4.73207
4.73059
4.72909
4.72759
4.72607
4.72454
4.72299
4.72143
4.71987
4.7183
4.71673
4.71516
4.71358
4.71199
4.71039
4.70876
4.70711
4.70544
4.70375
4.70203
4.70031
4.69858
4.69685
4.6951
4.69335
4.69158
4.6898
4.68801
4.6862
4.6844
4.6826
4.68081
4.67903
4.67728
4.67554
4.67382
4.67211
4.67041
4.66872
4.66703
4.66536
4.66369
4.66206
4.66045
4.65888
4.65734
4.65584
4.65437
4.65292
4.65148
4.65006
4.64864
4.64723
4.64582
4.64442
4.64303
4.64166
4.64031
4.63899
4.63771
4.63645
4.63522
4.63402
4.63285
4.63169
4.63055
4.62942
4.6283
4.6272
4.62611
4.62505
4.62401
4.62301
4.62203
4.62107
4.62014
4.61921
4.6183
4.61739
4.61649
4.61558
4.61467
4.61376
4.61285
4.61196
4.61108
4.61021
4.60937
4.60855
4.60773
4.60692
4.6061
4.60527
4.60444
4.60359
4.60274
4.60187
4.60099
4.60008
4.59915
4.59819
4.59721
4.59621
4.59522
4.59422
4.59324
4.59225
4.59128
4.5903
4.58935
4.58838
4.58744
4.58647
4.58554
4.5846
4.58369
4.58276
4.58188
4.58099
4.58016
4.57933
4.57857
4.5778
4.57708
4.57631
4.57559
4.57486
4.57422
4.57373
4.57345
4.57355
4.57409
4.57536
4.57752
4.58112
4.5866
4.59518
4.60766
4.62782
4.656
4.71376
4.80508
4.94758
5.15757
5.46685
5.96577
6.75615
8.1377
10.2033
13.2762
15.9132
14.9869
9.20591
0.586695
0.590201
0.598618
0.609131
0.621881
0.637608
0.65746
0.682081
0.711491
0.743376
0.777081
0.811047
0.845235
0.879758
0.915133
0.95108
0.98756
1.02445
1.06163
1.09911
1.13693
1.17515
1.21392
1.25338
1.2936
1.3346
1.37637
1.41887
1.46207
1.50586
1.55016
1.59493
1.64005
1.68556
1.73147
1.77786
1.82482
1.87242
1.92115
1.97359
2.03139
2.09375
2.15944
2.22759
2.29766
2.36932
2.44233
2.51649
2.59157
2.66739
2.7438
2.82066
2.89783
2.97518
3.05263
3.13006
3.2074
3.28451
3.36127
3.43747
3.51269
3.58665
3.65912
3.73016
3.79973
3.86766
3.93365
3.99737
4.05858
4.11707
4.17264
4.22513
4.27442
4.3204
4.36293
4.40189
4.4372
4.46875
4.49641
4.52017
4.54003
4.55598
4.56802
4.57623
4.58077
4.58185
4.57977
4.5749
4.56767
4.55914
4.54963
4.5395
4.52913
4.51888
4.50897
4.49956
4.49067
4.4823
4.47473
4.46767
4.46094
4.45441
4.44798
4.4416
4.43475
4.42716
4.41898
4.41033
4.40129
4.39193
4.38229
4.37245
4.3624
4.35217
4.34187
4.33166
4.32154
4.31143
4.30141
4.29153
4.28179
4.27223
4.26282
4.25358
4.2445
4.2356
4.22687
4.21832
4.20996
4.2018
4.19382
4.18605
4.17848
4.17112
4.16397
4.15704
4.15032
4.14382
4.13753
4.13146
4.12559
4.11993
4.11446
4.1092
4.10413
4.09924
4.09455
4.09005
4.08573
4.08159
4.07764
4.07385
4.07024
4.0668
4.06351
4.06039
4.05741
4.05458
4.05189
4.04935
4.04694
4.04466
4.04252
4.04049
4.03859
4.03681
4.03514
4.03357
4.03211
4.03076
4.0295
4.02833
4.02726
4.02627
4.02537
4.02454
4.02379
4.02311
4.0225
4.02196
4.02149
4.02109
4.02077
4.02051
4.0203
4.02016
4.02007
4.02002
4.02002
4.02006
4.02013
4.02024
4.02039
4.02058
4.02082
4.0211
4.02143
4.02179
4.02219
4.02262
4.02307
4.02354
4.02403
4.02453
4.02504
4.02556
4.0261
4.02664
4.0272
4.02777
4.02835
4.02893
4.02952
4.0301
4.03068
4.03125
4.03181
4.03236
4.03291
4.03344
4.03396
4.03448
4.03499
4.03548
4.03596
4.03644
4.0369
4.03735
4.03779
4.03822
4.03865
4.03906
4.03945
4.03984
4.0402
4.04055
4.04088
4.04119
4.04148
4.04174
4.04198
4.0422
4.04238
4.04253
4.04264
4.04272
4.04276
4.04277
4.04273
4.04266
4.04255
4.04239
4.04219
4.04194
4.04163
4.04128
4.04087
4.0404
4.03988
4.03931
4.03868
4.03799
4.03725
4.03645
4.0356
4.0347
4.03374
4.03273
4.03168
4.03058
4.02944
4.02826
4.02704
4.02579
4.0245
4.02318
4.02183
4.02045
4.01904
4.0176
4.01614
4.01465
4.01314
4.01162
4.01007
4.00851
4.00693
4.00533
4.00372
4.0021
4.00045
3.9988
3.99713
3.99546
3.99377
3.99208
3.99037
3.98867
3.98696
3.98524
3.98353
3.98181
3.98009
3.97837
3.97665
3.97494
3.97323
3.97153
3.96983
3.96814
3.96645
3.96476
3.96308
3.96141
3.95975
3.95809
3.95644
3.95481
3.95318
3.95156
3.94996
3.94836
3.94678
3.9452
3.94364
3.94209
3.94055
3.93902
3.9375
3.936
3.93451
3.93303
3.93157
3.93013
3.9287
3.9273
3.92591
3.92454
3.9232
3.92188
3.92057
3.91929
3.91803
3.91679
3.91558
3.91439
3.91323
3.91209
3.91099
3.90991
3.90885
3.90782
3.9068
3.90581
3.90484
3.90388
3.90293
3.90199
3.90107
3.90015
3.89925
3.89835
3.89746
3.89657
3.8957
3.89483
3.89397
3.89312
3.89228
3.89143
3.89059
3.88974
3.88888
3.88802
3.88716
3.88628
3.8854
3.88451
3.88362
3.88272
3.88181
3.88089
3.87995
3.87899
3.87801
3.87701
3.87598
3.87492
3.87385
3.87275
3.87162
3.87047
3.8693
3.86809
3.86687
3.86562
3.86435
3.86306
3.86175
3.86041
3.85906
3.85769
3.85629
3.85487
3.85344
3.85198
3.85051
3.84902
3.84752
3.84601
3.84448
3.84294
3.84137
3.83977
3.83815
3.83651
3.83486
3.83319
3.83151
3.82982
3.82813
3.82642
3.82471
3.82298
3.82124
3.81949
3.81773
3.81598
3.81423
3.81249
3.81075
3.80903
3.80731
3.8056
3.80389
3.80219
3.80048
3.79876
3.79706
3.79536
3.79369
3.79203
3.7904
3.78879
3.78721
3.78564
3.78408
3.78254
3.78101
3.77948
3.77796
3.77644
3.77494
3.77344
3.77197
3.77052
3.76909
3.76769
3.76632
3.76497
3.76364
3.76234
3.76104
3.75977
3.7585
3.75725
3.75602
3.75481
3.75362
3.75246
3.75133
3.75022
3.74913
3.74806
3.74701
3.74597
3.74495
3.74393
3.74292
3.74192
3.74094
3.73997
3.73902
3.7381
3.73721
3.73633
3.73548
3.73465
3.73383
3.73302
3.73222
3.73142
3.73064
3.72986
3.72909
3.7283
3.72751
3.7267
3.72589
3.72507
3.72427
3.72348
3.7227
3.72193
3.72118
3.72044
3.71971
3.71898
3.71827
3.71754
3.71684
3.71612
3.71543
3.71472
3.71404
3.71335
3.7127
3.71204
3.71143
3.71081
3.71021
3.70958
3.70896
3.70833
3.70776
3.70727
3.70692
3.70684
3.70705
3.70778
3.70913
3.71152
3.71522
3.72118
3.72996
3.74429
3.76514
3.80544
3.8675
3.96709
4.11729
4.341
4.71313
5.30496
6.40337
8.16003
10.8578
13.9129
14.6067
10.0491
0.586808
0.590051
0.597273
0.605409
0.613287
0.621435
0.629616
0.639175
0.650544
0.664083
0.679837
0.696808
0.714872
0.733715
0.75285
0.772315
0.792122
0.812342
0.833183
0.854938
0.877684
0.901498
0.926464
0.952627
0.980199
1.00939
1.04025
1.07271
1.10664
1.1419
1.17834
1.21587
1.25437
1.29381
1.33459
1.3774
1.42253
1.46989
1.51924
1.57047
1.6236
1.67854
1.73516
1.79328
1.85271
1.91328
1.97475
2.03699
2.09979
2.16298
2.22633
2.2896
2.35253
2.4149
2.47645
2.53691
2.59598
2.65333
2.70861
2.76144
2.81144
2.85839
2.90236
2.94378
2.98343
3.02187
3.05934
3.09587
3.13148
3.16619
3.19996
3.23275
3.26447
3.29516
3.32476
3.35317
3.38029
3.40604
3.43032
3.45314
3.47425
3.49358
3.51085
3.52607
3.53926
3.55046
3.55972
3.56712
3.57275
3.57677
3.57936
3.5807
3.58097
3.58034
3.57899
3.57707
3.57471
3.57203
3.56917
3.56617
3.56308
3.55991
3.55669
3.55346
3.55017
3.54676
3.54321
3.5395
3.53549
3.53119
3.52664
3.52188
3.51695
3.51188
3.50674
3.50174
3.49689
3.49227
3.48785
3.48361
3.47955
3.47563
3.47164
3.46762
3.46362
3.45964
3.45572
3.45186
3.44807
3.44433
3.44067
3.43711
3.43366
3.43034
3.42714
3.42405
3.42109
3.41824
3.41551
3.4129
3.41041
3.40804
3.40578
3.40363
3.4016
3.39967
3.39786
3.39616
3.39457
3.39309
3.39172
3.39045
3.38929
3.38823
3.38727
3.38641
3.38564
3.38497
3.38439
3.3839
3.3835
3.38318
3.38295
3.38281
3.38274
3.38275
3.38283
3.38299
3.38321
3.38351
3.38387
3.38431
3.38481
3.38537
3.38599
3.38668
3.38742
3.38822
3.38908
3.38999
3.39096
3.39198
3.39306
3.3942
3.39538
3.39661
3.39788
3.39919
3.40053
3.4019
3.4033
3.40472
3.40618
3.40766
3.40917
3.4107
3.41227
3.41385
3.41546
3.41709
3.41874
3.42039
3.42205
3.42372
3.4254
3.42708
3.42877
3.43046
3.43217
3.43388
3.4356
3.43732
3.43905
3.44078
3.4425
3.44423
3.44594
3.44766
3.44936
3.45106
3.45276
3.45445
3.45613
3.45781
3.45947
3.46112
3.46276
3.46439
3.466
3.46759
3.46916
3.47071
3.47223
3.47371
3.47516
3.47658
3.47795
3.47928
3.48057
3.4818
3.48299
3.48412
3.4852
3.48622
3.48717
3.48807
3.4889
3.48967
3.49037
3.49101
3.49159
3.49209
3.49253
3.4929
3.49319
3.49342
3.49357
3.49364
3.49365
3.49358
3.49344
3.49323
3.49295
3.4926
3.49218
3.4917
3.49115
3.49054
3.48988
3.48916
3.48838
3.48756
3.4867
3.48579
3.48485
3.48386
3.48284
3.48178
3.48069
3.47957
3.47842
3.47724
3.47603
3.4748
3.47355
3.47228
3.47099
3.46967
3.46834
3.46699
3.46562
3.46423
3.46283
3.46142
3.45999
3.45855
3.45711
3.45566
3.4542
3.45274
3.45128
3.44981
3.44835
3.44688
3.44541
3.44395
3.44249
3.44103
3.43958
3.43813
3.43669
3.43525
3.43382
3.4324
3.43099
3.42958
3.42819
3.4268
3.42543
3.42407
3.42272
3.42138
3.42005
3.41873
3.41742
3.41613
3.41484
3.41357
3.41231
3.41107
3.40983
3.40862
3.40741
3.40623
3.40505
3.4039
3.40277
3.40166
3.40056
3.39949
3.39844
3.39741
3.3964
3.39542
3.39445
3.39351
3.3926
3.39171
3.39085
3.39001
3.3892
3.38841
3.38763
3.38688
3.38615
3.38543
3.38473
3.38404
3.38336
3.3827
3.38204
3.3814
3.38077
3.38014
3.37953
3.37892
3.37831
3.37772
3.37712
3.37652
3.37591
3.3753
3.37467
3.37403
3.37337
3.37269
3.372
3.37129
3.37056
3.3698
3.36902
3.36821
3.36737
3.36649
3.36557
3.36462
3.36363
3.36261
3.36155