/*--------------------------------*- C++ -*----------------------------------*\
| =========                 |                                                 |
| \\      /  F ield         | foam-extend: Open Source CFD                    |
|  \\    /   O peration     | Version:     3.2                                |
|   \\  /    A nd           | Web:         http://www.foam-extend.org         |
|    \\/     M anipulation  | For copyright notice see file Copyright         |
\*---------------------------------------------------------------------------*/
FoamFile
{
    version     2.0;
    format      ascii;
    class       areaScalarField;
    location    "120";
    object      Pef;
}
// * * * * * * * * * * * * * * * * * * * * * * * * * * * * * * * * * * * * * //

dimensions      [0 0 0 0 0 0 0];

internalField   nonuniform List<scalar> 
550
(
0
0
0
0
0.0233473
0.0523837
0.0819594
0.110859
0.138066
0.162664
0.184094
0.20199
0.216312
0.227141
0.234744
0.23944
0.241635
0.241726
0.240127
0.237301
0.233515
0.228998
0.223947
0.218532
0.212904
0.207192
0.2015
0.19593
0.190551
0.185365
0.180381
0.175615
0.171079
0.166776
0.162708
0.158871
0.155261
0.15187
0.14869
0.145711
0.142924
0.140318
0.137882
0.135605
0.133477
0.131487
0.129626
0.127886
0.126259
0.124738
0.123314
0.121981
0.120732
0.11956
0.118457
0.117419
0.116438
0.11551
0.114629
0.113726
0.112957
0.112193
0.11148
0.110818
0.110188
0.109587
0.109011
0.108457
0.107924
0.107408
0.106909
0.106424
0.105953
0.105494
0.105045
0.104607
0.104177
0.103756
0.103344
0.10294
0.102544
0.102155
0.101774
0.101399
0.101031
0.100668
0.100311
0.0999592
0.0996115
0.0992676
0.0989265
0.0985877
0.0982509
0.0979158
0.0975824
0.0972506
0.0969207
0.096593
0.0962678
0.0959446
0.0956232
0.0953031
0.0949837
0.0946644
0.0943448
0.0940244
0.0937029
0.0933798
0.093055
0.0927282
0.0923991
0.0920677
0.0917338
0.0913974
0.0910585
0.0907166
0.0903717
0.0900242
0.0896743
0.0893221
0.0889678
0.0886114
0.0882531
0.087893
0.0875313
0.0871682
0.0868037
0.0864382
0.0860718
0.0857048
0.0853374
0.0849699
0.0846025
0.0842355
0.0838692
0.0835039
0.0831398
0.082777
0.0824159
0.0820566
0.0816993
0.0813442
0.0809913
0.0806408
0.0802929
0.0799475
0.0796048
0.0792647
0.0789273
0.0785925
0.0782605
0.0779311
0.0776045
0.0772806
0.0769596
0.0766414
0.076326
0.0760135
0.0757039
0.0753971
0.0750931
0.0747919
0.0744935
0.0741979
0.0739053
0.0736155
0.0733287
0.073045
0.0727642
0.0724865
0.0722118
0.0719402
0.0716716
0.0714061
0.0711436
0.0708842
0.0706278
0.0703745
0.0701242
0.0698769
0.0696326
0.0693913
0.0691531
0.0689179
0.0686857
0.0684567
0.0682307
0.0680078
0.067788
0.0675715
0.067358
0.0671477
0.0669405
0.0667365
0.0665357
0.066338
0.0661436
0.0659524
0.0657644
0.0655795
0.0653977
0.0652191
0.0650435
0.0648711
0.0647018
0.0645356
0.0643726
0.0642127
0.064056
0.0639023
0.0637516
0.0636038
0.0634586
0.0633161
0.0631762
0.0630392
0.062905
0.0627739
0.062646
0.0625212
0.0623998
0.0622818
0.0621671
0.0620559
0.0619477
0.0618425
0.06174
0.06164
0.0615425
0.0614474
0.0613548
0.0612645
0.0611766
0.061091
0.0610079
0.0609269
0.0608482
0.0607716
0.0606972
0.0606247
0.0605542
0.0604856
0.0604188
0.0603539
0.0602907
0.0602291
0.060169
0.0601103
0.060053
0.0599969
0.0599419
0.0598879
0.0598348
0.0597824
0.0597306
0.0596794
0.0596286
0.059578
0.0595275
0.0594768
0.0594257
0.0593741
0.0593222
0.0592697
0.0592164
0.0591624
0.0591073
0.059051
0.0589936
0.0589349
0.0588749
0.0588136
0.0587507
0.0586862
0.0586199
0.0585517
0.0584817
0.0584098
0.0583358
0.0582599
0.0581819
0.0581019
0.05802
0.0579361
0.0578504
0.0577628
0.0576735
0.0575825
0.0574899
0.0573959
0.0573004
0.0572036
0.0571055
0.0570063
0.056906
0.0568047
0.0567025
0.0565995
0.0564958
0.0563913
0.0562862
0.0561805
0.0560741
0.0559671
0.0558595
0.0557513
0.0556426
0.0555332
0.0554233
0.0553128
0.0552019
0.0550906
0.0549791
0.0548673
0.0547554
0.0546436
0.0545318
0.0544203
0.054309
0.0541981
0.0540875
0.0539774
0.0538677
0.0537583
0.0536494
0.0535407
0.0534325
0.0533246
0.0532173
0.0531104
0.0530042
0.0528987
0.052794
0.0526904
0.0525878
0.0524864
0.0523862
0.0522873
0.0521898
0.0520934
0.0519983
0.0519043
0.0518113
0.0517192
0.0516279
0.0515371
0.0514467
0.0513564
0.0512662
0.0511756
0.0510846
0.050993
0.0509011
0.0508088
0.0507163
0.0506231
0.0505294
0.0504354
0.0503413
0.0502472
0.0501531
0.0500594
0.0499662
0.0498737
0.0497819
0.0496913
0.0496018
0.0495134
0.049426
0.0493396
0.0492542
0.0491696
0.0490856
0.0490019
0.0489186
0.0488351
0.0487514
0.048667
0.0485819
0.0484956
0.048408
0.0483189
0.0482281
0.0481356
0.0480414
0.0479453
0.0478474
0.0477479
0.0476468
0.0475441
0.0474401
0.0473351
0.047229
0.0471219
0.0470141
0.0469057
0.0467967
0.0466871
0.0465771
0.0464666
0.0463558
0.0462448
0.0461335
0.0460221
0.0459106
0.0457987
0.0456863
0.0455733
0.0454595
0.0453448
0.045229
0.045112
0.0449938
0.0448742
0.0447532
0.0446308
0.044507
0.0443817
0.044255
0.0441269
0.0439975
0.0438668
0.0437349
0.0436016
0.0434671
0.0433313
0.0431942
0.0430559
0.0429163
0.0427756
0.0426338
0.0424911
0.0423476
0.0422032
0.0420582
0.0419124
0.041766
0.0416189
0.041471
0.0413223
0.041173
0.0410229
0.0408721
0.0407209
0.0405693
0.0404177
0.0402661
0.0401149
0.0399642
0.0398143
0.0396654
0.0395178
0.0393717
0.0392271
0.0390842
0.038943
0.0388033
0.0386652
0.0385285
0.0383931
0.0382588
0.0381256
0.0379932
0.0378615
0.0377304
0.0375997
0.0374692
0.037339
0.0372091
0.0370797
0.0369509
0.0368229
0.0366958
0.0365697
0.0364446
0.0363204
0.0361971
0.0360748
0.035953
0.0358319
0.0357112
0.0355908
0.0354706
0.0353504
0.0352304
0.0351105
0.0349907
0.034871
0.0347514
0.0346321
0.0345128
0.0343939
0.0342752
0.0341568
0.0340383
0.0339197
0.0338006
0.0336812
0.0335611
0.0334407
0.0333199
0.0331993
0.0330787
0.0329587
0.0328388
0.0327197
0.0326006
0.0324821
0.0323631
0.0322442
0.032124
0.0320029
0.0318796
0.0317548
0.0316272
0.0314982
0.0313666
0.0312342
0.0310998
0.0309656
0.0308297
0.0306946
0.0305576
0.0304209
0.0302812
0.0301403
0.0299929
0.0298419
0.0296752
0.0294992
0.029289
0.0290548
0.0287483
0.028386
0.0278746
0.027238
0.0263504
0.025122
0.0253755
0.0228725
0.0182037
0.0128215
0.00487709
0
0
0
0
0
0
0
)
;

boundaryField
{
    inlet
    {
        type            calculated;
        value           uniform 0;
    }
    endWall
    {
        type            calculated;
        value           uniform 0;
    }
    sideWall
    {
        type            empty;
    }
}


// ************************************************************************* //
