/*--------------------------------*- C++ -*----------------------------------*\
| =========                 |                                                 |
| \\      /  F ield         | foam-extend: Open Source CFD                    |
|  \\    /   O peration     | Version:     3.2                                |
|   \\  /    A nd           | Web:         http://www.foam-extend.org         |
|    \\/     M anipulation  | For copyright notice see file Copyright         |
\*---------------------------------------------------------------------------*/
FoamFile
{
    version     2.0;
    format      ascii;
    class       areaVectorField;
    location    "120";
    object      PointNormalVector;
}
// * * * * * * * * * * * * * * * * * * * * * * * * * * * * * * * * * * * * * //

dimensions      [0 0 0 0 0 0 0];

internalField   nonuniform List<vector> 
550
(
(7.27273e-07 0 0.000363636)
(7.27273e-07 0 0.000363636)
(7.27273e-07 0 0.000363636)
(7.27273e-07 0 0.000363636)
(7.27273e-07 2.64698e-23 0.000363636)
(7.27273e-07 0 0.000363636)
(7.27273e-07 0 0.000363636)
(7.27273e-07 0 0.000363636)
(7.27273e-07 2.64698e-23 0.000363636)
(7.27273e-07 0 0.000363636)
(7.27273e-07 0 0.000363636)
(7.27273e-07 0 0.000363636)
(7.27273e-07 2.64698e-23 0.000363636)
(7.27273e-07 0 0.000363636)
(7.27273e-07 0 0.000363636)
(7.27273e-07 2.64698e-23 0.000363636)
(7.27273e-07 -2.64698e-23 0.000363636)
(7.27273e-07 2.64698e-23 0.000363636)
(7.27273e-07 2.64698e-23 0.000363636)
(7.27273e-07 0 0.000363636)
(7.27273e-07 2.64698e-23 0.000363636)
(7.27273e-07 -2.64698e-23 0.000363636)
(7.27273e-07 0 0.000363636)
(7.27273e-07 2.64698e-23 0.000363636)
(7.27273e-07 0 0.000363636)
(7.27273e-07 0 0.000363636)
(7.27273e-07 2.64698e-23 0.000363636)
(7.27273e-07 0 0.000363636)
(7.27273e-07 0 0.000363636)
(7.27273e-07 0 0.000363636)
(7.27273e-07 0 0.000363636)
(7.27273e-07 0 0.000363636)
(7.27273e-07 0 0.000363636)
(7.27273e-07 0 0.000363636)
(7.27273e-07 0 0.000363636)
(7.27273e-07 0 0.000363636)
(7.27273e-07 0 0.000363636)
(7.27273e-07 0 0.000363636)
(7.27273e-07 2.64698e-23 0.000363636)
(7.27273e-07 0 0.000363636)
(7.27273e-07 0 0.000363636)
(7.27273e-07 0 0.000363636)
(7.27273e-07 0 0.000363636)
(7.27273e-07 0 0.000363636)
(7.27273e-07 0 0.000363636)
(7.27273e-07 0 0.000363636)
(7.27273e-07 0 0.000363636)
(7.27273e-07 0 0.000363636)
(7.27273e-07 0 0.000363636)
(7.27273e-07 0 0.000363636)
(7.27273e-07 0 0.000363636)
(7.27273e-07 0 0.000363636)
(7.27273e-07 0 0.000363636)
(7.27273e-07 0 0.000363636)
(7.27273e-07 0 0.000363636)
(7.27304e-07 -2.64698e-23 0.000363636)
(7.2734e-07 0 0.000363636)
(7.28149e-07 0 0.000363636)
(7.25331e-07 2.64698e-23 0.000363636)
(7.2942e-07 0 0.000363636)
(7.17257e-07 0 0.000363636)
(6.66881e-07 0 0.000363636)
(6.36303e-07 0 0.000363636)
(6.33682e-07 2.64698e-23 0.000363636)
(6.31959e-07 0 0.000363636)
(6.33673e-07 0 0.000363636)
(6.35732e-07 0 0.000363636)
(6.38001e-07 0 0.000363636)
(6.40121e-07 0 0.000363636)
(6.42047e-07 0 0.000363636)
(6.43722e-07 -2.64698e-23 0.000363636)
(6.45078e-07 -2.64698e-23 0.000363636)
(6.46143e-07 0 0.000363636)
(6.47103e-07 -2.64698e-23 0.000363636)
(6.48122e-07 0 0.000363636)
(6.49265e-07 -2.64698e-23 0.000363636)
(6.50692e-07 0 0.000363636)
(6.52432e-07 -2.64698e-23 0.000363636)
(6.54111e-07 -2.64698e-23 0.000363636)
(6.5551e-07 2.64698e-23 0.000363636)
(6.56788e-07 0 0.000363636)
(6.58031e-07 2.64698e-23 0.000363636)
(6.59242e-07 -2.64698e-23 0.000363636)
(6.60449e-07 -2.64698e-23 0.000363636)
(6.61634e-07 2.64698e-23 0.000363636)
(6.6274e-07 2.64698e-23 0.000363636)
(6.63719e-07 -2.64698e-23 0.000363636)
(6.64517e-07 0 0.000363636)
(6.64963e-07 0 0.000363636)
(6.65043e-07 2.64698e-23 0.000363636)
(6.65125e-07 -2.64698e-23 0.000363636)
(6.65431e-07 0 0.000363636)
(6.65877e-07 -2.64698e-23 0.000363636)
(6.66484e-07 2.64698e-23 0.000363636)
(6.67266e-07 0 0.000363636)
(6.68236e-07 -2.64698e-23 0.000363636)
(6.69456e-07 0 0.000363636)
(6.70539e-07 2.64698e-23 0.000363636)
(6.7097e-07 0 0.000363636)
(6.70908e-07 0 0.000363636)
(6.7067e-07 0 0.000363636)
(6.70292e-07 0 0.000363636)
(6.69853e-07 0 0.000363636)
(6.69397e-07 0 0.000363636)
(6.68942e-07 0 0.000363636)
(6.68532e-07 0 0.000363636)
(6.68136e-07 0 0.000363636)
(6.6774e-07 2.64698e-23 0.000363636)
(6.67325e-07 2.64698e-23 0.000363636)
(6.66914e-07 2.64698e-23 0.000363636)
(6.66531e-07 0 0.000363636)
(6.66233e-07 2.64698e-23 0.000363636)
(6.65991e-07 2.64698e-23 0.000363636)
(6.65478e-07 -2.64698e-23 0.000363636)
(6.64734e-07 0 0.000363636)
(6.64364e-07 2.64698e-23 0.000363636)
(6.64444e-07 2.64698e-23 0.000363636)
(6.6453e-07 0 0.000363636)
(6.64564e-07 0 0.000363636)
(6.64609e-07 0 0.000363636)
(6.64673e-07 2.64698e-23 0.000363636)
(6.64781e-07 -2.64698e-23 0.000363636)
(6.6493e-07 -2.64698e-23 0.000363636)
(6.65136e-07 2.64698e-23 0.000363636)
(6.654e-07 -2.64698e-23 0.000363636)
(6.65704e-07 0 0.000363636)
(6.66034e-07 -2.64698e-23 0.000363636)
(6.66396e-07 0 0.000363636)
(6.66807e-07 0 0.000363636)
(6.67281e-07 0 0.000363636)
(6.67828e-07 0 0.000363636)
(6.68445e-07 -2.64698e-23 0.000363636)
(6.69127e-07 0 0.000363636)
(6.69866e-07 0 0.000363636)
(6.70656e-07 0 0.000363636)
(6.71481e-07 0 0.000363636)
(6.72331e-07 0 0.000363636)
(6.73208e-07 0 0.000363636)
(6.74104e-07 0 0.000363636)
(6.75009e-07 0 0.000363636)
(6.75915e-07 2.64698e-23 0.000363636)
(6.76824e-07 0 0.000363636)
(6.77735e-07 0 0.000363636)
(6.78648e-07 0 0.000363636)
(6.7954e-07 2.64698e-23 0.000363636)
(6.804e-07 -2.64698e-23 0.000363636)
(6.81217e-07 0 0.000363636)
(6.81996e-07 0 0.000363636)
(6.82748e-07 0 0.000363636)
(6.83484e-07 -2.64698e-23 0.000363636)
(6.84215e-07 2.64698e-23 0.000363636)
(6.84931e-07 2.64698e-23 0.000363636)
(6.85651e-07 0 0.000363636)
(6.86355e-07 0 0.000363636)
(6.87045e-07 0 0.000363636)
(6.87724e-07 0 0.000363636)
(6.88364e-07 0 0.000363636)
(6.88962e-07 0 0.000363636)
(6.89526e-07 2.64698e-23 0.000363636)
(6.90069e-07 0 0.000363636)
(6.90614e-07 0 0.000363636)
(6.91186e-07 0 0.000363636)
(6.91769e-07 0 0.000363636)
(6.92359e-07 0 0.000363636)
(6.92956e-07 2.64698e-23 0.000363636)
(6.93564e-07 2.64698e-23 0.000363636)
(6.9418e-07 2.64698e-23 0.000363636)
(6.94794e-07 -2.64698e-23 0.000363636)
(6.95388e-07 0 0.000363636)
(6.95972e-07 0 0.000363636)
(6.96576e-07 0 0.000363636)
(6.972e-07 0 0.000363636)
(6.9784e-07 0 0.000363636)
(6.98469e-07 0 0.000363636)
(6.99096e-07 0 0.000363636)
(6.99757e-07 2.64698e-23 0.000363636)
(7.00443e-07 0 0.000363636)
(7.01133e-07 0 0.000363636)
(7.01843e-07 0 0.000363636)
(7.02583e-07 -2.64698e-23 0.000363636)
(7.0334e-07 2.64698e-23 0.000363636)
(7.04107e-07 -2.64698e-23 0.000363636)
(7.04884e-07 2.64698e-23 0.000363636)
(7.05661e-07 0 0.000363636)
(7.06433e-07 0 0.000363636)
(7.07212e-07 -2.64698e-23 0.000363636)
(7.08033e-07 2.64698e-23 0.000363636)
(7.08869e-07 0 0.000363636)
(7.09679e-07 0 0.000363636)
(7.10479e-07 0 0.000363636)
(7.11292e-07 -2.64698e-23 0.000363636)
(7.12132e-07 0 0.000363636)
(7.12974e-07 0 0.000363636)
(7.13816e-07 2.64698e-23 0.000363636)
(7.1466e-07 0 0.000363636)
(7.15493e-07 0 0.000363636)
(7.16277e-07 0 0.000363636)
(7.17001e-07 -2.64698e-23 0.000363636)
(7.17695e-07 0 0.000363636)
(7.18393e-07 2.64698e-23 0.000363636)
(7.19084e-07 0 0.000363636)
(7.19747e-07 0 0.000363636)
(7.20382e-07 0 0.000363636)
(7.20968e-07 0 0.000363636)
(7.21468e-07 0 0.000363636)
(7.21982e-07 2.64698e-23 0.000363636)
(7.22582e-07 -2.64698e-23 0.000363636)
(7.23145e-07 2.64698e-23 0.000363636)
(7.23656e-07 0 0.000363636)
(7.24172e-07 0 0.000363636)
(7.24687e-07 0 0.000363636)
(7.25193e-07 0 0.000363636)
(7.25676e-07 0 0.000363636)
(7.2616e-07 0 0.000363636)
(7.2663e-07 0 0.000363636)
(7.27058e-07 2.64698e-23 0.000363636)
(7.27534e-07 0 0.000363636)
(7.2808e-07 2.64698e-23 0.000363636)
(7.28653e-07 0 0.000363636)
(7.29276e-07 0 0.000363636)
(7.299e-07 0 0.000363636)
(7.30515e-07 2.64698e-23 0.000363636)
(7.31062e-07 0 0.000363636)
(7.31385e-07 0 0.000363636)
(7.31582e-07 0 0.000363636)
(7.31874e-07 0 0.000363636)
(7.32307e-07 0 0.000363636)
(7.3273e-07 -2.64698e-23 0.000363636)
(7.3307e-07 -2.64698e-23 0.000363636)
(7.33434e-07 2.64698e-23 0.000363636)
(7.33839e-07 0 0.000363636)
(7.3423e-07 0 0.000363636)
(7.3457e-07 2.64698e-23 0.000363636)
(7.3485e-07 -2.64698e-23 0.000363636)
(7.35154e-07 0 0.000363636)
(7.35523e-07 -2.64698e-23 0.000363636)
(7.35871e-07 0 0.000363636)
(7.36168e-07 0 0.000363636)
(7.36475e-07 0 0.000363636)
(7.36803e-07 0 0.000363636)
(7.37094e-07 0 0.000363636)
(7.37337e-07 -2.64698e-23 0.000363636)
(7.37556e-07 0 0.000363636)
(7.37735e-07 0 0.000363636)
(7.37888e-07 -2.64698e-23 0.000363636)
(7.38007e-07 0 0.000363636)
(7.38017e-07 -2.64698e-23 0.000363636)
(7.37933e-07 0 0.000363636)
(7.37878e-07 -2.64698e-23 0.000363636)
(7.3782e-07 0 0.000363636)
(7.37651e-07 0 0.000363636)
(7.37387e-07 0 0.000363636)
(7.37099e-07 0 0.000363636)
(7.36718e-07 0 0.000363636)
(7.36207e-07 2.64698e-23 0.000363636)
(7.35684e-07 0 0.000363636)
(7.35195e-07 2.64698e-23 0.000363636)
(7.3476e-07 0 0.000363636)
(7.3425e-07 0 0.000363636)
(7.33646e-07 0 0.000363636)
(7.32883e-07 0 0.000363636)
(7.31792e-07 0 0.000363636)
(7.30952e-07 0 0.000363636)
(7.30493e-07 -2.64698e-23 0.000363636)
(7.30065e-07 0 0.000363636)
(7.29906e-07 0 0.000363636)
(7.29781e-07 0 0.000363636)
(7.29484e-07 0 0.000363636)
(7.29157e-07 0 0.000363636)
(7.28819e-07 0 0.000363636)
(7.28438e-07 0 0.000363636)
(7.28064e-07 -2.64698e-23 0.000363636)
(7.27644e-07 0 0.000363636)
(7.27247e-07 0 0.000363636)
(7.26834e-07 0 0.000363636)
(7.26475e-07 0 0.000363636)
(7.26115e-07 2.64698e-23 0.000363636)
(7.25778e-07 0 0.000363636)
(7.25424e-07 0 0.000363636)
(7.25147e-07 0 0.000363636)
(7.24864e-07 0 0.000363636)
(7.24614e-07 0 0.000363636)
(7.24369e-07 0 0.000363636)
(7.24169e-07 0 0.000363636)
(7.24014e-07 -2.64698e-23 0.000363636)
(7.23887e-07 0 0.000363636)
(7.23756e-07 -2.64698e-23 0.000363636)
(7.23671e-07 0 0.000363636)
(7.23592e-07 -2.64698e-23 0.000363636)
(7.23536e-07 0 0.000363636)
(7.23479e-07 -2.64698e-23 0.000363636)
(7.23473e-07 0 0.000363636)
(7.23453e-07 0 0.000363636)
(7.23474e-07 2.64698e-23 0.000363636)
(7.23483e-07 0 0.000363636)
(7.23534e-07 2.64698e-23 0.000363636)
(7.2356e-07 0 0.000363636)
(7.23597e-07 -2.64698e-23 0.000363636)
(7.2365e-07 0 0.000363636)
(7.23683e-07 0 0.000363636)
(7.23735e-07 0 0.000363636)
(7.23744e-07 0 0.000363636)
(7.23766e-07 0 0.000363636)
(7.23794e-07 2.64698e-23 0.000363636)
(7.23799e-07 0 0.000363636)
(7.23804e-07 -2.64698e-23 0.000363636)
(7.23818e-07 0 0.000363636)
(7.23823e-07 0 0.000363636)
(7.23857e-07 0 0.000363636)
(7.23896e-07 2.64698e-23 0.000363636)
(7.23984e-07 0 0.000363636)
(7.24105e-07 0 0.000363636)
(7.24259e-07 2.64698e-23 0.000363636)
(7.24433e-07 0 0.000363636)
(7.2464e-07 -2.64698e-23 0.000363636)
(7.24873e-07 0 0.000363636)
(7.25123e-07 0 0.000363636)
(7.25365e-07 -2.64698e-23 0.000363636)
(7.25619e-07 -2.64698e-23 0.000363636)
(7.25852e-07 -2.64698e-23 0.000363636)
(7.26071e-07 -2.64698e-23 0.000363636)
(7.26237e-07 0 0.000363636)
(7.26411e-07 0 0.000363636)
(7.26544e-07 0 0.000363636)
(7.26716e-07 -2.64698e-23 0.000363636)
(7.26876e-07 0 0.000363636)
(7.27081e-07 0 0.000363636)
(7.27268e-07 0 0.000363636)
(7.27498e-07 0 0.000363636)
(7.27745e-07 0 0.000363636)
(7.28068e-07 0 0.000363636)
(7.28401e-07 -2.64698e-23 0.000363636)
(7.28755e-07 0 0.000363636)
(7.29112e-07 0 0.000363636)
(7.295e-07 0 0.000363636)
(7.29869e-07 0 0.000363636)
(7.30231e-07 0 0.000363636)
(7.30547e-07 2.64698e-23 0.000363636)
(7.30834e-07 0 0.000363636)
(7.3106e-07 -2.64698e-23 0.000363636)
(7.312e-07 0 0.000363636)
(7.31206e-07 0 0.000363636)
(7.3121e-07 0 0.000363636)
(7.31257e-07 2.64698e-23 0.000363636)
(7.31245e-07 0 0.000363636)
(7.31175e-07 2.64698e-23 0.000363636)
(7.31109e-07 2.64698e-23 0.000363636)
(7.3099e-07 2.64698e-23 0.000363636)
(7.30751e-07 -2.64698e-23 0.000363636)
(7.30308e-07 0 0.000363636)
(7.29636e-07 0 0.000363636)
(7.28901e-07 0 0.000363636)
(7.28353e-07 2.64698e-23 0.000363636)
(7.28397e-07 0 0.000363636)
(7.28829e-07 2.64698e-23 0.000363636)
(7.29152e-07 0 0.000363636)
(7.29369e-07 0 0.000363636)
(7.29514e-07 0 0.000363636)
(7.29658e-07 0 0.000363636)
(7.29803e-07 2.64698e-23 0.000363636)
(7.29893e-07 0 0.000363636)
(7.30002e-07 0 0.000363636)
(7.30202e-07 0 0.000363636)
(7.30348e-07 -2.64698e-23 0.000363636)
(7.3041e-07 -2.64698e-23 0.000363636)
(7.30651e-07 0 0.000363636)
(7.30975e-07 -2.64698e-23 0.000363636)
(7.31175e-07 -2.64698e-23 0.000363636)
(7.31321e-07 -2.64698e-23 0.000363636)
(7.31479e-07 -2.64698e-23 0.000363636)
(7.31657e-07 0 0.000363636)
(7.31782e-07 -2.64698e-23 0.000363636)
(7.31854e-07 0 0.000363636)
(7.31924e-07 0 0.000363636)
(7.31978e-07 -2.64698e-23 0.000363636)
(7.31999e-07 0 0.000363636)
(7.31988e-07 0 0.000363636)
(7.31952e-07 0 0.000363636)
(7.31874e-07 0 0.000363636)
(7.31728e-07 -2.64698e-23 0.000363636)
(7.31442e-07 0 0.000363636)
(7.3092e-07 2.64698e-23 0.000363636)
(7.30219e-07 0 0.000363636)
(7.29495e-07 0 0.000363636)
(7.28759e-07 0 0.000363636)
(7.28023e-07 -2.64698e-23 0.000363636)
(7.27292e-07 0 0.000363636)
(7.26625e-07 0 0.000363636)
(7.26146e-07 0 0.000363636)
(7.25574e-07 2.64698e-23 0.000363636)
(7.25015e-07 -2.64698e-23 0.000363636)
(7.24888e-07 0 0.000363636)
(7.24769e-07 0 0.000363636)
(7.24485e-07 2.64698e-23 0.000363636)
(7.24424e-07 0 0.000363636)
(7.24549e-07 0 0.000363636)
(7.24621e-07 -2.64698e-23 0.000363636)
(7.24619e-07 0 0.000363636)
(7.24626e-07 0 0.000363636)
(7.24654e-07 0 0.000363636)
(7.24656e-07 0 0.000363636)
(7.24602e-07 0 0.000363636)
(7.24492e-07 0 0.000363636)
(7.24381e-07 0 0.000363636)
(7.24391e-07 0 0.000363636)
(7.24415e-07 2.64698e-23 0.000363636)
(7.24332e-07 2.64698e-23 0.000363636)
(7.24184e-07 -2.64698e-23 0.000363636)
(7.23976e-07 0 0.000363636)
(7.23749e-07 -2.64698e-23 0.000363636)
(7.2351e-07 0 0.000363636)
(7.2327e-07 -2.64698e-23 0.000363636)
(7.23026e-07 2.64698e-23 0.000363636)
(7.22797e-07 0 0.000363636)
(7.22566e-07 -2.64698e-23 0.000363636)
(7.22356e-07 0 0.000363636)
(7.22185e-07 0 0.000363636)
(7.22014e-07 0 0.000363636)
(7.21882e-07 0 0.000363636)
(7.2175e-07 2.64698e-23 0.000363636)
(7.21643e-07 0 0.000363636)
(7.21531e-07 2.64698e-23 0.000363636)
(7.21399e-07 0 0.000363636)
(7.21308e-07 0 0.000363636)
(7.21241e-07 2.64698e-23 0.000363636)
(7.21188e-07 0 0.000363636)
(7.21164e-07 0 0.000363636)
(7.21154e-07 0 0.000363636)
(7.21204e-07 2.64698e-23 0.000363636)
(7.2128e-07 0 0.000363636)
(7.21375e-07 2.64698e-23 0.000363636)
(7.21475e-07 2.64698e-23 0.000363636)
(7.21578e-07 0 0.000363636)
(7.21676e-07 0 0.000363636)
(7.21763e-07 -2.64698e-23 0.000363636)
(7.21817e-07 0 0.000363636)
(7.21881e-07 0 0.000363636)
(7.219e-07 0 0.000363636)
(7.21944e-07 0 0.000363636)
(7.21958e-07 2.64698e-23 0.000363636)
(7.22004e-07 0 0.000363636)
(7.22068e-07 0 0.000363636)
(7.22185e-07 0 0.000363636)
(7.22323e-07 0 0.000363636)
(7.22542e-07 0 0.000363636)
(7.2276e-07 0 0.000363636)
(7.23025e-07 0 0.000363636)
(7.23337e-07 0 0.000363636)
(7.23674e-07 0 0.000363636)
(7.24081e-07 -2.64698e-23 0.000363636)
(7.24538e-07 0 0.000363636)
(7.24973e-07 -2.64698e-23 0.000363636)
(7.25386e-07 2.64698e-23 0.000363636)
(7.25762e-07 0 0.000363636)
(7.26105e-07 2.64698e-23 0.000363636)
(7.26409e-07 0 0.000363636)
(7.26675e-07 -2.64698e-23 0.000363636)
(7.26915e-07 0 0.000363636)
(7.27107e-07 0 0.000363636)
(7.27258e-07 2.64698e-23 0.000363636)
(7.27365e-07 0 0.000363636)
(7.27451e-07 2.64698e-23 0.000363636)
(7.27519e-07 0 0.000363636)
(7.27562e-07 0 0.000363636)
(7.27591e-07 0 0.000363636)
(7.27613e-07 0 0.000363636)
(7.27673e-07 0 0.000363636)
(7.27792e-07 0 0.000363636)
(7.27949e-07 2.64698e-23 0.000363636)
(7.28145e-07 -2.64698e-23 0.000363636)
(7.28373e-07 0 0.000363636)
(7.28587e-07 2.64698e-23 0.000363636)
(7.28763e-07 0 0.000363636)
(7.28918e-07 0 0.000363636)
(7.29016e-07 0 0.000363636)
(7.29124e-07 0 0.000363636)
(7.29169e-07 2.64698e-23 0.000363636)
(7.29189e-07 2.64698e-23 0.000363636)
(7.29161e-07 -2.64698e-23 0.000363636)
(7.2914e-07 0 0.000363636)
(7.29094e-07 0 0.000363636)
(7.29052e-07 2.64698e-23 0.000363636)
(7.29008e-07 -2.64698e-23 0.000363636)
(7.29006e-07 -2.64698e-23 0.000363636)
(7.29004e-07 0 0.000363636)
(7.29021e-07 -2.64698e-23 0.000363636)
(7.29015e-07 -2.64698e-23 0.000363636)
(7.29013e-07 2.64698e-23 0.000363636)
(7.2904e-07 2.64698e-23 0.000363636)
(7.29088e-07 2.64698e-23 0.000363636)
(7.29164e-07 2.64698e-23 0.000363636)
(7.29217e-07 0 0.000363636)
(7.29218e-07 0 0.000363636)
(7.29162e-07 0 0.000363636)
(7.29043e-07 2.64698e-23 0.000363636)
(7.28883e-07 0 0.000363636)
(7.28727e-07 0 0.000363636)
(7.28607e-07 0 0.000363636)
(7.28585e-07 2.64698e-23 0.000363636)
(7.28631e-07 -2.64698e-23 0.000363636)
(7.28735e-07 2.64698e-23 0.000363636)
(7.28869e-07 0 0.000363636)
(7.2899e-07 -2.64698e-23 0.000363636)
(7.29109e-07 2.64698e-23 0.000363636)
(7.29201e-07 0 0.000363636)
(7.29247e-07 2.64698e-23 0.000363636)
(7.29239e-07 0 0.000363636)
(7.29129e-07 0 0.000363636)
(7.2891e-07 2.64698e-23 0.000363636)
(7.28569e-07 0 0.000363636)
(7.28179e-07 0 0.000363636)
(7.27742e-07 -2.64698e-23 0.000363636)
(7.27335e-07 0 0.000363636)
(7.26978e-07 0 0.000363636)
(7.26738e-07 2.64698e-23 0.000363636)
(7.266e-07 0 0.000363636)
(7.26596e-07 2.64698e-23 0.000363636)
(7.26628e-07 -2.64698e-23 0.000363636)
(7.26712e-07 0 0.000363636)
(7.26745e-07 -2.64698e-23 0.000363636)
(7.2673e-07 0 0.000363636)
(7.26572e-07 -2.64698e-23 0.000363636)
(7.26269e-07 0 0.000363636)
(7.25753e-07 2.64698e-23 0.000363636)
(7.24882e-07 0 0.000363636)
(7.2371e-07 0 0.000363636)
(7.21635e-07 0 0.000363636)
(7.18566e-07 0 0.000363636)
(7.13916e-07 0 0.000363636)
(7.07088e-07 0 0.000363636)
(6.96822e-07 0 0.000363636)
(6.82369e-07 0 0.000363636)
(6.60999e-07 -2.64698e-23 0.000363636)
(6.31033e-07 0 0.000363636)
(5.89578e-07 2.64698e-23 0.000363636)
(5.26868e-07 0 0.000363636)
(5.63879e-07 0 0.000363636)
(4.06256e-07 0 0.000363636)
(4.60272e-06 0 0.000363636)
(4.87958e-06 -2.11758e-22 0.000363636)
(7.27273e-07 0 0.000363636)
(7.27273e-07 0 0.000363636)
(7.27273e-07 0 0.000363636)
(7.27273e-07 0 0.000363636)
(7.27273e-07 0 0.000363636)
(7.27273e-07 -2.64698e-23 0.000363636)
(7.27273e-07 0 0.000363636)
(7.27273e-07 0 0.000363636)
(7.27273e-07 0 0.000363636)
(7.27273e-07 0 0.000363636)
)
;

boundaryField
{
    inlet
    {
        type            calculated;
        value           uniform (0 0 0);
    }
    endWall
    {
        type            calculated;
        value           uniform (0 0 0);
    }
    sideWall
    {
        type            empty;
    }
}


// ************************************************************************* //
