/*--------------------------------*- C++ -*----------------------------------*\
| =========                 |                                                 |
| \\      /  F ield         | foam-extend: Open Source CFD                    |
|  \\    /   O peration     | Version:     3.2                                |
|   \\  /    A nd           | Web:         http://www.foam-extend.org         |
|    \\/     M anipulation  | For copyright notice see file Copyright         |
\*---------------------------------------------------------------------------*/
FoamFile
{
    version     2.0;
    format      ascii;
    class       volVectorField;
    location    "120";
    object      q_b_slide;
}
// * * * * * * * * * * * * * * * * * * * * * * * * * * * * * * * * * * * * * //

dimensions      [0 2 -1 0 0 0 0];

internalField   uniform (0 0 0);

boundaryField
{
    inlet
    {
        type            calculated;
        value           uniform (0 0 0);
    }
    outlet
    {
        type            calculated;
        value           uniform (0 0 0);
    }
    sideWall
    {
        type            empty;
    }
    bed
    {
        type            calculated;
        value           nonuniform List<vector> 
550
(
(0 0 0)
(0 0 0)
(0 0 0)
(0 0 0)
(2.11741e-07 -5.96863e-29 -4.23482e-10)
(6.04947e-07 0 -1.20989e-09)
(1.13622e-06 -3.39598e-34 -2.27244e-09)
(1.76977e-06 6.1615e-34 -3.53955e-09)
(2.46082e-06 -6.64557e-28 -4.92163e-09)
(3.15912e-06 -7.84467e-34 -6.31825e-09)
(3.82133e-06 1.01973e-33 -7.64265e-09)
(4.41101e-06 0 -8.82202e-09)
(4.90623e-06 -1.23527e-27 -9.81245e-09)
(5.29407e-06 1.68395e-33 -1.05881e-08)
(5.57315e-06 0 -1.11463e-08)
(5.74828e-06 -1.25011e-27 -1.14966e-08)
(5.83088e-06 1.17207e-27 -1.16618e-08)
(5.83432e-06 -1.08215e-27 -1.16686e-08)
(5.7741e-06 -9.95205e-28 -1.15482e-08)
(5.66825e-06 0 -1.13365e-08)
(5.52768e-06 -8.30446e-28 -1.10554e-08)
(5.36176e-06 7.59523e-28 -1.07235e-08)
(5.17852e-06 0 -1.0357e-08)
(4.98482e-06 -6.28243e-28 -9.96965e-09)
(4.78659e-06 0 -9.57317e-09)
(4.58857e-06 0 -9.17713e-09)
(4.39447e-06 -4.4779e-28 -8.78895e-09)
(4.20769e-06 0 -8.41539e-09)
(4.03031e-06 0 -8.06061e-09)
(3.86214e-06 0 -7.72427e-09)
(3.70313e-06 -2.15787e-34 -7.40627e-09)
(3.55352e-06 -2.1243e-34 -7.10704e-09)
(3.41333e-06 0 -6.82666e-09)
(3.28241e-06 0 -6.56482e-09)
(3.16046e-06 2.18145e-34 -6.32092e-09)
(3.04709e-06 0 -6.09419e-09)
(2.94189e-06 0 -5.88379e-09)
(2.8444e-06 0 -5.68881e-09)
(2.75414e-06 -1.71918e-28 -5.50827e-09)
(2.6706e-06 0 -5.34121e-09)
(2.59335e-06 0 -5.1867e-09)
(2.52192e-06 2.44085e-34 -5.04385e-09)
(2.45586e-06 0 -4.91172e-09)
(2.39473e-06 -2.34028e-34 -4.78946e-09)
(2.33813e-06 0 -4.67625e-09)
(2.28567e-06 0 -4.57134e-09)
(2.23705e-06 0 -4.4741e-09)
(2.19196e-06 0 -4.38391e-09)
(2.15012e-06 -2.41477e-34 -4.30024e-09)
(2.11127e-06 2.39674e-34 -4.22254e-09)
(2.07517e-06 -2.37769e-34 -4.15034e-09)
(2.04159e-06 2.3497e-34 -4.08319e-09)
(2.01032e-06 0 -4.02064e-09)
(1.98114e-06 0 -3.96227e-09)
(1.95385e-06 0 -3.90769e-09)
(1.92827e-06 2.42348e-29 -3.8567e-09)
(1.90423e-06 2.07251e-34 -3.80881e-09)
(1.88161e-06 0 -3.76775e-09)
(1.86023e-06 -1.8295e-29 -3.71052e-09)
(1.83841e-06 0 -3.68767e-09)
(1.81989e-06 0 -3.58966e-09)
(1.80158e-06 0 -3.30395e-09)
(1.78457e-06 0 -3.1227e-09)
(1.76881e-06 -8.01844e-30 -3.08237e-09)
(1.75386e-06 1.40109e-34 -3.04802e-09)
(1.73966e-06 0 -3.03154e-09)
(1.72609e-06 1.48743e-34 -3.01766e-09)
(1.71308e-06 0 -3.00561e-09)
(1.70058e-06 -1.43924e-34 -2.99359e-09)
(1.68854e-06 -1.40518e-34 -2.98134e-09)
(1.67692e-06 8.71431e-30 -2.96854e-09)
(1.66566e-06 8.59552e-30 -2.95483e-09)
(1.65474e-06 0 -2.9403e-09)
(1.64413e-06 8.08981e-30 -2.92578e-09)
(1.63379e-06 1.27702e-34 -2.91195e-09)
(1.62369e-06 7.40179e-30 -2.89907e-09)
(1.61384e-06 0 -2.88781e-09)
(1.6042e-06 6.82465e-30 -2.87824e-09)
(1.59478e-06 6.65756e-30 -2.86871e-09)
(1.58558e-06 -6.59038e-30 -2.85824e-09)
(1.57657e-06 0 -2.84755e-09)
(1.56776e-06 -6.22153e-30 -2.83699e-09)
(1.55912e-06 6.01698e-30 -2.82656e-09)
(1.55066e-06 5.82894e-30 -2.81636e-09)
(1.54236e-06 -5.67622e-30 -2.80631e-09)
(1.53421e-06 -5.56295e-30 -2.79614e-09)
(1.52619e-06 5.48178e-30 -2.78565e-09)
(1.51831e-06 0 -2.77459e-09)
(1.51054e-06 -8.1403e-35 -2.76224e-09)
(1.50286e-06 -5.55789e-30 -2.74854e-09)
(1.49527e-06 5.86075e-30 -2.73499e-09)
(1.48774e-06 0 -2.72246e-09)
(1.48027e-06 6.10184e-30 -2.71061e-09)
(1.47285e-06 -6.03372e-30 -2.69948e-09)
(1.46548e-06 0 -2.68913e-09)
(1.45816e-06 6.05269e-30 -2.67959e-09)
(1.4509e-06 0 -2.67112e-09)
(1.4437e-06 -5.10832e-30 -2.66216e-09)
(1.43657e-06 0 -2.65071e-09)
(1.4295e-06 0 -2.63742e-09)
(1.42248e-06 0 -2.62354e-09)
(1.4155e-06 -6.28777e-35 -2.6092e-09)
(1.40855e-06 0 -2.59468e-09)
(1.40161e-06 6.09267e-35 -2.58015e-09)
(1.39468e-06 0 -2.56565e-09)
(1.38775e-06 0 -2.55133e-09)
(1.38081e-06 0 -2.53706e-09)
(1.37384e-06 -4.35863e-30 -2.52277e-09)
(1.36685e-06 -4.40346e-30 -2.50837e-09)
(1.35984e-06 -4.46682e-30 -2.49396e-09)
(1.35278e-06 0 -2.4796e-09)
(1.3457e-06 -4.59967e-30 -2.4655e-09)
(1.33857e-06 -4.70233e-30 -2.45155e-09)
(1.3314e-06 4.86546e-30 -2.43655e-09)
(1.3242e-06 -5.505e-35 -2.42066e-09)
(1.31695e-06 -4.94368e-30 -2.40606e-09)
(1.30965e-06 -5.05344e-30 -2.39301e-09)
(1.30231e-06 0 -2.37991e-09)
(1.29493e-06 0 -2.36655e-09)
(1.28753e-06 5.45854e-35 -2.35318e-09)
(1.28009e-06 -5.65535e-30 -2.33982e-09)
(1.27263e-06 5.77235e-30 -2.32656e-09)
(1.26515e-06 5.89221e-30 -2.3134e-09)
(1.25764e-06 -6.00724e-30 -2.30039e-09)
(1.25012e-06 6.1248e-30 -2.28754e-09)
(1.24259e-06 5.22468e-35 -2.27479e-09)
(1.23505e-06 6.3335e-30 -2.26211e-09)
(1.2275e-06 -5.14095e-35 -2.24951e-09)
(1.21996e-06 0 -2.23706e-09)
(1.21241e-06 -5.05224e-35 -2.22481e-09)
(1.20488e-06 0 -2.2128e-09)
(1.19737e-06 6.71962e-30 -2.20103e-09)
(1.18988e-06 0 -2.18949e-09)
(1.18241e-06 -4.86787e-35 -2.17815e-09)
(1.17497e-06 0 -2.16701e-09)
(1.16758e-06 0 -2.15601e-09)
(1.16022e-06 0 -2.14514e-09)
(1.15291e-06 -4.66138e-35 -2.13441e-09)
(1.14565e-06 0 -2.12379e-09)
(1.13845e-06 -4.55784e-35 -2.11327e-09)
(1.1313e-06 -7.10566e-30 -2.10282e-09)
(1.12421e-06 4.45614e-35 -2.09245e-09)
(1.11718e-06 0 -2.08217e-09)
(1.11022e-06 -4.35974e-35 -2.07199e-09)
(1.10333e-06 -7.14e-30 -2.06183e-09)
(1.0965e-06 7.13778e-30 -2.05166e-09)
(1.08974e-06 4.20778e-35 -2.04146e-09)
(1.08305e-06 0 -2.03125e-09)
(1.07643e-06 0 -2.02105e-09)
(1.06987e-06 7.08561e-30 -2.01091e-09)
(1.06338e-06 -7.06311e-30 -2.00085e-09)
(1.05696e-06 -7.03513e-30 -1.99085e-09)
(1.05061e-06 0 -1.98096e-09)
(1.04432e-06 0 -1.97113e-09)
(1.03811e-06 -3.95518e-35 -1.96137e-09)
(1.03196e-06 3.9284e-35 -1.95168e-09)
(1.02588e-06 0 -1.942e-09)
(1.01987e-06 0 -1.9323e-09)
(1.01393e-06 -6.6843e-30 -1.92262e-09)
(1.00806e-06 0 -1.91299e-09)
(1.00225e-06 0 -1.90347e-09)
(9.96514e-07 3.75905e-35 -1.89414e-09)
(9.90841e-07 0 -1.88494e-09)
(9.85234e-07 3.70533e-35 -1.87587e-09)
(9.79695e-07 -6.16923e-30 -1.86693e-09)
(9.74222e-07 -6.06734e-30 -1.85814e-09)
(9.68818e-07 -5.96288e-30 -1.84947e-09)
(9.63482e-07 5.85587e-30 -1.84091e-09)
(9.58215e-07 0 -1.83241e-09)
(9.53016e-07 0 -1.824e-09)
(9.47885e-07 0 -1.81575e-09)
(9.42822e-07 0 -1.80767e-09)
(9.37826e-07 0 -1.79974e-09)
(9.32898e-07 -3.34553e-35 -1.7919e-09)
(9.28036e-07 0 -1.78416e-09)
(9.23241e-07 -4.99755e-30 -1.77662e-09)
(9.18512e-07 0 -1.76926e-09)
(9.13849e-07 0 -1.762e-09)
(9.0925e-07 0 -1.75491e-09)
(9.04715e-07 4.6453e-30 -1.748e-09)
(9.00244e-07 -4.56729e-30 -1.74124e-09)
(8.95836e-07 4.49265e-30 -1.7346e-09)
(8.91491e-07 -4.42124e-30 -1.7281e-09)
(8.8721e-07 0 -1.72169e-09)
(8.82992e-07 -2.93164e-35 -1.71538e-09)
(8.78837e-07 4.22318e-30 -1.70919e-09)
(8.74744e-07 -4.16919e-30 -1.70321e-09)
(8.70714e-07 0 -1.69736e-09)
(8.66748e-07 -2.7963e-35 -1.69156e-09)
(8.62844e-07 0 -1.68584e-09)
(8.59003e-07 3.99168e-30 -1.68026e-09)
(8.55224e-07 0 -1.67484e-09)
(8.51506e-07 0 -1.66953e-09)
(8.47851e-07 -3.87985e-30 -1.66433e-09)
(8.44257e-07 0 -1.65923e-09)
(8.40725e-07 0 -1.65422e-09)
(8.37255e-07 0 -1.64919e-09)
(8.33846e-07 3.73028e-30 -1.64414e-09)
(8.30498e-07 2.52418e-35 -1.63912e-09)
(8.2721e-07 -3.65467e-30 -1.63422e-09)
(8.23981e-07 0 -1.62941e-09)
(8.20812e-07 0 -1.62464e-09)
(8.17702e-07 -2.43352e-35 -1.61991e-09)
(8.1465e-07 0 -1.61518e-09)
(8.11656e-07 2.37277e-35 -1.61036e-09)
(8.08722e-07 -3.35907e-30 -1.60568e-09)
(8.05847e-07 3.30291e-30 -1.6013e-09)
(8.0303e-07 -3.24229e-30 -1.59695e-09)
(8.00271e-07 0 -1.59258e-09)
(7.9757e-07 -2.23856e-35 -1.58834e-09)
(7.94924e-07 0 -1.5842e-09)
(7.9233e-07 0 -1.58013e-09)
(7.89786e-07 0 -1.5761e-09)
(7.8729e-07 -2.03878e-35 -1.57217e-09)
(7.84844e-07 0 -1.5683e-09)
(7.82448e-07 -3.03869e-30 -1.56443e-09)
(7.80105e-07 1.919e-35 -1.56077e-09)
(7.77817e-07 -2.99096e-30 -1.55736e-09)
(7.75586e-07 0 -1.55411e-09)
(7.73412e-07 0 -1.55109e-09)
(7.71298e-07 0 -1.54817e-09)
(7.69244e-07 -2.86462e-30 -1.54535e-09)
(7.6725e-07 1.73075e-35 -1.5425e-09)
(7.65317e-07 -1.68588e-35 -1.53929e-09)
(7.63439e-07 0 -1.53593e-09)
(7.61613e-07 0 -1.53286e-09)
(7.59836e-07 0 -1.53019e-09)
(7.58104e-07 2.57621e-30 -1.52758e-09)
(7.56416e-07 2.51784e-30 -1.52489e-09)
(7.54771e-07 -2.45903e-30 -1.52233e-09)
(7.5317e-07 0 -1.51994e-09)
(7.51612e-07 1.56385e-35 -1.5176e-09)
(7.50095e-07 -2.27165e-30 -1.51524e-09)
(7.48621e-07 2.20144e-30 -1.51284e-09)
(7.47188e-07 1.50567e-35 -1.51057e-09)
(7.45795e-07 2.06198e-30 -1.50851e-09)
(7.44441e-07 0 -1.50648e-09)
(7.43125e-07 0 -1.50443e-09)
(7.41846e-07 0 -1.50246e-09)
(7.40603e-07 1.36774e-35 -1.50062e-09)
(7.39394e-07 0 -1.49876e-09)
(7.3822e-07 1.60678e-30 -1.49687e-09)
(7.37078e-07 -1.2379e-35 -1.495e-09)
(7.35968e-07 1.19022e-35 -1.49311e-09)
(7.34889e-07 1.37586e-30 -1.49123e-09)
(7.3384e-07 1.09171e-35 -1.48934e-09)
(7.32818e-07 1.23364e-30 -1.48729e-09)
(7.31822e-07 0 -1.4851e-09)
(7.30851e-07 1.1001e-30 -1.48302e-09)
(7.29902e-07 0 -1.48097e-09)
(7.28973e-07 0 -1.47875e-09)
(7.28062e-07 -8.22796e-36 -1.47637e-09)
(7.27168e-07 0 -1.47399e-09)
(7.26289e-07 0 -1.47144e-09)
(7.25422e-07 -7.47447e-31 -1.46867e-09)
(7.24566e-07 0 -1.46589e-09)
(7.23719e-07 -6.55224e-31 -1.4632e-09)
(7.22878e-07 0 -1.46064e-09)
(7.22039e-07 0 -1.45793e-09)
(7.21198e-07 0 -1.45504e-09)
(7.20354e-07 0 -1.45182e-09)
(7.19502e-07 0 -1.44795e-09)
(7.18646e-07 0 -1.44456e-09)
(7.17783e-07 4.06091e-31 -1.44192e-09)
(7.16907e-07 0 -1.43932e-09)
(7.16019e-07 0 -1.43722e-09)
(7.15115e-07 0 -1.43516e-09)
(7.14193e-07 0 -1.43273e-09)
(7.13252e-07 0 -1.4302e-09)
(7.12291e-07 0 -1.42761e-09)
(7.1131e-07 0 -1.4249e-09)
(7.10305e-07 3.50439e-31 -1.42216e-09)
(7.09276e-07 0 -1.41928e-09)
(7.08221e-07 0 -1.41639e-09)
(7.07136e-07 0 -1.41342e-09)
(7.06021e-07 0 -1.41049e-09)
(7.04876e-07 -4.8292e-31 -1.40751e-09)
(7.03699e-07 0 -1.40451e-09)
(7.02488e-07 5.25267e-36 -1.4014e-09)
(7.01246e-07 0 -1.39839e-09)
(6.99969e-07 0 -1.3953e-09)
(6.98661e-07 0 -1.39221e-09)
(6.9732e-07 -5.86304e-36 -1.38907e-09)
(6.95947e-07 0 -1.38595e-09)
(6.94544e-07 8.51429e-31 -1.38286e-09)
(6.9311e-07 0 -1.37977e-09)
(6.91648e-07 9.38104e-31 -1.37661e-09)
(6.90159e-07 0 -1.37348e-09)
(6.88644e-07 1.01722e-30 -1.37032e-09)
(6.87105e-07 0 -1.36715e-09)
(6.85542e-07 1.08848e-30 -1.36393e-09)
(6.83958e-07 0 -1.36077e-09)
(6.82354e-07 0 -1.35754e-09)
(6.80731e-07 -1.18609e-30 -1.35435e-09)
(6.79091e-07 0 -1.3511e-09)
(6.77435e-07 -1.24561e-30 -1.34791e-09)
(6.75766e-07 0 -1.34463e-09)
(6.74083e-07 1.30835e-30 -1.34135e-09)
(6.72389e-07 0 -1.33808e-09)
(6.70684e-07 7.142e-36 -1.33475e-09)
(6.68969e-07 0 -1.33143e-09)
(6.67244e-07 7.01884e-36 -1.32801e-09)
(6.6551e-07 0 -1.3246e-09)
(6.63766e-07 -1.55354e-30 -1.32118e-09)
(6.62014e-07 0 -1.3177e-09)
(6.60252e-07 1.64061e-30 -1.31421e-09)
(6.58482e-07 0 -1.31071e-09)
(6.56703e-07 -7.26856e-36 -1.30718e-09)
(6.54917e-07 0 -1.30368e-09)
(6.53124e-07 -1.80367e-30 -1.30018e-09)
(6.51323e-07 0 -1.29676e-09)
(6.49518e-07 -7.97412e-36 -1.29338e-09)
(6.4771e-07 -1.9049e-30 -1.29005e-09)
(6.45899e-07 8.38516e-36 -1.28675e-09)
(6.44088e-07 1.96008e-30 -1.28351e-09)
(6.42278e-07 0 -1.28032e-09)
(6.4047e-07 0 -1.27715e-09)
(6.38667e-07 2.02143e-30 -1.27398e-09)
(6.36869e-07 2.03608e-30 -1.27084e-09)
(6.35077e-07 2.04672e-30 -1.26767e-09)
(6.33293e-07 2.05349e-30 -1.26449e-09)
(6.31515e-07 9.67158e-36 -1.26123e-09)
(6.29745e-07 -9.76612e-36 -1.258e-09)
(6.27982e-07 0 -1.25471e-09)
(6.26226e-07 2.03642e-30 -1.25149e-09)
(6.24476e-07 0 -1.24827e-09)
(6.22734e-07 0 -1.24514e-09)
(6.20999e-07 0 -1.24199e-09)
(6.19273e-07 0 -1.23893e-09)
(6.17556e-07 0 -1.23591e-09)
(6.15851e-07 0 -1.23305e-09)
(6.14157e-07 1.91607e-30 -1.23022e-09)
(6.12479e-07 0 -1.22745e-09)
(6.10817e-07 9.46627e-36 -1.22472e-09)
(6.09172e-07 0 -1.22208e-09)
(6.07547e-07 0 -1.21943e-09)
(6.05943e-07 0 -1.21681e-09)
(6.04359e-07 -1.8205e-30 -1.21416e-09)
(6.02797e-07 0 -1.2115e-09)
(6.01256e-07 1.80716e-30 -1.20877e-09)
(5.99734e-07 0 -1.20594e-09)
(5.9823e-07 -7.36255e-36 -1.20293e-09)
(5.96743e-07 0 -1.19995e-09)
(5.95272e-07 -1.82174e-30 -1.19707e-09)
(5.93813e-07 0 -1.19411e-09)
(5.92364e-07 -1.85462e-30 -1.19109e-09)
(5.90923e-07 -1.87751e-30 -1.18808e-09)
(5.89486e-07 -1.90238e-30 -1.185e-09)
(5.88049e-07 1.92569e-30 -1.18172e-09)
(5.8661e-07 0 -1.17812e-09)
(5.85165e-07 0 -1.17413e-09)
(5.83713e-07 0 -1.17004e-09)
(5.82257e-07 -1.97581e-30 -1.16625e-09)
(5.808e-07 0 -1.16339e-09)
(5.79338e-07 -2.03175e-30 -1.16115e-09)
(5.77869e-07 -7.36725e-36 -1.15872e-09)
(5.76395e-07 0 -1.15611e-09)
(5.74917e-07 0 -1.15338e-09)
(5.7344e-07 0 -1.15064e-09)
(5.71964e-07 -2.04615e-30 -1.14791e-09)
(5.70491e-07 0 -1.14509e-09)
(5.69026e-07 0 -1.14232e-09)
(5.6757e-07 0 -1.13971e-09)
(5.66127e-07 1.99988e-30 -1.13704e-09)
(5.64697e-07 1.9762e-30 -1.13427e-09)
(5.63286e-07 0 -1.13181e-09)
(5.61894e-07 1.93157e-30 -1.12951e-09)
(5.60519e-07 1.89973e-30 -1.12705e-09)
(5.59162e-07 1.86357e-30 -1.12455e-09)
(5.57823e-07 1.82575e-30 -1.1221e-09)
(5.565e-07 0 -1.11971e-09)
(5.55191e-07 1.74151e-30 -1.11727e-09)
(5.53892e-07 0 -1.11476e-09)
(5.52603e-07 0 -1.11227e-09)
(5.51319e-07 1.59942e-30 -1.10977e-09)
(5.50036e-07 0 -1.10722e-09)
(5.48751e-07 0 -1.10462e-09)
(5.4746e-07 0 -1.10196e-09)
(5.46159e-07 0 -1.09923e-09)
(5.44844e-07 1.38272e-30 -1.09636e-09)
(5.43512e-07 0 -1.09325e-09)
(5.42159e-07 -1.30257e-30 -1.08975e-09)
(5.40784e-07 0 -1.08595e-09)
(5.39387e-07 -6.28138e-36 -1.08207e-09)
(5.37966e-07 0 -1.07813e-09)
(5.36522e-07 1.15109e-30 -1.07415e-09)
(5.35053e-07 0 -1.07014e-09)
(5.33562e-07 0 -1.06617e-09)
(5.32052e-07 5.69675e-36 -1.06245e-09)
(5.30521e-07 -1.02578e-30 -1.05856e-09)
(5.28972e-07 9.98458e-31 -1.05466e-09)
(5.27412e-07 -5.4858e-36 -1.05137e-09)
(5.25839e-07 0 -1.04806e-09)
(5.24254e-07 -9.44885e-31 -1.04449e-09)
(5.2266e-07 0 -1.04123e-09)
(5.2106e-07 0 -1.03822e-09)
(5.19454e-07 9.17e-31 -1.03512e-09)
(5.17841e-07 0 -1.0319e-09)
(5.16223e-07 0 -1.02869e-09)
(5.14601e-07 0 -1.0255e-09)
(5.12976e-07 0 -1.02226e-09)
(5.11349e-07 4.45883e-36 -1.01894e-09)
(5.09721e-07 4.34074e-36 -1.01554e-09)
(5.08091e-07 0 -1.01214e-09)
(5.06461e-07 0 -1.00891e-09)
(5.04827e-07 -9.51591e-31 -1.00569e-09)
(5.03188e-07 -9.66713e-31 -1.00231e-09)
(5.0154e-07 9.80703e-31 -9.9882e-10)
(4.99883e-07 0 -9.95235e-10)
(4.98214e-07 1.00753e-30 -9.916e-10)
(4.9653e-07 0 -9.87923e-10)
(4.94832e-07 1.0389e-30 -9.84217e-10)
(4.93117e-07 -1.05428e-30 -9.80475e-10)
(4.91385e-07 0 -9.76723e-10)
(4.89636e-07 1.08168e-30 -9.72934e-10)
(4.87868e-07 0 -9.69139e-10)
(4.86081e-07 0 -9.65362e-10)
(4.84276e-07 0 -9.6155e-10)
(4.82454e-07 -4.8498e-36 -9.57756e-10)
(4.80614e-07 -1.13201e-30 -9.53929e-10)
(4.78758e-07 0 -9.50103e-10)
(4.76885e-07 -1.1471e-30 -9.4624e-10)
(4.74997e-07 0 -9.42322e-10)
(4.73094e-07 0 -9.38427e-10)
(4.71174e-07 -1.17631e-30 -9.34533e-10)
(4.69239e-07 0 -9.30627e-10)
(4.67288e-07 5.03037e-36 -9.26726e-10)
(4.65321e-07 -5.05941e-36 -9.22813e-10)
(4.63339e-07 -1.2495e-30 -9.18945e-10)
(4.61343e-07 0 -9.15082e-10)
(4.59333e-07 -1.30348e-30 -9.11216e-10)
(4.57313e-07 -1.33205e-30 -9.07333e-10)
(4.55282e-07 0 -9.03434e-10)
(4.53242e-07 0 -8.99507e-10)
(4.51193e-07 1.4235e-30 -8.9555e-10)
(4.49137e-07 0 -8.91535e-10)
(4.47073e-07 0 -8.87516e-10)
(4.45e-07 0 -8.83426e-10)
(4.4292e-07 0 -8.79349e-10)
(4.40831e-07 -1.58185e-30 -8.75218e-10)
(4.38733e-07 -5.92536e-36 -8.7111e-10)
(4.36628e-07 0 -8.67006e-10)
(4.34516e-07 0 -8.62951e-10)
(4.32399e-07 -6.33598e-36 -8.58913e-10)
(4.30281e-07 0 -8.54964e-10)
(4.28164e-07 0 -8.51014e-10)
(4.26051e-07 0 -8.47124e-10)
(4.23944e-07 0 -8.43301e-10)
(4.21848e-07 0 -8.3952e-10)
(4.19764e-07 1.7658e-30 -8.35843e-10)
(4.17697e-07 0 -8.32252e-10)
(4.15649e-07 1.78504e-30 -8.2867e-10)
(4.13624e-07 -1.79241e-30 -8.25102e-10)
(4.11622e-07 0 -8.21535e-10)
(4.09645e-07 -1.80644e-30 -8.17974e-10)
(4.07691e-07 6.6121e-36 -8.14415e-10)
(4.05761e-07 1.82222e-30 -8.10856e-10)
(4.03854e-07 0 -8.0731e-10)
(4.01967e-07 0 -8.03752e-10)
(4.001e-07 -1.85462e-30 -8.00184e-10)
(3.98251e-07 0 -7.96603e-10)
(3.96417e-07 -1.87913e-30 -7.93029e-10)
(3.94597e-07 0 -7.89461e-10)
(3.92788e-07 0 -7.85888e-10)
(3.90988e-07 0 -7.8232e-10)
(3.89197e-07 0 -7.78758e-10)
(3.87411e-07 -7.07063e-36 -7.75249e-10)
(3.85631e-07 0 -7.71813e-10)
(3.83858e-07 -1.93136e-30 -7.6843e-10)
(3.82093e-07 1.92618e-30 -7.65103e-10)
(3.80339e-07 0 -7.61828e-10)
(3.78597e-07 -1.90731e-30 -7.58563e-10)
(3.7687e-07 0 -7.55284e-10)
(3.75158e-07 -7.62014e-36 -7.52014e-10)
(3.73462e-07 7.54598e-36 -7.48713e-10)
(3.71781e-07 7.48588e-36 -7.45454e-10)
(3.70115e-07 -1.79946e-30 -7.42159e-10)
(3.68463e-07 -1.77447e-30 -7.38867e-10)
(3.66823e-07 1.75194e-30 -7.35552e-10)
(3.65194e-07 0 -7.32263e-10)
(3.63574e-07 0 -7.28968e-10)
(3.6196e-07 -1.69769e-30 -7.25692e-10)
(3.60352e-07 1.68703e-30 -7.22424e-10)
(3.58749e-07 1.67535e-30 -7.19209e-10)
(3.5715e-07 -6.16986e-36 -7.16001e-10)
(3.55557e-07 1.65099e-30 -7.12822e-10)
(3.53967e-07 1.63766e-30 -7.0963e-10)
(3.52383e-07 -1.61862e-30 -7.06453e-10)
(3.50804e-07 -1.60353e-30 -7.03312e-10)
(3.4923e-07 -1.58235e-30 -7.00203e-10)
(3.47662e-07 -1.56585e-30 -6.97131e-10)
(3.46101e-07 -6.32898e-36 -6.94052e-10)
(3.44545e-07 -6.29256e-36 -6.90934e-10)
(3.42997e-07 -6.39251e-36 -6.87775e-10)
(3.4145e-07 -1.45802e-30 -6.84562e-10)
(3.39906e-07 -6.37186e-36 -6.81317e-10)
(3.38359e-07 0 -6.78072e-10)
(3.36811e-07 0 -6.74858e-10)
(3.35258e-07 -1.28854e-30 -6.71726e-10)
(3.33705e-07 1.23527e-30 -6.68656e-10)
(3.3215e-07 -1.19894e-30 -6.65636e-10)
(3.30601e-07 0 -6.62654e-10)
(3.29055e-07 1.12908e-30 -6.59664e-10)
(3.2752e-07 -1.09549e-30 -6.56694e-10)
(3.25989e-07 0 -6.53707e-10)
(3.2447e-07 -1.06146e-30 -6.50703e-10)
(3.22955e-07 0 -6.47657e-10)
(3.2145e-07 4.04732e-36 -6.44541e-10)
(3.19943e-07 -1.05386e-30 -6.41325e-10)
(3.18438e-07 0 -6.38012e-10)
(3.16921e-07 0 -6.34631e-10)
(3.15396e-07 1.04784e-30 -6.31199e-10)
(3.13846e-07 -3.50348e-36 -6.27745e-10)
(3.12282e-07 3.84243e-36 -6.2431e-10)
(3.10686e-07 -1.08279e-30 -6.20916e-10)
(3.09077e-07 4.12464e-36 -6.17582e-10)
(3.07438e-07 -1.08882e-30 -6.14304e-10)
(3.05794e-07 1.0738e-30 -6.11045e-10)
(3.04127e-07 0 -6.07785e-10)
(3.02466e-07 1.0625e-30 -6.04494e-10)
(3.00788e-07 0 -6.01128e-10)
(2.99122e-07 1.06316e-30 -5.97668e-10)
(2.97438e-07 0 -5.94054e-10)
(2.9576e-07 -1.11457e-30 -5.90283e-10)
(2.94048e-07 3.66514e-36 -5.86163e-10)
(2.92325e-07 0 -5.81787e-10)
(2.90527e-07 0 -5.7655e-10)
(2.88688e-07 2.51231e-36 -5.70464e-10)
(2.86664e-07 0 -5.628e-10)
(2.84532e-07 0 -5.53271e-10)
(2.81991e-07 0 -5.40369e-10)
(2.79171e-07 -2.95588e-36 -5.23868e-10)
(2.75491e-07 6.23827e-30 -5.00773e-10)
(2.71165e-07 0 -4.70564e-10)
(2.6509e-07 -1.09839e-29 -4.298e-10)
(2.57601e-07 0 -3.73234e-10)
(2.47227e-07 -3.58386e-35 -3.83367e-10)
(2.33196e-07 0 -2.60528e-10)
(2.3496e-07 -7.5018e-33 -2.974e-09)
(2.06257e-07 8.57831e-28 -2.76773e-09)
(1.56624e-07 0 -3.13247e-10)
(1.03949e-07 0 -2.07897e-10)
(3.58709e-08 0 -7.17419e-11)
(0 0 0)
(0 0 0)
(0 0 0)
(0 0 0)
(0 0 0)
(0 0 0)
(0 0 0)
)
;
    }
    endWall
    {
        type            calculated;
        value           uniform (0 0 0);
    }
    topWall
    {
        type            calculated;
        value           uniform (0 0 0);
    }
}


// ************************************************************************* //
