/*--------------------------------*- C++ -*----------------------------------*\
| =========                 |                                                 |
| \\      /  F ield         | foam-extend: Open Source CFD                    |
|  \\    /   O peration     | Version:     3.2                                |
|   \\  /    A nd           | Web:         http://www.foam-extend.org         |
|    \\/     M anipulation  | For copyright notice see file Copyright         |
\*---------------------------------------------------------------------------*/
FoamFile
{
    version     2.0;
    format      ascii;
    class       areaScalarField;
    location    "120";
    object      SSe1;
}
// * * * * * * * * * * * * * * * * * * * * * * * * * * * * * * * * * * * * * //

dimensions      [0 1 -2 -1 0 0 0];

internalField   nonuniform List<scalar> 
550
(
6.80072e-07
1.23712e-06
2.03787e-06
3.11221e-06
4.46485e-06
6.06562e-06
7.85606e-06
9.74884e-06
1.16514e-05
1.34669e-05
1.51193e-05
1.65481e-05
1.77229e-05
1.86294e-05
1.92751e-05
1.96778e-05
1.9867e-05
1.98749e-05
1.9737e-05
1.9494e-05
1.91703e-05
1.87864e-05
1.83604e-05
1.79074e-05
1.74409e-05
1.69716e-05
1.65084e-05
1.60594e-05
1.56297e-05
1.52193e-05
1.48284e-05
1.44578e-05
1.4108e-05
1.37789e-05
1.34702e-05
1.31812e-05
1.29112e-05
1.26594e-05
1.24247e-05
1.22062e-05
1.20029e-05
1.18139e-05
1.16382e-05
1.14747e-05
1.13226e-05
1.1181e-05
1.10491e-05
1.09263e-05
1.08118e-05
1.07052e-05
1.06057e-05
1.05129e-05
1.04261e-05
1.03449e-05
1.02687e-05
1.01971e-05
1.01296e-05
1.00659e-05
1.00058e-05
9.9393e-06
9.88998e-06
9.84198e-06
9.7961e-06
9.75154e-06
9.70873e-06
9.66761e-06
9.62809e-06
9.59007e-06
9.55342e-06
9.51805e-06
9.48384e-06
9.45069e-06
9.4185e-06
9.38714e-06
9.35654e-06
9.32662e-06
9.29732e-06
9.26861e-06
9.24049e-06
9.21294e-06
9.18593e-06
9.15944e-06
9.13342e-06
9.10787e-06
9.08276e-06
9.05807e-06
9.0338e-06
9.00991e-06
8.98638e-06
8.96316e-06
8.94017e-06
8.91737e-06
8.89474e-06
8.87226e-06
8.84992e-06
8.82773e-06
8.80569e-06
8.78386e-06
8.76227e-06
8.74089e-06
8.71967e-06
8.69858e-06
8.67757e-06
8.65661e-06
8.63565e-06
8.61469e-06
8.59369e-06
8.57263e-06
8.55151e-06
8.5303e-06
8.50897e-06
8.48752e-06
8.46593e-06
8.44422e-06
8.42237e-06
8.40032e-06
8.37807e-06
8.35566e-06
8.3331e-06
8.31041e-06
8.28759e-06
8.26465e-06
8.2416e-06
8.21844e-06
8.19519e-06
8.17185e-06
8.14845e-06
8.12498e-06
8.10147e-06
8.07791e-06
8.05434e-06
8.03075e-06
8.00718e-06
7.98364e-06
7.96016e-06
7.93675e-06
7.91344e-06
7.89025e-06
7.86718e-06
7.84425e-06
7.82148e-06
7.79888e-06
7.77646e-06
7.75422e-06
7.73217e-06
7.71032e-06
7.68868e-06
7.66723e-06
7.64598e-06
7.62493e-06
7.60407e-06
7.5834e-06
7.56292e-06
7.54264e-06
7.52255e-06
7.50265e-06
7.48294e-06
7.46343e-06
7.4441e-06
7.42494e-06
7.40596e-06
7.38715e-06
7.36851e-06
7.35004e-06
7.33173e-06
7.31359e-06
7.29562e-06
7.27783e-06
7.26021e-06
7.24277e-06
7.22551e-06
7.20841e-06
7.1915e-06
7.17476e-06
7.15821e-06
7.14184e-06
7.12565e-06
7.10965e-06
7.09385e-06
7.07824e-06
7.06284e-06
7.04765e-06
7.03266e-06
7.0179e-06
7.00336e-06
6.98905e-06
6.97495e-06
6.96109e-06
6.94747e-06
6.93409e-06
6.92095e-06
6.90806e-06
6.89541e-06
6.883e-06
6.87085e-06
6.85896e-06
6.84731e-06
6.83593e-06
6.82478e-06
6.81387e-06
6.8032e-06
6.79275e-06
6.78253e-06
6.77254e-06
6.76276e-06
6.75319e-06
6.74383e-06
6.73468e-06
6.72574e-06
6.71698e-06
6.70843e-06
6.70005e-06
6.69187e-06
6.68387e-06
6.67605e-06
6.66843e-06
6.661e-06
6.65376e-06
6.64673e-06
6.63989e-06
6.63327e-06
6.62687e-06
6.62068e-06
6.61471e-06
6.60894e-06
6.60332e-06
6.59784e-06
6.5925e-06
6.58729e-06
6.5822e-06
6.57723e-06
6.57239e-06
6.56768e-06
6.56309e-06
6.55863e-06
6.55428e-06
6.55004e-06
6.54592e-06
6.54189e-06
6.53796e-06
6.53411e-06
6.53035e-06
6.52666e-06
6.52305e-06
6.51949e-06
6.51598e-06
6.51252e-06
6.50909e-06
6.50569e-06
6.5023e-06
6.49893e-06
6.49556e-06
6.49218e-06
6.48879e-06
6.48538e-06
6.48193e-06
6.47845e-06
6.47492e-06
6.47134e-06
6.4677e-06
6.46398e-06
6.46021e-06
6.45635e-06
6.45239e-06
6.44834e-06
6.4442e-06
6.43996e-06
6.43563e-06
6.43121e-06
6.42671e-06
6.42212e-06
6.41745e-06
6.41268e-06
6.40781e-06
6.40284e-06
6.39776e-06
6.39257e-06
6.38728e-06
6.38189e-06
6.37639e-06
6.37079e-06
6.3651e-06
6.35931e-06
6.35344e-06
6.34748e-06
6.34145e-06
6.33535e-06
6.3292e-06
6.32298e-06
6.31672e-06
6.31042e-06
6.30408e-06
6.29771e-06
6.29131e-06
6.2849e-06
6.27847e-06
6.27203e-06
6.26558e-06
6.25914e-06
6.25269e-06
6.24624e-06
6.2398e-06
6.23336e-06
6.22691e-06
6.22048e-06
6.21404e-06
6.20759e-06
6.20115e-06
6.1947e-06
6.18825e-06
6.1818e-06
6.17535e-06
6.16891e-06
6.16249e-06
6.1561e-06
6.14974e-06
6.14342e-06
6.13716e-06
6.13096e-06
6.12481e-06
6.11874e-06
6.11273e-06
6.10678e-06
6.10089e-06
6.09504e-06
6.08925e-06
6.08351e-06
6.07781e-06
6.07216e-06
6.06657e-06
6.06103e-06
6.05556e-06
6.05016e-06
6.04484e-06
6.03962e-06
6.03449e-06
6.02946e-06
6.02454e-06
6.01972e-06
6.015e-06
6.01038e-06
6.00584e-06
6.00138e-06
5.99697e-06
5.99262e-06
5.98831e-06
5.98401e-06
5.97973e-06
5.97544e-06
5.97112e-06
5.96677e-06
5.96237e-06
5.95791e-06
5.95338e-06
5.94878e-06
5.94412e-06
5.93942e-06
5.93467e-06
5.92989e-06
5.92509e-06
5.92027e-06
5.91545e-06
5.91064e-06
5.90586e-06
5.90112e-06
5.89642e-06
5.89178e-06
5.88718e-06
5.88264e-06
5.87815e-06
5.87368e-06
5.86924e-06
5.8648e-06
5.86035e-06
5.85588e-06
5.85136e-06
5.84677e-06
5.84211e-06
5.83734e-06
5.83246e-06
5.82744e-06
5.82229e-06
5.81699e-06
5.81152e-06
5.80589e-06
5.80009e-06
5.79413e-06
5.788e-06
5.78171e-06
5.77529e-06
5.76873e-06
5.76206e-06
5.75528e-06
5.74842e-06
5.74149e-06
5.73449e-06
5.72745e-06
5.72037e-06
5.71326e-06
5.70613e-06
5.69899e-06
5.69186e-06
5.68473e-06
5.67762e-06
5.67052e-06
5.66342e-06
5.65632e-06
5.64922e-06
5.64209e-06
5.63492e-06
5.6277e-06
5.62041e-06
5.61306e-06
5.60563e-06
5.59812e-06
5.59053e-06
5.58284e-06
5.57508e-06
5.56723e-06
5.5593e-06
5.55131e-06
5.54324e-06
5.5351e-06
5.5269e-06
5.51864e-06
5.51032e-06
5.50194e-06
5.49352e-06
5.48505e-06
5.47655e-06
5.46803e-06
5.4595e-06
5.45097e-06
5.44245e-06
5.43393e-06
5.42542e-06
5.41692e-06
5.40844e-06
5.39995e-06
5.39148e-06
5.383e-06
5.37452e-06
5.36605e-06
5.35758e-06
5.34913e-06
5.34071e-06
5.33234e-06
5.32401e-06
5.31575e-06
5.30757e-06
5.29949e-06
5.29153e-06
5.28371e-06
5.27602e-06
5.26847e-06
5.26107e-06
5.2538e-06
5.24666e-06
5.23964e-06
5.23273e-06
5.22592e-06
5.21919e-06
5.21253e-06
5.20594e-06
5.19939e-06
5.19289e-06
5.18641e-06
5.17995e-06
5.17353e-06
5.16714e-06
5.16079e-06
5.1545e-06
5.14827e-06
5.14211e-06
5.136e-06
5.12995e-06
5.12394e-06
5.11797e-06
5.11203e-06
5.1061e-06
5.10018e-06
5.09425e-06
5.08831e-06
5.08235e-06
5.07637e-06
5.07038e-06
5.06436e-06
5.05833e-06
5.05228e-06
5.04621e-06
5.04012e-06
5.03403e-06
5.02793e-06
5.02183e-06
5.01571e-06
5.00956e-06
5.00336e-06
4.99711e-06
4.99078e-06
4.98441e-06
4.97798e-06
4.97155e-06
4.9651e-06
4.95866e-06
4.95222e-06
4.94581e-06
4.9394e-06
4.93302e-06
4.92662e-06
4.9202e-06
4.9137e-06
4.90713e-06
4.90041e-06
4.89359e-06
4.88658e-06
4.87946e-06
4.87218e-06
4.86485e-06
4.8574e-06
4.84996e-06
4.84243e-06
4.83495e-06
4.82736e-06
4.8198e-06
4.81209e-06
4.80432e-06
4.79624e-06
4.788e-06
4.77899e-06
4.76954e-06
4.75838e-06
4.74606e-06
4.73012e-06
4.71146e-06
4.68526e-06
4.65297e-06
4.60381e-06
4.54201e-06
4.40831e-06
4.2684e-06
4.18689e-06
3.92624e-06
3.53502e-06
3.02993e-06
2.3836e-06
1.61559e-06
6.62154e-07
1.09154e-07
2.31544e-07
7.42336e-07
)
;

boundaryField
{
    inlet
    {
        type            calculated;
        value           uniform 0;
    }
    endWall
    {
        type            calculated;
        value           uniform 0;
    }
    sideWall
    {
        type            empty;
    }
}


// ************************************************************************* //
