/*--------------------------------*- C++ -*----------------------------------*\
| =========                 |                                                 |
| \\      /  F ield         | foam-extend: Open Source CFD                    |
|  \\    /   O peration     | Version:     3.2                                |
|   \\  /    A nd           | Web:         http://www.foam-extend.org         |
|    \\/     M anipulation  | For copyright notice see file Copyright         |
\*---------------------------------------------------------------------------*/
FoamFile
{
    version     2.0;
    format      ascii;
    class       areaScalarField;
    location    "120";
    object      tau;
}
// * * * * * * * * * * * * * * * * * * * * * * * * * * * * * * * * * * * * * //

dimensions      [1 1 2 0 0 0 0];

internalField   nonuniform List<scalar> 
550
(
0.0485172
0.0663812
0.0878213
0.112527
0.139852
0.16881
0.198306
0.227131
0.254272
0.278819
0.300216
0.318094
0.332411
0.343244
0.350853
0.355555
0.357754
0.357845
0.356243
0.353413
0.349623
0.345102
0.340048
0.334631
0.329004
0.323294
0.317605
0.312039
0.306664
0.301485
0.296508
0.291749
0.287219
0.282924
0.278863
0.275033
0.27143
0.268046
0.264873
0.2619
0.259119
0.256519
0.254089
0.251817
0.249693
0.247708
0.245851
0.244115
0.242493
0.240975
0.239555
0.238225
0.236979
0.235809
0.23471
0.233673
0.232695
0.231769
0.230892
0.230057
0.229259
0.228506
0.227804
0.227144
0.22652
0.225925
0.225357
0.224811
0.224287
0.22378
0.22329
0.222815
0.222354
0.221904
0.221464
0.221035
0.220615
0.220204
0.219801
0.219407
0.219021
0.218644
0.218274
0.217911
0.217555
0.217204
0.216859
0.216518
0.216182
0.215849
0.215518
0.215189
0.214862
0.214536
0.214211
0.213887
0.213564
0.213243
0.212925
0.212608
0.212293
0.211979
0.211665
0.211351
0.211037
0.210721
0.210404
0.210084
0.209763
0.209439
0.209112
0.208783
0.208451
0.208117
0.20778
0.207441
0.207098
0.206753
0.206406
0.206057
0.205706
0.205353
0.204998
0.204642
0.204284
0.203925
0.203565
0.203204
0.202842
0.202481
0.202119
0.201758
0.201397
0.201037
0.200677
0.200319
0.199962
0.199607
0.199253
0.198901
0.19855
0.198202
0.197855
0.197511
0.197169
0.196829
0.196492
0.196157
0.195825
0.195495
0.195167
0.194842
0.19452
0.194201
0.193885
0.193571
0.193261
0.192953
0.192649
0.192348
0.19205
0.191755
0.191464
0.191176
0.190892
0.190611
0.190334
0.190061
0.189792
0.189526
0.189264
0.189006
0.188752
0.188501
0.188254
0.18801
0.18777
0.187533
0.1873
0.187069
0.186841
0.186616
0.186393
0.186173
0.185955
0.18574
0.185527
0.185316
0.185107
0.1849
0.184695
0.184491
0.18429
0.18409
0.183892
0.183695
0.1835
0.183307
0.183115
0.182925
0.182737
0.182551
0.182368
0.182186
0.182007
0.18183
0.181655
0.181484
0.181314
0.181148
0.180985
0.180823
0.180664
0.180506
0.18035
0.180197
0.180045
0.179896
0.17975
0.179606
0.179465
0.179328
0.179193
0.179061
0.178933
0.178807
0.178685
0.178566
0.17845
0.178337
0.178226
0.178119
0.178015
0.177913
0.177815
0.177719
0.177626
0.177536
0.177449
0.177364
0.177282
0.177204
0.177128
0.177056
0.176986
0.17692
0.176857
0.176798
0.176741
0.176688
0.176637
0.17659
0.176545
0.176504
0.176465
0.176429
0.176395
0.176364
0.176335
0.176307
0.176281
0.176257
0.176234
0.176212
0.17619
0.176169
0.176149
0.176128
0.176106
0.176085
0.176062
0.176039
0.176014
0.175988
0.17596
0.17593
0.175899
0.175865
0.175829
0.175791
0.175751
0.175708
0.175662
0.175613
0.175562
0.175508
0.175451
0.175392
0.175329
0.175264
0.175197
0.175126
0.175053
0.174978
0.1749
0.174819
0.174737
0.174652
0.174565
0.174477
0.174386
0.174293
0.174198
0.174102
0.174004
0.173904
0.173802
0.173699
0.173594
0.173488
0.173381
0.173272
0.173162
0.17305
0.172937
0.172823
0.172708
0.172591
0.172473
0.172354
0.172234
0.172113
0.171991
0.171867
0.171743
0.171618
0.171493
0.171367
0.17124
0.171113
0.170986
0.170859
0.170731
0.170603
0.170475
0.170347
0.170219
0.170091
0.169963
0.169836
0.169708
0.169582
0.169455
0.169329
0.169204
0.169079
0.168954
0.16883
0.168705
0.168582
0.168458
0.168335
0.168213
0.168091
0.16797
0.167849
0.167729
0.16761
0.167491
0.167374
0.167257
0.167142
0.167027
0.166914
0.166802
0.166692
0.166582
0.166475
0.166369
0.166264
0.166162
0.166061
0.165962
0.165865
0.16577
0.165677
0.165586
0.165496
0.165408
0.165321
0.165235
0.165151
0.165068
0.164986
0.164905
0.164826
0.164748
0.164671
0.164595
0.16452
0.164446
0.164374
0.164302
0.164231
0.164161
0.164091
0.164022
0.163953
0.163883
0.163814
0.163744
0.163674
0.163603
0.163531
0.163458
0.163384
0.163309
0.163233
0.163156
0.163077
0.162997
0.162916
0.162834
0.162752
0.162668
0.162584
0.162499
0.162413
0.162326
0.162239
0.16215
0.16206
0.16197
0.161878
0.161785
0.161691
0.161595
0.161497
0.161397
0.161294
0.161189
0.161082
0.160972
0.160859
0.160744
0.160625
0.160504
0.160381
0.160254
0.160125
0.159994
0.159859
0.159723
0.159584
0.159443
0.159301
0.159156
0.159011
0.158864
0.158716
0.158566
0.158415
0.158264
0.158111
0.157956
0.157801
0.157645
0.157488
0.15733
0.157171
0.157012
0.156851
0.156691
0.156529
0.156367
0.156204
0.156041
0.155878
0.155713
0.155549
0.155384
0.155219
0.155054
0.154889
0.154726
0.154563
0.154401
0.154241
0.154081
0.153924
0.153768
0.153613
0.15346
0.153309
0.153159
0.15301
0.152863
0.152718
0.152574
0.152432
0.152292
0.152154
0.152017
0.151882
0.151748
0.151615
0.151484
0.151355
0.151227
0.151101
0.150976
0.150854
0.150732
0.150612
0.150493
0.150376
0.150259
0.150144
0.15003
0.149916
0.149803
0.149691
0.149578
0.149467
0.149355
0.149244
0.149132
0.14902
0.148907
0.148795
0.148682
0.148571
0.148458
0.148347
0.148234
0.14812
0.148002
0.147881
0.147748
0.147609
0.147442
0.14726
0.147018
0.146738
0.146336
0.145859
0.145118
0.144313
0.142363
0.139001
0.134722
0.129355
0.121432
0.110749
0.0961629
0.0769579
0.0478742
0.0228368
0.0300272
0.051022
)
;

boundaryField
{
    inlet
    {
        type            calculated;
        value           uniform 0;
    }
    endWall
    {
        type            calculated;
        value           uniform 0;
    }
    sideWall
    {
        type            empty;
    }
}


// ************************************************************************* //
