/*--------------------------------*- C++ -*----------------------------------*\
| =========                 |                                                 |
| \\      /  F ield         | foam-extend: Open Source CFD                    |
|  \\    /   O peration     | Version:     3.2                                |
|   \\  /    A nd           | Web:         http://www.foam-extend.org         |
|    \\/     M anipulation  | For copyright notice see file Copyright         |
\*---------------------------------------------------------------------------*/
FoamFile
{
    version     2.0;
    format      ascii;
    class       areaScalarField;
    location    "120";
    object      tauCSS2;
}
// * * * * * * * * * * * * * * * * * * * * * * * * * * * * * * * * * * * * * //

dimensions      [1 1 2 0 0 0 0];

internalField   nonuniform List<scalar> 
550
(
0.0120735
0.0120735
0.0120735
0.0120735
0.0120735
0.0120735
0.0120735
0.0120735
0.0120735
0.0120735
0.0120735
0.0120735
0.0120735
0.0120735
0.0120735
0.0120735
0.0120735
0.0120735
0.0120735
0.0120735
0.0120735
0.0120735
0.0120735
0.0120735
0.0120735
0.0120735
0.0120735
0.0120735
0.0120735
0.0120735
0.0120735
0.0120735
0.0120735
0.0120735
0.0120735
0.0120735
0.0120735
0.0120735
0.0120735
0.0120735
0.0120735
0.0120735
0.0120735
0.0120735
0.0120735
0.0120735
0.0120735
0.0120735
0.0120735
0.0120735
0.0120735
0.0120735
0.0120735
0.0120735
0.0120735
0.0120735
0.0120735
0.0120735
0.0120736
0.0120804
0.0120773
0.0120783
0.0120792
0.0120792
0.0120796
0.0120801
0.0120808
0.0120815
0.0120823
0.0120831
0.0120839
0.0120848
0.0120856
0.0120865
0.0120873
0.0120882
0.012089
0.0120899
0.0120908
0.0120917
0.0120927
0.0120938
0.0120949
0.012096
0.0120971
0.0120983
0.0120994
0.0121005
0.0121015
0.0121026
0.0121036
0.0121045
0.0121054
0.0121062
0.012107
0.0121078
0.0121084
0.012109
0.0121096
0.0121102
0.0121107
0.0121113
0.0121118
0.0121123
0.0121127
0.0121131
0.0121134
0.0121137
0.012114
0.0121142
0.0121144
0.0121145
0.0121146
0.0121148
0.0121149
0.0121151
0.0121152
0.0121154
0.0121156
0.0121158
0.012116
0.0121163
0.0121165
0.0121168
0.0121171
0.0121175
0.0121178
0.0121182
0.0121186
0.0121191
0.0121196
0.0121201
0.0121207
0.0121213
0.0121219
0.0121225
0.0121232
0.0121238
0.0121245
0.0121251
0.0121257
0.0121263
0.0121269
0.0121274
0.012128
0.0121284
0.0121289
0.0121293
0.0121298
0.0121302
0.0121306
0.0121309
0.0121313
0.0121317
0.0121321
0.0121325
0.0121329
0.0121333
0.0121338
0.0121343
0.0121348
0.0121354
0.0121361
0.0121368
0.0121376
0.0121385
0.0121394
0.0121405
0.0121416
0.0121427
0.012144
0.0121453
0.0121467
0.0121481
0.0121497
0.0121512
0.0121528
0.0121545
0.0121561
0.0121578
0.0121594
0.012161
0.0121626
0.0121641
0.0121655
0.0121668
0.0121681
0.0121693
0.0121703
0.0121713
0.0121721
0.0121727
0.0121733
0.0121736
0.0121738
0.0121739
0.0121738
0.0121735
0.0121731
0.0121725
0.0121718
0.012171
0.0121701
0.0121691
0.012168
0.0121669
0.0121656
0.0121644
0.0121631
0.0121617
0.0121603
0.0121589
0.0121573
0.0121557
0.0121541
0.0121523
0.0121505
0.0121486
0.0121466
0.0121446
0.0121426
0.0121405
0.0121384
0.0121363
0.0121341
0.012132
0.0121299
0.0121279
0.012126
0.0121241
0.0121222
0.0121205
0.0121187
0.0121171
0.0121154
0.0121139
0.0121124
0.012111
0.0121096
0.0121083
0.0121072
0.0121061
0.0121052
0.0121044
0.0121037
0.0121032
0.0121029
0.0121028
0.0121028
0.0121031
0.0121036
0.0121042
0.0121051
0.0121062
0.0121075
0.0121091
0.0121109
0.0121128
0.012115
0.0121174
0.01212
0.0121228
0.0121258
0.0121289
0.0121322
0.0121356
0.0121392
0.0121428
0.0121466
0.0121504
0.0121542
0.0121581
0.012162
0.012166
0.01217
0.012174
0.0121779
0.0121819
0.0121858
0.0121897
0.0121936
0.0121973
0.0122011
0.0122047
0.0122083
0.0122117
0.0122151
0.0122183
0.0122214
0.0122244
0.0122272
0.0122299
0.0122325
0.0122349
0.0122372
0.0122394
0.0122414
0.0122432
0.0122449
0.0122465
0.012248
0.0122493
0.0122505
0.0122516
0.0122525
0.0122533
0.012254
0.0122547
0.0122552
0.0122556
0.0122559
0.0122561
0.0122562
0.0122562
0.0122561
0.0122558
0.0122554
0.0122549
0.0122542
0.0122533
0.0122523
0.0122511
0.0122497
0.0122483
0.0122467
0.012245
0.0122431
0.0122412
0.0122392
0.0122371
0.0122349
0.0122326
0.0122302
0.0122276
0.012225
0.0122222
0.0122193
0.0122162
0.0122131
0.0122098
0.0122065
0.012203
0.0121996
0.012196
0.0121925
0.0121889
0.0121853
0.0121817
0.0121782
0.0121747
0.0121714
0.0121681
0.0121649
0.0121618
0.0121588
0.012156
0.0121532
0.0121505
0.012148
0.0121455
0.0121432
0.0121409
0.0121387
0.0121365
0.0121344
0.0121323
0.0121302
0.0121282
0.0121263
0.0121244
0.0121226
0.0121209
0.0121193
0.0121179
0.0121167
0.0121157
0.0121148
0.0121143
0.0121139
0.0121138
0.012114
0.0121145
0.0121152
0.0121163
0.0121177
0.0121194
0.0121214
0.0121237
0.0121263
0.0121292
0.0121323
0.0121356
0.0121391
0.0121429
0.0121467
0.0121507
0.0121548
0.0121589
0.0121631
0.0121673
0.0121715
0.0121757
0.0121799
0.0121839
0.0121879
0.0121918
0.0121957
0.0121994
0.0122032
0.0122069
0.0122106
0.0122143
0.012218
0.0122218
0.0122257
0.0122296
0.0122336
0.0122376
0.0122417
0.0122458
0.01225
0.0122542
0.0122585
0.0122627
0.012267
0.0122713
0.0122755
0.0122796
0.0122837
0.0122876
0.0122914
0.012295
0.0122984
0.0123017
0.0123047
0.0123075
0.0123101
0.0123125
0.0123147
0.0123167
0.0123184
0.01232
0.0123215
0.0123227
0.0123238
0.0123247
0.0123254
0.012326
0.0123263
0.0123264
0.0123263
0.012326
0.0123253
0.0123244
0.0123232
0.0123217
0.01232
0.012318
0.0123157
0.0123133
0.0123106
0.0123078
0.0123048
0.0123017
0.0122984
0.0122951
0.0122917
0.0122882
0.0122845
0.0122809
0.0122771
0.0122732
0.0122693
0.0122653
0.0122612
0.0122572
0.0122532
0.0122492
0.0122453
0.0122415
0.0122378
0.0122342
0.0122308
0.0122275
0.0122243
0.0122213
0.0122185
0.0122158
0.0122133
0.0122109
0.0122087
0.0122067
0.0122048
0.012203
0.0122014
0.0121999
0.0121986
0.0121976
0.0121967
0.0121961
0.0121957
0.0121954
0.0121953
0.0121952
0.0121953
0.0121955
0.0121957
0.012196
0.0121964
0.0121969
0.0121976
0.0121985
0.0121996
0.012201
0.0122026
0.0122044
0.0122064
0.0122085
0.0122107
0.0122129
0.0122153
0.0122177
0.0122202
0.0122228
0.0122255
0.0122283
0.0122312
0.0122343
0.0122378
0.0122416
0.012246
0.0122513
0.0122579
0.0122664
0.0122775
0.0122939
0.0123088
0.0123523
0.0121242
0.0120344
0.0120735
0.0120735
0.0120735
0.0120735
0.0120735
0.0120735
0.0120735
0.0120735
0.0121481
0.0121481
)
;

boundaryField
{
    inlet
    {
        type            calculated;
        value           uniform 0;
    }
    endWall
    {
        type            calculated;
        value           uniform 0;
    }
    sideWall
    {
        type            empty;
    }
}


// ************************************************************************* //
