/*--------------------------------*- C++ -*----------------------------------*\
| =========                 |                                                 |
| \\      /  F ield         | foam-extend: Open Source CFD                    |
|  \\    /   O peration     | Version:     3.2                                |
|   \\  /    A nd           | Web:         http://www.foam-extend.org         |
|    \\/     M anipulation  | For copyright notice see file Copyright         |
\*---------------------------------------------------------------------------*/
FoamFile
{
    version     2.0;
    format      ascii;
    class       areaScalarField;
    location    "120";
    object      tauCB;
}
// * * * * * * * * * * * * * * * * * * * * * * * * * * * * * * * * * * * * * //

dimensions      [1 1 2 0 0 0 0];

internalField   nonuniform List<scalar> 
550
(
0.0676939
0.0676939
0.0676939
0.0676939
0.0676939
0.0676939
0.0676939
0.0676939
0.0676939
0.0676939
0.0676939
0.0676939
0.0676939
0.0676939
0.0676939
0.0676939
0.0676939
0.0676939
0.0676939
0.0676939
0.0676939
0.0676939
0.0676939
0.0676939
0.0676939
0.0676939
0.0676939
0.0676939
0.0676939
0.0676939
0.0676939
0.0676939
0.0676939
0.0676939
0.0676939
0.0676939
0.0676939
0.0676939
0.0676939
0.0676939
0.0676939
0.0676939
0.0676939
0.0676939
0.0676939
0.0676939
0.0676939
0.0676939
0.0676939
0.0676939
0.0676939
0.0676939
0.0676939
0.0676939
0.0676939
0.0676939
0.0676939
0.0676937
0.0676945
0.0677326
0.0677147
0.0677205
0.0677255
0.0677259
0.0677281
0.0677309
0.0677344
0.0677385
0.0677429
0.0677475
0.0677521
0.0677568
0.0677616
0.0677663
0.0677711
0.0677759
0.0677808
0.0677856
0.0677906
0.0677959
0.0678015
0.0678074
0.0678135
0.0678198
0.0678262
0.0678326
0.0678388
0.0678449
0.0678508
0.0678566
0.0678622
0.0678675
0.0678725
0.0678772
0.0678817
0.0678857
0.0678895
0.0678929
0.0678962
0.0678994
0.0679025
0.0679055
0.0679083
0.0679109
0.0679134
0.0679157
0.0679176
0.0679193
0.0679207
0.0679219
0.0679228
0.0679236
0.0679243
0.067925
0.0679259
0.0679267
0.0679275
0.0679284
0.0679295
0.0679307
0.067932
0.0679334
0.0679349
0.0679366
0.0679383
0.0679402
0.0679421
0.0679443
0.0679466
0.0679491
0.0679519
0.0679549
0.0679581
0.0679615
0.0679651
0.0679686
0.0679723
0.0679759
0.0679795
0.067983
0.0679865
0.0679898
0.067993
0.0679961
0.067999
0.0680017
0.0680043
0.0680068
0.0680091
0.0680114
0.0680136
0.0680158
0.0680179
0.0680201
0.0680222
0.0680245
0.0680268
0.0680292
0.0680318
0.0680346
0.0680376
0.068041
0.0680447
0.0680487
0.0680532
0.0680581
0.0680634
0.0680691
0.0680752
0.0680818
0.0680888
0.0680962
0.068104
0.0681122
0.0681207
0.0681295
0.0681385
0.0681477
0.068157
0.0681663
0.0681754
0.0681844
0.0681931
0.0682015
0.0682095
0.068217
0.0682241
0.0682306
0.0682366
0.0682418
0.0682463
0.0682501
0.068253
0.0682551
0.0682563
0.0682565
0.0682558
0.0682543
0.0682519
0.0682488
0.0682449
0.0682404
0.0682353
0.0682297
0.0682237
0.0682172
0.0682103
0.0682032
0.0681958
0.0681882
0.0681804
0.0681723
0.0681637
0.0681547
0.0681453
0.0681354
0.0681252
0.0681146
0.0681037
0.0680926
0.0680812
0.0680695
0.0680576
0.0680456
0.0680336
0.0680217
0.0680101
0.0679988
0.0679878
0.0679772
0.0679669
0.0679569
0.0679473
0.0679379
0.0679288
0.0679201
0.0679117
0.0679037
0.0678961
0.0678889
0.0678823
0.0678764
0.0678711
0.0678667
0.067863
0.0678603
0.0678586
0.0678579
0.0678582
0.0678596
0.0678622
0.0678659
0.0678709
0.0678771
0.0678845
0.0678932
0.0679032
0.0679143
0.0679266
0.06794
0.0679546
0.0679703
0.067987
0.0680045
0.0680229
0.0680421
0.0680619
0.0680823
0.0681033
0.0681246
0.0681462
0.0681681
0.0681901
0.0682123
0.0682346
0.0682569
0.0682791
0.0683013
0.0683234
0.0683452
0.0683668
0.068388
0.0684089
0.0684293
0.0684493
0.0684686
0.0684874
0.0685055
0.0685229
0.0685396
0.0685555
0.0685707
0.0685851
0.0685987
0.0686116
0.0686236
0.0686348
0.0686452
0.0686549
0.0686638
0.068672
0.0686794
0.0686861
0.068692
0.0686973
0.068702
0.0687059
0.0687094
0.0687122
0.0687145
0.0687163
0.0687175
0.0687181
0.0687181
0.0687174
0.068716
0.0687137
0.0687106
0.0687066
0.0687018
0.068696
0.0686893
0.0686818
0.0686735
0.0686646
0.068655
0.0686448
0.0686341
0.0686228
0.0686109
0.0685986
0.0685856
0.068572
0.0685578
0.0685428
0.0685272
0.0685109
0.0684939
0.0684762
0.0684579
0.0684391
0.06842
0.0684004
0.0683806
0.0683606
0.0683406
0.0683205
0.0683005
0.0682807
0.0682613
0.0682423
0.068224
0.0682062
0.0681889
0.0681721
0.068156
0.0681405
0.0681257
0.0681114
0.0680976
0.0680843
0.0680715
0.068059
0.0680469
0.068035
0.0680233
0.0680117
0.0680005
0.0679895
0.0679789
0.0679688
0.0679594
0.0679507
0.0679428
0.0679359
0.0679301
0.0679255
0.0679222
0.0679202
0.0679197
0.0679207
0.0679233
0.0679277
0.0679338
0.0679416
0.0679511
0.0679624
0.0679753
0.0679898
0.0680058
0.0680232
0.0680419
0.0680616
0.0680825
0.0681042
0.0681265
0.0681494
0.0681726
0.0681961
0.0682197
0.0682433
0.0682668
0.06829
0.0683129
0.0683352
0.0683571
0.0683786
0.0683998
0.0684207
0.0684414
0.0684622
0.068483
0.068504
0.0685253
0.0685469
0.0685688
0.0685911
0.0686138
0.0686367
0.0686599
0.0686834
0.068707
0.0687308
0.0687547
0.0687787
0.0688025
0.0688262
0.0688494
0.0688721
0.0688942
0.0689154
0.0689356
0.0689548
0.0689729
0.0689899
0.0690057
0.0690203
0.0690337
0.0690459
0.069057
0.069067
0.069076
0.069084
0.069091
0.069097
0.069102
0.0691061
0.0691091
0.0691111
0.0691118
0.0691112
0.0691092
0.0691056
0.0691005
0.0690937
0.0690854
0.0690756
0.0690644
0.0690518
0.069038
0.0690231
0.0690072
0.0689905
0.068973
0.0689548
0.0689361
0.0689169
0.0688972
0.068877
0.0688563
0.0688351
0.0688134
0.0687913
0.0687689
0.0687462
0.0687236
0.068701
0.0686787
0.0686569
0.0686355
0.0686148
0.0685948
0.0685755
0.068557
0.0685394
0.0685226
0.0685066
0.0684915
0.0684774
0.0684642
0.0684519
0.0684405
0.0684297
0.0684197
0.0684106
0.0684024
0.0683952
0.0683893
0.0683846
0.0683811
0.0683787
0.0683771
0.0683764
0.0683763
0.0683767
0.0683776
0.0683789
0.0683806
0.0683829
0.0683858
0.0683896
0.0683946
0.0684009
0.0684085
0.0684174
0.0684275
0.0684386
0.0684504
0.0684627
0.0684754
0.0684885
0.068502
0.068516
0.0685305
0.0685457
0.0685614
0.068578
0.0685955
0.0686147
0.068636
0.0686609
0.0686906
0.0687275
0.068775
0.0688374
0.0689292
0.0690129
0.0692568
0.0679779
0.0674747
0.0676939
0.0676939
0.0676939
0.0676939
0.0676939
0.0676939
0.0676939
0.0676939
0.0681118
0.0681118
)
;

boundaryField
{
    inlet
    {
        type            calculated;
        value           uniform 0;
    }
    endWall
    {
        type            calculated;
        value           uniform 0;
    }
    sideWall
    {
        type            empty;
    }
}


// ************************************************************************* //
