/*--------------------------------*- C++ -*----------------------------------*\
| =========                 |                                                 |
| \\      /  F ield         | foam-extend: Open Source CFD                    |
|  \\    /   O peration     | Version:     3.2                                |
|   \\  /    A nd           | Web:         http://www.foam-extend.org         |
|    \\/     M anipulation  | For copyright notice see file Copyright         |
\*---------------------------------------------------------------------------*/
FoamFile
{
    version     2.0;
    format      ascii;
    class       areaScalarField;
    location    "120";
    object      thetaB;
}
// * * * * * * * * * * * * * * * * * * * * * * * * * * * * * * * * * * * * * //

dimensions      [0 0 0 0 0 0 0];

internalField   nonuniform List<scalar> 
550
(
0.0152836
0.020911
0.0276649
0.0354475
0.0440552
0.0531773
0.062469
0.0715493
0.0800992
0.0878317
0.094572
0.100204
0.104714
0.108126
0.110523
0.112005
0.112697
0.112726
0.112221
0.11133
0.110136
0.108712
0.10712
0.105413
0.103641
0.101842
0.10005
0.0982964
0.0966034
0.0949718
0.0934039
0.0919048
0.0904779
0.0891248
0.0878456
0.0866392
0.0855042
0.0844382
0.0834386
0.0825022
0.081626
0.0808069
0.0800413
0.0793257
0.0786568
0.0780312
0.0774464
0.0768997
0.0763884
0.0759103
0.0754629
0.0750441
0.0746516
0.0742832
0.0739367
0.0736103
0.0733021
0.0730104
0.0727341
0.072471
0.0722196
0.0719826
0.0717615
0.0715536
0.0713567
0.0711694
0.0709904
0.0708186
0.0706533
0.0704938
0.0703395
0.0701898
0.0700444
0.0699027
0.0697643
0.0696291
0.0694967
0.0693671
0.0692402
0.0691161
0.0689947
0.0688758
0.0687593
0.068645
0.0685327
0.0684223
0.0683135
0.0682062
0.0681002
0.0679953
0.0678911
0.0677876
0.0676845
0.0675817
0.0674794
0.0673773
0.0672757
0.0671746
0.0670742
0.0669744
0.0668751
0.0667761
0.0666773
0.0665784
0.0664794
0.0663799
0.06628
0.0661794
0.0660781
0.065976
0.0658732
0.0657694
0.0656649
0.0655596
0.0654536
0.0653466
0.0652387
0.06513
0.0650207
0.0649107
0.0648
0.0646888
0.0645771
0.0644649
0.0643522
0.0642391
0.0641256
0.064012
0.0638981
0.0637842
0.0636703
0.0635564
0.0634427
0.0633293
0.0632161
0.0631033
0.0629909
0.0628789
0.0627674
0.0626564
0.062546
0.0624362
0.0623271
0.0622187
0.0621109
0.0620039
0.0618976
0.0617921
0.0616874
0.0615834
0.0614803
0.061378
0.0612766
0.061176
0.0610763
0.0609775
0.0608797
0.0607828
0.060687
0.0605921
0.0604982
0.0604054
0.0603137
0.060223
0.0601335
0.0600451
0.0599579
0.0598718
0.059787
0.0597033
0.0596208
0.0595395
0.0594593
0.0593803
0.0593025
0.0592258
0.0591501
0.0590755
0.0590019
0.0589293
0.0588575
0.0587865
0.0587164
0.0586471
0.0585785
0.0585106
0.0584434
0.058377
0.0583111
0.0582459
0.0581813
0.0581173
0.0580538
0.0579908
0.0579284
0.0578664
0.057805
0.057744
0.0576837
0.0576239
0.0575647
0.0575061
0.0574482
0.057391
0.0573345
0.0572788
0.0572239
0.0571698
0.0571165
0.0570641
0.0570126
0.0569617
0.0569115
0.0568618
0.0568127
0.0567643
0.0567166
0.0566697
0.0566236
0.0565784
0.056534
0.0564906
0.0564482
0.0564067
0.0563662
0.0563267
0.0562882
0.0562506
0.0562141
0.0561784
0.0561437
0.05611
0.0560771
0.0560452
0.0560141
0.0559839
0.0559546
0.0559262
0.0558987
0.0558721
0.0558464
0.0558216
0.0557978
0.0557749
0.0557531
0.0557323
0.0557124
0.0556936
0.0556758
0.055659
0.0556431
0.0556281
0.0556141
0.055601
0.0555888
0.0555774
0.0555669
0.055557
0.0555478
0.0555392
0.055531
0.0555234
0.0555161
0.0555091
0.0555023
0.0554957
0.0554892
0.0554826
0.0554759
0.055469
0.0554619
0.0554545
0.0554467
0.0554385
0.0554297
0.0554204
0.0554105
0.0553999
0.0553887
0.0553766
0.0553639
0.0553503
0.0553358
0.0553206
0.0553044
0.0552874
0.0552695
0.0552508
0.0552311
0.0552106
0.0551893
0.0551671
0.0551441
0.0551203
0.0550958
0.0550705
0.0550445
0.0550178
0.0549904
0.0549625
0.0549339
0.0549047
0.0548749
0.0548445
0.0548136
0.0547821
0.0547501
0.0547175
0.0546846
0.0546511
0.0546172
0.0545829
0.0545482
0.0545131
0.0544776
0.0544417
0.0544053
0.0543686
0.0543315
0.054294
0.0542561
0.0542179
0.0541794
0.0541405
0.0541014
0.0540621
0.0540226
0.0539829
0.053943
0.053903
0.0538629
0.0538227
0.0537825
0.0537422
0.0537019
0.0536616
0.0536212
0.0535809
0.0535407
0.0535005
0.0534605
0.0534205
0.0533807
0.053341
0.0533015
0.0532621
0.0532228
0.0531836
0.0531445
0.0531055
0.0530666
0.0530279
0.0529894
0.052951
0.0529128
0.0528748
0.052837
0.0527994
0.0527621
0.052725
0.0526883
0.0526519
0.0526158
0.0525802
0.0525449
0.0525101
0.0524757
0.0524418
0.0524084
0.0523756
0.0523433
0.0523115
0.0522804
0.0522499
0.0522199
0.0521906
0.0521617
0.0521334
0.0521056
0.0520782
0.0520513
0.0520247
0.0519986
0.0519728
0.0519474
0.0519224
0.0518978
0.0518735
0.0518496
0.051826
0.0518028
0.0517799
0.0517573
0.051735
0.0517129
0.051691
0.0516691
0.0516473
0.0516255
0.0516036
0.0515816
0.0515594
0.0515371
0.0515145
0.0514915
0.0514683
0.0514446
0.0514206
0.0513962
0.0513714
0.0513463
0.0513208
0.0512951
0.051269
0.0512428
0.0512162
0.0511894
0.0511623
0.051135
0.0511073
0.0510794
0.0510512
0.0510226
0.0509937
0.0509645
0.0509347
0.0509045
0.0508736
0.0508421
0.0508099
0.0507768
0.050743
0.0507083
0.0506728
0.0506364
0.0505992
0.0505611
0.0505221
0.0504823
0.0504416
0.0504001
0.0503579
0.0503148
0.0502711
0.0502267
0.0501818
0.0501364
0.0500906
0.0500443
0.0499976
0.0499505
0.049903
0.0498552
0.049807
0.0497584
0.0497096
0.0496604
0.0496109
0.0495611
0.0495111
0.0494608
0.0494103
0.0493597
0.0493088
0.0492578
0.0492065
0.0491551
0.0491035
0.0490518
0.0489999
0.0489479
0.0488959
0.048844
0.0487922
0.0487407
0.0486894
0.0486384
0.0485879
0.0485378
0.0484881
0.048439
0.0483903
0.048342
0.0482943
0.048247
0.0482002
0.0481539
0.0481081
0.0480629
0.0480183
0.0479741
0.0479306
0.0478874
0.0478448
0.0478026
0.0477609
0.0477196
0.0476789
0.0476386
0.0475989
0.0475596
0.0475209
0.0474826
0.0474449
0.0474074
0.0473705
0.0473338
0.0472975
0.0472613
0.0472256
0.0471899
0.0471545
0.0471192
0.0470841
0.0470488
0.0470138
0.0469785
0.0469433
0.0469077
0.0468725
0.0468369
0.0468017
0.0467663
0.0467312
0.0466956
0.0466598
0.0466226
0.0465846
0.0465426
0.0464989
0.0464464
0.0463889
0.0463126
0.0462246
0.0460977
0.0459476
0.0457141
0.0454605
0.0448464
0.0437871
0.0424393
0.0407484
0.0382526
0.0348873
0.0302926
0.0242428
0.015081
0.00719391
0.00945898
0.0160726
)
;

boundaryField
{
    inlet
    {
        type            calculated;
        value           uniform 0;
    }
    endWall
    {
        type            calculated;
        value           uniform 0;
    }
    sideWall
    {
        type            empty;
    }
}


// ************************************************************************* //
