/*--------------------------------*- C++ -*----------------------------------*\
| =========                 |                                                 |
| \\      /  F ield         | foam-extend: Open Source CFD                    |
|  \\    /   O peration     | Version:     3.2                                |
|   \\  /    A nd           | Web:         http://www.foam-extend.org         |
|    \\/     M anipulation  | For copyright notice see file Copyright         |
\*---------------------------------------------------------------------------*/
FoamFile
{
    version     2.0;
    format      ascii;
    class       areaScalarField;
    location    "120";
    object      thetaSS2;
}
// * * * * * * * * * * * * * * * * * * * * * * * * * * * * * * * * * * * * * //

dimensions      [0 0 0 0 0 0 0];

internalField   nonuniform List<scalar> 
550
(
0.511182
0.699399
0.925295
1.18559
1.47349
1.77859
2.08937
2.39307
2.67904
2.93766
3.1631
3.35147
3.50232
3.61645
3.69662
3.74616
3.76933
3.77029
3.75342
3.72359
3.68366
3.63603
3.58278
3.52571
3.46642
3.40626
3.34632
3.28767
3.23105
3.17648
3.12404
3.07389
3.02617
2.98091
2.93813
2.89778
2.85982
2.82416
2.79073
2.75941
2.73011
2.70271
2.6771
2.65317
2.63079
2.60987
2.59031
2.57203
2.55493
2.53893
2.52397
2.50996
2.49683
2.48451
2.47293
2.46201
2.4517
2.44194
2.4327
2.4239
2.41549
2.40757
2.40017
2.39322
2.38663
2.38037
2.37438
2.36864
2.36311
2.35777
2.35261
2.34761
2.34274
2.338
2.33337
2.32885
2.32442
2.32009
2.31584
2.31169
2.30763
2.30366
2.29976
2.29594
2.29218
2.28849
2.28485
2.28126
2.27771
2.2742
2.27072
2.26726
2.26381
2.26037
2.25695
2.25354
2.25014
2.24676
2.2434
2.24006
2.23674
2.23343
2.23012
2.22682
2.2235
2.22018
2.21683
2.21347
2.21008
2.20667
2.20323
2.19976
2.19626
2.19274
2.18919
2.18562
2.18201
2.17837
2.17471
2.17103
2.16734
2.16362
2.15988
2.15612
2.15236
2.14857
2.14478
2.14098
2.13717
2.13336
2.12955
2.12574
2.12194
2.11814
2.11436
2.11058
2.10682
2.10308
2.09935
2.09564
2.09195
2.08827
2.08462
2.081
2.07739
2.07381
2.07026
2.06673
2.06323
2.05975
2.0563
2.05288
2.04949
2.04612
2.04279
2.03949
2.03621
2.03297
2.02977
2.02659
2.02345
2.02035
2.01728
2.01425
2.01126
2.0083
2.00538
2.0025
1.99967
1.99687
1.99411
1.99139
1.98871
1.98606
1.98346
1.9809
1.97837
1.97587
1.97341
1.97098
1.96858
1.9662
1.96386
1.96154
1.95924
1.95698
1.95473
1.95251
1.9503
1.94812
1.94596
1.94382
1.9417
1.93959
1.9375
1.93543
1.93337
1.93134
1.92932
1.92732
1.92534
1.92338
1.92144
1.91953
1.91764
1.91578
1.91394
1.91213
1.91035
1.9086
1.90687
1.90517
1.90349
1.90183
1.90019
1.89857
1.89697
1.8954
1.89386
1.89235
1.89087
1.88941
1.88799
1.88661
1.88525
1.88393
1.88264
1.88139
1.88016
1.87897
1.87781
1.87668
1.87558
1.87451
1.87348
1.87247
1.87149
1.87054
1.86962
1.86873
1.86787
1.86704
1.86624
1.86548
1.86475
1.86405
1.86339
1.86276
1.86216
1.8616
1.86107
1.86057
1.8601
1.85966
1.85925
1.85887
1.85852
1.85819
1.85788
1.85759
1.85732
1.85706
1.85682
1.85659
1.85636
1.85614
1.85592
1.8557
1.85548
1.85525
1.85501
1.85476
1.8545
1.85422
1.85393
1.85362
1.85329
1.85293
1.85256
1.85216
1.85173
1.85127
1.85079
1.85028
1.84974
1.84917
1.84857
1.84795
1.84729
1.8466
1.84589
1.84515
1.84438
1.84358
1.84276
1.84191
1.84105
1.84015
1.83924
1.8383
1.83735
1.83637
1.83537
1.83436
1.83332
1.83227
1.8312
1.83011
1.82901
1.82789
1.82676
1.82561
1.82445
1.82327
1.82209
1.82088
1.81967
1.81844
1.8172
1.81594
1.81468
1.8134
1.81211
1.81081
1.8095
1.80819
1.80687
1.80554
1.80421
1.80287
1.80153
1.80018
1.79884
1.79749
1.79614
1.79479
1.79344
1.7921
1.79075
1.78941
1.78807
1.78673
1.7854
1.78407
1.78275
1.78143
1.78012
1.77881
1.7775
1.77619
1.77489
1.7736
1.77231
1.77103
1.76975
1.76848
1.76721
1.76596
1.76471
1.76347
1.76224
1.76102
1.75982
1.75862
1.75744
1.75628
1.75513
1.754
1.75288
1.75178
1.7507
1.74964
1.7486
1.74758
1.74657
1.74559
1.74463
1.74368
1.74275
1.74184
1.74093
1.74005
1.73917
1.73831
1.73746
1.73662
1.7358
1.73499
1.73419
1.7334
1.73262
1.73186
1.7311
1.73036
1.72962
1.72888
1.72815
1.72742
1.72669
1.72596
1.72522
1.72448
1.72374
1.72298
1.72221
1.72143
1.72064
1.71984
1.71902
1.71819
1.71735
1.7165
1.71564
1.71477
1.71389
1.713
1.71211
1.7112
1.71029
1.70936
1.70843
1.70748
1.70653
1.70556
1.70458
1.70359
1.70258
1.70155
1.70049
1.69941
1.69831
1.69718
1.69602
1.69483
1.69361
1.69237
1.69109
1.68979
1.68846
1.6871
1.68571
1.68429
1.68285
1.68139
1.67991
1.67841
1.67689
1.67536
1.67381
1.67224
1.67067
1.66908
1.66748
1.66587
1.66425
1.66261
1.66097
1.65931
1.65765
1.65597
1.65429
1.6526
1.65091
1.64921
1.6475
1.64579
1.64407
1.64234
1.64061
1.63888
1.63714
1.6354
1.63366
1.63193
1.6302
1.62849
1.62678
1.62509
1.62342
1.62176
1.62011
1.61849
1.61687
1.61528
1.61369
1.61213
1.61058
1.60905
1.60754
1.60604
1.60457
1.60311
1.60167
1.60024
1.59883
1.59744
1.59606
1.59469
1.59335
1.59202
1.5907
1.58941
1.58813
1.58686
1.58561
1.58438
1.58315
1.58194
1.58073
1.57953
1.57834
1.57715
1.57597
1.5748
1.57362
1.57245
1.57127
1.57009
1.5689
1.56772
1.56653
1.56535
1.56417
1.563
1.5618
1.56061
1.55936
1.55809
1.55669
1.55523
1.55347
1.55155
1.549
1.54605
1.54181
1.53679
1.52898
1.5205
1.49996
1.46453
1.41945
1.36289
1.27942
1.16686
1.01318
0.810836
0.504408
0.240611
0.31637
0.537573
)
;

boundaryField
{
    inlet
    {
        type            calculated;
        value           uniform 0;
    }
    endWall
    {
        type            calculated;
        value           uniform 0;
    }
    sideWall
    {
        type            empty;
    }
}


// ************************************************************************* //
