/*--------------------------------*- C++ -*----------------------------------*\
| =========                 |                                                 |
| \\      /  F ield         | foam-extend: Open Source CFD                    |
|  \\    /   O peration     | Version:     3.2                                |
|   \\  /    A nd           | Web:         http://www.foam-extend.org         |
|    \\/     M anipulation  | For copyright notice see file Copyright         |
\*---------------------------------------------------------------------------*/
FoamFile
{
    version     2.0;
    format      ascii;
    class       areaScalarField;
    location    "120";
    object      totH1;
}
// * * * * * * * * * * * * * * * * * * * * * * * * * * * * * * * * * * * * * //

dimensions      [0 0 0 0 0 0 0];

internalField   nonuniform List<scalar> 
550
(
0
0
0
0
0
0
0
0
0
0
0
0
0
0
0
0
0
0
0
0
0
0
0
0
0
0
0
0
0
0
0
0
0
0
0
0
0
0
0
0
0
0
0
0
0
0
0
0
0
0
0
0
0
0
0
-7.92753e-10
-3.26414e-09
-2.68479e-08
-2.11244e-10
-5.30632e-09
1.91419e-07
1.95148e-06
5.73533e-06
1.03492e-05
1.50716e-05
1.97942e-05
2.44225e-05
2.89426e-05
3.3353e-05
3.76623e-05
4.18815e-05
4.60249e-05
5.01078e-05
5.41402e-05
5.8123e-05
6.20518e-05
6.59163e-05
6.97017e-05
7.34016e-05
7.70245e-05
8.05806e-05
8.40736e-05
8.75053e-05
9.08765e-05
9.41879e-05
9.74421e-05
0.000100644
0.000103802
0.000106928
0.000110042
0.000113151
0.00011625
0.000119331
0.000122386
0.000125405
0.000128381
0.000131303
0.000134166
0.000136992
0.000139809
0.000142633
0.000145472
0.000148332
0.000151214
0.000154119
0.000157046
0.000159993
0.000162959
0.000165946
0.000168954
0.000171981
0.000175025
0.000178083
0.00018116
0.000184268
0.000187404
0.000190548
0.000193687
0.000196823
0.000199957
0.000203088
0.000206216
0.000209336
0.000212448
0.000215548
0.000218634
0.000221704
0.000224757
0.00022779
0.000230802
0.000233787
0.000236744
0.000239668
0.000242557
0.000245407
0.000248217
0.000250986
0.000253711
0.000256391
0.000259027
0.000261617
0.000264162
0.000266662
0.000269116
0.000271525
0.00027389
0.000276213
0.000278496
0.000280741
0.000282949
0.00028512
0.000287255
0.000289354
0.000291417
0.000293445
0.00029544
0.000297401
0.000299332
0.000301233
0.000303107
0.000304953
0.000306772
0.000308561
0.000310322
0.000312052
0.000313753
0.000315423
0.000317062
0.000318671
0.000320251
0.0003218
0.00032332
0.000324807
0.000326263
0.000327687
0.00032908
0.000330438
0.000331762
0.000333051
0.000334304
0.00033552
0.000336697
0.000337836
0.000338936
0.000339997
0.00034102
0.000342002
0.000342943
0.000343843
0.000344703
0.000345522
0.0003463
0.000347036
0.00034773
0.000348381
0.000348991
0.00034956
0.000350092
0.000350588
0.00035105
0.000351476
0.000351869
0.000352229
0.000352559
0.000352862
0.000353139
0.000353389
0.000353609
0.000353803
0.000353971
0.000354113
0.00035423
0.000354321
0.000354389
0.000354433
0.000354454
0.000354453
0.000354427
0.000354372
0.000354287
0.000354171
0.000354025
0.000353849
0.000353651
0.000353441
0.000353218
0.000352977
0.000352715
0.000352434
0.000352135
0.000351816
0.000351478
0.000351122
0.00035075
0.000350364
0.00034996
0.000349539
0.000349102
0.000348649
0.000348181
0.000347697
0.0003472
0.000346692
0.000346173
0.000345646
0.000345112
0.000344575
0.00034404
0.000343508
0.00034298
0.000342457
0.000341944
0.000341446
0.000340964
0.000340505
0.000340071
0.000339663
0.000339277
0.000338916
0.000338582
0.000338282
0.000338029
0.000337824
0.000337652
0.000337501
0.000337366
0.000337237
0.000337119
0.000337017
0.000336931
0.000336863
0.000336814
0.000336785
0.000336776
0.000336788
0.000336819
0.000336868
0.000336934
0.000337018
0.000337117
0.00033723
0.000337357
0.000337496
0.000337646
0.000337805
0.000337971
0.000338144
0.000338322
0.000338504
0.000338689
0.000338877
0.000339067
0.000339258
0.000339448
0.000339638
0.000339826
0.000340012
0.000340197
0.000340379
0.00034056
0.000340738
0.000340914
0.00034109
0.000341265
0.000341439
0.000341612
0.000341785
0.000341958
0.000342129
0.000342299
0.000342466
0.000342627
0.000342782
0.000342928
0.000343065
0.000343191
0.000343304
0.000343406
0.000343495
0.000343572
0.000343637
0.000343693
0.000343741
0.00034378
0.000343812
0.000343836
0.000343851
0.000343856
0.00034385
0.000343833
0.000343801
0.000343753
0.000343688
0.000343605
0.000343503
0.000343382
0.000343244
0.000343088
0.000342917
0.000342733
0.00034254
0.000342344
0.000342147
0.000341949
0.00034175
0.000341553
0.00034136
0.000341171
0.000340991
0.000340828
0.000340693
0.000340593
0.000340526
0.00034047
0.000340403
0.000340318
0.000340218
0.00034011
0.000339994
0.000339871
0.000339742
0.000339609
0.000339467
0.000339317
0.000339162
0.000338999
0.000338822
0.000338632
0.000338433
0.000338227
0.000338012
0.000337789
0.000337562
0.000337331
0.000337097
0.000336862
0.000336626
0.000336391
0.000336159
0.000335932
0.000335717
0.000335521
0.000335356
0.000335227
0.000335134
0.000335078
0.000335059
0.000335075
0.000335119
0.00033519
0.000335289
0.000335405
0.000335527
0.000335659
0.0003358
0.000335939
0.000336074
0.000336206
0.000336339
0.00033647
0.000336601
0.000336733
0.00033687
0.000337011
0.000337156
0.000337299
0.000337444
0.000337595
0.000337754
0.000337925
0.000338107
0.000338301
0.000338507
0.000338725
0.000338955
0.000339195
0.000339445
0.000339704
0.00033997
0.000340243
0.000340522
0.000340806
0.000341096
0.000341392
0.000341692
0.000341995
0.0003423
0.000342606
0.00034291
0.000343212
0.000343509
0.000343801
0.000344089
0.000344371
0.000344648
0.000344923
0.000345194
0.000345463
0.00034573
0.000345996
0.000346261
0.000346523
0.00034678
0.000347031
0.000347273
0.000347504
0.000347723
0.000347927
0.000348116
0.000348285
0.000348433
0.000348559
0.000348664
0.000348749
0.000348816
0.000348867
0.000348903
0.000348927
0.00034894
0.000348944
0.000348942
0.000348936
0.000348925
0.000348912
0.000348896
0.00034888
0.000348861
0.000348838
0.000348808
0.00034877
0.00034872
0.00034866
0.00034859
0.000348511
0.000348427
0.000348337
0.000348243
0.000348148
0.000348053
0.000347959
0.000347867
0.000347776
0.000347689
0.000347602
0.000347515
0.000347428
0.000347341
0.000347254
0.000347166
0.000347077
0.000346984
0.000346888
0.000346791
0.000346695
0.000346603
0.000346519
0.000346442
0.000346372
0.000346306
0.000346239
0.000346169
0.000346092
0.00034601
0.000345921
0.000345827
0.000345729
0.00034563
0.000345535
0.000345447
0.000345374
0.000345319
0.000345285
0.000345271
0.000345277
0.000345298
0.000345328
0.000345362
0.000345395
0.000345425
0.000345452
0.000345479
0.00034551
0.000345552
0.000345615
0.000345713
0.000345862
0.000346092
0.00034645
0.000347002
0.00034784
0.000349106
0.00035099
0.000353769
0.000357832
0.00036368
0.000372131
0.000381226
0.000393336
0.000304481
0.000103801
0
0
0
0
0
0
0
0
0
0
)
;

boundaryField
{
    inlet
    {
        type            calculated;
        value           uniform 0;
    }
    endWall
    {
        type            calculated;
        value           uniform 0;
    }
    sideWall
    {
        type            empty;
    }
}


// ************************************************************************* //
