/*--------------------------------*- C++ -*----------------------------------*\
| =========                 |                                                 |
| \\      /  F ield         | foam-extend: Open Source CFD                    |
|  \\    /   O peration     | Version:     3.2                                |
|   \\  /    A nd           | Web:         http://www.foam-extend.org         |
|    \\/     M anipulation  | For copyright notice see file Copyright         |
\*---------------------------------------------------------------------------*/
FoamFile
{
    version     2.0;
    format      ascii;
    class       areaVectorField;
    location    "120";
    object      Ub2;
}
// * * * * * * * * * * * * * * * * * * * * * * * * * * * * * * * * * * * * * //

dimensions      [0 1 -1 0 0 0 0];

internalField   nonuniform List<vector> 
550
(
(0 0 0)
(0 0 0)
(0 0 0)
(0 0 0)
(0.0427676 -1.20555e-23 -8.55351e-05)
(0.0544587 0 -0.000108917)
(0.0653748 -1.95395e-29 -0.00013075)
(0.075282 2.62096e-29 -0.000150564)
(0.08405 -2.26982e-23 -0.0001681)
(0.0915846 -2.27421e-29 -0.000183169)
(0.0978858 2.61212e-29 -0.000195772)
(0.102981 0 -0.000205961)
(0.106958 -2.69294e-23 -0.000213916)
(0.109911 3.49607e-29 -0.000219822)
(0.111957 0 -0.000223915)
(0.113211 -2.46207e-23 -0.000226422)
(0.113794 2.28739e-23 -0.000227588)
(0.113818 -2.1111e-23 -0.000227637)
(0.113394 -1.95442e-23 -0.000226788)
(0.112641 0 -0.000225282)
(0.111628 -1.67704e-23 -0.000223257)
(0.110413 1.56407e-23 -0.000220826)
(0.109045 0 -0.00021809)
(0.107568 -1.35569e-23 -0.000215135)
(0.10602 0 -0.00021204)
(0.104436 0 -0.000208872)
(0.102844 -1.04796e-23 -0.000205687)
(0.101272 0 -0.000202544)
(0.0997411 0 -0.000199482)
(0.098253 0 -0.000196506)
(0.0968108 -5.64131e-30 -0.000193622)
(0.0954206 -5.70426e-30 -0.000190841)
(0.0940868 0 -0.000188174)
(0.0928123 0 -0.000185625)
(0.0915984 6.32241e-30 -0.000183197)
(0.0904455 0 -0.000180891)
(0.0893534 0 -0.000178707)
(0.0883211 0 -0.000176642)
(0.0873472 -5.45236e-24 -0.000174694)
(0.0864295 0 -0.000172859)
(0.0855662 0 -0.000171132)
(0.0847549 8.20302e-30 -0.00016951)
(0.0839928 0 -0.000167986)
(0.0832772 -8.13835e-30 -0.000166554)
(0.0826053 0 -0.000165211)
(0.0819745 0 -0.000163949)
(0.0813824 0 -0.000162765)
(0.0808269 0 -0.000161654)
(0.0803056 -9.01902e-30 -0.000160611)
(0.0798165 9.06088e-30 -0.000159633)
(0.0793575 -9.09261e-30 -0.000158715)
(0.0789265 9.08375e-30 -0.000157853)
(0.0785215 0 -0.000157043)
(0.0781404 0 -0.000156281)
(0.0777812 0 -0.000155562)
(0.077442 9.73305e-25 -0.000154891)
(0.077121 8.39362e-30 -0.000154256)
(0.0768167 0 -0.000153819)
(0.0765274 -7.52633e-25 -0.000152646)
(0.0762304 0 -0.000152911)
(0.0759766 0 -0.000149861)
(0.0757243 0 -0.000138872)
(0.0754886 0 -0.000132093)
(0.0752692 -3.41213e-25 -0.000131166)
(0.0750601 5.99625e-30 -0.000130446)
(0.0748605 0 -0.000130452)
(0.0746689 6.43449e-30 -0.000130541)
(0.0744846 0 -0.000130684)
(0.0743067 -6.28872e-30 -0.000130805)
(0.0741347 -6.16939e-30 -0.000130894)
(0.073968 3.84384e-25 -0.000130941)
(0.073806 3.8087e-25 -0.000130929)
(0.0736483 0 -0.000130865)
(0.0734944 3.61624e-25 -0.000130786)
(0.0733439 5.73279e-30 -0.000130723)
(0.0731966 3.33675e-25 -0.000130691)
(0.0730523 0 -0.00013072)
(0.0729107 3.10179e-25 -0.000130816)
(0.0727719 3.03792e-25 -0.000130903)
(0.0726358 -3.01907e-25 -0.000130937)
(0.0725022 0 -0.000130951)
(0.0723711 -2.87199e-25 -0.000130962)
(0.0722423 2.78798e-25 -0.000130969)
(0.0721156 2.71083e-25 -0.000130979)
(0.0719911 -2.64943e-25 -0.000130987)
(0.0718684 -2.60591e-25 -0.000130983)
(0.0717475 2.57702e-25 -0.000130955)
(0.0716281 0 -0.000130895)
(0.0715102 -3.85369e-30 -0.000130767)
(0.0713934 -2.64027e-25 -0.000130569)
(0.0712775 2.79374e-25 -0.000130373)
(0.0711623 0 -0.000130222)
(0.0710477 2.92867e-25 -0.0001301)
(0.0709336 -2.90589e-25 -0.000130009)
(0.0708199 0 -0.000129953)
(0.0707067 2.93496e-25 -0.000129934)
(0.0705941 0 -0.000129964)
(0.0704821 -2.4939e-25 -0.000129968)
(0.0703708 0 -0.000129846)
(0.0702602 0 -0.00012963)
(0.0701502 0 -0.000129381)
(0.0700404 -3.11125e-30 -0.000129106)
(0.0699309 0 -0.000128819)
(0.0698213 3.03506e-30 -0.00012853)
(0.0697114 0 -0.000128241)
(0.0696013 0 -0.000127959)
(0.0694906 0 -0.00012768)
(0.0693794 -2.20112e-25 -0.0001274)
(0.0692674 -2.23152e-25 -0.000127116)
(0.0691546 -2.27161e-25 -0.000126831)
(0.069041 0 -0.000126549)
(0.0689264 -2.35595e-25 -0.000126283)
(0.0688109 -2.4173e-25 -0.000126026)
(0.0686945 2.51036e-25 -0.000125715)
(0.0685771 -2.85091e-30 -0.00012536)
(0.0684585 -2.56986e-25 -0.000125074)
(0.0683389 -2.63694e-25 -0.00012487)
(0.0682182 0 -0.000124666)
(0.0680966 0 -0.00012445)
(0.0679741 2.8818e-30 -0.000124235)
(0.0678508 -2.9976e-25 -0.000124021)
(0.0677266 3.07192e-25 -0.000123814)
(0.0676017 3.14844e-25 -0.000123614)
(0.067476 -3.22305e-25 -0.000123422)
(0.0673497 3.2997e-25 -0.00012324)
(0.0672228 2.82649e-30 -0.000123064)
(0.0670953 3.44074e-25 -0.000122891)
(0.0669673 -2.80468e-30 -0.000122724)
(0.0668389 0 -0.000122564)
(0.0667102 -2.77987e-30 -0.000122415)
(0.0665813 0 -0.000122278)
(0.0664522 3.72929e-25 -0.000122154)
(0.0663231 0 -0.000122041)
(0.066194 -2.72515e-30 -0.000121938)
(0.066065 0 -0.000121844)
(0.0659363 0 -0.000121756)
(0.0658079 0 -0.000121673)
(0.0656798 -2.65553e-30 -0.000121594)
(0.0655522 0 -0.00012152)
(0.0654252 -2.61934e-30 -0.000121447)
(0.0652987 -4.1014e-25 -0.000121375)
(0.0651729 2.58333e-30 -0.000121304)
(0.0650478 0 -0.000121234)
(0.0649234 -2.54948e-30 -0.000121165)
(0.0647998 -4.19341e-25 -0.000121094)
(0.064677 4.21022e-25 -0.000121017)
(0.0645551 2.49265e-30 -0.000120934)
(0.0644339 0 -0.000120845)
(0.0643136 0 -0.000120753)
(0.0641942 4.2515e-25 -0.000120658)
(0.0640756 -4.25599e-25 -0.000120564)
(0.0639579 -4.25704e-25 -0.000120469)
(0.063841 0 -0.000120375)
(0.0637251 0 -0.00012028)
(0.0636101 -2.42354e-30 -0.000120183)
(0.063496 2.41713e-30 -0.000120086)
(0.0633828 0 -0.000119984)
(0.0632706 0 -0.000119875)
(0.0631594 -4.16374e-25 -0.000119763)
(0.063049 0 -0.000119647)
(0.0629397 0 -0.000119534)
(0.0628312 2.37012e-30 -0.000119427)
(0.0627238 0 -0.000119324)
(0.0626173 2.35495e-30 -0.000119222)
(0.0625118 -3.93642e-25 -0.000119124)
(0.0624073 -3.88665e-25 -0.000119029)
(0.0623038 -3.83467e-25 -0.000118938)
(0.0622014 3.78048e-25 -0.000118847)
(0.0621 0 -0.000118755)
(0.0619997 0 -0.000118663)
(0.0619004 0 -0.000118576)
(0.0618023 0 -0.000118494)
(0.0617052 0 -0.000118416)
(0.0616091 -2.20941e-30 -0.000118338)
(0.0615142 0 -0.000118262)
(0.0614203 -3.32471e-25 -0.000118193)
(0.0613275 0 -0.00011813)
(0.0612358 0 -0.00011807)
(0.0611451 0 -0.000118014)
(0.0610555 3.13492e-25 -0.000117965)
(0.0609669 -3.09309e-25 -0.000117921)
(0.0608793 3.05312e-25 -0.00011788)
(0.0607928 -3.01494e-25 -0.000117843)
(0.0607073 0 -0.000117807)
(0.0606229 -2.01276e-30 -0.000117771)
(0.0605395 2.90918e-25 -0.000117739)
(0.0604572 -2.8815e-25 -0.000117716)
(0.0603759 0 -0.000117696)
(0.0602957 -1.94526e-30 -0.000117674)
(0.0602165 0 -0.000117652)
(0.0601384 2.79456e-25 -0.000117634)
(0.0600614 0 -0.000117622)
(0.0599854 0 -0.000117612)
(0.0599104 -2.74156e-25 -0.000117604)
(0.0598365 0 -0.000117598)
(0.0597637 0 -0.000117591)
(0.059692 0 -0.000117579)
(0.0596213 2.66721e-25 -0.000117558)
(0.0595517 1.80999e-30 -0.000117535)
(0.0594832 -2.62801e-25 -0.000117514)
(0.0594157 0 -0.000117493)
(0.0593493 0 -0.00011747)
(0.0592839 -1.76432e-30 -0.000117444)
(0.0592197 0 -0.000117413)
(0.0591565 1.72936e-30 -0.000117369)
(0.0590944 -2.45452e-25 -0.000117329)
(0.0590334 2.41959e-25 -0.000117305)
(0.0589735 -2.3811e-25 -0.000117278)
(0.0589147 0 -0.000117243)
(0.0588571 -1.65196e-30 -0.000117212)
(0.0588005 0 -0.000117183)
(0.0587448 0 -0.000117154)
(0.0586902 0 -0.000117123)
(0.0586364 -1.51846e-30 -0.000117093)
(0.0585836 0 -0.000117064)
(0.0585317 -2.27312e-25 -0.000117029)
(0.0584809 1.43859e-30 -0.000117004)
(0.0584312 -2.24687e-25 -0.000116992)
(0.0583825 0 -0.000116987)
(0.0583351 0 -0.000116992)
(0.0582888 0 -0.000116999)
(0.0582438 -2.16897e-25 -0.000117007)
(0.0582 1.31286e-30 -0.000117006)
(0.0581574 -1.28112e-30 -0.000116972)
(0.0581159 0 -0.000116921)
(0.0580756 0 -0.000116886)
(0.0580363 0 -0.000116876)
(0.0579979 1.9709e-25 -0.000116866)
(0.0579605 1.9293e-25 -0.000116845)
(0.0579239 -1.88715e-25 -0.000116829)
(0.0578884 0 -0.000116822)
(0.0578537 1.20374e-30 -0.000116814)
(0.0578199 -1.75107e-25 -0.0001168)
(0.0577871 1.69932e-25 -0.000116778)
(0.0577551 1.16384e-30 -0.000116762)
(0.057724 1.59596e-25 -0.000116758)
(0.0576937 0 -0.000116752)
(0.0576643 0 -0.000116739)
(0.0576357 0 -0.00011673)
(0.0576079 1.0639e-30 -0.000116726)
(0.0575809 0 -0.000116717)
(0.0575546 1.25271e-25 -0.000116702)
(0.0575291 -9.66181e-31 -0.000116685)
(0.0575043 9.29966e-31 -0.000116663)
(0.0574802 1.07614e-25 -0.000116638)
(0.0574568 8.54766e-31 -0.00011661)
(0.0574341 9.66858e-26 -0.000116565)
(0.057412 0 -0.000116507)
(0.0573905 8.63862e-26 -0.000116455)
(0.0573696 0 -0.000116403)
(0.0573491 0 -0.000116335)
(0.0573292 -6.47887e-31 -0.000116253)
(0.0573096 0 -0.000116168)
(0.0572905 0 -0.000116069)
(0.0572717 -5.90105e-26 -0.00011595)
(0.0572532 0 -0.000115831)
(0.057235 -5.18181e-26 -0.000115717)
(0.057217 0 -0.000115612)
(0.0571991 0 -0.000115496)
(0.0571813 0 -0.000115365)
(0.0571634 0 -0.000115209)
(0.0571454 0 -0.000115001)
(0.0571274 0 -0.000114833)
(0.0571093 3.231e-26 -0.000114724)
(0.0570909 0 -0.00011462)
(0.0570723 0 -0.000114558)
(0.0570534 0 -0.0001145)
(0.0570341 0 -0.000114415)
(0.0570144 0 -0.000114324)
(0.0569943 0 -0.000114231)
(0.0569737 0 -0.00011413)
(0.0569526 2.80984e-26 -0.000114029)
(0.056931 0 -0.00011392)
(0.0569088 0 -0.000113814)
(0.0568859 0 -0.000113703)
(0.0568623 0 -0.0001136)
(0.056838 -3.89405e-26 -0.000113495)
(0.056813 0 -0.000113392)
(0.0567872 4.24611e-31 -0.000113286)
(0.0567606 0 -0.000113189)
(0.0567333 0 -0.000113091)
(0.0567051 0 -0.000112996)
(0.0566762 -4.76532e-31 -0.0001129)
(0.0566465 0 -0.00011281)
(0.0566161 6.94046e-26 -0.000112725)
(0.0565849 0 -0.000112643)
(0.056553 7.67046e-26 -0.000112559)
(0.0565204 0 -0.000112481)
(0.0564871 8.34394e-26 -0.000112403)
(0.0564532 0 -0.000112326)
(0.0564187 8.95797e-26 -0.000112249)
(0.0563836 0 -0.000112178)
(0.056348 0 -0.000112104)
(0.0563118 -9.81163e-26 -0.000112035)
(0.0562751 0 -0.000111964)
(0.056238 -1.03406e-25 -0.000111898)
(0.0562005 0 -0.000111827)
(0.0561626 1.09008e-25 -0.000111757)
(0.0561243 0 -0.000111689)
(0.0560857 5.97247e-31 -0.000111618)
(0.0560467 0 -0.000111548)
(0.0560074 5.8915e-31 -0.000111471)
(0.0559678 0 -0.000111396)
(0.0559279 -1.30898e-25 -0.000111321)
(0.0558877 0 -0.000111242)
(0.0558471 1.38771e-25 -0.000111162)
(0.0558063 0 -0.000111082)
(0.0557652 -6.17223e-31 -0.000111001)
(0.0557238 0 -0.000110924)
(0.0556821 -1.53772e-25 -0.000110847)
(0.0556402 0 -0.000110777)
(0.0555981 -6.82576e-31 -0.000110712)
(0.0555558 -1.63388e-25 -0.000110651)
(0.0555133 7.20683e-31 -0.000110593)
(0.0554708 1.68808e-25 -0.00011054)
(0.0554281 0 -0.00011049)
(0.0553854 0 -0.000110443)
(0.0553427 1.75164e-25 -0.000110395)
(0.0552999 1.76795e-25 -0.000110348)
(0.0552572 1.78082e-25 -0.000110299)
(0.0552145 1.79036e-25 -0.000110247)
(0.0551719 8.44951e-31 -0.000110187)
(0.0551294 -8.54949e-31 -0.000110128)
(0.0550868 0 -0.000110063)
(0.0550444 1.78998e-25 -0.000110005)
(0.055002 0 -0.000109944)
(0.0549596 0 -0.00010989)
(0.0549173 0 -0.000109834)
(0.0548752 0 -0.000109784)
(0.0548332 0 -0.000109738)
(0.0547913 0 -0.000109702)
(0.0547496 1.7081e-25 -0.000109669)
(0.0547082 0 -0.000109639)
(0.0546671 8.47216e-31 -0.000109611)
(0.0546263 0 -0.000109587)
(0.0545858 0 -0.000109561)
(0.0545458 0 -0.000109535)
(0.0545061 -1.64188e-25 -0.000109503)
(0.0544669 0 -0.000109467)
(0.054428 1.63591e-25 -0.000109423)
(0.0543896 0 -0.000109366)
(0.0543515 -6.68915e-31 -0.000109291)
(0.0543137 0 -0.000109215)
(0.0542763 -1.66105e-25 -0.000109147)
(0.0542391 0 -0.000109071)
(0.054202 -1.697e-25 -0.000108986)
(0.0541651 -1.72096e-25 -0.000108902)
(0.0541283 -1.74682e-25 -0.00010881)
(0.0540915 1.77134e-25 -0.0001087)
(0.0540546 0 -0.00010856)
(0.0540175 0 -0.000108386)
(0.0539803 0 -0.000108202)
(0.0539429 -1.83048e-25 -0.000108046)
(0.0539055 0 -0.000107978)
(0.053868 -1.88916e-25 -0.000107967)
(0.0538303 -6.86283e-31 -0.000107939)
(0.0537925 0 -0.000107895)
(0.0537546 0 -0.000107841)
(0.0537168 0 -0.000107786)
(0.0536789 -1.92031e-25 -0.000107731)
(0.0536411 0 -0.000107669)
(0.0536035 0 -0.000107609)
(0.0535661 0 -0.000107564)
(0.053529 1.89094e-25 -0.000107511)
(0.0534922 1.872e-25 -0.000107446)
(0.0534558 0 -0.000107408)
(0.0534199 1.83637e-25 -0.000107384)
(0.0533844 1.80932e-25 -0.000107342)
(0.0533493 1.77802e-25 -0.000107293)
(0.0533147 1.74498e-25 -0.000107246)
(0.0532805 0 -0.000107203)
(0.0532466 1.67023e-25 -0.000107153)
(0.053213 0 -0.000107096)
(0.0531797 0 -0.00010704)
(0.0531466 1.54182e-25 -0.000106981)
(0.0531135 0 -0.000106917)
(0.0530805 0 -0.000106849)
(0.0530474 0 -0.000106777)
(0.0530141 0 -0.000106699)
(0.0529805 1.34455e-25 -0.00010661)
(0.0529466 0 -0.0001065)
(0.0529122 -1.27125e-25 -0.000106355)
(0.0528774 0 -0.000106183)
(0.0528421 -6.15368e-31 -0.000106007)
(0.0528064 0 -0.000105829)
(0.0527701 1.13216e-25 -0.000105649)
(0.0527333 0 -0.000105469)
(0.052696 0 -0.000105298)
(0.0526583 5.63819e-31 -0.000105153)
(0.0526201 -1.01743e-25 -0.000104994)
(0.0525816 9.925e-26 -0.000104837)
(0.0525428 -5.46516e-31 -0.000104741)
(0.0525037 0 -0.000104646)
(0.0524644 -9.45589e-26 -0.000104527)
(0.0524249 0 -0.000104439)
(0.0523852 0 -0.000104378)
(0.0523453 9.24061e-26 -0.000104309)
(0.0523053 0 -0.000104229)
(0.0522651 0 -0.00010415)
(0.0522247 0 -0.000104073)
(0.0521842 0 -0.000103993)
(0.0521436 4.54679e-31 -0.000103904)
(0.0521029 4.43704e-31 -0.000103807)
(0.052062 0 -0.00010371)
(0.0520211 0 -0.00010363)
(0.05198 -9.79814e-26 -0.000103552)
(0.0519386 -9.97833e-26 -0.000103457)
(0.0518969 1.01478e-25 -0.000103353)
(0.0518549 0 -0.00010324)
(0.0518125 1.0478e-25 -0.000103123)
(0.0517696 0 -0.000103004)
(0.0517263 1.086e-25 -0.000102883)
(0.0516826 -1.10497e-25 -0.000102762)
(0.0516383 0 -0.000102641)
(0.0515935 1.13978e-25 -0.000102519)
(0.0515482 0 -0.000102399)
(0.0515024 0 -0.000102284)
(0.051456 0 -0.000102168)
(0.0514091 -5.16782e-31 -0.000102056)
(0.0513617 -1.20974e-25 -0.000101943)
(0.0513138 0 -0.000101833)
(0.0512654 -1.23314e-25 -0.000101721)
(0.0512165 0 -0.000101606)
(0.0511671 0 -0.000101495)
(0.0511172 -1.27616e-25 -0.000101387)
(0.0510668 0 -0.000101279)
(0.0510159 5.49187e-31 -0.000101175)
(0.0509644 -5.54132e-31 -0.000101071)
(0.0509123 -1.37296e-25 -0.000100975)
(0.0508597 0 -0.000100881)
(0.0508066 -1.44177e-25 -0.000100789)
(0.0507529 -1.47832e-25 -0.000100697)
(0.0506988 0 -0.000100604)
(0.0506443 0 -0.000100509)
(0.0505892 1.59608e-25 -0.000100412)
(0.0505338 0 -0.000100309)
(0.0504779 0 -0.000100207)
(0.0504216 0 -0.000100098)
(0.0503648 0 -9.99916e-05)
(0.0503075 -1.80521e-25 -9.98798e-05)
(0.0502498 -6.78655e-31 -9.97716e-05)
(0.0501917 0 -9.9665e-05)
(0.0501331 0 -9.95647e-05)
(0.0500742 -7.33742e-31 -9.94669e-05)
(0.050015 0 -9.93794e-05)
(0.0499557 0 -9.92915e-05)
(0.0498962 0 -9.92095e-05)
(0.0498367 0 -9.91341e-05)
(0.0497772 0 -9.90618e-05)
(0.0497179 2.09146e-25 -9.89993e-05)
(0.0496587 0 -9.8944e-05)
(0.0495999 2.13011e-25 -9.88861e-05)
(0.0495414 -2.14685e-25 -9.88258e-05)
(0.0494833 0 -9.8761e-05)
(0.0494256 -2.17956e-25 -9.86925e-05)
(0.0493683 8.00675e-31 -9.86195e-05)
(0.0493115 2.21452e-25 -9.8542e-05)
(0.049255 0 -9.84616e-05)
(0.0491989 0 -9.83753e-05)
(0.0491431 -2.27797e-25 -9.82841e-05)
(0.0490876 0 -9.81876e-05)
(0.0490323 -2.32426e-25 -9.80886e-05)
(0.0489772 0 -9.79875e-05)
(0.0489222 0 -9.78834e-05)
(0.0488674 0 -9.77776e-05)
(0.0488126 0 -9.76708e-05)
(0.0487578 -8.89877e-31 -9.75693e-05)
(0.048703 0 -9.74756e-05)
(0.0486483 -2.44771e-25 -9.7387e-05)
(0.0485936 2.44966e-25 -9.73037e-05)
(0.0485391 0 -9.7225e-05)
(0.0484848 -2.44258e-25 -9.71448e-05)
(0.0484307 0 -9.70599e-05)
(0.048377 -9.82624e-31 -9.6973e-05)
(0.0483236 9.76403e-31 -9.68789e-05)
(0.0482706 9.71938e-31 -9.67869e-05)
(0.0482179 -2.3443e-25 -9.66872e-05)
(0.0481656 -2.31959e-25 -9.65849e-05)
(0.0481136 2.29789e-25 -9.6477e-05)
(0.0480618 0 -9.63704e-05)
(0.0480103 0 -9.6261e-05)
(0.0479589 -2.2494e-25 -9.61526e-05)
(0.0479077 2.24286e-25 -9.60441e-05)
(0.0478567 2.23489e-25 -9.59415e-05)
(0.0478057 -8.25856e-31 -9.58391e-05)
(0.0477549 2.21744e-25 -9.57394e-05)
(0.0477042 2.20708e-25 -9.5637e-05)
(0.0476537 -2.18891e-25 -9.55356e-05)
(0.0476034 -2.17596e-25 -9.54381e-05)
(0.0475532 -2.15463e-25 -9.53437e-05)
(0.0475032 -2.13952e-25 -9.52534e-05)
(0.0474534 -8.67758e-31 -9.51605e-05)
(0.0474037 -8.65752e-31 -9.50611e-05)
(0.0473543 -8.82552e-31 -9.49546e-05)
(0.0473049 -2.01997e-25 -9.48401e-05)
(0.0472556 -8.85851e-31 -9.47204e-05)
(0.0472063 0 -9.46013e-05)
(0.0471569 0 -9.44868e-05)
(0.0471074 -1.81053e-25 -9.43849e-05)
(0.047058 1.74194e-25 -9.42918e-05)
(0.0470085 -1.69683e-25 -9.42061e-05)
(0.0469593 0 -9.41247e-05)
(0.0469101 1.60962e-25 -9.40417e-05)
(0.0468612 -1.56742e-25 -9.39592e-05)
(0.0468125 0 -9.38732e-05)
(0.0467641 -1.52982e-25 -9.37821e-05)
(0.0467157 0 -9.36842e-05)
(0.0466677 5.87584e-31 -9.35736e-05)
(0.0466195 -1.5356e-25 -9.34489e-05)
(0.0465715 0 -9.3309e-05)
(0.046523 0 -9.31619e-05)
(0.0464743 1.54401e-25 -9.30085e-05)
(0.0464248 -5.18242e-31 -9.28575e-05)
(0.046375 5.70615e-31 -9.27123e-05)
(0.0463242 -1.61447e-25 -9.25802e-05)
(0.0462729 6.17514e-31 -9.24602e-05)
(0.0462207 -1.63695e-25 -9.23555e-05)
(0.0461683 1.6212e-25 -9.22548e-05)
(0.0461152 0 -9.21592e-05)
(0.0460621 1.61806e-25 -9.20574e-05)
(0.0460085 0 -9.19482e-05)
(0.0459551 1.63336e-25 -9.18217e-05)
(0.0459011 0 -9.16755e-05)
(0.0458472 -1.72776e-25 -9.15028e-05)
(0.0457922 5.70774e-31 -9.12834e-05)
(0.0457368 0 -9.10255e-05)
(0.0456788 0 -9.06494e-05)
(0.0456194 3.97003e-31 -9.01466e-05)
(0.0455539 0 -8.94347e-05)
(0.0454849 0 -8.8445e-05)
(0.0454022 0 -8.70026e-05)
(0.0453105 -4.79749e-31 -8.50257e-05)
(0.04519 1.02329e-24 -8.21439e-05)
(0.045048 0 -7.81737e-05)
(0.0448468 -1.85821e-24 -7.27118e-05)
(0.0445983 0 -6.46179e-05)
(0.0442441 -6.41372e-30 -6.86079e-05)
(0.0437738 0 -4.89042e-05)
(0.0436642 -1.39411e-27 -0.000552678)
(0.0425247 1.76862e-22 -0.000570632)
(0.0405737 0 -8.11474e-05)
(0.0382319 0 -7.64638e-05)
(0.0346839 0 -6.93679e-05)
(0 0 0)
(0 0 0)
(0 0 0)
(0 0 0)
(0 0 0)
(0 0 0)
(0 0 0)
)
;

boundaryField
{
    inlet
    {
        type            calculated;
        value           uniform (0 0 0);
    }
    endWall
    {
        type            calculated;
        value           uniform (0 0 0);
    }
    sideWall
    {
        type            empty;
    }
}


// ************************************************************************* //
