/*--------------------------------*- C++ -*----------------------------------*\
| =========                 |                                                 |
| \\      /  F ield         | foam-extend: Open Source CFD                    |
|  \\    /   O peration     | Version:     3.2                                |
|   \\  /    A nd           | Web:         http://www.foam-extend.org         |
|    \\/     M anipulation  | For copyright notice see file Copyright         |
\*---------------------------------------------------------------------------*/
FoamFile
{
    version     2.0;
    format      ascii;
    class       areaScalarField;
    location    "120";
    object      Uf;
}
// * * * * * * * * * * * * * * * * * * * * * * * * * * * * * * * * * * * * * //

dimensions      [0 1 -1 0 0 0 0];

internalField   nonuniform List<scalar> 
550
(
0.0069794
0.00816381
0.0093901
0.0106291
0.0118496
0.0130187
0.0141104
0.0151011
0.0159779
0.0167314
0.0173615
0.017871
0.0182687
0.018564
0.0187686
0.018894
0.0189523
0.0189547
0.0189123
0.018837
0.0187357
0.0186142
0.0184774
0.0183296
0.0181748
0.0180164
0.0178572
0.0177
0.0175469
0.0173981
0.0172539
0.0171149
0.0169815
0.0168541
0.0167327
0.0166174
0.0165082
0.0164049
0.0163075
0.0162158
0.0161294
0.0160483
0.0159721
0.0159005
0.0158334
0.0157703
0.0157111
0.0156555
0.0156034
0.0155545
0.0155086
0.0154655
0.015425
0.0153869
0.0153509
0.015317
0.0152849
0.0152545
0.0152256
0.015198
0.0151716
0.0151467
0.0151235
0.0151015
0.0150807
0.0150609
0.015042
0.0150238
0.0150062
0.0149893
0.0149729
0.0149569
0.0149414
0.0149263
0.0149115
0.0148971
0.0148829
0.014869
0.0148554
0.0148421
0.0148291
0.0148163
0.0148038
0.0147914
0.0147793
0.0147674
0.0147557
0.0147441
0.0147326
0.0147213
0.01471
0.0146988
0.0146876
0.0146764
0.0146653
0.0146542
0.0146432
0.0146322
0.0146212
0.0146103
0.0145995
0.0145887
0.0145779
0.0145671
0.0145562
0.0145454
0.0145344
0.0145234
0.0145122
0.014501
0.0144897
0.0144783
0.0144668
0.0144552
0.0144435
0.0144317
0.0144198
0.0144078
0.0143957
0.0143835
0.0143712
0.0143589
0.0143465
0.014334
0.0143215
0.0143089
0.0142962
0.0142836
0.0142708
0.0142581
0.0142454
0.0142326
0.0142199
0.0142072
0.0141945
0.0141818
0.0141692
0.0141566
0.014144
0.0141315
0.0141191
0.0141067
0.0140943
0.0140821
0.0140699
0.0140577
0.0140457
0.0140337
0.0140218
0.01401
0.0139983
0.0139866
0.013975
0.0139636
0.0139522
0.0139409
0.0139297
0.0139186
0.0139076
0.0138968
0.013886
0.0138753
0.0138648
0.0138544
0.0138441
0.0138339
0.0138238
0.0138139
0.0138041
0.0137945
0.0137849
0.0137755
0.0137662
0.0137571
0.0137481
0.0137392
0.0137304
0.0137217
0.0137132
0.0137047
0.0136964
0.0136881
0.01368
0.0136719
0.0136639
0.013656
0.0136481
0.0136404
0.0136327
0.0136251
0.0136175
0.01361
0.0136026
0.0135952
0.0135879
0.0135806
0.0135734
0.0135662
0.0135592
0.0135521
0.0135452
0.0135383
0.0135315
0.0135247
0.0135181
0.0135115
0.013505
0.0134986
0.0134923
0.0134861
0.01348
0.013474
0.0134681
0.0134622
0.0134564
0.0134507
0.013445
0.0134394
0.013434
0.0134286
0.0134233
0.0134182
0.0134131
0.0134082
0.0134034
0.0133987
0.0133941
0.0133896
0.0133853
0.013381
0.0133769
0.0133729
0.013369
0.0133652
0.0133615
0.0133579
0.0133544
0.013351
0.0133477
0.0133445
0.0133414
0.0133385
0.0133356
0.0133329
0.0133303
0.0133278
0.0133254
0.0133232
0.0133211
0.013319
0.0133171
0.0133154
0.0133137
0.0133121
0.0133107
0.0133093
0.013308
0.0133068
0.0133057
0.0133047
0.0133037
0.0133028
0.0133019
0.0133011
0.0133003
0.0132995
0.0132987
0.0132979
0.0132971
0.0132963
0.0132955
0.0132946
0.0132936
0.0132927
0.0132916
0.0132905
0.0132893
0.013288
0.0132867
0.0132852
0.0132837
0.0132821
0.0132803
0.0132785
0.0132766
0.0132745
0.0132724
0.0132701
0.0132678
0.0132653
0.0132628
0.0132601
0.0132573
0.0132545
0.0132515
0.0132485
0.0132453
0.0132421
0.0132388
0.0132355
0.013232
0.0132285
0.0132249
0.0132213
0.0132175
0.0132137
0.0132099
0.0132059
0.013202
0.0131979
0.0131938
0.0131897
0.0131855
0.0131812
0.0131769
0.0131726
0.0131682
0.0131638
0.0131593
0.0131547
0.0131501
0.0131455
0.0131408
0.0131361
0.0131314
0.0131266
0.0131218
0.013117
0.0131121
0.0131073
0.0131024
0.0130975
0.0130926
0.0130877
0.0130828
0.0130779
0.013073
0.0130681
0.0130631
0.0130582
0.0130534
0.0130485
0.0130436
0.0130388
0.0130339
0.0130291
0.0130243
0.0130195
0.0130147
0.01301
0.0130052
0.0130005
0.0129957
0.012991
0.0129863
0.0129817
0.012977
0.0129724
0.0129678
0.0129633
0.0129588
0.0129543
0.0129498
0.0129454
0.0129411
0.0129368
0.0129326
0.0129284
0.0129243
0.0129202
0.0129162
0.0129123
0.0129085
0.0129047
0.012901
0.0128974
0.0128938
0.0128903
0.0128869
0.0128835
0.0128802
0.0128769
0.0128736
0.0128704
0.0128673
0.0128642
0.0128612
0.0128581
0.0128552
0.0128523
0.0128494
0.0128465
0.0128437
0.012841
0.0128382
0.0128355
0.0128328
0.0128301
0.0128274
0.0128247
0.0128219
0.0128192
0.0128164
0.0128136
0.0128107
0.0128078
0.0128049
0.0128019
0.0127989
0.0127958
0.0127926
0.0127895
0.0127863
0.012783
0.0127797
0.0127764
0.0127731
0.0127697
0.0127663
0.0127628
0.0127593
0.0127558
0.0127523
0.0127486
0.012745
0.0127413
0.0127375
0.0127336
0.0127297
0.0127256
0.0127215
0.0127173
0.0127129
0.0127085
0.0127039
0.0126992
0.0126944
0.0126896
0.0126846
0.0126794
0.0126742
0.0126689
0.0126635
0.012658
0.0126524
0.0126468
0.012641
0.0126353
0.0126294
0.0126235
0.0126176
0.0126116
0.0126055
0.0125994
0.0125933
0.0125871
0.0125809
0.0125746
0.0125683
0.012562
0.0125556
0.0125492
0.0125427
0.0125363
0.0125298
0.0125233
0.0125167
0.0125101
0.0125035
0.0124969
0.0124903
0.0124837
0.012477
0.0124704
0.0124638
0.0124573
0.0124507
0.0124443
0.0124379
0.0124315
0.0124252
0.0124189
0.0124127
0.0124066
0.0124005
0.0123945
0.0123886
0.0123827
0.0123769
0.0123711
0.0123654
0.0123598
0.0123542
0.0123487
0.0123433
0.0123379
0.0123326
0.0123273
0.0123221
0.012317
0.0123119
0.0123069
0.0123019
0.012297
0.0122922
0.0122874
0.0122826
0.0122779
0.0122732
0.0122686
0.0122639
0.0122593
0.0122547
0.0122502
0.0122456
0.012241
0.0122364
0.0122319
0.0122272
0.0122226
0.012218
0.0122134
0.0122088
0.0122042
0.0121995
0.0121949
0.01219
0.012185
0.0121795
0.0121738
0.0121669
0.0121594
0.0121494
0.0121379
0.0121212
0.0121014
0.0120707
0.0120371
0.0119556
0.0118135
0.0116303
0.0113962
0.0110417
0.0105448
0.00982596
0.00879018
0.00693302
0.00478838
0.00549069
0.00715729
)
;

boundaryField
{
    inlet
    {
        type            calculated;
        value           uniform 0;
    }
    endWall
    {
        type            calculated;
        value           uniform 0;
    }
    sideWall
    {
        type            empty;
    }
}


// ************************************************************************* //
