/*--------------------------------*- C++ -*----------------------------------*\
| =========                 |                                                 |
| \\      /  F ield         | foam-extend: Open Source CFD                    |
|  \\    /   O peration     | Version:     3.2                                |
|   \\  /    A nd           | Web:         http://www.foam-extend.org         |
|    \\/     M anipulation  | For copyright notice see file Copyright         |
\*---------------------------------------------------------------------------*/
FoamFile
{
    version     2.0;
    format      ascii;
    class       areaScalarField;
    location    "120";
    object      Uf2;
}
// * * * * * * * * * * * * * * * * * * * * * * * * * * * * * * * * * * * * * //

dimensions      [0 1 -1 0 0 0 0];

internalField   nonuniform List<scalar> 
550
(
0.0357307
0.0352754
0.0346647
0.0339842
0.0333315
0.0326721
0.0320685
0.0314657
0.0309078
0.0303524
0.029832
0.0293209
0.0288414
0.0283733
0.0279267
0.0274929
0.027081
0.0266866
0.0263103
0.025947
0.0255988
0.0252642
0.0249439
0.0246379
0.0243474
0.0240722
0.0238129
0.0235683
0.0233365
0.0231169
0.0229084
0.0227108
0.0225238
0.0223469
0.0221794
0.0220209
0.0218712
0.0217299
0.0215965
0.0214706
0.0213521
0.0212405
0.0211353
0.0210359
0.0209421
0.0208535
0.0207699
0.020691
0.0206165
0.0205463
0.0204799
0.0204174
0.0203583
0.0203024
0.0202494
0.020199
0.0201511
0.0201054
0.0200621
0.02002
0.0199794
0.0199436
0.019912
0.0198816
0.0198522
0.019824
0.0197969
0.0197709
0.0197459
0.0197219
0.0196988
0.0196766
0.0196551
0.0196342
0.0196138
0.0195941
0.0195749
0.0195561
0.019538
0.0195206
0.0195036
0.0194871
0.0194711
0.0194554
0.0194401
0.0194251
0.0194105
0.0193961
0.019382
0.0193681
0.0193544
0.0193407
0.0193271
0.0193137
0.0193005
0.0192875
0.0192746
0.019262
0.0192499
0.0192378
0.019226
0.0192142
0.0192025
0.0191909
0.0191793
0.0191677
0.0191561
0.0191444
0.0191327
0.0191209
0.0191091
0.0190971
0.0190851
0.0190731
0.019061
0.0190486
0.019036
0.0190234
0.0190108
0.018998
0.0189852
0.0189722
0.0189591
0.0189459
0.0189326
0.0189191
0.0189056
0.018892
0.0188783
0.0188645
0.0188507
0.0188368
0.0188229
0.0188088
0.0187948
0.0187806
0.0187665
0.0187523
0.018738
0.0187237
0.0187094
0.0186951
0.0186807
0.0186663
0.0186519
0.0186376
0.0186232
0.0186088
0.0185944
0.01858
0.0185656
0.0185513
0.0185369
0.0185226
0.0185083
0.0184941
0.0184799
0.0184658
0.0184517
0.0184378
0.0184239
0.0184101
0.0183964
0.0183828
0.0183694
0.0183561
0.0183429
0.0183299
0.018317
0.0183042
0.0182917
0.0182792
0.0182669
0.0182548
0.0182429
0.018231
0.0182194
0.0182078
0.0181964
0.0181852
0.018174
0.018163
0.018152
0.0181412
0.0181304
0.0181198
0.0181092
0.0180987
0.0180883
0.018078
0.0180677
0.0180575
0.0180473
0.0180372
0.0180272
0.0180171
0.0180072
0.0179973
0.0179874
0.0179776
0.0179679
0.0179582
0.0179485
0.017939
0.0179295
0.0179202
0.0179109
0.0179018
0.0178927
0.0178838
0.0178749
0.0178661
0.0178574
0.0178487
0.0178401
0.0178316
0.0178232
0.0178149
0.0178067
0.0177986
0.0177907
0.0177828
0.017775
0.0177674
0.0177599
0.0177525
0.0177452
0.0177381
0.0177311
0.0177243
0.0177176
0.0177111
0.0177047
0.0176985
0.0176925
0.0176866
0.0176809
0.0176754
0.01767
0.0176649
0.0176599
0.0176551
0.0176506
0.0176462
0.017642
0.017638
0.0176341
0.0176304
0.0176269
0.0176235
0.0176203
0.0176172
0.0176142
0.0176114
0.0176087
0.0176061
0.0176036
0.0176012
0.0175989
0.0175966
0.0175945
0.0175925
0.0175905
0.0175886
0.0175868
0.017585
0.0175833
0.0175816
0.0175799
0.0175782
0.0175766
0.0175749
0.0175732
0.0175715
0.0175697
0.0175678
0.0175659
0.0175639
0.0175618
0.0175596
0.0175573
0.0175549
0.0175524
0.0175498
0.0175471
0.0175443
0.0175413
0.0175383
0.0175352
0.017532
0.0175288
0.0175254
0.017522
0.0175185
0.017515
0.0175113
0.0175076
0.0175038
0.0175
0.017496
0.0174919
0.0174878
0.0174835
0.0174791
0.0174746
0.01747
0.0174653
0.0174605
0.0174555
0.0174505
0.0174453
0.0174401
0.0174348
0.0174294
0.0174239
0.0174184
0.0174128
0.0174071
0.0174014
0.0173956
0.0173899
0.0173841
0.0173783
0.0173725
0.0173667
0.0173609
0.0173552
0.0173495
0.0173438
0.0173382
0.0173327
0.0173271
0.0173216
0.0173162
0.0173108
0.0173054
0.0173
0.0172947
0.0172894
0.0172841
0.0172787
0.0172734
0.0172681
0.0172627
0.0172573
0.0172518
0.0172462
0.0172406
0.0172349
0.0172291
0.0172232
0.0172173
0.0172113
0.0172053
0.0171992
0.017193
0.0171868
0.0171805
0.0171743
0.017168
0.0171618
0.0171555
0.0171493
0.0171431
0.017137
0.0171309
0.0171248
0.0171189
0.017113
0.0171072
0.0171015
0.0170959
0.0170904
0.0170851
0.0170799
0.0170748
0.0170699
0.0170651
0.0170604
0.0170558
0.0170513
0.0170469
0.0170426
0.0170384
0.0170343
0.0170303
0.0170264
0.0170226
0.0170189
0.0170153
0.0170117
0.0170082
0.0170047
0.0170013
0.0169979
0.0169946
0.0169913
0.016988
0.0169847
0.0169814
0.0169781
0.0169748
0.0169715
0.0169682
0.0169648
0.0169613
0.0169578
0.0169543
0.0169506
0.0169469
0.0169432
0.0169394
0.0169355
0.0169315
0.0169275
0.0169235
0.0169194
0.0169152
0.016911
0.0169068
0.0169026
0.0168982
0.0168939
0.0168895
0.0168851
0.0168807
0.0168762
0.0168716
0.016867
0.0168622
0.0168574
0.0168524
0.0168473
0.0168421
0.0168368
0.0168314
0.0168258
0.0168201
0.0168143
0.0168084
0.0168023
0.0167962
0.0167899
0.0167834
0.0167769
0.0167703
0.0167635
0.0167567
0.0167499
0.0167429
0.0167359
0.0167288
0.0167217
0.0167145
0.0167073
0.0167
0.0166926
0.0166852
0.0166776
0.01667
0.0166622
0.0166544
0.0166465
0.0166385
0.0166304
0.0166223
0.0166141
0.0166058
0.0165975
0.0165892
0.0165808
0.0165724
0.016564
0.0165557
0.0165474
0.0165392
0.016531
0.0165229
0.0165149
0.016507
0.0164991
0.0164913
0.0164834
0.0164756
0.0164678
0.01646
0.0164522
0.0164445
0.0164367
0.0164291
0.0164214
0.0164139
0.0164064
0.0163991
0.0163918
0.0163847
0.0163777
0.0163709
0.0163643
0.016358
0.0163517
0.0163457
0.0163399
0.0163342
0.0163285
0.016323
0.0163174
0.0163119
0.0163063
0.0163009
0.0162952
0.0162897
0.016284
0.0162784
0.0162726
0.0162669
0.0162609
0.0162552
0.0162492
0.0162435
0.0162375
0.0162317
0.0162256
0.0162197
0.0162133
0.0162069
0.0161993
0.0161919
0.0161809
0.0161709
0.016153
0.0161367
0.0161046
0.0160752
0.0160147
0.0159621
0.0158392
0.0157808
0.0153484
0.0147302
0.0141717
0.0135041
0.0122769
0.0108331
0.00877414
0.00636414
0.00166266
0.000183493
0.00219233
0.00332367
)
;

boundaryField
{
    inlet
    {
        type            calculated;
        value           uniform 0;
    }
    endWall
    {
        type            calculated;
        value           uniform 0;
    }
    sideWall
    {
        type            empty;
    }
}


// ************************************************************************* //
