/*--------------------------------*- C++ -*----------------------------------*\
| =========                 |                                                 |
| \\      /  F ield         | foam-extend: Open Source CFD                    |
|  \\    /   O peration     | Version:     3.2                                |
|   \\  /    A nd           | Web:         http://www.foam-extend.org         |
|    \\/     M anipulation  | For copyright notice see file Copyright         |
\*---------------------------------------------------------------------------*/
FoamFile
{
    version     2.0;
    format      ascii;
    class       areaVectorField;
    location    "120";
    object      Utau;
}
// * * * * * * * * * * * * * * * * * * * * * * * * * * * * * * * * * * * * * //

dimensions      [0 1 -1 0 0 0 0];

internalField   nonuniform List<vector> 
550
(
(0.0697934 0 -0.000139587)
(0.0816375 0 -0.000163275)
(0.0939002 -1.4837e-29 -0.0001878)
(0.106291 0 -0.000212581)
(0.118495 -3.34018e-23 -0.00023699)
(0.130186 0 -0.000260372)
(0.141102 -4.21732e-29 -0.000282205)
(0.15101 5.25743e-29 -0.000302019)
(0.159778 -4.31488e-23 -0.000319555)
(0.167312 -4.15466e-29 -0.000334624)
(0.173613 4.63293e-29 -0.000347227)
(0.178708 0 -0.000357416)
(0.182686 -4.59958e-23 -0.000365371)
(0.185638 5.90483e-29 -0.000371277)
(0.187685 0 -0.00037537)
(0.188939 -4.10896e-23 -0.000377877)
(0.189522 3.8096e-23 -0.000379044)
(0.189546 -3.51569e-23 -0.000379092)
(0.189122 -3.25964e-23 -0.000378243)
(0.188369 0 -0.000376738)
(0.187356 -2.81473e-23 -0.000374712)
(0.186141 2.63679e-23 -0.000372282)
(0.184773 0 -0.000369546)
(0.183296 -2.31009e-23 -0.000366591)
(0.181748 0 -0.000363496)
(0.180164 0 -0.000360327)
(0.178571 -1.81962e-23 -0.000357143)
(0.177 0 -0.000354)
(0.175469 0 -0.000350938)
(0.173981 0 -0.000347962)
(0.172539 -1.00541e-29 -0.000345078)
(0.171149 -1.02313e-29 -0.000342297)
(0.169815 0 -0.00033963)
(0.16854 0 -0.00033708)
(0.167326 1.15494e-29 -0.000334653)
(0.166173 0 -0.000332347)
(0.165081 0 -0.000330163)
(0.164049 0 -0.000328098)
(0.163075 -1.01794e-23 -0.00032615)
(0.162157 0 -0.000324315)
(0.161294 0 -0.000322588)
(0.160483 1.55324e-29 -0.000320966)
(0.159721 0 -0.000319441)
(0.159005 -1.55389e-29 -0.00031801)
(0.158333 0 -0.000316666)
(0.157702 0 -0.000315405)
(0.15711 0 -0.000314221)
(0.156555 0 -0.00031311)
(0.156034 -1.75239e-29 -0.000312067)
(0.155544 1.76576e-29 -0.000311089)
(0.155085 -1.77693e-29 -0.000310171)
(0.154654 1.77994e-29 -0.000309309)
(0.154249 0 -0.000308499)
(0.153868 0 -0.000307737)
(0.153509 0 -0.000307018)
(0.15317 1.92507e-24 -0.000306353)
(0.152849 1.66356e-29 -0.000305726)
(0.152545 0 -0.000305457)
(0.152256 -1.49741e-24 -0.000303698)
(0.15198 0 -0.000304857)
(0.151716 0 -0.000299254)
(0.151467 0 -0.000277779)
(0.151234 0 -0.000264635)
(0.151015 -6.84587e-25 -0.000263163)
(0.150807 1.20474e-29 -0.000262086)
(0.150609 0 -0.000262452)
(0.15042 1.29622e-29 -0.000262973)
(0.150238 0 -0.000263592)
(0.150062 -1.27001e-29 -0.000264159)
(0.149893 -1.24739e-29 -0.000264655)
(0.149729 7.78084e-25 -0.000265055)
(0.149569 7.71841e-25 -0.000265331)
(0.149414 0 -0.000265493)
(0.149263 7.34438e-25 -0.000265618)
(0.149115 1.16553e-29 -0.000265773)
(0.148971 6.79099e-25 -0.000265984)
(0.148829 0 -0.000266315)
(0.14869 6.32562e-25 -0.000266778)
(0.148554 6.20151e-25 -0.00026722)
(0.148421 -6.16905e-25 -0.000267551)
(0.14829 0 -0.000267837)
(0.148163 -5.87973e-25 -0.000268113)
(0.148037 5.71307e-25 -0.000268379)
(0.147914 5.5601e-25 -0.000268647)
(0.147793 -5.43911e-25 -0.000268909)
(0.147674 -5.35458e-25 -0.000269141)
(0.147557 5.29994e-25 -0.000269324)
(0.147441 0 -0.000269436)
(0.147326 -7.93942e-30 -0.000269407)
(0.147212 -5.44422e-25 -0.000269232)
(0.1471 5.76562e-25 -0.000269059)
(0.146987 0 -0.000268977)
(0.146876 6.05439e-25 -0.000268953)
(0.146764 -6.01238e-25 -0.000268994)
(0.146653 0 -0.000269105)
(0.146542 6.08281e-25 -0.000269293)
(0.146431 0 -0.000269581)
(0.146321 -5.17736e-25 -0.000269814)
(0.146212 0 -0.000269786)
(0.146103 0 -0.00026956)
(0.145995 0 -0.000269264)
(0.145887 -6.48041e-30 -0.000268914)
(0.145779 0 -0.000268539)
(0.145671 6.33215e-30 -0.000268157)
(0.145562 0 -0.000267775)
(0.145453 0 -0.000267411)
(0.145344 0 -0.000267051)
(0.145233 -4.60765e-25 -0.00026669)
(0.145122 -4.67526e-25 -0.00026632)
(0.14501 -4.76333e-25 -0.000265951)
(0.144897 0 -0.000265591)
(0.144783 -4.94876e-25 -0.000265263)
(0.144668 -5.08211e-25 -0.000264955)
(0.144552 5.28247e-25 -0.000264539)
(0.144435 -6.00449e-30 -0.000264029)
(0.144317 -5.4175e-25 -0.000263667)
(0.144197 -5.56405e-25 -0.000263481)
(0.144077 0 -0.000263295)
(0.143956 0 -0.000263087)
(0.143834 6.09794e-30 -0.000262883)
(0.143712 -6.34909e-25 -0.000262684)
(0.143588 6.51283e-25 -0.000262501)
(0.143464 6.68162e-25 -0.000262333)
(0.14334 -6.84674e-25 -0.000262186)
(0.143214 7.01658e-25 -0.000262061)
(0.143088 6.01639e-30 -0.00026195)
(0.142962 7.33129e-25 -0.000261848)
(0.142835 -5.98214e-30 -0.000261758)
(0.142708 0 -0.000261687)
(0.142581 -5.94147e-30 -0.000261639)
(0.142454 0 -0.00026162)
(0.142326 7.98732e-25 -0.000261627)
(0.142199 0 -0.00026166)
(0.142072 -5.84896e-30 -0.000261714)
(0.141945 0 -0.000261789)
(0.141818 0 -0.000261877)
(0.141691 0 -0.000261975)
(0.141565 -5.7237e-30 -0.000262083)
(0.14144 0 -0.000262199)
(0.141315 -5.65762e-30 -0.000262319)
(0.14119 -8.86813e-25 -0.00026244)
(0.141066 5.59159e-30 -0.000262562)
(0.140943 0 -0.000262685)
(0.14082 -5.52988e-30 -0.00026281)
(0.140698 -9.10506e-25 -0.000262928)
(0.140577 9.15101e-25 -0.000263034)
(0.140457 5.42341e-30 -0.000263124)
(0.140337 0 -0.0002632)
(0.140218 0 -0.000263267)
(0.1401 9.27862e-25 -0.000263329)
(0.139982 -9.29781e-25 -0.00026339)
(0.139866 -9.30947e-25 -0.000263446)
(0.13975 0 -0.000263505)
(0.139635 0 -0.000263558)
(0.139522 -5.31576e-30 -0.000263608)
(0.139409 5.30692e-30 -0.000263655)
(0.139297 0 -0.000263689)
(0.139186 0 -0.000263708)
(0.139076 -9.16851e-25 -0.000263716)
(0.138967 0 -0.000263717)
(0.13886 0 -0.000263721)
(0.138753 5.23404e-30 -0.000263737)
(0.138648 0 -0.000263759)
(0.138544 5.21043e-30 -0.000263785)
(0.138441 -8.71773e-25 -0.000263816)
(0.138339 -8.61557e-25 -0.000263854)
(0.138238 -8.50828e-25 -0.000263896)
(0.138139 8.39583e-25 -0.00026394)
(0.138041 0 -0.000263978)
(0.137944 0 -0.000264015)
(0.137849 0 -0.000264061)
(0.137755 0 -0.000264118)
(0.137662 0 -0.000264182)
(0.137571 -4.93352e-30 -0.000264244)
(0.137481 0 -0.000264308)
(0.137392 -7.43707e-25 -0.000264387)
(0.137304 0 -0.000264477)
(0.137217 0 -0.000264571)
(0.137132 0 -0.000264674)
(0.137047 7.03675e-25 -0.000264789)
(0.136964 -6.94871e-25 -0.000264913)
(0.136881 6.86464e-25 -0.000265042)
(0.1368 -6.78439e-25 -0.000265177)
(0.136719 0 -0.000265312)
(0.136639 -4.53658e-30 -0.000265447)
(0.13656 6.56226e-25 -0.000265586)
(0.136481 -6.50494e-25 -0.000265741)
(0.136404 0 -0.000265904)
(0.136327 -4.39817e-30 -0.000266058)
(0.13625 0 -0.000266208)
(0.136175 6.32788e-25 -0.000266365)
(0.1361 0 -0.000266533)
(0.136026 0 -0.000266702)
(0.135952 -6.22129e-25 -0.000266872)
(0.135879 0 -0.000267044)
(0.135806 0 -0.000267213)
(0.135734 0 -0.000267363)
(0.135662 6.06896e-25 -0.000267492)
(0.135591 4.1211e-30 -0.000267611)
(0.135521 -5.98741e-25 -0.000267733)
(0.135451 0 -0.000267853)
(0.135382 0 -0.000267963)
(0.135314 -4.02701e-30 -0.000268064)
(0.135247 0 -0.000268149)
(0.13518 3.95181e-30 -0.000268203)
(0.135115 -5.61206e-25 -0.000268263)
(0.13505 5.53527e-25 -0.000268358)
(0.134986 -5.45015e-25 -0.00026844)
(0.134923 0 -0.000268504)
(0.134861 -3.78519e-30 -0.000268572)
(0.1348 0 -0.000268642)
(0.13474 0 -0.000268709)
(0.134681 0 -0.00026877)
(0.134622 -3.48618e-30 -0.000268832)
(0.134564 0 -0.00026889)
(0.134506 -5.22364e-25 -0.000268933)
(0.13445 3.30736e-30 -0.000268996)
(0.134394 -5.16789e-25 -0.000269087)
(0.134339 0 -0.000269189)
(0.134286 0 -0.000269311)
(0.134233 0 -0.000269436)
(0.134182 -4.99685e-25 -0.000269559)
(0.134131 3.0257e-30 -0.00026966)
(0.134082 -2.95362e-30 -0.00026968)
(0.134034 0 -0.000269656)
(0.133987 0 -0.000269669)
(0.133941 0 -0.000269736)
(0.133896 4.5501e-25 -0.000269802)
(0.133853 4.45547e-25 -0.000269839)
(0.13381 -4.35951e-25 -0.000269888)
(0.133769 0 -0.000269953)
(0.133729 2.78245e-30 -0.000270016)
(0.133689 -4.04877e-25 -0.000270062)
(0.133651 3.93023e-25 -0.000270088)
(0.133614 2.69249e-30 -0.000270125)
(0.133578 3.69319e-25 -0.000270187)
(0.133543 0 -0.000270244)
(0.133509 0 -0.000270285)
(0.133477 0 -0.000270331)
(0.133445 2.46446e-30 -0.000270387)
(0.133414 0 -0.000270431)
(0.133385 2.9032e-25 -0.000270461)
(0.133356 -2.23967e-30 -0.000270484)
(0.133329 2.15621e-30 -0.000270494)
(0.133303 2.49569e-25 -0.000270497)
(0.133278 1.98273e-30 -0.00027049)
(0.133254 2.24323e-25 -0.000270446)
(0.133232 0 -0.000270369)
(0.13321 2.00513e-25 -0.000270306)
(0.13319 0 -0.000270243)
(0.133171 0 -0.000270143)
(0.133153 -1.50479e-30 -0.00027001)
(0.133137 0 -0.000269871)
(0.133121 0 -0.0002697)
(0.133106 -1.37148e-25 -0.000269483)
(0.133093 0 -0.000269264)
(0.13308 -1.20485e-25 -0.000269059)
(0.133068 0 -0.000268876)
(0.133057 0 -0.000268667)
(0.133047 0 -0.000268426)
(0.133037 0 -0.000268127)
(0.133028 0 -0.000267709)
(0.133019 0 -0.000267384)
(0.133011 7.52519e-26 -0.0002672)
(0.133003 0 -0.000267027)
(0.132995 0 -0.000266953)
(0.132987 0 -0.000266891)
(0.132979 0 -0.000266767)
(0.132971 0 -0.000266631)
(0.132963 0 -0.000266491)
(0.132954 0 -0.000266335)
(0.132945 6.55906e-26 -0.00026618)
(0.132936 0 -0.000266008)
(0.132926 0 -0.000265843)
(0.132916 0 -0.000265671)
(0.132905 0 -0.000265518)
(0.132893 -9.10466e-26 -0.000265363)
(0.13288 0 -0.000265214)
(0.132867 9.93475e-31 -0.000265058)
(0.132852 0 -0.000264928)
(0.132837 0 -0.000264794)
(0.13282 0 -0.00026467)
(0.132803 -1.1166e-30 -0.000264546)
(0.132785 0 -0.000264436)
(0.132766 1.62755e-25 -0.000264341)
(0.132745 0 -0.000264254)
(0.132724 1.80017e-25 -0.000264164)
(0.132701 0 -0.000264088)
(0.132678 1.95983e-25 -0.000264012)
(0.132653 0 -0.000263942)
(0.132627 2.10581e-25 -0.000263871)
(0.132601 0 -0.000263815)
(0.132573 0 -0.000263753)
(0.132544 -2.30942e-25 -0.000263704)
(0.132515 0 -0.000263649)
(0.132484 -2.43601e-25 -0.000263607)
(0.132453 0 -0.000263554)
(0.132421 2.5702e-25 -0.000263503)
(0.132388 0 -0.000263457)
(0.132354 1.40942e-30 -0.000263402)
(0.13232 0 -0.000263353)
(0.132285 1.39152e-30 -0.000263286)
(0.132249 0 -0.000263222)
(0.132212 -3.09441e-25 -0.00026316)
(0.132175 0 -0.000263087)
(0.132137 3.28338e-25 -0.000263014)
(0.132098 0 -0.000262942)
(0.132059 -1.46166e-30 -0.000262866)
(0.132019 0 -0.000262798)
(0.131979 -3.64474e-25 -0.000262732)
(0.131938 0 -0.000262683)
(0.131897 -1.61929e-30 -0.000262644)
(0.131855 -3.87781e-25 -0.000262616)
(0.131812 1.7112e-30 -0.000262595)
(0.131769 4.00998e-25 -0.000262584)
(0.131726 0 -0.000262582)
(0.131682 0 -0.000262585)
(0.131637 4.16642e-25 -0.000262584)
(0.131592 4.20702e-25 -0.000262586)
(0.131547 4.23948e-25 -0.00026258)
(0.131501 4.264e-25 -0.000262567)
(0.131455 2.01321e-30 -0.000262535)
(0.131408 -2.03788e-30 -0.000262504)
(0.131361 0 -0.000262458)
(0.131313 4.27017e-25 -0.000262426)
(0.131266 0 -0.000262388)
(0.131218 0 -0.000262366)
(0.131169 0 -0.000262337)
(0.131121 0 -0.000262323)
(0.131072 0 -0.000262315)
(0.131024 0 -0.000262334)
(0.130975 4.0862e-25 -0.000262356)
(0.130926 0 -0.000262385)
(0.130877 2.02829e-30 -0.000262415)
(0.130828 0 -0.000262457)
(0.130779 0 -0.000262491)
(0.130729 0 -0.000262522)
(0.13068 -3.93646e-25 -0.000262537)
(0.130631 0 -0.000262542)
(0.130582 3.92483e-25 -0.000262524)
(0.130533 0 -0.000262476)
(0.130485 -1.6059e-30 -0.00026238)
(0.130436 0 -0.000262284)
(0.130388 -3.99032e-25 -0.000262204)
(0.130339 0 -0.000262102)
(0.130291 -4.07926e-25 -0.00026198)
(0.130243 -4.13815e-25 -0.00026186)
(0.130195 -4.20164e-25 -0.000261721)
(0.130147 4.26194e-25 -0.000261539)
(0.130099 0 -0.000261285)
(0.130052 0 -0.000260949)
(0.130004 0 -0.000260591)
(0.129957 -4.40991e-25 -0.0002603)
(0.12991 0 -0.000260222)
(0.129863 -4.55432e-25 -0.000260282)
(0.129817 -1.65503e-30 -0.000260304)
(0.12977 0 -0.000260288)
(0.129724 0 -0.000260247)
(0.129678 0 -0.000260207)
(0.129632 -4.63748e-25 -0.000260167)
(0.129587 0 -0.000260108)
(0.129543 0 -0.000260057)
(0.129498 0 -0.000260039)
(0.129454 4.57305e-25 -0.000260003)
(0.129411 4.52883e-25 -0.000259938)
(0.129368 0 -0.000259938)
(0.129326 4.44571e-25 -0.000259968)
(0.129284 4.38173e-25 -0.000259955)
(0.129243 4.30738e-25 -0.000259924)
(0.129202 4.22876e-25 -0.000259899)
(0.129162 0 -0.000259881)
(0.129123 4.05031e-25 -0.000259847)
(0.129085 0 -0.000259795)
(0.129047 0 -0.000259744)
(0.12901 3.74267e-25 -0.000259689)
(0.128974 0 -0.000259623)
(0.128938 0 -0.000259548)
(0.128903 0 -0.000259464)
(0.128869 0 -0.000259368)
(0.128835 3.2696e-25 -0.000259248)
(0.128801 0 -0.000259079)
(0.128768 -3.09374e-25 -0.000258828)
(0.128736 0 -0.000258515)
(0.128704 -1.49881e-30 -0.000258195)
(0.128673 0 -0.000257871)
(0.128642 2.75996e-25 -0.000257549)
(0.128611 0 -0.000257229)
(0.128581 0 -0.000256933)
(0.128552 1.37642e-30 -0.000256705)
(0.128522 -2.48503e-25 -0.000256444)
(0.128494 2.42537e-25 -0.000256189)
(0.128465 -1.33621e-30 -0.000256088)
(0.128437 0 -0.00025599)
(0.128409 -2.31438e-25 -0.000255834)
(0.128382 0 -0.000255758)
(0.128355 0 -0.000255748)
(0.128328 2.26539e-25 -0.000255719)
(0.128301 0 -0.000255665)
(0.128273 0 -0.000255613)
(0.128246 0 -0.000255569)
(0.128219 0 -0.000255515)
(0.128191 1.1178e-30 -0.000255441)
(0.128164 1.09143e-30 -0.000255347)
(0.128136 0 -0.000255252)
(0.128107 0 -0.000255199)
(0.128078 -2.41425e-25 -0.00025515)
(0.128049 -2.46004e-25 -0.000255062)
(0.128019 2.50326e-25 -0.00025495)
(0.127988 0 -0.000254817)
(0.127958 2.58767e-25 -0.000254675)
(0.127926 0 -0.000254529)
(0.127894 2.68515e-25 -0.000254381)
(0.127862 -2.7337e-25 -0.000254231)
(0.12783 0 -0.000254087)
(0.127797 2.82324e-25 -0.00025394)
(0.127764 0 -0.000253801)
(0.127731 0 -0.000253674)
(0.127697 0 -0.000253547)
(0.127663 -1.28331e-30 -0.000253433)
(0.127628 -3.00608e-25 -0.000253318)
(0.127593 0 -0.000253211)
(0.127558 -3.06829e-25 -0.000253102)
(0.127522 0 -0.000252985)
(0.127486 0 -0.000252881)
(0.12745 -3.18183e-25 -0.000252785)
(0.127412 0 -0.000252693)
(0.127375 1.37119e-30 -0.000252609)
(0.127336 -1.38452e-30 -0.000252529)
(0.127296 -3.43283e-25 -0.000252468)
(0.127256 0 -0.000252415)
(0.127215 -3.61005e-25 -0.000252366)
(0.127172 -3.70425e-25 -0.000252317)
(0.127129 0 -0.000252267)
(0.127084 0 -0.000252213)
(0.127039 4.00804e-25 -0.000252152)
(0.126992 0 -0.000252079)
(0.126944 0 -0.000252006)
(0.126895 0 -0.000251916)
(0.126845 0 -0.000251832)
(0.126794 -4.54981e-25 -0.000251735)
(0.126742 -1.71173e-30 -0.000251648)
(0.126689 0 -0.000251565)
(0.126635 0 -0.000251497)
(0.12658 -1.85478e-30 -0.000251436)
(0.126524 0 -0.000251402)
(0.126467 0 -0.000251365)
(0.12641 0 -0.000251343)
(0.126352 0 -0.000251337)
(0.126294 0 -0.000251338)
(0.126235 5.31027e-25 -0.000251362)
(0.126175 0 -0.000251402)
(0.126115 5.41613e-25 -0.000251433)
(0.126055 -5.46251e-25 -0.000251456)
(0.125994 0 -0.000251465)
(0.125933 -5.55336e-25 -0.000251461)
(0.125871 2.04142e-30 -0.000251443)
(0.125809 5.6499e-25 -0.00025141)
(0.125746 0 -0.000251368)
(0.125683 0 -0.000251308)
(0.125619 -5.82293e-25 -0.000251233)
(0.125555 0 -0.000251143)
(0.125491 -5.94863e-25 -0.000251044)
(0.125427 0 -0.000250939)
(0.125362 0 -0.000250824)
(0.125297 0 -0.000250705)
(0.125232 0 -0.000250582)
(0.125167 -2.28442e-30 -0.000250471)
(0.125101 0 -0.000250381)
(0.125035 -6.29106e-25 -0.000250303)
(0.124969 6.29984e-25 -0.000250238)
(0.124903 0 -0.000250183)
(0.124836 -6.28904e-25 -0.000250124)
(0.12477 0 -0.000250052)
(0.124704 -2.53296e-30 -0.000249972)
(0.124638 2.51837e-30 -0.000249874)
(0.124572 2.50829e-30 -0.000249779)
(0.124507 -6.05341e-25 -0.000249664)
(0.124442 -5.99298e-25 -0.000249541)
(0.124378 5.94027e-25 -0.000249403)
(0.124315 0 -0.000249268)
(0.124252 0 -0.000249126)
(0.124189 -5.8248e-25 -0.000248986)
(0.124127 5.81118e-25 -0.000248847)
(0.124066 5.79384e-25 -0.000248723)
(0.124005 -2.14222e-30 -0.000248601)
(0.123945 5.75524e-25 -0.000248486)
(0.123885 5.73166e-25 -0.000248364)
(0.123827 -5.6878e-25 -0.000248246)
(0.123768 -5.65748e-25 -0.000248138)
(0.123711 -5.60531e-25 -0.000248039)
(0.123654 -5.56932e-25 -0.000247951)
(0.123598 -2.26017e-30 -0.000247856)
(0.123542 -2.2563e-30 -0.000247745)
(0.123487 -2.30146e-30 -0.000247616)
(0.123433 -5.27069e-25 -0.000247466)
(0.123379 -2.31285e-30 -0.000247304)
(0.123325 0 -0.000247144)
(0.123273 0 -0.000246998)
(0.123221 -4.73588e-25 -0.000246886)
(0.123169 4.55935e-25 -0.000246799)
(0.123118 -4.44411e-25 -0.000246732)
(0.123068 0 -0.000246677)
(0.123019 4.22112e-25 -0.000246618)
(0.12297 -4.11311e-25 -0.000246561)
(0.122921 0 -0.000246495)
(0.122873 -4.01962e-25 -0.000246414)
(0.122826 0 -0.000246316)
(0.122779 1.54589e-30 -0.000246184)
(0.122732 -4.04267e-25 -0.000246016)
(0.122685 0 -0.000245808)
(0.122639 0 -0.000245584)
(0.122593 4.0729e-25 -0.000245345)
(0.122547 -1.368e-30 -0.000245115)
(0.122502 1.5073e-30 -0.000244904)
(0.122456 -4.26779e-25 -0.000244731)
(0.12241 1.63357e-30 -0.000244594)
(0.122364 -4.33363e-25 -0.000244501)
(0.122318 4.29521e-25 -0.00024442)
(0.122272 0 -0.000244355)
(0.122226 4.29352e-25 -0.000244275)
(0.12218 0 -0.000244177)
(0.122134 4.34095e-25 -0.000244032)
(0.122088 0 -0.000243838)
(0.122042 -4.59916e-25 -0.000243573)
(0.121995 1.5206e-30 -0.000243188)
(0.121948 0 -0.000242702)
(0.1219 0 -0.00024191)
(0.12185 1.0604e-30 -0.000240783)
(0.121795 0 -0.000239117)
(0.121738 0 -0.000236719)
(0.121669 0 -0.00023315)
(0.121594 -1.28744e-30 -0.000228173)
(0.121494 2.75113e-24 -0.000220845)
(0.121378 0 -0.000210633)
(0.121212 -5.02236e-24 -0.000196525)
(0.121014 0 -0.000175336)
(0.120706 -1.74978e-29 -0.000187175)
(0.120371 0 -0.000134479)
(0.119543 -3.81678e-27 -0.00151312)
(0.118121 4.91271e-22 -0.00158505)
(0.1163 0 -0.000232601)
(0.113956 0 -0.000227912)
(0.110401 0 -0.000220803)
(0.105423 1.78809e-29 -0.000210846)
(0.0982045 0 -0.000196409)
(0.0876306 5.02055e-22 -0.000175261)
(0.0682964 -1.82972e-28 -0.000136593)
(0.0204627 0 -4.09255e-05)
(-0.0546083 0 0.000109216)
(-0.0707164 0 0.000141433)
)
;

boundaryField
{
    inlet
    {
        type            calculated;
        value           uniform (0 0 0);
    }
    endWall
    {
        type            calculated;
        value           uniform (0 0 0);
    }
    sideWall
    {
        type            empty;
    }
}


// ************************************************************************* //
