/*--------------------------------*- C++ -*----------------------------------*\
| =========                 |                                                 |
| \\      /  F ield         | foam-extend: Open Source CFD                    |
|  \\    /   O peration     | Version:     3.2                                |
|   \\  /    A nd           | Web:         http://www.foam-extend.org         |
|    \\/     M anipulation  | For copyright notice see file Copyright         |
\*---------------------------------------------------------------------------*/
FoamFile
{
    version     2.0;
    format      ascii;
    class       areaScalarField;
    location    "37";
    object      deltaHs;
}
// * * * * * * * * * * * * * * * * * * * * * * * * * * * * * * * * * * * * * //

dimensions      [0 1 -1 0 0 0 0];

internalField   nonuniform List<scalar> 
300
(
-0.000738682
-0.000520019
-0.000293344
-0.000213995
-0.000186179
-0.000172076
-0.000162079
-0.000153481
-0.000145692
-0.000138732
-0.000132606
-0.0001272
-0.000122367
-0.000118103
-0.000114303
-0.000110881
-0.000107778
-0.000104937
-0.000102354
-0.000100015
-9.78575e-05
-9.58427e-05
-9.39618e-05
-9.22054e-05
-9.0567e-05
-8.90235e-05
-8.75723e-05
-8.61981e-05
-8.49026e-05
-8.36794e-05
-8.25168e-05
-8.14128e-05
-8.03583e-05
-7.93549e-05
-7.83972e-05
-7.74846e-05
-7.66078e-05
-7.57687e-05
-7.4962e-05
-7.41869e-05
-7.34448e-05
-7.27278e-05
-7.20396e-05
-7.13728e-05
-7.07309e-05
-7.01102e-05
-6.95119e-05
-6.8933e-05
-6.83713e-05
-6.78284e-05
-6.73005e-05
-6.67896e-05
-6.62942e-05
-6.58129e-05
-6.53457e-05
-6.48905e-05
-6.44486e-05
-6.40162e-05
-6.35933e-05
-6.31814e-05
-6.27798e-05
-6.23889e-05
-6.20078e-05
-6.16361e-05
-6.12737e-05
-6.09203e-05
-6.05751e-05
-6.02379e-05
-5.99082e-05
-5.95859e-05
-5.9271e-05
-5.89631e-05
-5.8662e-05
-5.8367e-05
-5.80781e-05
-5.77957e-05
-5.75186e-05
-5.72474e-05
-5.69817e-05
-5.67211e-05
-5.64658e-05
-5.62152e-05
-5.59694e-05
-5.57284e-05
-5.54916e-05
-5.52596e-05
-5.50317e-05
-5.48076e-05
-5.4588e-05
-5.43718e-05
-5.41597e-05
-5.39512e-05
-5.37462e-05
-5.35449e-05
-5.33468e-05
-5.31519e-05
-5.29605e-05
-5.27719e-05
-5.25866e-05
-5.24043e-05
-5.22247e-05
-5.20482e-05
-5.18742e-05
-5.17029e-05
-5.15345e-05
-5.13684e-05
-5.12049e-05
-5.1044e-05
-5.08852e-05
-5.0729e-05
-5.05749e-05
-5.04231e-05
-5.02735e-05
-5.01261e-05
-4.99807e-05
-4.98375e-05
-4.96962e-05
-4.95569e-05
-4.94195e-05
-4.9284e-05
-4.91503e-05
-4.90185e-05
-4.88883e-05
-4.87599e-05
-4.86332e-05
-4.8508e-05
-4.83844e-05
-4.82622e-05
-4.81414e-05
-4.80221e-05
-4.7904e-05
-4.77873e-05
-4.76721e-05
-4.75583e-05
-4.74459e-05
-4.73352e-05
-4.7226e-05
-4.71183e-05
-4.70123e-05
-4.69077e-05
-4.68045e-05
-4.67028e-05
-4.66024e-05
-4.65031e-05
-4.64051e-05
-4.6308e-05
-4.6212e-05
-4.61169e-05
-4.60227e-05
-4.59294e-05
-4.5837e-05
-4.57455e-05
-4.56549e-05
-4.55652e-05
-4.54765e-05
-4.53888e-05
-4.5302e-05
-4.52163e-05
-4.51315e-05
-4.50477e-05
-4.49648e-05
-4.48829e-05
-4.48019e-05
-4.47218e-05
-4.46426e-05
-4.45642e-05
-4.44866e-05
-4.44099e-05
-4.43339e-05
-4.42587e-05
-4.41843e-05
-4.41106e-05
-4.40376e-05
-4.39654e-05
-4.38939e-05
-4.38232e-05
-4.37531e-05
-4.36837e-05
-4.3615e-05
-4.3547e-05
-4.34797e-05
-4.34131e-05
-4.3347e-05
-4.32817e-05
-4.3217e-05
-4.31529e-05
-4.30894e-05
-4.30266e-05
-4.29643e-05
-4.29026e-05
-4.28415e-05
-4.2781e-05
-4.27211e-05
-4.26618e-05
-4.26029e-05
-4.25447e-05
-4.2487e-05
-4.24298e-05
-4.23731e-05
-4.2317e-05
-4.22613e-05
-4.22062e-05
-4.21516e-05
-4.20975e-05
-4.20438e-05
-4.19907e-05
-4.1938e-05
-4.18859e-05
-4.18341e-05
-4.17829e-05
-4.1732e-05
-4.16817e-05
-4.16318e-05
-4.15824e-05
-4.15333e-05
-4.14847e-05
-4.14365e-05
-4.13888e-05
-4.13414e-05
-4.12946e-05
-4.1248e-05
-4.12019e-05
-4.11561e-05
-4.11109e-05
-4.10659e-05
-4.10214e-05
-4.09772e-05
-4.09335e-05
-4.08899e-05
-4.0847e-05
-4.08042e-05
-4.0762e-05
-4.07199e-05
-4.06784e-05
-4.0637e-05
-4.05963e-05
-4.05556e-05
-4.05155e-05
-4.04754e-05
-4.0436e-05
-4.03966e-05
-4.03579e-05
-4.03191e-05
-4.0281e-05
-4.02429e-05
-4.02054e-05
-4.01679e-05
-4.01311e-05
-4.00941e-05
-4.00579e-05
-4.00216e-05
-3.99859e-05
-3.99502e-05
-3.99151e-05
-3.988e-05
-3.98454e-05
-3.98109e-05
-3.97769e-05
-3.97429e-05
-3.97094e-05
-3.9676e-05
-3.9643e-05
-3.96102e-05
-3.95776e-05
-3.95455e-05
-3.95133e-05
-3.94818e-05
-3.945e-05
-3.94191e-05
-3.93876e-05
-3.93575e-05
-3.93262e-05
-3.92968e-05
-3.92657e-05
-3.92371e-05
-3.92061e-05
-3.91783e-05
-3.91474e-05
-3.91205e-05
-3.90895e-05
-3.90635e-05
-3.90324e-05
-3.90074e-05
-3.89761e-05
-3.89519e-05
-3.89205e-05
-3.88971e-05
-3.88655e-05
-3.88427e-05
-3.8811e-05
-3.87885e-05
-3.87568e-05
-3.87345e-05
-3.87019e-05
-3.86834e-05
-3.86453e-05
-3.86418e-05
-3.85874e-05
-3.86072e-05
-3.85012e-05
)
;

boundaryField
{
    inlet
    {
        type            calculated;
        value           uniform 0;
    }
    outlet
    {
        type            calculated;
        value           uniform 0;
    }
    sideWall
    {
        type            empty;
    }
}


// ************************************************************************* //
