/*--------------------------------*- C++ -*----------------------------------*\
| =========                 |                                                 |
| \\      /  F ield         | foam-extend: Open Source CFD                    |
|  \\    /   O peration     | Version:     3.2                                |
|   \\  /    A nd           | Web:         http://www.foam-extend.org         |
|    \\/     M anipulation  | For copyright notice see file Copyright         |
\*---------------------------------------------------------------------------*/
FoamFile
{
    version     2.0;
    format      ascii;
    class       volScalarField;
    location    "37";
    object      p;
}
// * * * * * * * * * * * * * * * * * * * * * * * * * * * * * * * * * * * * * //

dimensions      [1 -1 -2 0 0 0 0];

internalField   nonuniform List<scalar> 
96000
(
370.958
233.109
219.489
218.207
216.9
215.058
212.944
210.832
208.527
206.519
204.753
203.004
201.463
199.971
198.585
197.271
195.96
194.731
193.517
192.367
191.205
190.074
188.947
187.856
186.768
185.696
184.633
183.576
182.545
181.506
180.491
179.468
178.465
177.461
176.472
175.483
174.501
173.529
172.552
171.597
170.632
169.684
168.733
167.79
166.853
165.918
164.993
164.064
163.147
162.228
161.318
160.411
159.506
158.608
157.71
156.819
155.93
155.045
154.164
153.285
152.412
151.542
150.674
149.811
148.951
148.093
147.239
146.388
145.539
144.694
143.852
143.013
142.176
141.341
140.511
139.681
138.855
138.032
137.21
136.393
135.576
134.762
133.951
133.141
132.335
131.531
130.728
129.928
129.13
128.334
127.541
126.748
125.959
125.171
124.386
123.603
122.82
122.041
121.263
120.486
119.713
118.94
118.169
117.401
116.634
115.868
115.105
114.342
113.583
112.824
112.067
111.312
110.558
109.806
109.055
108.306
107.559
106.813
106.068
105.325
104.583
103.843
103.103
102.366
101.629
100.894
100.16
99.4271
98.6952
97.9641
97.2337
96.5045
95.7762
95.049
94.3233
93.5991
92.8767
92.1563
91.4378
90.7214
90.0071
89.2945
88.5838
87.8746
87.1664
86.4593
85.7531
85.0474
84.3422
83.6374
82.9329
82.229
81.5256
80.8227
80.1208
79.4198
78.7197
78.0209
77.3233
76.6269
75.9318
75.238
74.5453
73.8538
73.1635
72.4742
71.7859
71.0985
70.412
69.7264
69.0416
68.3576
67.6744
66.9922
66.3107
65.6301
64.9502
64.2713
63.5931
62.9159
62.2394
61.5639
60.8891
60.2153
59.5421
58.8699
58.1984
57.5278
56.8579
56.1889
55.5205
54.8531
54.1862
53.5203
52.855
52.1906
51.5267
50.8638
50.2014
49.54
48.879
48.219
47.5595
46.9009
46.2428
45.5856
44.9289
44.2732
43.6178
42.9634
42.3094
41.6564
41.0037
40.3521
39.7007
39.0504
38.4004
37.7514
37.1027
36.455
35.8075
35.1612
34.515
33.87
33.225
32.5812
31.9375
31.295
30.6524
30.0112
29.3698
28.7298
28.0896
27.4509
26.8118
26.1743
25.5364
24.9001
24.2632
23.6282
22.9924
22.3585
21.7238
21.0912
20.4575
19.826
19.1933
18.5631
17.9314
17.3024
16.6716
16.0438
15.414
14.7874
14.1584
13.5331
12.905
12.2809
11.6537
11.0308
10.4045
9.78276
9.15734
8.53681
7.91222
7.29289
6.66916
6.051
5.42816
4.81113
4.18926
3.57329
2.95245
2.3375
1.71778
1.10377
0.485329
-0.127861
-0.744789
-1.35729
-1.97243
-2.58442
-3.19744
-3.80908
-4.41957
-5.03099
-5.63849
-6.24971
-6.85376
-7.46451
-8.06488
-8.67415
-9.27137
-9.87858
-10.471
-11.1158
-11.6304
-12.4727
-12.6625
-14.0045
340.485
206.821
192.746
191.055
189.615
187.734
185.577
183.443
181.119
179.097
177.321
175.566
174.021
172.524
171.135
169.817
168.504
167.273
166.059
164.909
163.745
162.613
161.485
160.392
159.304
158.23
157.167
156.108
155.077
154.038
153.022
151.998
150.995
149.99
149.001
148.011
147.029
146.056
145.08
144.124
143.159
142.211
141.259
140.316
139.379
138.444
137.518
136.589
135.673
134.753
133.842
132.936
132.031
131.133
130.235
129.343
128.454
127.569
126.688
125.809
124.935
124.065
123.197
122.334
121.474
120.616
119.762
118.911
118.062
117.217
116.375
115.535
114.698
113.864
113.033
112.204
111.378
110.554
109.733
108.915
108.098
107.284
106.473
105.663
104.857
104.053
103.249
102.45
101.652
100.856
100.062
99.2702
98.481
97.6931
96.9071
96.1242
95.3418
94.5623
93.7844
93.0079
92.234
91.4614
90.6907
89.9222
89.1549
88.3895
87.6262
86.8638
86.1038
85.3452
84.588
83.833
83.0792
82.3269
81.5765
80.8273
80.0797
79.3338
78.589
77.8459
77.1042
76.3636
75.6244
74.8869
74.1501
73.4152
72.6811
71.948
71.2161
70.485
69.7546
69.0254
68.297
67.5698
66.8442
66.12
65.3975
64.6771
63.9586
63.2422
62.5279
61.8153
61.1045
60.3953
59.6871
58.98
58.2737
57.568
56.8628
56.1581
55.4536
54.7496
54.0462
53.3434
52.6414
51.9404
51.2403
50.5415
49.8439
49.1475
48.4523
47.7585
47.0658
46.3744
45.684
44.9947
44.3064
43.619
42.9324
42.2468
41.5621
40.8781
40.1949
39.5127
38.8311
38.1505
37.4707
36.7917
36.1135
35.4363
34.7598
34.0843
33.4095
32.7356
32.0625
31.3903
30.7188
30.0481
29.3782
28.7092
28.0408
27.3734
26.7066
26.0406
25.3753
24.7109
24.047
23.3841
22.7217
22.0603
21.3993
20.7393
20.0798
19.4212
18.7631
18.1059
17.4491
16.7934
16.138
15.4837
14.8296
14.1767
13.5239
12.8723
12.2209
11.5706
10.9206
10.2717
9.62287
8.97525
8.32775
7.68141
7.03516
6.39016
5.74515
5.10142
4.45763
3.81518
3.17258
2.53137
1.88997
1.25
0.609771
-0.0289536
-0.668034
-1.30553
-1.94348
-2.57977
-3.21664
-3.8517
-4.48748
-5.12134
-5.75608
-6.3887
-7.02242
-7.65384
-8.28656
-8.91678
-9.54853
-10.1775
-10.8083
-11.4361
-12.0659
-12.6925
-13.3215
-13.9468
-14.5749
-15.199
-15.8262
-16.4491
-17.0754
-17.6972
-18.3226
-18.9431
-19.5677
-20.187
-20.8108
-21.4289
-22.0518
-22.6688
-23.2907
-23.9067
-24.5275
-25.1425
-25.7622
-26.3762
-26.9946
-27.6078
-28.2248
-28.8373
-29.4524
-30.0644
-30.6774
-31.2891
-31.8995
-32.511
-33.1185
-33.7297
-34.3337
-34.9445
-35.5449
-36.1541
-36.7513
-37.3586
-37.951
-38.5958
-39.1105
-39.9525
-40.1426
-41.4588
307.307
180.833
166.432
164.354
162.604
160.568
158.33
156.138
153.782
151.74
149.95
148.181
146.623
145.117
143.72
142.395
141.077
139.841
138.622
137.468
136.301
135.166
134.036
132.942
131.851
130.776
129.711
128.651
127.619
126.578
125.562
124.537
123.532
122.527
121.537
120.547
119.564
118.59
117.613
116.657
115.691
114.743
113.791
112.847
111.91
110.974
110.048
109.119
108.202
107.282
106.371
105.464
104.559
103.661
102.762
101.871
100.982
100.096
99.215
98.3357
97.462
96.5914
95.7236
94.8602
93.9997
93.1421
92.2875
91.4361
90.5876
89.7425
88.8998
88.0603
87.2232
86.3885
85.5579
84.7283
83.9021
83.0788
82.2569
81.439
80.622
79.8083
78.997
78.1874
77.3809
76.5763
75.7731
74.9739
74.1751
73.3795
72.5857
71.7935
71.0043
70.2163
69.4303
68.6473
67.8649
67.0853
66.3074
65.5308
64.7569
63.9842
63.2135
62.4449
61.6776
60.9121
60.1489
59.3863
58.6263
57.8677
57.1105
56.3554
55.6016
54.8493
54.0988
53.3495
52.6019
51.856
51.1112
50.368
49.6263
48.8857
48.1464
47.4089
46.6721
45.9371
45.203
44.4699
43.738
43.0068
42.2764
41.5472
40.8188
40.0916
39.366
38.6417
37.9192
37.1988
36.4803
35.7638
35.0495
34.3369
33.626
32.9168
32.2085
31.5014
30.7952
30.0894
29.3842
28.6794
27.9749
27.271
26.5676
25.8647
25.1627
24.4617
23.7616
23.0628
22.3652
21.6687
20.9736
20.2797
19.587
18.8956
18.2052
17.5158
16.8275
16.1402
15.4536
14.7679
14.0831
13.3992
12.716
12.0337
11.3522
10.6715
9.99168
9.3127
8.63451
7.95728
7.28077
6.6052
5.93046
5.25657
4.58339
3.91119
3.23966
2.56901
1.8991
1.23006
0.561697
-0.105763
-0.772587
-1.43858
-2.10388
-2.76831
-3.4322
-4.09514
-4.75751
-5.41898
-6.07994
-6.73995
-7.3995
-8.05809
-8.71622
-9.37339
-10.0302
-10.6859
-11.3413
-11.9956
-12.6497
-13.3027
-13.9554
-14.607
-15.2584
-15.9087
-16.5588
-17.2077
-17.8565
-18.5042
-19.1517
-19.798
-20.4443
-21.0893
-21.7343
-22.378
-23.0218
-23.6643
-24.3069
-24.9481
-25.5895
-26.2295
-26.8697
-27.5084
-28.1475
-28.785
-29.423
-30.0593
-30.6962
-31.3312
-31.967
-32.6009
-33.2356
-33.8683
-34.502
-35.1334
-35.7661
-36.3964
-37.0281
-37.6571
-38.2879
-38.9157
-39.5455
-40.1721
-40.8011
-41.4264
-42.0545
-42.6787
-43.3058
-43.9288
-44.5551
-45.1768
-45.8022
-46.4228
-47.0474
-47.6667
-48.2904
-48.9086
-49.5315
-50.1485
-50.7704
-51.3864
-52.0072
-52.6222
-53.2419
-53.8559
-54.4743
-55.0876
-55.7045
-56.317
-56.9321
-57.5441
-58.1571
-58.7688
-59.3793
-59.9907
-60.5982
-61.2094
-61.8135
-62.4242
-63.0246
-63.6339
-64.2311
-64.8383
-65.4307
-66.0755
-66.5903
-67.4325
-67.6223
-68.9484
274.374
155.183
140.27
137.417
135.452
133.342
131.059
128.831
126.453
124.39
122.578
120.795
119.229
117.714
116.31
114.979
113.655
112.414
111.191
110.033
108.863
107.725
106.592
105.496
104.403
103.326
102.259
101.198
100.164
99.122
98.1042
97.0781
96.0727
95.0661
94.0754
93.0845
92.1007
91.1267
90.1489
89.1922
88.226
87.2767
86.3242
85.3804
84.4423
83.5064
82.5799
81.6499
80.7328
79.8128
78.9015
77.9945
77.0889
76.1901
75.2915
74.3999
73.5103
72.6246
71.7432
70.8636
69.9898
69.1189
68.2509
67.3873
66.5267
65.6689
64.8141
63.9625
63.1139
62.2686
61.4259
60.5862
59.7489
58.9141
58.0834
57.2537
56.4274
55.604
54.782
53.9639
53.1469
52.3331
51.5217
50.7119
49.9054
49.1007
48.2975
47.4981
46.6992
45.9036
45.1097
44.3175
43.5282
42.7401
41.9541
41.171
40.3885
39.6088
38.8309
38.0542
37.2803
36.5075
35.7368
34.9681
34.2007
33.4353
32.6719
31.9093
31.1493
30.3906
29.6334
28.8782
28.1244
27.372
26.6215
25.8722
25.1245
24.3786
23.6337
22.8906
22.1488
21.4081
20.6688
19.9312
19.1944
18.4594
17.7252
16.9921
16.2602
15.529
14.7986
14.0693
13.341
12.6137
11.888
11.1638
10.4413
9.7208
9.00221
8.28572
7.57135
6.85869
6.14781
5.43852
4.73027
4.02313
3.31685
2.61108
1.90583
1.20108
0.496566
-0.207381
-0.91083
-1.6137
-2.3157
-3.01672
-3.71684
-4.41568
-5.11333
-5.80979
-6.50496
-7.19881
-7.89155
-8.58303
-9.27342
-9.96278
-10.6511
-11.3385
-12.0251
-12.7108
-13.3956
-14.0796
-14.7628
-15.445
-16.1266
-16.8073
-17.4871
-18.1661
-18.8443
-19.5216
-20.1981
-20.8737
-21.5484
-22.2223
-22.8955
-23.5677
-24.2393
-24.9099
-25.5799
-26.2489
-26.9173
-27.5848
-28.2516
-28.9176
-29.5829
-30.2474
-30.9113
-31.5742
-32.2366
-32.8981
-33.559
-34.2191
-34.8786
-35.5372
-36.1954
-36.8525
-37.5093
-38.165
-38.8204
-39.4748
-40.1289
-40.7819
-41.4346
-42.0863
-42.7376
-43.388
-44.038
-44.687
-45.3358
-45.9834
-46.6309
-47.2773
-47.9236
-48.5686
-49.2136
-49.8573
-50.5011
-51.1436
-51.7862
-52.4274
-53.0689
-53.7088
-54.3491
-54.9878
-55.6269
-56.2644
-56.9024
-57.5387
-58.1756
-58.8107
-59.4464
-60.0803
-60.7151
-61.3477
-61.9814
-62.6129
-63.2456
-63.8758
-64.5076
-65.1366
-65.7674
-66.3952
-67.0251
-67.6516
-68.2806
-68.906
-69.534
-70.1582
-70.7854
-71.4083
-72.0346
-72.6564
-73.2818
-73.9024
-74.5269
-75.1463
-75.77
-76.3882
-77.011
-77.6281
-78.25
-78.866
-79.4868
-80.1018
-80.7215
-81.3355
-81.954
-82.5672
-83.1841
-83.7966
-84.4118
-85.0238
-85.6368
-86.2485
-86.8589
-87.4704
-88.0779
-88.6891
-89.2932
-89.9039
-90.5043
-91.1136
-91.7107
-92.318
-92.9103
-93.5551
-94.07
-94.9125
-95.102
-96.4289
242.064
128.415
114.326
110.495
108.222
106.024
103.731
101.507
99.1207
97.0434
95.2113
93.4177
91.8446
90.3201
88.9052
87.5668
86.2372
84.9926
83.7655
82.6038
81.4298
80.2888
79.1535
78.0541
76.959
75.8798
74.8113
73.7483
72.713
71.6694
70.6502
69.6229
68.6163
67.6087
66.617
65.6251
64.6405
63.6656
62.6871
61.7297
60.7628
59.813
58.8598
57.9154
56.9769
56.0405
55.1135
54.183
53.2655
52.3451
51.4334
50.526
49.6201
48.721
47.8221
46.9302
46.0403
45.1544
44.2726
43.3929
42.5188
41.6476
40.7794
39.9156
39.0548
38.1968
37.3418
36.4901
35.6413
34.7958
33.9529
33.113
32.2756
31.4407
30.6098
29.78
28.9536
28.13
27.3079
26.4897
25.6726
24.8587
24.0471
23.2373
22.4306
21.6259
20.8225
20.0231
19.2241
18.4284
17.6344
16.8421
16.0527
15.2646
14.4784
13.6953
12.9127
12.133
11.355
10.5782
9.80422
9.03141
8.26059
7.49188
6.72441
5.95887
5.19548
4.43285
3.67276
2.91401
2.15671
1.40154
0.647599
-0.104784
-0.855351
-1.60473
-2.35244
-3.09838
-3.8433
-4.58653
-5.32837
-6.06907
-6.80836
-7.54602
-8.28289
-9.0179
-9.75213
-10.4853
-11.2172
-11.9485
-12.6789
-13.4082
-14.1366
-14.8638
-15.5895
-16.3138
-17.0364
-17.7569
-18.4755
-19.192
-19.9065
-20.6192
-21.3301
-22.0394
-22.7477
-23.4549
-24.1612
-24.867
-25.5722
-26.277
-26.9815
-27.6855
-28.389
-29.0918
-29.7939
-30.4949
-31.195
-31.8939
-32.5916
-33.288
-33.9832
-34.6771
-35.3699
-36.0614
-36.7518
-37.4412
-38.1296
-38.8169
-39.5036
-40.1892
-40.8741
-41.5581
-42.2413
-42.9236
-43.6052
-44.2858
-44.9657
-45.6447
-46.3229
-47.0002
-47.6767
-48.3523
-49.0271
-49.701
-50.3742
-51.0465
-51.718
-52.3887
-53.0586
-53.7277
-54.3961
-55.0636
-55.7304
-56.3964
-57.0618
-57.7262
-58.3901
-59.0531
-59.7155
-60.377
-61.038
-61.698
-62.3576
-63.0162
-63.6743
-64.3315
-64.9883
-65.644
-66.2995
-66.9539
-67.6079
-68.2609
-68.9137
-69.5653
-70.2167
-70.8671
-71.5171
-72.1661
-72.8149
-73.4625
-74.1101
-74.7564
-75.4027
-76.0477
-76.6928
-77.3365
-77.9803
-78.6228
-79.2654
-79.9067
-80.5481
-81.1881
-81.8283
-82.4671
-83.1062
-83.7437
-84.3817
-85.018
-85.6549
-86.29
-86.9258
-87.5596
-88.1944
-88.827
-89.4608
-90.0922
-90.725
-91.3552
-91.987
-92.616
-93.2468
-93.8746
-94.5044
-95.131
-95.76
-96.3854
-97.0134
-97.6376
-98.2648
-98.8878
-99.5141
-100.136
-100.761
-101.382
-102.006
-102.626
-103.25
-103.868
-104.491
-105.108
-105.729
-106.345
-106.966
-107.581
-108.201
-108.815
-109.433
-110.047
-110.664
-111.276
-111.891
-112.503
-113.116
-113.728
-114.339
-114.95
-115.557
-116.169
-116.773
-117.384
-117.984
-118.593
-119.19
-119.798
-120.39
-121.035
-121.55
-122.392
-122.581
-123.911
210.297
101.824
87.7613
83.6083
80.9575
78.6783
76.3594
74.1221
71.7532
69.6774
67.8409
66.0428
64.4619
62.9287
61.5035
60.1581
58.8246
57.5763
56.3428
55.1749
53.998
52.8545
51.7169
50.6155
49.518
48.4367
47.3661
46.3014
45.2644
44.2193
43.1987
42.1699
41.1622
40.1535
39.1607
38.1677
37.1822
36.2065
35.2271
34.269
33.3013
32.3508
31.397
30.452
29.5129
28.576
27.6485
26.7175
25.7996
24.8787
23.9666
23.0588
22.1525
21.2531
20.3538
19.4615
18.5714
17.6852
16.8031
15.9231
15.0487
14.1773
13.3088
12.4448
11.5837
10.7255
9.87036
9.0184
8.1694
7.32379
6.48067
5.64064
4.80306
3.96796
3.13692
2.30695
1.48041
0.656659
-0.165599
-0.983876
-1.80117
-2.61517
-3.42685
-4.23682
-5.04355
-5.84847
-6.65194
-7.45145
-8.25055
-9.04635
-9.8404
-10.6329
-11.4223
-12.2105
-12.9967
-13.78
-14.5627
-15.3424
-16.1205
-16.8973
-17.6714
-18.4443
-19.2152
-19.984
-20.7515
-21.5171
-22.2806
-23.0433
-23.8034
-24.5622
-25.3196
-26.0748
-26.8288
-27.5812
-28.3319
-29.0813
-29.8291
-30.575
-31.32
-32.0633
-32.8052
-33.5459
-34.2853
-35.023
-35.7599
-36.4949
-37.2292
-37.9624
-38.6943
-39.4256
-40.1561
-40.8854
-41.6138
-42.3411
-43.0669
-43.7912
-44.5138
-45.2343
-45.953
-46.6696
-47.384
-48.0968
-48.8077
-49.5171
-50.2254
-50.9326
-51.639
-52.3448
-53.0501
-53.7548
-54.4594
-55.1634
-55.8669
-56.5698
-57.2718
-57.9729
-58.673
-59.3719
-60.0696
-60.7661
-61.4613
-62.1552
-62.848
-63.5396
-64.23
-64.9194
-65.6078
-66.2952
-66.9819
-67.6675
-68.3524
-69.0364
-69.7197
-70.402
-71.0835
-71.7642
-72.4441
-73.1232
-73.8014
-74.4787
-75.1552
-75.8308
-76.5056
-77.1796
-77.8528
-78.525
-79.1966
-79.8673
-80.5372
-81.2063
-81.8747
-82.5422
-83.2091
-83.8751
-84.5405
-85.2049
-85.8689
-86.5318
-87.1942
-87.8558
-88.5168
-89.1768
-89.8364
-90.495
-91.1532
-91.8104
-92.4672
-93.1229
-93.7783
-94.4328
-95.0868
-95.7398
-96.3926
-97.0443
-97.6957
-98.346
-98.9961
-99.6451
-100.294
-100.942
-101.589
-102.235
-102.882
-103.527
-104.172
-104.816
-105.459
-106.102
-106.745
-107.386
-108.027
-108.667
-109.307
-109.946
-110.585
-111.223
-111.861
-112.497
-113.134
-113.769
-114.405
-115.039
-115.674
-116.306
-116.94
-117.571
-118.204
-118.834
-119.466
-120.095
-120.726
-121.354
-121.984
-122.61
-123.239
-123.865
-124.493
-125.117
-125.744
-126.367
-126.993
-127.615
-128.241
-128.861
-129.486
-130.105
-130.729
-131.347
-131.97
-132.587
-133.209
-133.825
-134.446
-135.061
-135.68
-136.295
-136.913
-137.526
-138.143
-138.756
-139.371
-139.983
-140.596
-141.208
-141.818
-142.429
-143.037
-143.648
-144.252
-144.863
-145.463
-146.073
-146.67
-147.277
-147.869
-148.514
-149.029
-149.872
-150.06
-151.394
178.416
75.73
61.0027
56.5077
53.7465
51.3201
48.9671
46.7262
44.3554
42.2707
40.4486
38.6513
37.0666
35.5312
34.1001
32.751
31.4139
30.1616
28.9216
27.7481
26.5686
25.423
24.2829
23.1776
22.077
20.994
19.9218
18.8557
17.8174
16.7708
15.7487
14.7185
13.7096
12.6997
11.7059
10.7118
9.72538
8.74868
7.76853
6.8096
5.84115
4.88995
3.9354
2.98986
2.05015
1.11264
0.184571
-0.746941
-1.6653
-2.58669
-3.49916
-4.40739
-5.31411
-6.21394
-7.11361
-8.00621
-8.89669
-9.78322
-10.6655
-11.5459
-12.4205
-13.2922
-14.161
-15.0252
-15.8866
-16.745
-17.6004
-18.4526
-19.3018
-20.1476
-20.9909
-21.8311
-22.6689
-23.5042
-24.3354
-25.1655
-25.9922
-26.8161
-27.6385
-28.4569
-29.2744
-30.0885
-30.9003
-31.7104
-32.5173
-33.3223
-34.1259
-34.9255
-35.7247
-36.5206
-37.3148
-38.1073
-38.8969
-39.6852
-40.4715
-41.2548
-42.0376
-42.8175
-43.5957
-44.3725
-45.1467
-45.9197
-46.6906
-47.4595
-48.2271
-48.9928
-49.7563
-50.5191
-51.2793
-52.0381
-52.7956
-53.5508
-54.3049
-55.0574
-55.8081
-56.5576
-57.3054
-58.0514
-58.7965
-59.5398
-60.2817
-61.0225
-61.7619
-62.4996
-63.2366
-63.9717
-64.706
-65.4392
-66.1712
-66.9026
-67.6331
-68.3624
-69.0909
-69.8182
-70.544
-71.2683
-71.991
-72.7116
-73.4303
-74.1469
-74.8614
-75.5742
-76.2852
-76.9946
-77.703
-78.4102
-79.1166
-79.8224
-80.5277
-81.2325
-81.9371
-82.6411
-83.3446
-84.0475
-84.7496
-85.4507
-86.1508
-86.8498
-87.5475
-88.244
-88.9393
-89.6332
-90.326
-91.0176
-91.708
-92.3974
-93.0859
-93.7733
-94.46
-95.1457
-95.8305
-96.5146
-97.1979
-97.8802
-98.5618
-99.2425
-99.9224
-100.601
-101.28
-101.957
-102.634
-103.309
-103.984
-104.658
-105.331
-106.003
-106.675
-107.346
-108.016
-108.685
-109.353
-110.021
-110.688
-111.354
-112.019
-112.684
-113.347
-114.01
-114.673
-115.334
-115.995
-116.655
-117.315
-117.974
-118.632
-119.289
-119.946
-120.602
-121.257
-121.912
-122.566
-123.219
-123.871
-124.523
-125.175
-125.825
-126.475
-127.124
-127.773
-128.42
-129.068
-129.714
-130.361
-131.006
-131.651
-132.295
-132.938
-133.581
-134.224
-134.865
-135.506
-136.146
-136.787
-137.425
-138.064
-138.702
-139.34
-139.976
-140.613
-141.248
-141.884
-142.518
-143.153
-143.785
-144.419
-145.051
-145.683
-146.314
-146.945
-147.574
-148.205
-148.833
-149.463
-150.09
-150.719
-151.344
-151.972
-152.596
-153.223
-153.846
-154.473
-155.095
-155.72
-156.341
-156.965
-157.585
-158.208
-158.826
-159.449
-160.066
-160.688
-161.304
-161.925
-162.54
-163.16
-163.774
-164.392
-165.006
-165.623
-166.235
-166.85
-167.462
-168.075
-168.687
-169.297
-169.909
-170.516
-171.128
-171.732
-172.343
-172.943
-173.552
-174.149
-174.757
-175.349
-175.993
-176.509
-177.352
-177.54
-178.878
146.788
49.309
34.3478
29.3988
26.4307
23.9978
21.5727
19.3185
16.9462
14.8586
13.0348
11.2285
9.65613
8.12205
6.68661
5.33754
3.99746
2.74157
1.49939
0.323273
-0.859213
-2.00706
-3.14986
-4.25914
-5.3627
-6.44708
-7.52069
-8.58837
-9.62918
-10.678
-11.7013
-12.7325
-13.7424
-14.7532
-15.7479
-16.7431
-17.7305
-18.7081
-19.6891
-20.6488
-21.618
-22.5699
-23.5252
-24.4714
-25.4117
-26.3498
-27.2784
-28.2105
-29.1293
-30.0512
-30.9641
-31.8728
-32.78
-33.6802
-34.5803
-35.4732
-36.364
-37.2509
-38.1335
-39.0142
-39.8891
-40.7611
-41.6301
-42.4946
-43.3562
-44.2149
-45.0706
-45.923
-46.7724
-47.6184
-48.462
-49.3024
-50.1403
-50.9758
-51.8071
-52.6375
-53.4643
-54.2884
-55.111
-55.9295
-56.7471
-57.5614
-58.3734
-59.1836
-59.9905
-60.7957
-61.5995
-62.3992
-63.1985
-63.9945
-64.7888
-65.5815
-66.3711
-67.1595
-67.9459
-68.7293
-69.5122
-70.2922
-71.0704
-71.8474
-72.6217
-73.3947
-74.1658
-74.9347
-75.7024
-76.4681
-77.2317
-77.9946
-78.7548
-79.5138
-80.2713
-81.0266
-81.7807
-82.5333
-83.284
-84.0336
-84.7815
-85.5276
-86.2726
-87.016
-87.758
-88.4989
-89.2383
-89.9761
-90.7131
-91.4482
-92.1826
-92.9159
-93.6479
-94.3793
-95.1098
-95.8391
-96.5677
-97.2951
-98.0209
-98.7453
-99.468
-100.189
-100.907
-101.624
-102.339
-103.051
-103.762
-104.472
-105.18
-105.888
-106.594
-107.3
-108.005
-108.71
-109.415
-110.119
-110.822
-111.525
-112.227
-112.928
-113.629
-114.327
-115.025
-115.722
-116.417
-117.111
-117.804
-118.495
-119.186
-119.875
-120.564
-121.251
-121.938
-122.624
-123.309
-123.993
-124.676
-125.358
-126.04
-126.721
-127.401
-128.08
-128.758
-129.435
-130.112
-130.787
-131.462
-132.136
-132.81
-133.482
-134.153
-134.824
-135.494
-136.163
-136.832
-137.499
-138.166
-138.832
-139.498
-140.162
-140.826
-141.489
-142.151
-142.813
-143.474
-144.134
-144.794
-145.452
-146.111
-146.768
-147.425
-148.08
-148.736
-149.39
-150.044
-150.697
-151.35
-152.002
-152.653
-153.304
-153.954
-154.603
-155.252
-155.899
-156.547
-157.193
-157.84
-158.485
-159.13
-159.773
-160.417
-161.06
-161.702
-162.344
-162.985
-163.625
-164.266
-164.904
-165.543
-166.181
-166.819
-167.455
-168.092
-168.727
-169.363
-169.997
-170.632
-171.265
-171.898
-172.53
-173.163
-173.793
-174.425
-175.054
-175.684
-176.312
-176.942
-177.569
-178.198
-178.823
-179.451
-180.075
-180.703
-181.326
-181.952
-182.574
-183.199
-183.82
-184.444
-185.064
-185.688
-186.306
-186.929
-187.546
-188.168
-188.784
-189.404
-190.019
-190.639
-191.253
-191.872
-192.485
-193.102
-193.715
-194.33
-194.942
-195.555
-196.166
-196.777
-197.388
-197.996
-198.607
-199.211
-199.822
-200.422
-201.032
-201.629
-202.236
-202.828
-203.472
-203.988
-204.831
-205.019
-206.362
115.335
22.8009
7.59203
2.34507
-0.891818
-3.39829
-5.80848
-8.08837
-10.4845
-12.5522
-14.386
-16.1944
-17.7665
-19.3122
-20.7403
-22.0847
-23.4276
-24.6842
-25.927
-27.1063
-28.2906
-29.4398
-30.5847
-31.6956
-32.8006
-33.8867
-34.962
-36.0314
-37.0749
-38.1259
-39.1501
-40.1822
-41.193
-42.2055
-43.2021
-44.1981
-45.1862
-46.1646
-47.1463
-48.1065
-49.0766
-50.0292
-50.9852
-51.932
-52.8729
-53.8115
-54.7408
-55.6734
-56.5927
-57.5151
-58.4285
-59.3376
-60.2452
-61.1458
-62.0463
-62.9396
-63.8308
-64.7179
-65.6009
-66.4819
-67.3571
-68.2294
-69.0987
-69.9635
-70.8254
-71.6843
-72.5402
-73.3929
-74.2425
-75.0888
-75.9325
-76.7731
-77.6113
-78.447
-79.2785
-80.109
-80.936
-81.7603
-82.583
-83.4017
-84.2195
-85.0339
-85.846
-86.6564
-87.4634
-88.2688
-89.0726
-89.8725
-90.672
-91.4681
-92.2625
-93.0552
-93.8449
-94.6335
-95.42
-96.2035
-96.9865
-97.7665
-98.5449
-99.322
-100.096
-100.869
-101.641
-102.41
-103.177
-103.943
-104.707
-105.47
-106.23
-106.989
-107.747
-108.502
-109.256
-110.009
-110.76
-111.509
-112.257
-113.003
-113.749
-114.492
-115.234
-115.975
-116.714
-117.452
-118.189
-118.925
-119.659
-120.392
-121.124
-121.856
-122.586
-123.316
-124.044
-124.772
-125.498
-126.222
-126.945
-127.665
-128.384
-129.101
-129.816
-130.529
-131.24
-131.949
-132.658
-133.365
-134.071
-134.777
-135.482
-136.187
-136.892
-137.596
-138.3
-139.003
-139.705
-140.406
-141.106
-141.805
-142.503
-143.199
-143.895
-144.589
-145.282
-145.973
-146.664
-147.353
-148.042
-148.729
-149.416
-150.102
-150.786
-151.471
-152.154
-152.836
-153.518
-154.199
-154.879
-155.558
-156.236
-156.913
-157.59
-158.266
-158.94
-159.614
-160.288
-160.96
-161.632
-162.302
-162.972
-163.642
-164.31
-164.978
-165.644
-166.311
-166.976
-167.64
-168.304
-168.967
-169.63
-170.291
-170.952
-171.613
-172.272
-172.931
-173.589
-174.246
-174.903
-175.559
-176.214
-176.869
-177.523
-178.176
-178.829
-179.481
-180.132
-180.782
-181.432
-182.082
-182.73
-183.378
-184.026
-184.672
-185.318
-185.963
-186.609
-187.252
-187.896
-188.539
-189.181
-189.823
-190.464
-191.104
-191.744
-192.383
-193.022
-193.66
-194.298
-194.934
-195.571
-196.206
-196.842
-197.476
-198.111
-198.744
-199.377
-200.009
-200.642
-201.272
-201.904
-202.533
-203.164
-203.791
-204.421
-205.048
-205.677
-206.302
-206.93
-207.555
-208.182
-208.805
-209.431
-210.053
-210.678
-211.299
-211.924
-212.543
-213.167
-213.785
-214.408
-215.025
-215.647
-216.263
-216.884
-217.499
-218.118
-218.733
-219.351
-219.964
-220.581
-221.194
-221.809
-222.421
-223.034
-223.646
-224.256
-224.868
-225.475
-226.087
-226.691
-227.301
-227.902
-228.511
-229.108
-229.716
-230.308
-230.951
-231.468
-232.311
-232.498
-233.847
84.0577
-3.81201
-19.1979
-24.761
-28.1577
-30.7957
-33.2122
-35.5331
-37.8898
-39.9761
-41.8226
-43.6166
-45.1971
-46.7446
-48.1724
-49.5264
-50.8668
-52.1171
-53.361
-54.5426
-55.7258
-56.8761
-58.023
-59.1345
-60.2405
-61.3282
-62.405
-63.4755
-64.5201
-65.5724
-66.5976
-67.6309
-68.6427
-69.6571
-70.6555
-71.6524
-72.641
-73.62
-74.6027
-75.5643
-76.5353
-77.4884
-78.445
-79.3923
-80.3337
-81.2728
-82.2026
-83.1358
-84.0556
-84.9786
-85.8923
-86.8018
-87.7099
-88.6109
-89.5118
-90.4055
-91.297
-92.1845
-93.0678
-93.9492
-94.8247
-95.6972
-96.5669
-97.4319
-98.2941
-99.1533
-100.009
-100.862
-101.712
-102.559
-103.403
-104.243
-105.082
-105.918
-106.749
-107.58
-108.407
-109.232
-110.055
-110.874
-111.691
-112.506
-113.318
-114.129
-114.936
-115.742
-116.546
-117.345
-118.145
-118.941
-119.736
-120.529
-121.319
-122.107
-122.894
-123.677
-124.461
-125.241
-126.019
-126.796
-127.571
-128.344
-129.115
-129.884
-130.652
-131.418
-132.182
-132.945
-133.705
-134.464
-135.222
-135.977
-136.732
-137.484
-138.235
-138.985
-139.733
-140.479
-141.224
-141.968
-142.71
-143.451
-144.19
-144.928
-145.665
-146.401
-147.135
-147.868
-148.601
-149.332
-150.063
-150.792
-151.521
-152.248
-152.974
-153.699
-154.421
-155.142
-155.861
-156.578
-157.292
-158.005
-158.717
-159.426
-160.135
-160.842
-161.548
-162.254
-162.96
-163.664
-164.369
-165.073
-165.777
-166.48
-167.182
-167.883
-168.583
-169.282
-169.98
-170.677
-171.372
-172.066
-172.759
-173.451
-174.141
-174.831
-175.519
-176.207
-176.894
-177.579
-178.264
-178.948
-179.632
-180.314
-180.996
-181.677
-182.357
-183.036
-183.714
-184.391
-185.068
-185.744
-186.419
-187.093
-187.766
-188.438
-189.11
-189.781
-190.451
-191.12
-191.788
-192.456
-193.123
-193.789
-194.454
-195.119
-195.783
-196.446
-197.108
-197.77
-198.431
-199.091
-199.751
-200.409
-201.068
-201.725
-202.382
-203.037
-203.693
-204.347
-205.002
-205.655
-206.307
-206.959
-207.611
-208.261
-208.911
-209.56
-210.209
-210.857
-211.504
-212.151
-212.797
-213.442
-214.087
-214.731
-215.375
-216.017
-216.66
-217.301
-217.943
-218.583
-219.223
-219.862
-220.501
-221.139
-221.777
-222.413
-223.05
-223.685
-224.321
-224.955
-225.59
-226.223
-226.856
-227.488
-228.121
-228.751
-229.383
-230.012
-230.643
-231.27
-231.9
-232.527
-233.156
-233.781
-234.409
-235.034
-235.661
-236.284
-236.91
-237.532
-238.158
-238.778
-239.403
-240.022
-240.646
-241.264
-241.887
-242.504
-243.126
-243.742
-244.363
-244.978
-245.598
-246.212
-246.83
-247.444
-248.06
-248.673
-249.288
-249.9
-250.513
-251.125
-251.736
-252.347
-252.955
-253.566
-254.17
-254.781
-255.381
-255.991
-256.587
-257.195
-257.787
-258.43
-258.947
-259.79
-259.977
-261.332
52.9326
-30.5109
-46.0364
-51.8681
-55.4534
-58.1554
-60.6186
-62.9769
-65.3406
-67.3965
-69.243
-71.0574
-72.6344
-74.1757
-75.6117
-76.969
-78.3063
-79.5616
-80.8097
-81.9856
-83.1662
-84.3182
-85.4654
-86.5765
-87.6841
-88.7727
-89.8499
-90.9214
-91.9669
-93.02
-94.0461
-95.0806
-96.0933
-97.1086
-98.1078
-99.1056
-100.095
-101.075
-102.059
-103.022
-103.993
-104.947
-105.904
-106.852
-107.794
-108.734
-109.665
-110.598
-111.518
-112.442
-113.356
-114.266
-115.174
-116.076
-116.977
-117.871
-118.763
-119.651
-120.534
-121.416
-122.292
-123.165
-124.035
-124.9
-125.762
-126.622
-127.478
-128.331
-129.182
-130.028
-130.872
-131.713
-132.552
-133.388
-134.22
-135.051
-135.878
-136.703
-137.526
-138.345
-139.163
-139.978
-140.79
-141.601
-142.408
-143.214
-144.018
-144.818
-145.618
-146.414
-147.209
-148.002
-148.792
-149.581
-150.367
-151.151
-151.934
-152.715
-153.493
-154.27
-155.045
-155.818
-156.59
-157.359
-158.127
-158.893
-159.656
-160.42
-161.18
-161.939
-162.697
-163.452
-164.207
-164.96
-165.711
-166.46
-167.208
-167.955
-168.7
-169.443
-170.186
-170.927
-171.666
-172.404
-173.141
-173.877
-174.611
-175.345
-176.077
-176.808
-177.539
-178.268
-178.997
-179.725
-180.451
-181.175
-181.898
-182.619
-183.338
-184.055
-184.769
-185.482
-186.193
-186.903
-187.611
-188.319
-189.025
-189.731
-190.437
-191.142
-191.846
-192.55
-193.254
-193.957
-194.659
-195.36
-196.061
-196.76
-197.458
-198.154
-198.85
-199.544
-200.237
-200.928
-201.619
-202.308
-202.997
-203.684
-204.371
-205.057
-205.742
-206.426
-207.109
-207.792
-208.474
-209.154
-209.834
-210.513
-211.192
-211.869
-212.546
-213.222
-213.896
-214.571
-215.244
-215.916
-216.588
-217.259
-217.929
-218.598
-219.266
-219.934
-220.601
-221.267
-221.932
-222.597
-223.261
-223.924
-224.587
-225.248
-225.909
-226.569
-227.229
-227.888
-228.546
-229.203
-229.86
-230.516
-231.171
-231.826
-232.48
-233.133
-233.786
-234.438
-235.089
-235.74
-236.39
-237.039
-237.688
-238.335
-238.983
-239.629
-240.276
-240.921
-241.566
-242.21
-242.854
-243.496
-244.139
-244.78
-245.422
-246.062
-246.702
-247.341
-247.98
-248.618
-249.256
-249.892
-250.529
-251.164
-251.8
-252.434
-253.069
-253.701
-254.335
-254.967
-255.599
-256.23
-256.862
-257.491
-258.122
-258.749
-259.379
-260.006
-260.635
-261.26
-261.888
-262.513
-263.14
-263.763
-264.389
-265.011
-265.637
-266.257
-266.882
-267.501
-268.125
-268.743
-269.366
-269.983
-270.605
-271.221
-271.842
-272.457
-273.077
-273.691
-274.309
-274.923
-275.54
-276.152
-276.767
-277.38
-277.993
-278.604
-279.215
-279.826
-280.434
-281.045
-281.649
-282.26
-282.86
-283.47
-284.067
-284.674
-285.266
-285.909
-286.426
-287.269
-287.456
-288.818
21.955
-57.3086
-72.9118
-78.9988
-82.745
-85.5277
-88.0329
-90.3952
-92.7809
-94.8285
-96.6974
-98.4849
-100.066
-101.628
-103.056
-104.409
-105.749
-107.009
-108.255
-109.432
-110.62
-111.77
-112.913
-114.023
-115.132
-116.22
-117.297
-118.37
-119.416
-120.469
-121.496
-122.532
-123.545
-124.561
-125.561
-126.559
-127.549
-128.53
-129.515
-130.478
-131.451
-132.405
-133.363
-134.311
-135.254
-136.195
-137.126
-138.06
-138.981
-139.904
-140.819
-141.73
-142.639
-143.54
-144.442
-145.336
-146.229
-147.117
-148.001
-148.883
-149.759
-150.632
-151.502
-152.368
-153.23
-154.09
-154.947
-155.8
-156.651
-157.498
-158.342
-159.183
-160.022
-160.858
-161.69
-162.521
-163.349
-164.174
-164.997
-165.816
-166.635
-167.449
-168.262
-169.073
-169.88
-170.686
-171.49
-172.291
-173.09
-173.887
-174.682
-175.475
-176.265
-177.054
-177.841
-178.624
-179.408
-180.188
-180.967
-181.744
-182.519
-183.292