/*--------------------------------*- C++ -*----------------------------------*\
| =========                 |                                                 |
| \\      /  F ield         | foam-extend: Open Source CFD                    |
|  \\    /   O peration     | Version:     3.2                                |
|   \\  /    A nd           | Web:         http://www.foam-extend.org         |
|    \\/     M anipulation  | For copyright notice see file Copyright         |
\*---------------------------------------------------------------------------*/
FoamFile
{
    version     2.0;
    format      ascii;
    class       areaScalarField;
    location    "37";
    object      tau;
}
// * * * * * * * * * * * * * * * * * * * * * * * * * * * * * * * * * * * * * //

dimensions      [1 1 2 0 0 0 0];

internalField   nonuniform List<scalar> 
300
(
53.2816
42.432
29.4367
24.1719
22.1872
21.1464
20.3926
19.7331
19.1259
18.5749
18.0831
17.6435
17.2458
16.8909
16.5715
16.2812
16.0157
15.7707
15.5462
15.3416
15.1515
14.973
14.8053
14.6479
14.5003
14.3605
14.2285
14.1029
13.984
13.8712
13.7636
13.6611
13.5627
13.4688
13.3789
13.2929
13.21
13.1304
13.0537
12.9798
12.9088
12.8401
12.7739
12.7096
12.6475
12.5874
12.5293
12.473
12.4182
12.3651
12.3133
12.2632
12.2144
12.167
12.1208
12.0758
12.032
11.989
11.9469
11.9059
11.8658
11.8267
11.7885
11.7512
11.7148
11.6792
11.6444
11.6104
11.577
11.5444
11.5125
11.4812
11.4506
11.4205
11.3911
11.3623
11.3339
11.3062
11.279
11.2522
11.226
11.2002
11.1749
11.1501
11.1256
11.1017
11.0781
11.0549
11.0322
11.0097
10.9877
10.966
10.9447
10.9237
10.9031
10.8827
10.8628
10.843
10.8237
10.8046
10.7857
10.7672
10.7489
10.7309
10.7132
10.6957
10.6785
10.6615
10.6448
10.6283
10.612
10.5959
10.5801
10.5645
10.5491
10.5339
10.5189
10.5041
10.4895
10.4751
10.4608
10.4468
10.4329
10.4192
10.4057
10.3923
10.3791
10.366
10.3531
10.3403
10.3277
10.3152
10.3028
10.2906
10.2785
10.2666
10.2549
10.2433
10.2319
10.2206
10.2095
10.1985
10.1877
10.1769
10.1664
10.1559
10.1455
10.1352
10.125
10.1149
10.1049
10.095
10.0851
10.0754
10.0658
10.0562
10.0468
10.0375
10.0283
10.0191
10.0101
10.0012
9.99238
9.98364
9.975
9.96645
9.95798
9.9496
9.9413
9.93308
9.92493
9.91688
9.90889
9.90098
9.89315
9.8854
9.87772
9.87011
9.86258
9.85512
9.84772
9.8404
9.83315
9.82597
9.81885
9.8118
9.80482
9.7979
9.79104
9.78425
9.77752
9.77085
9.76424
9.7577
9.75121
9.74478
9.73841
9.73209
9.72583
9.71963
9.71347
9.70738
9.70134
9.69535
9.68941
9.68353
9.67769
9.67192
9.66618
9.6605
9.65486
9.64928
9.64374
9.63825
9.63281
9.62741
9.62206
9.61676
9.61149
9.60628
9.6011
9.59598
9.59088
9.58585
9.58084
9.57588
9.57095
9.56608
9.56124
9.55645
9.55168
9.54697
9.54228
9.53765
9.53303
9.52847
9.52393
9.51945
9.51498
9.51057
9.50617
9.50184
9.49751
9.49324
9.48898
9.48479
9.48059
9.47646
9.47233
9.46827
9.4642
9.46021
9.4562
9.45227
9.44833
9.44446
9.44058
9.43676
9.43295
9.42919
9.42545
9.42174
9.41806
9.4144
9.41079
9.40717
9.40363
9.40005
9.39659
9.39304
9.38965
9.38613
9.38282
9.37932
9.37611
9.37262
9.36949
9.366
9.36298
9.35949
9.35656
9.35305
9.35023
9.34671
9.34398
9.34043
9.33779
9.33423
9.33166
9.32808
9.32554
9.32196
9.31944
9.31576
9.31367
9.30937
9.30897
9.30282
9.30507
9.29309
)
;

boundaryField
{
    inlet
    {
        type            calculated;
        value           uniform 0;
    }
    outlet
    {
        type            calculated;
        value           uniform 0;
    }
    sideWall
    {
        type            empty;
    }
}


// ************************************************************************* //
