/*--------------------------------*- C++ -*----------------------------------*\
| =========                 |                                                 |
| \\      /  F ield         | foam-extend: Open Source CFD                    |
|  \\    /   O peration     | Version:     3.2                                |
|   \\  /    A nd           | Web:         http://www.foam-extend.org         |
|    \\/     M anipulation  | For copyright notice see file Copyright         |
\*---------------------------------------------------------------------------*/
FoamFile
{
    version     2.0;
    format      ascii;
    class       areaScalarField;
    location    "37";
    object      thetaSS2;
}
// * * * * * * * * * * * * * * * * * * * * * * * * * * * * * * * * * * * * * //

dimensions      [0 0 0 0 0 0 0];

internalField   nonuniform List<scalar> 
300
(
13.5108
10.7597
7.46437
6.12936
5.6261
5.36217
5.17105
5.0038
4.84983
4.71012
4.58541
4.47393
4.37308
4.28309
4.20211
4.1285
4.06118
3.99903
3.94212
3.89022
3.84204
3.79676
3.75425
3.71433
3.6769
3.64146
3.60798
3.57613
3.54598
3.51738
3.4901
3.46409
3.43915
3.41534
3.39254
3.37073
3.34972
3.32954
3.31009
3.29134
3.27335
3.25591
3.23912
3.22282
3.20709
3.19184
3.17711
3.16282
3.14892
3.13546
3.12234
3.10963
3.09726
3.08523
3.07353
3.06211
3.051
3.04011
3.02944
3.01903
3.00886
2.99894
2.98926
2.9798
2.97057
2.96155
2.95272
2.94409
2.93563
2.92736
2.91926
2.91133
2.90357
2.89595
2.88849
2.88117
2.87399
2.86696
2.86005
2.85327
2.84662
2.84009
2.83367
2.82737
2.82117
2.8151
2.80912
2.80324
2.79747
2.79178
2.7862
2.7807
2.77529
2.76998
2.76474
2.75958
2.75451
2.74951
2.7446
2.73976
2.73498
2.73029
2.72565
2.72109
2.7166
2.71216
2.70779
2.70349
2.69924
2.69506
2.69093
2.68686
2.68284
2.67888
2.67498
2.67112
2.66732
2.66357
2.65986
2.65621
2.6526
2.64904
2.64552
2.64204
2.63861
2.63522
2.63187
2.62856
2.62528
2.62204
2.61883
2.61566
2.61252
2.60942
2.60636
2.60334
2.60037
2.59743
2.59453
2.59168
2.58886
2.58608
2.58333
2.58061
2.57792
2.57526
2.57263
2.57002
2.56744
2.56487
2.56233
2.55982
2.55733
2.55486
2.55242
2.55
2.54761
2.54525
2.54291
2.5406
2.53831
2.53605
2.53381
2.53159
2.5294
2.52723
2.52509
2.52296
2.52086
2.51877
2.51671
2.51466
2.51264
2.51063
2.50865
2.50668
2.50473
2.50281
2.50089
2.499
2.49713
2.49527
2.49343
2.49161
2.48981
2.48802
2.48625
2.48449
2.48276
2.48103
2.47933
2.47764
2.47596
2.4743
2.47265
2.47102
2.46941
2.46781
2.46622
2.46465
2.46309
2.46154
2.46001
2.45849
2.45698
2.45549
2.45401
2.45255
2.45109
2.44965
2.44822
2.44681
2.4454
2.44401
2.44263
2.44126
2.4399
2.43856
2.43722
2.4359
2.43459
2.43329
2.432
2.43072
2.42945
2.4282
2.42695
2.42571
2.42448
2.42327
2.42206
2.42086
2.41967
2.4185
2.41733
2.41617
2.41502
2.41389
2.41275
2.41164
2.41052
2.40942
2.40832
2.40724
2.40616
2.4051
2.40403
2.40299
2.40194
2.40091
2.39988
2.39886
2.39785
2.39685
2.39585
2.39487
2.39389
2.39292
2.39195
2.391
2.39005
2.38911
2.38818
2.38725
2.38633
2.38541
2.38452
2.38361
2.38273
2.38183
2.38097
2.38008
2.37924
2.37835
2.37754
2.37665
2.37586
2.37498
2.37421
2.37332
2.37258
2.37169
2.37098
2.37008
2.36939
2.36849
2.36782
2.36692
2.36627
2.36536
2.36472
2.36381
2.36317
2.36224
2.36171
2.36061
2.36051
2.35896
2.35952
2.35649
)
;

boundaryField
{
    inlet
    {
        type            calculated;
        value           uniform 0;
    }
    outlet
    {
        type            calculated;
        value           uniform 0;
    }
    sideWall
    {
        type            empty;
    }
}


// ************************************************************************* //
