/*--------------------------------*- C++ -*----------------------------------*\
| =========                 |                                                 |
| \\      /  F ield         | foam-extend: Open Source CFD                    |
|  \\    /   O peration     | Version:     3.2                                |
|   \\  /    A nd           | Web:         http://www.foam-extend.org         |
|    \\/     M anipulation  | For copyright notice see file Copyright         |
\*---------------------------------------------------------------------------*/
FoamFile
{
    version     2.0;
    format      ascii;
    class       volVectorField;
    location    "37";
    object      U;
}
// * * * * * * * * * * * * * * * * * * * * * * * * * * * * * * * * * * * * * //

dimensions      [0 1 -1 0 0 0 0];

internalField   nonuniform List<vector> 
96000
(
(1.32717 0 0.0321533)
(0.866773 0 0.0115995)
(0.682512 0 0.0021583)
(0.62946 0 -0.00047469)
(0.610066 0 -0.000492644)
(0.597607 0 -0.000216278)
(0.587443 0 -0.000121816)
(0.577914 0 -5.61394e-05)
(0.568828 0 -1.26383e-05)
(0.560457 0 4.18352e-06)
(0.552982 0 9.43745e-06)
(0.546238 0 1.89409e-05)
(0.540038 0 2.37663e-05)
(0.534484 0 2.67483e-05)
(0.529437 0 2.74825e-05)
(0.524819 0 2.73484e-05)
(0.520558 0 2.83072e-05)
(0.516578 0 2.81094e-05)
(0.512919 0 2.91785e-05)
(0.509601 0 2.94432e-05)
(0.506499 0 2.91084e-05)
(0.503553 0 2.85174e-05)
(0.500767 0 2.7779e-05)
(0.498134 0 2.6465e-05)
(0.49566 0 2.54945e-05)
(0.493299 0 2.46271e-05)
(0.491062 0 2.38912e-05)
(0.488915 0 2.32105e-05)
(0.486878 0 2.21039e-05)
(0.484939 0 2.14569e-05)
(0.48308 0 2.06492e-05)
(0.481301 0 2.01829e-05)
(0.479586 0 1.94983e-05)
(0.477943 0 1.89188e-05)
(0.476363 0 1.81717e-05)
(0.474852 0 1.76989e-05)
(0.473384 0 1.72116e-05)
(0.471975 0 1.66864e-05)
(0.470608 0 1.63744e-05)
(0.469287 0 1.56889e-05)
(0.468019 0 1.53785e-05)
(0.466782 0 1.48789e-05)
(0.465593 0 1.45656e-05)
(0.46443 0 1.4211e-05)
(0.463307 0 1.3812e-05)
(0.462214 0 1.34597e-05)
(0.461158 0 1.30491e-05)
(0.46013 0 1.28591e-05)
(0.459127 0 1.24644e-05)
(0.458155 0 1.22555e-05)
(0.457203 0 1.19604e-05)
(0.45628 0 1.16244e-05)
(0.455381 0 1.13928e-05)
(0.454503 0 1.11078e-05)
(0.453649 0 1.09317e-05)
(0.452811 0 1.06553e-05)
(0.451997 0 1.05535e-05)
(0.451194 0 1.06681e-05)
(0.450406 0 1.0608e-05)
(0.449636 0 1.04226e-05)
(0.448882 0 1.0181e-05)
(0.448148 0 9.95475e-06)
(0.447428 0 9.77069e-06)
(0.446724 0 9.55446e-06)
(0.446036 0 9.3474e-06)
(0.445363 0 9.17046e-06)
(0.444703 0 9.00153e-06)
(0.444056 0 8.83478e-06)
(0.443422 0 8.67043e-06)
(0.4428 0 8.49581e-06)
(0.442191 0 8.33695e-06)
(0.441594 0 8.17602e-06)
(0.441009 0 8.03876e-06)
(0.440433 0 7.91419e-06)
(0.439868 0 7.74584e-06)
(0.439314 0 7.62729e-06)
(0.438769 0 7.49459e-06)
(0.438235 0 7.3513e-06)
(0.43771 0 7.24797e-06)
(0.437194 0 7.10729e-06)
(0.436687 0 7.0059e-06)
(0.436188 0 6.89216e-06)
(0.435698 0 6.76867e-06)
(0.435216 0 6.67799e-06)
(0.434741 0 6.55316e-06)
(0.434276 0 6.44703e-06)
(0.433817 0 6.37533e-06)
(0.433364 0 6.24952e-06)
(0.432921 0 6.17175e-06)
(0.432482 0 6.07313e-06)
(0.432052 0 5.97342e-06)
(0.431628 0 5.90185e-06)
(0.43121 0 5.79616e-06)
(0.430799 0 5.72025e-06)
(0.430393 0 5.65238e-06)
(0.429994 0 5.54663e-06)
(0.429601 0 5.48651e-06)
(0.429212 0 5.40325e-06)
(0.428831 0 5.31752e-06)
(0.428454 0 5.26078e-06)
(0.428082 0 5.17772e-06)
(0.427716 0 5.11169e-06)
(0.427355 0 5.04875e-06)
(0.426999 0 4.96809e-06)
(0.426648 0 4.91078e-06)
(0.426301 0 4.84844e-06)
(0.425959 0 4.76969e-06)
(0.425622 0 4.72515e-06)
(0.425289 0 4.65802e-06)
(0.424961 0 4.59435e-06)
(0.424636 0 4.54691e-06)
(0.424316 0 4.48021e-06)
(0.424001 0 4.42432e-06)
(0.423689 0 4.37456e-06)
(0.423381 0 4.31252e-06)
(0.423077 0 4.26477e-06)
(0.422777 0 4.21532e-06)
(0.422481 0 4.15399e-06)
(0.422188 0 4.10973e-06)
(0.421899 0 4.06071e-06)
(0.421614 0 4.00545e-06)
(0.421332 0 3.96287e-06)
(0.421054 0 3.91617e-06)
(0.420779 0 3.85791e-06)
(0.420507 0 3.81554e-06)
(0.420239 0 3.7563e-06)
(0.419975 0 3.70592e-06)
(0.419713 0 3.66599e-06)
(0.419455 0 3.61893e-06)
(0.419199 0 3.58557e-06)
(0.418945 0 3.56519e-06)
(0.418693 0 3.5362e-06)
(0.418443 0 3.51532e-06)
(0.418195 0 3.49939e-06)
(0.417949 0 3.47226e-06)
(0.417705 0 3.44627e-06)
(0.417464 0 3.41745e-06)
(0.417226 0 3.37701e-06)
(0.41699 0 3.33627e-06)
(0.416758 0 3.29008e-06)
(0.41653 0 3.2344e-06)
(0.416305 0 3.18402e-06)
(0.416084 0 3.13113e-06)
(0.415866 0 3.07432e-06)
(0.415651 0 3.02934e-06)
(0.415439 0 2.98739e-06)
(0.41523 0 2.94593e-06)
(0.415023 0 2.91574e-06)
(0.414817 0 2.88947e-06)
(0.414614 0 2.86421e-06)
(0.414411 0 2.84829e-06)
(0.414211 0 2.83123e-06)
(0.414011 0 2.81425e-06)
(0.413813 0 2.80169e-06)
(0.413616 0 2.78462e-06)
(0.413421 0 2.76289e-06)
(0.413227 0 2.74461e-06)
(0.413035 0 2.72035e-06)
(0.412845 0 2.69191e-06)
(0.412657 0 2.66604e-06)
(0.412471 0 2.6381e-06)
(0.412287 0 2.60645e-06)
(0.412105 0 2.57876e-06)
(0.411925 0 2.54947e-06)
(0.411747 0 2.51991e-06)
(0.411571 0 2.49368e-06)
(0.411397 0 2.46719e-06)
(0.411224 0 2.43983e-06)
(0.411053 0 2.41849e-06)
(0.410884 0 2.39554e-06)
(0.410717 0 2.37168e-06)
(0.410551 0 2.35123e-06)
(0.410386 0 2.33214e-06)
(0.410223 0 2.30944e-06)
(0.410061 0 2.28968e-06)
(0.409901 0 2.26974e-06)
(0.409743 0 2.24943e-06)
(0.409585 0 2.22974e-06)
(0.409429 0 2.21094e-06)
(0.409275 0 2.18912e-06)
(0.409122 0 2.17123e-06)
(0.40897 0 2.15214e-06)
(0.40882 0 2.13112e-06)
(0.408671 0 2.11115e-06)
(0.408524 0 2.09461e-06)
(0.408377 0 2.07391e-06)
(0.408233 0 2.0557e-06)
(0.408089 0 2.03804e-06)
(0.407947 0 2.02028e-06)
(0.407806 0 2.00169e-06)
(0.407666 0 1.98557e-06)
(0.407527 0 1.96659e-06)
(0.40739 0 1.94975e-06)
(0.407254 0 1.93368e-06)
(0.407119 0 1.91715e-06)
(0.406985 0 1.89859e-06)
(0.406852 0 1.8852e-06)
(0.406721 0 1.86786e-06)
(0.40659 0 1.85231e-06)
(0.406461 0 1.83545e-06)
(0.406333 0 1.82175e-06)
(0.406206 0 1.80419e-06)
(0.40608 0 1.79114e-06)
(0.405955 0 1.77428e-06)
(0.405831 0 1.76092e-06)
(0.405708 0 1.74454e-06)
(0.405586 0 1.73286e-06)
(0.405465 0 1.71495e-06)
(0.405346 0 1.70329e-06)
(0.405227 0 1.68757e-06)
(0.405109 0 1.67601e-06)
(0.404992 0 1.65889e-06)
(0.404876 0 1.64912e-06)
(0.404761 0 1.63286e-06)
(0.404647 0 1.62188e-06)
(0.404534 0 1.60625e-06)
(0.404422 0 1.59595e-06)
(0.404311 0 1.5793e-06)
(0.404201 0 1.57056e-06)
(0.404091 0 1.55401e-06)
(0.403983 0 1.54494e-06)
(0.403875 0 1.52894e-06)
(0.403768 0 1.52127e-06)
(0.403663 0 1.50394e-06)
(0.403557 0 1.4967e-06)
(0.403453 0 1.48008e-06)
(0.40335 0 1.47315e-06)
(0.403247 0 1.45555e-06)
(0.403145 0 1.45018e-06)
(0.403045 0 1.43286e-06)
(0.402944 0 1.4273e-06)
(0.402845 0 1.41008e-06)
(0.402747 0 1.40534e-06)
(0.402649 0 1.38723e-06)
(0.402552 0 1.38345e-06)
(0.402456 0 1.36511e-06)
(0.40236 0 1.36162e-06)
(0.402266 0 1.3429e-06)
(0.402172 0 1.34153e-06)
(0.402079 0 1.32164e-06)
(0.401986 0 1.32081e-06)
(0.401895 0 1.30051e-06)
(0.401803 0 1.30173e-06)
(0.401713 0 1.27915e-06)
(0.401623 0 1.28219e-06)
(0.401535 0 1.25867e-06)
(0.401446 0 1.2634e-06)
(0.401359 0 1.23844e-06)
(0.401272 0 1.24535e-06)
(0.401186 0 1.21832e-06)
(0.4011 0 1.22744e-06)
(0.401016 0 1.19881e-06)
(0.400931 0 1.21018e-06)
(0.400848 0 1.1783e-06)
(0.400764 0 1.19325e-06)
(0.400682 0 1.1593e-06)
(0.4006 0 1.17681e-06)
(0.40052 0 1.13982e-06)
(0.400439 0 1.1608e-06)
(0.400359 0 1.12099e-06)
(0.40028 0 1.14512e-06)
(0.400201 0 1.10207e-06)
(0.400123 0 1.12948e-06)
(0.400046 0 1.08284e-06)
(0.399969 0 1.11517e-06)
(0.399892 0 1.0645e-06)
(0.399818 0 1.10051e-06)
(0.399741 0 1.04654e-06)
(0.399668 0 1.08643e-06)
(0.399592 0 1.02942e-06)
(0.399521 0 1.07182e-06)
(0.399445 0 1.01275e-06)
(0.399376 0 1.05756e-06)
(0.3993 0 9.97087e-07)
(0.399234 0 1.04355e-06)
(0.399157 0 9.82819e-07)
(0.399094 0 1.02885e-06)
(0.399016 0 9.70454e-07)
(0.398955 0 1.01334e-06)
(0.398877 0 9.60484e-07)
(0.398819 0 9.96275e-07)
(0.39874 0 9.53684e-07)
(0.398685 0 9.78771e-07)
(0.398604 0 9.51308e-07)
(0.398552 0 9.60514e-07)
(0.398469 0 9.54884e-07)
(0.39842 0 9.41558e-07)
(0.398336 0 9.65032e-07)
(0.398289 0 9.23025e-07)
(0.398204 0 9.85818e-07)
(0.398158 0 9.06923e-07)
(0.398073 0 1.00166e-06)
(0.398026 0 9.33526e-07)
(0.397937 0 8.45238e-07)
(0.397909 0 8.41707e-07)
(0.397793 0 6.95566e-07)
(0.397833 0 2.403e-07)
(0.397634 0 2.36768e-06)
(0.397789 0 -9.7255e-07)
(0.39736 0 9.41908e-05)
(1.70578 0 0.0462012)
(1.46484 0 0.0262864)
(1.26354 0 0.0112045)
(1.15627 0 0.00443929)
(1.09376 0 0.00223492)
(1.05073 0 0.00149981)
(1.01871 0 0.00123664)
(0.992301 0 0.00111525)
(0.969883 0 0.00100516)
(0.95112 0 0.000888213)
(0.934836 0 0.000786358)
(0.920591 0 0.000708087)
(0.907864 0 0.000635329)
(0.896693 0 0.000568563)
(0.886715 0 0.000515463)
(0.877621 0 0.00047121)
(0.869357 0 0.000435579)
(0.861719 0 0.000401405)
(0.854785 0 0.000366671)
(0.848307 0 0.000337349)
(0.842261 0 0.000317233)
(0.83658 0 0.000299202)
(0.831267 0 0.000282138)
(0.826281 0 0.000265187)
(0.82161 0 0.000250806)
(0.817175 0 0.00023805)
(0.812992 0 0.000226378)
(0.80901 0 0.000215844)
(0.80524 0 0.000204616)
(0.801667 0 0.000195498)
(0.798246 0 0.000186771)
(0.794991 0 0.000179314)
(0.791861 0 0.000171954)
(0.788877 0 0.000164947)
(0.786013 0 0.000158079)
(0.783274 0 0.0001522)
(0.78063 0 0.000146859)
(0.778089 0 0.000141462)
(0.775642 0 0.000137003)
(0.773274 0 0.000131725)
(0.771008 0 0.000127548)
(0.7688 0 0.000123312)
(0.766682 0 0.000119535)
(0.764616 0 0.000116041)
(0.762625 0 0.00011238)
(0.760691 0 0.000109036)
(0.758821 0 0.000105606)
(0.757007 0 0.000102954)
(0.755239 0 9.99495e-05)
(0.753527 0 9.73941e-05)
(0.751855 0 9.48556e-05)
(0.750234 0 9.21458e-05)
(0.748657 0 8.98377e-05)
(0.747119 0 8.74915e-05)
(0.745624 0 8.54691e-05)
(0.744162 0 8.33922e-05)
(0.742738 0 8.14996e-05)
(0.741348 0 7.98408e-05)
(0.739996 0 7.79536e-05)
(0.738679 0 7.61958e-05)
(0.737392 0 7.44254e-05)
(0.736136 0 7.26986e-05)
(0.734908 0 7.11512e-05)
(0.733707 0 6.95766e-05)
(0.732534 0 6.8026e-05)
(0.731386 0 6.66007e-05)
(0.730263 0 6.52526e-05)
(0.729163 0 6.39548e-05)
(0.728084 0 6.2702e-05)
(0.727028 0 6.14347e-05)
(0.725993 0 6.02264e-05)
(0.724978 0 5.90351e-05)
(0.723984 0 5.79265e-05)
(0.723009 0 5.69204e-05)
(0.72205 0 5.58015e-05)
(0.721112 0 5.481e-05)
(0.720188 0 5.38374e-05)
(0.719284 0 5.28206e-05)
(0.718395 0 5.19467e-05)
(0.717521 0 5.09978e-05)
(0.716664 0 5.01485e-05)
(0.71582 0 4.93229e-05)
(0.714991 0 4.84495e-05)
(0.714177 0 4.76948e-05)
(0.713375 0 4.68706e-05)
(0.712589 0 4.6067e-05)
(0.711814 0 4.54156e-05)
(0.711051 0 4.46291e-05)
(0.710302 0 4.39562e-05)
(0.709563 0 4.32753e-05)
(0.708837 0 4.2563e-05)
(0.708122 0 4.19615e-05)
(0.707418 0 4.12793e-05)
(0.706726 0 4.06589e-05)
(0.706043 0 4.01158e-05)
(0.705369 0 3.94567e-05)
(0.704708 0 3.89158e-05)
(0.704054 0 3.83533e-05)
(0.703412 0 3.77569e-05)
(0.702778 0 3.72631e-05)
(0.702153 0 3.67168e-05)
(0.701538 0 3.62031e-05)
(0.70093 0 3.57294e-05)
(0.700331 0 3.52007e-05)
(0.699741 0 3.47315e-05)
(0.699159 0 3.42812e-05)
(0.698585 0 3.37682e-05)
(0.698019 0 3.33557e-05)
(0.697459 0 3.29113e-05)
(0.696908 0 3.24558e-05)
(0.696364 0 3.20658e-05)
(0.695827 0 3.16319e-05)
(0.695298 0 3.12142e-05)
(0.694775 0 3.08319e-05)
(0.694258 0 3.0415e-05)
(0.693749 0 3.00351e-05)
(0.693246 0 2.96725e-05)
(0.692749 0 2.92728e-05)
(0.692259 0 2.8918e-05)
(0.691775 0 2.85713e-05)
(0.691297 0 2.81987e-05)
(0.690825 0 2.78606e-05)
(0.690359 0 2.75277e-05)
(0.689899 0 2.71542e-05)
(0.689445 0 2.68302e-05)
(0.688996 0 2.64762e-05)
(0.688554 0 2.61397e-05)
(0.688117 0 2.58597e-05)
(0.687684 0 2.55761e-05)
(0.687256 0 2.53321e-05)
(0.686831 0 2.51481e-05)
(0.686409 0 2.49485e-05)
(0.68599 0 2.47576e-05)
(0.685574 0 2.45818e-05)
(0.685162 0 2.43622e-05)
(0.684753 0 2.41216e-05)
(0.684348 0 2.38631e-05)
(0.683948 0 2.35565e-05)
(0.683554 0 2.32334e-05)
(0.683165 0 2.28962e-05)
(0.682783 0 2.25268e-05)
(0.682408 0 2.21733e-05)
(0.682038 0 2.18309e-05)
(0.681675 0 2.14859e-05)
(0.681317 0 2.11871e-05)
(0.680964 0 2.0925e-05)
(0.680615 0 2.0679e-05)
(0.680271 0 2.04784e-05)
(0.679929 0 2.03081e-05)
(0.67959 0 2.01467e-05)
(0.679253 0 2.00155e-05)
(0.678918 0 1.98883e-05)
(0.678585 0 1.97541e-05)
(0.678254 0 1.96292e-05)
(0.677925 0 1.94905e-05)
(0.677599 0 1.93266e-05)
(0.677276 0 1.91647e-05)
(0.676955 0 1.89859e-05)
(0.676637 0 1.87852e-05)
(0.676323 0 1.85878e-05)
(0.676013 0 1.83882e-05)
(0.675705 0 1.81769e-05)
(0.675402 0 1.79772e-05)
(0.675102 0 1.77802e-05)
(0.674805 0 1.75831e-05)
(0.674511 0 1.73999e-05)
(0.67422 0 1.72221e-05)
(0.673933 0 1.70423e-05)
(0.673648 0 1.68817e-05)
(0.673366 0 1.6725e-05)
(0.673087 0 1.65646e-05)
(0.67281 0 1.64143e-05)
(0.672536 0 1.62726e-05)
(0.672264 0 1.61222e-05)
(0.671995 0 1.59769e-05)
(0.671728 0 1.58345e-05)
(0.671463 0 1.56901e-05)
(0.671201 0 1.5548e-05)
(0.670941 0 1.54105e-05)
(0.670684 0 1.52648e-05)
(0.670429 0 1.51283e-05)
(0.670176 0 1.49943e-05)
(0.669926 0 1.48537e-05)
(0.669678 0 1.47143e-05)
(0.669432 0 1.45872e-05)
(0.669189 0 1.44522e-05)
(0.668947 0 1.43208e-05)
(0.668708 0 1.41951e-05)
(0.668471 0 1.40699e-05)
(0.668236 0 1.39433e-05)
(0.668003 0 1.38239e-05)
(0.667773 0 1.36995e-05)
(0.667544 0 1.35775e-05)
(0.667317 0 1.34618e-05)
(0.667092 0 1.33459e-05)
(0.66687 0 1.32239e-05)
(0.666649 0 1.31158e-05)
(0.66643 0 1.30027e-05)
(0.666213 0 1.28911e-05)
(0.665998 0 1.27783e-05)
(0.665784 0 1.26734e-05)
(0.665573 0 1.2561e-05)
(0.665363 0 1.24582e-05)
(0.665155 0 1.235e-05)
(0.664949 0 1.2248e-05)
(0.664744 0 1.21415e-05)
(0.664541 0 1.20468e-05)
(0.664341 0 1.1939e-05)
(0.664141 0 1.18431e-05)
(0.663944 0 1.17425e-05)
(0.663747 0 1.16503e-05)
(0.663553 0 1.15463e-05)
(0.66336 0 1.14583e-05)
(0.663169 0 1.136e-05)
(0.662979 0 1.127e-05)
(0.662792 0 1.11735e-05)
(0.662605 0 1.10873e-05)
(0.66242 0 1.09889e-05)
(0.662236 0 1.09069e-05)
(0.662055 0 1.08114e-05)
(0.661874 0 1.07292e-05)
(0.661695 0 1.06355e-05)
(0.661517 0 1.05591e-05)
(0.661341 0 1.04641e-05)
(0.661166 0 1.03884e-05)
(0.660993 0 1.02967e-05)
(0.660821 0 1.02235e-05)
(0.660651 0 1.01297e-05)
(0.660481 0 1.00603e-05)
(0.660314 0 9.96993e-06)
(0.660147 0 9.9008e-06)
(0.659982 0 9.81147e-06)
(0.659818 0 9.74556e-06)
(0.659656 0 9.65511e-06)
(0.659494 0 9.59156e-06)
(0.659335 0 9.50217e-06)
(0.659175 0 9.43963e-06)
(0.659019 0 9.34959e-06)
(0.658862 0 9.29354e-06)
(0.658708 0 9.20326e-06)
(0.658553 0 9.14856e-06)
(0.658402 0 9.058e-06)
(0.658249 0 9.01012e-06)
(0.6581 0 8.91537e-06)
(0.65795 0 8.87139e-06)
(0.657803 0 8.77581e-06)
(0.657656 0 8.73659e-06)
(0.657511 0 8.63856e-06)
(0.657366 0 8.60558e-06)
(0.657223 0 8.50366e-06)
(0.65708 0 8.47623e-06)
(0.65694 0 8.37143e-06)
(0.656799 0 8.35095e-06)
(0.656661 0 8.23787e-06)
(0.656522 0 8.22618e-06)
(0.656386 0 8.1095e-06)
(0.65625 0 8.10571e-06)
(0.656116 0 7.98136e-06)
(0.655981 0 7.98722e-06)
(0.655849 0 7.85614e-06)
(0.655717 0 7.87155e-06)
(0.655586 0 7.73169e-06)
(0.655457 0 7.75741e-06)
(0.655328 0 7.60634e-06)
(0.655201 0 7.64763e-06)
(0.655073 0 7.48559e-06)
(0.654949 0 7.53939e-06)
(0.654821 0 7.36646e-06)
(0.654701 0 7.43451e-06)
(0.654574 0 7.25126e-06)
(0.654457 0 7.33076e-06)
(0.654329 0 7.13755e-06)
(0.654216 0 7.22987e-06)
(0.654089 0 7.02753e-06)
(0.653979 0 7.13204e-06)
(0.653851 0 6.9229e-06)
(0.653746 0 7.03474e-06)
(0.653617 0 6.82453e-06)
(0.653517 0 6.93774e-06)
(0.653385 0 6.73461e-06)
(0.65329 0 6.83953e-06)
(0.653157 0 6.65534e-06)
(0.653067 0 6.74381e-06)
(0.652931 0 6.59344e-06)
(0.652847 0 6.65096e-06)
(0.652708 0 6.55573e-06)
(0.652628 0 6.56269e-06)
(0.652487 0 6.54665e-06)
(0.652411 0 6.48351e-06)
(0.652269 0 6.57653e-06)
(0.652194 0 6.43533e-06)
(0.652051 0 6.58689e-06)
(0.651978 0 6.61353e-06)
(0.651827 0 6.11509e-06)
(0.651772 0 6.63345e-06)
(0.651592 0 5.33896e-06)
(0.651601 0 4.8347e-06)
(0.651366 0 7.87204e-06)
(0.651471 0 3.44148e-06)
(0.651027 0 -5.93166e-06)
(1.79256 0 0.0536382)
(1.73299 0 0.036639)
(1.59333 0 0.0192326)
(1.46852 0 0.00965783)
(1.37904 0 0.00580163)
(1.31285 0 0.00415537)
(1.26267 0 0.00326438)
(1.22332 0 0.00273856)
(1.19139 0 0.00234265)
(1.16526 0 0.00201867)
(1.14267 0 0.00177255)
(1.12312 0 0.00157725)
(1.10589 0 0.00140068)
(1.09088 0 0.001244)
(1.07751 0 0.00112345)
(1.06537 0 0.00102349)
(1.0544 0 0.000940675)
(1.04434 0 0.000863057)
(1.03523 0 0.000793063)
(1.02677 0 0.00073681)
(1.01891 0 0.000691103)
(1.01157 0 0.000648888)
(1.00473 0 0.000609356)
(0.998333 0 0.000571687)
(0.992338 0 0.000539689)
(0.986663 0 0.000511158)
(0.981319 0 0.000484814)
(0.97625 0 0.000461052)
(0.971455 0 0.000436656)
(0.966915 0 0.000416568)
(0.962575 0 0.00039751)
(0.958452 0 0.000380816)
(0.954495 0 0.000364645)
(0.950729 0 0.00034923)
(0.947118 0 0.000334556)
(0.943665 0 0.000321685)
(0.940339 0 0.000310044)
(0.937144 0 0.000298309)
(0.934073 0 0.000288391)
(0.931105 0 0.000277272)
(0.928264 0 0.000268139)
(0.925501 0 0.000259127)
(0.92285 0 0.00025088)
(0.92027 0 0.000243319)
(0.917783 0 0.000235463)
(0.915372 0 0.000228323)
(0.91304 0 0.000221086)
(0.910779 0 0.000215252)
(0.908578 0 0.000208938)
(0.906448 0 0.000203357)
(0.904372 0 0.000197942)
(0.902357 0 0.000192251)
(0.900399 0 0.000187319)
(0.89849 0 0.000182371)
(0.896636 0 0.000177984)
(0.894824 0 0.000173622)
(0.89306 0 0.000169474)
(0.89134 0 0.000165605)
(0.889667 0 0.000161422)
(0.888037 0 0.000157648)
(0.886444 0 0.000153953)
(0.88489 0 0.000150343)
(0.883373 0 0.000147057)
(0.881889 0 0.000143771)
(0.880439 0 0.000140541)
(0.879023 0 0.000137545)
(0.877636 0 0.000134707)
(0.876279 0 0.000131978)
(0.874949 0 0.000129351)
(0.873647 0 0.000126712)
(0.872371 0 0.000124187)
(0.871122 0 0.000121713)
(0.869898 0 0.00011938)
(0.868697 0 0.00011726)
(0.867517 0 0.000114964)
(0.866363 0 0.00011287)
(0.865228 0 0.000110845)
(0.864115 0 0.000108741)
(0.863023 0 0.0001069)
(0.861949 0 0.000104951)
(0.860896 0 0.000103162)
(0.85986 0 0.000101447)
(0.858842 0 9.96414e-05)
(0.857843 0 9.80484e-05)
(0.856859 0 9.63651e-05)
(0.855894 0 9.46945e-05)
(0.854944 0 9.33107e-05)
(0.854008 0 9.1712e-05)
(0.85309 0 9.02931e-05)
(0.852185 0 8.88892e-05)
(0.851295 0 8.74184e-05)
(0.850419 0 8.6151e-05)
(0.849556 0 8.47637e-05)
(0.848708 0 8.34627e-05)
(0.847872 0 8.23242e-05)
(0.847048 0 8.09888e-05)
(0.846238 0 7.98437e-05)
(0.845439 0 7.86887e-05)
(0.844652 0 7.74641e-05)
(0.843878 0 7.64226e-05)
(0.843113 0 7.53071e-05)
(0.84236 0 7.42374e-05)
(0.841618 0 7.32518e-05)
(0.840886 0 7.21753e-05)
(0.840165 0 7.1191e-05)
(0.839453 0 7.02609e-05)
(0.838751 0 6.92181e-05)
(0.83806 0 6.83439e-05)
(0.837377 0 6.7435e-05)
(0.836704 0 6.64972e-05)
(0.83604 0 6.56787e-05)
(0.835384 0 6.47955e-05)
(0.834737 0 6.39323e-05)
(0.834099 0 6.31378e-05)
(0.833469 0 6.22864e-05)
(0.832848 0 6.14923e-05)
(0.832234 0 6.074e-05)
(0.831628 0 5.9926e-05)
(0.831031 0 5.91854e-05)
(0.83044 0 5.84709e-05)
(0.829857 0 5.77115e-05)
(0.829282 0 5.70049e-05)
(0.828713 0 5.63151e-05)
(0.828152 0 5.55498e-05)
(0.827599 0 5.48684e-05)
(0.827052 0 5.41475e-05)
(0.826513 0 5.34549e-05)
(0.825979 0 5.28769e-05)
(0.825452 0 5.23133e-05)
(0.824929 0 5.1825e-05)
(0.824411 0 5.14562e-05)
(0.823896 0 5.10735e-05)
(0.823386 0 5.06986e-05)
(0.822879 0 5.03459e-05)
(0.822376 0 4.99084e-05)
(0.821878 0 4.94132e-05)
(0.821385 0 4.88719e-05)
(0.820898 0 4.82317e-05)
(0.820419 0 4.75449e-05)
(0.819947 0 4.68275e-05)
(0.819482 0 4.60494e-05)
(0.819026 0 4.52951e-05)
(0.818577 0 4.45708e-05)
(0.818135 0 4.38516e-05)
(0.8177 0 4.32223e-05)
(0.817271 0 4.26777e-05)
(0.816847 0 4.21776e-05)
(0.816428 0 4.17692e-05)
(0.816012 0 4.14298e-05)
(0.815599 0 4.11149e-05)
(0.815189 0 4.08564e-05)
(0.814781 0 4.0611e-05)
(0.814376 0 4.03505e-05)
(0.813974 0 4.01015e-05)
(0.813574 0 3.98264e-05)
(0.813177 0 3.94991e-05)
(0.812784 0 3.91658e-05)
(0.812394 0 3.88005e-05)
(0.812008 0 3.83903e-05)
(0.811626 0 3.79796e-05)
(0.811248 0 3.75656e-05)
(0.810875 0 3.71306e-05)
(0.810506 0 3.67149e-05)
(0.810142 0 3.63082e-05)
(0.809781 0 3.59029e-05)
(0.809424 0 3.55238e-05)
(0.809071 0 3.51593e-05)
(0.808722 0 3.47928e-05)
(0.808376 0 3.44603e-05)
(0.808033 0 3.414e-05)
(0.807694 0 3.38145e-05)
(0.807358 0 3.35059e-05)
(0.807024 0 3.32149e-05)
(0.806694 0 3.29105e-05)
(0.806367 0 3.26132e-05)
(0.806043 0 3.23217e-05)
(0.805721 0 3.20269e-05)
(0.805403 0 3.17353e-05)
(0.805088 0 3.14527e-05)
(0.804775 0 3.11566e-05)
(0.804465 0 3.08744e-05)
(0.804159 0 3.05993e-05)
(0.803855 0 3.03136e-05)
(0.803553 0 3.00284e-05)
(0.803255 0 2.97651e-05)
(0.802959 0 2.94908e-05)
(0.802666 0 2.92213e-05)
(0.802376 0 2.89632e-05)
(0.802088 0 2.8707e-05)
(0.801803 0 2.8449e-05)
(0.801521 0 2.82032e-05)
(0.801241 0 2.7951e-05)
(0.800963 0 2.77008e-05)
(0.800688 0 2.74627e-05)
(0.800415 0 2.72256e-05)
(0.800145 0 2.69781e-05)
(0.799877 0 2.67536e-05)
(0.799611 0 2.65235e-05)
(0.799347 0 2.62954e-05)
(0.799086 0 2.60659e-05)
(0.798827 0 2.58498e-05)
(0.798571 0 2.56222e-05)
(0.798316 0 2.54099e-05)
(0.798064 0 2.51902e-05)
(0.797814 0 2.49805e-05)
(0.797566 0 2.47641e-05)
(0.79732 0 2.45679e-05)
(0.797076 0 2.43516e-05)
(0.796834 0 2.41533e-05)
(0.796595 0 2.39492e-05)
(0.796356 0 2.37589e-05)
(0.796121 0 2.35497e-05)
(0.795887 0 2.33658e-05)
(0.795655 0 2.31676e-05)
(0.795425 0 2.29816e-05)
(0.795197 0 2.27866e-05)
(0.79497 0 2.2608e-05)
(0.794747 0 2.24104e-05)
(0.794524 0 2.2239e-05)
(0.794303 0 2.20475e-05)
(0.794084 0 2.18764e-05)
(0.793867 0 2.16881e-05)
(0.793652 0 2.15277e-05)
(0.793438 0 2.13385e-05)
(0.793226 0 2.11793e-05)
(0.793017 0 2.09964e-05)
(0.792807 0 2.08426e-05)
(0.792601 0 2.06569e-05)
(0.792396 0 2.05092e-05)
(0.792193 0 2.03301e-05)
(0.79199 0 2.01835e-05)
(0.791791 0 2.00066e-05)
(0.791591 0 1.98661e-05)
(0.791395 0 1.96881e-05)
(0.791199 0 1.95515e-05)
(0.791006 0 1.9376e-05)
(0.790812 0 1.92417e-05)
(0.790623 0 1.9065e-05)
(0.790432 0 1.89418e-05)
(0.790246 0 1.87661e-05)
(0.790058 0 1.86458e-05)
(0.789874 0 1.84697e-05)
(0.78969 0 1.8362e-05)
(0.789509 0 1.81799e-05)
(0.789327 0 1.80788e-05)
(0.789149 0 1.78958e-05)
(0.78897 0 1.78032e-05)
(0.788795 0 1.76163e-05)
(0.788619 0 1.75349e-05)
(0.788446 0 1.73421e-05)
(0.788273 0 1.72705e-05)
(0.788103 0 1.70727e-05)
(0.787932 0 1.70141e-05)
(0.787765 0 1.68023e-05)
(0.787596 0 1.67586e-05)
(0.787432 0 1.65406e-05)
(0.787266 0 1.65119e-05)
(0.787104 0 1.62806e-05)
(0.786941 0 1.62692e-05)
(0.78678 0 1.6026e-05)
(0.786621 0 1.60325e-05)
(0.786462 0 1.57732e-05)
(0.786306 0 1.57994e-05)
(0.786149 0 1.5519e-05)
(0.785995 0 1.55737e-05)
(0.78584 0 1.52733e-05)
(0.78569 0 1.53521e-05)
(0.785535 0 1.50309e-05)
(0.785389 0 1.5137e-05)
(0.785235 0 1.47959e-05)
(0.785093 0 1.49257e-05)
(0.784939 0 1.4564e-05)
(0.784802 0 1.47204e-05)
(0.784647 0 1.43392e-05)
(0.784515 0 1.45214e-05)
(0.784359 0 1.41245e-05)
(0.784232 0 1.43242e-05)
(0.784075 0 1.39209e-05)
(0.783954 0 1.41281e-05)
(0.783795 0 1.37327e-05)
(0.78368 0 1.39309e-05)
(0.783519 0 1.35638e-05)
(0.783409 0 1.37389e-05)
(0.783245 0 1.34275e-05)
(0.783142 0 1.35536e-05)
(0.782975 0 1.33365e-05)
(0.782878 0 1.33789e-05)
(0.782708 0 1.32987e-05)
(0.782615 0 1.32246e-05)
(0.782443 0 1.33271e-05)
(0.782353 0 1.31353e-05)
(0.78218 0 1.33377e-05)
(0.782092 0 1.3445e-05)
(0.781911 0 1.26789e-05)
(0.781839 0 1.36018e-05)
(0.781629 0 1.17064e-05)
(0.781617 0 1.00436e-05)
(0.781362 0 1.52896e-05)
(0.781437 0 8.10251e-06)
(0.781003 0 5.69106e-05)
(1.81929 0 0.0517661)
(1.81904 0 0.0393092)
(1.77529 0 0.0256075)
(1.68193 0 0.0157438)
(1.59188 0 0.0106345)
(1.51468 0 0.00790672)
(1.45128 0 0.00619257)
(1.39989 0 0.00506979)
(1.35846 0 0.00423188)
(1.32433 0 0.00358881)
(1.29547 0 0.00310831)
(1.27103 0 0.00273337)
(1.24967 0 0.00241233)
(1.23111 0 0.00213673)
(1.21458 0 0.00192902)
(1.19959 0 0.00175304)
(1.18614 0 0.00160235)
(1.17387 0 0.00146431)
(1.16278 0 0.00134297)
(1.15251 0 0.00124616)
(1.143 0 0.00116458)
(1.13417 0 0.00108959)
(1.12597 0 0.00102028)
(1.11831 0 0.000956016)
(1.11115 0 0.000901276)
(1.10438 0 0.000852215)
(1.09802 0 0.000806755)
(1.09201 0 0.000765747)
(1.08633 0 0.000724767)
(1.08095 0 0.000690677)
(1.07582 0 0.000658447)
(1.07096 0 0.000629803)
(1.0663 0 0.000602345)
(1.06187 0 0.000576235)
(1.05763 0 0.000551839)
(1.05358 0 0.000530097)
(1.04968 0 0.000510426)
(1.04594 0 0.00049069)
(1.04235 0 0.000473745)
(1.03889 0 0.000455434)
(1.03557 0 0.000440036)
(1.03235 0 0.000425069)
(1.02926 0 0.000411178)
(1.02626 0 0.000398472)
(1.02337 0 0.000385382)
(1.02057 0 0.000373513)
(1.01787 0 0.000361601)
(1.01524 0 0.000351724)
(1.0127 0 0.000341331)
(1.01023 0 0.000331935)
(1.00783 0 0.000322931)
(1.0055 0 0.000313591)
(1.00324 0 0.000305398)
(1.00103 0 0.000297247)
(0.998892 0 0.000289902)
(0.996802 0 0.00028271)
(0.994771 0 0.000275727)
(0.992789 0 0.0002691)
(0.99086 0 0.000262158)
(0.988981 0 0.000255932)
(0.987146 0 0.000249891)
(0.985357 0 0.000243978)
(0.983609 0 0.000238536)
(0.981902 0 0.000233153)
(0.980235 0 0.000227875)
(0.978606 0 0.000222951)
(0.977013 0 0.00021828)
(0.975454 0 0.000213791)
(0.973927 0 0.000209472)
(0.972433 0 0.000205157)
(0.97097 0 0.000201021)
(0.969538 0 0.000196986)
(0.968134 0 0.000193155)
(0.966759 0 0.000189658)
(0.965408 0 0.000185942)
(0.964086 0 0.000182491)
(0.962787 0 0.00017918)
(0.961514 0 0.000175763)
(0.960265 0 0.000172732)
(0.959038 0 0.000169577)
(0.957834 0 0.000166636)
(0.95665 0 0.000163836)
(0.955488 0 0.000160904)
(0.954347 0 0.00015828)
(0.953224 0 0.000155563)
(0.952122 0 0.000152846)
(0.951039 0 0.000150557)
(0.949972 0 0.000147988)
(0.948924 0 0.000145655)
(0.947893 0 0.000143375)
(0.946878 0 0.000140991)
(0.945881 0 0.000138907)
(0.944898 0 0.000136677)
(0.943932 0 0.00013455)
(0.94298 0 0.000132681)
(0.942042 0 0.000130542)
(0.941121 0 0.000128656)
(0.940211 0 0.000126787)
(0.939316 0 0.00012481)
(0.938435 0 0.000123098)
(0.937566 0 0.000121301)
(0.93671 0 0.000119559)
(0.935867 0 0.000117951)
(0.935035 0 0.000116221)
(0.934215 0 0.000114611)
(0.933407 0 0.000113099)
(0.93261 0 0.000111427)
(0.931825 0 0.000109988)
(0.93105 0 0.000108521)
(0.930286 0 0.000107006)
(0.929532 0 0.000105665)
(0.928788 0 0.000104245)
(0.928054 0 0.000102846)
(0.92733 0 0.000101552)
(0.926616 0 0.000100183)
(0.925911 0 9.8889e-05)
(0.925216 0 9.76669e-05)
(0.924529 0 9.63616e-05)
(0.923851 0 9.51556e-05)
(0.923182 0 9.39987e-05)
(0.922522 0 9.27792e-05)
(0.92187 0 9.16288e-05)
(0.921226 0 9.05121e-05)
(0.92059 0 8.92877e-05)
(0.919963 0 8.81821e-05)
(0.919343 0 8.70367e-05)
(0.918732 0 8.59307e-05)
(0.918128 0 8.50025e-05)
(0.91753 0 8.41131e-05)
(0.916937 0 8.33328e-05)
(0.91635 0 8.27313e-05)
(0.915767 0 8.2118e-05)
(0.915188 0 8.15042e-05)
(0.914614 0 8.09145e-05)
(0.914045 0 8.01954e-05)
(0.913482 0 7.93747e-05)
(0.912925 0 7.84762e-05)
(0.912376 0 7.74278e-05)
(0.911835 0 7.63006e-05)
(0.911302 0 7.51302e-05)
(0.910778 0 7.38749e-05)
(0.910263 0 7.26547e-05)
(0.909756 0 7.14912e-05)
(0.909257 0 7.03475e-05)
(0.908766 0 6.93415e-05)
(0.908281 0 6.84756e-05)
(0.907802 0 6.7688e-05)
(0.907328 0 6.70399e-05)
(0.906857 0 6.65026e-05)
(0.90639 0 6.60059e-05)
(0.905927 0 6.55897e-05)
(0.905466 0 6.51957e-05)
(0.905008 0 6.47761e-05)
(0.904553 0 6.43668e-05)
(0.904101 0 6.39184e-05)
(0.903653 0 6.33889e-05)
(0.903209 0 6.28427e-05)
(0.902769 0 6.22499e-05)
(0.902333 0 6.15887e-05)
(0.901902 0 6.09222e-05)
(0.901476 0 6.0253e-05)
(0.901055 0 5.9555e-05)
(0.900639 0 5.88841e-05)
(0.900228 0 5.82311e-05)
(0.899821 0 5.75821e-05)
(0.899418 0 5.69725e-05)
(0.89902 0 5.63881e-05)
(0.898626 0 5.58028e-05)
(0.898235 0 5.52659e-05)
(0.897849 0 5.47512e-05)
(0.897466 0 5.42304e-05)
(0.897087 0 5.37331e-05)
(0.896711 0 5.32626e-05)
(0.896338 0 5.27753e-05)
(0.895969 0 5.22962e-05)
(0.895604 0 5.18265e-05)
(0.895241 0 5.13522e-05)
(0.894882 0 5.08821e-05)
(0.894527 0 5.04258e-05)
(0.894174 0 4.99516e-05)
(0.893825 0 4.94953e-05)
(0.893479 0 4.9052e-05)
(0.893137 0 4.85947e-05)
(0.892797 0 4.81368e-05)
(0.892461 0 4.77105e-05)
(0.892128 0 4.72718e-05)
(0.891797 0 4.68382e-05)
(0.89147 0 4.64226e-05)
(0.891146 0 4.60107e-05)
(0.890825 0 4.55972e-05)
(0.890506 0 4.52007e-05)
(0.890191 0 4.47973e-05)
(0.889878 0 4.43951e-05)
(0.889568 0 4.40111e-05)
(0.88926 0 4.36301e-05)
(0.888956 0 4.32347e-05)
(0.888654 0 4.28705e-05)
(0.888355 0 4.25022e-05)
(0.888058 0 4.21358e-05)
(0.887764 0 4.17683e-05)
(0.887472 0 4.14194e-05)
(0.887183 0 4.10561e-05)
(0.886896 0 4.07128e-05)
(0.886612 0 4.03618e-05)
(0.88633 0 4.00237e-05)
(0.886051 0 3.96778e-05)
(0.885774 0 3.93597e-05)
(0.8855 0 3.90165e-05)
(0.885227 0 3.86956e-05)
(0.884958 0 3.83694e-05)
(0.884689 0 3.80615e-05)
(0.884424 0 3.77294e-05)
(0.884161 0 3.74298e-05)
(0.8839 0 3.71144e-05)
(0.88364 0 3.68133e-05)
(0.883384 0 3.65027e-05)
(0.883129 0 3.62133e-05)
(0.882877 0 3.59e-05)
(0.882626 0 3.56206e-05)
(0.882378 0 3.53173e-05)
(0.882131 0 3.50392e-05)
(0.881887 0 3.47405e-05)
(0.881644 0 3.44782e-05)
(0.881405 0 3.41802e-05)
(0.881166 0 3.39198e-05)
(0.88093 0 3.36311e-05)
(0.880694 0 3.33795e-05)
(0.880462 0 3.30877e-05)
(0.880231 0 3.28442e-05)
(0.880003 0 3.25629e-05)
(0.879775 0 3.23218e-05)
(0.87955 0 3.2044e-05)
(0.879326 0 3.1812e-05)
(0.879105 0 3.15337e-05)
(0.878884 0 3.13073e-05)
(0.878667 0 3.10335e-05)
(0.87845 0 3.08107e-05)
(0.878236 0 3.05354e-05)
(0.878022 0 3.03283e-05)
(0.877812 0 3.0056e-05)
(0.877601 0 2.98537e-05)
(0.877394 0 2.95814e-05)
(0.877186 0 2.93972e-05)
(0.876983 0 2.91181e-05)
(0.876778 0 2.8943e-05)
(0.876578 0 2.86632e-05)
(0.876377 0 2.85005e-05)
(0.87618 0 2.82161e-05)
(0.875982 0 2.80694e-05)
(0.875788 0 2.77774e-05)
(0.875592 0 2.76447e-05)
(0.875401 0 2.73463e-05)
(0.875209 0 2.72326e-05)
(0.875021 0 2.6915e-05)
(0.874832 0 2.68219e-05)
(0.874646 0 2.64963e-05)
(0.87446 0 2.64251e-05)
(0.874277 0 2.60811e-05)
(0.874095 0 2.60349e-05)
(0.873914 0 2.56742e-05)
(0.873734 0 2.56542e-05)
(0.873556 0 2.52705e-05)
(0.87338 0 2.52797e-05)
(0.873203 0 2.48652e-05)
(0.873031 0 2.49159e-05)
(0.872856 0 2.44728e-05)
(0.872687 0 2.45595e-05)
(0.872513 0 2.40854e-05)
(0.872349 0 2.42133e-05)
(0.872176 0 2.37095e-05)
(0.872016 0 2.38742e-05)
(0.871843 0 2.33387e-05)
(0.871689 0 2.35451e-05)
(0.871515 0 2.29785e-05)
(0.871366 0 2.32259e-05)
(0.871191 0 2.26332e-05)
(0.871048 0 2.29105e-05)
(0.870872 0 2.2304e-05)
(0.870735 0 2.25978e-05)
(0.870557 0 2.19972e-05)