/*--------------------------------*- C++ -*----------------------------------*\
| =========                 |                                                 |
| \\      /  F ield         | foam-extend: Open Source CFD                    |
|  \\    /   O peration     | Version:     3.2                                |
|   \\  /    A nd           | Web:         http://www.foam-extend.org         |
|    \\/     M anipulation  | For copyright notice see file Copyright         |
\*---------------------------------------------------------------------------*/
FoamFile
{
    version     2.0;
    format      ascii;
    class       areaScalarField;
    location    "37";
    object      Uf;
}
// * * * * * * * * * * * * * * * * * * * * * * * * * * * * * * * * * * * * * //

dimensions      [0 1 -1 0 0 0 0];

internalField   nonuniform List<scalar> 
300
(
0.231291
0.206404
0.171915
0.155785
0.149252
0.14571
0.143089
0.140756
0.138574
0.136563
0.134743
0.133095
0.131587
0.130226
0.128989
0.127854
0.126807
0.125833
0.124935
0.12411
0.123338
0.12261
0.121921
0.121271
0.120659
0.120076
0.119523
0.118994
0.118491
0.118012
0.117554
0.117115
0.116693
0.116288
0.115899
0.115526
0.115165
0.114818
0.114482
0.114157
0.113845
0.113541
0.113248
0.112963
0.112687
0.112419
0.112159
0.111906
0.11166
0.111421
0.111188
0.110961
0.110741
0.110525
0.110316
0.11011
0.10991
0.109714
0.109521
0.109333
0.109149
0.108969
0.108793
0.10862
0.108452
0.108287
0.108126
0.107968
0.107812
0.10766
0.107511
0.107365
0.107222
0.107081
0.106943
0.106808
0.106674
0.106544
0.106415
0.106289
0.106165
0.106043
0.105924
0.105806
0.10569
0.105576
0.105464
0.105353
0.105245
0.105138
0.105032
0.104929
0.104827
0.104726
0.104627
0.10453
0.104434
0.104339
0.104245
0.104153
0.104063
0.103973
0.103885
0.103798
0.103712
0.103628
0.103544
0.103462
0.103381
0.1033
0.103221
0.103143
0.103066
0.10299
0.102915
0.102841
0.102767
0.102695
0.102624
0.102553
0.102483
0.102415
0.102346
0.102279
0.102213
0.102147
0.102082
0.102018
0.101954
0.101891
0.101829
0.101767
0.101706
0.101646
0.101586
0.101528
0.101469
0.101412
0.101355
0.1013
0.101244
0.10119
0.101136
0.101083
0.10103
0.100978
0.100927
0.100876
0.100825
0.100775
0.100725
0.100675
0.100626
0.100578
0.10053
0.100482
0.100435
0.100388
0.100342
0.100297
0.100251
0.100207
0.100162
0.100119
0.100075
0.100032
0.0999898
0.0999477
0.099906
0.0998647
0.0998238
0.0997833
0.0997431
0.0997033
0.0996639
0.0996248
0.0995861
0.0995477
0.0995097
0.0994721
0.0994348
0.0993978
0.0993612
0.0993249
0.0992889
0.0992532
0.0992179
0.0991829
0.0991482
0.0991138
0.0990797
0.0990459
0.0990124
0.0989792
0.0989463
0.0989137
0.0988813
0.0988493
0.0988174
0.0987859
0.0987547
0.0987237
0.0986929
0.0986625
0.0986323
0.0986023
0.0985726
0.0985432
0.098514
0.098485
0.0984563
0.0984278
0.0983995
0.0983716
0.0983437
0.0983162
0.0982889
0.0982618
0.0982349
0.0982082
0.0981818
0.0981556
0.0981295
0.0981037
0.0980781
0.0980527
0.0980275
0.0980026
0.0979777
0.0979532
0.0979287
0.0979046
0.0978805
0.0978568
0.0978331
0.0978097
0.0977864
0.0977634
0.0977404
0.0977178
0.0976952
0.0976729
0.0976506
0.0976287
0.0976068
0.0975852
0.0975636
0.0975424
0.0975211
0.0975002
0.0974793
0.0974587
0.0974381
0.0974178
0.0973975
0.0973775
0.0973576
0.0973379
0.0973182
0.0972988
0.0972795
0.0972603
0.0972414
0.0972225
0.0972038
0.0971851
0.0971668
0.0971483
0.0971304
0.0971121
0.0970946
0.0970764
0.0970593
0.0970412
0.0970245
0.0970065
0.0969903
0.0969723
0.0969566
0.0969385
0.0969233
0.0969052
0.0968905
0.0968723
0.0968582
0.0968398
0.0968261
0.0968076
0.0967943
0.0967757
0.0967626
0.096744
0.0967309
0.0967118
0.096701
0.0966786
0.0966766
0.0966446
0.0966563
0.096594
)
;

boundaryField
{
    inlet
    {
        type            calculated;
        value           uniform 0;
    }
    outlet
    {
        type            calculated;
        value           uniform 0;
    }
    sideWall
    {
        type            empty;
    }
}


// ************************************************************************* //
