/*--------------------------------*- C++ -*----------------------------------*\
| =========                 |                                                 |
| \\      /  F ield         | foam-extend: Open Source CFD                    |
|  \\    /   O peration     | Version:     3.2                                |
|   \\  /    A nd           | Web:         http://www.foam-extend.org         |
|    \\/     M anipulation  | For copyright notice see file Copyright         |
\*---------------------------------------------------------------------------*/
FoamFile
{
    version     2.0;
    format      ascii;
    class       volScalarField;
    location    "300";
    object      pd;
}
// * * * * * * * * * * * * * * * * * * * * * * * * * * * * * * * * * * * * * //

dimensions      [1 -1 -2 0 0 0 0];

internalField   nonuniform List<scalar> 
96000
(
384.11
250.842
229.574
232.139
230.522
228.676
226.657
224.557
222.261
220.239
218.482
216.738
215.188
213.707
212.312
211.006
209.692
208.463
207.251
206.098
204.941
203.805
202.682
201.588
200.502
199.429
198.367
197.309
196.28
195.24
194.226
193.203
192.199
191.196
190.207
189.219
188.237
187.265
186.288
185.334
184.369
183.421
182.471
181.527
180.591
179.656
178.731
177.802
176.886
175.967
175.056
174.15
173.245
172.348
171.45
170.559
169.67
168.785
167.904
167.025
166.152
165.282
164.414
163.551
162.691
161.834
160.98
160.129
159.281
158.435
157.593
156.754
155.917
155.083
154.252
153.423
152.597
151.774
150.952
150.135
149.318
148.505
147.693
146.884
146.078
145.273
144.47
143.671
142.873
142.077
141.284
140.492
139.703
138.915
138.129
137.346
136.564
135.784
135.006
134.23
133.456
132.684
131.913
131.144
130.377
129.612
128.848
128.086
127.326
126.567
125.81
125.054
124.3
123.548
122.797
122.048
121.3
120.554
119.809
119.065
118.324
117.583
116.844
116.106
115.37
114.635
113.901
113.169
112.438
111.709
110.98
110.253
109.527
108.803
108.08
107.358
106.637
105.917
105.199
104.482
103.766
103.051
102.337
101.624
100.913
100.202
99.4933
98.7851
98.078
97.3721
96.6671
95.9633
95.2606
94.5588
93.8581
93.1586
92.4599
91.7623
91.0658
90.3702
89.6756
88.982
88.2893
87.5976
86.9069
86.2171
85.5282
84.8403
84.1533
83.4672
82.7821
82.0978
81.4143
80.7319
80.0503
79.3696
78.6897
78.0106
77.3324
76.6552
75.9787
75.3031
74.6283
73.9543
73.2811
72.6088
71.9372
71.2664
70.5964
69.9273
69.2589
68.5913
67.9244
67.2584
66.593
65.9285
65.2646
64.6016
63.9392
63.2777
62.6167
61.9567
61.2972
60.6386
59.9805
59.3233
58.6666
58.0109
57.3555
56.7012
56.0472
55.3942
54.7416
54.0899
53.4387
52.7883
52.1384
51.4895
50.8407
50.1931
49.5456
48.8993
48.2531
47.6081
46.9631
46.3193
45.6756
45.0331
44.3906
43.7493
43.108
42.4679
41.8277
41.1889
40.5499
39.9123
39.2744
38.6381
38.0013
37.3661
36.7304
36.0964
35.4618
34.829
34.1954
33.5639
32.9313
32.3009
31.6693
31.0401
30.4095
29.7815
29.1519
28.5251
27.8964
27.2708
26.643
26.0186
25.3917
24.7684
24.1425
23.5204
22.8953
22.2744
21.6502
21.0304
20.4071
19.7884
19.1661
18.5485
17.9273
17.3106
16.6905
16.0748
15.4558
14.8411
14.2234
13.6094
12.9934
12.38
11.7658
11.1529
10.5408
9.92826
9.31869
8.70639
8.0998
7.48773
6.88447
6.27293
5.67337
5.06309
4.467
3.8577
3.26755
2.6261
2.09931
1.29277
1.03471
-0.210961
381.079
251.946
230.351
232.497
230.729
228.838
226.774
224.65
222.336
220.298
218.533
216.782
215.226
213.74
212.342
211.033
209.716
208.485
207.273
206.119
204.961
203.824
202.7
201.605
200.518
199.444
198.381
197.322
196.292
195.252
194.237
193.213
192.209
191.205
190.216
189.227
188.245
187.272
186.296
185.341
184.376
183.428
182.477
181.534
180.597
179.662
178.736
177.807
176.891
175.972
175.061
174.155
173.25
172.352
171.454
170.563
169.674
168.789
167.908
167.029
166.156
165.285
164.418
163.555
162.695
161.837
160.983
160.132
159.284
158.438
157.596
156.757
155.92
155.085
154.255
153.426
152.6
151.777
150.955
150.137
149.32
148.507
147.696
146.886
146.08
145.276
144.472
143.673
142.875
142.079
141.286
140.494
139.704
138.917
138.131
137.348
136.565
135.786
135.008
134.232
133.458
132.685
131.915
131.146
130.379
129.613
128.85
128.087
127.327
126.568
125.811
125.056
124.302
123.549
122.799
122.049
121.301
120.555
119.81
119.067
118.325
117.584
116.845
116.108
115.371
114.636
113.903
113.17
112.439
111.71
110.981
110.254
109.528
108.804
108.081
107.359
106.638
105.918
105.2
104.483
103.767
103.052
102.338
101.625
100.914
100.203
99.4942
98.786
98.0789
97.373
96.668
95.9642
95.2614
94.5597
93.859
93.1594
92.4607
91.7632
91.0666
90.371
89.6764
88.9828
88.29
87.5984
86.9077
86.2178
85.529
84.8411
84.154
83.4679
82.7828
82.0985
81.4151
80.7326
80.051
79.3702
78.6903
78.0113
77.3331
76.6559
75.9793
75.3037
74.6289
73.955
73.2817
72.6094
71.9378
71.2671
70.597
69.9279
69.2595
68.5919
67.925
67.2589
66.5936
65.9291
65.2651
64.6021
63.9398
63.2782
62.6173
61.9572
61.2977
60.6391
59.981
59.3238
58.6671
58.0114
57.356
56.7017
56.0477
55.3947
54.7421
54.0904
53.4391
52.7888
52.1389
51.4899
50.8412
50.1936
49.5461
48.8998
48.2536
47.6085
46.9636
46.3198
45.676
45.0335
44.391
43.7497
43.1084
42.4683
41.8281
41.1893
40.5503
39.9127
39.2749
38.6385
38.0017
37.3665
36.7308
36.0968
35.4622
34.8294
34.1958
33.5643
32.9317
32.3013
31.6697
31.0405
30.4099
29.7819
29.1523
28.5255
27.8968
27.2712
26.6433
26.0189
25.392
24.7688
24.1428
23.5207
22.8956
22.2747
21.6505
21.0307
20.4074
19.7887
19.1665
18.5488
17.9276
17.3109
16.6908
16.0751
15.4561
14.8414
14.2237
13.6097
12.9937
12.3803
11.766
11.1531
10.5411
9.92853
9.31896
8.70666
8.10007
7.48801
6.88474
6.27321
5.67363
5.06338
4.46727
3.85799
3.26781
2.62645
2.09948
1.29313
1.03492
-0.185891
375.645
253.335
231.556
233.237
231.184
229.147
227.004
224.824
222.477
220.42
218.639
216.875
215.308
213.812
212.406
211.091
209.768
208.533
207.316
206.159
204.997
203.858
202.732
201.634
200.545
199.47
198.405
197.345
196.314
195.273
194.257
193.232
192.227
191.222
190.232
189.243
188.26
187.287
186.31
185.354
184.389
183.44
182.489
181.545
180.608
179.672
178.747
177.817
176.901
175.981
175.07
174.164
173.259
172.36
171.462
170.571
169.682
168.796
167.915
167.036
166.163
165.292
164.424
163.561
162.701
161.843
160.989
160.137
159.289
158.444
157.602
156.762
155.925
155.09
154.26
153.431
152.604
151.781
150.959
150.142
149.325
148.511
147.7
146.89
146.084
145.28
144.476
143.677
142.878
142.083
141.289
140.497
139.708
138.92
138.134
137.351
136.569
135.789
135.011
134.235
133.461
132.688
131.918
131.149
130.382
129.616
128.853
128.09
127.33
126.571
125.814
125.058
124.304
123.552
122.801
122.052
121.304
120.558
119.812
119.069
118.327
117.587
116.847
116.11
115.373
114.638
113.905
113.172
112.442
111.712
110.983
110.256
109.531
108.806
108.083
107.361
106.64
105.92
105.202
104.484
103.768
103.053
102.34
101.627
100.916
100.205
99.4959
98.7877
98.0806
97.3747
96.6697
95.9659
95.2631
94.5613
93.8606
93.161
92.4623
91.7647
91.0682
90.3725
89.6779
88.9843
88.2915
87.5998
86.9091
86.2193
85.5304
84.8425
84.1554
83.4693
82.7842
82.0998
81.4164
80.734
80.0523
79.3715
78.6916
78.0126
77.3344
76.6571
75.9805
75.3049
74.6301
73.9561
73.2829
72.6106
71.939
71.2682
70.5982
69.929
69.2606
68.593
67.9261
67.26
66.5946
65.9301
65.2662
64.6032
63.9408
63.2793
62.6183
61.9583
61.2987
60.6401
59.982
59.3248
58.6681
58.0123
57.357
56.7026
56.0486
55.3957
54.743
54.0913
53.44
52.7897
52.1398
51.4908
50.8421
50.1944
49.547
48.9006
48.2544
47.6094
46.9644
46.3206
45.6769
45.0343
44.3918
43.7505
43.1092
42.4691
41.8289
41.1901
40.5511
39.9135
39.2756
38.6392
38.0024
37.3672
36.7315
36.0975
35.4629
34.8301
34.1965
33.5649
32.9323
32.302
31.6704
31.0412
30.4106
29.7826
29.1529
28.5261
27.8974
27.2718
26.644
26.0196
25.3927
24.7694
24.1434
23.5213
22.8963
22.2753
21.6511
21.0313
20.408
19.7893
19.167
18.5494
17.9281
17.3115
16.6913
16.0757
15.4567
14.8419
14.2243
13.6102
12.9942
12.3808
11.7666
11.1537
10.5416
9.92905
9.31949
8.70718
8.10058
7.48853
6.88525
6.27372
5.67414
5.06389
4.46779
3.85849
3.26834
2.62698
2.09998
1.29325
1.03574
-0.193927
370.28
254.773
232.976
233.827
231.528
229.402
227.216
225.001
222.631
220.553
218.75
216.972
215.395
213.891
212.478
211.156
209.827
208.587
207.366
206.205
205.04
203.897
202.768
201.669
200.578
199.5
198.434
197.372
196.34
195.297
194.28
193.254
192.248
191.242
190.252
189.261
188.277
187.303
186.326
185.37
184.404
183.454
182.503
181.558
180.621
179.685
178.759
177.829
176.912
175.992
175.081
174.174
173.269
172.37
171.472
170.58
169.691
168.805
167.924
167.044
166.171
165.3
164.432
163.568
162.708
161.85
160.996
160.144
159.296
158.45
157.608
156.768
155.931
155.096
154.266
153.436
152.61
151.787
150.965
150.147
149.33
148.516
147.705
146.895
146.089
145.284
144.481
143.682
142.883
142.087
141.294
140.501
139.712
138.924
138.138
137.355
136.573
135.793
135.015
134.239
133.465
132.692
131.921
131.152
130.385
129.619
128.856
128.093
127.333
126.574
125.817
125.062
124.307
123.555
122.804
122.055
121.307
120.56
119.815
119.072
118.33
117.589
116.85
116.113
115.376
114.641
113.907
113.175
112.444
111.714
110.986
110.259
109.533
108.808
108.085
107.363
106.642
105.922
105.204
104.487
103.771
103.056
102.342
101.629
100.918
100.207
99.4979
98.7897
98.0826
97.3766
96.6716
95.9678
95.2649
94.5631
93.8624
93.1628
92.4641
91.7665
91.0699
90.3742
89.6796
88.986
88.2932
87.6015
86.9108
86.2209
85.532
84.8441
84.157
83.4709
82.7857
82.1014
81.4179
80.7355
80.0538
79.373
78.6931
78.014
77.3358
76.6585
75.982
75.3063
74.6315
73.9575
73.2842
72.6119
71.9403
71.2695
70.5995
69.9303
69.2619
68.5943
67.9274
67.2613
66.5959
65.9314
65.2674
64.6044
63.942
63.2805
62.6195
61.9594
61.2999
60.6413
59.9831
59.3259
58.6692
58.0135
57.3581
56.7037
56.0497
55.3967
54.744
54.0924
53.4411
52.7908
52.1408
51.4918
50.8431
50.1954
49.548
48.9016
48.2554
47.6103
46.9653
46.3215
45.6778
45.0353
44.3927
43.7514
43.1101
42.47
41.8298
41.191
40.552
39.9144
39.2765
38.6401
38.0033
37.3681
36.7324
36.0984
35.4637
34.8309
34.1973
33.5658
32.9332
32.3028
31.6712
31.042
30.4113
29.7833
29.1537
28.5269
27.8982
27.2725
26.6447
26.0203
25.3934
24.7701
24.1441
23.522
22.897
22.276
21.6518
21.032
20.4087
19.79
19.1677
18.5501
17.9288
17.3122
16.692
16.0763
15.4574
14.8425
14.2249
13.6109
12.9948
12.3814
11.7672
11.1543
10.5422
9.92966
9.32009
8.70778
8.10118
7.48912
6.88583
6.27431
5.67472
5.06446
4.4684
3.85907
3.26894
2.62771
2.10058
1.29335
1.03688
-0.195686
365.537
255.359
234.572
234.42
231.78
229.563
227.367
225.153
222.776
220.686
218.864
217.075
215.491
213.977
212.553
211.223
209.89
208.646
207.42
206.255
205.087
203.941
202.809
201.707
200.614
199.534
198.466
197.403
196.369
195.324
194.306
193.279
192.272
191.265
190.273
189.282
188.298
187.323
186.344
185.387
184.421
183.471
182.518
181.574
180.636
179.699
178.773
177.842
176.925
176.005
175.093
174.186
173.28
172.381
171.482
170.591
169.701
168.815
167.934
167.054
166.18
165.309
164.441
163.577
162.716
161.859
161.004
160.152
159.303
158.458
157.615
156.775
155.938
155.103
154.272
153.443
152.616
151.793
150.971
150.153
149.336
148.522
147.711
146.901
146.094
145.29
144.486
143.687
142.888
142.092
141.299
140.506
139.717
138.929
138.143
137.36
136.577
135.798
135.02
134.243
133.469
132.696
131.925
131.156
130.389
129.623
128.86
128.097
127.337
126.578
125.82
125.065
124.311
123.558
122.808
122.058
121.31
120.564
119.819
119.075
118.333
117.592
116.853
116.116
115.379
114.644
113.91
113.178
112.447
111.717
110.988
110.262
109.536
108.811
108.088
107.366
106.645
105.925
105.206
104.489
103.773
103.058
102.344
101.632
100.92
100.209
99.5002
98.792
98.0848
97.3789
96.6738
95.9699
95.2671
94.5653
93.8645
93.1649
92.4661
91.7685
91.0719
90.3762
89.6816
88.9879
88.2951
87.6034
86.9126
86.2228
85.5339
84.8459
84.1588
83.4727
82.7875
82.1031
81.4197
80.7372
80.0555
79.3747
78.6948
78.0157
77.3375
76.6602
75.9836
75.3079
74.6331
73.9591
73.2858
72.6135
71.9418
71.271
70.601
69.9318
69.2633
68.5957
67.9288
67.2627
66.5973
65.9328
65.2688
64.6058
63.9434
63.2818
62.6208
61.9608
61.3012
60.6426
59.9844
59.3272
58.6705
58.0147
57.3593
56.7049
56.0509
55.3979
54.7453
54.0936
53.4423
52.7919
52.142
51.493
50.8442
50.1966
49.5491
48.9027
48.2565
47.6114
46.9664
46.3226
45.6789
45.0363
44.3938
43.7525
43.1111
42.471
41.8308
41.192
40.553
39.9154
39.2775
38.641
38.0042
37.369
36.7333
36.0993
35.4646
34.8319
34.1982
33.5667
32.9341
32.3037
31.6721
31.0428
30.4122
29.7842
29.1546
28.5277
27.899
27.2734
26.6456
26.0211
25.3942
24.7709
24.145
23.5228
22.8978
22.2768
21.6526
21.0328
20.4095
19.7908
19.1685
18.5508
17.9296
17.3129
16.6928
16.077
15.4581
14.8433
14.2257
13.6116
12.9955
12.3821
11.7679
11.155
10.5429
9.93034
9.32077
8.70845
8.10185
7.48979
6.8865
6.27497
5.67538
5.06511
4.46907
3.85972
3.26962
2.62855
2.10127
1.29342
1.0384
-0.198019
361.218
256.089
235.639
235.011
232.012
229.691
227.473
225.251
222.888
220.798
218.972
217.18
215.589
214.066
212.632
211.295
209.958
208.71
207.478
206.307
205.135
203.987
202.853
201.749
200.653
199.572
198.501
197.436
196.4
195.355
194.335
193.306
192.298
191.29
190.297
189.305
188.32
187.344
186.365
185.407
184.44
183.489
182.536
181.591
180.652
179.715
178.788
177.857
176.939
176.018
175.106
174.199
173.293
172.393
171.494
170.602
169.712
168.826
167.944
167.064
166.19
165.319
164.45
163.587
162.726
161.868
161.012
160.161
159.312
158.466
157.623
156.783
155.946
155.111
154.28
153.45
152.623
151.8
150.978
150.16
149.342
148.528
147.717
146.907
146.1
145.296
144.492
143.693
142.894
142.098
141.304
140.512
139.722
138.934
138.148
137.365
136.582
135.802
135.024
134.248
133.473
132.701
131.93
131.161
130.393
129.628
128.864
128.101
127.341
126.582
125.824
125.069
124.315
123.562
122.811
122.062
121.314
120.567
119.822
119.079
118.337
117.596
116.856
116.119
115.382
114.647
113.913
113.181
112.45
111.72
110.992
110.265
109.539
108.814
108.091
107.368
106.647
105.928
105.209
104.492
103.776
103.061
102.347
101.634
100.923
100.212
99.5027
98.7945
98.0873
97.3813
96.6762
95.9723
95.2694
94.5676
93.8668
93.1672
92.4684
91.7708
91.0742
90.3784
89.6837
88.9901
88.2973
87.6055
86.9147
86.2248
85.5359
84.8479
84.1608
83.4747
82.7894
82.1051
81.4216
80.7391
80.0574
79.3766
78.6966
78.0175
77.3393
76.662
75.9853
75.3097
74.6348
73.9608
73.2875
72.6152
71.9435
71.2727
70.6026
69.9334
69.2649
68.5973
67.9304
67.2643
66.5989
65.9343
65.2703
64.6073
63.9449
63.2833
62.6223
61.9622
61.3026
60.644
59.9858
59.3286
58.6718
58.0161
57.3607
56.7063
56.0523
55.3993
54.7466
54.0949
53.4436
52.7932
52.1432
51.4942
50.8455
50.1978
49.5503
48.9039
48.2577
47.6126
46.9676
46.3238
45.6801
45.0375
44.3949
43.7536
43.1123
42.4722
41.832
41.1931
40.5541
39.9165
39.2785
38.6421
38.0053
37.3701
36.7344
36.1003
35.4657
34.8329
34.1993
33.5677
32.9351
32.3047
31.673
31.0438
30.4132
29.7852
29.1555
28.5287
27.9
27.2743
26.6465
26.022
25.3952
24.7718
24.1459
23.5237
22.8987
22.2777
21.6535
21.0336
20.4104
19.7916
19.1693
18.5516
17.9304
17.3137
16.6936
16.0778
15.4589
14.8441
14.2265
13.6124
12.9963
12.3829
11.7687
11.1557
10.5437
9.93109
9.32152
8.7092
8.10259
7.49052
6.88722
6.27569
5.6761
5.06581
4.46981
3.86042
3.27036
2.62949
2.10203
1.29342
1.04028
-0.201623
356.89
257.268
236.481
235.43
232.257
229.819
227.56
225.33
222.971
220.874
219.06
217.267
215.673
214.149
212.709
211.368
210.027
208.776
207.537
206.36
205.186
204.036
202.9
201.791
200.693
199.609
198.537
197.471
196.434
195.386
194.365
193.335
192.326
191.317
190.323
189.329
188.343
187.366
186.386
185.428
184.46
183.508
182.555
181.609
180.669
179.732
178.804
177.873
176.955
176.033
175.121
174.213
173.306
172.407
171.507
170.615
169.724
168.838
167.956
167.075
166.201
165.329
164.461
163.597
162.736
161.877
161.022
160.17
159.321
158.475
157.632
156.792
155.954
155.119
154.288
153.458
152.631
151.807
150.985
150.167
149.349
148.535
147.724
146.914
146.107
145.302
144.498
143.699
142.9
142.104
141.31
140.517
139.728
138.94
138.153
137.37
136.587
135.808
135.029
134.253
133.478
132.706
131.935
131.166
130.398
129.632
128.869
128.106
127.345
126.586
125.829
125.073
124.319
123.566
122.815
122.066
121.317
120.571
119.826
119.082
118.34
117.6
116.86
116.122
115.386
114.651
113.917
113.184
112.453
111.723
110.995
110.268
109.542
108.817
108.094
107.371
106.65
105.931
105.212
104.495
103.779
103.064
102.35
101.637
100.925
100.215
99.5055
98.7971
98.0899
97.3839
96.6788
95.9749
95.272
94.5701
93.8693
93.1696
92.4708
91.7732
91.0765
90.3808
89.6861
88.9924
88.2995
87.6078
86.9169
86.227
85.5381
84.8501
84.1629
83.4768
82.7915
82.1071
81.4236
80.7411
80.0594
79.3786
78.6986
78.0195
77.3412
76.6639
75.9873
75.3116
74.6367
73.9627
73.2893
72.617
71.9453
71.2745
70.6044
69.9352
69.2667
68.5991
67.9321
67.266
66.6005
65.936
65.272
64.6089
63.9465
63.2849
62.6239
61.9638
61.3042
60.6455
59.9874
59.3301
58.6733
58.0176
57.3622
56.7078
56.0537
55.4007
54.748
54.0963
53.445
52.7946
52.1446
51.4956
50.8468
50.1991
49.5516
48.9052
48.259
47.6139
46.9689
46.3251
45.6813
45.0388
44.3962
43.7549
43.1135
42.4734
41.8332
41.1943
40.5553
39.9176
39.2797
38.6433
38.0065
37.3712
36.7355
36.1015
35.4668
34.834
34.2004
33.5688
32.9361
32.3057
31.6741
31.0449
30.4142
29.7862
29.1565
28.5297
27.901
27.2753
26.6475
26.023
25.3961
24.7728
24.1468
23.5247
22.8996
22.2786
21.6544
21.0345
20.4113
19.7925
19.1703
18.5525
17.9313
17.3146
16.6945
16.0787
15.4598
14.8449
14.2273
13.6132
12.9972
12.3837
11.7695
11.1566
10.5445
9.9319
9.32233
8.71
8.10338
7.49131
6.888
6.27647
5.67687
5.06655
4.4706
3.86117
3.27115
2.63052
2.1028
1.29389
1.04199
-0.205989
352.769
258.228
237.376
235.822
232.418
229.968
227.649
225.404
223.037
220.94
219.128
217.326
215.743
214.219
212.775
211.435
210.091
208.836
207.595
206.416
205.239
204.086
202.947
201.835
200.733
199.649
198.575
197.507
196.467
195.418
194.395
193.364
192.354
191.344
190.349
189.354
188.367
187.39
186.409
185.45
184.481
183.529
182.574
181.628
180.688
179.75
178.821
177.889
176.971
176.049
175.136
174.228
173.321
172.421
171.521
170.628
169.737
168.85
167.968
167.087
166.213
165.341
164.472
163.608
162.746
161.888
161.032
160.18
159.331
158.484
157.641
156.801
155.963
155.128
154.296
153.466
152.639
151.815
150.993
150.174
149.357
148.543
147.731
146.921
146.114
145.309
144.505
143.706
142.906
142.11
141.316
140.524
139.734
138.946
138.159
137.376
136.593
135.813
135.035
134.258
133.484
132.711
131.94
131.171
130.403
129.637
128.874
128.111
127.35
126.591
125.833
125.078
124.323
123.571
122.82
122.07
121.322
120.575
119.83
119.086
118.344
117.603
116.864
116.126
115.389
114.654
113.921
113.188
112.457
111.727
110.998
110.271
109.545
108.82
108.097
107.375
106.654
105.934
105.215
104.498
103.782
103.067
102.353
101.64
100.928
100.218
99.5084
98.8
98.0928
97.3867
96.6815
95.9776
95.2747
94.5728
93.872
93.1722
92.4734
91.7757
91.0791
90.3833
89.6885
88.9948
88.302
87.6102
86.9193
86.2294
85.5404
84.8524
84.1652
83.479
82.7938
82.1094
81.4258
80.7433
80.0615
79.3807
78.7007
78.0216
77.3433
76.6659
75.9893
75.3136
74.6387
73.9646
73.2913
72.6189
71.9472
71.2764
70.6063
69.9371
69.2685
68.6009
67.9339
67.2677
66.6023
65.9377
65.2737
64.6106
63.9482
63.2866
62.6256
61.9655
61.3058
60.6472
59.989
59.3317
58.6749
58.0192
57.3638
56.7093
56.0553
55.4022
54.7495
54.0978
53.4465
52.7961
52.1461
51.4971
50.8483
50.2006
49.5531
48.9067
48.2604
47.6153
46.9703
46.3264
45.6827
45.0401
44.3975
43.7562
43.1148
42.4747
41.8344
41.1956
40.5565
39.9189
39.281
38.6445
38.0077
37.3724
36.7367
36.1027
35.468
34.8352
34.2015
33.5699
32.9373
32.3069
31.6752
31.046
30.4153
29.7873
29.1576
28.5308
27.902
27.2764
26.6486
26.0241
25.3972
24.7738
24.1479
23.5257
22.9006
22.2796
21.6554
21.0355
20.4123
19.7935
19.1712
18.5535
17.9323
17.3156
16.6954
16.0796
15.4607
14.8458
14.2282
13.6141
12.9981
12.3846
11.7704
11.1574
10.5454
9.93276
9.32319
8.71085
8.10422
7.49215
6.88883
6.27729
5.67769
5.06734
4.47144
3.86196
3.27199
2.63162
2.10361
1.29484
1.04344
-0.210891
348.837
259.045
238.2
236.244
232.582
230.061
227.743
225.475
223.093
221.007
219.183
217.383
215.801
214.267
212.829
211.492
210.146
208.89
207.649
206.466
205.288
204.133
202.993
201.879
200.775
199.689
198.614
197.544
196.502
195.45
194.427
193.395
192.384
191.372
190.375
189.38
188.392
187.413
186.432
185.472
184.502
183.55
182.594
181.647
180.707
179.768
178.839
177.907
176.988
176.065
175.152
174.243
173.336
172.435
171.535
170.642
169.751
168.864
167.981
167.1
166.225
165.353
164.484
163.619
162.757
161.898
161.043
160.19
159.341
158.494
157.651
156.81
155.972
155.137
154.305
153.475
152.648
151.824
151.001
150.183
149.365
148.551
147.738
146.928
146.121
145.316
144.512
143.713
142.913
142.117
141.323
140.53
139.74
138.952
138.165
137.382
136.599
135.819
135.041
134.264
133.489
132.716
131.945
131.176
130.408
129.642
128.879
128.116
127.355
126.596
125.838
125.083
124.328
123.575
122.824
122.074
121.326
120.58
119.834
119.091
118.349
117.608
116.868
116.13
115.393
114.658
113.924
113.192
112.461
111.731
111.002
110.275
109.549
108.824
108.101
107.378
106.657
105.937
105.219
104.501
103.785
103.07
102.356
101.643
100.931
100.221
99.5114
98.803
98.0957
97.3897
96.6845
95.9805
95.2775
94.5756
93.8748
93.175
92.4761
91.7784
91.0817
90.3859
89.6912
88.9974
88.3045
87.6127
86.9218
86.2319
85.5429
84.8549
84.1676
83.4814
82.7961
82.1117
81.4281
80.7456
80.0638
79.3829
78.7029
78.0238
77.3455
76.6681
75.9914
75.3157
74.6408
73.9667
73.2933
72.621
71.9492
71.2784
70.6083
69.939
69.2705
68.6028
67.9358
67.2696
66.6042
65.9396
65.2755
64.6125
63.95
63.2884
62.6273
61.9672
61.3076
60.6489
59.9907
59.3335
58.6766
58.0208
57.3654
56.711
56.0569
55.4039
54.7511
54.0994
53.448
52.7977
52.1476
51.4986
50.8498
50.2021
49.5546
48.9081
48.2619
47.6168
46.9717
46.3279
45.6841
45.0415
44.3989
43.7576
43.1162
42.476
41.8358
41.1969
40.5579
39.9202
39.2823
38.6458
38.009
37.3737
36.738
36.1039
35.4692
34.8364
34.2028
33.5711
32.9385
32.3081
31.6764
31.0472
30.4165
29.7885
29.1588
28.5319
27.9032
27.2775
26.6497
26.0252
25.3983
24.7749
24.1489
23.5268
22.9017
22.2807
21.6565
21.0366
20.4133
19.7945
19.1723
18.5545
17.9333
17.3166
16.6964
16.0806
15.4617
14.8468
14.2292
13.6151
12.999
12.3856
11.7713
11.1584
10.5463
9.93368
9.32409
8.71175
8.10511
7.49303
6.88971
6.27816
5.67855
5.06817
4.47232
3.86278
3.27286
2.63279
2.10445
1.29581
1.04495
-0.216193
345.074
259.784
238.983
236.627
232.792
230.148
227.819
225.512
223.159
221.068
219.231
217.437
215.849
214.314
212.877
211.532
210.187
208.937
207.694
206.51
205.333
204.177
203.034
201.92
200.816
199.728
198.651
197.58
196.537
195.484
194.459
193.427
192.414
191.401
190.402
189.406
188.417
187.438
186.456
185.495
184.524
183.571
182.615
181.667
180.726
179.787
178.858
177.924
177.005
176.082
175.169
174.259
173.351
172.451
171.55
170.656
169.765
168.877
167.995
167.113
166.238
165.365
164.496
163.631
162.769
161.91
161.054
160.201
159.351
158.505
157.661
156.82
155.982
155.146
154.315
153.484
152.657
151.833
151.01
150.191
149.373
148.559
147.746
146.936
146.129
145.324
144.52
143.72
142.92
142.124
141.33
140.537
139.747
138.959
138.172
137.388
136.605
135.825
135.047
134.27
133.495
132.722
131.951
131.182
130.414
129.648
128.884
128.121
127.36
126.601
125.843
125.088
124.333
123.58
122.829
122.079
121.331
120.584
119.839
119.095
118.353
117.612
116.872
116.135
115.397
114.663
113.928
113.196
112.465
111.735
111.006
110.279
109.553
108.828
108.104
107.382
106.661
105.941
105.222
104.505
103.788
103.073
102.359
101.646
100.935
100.224
99.5146
98.8062
98.0989
97.3928
96.6875
95.9835
95.2805
94.5785
93.8777
93.1779
92.479
91.7813
91.0845
90.3887
89.6939
89.0001
88.3072
87.6154
86.9245
86.2345
85.5455
84.8574
84.1701
83.4839
82.7986
82.1141
81.4306
80.748
80.0662
79.3853
78.7053
78.0261
77.3477
76.6704
75.9937
75.3179
74.643
73.9689
73.2955
72.6231
71.9514
71.2805
70.6103
69.9411
69.2725
68.6048
67.9378
67.2716
66.6062
65.9415
65.2775
64.6144
63.9519
63.2903
62.6292
61.9691
61.3094
60.6507
59.9925
59.3352
58.6784
58.0226
57.3672
56.7127
56.0586
55.4056
54.7528
54.1011
53.4497
52.7993
52.1493
51.5002
50.8514
50.2037
49.5561
48.9097
48.2634
47.6183
46.9732
46.3294
45.6856
45.043
44.4004
43.759
43.1176
42.4775
41.8372
41.1984
40.5593
39.9216
39.2836
38.6472
38.0103
37.3751
36.7393
36.1052
35.4705
34.8377
34.2041
33.5724
32.9398
32.3093
31.6777
31.0484
30.4178
29.7897
29.16
28.5331
27.9044
27.2787
26.6509
26.0264
25.3995
24.7761
24.1501
23.5279
22.9028
22.2818
21.6576
21.0377
20.4144
19.7956
19.1733
18.5556
17.9343
17.3176
16.6975
16.0817
15.4627
14.8478
14.2302
13.6161
13
12.3865
11.7723
11.1593
10.5473
9.93464
9.32505
8.71269
8.10605
7.49396
6.89063
6.27907
5.67946
5.06903
4.47325
3.86364
3.27378
2.63403
2.10529
1.2968
1.04651
-0.221859
341.461
260.435
239.714
236.998
232.98
230.266
227.893
225.55
223.192
221.124
219.287
217.481
215.893
214.359
212.917
211.57
210.228
208.974
207.727
206.547
205.372
204.215
203.072
201.958
200.852
199.764
198.687
197.615
196.57
195.517
194.491
193.457
192.444
191.43
190.43
189.433
188.444
187.464
186.48
185.518
184.546
183.592
182.636
181.688
180.746
179.806
178.876
177.942
177.023
176.099
175.185
174.276
173.367
172.466
171.565
170.671
169.779
168.891
168.008
167.126
166.251
165.378
164.508
163.643
162.781
161.921
161.065
160.212
159.362
158.515
157.671
156.83
155.992
155.156
154.324
153.493
152.666
151.842
151.019
150.2
149.382
148.567
147.755
146.944
146.137
145.331
144.527
143.727
142.928
142.131
141.337
140.544
139.754
138.965
138.179
137.395
136.612
135.832
135.053
134.276
133.501
132.728
131.957
131.188
130.419
129.653
128.89
128.126
127.366
126.606
125.848
125.093
124.338
123.585
122.834
122.084
121.336
120.589
119.844
119.1
118.358
117.616
116.877
116.139
115.402
114.667
113.933
113.2
112.469
111.739
111.01
110.283
109.556
108.832
108.108
107.386
106.664
105.945
105.226
104.508
103.792
103.077
102.363
101.65
100.938
100.227
99.5179
98.8095
98.1021
97.396
96.6907
95.9867
95.2837
94.5816
93.8807
93.1809
92.482
91.7842
91.0875
90.3916
89.6968
89.003
88.31
87.6181
86.9272
86.2372
85.5482
84.8601
84.1728
83.4866
82.8012
82.1167
81.4331
80.7505
80.0687
79.3878
78.7077
78.0285
77.3501
76.6727
75.996
75.3202
74.6453
73.9712
73.2978
72.6253
71.9536
71.2827
70.6125
69.9432
69.2747
68.607
67.9399
67.2737
66.6082
65.9436
65.2795
64.6164
63.9539
63.2922
62.6312
61.971
61.3113
60.6526
59.9944
59.3371
58.6803
58.0244
57.369
56.7145
56.0604
55.4073
54.7546
54.1028
53.4514
52.801
52.151
51.5019
50.8531
50.2053
49.5578
48.9113
48.265
47.6199
46.9748
46.331
45.6872
45.0446
44.4019
43.7606
43.1191
42.479
41.8387
41.1998
40.5607
39.9231
39.2851
38.6486
38.0118
37.3765
36.7407
36.1066
35.4719
34.8391
34.2054
33.5738
32.9411
32.3106
31.679
31.0497
30.4191
29.791
29.1613
28.5344
27.9056
27.28
26.6521
26.0276
25.4007
24.7773
24.1513
23.5291
22.904
22.283
21.6588
21.0388
20.4156
19.7968
19.1745
18.5567
17.9355
17.3187
16.6986
16.0828
15.4638
14.8489
14.2313
13.6171
13.0011
12.3876
11.7734
11.1604
10.5483
9.93564
9.32604
8.71368
8.10702
7.49493
6.89159
6.28002
5.6804
5.06993
4.47421
3.86453
3.27475
2.63533
2.10615
1.29784
1.04809
-0.227855
337.992
260.993
240.406
237.351
233.166
230.378
227.959
225.608
223.232
221.173
219.315
217.53
215.941
214.393
212.953
211.606
210.265
209.007
207.762
206.581
205.399
204.244
203.105
201.991
200.884
199.797
198.72
197.646
196.602
195.547
194.521
193.486
192.472
191.458
190.458
189.459
188.47
187.489
186.505
185.542
184.569
183.615
182.658
181.709
180.766
179.825
178.895
177.961
177.041
176.117
175.202
174.292
173.383
172.482
171.58
170.686
169.794
168.906
168.022
167.14
166.264
165.391
164.521
163.655
162.793
161.933
161.077
160.223
159.373
158.526
157.682
156.841
156.002
155.166
154.334
153.503
152.676
151.851
151.028
150.209
149.39
148.576
147.763
146.953
146.145
145.34
144.535
143.735
142.935
142.139
141.344
140.551
139.761
138.972
138.186
137.402
136.619
135.838
135.06
134.282
133.508
132.734
131.963
131.194
130.425
129.659
128.895
128.132
127.371
126.612
125.854
125.098
124.343
123.59
122.839
122.089
121.341
120.594
119.848
119.105
118.362
117.621
116.881
116.144
115.406
114.671
113.937
113.204
112.473
111.743
111.014
110.287
109.561
108.836
108.112
107.39
106.668
105.948
105.23
104.512
103.796
103.08
102.366
101.654
100.942
100.231
99.5214
98.8129
98.1055
97.3993
96.694
95.99
95.2869
94.5848
93.8839
93.1841
92.4851
91.7873
91.0905
90.3946
89.6998
89.0059
88.3129
87.621
86.9301
86.24
85.551
84.8629
84.1755
83.4893
82.8039
82.1194
81.4357
80.7531
80.0713
79.3903
78.7102
78.031
77.3526
76.6752
75.9985
75.3227
74.6477
73.9736
73.3001
72.6277
71.9559
71.285
70.6148
69.9455
69.2769
68.6092
67.9421
67.2759
66.6104
65.9457
65.2816
64.6185
63.956
63.2943
62.6332
61.973
61.3133
60.6546
59.9964
59.3391
58.6822
58.0264
57.3709
56.7164
56.0623
55.4092
54.7564
54.1046
53.4532
52.8028
52.1527
51.5037
50.8548
50.2071
49.5595
48.913
48.2667
47.6216
46.9765
46.3326
45.6888
45.0462
44.4035
43.7622
43.1207
42.4805
41.8403
41.2014
40.5623
39.9246
39.2866
38.6501
38.0132
37.3779
36.7422
36.1081
35.4734
34.8405
34.2068
33.5752
32.9425
32.312
31.6804
31.0511
30.4204
29.7923
29.1626
28.5357
27.9069
27.2812
26.6534
26.0289
25.4019
24.7786
24.1525
23.5303
22.9053
22.2842
21.66
21.04
20.4168
19.7979
19.1756
18.5579
17.9366
17.3199
16.6997
16.0839
15.4649
14.85
14.2324
13.6182
13.0022
12.3887
11.7744
11.1614
10.5493
9.9367
9.32708
8.71472
8.10804
7.49595
6.89259
6.28101
5.68139
5.07087
4.4752
3.86544
3.27575
2.6367
2.10701
1.29894
1.04968
-0.23415
334.662
261.474
241.06
237.688
233.349
230.486
228.029
225.66
223.287
221.223
219.344
217.57
215.967
214.433
212.991
211.635
210.294
209.036
207.796
206.611
205.427
204.274
203.132
202.015
200.911
199.826
198.748
197.674
196.63
195.576
194.549
193.514
192.5
191.484
190.484
189.485
188.495
187.513
186.528
185.565
184.592
183.637
182.679
181.73
180.787
179.845
178.914
177.98
177.059
176.135
175.22
174.308
173.399
172.497
171.596
170.701
169.809
168.92
168.036
167.154
166.278
165.404
164.534
163.668
162.806
161.946
161.089
160.235
159.385
158.538
157.693
156.852
156.013
155.176
154.344
153.513
152.685
151.861
151.037
150.218
149.4
148.585
147.772
146.961
146.154
145.348
144.543
143.743
142.943
142.147