/*--------------------------------*- C++ -*----------------------------------*\
| =========                 |                                                 |
| \\      /  F ield         | foam-extend: Open Source CFD                    |
|  \\    /   O peration     | Version:     3.2                                |
|   \\  /    A nd           | Web:         http://www.foam-extend.org         |
|    \\/     M anipulation  | For copyright notice see file Copyright         |
\*---------------------------------------------------------------------------*/
FoamFile
{
    version     2.0;
    format      ascii;
    class       areaScalarField;
    location    "2020";
    object      a;
}
// * * * * * * * * * * * * * * * * * * * * * * * * * * * * * * * * * * * * * //

dimensions      [1 -1 0 0 0 0 0];

internalField   nonuniform List<scalar> 
550
(
2.78678e-05
2.78678e-05
2.78678e-05
2.78678e-05
2.78678e-05
2.78678e-05
2.78678e-05
2.78678e-05
2.78678e-05
2.78678e-05
2.78678e-05
2.78678e-05
2.78678e-05
2.78678e-05
2.78678e-05
2.78678e-05
2.78678e-05
2.78678e-05
2.78678e-05
2.78678e-05
2.78678e-05
2.78678e-05
2.78678e-05
2.78678e-05
2.78678e-05
2.78678e-05
2.78678e-05
2.78678e-05
2.78678e-05
2.78678e-05
2.78678e-05
2.78678e-05
2.78678e-05
2.78678e-05
2.78678e-05
2.78678e-05
2.78678e-05
2.78678e-05
2.78678e-05
2.78678e-05
2.78678e-05
2.78678e-05
2.78678e-05
2.78678e-05
2.78678e-05
2.78678e-05
2.78678e-05
2.77998e-05
2.78678e-05
2.78034e-05
2.78054e-05
2.77849e-05
2.78678e-05
2.7782e-05
2.77998e-05
2.77933e-05
2.78091e-05
2.78136e-05
2.47826e-05
2.78239e-05
2.78191e-05
2.78076e-05
2.78215e-05
2.25113e-05
2.22823e-05
2.78355e-05
2.7835e-05
2.78376e-05
2.13619e-05
2.78613e-05
2.78683e-05
2.78678e-05
2.61273e-05
2.40452e-05
2.36504e-05
2.52181e-05
2.78678e-05
2.78678e-05
2.43476e-05
2.22489e-05
2.3689e-05
2.43161e-05
2.78678e-05
2.78678e-05
2.78678e-05
2.40036e-05
2.36249e-05
2.42494e-05
2.40053e-05
2.78678e-05
2.78678e-05
2.78678e-05
2.35201e-05
2.34573e-05
2.41995e-05
2.36352e-05
2.78678e-05
2.78678e-05
2.78678e-05
2.56183e-05
2.3851e-05
2.32231e-05
2.19742e-05
2.78736e-05
2.78096e-05
2.78999e-05
2.76478e-05
2.53459e-05
2.38679e-05
2.58434e-05
2.54833e-05
2.78678e-05
2.78678e-05
2.78678e-05
2.78678e-05
2.56483e-05
2.58138e-05
2.60781e-05
2.01035e-05
2.78394e-05
2.78762e-05
2.78088e-05
2.74428e-05
2.45818e-05
2.7871e-05
2.78707e-05
2.81589e-05
2.72632e-05
2.42772e-05
2.80178e-05
2.79722e-05
2.80352e-05
2.80971e-05
2.80415e-05
2.79815e-05
2.78964e-05
2.79372e-05
2.65383e-05
2.654e-05
2.65036e-05
2.65126e-05
2.65041e-05
2.64501e-05
2.63949e-05
2.63353e-05
2.62748e-05
2.62131e-05
2.61544e-05
2.60972e-05
2.60468e-05
2.59982e-05
2.59599e-05
2.59146e-05
2.58893e-05
2.5846e-05
2.5834e-05
2.579e-05
2.57797e-05
2.57406e-05
2.57287e-05
2.57136e-05
2.5713e-05
2.57246e-05
2.57388e-05
2.5761e-05
2.57798e-05
2.57947e-05
2.58363e-05
2.58698e-05
2.60957e-05
2.64796e-05
2.65858e-05
2.66926e-05
2.67554e-05
2.68015e-05
2.68378e-05
2.68574e-05
2.68756e-05
2.68796e-05
2.68848e-05
2.68783e-05
2.68743e-05
2.68607e-05
2.68501e-05
2.68317e-05
2.68165e-05
2.67951e-05
2.67766e-05
2.67536e-05
2.67324e-05
2.67083e-05
2.66855e-05
2.66607e-05
2.6636e-05
2.66106e-05
2.65847e-05
2.65591e-05
2.65331e-05
2.65075e-05
2.64821e-05
2.64571e-05
2.64324e-05
2.64081e-05
2.63844e-05
2.63611e-05
2.63383e-05
2.63159e-05
2.6294e-05
2.62723e-05
2.62509e-05
2.62298e-05
2.6209e-05
2.61885e-05
2.61683e-05
2.61484e-05
2.61287e-05
2.61091e-05
2.609e-05
2.60709e-05
2.60522e-05
2.60336e-05
2.60151e-05
2.5997e-05
2.59787e-05
2.59609e-05
2.59422e-05
2.59241e-05
2.59046e-05
2.5886e-05
2.58655e-05
2.58461e-05
2.58252e-05
2.58051e-05
2.57837e-05
2.57632e-05
2.57417e-05
2.57207e-05
2.56991e-05
2.56778e-05
2.5656e-05
2.56343e-05
2.56121e-05
2.55905e-05
2.55678e-05
2.5546e-05
2.55231e-05
2.55012e-05
2.5478e-05
2.54563e-05
2.5433e-05
2.54114e-05
2.53881e-05
2.53669e-05
2.53439e-05
2.53232e-05
2.53006e-05
2.52804e-05
2.52584e-05
2.5239e-05
2.52181e-05
2.51998e-05
2.51795e-05
2.51621e-05
2.51428e-05
2.51263e-05
2.51081e-05
2.50926e-05
2.50752e-05
2.50606e-05
2.5044e-05
2.50303e-05
2.50146e-05
2.50015e-05
2.4987e-05
2.49747e-05
2.49622e-05
2.49503e-05
2.49406e-05
2.49295e-05
2.49229e-05
2.49125e-05
2.49081e-05
2.48999e-05
2.50576e-05
2.84203e-05
2.48835e-05
2.48756e-05
2.48738e-05
2.48671e-05
2.48658e-05
2.48604e-05
2.48596e-05
2.48553e-05
2.48554e-05
2.48524e-05
2.48532e-05
2.48513e-05
2.48527e-05
2.48519e-05
2.48538e-05
2.48538e-05
2.48562e-05
2.48571e-05
2.48597e-05
2.4861e-05
2.48638e-05
2.48653e-05
2.48679e-05
2.48695e-05
2.48717e-05
2.48727e-05
2.48742e-05
2.48745e-05
2.4875e-05
2.48745e-05
2.48739e-05
2.48723e-05
2.48704e-05
2.48676e-05
2.48646e-05
2.48607e-05
2.48566e-05
2.48518e-05
2.48465e-05
2.48407e-05
2.48346e-05
2.48279e-05
2.4821e-05
2.48134e-05
2.48056e-05
2.47973e-05
2.47887e-05
2.47795e-05
2.47699e-05
2.47597e-05
2.4749e-05
2.47375e-05
2.47254e-05
2.47126e-05
2.4699e-05
2.46845e-05
2.46691e-05
2.46528e-05
2.46355e-05
2.46173e-05
2.45981e-05
2.45781e-05
2.45572e-05
2.45354e-05
2.45127e-05
2.44892e-05
2.44643e-05
2.44377e-05
2.44098e-05
2.43808e-05
2.43509e-05
2.43205e-05
2.42889e-05
2.42577e-05
2.42252e-05
2.41931e-05
2.41598e-05
2.4127e-05
2.40932e-05
2.40598e-05
2.40255e-05
2.39919e-05
2.39573e-05
2.39235e-05
2.38888e-05
2.38549e-05
2.38202e-05
2.37865e-05
2.37523e-05
2.37191e-05
2.36855e-05
2.3653e-05
2.36202e-05
2.35886e-05
2.35566e-05
2.35258e-05
2.34948e-05
2.3465e-05
2.34351e-05
2.34063e-05
2.33774e-05
2.33499e-05
2.33222e-05
2.32959e-05
2.32695e-05
2.32444e-05
2.32195e-05
2.31959e-05
2.31723e-05
2.31629e-05
2.33495e-05
2.76414e-05
2.30713e-05
2.30486e-05
2.30262e-05
2.30043e-05
2.2983e-05
2.29621e-05
2.29419e-05
2.29221e-05
2.29029e-05
2.28843e-05
2.28662e-05
2.28485e-05
2.28313e-05
2.28146e-05
2.27983e-05
2.27828e-05
2.2767e-05
2.30015e-05
2.75313e-05
2.2721e-05
2.27061e-05
2.26912e-05
2.26765e-05
2.26619e-05
2.26474e-05
2.26331e-05
2.26188e-05
2.26045e-05
2.25903e-05
2.25763e-05
2.25624e-05
2.25487e-05
2.25352e-05
2.25218e-05
2.25086e-05
2.24956e-05
2.24826e-05
2.24698e-05
2.24571e-05
2.24444e-05
2.24317e-05
2.2419e-05
2.24062e-05
2.23933e-05
2.23805e-05
2.23675e-05
2.23544e-05
2.23412e-05
2.23279e-05
2.23143e-05
2.23005e-05
2.22864e-05
2.22718e-05
2.22569e-05
2.22413e-05
2.22255e-05
2.22093e-05
2.21926e-05
2.21756e-05
2.21582e-05
2.21404e-05
2.21223e-05
2.21039e-05
2.20853e-05
2.20664e-05
2.20472e-05
2.20279e-05
2.20084e-05
2.19887e-05
2.19688e-05
2.19488e-05
2.19283e-05
2.19077e-05
2.18866e-05
2.18649e-05
2.18429e-05
2.18201e-05
2.17993e-05
2.20948e-05
2.72189e-05
2.17253e-05
2.16999e-05
2.16738e-05
2.16471e-05
2.162e-05
2.15925e-05
2.15646e-05
2.15364e-05
2.15078e-05
2.1479e-05
2.14499e-05
2.14206e-05
2.13913e-05
2.13618e-05
2.13323e-05
2.13028e-05
2.12731e-05
2.12433e-05
2.12133e-05
2.11829e-05
2.1152e-05
2.11209e-05
2.10892e-05
2.10572e-05
2.10247e-05
2.09919e-05
2.09586e-05
2.09251e-05
2.08913e-05
2.08577e-05
2.08239e-05
2.07904e-05
2.07568e-05
2.07234e-05
2.06901e-05
2.06572e-05
2.06244e-05
2.05926e-05
2.05585e-05
2.05295e-05
2.04927e-05
2.04676e-05
2.04243e-05
2.04071e-05
2.03512e-05
2.0342e-05
2.02703e-05
2.02633e-05
2.01817e-05
2.01747e-05
2.0098e-05
2.00881e-05
2.0039e-05
2.00213e-05
2.00225e-05
1.99946e-05
2.00355e-05
1.99968e-05
2.00988e-05
2.01176e-05
1.98656e-05
2.13759e-05
2.65627e-05
2.78678e-05
2.78678e-05
2.78678e-05
2.78678e-05
2.78678e-05
2.78678e-05
2.78678e-05
2.78678e-05
2.78678e-05
2.78678e-05
)
;

boundaryField
{
    inlet
    {
        type            calculated;
        value           uniform 0;
    }
    endWall
    {
        type            calculated;
        value           uniform 0;
    }
    sideWall
    {
        type            empty;
    }
}


// ************************************************************************* //
