/*--------------------------------*- C++ -*----------------------------------*\
| =========                 |                                                 |
| \\      /  F ield         | foam-extend: Open Source CFD                    |
|  \\    /   O peration     | Version:     3.2                                |
|   \\  /    A nd           | Web:         http://www.foam-extend.org         |
|    \\/     M anipulation  | For copyright notice see file Copyright         |
\*---------------------------------------------------------------------------*/
FoamFile
{
    version     2.0;
    format      ascii;
    class       areaVectorField;
    location    "2020";
    object      aMeshCentreN;
}
// * * * * * * * * * * * * * * * * * * * * * * * * * * * * * * * * * * * * * //

dimensions      [0 0 0 0 0 0 0];

internalField   nonuniform List<vector> 
550
(
(0.0090909 0.01 -1.81818e-05)
(0.0272727 0.01 -5.45454e-05)
(0.0454545 0.01 -9.09091e-05)
(0.0636364 0.01 -0.000127273)
(0.0818182 0.01 -0.000163636)
(0.1 0.01 -0.0002)
(0.118182 0.01 -0.000236364)
(0.136364 0.01 -0.000272727)
(0.154545 0.01 -0.000309091)
(0.172727 0.01 -0.000345454)
(0.190909 0.01 -0.000386115)
(0.209091 0.01 -0.000426777)
(0.227273 0.01 -0.000458843)
(0.245454 0.01 -0.000494361)
(0.263636 0.01 -0.000534177)
(0.281818 0.01 -0.000567089)
(0.3 0.01 -0.000602404)
(0.318182 0.01 -0.000643294)
(0.336364 0.01 -0.000681196)
(0.354545 0.01 -0.000716528)
(0.372727 0.01 -0.000750623)
(0.390909 0.01 -0.000784828)
(0.409091 0.01 -0.000820854)
(0.427273 0.01 -0.000855882)
(0.445454 0.01 -0.000890909)
(0.463636 0.01 -0.000927273)
(0.481818 0.01 -0.000964509)
(0.5 0.01 -0.00100174)
(0.518182 0.01 -0.00103724)
(0.536364 0.01 -0.00107273)
(0.554546 0.01 -0.00110909)
(0.572727 0.01 -0.00114613)
(0.590909 0.01 -0.00118382)
(0.609091 0.01 -0.00122078)
(0.627273 0.01 -0.00125705)
(0.645455 0.01 -0.00129274)
(0.663636 0.01 -0.00132843)
(0.681818 0.01 -0.00136531)
(0.7 0.01 -0.00140165)
(0.718182 0.01 -0.00143743)
(0.736364 0.01 -0.00147427)
(0.754545 0.01 -0.00151062)
(0.772727 0.01 -0.00154644)
(0.790909 0.01 -0.00158325)
(0.809091 0.01 -0.00162005)
(0.827273 0.01 -0.00165637)
(0.845454 0.01 -0.00169279)
(0.863636 0.01 -0.00172757)
(0.881818 0.01 -0.00177025)
(0.9 0.01 -0.00180007)
(0.918182 0.01 -0.00183659)
(0.936364 0.01 -0.00187245)
(0.954546 0.01 -0.00191508)
(0.972727 0.01 -0.00194543)
(0.990909 0.01 -0.00198218)
(1.00909 0.01 -0.00201817)
(1.02727 0.01 -0.00205356)
(1.04545 0.01 -0.00209136)
(1.06364 0.01 -0.00212924)
(1.08182 0.01 -0.00216347)
(1.1 0.01 -0.00219859)
(1.11818 0.01 -0.0022339)
(1.13636 0.01 -0.00227071)
(1.15455 0.01 -0.00231125)
(1.17273 0.01 -0.00234838)
(1.19091 0.01 -0.00238094)
(1.20909 0.01 -0.00241605)
(1.22727 0.01 -0.0024535)
(1.24545 0.01 -0.00249176)
(1.26364 0.01 -0.00252734)
(1.28182 0.01 -0.00255758)
(1.3 0.01 -0.00258315)
(1.31818 0.01 -0.00259995)
(1.33636 0.01 -0.00262328)
(1.35454 0.01 -0.00259977)
(1.37273 0.01 -0.00241786)
(1.39091 0.01 -0.00250045)
(1.40909 0.01 -0.00280645)
(1.42727 0.01 -0.0028305)
(1.44545 0.01 -0.00284816)
(1.46364 0.01 -0.00287964)
(1.48182 0.01 -0.00290543)
(1.5 0.01 -0.00294626)
(1.51818 0.01 -0.00297642)
(1.53636 0.01 -0.00302465)
(1.55455 0.01 -0.00303287)
(1.57273 0.01 -0.00305186)
(1.59091 0.01 -0.00307097)
(1.60909 0.01 -0.00307266)
(1.62727 0.01 -0.00308484)
(1.64545 0.01 -0.00312167)
(1.66364 0.01 -0.00313839)
(1.68182 0.01 -0.00314922)
(1.7 0.01 -0.00316252)
(1.71818 0.01 -0.00316394)
(1.73636 0.01 -0.00317092)
(1.75455 0.01 -0.0031674)
(1.77273 0.01 -0.00317239)
(1.79091 0.01 -0.00315826)
(1.80909 0.01 -0.00304519)
(1.82727 0.01 -0.00296771)
(1.84546 0.01 -0.00286898)
(1.86364 0.01 -0.00306384)
(1.88182 0.01 -0.00343172)
(1.9 0.01 -0.00335757)
(1.91818 0.01 -0.00325787)
(1.93636 0.01 -0.00318395)
(1.95454 0.01 -0.00306541)
(1.97273 0.01 -0.00305698)
(1.99091 0.01 -0.00302582)
(2.00909 0.01 -0.00300367)
(2.02727 0.01 -0.00299042)
(2.04546 0.01 -0.00294724)
(2.06364 0.01 -0.0029202)
(2.08182 0.01 -0.00290439)
(2.1 0.01 -0.00285685)
(2.11818 0.01 -0.00281765)
(2.13636 0.01 -0.00263787)
(2.15455 0.01 -0.00281148)
(2.17273 0.01 -0.00308358)
(2.19091 0.01 -0.00288285)
(2.20909 0.01 -0.00270007)
(2.22727 0.01 -0.00247327)
(2.24545 0.01 -0.00252434)
(2.26364 0.01 -0.00268006)
(2.28182 0.01 -0.00252538)
(2.3 0.01 -0.00231229)
(2.31818 0.01 -0.00208725)
(2.33636 0.01 -0.00223414)
(2.35454 0.01 -0.00243444)
(2.37273 0.01 -0.00231114)
(2.39091 0.01 -0.00217568)
(2.40909 0.01 -0.00201239)
(2.42727 0.01 -0.00181021)
(2.44545 0.01 -0.00158559)
(2.46364 0.01 -0.00132626)
(2.48182 0.01 -0.000985994)
(2.5 0.01 -0.000792307)
(2.51818 0.01 -0.000757087)
(2.53636 0.01 -0.000681442)
(2.55455 0.01 -0.000582824)
(2.57273 0.01 -0.000467569)
(2.59091 0.01 -0.000346615)
(2.60909 0.01 -0.000228327)
(2.62727 0.01 -0.000112675)
(2.64546 0.01 -1.33679e-06)
(2.66364 0.01 0.000105319)
(2.68182 0.01 0.000206143)
(2.7 0.01 0.000301339)
(2.71818 0.01 0.00039058)
(2.73636 0.01 0.000474476)
(2.75454 0.01 0.00055335)
(2.77273 0.01 0.000626854)
(2.79091 0.01 0.000695283)
(2.80909 0.01 0.000758722)
(2.82727 0.01 0.000816755)
(2.84545 0.01 0.000870826)
(2.86364 0.01 0.00091551)
(2.88182 0.01 0.000958526)
(2.9 0.01 0.000984933)
(2.91818 0.01 0.00101821)
(2.93636 0.01 0.00102979)
(2.95455 0.01 0.00104492)
(2.97273 0.01 0.00103816)
(2.99091 0.01 0.00102827)
(3.00909 0.01 0.000996867)
(3.02727 0.01 0.000945601)
(3.04545 0.01 0.000876767)
(3.06364 0.01 0.000771473)
(3.08182 0.01 0.000649918)
(3.1 0.01 0.00055095)
(3.11818 0.01 0.000506054)
(3.13636 0.01 0.000461727)
(3.15454 0.01 0.00043362)
(3.17273 0.01 0.000405974)
(3.19091 0.01 0.000390967)
(3.20909 0.01 0.000377868)
(3.22727 0.01 0.000375321)
(3.24545 0.01 0.00037718)
(3.26364 0.01 0.000386192)
(3.28182 0.01 0.000400824)
(3.3 0.01 0.00041966)
(3.31818 0.01 0.000441953)
(3.33636 0.01 0.000467037)
(3.35454 0.01 0.000494378)
(3.37273 0.01 0.000523578)
(3.39091 0.01 0.000554205)
(3.40909 0.01 0.000586045)
(3.42727 0.01 0.000618791)
(3.44545 0.01 0.000652267)
(3.46364 0.01 0.000686153)
(3.48182 0.01 0.000720397)
(3.5 0.01 0.000754739)
(3.51818 0.01 0.000789069)
(3.53636 0.01 0.000823077)
(3.55455 0.01 0.000856707)
(3.57273 0.01 0.000889677)
(3.59091 0.01 0.000922053)
(3.60909 0.01 0.000953543)
(3.62727 0.01 0.000984303)
(3.64546 0.01 0.0010141)
(3.66364 0.01 0.00104306)
(3.68182 0.01 0.00107095)
(3.7 0.01 0.00109796)
(3.71818 0.01 0.00112392)
(3.73636 0.01 0.001149)
(3.75455 0.01 0.00117304)
(3.77273 0.01 0.00119623)
(3.79091 0.01 0.00121838)
(3.80909 0.01 0.00123967)
(3.82727 0.01 0.0012599)
(3.84546 0.01 0.00127927)
(3.86364 0.01 0.00129764)
(3.88182 0.01 0.00131517)
(3.9 0.01 0.00133177)
(3.91818 0.01 0.00134759)
(3.93636 0.01 0.00136251)
(3.95454 0.01 0.00137671)
(3.97273 0.01 0.00139014)
(3.99091 0.01 0.00140296)
(4.00909 0.01 0.00141515)
(4.02727 0.01 0.00142684)
(4.04546 0.01 0.00143806)
(4.06364 0.01 0.00144894)
(4.08182 0.01 0.00145956)
(4.1 0.01 0.00146996)
(4.11818 0.01 0.0014802)
(4.13636 0.01 0.00149027)
(4.15455 0.01 0.00150022)
(4.17273 0.01 0.00151002)
(4.19091 0.01 0.00151968)
(4.20909 0.01 0.00152921)
(4.22727 0.01 0.00153865)
(4.24545 0.01 0.001548)
(4.26364 0.01 0.00155736)
(4.28182 0.01 0.00156673)
(4.3 0.01 0.00157617)
(4.31818 0.01 0.00158571)
(4.33636 0.01 0.00159545)
(4.35454 0.01 0.00160538)
(4.37273 0.01 0.00161563)
(4.39091 0.01 0.00162616)
(4.40909 0.01 0.00163721)
(4.42727 0.01 0.0016487)
(4.44545 0.01 0.0016608)
(4.46364 0.01 0.00167332)
(4.48182 0.01 0.00168643)
(4.5 0.01 0.00169985)
(4.51818 0.01 0.00171386)
(4.53636 0.01 0.00172806)
(4.55454 0.01 0.00174295)
(4.57273 0.01 0.0017578)
(4.59091 0.01 0.00177356)
(4.60909 0.01 0.00178892)
(4.62727 0.01 0.00180574)
(4.64546 0.01 0.00182157)
(4.66364 0.01 0.00183989)
(4.68182 0.01 0.00185625)
(4.7 0.01 0.00187633)
(4.71818 0.01 0.00189334)
(4.73636 0.01 0.00191505)
(4.75454 0.01 0.00193242)
(4.77273 0.01 0.0019541)
(4.79091 0.01 0.00197068)
(4.80909 0.01 0.00199072)
(4.82727 0.01 0.00200539)
(4.84545 0.01 0.00202211)
(4.86364 0.01 0.00203384)
(4.88182 0.01 0.00204527)
(4.9 0.01 0.00205307)
(4.91818 0.01 0.00205752)
(4.93636 0.01 0.00206102)
(4.95454 0.01 0.00205754)
(4.97273 0.01 0.00205734)
(4.99091 0.01 0.00204649)
(5.00909 0.01 0.00204481)
(5.02727 0.01 0.00203039)
(5.04545 0.01 0.00203181)
(5.06364 0.01 0.00202326)
(5.08182 0.01 0.00202888)
(5.1 0.01 0.00201781)
(5.11818 0.01 0.00200214)
(5.13636 0.01 0.00196345)
(5.15454 0.01 0.00181069)
(5.17273 0.01 0.00227964)
(5.19091 0.01 0.00277042)
(5.20909 0.01 0.00266723)
(5.22727 0.01 0.00259604)
(5.24545 0.01 0.00254167)
(5.26364 0.01 0.00249889)
(5.28182 0.01 0.00245254)
(5.3 0.01 0.00241269)
(5.31818 0.01 0.00236742)
(5.33636 0.01 0.00232694)
(5.35454 0.01 0.00228225)
(5.37273 0.01 0.00224138)
(5.39091 0.01 0.00219756)
(5.40909 0.01 0.00215626)
(5.42727 0.01 0.00211238)
(5.44545 0.01 0.00207101)
(5.46364 0.01 0.00202867)
(5.48182 0.01 0.00198853)
(5.5 0.01 0.00194839)
(5.51818 0.01 0.00191007)
(5.53636 0.01 0.00187221)
(5.55455 0.01 0.00183589)
(5.57273 0.01 0.0018004)
(5.59091 0.01 0.00176625)
(5.60909 0.01 0.00173323)
(5.62727 0.01 0.00170145)
(5.64545 0.01 0.00167101)
(5.66364 0.01 0.00164164)
(5.68182 0.01 0.0016138)
(5.7 0.01 0.00158693)
(5.71818 0.01 0.00156169)
(5.73636 0.01 0.0015374)
(5.75454 0.01 0.00151482)
(5.77273 0.01 0.00149311)
(5.79091 0.01 0.00147314)
(5.80909 0.01 0.00145401)
(5.82727 0.01 0.0014366)
(5.84546 0.01 0.00142001)
(5.86364 0.01 0.00140518)
(5.88182 0.01 0.00139118)
(5.9 0.01 0.00137891)
(5.91818 0.01 0.00136751)
(5.93636 0.01 0.00135787)
(5.95454 0.01 0.00134924)
(5.97273 0.01 0.00134254)
(5.99091 0.01 0.00133707)
(6.00909 0.01 0.00133376)
(6.02727 0.01 0.00133232)
(6.04546 0.01 0.00133375)
(6.06364 0.01 0.00133781)
(6.08182 0.01 0.00134422)
(6.1 0.01 0.00135285)
(6.11818 0.01 0.00136354)
(6.13636 0.01 0.00137621)
(6.15455 0.01 0.00139075)
(6.17273 0.01 0.0014071)
(6.19091 0.01 0.00142515)
(6.20909 0.01 0.00144482)
(6.22727 0.01 0.00146599)
(6.24545 0.01 0.00148858)
(6.26364 0.01 0.00151242)
(6.28182 0.01 0.00153736)
(6.3 0.01 0.00156327)
(6.31818 0.01 0.00159003)
(6.33636 0.01 0.00161749)
(6.35454 0.01 0.00164544)
(6.37273 0.01 0.00167372)
(6.39091 0.01 0.00170219)
(6.40909 0.01 0.00172982)
(6.42727 0.01 0.00175671)
(6.44545 0.01 0.001781)
(6.46364 0.01 0.00180417)
(6.48182 0.01 0.00182274)
(6.5 0.01 0.00184118)
(6.51818 0.01 0.00185137)
(6.53636 0.01 0.00186273)
(6.55454 0.01 0.00186137)
(6.57273 0.01 0.00185134)
(6.59091 0.01 0.00182458)
(6.60909 0.01 0.00178332)
(6.62727 0.01 0.00175595)
(6.64545 0.01 0.00171952)
(6.66364 0.01 0.00168275)
(6.68182 0.01 0.0016463)
(6.7 0.01 0.00160987)
(6.71818 0.01 0.0015734)
(6.73636 0.01 0.00153709)
(6.75455 0.01 0.00150064)
(6.77273 0.01 0.00146419)
(6.79091 0.01 0.0014278)
(6.80909 0.01 0.00139139)
(6.82727 0.01 0.00135508)
(6.84546 0.01 0.00131859)
(6.86364 0.01 0.00128199)
(6.88182 0.01 0.00124542)
(6.9 0.01 0.0012088)
(6.91818 0.01 0.00117289)
(6.93636 0.01 0.00113844)
(6.95454 0.01 0.00110192)
(6.97273 0.01 0.00106715)
(6.99091 0.01 0.00102873)
(7.00909 0.01 0.000996311)
(7.02727 0.01 0.000955293)
(7.04545 0.01 0.000927407)
(7.06364 0.01 0.000881867)
(7.08182 0.01 0.000858215)
(7.1 0.01 0.000806935)
(7.11818 0.01 0.00078436)
(7.13636 0.01 0.000737947)
(7.15455 0.01 0.000728632)
(7.17273 0.01 0.000655564)
(7.19091 0.01 0.000301153)
(7.20909 0.01 0.00059435)
(7.22727 0.01 0.000826907)
(7.24546 0.01 0.000516819)
(7.26364 0.01 0.000472836)
(7.28182 0.01 0.000440286)
(7.3 0.01 0.000400057)
(7.31818 0.01 0.00036951)
(7.33636 0.01 0.00032734)
(7.35454 0.01 0.000298951)
(7.37273 0.01 0.000254725)
(7.39091 0.01 0.000227195)
(7.40909 0.01 0.000182009)
(7.42727 0.01 0.000159882)
(7.44545 0.01 0.000109273)
(7.46364 0.01 9.53222e-05)
(7.48182 0.01 5.02057e-05)
(7.5 0.01 4.73806e-05)
(7.51818 0.01 -1.52749e-05)
(7.53636 0.01 -0.000377996)
(7.55454 0.01 -7.4864e-05)
(7.57273 0.01 0.000173097)
(7.59091 0.01 -0.000167874)
(7.60909 0.01 -0.000215287)
(7.62727 0.01 -0.000246187)
(7.64546 0.01 -0.000289074)
(7.66364 0.01 -0.000319605)
(7.68182 0.01 -0.000363017)
(7.7 0.01 -0.000394472)
(7.71818 0.01 -0.000436205)
(7.73636 0.01 -0.000469165)
(7.75454 0.01 -0.000509086)
(7.77273 0.01 -0.000543431)
(7.79091 0.01 -0.000581448)
(7.80909 0.01 -0.000615921)
(7.82727 0.01 -0.000652602)
(7.84545 0.01 -0.000687553)
(7.86364 0.01 -0.000723468)
(7.88182 0.01 -0.000758742)
(7.9 0.01 -0.000794695)
(7.91818 0.01 -0.000830216)
(7.93636 0.01 -0.000865863)
(7.95455 0.01 -0.000901747)
(7.97273 0.01 -0.000937841)
(7.99091 0.01 -0.000973863)
(8.00909 0.01 -0.00101002)
(8.02727 0.01 -0.00104614)
(8.04546 0.01 -0.00108225)
(8.06364 0.01 -0.00111837)
(8.08182 0.01 -0.00115454)
(8.1 0.01 -0.00119094)
(8.11818 0.01 -0.00122733)
(8.13636 0.01 -0.00126347)
(8.15454 0.01 -0.00129954)
(8.17273 0.01 -0.00133575)
(8.19091 0.01 -0.00137213)
(8.20909 0.01 -0.00140864)
(8.22727 0.01 -0.00144492)
(8.24545 0.01 -0.00148122)
(8.26364 0.01 -0.0015176)
(8.28182 0.01 -0.00155367)
(8.3 0.01 -0.0015898)
(8.31818 0.01 -0.00162624)
(8.33636 0.01 -0.00166268)
(8.35454 0.01 -0.00169922)
(8.37273 0.01 -0.0017355)
(8.39091 0.01 -0.00177168)
(8.40909 0.01 -0.00180821)
(8.42727 0.01 -0.00184434)
(8.44545 0.01 -0.00188147)
(8.46364 0.01 -0.00191635)
(8.48182 0.01 -0.00195523)
(8.5 0.01 -0.00198723)
(8.51818 0.01 -0.00203046)
(8.53636 0.01 -0.00205622)
(8.55455 0.01 -0.00210761)
(8.57273 0.01 -0.00211738)
(8.59091 0.01 -0.00217217)
(8.60909 0.01 -0.00215065)
(8.62727 0.01 -0.00222146)
(8.64546 0.01 -0.00261437)
(8.66364 0.01 -0.00228505)
(8.68182 0.01 -0.00199742)
(8.7 0.01 -0.00236505)
(8.71818 0.01 -0.0024353)
(8.73636 0.01 -0.00245218)
(8.75455 0.01 -0.00250847)
(8.77273 0.01 -0.00253361)
(8.79091 0.01 -0.00258165)
(8.80909 0.01 -0.00261186)
(8.82727 0.01 -0.00265186)
(8.84546 0.01 -0.00268369)
(8.86364 0.01 -0.00271944)
(8.88182 0.01 -0.00275369)
(8.9 0.01 -0.0027896)
(8.91818 0.01 -0.00282508)
(8.93636 0.01 -0.00286102)
(8.95454 0.01 -0.00289698)
(8.97273 0.01 -0.00293304)
(8.99091 0.01 -0.00296903)
(9.00909 0.01 -0.00300545)
(9.02727 0.01 -0.00304184)
(9.04546 0.01 -0.00307803)
(9.06364 0.01 -0.0031142)
(9.08182 0.01 -0.00315035)
(9.1 0.01 -0.00318658)
(9.11818 0.01 -0.0032226)
(9.13636 0.01 -0.00325877)
(9.15454 0.01 -0.00329512)
(9.17273 0.01 -0.00333166)
(9.19091 0.01 -0.00336814)
(9.20909 0.01 -0.00340415)
(9.22727 0.01 -0.00344033)
(9.24545 0.01 -0.00347661)
(9.26364 0.01 -0.00351296)
(9.28182 0.01 -0.00354928)
(9.3 0.01 -0.00358531)
(9.31818 0.01 -0.0036216)
(9.33636 0.01 -0.00365812)
(9.35454 0.01 -0.00369459)
(9.37273 0.01 -0.00373063)
(9.39091 0.01 -0.00376737)
(9.40909 0.01 -0.00380253)
(9.42727 0.01 -0.00384064)
(9.44545 0.01 -0.00387326)
(9.46364 0.01 -0.00391391)
(9.48182 0.01 -0.00394268)
(9.5 0.01 -0.0039892)
(9.51818 0.01 -0.00401157)
(9.53636 0.01 -0.00406344)
(9.55455 0.01 -0.00408415)
(9.57273 0.01 -0.00414137)
(9.59091 0.01 -0.00415842)
(9.60909 0.01 -0.00421048)
(9.62727 0.01 -0.00422127)
(9.64546 0.01 -0.00425064)
(9.66364 0.01 -0.00426742)
(9.68182 0.01 -0.00427287)
(9.7 0.01 -0.00429695)
(9.71818 0.01 -0.00448038)
(9.73636 0.01 -0.00515678)
(9.75455 0.01 -0.00638999)
(9.77273 0.01 -0.00853143)
(9.79091 0.01 -0.0117974)
(9.80909 0.01 -0.0167152)
(9.82727 0.01 -0.0196545)
(9.84545 0.01 -0.0196909)
(9.86364 0.01 -0.0197273)
(9.88182 0.01 -0.0197636)
(9.9 0.01 -0.0198)
(9.91818 0.01 -0.0198363)
(9.93636 0.01 -0.0198727)
(9.95454 0.01 -0.0199091)
(9.97273 0.01 -0.0199454)
(9.99091 0.01 -0.0199818)
)
;

boundaryField
{
    inlet
    {
        type            calculated;
        value           uniform (0 0 0);
    }
    endWall
    {
        type            calculated;
        value           uniform (0 0 0);
    }
    sideWall
    {
        type            empty;
    }
}


// ************************************************************************* //
