/*--------------------------------*- C++ -*----------------------------------*\
| =========                 |                                                 |
| \\      /  F ield         | foam-extend: Open Source CFD                    |
|  \\    /   O peration     | Version:     3.2                                |
|   \\  /    A nd           | Web:         http://www.foam-extend.org         |
|    \\/     M anipulation  | For copyright notice see file Copyright         |
\*---------------------------------------------------------------------------*/
FoamFile
{
    version     2.0;
    format      ascii;
    class       volScalarField;
    location    "2020";
    object      C;
}
// * * * * * * * * * * * * * * * * * * * * * * * * * * * * * * * * * * * * * //

dimensions      [1 -3 0 0 0 0 0];

internalField   nonuniform List<scalar> 
33000
(
0.0235
0.0235
0.0235
0.0235
0.0235
0.0235
0.0235
0.0235
0.0235
0.0235
0.0235
0.0235
0.0235
0.0235
0.0235
0.0235
0.0235
0.0235
0.0235
0.0235
0.0235
0.0235
0.0235
0.0235
0.0235
0.0235
0.0235
0.0235
0.0235
0.0235
0.0235
0.0235
0.0235
0.0235
0.0235
0.0235
0.0235
0.0235
0.0235
0.0235
0.0235
0.0235
0.0235
0.0235
0.0235
0.0235
0.0235
0.0235001
0.0235004
0.0235015
0.0235196
0.0235645
0.0235626
0.0235615
0.0235612
0.0235636
0.023575
0.0235875
0.0236069
0.0236236
0.0236415
0.02366
0.0236717
0.0236735
0.023681
0.0236789
0.0236938
0.0237067
0.0237013
0.023705
0.0237167
0.023717
0.0237208
0.0237175
0.0237178
0.0237102
0.0236983
0.0237007
0.0236992
0.0236999
0.0237
0.0236988
0.0236974
0.0236914
0.0236883
0.0236871
0.0236818
0.0236796
0.0236748
0.0236719
0.0236637
0.0236616
0.023654
0.0236493
0.023647
0.0236438
0.0236382
0.023633
0.0236262
0.0236239
0.0236152
0.0236093
0.0235924
0.0235942
0.0235922
0.0235993
0.0235949
0.0235942
0.023595
0.0235925
0.0235906
0.0235883
0.0235854
0.0235825
0.0235799
0.0235737
0.0235705
0.0235549
0.023544
0.0235423
0.0235371
0.0235336
0.0235248
0.0235172
0.0235178
0.0235115
0.0235073
0.0234994
0.0234902
0.0234911
0.0234899
0.0234872
0.0234835
0.0234772
0.0234717
0.0234623
0.0234531
0.0234519
0.0234478
0.0234426
0.0234366
0.0234306
0.0234245
0.0234189
0.023413
0.0234076
0.0234019
0.0233968
0.0233913
0.0233864
0.0233811
0.0233763
0.0233711
0.0233666
0.0233615
0.0233571
0.0233521
0.0233481
0.0233429
0.0233399
0.0233336
0.0233302
0.0233237
0.02332
0.0233138
0.0233099
0.0233054
0.0233008
0.0232965
0.0232922
0.0232912
0.0232894
0.0232881
0.023286
0.0232838
0.0232812
0.023278
0.0232748
0.0232705
0.0232666
0.0232613
0.0232567
0.0232507
0.0232457
0.0232395
0.0232342
0.0232278
0.0232223
0.0232158
0.0232103
0.0232038
0.0231982
0.0231917
0.0231861
0.0231796
0.023174
0.0231675
0.0231619
0.0231554
0.0231498
0.0231433
0.0231377
0.0231311
0.0231255
0.023119
0.0231133
0.0231067
0.023101
0.0230943
0.0230885
0.0230818
0.0230759
0.0230691
0.0230631
0.0230562
0.0230501
0.0230431
0.0230369
0.0230298
0.0230234
0.0230162
0.0230097
0.0230023
0.0229957
0.0229882
0.0229814
0.0229738
0.022967
0.0229592
0.0229523
0.0229445
0.0229375
0.0229296
0.0229225
0.0229146
0.0229074
0.0228995
0.0228923
0.0228843
0.0228772
0.0228692
0.022862
0.022854
0.0228469
0.0228389
0.0228318
0.0228238
0.0228168
0.0228089
0.0228019
0.022794
0.0227871
0.0227792
0.0227724
0.0227645
0.022758
0.02275
0.0227436
0.0227354
0.0227293
0.0227208
0.0227149
0.0227062
0.0227005
0.0226918
0.0226862
0.0226776
0.0226722
0.0226639
0.0226587
0.0226508
0.0226456
0.0226384
0.0226334
0.0226271
0.022622
0.0226166
0.0226115
0.022606
0.0225995
0.0225943
0.0225879
0.0225828
0.0225735
0.0225511
0.0225505
0.0225477
0.0225448
0.022542
0.0225386
0.0225352
0.0225313
0.0225273
0.0225231
0.0225188
0.0225144
0.0225099
0.0225054
0.0225008
0.0224963
0.0224917
0.0224872
0.0224825
0.022478
0.0224734
0.022469
0.0224644
0.02246
0.0224555
0.0224511
0.0224467
0.0224424
0.022438
0.0224337
0.0224294
0.0224251
0.0224209
0.0224167
0.0224125
0.0224083
0.0224042
0.0224001
0.022396
0.0223919
0.0223879
0.0223839
0.0223799
0.022376
0.022372
0.0223681
0.0223643
0.0223604
0.0223564
0.0223524
0.0223483
0.0223441
0.02234
0.0223358
0.0223316
0.0223274
0.0223232
0.022319
0.0223149
0.0223107
0.0223066
0.0223024
0.0222984
0.0222942
0.0222902
0.0222861
0.0222822
0.0222781
0.0222743
0.0222703
0.0222667
0.0222628
0.0222594
0.0222553
0.0222523
0.022248
0.0222446
0.0222409
0.0222376
0.0222344
0.0222312
0.0222279
0.0222247
0.0222215
0.0222182
0.022215
0.0222118
0.0222085
0.0222053
0.0222021
0.0221988
0.0221956
0.0221924
0.0221892
0.0221859
0.0221827
0.0221795
0.0221762
0.022173
0.0221698
0.0221666
0.0221634
0.0221601
0.0221569
0.0221537
0.0221505
0.0221472
0.0221441
0.0221408
0.0221375
0.0221344
0.0221134
0.0221122
0.0221103
0.0221084
0.0221061
0.0221037
0.0221012
0.0220986
0.022096
0.0220932
0.0220904
0.0220876
0.0220846
0.0220816
0.0220785
0.0220753
0.022072
0.0220687
0.0220654
0.022038
0.0220376
0.0220359
0.022034
0.0220317
0.0220294
0.0220268
0.0220242
0.0220214
0.0220185
0.0220156
0.0220125
0.0220094
0.0220062
0.0220029
0.0219995
0.0219961
0.0219926
0.021989
0.0219854
0.0219817
0.021978
0.0219743
0.0219705
0.0219666
0.0219627
0.0219588
0.0219548
0.0219508
0.0219468
0.0219427
0.0219386
0.0219345
0.0219303
0.0219261
0.0219218
0.0219175
0.0219132
0.0219089
0.0219045
0.0219002
0.0218958
0.0218914
0.0218869
0.0218825
0.0218781
0.0218736
0.0218692
0.0218647
0.0218602
0.0218558
0.0218513
0.0218468
0.0218424
0.0218379
0.0218336
0.021829
0.0218247
0.0218202
0.0218157
0.0218116
0.0217739
0.0217735
0.0217717
0.0217698
0.0217674
0.0217647
0.0217619
0.021759
0.0217559
0.0217527
0.0217495
0.0217462
0.0217429
0.0217395
0.021736
0.0217326
0.0217291
0.0217256
0.0217221
0.0217186
0.0217151
0.0217116
0.0217081
0.0217046
0.0217011
0.0216976
0.0216941
0.0216906
0.0216871
0.0216837
0.0216802
0.0216768
0.0216733
0.0216699
0.0216665
0.0216631
0.0216597
0.0216563
0.021653
0.0216496
0.0216463
0.0216431
0.0216398
0.0216365
0.0216333
0.0216301
0.021627
0.0216238
0.0216207
0.0216175
0.0216146
0.0216114
0.0216085
0.0216053
0.0216024
0.0215991
0.0215961
0.0215926
0.0215892
0.0215408
0.0214991
0.0214655
0.0214322
0.0214085
0.0214159
0.0214229
0.0214311
0.0214365
0.0214413
0.0214457
0.0214522
0.0214649
0.0214679
0.0214688
0.0214694
0.0235
0.0235
0.0235
0.0235
0.0235
0.0235
0.0235
0.0235
0.0235
0.0235
0.0235
0.0235
0.0235
0.0235
0.0235
0.0235
0.0235
0.0235
0.0235
0.0235
0.0235
0.0235
0.0235
0.0235
0.0235
0.0235
0.0235
0.0235
0.0235
0.0235
0.0235
0.0235
0.0235
0.0235
0.0235
0.0235
0.0235
0.0235
0.0235
0.0235
0.0235
0.0235
0.0235
0.0235
0.0235
0.0235
0.0235
0.0235
0.0235
0.0235003
0.0235015
0.0235048
0.0235078
0.0235105
0.0235126
0.0235147
0.0235176
0.0235194
0.0235212
0.0235266
0.0235315
0.0235362
0.023543
0.0235451
0.0235483
0.0235562
0.0235597
0.0235633
0.0235675
0.0235711
0.0235759
0.023579
0.0235824
0.0235851
0.0235851
0.0235904
0.0235951
0.0235949
0.023595
0.023596
0.0235971
0.0235994
0.0236016
0.0236008
0.0235991
0.0235996
0.0235996
0.0235985
0.023598
0.0235975
0.0235957
0.0235948
0.0235927
0.0235887
0.0235872
0.0235874
0.023585
0.0235801
0.0235749
0.0235748
0.0235722
0.0235685
0.0235656
0.0235603
0.0235559
0.0235545
0.0235509
0.0235464
0.0235434
0.0235412
0.0235381
0.023535
0.0235318
0.0235288
0.023525
0.0235214
0.0235166
0.0235118
0.0235074
0.0235038
0.0234972
0.0234904
0.0234851
0.0234803
0.0234758
0.0234696
0.0234633
0.0234582
0.0234535
0.023449
0.0234434
0.0234384
0.0234332
0.023428
0.0234226
0.0234164
0.0234105
0.0234054
0.0234007
0.0233957
0.0233906
0.0233853
0.0233799
0.0233745
0.0233691
0.0233637
0.0233583
0.0233529
0.0233475
0.0233421
0.0233368
0.0233314
0.0233261
0.0233208
0.0233156
0.0233103
0.0233052
0.0233
0.023295
0.0232899
0.023285
0.0232799
0.023275
0.0232699
0.0232651
0.02326
0.0232553
0.0232504
0.0232458
0.0232411
0.0232367
0.023232
0.0232278
0.0232234
0.0232192
0.0232149
0.0232106
0.0232063
0.0232019
0.0231974
0.0231928
0.0231881
0.0231833
0.0231784
0.0231734
0.0231683
0.0231631
0.0231578
0.0231524
0.023147
0.0231415
0.0231359
0.0231303
0.0231246
0.0231189
0.0231131
0.0231073
0.0231014
0.0230955
0.0230896
0.0230836
0.0230776
0.0230715
0.0230654
0.0230593
0.0230531
0.0230469
0.0230406
0.0230344
0.023028
0.0230217
0.0230153
0.0230089
0.0230023
0.0229958
0.0229892
0.0229826
0.0229759
0.0229691
0.0229623
0.0229555
0.0229485
0.0229415
0.0229345
0.0229274
0.0229202
0.022913
0.0229057
0.0228984
0.022891
0.0228835
0.0228761
0.0228686
0.022861
0.0228535
0.0228459
0.0228383
0.0228307
0.0228231
0.0228155
0.0228079
0.0228003
0.0227927
0.0227852
0.0227776
0.0227701
0.0227626
0.0227551
0.0227477
0.0227403
0.0227329
0.0227255
0.0227183
0.022711
0.0227038
0.0226966
0.0226895
0.0226824
0.0226754
0.0226684
0.0226615
0.0226545
0.0226477
0.0226408
0.0226341
0.0226273
0.0226207
0.022614
0.0226076
0.022601
0.0225948
0.0225884
0.0225823
0.0225761
0.0225702
0.0225643
0.0225586
0.022553
0.0225474
0.022542
0.0225366
0.0225314
0.0225271
0.0225205
0.0225129
0.0225057
0.0225011
0.0224961
0.0224916
0.0224869
0.0224825
0.022478
0.0224737
0.0224694
0.0224652
0.022461
0.0224568
0.0224527
0.0224485
0.0224444
0.0224403
0.0224362
0.0224321
0.0224281
0.022424
0.02242
0.0224159
0.0224119
0.0224078
0.0224039
0.0223998
0.0223958
0.0223918
0.0223879
0.0223839
0.0223799
0.022376
0.022372
0.0223681
0.0223642
0.0223603
0.0223564
0.0223525
0.0223486
0.0223448
0.022341
0.0223371
0.0223333
0.0223296
0.0223258
0.0223221
0.0223184
0.0223147
0.022311
0.0223073
0.0223036
0.0222999
0.0222962
0.0222925
0.0222888
0.0222851
0.0222815
0.0222778
0.0222742
0.0222705
0.0222669
0.0222633
0.0222597
0.0222561
0.0222525
0.022249
0.0222454
0.0222419
0.0222384
0.022235
0.0222315
0.0222281
0.0222247
0.0222214
0.022218
0.0222147
0.0222114
0.0222082
0.022205
0.0222018
0.0221986
0.0221955
0.0221924
0.0221892
0.0221861
0.022183
0.0221799
0.0221768
0.0221736
0.0221705
0.0221674
0.0221643
0.0221612
0.0221581
0.022155
0.0221519
0.0221487
0.0221456
0.0221425
0.0221394
0.0221363
0.0221331
0.0221301
0.0221268
0.0221238
0.0221206
0.0221176
0.0221143
0.0221113
0.0221086
0.0221042
0.0221
0.022096
0.0220928
0.0220893
0.0220859
0.0220826
0.0220793
0.0220761
0.0220729
0.0220697
0.0220665
0.0220631
0.0220599
0.0220565
0.0220532
0.0220496
0.0220461
0.022043
0.0220377
0.0220326
0.0220277
0.0220236
0.0220192
0.022015
0.0220109
0.0220067
0.0220026
0.0219985
0.0219944
0.0219902
0.0219861
0.0219819
0.0219777
0.0219734
0.0219692
0.0219648
0.0219605
0.0219561
0.0219517
0.0219473
0.0219428
0.0219383
0.0219338
0.0219293
0.0219248
0.0219203
0.0219157
0.0219112
0.0219066
0.0219021
0.0218975
0.0218929
0.0218884
0.0218838
0.0218792
0.0218746
0.02187
0.0218654
0.0218608
0.0218562
0.0218516
0.0218471
0.0218425
0.0218379
0.0218334
0.0218289
0.0218243
0.0218199
0.0218153
0.0218109
0.0218064
0.021802
0.0217975
0.0217933
0.0217887
0.0217846
0.02178
0.0217759
0.0217724
0.0217658
0.0217594
0.0217537
0.0217493
0.0217447
0.02174
0.0217359
0.0217316
0.0217276
0.0217236
0.0217197
0.0217158
0.0217121
0.0217083
0.0217046
0.021701
0.0216974
0.0216938
0.0216903
0.0216867
0.0216833
0.0216798
0.0216764
0.0216729
0.0216695
0.0216662
0.0216628
0.0216595
0.0216562
0.0216529
0.0216496
0.0216464
0.0216431
0.0216399
0.0216367
0.0216336
0.0216304
0.0216273
0.0216242
0.0216211
0.021618
0.021615
0.021612
0.0216089
0.021606
0.021603
0.0216001
0.021597
0.0215942
0.0215911
0.0215884
0.0215852
0.0215824
0.0215791
0.0215764
0.0215729
0.0215701
0.0215663
0.0215632
0.0215568
0.0215483
0.0215376
0.0215223
0.0214991
0.0214815
0.0214774
0.0214762
0.0214726
0.0214685
0.0214646
0.0214633
0.0214654
0.0214681
0.021469
0.0214698
0.0235
0.0235
0.0235
0.0235
0.0235
0.0235
0.0235
0.0235
0.0235
0.0235
0.0235
0.0235
0.0235
0.0235
0.0235
0.0235
0.0235
0.0235
0.0235
0.0235
0.0235
0.0235
0.0235
0.0235
0.0235
0.0235
0.0235
0.0235
0.0235
0.0235
0.0235
0.0235
0.0235
0.0235
0.0235
0.0235
0.0235
0.0235
0.0235
0.0235
0.0235
0.0235
0.0235
0.0235
0.0235
0.0235
0.0235
0.0235
0.0234999
0.0235
0.0235002
0.0235006
0.023501
0.0235015
0.0235021
0.0235031
0.0235045
0.0235044
0.0235039
0.0235063
0.0235079
0.0235092
0.0235123
0.0235116
0.0235126
0.0235182
0.0235196
0.0235206
0.0235229
0.0235251
0.0235284
0.0235304
0.0235322
0.0235335
0.0235332
0.023538
0.0235426
0.0235428
0.0235426
0.0235434
0.0235448
0.0235474
0.0235499
0.0235494
0.0235478
0.0235483
0.0235485
0.0235476
0.0235472
0.0235469
0.0235456
0.0235448
0.0235431
0.0235395
0.023538
0.0235385
0.0235364
0.0235314
0.0235261
0.0235257
0.0235234
0.0235206
0.0235185
0.0235136
0.0235089
0.0235065
0.0235023
0.023497
0.0234929
0.0234897
0.0234855
0.0234815
0.0234775
0.0234738
0.0234694
0.0234654
0.0234599
0.0234557
0.023452
0.0234486
0.0234418
0.0234343
0.0234292
0.0234246
0.0234199
0.0234135
0.0234066
0.0234017
0.0233973
0.0233928
0.0233867
0.0233809
0.023375
0.0233691
0.0233631
0.0233565
0.0233506
0.0233451
0.0233403
0.0233351
0.0233298
0.0233243
0.0233189
0.0233134
0.023308
0.0233025
0.0232971
0.0232917
0.0232863
0.0232809
0.0232756
0.0232702
0.0232649
0.0232596
0.0232543
0.023249
0.0232439
0.0232386
0.0232336
0.0232284
0.0232235
0.0232183
0.0232135
0.0232082
0.0232036
0.0231984
0.0231938
0.0231889
0.0231845
0.0231798
0.0231751
0.0231701
0.0231654
0.0231603
0.0231556
0.0231506
0.0231457
0.0231407
0.0231357
0.0231307
0.0231256
0.0231204
0.0231153
0.02311
0.0231048
0.0230994
0.023094
0.0230885
0.023083
0.0230774
0.0230718
0.023066
0.0230603
0.0230545
0.0230487
0.0230427
0.0230368
0.0230308
0.0230248
0.0230187
0.0230127
0.0230065
0.0230003
0.0229941
0.0229879
0.0229816
0.0229753
0.0229689
0.0229625
0.0229561
0.0229497
0.0229431
0.0229366
0.02293
0.0229234
0.0229167
0.0229101
0.0229032
0.0228965
0.0228896
0.0228827
0.0228757
0.0228687
0.0228615
0.0228544
0.0228472
0.02284
0.0228327
0.0228253
0.0228179
0.0228105
0.022803
0.0227956
0.022788
0.0227805
0.022773
0.0227655
0.0227579
0.0227504
0.0227428
0.0227354
0.0227278
0.0227204
0.0227129
0.0227056
0.0226982
0.0226909
0.0226835
0.0226763
0.0226691
0.022662
0.0226548
0.0226479
0.0226408
0.0226339
0.022627
0.0226202
0.0226134
0.0226068
0.0226
0.0225935
0.0225868
0.0225805
0.0225739
0.0225677
0.0225612
0.0225551
0.0225487
0.0225428
0.0225366
0.0225308
0.0225247
0.0225191
0.0225133
0.0225078
0.0225021
0.0224967
0.0224914
0.022486
0.0224809
0.0224759
0.0224711
0.0224673
0.0224607
0.0224549
0.0224483
0.0224445
0.0224399
0.0224355
0.0224311
0.0224268
0.0224225
0.0224185
0.0224143
0.0224104
0.0224064
0.0224025
0.0223987
0.0223948
0.0223911
0.0223873
0.0223836
0.0223799
0.0223762
0.0223725
0.0223689
0.0223652
0.0223616
0.0223579
0.0223543
0.0223506
0.022347
0.0223433
0.0223397
0.0223361
0.0223324
0.0223288
0.0223252
0.0223215
0.0223179
0.0223143
0.0223107
0.0223071
0.0223035
0.0222999
0.0222964
0.0222928
0.0222893
0.0222858
0.0222823
0.0222788
0.0222753
0.0222719
0.0222684
0.022265
0.0222616
0.0222582
0.0222548
0.0222515
0.0222481
0.0222448
0.0222414
0.0222381
0.0222348
0.0222315
0.0222283
0.022225
0.0222218
0.0222185
0.0222153
0.0222121
0.0222089
0.0222057
0.0222026
0.0221994
0.0221963
0.0221932
0.0221901
0.022187
0.0221839
0.0221808
0.0221779
0.0221749
0.0221719
0.0221689
0.022166
0.022163
0.0221601
0.0221571
0.0221541
0.0221512
0.0221482
0.0221452
0.0221423
0.0221393
0.0221363
0.0221333
0.0221303
0.0221273
0.0221243
0.0221213
0.0221183
0.0221153
0.0221123
0.0221092
0.0221062
0.0221031
0.0221002
0.0220971
0.0220942
0.022091
0.0220882
0.0220849
0.0220821
0.0220797
0.0220762
0.022073
0.0220693
0.0220665
0.0220633
0.02206
0.0220569
0.0220536
0.0220503
0.022047
0.0220437
0.0220403
0.0220368
0.0220334
0.0220297
0.0220262
0.0220223
0.0220186
0.0220153
0.0220107
0.0220064
0.0220014
0.0219974
0.0219928
0.021988
0.0219835
0.0219786
0.021974
0.0219691
0.0219644
0.0219595
0.0219547
0.0219497
0.0219448
0.0219399
0.0219349
0.0219299
0.0219249
0.0219199
0.0219148
0.0219098
0.0219047
0.0218997
0.0218947
0.0218897
0.0218847
0.0218797
0.0218747
0.0218698
0.0218648
0.0218599
0.021855
0.0218502
0.0218453
0.0218405
0.0218357
0.0218309
0.0218261
0.0218214
0.0218167
0.021812
0.0218074
0.0218027
0.0217982
0.0217936
0.0217891
0.0217846
0.0217801
0.0217756
0.0217712
0.0217669
0.0217625
0.0217582
0.0217538
0.0217498
0.0217453
0.0217414
0.0217369
0.021733
0.0217299
0.021725
0.0217205
0.0217156
0.021712
0.0217079
0.0217035
0.0216995
0.0216954
0.0216915
0.0216876
0.0216838
0.02168
0.0216764
0.0216727
0.0216692
0.0216656
0.0216621
0.0216587
0.0216553
0.021652
0.0216487
0.0216454
0.0216421
0.0216389
0.0216357
0.0216325
0.0216294
0.0216263
0.0216232
0.0216202
0.0216171
0.0216141
0.0216111
0.0216081
0.0216052
0.0216023
0.0215994
0.0215965
0.0215937
0.0215908
0.021588
0.0215852
0.0215824
0.0215796
0.0215769
0.0215741
0.0215714
0.0215684
0.0215658
0.0215627
0.0215601
0.0215569
0.0215542
0.0215508
0.0215481
0.0215444
0.0215415
0.0215374
0.0215342
0.0215304
0.0215271
0.0215237
0.0215194
0.0215114
0.0215018
0.0214969
0.0214938
0.0214893
0.021484
0.021478
0.0214732
0.0214703
0.0214695
0.0214694
0.0214701
0.0235
0.0235
0.0235
0.0235
0.0235
0.0235
0.0235
0.0235
0.0235
0.0235
0.0235
0.0235
0.0235
0.0235
0.0235
0.0235
0.0235
0.0235
0.0235
0.0235
0.0235
0.0235
0.0235
0.0235
0.0235
0.0235
0.0235
0.0235
0.0235
0.0235
0.0235
0.0235
0.0235
0.0235
0.0235
0.0235
0.0235
0.0235
0.0235
0.0235
0.0235
0.0235
0.0234999
0.0234999
0.0234999
0.0234999
0.0234999
0.0234999
0.0234998
0.0234998
0.0234999
0.0234999
0.0234998
0.0234998
0.0234998
0.0235003
0.023501
0.0235003
0.0234993
0.0235004
0.023501
0.0235013
0.0235024
0.0235007
0.0235003
0.0235038
0.0235041
0.0235035
0.023504
0.0235048
0.0235064
0.023507
0.023507
0.0235066
0.0235052
0.0235081
0.0235108
0.0235099
0.0235083
0.0235075
0.0235078
0.0235092
0.0235105
0.0235091
0.0235065
0.0235055
0.0235044
0.0235026
0.023501
0.0234997
0.0234974
0.0234956
0.0234927
0.0234885
0.0234861
0.0234854
0.0234825
0.0234768
0.0234708
0.0234691
0.0234656
0.0234626
0.0234597
0.0234545
0.0234494
0.0234458
0.0234412
0.0234352
0.0234304
0.0234263
0.0234215
0.0234168
0.0234122
0.0234078
0.0234029
0.0233984
0.0233923
0.0233883
0.023384
0.0233804
0.0233734
0.0233655
0.0233601
0.0233549
0.0233503
0.0233439
0.023337
0.0233323
0.0233278
0.0233237
0.0233175
0.0233116
0.0233054
0.0232992
0.0232928
0.0232859
0.0232799
0.0232742
0.0232694
0.0232641
0.0232588
0.0232533
0.0232478
0.0232424
0.0232369
0.0232315
0.0232261
0.0232207
0.0232154
0.0232101
0.0232049
0.0231996
0.0231945
0.0231893
0.0231842
0.0231791
0.0231741
0.023169
0.0231641
0.023159
0.0231543
0.0231492
0.0231446
0.0231395
0.023135
0.02313
0.0231256
0.0231208
0.0231166
0.0231118
0.0231073
0.0231022
0.0230973
0.0230921
0.0230871
0.0230818
0.0230766
0.0230713
0.023066
0.0230605
0.0230551
0.0230495
0.0230439
0.0230383
0.0230326
0.0230269
0.0230212
0.0230153
0.0230095
0.0230036
0.0229977
0.0229917
0.0229857
0.0229796
0.0229736
0.0229674
0.0229614
0.0229551
0.022949
0.0229427
0.0229365
0.0229302
0.022924
0.0229176
0.0229113
0.0229049
0.0228985
0.022892
0.0228856
0.0228791
0.0228726
0.022866
0.0228595
0.0228529
0.0228462
0.0228395
0.0228328
0.022826
0.0228192
0.0228123
0.0228054
0.0227984
0.0227914
0.0227843
0.0227773
0.0227701
0.0227629
0.0227556
0.0227484
0.022741
0.0227337
0.0227263
0.022719
0.0227116
0.0227043
0.0226968
0.0226895
0.0226821
0.0226749
0.0226675
0.0226603
0.022653
0.0226459
0.0226387
0.0226316
0.0226245
0.0226176
0.0226106
0.0226038
0.0225969
0.0225902
0.0225834
0.0225769
0.0225702
0.0225638
0.0225572
0.0225509
0.0225445
0.0225384
0.022532
0.022526
0.0225198
0.0225139
0.0225078
0.022502
0.022496
0.0224904
0.0224845
0.0224791
0.0224733
0.022468
0.0224624
0.0224573
0.0224519
0.0224468
0.0224416
0.0224366
0.0224317
0.0224267
0.022422
0.0224174
0.022413
0.0224095
0.0224033
0.0223983
0.0223922
0.0223888
0.0223846
0.0223807
0.0223766
0.0223728
0.0223688
0.0223651
0.0223613
0.0223576
0.022354
0.0223504
0.0223469
0.0223434
0.02234
0.0223366
0.0223332
0.0223298
0.0223265
0.0223231
0.0223198
0.0223165
0.0223132
0.0223098
0.0223066
0.0223032
0.0222999
0.0222966
0.0222933
0.02229
0.0222867
0.0222834
0.0222801
0.0222768
0.0222735
0.0222701
0.0222669
0.0222636
0.0222603
0.022257
0.0222537
0.0222505
0.0222472
0.022244
0.0222408
0.0222376
0.0222344
0.0222312
0.0222281
0.022225
0.0222218
0.0222187
0.0222157
0.0222126
0.0222096
0.0222065
0.0222035
0.0222005
0.0221975
0.0221945
0.0221915
0.0221886
0.0221856
0.0221827
0.0221798
0.0221768
0.0221739
0.022171
0.0221681
0.0221652
0.0221624
0.0221595
0.0221566
0.0221537
0.0221509
0.0221481
0.0221453
0.0221425
0.0221397
0.0221369
0.0221342
0.0221314
0.0221285
0.0221257
0.0221229
0.02212
0.0221172
0.0221143
0.0221115
0.0221086
0.0221057
0.0221028
0.0220999
0.022097
0.0220941
0.0220911
0.0220882
0.0220853
0.0220823
0.0220794
0.0220765
0.0220735
0.0220707
0.0220676
0.0220649
0.0220618
0.0220591
0.022056
0.0220533
0.0220509
0.0220476
0.0220448
0.0220413
0.0220388
0.0220358
0.0220326
0.0220295
0.0220262
0.022023
0.0220195
0.0220161
0.0220125
0.0220088
0.0220051
0.022001
0.0219972
0.0219928
0.0219888
0.0219851
0.02198
0.0219755
0.0219701
0.0219659
0.021961
0.0219558
0.0219508
0.0219454
0.0219402
0.0219348
0.0219295
0.021924
0.0219186
0.0219131
0.0219077
0.0219021
0.0218966
0.0218911
0.0218856
0.0218801
0.0218746
0.0218691
0.0218637
0.0218583
0.0218529
0.0218475
0.0218422
0.0218369
0.0218317
0.0218265
0.0218214
0.0218163
0.0218112
0.0218062
0.0218012
0.0217963
0.0217915
0.0217866
0.0217818
0.0217771
0.0217724
0.0217678
0.0217632
0.0217586
0.0217541
0.0217496
0.0217452
0.0217409
0.0217365
0.0217323
0.021728
0.0217238
0.0217196
0.0217156
0.0217114
0.0217076
0.0217033
0.0216997
0.0216954
0.0216919
0.0216889
0.0216845
0.0216807
0.0216762
0.0216732
0.0216696
0.0216657
0.0216621
0.0216583
0.0216548
0.0216512
0.0216477
0.0216442
0.0216408
0.0216374
0.0216341
0.0216309
0.0216276
0.0216245
0.0216213
0.0216182
0.0216151
0.0216121
0.0216091
0.0216061
0.0216032
0.0216003
0.0215974
0.0215945
0.0215917
0.0215889
0.0215861
0.0215833
0.0215806
0.0215779
0.0215752
0.0215725
0.0215699
0.0215672
0.0215646
0.021562
0.0215594
0.0215568
0.0215543
0.0215516
0.021549
0.0215463
0.0215437
0.0215408
0.0215381
0.021535
0.0215324
0.021529
0.0215263
0.0215226
0.0215197
0.0215157
0.0215125
0.021508
0.0215046
0.0215009
0.0214986
0.0214973
0.0214975
0.0214986
0.0214976
0.0214955
0.021493
0.0214903
0.0214872
0.0214832
0.0214789
0.0214749
0.0214722
0.0214705
0.0214703
0.0235
0.0235
0.0235
0.0235
0.0235
0.0235
0.0235
0.0235
0.0235
0.0235
0.0235
0.0235
0.0235
0.0235
0.0235
0.0235
0.0235
0.0235
0.0235
0.0235
0.0235
0.0235
0.0235
0.0235
0.0235
0.0235
0.0235
0.0235
0.0235
0.0235
0.0235
0.0235
0.0235
0.0234999
0.0234999
0.0234999
0.0234999
0.0234999
0.0234999
0.0234998
0.0234998
0.0234998
0.0234997
0.0234997
0.0234996
0.0234996
0.0234995
0.0234994
0.0234993
0.0234992
0.0234991
0.023499
0.0234988
0.0234985
0.0234983
0.0234984
0.0234986
0.0234976
0.0234963
0.0234967
0.0234967
0.0234963
0.0234961
0.0234938
0.0234926
0.0234942
0.0234935
0.0234917
0.0234905
0.0234898
0.0234894
0.0234883
0.0234861
0.0234834
0.0234801
0.0234802
0.02348
0.0234773
0.0234736
0.0234706
0.0234688
0.0234679
0.0234669
0.0234635
0.023459
0.0234557
0.0234524
0.0234489
0.0234453
0.0234421
0.0234382
0.0234346
0.0234302
0.023425
0.0234211
0.0234188
0.0234144
0.0234076
0.0234008
0.0233977
0.0233929
0.0233894
0.0233855
0.0233801
0.0233748
0.0233702
0.0233647
0.0233583
0.0233532
0.0233486
0.0233434
0.0233384
0.0233335
0.0233292
0.0233242
0.0233195
0.0233133
0.0233099
0.0233052
0.0233014
0.0232944
0.0232865
0.023281
0.0232754
0.0232708
0.0232647
0.0232583
0.0232539
0.0232494
0.0232457
0.0232398
0.023234
0.0232279
0.0232218
0.0232154
0.0232087
0.0232029
0.0231972
0.0231925
0.0231874
0.0231822
0.0231769
0.0231716
0.0231662
0.023161
0.0231557
0.0231505
0.0231453
0.0231402
0.0231351
0.0231301
0.0231251
0.0231201
0.0231152
0.0231104
0.0231055
0.0231008
0.0230959
0.0230914
0.0230865
0.0230821
0.0230772
0.0230728
0.0230679
0.0230637
0.0230588
0.0230547
0.02305
0.0230459
0.0230412
0.0230367
0.0230315
0.0230266
0.0230213
0.0230161
0.0230106
0.0230052
0.0229995
0.0229939
0.0229881
0.0229824
0.0229764
0.0229706
0.0229645
0.0229586
0.0229525
0.0229464
0.0229403
0.0229342
0.0229279
0.0229218
0.0229155
0.0229093
0.022903
0.0228968
0.0228905
0.0228842
0.0228779
0.0228716
0.0228652
0.022859
0.0228526
0.0228462
0.0228398
0.0228335
0.022827
0.0228207
0.0228142
0.0228078
0.0228013
0.0227948
0.0227882
0.0227817
0.0227751
0.0227685
0.0227618
0.0227551
0.0227484
0.0227416
0.0227348
0.022728
0.022721
0.0227141
0.0227071
0.0227001
0.0226931
0.022686
0.0226789
0.0226718
0.0226647
0.0226576
0.0226504
0.0226433
0.0226361
0.022629
0.0226219
0.0226149
0.0226078
0.0226009
0.0225939
0.022587
0.0225802
0.0225734
0.0225666
0.02256
0.0225534
0.0225469
0.0225404
0.022534
0.0225276
0.0225214
0.0225151
0.022509
0.0225029
0.022497
0.022491
0.0224852
0.0224793
0.0224736
0.0224678
0.0224623
0.0224566
0.0224512
0.0224456
0.0224403
0.0224348
0.0224297
0.0224243
0.0224194
0.0224141
0.0224093
0.0224042
0.0223994
0.0223945
0.0223899
0.0223852
0.0223806
0.022376
0.0223715
0.0223672
0.022363
0.022359
0.0223556
0.02235
0.0223455
0.0223399
0.0223368
0.022333
0.0223295
0.0223258
0.0223223
0.0223187
0.0223153
0.0223119
0.0223085
0.0223052
0.022302
0.0222988
0.0222956
0.0222925
0.0222893
0.0222863
0.0222832
0.0222801
0.0222771
0.0222741
0.022271
0.022268
0.022265
0.022262
0.0222589
0.0222559
0.0222529
0.0222499
0.0222469
0.0222439
0.0222409
0.0222379
0.0222348
0.0222318
0.0222288
0.0222258
0.0222228
0.0222199
0.0222169
0.0222139
0.022211
0.022208
0.0222051
0.0222022
0.0221993
0.0221964
0.0221935
0.0221907
0.0221879
0.022185
0.0221822
0.0221794
0.0221767
0.0221739
0.0221712
0.0221684
0.0221657
0.022163
0.0221603
0.0221576
0.0221549
0.0221522
0.0221495
0.0221468
0.0221441
0.0221414
0.0221387
0.0221361
0.0221334
0.0221307
0.022128
0.0221254
0.0221227
0.02212
0.0221173
0.0221147
0.022112
0.0221094
0.0221067
0.0221041
0.0221014
0.0220987
0.0220959
0.0220932
0.0220904
0.0220876
0.0220849
0.0220821
0.0220792
0.0220764
0.0220736
0.0220707
0.0220679
0.022065
0.0220622
0.0220593
0.0220565
0.0220536
0.0220507
0.0220479
0.022045
0.0220423
0.0220394
0.0220367
0.0220338
0.0220312
0.0220282
0.0220257
0.0220233
0.0220202
0.0220175
0.0220141
0.0220117
0.0220087
0.0220055
0.0220023
0.0219989
0.0219955
0.0219918
0.021988
0.0219841
0.0219799
0.0219758
0.0219712
0.0219669
0.021962
0.0219574
0.021953
0.0219474
0.0219424
0.0219364
0.0219317
0.0219263
0.0219205
0.021915
0.0219091
0.0219034
0.0218974
0.0218916
0.0218856
0.0218798
0.0218738
0.0218679
0.021862
0.0218561
0.0218502
0.0218443
0.0218385
0.0218327
0.0218269
0.0218213
0.0218156
0.02181
0.0218045
0.021799
0.0217936
0.0217883
0.021783
0.0217778
0.0217727
0.0217676
0.0217626
0.0217576
0.0217528
0.0217479
0.0217432
0.0217385
0.0217339
0.0217293
0.0217248
0.0217203
0.021716
0.0217116
0.0217074
0.0217032
0.021699
0.0216949
0.0216908
0.0216868
0.0216829
0.021679
0.0216752
0.0216713
0.0216677
0.0216638
0.0216604
0.0216564
0.0216533
0.0216504
0.0216463
0.021643
0.021639
0.0216362
0.021633
0.0216295
0.0216263
0.0216229
0.0216197
0.0216165
0.0216133
0.0216102
0.0216071
0.021604
0.021601
0.021598
0.0215951
0.0215922
0.0215893
0.0215865
0.0215837
0.0215809
0.0215782
0.0215755
0.0215728
0.0215701
0.0215675
0.0215649
0.0215623
0.0215597
0.0215572
0.0215547
0.0215522
0.0215497
0.0215472
0.0215448
0.0215424
0.02154
0.0215376
0.0215352
0.0215328
0.0215303
0.0215279
0.0215253
0.0215227
0.02152
0.0215173
0.0215143
0.0215115
0.0215082
0.0215053
0.0215016
0.0214985
0.0214945
0.0214912
0.0214867
0.0214831
0.0214782
0.0214744
0.0214704
0.0214683
0.0214679
0.02147
0.0214758
0.0214801
0.0214815
0.0214804
0.02148
0.02148
0.0214798
0.0214786
0.0214764
0.0214739
0.0214717
0.0214705
0.0235
0.0235
0.0235
0.0235
0.0235
0.0235
0.0235
0.0235
0.0235
0.0235
0.0235
0.0235
0.0235
0.0235
0.0235
0.0235
0.0235
0.0235
0.0235
0.0235
0.0235
0.0235
0.0235
0.0235
0.0235
0.0235
0.0235
0.0235
0.0234999
0.0234999
0.0234999
0.0234999
0.0234999
0.0234998
0.0234998
0.0234997
0.0234997
0.0234996
0.0234996
0.0234995
0.0234994
0.0234992
0.0234991
0.0234989
0.0234987
0.0234985
0.0234983
0.0234979
0.0234976
0.0234972
0.0234968
0.0234962
0.0234956
0.0234948
0.0234941
0.0234936
0.0234929
0.0234912
0.0234892
0.0234883
0.0234873
0.0234858
0.0234839
0.0234805
0.0234779
0.0234773
0.0234746
0.023471
0.0234675
0.0234646
0.0234617
0.0234581
0.0234527
0.0234467
0.0234402
0.0234372
0.0234332
0.023428
0.0234218
0.0234168
0.0234131
0.0234099
0.0234064
0.0234011
0.0233946
0.0233888
0.0233835
0.0233782
0.0233731
0.0233684
0.023363
0.0233579
0.0233521
0.0233462
0.0233413
0.0233378
0.0233323
0.0233247
0.0233174
0.0233133
0.0233078
0.0233038
0.0232991
0.0232942
0.0232889
0.0232842
0.0232787
0.0232723
0.0232668
0.023262
0.0232567
0.0232521
0.0232479
0.0232442
0.0232395
0.0232351
0.0232295
0.0232266
0.0232218
0.0232181
0.0232112
0.0232036
0.0231982
0.0231925
0.0231881
0.0231827
0.0231771
0.0231732
0.0231688
0.0231655
0.0231601
0.0231547
0.023149
0.0231431
0.0231371
0.0231308
0.0231253
0.0231199
0.0231154
0.0231105
0.0231056
0.0231005
0.0230955
0.0230904
0.0230853
0.0230803
0.0230753
0.0230704
0.0230655
0.0230607
0.0230559
0.0230511
0.0230465
0.0230418
0.0230372
0.0230326
0.0230282
0.0230236
0.0230193
0.0230147
0.0230105
0.0230058
0.0230017
0.022997
0.0229929
0.0229882
0.0229841
0.0229794
0.0229754
0.0229706
0.0229661
0.0229609
0.0229558
0.0229503
0.0229449
0.0229392
0.0229335
0.0229276
0.0229217
0.0229156
0.0229096
0.0229033
0.0228971
0.0228908
0.0228845
0.0228781
0.0228718
0.0228654
0.022859
0.0228526
0.0228462
0.0228398
0.0228334
0.022827
0.0228206
0.0228142
0.0228079
0.0228014
0.0227951
0.0227887
0.0227824
0.022776
0.0227697
0.0227633
0.022757
0.0227506
0.0227442
0.0227378
0.0227314
0.0227249
0.0227185
0.022712
0.0227055
0.022699
0.0226924
0.0226858
0.0226792
0.0226725
0.0226659
0.0226591
0.0226524
0.0226456
0.0226388
0.022632
0.0226252
0.0226183
0.0226114
0.0226045
0.0225977
0.0225908
0.0225839
0.0225771
0.0225703
0.0225634
0.0225567
0.02255
0.0225433
0.0225367
0.0225302
0.0225236
0.0225172
0.0225108
0.0225046
0.0224983
0.0224922
0.0224861
0.0224801
0.0224741
0.0224683
0.0224625
0.0224568
0.0224511
0.0224455
0.02244
0.0224345
0.0224291
0.0224238
0.0224185
0.0224133
0.022408
0.022403
0.0223978
0.022393
0.0223879
0.0223831
0.0223781
0.0223735
0.0223686
0.0223641
0.0223593