/*--------------------------------*- C++ -*----------------------------------*\
| =========                 |                                                 |
| \\      /  F ield         | foam-extend: Open Source CFD                    |
|  \\    /   O peration     | Version:     3.2                                |
|   \\  /    A nd           | Web:         http://www.foam-extend.org         |
|    \\/     M anipulation  | For copyright notice see file Copyright         |
\*---------------------------------------------------------------------------*/
FoamFile
{
    version     2.0;
    format      ascii;
    class       areaScalarField;
    location    "2020";
    object      Ce1;
}
// * * * * * * * * * * * * * * * * * * * * * * * * * * * * * * * * * * * * * //

dimensions      [1 -3 0 0 0 0 0];

internalField   nonuniform List<scalar> 
550
(
0.00292492
0.00540563
0.00903524
0.013997
0.0203515
0.0279965
0.036675
0.0459787
0.055448
0.0645918
0.0729495
0.0802846
0.0864311
0.0911151
0.0945328
0.0967778
0.0978229
0.097945
0.0973583
0.0962075
0.0946461
0.0927538
0.0906314
0.0883937
0.0860593
0.0837138
0.081383
0.0791368
0.0769912
0.0749343
0.0729737
0.071116
0.0693588
0.0677197
0.0661756
0.064742
0.0633923
0.0621315
0.0609654
0.0598775
0.0588522
0.0579166
0.0570363
0.0562159
0.0554553
0.0547524
0.0540943
0.0533217
0.0528727
0.0523381
0.0517078
0.0513723
0.0509788
0.050373
0.0500329
0.0496404
0.0493744
0.0491078
0.0406353
0.0484465
0.0482434
0.0479355
0.0477861
0.0340407
0.033337
0.0472151
0.0471042
0.0469499
0.0306998
0.0465626
0.0465024
0.0461204
0.0417609
0.0364097
0.0350252
0.036058
0.046189
0.0455681
0.0366065
0.0319597
0.035128
0.0367167
0.0455396
0.0453804
0.0451936
0.0355254
0.0346044
0.035858
0.0353703
0.0447853
0.044445
0.0439842
0.0338025
0.0333003
0.035239
0.0336568
0.0439032
0.0437623
0.0430414
0.0359141
0.0341516
0.0308853
0.0297682
0.042542
0.0395715
0.0429725
0.0394476
0.0364339
0.0334078
0.0369661
0.0370546
0.0417337
0.042269
0.0421699
0.0423816
0.0361715
0.0372457
0.0345277
0.0248664
0.0388929
0.0385973
0.0389989
0.0370375
0.0337198
0.0395316
0.0382553
0.0387228
0.0376378
0.0328302
0.0394604
0.0393324
0.0389189
0.0386956
0.038046
0.0381577
0.0371888
0.0370486
0.0389059
0.0382473
0.0380339
0.0377987
0.0377863
0.037714
0.0378045
0.0377217
0.0378359
0.0377499
0.037883
0.0377873
0.0379313
0.0378221
0.0379713
0.0378609
0.0380155
0.0378958
0.0380686
0.0379139
0.0381876
0.037873
0.0384315
0.0376423
0.0383303
0.0375391
0.0382393
0.0376068
0.0381425
0.0380024
0.0379805
0.0379942
0.0380355
0.0388364
0.0388135
0.0389161
0.0388505
0.0388289
0.0387765
0.0386611
0.0386756
0.0384126
0.0385307
0.0381556
0.0383181
0.0379764
0.0381632
0.0378456
0.0380481
0.0377489
0.0379607
0.0376758
0.0378934
0.0376204
0.0378409
0.0375778
0.0378
0.0375454
0.0377683
0.0375213
0.0377426
0.0375023
0.0377208
0.0374861
0.0377018
0.0374725
0.0376838
0.0374591
0.0376664
0.0374453
0.0376485
0.0374308
0.0376296
0.0374151
0.0376097
0.0373977
0.0375884
0.0373785
0.0375653
0.0373575
0.0375406
0.0373344
0.0375147
0.0373094
0.0374867
0.0372822
0.0374574
0.0372533
0.0374273
0.0372233
0.0373972
0.0371931
0.037368
0.037164
0.0373394
0.0371354
0.0373125
0.0371074
0.0372854
0.0370799
0.0372595
0.0370528
0.0372342
0.0370259
0.0372092
0.0369976
0.037184
0.0369704
0.0371611
0.0369451
0.0371423
0.0369209
0.0371265
0.0368953
0.0371156
0.0368661
0.0371135
0.0368259
0.0371252
0.036765
0.0371468
0.0366806
0.0371665
0.0365805
0.037162
0.0364942
0.0371588
0.0364289
0.037155
0.0363934
0.0371481
0.0364021
0.0371354
0.0364653
0.0371165
0.0365918
0.0370909
0.0367812
0.0370637
0.0370045
0.0370399
0.0369617
0.0366656
0.0369115
0.0366364
0.036781
0.0358817
0.0318738
0.0375193
0.0370098
0.0370936
0.0371252
0.037036
0.0370268
0.0369425
0.0369196
0.0368618
0.0368323
0.0367984
0.036764
0.0367424
0.0367041
0.036701
0.0366628
0.0366702
0.0366327
0.0366447
0.0366076
0.0366226
0.0365873
0.0366042
0.0365711
0.0365877
0.0365564
0.0365725
0.0365432
0.0365582
0.0365321
0.0365454
0.0365212
0.0365324
0.0365114
0.0365199
0.0365021
0.0365092
0.0364944
0.0364988
0.0364869
0.0364897
0.0364804
0.0364815
0.0364743
0.0364748
0.0364704
0.0364624
0.0364409
0.036394
0.0363828
0.036341
0.0363364
0.0362985
0.0362977
0.0362616
0.0362638
0.0362294
0.0362332
0.0362
0.0362059
0.0361748
0.0361828
0.0361522
0.036161
0.0361322
0.0361425
0.0361154
0.036139
0.0361059
0.0361593
0.0360909
0.0362103
0.0360432
0.0362897
0.0359521
0.0361666
0.0360615
0.0359698
0.035871
0.0357639
0.0356189
0.035484
0.0353458
0.035209
0.0350736
0.0349406
0.0348077
0.0346794
0.0345513
0.0344274
0.0343046
0.0341836
0.0340649
0.0339487
0.0338353
0.0337232
0.0336265
0.033502
0.0334232
0.0332767
0.0332395
0.0330409
0.0330272
0.0327927
0.0324228
0.0325372
0.0316304
0.032337
0.0306935
0.0323089
0.0313155
0.0316366
0.0318859
0.0310424
0.0311124
0.0310546
0.0309462
0.0308985
0.0308662
0.0308198
0.0307344
0.0307855
0.0306284
0.030537
0.0305126
0.0297739
0.0304497
0.0289062
0.0305381
0.0296618
0.0301226
0.0303349
0.0294373
0.0293047
0.0295411
0.0292739
0.0294448
0.0294018
0.0294016
0.0294225
0.0293836
0.0293922
0.0293736
0.0293748
0.0293643
0.0293578
0.0293463
0.0293354
0.0293202
0.0293051
0.0292889
0.0292704
0.029249
0.0292263
0.0292013
0.0291744
0.0291465
0.0291164
0.0290852
0.029052
0.0290172
0.0289814
0.0289449
0.0289066
0.0288667
0.028825
0.0287816
0.028738
0.0286925
0.0286464
0.0286
0.0285517
0.0285023
0.028453
0.0284028
0.0283534
0.0283053
0.0282522
0.0282098
0.0281477
0.0281205
0.0280315
0.0280422
0.0278907
0.0278714
0.02771
0.0270419
0.0275356
0.0256491
0.0275823
0.0268996
0.0283694
0.0274337
0.0264571
0.0258743
0.0265469
0.0262169
0.0263823
0.0263254
0.0262501
0.0261921
0.0261431
0.0260903
0.0260423
0.0259907
0.0259402
0.025889
0.0258359
0.0257817
0.0257252
0.0256647
0.0256029
0.0255374
0.0254696
0.0253984
0.0253247
0.025249
0.0251693
0.0250878
0.0250029
0.0249171
0.0248305
0.0247411
0.024651
0.0245592
0.0244671
0.0243743
0.0242795
0.0241858
0.0240904
0.0239975
0.0238996
0.0238104
0.0237012
0.0236253
0.0234919
0.0234324
0.0232516
0.0229073
0.022971
0.0222301
0.0226559
0.0214324
0.0223587
0.0206756
0.0221816
0.0204348
0.0222613
0.0210291
0.0226699
0.0225559
0.0224938
0.0212687
0.023767
0.0302424
0.0120719
0.0102958
0.00758324
0.00565442
0.00324179
0.0017102
0.000861047
0.00100312
0.002715
0.00672525
)
;

boundaryField
{
    inlet
    {
        type            calculated;
        value           uniform 0;
    }
    endWall
    {
        type            calculated;
        value           uniform 0;
    }
    sideWall
    {
        type            empty;
    }
}


// ************************************************************************* //
