/*--------------------------------*- C++ -*----------------------------------*\
| =========                 |                                                 |
| \\      /  F ield         | foam-extend: Open Source CFD                    |
|  \\    /   O peration     | Version:     3.2                                |
|   \\  /    A nd           | Web:         http://www.foam-extend.org         |
|    \\/     M anipulation  | For copyright notice see file Copyright         |
\*---------------------------------------------------------------------------*/
FoamFile
{
    version     2.0;
    format      ascii;
    class       areaScalarField;
    location    "2020";
    object      Cpost;
}
// * * * * * * * * * * * * * * * * * * * * * * * * * * * * * * * * * * * * * //

dimensions      [1 -3 0 0 0 0 0];

internalField   nonuniform List<scalar> 
550
(
0.0235
0.0235
0.0235
0.0235
0.0235
0.0235
0.0235
0.0235
0.0235
0.0235
0.0235
0.0235
0.0235
0.0235
0.0235
0.0235
0.0235
0.0235
0.0235
0.0235
0.0235
0.0235
0.0235
0.0235
0.0235
0.0235
0.0235
0.0235
0.0235
0.0235
0.0235
0.0235
0.0235
0.0235
0.0235
0.0235
0.0235
0.0235
0.0235
0.0235
0.0235
0.0235
0.0235
0.0235
0.0235
0.0235
0.0235
0.0235001
0.0235004
0.0235015
0.0235196
0.0235645
0.0235626
0.0235615
0.0235612
0.0235636
0.023575
0.0235875
0.0236069
0.0236236
0.0236415
0.02366
0.0236717
0.0236735
0.023681
0.0236789
0.0236938
0.0237067
0.0237013
0.023705
0.0237167
0.023717
0.0237208
0.0237175
0.0237178
0.0237102
0.0236983
0.0237007
0.0236992
0.0236999
0.0237
0.0236988
0.0236974
0.0236914
0.0236883
0.0236871
0.0236818
0.0236796
0.0236748
0.0236719
0.0236637
0.0236616
0.023654
0.0236493
0.023647
0.0236438
0.0236382
0.023633
0.0236262
0.0236239
0.0236152
0.0236093
0.0235924
0.0235942
0.0235922
0.0235993
0.0235949
0.0235942
0.023595
0.0235925
0.0235906
0.0235883
0.0235854
0.0235825
0.0235799
0.0235737
0.0235705
0.0235549
0.023544
0.0235423
0.0235371
0.0235336
0.0235248
0.0235172
0.0235178
0.0235115
0.0235073
0.0234994
0.0234902
0.0234911
0.0234899
0.0234872
0.0234835
0.0234772
0.0234717
0.0234623
0.0234531
0.0234519
0.0234478
0.0234426
0.0234366
0.0234306
0.0234245
0.0234189
0.023413
0.0234076
0.0234019
0.0233968
0.0233913
0.0233864
0.0233811
0.0233763
0.0233711
0.0233666
0.0233615
0.0233571
0.0233521
0.0233481
0.0233429
0.0233399
0.0233336
0.0233302
0.0233237
0.02332
0.0233138
0.0233099
0.0233054
0.0233008
0.0232965
0.0232922
0.0232912
0.0232894
0.0232881
0.023286
0.0232838
0.0232812
0.023278
0.0232748
0.0232705
0.0232666
0.0232613
0.0232567
0.0232507
0.0232457
0.0232395
0.0232342
0.0232278
0.0232223
0.0232158
0.0232103
0.0232038
0.0231982
0.0231917
0.0231861
0.0231796
0.023174
0.0231675
0.0231619
0.0231554
0.0231498
0.0231433
0.0231377
0.0231311
0.0231255
0.023119
0.0231133
0.0231067
0.023101
0.0230943
0.0230885
0.0230818
0.0230759
0.0230691
0.0230631
0.0230562
0.0230501
0.0230431
0.0230369
0.0230298
0.0230234
0.0230162
0.0230097
0.0230023
0.0229957
0.0229882
0.0229814
0.0229738
0.022967
0.0229592
0.0229523
0.0229445
0.0229375
0.0229296
0.0229225
0.0229146
0.0229074
0.0228995
0.0228923
0.0228843
0.0228772
0.0228692
0.022862
0.022854
0.0228469
0.0228389
0.0228318
0.0228238
0.0228168
0.0228089
0.0228019
0.022794
0.0227871
0.0227792
0.0227724
0.0227645
0.022758
0.02275
0.0227436
0.0227354
0.0227293
0.0227208
0.0227149
0.0227062
0.0227005
0.0226918
0.0226862
0.0226776
0.0226722
0.0226639
0.0226587
0.0226508
0.0226456
0.0226384
0.0226334
0.0226271
0.022622
0.0226166
0.0226115
0.022606
0.0225995
0.0225943
0.0225879
0.0225828
0.0225735
0.0225511
0.0225505
0.0225477
0.0225448
0.022542
0.0225386
0.0225352
0.0225313
0.0225273
0.0225231
0.0225188
0.0225144
0.0225099
0.0225054
0.0225008
0.0224963
0.0224917
0.0224872
0.0224825
0.022478
0.0224734
0.022469
0.0224644
0.02246
0.0224555
0.0224511
0.0224467
0.0224424
0.022438
0.0224337
0.0224294
0.0224251
0.0224209
0.0224167
0.0224125
0.0224083
0.0224042
0.0224001
0.022396
0.0223919
0.0223879
0.0223839
0.0223799
0.022376
0.022372
0.0223681
0.0223643
0.0223604
0.0223564
0.0223524
0.0223483
0.0223441
0.02234
0.0223358
0.0223316
0.0223274
0.0223232
0.022319
0.0223149
0.0223107
0.0223066
0.0223024
0.0222984
0.0222942
0.0222902
0.0222861
0.0222822
0.0222781
0.0222743
0.0222703
0.0222667
0.0222628
0.0222594
0.0222553
0.0222523
0.022248
0.0222446
0.0222409
0.0222376
0.0222344
0.0222312
0.0222279
0.0222247
0.0222215
0.0222182
0.022215
0.0222118
0.0222085
0.0222053
0.0222021
0.0221988
0.0221956
0.0221924
0.0221892
0.0221859
0.0221827
0.0221795
0.0221762
0.022173
0.0221698
0.0221666
0.0221634
0.0221601
0.0221569
0.0221537
0.0221505
0.0221472
0.0221441
0.0221408
0.0221375
0.0221344
0.0221134
0.0221122
0.0221103
0.0221084
0.0221061
0.0221037
0.0221012
0.0220986
0.022096
0.0220932
0.0220904
0.0220876
0.0220846
0.0220816
0.0220785
0.0220753
0.022072
0.0220687
0.0220654
0.022038
0.0220376
0.0220359
0.022034
0.0220317
0.0220294
0.0220268
0.0220242
0.0220214
0.0220185
0.0220156
0.0220125
0.0220094
0.0220062
0.0220029
0.0219995
0.0219961
0.0219926
0.021989
0.0219854
0.0219817
0.021978
0.0219743
0.0219705
0.0219666
0.0219627
0.0219588
0.0219548
0.0219508
0.0219468
0.0219427
0.0219386
0.0219345
0.0219303
0.0219261
0.0219218
0.0219175
0.0219132
0.0219089
0.0219045
0.0219002
0.0218958
0.0218914
0.0218869
0.0218825
0.0218781
0.0218736
0.0218692
0.0218647
0.0218602
0.0218558
0.0218513
0.0218468
0.0218424
0.0218379
0.0218336
0.021829
0.0218247
0.0218202
0.0218157
0.0218116
0.0217739
0.0217735
0.0217717
0.0217698
0.0217674
0.0217647
0.0217619
0.021759
0.0217559
0.0217527
0.0217495
0.0217462
0.0217429
0.0217395
0.021736
0.0217326
0.0217291
0.0217256
0.0217221
0.0217186
0.0217151
0.0217116
0.0217081
0.0217046
0.0217011
0.0216976
0.0216941
0.0216906
0.0216871
0.0216837
0.0216802
0.0216768
0.0216733
0.0216699
0.0216665
0.0216631
0.0216597
0.0216563
0.021653
0.0216496
0.0216463
0.0216431
0.0216398
0.0216365
0.0216333
0.0216301
0.021627
0.0216238
0.0216207
0.0216175
0.0216146
0.0216114
0.0216085
0.0216053
0.0216024
0.0215991
0.0215961
0.0215926
0.0215892
0.0215408
0.0214991
0.0214655
0.0214322
0.0214085
0.0214159
0.0214229
0.0214311
0.0214365
0.0214413
0.0214457
0.0214522
0.0214649
0.0214679
0.0214688
0.0214694
)
;

boundaryField
{
    inlet
    {
        type            calculated;
        value           uniform 0;
    }
    endWall
    {
        type            calculated;
        value           uniform 0;
    }
    sideWall
    {
        type            empty;
    }
}


// ************************************************************************* //
