/*--------------------------------*- C++ -*----------------------------------*\
| =========                 |                                                 |
| \\      /  F ield         | foam-extend: Open Source CFD                    |
|  \\    /   O peration     | Version:     3.2                                |
|   \\  /    A nd           | Web:         http://www.foam-extend.org         |
|    \\/     M anipulation  | For copyright notice see file Copyright         |
\*---------------------------------------------------------------------------*/
FoamFile
{
    version     2.0;
    format      ascii;
    class       areaScalarField;
    location    "2020";
    object      Cpre;
}
// * * * * * * * * * * * * * * * * * * * * * * * * * * * * * * * * * * * * * //

dimensions      [1 -3 0 0 0 0 0];

internalField   nonuniform List<scalar> 
550
(
0.0235
0.0235
0.0235
0.0235
0.0235
0.0235
0.0235
0.0235
0.0235
0.0235
0.0235
0.0235
0.0235
0.0235
0.0235
0.0235
0.0235
0.0235
0.0235
0.0235
0.0235
0.0235
0.0235
0.0235
0.0235
0.0235
0.0235
0.0235
0.0235
0.0235
0.0235
0.0235
0.0235
0.0235
0.0235
0.0235
0.0235
0.0235
0.0235
0.0235
0.0235
0.0235
0.0235
0.0235
0.0235
0.0235
0.0235
0.0235001
0.0235004
0.0235015
0.0235196
0.023562
0.0235621
0.0235615
0.0235612
0.0235636
0.0235729
0.023587
0.0236069
0.0236217
0.0236397
0.0236582
0.02367
0.0236744
0.0236793
0.0236773
0.0236922
0.0237051
0.0237013
0.023705
0.0237152
0.0237182
0.0237199
0.0237175
0.0237165
0.0237095
0.023697
0.0237033
0.0236994
0.0237006
0.0236986
0.0236975
0.0236961
0.0236922
0.0236891
0.0236875
0.0236821
0.0236784
0.0236736
0.0236707
0.0236647
0.0236622
0.0236549
0.0236501
0.0236459
0.0236427
0.0236372
0.0236345
0.0236269
0.0236243
0.0236159
0.0236087
0.0235915
0.0235935
0.023592
0.0235984
0.0235947
0.0235945
0.0235942
0.0235919
0.0235898
0.0235876
0.0235857
0.0235828
0.023581
0.023574
0.0235706
0.0235556
0.0235434
0.0235422
0.0235371
0.0235335
0.0235248
0.0235167
0.0235175
0.0235115
0.0235072
0.0234995
0.0234897
0.0234909
0.0234897
0.0234871
0.0234834
0.0234772
0.0234717
0.0234624
0.0234533
0.0234517
0.0234477
0.0234426
0.0234367
0.0234307
0.0234246
0.0234189
0.023413
0.0234076
0.0234019
0.0233968
0.0233913
0.0233864
0.0233811
0.0233763
0.0233712
0.0233666
0.0233615
0.0233571
0.0233521
0.0233481
0.0233429
0.0233398
0.0233337
0.0233302
0.0233237
0.0233199
0.0233139
0.0233098
0.0233054
0.0233007
0.0232964
0.0232922
0.0232911
0.0232893
0.0232879
0.0232858
0.0232836
0.023281
0.0232779
0.0232746
0.0232704
0.0232665
0.0232612
0.0232566
0.0232507
0.0232457
0.0232395
0.0232341
0.0232278
0.0232223
0.0232158
0.0232103
0.0232038
0.0231982
0.0231917
0.0231861
0.0231796
0.023174
0.0231675
0.0231619
0.0231554
0.0231498
0.0231433
0.0231377
0.0231312
0.0231255
0.023119
0.0231133
0.0231067
0.023101
0.0230943
0.0230885
0.0230818
0.0230759
0.0230691
0.0230631
0.0230563
0.0230501
0.0230431
0.0230369
0.0230298
0.0230234
0.0230162
0.0230097
0.0230023
0.0229957
0.0229882
0.0229814
0.0229739
0.022967
0.0229593
0.0229523
0.0229445
0.0229374
0.0229296
0.0229225
0.0229146
0.0229074
0.0228995
0.0228923
0.0228844
0.0228772
0.0228692
0.022862
0.0228541
0.0228469
0.0228389
0.0228318
0.0228239
0.0228168
0.0228089
0.0228019
0.022794
0.0227871
0.0227792
0.0227724
0.0227646
0.0227579
0.02275
0.0227436
0.0227354
0.0227292
0.0227209
0.0227148
0.0227063
0.0227004
0.0226919
0.0226862
0.0226777
0.0226722
0.022664
0.0226586
0.0226509
0.0226456
0.0226385
0.0226333
0.0226271
0.0226219
0.0226166
0.0226114
0.022606
0.0225995
0.0225942
0.0225879
0.0225828
0.0225737
0.0225518
0.0225504
0.0225476
0.0225447
0.022542
0.0225385
0.0225351
0.0225312
0.0225273
0.022523
0.0225188
0.0225144
0.0225099
0.0225054
0.0225008
0.0224963
0.0224917
0.0224871
0.0224825
0.022478
0.0224734
0.022469
0.0224644
0.02246
0.0224555
0.0224511
0.0224467
0.0224424
0.022438
0.0224337
0.0224294
0.0224251
0.0224208
0.0224167
0.0224124
0.0224083
0.0224042
0.0224001
0.022396
0.0223919
0.0223879
0.0223839
0.0223799
0.022376
0.022372
0.0223681
0.0223642
0.0223604
0.0223564
0.0223524
0.0223483
0.0223441
0.02234
0.0223358
0.0223316
0.0223274
0.0223233
0.022319
0.0223149
0.0223107
0.0223066
0.0223024
0.0222984
0.0222943
0.0222902
0.0222862
0.0222822
0.0222782
0.0222743
0.0222704
0.0222667
0.0222628
0.0222594
0.0222554
0.0222523
0.022248
0.0222446
0.0222409
0.0222376
0.0222344
0.0222312
0.0222279
0.0222247
0.0222215
0.0222182
0.022215
0.0222118
0.0222085
0.0222053
0.0222021
0.0221988
0.0221956
0.0221924
0.0221892
0.0221859
0.0221827
0.0221795
0.0221762
0.022173
0.0221698
0.0221666
0.0221634
0.0221601
0.0221569
0.0221537
0.0221505
0.0221472
0.0221441
0.0221408
0.0221375
0.0221344
0.0221142
0.0221122
0.0221103
0.0221084
0.0221061
0.0221037
0.0221012
0.0220986
0.022096
0.0220932
0.0220904
0.0220876
0.0220846
0.0220816
0.0220785
0.0220753
0.022072
0.0220687
0.0220654
0.0220391
0.0220376
0.0220359
0.022034
0.0220317
0.0220294
0.0220268
0.0220242
0.0220214
0.0220185
0.0220156
0.0220125
0.0220094
0.0220062
0.0220029
0.0219995
0.0219961
0.0219926
0.021989
0.0219854
0.0219817
0.021978
0.0219743
0.0219705
0.0219666
0.0219627
0.0219588
0.0219548
0.0219508
0.0219468
0.0219427
0.0219386
0.0219345
0.0219303
0.0219261
0.0219218
0.0219175
0.0219132
0.0219089
0.0219045
0.0219002
0.0218958
0.0218914
0.0218869
0.0218825
0.0218781
0.0218736
0.0218692
0.0218647
0.0218602
0.0218558
0.0218513
0.0218468
0.0218424
0.0218379
0.0218336
0.021829
0.0218247
0.0218202
0.0218157
0.0218116
0.0217754
0.0217735
0.0217717
0.0217698
0.0217674
0.0217647
0.0217619
0.021759
0.0217559
0.0217527
0.0217495
0.0217462
0.0217429
0.0217395
0.021736
0.0217326
0.0217291
0.0217256
0.0217221
0.0217186
0.0217151
0.0217116
0.0217081
0.0217046
0.0217011
0.0216976
0.0216941
0.0216906
0.0216871
0.0216837
0.0216802
0.0216768
0.0216733
0.0216699
0.0216665
0.0216631
0.0216597
0.0216563
0.021653
0.0216496
0.0216463
0.0216431
0.0216398
0.0216365
0.0216333
0.0216301
0.021627
0.0216238
0.0216207
0.0216175
0.0216146
0.0216114
0.0216085
0.0216053
0.0216024
0.0215991
0.0215961
0.0215926
0.0215892
0.0215429
0.0215012
0.0214673
0.0214339
0.0214097
0.0214159
0.0214229
0.0214311
0.0214365
0.0214413
0.0214457
0.0214522
0.0214649
0.0214679
0.0214688
0.0214694
)
;

boundaryField
{
    inlet
    {
        type            calculated;
        value           uniform 0;
    }
    endWall
    {
        type            calculated;
        value           uniform 0;
    }
    sideWall
    {
        type            empty;
    }
}


// ************************************************************************* //
