/*--------------------------------*- C++ -*----------------------------------*\
| =========                 |                                                 |
| \\      /  F ield         | foam-extend: Open Source CFD                    |
|  \\    /   O peration     | Version:     3.2                                |
|   \\  /    A nd           | Web:         http://www.foam-extend.org         |
|    \\/     M anipulation  | For copyright notice see file Copyright         |
\*---------------------------------------------------------------------------*/
FoamFile
{
    version     2.0;
    format      ascii;
    class       areaScalarField;
    location    "2020";
    object      Cs;
}
// * * * * * * * * * * * * * * * * * * * * * * * * * * * * * * * * * * * * * //

dimensions      [0 0 0 0 0 0 0];

internalField   nonuniform List<scalar> 
550
(
0.434383
0.434383
0.434383
0.434383
0.434383
0.434383
0.434383
0.434383
0.434383
0.434383
0.434383
0.434383
0.434383
0.434383
0.434383
0.434383
0.434383
0.434383
0.434383
0.434383
0.434383
0.434383
0.434383
0.434383
0.434383
0.434383
0.434383
0.434383
0.434383
0.434383
0.434383
0.434383
0.434383
0.434383
0.434383
0.434383
0.434383
0.434383
0.434383
0.434383
0.434383
0.434383
0.434383
0.434383
0.434383
0.434383
0.434383
0.433323
0.434383
0.43338
0.433411
0.433092
0.434383
0.433045
0.433324
0.433222
0.433468
0.433539
0.386293
0.433699
0.433625
0.433446
0.433663
0.35089
0.347321
0.43388
0.433872
0.433913
0.332974
0.434283
0.434391
0.434383
0.407255
0.3748
0.368645
0.393082
0.434383
0.434383
0.379513
0.3468
0.369247
0.379022
0.434383
0.434383
0.434383
0.374151
0.368248
0.377982
0.374178
0.434383
0.434383
0.434383
0.366615
0.365637
0.377205
0.368409
0.434383
0.434383
0.434383
0.39932
0.371773
0.361985
0.342519
0.434474
0.433476
0.434884
0.430954
0.395074
0.372036
0.402829
0.397215
0.434383
0.434383
0.434383
0.434383
0.399787
0.402367
0.406487
0.313359
0.433941
0.434514
0.433464
0.427759
0.383164
0.434433
0.434429
0.438921
0.424959
0.378416
0.436721
0.436011
0.436993
0.437958
0.437092
0.436156
0.434829
0.435465
0.41366
0.413687
0.413119
0.41326
0.413128
0.412285
0.411425
0.410495
0.409553
0.408592
0.407677
0.406785
0.406
0.405242
0.404645
0.403938
0.403545
0.402869
0.402682
0.401996
0.401836
0.401226
0.401041
0.400806
0.400796
0.400977
0.401198
0.401544
0.401838
0.40207
0.402718
0.403241
0.406761
0.412746
0.4144
0.416066
0.417045
0.417763
0.418328
0.418634
0.418917
0.41898
0.419061
0.418961
0.418897
0.418686
0.41852
0.418234
0.417996
0.417662
0.417375
0.417015
0.416686
0.416309
0.415954
0.415568
0.415184
0.414787
0.414384
0.413984
0.413579
0.413181
0.412785
0.412395
0.41201
0.411631
0.411262
0.410898
0.410543
0.410194
0.409852
0.409514
0.409181
0.408851
0.408528
0.408208
0.407893
0.407583
0.407275
0.406971
0.406672
0.406375
0.406083
0.405794
0.405505
0.405222
0.404938
0.404661
0.404368
0.404087
0.403783
0.403492
0.403174
0.402871
0.402544
0.402231
0.401898
0.401579
0.401244
0.400916
0.40058
0.400247
0.399907
0.399569
0.399224
0.398887
0.398533
0.398193
0.397836
0.397495
0.397134
0.396794
0.396431
0.396095
0.395732
0.395401
0.395042
0.39472
0.394368
0.394053
0.39371
0.393408
0.393082
0.392797
0.392481
0.392209
0.391908
0.391652
0.391367
0.391125
0.390855
0.390627
0.390368
0.390155
0.38991
0.389706
0.389479
0.389288
0.389093
0.388908
0.388757
0.388583
0.38848
0.388318
0.388249
0.388122
0.390581
0.442996
0.387866
0.387743
0.387715
0.387611
0.387591
0.387506
0.387494
0.387427
0.387428
0.387382
0.387394
0.387365
0.387386
0.387374
0.387404
0.387404
0.387441
0.387454
0.387496
0.387515
0.387559
0.387583
0.387624
0.387648
0.387683
0.387698
0.387721
0.387726
0.387734
0.387726
0.387716
0.387691
0.387662
0.387619
0.387571
0.387511
0.387448
0.387372
0.38729
0.3872
0.387104
0.386999
0.386892
0.386774
0.386652
0.386523
0.386388
0.386245
0.386096
0.385937
0.385769
0.385591
0.385403
0.385203
0.38499
0.384764
0.384524
0.38427
0.384001
0.383717
0.383419
0.383107
0.382781
0.382441
0.382087
0.38172
0.381332
0.380918
0.380483
0.380031
0.379565
0.379091
0.378599
0.378111
0.377606
0.377104
0.376586
0.376075
0.375547
0.375028
0.374493
0.373969
0.37343
0.372902
0.372361
0.371833
0.371293
0.370767
0.370234
0.369717
0.369193
0.368687
0.368176
0.367682
0.367184
0.366704
0.366221
0.365756
0.365289
0.364841
0.364391
0.363962
0.363531
0.36312
0.362708
0.362317
0.361928
0.361562
0.361193
0.361046
0.363955
0.430854
0.359619
0.359265
0.358916
0.358575
0.358242
0.357917
0.357602
0.357294
0.356994
0.356704
0.356421
0.356146
0.355879
0.355618
0.355364
0.355123
0.354877
0.358532
0.429138
0.354159
0.353926
0.353694
0.353465
0.353237
0.353011
0.352789
0.352566
0.352343
0.352122
0.351904
0.351687
0.351474
0.351262
0.351054
0.350849
0.350645
0.350444
0.350243
0.350046
0.349848
0.34965
0.349452
0.349251
0.349051
0.348851
0.348649
0.348444
0.348239
0.348031
0.34782
0.347605
0.347384
0.347158
0.346924
0.346682
0.346435
0.346182
0.345923
0.345658
0.345386
0.345109
0.344827
0.34454
0.34425
0.343955
0.343656
0.343355
0.343051
0.342745
0.342435
0.342122
0.341804
0.341481
0.341153
0.340815
0.340472
0.340116
0.339792
0.344398
0.424268
0.338639
0.338242
0.337835
0.33742
0.336997
0.336568
0.336133
0.335694
0.335248
0.334799
0.334346
0.33389
0.333432
0.332973
0.332513
0.332052
0.33159
0.331126
0.330657
0.330184
0.329703
0.329217
0.328724
0.328225
0.327719
0.327207
0.326688
0.326165
0.325639
0.325115
0.324589
0.324065
0.323543
0.323021
0.322503
0.32199
0.321478
0.320983
0.320452
0.319999
0.319425
0.319034
0.31836
0.318091
0.31722
0.317076
0.315959
0.315851
0.314578
0.314469
0.313274
0.313119
0.312353
0.312078
0.312097
0.311661
0.3123
0.311696
0.313285
0.31358
0.30965
0.333193
0.414041
0.434383
0.434383
0.434383
0.434383
0.434383
0.434383
0.434383
0.434383
0.434383
0.434383
)
;

boundaryField
{
    inlet
    {
        type            calculated;
        value           uniform 0;
    }
    endWall
    {
        type            calculated;
        value           uniform 0;
    }
    sideWall
    {
        type            empty;
    }
}


// ************************************************************************* //
