/*--------------------------------*- C++ -*----------------------------------*\
| =========                 |                                                 |
| \\      /  F ield         | foam-extend: Open Source CFD                    |
|  \\    /   O peration     | Version:     3.2                                |
|   \\  /    A nd           | Web:         http://www.foam-extend.org         |
|    \\/     M anipulation  | For copyright notice see file Copyright         |
\*---------------------------------------------------------------------------*/
FoamFile
{
    version     2.0;
    format      ascii;
    class       areaScalarField;
    location    "2020";
    object      dd;
}
// * * * * * * * * * * * * * * * * * * * * * * * * * * * * * * * * * * * * * //

dimensions      [0 1 0 0 0 0 0];

internalField   nonuniform List<scalar> 
550
(
0.000405
0.000405
0.000405
0.000405
0.000404999
0.000405
0.000405
0.000405
0.000405
0.000405
0.000400702
0.000396405
0.000400702
0.000401548
0.000398096
0.000401548
0.000402595
0.00039807
0.000396531
0.000397563
0.000399832
0.00040199
0.000402328
0.000403663
0.000405
0.000405
0.000404127
0.000403259
0.000404125
0.000405
0.000405
0.00040432
0.000403
0.0004024
0.000402505
0.000403175
0.000403835
0.00040333
0.000403345
0.00040393
0.000403455
0.00040347
0.00040401
0.00040357
0.000403125
0.000403175
0.000403116
0.000404695
0.000398393
0.000404928
0.000404769
0.000405276
0.000399012
0.000405022
0.000404639
0.000405006
0.000405988
0.000404553
0.000403026
0.000405172
0.000406408
0.000407458
0.000407018
0.000402837
0.000402073
0.000405881
0.00040713
0.000406046
0.000404146
0.000404933
0.000411056
0.000421849
0.000441409
0.000454446
0.000514314
0.000732588
0.000686366
0.000416727
0.000429052
0.000447752
0.000452631
0.000463213
0.000458739
0.000464944
0.000453085
0.000481221
0.000498594
0.000515853
0.000550523
0.000574708
0.000574241
0.000593876
0.000619423
0.000642478
0.000677417
0.000706811
0.000746686
0.000778063
0.000828557
0.000977989
0.00109184
0.00122693
0.00106843
0.000736925
0.000847433
0.000983489
0.00109378
0.00124868
0.00129347
0.001361
0.00141951
0.00146913
0.00154867
0.00161207
0.00166425
0.00174815
0.00182371
0.00203986
0.00190261
0.00166687
0.00190397
0.00212311
0.00238628
0.00237157
0.00225221
0.00244327
0.00269271
0.00295412
0.00284359
0.00267965
0.00283931
0.00301114
0.00321079
0.00344934
0.00371032
0.00400601
0.00438265
0.00461269
0.00468427
0.00479629
0.00493127
0.00508288
0.0052402
0.00539485
0.00554687
0.00569457
0.00583759
0.00597478
0.00610634
0.00623194
0.00635221
0.00646744
0.0065773
0.0066821
0.0067819
0.00687631
0.00696674
0.00704778
0.00712717
0.00718993
0.00725957
0.00730752
0.00735901
0.00738861
0.00741509
0.00742005
0.00740515
0.00737268
0.00730374
0.00721856
0.00715595
0.00714741
0.00713946
0.00714771
0.00715642
0.00717779
0.00720105
0.00723487
0.00727309
0.00731846
0.00736946
0.00742466
0.00748331
0.00754477
0.00760847
0.00767403
0.00774102
0.00780923
0.00787834
0.00794818
0.00801842
0.00808904
0.00815974
0.00823043
0.00830081
0.0083708
0.00844013
0.00850887
0.00857672
0.00864385
0.00871001
0.00877533
0.00883959
0.00890296
0.00896528
0.00902673
0.00908713
0.00914668
0.0092052
0.00926285
0.00931945
0.00937518
0.00942991
0.00948381
0.00953677
0.00958895
0.00964024
0.0096908
0.00974059
0.00978978
0.00983833
0.00988639
0.00993397
0.00998121
0.0100282
0.010075
0.0101216
0.010168
0.0102143
0.0102605
0.0103065
0.0103524
0.0103982
0.0104439
0.0104896
0.0105354
0.0105812
0.0106271
0.0106732
0.0107195
0.0107661
0.010813
0.0108604
0.0109083
0.0109567
0.0110056
0.0110551
0.0111048
0.0111552
0.0112058
0.011257
0.0113083
0.0113604
0.0114121
0.0114653
0.0115175
0.0115722
0.0116249
0.0116813
0.0117347
0.0117928
0.0118465
0.0119046
0.0119575
0.0120139
0.0120649
0.012118
0.0121661
0.0122139
0.0122581
0.0122989
0.0123387
0.0123716
0.0124078
0.0124333
0.012468
0.0124899
0.0125277
0.0125556
0.0125975
0.0126228
0.0126435
0.0126411
0.0125248
0.0130301
0.0135572
0.0134904
0.0134555
0.0134376
0.0134312
0.0134211
0.0134177
0.0134088
0.0134046
0.0133963
0.0133919
0.0133844
0.0133795
0.0133719
0.0133669
0.013361
0.0133571
0.0133534
0.0133515
0.0133499
0.01335
0.0133509
0.013353
0.0133564
0.0133609
0.0133669
0.0133739
0.0133824
0.0133919
0.0134031
0.0134151
0.0134289
0.0134436
0.0134599
0.0134772
0.0134961
0.0135159
0.0135375
0.0135598
0.0135839
0.0136089
0.0136356
0.0136633
0.013693
0.0137239
0.013757
0.0137918
0.0138297
0.0138701
0.0139128
0.0139579
0.0140049
0.0140539
0.0141048
0.0141576
0.014212
0.014268
0.0143255
0.0143845
0.0144447
0.014506
0.0145683
0.0146314
0.0146952
0.0147595
0.0148242
0.014889
0.014953
0.0150162
0.0150769
0.0151365
0.0151913
0.0152462
0.0152928
0.0153404
0.0153755
0.0154018
0.0154114
0.0154065
0.0154154
0.0154154
0.015415
0.0154149
0.0154149
0.0154148
0.0154148
0.0154147
0.0154147
0.0154146
0.0154146
0.0154146
0.0154145
0.0154143
0.015414
0.0154138
0.0154143
0.0154161
0.015416
0.0154176
0.0154155
0.0154195
0.0154148
0.0154233
0.0154142
0.0154268
0.0154119
0.0154258
0.0154156
0.0154427
0.0154061
0.015088
0.0154175
0.0156864
0.0154127
0.0154051
0.0154089
0.0154051
0.0154109
0.015405
0.0154131
0.0154052
0.015414
0.0154052
0.0154194
0.0154052
0.0154276
0.0154188
0.0154523
0.0154261
0.0150997
0.0154393
0.0157236
0.0154189
0.0154078
0.0154134
0.0154069
0.0154127
0.0154057
0.0154105
0.0154052
0.0154085
0.015405
0.0154071
0.0154054
0.0154073
0.0154069
0.0154083
0.0154088
0.0154099
0.0154103
0.0154112
0.0154118
0.0154124
0.0154127
0.0154129
0.0154132
0.0154134
0.0154136
0.0154139
0.0154141
0.0154141
0.0154141
0.0154142
0.0154146
0.0154148
0.0154147
0.0154146
0.0154146
0.0154147
0.0154147
0.0154149
0.0154152
0.0154152
0.015415
0.0154149
0.015415
0.0154151
0.015415
0.0154152
0.0154144
0.0154159
0.0154134
0.0154178
0.0154109
0.0154215
0.0154065
0.0154331
0.0154146
0.0154725
0.015438
0.0150815
0.0154473
0.0157712
0.01544
0.0154061
0.0154255
0.0154056
0.0154169
0.0154052
0.0154113
0.0154076
0.0154122
0.0154129
0.0154149
0.0154154
0.0154163
0.0154167
0.0154171
0.0154175
0.0154178
0.0154177
0.0154177
0.0154179
0.0154181
0.0154183
0.0154184
0.0154188
0.0154189
0.015419
0.0154188
0.0154187
0.0154191
0.0154192
0.0154193
0.0154193
0.0154193
0.0154197
0.0154198
0.0154196
0.0154195
0.0154199
0.0154194
0.0154207
0.0154189
0.0154226
0.0154184
0.0154259
0.0154158
0.0154298
0.0154143
0.01543
0.0154091
0.0154284
0.0154127
0.0154382
0.0154453
0.0154649
0.0154957
0.015508
0.015361
0.0147209
0.0135241
0.0114191
0.00818939
0.00330799
0.00040495
0.000405
0.000405
0.00040495
0.000405
0.00040505
0.000405
0.000405
0.00040505
0.000405
)
;

boundaryField
{
    inlet
    {
        type            calculated;
        value           uniform 0;
    }
    endWall
    {
        type            calculated;
        value           uniform 0;
    }
    sideWall
    {
        type            empty;
    }
}


// ************************************************************************* //
