/*--------------------------------*- C++ -*----------------------------------*\
| =========                 |                                                 |
| \\      /  F ield         | foam-extend: Open Source CFD                    |
|  \\    /   O peration     | Version:     3.2                                |
|   \\  /    A nd           | Web:         http://www.foam-extend.org         |
|    \\/     M anipulation  | For copyright notice see file Copyright         |
\*---------------------------------------------------------------------------*/
FoamFile
{
    version     2.0;
    format      ascii;
    class       areaScalarField;
    location    "2020";
    object      ddmax;
}
// * * * * * * * * * * * * * * * * * * * * * * * * * * * * * * * * * * * * * //

dimensions      [0 1 0 0 0 0 0];

internalField   nonuniform List<scalar> 
550
(
0.000405
0.000405
0.000405
0.000405
0.000405
0.000405
0.000405
0.000405
0.000405
0.000405
0.000405
0.000405
0.000405
0.000405
0.000405
0.000405
0.000405
0.000405
0.000405
0.000405
0.000405001
0.000405
0.000405
0.000405
0.000405
0.000405
0.000405
0.000405001
0.000405
0.000405
0.000405
0.000405
0.000405
0.000405
0.000405005
0.000405
0.000405
0.000405005
0.000405
0.000405
0.000405
0.000405
0.000405
0.000405
0.000405
0.000405005
0.000405
0.000405972
0.000405005
0.000405083
0.000405449
0.000407272
0.000405004
0.00040728
0.000405735
0.00040712
0.000406466
0.000408422
0.000408679
0.000410455
0.000411574
0.000414463
0.000413346
0.000413777
0.000413593
0.000414107
0.000417424
0.000416498
0.000418301
0.000422159
0.000431858
0.000432258
0.000444701
0.000462617
0.000524711
0.000741242
0.000705311
0.00043514
0.000436057
0.000460679
0.00046168
0.000470855
0.0004635
0.00047182
0.000461404
0.000489985
0.000508746
0.00052455
0.000560544
0.000583541
0.000584508
0.000602302
0.000632412
0.000656186
0.000689022
0.000721161
0.000755948
0.00079697
0.000842625
0.000987625
0.00111266
0.00125481
0.00110125
0.00106629
0.00110564
0.00115909
0.00120786
0.00126264
0.00131801
0.00137295
0.00143442
0.00149534
0.001563
0.00162725
0.00169895
0.00176512
0.00183998
0.00205553
0.00198792
0.00206584
0.00214889
0.00223223
0.0023904
0.00240732
0.00249864
0.00259186
0.00275
0.00304777
0.0028911
0.00300364
0.00311285
0.00323174
0.00335
0.00356422
0.00383166
0.00412493
0.0045015
0.00473248
0.00478712
0.00488935
0.00502578
0.005179
0.00533882
0.00549785
0.00565536
0.00580813
0.0059573
0.00610068
0.00624056
0.0063742
0.00650457
0.00662953
0.00675178
0.00686836
0.00698465
0.0070952
0.00720917
0.00730914
0.00742028
0.00750725
0.00760386
0.00767265
0.00774629
0.00779214
0.00783496
0.00785053
0.00785115
0.00782357
0.00774754
0.00767059
0.00761639
0.00761337
0.00760723
0.0076154
0.00762057
0.00763741
0.00765111
0.00767633
0.00770272
0.00773719
0.00776865
0.00780842
0.00784459
0.0078897
0.00793784
0.00799097
0.00804296
0.00809959
0.00815389
0.00821217
0.00826837
0.00832812
0.00838643
0.00844741
0.00850795
0.00857328
0.00863682
0.00870135
0.0087641
0.00882757
0.00888936
0.00895156
0.00901204
0.00907396
0.00913621
0.00919842
0.00925872
0.00931898
0.00937736
0.00943563
0.00949891
0.00956156
0.00962291
0.00968393
0.0097474
0.00980778
0.00986734
0.00992452
0.00998382
0.0100432
0.0101024
0.0101588
0.0102143
0.0102679
0.0103199
0.0103709
0.0104199
0.0104685
0.0105147
0.010561
0.010606
0.0106545
0.0107006
0.0107465
0.0107905
0.0108396
0.010887
0.0109337
0.0109782
0.0110226
0.0110643
0.0111133
0.0111618
0.0112095
0.0112555
0.0113014
0.0113454
0.01139
0.0114322
0.0114753
0.0115156
0.0115634
0.0116103
0.0116581
0.0117091
0.0117582
0.0118058
0.0118522
0.0118964
0.0119397
0.0119825
0.0120312
0.0120785
0.0121234
0.0121655
0.0122062
0.0122424
0.0122789
0.012309
0.0123436
0.0123694
0.012401
0.0124218
0.0124531
0.012493
0.0125619
0.0126135
0.0126852
0.01273
0.0127907
0.0128165
0.0128333
0.012808
0.0126491
0.0131018
0.013614
0.0135558
0.0135176
0.0135101
0.0135068
0.0135076
0.0135088
0.0135099
0.0135099
0.01351
0.0135082
0.0135075
0.0135042
0.0135034
0.0134997
0.0134995
0.013497
0.0134985
0.013497
0.0134996
0.0134996
0.0135038
0.0135058
0.0135115
0.0135156
0.013523
0.0135293
0.0135384
0.0135469
0.013558
0.0135687
0.0135819
0.013595
0.0136102
0.0136257
0.013643
0.0136608
0.0136804
0.0137005
0.0137223
0.0137448
0.0137689
0.0137939
0.0138206
0.0138482
0.0138779
0.0139089
0.0139423
0.0139779
0.0140163
0.0140575
0.0141011
0.014147
0.0141951
0.0142451
0.014297
0.0143506
0.0144057
0.0144623
0.0145201
0.0145788
0.0146385
0.014699
0.0147599
0.0148212
0.0148826
0.0149437
0.0150042
0.0150633
0.0151206
0.0151756
0.0152271
0.0152752
0.0153181
0.0153571
0.0153888
0.0154088
0.0154165
0.015415
0.0154154
0.0154154
0.015415
0.0154149
0.0154149
0.0154148
0.0154148
0.0154147
0.0154147
0.0154146
0.0154146
0.0154146
0.0154145
0.0154143
0.015414
0.0154138
0.0154143
0.0154166
0.015416
0.0154176
0.0154155
0.0154195
0.0154148
0.0154233
0.0154142
0.0154268
0.0154119
0.0154258
0.0154171
0.015443
0.0154084
0.0150923
0.0154197
0.0156864
0.0154127
0.0154051
0.0154089
0.0154051
0.0154109
0.015405
0.0154131
0.0154052
0.015414
0.0154052
0.0154194
0.0154052
0.0154276
0.0154188
0.0154523
0.015429
0.0151055
0.0154422
0.0157236
0.0154189
0.0154078
0.0154134
0.0154069
0.0154127
0.0154057
0.0154105
0.0154052
0.0154085
0.015405
0.0154071
0.0154054
0.0154073
0.0154069
0.0154083
0.0154088
0.0154099
0.0154103
0.0154112
0.0154118
0.0154124
0.0154127
0.0154129
0.0154132
0.0154134
0.0154136
0.0154139
0.0154141
0.0154141
0.0154141
0.0154142
0.0154146
0.0154148
0.0154147
0.0154146
0.0154146
0.0154147
0.0154147
0.0154149
0.0154152
0.0154152
0.015415
0.0154149
0.015415
0.0154151
0.015415
0.0154152
0.0154144
0.0154159
0.0154134
0.0154178
0.0154109
0.0154215
0.0154065
0.0154331
0.0154146
0.0154725
0.0154514
0.0151082
0.0154606
0.0157712
0.01544
0.0154061
0.0154255
0.0154056
0.0154169
0.0154052
0.0154113
0.0154076
0.0154122
0.0154129
0.0154149
0.0154154
0.0154163
0.0154167
0.0154171
0.0154175
0.0154178
0.0154177
0.0154177
0.0154179
0.0154181
0.0154183
0.0154184
0.0154188
0.0154189
0.015419
0.0154188
0.0154187
0.0154191
0.0154192
0.0154193
0.0154193
0.0154193
0.0154197
0.0154198
0.0154196
0.0154195
0.0154199
0.0154194
0.0154207
0.0154189
0.0154226
0.0154184
0.0154259
0.0154158
0.0154298
0.0154143
0.01543
0.0154091
0.0154388
0.0154155
0.0154382
0.0154453
0.0154649
0.0154957
0.0155167
0.0153834
0.0147618
0.0135829
0.0114979
0.00841976
0.00352186
0.000405
0.000405
0.000405
0.000405
0.000405
0.00040505
0.000405
0.000405
0.00040505
0.000405
)
;

boundaryField
{
    inlet
    {
        type            calculated;
        value           uniform 0;
    }
    endWall
    {
        type            calculated;
        value           uniform 0;
    }
    sideWall
    {
        type            empty;
    }
}


// ************************************************************************* //
