/*--------------------------------*- C++ -*----------------------------------*\
| =========                 |                                                 |
| \\      /  F ield         | foam-extend: Open Source CFD                    |
|  \\    /   O peration     | Version:     3.2                                |
|   \\  /    A nd           | Web:         http://www.foam-extend.org         |
|    \\/     M anipulation  | For copyright notice see file Copyright         |
\*---------------------------------------------------------------------------*/
FoamFile
{
    version     2.0;
    format      ascii;
    class       volScalarField;
    location    "2020";
    object      deltaHF;
}
// * * * * * * * * * * * * * * * * * * * * * * * * * * * * * * * * * * * * * //

dimensions      [0 1 0 0 0 0 0];

internalField   uniform 0;

boundaryField
{
    inlet
    {
        type            calculated;
        value           uniform 0;
    }
    outlet
    {
        type            calculated;
        value           uniform 0;
    }
    sideWall
    {
        type            empty;
    }
    bed
    {
        type            calculated;
        value           nonuniform List<scalar> 
550
(
0
0
0
0
0
0
0
0
0
0
0
0
0
0
0
0
0
0
0
0
0
0
0
0
0
0
0
0
0
0
0
0
0
0
0
0
0
0
0
0
0
0
0
0
0
0
0
0
0
0
0
-1.71312e-06
0
-1.52217e-06
0
-1.47031e-06
-1.463e-06
1.43302e-06
2.07027e-08
-4.20813e-06
-1.32442e-06
-1.29989e-06
3.86155e-06
6.46665e-06
0
-6.6297e-06
-1.21744e-06
5.16183e-06
1.60249e-06
0
-1.10482e-06
4.84533e-07
3.11222e-06
3.22121e-06
2.9533e-08
-5.00804e-06
-4.07987e-06
3.81851e-06
5.83674e-06
1.98405e-06
-1.26137e-06
-3.24012e-06
-4.0514e-06
-1.00744e-06
2.58421e-06
4.31357e-06
5.77688e-07
2.71846e-07
-2.56336e-06
-4.40117e-06
-7.89669e-07
2.96585e-06
4.73919e-06
3.77383e-07
4.4207e-07
-2.16426e-06
-4.54858e-06
-6.59461e-07
1.45098e-06
3.60476e-06
2.71456e-06
1.58287e-06
-2.53051e-06
-3.40495e-06
1.25031e-10
-6.13487e-07
1.96622e-06
3.01506e-06
5.31774e-07
-1.24433e-06
-1.39249e-06
-2.35615e-06
-7.38035e-07
-6.12861e-07
1.25103e-06
2.11821e-06
1.84495e-07
4.42979e-06
1.35023e-06
-4.71598e-06
-2.47065e-08
1.71588e-07
1.42054e-06
4.741e-07
-1.3423e-06
-1.62081e-08
8.22883e-09
1.47751e-06
6.93651e-07
-1.48716e-06
-5.1083e-09
5.74026e-09
7.06762e-10
2.21581e-09
4.69995e-09
6.14914e-10
9.39272e-09
-1.53281e-09
1.03684e-08
-1.97742e-09
1.00009e-08
-1.94778e-09
9.96926e-09
-3.24189e-09
1.03102e-08
-4.81299e-09
1.09759e-08
-5.99568e-09
1.16507e-08
-6.85683e-09
1.20126e-08
-7.63804e-09
1.24164e-08
-8.18947e-09
1.25991e-08
-9.1092e-09
1.26287e-08
-1.04191e-08
1.27727e-08
-1.21746e-08
1.32773e-08
-1.42493e-08
1.43581e-08
-1.59639e-08
1.60036e-08
-1.75065e-08
1.78815e-08
-1.89542e-08
1.98809e-08
-1.99603e-08
2.09742e-08
-2.06885e-08
2.19069e-08
-2.12436e-08
2.24192e-08
-2.16946e-08
2.24983e-08
-2.21245e-08
2.24073e-08
-2.26384e-08
2.20184e-08
-2.28583e-08
2.16561e-08
-2.30173e-08
2.11433e-08
-2.3193e-08
2.05272e-08
-2.33219e-08
1.98786e-08
-2.33765e-08
1.9268e-08
-2.32991e-08
1.87116e-08
-2.31378e-08
1.81741e-08
-2.29598e-08
1.76345e-08
-2.27248e-08
1.71609e-08
-2.24016e-08
1.68016e-08
-2.1954e-08
1.65805e-08
-2.13156e-08
1.65975e-08
-2.04444e-08
1.68873e-08
-1.93278e-08
1.74169e-08
-1.80354e-08
1.81171e-08
-1.6649e-08
1.89324e-08
-1.52225e-08
1.97688e-08
-1.38935e-08
2.0505e-08
-1.27771e-08
2.10668e-08
-1.18882e-08
2.14593e-08
-1.12523e-08
2.16505e-08
-1.09244e-08
2.15714e-08
-1.09457e-08
2.1214e-08
-1.1331e-08
2.0547e-08
-1.21318e-08
1.95132e-08
-1.3347e-08
1.8187e-08
-1.48741e-08
1.6668e-08
-1.65999e-08
1.5044e-08
-1.84675e-08
1.33561e-08
-2.04466e-08
1.16409e-08
-2.24692e-08
9.94351e-09
-2.4563e-08
8.34798e-09
-2.64549e-08
7.14211e-09
-2.81321e-08
6.23795e-09
-2.98127e-08
5.63721e-09
-3.17085e-08
5.28154e-09
-3.40164e-08
5.60337e-09
-3.71471e-08
7.02093e-09
-4.20167e-08
9.87044e-09
-4.82302e-08
1.45395e-08
-5.44134e-08
2.03034e-08
-6.034e-08
2.69113e-08
-6.55574e-08
3.40381e-08
-6.96272e-08
4.11115e-08
-7.22047e-08
4.76065e-08
-7.29981e-08
5.30346e-08
-7.1877e-08
5.67892e-08
-6.89046e-08
5.83443e-08
-6.42803e-08
5.70635e-08
-5.89432e-08
5.55546e-08
-5.17815e-08
5.4005e-08
-4.30029e-08
5.34544e-08
-3.07945e-08
4.75107e-08
-2.14214e-08
4.27796e-08
-1.35039e-08
3.86219e-08
-7.0629e-09
3.48784e-08
-1.94509e-09
3.15782e-08
1.99023e-09
2.91708e-08
6.1138e-09
2.72625e-08
8.97984e-09
2.47527e-08
1.04431e-08
2.25943e-08
1.14592e-08
2.05665e-08
1.19358e-08
1.8422e-08
1.17906e-08
1.60928e-08
1.11181e-08
1.36151e-08
9.9979e-09
1.09969e-08
8.45157e-09
8.1815e-09
6.46825e-09
5.15815e-09
4.13271e-09
1.98172e-09
1.52832e-09
-1.26038e-09
-1.22214e-09
-4.4393e-09
-3.85993e-09
-7.21313e-09
-6.07371e-09
-9.46584e-09
-7.78975e-09
-1.1305e-08
-9.24573e-09
-1.24709e-08
-1.02551e-08
-1.29537e-08
-1.05068e-08
-1.30798e-08
-1.04795e-08
-1.32167e-08
-1.02839e-08
-1.30918e-08
-9.87386e-09
-1.27267e-08
-9.36249e-09
-1.22218e-08
-8.72585e-09
-1.15684e-08
-7.94906e-09
-1.07868e-08
-7.00308e-09
-9.83958e-09
-5.98821e-09
-8.82739e-09
-4.8694e-09
-7.70752e-09
-3.66099e-09
-6.49235e-09
-2.93567e-09
-5.47609e-09
-2.80132e-09
-4.23391e-09
-3.256e-09
-3.41922e-09
-3.35862e-09
0
0
0
0
0
0
0
0
0
0
0
0
0
0
0
0
0
0
0
0
0
0
0
0
0
0
0
0
0
0
0
0
0
1.01151e-08
0
0
0
0
0
0
0
0
0
0
0
0
0
0
0
0
0
0
5.87705e-09
0
0
0
0
0
0
0
0
0
0
0
0
0
0
0
0
0
0
0
0
0
0
0
0
0
0
0
0
0
0
0
0
0
0
0
0
0
0
0
0
0
0
0
0
0
0
0
0
0
0
0
0
0
0
0
0
0
0
0
0
-5.2357e-09
0
0
0
0
0
0
0
0
0
0
0
0
0
0
0
0
0
0
0
0
0
0
0
0
0
0
0
0
0
0
0
0
0
0
0
0
0
0
0
0
0
0
0
0
0
0
0
0
0
0
0
0
0
0
0
0
0
0
7.25885e-10
3.86545e-09
8.91902e-10
-2.83128e-09
-5.88597e-09
0
0
0
0
0
0
0
0
0
0
0
)
;
    }
    endWall
    {
        type            calculated;
        value           uniform 0;
    }
    topWall
    {
        type            calculated;
        value           uniform 0;
    }
}


// ************************************************************************* //
