/*--------------------------------*- C++ -*----------------------------------*\
| =========                 |                                                 |
| \\      /  F ield         | foam-extend: Open Source CFD                    |
|  \\    /   O peration     | Version:     3.2                                |
|   \\  /    A nd           | Web:         http://www.foam-extend.org         |
|    \\/     M anipulation  | For copyright notice see file Copyright         |
\*---------------------------------------------------------------------------*/
FoamFile
{
    version     2.0;
    format      ascii;
    class       areaScalarField;
    location    "2020";
    object      deltaHs;
}
// * * * * * * * * * * * * * * * * * * * * * * * * * * * * * * * * * * * * * //

dimensions      [0 1 -1 0 0 0 0];

internalField   nonuniform List<scalar> 
550
(
6.05357e-08
5.62819e-08
5.00582e-08
4.15501e-08
3.06538e-08
1.75448e-08
2.66371e-09
-1.32895e-08
-2.95269e-08
-4.52059e-08
-5.95371e-08
-7.21147e-08
-8.26541e-08
-9.06859e-08
-9.65463e-08
-1.00396e-07
-1.02188e-07
-1.02397e-07
-1.01391e-07
-9.9418e-08
-9.67406e-08
-9.34958e-08
-8.98565e-08
-8.60195e-08
-8.20166e-08
-7.79948e-08
-7.3998e-08
-7.01465e-08
-6.64675e-08
-6.29404e-08
-5.95785e-08
-5.6393e-08
-5.33799e-08
-5.05693e-08
-4.79216e-08
-4.54635e-08
-4.31491e-08
-4.09871e-08
-3.89876e-08
-3.71221e-08
-3.53641e-08
-3.37598e-08
-3.22504e-08
-3.08435e-08
-2.95394e-08
-2.8334e-08
-2.72056e-08
-2.58806e-08
-2.51097e-08
-2.41899e-08
-2.30588e-08
-2.23582e-08
-2.16886e-08
-2.06532e-08
-2.00705e-08
-1.93911e-08
-1.89031e-08
-1.84112e-08
-3.82896e-09
-1.71765e-08
-1.67781e-08
-1.61985e-08
-1.59097e-08
7.66482e-09
8.89218e-09
-1.49107e-08
-1.4679e-08
-1.43784e-08
1.3471e-08
-1.37189e-08
-1.35833e-08
-1.29272e-08
-5.44137e-09
3.72523e-09
6.1002e-09
4.30785e-09
-1.30969e-08
-1.20256e-08
3.33692e-09
1.13068e-08
5.87422e-09
3.14674e-09
-1.1986e-08
-1.17297e-08
-1.14181e-08
5.15683e-09
6.72122e-09
4.56544e-09
5.38836e-09
-1.07636e-08
-1.0203e-08
-9.41873e-09
8.01876e-09
8.86689e-09
5.53594e-09
8.24005e-09
-9.34516e-09
-9.1181e-09
-7.90105e-09
4.31389e-09
7.31197e-09
1.28961e-08
1.47647e-08
-7.13366e-09
-2.04596e-09
-7.85789e-09
-1.82572e-09
3.33984e-09
8.53111e-09
2.42252e-09
2.26562e-09
-5.76433e-09
-6.6904e-09
-6.52847e-09
-6.89875e-09
3.73258e-09
1.8817e-09
6.49899e-09
2.30348e-08
-1.0215e-09
-5.28994e-10
-1.22742e-09
2.11116e-09
7.77914e-09
-2.18513e-09
-1.40016e-11
-8.27566e-10
1.01117e-09
9.22898e-09
-2.13742e-09
-1.9213e-09
-1.21964e-09
-8.47027e-10
2.4924e-10
4.2346e-11
1.67735e-09
1.8923e-09
-1.2959e-09
-1.78151e-10
1.73376e-10
5.60039e-10
5.64601e-10
6.7155e-10
5.00619e-10
6.26079e-10
4.1532e-10
5.46925e-10
3.04408e-10
4.53139e-10
1.92659e-10
3.64956e-10
9.58868e-11
2.70692e-10
-7.12574e-12
1.83946e-10
-1.24509e-10
1.26603e-10
-3.53651e-10
1.71215e-10
-7.94968e-10
5.40814e-10
-6.48189e-10
6.90052e-10
-5.20765e-10
5.46653e-10
-3.82961e-10
-1.55266e-10
-1.30684e-10
-1.66109e-10
-2.48774e-10
-1.62484e-09
-1.59067e-09
-1.77041e-09
-1.66369e-09
-1.63261e-09
-1.55019e-09
-1.36116e-09
-1.39509e-09
-9.56038e-10
-1.16929e-09
-5.41131e-10
-8.3256e-10
-2.6306e-10
-5.97531e-10
-7.0265e-11
-4.32262e-10
6.27558e-11
-3.15384e-10
1.54962e-10
-2.33626e-10
2.16218e-10
-1.77265e-10
2.55652e-10
-1.40916e-10
2.77383e-10
-1.20261e-10
2.8497e-10
-1.10025e-10
2.83811e-10
-1.06455e-10
2.77877e-10
-1.07642e-10
2.67382e-10
-1.107e-10
2.56332e-10
-1.14903e-10
2.45693e-10
-1.18649e-10
2.36087e-10
-1.21005e-10
2.28033e-10
-1.21978e-10
2.2248e-10
-1.21101e-10
2.19574e-10
-1.17787e-10
2.19019e-10
-1.1247e-10
2.21348e-10
-1.05501e-10
2.26243e-10
-9.59378e-11
2.34212e-10
-8.46167e-11
2.44345e-10
-7.28556e-11
2.55735e-10
-6.15759e-11
2.66935e-10
-5.24633e-11
2.75596e-10
-4.48236e-11
2.83025e-10
-4.03445e-11
2.89199e-10
-3.59636e-11
2.94224e-10
-3.36139e-11
2.98571e-10
-3.2534e-11
3.02312e-10
-3.18335e-11
3.08612e-10
-3.08391e-11
3.13034e-10
-3.37876e-11
3.14395e-10
-4.34843e-11
3.14141e-10
-5.7891e-11
3.16566e-10
-8.04686e-11
3.25446e-10
-1.17711e-10
3.53488e-10
-1.78167e-10
4.17164e-10
-2.55211e-10
5.21303e-10
-3.29063e-10
6.52174e-10
-3.61567e-10
7.59552e-10
-3.96062e-10
8.31277e-10
-4.29383e-10
8.52692e-10
-4.56433e-10
7.99509e-10
-4.72533e-10
6.5442e-10
-4.76542e-10
4.03074e-10
-4.6688e-10
4.65079e-11
-4.52108e-10
-3.65383e-10
-4.40408e-10
-3.21636e-10
1.67938e-10
-2.68347e-10
1.85608e-10
-7.64963e-11
1.4397e-09
8.24943e-09
-1.43267e-09
-5.6692e-10
-7.18467e-10
-7.80435e-10
-6.37088e-10
-6.30797e-10
-4.97177e-10
-4.68975e-10
-3.81715e-10
-3.43008e-10
-2.97244e-10
-2.50553e-10
-2.26172e-10
-1.73227e-10
-1.80615e-10
-1.28094e-10
-1.53369e-10
-1.01884e-10
-1.3511e-10
-8.42803e-11
-1.2236e-10
-7.46109e-11
-1.15785e-10
-7.17375e-11
-1.12335e-10
-7.10554e-11
-1.10645e-10
-7.27286e-11
-1.10383e-10
-7.77704e-11
-1.12228e-10
-8.27443e-11
-1.13598e-10
-8.93847e-11
-1.15429e-10
-9.65564e-11
-1.20179e-10
-1.06286e-10
-1.24946e-10
-1.15893e-10
-1.31802e-10
-1.27034e-10
-1.39852e-10
-1.38451e-10
-1.50184e-10
-1.53529e-10
-1.5059e-10
-1.24789e-10
-5.56666e-11
-4.78482e-11
1.21203e-11
8.45367e-12
6.18165e-11
5.15523e-11
1.01565e-10
8.63686e-11
1.33531e-10
1.15401e-10
1.6068e-10
1.39046e-10
1.80762e-10
1.55795e-10
1.96724e-10
1.70517e-10
2.08416e-10
1.79776e-10
2.14982e-10
1.63749e-10
2.09476e-10
1.07709e-10
2.14013e-10
-2.19791e-13
2.75113e-10
-1.55852e-10
4.10805e-10
3.36071e-11
2.03471e-10
3.5167e-10
5.12189e-10
6.86609e-10
9.26286e-10
1.1485e-09
1.37646e-09
1.60202e-09
1.82517e-09
2.04423e-09
2.26308e-09
2.47411e-09
2.6847e-09
2.88818e-09
3.08977e-09
3.28827e-09
3.48286e-09
3.67297e-09
3.85846e-09
4.04178e-09
4.19853e-09
4.40303e-09
4.52914e-09
4.77134e-09
4.82613e-09
5.15756e-09
5.1723e-09
5.5653e-09
6.19071e-09
5.98532e-09
7.53147e-09
6.31065e-09
9.11961e-09
6.34112e-09
7.98577e-09
7.43207e-09
6.9991e-09
8.44016e-09
8.31369e-09
8.40615e-09
8.58522e-09
8.65965e-09
8.70775e-09
8.77967e-09
8.91818e-09
8.82272e-09
9.08368e-09
9.23216e-09
9.26528e-09
1.05232e-08
9.35515e-09
1.19923e-08
9.18519e-09
1.06113e-08
9.82004e-09
9.45103e-09
1.09851e-08
1.1206e-08
1.07942e-08
1.12453e-08
1.09447e-08
1.10109e-08
1.10031e-08
1.0959e-08
1.10172e-08
1.09936e-08
1.10165e-08
1.10053e-08
1.1014e-08
1.10155e-08
1.10255e-08
1.10344e-08
1.10502e-08
1.1066e-08
1.10833e-08
1.11046e-08
1.11306e-08
1.1159e-08
1.11909e-08
1.12261e-08
1.12628e-08
1.13034e-08
1.13456e-08
1.13911e-08
1.14393e-08
1.14891e-08
1.154e-08
1.15938e-08
1.16505e-08
1.17101e-08
1.17724e-08
1.18351e-08
1.1901e-08
1.1968e-08
1.20352e-08
1.21057e-08
1.21781e-08
1.22503e-08
1.23241e-08
1.23963e-08
1.24664e-08
1.25449e-08
1.26051e-08
1.26992e-08
1.27334e-08
1.28734e-08
1.28429e-08
1.309e-08
1.3111e-08
1.3375e-08
1.45087e-08
1.36494e-08
1.68717e-08
1.35455e-08
1.46108e-08
1.20896e-08
1.3689e-08
1.53585e-08
1.63508e-08
1.51901e-08
1.57482e-08
1.54563e-08
1.55455e-08
1.56656e-08
1.57562e-08
1.58309e-08
1.59121e-08
1.5985e-08
1.60638e-08
1.61408e-08
1.6219e-08
1.63002e-08
1.63835e-08
1.64706e-08
1.65646e-08
1.66607e-08
1.67632e-08
1.68697e-08
1.69821e-08
1.70986e-08
1.72188e-08
1.73457e-08
1.74757e-08
1.76117e-08
1.7749e-08
1.78879e-08
1.80316e-08
1.81766e-08
1.83245e-08
1.8473e-08
1.86225e-08
1.87757e-08
1.89271e-08
1.90813e-08
1.92315e-08
1.93901e-08
1.9534e-08
1.97122e-08
1.98334e-08
2.00531e-08
2.01465e-08
2.04475e-08
2.10294e-08
2.09113e-08
2.21734e-08
2.14344e-08
2.35242e-08
2.1927e-08
2.48049e-08
2.22134e-08
2.52003e-08
2.20586e-08
2.41619e-08
2.12136e-08
2.12927e-08
2.13056e-08
2.33133e-08
1.89632e-08
7.88035e-09
3.90574e-08
4.21256e-08
4.6792e-08
5.01126e-08
5.42621e-08
5.69063e-08
5.8398e-08
5.81627e-08
5.52299e-08
4.8355e-08
)
;

boundaryField
{
    inlet
    {
        type            calculated;
        value           uniform 6.05357e-08;
    }
    endWall
    {
        type            calculated;
        value           uniform 5.46265e-08;
    }
    sideWall
    {
        type            empty;
    }
}


// ************************************************************************* //
