/*--------------------------------*- C++ -*----------------------------------*\
| =========                 |                                                 |
| \\      /  F ield         | foam-extend: Open Source CFD                    |
|  \\    /   O peration     | Version:     3.2                                |
|   \\  /    A nd           | Web:         http://www.foam-extend.org         |
|    \\/     M anipulation  | For copyright notice see file Copyright         |
\*---------------------------------------------------------------------------*/
FoamFile
{
    version     2.0;
    format      ascii;
    class       areaScalarField;
    location    "2020";
    object      deltaHb;
}
// * * * * * * * * * * * * * * * * * * * * * * * * * * * * * * * * * * * * * //

dimensions      [0 1 -1 0 0 0 0];

internalField   nonuniform List<scalar> 
550
(
0
0
0
-2.1997e-08
-5.82005e-08
-8.53673e-08
-1.08283e-07
-1.24178e-07
-1.3142e-07
-1.29921e-07
-1.20059e-07
-1.04503e-07
-8.66124e-08
-6.59737e-08
-4.50733e-08
-2.70852e-08
-1.04648e-08
4.14514e-09
1.46756e-08
2.23704e-08
2.81014e-08
3.22534e-08
3.5258e-08
3.66912e-08
3.71356e-08
3.69255e-08
3.60305e-08
3.45762e-08
3.26858e-08
3.09073e-08
2.9189e-08
2.74537e-08
2.57709e-08
2.40155e-08
2.23123e-08
2.067e-08
1.91482e-08
1.78425e-08
1.65067e-08
1.52395e-08
1.41874e-08
1.30972e-08
1.20757e-08
1.12395e-08
1.04111e-08
9.60041e-09
9.38959e-09
7.92465e-09
7.89177e-09
7.00921e-09
6.47588e-09
5.22698e-09
6.20237e-09
5.43147e-09
5.01633e-09
4.68797e-09
4.27312e-09
3.27414e-08
4.03599e-09
-2.49049e-08
3.53391e-09
3.19964e-09
5.45252e-08
5.70016e-08
-4.87321e-08
-5.13864e-08
2.50455e-09
6.59967e-08
2.55393e-09
-6.07879e-08
2.53515e-09
1.77725e-08
3.65636e-08
2.84868e-08
-5.80487e-09
-5.43883e-08
-2.77018e-08
5.02107e-08
5.50305e-08
8.53364e-09
-1.84879e-08
-3.5548e-08
-2.8528e-08
1.65526e-09
3.72602e-08
3.79788e-08
-9.44335e-10
-1.84698e-09
-3.1022e-08
-3.32481e-08
2.30632e-09
3.90772e-08
3.93731e-08
-5.09306e-09
-1.11524e-09
-2.98826e-08
-3.61407e-08
2.52349e-09
2.24109e-08
3.17338e-08
1.98336e-08
2.93267e-09
-4.00698e-08
-2.69159e-08
2.04721e-09
1.72303e-09
2.14879e-08
2.68107e-08
-3.21338e-09
-1.48659e-08
-1.61905e-08
-1.77971e-08
-6.8995e-10
3.99857e-10
1.9409e-08
1.74496e-08
-3.67511e-11
3.77989e-08
-9.53253e-09
-4.61383e-08
2.81929e-10
2.9433e-09
1.20942e-08
-3.03814e-09
-1.12379e-08
-1.48079e-10
9.09855e-10
1.37639e-08
-2.29247e-09
-1.27342e-08
1.87021e-09
1.27704e-09
8.54095e-10
-2.27082e-10
4.65351e-12
-1.6712e-09
-1.79837e-09
1.28057e-09
2.81835e-10
-1.9315e-10
-4.6003e-10
-5.84079e-10
-5.71857e-10
-5.33038e-10
-5.22978e-10
-4.6345e-10
-4.37166e-10
-3.64364e-10
-3.36633e-10
-2.61228e-10
-2.44829e-10
-1.72267e-10
-1.46528e-10
-7.4769e-11
-5.79549e-11
3.34167e-11
-3.16253e-13
2.4946e-10
-4.34881e-11
6.73221e-10
-4.08042e-10
5.05696e-10
-5.46472e-10
3.61126e-10
-3.86617e-10
2.07896e-10
3.34081e-10
-5.88572e-11
3.64918e-10
4.9171e-11
1.83458e-09
1.38378e-09
1.98948e-09
1.45125e-09
1.8568e-09
1.33325e-09
1.58614e-09
1.17384e-09
1.18011e-09
9.42905e-10
7.61315e-10
6.03977e-10
4.79621e-10
3.67358e-10
2.81698e-10
2.00332e-10
1.42516e-10
8.21649e-11
4.38236e-11
-1.39062e-13
-2.35383e-11
-5.57262e-11
-6.85359e-11
-9.04619e-11
-9.56426e-11
-1.09337e-10
-1.08625e-10
-1.17223e-10
-1.12202e-10
-1.17562e-10
-1.09861e-10
-1.11897e-10
-1.01578e-10
-1.02456e-10
-9.0357e-11
-8.95405e-11
-7.68202e-11
-7.4629e-11
-6.1918e-11
-5.9349e-11
-4.68617e-11
-4.45124e-11
-3.31563e-11
-3.1124e-11
-2.18858e-11
-2.11484e-11
-1.39689e-11
-1.5301e-11
-1.06799e-11
-1.33815e-11
-1.16494e-11
-1.65852e-11
-1.77068e-11
-2.4627e-11
-2.86309e-11
-3.66013e-11
-4.35956e-11
-5.17343e-11
-6.14654e-11
-6.88551e-11
-8.04635e-11
-8.8646e-11
-1.01155e-10
-1.08396e-10
-1.22519e-10
-1.30035e-10
-1.43785e-10
-1.51061e-10
-1.6501e-10
-1.71932e-10
-1.85903e-10
-1.92859e-10
-2.09177e-10
-2.14791e-10
-2.29554e-10
-2.30761e-10
-2.42974e-10
-2.37836e-10
-2.51761e-10
-2.40236e-10
-2.60194e-10
-2.36616e-10
-2.7263e-10
-2.22454e-10
-2.97455e-10
-1.93303e-10
-3.46954e-10
-1.64956e-10
-4.22599e-10
-1.53238e-10
-5.06779e-10
-1.82567e-10
-5.56517e-10
-2.07339e-10
-5.62164e-10
-2.26191e-10
-5.12311e-10
-2.39839e-10
-3.88395e-10
-2.49513e-10
-1.78355e-10
-2.53439e-10
1.27271e-10
-2.51889e-10
5.21385e-10
-2.36938e-10
9.48826e-10
-2.02396e-10
8.92271e-10
-7.5737e-10
8.23893e-10
-7.03423e-10
6.16546e-10
-1.86973e-09
-7.71488e-09
1.12473e-09
1.04203e-09
5.04253e-10
1.20823e-09
5.02049e-10
1.01702e-09
4.26548e-10
8.17759e-10
3.62264e-10
6.5879e-10
3.17146e-10
5.42262e-10
2.8731e-10
4.45853e-10
2.70413e-10
3.7562e-10
2.57799e-10
3.27827e-10
2.49702e-10
2.89945e-10
2.41718e-10
2.58831e-10
2.33691e-10
2.32665e-10
2.23516e-10
2.07206e-10
2.10624e-10
1.82697e-10
1.94899e-10
1.59585e-10
1.7691e-10
1.34326e-10
1.54925e-10
1.09202e-10
1.30712e-10
8.39526e-11
1.07958e-10
6.18928e-11
8.63466e-11
4.37618e-11
7.10651e-11
3.23757e-11
6.19547e-11
2.54008e-11
5.77264e-11
2.88205e-11
4.80396e-11
-4.74793e-12
-4.94017e-11
-8.29499e-11
-1.16915e-10
-1.40621e-10
-1.64655e-10
-1.8247e-10
-2.00303e-10
-2.13635e-10
-2.27156e-10
-2.37619e-10
-2.47939e-10
-2.5473e-10
-2.60253e-10
-2.63664e-10
-2.66755e-10
-2.68913e-10
-2.68298e-10
-2.6805e-10
-2.63676e-10
-2.40824e-10
-2.46086e-10
-1.72633e-10
-2.43369e-10
-5.45411e-11
-3.03126e-10
1.13513e-10
-4.43365e-10
-6.77993e-11
-2.37057e-10
4.72663e-10
1.80646e-09
8.43708e-10
1.45844e-09
1.51789e-09
1.51675e-09
1.49498e-09
1.47983e-09
1.44181e-09
1.42328e-09
1.39661e-09
1.36802e-09
1.34376e-09
1.30825e-09
1.28989e-09
1.27599e-09
1.24323e-09
1.26657e-09
1.2019e-09
1.08324e-09
1.17692e-09
1.04417e-09
1.31162e-09
8.5736e-10
1.55728e-09
4.76045e-10
1.95209e-09
1.6853e-11
2.48015e-09
-6.01722e-11
3.02224e-09
-3.58713e-09
-6.14678e-09
-7.88462e-09
-5.91028e-09
2.06556e-08
1.56803e-08
2.03335e-09
1.74632e-09
1.41525e-09
5.39786e-10
1.06672e-09
-1.29596e-10
9.02981e-10
-3.82412e-10
1.03862e-09
-8.76889e-10
1.76535e-09
-1.30435e-09
2.29217e-09
-4.05936e-09
-7.7114e-09
-1.05526e-08
-6.28334e-09
2.06728e-08
1.62955e-08
1.78084e-09
1.22106e-09
1.17104e-09
1.32458e-10
7.4806e-10
-2.26541e-10
3.98078e-10
-2.91605e-10
1.82936e-10
-2.12691e-10
8.75484e-11
-1.40451e-10
5.87199e-11
-3.6652e-11
7.02634e-11
3.49963e-11
1.00042e-10
1.0102e-10
1.29319e-10
1.62587e-10
2.04048e-10
2.24948e-10
2.57307e-10
2.78549e-10
3.0098e-10
3.18842e-10
3.3526e-10
3.65294e-10
3.89741e-10
3.97671e-10
4.06567e-10
4.24083e-10
4.47954e-10
4.7456e-10
4.7733e-10
4.88589e-10
5.10915e-10
5.04309e-10
5.06681e-10
5.25515e-10
5.28431e-10
5.44042e-10
5.19371e-10
5.1918e-10
5.13159e-10
5.05944e-10
5.63724e-10
4.30721e-10
7.24672e-10
2.39377e-10
1.15829e-09
-1.92535e-10
2.24678e-09
-1.13296e-09
3.85937e-09
-5.13331e-09
-8.59913e-09
-1.46632e-08
-4.72558e-09
2.42988e-08
1.62554e-08
3.46023e-09
5.46589e-10
2.38304e-09
2.00133e-10
1.52037e-09
2.72489e-10
8.85263e-10
2.97908e-10
5.14665e-10
3.65473e-10
4.78095e-10
4.41665e-10
4.78048e-10
4.98621e-10
5.34166e-10
5.55073e-10
6.14252e-10
6.60718e-10
6.94784e-10
7.32641e-10
7.69907e-10
8.16994e-10
8.40654e-10
8.79094e-10
9.16455e-10
9.59578e-10
9.96846e-10
9.95647e-10
1.02278e-09
1.04587e-09
1.06957e-09
1.09425e-09
1.08964e-09
1.1001e-09
1.12723e-09
1.13525e-09
1.11308e-09
1.18695e-09
1.07143e-09
1.34676e-09
9.2867e-10
1.60365e-09
7.01853e-10
2.13712e-09
4.59652e-10
2.54053e-09
4.20941e-10
2.96875e-09
4.61288e-10
2.79713e-09
4.14529e-10
9.15952e-10
-1.43887e-10
-2.6509e-09
-1.05551e-08
-2.12063e-08
-2.1254e-08
-2.12967e-08
-2.33416e-08
-1.90221e-08
1.08289e-07
1.0668e-07
0
0
0
0
0
0
0
0
0
)
;

boundaryField
{
    inlet
    {
        type            zeroGradient;
    }
    endWall
    {
        type            zeroGradient;
    }
    sideWall
    {
        type            empty;
    }
}


// ************************************************************************* //
