/*--------------------------------*- C++ -*----------------------------------*\
| =========                 |                                                 |
| \\      /  F ield         | foam-extend: Open Source CFD                    |
|  \\    /   O peration     | Version:     3.2                                |
|   \\  /    A nd           | Web:         http://www.foam-extend.org         |
|    \\/     M anipulation  | For copyright notice see file Copyright         |
\*---------------------------------------------------------------------------*/
FoamFile
{
    version     2.0;
    format      ascii;
    class       areaScalarField;
    location    "2020";
    object      Fi;
}
// * * * * * * * * * * * * * * * * * * * * * * * * * * * * * * * * * * * * * //

dimensions      [0 1 -1 0 0 0 0];

internalField   nonuniform List<scalar> 
550
(
6.05357e-08
5.62819e-08
5.00582e-08
1.95531e-08
-2.75466e-08
-6.78224e-08
-1.05619e-07
-1.37467e-07
-1.60947e-07
-1.75127e-07
-1.79596e-07
-1.76618e-07
-1.69267e-07
-1.5666e-07
-1.4162e-07
-1.27481e-07
-1.12653e-07
-9.82523e-08
-8.67157e-08
-7.70476e-08
-6.86392e-08
-6.12424e-08
-5.45985e-08
-4.93283e-08
-4.4881e-08
-4.10693e-08
-3.79675e-08
-3.55703e-08
-3.37816e-08
-3.20331e-08
-3.03895e-08
-2.89393e-08
-2.7609e-08
-2.65538e-08
-2.56093e-08
-2.47935e-08
-2.40009e-08
-2.31447e-08
-2.24808e-08
-2.18826e-08
-2.11767e-08
-2.06626e-08
-2.01747e-08
-1.9604e-08
-1.91283e-08
-1.87336e-08
-1.7816e-08
-1.79559e-08
-1.7218e-08
-1.71807e-08
-1.65829e-08
-1.71312e-08
-1.54863e-08
-1.52217e-08
-1.50542e-08
-1.47031e-08
-1.463e-08
1.43302e-08
2.07027e-10
-4.20813e-08
-1.32442e-08
-1.29989e-08
3.86155e-08
6.46665e-08
-3.984e-08
-6.6297e-08
-1.21744e-08
5.16183e-08
1.60249e-08
-7.45068e-08
-1.10482e-08
4.84533e-09
3.11222e-08
3.22121e-08
2.9533e-10
-5.00804e-08
-4.07987e-08
3.81851e-08
5.83674e-08
1.98405e-08
-1.26137e-08
-3.24012e-08
-4.0514e-08
-1.00744e-08
2.58421e-08
4.31357e-08
5.77688e-09
2.71846e-09
-2.56336e-08
-4.40117e-08
-7.89669e-09
2.96585e-08
4.73919e-08
3.77383e-09
4.4207e-09
-2.16426e-08
-4.54858e-08
-6.59461e-09
1.45098e-08
3.60476e-08
2.71456e-08
1.58287e-08
-2.53051e-08
-3.40495e-08
1.25031e-12
-6.13487e-09
1.96622e-08
3.01506e-08
5.31774e-09
-1.24433e-08
-1.39249e-08
-2.35615e-08
-7.38035e-09
-6.12861e-09
1.25103e-08
2.11821e-08
1.84495e-09
4.42979e-08
1.35023e-08
-4.71598e-08
-2.47065e-10
1.71588e-09
1.42054e-08
4.741e-09
-1.3423e-08
-1.62081e-10
8.22883e-11
1.47751e-08
6.93651e-09
-1.48716e-08
-5.1083e-11
5.74026e-11
7.06762e-12
2.21581e-11
4.69995e-11
6.14914e-12
9.39272e-11
-1.53281e-11
1.03684e-10
-1.97742e-11
1.00009e-10
-1.94778e-11
9.96926e-11
-3.24189e-11
1.03102e-10
-4.81299e-11
1.09759e-10
-5.99568e-11
1.16507e-10
-6.85683e-11
1.20126e-10
-7.63804e-11
1.24164e-10
-8.18947e-11
1.25991e-10
-9.1092e-11
1.26287e-10
-1.04191e-10
1.27727e-10
-1.21746e-10
1.32773e-10
-1.42493e-10
1.43581e-10
-1.59639e-10
1.60036e-10
-1.75065e-10
1.78815e-10
-1.89542e-10
1.98809e-10
-1.99603e-10
2.09742e-10
-2.06885e-10
2.19069e-10
-2.12436e-10
2.24192e-10
-2.16946e-10
2.24983e-10
-2.21245e-10
2.24073e-10
-2.26384e-10
2.20184e-10
-2.28583e-10
2.16561e-10
-2.30173e-10
2.11433e-10
-2.3193e-10
2.05272e-10
-2.33219e-10
1.98786e-10
-2.33765e-10
1.9268e-10
-2.32991e-10
1.87116e-10
-2.31378e-10
1.81741e-10
-2.29598e-10
1.76345e-10
-2.27248e-10
1.71609e-10
-2.24016e-10
1.68016e-10
-2.1954e-10
1.65805e-10
-2.13156e-10
1.65975e-10
-2.04444e-10
1.68873e-10
-1.93278e-10
1.74169e-10
-1.80354e-10
1.81171e-10
-1.6649e-10
1.89324e-10
-1.52225e-10
1.97688e-10
-1.38935e-10
2.0505e-10
-1.27771e-10
2.10668e-10
-1.18882e-10
2.14593e-10
-1.12523e-10
2.16505e-10
-1.09244e-10
2.15714e-10
-1.09457e-10
2.1214e-10
-1.1331e-10
2.0547e-10
-1.21318e-10
1.95132e-10
-1.3347e-10
1.8187e-10
-1.48741e-10
1.6668e-10
-1.65999e-10
1.5044e-10
-1.84675e-10
1.33561e-10
-2.04466e-10
1.16409e-10
-2.24692e-10
9.94351e-11
-2.4563e-10
8.34798e-11
-2.64549e-10
7.14211e-11
-2.81321e-10
6.23795e-11
-2.98127e-10
5.63721e-11
-3.17085e-10
5.28154e-11
-3.40164e-10
5.60337e-11
-3.71471e-10
7.02093e-11
-4.20167e-10
9.87044e-11
-4.82302e-10
1.45395e-10
-5.44134e-10
2.03034e-10
-6.034e-10
2.69113e-10
-6.55574e-10
3.40381e-10
-6.96272e-10
4.11115e-10
-7.22047e-10
4.76065e-10
-7.29981e-10
5.30346e-10
-7.1877e-10
5.67892e-10
-6.89046e-10
5.83443e-10
-6.42803e-10
5.70635e-10
-5.89432e-10
5.55546e-10
-5.17815e-10
5.4005e-10
-4.30029e-10
5.34544e-10
-3.07945e-10
4.75107e-10
-2.14214e-10
4.27796e-10
-1.35039e-10
3.86219e-10
-7.0629e-11
3.48784e-10
-1.94509e-11
3.15782e-10
1.99023e-11
2.91708e-10
6.1138e-11
2.72625e-10
8.97984e-11
2.47527e-10
1.04431e-10
2.25943e-10
1.14592e-10
2.05665e-10
1.19358e-10
1.8422e-10
1.17906e-10
1.60928e-10
1.11181e-10
1.36151e-10
9.9979e-11
1.09969e-10
8.45157e-11
8.1815e-11
6.46825e-11
5.15815e-11
4.13271e-11
1.98172e-11
1.52832e-11
-1.26038e-11
-1.22214e-11
-4.4393e-11
-3.85993e-11
-7.21313e-11
-6.07371e-11
-9.46584e-11
-7.78975e-11
-1.1305e-10
-9.24573e-11
-1.24709e-10
-1.02551e-10
-1.29537e-10
-1.05068e-10
-1.30798e-10
-1.04795e-10
-1.32167e-10
-1.02839e-10
-1.30918e-10
-9.87386e-11
-1.27267e-10
-9.36249e-11
-1.22218e-10
-8.72585e-11
-1.15684e-10
-7.94906e-11
-1.07868e-10
-7.00308e-11
-9.83958e-11
-5.98821e-11
-8.82739e-11
-4.8694e-11
-7.70752e-11
-3.66099e-11
-6.49235e-11
-2.93567e-11
-5.47609e-11
-2.80132e-11
-4.23391e-11
-3.256e-11
-3.41922e-11
-3.35862e-11
8.24333e-10
2.31864e-09
1.53032e-09
2.38473e-09
2.66638e-09
2.89321e-09
3.097e-09
3.305e-09
3.48604e-09
3.68636e-09
3.87072e-09
4.05271e-09
4.23194e-09
4.39802e-09
4.57816e-09
4.75885e-09
4.91619e-09
5.12503e-09
5.24368e-09
5.28177e-09
5.57995e-09
5.57331e-09
6.08297e-09
5.68349e-09
6.71485e-09
5.64834e-09
7.51739e-09
6.20756e-09
8.46547e-09
7.4713e-09
9.33288e-09
5.53248e-09
1.94344e-10
1.01151e-10
1.52179e-09
2.76548e-08
2.41205e-08
1.0347e-08
1.01525e-08
1.00005e-08
9.19944e-09
9.77447e-09
8.65008e-09
9.82116e-09
8.44031e-09
1.01223e-08
8.35527e-09
1.10306e-08
9.21889e-09
1.16473e-08
7.93295e-09
1.47379e-09
5.87705e-11
3.5367e-09
3.01238e-08
2.72806e-08
1.29869e-08
1.20152e-08
1.24163e-08
1.10772e-08
1.17589e-08
1.07766e-08
1.13571e-08
1.07256e-08
1.11766e-08
1.08038e-08
1.10929e-08
1.08735e-08
1.10742e-08
1.09888e-08
1.11046e-08
1.10852e-08
1.1166e-08
1.11843e-08
1.12339e-08
1.12932e-08
1.1363e-08
1.14159e-08
1.14834e-08
1.15414e-08
1.16043e-08
1.16645e-08
1.17263e-08
1.18046e-08
1.18789e-08
1.19376e-08
1.20004e-08
1.20746e-08
1.21581e-08
1.2247e-08
1.23124e-08
1.23896e-08
1.24789e-08
1.25395e-08
1.26124e-08
1.27036e-08
1.27787e-08
1.28681e-08
1.29157e-08
1.29855e-08
1.3058e-08
1.31111e-08
1.32629e-08
1.31641e-08
1.35981e-08
1.30822e-08
1.42483e-08
1.29184e-08
1.56218e-08
1.33757e-08
1.75088e-08
1.17383e-08
4.94634e-09
-5.2357e-11
7.36405e-09
3.79879e-08
3.16139e-08
1.98111e-08
1.57367e-08
1.81313e-08
1.56565e-08
1.70659e-08
1.59381e-08
1.66415e-08
1.61288e-08
1.64268e-08
1.63504e-08
1.65419e-08
1.65825e-08
1.6697e-08
1.67988e-08
1.69177e-08
1.70257e-08
1.71788e-08
1.73214e-08
1.7458e-08
1.76023e-08
1.7752e-08
1.79156e-08
1.80594e-08
1.82248e-08
1.83922e-08
1.85712e-08
1.87458e-08
1.88836e-08
1.90544e-08
1.92225e-08
1.93941e-08
1.95672e-08
1.97122e-08
1.98758e-08
2.00543e-08
2.02165e-08
2.03446e-08
2.05771e-08
2.06054e-08
2.1059e-08
2.0762e-08
2.16567e-08
2.08483e-08
2.25846e-08
2.1489e-08
2.34518e-08
2.25944e-08
2.44032e-08
2.39855e-08
2.47242e-08
2.52194e-08
2.31293e-08
2.50564e-08
1.94077e-08
1.36068e-08
7.25885e-12
3.86545e-11
8.91902e-12
-2.83128e-11
-5.88597e-11
1.16169e-07
1.45738e-07
4.21256e-08
4.6792e-08
5.01126e-08
5.42621e-08
5.69063e-08
5.8398e-08
5.81627e-08
5.52299e-08
4.8355e-08
)
;

boundaryField
{
    inlet
    {
        type            calculated;
        value           uniform 6.05357e-08;
    }
    endWall
    {
        type            calculated;
        value           uniform 5.46265e-08;
    }
    sideWall
    {
        type            empty;
    }
}


// ************************************************************************* //
