/*--------------------------------*- C++ -*----------------------------------*\
| =========                 |                                                 |
| \\      /  F ield         | foam-extend: Open Source CFD                    |
|  \\    /   O peration     | Version:     3.2                                |
|   \\  /    A nd           | Web:         http://www.foam-extend.org         |
|    \\/     M anipulation  | For copyright notice see file Copyright         |
\*---------------------------------------------------------------------------*/
FoamFile
{
    version     2.0;
    format      ascii;
    class       areaScalarField;
    location    "2020";
    object      Fi1;
}
// * * * * * * * * * * * * * * * * * * * * * * * * * * * * * * * * * * * * * //

dimensions      [0 1 -1 0 0 0 0];

internalField   nonuniform List<scalar> 
550
(
6.05357e-08
5.62819e-08
5.00582e-08
1.95531e-08
-2.75467e-08
-6.78225e-08
-1.05619e-07
-1.37468e-07
-1.60947e-07
-1.75128e-07
-1.79596e-07
-1.76618e-07
-1.69267e-07
-1.5666e-07
-1.4162e-07
-1.27481e-07
-1.12653e-07
-9.82524e-08
-8.67159e-08
-7.70479e-08
-6.86396e-08
-6.12429e-08
-5.4599e-08
-4.93288e-08
-4.48815e-08
-4.10698e-08
-3.7968e-08
-3.55709e-08
-3.37823e-08
-3.20338e-08
-3.03902e-08
-2.89399e-08
-2.76096e-08
-2.65542e-08
-2.56095e-08
-2.47934e-08
-2.40006e-08
-2.31442e-08
-2.24803e-08
-2.18821e-08
-2.11763e-08
-2.06623e-08
-2.01745e-08
-1.9604e-08
-1.91283e-08
-1.87336e-08
-1.7816e-08
-1.79556e-08
-1.72158e-08
-1.2294e-08
-1.39588e-08
1.16744e-08
9.07867e-10
-4.89144e-08
-1.50697e-08
-1.47394e-08
1.35403e-08
2.6504e-08
-2.87101e-08
-4.04657e-08
-1.3313e-08
-1.31141e-08
3.83108e-08
1.06827e-08
-6.37416e-08
-1.23814e-08
-1.21173e-08
-1.2095e-08
-1.16686e-08
-1.08928e-08
4.12792e-08
2.35208e-08
-3.09452e-08
-4.42091e-09
-3.37313e-08
-2.26795e-08
7.22645e-08
7.00799e-08
-4.49654e-08
-1.828e-08
-4.9353e-08
-1.03166e-08
3.0477e-08
4.71578e-08
1.21268e-09
-4.60924e-09
-2.59436e-08
-3.78797e-08
-1.06023e-08
3.10553e-08
4.23498e-08
2.60963e-09
1.05818e-08
-2.96307e-08
-4.15331e-08
-7.69926e-09
3.98997e-08
4.6819e-08
-2.08306e-08
1.20222e-09
-1.35161e-08
-5.22216e-08
-7.82371e-09
1.916e-08
1.70209e-11
-6.15844e-09
1.91816e-08
-3.78918e-09
-2.66029e-08
-6.218e-09
-7.21375e-09
1.53687e-08
2.18427e-08
2.12489e-08
9.69559e-09
-1.73906e-08
4.71911e-10
-2.66198e-08
-1.40964e-08
2.41806e-08
-2.00319e-10
-1.57207e-09
-1.42455e-08
-4.71653e-09
1.34574e-08
-1.32058e-10
9.58956e-11
-1.47239e-08
-6.85481e-09
1.46198e-08
-2.89608e-11
4.51653e-11
6.37438e-12
2.19603e-11
4.68381e-11
5.92232e-12
9.37258e-11
-1.56632e-11
1.03365e-10
-2.01342e-11
9.96556e-11
-1.98114e-11
9.93586e-11
-3.27511e-11
1.02799e-10
-4.84215e-11
1.09526e-10
-6.01694e-11
1.16331e-10
-6.87359e-11
1.20001e-10
-7.64718e-11
1.24127e-10
-8.19534e-11
1.25957e-10
-9.1117e-11
1.26281e-10
-1.042e-10
1.27737e-10
-1.2175e-10
1.32788e-10
-1.42479e-10
1.43628e-10
-1.5959e-10
1.60097e-10
-1.75023e-10
1.78849e-10
-1.89539e-10
1.98786e-10
-1.9967e-10
2.09679e-10
-2.06984e-10
2.18941e-10
-2.12604e-10
2.24001e-10
-2.17178e-10
2.24731e-10
-2.21525e-10
2.23779e-10
-2.26691e-10
2.19876e-10
-2.28905e-10
2.16225e-10
-2.3052e-10
2.11079e-10
-2.32283e-10
2.04917e-10
-2.33567e-10
1.98447e-10
-2.34082e-10
1.92379e-10
-2.33265e-10
1.86862e-10
-2.31607e-10
1.81526e-10
-2.29786e-10
1.76177e-10
-2.27382e-10
1.71498e-10
-2.24092e-10
1.67962e-10
-2.19561e-10
1.65803e-10
-2.13126e-10
1.66022e-10
-2.04368e-10
1.68961e-10
-1.93172e-10
1.74276e-10
-1.80239e-10
1.8128e-10
-1.66378e-10
1.89422e-10
-1.52139e-10
1.97744e-10
-1.38906e-10
2.05037e-10
-1.27817e-10
2.10581e-10
-1.19001e-10
2.14434e-10
-1.12717e-10
2.16269e-10
-1.09513e-10
2.15407e-10
-1.09792e-10
2.11772e-10
-1.13709e-10
2.05036e-10
-1.21786e-10
1.94637e-10
-1.33986e-10
1.81338e-10
-1.49288e-10
1.66121e-10
-1.66573e-10
1.49856e-10
-1.85271e-10
1.32965e-10
-2.05063e-10
1.15826e-10
-2.25268e-10
9.8879e-11
-2.46169e-10
8.29788e-11
-2.65021e-10
7.0988e-11
-2.8173e-10
6.20037e-11
-2.98487e-10
5.6043e-11
-3.174e-10
5.25414e-11
-3.40422e-10
5.58259e-11
-3.71669e-10
7.00644e-11
-4.20318e-10
9.86144e-11
-4.82413e-10
1.45338e-10
-5.44226e-10
2.03e-10
-6.03465e-10
2.69111e-10
-6.55604e-10
3.40405e-10
-6.96283e-10
4.11146e-10
-7.22045e-10
4.76106e-10
-7.29958e-10
5.30391e-10
-7.1874e-10
5.67927e-10
-6.89016e-10
5.83477e-10
-6.42758e-10
5.70712e-10
-5.8935e-10
5.55672e-10
-5.17688e-10
5.40198e-10
-4.29843e-10
5.34752e-10
-3.07701e-10
4.75374e-10
-2.13907e-10
4.2812e-10
-1.34677e-10
3.86595e-10
-7.02217e-11
3.49204e-10
-1.90096e-11
3.16227e-10
2.03447e-11
2.92139e-10
6.15739e-11
2.73011e-10
9.01601e-11
2.47872e-10
1.04763e-10
2.26247e-10
1.14867e-10
2.05897e-10
1.19541e-10
1.84351e-10
1.17986e-10
1.60954e-10
1.1116e-10
1.3608e-10
9.98635e-11
1.09806e-10
8.43109e-11
8.15698e-11
6.44036e-11
5.12715e-11
4.09894e-11
1.94547e-11
1.4906e-11
-1.29913e-11
-1.26065e-11
-4.47641e-11
-3.89443e-11
-7.2446e-11
-6.10201e-11
-9.49115e-11
-7.81222e-11
-1.13234e-10
-9.25996e-11
-1.24806e-10
-1.0258e-10
-1.29541e-10
-1.05052e-10
-1.30764e-10
-1.04736e-10
-1.3208e-10
-1.02718e-10
-1.3077e-10
-9.85659e-11
-1.27077e-10
-9.34217e-11
-1.22005e-10
-8.70364e-11
-1.15454e-10
-7.92526e-11
-1.07621e-10
-6.97723e-11
-9.81277e-11
-5.96e-11
-8.79724e-11
-4.83674e-11
-7.67264e-11
-3.62518e-11
-6.45684e-11
-2.90039e-11
-5.44127e-11
-2.76692e-11
-4.19924e-11
-3.22342e-11
-3.38839e-11
-3.33096e-11
8.24724e-10
2.319e-09
1.53062e-09
2.38502e-09
2.66665e-09
2.89346e-09
3.09724e-09
3.30523e-09
3.48625e-09
3.68657e-09
3.87093e-09
4.05292e-09
4.23215e-09
4.39824e-09
4.57837e-09
4.75907e-09
4.91641e-09
5.12524e-09
5.2439e-09
5.282e-09
5.58018e-09
5.57354e-09
6.0832e-09
5.68372e-09
6.71507e-09
5.64856e-09
7.51758e-09
6.20773e-09
8.46561e-09
7.47141e-09
9.33295e-09
5.53243e-09
1.94466e-10
1.01401e-10
1.52181e-09
2.76545e-08
2.41203e-08
1.03469e-08
1.01523e-08
1.00003e-08
9.19926e-09
9.77431e-09
8.64993e-09
9.82104e-09
8.4402e-09
1.01222e-08
8.35518e-09
1.10305e-08
9.21877e-09
1.16472e-08
7.93276e-09
1.47369e-09
5.87385e-11
3.53654e-09
3.01236e-08
2.72804e-08
1.29866e-08
1.20149e-08
1.2416e-08
1.10769e-08
1.17586e-08
1.07762e-08
1.13567e-08
1.07252e-08
1.11762e-08
1.08035e-08
1.10925e-08
1.08732e-08
1.10739e-08
1.09885e-08
1.11043e-08
1.1085e-08
1.11658e-08
1.1184e-08
1.12336e-08
1.1293e-08
1.13628e-08
1.14156e-08
1.14831e-08
1.15412e-08
1.16041e-08
1.16643e-08
1.17262e-08
1.18044e-08
1.18788e-08
1.19375e-08
1.20003e-08
1.20745e-08
1.2158e-08
1.22469e-08
1.23123e-08
1.23895e-08
1.24788e-08
1.25394e-08
1.26122e-08
1.27035e-08
1.27785e-08
1.28678e-08
1.29153e-08
1.29852e-08
1.30577e-08
1.31107e-08
1.32625e-08
1.31637e-08
1.35978e-08
1.3082e-08
1.42481e-08
1.29183e-08
1.56217e-08
1.33757e-08
1.75088e-08
1.17384e-08
4.94636e-09
-5.23892e-11
7.36411e-09
3.7988e-08
3.1614e-08
1.98111e-08
1.57368e-08
1.81313e-08
1.56564e-08
1.70658e-08
1.5938e-08
1.66413e-08
1.61286e-08
1.64265e-08
1.63501e-08
1.65416e-08
1.65821e-08
1.66967e-08
1.67985e-08
1.69173e-08
1.70253e-08
1.71784e-08
1.73211e-08
1.74576e-08
1.76019e-08
1.77516e-08
1.79153e-08
1.80591e-08
1.82245e-08
1.8392e-08
1.8571e-08
1.87457e-08
1.88835e-08
1.90544e-08
1.92225e-08
1.93942e-08
1.95673e-08
1.97123e-08
1.9876e-08
2.00545e-08
2.02167e-08
2.03448e-08
2.05773e-08
2.06056e-08
2.10591e-08
2.07622e-08
2.16569e-08
2.08485e-08
2.25848e-08
2.14891e-08
2.34519e-08
2.25944e-08
2.44032e-08
2.39855e-08
2.47242e-08
2.52194e-08
2.31293e-08
2.50564e-08
1.94076e-08
1.36066e-08
7.11068e-12
3.84526e-11
8.53153e-12
-2.86016e-11
-5.89815e-11
1.16169e-07
1.45738e-07
4.21255e-08
4.67919e-08
5.01126e-08
5.42621e-08
5.69063e-08
5.83979e-08
5.81627e-08
5.52299e-08
4.8355e-08
)
;

boundaryField
{
    inlet
    {
        type            calculated;
        value           uniform 6.05357e-08;
    }
    endWall
    {
        type            calculated;
        value           uniform 5.46265e-08;
    }
    sideWall
    {
        type            empty;
    }
}


// ************************************************************************* //
