/*--------------------------------*- C++ -*----------------------------------*\
| =========                 |                                                 |
| \\      /  F ield         | foam-extend: Open Source CFD                    |
|  \\    /   O peration     | Version:     3.2                                |
|   \\  /    A nd           | Web:         http://www.foam-extend.org         |
|    \\/     M anipulation  | For copyright notice see file Copyright         |
\*---------------------------------------------------------------------------*/
FoamFile
{
    version     2.0;
    format      ascii;
    class       areaScalarField;
    location    "2020";
    object      Fi2;
}
// * * * * * * * * * * * * * * * * * * * * * * * * * * * * * * * * * * * * * //

dimensions      [0 1 -1 0 0 0 0];

internalField   nonuniform List<scalar> 
550
(
6.05357e-08
5.62819e-08
5.00582e-08
1.95531e-08
-2.75467e-08
-6.78226e-08
-1.0562e-07
-1.37468e-07
-1.60948e-07
-1.75128e-07
-1.79596e-07
-1.76619e-07
-1.69267e-07
-1.5666e-07
-1.4162e-07
-1.27481e-07
-1.12653e-07
-9.82525e-08
-8.67161e-08
-7.70483e-08
-6.86401e-08
-6.12434e-08
-5.45995e-08
-4.93293e-08
-4.4882e-08
-4.10703e-08
-3.79685e-08
-3.55714e-08
-3.37829e-08
-3.20345e-08
-3.0391e-08
-2.89406e-08
-2.76101e-08
-2.65546e-08
-2.56096e-08
-2.47933e-08
-2.40003e-08
-2.31439e-08
-2.248e-08
-2.18818e-08
-2.11762e-08
-2.06623e-08
-2.01747e-08
-1.96044e-08
-1.91289e-08
-1.87343e-08
-1.78169e-08
-1.79568e-08
-1.72184e-08
-1.71746e-08
-1.65796e-08
-1.7144e-08
-1.54837e-08
-1.52155e-08
-1.50792e-08
-1.52691e-08
9.75496e-09
-1.36371e-09
-3.8448e-08
-1.36571e-08
-1.33004e-08
-1.35012e-08
3.78619e-08
1.09044e-08
-6.3563e-08
5.17968e-08
7.07071e-08
1.18617e-08
-3.8826e-08
-7.45356e-08
-1.09778e-08
-1.00704e-08
-1.12149e-08
-7.4918e-09
-6.6163e-09
4.14994e-08
1.0556e-08
-3.68267e-08
1.49454e-09
-3.01828e-08
2.94124e-08
4.36898e-08
6.43922e-09
1.23917e-09
-3.15459e-08
-3.90658e-08
-9.59731e-09
3.29014e-08
4.86547e-08
4.92004e-09
-6.5909e-09
-3.52708e-08
-3.16323e-08
-7.81987e-09
3.48358e-08
4.71648e-08
1.18974e-08
6.55063e-09
-3.95978e-08
-3.29598e-08
-1.15437e-08
3.1642e-08
1.53017e-08
-3.33464e-08
-2.95655e-11
-6.12822e-09
-9.24879e-10
-1.37406e-08
1.09953e-08
2.38962e-08
1.98177e-08
8.53104e-09
-1.43641e-08
-1.58326e-08
-2.31531e-08
-4.0571e-09
-2.86441e-09
-1.71752e-08
-1.11005e-09
2.423e-08
-1.84962e-10
1.67593e-09
1.42064e-08
4.74029e-09
-1.34239e-08
-1.63367e-10
8.20352e-11
1.47749e-08
6.93554e-09
-1.48722e-08
-5.21041e-11
5.73965e-11
6.67772e-12
2.15954e-11
4.66214e-11
5.67501e-12
9.35163e-11
-1.60023e-11
1.03044e-10
-2.04955e-11
9.9301e-11
-2.01457e-11
9.90237e-11
-3.30839e-11
1.02495e-10
-4.87139e-11
1.09292e-10
-6.03834e-11
1.16152e-10
-6.89055e-11
1.19874e-10
-7.65655e-11
1.24088e-10
-8.2015e-11
1.2592e-10
-9.11448e-11
1.26271e-10
-1.04212e-10
1.27744e-10
-1.21757e-10
1.32801e-10
-1.42466e-10
1.43675e-10
-1.59543e-10
1.60157e-10
-1.74981e-10
1.78882e-10
-1.89536e-10
1.98764e-10
-1.99735e-10
2.09618e-10
-2.0708e-10
2.18814e-10
-2.1277e-10
2.23813e-10
-2.17408e-10
2.24481e-10
-2.21802e-10
2.23487e-10
-2.26997e-10
2.19569e-10
-2.29227e-10
2.1589e-10
-2.30868e-10
2.10725e-10
-2.32638e-10
2.04561e-10
-2.33917e-10
1.98106e-10
-2.34401e-10
1.92077e-10
-2.3354e-10
1.86607e-10
-2.31836e-10
1.81309e-10
-2.29975e-10
1.76009e-10
-2.27516e-10
1.71387e-10
-2.24168e-10
1.67909e-10
-2.19581e-10
1.65801e-10
-2.13096e-10
1.66071e-10
-2.04291e-10
1.6905e-10
-1.93064e-10
1.74385e-10
-1.80123e-10
1.8139e-10
-1.66265e-10
1.8952e-10
-1.52052e-10
1.978e-10
-1.38877e-10
2.05024e-10
-1.27863e-10
2.10493e-10
-1.19119e-10
2.14274e-10
-1.1291e-10
2.16033e-10
-1.09782e-10
2.15101e-10
-1.10127e-10
2.11404e-10
-1.14107e-10
2.04602e-10
-1.22253e-10
1.94142e-10
-1.34502e-10
1.80807e-10
-1.49834e-10
1.65563e-10
-1.67147e-10
1.49273e-10
-1.85866e-10
1.3237e-10
-2.05658e-10
1.15244e-10
-2.25844e-10
9.83234e-11
-2.46708e-10
8.24786e-11
-2.65493e-10
7.05556e-11
-2.82139e-10
6.16284e-11
-2.98847e-10
5.57144e-11
-3.17714e-10
5.22685e-11
-3.40679e-10
5.56196e-11
-3.71866e-10
6.9921e-11
-4.20468e-10
9.85261e-11
-4.82522e-10
1.45283e-10
-5.44315e-10
2.02968e-10
-6.03526e-10
2.69111e-10
-6.55632e-10
3.40432e-10
-6.96291e-10
4.11179e-10
-7.2204e-10
4.76149e-10
-7.29933e-10
5.30438e-10
-7.1871e-10
5.67963e-10
-6.88986e-10
5.83511e-10
-6.42712e-10
5.7079e-10
-5.89268e-10
5.55798e-10
-5.17562e-10
5.40347e-10
-4.29657e-10
5.3496e-10
-3.07457e-10
4.75639e-10
-2.13601e-10
4.28444e-10
-1.34316e-10
3.86971e-10
-6.98143e-11
3.49625e-10
-1.85676e-11
3.16672e-10
2.07879e-11
2.92571e-10
6.20113e-11
2.73397e-10
9.05238e-11
2.4822e-10
1.05099e-10
2.26553e-10
1.15145e-10
2.06131e-10
1.19726e-10
1.84482e-10
1.18068e-10
1.60981e-10
1.1114e-10
1.3601e-10
9.9749e-11
1.09644e-10
8.41071e-11
8.13255e-11
6.41254e-11
5.09621e-11
4.06523e-11
1.90929e-11
1.45296e-11
-1.3378e-11
-1.29904e-11
-4.51338e-11
-3.92877e-11
-7.27591e-11
-6.13014e-11
-9.51631e-11
-7.83452e-11
-1.13417e-10
-9.27404e-11
-1.24902e-10
-1.02608e-10
-1.29544e-10
-1.05035e-10
-1.3073e-10
-1.04678e-10
-1.31992e-10
-1.02596e-10
-1.30622e-10
-9.8393e-11
-1.26888e-10
-9.32183e-11
-1.21791e-10
-8.68138e-11
-1.15224e-10
-7.90137e-11
-1.07373e-10
-6.95127e-11
-9.78584e-11
-5.93164e-11
-8.76692e-11
-4.80391e-11
-7.63759e-11
-3.58924e-11
-6.42123e-11
-2.86502e-11
-5.40638e-11
-2.73245e-11
-4.16449e-11
-3.19077e-11
-3.3575e-11
-3.30328e-11
8.25114e-10
2.31936e-09
1.53093e-09
2.38531e-09
2.66692e-09
2.89371e-09
3.09747e-09
3.30546e-09
3.48647e-09
3.68678e-09
3.87114e-09
4.05313e-09
4.23236e-09
4.39845e-09
4.57859e-09
4.75928e-09
4.91662e-09
5.12546e-09
5.24412e-09
5.28223e-09
5.58042e-09
5.57378e-09
6.08343e-09
5.68396e-09
6.71529e-09
5.64877e-09
7.51777e-09
6.20791e-09
8.46575e-09
7.47152e-09
9.33302e-09
5.53237e-09
1.94587e-10
1.01649e-10
1.52182e-09
2.76543e-08
2.41201e-08
1.03467e-08
1.01521e-08
1.00001e-08
9.19908e-09
9.77414e-09
8.64979e-09
9.82092e-09
8.4401e-09
1.01221e-08
8.35508e-09
1.10304e-08
9.21866e-09
1.16471e-08
7.93256e-09
1.47358e-09
5.87068e-11
3.53638e-09
3.01233e-08
2.72802e-08
1.29864e-08
1.20147e-08
1.24157e-08
1.10765e-08
1.17583e-08
1.07759e-08
1.13563e-08
1.07248e-08
1.11758e-08
1.08031e-08
1.10922e-08
1.08729e-08
1.10736e-08
1.09882e-08
1.11041e-08
1.10847e-08
1.11655e-08
1.11838e-08
1.12334e-08
1.12927e-08
1.13625e-08
1.14154e-08
1.14829e-08
1.15409e-08
1.16039e-08
1.16641e-08
1.1726e-08
1.18043e-08
1.18786e-08
1.19374e-08
1.20002e-08
1.20744e-08
1.21579e-08
1.22468e-08
1.23123e-08
1.23894e-08
1.24787e-08
1.25393e-08
1.26121e-08
1.27033e-08
1.27783e-08
1.28675e-08
1.2915e-08
1.29848e-08
1.30573e-08
1.31103e-08
1.32622e-08
1.31634e-08
1.35975e-08
1.30818e-08
1.42479e-08
1.29182e-08
1.56217e-08
1.33757e-08
1.75089e-08
1.17386e-08
4.94638e-09
-5.24184e-11
7.36417e-09
3.79882e-08
3.16141e-08
1.98112e-08
1.57368e-08
1.81313e-08
1.56564e-08
1.70657e-08
1.59379e-08
1.66411e-08
1.61284e-08
1.64263e-08
1.63499e-08
1.65413e-08
1.65818e-08
1.66963e-08
1.67981e-08
1.6917e-08
1.7025e-08
1.7178e-08
1.73207e-08
1.74572e-08
1.76016e-08
1.77513e-08
1.79149e-08
1.80588e-08
1.82243e-08
1.83917e-08
1.85708e-08
1.87455e-08
1.88834e-08
1.90543e-08
1.92225e-08
1.93942e-08
1.95675e-08
1.97125e-08
1.98762e-08
2.00547e-08
2.02169e-08
2.0345e-08
2.05775e-08
2.06058e-08
2.10593e-08
2.07623e-08
2.1657e-08
2.08486e-08
2.25849e-08
2.14892e-08
2.3452e-08
2.25945e-08
2.44033e-08
2.39856e-08
2.47242e-08
2.52194e-08
2.31293e-08
2.50563e-08
1.94075e-08
1.36064e-08
6.96503e-12
3.82538e-11
8.14772e-12
-2.88914e-11
-5.91062e-11
1.1617e-07
1.45738e-07
4.21255e-08
4.67919e-08
5.01125e-08
5.42621e-08
5.69063e-08
5.83979e-08
5.81627e-08
5.52299e-08
4.8355e-08
)
;

boundaryField
{
    inlet
    {
        type            calculated;
        value           uniform 6.05357e-08;
    }
    endWall
    {
        type            calculated;
        value           uniform 5.46265e-08;
    }
    sideWall
    {
        type            empty;
    }
}


// ************************************************************************* //
