/*--------------------------------*- C++ -*----------------------------------*\
| =========                 |                                                 |
| \\      /  F ield         | foam-extend: Open Source CFD                    |
|  \\    /   O peration     | Version:     3.2                                |
|   \\  /    A nd           | Web:         http://www.foam-extend.org         |
|    \\/     M anipulation  | For copyright notice see file Copyright         |
\*---------------------------------------------------------------------------*/
FoamFile
{
    version     2.0;
    format      ascii;
    class       areaScalarField;
    location    "2020";
    object      Hdep;
}
// * * * * * * * * * * * * * * * * * * * * * * * * * * * * * * * * * * * * * //

dimensions      [0 0 0 0 0 0 0];

internalField   nonuniform List<scalar> 
550
(
0
0
0
0
0
0
0
0
0
0
0
0
0
0
0
0
0
0
0
0
0
0
0
0
0
0
0
0
0
0
0
0
0
0
0
0
0
0
0
0
0
0
0
0
0
0
0
0
0
0
0
6.06416e-07
0
0
0
0
1.33958e-06
0
0
6.72145e-06
7.1036e-06
4.43747e-06
3.68309e-06
0
0
7.76777e-06
5.12681e-06
2.3608e-06
0
0
2.66205e-05
0.000608418
0.00338525
0.0035859
0.0902507
0.109405
0.140318
0.00198498
0.00363837
0.122019
0.122475
0.127719
0.136933
0.137576
0.134487
0.136997
0.133454
0.1369
0.136185
0.141031
0.133029
0.136596
0.126591
0.129096
0.122812
0.125391
0.119885
0.114936
0.10012
0.10535
0.133839
0.122187
0.145212
0.110329
0.0822928
0.0677067
0.091017
0.0933614
0.0735803
0.0973767
0.0880792
0.0818218
0.0680464
0.0824854
0.288049
0.265644
0.23715
0.313246
0.210237
0.254302
0.156528
0.0964122
0.151321
0.0385152
0.0457451
0.00598559
0.00375982
0.0700179
0.0285205
0.0447803
0.00477932
0.00488347
0.0047253
0.00542354
0.00659539
0.00761133
0.00828376
0.00815909
0.00771436
0.00762208
0.00766353
0.00779832
0.00788435
0.00808416
0.00823989
0.0083966
0.00863544
0.00871285
0.00899114
0.00901348
0.00928357
0.00929379
0.00959988
0.00951971
0.00984873
0.00974523
0.0100923
0.00994275
0.0103104
0.0100942
0.0104726
0.0102299
0.0105456
0.0102639
0.0105556
0.0102867
0.0104773
0.0102332
0.010184
0.00999221
0.00986855
0.0097742
0.00965189
0.0096788
0.00957721
0.0096799
0.00956353
0.00970036
0.00961513
0.00972553
0.00969248
0.00977608
0.00979422
0.00987317
0.00991651
0.00998265
0.0100348
0.0100923
0.010158
0.0102068
0.0102844
0.0103181
0.0104047
0.0104311
0.0105229
0.01054
0.0106372
0.0106496
0.0107465
0.0107604
0.010854
0.0108715
0.010954
0.0109807
0.0110497
0.0110837
0.0111456
0.0111821
0.011235
0.0112788
0.0113255
0.0113655
0.0114094
0.0114457
0.0114897
0.0115345
0.0115672
0.011622
0.0116287
0.0116971
0.0116923
0.0117615
0.0117545
0.0118159
0.0118188
0.0118724
0.011884
0.0119423
0.0119493
0.0120142
0.0120185
0.0120857
0.0120871
0.0121608
0.0121571
0.0122411
0.0122296
0.0123283
0.0123084
0.0124394
0.0123841
0.0125401
0.0124777
0.0126452
0.0125732
0.0127549
0.0126857
0.0128552
0.0127894
0.0129449
0.0128853
0.0130247
0.0129788
0.0131075
0.0130752
0.0131906
0.0131822
0.0132722
0.0132872
0.0133569
0.0133878
0.0134374
0.013481
0.0135146
0.0135752
0.0135882
0.0136592
0.013661
0.0137213
0.0137345
0.0137488
0.0138036
0.0137576
0.0138865
0.0137738
0.0139833
0.0138414
0.014087
0.013941
0.0141781
0.0140437
0.0142184
0.0140852
0.0140196
0.0144679
0.015033
0.0149683
0.0149446
0.0149581
0.014952
0.0149867
0.0150039
0.015017
0.0150729
0.0150626
0.0151172
0.0151019
0.015156
0.0151461
0.0151909
0.0151777
0.0152169
0.0152126
0.0152406
0.0152492
0.0152705
0.0152862
0.0153067
0.0153281
0.0153484
0.0153744
0.0153938
0.0154186
0.0154386
0.0154618
0.0154809
0.0155049
0.0155226
0.0155467
0.0155655
0.015592
0.0156143
0.015643
0.0156695
0.0156978
0.0157249
0.0157543
0.0157839
0.0158115
0.0158427
0.0158707
0.0159007
0.0159338
0.0159666
0.0160079
0.0160486
0.0160957
0.0161406
0.0161928
0.0162423
0.0162978
0.0163495
0.016406
0.0164597
0.0165189
0.0165753
0.0166296
0.0166875
0.0167393
0.0167982
0.0168502
0.0169033
0.0169481
0.0169985
0.0170466
0.0170935
0.0171357
0.0171719
0.0171986
0.0172161
0.0172108
0.0171394
0.0169856
0.0169405
0.0169292
0.0169167
0.0169072
0.0168959
0.0168857
0.0168737
0.0168627
0.0168505
0.0168397
0.0168273
0.0168169
0.016808
0.016804
0.0168017
0.0168035
0.0167999
0.0167845
0.0167706
0.0167664
0.0167598
0.0167538
0.0167459
0.0167391
0.0167303
0.016723
0.0167136
0.0167054
0.0166963
0.0166886
0.0166828
0.0168926
0.0166028
0.0167405
0.0166423
0.0166332
0.0166241
0.0166153
0.0166066
0.0165978
0.0165879
0.0165787
0.0165681
0.0165573
0.0165465
0.0165354
0.0165235
0.0165115
0.0165013
0.0164901
0.0165119
0.0163273
0.0164533
0.0164416
0.0164313
0.0164217
0.016413
0.0164049
0.0163967
0.0163895
0.0163821
0.0163761
0.0163707
0.0163653
0.0163611
0.0163569
0.016353
0.0163496
0.0163469
0.0163446
0.0163424
0.0163401
0.0163384
0.0163369
0.0163345
0.0163323
0.0163302
0.0163286
0.0163272
0.0163258
0.0163248
0.0163236
0.0163216
0.0163193
0.0163168
0.0163145
0.0163114
0.0163078
0.0163041
0.0163009
0.0162984
0.016296
0.0162949
0.0162937
0.0162931
0.0162931
0.0162936
0.016295
0.0162972
0.0162991
0.0163019
0.0163041
0.0163073
0.0163099
0.0163121
0.0163159
0.0163194
0.016325
0.0163301
0.0163329
0.0163396
0.0163463
0.0162541
0.0163471
0.0163525
0.0163585
0.0163652
0.0163728
0.0163812
0.0163884
0.0163958
0.0164037
0.0164103
0.0164177
0.0164246
0.0164313
0.0164385
0.0164466
0.0164564
0.0164668
0.0164772
0.0164884
0.0164983
0.0165095
0.016521
0.0165323
0.0165438
0.0165542
0.0165659
0.0165755
0.0165853
0.0165942
0.0166016
0.0166091
0.0166148
0.0166209
0.0166263
0.0166306
0.0166344
0.0166363
0.0166376
0.0166394
0.0166387
0.0166396
0.0166403
0.0166429
0.0166488
0.0166548
0.0166624
0.0166693
0.0166686
0.0166705
0.0166691
0.0166595
0.0166676
0.0166629
0.0166427
0.0166702
0.0166375
0.0166935
0.0166687
0.0169872
0.0163699
0.0150536
0.0128716
0.00974202
0
0
0
0
0
0
0
0
0
0
0
)
;

boundaryField
{
    inlet
    {
        type            calculated;
        value           uniform 0;
    }
    endWall
    {
        type            calculated;
        value           uniform 0;
    }
    sideWall
    {
        type            empty;
    }
}


// ************************************************************************* //
