/*--------------------------------*- C++ -*----------------------------------*\
| =========                 |                                                 |
| \\      /  F ield         | foam-extend: Open Source CFD                    |
|  \\    /   O peration     | Version:     3.2                                |
|   \\  /    A nd           | Web:         http://www.foam-extend.org         |
|    \\/     M anipulation  | For copyright notice see file Copyright         |
\*---------------------------------------------------------------------------*/
FoamFile
{
    version     2.0;
    format      ascii;
    class       areaScalarField;
    location    "2020";
    object      He;
}
// * * * * * * * * * * * * * * * * * * * * * * * * * * * * * * * * * * * * * //

dimensions      [0 0 0 0 0 0 0];

internalField   nonuniform List<scalar> 
550
(
0
0
0
0
0
0
0
0
0
0
0
0
0
0
0
0
0
0
0
0
0
0
0
0
0
0
0
0
0
0
0
0
0
0
0
0
0
0
0
0
0
0
0
0
0
0
0
0
0
0
0
0
0
0
0
0
0
0
3.65583e-06
4.35856e-06
3.34912e-06
9.17866e-08
0
2.82198e-06
8.04195e-06
2.51554e-06
1.21777e-06
9.07722e-07
3.02414e-07
0
0
0
2.06956e-06
2.65824e-06
2.36396e-06
1.70741e-07
0
0
3.46124e-06
4.00832e-06
3.18266e-06
9.87728e-07
0
0
0
3.83054e-06
2.99335e-06
2.80763e-06
7.00723e-07
0
0
0
2.80532e-06
2.56622e-06
3.00991e-06
4.25945e-07
0
0
0
3.72509e-06
2.56143e-06
3.14443e-06
1.21763e-06
0
0
0
0
8.10157e-07
1.5804e-06
1.15632e-06
1.3192e-07
0
0
0
0
1.46864e-06
1.75064e-06
2.62985e-06
7.65597e-07
0
0
4.39741e-07
8.69517e-07
2.55482e-07
0
0
3.66602e-07
9.0518e-07
3.45375e-07
0
0
0
0
0
0
0
0
0
0
0
0
0
0
0
0
0
0
0
0
0
0
0
0
0
0
0
0
0
0
0
0
3.16335e-06
3.40039e-06
3.61825e-06
3.83481e-06
4.04883e-06
4.26741e-06
4.43852e-06
0
0
0
0
0
0
0
0
0
0
6.58355e-06
6.72916e-06
6.8444e-06
6.97015e-06
7.08185e-06
7.19442e-06
7.28169e-06
7.35947e-06
7.40166e-06
7.42561e-06
7.41113e-06
7.37348e-06
7.30007e-06
7.20238e-06
7.07328e-06
6.92037e-06
6.73996e-06
6.53713e-06
6.31096e-06
6.06588e-06
5.80376e-06
5.5287e-06
5.24477e-06
4.95514e-06
4.6682e-06
4.38737e-06
4.12602e-06
3.8906e-06
3.6992e-06
3.56256e-06
1.38836e-05
7.35143e-10
0
0
0
0
0
0
0
0
0
0
0
0
0
0
0
0
0
0
0
0
0
0
0
0
0
1.6222e-05
1.65013e-05
1.67314e-05
1.69251e-05
1.70599e-05
1.7145e-05
1.71509e-05
1.70826e-05
1.68996e-05
1.66655e-05
1.64009e-05
1.61861e-05
1.59716e-05
1.58523e-05
1.57079e-05
1.5697e-05
1.55849e-05
1.5685e-05
1.56072e-05
1.5886e-05
1.58489e-05
1.64323e-05
1.65765e-05
1.71955e-05
1.72999e-05
1.742e-05
1.71677e-05
1.68479e-05
1.6294e-05
1.55224e-05
1.46792e-05
1.34582e-05
1.23492e-05
1.0721e-05
9.409e-06
7.5001e-06
5.22494e-06
3.55048e-06
2.76688e-06
1.82865e-06
1.27342e-06
7.095e-07
4.58988e-07
2.35753e-07
8.86336e-08
0
0
0
0
0
0
0
0
0
0
0
0
0
0
0
0
0
0
0
0
0
0
0
0
0
0
0
0
0
0
0
0
0
0
0
0
0
0
0
0
1.43454e-05
1.41912e-05
1.39743e-05
1.36612e-05
1.32902e-05
1.28426e-05
1.23472e-05
1.17917e-05
1.11841e-05
1.0481e-05
9.76958e-06
8.86788e-06
7.82463e-06
6.93071e-06
6.11632e-06
5.47916e-06
4.94137e-06
4.43093e-06
3.97255e-06
3.56674e-06
3.2457e-06
2.96215e-06
2.68808e-06
2.41418e-06
2.13927e-06
1.86745e-06
1.60035e-06
1.34612e-06
1.11549e-06
9.13335e-07
7.41357e-07
5.98367e-07
4.84189e-07
3.91642e-07
3.2789e-07
2.74798e-07
2.43411e-07
2.06693e-07
1.89061e-07
1.88826e-07
1.84985e-07
1.50716e-07
5.2114e-08
0
0
0
0
0
0
0
0
0
0
0
0
0
0
0
0
0
0
0
0
0
0
0
0
0
0
0
0
0
0
0
0
0
0
0
0
0
0
0
0
0
0
0
0
0
0
0
0
0
0
0
0
0
0
0
0
0
0
0
0
0
0
0
0
0
0
0
0
0
0
0
0
0
0
0
0
0
0
0
0
0
0
0
0
0
0
0
0
0
0
0
0
0
0
0
0
0
0
0
0
0
0
0
0
0
0
0
0
0
0
0
2.09992e-07
4.20051e-07
2.10059e-07
0
0
0
0
0
0
0
0
0
0
0
0
0
0
0
0
0
0
0
0
0
0
0
0
0
0
0
0
0
0
0
0
0
0
0
0
0
0
0
0
0
0
0
0
0
0
0
0
0
0
0
0
0
0
0
0
0
0
0
0
9.67802e-07
8.20231e-07
2.80818e-07
0
0
0
0
0
0
0
0
0
0
)
;

boundaryField
{
    inlet
    {
        type            calculated;
        value           uniform 0;
    }
    endWall
    {
        type            calculated;
        value           uniform 0;
    }
    sideWall
    {
        type            empty;
    }
}


// ************************************************************************* //
