/*--------------------------------*- C++ -*----------------------------------*\
| =========                 |                                                 |
| \\      /  F ield         | foam-extend: Open Source CFD                    |
|  \\    /   O peration     | Version:     3.2                                |
|   \\  /    A nd           | Web:         http://www.foam-extend.org         |
|    \\/     M anipulation  | For copyright notice see file Copyright         |
\*---------------------------------------------------------------------------*/
FoamFile
{
    version     2.0;
    format      ascii;
    class       areaScalarField;
    location    "1790";
    object      Href;
}
// * * * * * * * * * * * * * * * * * * * * * * * * * * * * * * * * * * * * * //

dimensions      [0 0 0 0 0 0 0];

internalField   nonuniform List<scalar> 
550
(
1e-100
5e-11
-5e-11
1e-100
-5e-10
1e-100
5e-10
1e-100
1e-100
5e-10
1e-100
5.42101e-20
-5e-10
1e-100
1.0842e-19
-5e-10
-1.0842e-19
5e-10
1.0842e-19
2.1684e-19
5e-10
1e-100
1.0842e-19
-5e-10
-1.0842e-19
1e-100
-5e-10
1e-09
-5e-09
1e-100
1e-100
-5e-09
2.1684e-19
4.33681e-19
5e-09
2.1684e-19
1e-100
5e-09
2.1684e-19
-5e-09
2.1684e-19
2.1684e-19
-5e-09
2.1684e-19
4.33681e-19
5e-09
2.1684e-19
2.1684e-19
5e-09
2.1684e-19
-5e-09
-2.1684e-19
2.1684e-19
-5e-09
4.33681e-19
-4.33681e-19
5e-09
1e-100
1e-100
5e-09
4.33681e-19
-5e-09
1e-100
1e-100
-5e-09
8.67362e-19
1e-100
5e-09
1e-100
4.33681e-19
5e-09
-4.33681e-19
-5e-09
4.33681e-19
4.33681e-19
-5e-09
1e-100
1e-100
5e-09
1e-100
4.33681e-19
5e-09
1e-100
-5e-09
-4.33681e-19
1e-100
-5e-09
4.33681e-19
4.33681e-19
5e-09
4.33681e-19
1e-100
5e-09
4.33681e-19
-5e-09
1e-100
4.33681e-19
-5e-09
8.67362e-19
4.33681e-19
5e-09
1e-100
-4.33681e-19
5e-09
1e-100
-5e-09
1e-100
-8.67362e-19
-5e-09
-1.225e-06
-2.32e-06
-2.105e-06
1.095e-06
3.575e-06
1.935e-06
-1.81e-06
-1.36e-06
2.65e-07
2.14e-06
4.7235e-05
3.92e-06
3.466e-05
3.05e-05
-9.8e-07
5.05e-07
0.00012775
0.00018909
2.075e-06
1.92e-06
4.1155e-05
4.474e-05
2.4035e-05
7.11e-05
0.00011499
6.0515e-05
8.433e-05
9.4865e-05
9.0595e-05
0.000134515
7.9695e-05
4.87e-05
7.3305e-05
7.5585e-05
5.3575e-05
6.4925e-05
4.992e-05
6.609e-05
7.6345e-05
8.476e-05
8.157e-05
7.336e-05
0.000152315
0.000106735
7.059e-05
7.803e-05
9.4085e-05
0.000135185
0.000121445
9.623e-05
9.0215e-05
0.000109075
0.00011014
0.00011973
0.00013253
0.000125835
0.000132285
0.00015354
0.000150355
0.00013779
0.00017103
0.000177275
0.000211225
0.000330015
0.00032191
0.000212255
0.0002373
0.00027794
0.000257365
0.00027317
0.000290085
0.000300485
0.000315505
0.000325615
0.00034385
0.00035337
0.00037142
0.00038199
0.00040469
0.00041296
0.00046043
0.00045538
0.000413635
0.000476485
0.000482865
0.000505155
0.00051762
0.000531065
0.000552545
0.000567705
0.00058982
0.000599175
0.000625845
0.000635885
0.000660505
0.00067755
0.000695385
0.00070963
0.00081491
0.000734715
0.000537455
0.000587135
0.00063284
0.00068747
0.00074699
0.000868315
0.0008351
0.00069415
0.000734665
0.00078712
0.000837655
0.00090102
0.00100743
0.0010586
0.00108313
0.00120805
0.00132629
0.00135792
0.00139454
0.00145453
0.00152298
0.00159282
0.0016612
0.00178409
0.00195667
0.00209621
0.00220744
0.00229093
0.00235546
0.00241264
0.00245316
0.00249603
0.00254213
0.00258204
0.00262181
0.00266376
0.00270785
0.00274933
0.00278606
0.00282198
0.00285965
0.00289562
0.00293042
0.00296452
0.00299825
0.00303506
0.00307271
0.00310857
0.00314198
0.00317469
0.00320649
0.00323667
0.00326305
0.00328593
0.00330732
0.00332741
0.00334692
0.00336473
0.00338145
0.00339186
0.00339022
0.00337
0.00342963
0.00361173
0.00371113
0.00371662
0.00373452
0.00375938
0.00378954
0.00382113
0.00385568
0.00389199
0.0039309
0.00397112
0.00401226
0.00405372
0.00409559
0.00413773
0.0041798
0.00422153
0.00426304
0.00430406
0.00434495
0.00438525
0.00442496
0.00446414
0.00450301
0.00454152
0.00458005
0.00461831
0.00465631
0.00469401
0.00473097
0.00476773
0.00480402
0.00483977
0.0048754
0.00491063
0.00494556
0.00498027
0.00501469
0.00504898
0.0050832
0.00511722
0.00515142
0.00518572
0.00522029
0.00525548
0.00529153
0.00532885
0.00536695
0.00540688
0.00544662
0.00548983
0.00553062
0.00557692
0.00561795
0.00566435
0.00570231
0.00574022
0.00576651
0.00575934
0.00591752
0.00608344
0.00610538
0.00613868
0.00618285
0.00623059
0.00628068
0.00633229
0.00638518
0.00643916
0.00649377
0.00654906
0.00660442
0.0066602
0.00671535
0.00677057
0.00682492
0.0068788
0.00693164
0.0069838
0.00703457
0.00708436
0.00713256
0.0071796
0.00722514
0.00726934
0.00731255
0.00735472
0.00739619
0.00743705
0.00747761
0.00751766
0.00755806
0.00759839
0.00763957
0.00768128
0.00772394
0.00776702
0.00781055
0.0078539
0.00789768
0.00794153
0.00798574
0.00803029
0.00807533
0.00812091
0.00816722
0.00821402
0.00826173
0.00831011
0.00835911
0.00840868
0.00845859
0.0085085
0.00855838
0.00860786
0.00865701
0.00870559
0.00875347
0.00880081
0.0088475
0.00889346
0.00893892
0.00898383
0.00902815
0.00907213
0.0091156
0.00915882
0.00920173
0.00924425
0.00928658
0.00932863
0.00937029
0.00941176
0.0094529
0.00949359
0.00953402
0.00957391
0.00961344
0.00965247
0.00969089
0.00972884
0.00976622
0.0098029
0.00983918
0.00987482
0.00990965
0.00994351
0.00997602
0.0100069
0.0100357
0.0100614
0.0100834
0.0100999
0.0101064
0.0101068
0.0101069
0.0101069
0.0101069
0.0101069
0.0101069
0.0101069
0.0101069
0.010107
0.010107
0.0101069
0.010107
0.010107
0.010107
0.010107
0.010107
0.0101071
0.0101071
0.010107
0.0101071
0.0101072
0.0101072
0.0101073
0.0101072
0.0101072
0.0101073
0.0101073
0.0101073
0.0101073
0.0101073
0.0101074
0.0101074
0.0101074
0.0101075
0.0101076
0.0101075
0.0101075
0.0101075
0.0101075
0.0101076
0.0101077
0.0101078
0.0101079
0.0101079
0.0101081
0.0101085
0.0101088
0.010109
0.0101093
0.0101095
0.01011
0.0101098
0.0101107
0.0101093
0.0101124
0.0101082
0.0101156
0.0101063
0.0101168
0.0101025
0.0101303
0.0101075
0.00990291
0.0101144
0.0102994
0.0101125
0.0101003
0.0101111
0.0101003
0.0101081
0.0101022
0.010108
0.0101062
0.0101094
0.0101071
0.010112
0.0101049
0.0101172
0.0101001
0.0101488
0.0101166
0.00990846
0.0101162
0.0103014
0.0101268
0.0101004
0.0101142
0.0101002
0.0101098
0.0101087
0.0101111
0.0101118
0.0101115
0.0101135
0.0101109
0.0101158
0.0101099
0.0101189
0.010109
0.0101202
0.0101059
0.0101168
0.0101011
0.0101182
0.0101164
0.0101332
0.0101496
0.0101618
0.0101226
0.00980143
0.00909988
0.00779575
0.0056349
0.00211925
-5e-08
3.46945e-18
1e-100
-5e-08
6.93889e-18
5e-08
3.46945e-18
1e-100
5e-08
3.46945e-18
)
;

boundaryField
{
    inlet
    {
        type            calculated;
        value           uniform 0;
    }
    endWall
    {
        type            calculated;
        value           uniform 0;
    }
    sideWall
    {
        type            empty;
    }
}


// ************************************************************************* //
