/*--------------------------------*- C++ -*----------------------------------*\
| =========                 |                                                 |
| \\      /  F ield         | foam-extend: Open Source CFD                    |
|  \\    /   O peration     | Version:     3.2                                |
|   \\  /    A nd           | Web:         http://www.foam-extend.org         |
|    \\/     M anipulation  | For copyright notice see file Copyright         |
\*---------------------------------------------------------------------------*/
FoamFile
{
    version     2.0;
    format      ascii;
    class       areaScalarField;
    location    "2020";
    object      Href;
}
// * * * * * * * * * * * * * * * * * * * * * * * * * * * * * * * * * * * * * //

dimensions      [0 0 0 0 0 0 0];

internalField   nonuniform List<scalar> 
550
(
1e-100
5e-11
-5e-11
1e-100
-5e-10
1e-100
5e-10
1e-100
1e-100
5e-10
-4.2975e-06
-8.595e-06
-4.298e-06
-3.452e-06
-6.904e-06
-3.4525e-06
-2.4045e-06
-6.93e-06
-8.4685e-06
-7.4375e-06
-5.1685e-06
-3.01e-06
-2.672e-06
-1.3365e-06
-1.0842e-19
1e-100
-8.725e-07
-1.741e-06
-8.75e-07
1e-100
1e-100
-6.8e-07
-2e-06
-2.6e-06
-2.495e-06
-1.825e-06
-1.165e-06
-1.67e-06
-1.655e-06
-1.07e-06
-1.545e-06
-1.53e-06
-9.9e-07
-1.43e-06
-1.875e-06
-1.825e-06
-1.79e-06
-1.75e-06
-1.71e-06
-1.27e-06
-4.25e-07
-3.95e-07
-7.9e-07
-7.85e-07
-7.7e-07
-7.55e-07
-7.35e-07
-1.06e-06
-3.5e-08
-1.41e-06
-3.75e-07
4.75e-07
6.25e-07
5.85e-07
-8.15e-07
-1.96e-06
9.15e-07
2.81e-06
-5.5e-07
-2.605e-06
3.345e-06
8.82e-06
3.66e-06
-2.56e-06
-4.02e-06
1.03e-06
4.62e-06
3.87e-06
6.835e-06
3.875e-06
-2.155e-06
2.275e-06
8.65e-06
9.69e-06
9.33e-06
6.66e-06
1.16e-06
2.785e-06
9.185e-06
8.535e-06
-1.075e-06
3.545e-06
1.722e-05
1.1515e-05
6.655e-06
7.8e-06
1.575e-06
5.485e-06
1.408e-05
8.485e-06
6.75e-07
1.45e-06
5.175e-06
1.02e-05
1.866e-05
1.9855e-05
8.42e-06
2.185e-06
5.875e-06
5.62e-06
1.234e-05
1.49e-05
2.2e-07
2.395e-06
3.227e-05
4.535e-05
5.581e-05
6.5245e-05
6.43e-05
7.261e-05
0.00011108
0.000125045
0.000217805
0.00044005
0.000638
0.000822215
0.000996155
0.00116094
0.00131545
0.001459
0.00159064
0.00170936
0.00181444
0.00190502
0.00197945
0.00204395
0.00208489
0.00209722
0.0021487
0.0022271
0.00228103
0.0023744
0.00250479
0.00262149
0.00273128
0.00283698
0.00293843
0.00303422
0.00312357
0.00320575
0.00328184
0.00335074
0.00341654
0.00347373
0.00353208
0.00357796
0.00363258
0.00366916
0.00370892
0.00372288
0.00372666
0.00371209
0.00368384
0.00364738
0.00359954
0.00354125
0.00345808
0.00333079
0.00313796
0.00281719
0.00256093
0.00256968
0.00256994
0.00255732
0.00255067
0.00254391
0.002544
0.00254567
0.00255357
0.00256302
0.00257775
0.00259374
0.00261404
0.00263525
0.00266009
0.00268548
0.00271385
0.00274251
0.00277364
0.0028051
0.00283867
0.00287248
0.0029083
0.00294502
0.00298293
0.0030218
0.00306129
0.00310139
0.00314182
0.00318256
0.00322356
0.00326481
0.0033062
0.00334754
0.0033889
0.00343031
0.00347165
0.00351298
0.00355437
0.00359572
0.00363699
0.00367803
0.00371898
0.0037597
0.00380016
0.00384051
0.00388053
0.00392013
0.0039595
0.0039986
0.00403743
0.00407609
0.00411434
0.00415241
0.00419033
0.00422833
0.00426596
0.00430382
0.00434128
0.00437907
0.00441626
0.00445362
0.00449037
0.00452718
0.00456325
0.00459944
0.00463499
0.00467045
0.00470552
0.00474055
0.00477534
0.00481009
0.00484459
0.0048794
0.00491365
0.0049481
0.00498191
0.00501594
0.00504918
0.00508273
0.00511528
0.00514816
0.0051799
0.00521198
0.00524278
0.00527397
0.00530373
0.00533378
0.00536213
0.00539068
0.00541779
0.0054454
0.00547132
0.00549758
0.00552206
0.00554699
0.00557022
0.00559383
0.00561563
0.00563797
0.00565829
0.00567923
0.00569792
0.00571668
0.00573342
0.0057499
0.0057645
0.00577814
0.00579087
0.00580174
0.00581295
0.00582175
0.00583148
0.0058385
0.00584737
0.00585366
0.00586145
0.00586686
0.00587337
0.00587787
0.00588324
0.00588695
0.0058914
0.00589415
0.00589764
0.00589986
0.00590254
0.00590421
0.00590625
0.00590746
0.00590903
0.00590969
0.00591081
0.00591138
0.00591221
0.00591268
0.00591349
0.00591389
0.00591472
0.00591539
0.00591666
0.00591793
0.00591971
0.00592171
0.00592447
0.00592748
0.00593135
0.00593566
0.00594068
0.00594632
0.00595257
0.00595946
0.00596717
0.00597534
0.00598424
0.0059937
0.00600373
0.00601446
0.00602597
0.00603797
0.00605073
0.00606405
0.00607828
0.00609321
0.00610886
0.00612546
0.00614294
0.00616121
0.00618055
0.00620087
0.00622213
0.00624455
0.00626799
0.00629265
0.00631854
0.00634552
0.00637383
0.00640341
0.00643425
0.00646664
0.00650053
0.00653629
0.00657451
0.0066145
0.00665611
0.00669898
0.00674293
0.00678804
0.00683409
0.00688097
0.00692882
0.00697747
0.00702681
0.00707699
0.00712774
0.00717926
0.00723139
0.00728396
0.00733718
0.00739089
0.00744491
0.00749937
0.00755412
0.00760897
0.00766406
0.0077192
0.0077745
0.00782984
0.00788509
0.00794034
0.00799543
0.00805024
0.00810492
0.00815934
0.00821341
0.00826724
0.00832065
0.00837385
0.00842673
0.00847923
0.00853146
0.00858336
0.00863486
0.00868616
0.00873717
0.00878781
0.00883822
0.0088882
0.00893796
0.0089874
0.0090364
0.00908521
0.00913372
0.00918171
0.00922954
0.00927713
0.00932421
0.00937104
0.00941744
0.00946355
0.00950928
0.00955461
0.00959974
0.00964443
0.00968857
0.00973257
0.00977631
0.00981958
0.00986259
0.00990516
0.00994754
0.00998962
0.0100311
0.0100725
0.0101137
0.0101544
0.0101949
0.010235
0.0102747
0.0103142
0.0103533
0.0103924
0.0104312
0.0104697
0.0105082
0.0105465
0.0105847
0.010623
0.0106613
0.0106995
0.0107377
0.0107758
0.0108141
0.0108526
0.010891
0.0109296
0.0109684
0.0110074
0.0110467
0.0110863
0.0111261
0.0111663
0.0112065
0.0112469
0.0112875
0.0113282
0.0113692
0.0114104
0.0114516
0.0114931
0.0115348
0.0115765
0.0116184
0.0116605
0.0117027
0.0117452
0.0117878
0.0118308
0.011874
0.0119174
0.0119612
0.0120054
0.0120498
0.0120946
0.0121396
0.012185
0.0122309
0.0122771
0.0123236
0.0123705
0.0124176
0.012465
0.0125128
0.0125607
0.0126091
0.0126576
0.0127066
0.0127559
0.0128053
0.0128552
0.0129053
0.0129557
0.0130066
0.0130578
0.0131093
0.0131612
0.0132135
0.0132665
0.0133198
0.0133733
0.0134274
0.013482
0.0135368
0.0135922
0.013648
0.0137037
0.0137597
0.013816
0.0138727
0.0139299
0.0139875
0.0140455
0.0141039
0.0141627
0.014222
0.0142821
0.0143418
0.0144036
0.0144639
0.0145294
0.0145892
0.0146629
0.0147201
0.0148027
0.0148523
0.0149287
0.0149546
0.0149991
0.0149767
0.0149503
0.0148481
0.0146986
0.0144818
0.0141625
0.0137301
0.0130855
0.0121266
0.0105942
0.00800071
0.0031124
-5e-08
3.46945e-18
1e-100
-5e-08
6.93889e-18
5e-08
3.46945e-18
1e-100
5e-08
3.46945e-18
)
;

boundaryField
{
    inlet
    {
        type            calculated;
        value           uniform 0;
    }
    endWall
    {
        type            calculated;
        value           uniform 0;
    }
    sideWall
    {
        type            empty;
    }
}


// ************************************************************************* //
