/*--------------------------------*- C++ -*----------------------------------*\
| =========                 |                                                 |
| \\      /  F ield         | foam-extend: Open Source CFD                    |
|  \\    /   O peration     | Version:     3.2                                |
|   \\  /    A nd           | Web:         http://www.foam-extend.org         |
|    \\/     M anipulation  | For copyright notice see file Copyright         |
\*---------------------------------------------------------------------------*/
FoamFile
{
    version     2.0;
    format      ascii;
    class       volScalarField;
    location    "2020";
    object      k;
}
// * * * * * * * * * * * * * * * * * * * * * * * * * * * * * * * * * * * * * //

dimensions      [0 2 -2 0 0 0 0];

internalField   nonuniform List<scalar> 
33000
(
0.000163512
0.000225803
0.00030152
0.000389997
0.000489084
0.000595379
0.000704836
0.00081292
0.000915644
0.0010094
0.0010916
0.00116068
0.0012167
0.0012594
0.00128956
0.00130887
0.00131844
0.00131962
0.00131425
0.00130414
0.00129031
0.00127369
0.00125487
0.00123469
0.00121365
0.00119227
0.00117085
0.0011499
0.00112967
0.00111024
0.00109151
0.00107364
0.00105656
0.00104044
0.00102517
0.00101085
0.000997349
0.000984667
0.000972753
0.000961645
0.000951142
0.000941409
0.000932271
0.000923735
0.000915728
0.000908308
0.000901344
0.000895213
0.000888761
0.000883927
0.000878398
0.000874168
0.000868907
0.000865273
0.000860883
0.000857166
0.000853333
0.000849899
0.000846493
0.000843391
0.000840447
0.000837812
0.000835167
0.000832716
0.000830249
0.000827887
0.000825724
0.000823589
0.000821388
0.000819142
0.000816926
0.000815112
0.00081296
0.000811373
0.00080707
0.000812672
0.000816329
0.000805228
0.000803455
0.000800392
0.000798214
0.0007967
0.000794178
0.000792943
0.000790144
0.00078944
0.000788097
0.000786732
0.000785893
0.000785614
0.000783865
0.000782915
0.000782107
0.000781
0.000780406
0.00077938
0.000778503
0.000778074
0.000775285
0.000777764
0.000777762
0.000783525
0.000785434
0.000770626
0.000769475
0.000768269
0.000766962
0.000770186
0.000769234
0.000769771
0.000769608
0.0007688
0.00076863
0.000769001
0.000767184
0.000768572
0.000764893
0.000771402
0.000771317
0.000756204
0.000757637
0.000754946
0.000761249
0.0007626
0.000753938
0.000754591
0.000753987
0.000762442
0.000761904
0.000752415
0.000751545
0.000749481
0.000749231
0.000750309
0.000752713
0.000754582
0.000761679
0.000768178
0.000769432
0.000770951
0.000771782
0.000772939
0.000774234
0.000775518
0.000776836
0.000778073
0.000779296
0.000780383
0.000781422
0.000782306
0.000783116
0.0007838
0.000784405
0.000784853
0.000785301
0.000785475
0.000785866
0.000785695
0.000786089
0.000785431
0.000785757
0.000784908
0.000784882
0.000783955
0.000783396
0.000782486
0.000781063
0.000779728
0.000777401
0.000773824
0.000769331
0.000766669
0.00076354
0.00076152
0.000759208
0.000757669
0.000755989
0.000754832
0.000753734
0.000752944
0.000752342
0.000751939
0.000751688
0.000751575
0.000751572
0.000751666
0.000751835
0.000752073
0.000752363
0.000752702
0.000753074
0.000753479
0.000753906
0.000754357
0.000754817
0.000755292
0.000755765
0.000756246
0.000756717
0.00075719
0.000757649
0.000758105
0.000758544
0.000758979
0.000759394
0.000759803
0.000760194
0.000760579
0.000760945
0.000761307
0.00076165
0.000761989
0.000762312
0.000762631
0.000762936
0.000763241
0.000763532
0.000763826
0.00076411
0.000764399
0.000764682
0.000764972
0.000765261
0.000765559
0.000765862
0.000766179
0.000766506
0.000766849
0.000767206
0.000767579
0.000767966
0.00076837
0.000768788
0.000769223
0.000769669
0.000770134
0.00077061
0.000771103
0.000771609
0.000772131
0.000772668
0.000773219
0.000773787
0.000774371
0.000774969
0.000775572
0.000776188
0.000776798
0.000777425
0.000778033
0.000778675
0.000779269
0.00077993
0.000780495
0.000781187
0.000781711
0.000782449
0.000782936
0.000783724
0.000784193
0.000785015
0.000785487
0.00078631
0.000786788
0.000787561
0.000788046
0.000788711
0.000789206
0.000789692
0.000790202
0.000790442
0.000790969
0.000790911
0.000791439
0.000791079
0.000791552
0.000791021
0.000791288
0.000791036
0.000790939
0.000791539
0.000789302
0.000791398
0.000777295
0.000780899
0.000796311
0.000795254
0.000796886
0.000795679
0.000795619
0.000794595
0.0007943
0.000793486
0.000793191
0.000792548
0.00079227
0.000791754
0.000791441
0.000791015
0.000790765
0.000790401
0.000790174
0.000789858
0.000789627
0.000789352
0.000789121
0.00078888
0.000788656
0.000788447
0.00078824
0.000788066
0.000787882
0.000787746
0.000787591
0.000787494
0.000787375
0.000787321
0.000787243
0.000787233
0.000787196
0.000787228
0.000787232
0.000787305
0.00078735
0.000787457
0.000787537
0.000787673
0.000787784
0.000787947
0.000788093
0.000788275
0.000788469
0.000788703
0.000788996
0.000789314
0.000789683
0.000790074
0.000790507
0.000790961
0.000791451
0.000791961
0.000792501
0.000793061
0.000793648
0.00079425
0.000794873
0.000795509
0.000796162
0.000796824
0.000797501
0.000798182
0.000798888
0.000799542
0.000800267
0.000800838
0.000801571
0.000802045
0.000802787
0.000803143
0.000803818
0.000804206
0.000804494
0.000804602
0.000803735
0.000803462
0.000802697
0.000801915
0.000801089
0.000800287
0.000799498
0.000798737
0.000797993
0.00079727
0.000796571
0.000795887
0.000795229
0.000794577
0.000793941
0.000793308
0.000792714
0.000792075
0.000791644
0.000790948
0.000790602
0.000789732
0.000789575
0.000788458
0.000788551
0.000787194
0.00078735
0.000786017
0.000785524
0.000785221
0.000783121
0.000787971
0.000770421
0.000772518
0.000782672
0.000772733
0.000772694
0.000770292
0.000769311
0.000768941
0.000768096
0.000768585
0.000767914
0.000768751
0.000768073
0.000769085
0.000768376
0.000768887
0.000769296
0.000767926
0.000773557
0.000756362
0.000759023
0.000770339
0.000759755
0.000760047
0.00075785
0.000757052
0.000756897
0.000756345
0.000756808
0.000756618
0.00075722
0.000757283
0.000757837
0.000758024
0.000758488
0.000758709
0.000759047
0.000759256
0.000759482
0.000759661
0.000759829
0.000759959
0.000760058
0.000760118
0.000760152
0.000760154
0.000760133
0.000760088
0.000760023
0.000759938
0.00075983
0.000759706
0.000759574
0.000759431
0.000759277
0.000759109
0.00075893
0.000758748
0.00075856
0.000758363
0.000758173
0.000757978
0.00075778
0.000757581
0.000757383
0.000757188
0.000757042
0.000756823
0.000756759
0.000756452
0.000756529
0.00075602
0.000756331
0.000755451
0.000756038
0.000754707
0.000755252
0.000754496
0.000753524
0.000759123
0.000741053
0.000743614
0.000755824
0.00074542
0.000744607
0.000743054
0.000741311
0.000741292
0.00074021
0.000740449
0.000740038
0.000740324
0.000740317
0.000740548
0.000740643
0.000740786
0.000740899
0.000740997
0.00074106
0.000741094
0.000741076
0.000741022
0.000740928
0.000740797
0.000740629
0.000740421
0.000740184
0.000739907
0.000739595
0.000739241
0.000738855
0.000738446
0.000738007
0.000737534
0.000737033
0.000736502
0.000735955
0.00073537
0.000734785
0.000734128
0.000733577
0.000732807
0.000732331
0.000731359
0.00073106
0.000729793
0.000729784
0.000728071
0.000728348
0.00072628
0.000726586
0.00072421
0.000724248
0.000722099
0.000721692
0.000721069
0.000720665
0.000723111
0.00072605
0.000735391
0.000735244
0.000730894
0.000704825
0.000652875
0.000515874
0.000378729
0.000325047
0.000272819
0.000231467
0.000172256
0.000126488
9.54721e-05
0.000101347
0.000158521
0.00025644
0.000113255
0.000116879
0.000122892
0.000130652
0.000141115
0.000153394
0.000167009
0.000181616
0.000197148
0.000213401
0.000230064
0.000246022
0.000261772
0.000276809
0.000291056
0.000304935
0.000318699
0.000332865
0.000347989
0.000363586
0.000381167
0.000399662
0.00041779
0.000435966
0.00045467
0.000474359
0.000495302
0.000516764
0.000537566
0.000557804
0.000577229
0.00059605
0.000613825
0.000630924
0.000646865
0.000662124
0.000676196
0.000689661
0.000701841
0.000713515
0.000723962
0.000733951
0.000742738
0.000751294
0.000758633
0.000765902
0.000772016
0.000778
0.000783521
0.000788097
0.00079297
0.000796704
0.000800783
0.000803427
0.000806476
0.000808848
0.00081132
0.000813323
0.000815272
0.000816927
0.00081845
0.000819614
0.000820844
0.000821553
0.000822357
0.000822945
0.000823385
0.000823604
0.000823757
0.000823795
0.00082384
0.000823451
0.000823452
0.000822943
0.000822914
0.000819271
0.000815406
0.000820145
0.000818255
0.000817456
0.000816548
0.000815577
0.000815245
0.000814245
0.000814602
0.000813547
0.000812878
0.000812602
0.000811766
0.000810658
0.000810396
0.000809634
0.000808496
0.000807649
0.000806361
0.000805569
0.000804311
0.000803004
0.000802558
0.000799895
0.000797886
0.000793258
0.000788695
0.000795627
0.000791368
0.000788192
0.000786063
0.000781415
0.000780448
0.00077875
0.000777187
0.000776134
0.000774521
0.0007726
0.000771712
0.000769281
0.000768468
0.000762975
0.000759945
0.00076438
0.000759358
0.000757556
0.000753187
0.000750527
0.000753859
0.000750914
0.000749078
0.000742844
0.000741419
0.000743884
0.000741892
0.000741741
0.000741391
0.000740012
0.000739073
0.000738459
0.000735685
0.000733768
0.00073423
0.000734112
0.000734219
0.000733891
0.000733562
0.000733255
0.000733083
0.000732913
0.000732848
0.000732814
0.000732827
0.000732866
0.000732948
0.000733026
0.000733153
0.000733293
0.000733421
0.000733632
0.000733686
0.00073399
0.000733965
0.00073439
0.000734352
0.000734711
0.000734699
0.000734927
0.000734956
0.000735009
0.000735087
0.000734927
0.00073448
0.000734829
0.000735428
0.000735358
0.000735632
0.000735615
0.000735809
0.000735826
0.000735993
0.000736086
0.000736235
0.000736387
0.000736527
0.00073667
0.000736836
0.000736986
0.000737179
0.00073735
0.000737577
0.000737779
0.000738043
0.000738281
0.000738587
0.000738866
0.000739216
0.000739538
0.000739932
0.0007403
0.00074074
0.000741156
0.000741645
0.000742112
0.000742647
0.000743163
0.000743742
0.000744305
0.000744923
0.000745527
0.00074618
0.000746821
0.000747505
0.000748178
0.00074889
0.000749593
0.000750329
0.00075106
0.00075182
0.000752576
0.000753359
0.000754142
0.000754948
0.000755756
0.000756583
0.000757414
0.000758263
0.000759116
0.000759984
0.000760855
0.00076174
0.000762627
0.000763528
0.000764428
0.000765342
0.000766254
0.000767179
0.0007681
0.000769035
0.000769961
0.000770899
0.000771827
0.000772764
0.00077369
0.000774622
0.000775541
0.000776465
0.000777375
0.000778228
0.000779057
0.000779837
0.000780619
0.000781355
0.000782112
0.000782814
0.000783567
0.00078423
0.000785004
0.000785618
0.000786426
0.000786967
0.000787793
0.000788253
0.000789073
0.000789466
0.00079028
0.000790618
0.000791403
0.000791709
0.000792443
0.000792748
0.0007934
0.000793749
0.000794279
0.000794724
0.000795096
0.000795688
0.000795888
0.000796663
0.000796735
0.000797635
0.000797588
0.000798381
0.000798678
0.000798305
0.000799864
0.000792827
0.000802403
0.000803752
0.000794926
0.000798807
0.00079952
0.000801641
0.000802988
0.000804778
0.000806065
0.000807607
0.000808658
0.000809883
0.000810655
0.000811582
0.000812185
0.000812884
0.000813232
0.000813605
0.000813739
0.000813941
0.000813958
0.000814013
0.000813939
0.000813879
0.000813735
0.000813593
0.000813401
0.000813199
0.000812981
0.000812743
0.000812513
0.000812259
0.000812036
0.000811782
0.000811572
0.000811328
0.000811136
0.000810909
0.000810742
0.000810535
0.000810384
0.000810196
0.000810062
0.000809897
0.000809785
0.000809646
0.00080955
0.00080948
0.000809361
0.000809316
0.000809148
0.000809102
0.000808941
0.000808896
0.000808764
0.000808731
0.000808635
0.000808607
0.000808544
0.000808524
0.000808492
0.000808474
0.000808479
0.000808467
0.000808512
0.000808512
0.000808605
0.00080862
0.00080874
0.000808836
0.000808991
0.000809192
0.000809264
0.000809539
0.000809488
0.0008098
0.000809651
0.000809747
0.000809525
0.000809228
0.000809568
0.000809351
0.000809366
0.00080952
0.000809642
0.000809774
0.00080988
0.000809942
0.000810034
0.000810048
0.000810122
0.000810096
0.000810143
0.000810079
0.000810098
0.000809996
0.000809941
0.000809827
0.000809499
0.000809478
0.000809
0.000809154
0.000808469
0.000808874
0.000807779
0.000808479
0.000807042
0.000807849
0.000806775
0.000807034
0.000807644
0.000794993
0.000806009
0.000805224
0.00079661
0.000803605
0.000803104
0.000805305
0.000806793
0.000807889
0.000809563
0.000809881
0.000811518
0.000810978
0.000812156
0.000810958
0.000812123
0.000810914
0.000811205
0.000811724
0.00079717
0.000808435
0.00080798
0.000798273
0.000806568
0.000805804
0.000807797
0.000808956
0.000809822
0.000810883
0.000811171
0.000811843
0.000811749
0.000812005
0.000811641
0.000811501
0.000810942
0.000810515
0.000809878
0.000809304
0.000808678
0.000808056
0.00080741
0.000806721
0.000806053
0.000805354
0.000804679
0.000803996
0.000803339
0.000802685
0.000802059
0.000801444
0.000800871
0.000800304
0.00079976
0.000799213
0.000798699
0.000798182
0.000797712
0.000797213
0.000796765
0.000796301
0.000795871
0.000795419
0.000795021
0.000794597
0.000794236
0.000793852
0.000793458
0.00079317
0.000792738
0.000792635
0.000792015
0.00079214
0.000791185
0.000791652
0.000790128
0.000791259
0.000789346
0.000790608
0.0007904
0.000778281
0.0007902
0.000789596
0.000778675
0.000787628
0.000787184
0.000787925
0.000789272
0.000789428
0.000790439
0.000790427
0.000790961
0.000790645
0.000790495
0.000789973
0.000789489
0.000788879
0.000788174
0.000787423
0.000786566
0.000785676
0.000784751
0.000783798
0.000782846
0.000781864
0.000780911
0.000779922
0.000778946
0.000777931
0.000776926
0.000775894
0.000774874
0.000773792
0.000772741
0.00077162
0.000770542
0.000769391
0.000768258
0.000767068
0.000765884
0.000764683
0.000763353
0.000762268
0.000760794
0.000759898
0.000758203
0.000757597
0.000755534
0.000755437
0.000752914
0.000753287
0.000750455
0.000751354
0.000748653
0.000749891
0.000748126
0.000748993
0.000748728
0.00074885
0.000745712
0.000735008
0.000718901
0.000701641
0.0006789
0.000662314
0.000651157
0.00066861
0.000671728
0.000665293
0.000631252
0.000596876
0.000576534
0.000432095
0.000241168
0.000217994
0.000301724
0.000111179
0.000111686
0.000112846
0.000114216
0.000115769
0.000117406
0.00011914
0.000120908
0.000122794
0.000124662
0.000126608
0.000128484
0.000130255
0.000131891
0.000133436
0.000135019
0.00013666
0.000138423
0.00014035
0.000142456
0.000144894
0.000147723
0.000150955
0.00015467
0.000158895
0.000163808
0.000169466
0.00017595
0.000183432
0.000191716
0.000201503
0.000212077
0.000224444
0.000236932
0.000249822
0.000262779
0.000276162
0.000289491
0.000303222
0.000316754
0.000330627
0.0003442
0.000358004
0.000371496
0.000385139
0.000398462
0.00041143
0.000424375
0.000436518
0.000448813
0.000460255
0.000472108
0.000482832
0.000493869
0.000503644
0.000514051
0.000522911
0.000532455
0.000540469
0.000549211
0.000556523
0.000564653
0.000571447
0.000578917
0.00058513
0.000592007
0.000597464
0.000603536
0.000608477
0.000614089
0.000618517
0.000623472
0.000627484
0.00063198
0.000633247
0.000634914
0.00063805
0.000646583
0.000648694
0.000651352
0.000654477
0.000656829
0.00065963
0.00066158
0.000663851
0.000665303
0.000666552
0.000668071
0.000668861
0.000669904
0.000670782
0.000671682
0.000671909
0.000672569
0.000672576
0.000673124
0.00067295
0.000672998
0.000672416
0.000670455
0.000668347
0.000665732
0.000664784
0.00067108
0.000669467
0.000667569
0.000666441
0.000662194
0.000661504
0.000660127
0.000658902
0.000658408
0.000657259
0.000656406
0.00065626
0.000654864
0.000654394
0.000650558
0.000650408
0.000655043
0.000651337
0.000649615
0.000645514
0.000644261
0.000647598
0.000645533
0.000643725
0.00063967
0.000639626
0.000642944
0.000641102
0.000641002
0.00064026
0.000639682
0.000638239
0.000637557
0.00063363
0.000630257
0.000630869
0.000630558
0.000630562
0.000630296
0.000629996
0.000629747
0.000629429
0.000629223
0.000629007
0.000628891
0.000628865
0.00062891
0.000629071
0.000629266
0.000629554
0.000629881
0.000630261
0.000630705
0.000631123
0.000631702
0.00063217
0.000632917
0.000633466
0.000634129
0.000634672
0.000635221
0.000635892
0.00063624
0.000637223
0.00063763
0.000639155
0.000640465
0.000642481
0.000643121
0.000644443
0.00064511
0.000646234
0.00064699
0.000648058
0.000648897
0.000649895
0.000650779
0.000651702
0.000652565
0.000653471
0.00065433
0.000655242
0.000656111
0.000657036
0.000657924
0.000658868
0.000659778
0.000660747
0.000661685
0.000662681
0.000663649
0.000664678
0.000665684
0.000666752
0.000667799
0.00066891
0.000670005
0.000671163
0.000672307
0.000673513
0.000674706
0.000675957
0.000677195
0.000678488
0.000679767
0.000681096
0.000682411
0.000683773
0.000685123
0.000686513
0.000687892
0.00068931
0.000690718
0.000692163
0.000693601
0.000695074
0.00069654
0.000698039
0.000699532
0.000701056
0.000702576
0.000704119
0.000705658
0.000707218
0.000708773
0.000710346
0.000711912
0.000713494
0.00071507
0.000716659
0.000718243
0.000719835
0.000721421
0.000723011
0.000724594
0.000726175
0.00072775
0.000729316
0.000730876
0.000732421
0.00073396
0.000735467
0.000736959
0.000738409
0.000739848
0.000741237
0.000742624
0.000743949
0.000745293
0.000746547
0.000747858
0.000749035
0.000750325
0.000751411
0.000752681
0.000753669
0.00075491
0.000755795
0.00075698
0.000757786
0.000758896
0.000759646
0.000760664
0.000761386
0.000762288
0.000763018
0.000763778
0.000764565
0.000765163
0.000766056
0.000766502
0.000767536
0.000767887
0.000768912
0.000769332
0.000770324
0.000770908
0.000771191
0.000773245
0.000771007
0.000780003
0.000782894
0.000775641
0.000777952
0.000777753
0.000779126
0.000779807
0.000781052
0.000781849
0.000783014
0.000783845
0.000784916
0.000785738
0.000786738
0.000787519
0.000788382
0.000789054
0.000789761
0.000790319
0.000790863
0.000791323
0.00079176
0.000792138
0.000792482
0.000792788
0.00079305
0.000793291
0.000793483
0.000793672
0.000793812
0.000793964
0.000794072
0.000794203
0.000794294
0.000794417
0.000794502
0.000794624
0.000794709
0.000794837
0.000794927
0.000795058
0.000795151
0.000795282
0.000795376
0.000795507
0.000795599
0.000795739
0.000795832
0.000795995
0.000796132
0.000796251
0.000796347
0.000796418
0.000796474
0.000796514
0.000796547
0.000796561
0.000796568
0.000796559
0.000796544
0.000796515
0.000796484
0.000796443
0.000796404
0.000796359
0.000796321
0.000796269
0.000796245
0.00079616
0.000796144
0.000796024
0.000796022
0.000795934
0.000796001
0.000795822
0.000795922
0.000795624
0.000795519
0.000795271
0.00079496
0.000795268
0.000795135
0.000795196
0.000795226
0.000795286
0.00079537
0.000795469
0.000795572
0.00079568
0.000795791
0.000795899
0.000796009
0.000796105
0.000796198
0.000796278
0.00079636
0.000796415
0.000796503
0.000796434
0.0007965
0.00079631
0.000796464
0.000796075
0.000796464
0.000795746
0.000796428
0.000795425
0.000796206
0.000795475
0.000795671
0.000796176
0.000788948
0.000798746
0.000799075
0.00079124
0.000796673
0.00079626
0.000797796
0.000798684
0.000799228
0.000800364
0.000800637
0.000801755
0.000801634
0.000802728
0.000802117
0.000803447
0.000802791
0.000803271
0.000804003
0.000796124
0.000806199
0.000806891
0.000798278
0.00080521
0.000804382
0.00080564
0.000806186
0.000806451
0.000807114
0.000807174
0.000807697
0.000807735
0.00080806
0.000808064
0.000808208
0.00080813
0.000808122
0.000807987
0.000807912
0.000807771
0.00080759
0.000807383
0.000807094
0.000806804
0.000806463
0.000806124
0.000805766
0.000805411
0.000805054
0.000804699
0.000804349
0.000804012
0.000803686
0.000803365
0.000803036
0.00080271
0.000802372
0.000802052
0.000801703
0.000801371
0.000801021
0.000800681
0.000800318
0.00079999
0.000799649
0.000799357
0.00079907
0.000798786
0.00079855
0.000798241
0.000798138
0.000797728
0.000797766
0.000797089
0.000797449
0.000796294
0.000797358
0.000795785
0.000796883
0.000796595
0.000788389
0.000799181
0.000799979
0.000790562
0.000797928
0.000797184
0.000797084
0.000797473
0.000796722
0.000796894
0.000796309
0.000796121
0.000795514
0.000795014
0.000794325
0.000793711
0.000793037
0.000792291
0.00079152
0.000790666
0.000789784
0.00078887
0.000787932
0.000786971
0.000785982
0.000784973
0.000783939
0.000782871
0.00078177
0.000780634
0.000779466
0.000778275
0.000777022
0.000775746
0.000774412
0.00077306
0.000771657
0.000770223
0.000768754
0.000767249
0.000765746
0.000764155
0.000762677
0.00076097
0.000759583
0.000757716
0.000756609
0.000754461
0.000753886
0.000751392
0.000751251
0.000748589
0.000748934
0.000746461
0.000747079
0.000745314
0.00074529
0.000744137
0.000742886
0.000738269
0.000729996
0.000720237
0.000701391
0.000692754
0.000672712
0.00068185
0.00070025
0.00071435
0.000729058
0.000729495
0.00071845
0.000727515
0.000672051
0.000496302
0.000315979
0.000353925
0.000111018
0.000111234
0.000111823
0.000112499
0.000113209
0.000113898
0.000114472
0.000114851
0.000115058
0.000115189
0.000115225
0.000115186
0.000115082
0.000114909
0.000114675
0.000114396
0.000114082
0.000113749
0.000113408
0.000113037
0.000112673
0.000112325
0.000112002
0.000111719
0.000111496
0.000111379
0.000111381
0.000111547
0.000111899
0.000112481
0.000113347
0.000114517
0.000116047
0.000117916
0.000120124
0.000122706
0.000125678
0.00012903
0.000132792
0.000136967
0.00014161
0.000146718
0.000152471
0.000158657
0.000165714
0.000173136
0.000181168
0.000189504
0.000197642
0.000206537
0.000214875
0.000224498
0.000233359
0.000243431
0.000252594
0.000263127
0.000272379
0.000283068
0.000292398
0.000303114
0.000312438
0.000323164
0.000332451
0.00034299
0.000351879
0.000361819
0.000369971
0.000379259
0.000387109
0.000396132
0.000403702
0.000412191
0.000418949
0.00042669
0.000431252
0.000438423
0.000446414
0.000457274
0.000463352
0.000469387
0.000476417
0.000482312
0.000488275
0.00049338
0.000498184
0.000502414
0.000506209
0.000510174
0.000513595
0.000517261
0.000520479
0.000523746
0.000526288
0.000529345
0.00053159
0.000534239
0.000535954
0.000537963
0.000539413
0.000539835
0.000539313
0.000540498
0.000541805
0.000548305
0.00054886
0.000548978
0.000549475
0.000547783
0.000548381
0.000548706
0.000548967
0.000550066
0.000550527
0.000551485
0.000552539
0.000552992
0.000553702
0.000553542
0.000554031
0.000558948
0.000557285
0.000556764
0.000555008
0.000554474
0.000558125
0.000557322
0.000556887
0.000555189
0.000555723
0.000559224
0.000558876
0.000559379
0.000559393
0.000559628
0.000559195
0.000559246
0.000557283
0.000555551
0.000556146
0.000556147
0.000556426
0.000556615
0.000556749
0.000556956
0.000557119
0.000557368
0.000557626
0.000557955
0.000558371
0.000558852
0.000559431
0.000560057
0.000560771
0.000561526
0.000562345
0.000563222
0.000564119
0.000565117
0.0005661
0.000567248
0.000568361
0.000569463
0.000570676
0.000571655
0.000572984
0.000573802
0.000575382
0.000576276
0.000578209
0.000580028
0.000582211
0.000583571
0.000585353
0.000586742
0.000588434
0.000589881
0.000591541
0.000593055
0.000594675
0.000596229
0.000597815
0.000599371
0.000600965
0.000602532
0.000604145
0.000605734
0.000607369
0.000608985
0.000610644
0.00061229
0.000613976
0.000615651
0.000617365
0.000619071
0.000620817
0.000622559
0.000624342
0.000626123
0.000627948
0.000629774
0.000631646
0.000633518
0.000635435
0.000637353
0.000639314
0.000641275
0.000643276
0.000645274
0.000647308
0.000649336
0.000651397
0.000653454
0.000655539
0.00065762
0.000659727
0.00066183
0.000663958
0.000666086
0.000668237
0.000670388
0.00067256
0.000674735
0.000676928
0.000679124
0.000681333
0.000683545
0.000685767
0.00068799
0.000690221
0.000692453
0.000694688
0.000696923
0.000699158
0.000701397
0.000703629
0.000705864
0.000708086
0.000710312
0.000712517
0.000714727
0.000716906
0.000719092
0.000721237
0.00072339
0.00072549
0.000727591
0.000729627
0.000731665
0.000733626
0.000735595
0.000737475
0.000739374
0.00074116
0.000742997
0.000744681
0.00074646
0.000748032
0.000749759
0.000751213
0.000752885
0.000754217
0.000755823
0.000757039
0.000758546
0.000759665
0.000761059
0.000762105
0.000763363
0.000764367
0.000765467
0.000766473
0.000767402
0.000768462
0.000769248
0.000770362
0.000771069
0.000772171
0.00077288
0.000774
0.000774847
0.000775436
0.00077751
0.000776436
0.0007846
0.000787473
0.00078429
0.000785422
0.00078546
0.000786373
0.000786894
0.000787785
0.000788449
0.000789365
0.000790108
0.000791038
0.000791813
0.000792749
0.000793548
0.000794454
0.000795219
0.000796092
0.000796814
0.000797562
0.000798207
0.00079887
0.000799461
0.000800065
0.000800603
0.000801149
0.000801635
0.000802124
0.000802563
0.000803002
0.000803404
0.00080381
0.000804193
0.000804582
0.000804958
0.00080534
0.000805717
0.000806097
0.000806481
0.000806863
0.000807252
0.00080763
0.000808017
0.000808387
0.000808766
0.00080912
0.000809489
0.000809834
0.000810225
0.000810595
0.000810946
0.00081127
0.000811562
0.000811838
0.000812084
0.000812321
0.000812517
0.000812705
0.000812852
0.000812991
0.000813094
0.000813192
0.000813258
0.000813328
0.000813367
0.00081342
0.000813435
0.000813482
0.000813452
0.000813476
0.000813382
0.000813388
0.000813284
0.000813337
0.000813166
0.00081325
0.000812991
0.000812929
0.000812653
0.0008124
0.000812501
0.000812364
0.000812372
0.000812352
0.000812359
0.000812386
0.000812431
0.00081249
0.00081255
0.000812631
0.0008127
0.000812789
0.000812856
0.000812939
0.000813001
0.000813083
0.000813132
0.000813241
0.000813215
0.000813299
0.000813183
0.000813327
0.000813079
0.000813349
0.000812845
0.00081331
0.000812542
0.00081316
0.000812473
0.000812611
0.000812919
0.000807476
0.00081537
0.000815809
0.000811668
0.000815006
0.000814365
0.000815353
0.000815843
0.000816172
0.000816904
0.000817119
0.000817997
0.000818093
0.000819033
0.000818786
0.000819911
0.000819543
0.000820109
0.000820854
0.000815196
0.000823638
0.000824431
0.00081984
0.000824018
0.000823346
0.000824301
0.000824632
0.00082488
0.00082538
0.000825573
0.000826054
0.000826293
0.000826735
0.000827027
0.000827432
0.000827735
0.000828107
0.000828421
0.000828765
0.000829067
0.00082929
0.000829482
0.000829618
0.000829726
0.000829807
0.000829859
0.000829899
0.000829924
0.000829944
0.000829956
0.000829965
0.00082997
0.000829978
0.000829975
0.000829955
0.000829912
0.000829846
0.000829762
0.000829644
0.000829503
0.000829337
0.000829151
0.00082894
0.000828738
0.000828527
0.000828348
0.00082818
0.000828017
0.000827894
0.000827716
0.000827683
0.000827448
0.000827527
0.000827088
0.000827381
0.000826544
0.000827256
0.000826004
0.000826836
0.000826388
0.000820198
0.000828529
0.000829121
0.000823653
0.000828302
0.00082707
0.000826561
0.000826199
0.000825226
0.0008247
0.000823774
0.000823082
0.000822187
0.00082137
0.000820467
0.000819625
0.000818766
0.00081786
0.000816938
0.000815998
0.000815033
0.00081406
0.000813084
0.000812085
0.000811076
0.000810036
0.000808976
0.000807867
0.000806717
0.000805514
0.000804261
0.000802962
0.000801588
0.000800153
0.00079865
0.000797091
0.000795473
0.000793797
0.000792075
0.000790303
0.000788534
0.000786684
0.0007849
0.000782967
0.000781266
0.000779243
0.000777749
0.000775542
0.000774412
0.00077196
0.000771214
0.000768578
0.000768291
0.000765654
0.000765719
0.000763496
0.000762957
0.000760964
0.000759726
0.000755126
0.00074662
0.000737381
0.000722232
0.000714825
0.000699359
0.000706689
0.000722386
0.00073591
0.000750969
0.000762608
0.000768229
0.000784609
0.000793418
0.000695369
0.000483585
0.000411623
0.000111051
0.000111247
0.000111779
0.000112369
0.000112955
0.000113504
0.00011395
0.000114306
0.000114536
0.000114633
0.000114596
0.000114465
0.000114262
0.00011402
0.000113715
0.000113371
0.000112991
0.000112572
0.000112121
0.000111642
0.000111135
0.000110604
0.000110055
0.000109492
0.000108921
0.000108349
0.000107782
0.000107231
0.000106703
0.00010621
0.000105764
0.000105369
0.000105039
0.000104782
0.000104603
0.000104513
0.000104524
0.000104648
0.000104905
0.000105314
0.000105867
0.000106577
0.000107443
0.000108492
0.000109728
0.000111199
0.000112841
0.000114793
0.000116823
0.000119345
0.000121805
0.000125032
0.000128029
0.000131888
0.000135412
0.00014
0.000144131
0.000149483
0.000154324
0.000160469
0.000166089
0.000173208
0.000179702
0.000187472
0.00019429
0.000202296
0.000209109
0.000216935
0.000223901
0.000232255
0.000239702
0.000247921
0.00025471
0.000262432
0.000269181
0.000277121
0.000285068
0.000296901
0.000305512
0.000313643
0.000322947
0.000331126
0.000339328
0.000346447
0.000353595
0.000360064
0.000366235
0.00037263
0.000378622
0.000384869
0.000390793
0.000396686
0.000402058
0.000407874
0.000412938
0.000418046
0.000422569
0.000427008
0.000431308
0.000434673
0.000437747
0.000441701
0.000445688
0.000453119
0.000455957
0.00045869
0.00046141
0.000462808
0.000465349
0.000467736
0.00047002
0.000472971
0.000475467
0.000478219
0.000480768
0.000482802
0.000485212
0.000486998
0.00048864
0.000493108
0.000493729
0.000495115
0.0004952
0.00049601
0.000499297
0.000500219
0.000501368
0.000501637
0.000503003
0.00050616
0.000507079
0.000508516
0.000509676
0.000511005
0.000511906
0.000513052
0.000512771
0.000512496
0.000513635
0.000514419
0.000515385
0.000516318
0.000517183
0.000518094
0.000518986
0.00051991
0.000520864
0.000521835
0.000522865
0.00052392
0.000525043
0.000526193
0.000527414
0.000528658
0.000529963
0.000531298
0.000532666
0.000534099
0.00053553
0.000537083
0.00053859
0.000540144
0.000541687
0.000543186
0.000544805
0.000546185
0.000548004
0.000549458
0.000551488
0.000553529
0.000555872
0.000557749
0.000559895
0.000561792
0.000563896
0.000565847
0.000567953
0.000569975
0.000572094
0.000574172
0.000576292
0.000578412
0.000580571
0.000582739
0.000584944
0.000587162
0.00058941
0.000591677
0.000593968
0.000596282
0.000598613
0.000600969
0.000603338
0.000605734
0.000608142
0.00061058
0.00061303
0.00061551
0.000618008
0.000620534
0.00062308
0.000625653
0.000628245
0.000630862
0.000633496
0.000636153
0.000638824
0.000641512
0.000644209
0.00064692
0.000649635
0.000652365
0.000655093
0.000657833
0.000660573
0.000663325
0.000666074
0.000668839
0.0006716
0.000674374
0.000677146
0.000679935
0.000682718
0.000685517
0.000688305
0.000691111
0.000693902
0.00069671
0.000699501
0.000702309
0.000705093
0.000707896
0.000710674
0.000713473
0.000716239
0.000719025
0.000721774
0.00072454
0.000727262
0.000730003
0.000732687
0.00073539
0.000738029
0.000740683
0.000743262
0.000745853
0.000748353
0.000750867
0.00075328
0.000755711
0.000758026
0.000760371
0.000762575
0.000764836