/*--------------------------------*- C++ -*----------------------------------*\
| =========                 |                                                 |
| \\      /  F ield         | foam-extend: Open Source CFD                    |
|  \\    /   O peration     | Version:     3.2                                |
|   \\  /    A nd           | Web:         http://www.foam-extend.org         |
|    \\/     M anipulation  | For copyright notice see file Copyright         |
\*---------------------------------------------------------------------------*/
FoamFile
{
    version     2.0;
    format      ascii;
    class       volScalarField;
    location    "2020";
    object      Ktemp;
}
// * * * * * * * * * * * * * * * * * * * * * * * * * * * * * * * * * * * * * //

dimensions      [0 2 -2 0 0 0 0];

internalField   nonuniform List<scalar> 
33000
(
0.000163512
0.000225803
0.00030152
0.000389997
0.000489084
0.000595379
0.000704836
0.00081292
0.000915645
0.0010094
0.0010916
0.00116068
0.0012167
0.0012594
0.00128957
0.00130887
0.00131844
0.00131962
0.00131425
0.00130414
0.00129031
0.0012737
0.00125487
0.00123469
0.00121365
0.00119227
0.00117086
0.00114991
0.00112968
0.00111024
0.00109151
0.00107364
0.00105656
0.00104044
0.00102517
0.00101086
0.000997351
0.000984668
0.000972754
0.000961645
0.000951142
0.000941409
0.00093227
0.000923734
0.000915727
0.000908307
0.000901343
0.000895211
0.000888758
0.00088392
0.000878393
0.000874168
0.000868906
0.000865274
0.000860882
0.000857175
0.000853345
0.000849888
0.000846484
0.000843409
0.000840481
0.000837852
0.000835171
0.000832672
0.000830229
0.000827926
0.000825752
0.000823576
0.000821375
0.000819142
0.000816936
0.00081512
0.000812941
0.000811336
0.000807044
0.000812692
0.000816369
0.000805229
0.000803418
0.000800358
0.000798194
0.000796699
0.0007942
0.000792964
0.000790139
0.000789415
0.000788072
0.000786708
0.000785888
0.000785635
0.000783887
0.000782908
0.000782079
0.000780975
0.000780381
0.000779372
0.000778524
0.00077809
0.000775288
0.000777749
0.000777733
0.000783495
0.000785426
0.000770637
0.000769484
0.000768282
0.000766964
0.000770167
0.000769217
0.00076976
0.000769604
0.000768804
0.000768639
0.00076901
0.000767185
0.000768572
0.000764891
0.000771373
0.000771295
0.00075621
0.000757641
0.000754942
0.00076124
0.000762592
0.000753939
0.000754593
0.000753987
0.000762433
0.000761896
0.000752417
0.000751546
0.00074948
0.000749231
0.000750308
0.000752713
0.000754582
0.000761679
0.000768178
0.000769432
0.000770951
0.000771783
0.00077294
0.000774235
0.00077552
0.000776838
0.000778074
0.000779298
0.000780385
0.000781424
0.000782307
0.000783118
0.000783801
0.000784406
0.000784854
0.000785302
0.000785476
0.000785867
0.000785695
0.00078609
0.000785431
0.000785758
0.000784909
0.000784882
0.000783955
0.000783396
0.000782486
0.000781063
0.000779728
0.000777401
0.000773824
0.000769331
0.000766669
0.00076354
0.000761521
0.000759209
0.000757669
0.00075599
0.000754833
0.000753735
0.000752946
0.000752343
0.000751941
0.000751689
0.000751577
0.000751574
0.000751668
0.000751838
0.000752076
0.000752365
0.000752705
0.000753076
0.000753481
0.000753908
0.000754359
0.00075482
0.000755295
0.000755768
0.000756248
0.000756719
0.000757192
0.000757651
0.000758107
0.000758546
0.00075898
0.000759395
0.000759804
0.000760195
0.000760579
0.000760945
0.000761307
0.00076165
0.000761989
0.000762311
0.000762631
0.000762935
0.00076324
0.000763532
0.000763826
0.00076411
0.000764399
0.000764682
0.000764972
0.000765261
0.000765559
0.000765863
0.00076618
0.000766507
0.00076685
0.000767207
0.000767581
0.000767968
0.000768372
0.00076879
0.000769225
0.000769672
0.000770137
0.000770613
0.000771106
0.000771612
0.000772134
0.000772671
0.000773222
0.000773791
0.000774375
0.000774973
0.000775576
0.000776191
0.000776801
0.000777429
0.000778036
0.000778678
0.000779272
0.000779933
0.000780498
0.00078119
0.000781714
0.000782452
0.000782938
0.000783726
0.000784194
0.000785017
0.000785489
0.000786312
0.000786789
0.000787563
0.000788047
0.000788712
0.000789207
0.000789693
0.000790203
0.000790443
0.00079097
0.000790911
0.00079144
0.000791079
0.000791552
0.000791021
0.000791288
0.000791036
0.000790938
0.000791539
0.000789302
0.000791398
0.000777294
0.000780898
0.00079631
0.000795253
0.000796885
0.000795678
0.000795618
0.000794594
0.000794299
0.000793484
0.000793189
0.000792546
0.000792268
0.000791753
0.000791439
0.000791013
0.000790763
0.000790399
0.000790172
0.000789856
0.000789625
0.00078935
0.000789119
0.000788878
0.000788655
0.000788446
0.000788238
0.000788065
0.000787881
0.000787746
0.000787591
0.000787494
0.000787375
0.000787322
0.000787244
0.000787234
0.000787197
0.000787229
0.000787234
0.000787307
0.000787352
0.000787459
0.000787539
0.000787675
0.000787786
0.00078795
0.000788095
0.000788277
0.000788471
0.000788705
0.000788998
0.000789315
0.000789685
0.000790076
0.000790508
0.000790962
0.000791452
0.000791961
0.000792502
0.000793061
0.000793647
0.00079425
0.000794872
0.000795508
0.000796161
0.000796823
0.000797499
0.00079818
0.000798887
0.00079954
0.000800265
0.000800836
0.00080157
0.000802043
0.000802785
0.000803141
0.000803816
0.000804204
0.000804491
0.0008046
0.000803732
0.000803459
0.000802695
0.000801913
0.000801087
0.000800285
0.000799496
0.000798734
0.000797991
0.000797268
0.000796569
0.000795885
0.000795227
0.000794575
0.000793939
0.000793306
0.000792712
0.000792072
0.000791642
0.000790946
0.0007906
0.00078973
0.000789573
0.000788456
0.000788549
0.000787192
0.000787348
0.000786015
0.000785522
0.000785219
0.000783119
0.000787969
0.000770419
0.000772517
0.000782671
0.000772732
0.000772694
0.000770291
0.00076931
0.000768941
0.000768096
0.000768585
0.000767914
0.000768752
0.000768073
0.000769085
0.000768376
0.000768887
0.000769296
0.000767926
0.000773557
0.000756362
0.000759023
0.00077034
0.000759756
0.000760047
0.000757851
0.000757053
0.000756898
0.000756346
0.000756809
0.000756619
0.000757222
0.000757285
0.000757839
0.000758026
0.00075849
0.000758711
0.000759049
0.000759259
0.000759484
0.000759663
0.000759831
0.000759961
0.00076006
0.00076012
0.000760155
0.000760156
0.000760135
0.00076009
0.000760026
0.00075994
0.000759832
0.000759708
0.000759576
0.000759433
0.000759279
0.00075911
0.000758932
0.000758749
0.000758561
0.000758364
0.000758175
0.000757979
0.000757781
0.000757582
0.000757385
0.000757189
0.000757044
0.000756825
0.000756761
0.000756454
0.000756531
0.000756023
0.000756334
0.000755454
0.00075604
0.000754709
0.000755254
0.000754498
0.000753526
0.000759124
0.000741054
0.000743615
0.000755825
0.000745421
0.000744608
0.000743054
0.000741311
0.000741293
0.00074021
0.000740449
0.000740039
0.000740325
0.000740318
0.00074055
0.000740644
0.000740788
0.0007409
0.000740999
0.000741062
0.000741096
0.000741079
0.000741025
0.000740931
0.0007408
0.000740632
0.000740424
0.000740188
0.000739911
0.000739599
0.000739244
0.000738859
0.000738449
0.000738009
0.000737537
0.000737035
0.000736503
0.000735956
0.000735371
0.000734786
0.000734128
0.000733577
0.000732806
0.00073233
0.000731358
0.00073106
0.000729792
0.000729783
0.00072807
0.000728347
0.000726279
0.000726585
0.000724209
0.000724247
0.000722098
0.000721691
0.000721068
0.000720664
0.00072311
0.00072605
0.000735391
0.000735244
0.000730895
0.000704826
0.000652876
0.000515875
0.00037873
0.000325048
0.000272819
0.000231467
0.000172257
0.000126488
9.54719e-05
0.000101347
0.000158521
0.00025644
0.000113255
0.000116879
0.000122892
0.000130652
0.000141115
0.000153394
0.000167009
0.000181616
0.000197148
0.000213401
0.000230064
0.000246022
0.000261772
0.000276809
0.000291056
0.000304935
0.000318699
0.000332865
0.000347989
0.000363585
0.000381166
0.000399661
0.00041779
0.000435965
0.00045467
0.000474359
0.000495301
0.000516763
0.000537565
0.000557803
0.000577228
0.000596049
0.000613825
0.000630924
0.000646866
0.000662126
0.000676198
0.000689663
0.000701842
0.000713517
0.000723964
0.000733951
0.000742738
0.000751294
0.000758632
0.000765901
0.000772015
0.000778
0.000783521
0.0007881
0.000792976
0.000796708
0.000800784
0.000803424
0.000806475
0.00080885
0.000811317
0.000813304
0.000815273
0.000816943
0.000818447
0.000819592
0.000820799
0.000821535
0.000822396
0.000822994
0.000823368
0.000823574
0.000823767
0.000823822
0.000823847
0.000823438
0.000823437
0.000822951
0.000822944
0.000819309
0.000815396
0.000820034
0.000818242
0.000817482
0.000816597
0.000815607
0.000815234
0.00081421
0.000814547
0.000813541
0.000812911
0.000812635
0.000811781
0.000810661
0.000810367
0.000809601
0.000808498
0.000807663
0.000806382
0.000805595
0.000804311
0.000802951
0.000802513
0.000799889
0.000797895
0.000793278
0.000788725
0.000795631
0.000791353
0.000788183
0.000786054
0.000781422
0.000780469
0.000778773
0.000777197
0.000776136
0.000774511
0.00077258
0.000771699
0.000769276
0.000768474
0.000762973
0.000759967
0.000764406
0.000759339
0.000757542
0.000753184
0.000750533
0.000753862
0.00075091
0.000749067
0.000742839
0.000741425
0.000743892
0.000741887
0.000741735
0.000741389
0.000740012
0.000739073
0.000738459
0.000735685
0.000733768
0.00073423
0.000734112
0.000734219
0.000733891
0.000733563
0.000733256
0.000733083
0.000732914
0.000732848
0.000732816
0.000732828
0.000732867
0.000732949
0.000733027
0.000733154
0.000733295
0.000733423
0.000733634
0.000733688
0.000733992
0.000733967
0.000734391
0.000734353
0.000734712
0.0007347
0.000734928
0.000734956
0.00073501
0.000735088
0.000734927
0.00073448
0.000734828
0.000735428
0.000735357
0.000735632
0.000735614
0.000735809
0.000735826
0.000735992
0.000736086
0.000736235
0.000736386
0.000736527
0.00073667
0.000736836
0.000736986
0.00073718
0.000737351
0.000737578
0.00073778
0.000738044
0.000738282
0.000738588
0.000738867
0.000739217
0.000739539
0.000739933
0.000740301
0.000740741
0.000741157
0.000741646
0.000742113
0.000742648
0.000743164
0.000743743
0.000744306
0.000744924
0.000745527
0.000746181
0.000746821
0.000747505
0.000748178
0.00074889
0.000749593
0.000750329
0.00075106
0.000751819
0.000752576
0.000753358
0.000754142
0.000754947
0.000755755
0.000756582
0.000757413
0.000758262
0.000759116
0.000759984
0.000760855
0.00076174
0.000762627
0.000763528
0.000764428
0.000765342
0.000766254
0.000767179
0.0007681
0.000769035
0.000769962
0.0007709
0.000771828
0.000772765
0.000773691
0.000774623
0.000775543
0.000776467
0.000777376
0.000778229
0.000779058
0.000779839
0.00078062
0.000781356
0.000782113
0.000782815
0.000783568
0.000784231
0.000785005
0.000785619
0.000786426
0.000786967
0.000787794
0.000788253
0.000789073
0.000789466
0.00079028
0.000790617
0.000791403
0.000791708
0.000792442
0.000792747
0.000793399
0.000793748
0.000794278
0.000794723
0.000795095
0.000795686
0.000795887
0.000796661
0.000796734
0.000797634
0.000797586
0.00079838
0.000798677
0.000798304
0.000799863
0.000792825
0.000802401
0.000803751
0.000794925
0.000798805
0.000799518
0.00080164
0.000802987
0.000804777
0.000806063
0.000807606
0.000808657
0.000809882
0.000810653
0.000811581
0.000812184
0.000812883
0.000813231
0.000813605
0.000813739
0.00081394
0.000813957
0.000814012
0.000813938
0.000813878
0.000813734
0.000813592
0.000813401
0.000813199
0.000812981
0.000812743
0.000812513
0.000812259
0.000812037
0.000811783
0.000811573
0.000811329
0.000811138
0.000810911
0.000810745
0.000810538
0.000810386
0.000810199
0.000810065
0.0008099
0.000809788
0.000809649
0.000809553
0.000809483
0.000809364
0.000809319
0.000809151
0.000809104
0.000808943
0.000808898
0.000808766
0.000808732
0.000808636
0.000808608
0.000808545
0.000808525
0.000808493
0.000808474
0.000808479
0.000808467
0.000808511
0.000808511
0.000808604
0.00080862
0.000808739
0.000808835
0.000808989
0.00080919
0.000809262
0.000809537
0.000809485
0.000809797
0.000809649
0.000809744
0.000809523
0.000809226
0.000809565
0.000809348
0.000809363
0.000809517
0.00080964
0.000809771
0.000809877
0.00080994
0.000810032
0.000810045
0.00081012
0.000810094
0.000810141
0.000810077
0.000810097
0.000809994
0.00080994
0.000809825
0.000809498
0.000809477
0.000808998
0.000809152
0.000808467
0.000808873
0.000807777
0.000808477
0.00080704
0.000807847
0.000806773
0.000807032
0.000807642
0.000794991
0.000806007
0.000805223
0.000796609
0.000803604
0.000803104
0.000805305
0.000806794
0.00080789
0.000809564
0.000809882
0.000811519
0.00081098
0.000812157
0.00081096
0.000812124
0.000810915
0.000811206
0.000811725
0.000797171
0.000808436
0.00080798
0.000798273
0.000806568
0.000805804
0.000807797
0.000808957
0.000809822
0.000810884
0.000811172
0.000811845
0.000811752
0.000812008
0.000811643
0.000811504
0.000810945
0.000810518
0.000809881
0.000809307
0.00080868
0.000808058
0.000807413
0.000806723
0.000806055
0.000805356
0.000804681
0.000803997
0.000803341
0.000802687
0.000802061
0.000801445
0.000800872
0.000800304
0.00079976
0.000799214
0.000798699
0.000798182
0.000797711
0.000797213
0.000796765
0.000796301
0.00079587
0.000795418
0.00079502
0.000794596
0.000794235
0.000793852
0.000793459
0.000793171
0.00079274
0.000792637
0.000792017
0.000792143
0.000791188
0.000791655
0.000790131
0.000791262
0.000789349
0.000790611
0.000790402
0.000778282
0.000790201
0.000789597
0.000778675
0.000787627
0.000787183
0.000787924
0.000789271
0.000789426
0.000790438
0.000790425
0.00079096
0.000790644
0.000790494
0.000789973
0.000789489
0.00078888
0.000788175
0.000787424
0.000786568
0.000785678
0.000784753
0.000783801
0.000782849
0.000781868
0.000780914
0.000779926
0.00077895
0.000777935
0.000776929
0.000775897
0.000774877
0.000773795
0.000772744
0.000771621
0.000770543
0.000769391
0.000768258
0.000767067
0.000765884
0.000764682
0.000763352
0.000762266
0.000760793
0.000759896
0.000758202
0.000757596
0.000755532
0.000755435
0.000752912
0.000753286
0.000750454
0.000751352
0.000748652
0.00074989
0.000748124
0.000748991
0.000748727
0.000748849
0.000745711
0.000735008
0.000718901
0.00070164
0.0006789
0.000662314
0.000651158
0.000668612
0.00067173
0.000665295
0.000631253
0.000596877
0.000576534
0.000432095
0.000241168
0.000217993
0.000301723
0.000111179
0.000111686
0.000112846
0.000114216
0.000115769
0.000117406
0.00011914
0.000120908
0.000122794
0.000124662
0.000126608
0.000128484
0.000130255
0.000131891
0.000133436
0.00013502
0.00013666
0.000138423
0.00014035
0.000142455
0.000144894
0.000147722
0.000150955
0.000154669
0.000158894
0.000163808
0.000169465
0.00017595
0.000183432
0.000191715
0.000201502
0.000212076
0.000224443
0.000236931
0.000249822
0.000262779
0.000276163
0.000289493
0.000303224
0.000316756
0.000330629
0.000344202
0.000358006
0.000371497
0.000385139
0.000398463
0.00041143
0.000424375
0.00043652
0.000448816
0.000460258
0.000472108
0.000482829
0.000493866
0.000503644
0.000514053
0.000522908
0.000532443
0.000540462
0.000549207
0.00055651
0.000564638
0.000571434
0.000578915
0.00058516
0.000592026
0.000597444
0.000603522
0.000608492
0.00061411
0.00061852
0.000623455
0.000627477
0.000631991
0.000633261
0.00063492
0.000638023
0.00064651
0.000648668
0.000651374
0.000654513
0.000656862
0.000659628
0.000661553
0.000663813
0.000665296
0.000666571
0.000668103
0.000668885
0.000669912
0.000670763
0.000671648
0.000671896
0.000672579
0.000672604
0.000673148
0.000672945
0.000672966
0.000672385
0.000670448
0.000668352
0.000665737
0.000664801
0.000671082
0.000669449
0.000667554
0.000666425
0.000662195
0.000661521
0.000660144
0.000658912
0.000658406
0.000657256
0.000656398
0.000656258
0.000654863
0.0006544
0.000650562
0.000650431
0.000655071
0.000651334
0.000649607
0.000645511
0.000644266
0.000647601
0.000645532
0.000643721
0.000639669
0.000639632
0.000642952
0.000641103
0.000640999
0.000640259
0.000639682
0.000638239
0.000637557
0.00063363
0.000630257
0.000630869
0.000630558
0.000630563
0.000630296
0.000629997
0.000629747
0.00062943
0.000629224
0.000629008
0.000628892
0.000628866
0.000628911
0.000629072
0.000629267
0.000629556
0.000629883
0.000630262
0.000630707
0.000631125
0.000631703
0.000632171
0.000632918
0.000633468
0.00063413
0.000634673
0.000635222
0.000635893
0.000636241
0.000637224
0.00063763
0.000639155
0.000640465
0.000642481
0.000643121
0.000644442
0.000645109
0.000646233
0.000646989
0.000648058
0.000648896
0.000649894
0.000650778
0.000651701
0.000652564
0.000653471
0.00065433
0.000655241
0.000656111
0.000657036
0.000657924
0.000658868
0.000659778
0.000660747
0.000661685
0.000662681
0.000663649
0.000664678
0.000665684
0.000666752
0.000667799
0.00066891
0.000670005
0.000671164
0.000672307
0.000673513
0.000674706
0.000675957
0.000677195
0.000678488
0.000679767
0.000681096
0.000682411
0.000683773
0.000685122
0.000686512
0.000687891
0.000689309
0.000690716
0.000692162
0.0006936
0.000695072
0.000696539
0.000698037
0.000699531
0.000701055
0.000702574
0.000704118
0.000705657
0.000707217
0.000708772
0.000710345
0.000711912
0.000713494
0.00071507
0.000716659
0.000718244
0.000719836
0.000721422
0.000723012
0.000724595
0.000726176
0.000727751
0.000729317
0.000730878
0.000732423
0.000733961
0.000735469
0.000736961
0.000738411
0.000739849
0.000741238
0.000742626
0.00074395
0.000745294
0.000746547
0.000747859
0.000749035
0.000750325
0.000751411
0.000752681
0.000753669
0.000754909
0.000755794
0.000756979
0.000757785
0.000758895
0.000759644
0.000760663
0.000761384
0.000762285
0.000763016
0.000763776
0.000764562
0.00076516
0.000766053
0.0007665
0.000767533
0.000767885
0.000768909
0.00076933
0.000770321
0.000770906
0.000771188
0.000773243
0.000771005
0.000780001
0.000782892
0.000775639
0.000777951
0.000777751
0.000779124
0.000779805
0.00078105
0.000781848
0.000783012
0.000783843
0.000784914
0.000785736
0.000786736
0.000787517
0.000788381
0.000789053
0.00078976
0.000790318
0.000790862
0.000791322
0.00079176
0.000792138
0.000792482
0.000792788
0.00079305
0.00079329
0.000793483
0.000793672
0.000793813
0.000793965
0.000794072
0.000794204
0.000794296
0.000794419
0.000794504
0.000794627
0.000794713
0.000794841
0.000794931
0.000795063
0.000795155
0.000795287
0.000795381
0.000795512
0.000795604
0.000795744
0.000795837
0.000796
0.000796137
0.000796256
0.000796352
0.000796422
0.000796477
0.000796517
0.00079655
0.000796563
0.00079657
0.00079656
0.000796545
0.000796516
0.000796483
0.000796442
0.000796403
0.000796358
0.00079632
0.000796267
0.000796243
0.000796157
0.000796142
0.000796022
0.000796019
0.000795931
0.000795997
0.000795818
0.000795918
0.00079562
0.000795515
0.000795267
0.000794956
0.000795264
0.000795131
0.000795192
0.000795222
0.000795282
0.000795367
0.000795465
0.000795568
0.000795676
0.000795788
0.000795896
0.000796005
0.000796102
0.000796196
0.000796275
0.000796357
0.000796413
0.000796501
0.000796432
0.000796498
0.000796308
0.000796462
0.000796073
0.000796461
0.000795744
0.000796425
0.000795422
0.000796203
0.000795472
0.000795668
0.000796173
0.000788945
0.000798743
0.000799073
0.000791239
0.000796672
0.000796259
0.000797796
0.000798684
0.000799229
0.000800365
0.000800639
0.000801757
0.000801637
0.000802731
0.00080212
0.000803449
0.000802793
0.000803273
0.000804005
0.000796125
0.000806199
0.000806891
0.000798278
0.00080521
0.000804382
0.000805641
0.000806186
0.000806452
0.000807115
0.000807176
0.0008077
0.000807738
0.000808063
0.000808068
0.000808212
0.000808135
0.000808127
0.000807991
0.000807916
0.000807775
0.000807594
0.000807386
0.000807097
0.000806806
0.000806465
0.000806126
0.000805768
0.000805413
0.000805055
0.000804701
0.00080435
0.000804013
0.000803687
0.000803365
0.000803036
0.00080271
0.000802372
0.000802051
0.000801702
0.000801369
0.00080102
0.000800679
0.000800316
0.000799989
0.000799648
0.000799356
0.00079907
0.000798787
0.000798552
0.000798244
0.000798142
0.000797732
0.000797771
0.000797095
0.000797454
0.000796299
0.000797363
0.000795789
0.000796887
0.000796598
0.000788391
0.000799183
0.00079998
0.000790562
0.000797927
0.000797183
0.000797082
0.000797471
0.00079672
0.000796892
0.000796306
0.000796119
0.000795512
0.000795013
0.000794325
0.000793711
0.000793038
0.000792292
0.000791522
0.000790669
0.000789787
0.000788874
0.000787937
0.000786976
0.000785987
0.000784979
0.000783945
0.000782877
0.000781776
0.000780639
0.00077947
0.000778279
0.000777025
0.000775749
0.000774413
0.000773061
0.000771657
0.000770222
0.000768753
0.000767247
0.000765744
0.000764152
0.000762674
0.000760967
0.00075958
0.000757713
0.000756606
0.000754458
0.000753883
0.00075139
0.000751249
0.000748586
0.000748931
0.000746458
0.000747077
0.000745311
0.000745288
0.000744135
0.000742884
0.000738267
0.000729995
0.000720236
0.00070139
0.000692753
0.000672713
0.000681851
0.000700251
0.000714352
0.000729061
0.000729498
0.000718453
0.000727517
0.000672052
0.000496302
0.000315979
0.000353924
0.000111018
0.000111234
0.000111823
0.000112499
0.000113209
0.000113898
0.000114472
0.000114851
0.000115058
0.000115189
0.000115225
0.000115186
0.000115082
0.000114909
0.000114675
0.000114397
0.000114082
0.000113749
0.000113408
0.000113037
0.000112673
0.000112324
0.000112002
0.000111719
0.000111496
0.000111379
0.000111381
0.000111547
0.000111899
0.000112481
0.000113346
0.000114517
0.000116047
0.000117916
0.000120124
0.000122706
0.000125678
0.000129031
0.000132793
0.000136968
0.000141612
0.00014672
0.000152472
0.000158658
0.000165714
0.000173136
0.000181168
0.000189504
0.000197643
0.000206539
0.000214875
0.000224497
0.000233356
0.000243429
0.000252593
0.000263126
0.000272377
0.000283065
0.000292394
0.000303105
0.000312425
0.000323159
0.00033245
0.000342993
0.000351889
0.000361818
0.00036996
0.000379259
0.000387124
0.000396144
0.000403701
0.000412184
0.000418953
0.0004267
0.000431262
0.000438423
0.000446411
0.000457236
0.00046335
0.000469402
0.00047644
0.000482331
0.000488271
0.000493364
0.000498164
0.000502408
0.000506223
0.000510196
0.000513619
0.000517264
0.000520466
0.00052373
0.000526284
0.000529357
0.000531608
0.00053425
0.000535949
0.000537947
0.000539406
0.000539832
0.000539317
0.000540501
0.000541813
0.000548305
0.000548851
0.000548965
0.000549462
0.00054778
0.000548388
0.000548715
0.000548974
0.000550064
0.000550522
0.000551478
0.000552537
0.000552991
0.000553707
0.000553546
0.000554045
0.000558964
0.000557286
0.00055676
0.000555007
0.000554477
0.000558127
0.000557323
0.000556884
0.000555188
0.000555726
0.000559227
0.000558877
0.000559377
0.000559392
0.000559628
0.000559195
0.000559247
0.000557283
0.000555551
0.000556146
0.000556147
0.000556427
0.000556616
0.00055675
0.000556957
0.00055712
0.000557369
0.000557627
0.000557956
0.000558372
0.000558853
0.000559433
0.000560059
0.000560772
0.000561528
0.000562347
0.000563224
0.000564121
0.000565118
0.000566102
0.00056725
0.000568362
0.000569465
0.000570678
0.000571657
0.000572985
0.000573803
0.000575383
0.000576276
0.000578209
0.000580028
0.000582212
0.000583571
0.000585353
0.000586742
0.000588433
0.00058988
0.000591541
0.000593055
0.000594675
0.000596229
0.000597814
0.000599371
0.000600964
0.000602532
0.000604145
0.000605734
0.000607369
0.000608985
0.000610644
0.00061229
0.000613976
0.000615651
0.000617365
0.000619071
0.000620817
0.000622559
0.000624342
0.000626123
0.000627947
0.000629774
0.000631646
0.000633518
0.000635435
0.000637353
0.000639314
0.000641274
0.000643276
0.000645273
0.000647307
0.000649335
0.000651396
0.000653453
0.000655537
0.000657618
0.000659725
0.000661828
0.000663956
0.000666084
0.000668235
0.000670386
0.000672558
0.000674733
0.000676926
0.000679122
0.000681331
0.000683544
0.000685765
0.000687989
0.00069022
0.000692452
0.000694687
0.000696923
0.000699158
0.000701397
0.000703629
0.000705865
0.000708087
0.000710313
0.000712518
0.000714729
0.000716908
0.000719094
0.00072124
0.000723392
0.000725492
0.000727593
0.000729629
0.000731667
0.000733628
0.000735597
0.000737476
0.000739375
0.000741161
0.000742997
0.000744681
0.000746461
0.000748032
0.000749758
0.000751212
0.000752884
0.000754216
0.000755822
0.000757037
0.000758544
0.000759662
0.000761056
0.000762102
0.00076336
0.000764363
0.000765464
0.00076647
0.000767398
0.000768458
0.000769244
0.000770358
0.000771065
0.000772167
0.000772876
0.000773996
0.000774843
0.000775433
0.000777507
0.000776433
0.000784597
0.00078747
0.000784287
0.000785419
0.000785457
0.00078637
0.000786891
0.000787782
0.000788446
0.000789362
0.000790105
0.000791036
0.000791811
0.000792747
0.000793546
0.000794452
0.000795217
0.000796091
0.000796813
0.000797561
0.000798206
0.00079887
0.00079946
0.000800065
0.000800602
0.000801149
0.000801635
0.000802124
0.000802563
0.000803002
0.000803405
0.000803811
0.000804194
0.000804584
0.00080496
0.000805343
0.000805721
0.000806101
0.000806486
0.000806868
0.000807258
0.000807636
0.000808024
0.000808394
0.000808773
0.000809127
0.000809495
0.000809841
0.000810231
0.000810602
0.000810952
0.000811276
0.000811567
0.000811843
0.000812089
0.000812325
0.00081252
0.000812707
0.000812853
0.000812992
0.000813094
0.000813192
0.000813257
0.000813326
0.000813365
0.000813418
0.000813432
0.000813479
0.000813448
0.000813472
0.000813377
0.000813384
0.000813278
0.000813332
0.00081316
0.000813244
0.000812985
0.000812923
0.000812647
0.000812394
0.000812495
0.000812358
0.000812366
0.000812346
0.000812354
0.000812381
0.000812426
0.000812484
0.000812545
0.000812626
0.000812695
0.000812784
0.000812852
0.000812935
0.000812997
0.000813079
0.000813128
0.000813237
0.000813212
0.000813296
0.00081318
0.000813324
0.000813075
0.000813346
0.000812842
0.000813306
0.000812538
0.000813156
0.000812469
0.000812607
0.000812914
0.000807472
0.000815367
0.000815806
0.000811665
0.000815004
0.000814364
0.000815353
0.000815844
0.000816174
0.000816907
0.000817122
0.000818001
0.000818096
0.000819037
0.00081879
0.000819914
0.000819546
0.000820112
0.000820856
0.000815197
0.000823639
0.000824431
0.000819839
0.000824017
0.000823346
0.000824301
0.000824632
0.00082488
0.000825381
0.000825575
0.000826057
0.000826297
0.00082674
0.000827031
0.000827437
0.000827741
0.000828113
0.000828427
0.000828771
0.000829072
0.000829295
0.000829486
0.000829622
0.000829729
0.00082981
0.000829862
0.000829901
0.000829926
0.000829947
0.000829959
0.000829967
0.000829972
0.00082998
0.000829976
0.000829955
0.000829912
0.000829846
0.000829761
0.000829642
0.000829501
0.000829334
0.000829148
0.000828937
0.000828736
0.000828525
0.000828347
0.00082818
0.000828019
0.000827897
0.000827721
0.000827688
0.000827454
0.000827533
0.000827095
0.000827388
0.000826551
0.000827263
0.00082601
0.000826841
0.000826392
0.000820202
0.000828531
0.000829123
0.000823653
0.000828302
0.000827069
0.00082656
0.000826197
0.000825224
0.000824698
0.000823772
0.00082308
0.000822185
0.000821368
0.000820467
0.000819625
0.000818767
0.000817862
0.000816941
0.000816001
0.000815037
0.000814065
0.00081309
0.000812092
0.000811084
0.000810044
0.000808984
0.000807875
0.000806725
0.000805521
0.000804267
0.000802968
0.000801592
0.000800156
0.000798652
0.000797091
0.000795472
0.000793796
0.000792072
0.000790299
0.00078853
0.00078668
0.000784896
0.000782962
0.000781261
0.000779238
0.000777745
0.000775538
0.000774409
0.000771956
0.000771211
0.000768575
0.000768288
0.000765651
0.000765716
0.000763493
0.000762954
0.000760961
0.000759723
0.000755123
0.000746618
0.000737379
0.000722231
0.000714824
0.00069936
0.00070669
0.000722388
0.000735913
0.000750973
0.000762612
0.000768232
0.000784612
0.000793419
0.000695369
0.000483585
0.000411623
0.000111051
0.000111247
0.000111779
0.000112369
0.000112955
0.000113504
0.00011395
0.000114306
0.000114535
0.000114633
0.000114596
0.000114465
0.000114262
0.00011402
0.000113715
0.000113371
0.000112991
0.000112572
0.000112121
0.000111642
0.000111135
0.000110604
0.000110055
0.000109492
0.000108921
0.000108349
0.000107782
0.000107231
0.000106703
0.00010621
0.000105764
0.000105369
0.000105039
0.000104782
0.000104603
0.000104513
0.000104524
0.000104648
0.000104906
0.000105315
0.000105867
0.000106577
0.000107443
0.000108492
0.000109728
0.000111199
0.000112841
0.000114793
0.000116824
0.000119345
0.000121805
0.000125032
0.000128028
0.000131888
0.000135412
0.000140001
0.00014413
0.000149482
0.000154322
0.000160464
0.000166081
0.000173205
0.000179705
0.000187478
0.000194295
0.00020229
0.000209101
0.000216937
0.000223909
0.000232258
0.000239701
0.000247921
0.00025471
0.00026244
0.000269185
0.000277114
0.000285056
0.000296893
0.000305518
0.000313654
0.000322954
0.000331126
0.000339319
0.000346435
0.000353589
0.000360065
0.000366239
0.000372637
0.000378625
0.000384863
0.000390784
0.000396678
0.000402051
0.00040788
0.000412944
0.000418046
0.000422564
0.000426996
0.000431299
0.000434664
0.000437742
0.0004417
0.00044569
0.000453114
0.00045595
0.000458679
0.000461397
0.0004628
0.00046535
0.000467741
0.000470023
0.00047297
0.000475463
0.000478213
0.000480764
0.000482799
0.00048521
0.000486997
0.000488646
0.000493119
0.00049373
0.000495111
0.000495198
0.000496011
0.000499298
0.000500219
0.000501365
0.000501635
0.000503004
0.000506162
0.00050708
0.000508515
0.000509675
0.000511006
0.000511907
0.000513052
0.000512772
0.000512497
0.000513636
0.00051442
0.000515386
0.000516319
0.000517184
0.000518095
0.000518987
0.000519911
0.000520866
0.000521837
0.000522867
0.000523922
0.000525045
0.000526195
0.000527416
0.00052866
0.000529965
0.0005313
0.000532668
0.000534101
0.000535533
0.000537085
0.000538592
0.000540145
0.000541689
0.000543187
0.000544806
0.000546186
0.000548006
0.00054946
0.000551489
0.000553531
0.000555873
0.00055775
0.000559896
0.000561793
0.000563897
0.000565847
0.000567953
0.000569975
0.000572094
0.000574171
0.000576292
0.000578412
0.000580571
0.000582739
0.000584944
0.000587162
0.00058941
0.000591678
0.000593968
0.000596282
0.000598613
0.000600969
0.000603338
0.000605734
0.000608141
0.000610579
0.00061303
0.000615509
0.000618007
0.000620533
0.000623079
0.000625652
0.000628244
0.000630861
0.000633495
0.000636152
0.000638823
0.000641511
0.000644207
0.000646918
0.000649633
0.000652362
0.00065509
0.00065783
0.00066057
0.000663322
0.000666071
0.000668836
0.000671596
0.000674371
0.000677143
0.000679932
0.000682716
0.000685514
0.000688303
0.000691109
0.0006939
0.000696709
0.0006995
0.000702308
0.000705093
0.000707896
0.000710674
0.000713474
0.00071624
0.000719027
0.000721775
0.000724542
0.000727264
0.000730005
0.00073269
0.000735393
0.000738032
0.000740686
0.000743264
0.000745855
0.000748356
0.000750869
0.000753283
0.000755713
0.000758028
0.000760372