/*--------------------------------*- C++ -*----------------------------------*\
| =========                 |                                                 |
| \\      /  F ield         | foam-extend: Open Source CFD                    |
|  \\    /   O peration     | Version:     3.2                                |
|   \\  /    A nd           | Web:         http://www.foam-extend.org         |
|    \\/     M anipulation  | For copyright notice see file Copyright         |
\*---------------------------------------------------------------------------*/
FoamFile
{
    version     2.0;
    format      ascii;
    class       areaScalarField;
    location    "1790";
    object      kTempA;
}
// * * * * * * * * * * * * * * * * * * * * * * * * * * * * * * * * * * * * * //

dimensions      [0 2 -2 0 0 0 0];

internalField   nonuniform List<scalar> 
550
(
0.000163512
0.000225802
0.000301524
0.000390007
0.000489115
0.000595455
0.000704985
0.000813171
0.000916011
0.00100984
0.00109227
0.00116168
0.00121768
0.00126046
0.00129094
0.00131026
0.00131992
0.00132143
0.00131635
0.00130647
0.0012928
0.00127625
0.00125758
0.00123745
0.00121647
0.00119515
0.00117389
0.00115309
0.001133
0.00111363
0.001095
0.00107716
0.00106016
0.00104401
0.00102874
0.00101435
0.00100082
0.000988152
0.000976308
0.000965258
0.000954959
0.000945366
0.000936427
0.000928093
0.000920312
0.00091304
0.00090624
0.000899881
0.000893934
0.000888379
0.000883191
0.000878347
0.00087382
0.000869578
0.000865585
0.000861811
0.000858223
0.000854801
0.000851531
0.000848407
0.000845426
0.000842589
0.000839892
0.00083733
0.000834892
0.000832561
0.00083032
0.000828152
0.00082604
0.00082398
0.000821964
0.000819998
0.000818091
0.000816257
0.000814506
0.00081285
0.000811287
0.000809815
0.000808415
0.000807071
0.000805755
0.000804438
0.000803086
0.000801678
0.000800197
0.000798645
0.000797031
0.00079538
0.000793721
0.000792091
0.000790523
0.000789051
0.000787685
0.00078643
0.000785273
0.000784205
0.000783197
0.000782232
0.000781273
0.000780302
0.00077929
0.000778233
0.000777117
0.00077595
0.000774733
0.000773477
0.000772198
0.000770897
0.000769528
0.000768419
0.000767058
0.000765714
0.000764275
0.000763009
0.000761468
0.000760196
0.000758821
0.00075732
0.00075578
0.000754302
0.000752697
0.000751475
0.000749812
0.000748323
0.000746903
0.00074538
0.000743913
0.000742554
0.000740817
0.00073926
0.00073769
0.000736286
0.000734732
0.000733079
0.000731487
0.00073019
0.000728655
0.000727028
0.000725639
0.000724317
0.000722774
0.00072119
0.000719653
0.000718209
0.000716754
0.000715366
0.000713935
0.000712569
0.000711008
0.000709466
0.000708035
0.000706697
0.0007051
0.000703684
0.000702219
0.000700829
0.000699397
0.000698086
0.000696818
0.000695441
0.00069414
0.000692713
0.000691287
0.000689988
0.000688764
0.000687523
0.000686212
0.000685005
0.000683803
0.000682712
0.000681579
0.000680431
0.000679199
0.000678124
0.00067697
0.000675975
0.000675129
0.000673744
0.000672678
0.00067186
0.000670565
0.000669539
0.000668717
0.000667575
0.000666596
0.000666446
0.000666009
0.000665022
0.000664253
0.000663181
0.000662324
0.000661703
0.000660694
0.000660231
0.000659661
0.000658401
0.00065781
0.00065739
0.000656339
0.000655556
0.000655552
0.000655567
0.000655315
0.000654838
0.000654232
0.00065356
0.000653071
0.000652554
0.000652097
0.000651793
0.000651295
0.000650928
0.000650346
0.000649629
0.000648804
0.000647698
0.000647351
0.000647309
0.000647728
0.000648438
0.000649303
0.000650355
0.00065164
0.000652503
0.000653088
0.000654148
0.000655269
0.000656165
0.000657081
0.000658214
0.000658565
0.000658201
0.000660444
0.000663721
0.000665556
0.000667108
0.000667397
0.000668215
0.000669974
0.0006712
0.000672113
0.000672899
0.000673578
0.000674192
0.000674747
0.000675257
0.000675698
0.00067608
0.000676432
0.000676757
0.000677062
0.000677347
0.000677623
0.000677895
0.000678181
0.000678471
0.00067875
0.000679013
0.00067926
0.000679487
0.000679692
0.000679856
0.000679986
0.000680083
0.000680161
0.000680217
0.000680253
0.000680243
0.000680193
0.000680079
0.0006799
0.000680461
0.000681437
0.000681944
0.000682224
0.000682425
0.000682583
0.000682739
0.000682894
0.000683074
0.000683273
0.000683502
0.000683741
0.000683994
0.000684243
0.000684497
0.000684744
0.000684987
0.000685218
0.000685442
0.000685649
0.00068585
0.000686027
0.000686202
0.000686342
0.000686499
0.000686613
0.00068677
0.00068688
0.000687044
0.000687168
0.000687328
0.000687467
0.000687619
0.000687774
0.000687913
0.000688083
0.000688215
0.000688398
0.000688538
0.000688732
0.000688892
0.000689098
0.000689279
0.000689497
0.000689699
0.000689931
0.000690157
0.000690406
0.000690682
0.000690982
0.000691334
0.00069169
0.000692098
0.0006925
0.00069293
0.000693415
0.000693763
0.000694295
0.000694461
0.00069493
0.000696156
0.000697194
0.000697661
0.000698461
0.000698856
0.00069957
0.000700204
0.000700309
0.000701431
0.000698261
0.000699968
0.000704632
0.000705092
0.000706231
0.000706819
0.000707568
0.000708241
0.000708946
0.000709636
0.000710327
0.000711003
0.000711672
0.000712325
0.000712969
0.000713595
0.000714212
0.000714816
0.000715412
0.000715995
0.000716574
0.000717143
0.000717713
0.000718283
0.000718858
0.000719439
0.000720044
0.000720618
0.000721279
0.000721803
0.000722533
0.000722982
0.00072384
0.000724138
0.000725185
0.000725352
0.000726552
0.000726784
0.000727817
0.000728232
0.000728254
0.000728713
0.000727387
0.000727768
0.000726592
0.000726277
0.000725517
0.000724934
0.000724288
0.000723681
0.000723084
0.000722517
0.00072197
0.000721443
0.000720942
0.000720421
0.000720001
0.000719435
0.000719103
0.000718429
0.000718229
0.000717441
0.000717374
0.000716527
0.000716257
0.000717584
0.000711611
0.000712171
0.000715969
0.000713036
0.000712486
0.000711943
0.000711035
0.000710684
0.000710055
0.000709628
0.000709127
0.000708666
0.000708216
0.000707781
0.000707337
0.000706889
0.000706425
0.000705929
0.00070544
0.000704949
0.000704446
0.00070394
0.000703418
0.000702882
0.000702329
0.000701766
0.000701194
0.000700618
0.000700039
0.000699458
0.000698876
0.000698294
0.000697713
0.000697134
0.000696559
0.00069599
0.000695426
0.000694868
0.000694317
0.000693774
0.000693238
0.000692713
0.000692198
0.000691692
0.000691198
0.000690715
0.000690244
0.000689782
0.000689331
0.000688891
0.000688461
0.000688034
0.000687617
0.000687204
0.0006868
0.000686399
0.000686008
0.000685622
0.000685244
0.00068487
0.000684508
0.000684147
0.00068379
0.000683434
0.000683083
0.000682737
0.000682393
0.000682043
0.00068171
0.000681336
0.000681043
0.000680604
0.000680369
0.000679791
0.00067968
0.000678917
0.000678945
0.000678054
0.000677793
0.000677227
0.000675363
0.000678824
0.00067401
0.000674573
0.000679066
0.000673676
0.000673151
0.000672165
0.000671012
0.00067075
0.000669807
0.000669654
0.000668959
0.000668839
0.000668126
0.000668126
0.000667186
0.000667222
0.000666117
0.000665081
0.000668195
0.000663282
0.000663853
0.000668015
0.000663339
0.000662192
0.000661359
0.00065996
0.000659524
0.000658718
0.000658204
0.000657696
0.000657072
0.000656803
0.000655995
0.000655937
0.000654885
0.000655037
0.000653755
0.000654005
0.000652538
0.000652673
0.000651156
0.000651039
0.000650313
0.000649999
0.000651125
0.000651882
0.000657639
0.000660159
0.000658316
0.000644183
0.000613754
0.000527987
0.000437661
0.000393432
0.000346556
0.000300502
0.000239379
0.000162257
9.46281e-05
8.64995e-05
0.000139918
0.000227885
)
;

boundaryField
{
    inlet
    {
        type            calculated;
        value           uniform 0;
    }
    endWall
    {
        type            calculated;
        value           uniform 0;
    }
    sideWall
    {
        type            empty;
    }
}


// ************************************************************************* //
