/*--------------------------------*- C++ -*----------------------------------*\
| =========                 |                                                 |
| \\      /  F ield         | foam-extend: Open Source CFD                    |
|  \\    /   O peration     | Version:     3.2                                |
|   \\  /    A nd           | Web:         http://www.foam-extend.org         |
|    \\/     M anipulation  | For copyright notice see file Copyright         |
\*---------------------------------------------------------------------------*/
FoamFile
{
    version     2.0;
    format      ascii;
    class       areaScalarField;
    location    "2020";
    object      kTempA;
}
// * * * * * * * * * * * * * * * * * * * * * * * * * * * * * * * * * * * * * //

dimensions      [0 2 -2 0 0 0 0];

internalField   nonuniform List<scalar> 
550
(
0.000163512
0.000225803
0.00030152
0.000389997
0.000489084
0.000595379
0.000704836
0.00081292
0.000915645
0.0010094
0.0010916
0.00116068
0.0012167
0.0012594
0.00128957
0.00130887
0.00131844
0.00131962
0.00131425
0.00130414
0.00129031
0.0012737
0.00125487
0.00123469
0.00121365
0.00119227
0.00117086
0.00114991
0.00112968
0.00111024
0.00109151
0.00107364
0.00105656
0.00104044
0.00102517
0.00101086
0.000997351
0.000984668
0.000972754
0.000961645
0.000951142
0.000941409
0.00093227
0.000923734
0.000915727
0.000908307
0.000901343
0.000895211
0.000888758
0.00088392
0.000878393
0.000874168
0.000868906
0.000865274
0.000860882
0.000857175
0.000853345
0.000849888
0.000846484
0.000843409
0.000840481
0.000837852
0.000835171
0.000832672
0.000830229
0.000827926
0.000825752
0.000823576
0.000821375
0.000819142
0.000816936
0.00081512
0.000812941
0.000811336
0.000807044
0.000812692
0.000816369
0.000805229
0.000803418
0.000800358
0.000798194
0.000796699
0.0007942
0.000792964
0.000790139
0.000789415
0.000788072
0.000786708
0.000785888
0.000785635
0.000783887
0.000782908
0.000782079
0.000780975
0.000780381
0.000779372
0.000778524
0.00077809
0.000775288
0.000777749
0.000777733
0.000783495
0.000785426
0.000770637
0.000769484
0.000768282
0.000766964
0.000770167
0.000769217
0.00076976
0.000769604
0.000768804
0.000768639
0.00076901
0.000767185
0.000768572
0.000764891
0.000771373
0.000771295
0.00075621
0.000757641
0.000754942
0.00076124
0.000762592
0.000753939
0.000754593
0.000753987
0.000762433
0.000761896
0.000752417
0.000751546
0.00074948
0.000749231
0.000750308
0.000752713
0.000754582
0.000761679
0.000768178
0.000769432
0.000770951
0.000771783
0.00077294
0.000774235
0.00077552
0.000776838
0.000778074
0.000779298
0.000780385
0.000781424
0.000782307
0.000783118
0.000783801
0.000784406
0.000784854
0.000785302
0.000785476
0.000785867
0.000785695
0.00078609
0.000785431
0.000785758
0.000784909
0.000784882
0.000783955
0.000783396
0.000782486
0.000781063
0.000779728
0.000777401
0.000773824
0.000769331
0.000766669
0.00076354
0.000761521
0.000759209
0.000757669
0.00075599
0.000754833
0.000753735
0.000752946
0.000752343
0.000751941
0.000751689
0.000751577
0.000751574
0.000751668
0.000751838
0.000752076
0.000752365
0.000752705
0.000753076
0.000753481
0.000753908
0.000754359
0.00075482
0.000755295
0.000755768
0.000756248
0.000756719
0.000757192
0.000757651
0.000758107
0.000758546
0.00075898
0.000759395
0.000759804
0.000760195
0.000760579
0.000760945
0.000761307
0.00076165
0.000761989
0.000762311
0.000762631
0.000762935
0.00076324
0.000763532
0.000763826
0.00076411
0.000764399
0.000764682
0.000764972
0.000765261
0.000765559
0.000765863
0.00076618
0.000766507
0.00076685
0.000767207
0.000767581
0.000767968
0.000768372
0.00076879
0.000769225
0.000769672
0.000770137
0.000770613
0.000771106
0.000771612
0.000772134
0.000772671
0.000773222
0.000773791
0.000774375
0.000774973
0.000775576
0.000776191
0.000776801
0.000777429
0.000778036
0.000778678
0.000779272
0.000779933
0.000780498
0.00078119
0.000781714
0.000782452
0.000782938
0.000783726
0.000784194
0.000785017
0.000785489
0.000786312
0.000786789
0.000787563
0.000788047
0.000788712
0.000789207
0.000789693
0.000790203
0.000790443
0.00079097
0.000790911
0.00079144
0.000791079
0.000791552
0.000791021
0.000791288
0.000791036
0.000790938
0.000791539
0.000789302
0.000791398
0.000777294
0.000780898
0.00079631
0.000795253
0.000796885
0.000795678
0.000795618
0.000794594
0.000794299
0.000793484
0.000793189
0.000792546
0.000792268
0.000791753
0.000791439
0.000791013
0.000790763
0.000790399
0.000790172
0.000789856
0.000789625
0.00078935
0.000789119
0.000788878
0.000788655
0.000788446
0.000788238
0.000788065
0.000787881
0.000787746
0.000787591
0.000787494
0.000787375
0.000787322
0.000787244
0.000787234
0.000787197
0.000787229
0.000787234
0.000787307
0.000787352
0.000787459
0.000787539
0.000787675
0.000787786
0.00078795
0.000788095
0.000788277
0.000788471
0.000788705
0.000788998
0.000789315
0.000789685
0.000790076
0.000790508
0.000790962
0.000791452
0.000791961
0.000792502
0.000793061
0.000793647
0.00079425
0.000794872
0.000795508
0.000796161
0.000796823
0.000797499
0.00079818
0.000798887
0.00079954
0.000800265
0.000800836
0.00080157
0.000802043
0.000802785
0.000803141
0.000803816
0.000804204
0.000804491
0.0008046
0.000803732
0.000803459
0.000802695
0.000801913
0.000801087
0.000800285
0.000799496
0.000798734
0.000797991
0.000797268
0.000796569
0.000795885
0.000795227
0.000794575
0.000793939
0.000793306
0.000792712
0.000792072
0.000791642
0.000790946
0.0007906
0.00078973
0.000789573
0.000788456
0.000788549
0.000787192
0.000787348
0.000786015
0.000785522
0.000785219
0.000783119
0.000787969
0.000770419
0.000772517
0.000782671
0.000772732
0.000772694
0.000770291
0.00076931
0.000768941
0.000768096
0.000768585
0.000767914
0.000768752
0.000768073
0.000769085
0.000768376
0.000768887
0.000769296
0.000767926
0.000773557
0.000756362
0.000759023
0.00077034
0.000759756
0.000760047
0.000757851
0.000757053
0.000756898
0.000756346
0.000756809
0.000756619
0.000757222
0.000757285
0.000757839
0.000758026
0.00075849
0.000758711
0.000759049
0.000759259
0.000759484
0.000759663
0.000759831
0.000759961
0.00076006
0.00076012
0.000760155
0.000760156
0.000760135
0.00076009
0.000760026
0.00075994
0.000759832
0.000759708
0.000759576
0.000759433
0.000759279
0.00075911
0.000758932
0.000758749
0.000758561
0.000758364
0.000758175
0.000757979
0.000757781
0.000757582
0.000757385
0.000757189
0.000757044
0.000756825
0.000756761
0.000756454
0.000756531
0.000756023
0.000756334
0.000755454
0.00075604
0.000754709
0.000755254
0.000754498
0.000753526
0.000759124
0.000741054
0.000743615
0.000755825
0.000745421
0.000744608
0.000743054
0.000741311
0.000741293
0.00074021
0.000740449
0.000740039
0.000740325
0.000740318
0.00074055
0.000740644
0.000740788
0.0007409
0.000740999
0.000741062
0.000741096
0.000741079
0.000741025
0.000740931
0.0007408
0.000740632
0.000740424
0.000740188
0.000739911
0.000739599
0.000739244
0.000738859
0.000738449
0.000738009
0.000737537
0.000737035
0.000736503
0.000735956
0.000735371
0.000734786
0.000734128
0.000733577
0.000732806
0.00073233
0.000731358
0.00073106
0.000729792
0.000729783
0.00072807
0.000728347
0.000726279
0.000726585
0.000724209
0.000724247
0.000722098
0.000721691
0.000721068
0.000720664
0.00072311
0.00072605
0.000735391
0.000735244
0.000730895
0.000704826
0.000652876
0.000515875
0.00037873
0.000325048
0.000272819
0.000231467
0.000172257
0.000126488
9.54719e-05
0.000101347
0.000158521
0.00025644
)
;

boundaryField
{
    inlet
    {
        type            calculated;
        value           uniform 0;
    }
    endWall
    {
        type            calculated;
        value           uniform 0;
    }
    sideWall
    {
        type            empty;
    }
}


// ************************************************************************* //
