/*--------------------------------*- C++ -*----------------------------------*\
| =========                 |                                                 |
| \\      /  F ield         | foam-extend: Open Source CFD                    |
|  \\    /   O peration     | Version:     3.2                                |
|   \\  /    A nd           | Web:         http://www.foam-extend.org         |
|    \\/     M anipulation  | For copyright notice see file Copyright         |
\*---------------------------------------------------------------------------*/
FoamFile
{
    version     2.0;
    format      ascii;
    class       volVectorField;
    location    "2020";
    object      meshCentreN;
}
// * * * * * * * * * * * * * * * * * * * * * * * * * * * * * * * * * * * * * //

dimensions      [0 1 0 0 0 0 0];

internalField   nonuniform List<vector> 
33000
(
(0.0090909 0.01 0.00248182)
(0.0272727 0.01 0.00244545)
(0.0454546 0.01 0.00240909)
(0.0636364 0.01 0.00237273)
(0.0818182 0.01 0.00233636)
(0.1 0.01 0.0023)
(0.118182 0.01 0.00226364)
(0.136364 0.01 0.00222727)
(0.154546 0.01 0.00219091)
(0.172727 0.01 0.0021544)
(0.190909 0.01 0.00211388)
(0.209091 0.01 0.00207351)
(0.227272 0.01 0.00204104)
(0.245455 0.01 0.00200549)
(0.263636 0.01 0.00196606)
(0.281818 0.01 0.00193283)
(0.3 0.01 0.00189741)
(0.318182 0.01 0.00185681)
(0.336364 0.01 0.00181889)
(0.354546 0.01 0.00178351)
(0.372727 0.01 0.00174937)
(0.390909 0.01 0.00171511)
(0.409091 0.01 0.00167918)
(0.427273 0.01 0.00164412)
(0.445455 0.01 0.00160905)
(0.463636 0.01 0.0015727)
(0.481818 0.01 0.00153549)
(0.5 0.01 0.00149831)
(0.518182 0.01 0.00146276)
(0.536364 0.01 0.00142724)
(0.554545 0.01 0.00139089)
(0.572727 0.01 0.00135385)
(0.590909 0.01 0.0013162)
(0.609091 0.01 0.00127925)
(0.627273 0.01 0.00124297)
(0.645454 0.01 0.00120727)
(0.663636 0.01 0.00117152)
(0.681818 0.01 0.00113471)
(0.7 0.01 0.00109836)
(0.718182 0.01 0.00106253)
(0.736364 0.01 0.00102574)
(0.754545 0.01 0.000989398)
(0.772727 0.01 0.000953525)
(0.790909 0.01 0.00091675)
(0.809091 0.01 0.000879963)
(0.827273 0.01 0.00084362)
(0.845455 0.01 0.000807265)
(0.863636 0.01 0.000772153)
(0.881819 0.01 0.000730189)
(0.899998 0.01 0.00069969)
(0.918184 0.01 0.00066342)
(0.936361 0.01 0.000627297)
(0.954549 0.01 0.000585313)
(0.972723 0.01 0.00055434)
(0.990914 0.01 0.000517829)
(1.00909 0.01 0.000481845)
(1.02727 0.01 0.000446322)
(1.04545 0.01 0.000408582)
(1.06364 0.01 0.000370696)
(1.08182 0.01 0.000336123)
(1.1 0.01 0.000300625)
(1.11817 0.01 0.000264572)
(1.13636 0.01 0.000226603)
(1.15454 0.01 0.000184877)
(1.17273 0.01 0.000146053)
(1.1909 0.01 0.000111441)
(1.20909 0.01 7.45335e-05)
(1.22726 0.01 3.58325e-05)
(1.24546 0.01 -3.15818e-06)
(1.26363 0.01 -3.95618e-05)
(1.28182 0.01 -7.12218e-05)
(1.29999 0.01 -9.80887e-05)
(1.31818 0.01 -0.000116936)
(1.33636 0.01 -0.00014082)
(1.35455 0.01 -0.000117572)
(1.3727 0.01 4.39109e-05)
(1.39093 0.01 -4.47976e-05)
(1.40908 0.01 -0.000340975)
(1.42726 0.01 -0.000379999)
(1.44546 0.01 -0.000402965)
(1.46363 0.01 -0.000438724)
(1.48182 0.01 -0.000469406)
(1.5 0.01 -0.000512374)
(1.51818 0.01 -0.000545437)
(1.53636 0.01 -0.000592678)
(1.55454 0.01 -0.000602108)
(1.57273 0.01 -0.000619664)
(1.59091 0.01 -0.000636799)
(1.60909 0.01 -0.000637661)
(1.62727 0.01 -0.000648559)
(1.64546 0.01 -0.000681987)
(1.66364 0.01 -0.000697113)
(1.68183 0.01 -0.00070617)
(1.7 0.01 -0.000716919)
(1.71818 0.01 -0.00071692)
(1.73636 0.01 -0.000721497)
(1.75455 0.01 -0.000716825)
(1.77273 0.01 -0.000718862)
(1.79091 0.01 -0.000699869)
(1.80908 0.01 -0.000589895)
(1.82728 0.01 -0.000510153)
(1.84543 0.01 -0.000421798)
(1.86367 0.01 -0.000613919)
(1.88182 0.01 -0.000961485)
(1.89999 0.01 -0.000900115)
(1.91819 0.01 -0.000799408)
(1.93636 0.01 -0.000718543)
(1.95455 0.01 -0.000601099)
(1.97273 0.01 -0.000586683)
(1.99091 0.01 -0.000554978)
(2.0091 0.01 -0.000531243)
(2.02727 0.01 -0.000515064)
(2.04546 0.01 -0.000472038)
(2.06364 0.01 -0.000444072)
(2.08182 0.01 -0.000426131)
(2.1 0.01 -0.000379046)
(2.11819 0.01 -0.000333407)
(2.13633 0.01 -0.00017041)
(2.15459 0.01 -0.000336369)
(2.17271 0.01 -0.000585352)
(2.19091 0.01 -0.000398114)
(2.2091 0.01 -0.000209349)
(2.22725 0.01 1.14131e-05)
(2.24548 0.01 -3.08238e-05)
(2.26363 0.01 -0.000170617)
(2.28182 0.01 -2.38532e-05)
(2.3 0.01 0.00018806)
(2.31816 0.01 0.000399906)
(2.33639 0.01 0.000263148)
(2.35453 0.01 7.61728e-05)
(2.37273 0.01 0.000188972)
(2.39091 0.01 0.000325275)
(2.40909 0.01 0.00048903)
(2.42727 0.01 0.000690669)
(2.44546 0.01 0.000915745)
(2.46364 0.01 0.00117683)
(2.48181 0.01 0.00150923)
(2.50001 0.01 0.0017025)
(2.51818 0.01 0.00174429)
(2.53636 0.01 0.0018193)
(2.55454 0.01 0.00191776)
(2.57273 0.01 0.00203266)
(2.59091 0.01 0.00215333)
(2.60909 0.01 0.00227162)
(2.62727 0.01 0.0023872)
(2.64546 0.01 0.00249853)
(2.66364 0.01 0.00260514)
(2.68182 0.01 0.00270597)
(2.7 0.01 0.00280115)
(2.71818 0.01 0.00289041)
(2.73636 0.01 0.00297431)
(2.75455 0.01 0.00305317)
(2.77273 0.01 0.00312668)
(2.79091 0.01 0.00319511)
(2.80909 0.01 0.00325853)
(2.82727 0.01 0.00331661)
(2.84545 0.01 0.00337049)
(2.86364 0.01 0.00341545)
(2.88182 0.01 0.00345794)
(2.9 0.01 0.00348516)
(2.91818 0.01 0.00351743)
(2.93636 0.01 0.0035299)
(2.95454 0.01 0.00354414)
(2.97274 0.01 0.00353804)
(2.9909 0.01 0.00352752)
(3.0091 0.01 0.00349616)
(3.02726 0.01 0.00344503)
(3.04546 0.01 0.00337551)
(3.06363 0.01 0.00327099)
(3.08183 0.01 0.00315065)
(3.09999 0.01 0.0030528)
(3.11818 0.01 0.00300603)
(3.13636 0.01 0.00296229)
(3.15455 0.01 0.00293362)
(3.17273 0.01 0.0029064)
(3.19091 0.01 0.00289102)
(3.20909 0.01 0.00287822)
(3.22727 0.01 0.00287546)
(3.24545 0.01 0.00287741)
(3.26364 0.01 0.00288637)
(3.28182 0.01 0.00290095)
(3.3 0.01 0.00291977)
(3.31818 0.01 0.00294203)
(3.33636 0.01 0.0029671)
(3.35454 0.01 0.00299443)
(3.37273 0.01 0.00302362)
(3.39091 0.01 0.00305424)
(3.40909 0.01 0.00308606)
(3.42727 0.01 0.0031188)
(3.44546 0.01 0.00315227)
(3.46364 0.01 0.00318615)
(3.48182 0.01 0.00322039)
(3.5 0.01 0.00325472)
(3.51818 0.01 0.00328904)
(3.53636 0.01 0.00332305)
(3.55455 0.01 0.00335667)
(3.57273 0.01 0.00338964)
(3.59091 0.01 0.00342201)
(3.60909 0.01 0.0034535)
(3.62727 0.01 0.00348426)
(3.64545 0.01 0.00351405)
(3.66364 0.01 0.00354301)
(3.68182 0.01 0.0035709)
(3.7 0.01 0.00359791)
(3.71818 0.01 0.00362387)
(3.73636 0.01 0.00364895)
(3.75454 0.01 0.00367299)
(3.77273 0.01 0.00369617)
(3.79091 0.01 0.00371833)
(3.80909 0.01 0.00373961)
(3.82727 0.01 0.00375985)
(3.84546 0.01 0.00377922)
(3.86364 0.01 0.0037976)
(3.88182 0.01 0.00381512)
(3.9 0.01 0.00383172)
(3.91818 0.01 0.00384754)
(3.93636 0.01 0.00386247)
(3.95455 0.01 0.00387666)
(3.97273 0.01 0.0038901)
(3.99091 0.01 0.00390291)
(4.00909 0.01 0.00391511)
(4.02727 0.01 0.0039268)
(4.04545 0.01 0.00393803)
(4.06364 0.01 0.00394892)
(4.08182 0.01 0.00395953)
(4.1 0.01 0.00396994)
(4.11818 0.01 0.00398017)
(4.13636 0.01 0.00399025)
(4.15454 0.01 0.0040002)
(4.17273 0.01 0.00400999)
(4.19091 0.01 0.00401965)
(4.20909 0.01 0.00402918)
(4.22727 0.01 0.00403863)
(4.24546 0.01 0.00404798)
(4.26364 0.01 0.00405733)
(4.28182 0.01 0.0040667)
(4.3 0.01 0.00407615)
(4.31818 0.01 0.0040857)
(4.33636 0.01 0.00409543)
(4.35455 0.01 0.00410536)
(4.37273 0.01 0.00411562)
(4.39091 0.01 0.00412615)
(4.40909 0.01 0.00413721)
(4.42727 0.01 0.0041487)
(4.44545 0.01 0.00416078)
(4.46364 0.01 0.00417332)
(4.48182 0.01 0.00418642)
(4.5 0.01 0.00419984)
(4.51818 0.01 0.00421384)
(4.53636 0.01 0.00422806)
(4.55454 0.01 0.00424292)
(4.57273 0.01 0.00425781)
(4.59091 0.01 0.00427352)
(4.60909 0.01 0.00428894)
(4.62727 0.01 0.00430568)
(4.64546 0.01 0.00432164)
(4.66364 0.01 0.00433979)
(4.68182 0.01 0.00435636)
(4.7 0.01 0.0043762)
(4.71818 0.01 0.00439348)
(4.73636 0.01 0.00441488)
(4.75455 0.01 0.00443255)
(4.77273 0.01 0.00445389)
(4.79091 0.01 0.00447077)
(4.80909 0.01 0.0044905)
(4.82727 0.01 0.00450544)
(4.84545 0.01 0.0045219)
(4.86365 0.01 0.00453381)
(4.88181 0.01 0.00454512)
(4.90001 0.01 0.00455293)
(4.91817 0.01 0.00455746)
(4.93636 0.01 0.00456075)
(4.95454 0.01 0.00455763)
(4.97273 0.01 0.00455694)
(4.99091 0.01 0.00454678)
(5.00909 0.01 0.00454434)
(5.02727 0.01 0.00453091)
(5.04545 0.01 0.00453143)
(5.06364 0.01 0.00452372)
(5.08182 0.01 0.00452829)
(5.1 0.01 0.00451766)
(5.11818 0.01 0.00450151)
(5.13636 0.01 0.00445939)
(5.15458 0.01 0.0043327)
(5.17267 0.01 0.00477971)
(5.19094 0.01 0.00525146)
(5.20909 0.01 0.00516853)
(5.22727 0.01 0.00509648)
(5.24545 0.01 0.00504202)
(5.26364 0.01 0.00499872)
(5.28182 0.01 0.00495276)
(5.3 0.01 0.00491247)
(5.31818 0.01 0.00486757)
(5.33636 0.01 0.00482678)
(5.35454 0.01 0.00478236)
(5.37273 0.01 0.00474126)
(5.39091 0.01 0.00469763)
(5.40909 0.01 0.00465614)
(5.42727 0.01 0.00461244)
(5.44545 0.01 0.00457095)
(5.46364 0.01 0.00452872)
(5.48182 0.01 0.0044885)
(5.5 0.01 0.00444841)
(5.51818 0.01 0.00441006)
(5.53636 0.01 0.00437224)
(5.55454 0.01 0.00433591)
(5.57273 0.01 0.00430043)
(5.59091 0.01 0.00426627)
(5.60909 0.01 0.00423326)
(5.62727 0.01 0.00420149)
(5.64546 0.01 0.00417102)
(5.66364 0.01 0.00414169)
(5.68182 0.01 0.00411382)
(5.7 0.01 0.00408696)
(5.71818 0.01 0.00406168)
(5.73636 0.01 0.00403743)
(5.75455 0.01 0.00401481)
(5.77273 0.01 0.00399313)
(5.79091 0.01 0.00397314)
(5.80909 0.01 0.00395404)
(5.82727 0.01 0.00393659)
(5.84545 0.01 0.00392003)
(5.86364 0.01 0.00390517)
(5.88182 0.01 0.00389122)
(5.9 0.01 0.00387891)
(5.91818 0.01 0.00386754)
(5.93636 0.01 0.00385787)
(5.95454 0.01 0.00384928)
(5.97273 0.01 0.00384257)
(5.99091 0.01 0.00383712)
(6.00909 0.01 0.00383378)
(6.02727 0.01 0.00383238)
(6.04546 0.01 0.00383382)
(6.06364 0.01 0.00383786)
(6.08182 0.01 0.00384425)
(6.1 0.01 0.00385289)
(6.11818 0.01 0.00386358)
(6.13636 0.01 0.00387623)
(6.15455 0.01 0.00389077)
(6.17273 0.01 0.00390712)
(6.19091 0.01 0.00392517)
(6.20909 0.01 0.00394483)
(6.22727 0.01 0.003966)
(6.24545 0.01 0.0039886)
(6.26364 0.01 0.00401245)
(6.28182 0.01 0.00403739)
(6.3 0.01 0.00406327)
(6.31818 0.01 0.00409002)
(6.33636 0.01 0.00411747)
(6.35454 0.01 0.00414543)
(6.37273 0.01 0.00417371)
(6.39091 0.01 0.00420213)
(6.40909 0.01 0.00422976)
(6.42727 0.01 0.00425659)
(6.44546 0.01 0.00428094)
(6.46364 0.01 0.00430399)
(6.48182 0.01 0.00432271)
(6.5 0.01 0.00434085)
(6.51818 0.01 0.00435136)
(6.53636 0.01 0.00436223)
(6.55455 0.01 0.00436103)
(6.57273 0.01 0.00435073)
(6.59091 0.01 0.00432404)
(6.60909 0.01 0.00428378)
(6.62727 0.01 0.0042556)
(6.64546 0.01 0.00421948)
(6.66364 0.01 0.00418273)
(6.68182 0.01 0.00414627)
(6.7 0.01 0.00410983)
(6.71818 0.01 0.00407337)
(6.73636 0.01 0.00403707)
(6.75454 0.01 0.00400062)
(6.77273 0.01 0.00396417)
(6.79091 0.01 0.00392777)
(6.80909 0.01 0.00389136)
(6.82727 0.01 0.00385506)
(6.84546 0.01 0.00381858)
(6.86364 0.01 0.00378197)
(6.88182 0.01 0.00374537)
(6.9 0.01 0.00370878)
(6.91818 0.01 0.00367289)
(6.93636 0.01 0.00363833)
(6.95455 0.01 0.00360196)
(6.97273 0.01 0.00356699)
(6.99091 0.01 0.0035289)
(7.00909 0.01 0.00349599)
(7.02727 0.01 0.00345571)
(7.04545 0.01 0.00342675)
(7.06365 0.01 0.00338257)
(7.08181 0.01 0.00335723)
(7.10001 0.01 0.00330788)
(7.11817 0.01 0.00328349)
(7.13637 0.01 0.00323912)
(7.15453 0.01 0.00322667)
(7.17274 0.01 0.00314603)
(7.19094 0.01 0.00282381)
(7.20903 0.01 0.00309156)
(7.22731 0.01 0.00330895)
(7.24545 0.01 0.00302625)
(7.26363 0.01 0.00297303)
(7.28183 0.01 0.00294002)
(7.3 0.01 0.00290038)
(7.31818 0.01 0.00286906)
(7.33636 0.01 0.0028278)
(7.35455 0.01 0.00279837)
(7.37273 0.01 0.00275528)
(7.39091 0.01 0.00272655)
(7.40909 0.01 0.00268277)
(7.42726 0.01 0.00265888)
(7.44546 0.01 0.00261051)
(7.46363 0.01 0.0025942)
(7.48183 0.01 0.00255156)
(7.49998 0.01 0.00254553)
(7.51819 0.01 0.00247455)
(7.53639 0.01 0.00214528)
(7.55448 0.01 0.00242246)
(7.57277 0.01 0.00265366)
(7.59091 0.01 0.00234256)
(7.60908 0.01 0.00228507)
(7.62728 0.01 0.00225339)
(7.64545 0.01 0.00221135)
(7.66365 0.01 0.00217991)
(7.68182 0.01 0.00213738)
(7.7 0.01 0.00210514)
(7.71818 0.01 0.00206408)
(7.73636 0.01 0.00203056)
(7.75454 0.01 0.00199109)
(7.77273 0.01 0.00195641)
(7.79091 0.01 0.00191865)
(7.80909 0.01 0.00188398)
(7.82727 0.01 0.00184743)
(7.84546 0.01 0.00181239)
(7.86364 0.01 0.00177653)
(7.88182 0.01 0.00174121)
(7.9 0.01 0.0017053)
(7.91818 0.01 0.00166975)
(7.93636 0.01 0.0016341)
(7.95455 0.01 0.00159822)
(7.97273 0.01 0.00156213)
(7.99091 0.01 0.0015261)
(8.00909 0.01 0.00148995)
(8.02727 0.01 0.00145384)
(8.04546 0.01 0.00141772)
(8.06364 0.01 0.00138161)
(8.08182 0.01 0.00134542)
(8.1 0.01 0.00130903)
(8.11818 0.01 0.00127265)
(8.13636 0.01 0.00123651)
(8.15455 0.01 0.00120043)
(8.17273 0.01 0.00116422)
(8.19091 0.01 0.00112784)
(8.20909 0.01 0.00109135)
(8.22727 0.01 0.00105505)
(8.24546 0.01 0.00101875)
(8.26364 0.01 0.000982381)
(8.28182 0.01 0.000946299)
(8.3 0.01 0.000910161)
(8.31818 0.01 0.000873738)
(8.33636 0.01 0.000837287)
(8.35455 0.01 0.000800762)
(8.37273 0.01 0.000764476)
(8.39091 0.01 0.000728283)
(8.40909 0.01 0.000691782)
(8.42727 0.01 0.000655597)
(8.44546 0.01 0.000618578)
(8.46364 0.01 0.000583483)
(8.48182 0.01 0.00054498)
(8.5 0.01 0.000512359)
(8.51818 0.01 0.000470116)
(8.53636 0.01 0.000442863)
(8.55455 0.01 0.00039379)
(8.57272 0.01 0.000381021)
(8.59093 0.01 0.000330371)
(8.60907 0.01 0.000346411)
(8.62728 0.01 0.000267619)
(8.64549 0.01 -8.90042e-05)
(8.66358 0.01 0.000212724)
(8.68186 0.01 0.000481111)
(8.7 0.01 0.000145509)
(8.71817 0.01 6.63054e-05)
(8.73637 0.01 4.64273e-05)
(8.75454 0.01 -7.39367e-06)
(8.77273 0.01 -3.44448e-05)
(8.79091 0.01 -8.1047e-05)
(8.80909 0.01 -0.000112232)
(8.82727 0.01 -0.000151599)
(8.84546 0.01 -0.000183857)
(8.86364 0.01 -0.000219414)
(8.88182 0.01 -0.000253775)
(8.9 0.01 -0.00028961)
(8.91818 0.01 -0.000325122)
(8.93636 0.01 -0.000361042)
(8.95455 0.01 -0.000397009)
(8.97273 0.01 -0.000433062)
(8.99091 0.01 -0.000469066)
(9.00909 0.01 -0.000505472)
(9.02727 0.01 -0.000541858)
(9.04546 0.01 -0.000578059)
(9.06364 0.01 -0.000614223)
(9.08182 0.01 -0.000650378)
(9.1 0.01 -0.000686602)
(9.11818 0.01 -0.000722627)
(9.13636 0.01 -0.0007588)
(9.15454 0.01 -0.00079515)
(9.17273 0.01 -0.000831687)
(9.19091 0.01 -0.000868151)
(9.20909 0.01 -0.000904179)
(9.22727 0.01 -0.000940361)
(9.24545 0.01 -0.000976641)
(9.26364 0.01 -0.00101298)
(9.28182 0.01 -0.0010493)
(9.3 0.01 -0.00108535)
(9.31818 0.01 -0.00112163)
(9.33636 0.01 -0.00115815)
(9.35455 0.01 -0.00119459)
(9.37273 0.01 -0.00123068)
(9.39091 0.01 -0.00126734)
(9.40909 0.01 -0.00130265)
(9.42727 0.01 -0.00134047)
(9.44545 0.01 -0.00137357)
(9.46364 0.01 -0.00141352)
(9.48182 0.01 -0.00144332)
(9.50001 0.01 -0.0014884)
(9.51817 0.01 -0.00151261)
(9.53637 0.01 -0.00156241)
(9.55453 0.01 -0.00158544)
(9.57275 0.01 -0.00164006)
(9.59089 0.01 -0.00165968)
(9.60911 0.01 -0.00170917)
(9.62725 0.01 -0.00172198)
(9.64548 0.01 -0.00175039)
(9.66361 0.01 -0.00176725)
(9.68185 0.01 -0.00177377)
(9.69997 0.01 -0.00180226)
(9.7182 0.01 -0.00199649)
(9.73634 0.01 -0.00267071)
(9.75456 0.01 -0.00390945)
(9.77273 0.01 -0.00603907)
(9.79093 0.01 -0.00928969)
(9.80922 0.01 -0.0141088)
(9.82712 0.01 -0.0170227)
(9.84546 0.01 -0.0171917)
(9.86364 0.01 -0.0172264)
(9.88182 0.01 -0.0172633)
(9.9 0.01 -0.0172998)
(9.91818 0.01 -0.0173363)
(9.93636 0.01 -0.0173726)
(9.95454 0.01 -0.0174091)
(9.97273 0.01 -0.0174454)
(9.99091 0.01 -0.0174818)
(0.0090909 0.01 0.00748182)
(0.0272727 0.01 0.00744545)
(0.0454545 0.01 0.00740909)
(0.0636364 0.01 0.00737273)
(0.0818182 0.01 0.00733636)
(0.1 0.01 0.0073)
(0.118182 0.01 0.00726363)
(0.136364 0.01 0.00722726)
(0.154545 0.01 0.00719089)
(0.172727 0.01 0.00715409)
(0.190909 0.01 0.0071139)
(0.209091 0.01 0.00707415)
(0.227272 0.01 0.00704081)
(0.245455 0.01 0.00700519)
(0.263636 0.01 0.00696654)
(0.281818 0.01 0.00693265)
(0.3 0.01 0.00689699)
(0.318182 0.01 0.00685702)
(0.336364 0.01 0.0068191)
(0.354546 0.01 0.00678362)
(0.372727 0.01 0.00674937)
(0.390909 0.01 0.00671497)
(0.409091 0.01 0.00667924)
(0.427273 0.01 0.00664411)
(0.445455 0.01 0.00660894)
(0.463636 0.01 0.00657263)
(0.481818 0.01 0.00653549)
(0.5 0.01 0.00649844)
(0.518182 0.01 0.00646276)
(0.536364 0.01 0.00642717)
(0.554545 0.01 0.00639083)
(0.572727 0.01 0.0063538)
(0.590909 0.01 0.00631626)
(0.609091 0.01 0.00627931)
(0.627273 0.01 0.00624302)
(0.645454 0.01 0.00620726)
(0.663636 0.01 0.00617144)
(0.681818 0.01 0.00613474)
(0.7 0.01 0.0060984)
(0.718182 0.01 0.00606245)
(0.736364 0.01 0.00602578)
(0.754545 0.01 0.00598944)
(0.772727 0.01 0.00595345)
(0.790909 0.01 0.00591675)
(0.809091 0.01 0.00588)
(0.827273 0.01 0.00584361)
(0.845455 0.01 0.00580736)
(0.863636 0.01 0.00577161)
(0.881819 0.01 0.00573108)
(0.899998 0.01 0.00569921)
(0.918184 0.01 0.00566337)
(0.936361 0.01 0.00562677)
(0.954549 0.01 0.00558614)
(0.972723 0.01 0.00555389)
(0.990913 0.01 0.00551785)
(1.00909 0.01 0.00548186)
(1.02727 0.01 0.00544608)
(1.04545 0.01 0.00540837)
(1.06364 0.01 0.00537042)
(1.08182 0.01 0.00533493)
(1.1 0.01 0.00529844)
(1.11817 0.01 0.00526051)
(1.13636 0.01 0.00521993)
(1.15454 0.01 0.00517573)
(1.17273 0.01 0.00513368)
(1.1909 0.01 0.00509549)
(1.20909 0.01 0.00505649)
(1.22727 0.01 0.00501691)
(1.24546 0.01 0.00497729)
(1.26364 0.01 0.00493962)
(1.28182 0.01 0.00490625)
(1.3 0.01 0.00487778)
(1.31818 0.01 0.00485555)
(1.33636 0.01 0.00483308)
(1.35455 0.01 0.00485834)
(1.3727 0.01 0.00498149)
(1.39093 0.01 0.00488477)
(1.40908 0.01 0.00461136)
(1.42726 0.01 0.00454412)
(1.44546 0.01 0.00451128)
(1.46363 0.01 0.00446638)
(1.48182 0.01 0.00442433)
(1.5 0.01 0.00437703)
(1.51818 0.01 0.00433951)
(1.53636 0.01 0.00429511)
(1.55454 0.01 0.00428309)
(1.57273 0.01 0.00426832)
(1.59091 0.01 0.00425494)
(1.60909 0.01 0.00425538)
(1.62727 0.01 0.00424703)
(1.64546 0.01 0.00422024)
(1.66364 0.01 0.00420768)
(1.68182 0.01 0.0042013)
(1.7 0.01 0.00419462)
(1.71818 0.01 0.00419661)
(1.73636 0.01 0.00419619)
(1.75455 0.01 0.00420292)
(1.77273 0.01 0.00420723)
(1.79091 0.01 0.00423592)
(1.80908 0.01 0.00433904)
(1.82728 0.01 0.00442193)
(1.84543 0.01 0.0044891)
(1.86367 0.01 0.0043064)
(1.88182 0.01 0.00400197)
(1.89999 0.01 0.00403734)
(1.91819 0.01 0.00413468)
(1.93635 0.01 0.00422489)
(1.95455 0.01 0.00433903)
(1.97274 0.01 0.00436688)
(1.99091 0.01 0.00439996)
(2.00909 0.01 0.00442583)
(2.02727 0.01 0.00444604)
(2.04545 0.01 0.00448585)
(2.06364 0.01 0.00451305)
(2.08182 0.01 0.00453363)
(2.1 0.01 0.00457927)
(2.11819 0.01 0.00463562)
(2.13633 0.01 0.00476459)
(2.15459 0.01 0.00461843)
(2.17272 0.01 0.00441516)
(2.19091 0.01 0.00457408)
(2.2091 0.01 0.00477208)
(2.22725 0.01 0.00498022)
(2.24548 0.01 0.00495761)
(2.26363 0.01 0.0048511)
(2.28182 0.01 0.00498173)
(2.3 0.01 0.00518762)
(2.31816 0.01 0.00537172)
(2.33639 0.01 0.00525874)
(2.35453 0.01 0.00509995)
(2.37273 0.01 0.00519141)
(2.39091 0.01 0.00532812)
(2.40909 0.01 0.0054927)
(2.42727 0.01 0.00569321)
(2.44546 0.01 0.00591916)
(2.46364 0.01 0.00618283)
(2.48181 0.01 0.00649828)
(2.50001 0.01 0.00669013)
(2.51818 0.01 0.00674641)
(2.53636 0.01 0.00682103)
(2.55454 0.01 0.00691912)
(2.57273 0.01 0.00703319)
(2.59091 0.01 0.00715317)
(2.60909 0.01 0.00727138)
(2.62727 0.01 0.00738681)
(2.64546 0.01 0.00749808)
(2.66364 0.01 0.00760459)
(2.68182 0.01 0.0077054)
(2.7 0.01 0.00780054)
(2.71818 0.01 0.00788983)
(2.73636 0.01 0.00797375)
(2.75455 0.01 0.00805258)
(2.77273 0.01 0.0081261)
(2.79091 0.01 0.00819453)
(2.80909 0.01 0.00825791)
(2.82727 0.01 0.00831608)
(2.84545 0.01 0.00836957)
(2.86364 0.01 0.00841503)
(2.88182 0.01 0.00845649)
(2.9 0.01 0.0084853)
(2.91818 0.01 0.00851561)
(2.93636 0.01 0.00852975)
(2.95454 0.01 0.00854225)
(2.97274 0.01 0.00853737)
(2.9909 0.01 0.00852555)
(3.0091 0.01 0.00849425)
(3.02726 0.01 0.00844325)
(3.04546 0.01 0.00837249)
(3.06363 0.01 0.00826968)
(3.08183 0.01 0.00815257)
(3.09999 0.01 0.00805705)
(3.11818 0.01 0.00800643)
(3.13636 0.01 0.00796358)
(3.15455 0.01 0.00793377)
(3.17273 0.01 0.00790735)
(3.19091 0.01 0.00789123)
(3.20909 0.01 0.00787901)
(3.22727 0.01 0.00787582)
(3.24545 0.01 0.00787794)
(3.26364 0.01 0.00788678)
(3.28182 0.01 0.00790124)
(3.3 0.01 0.00791998)
(3.31818 0.01 0.00794218)
(3.33636 0.01 0.0079672)
(3.35454 0.01 0.00799449)
(3.37273 0.01 0.00802364)
(3.39091 0.01 0.00805423)
(3.40909 0.01 0.00808603)
(3.42727 0.01 0.00811873)
(3.44546 0.01 0.00815218)
(3.46364 0.01 0.00818605)
(3.48182 0.01 0.00822027)
(3.5 0.01 0.00825459)
(3.51818 0.01 0.00828888)
(3.53636 0.01 0.00832287)
(3.55455 0.01 0.00835647)
(3.57273 0.01 0.00838945)
(3.59091 0.01 0.00842178)
(3.60909 0.01 0.00845329)
(3.62727 0.01 0.00848402)
(3.64545 0.01 0.00851383)
(3.66364 0.01 0.00854277)
(3.68182 0.01 0.00857067)
(3.7 0.01 0.00859766)
(3.71818 0.01 0.00862363)
(3.73636 0.01 0.0086487)
(3.75454 0.01 0.00867276)
(3.77273 0.01 0.00869592)
(3.79091 0.01 0.00871809)
(3.80909 0.01 0.00873935)
(3.82727 0.01 0.00875961)
(3.84546 0.01 0.00877897)
(3.86364 0.01 0.00879736)
(3.88182 0.01 0.00881487)
(3.9 0.01 0.00883148)
(3.91818 0.01 0.00884729)
(3.93636 0.01 0.00886223)
(3.95455 0.01 0.00887642)
(3.97273 0.01 0.00888987)
(3.99091 0.01 0.00890268)
(4.00909 0.01 0.00891489)
(4.02727 0.01 0.00892659)
(4.04545 0.01 0.00893782)
(4.06364 0.01 0.00894872)
(4.08182 0.01 0.00895934)
(4.1 0.01 0.00896974)
(4.11818 0.01 0.00897998)
(4.13636 0.01 0.00899005)
(4.15454 0.01 0.009)
(4.17273 0.01 0.0090098)
(4.19091 0.01 0.00901946)
(4.20909 0.01 0.009029)
(4.22727 0.01 0.00903844)
(4.24546 0.01 0.00904779)
(4.26364 0.01 0.00905715)
(4.28182 0.01 0.00906653)
(4.3 0.01 0.00907598)
(4.31818 0.01 0.00908554)
(4.33636 0.01 0.00909527)
(4.35455 0.01 0.00910521)
(4.37273 0.01 0.00911546)
(4.39091 0.01 0.00912601)
(4.40909 0.01 0.00913706)
(4.42727 0.01 0.00914857)
(4.44545 0.01 0.00916064)
(4.46364 0.01 0.00917318)
(4.48182 0.01 0.00918626)
(4.5 0.01 0.00919971)
(4.51818 0.01 0.00921368)
(4.53636 0.01 0.00922793)
(4.55454 0.01 0.00924274)
(4.57273 0.01 0.00925769)
(4.59091 0.01 0.00927331)
(4.60909 0.01 0.00928886)
(4.62727 0.01 0.00930543)
(4.64546 0.01 0.00932162)
(4.66364 0.01 0.00933948)
(4.68182 0.01 0.00935643)
(4.7 0.01 0.0093758)
(4.71818 0.01 0.00939361)
(4.73636 0.01 0.00941439)
(4.75455 0.01 0.00943264)
(4.77273 0.01 0.00945334)
(4.79091 0.01 0.00947079)
(4.80909 0.01 0.00948991)
(4.82727 0.01 0.00950534)
(4.84545 0.01 0.00952132)
(4.86364 0.01 0.00953354)
(4.88182 0.01 0.00954462)
(4.9 0.01 0.00955244)
(4.91818 0.01 0.00955713)
(4.93636 0.01 0.00956)
(4.95454 0.01 0.00955759)
(4.97273 0.01 0.00955597)
(4.99091 0.01 0.00954717)
(5.00909 0.01 0.00954327)
(5.02727 0.01 0.0095318)
(5.04545 0.01 0.00953058)
(5.06364 0.01 0.00952448)
(5.08182 0.01 0.00952689)
(5.1 0.01 0.00951705)
(5.11818 0.01 0.00949978)
(5.13636 0.01 0.00945372)
(5.15457 0.01 0.00938119)
(5.17267 0.01 0.00978584)
(5.19094 0.01 0.0102092)
(5.20909 0.01 0.0101679)
(5.22727 0.01 0.010097)
(5.24545 0.01 0.0100425)
(5.26364 0.01 0.00999823)
(5.28182 0.01 0.00995297)
(5.3 0.01 0.00991187)
(5.31818 0.01 0.00986766)
(5.33636 0.01 0.00982628)
(5.35454 0.01 0.0097824)
(5.37273 0.01 0.00974083)
(5.39091 0.01 0.00969757)
(5.40909 0.01 0.00965573)
(5.42727 0.01 0.0096124)
(5.44545 0.01 0.00957067)
(5.46364 0.01 0.00952866)
(5.48182 0.01 0.00948829)
(5.5 0.01 0.00944833)
(5.51818 0.01 0.00940989)
(5.53636 0.01 0.00937215)
(5.55454 0.01 0.00933578)
(5.57273 0.01 0.00930034)
(5.59091 0.01 0.00926615)
(5.60909 0.01 0.00923316)
(5.62727 0.01 0.0092014)
(5.64546 0.01 0.00917092)
(5.66364 0.01 0.00914161)
(5.68182 0.01 0.0091137)
(5.7 0.01 0.00908687)
(5.71818 0.01 0.00906154)
(5.73636 0.01 0.00903734)
(5.75455 0.01 0.00901467)
(5.77273 0.01 0.00899304)
(5.79091 0.01 0.00897299)
(5.80909 0.01 0.00895396)
(5.82727 0.01 0.00893644)
(5.84545 0.01 0.00891993)
(5.86364 0.01 0.00890502)
(5.88182 0.01 0.00889113)
(5.9 0.01 0.00887878)
(5.91818 0.01 0.00886746)
(5.93636 0.01 0.00885774)
(5.95454 0.01 0.00884922)
(5.97273 0.01 0.00884247)
(5.99091 0.01 0.00883708)
(6.00909 0.01 0.00883372)
(6.02727 0.01 0.0088324)
(6.04546 0.01 0.00883383)
(6.06364 0.01 0.00883784)
(6.08182 0.01 0.00884421)
(6.1 0.01 0.00885284)
(6.11818 0.01 0.00886352)
(6.13636 0.01 0.00887616)
(6.15455 0.01 0.00889069)
(6.17273 0.01 0.00890703)
(6.19091 0.01 0.00892506)
(6.20909 0.01 0.00894471)
(6.22727 0.01 0.00896587)
(6.24545 0.01 0.00898846)
(6.26364 0.01 0.00901232)
(6.28182 0.01 0.00903724)
(6.3 0.01 0.0090631)
(6.31818 0.01 0.00908981)
(6.33636 0.01 0.00911726)
(6.35454 0.01 0.0091452)
(6.37273 0.01 0.00917347)
(6.39091 0.01 0.00920179)
(6.40909 0.01 0.00922941)
(6.42727 0.01 0.00925609)
(6.44546 0.01 0.00928053)
(6.46364 0.01 0.00930334)
(6.48182 0.01 0.00932232)
(6.5 0.01 0.00933988)
(6.51818 0.01 0.00935099)
(6.53636 0.01 0.00936086)
(6.55455 0.01 0.00935987)
(6.57273 0.01 0.00934902)
(6.59091 0.01 0.0093226)
(6.60909 0.01 0.0092844)
(6.62727 0.01 0.00925467)
(6.64546 0.01 0.00921914)
(6.66364 0.01 0.00918246)
(6.68182 0.01 0.00914599)
(6.7 0.01 0.00910953)
(6.71818 0.01 0.00907309)
(6.73636 0.01 0.00903679)
(6.75455 0.01 0.00900036)
(6.77273 0.01 0.00896391)
(6.79091 0.01 0.00892749)
(6.80909 0.01 0.00889109)
(6.82727 0.01 0.00885478)
(6.84546 0.01 0.00881831)
(6.86364 0.01 0.0087817)
(6.88182 0.01 0.00874509)
(6.9 0.01 0.00870855)
(6.91818 0.01 0.00867271)
(6.93636 0.01 0.00863791)
(6.95455 0.01 0.0086018)
(6.97273 0.01 0.00856646)
(6.99091 0.01 0.00852903)
(7.00909 0.01 0.00849515)
(7.02727 0.01 0.00845633)
(7.04545 0.01 0.00842528)
(7.06365 0.01 0.00838377)
(7.08181 0.01 0.00835512)
(7.10001 0.01 0.00830965)
(7.11817 0.01 0.00828172)
(7.13637 0.01 0.00824129)
(7.15453 0.01 0.00822136)
(7.17274 0.01 0.00812795)
(7.19094 0.01 0.00787283)
(7.20903 0.01 0.0080911)
(7.22731 0.01 0.0082715)
(7.24545 0.01 0.00804399)
(7.26363 0.01 0.00797442)
(7.28182 0.01 0.00793946)
(7.3 0.01 0.00790085)
(7.31818 0.01 0.00786804)
(7.33636 0.01 0.00782848)
(7.35455 0.01 0.00779704)
(7.37273 0.01 0.00775615)
(7.39091 0.01 0.00772511)
(7.40909 0.01 0.00768408)
(7.42726 0.01 0.00765674)
(7.44546 0.01 0.00761285)
(7.46363 0.01 0.00759195)
(7.48183 0.01 0.0075541)
(7.49998 0.01 0.00754043)
(7.51819 0.01 0.00745514)
(7.53639 0.01 0.0071958)
(7.55448 0.01 0.00742273)
(7.57277 0.01 0.00761318)
(7.59091 0.01 0.00736229)
(7.60908 0.01 0.00728697)
(7.62728 0.01 0.00725258)
(7.64545 0.01 0.00721202)
(7.66365 0.01 0.00717882)
(7.68182 0.01 0.00713794)
(7.7 0.01 0.00710418)
(7.71818 0.01 0.00706442)
(7.73636 0.01 0.00702984)
(7.75454 0.01 0.00699121)
(7.77273 0.01 0.00695592)
(7.79091 0.01 0.00691864)
(7.80909 0.01 0.00688358)
(7.82727 0.01 0.0068473)
(7.84546 0.01 0.00681206)
(7.86364 0.01 0.00677631)
(7.88182 0.01 0.00674091)
(7.9 0.01 0.00670507)
(7.91818 0.01 0.00666949)
(7.93636 0.01 0.00663383)
(7.95455 0.01 0.00659795)
(7.97273 0.01 0.00656188)
(7.99091 0.01 0.00652584)
(8.00909 0.01 0.0064897)
(8.02727 0.01 0.00645359)
(8.04546 0.01 0.00641748)
(8.06364 0.01 0.00638135)
(8.08182 0.01 0.00634514)
(8.1 0.01 0.00630876)
(8.11818 0.01 0.00627239)
(8.13636 0.01 0.00623625)
(8.15454 0.01 0.00620017)
(8.17273 0.01 0.00616396)
(8.19091 0.01 0.00612757)
(8.20909 0.01 0.0060911)
(8.22727 0.01 0.00605478)
(8.24546 0.01 0.00601849)
(8.26364 0.01 0.00598216)
(8.28182 0.01 0.00594605)
(8.3 0.01 0.00590988)
(8.31818 0.01 0.00587348)
(8.33636 0.01 0.00583703)
(8.35455 0.01 0.00580053)
(8.37273 0.01 0.00576424)
(8.39091 0.01 0.00572801)
(8.40909 0.01 0.00569155)
(8.42727 0.01 0.00565528)
(8.44546 0.01 0.00561848)
(8.46364 0.01 0.00558296)
(8.48182 0.01 0.00554519)
(8.5 0.01 0.00551135)
(8.51818 0.01 0.00547104)
(8.53636 0.01 0.00544092)
(8.55455 0.01 0.00539645)
(8.57272 0.01 0.00537789)
(8.59093 0.01 0.00533535)
(8.60907 0.01 0.00533918)
(8.62729 0.01 0.00524694)
(8.64548 0.01 0.00496586)
(8.66357 0.01 0.00521407)
(8.68186 0.01 0.0054358)
(8.70001 0.01 0.00516548)
(8.71817 0.01 0.00507097)
(8.73637 0.01 0.00504386)
(8.75454 0.01 0.0049946)
(8.77273 0.01 0.00496383)
(8.79091 0.01 0.00491995)
(8.80909 0.01 0.0048869)
(8.82727 0.01 0.00484873)
(8.84546 0.01 0.00481563)
(8.86364 0.01 0.00478044)
(8.88182 0.01 0.00474587)
(8.9 0.01 0.00471018)
(8.91818 0.01 0.00467461)
(8.93636 0.01 0.0046387)
(8.95455 0.01 0.00460272)
(8.97273 0.01 0.00456668)
(8.99091 0.01 0.00453065)
(9.00909 0.01 0.00449428)
(9.02727 0.01 0.00445791)
(9.04546 0.01 0.00442169)
(9.06364 0.01 0.00438552)
(9.08182 0.01 0.00434935)
(9.1 0.01 0.00431314)
(9.11818 0.01 0.00427709)
(9.13636 0.01 0.00424092)
(9.15454 0.01 0.00420457)
(9.17273 0.01 0.00416807)
(9.19091 0.01 0.00413162)
(9.20909 0.01 0.00409553)
(9.22727 0.01 0.00405936)
(9.24545 0.01 0.00402308)
(9.26364 0.01 0.00398675)
(9.28182 0.01 0.00395045)
(9.3 0.01 0.00391438)
(9.31818 0.01 0.0038781)
(9.33636 0.01 0.0038416)
(9.35455 0.01 0.00380517)
(9.37273 0.01 0.00376902)
(9.39091 0.01 0.00373251)
(9.40909 0.01 0.00369688)
(9.42727 0.01 0.00365963)
(9.44545 0.01 0.00362564)
(9.46364 0.01 0.00358701)
(9.48182 0.01 0.00355522)
(9.5 0.01 0.00351299)
(9.51817 0.01 0.00348513)
(9.53637 0.01 0.00343946)
(9.55453 0.01 0.00341191)
(9.57275 0.01 0.00336258)
(9.59089 0.01 0.00333796)
(9.60911 0.01 0.00329373)
(9.62725 0.01 0.00327682)
(9.64548 0.01 0.0032503)
(9.66361 0.01 0.00323276)
(9.68184 0.01 0.0032225)
(9.69997 0.01 0.00318148)
(9.71819 0.01 0.00296196)
(9.73634 0.01 0.0022853)
(9.75455 0.01 0.00103564)
(9.77273 0.01 -0.00107551)
(9.79094 0.01 -0.00428093)
(9.80924 0.01 -0.00880786)
(9.82713 0.01 -0.0117263)
(9.84544 0.01 -0.0121688)
(9.86364 0.01 -0.0122197)
(9.88182 0.01 -0.0122605)
(9.9 0.01 -0.0122984)
(9.91818 0.01 -0.0123355)
(9.93636 0.01 -0.0123722)
(9.95454 0.01 -0.0124088)
(9.97273 0.01 -0.0124453)
(9.99091 0.01 -0.0124818)
(0.00909089 0.01 0.0124818)
(0.0272727 0.01 0.0124455)
(0.0454545 0.01 0.0124091)
(0.0636364 0.01 0.0123727)
(0.0818182 0.01 0.0123364)
(0.1 0.01 0.0123)
(0.118182 0.01 0.0122636)
(0.136364 0.01 0.0122273)
(0.154545 0.01 0.0121908)
(0.172727 0.01 0.0121538)
(0.190909 0.01 0.012114)
(0.209091 0.01 0.0120748)
(0.227273 0.01 0.0120406)
(0.245455 0.01 0.0120049)
(0.263636 0.01 0.011967)
(0.281818 0.01 0.0119325)
(0.3 0.01 0.0118966)
(0.318182 0.01 0.0118572)
(0.336364 0.01 0.0118194)
(0.354545 0.01 0.0117838)
(0.372727 0.01 0.0117494)
(0.390909 0.01 0.0117149)
(0.409091 0.01 0.0116793)
(0.427273 0.01 0.0116441)