/*--------------------------------*- C++ -*----------------------------------*\
| =========                 |                                                 |
| \\      /  F ield         | foam-extend: Open Source CFD                    |
|  \\    /   O peration     | Version:     3.2                                |
|   \\  /    A nd           | Web:         http://www.foam-extend.org         |
|    \\/     M anipulation  | For copyright notice see file Copyright         |
\*---------------------------------------------------------------------------*/
FoamFile
{
    version     2.0;
    format      ascii;
    class       surfaceScalarField;
    location    "2020";
    object      meshPhi;
}
// * * * * * * * * * * * * * * * * * * * * * * * * * * * * * * * * * * * * * //

dimensions      [0 3 -1 0 0 0 0];

internalField   nonuniform List<scalar> 
65390
(
0
0
0
0
0
0
0
0
0
0
0
0
0
0
0
0
-2.31297e-19
2.62825e-20
4.62539e-19
1.05136e-19
4.01235e-35
5.25679e-20
-2.31324e-19
1.57704e-19
2.31247e-19
1.57704e-19
0
1.31413e-19
0
2.89123e-19
0
3.41691e-19
-4.62598e-19
5.25679e-19
0
7.35951e-19
4.62591e-19
1.02507e-18
0
1.34041e-18
0
1.68217e-18
-4.62588e-19
2.10272e-18
-2.80865e-33
2.57583e-18
3.04939e-33
2.89123e-18
4.62593e-19
3.02249e-18
-9.25165e-19
2.83867e-18
4.62603e-19
2.05015e-18
9.25206e-19
5.25679e-19
-9.25164e-19
-1.91873e-18
0
-4.94138e-18
0
-7.77927e-18
0
-8.41086e-18
0
-2.9438e-18
-1.85037e-18
1.60069e-17
0
6.21747e-17
-9.25171e-19
1.5987e-16
-9.25171e-19
3.45569e-16
0
6.63959e-16
-9.25171e-19
1.19581e-15
9.25173e-19
2.2471e-15
9.25212e-19
4.63569e-15
0
8.95062e-15
0
1.2363e-14
-2.75703e-29
-2.07637e-16
9.25186e-19
8.96381e-16
0
1.48982e-13
9.25234e-19
5.00403e-13
-9.24936e-19
-5.93279e-12
1.8918e-25
4.01808e-11
9.24434e-19
-2.58433e-09
-9.25963e-19
-3.88792e-08
9.24234e-19
-7.49181e-08
1.85288e-18
-7.35388e-08
9.23763e-19
-6.93098e-08
0
-7.02569e-08
-1.84751e-18
-9.57917e-08
1.85309e-18
-6.28083e-08
1.84748e-18
1.93744e-08
0
-6.62056e-08
0
-2.07795e-07
0
-1.75746e-07
-1.84593e-18
5.84023e-09
0
2.79134e-07
0
3.50196e-07
0
5.51776e-10
0
-2.91334e-07
0
-8.30641e-08
1.8391e-18
2.1764e-07
-3.68946e-18
1.82258e-07
-1.83798e-18
1.98061e-08
-1.84268e-18
-2.89726e-08
-1.83599e-18
7.09917e-08
0
2.14734e-07
-6.28916e-23
2.01399e-07
-1.83921e-18
-4.13169e-08
-1.48754e-22
-2.95707e-07
-1.83029e-18
-1.93648e-07
-1.42597e-22
1.9651e-07
6.09279e-23
3.72159e-07
0
1.89657e-07
-2.81757e-23
-7.9539e-08
-1.80416e-18
-2.57247e-07
-5.11618e-23
-2.67089e-07
1.79984e-18
-7.48217e-08
-1.80027e-18
1.79923e-07
0
2.54524e-07
-1.17328e-23
1.29065e-07
-1.80099e-18
-3.36929e-08
-1.80361e-18
-2.0329e-07
1.80289e-18
-2.58845e-07
2.20465e-23
-6.32728e-08
-9.63788e-23
2.10017e-07
1.8112e-18
2.77126e-07
0
1.35176e-07
1.81332e-18
-2.1593e-08
0
-1.85849e-07
-1.81514e-18
-2.54894e-07
-1.81693e-18
-9.64338e-08
-3.64443e-18
1.25962e-07
-1.81238e-18
2.49455e-07
5.47637e-18
2.31592e-07
1.79747e-18
7.18432e-08
-1.83046e-18
-1.44141e-07
-1.82618e-18
-2.00265e-07
-1.81181e-18
-9.21479e-08
0
1.83157e-08
0
1.39149e-07
0
1.82257e-07
-1.831e-18
6.37696e-08
0
-7.1451e-08
0
-1.41308e-07
0
-1.512e-07
0
-9.90953e-08
0
-1.46434e-08
3.6724e-18
8.64115e-08
0
1.28145e-07
0
1.60782e-07
0
2.20191e-07
0
5.33201e-08
3.67967e-18
-1.61786e-07
3.67657e-18
-9.99818e-08
0
3.29084e-08
0
7.32283e-08
0
2.25269e-08
-3.70538e-18
-4.41274e-08
3.70068e-18
-2.7971e-08
0
3.28135e-08
0
7.67269e-08
0
2.975e-08
0
-4.48658e-08
3.70217e-18
-3.28298e-08
0
-2.08965e-09
0
2.48174e-10
0
2.21844e-10
3.70481e-18
2.79706e-10
3.70582e-18
3.47961e-10
0
4.00219e-10
-3.704e-18
3.81908e-10
3.70158e-18
3.89311e-10
0
3.73699e-10
3.70113e-18
3.65988e-10
-3.70105e-18
3.63176e-10
3.70029e-18
3.35711e-10
-7.40208e-18
3.13012e-10
3.7001e-18
2.86041e-10
-3.701e-18
2.65763e-10
3.69998e-18
2.53252e-10
-3.701e-18
2.42175e-10
0
2.36948e-10
3.70105e-18
2.26221e-10
0
2.16671e-10
3.70101e-18
2.08559e-10
0
2.04349e-10
3.701e-18
1.95689e-10
0
1.79265e-10
3.70115e-18
1.58596e-10
3.69936e-18
1.3031e-10
0
1.02906e-10
0
6.76152e-11
3.70436e-18
3.81069e-11
0
3.80548e-12
7.41394e-18
-1.9215e-11
3.69228e-18
-3.33927e-11
-8.29692e-26
-3.54956e-11
3.69042e-18
-3.29838e-11
8.63677e-26
-2.55689e-11
0
-1.56692e-11
3.70724e-18
-2.51371e-12
-3.69275e-18
1.79103e-11
0
2.16522e-11
3.69584e-18
2.92314e-11
-3.70563e-18
3.44416e-11
0
4.221e-11
3.70398e-18
4.22048e-11
0
4.2622e-11
-3.70287e-18
3.4772e-11
-8.61151e-27
2.64759e-11
3.70223e-18
1.46677e-11
-3.69995e-18
4.68124e-13
0
-1.90201e-11
3.76348e-27
-3.31617e-11
5.21873e-27
-4.63204e-11
3.69973e-18
-5.85074e-11
8.78796e-27
-7.36796e-11
0
-8.96234e-11
3.70191e-18
-1.07223e-10
0
-1.24162e-10
3.70186e-18
-1.41645e-10
0
-1.57569e-10
0
-1.72528e-10
0
-1.84779e-10
0
-1.95728e-10
7.39926e-18
-2.04814e-10
3.70177e-18
-2.13356e-10
-1.86535e-26
-2.21446e-10
-3.70175e-18
-2.29598e-10
1.81774e-26
-2.36481e-10
7.40342e-18
-2.41973e-10
3.69966e-18
-2.45364e-10
3.70169e-18
-2.46272e-10
-3.69967e-18
-2.44471e-10
3.70167e-18
-2.39009e-10
0
-2.29348e-10
0
-2.14453e-10
7.39942e-18
-1.94211e-10
-2.14748e-26
-1.67969e-10
3.69972e-18
-1.36178e-10
-3.7016e-18
-9.86992e-11
0
-5.72042e-11
-3.70159e-18
-1.20289e-11
-1.47416e-26
3.55124e-11
0
8.55601e-11
1.49778e-26
1.36345e-10
-3.70157e-18
1.8749e-10
0
2.36688e-10
-3.70156e-18
2.83447e-10
-3.6998e-18
3.25694e-10
0
3.64028e-10
0
3.96803e-10
0
4.257e-10
7.39964e-18
4.4914e-10
1.48062e-17
4.6768e-10
0
4.7972e-10
7.40313e-18
4.85064e-10
0
4.82976e-10
0
4.74239e-10
0
4.57441e-10
0
4.33277e-10
0
4.00138e-10
0
3.58226e-10
-7.39968e-18
3.07395e-10
-7.40315e-18
2.49621e-10
7.39968e-18
1.85053e-10
7.40314e-18
1.15956e-10
5.17919e-27
4.22182e-11
-7.40317e-18
-3.40468e-11
-7.39969e-18
-1.13276e-10
7.40322e-18
-1.94143e-10
0
-2.77253e-10
0
-3.61355e-10
7.39968e-18
-4.46082e-10
0
-5.30842e-10
0
-6.16742e-10
1.56562e-26
-7.0052e-10
-7.3996e-18
-7.79993e-10
-7.40335e-18
-8.50154e-10
-7.39955e-18
-9.15432e-10
-7.40341e-18
-9.74567e-10
7.39946e-18
-1.03282e-09
-6.68244e-26
-1.08558e-09
0
-1.1423e-09
1.01568e-25
-1.1938e-09
-7.39906e-18
-1.25251e-09
-1.78693e-25
-1.30001e-09
2.3457e-25
-1.36068e-09
-7.40482e-18
-1.40475e-09
1.47953e-17
-1.47754e-09
0
-1.52798e-09
-5.58847e-25
-1.59949e-09
5.61315e-25
-1.63742e-09
0
-1.66997e-09
-7.40938e-18
-1.68157e-09
0
-1.6836e-09
7.41115e-18
-1.66855e-09
0
-1.6373e-09
-5.79577e-25
-1.59317e-09
7.38917e-18
-1.5267e-09
0
-1.45491e-09
7.38852e-18
-1.35573e-09
0
-1.26292e-09
0
-1.13786e-09
0
-1.02812e-09
0
-8.85721e-10
-7.40959e-18
-7.68513e-10
7.39518e-18
-6.21693e-10
-7.40503e-18
-5.12639e-10
2.22031e-17
-3.78948e-10
-7.39969e-18
-2.97256e-10
-7.40604e-18
-2.06814e-10
0
-1.16946e-10
0
8.51321e-12
7.39061e-18
1.38601e-10
0
3.01778e-10
7.54663e-18
4.94934e-10
0
7.47743e-10
7.416e-18
8.92162e-10
-7.28537e-25
9.74542e-10
0
1.07582e-09
-7.394e-18
1.152e-09
0
1.2337e-09
1.47924e-17
1.28871e-09
7.40555e-18
1.34725e-09
0
1.38126e-09
-7.40378e-18
1.41988e-09
0
1.43827e-09
0
1.47113e-09
7.40098e-18
1.51072e-09
0
1.55835e-09
7.40211e-18
1.58124e-09
-1.4801e-17
1.58896e-09
0
1.56699e-09
7.40006e-18
1.54988e-09
-7.40306e-18
1.52485e-09
-1.29633e-25
1.50081e-09
1.48067e-17
1.46626e-09
-7.3997e-18
1.42836e-09
7.40345e-18
1.37622e-09
0
1.31943e-09
0
1.25181e-09
7.39967e-18
1.17975e-09
-7.40343e-18
1.09907e-09
7.39981e-18
1.01306e-09
7.4033e-18
9.188e-10
7.39985e-18
8.19303e-10
7.40307e-18
7.10617e-10
7.40005e-18
5.96616e-10
7.40291e-18
4.75407e-10
-7.4002e-18
3.49696e-10
0
2.18652e-10
7.40038e-18
8.56609e-11
-7.40256e-18
-5.01909e-11
7.40051e-18
-1.84981e-10
0
-3.16616e-10
7.40074e-18
-4.39563e-10
7.40226e-18
-5.52757e-10
0
-6.54296e-10
7.40207e-18
-7.44613e-10
1.96675e-26
-8.26114e-10
-7.40197e-18
-8.99899e-10
-1.48025e-17
-9.59832e-10
7.40184e-18
-1.0089e-09
0
-1.04269e-09
7.40184e-18
-1.06057e-09
0
-1.06869e-09
0
-1.07139e-09
-1.71174e-26
-1.07361e-09
-3.65474e-27
-1.07213e-09
0
-1.06492e-09
-7.40175e-18
-1.05328e-09
0
-1.03531e-09
0
-1.01534e-09
-7.40132e-18
-9.9227e-10
0
-9.663e-10
7.40138e-18
-9.37517e-10
0
-9.0451e-10
7.40136e-18
-8.69024e-10
-4.03762e-28
-8.29768e-10
7.40125e-18
-7.86892e-10
7.40164e-18
-7.42319e-10
0
-6.96584e-10
-3.89334e-28
-6.47759e-10
4.79184e-27
-5.96911e-10
0
-5.4398e-10
7.40063e-18
-4.89798e-10
0
-4.45483e-10
-7.39994e-18
-4.06301e-10
-7.40282e-18
-3.78883e-10
-7.3982e-18
-3.48863e-10
-6.63353e-26
-3.30696e-10
0
-3.21362e-10
7.40561e-18
-3.0196e-10
-7.3938e-18
-2.25062e-10
0
-8.16382e-11
-7.39961e-18
-5.12522e-12
0
2.4248e-14
-7.40142e-18
-3.86311e-14
1.37157e-28
-1.27637e-14
7.40135e-18
-6.48059e-15
7.4014e-18
-3.60242e-15
0
-2.16057e-15
-1.73783e-29
-1.36112e-15
-7.40139e-18
-8.86894e-16
1.48029e-17
-5.90037e-16
5.20386e-30
-3.96952e-16
-7.40143e-18
-2.65935e-16
-7.40137e-18
-1.7377e-16
0
-1.05156e-16
1.48026e-17
-5.01968e-17
0
-2.02364e-18
-7.40145e-18
4.56765e-17
7.40154e-18
9.90273e-17
0
1.6565e-16
5.02026e-30
2.55908e-16
-7.39962e-18
3.85864e-16
0
5.83635e-16
7.39669e-18
9.00529e-16
7.40883e-18
1.43355e-15
7.39027e-18
2.40267e-15
0
4.28483e-15
7.38024e-18
8.52706e-15
-7.42879e-18
1.84129e-14
-7.36936e-18
7.5741e-14
-7.97214e-27
-1.81684e-13
1.47017e-17
1.48589e-11
7.39663e-18
2.28776e-10
1.50874e-17
4.26394e-10
-2.17777e-17
2.26708e-10
-7.44281e-18
1.37642e-11
7.41579e-18
-1.70778e-13
0
7.23598e-14
0
1.82027e-14
0
8.48832e-15
5.27987e-29
4.45017e-15
-7.39699e-18
2.69784e-15
0
1.93107e-15
0
1.70596e-15
-7.39547e-18
1.9479e-15
-7.41209e-18
2.8368e-15
-7.38497e-18
5.15376e-15
-2.40342e-28
1.07972e-14
7.37101e-18
4.40361e-14
7.44078e-18
-1.05516e-13
7.35214e-18
8.6469e-12
-1.47827e-17
1.32954e-10
7.55325e-18
2.47726e-10
2.62921e-25
1.31705e-10
0
7.9392e-12
-7.4231e-18
-9.88805e-14
-7.38212e-18
4.16692e-14
-7.41863e-18
1.0412e-14
-1.47738e-17
4.77074e-15
-7.41338e-18
2.40841e-15
1.61624e-29
1.3407e-15
-1.48175e-17
8.01554e-16
-7.3959e-18
5.0252e-16
0
3.27961e-16
2.90302e-30
2.19988e-16
-7.40358e-18
1.50932e-16
-7.39997e-18
1.05361e-16
1.01176e-30
7.46908e-17
-7.40079e-18
5.3482e-17
5.28989e-31
3.86544e-17
7.40112e-18
2.80945e-17
0
2.06044e-17
-7.40135e-18
1.51116e-17
-1.48029e-17
1.11957e-17
0
8.22597e-18
7.40145e-18
6.07426e-18
-1.48028e-17
4.4415e-18
0
3.25885e-18
0
2.3653e-18
-1.48028e-17
1.62943e-18
1.48029e-17
1.10441e-18
0
6.57027e-19
-1.48028e-17
3.02232e-19
0
-9.19837e-20
-1.48029e-17
-4.862e-19
0
-9.06697e-19
1.48028e-17
-1.43311e-18
0
-2.0762e-18
0
-2.90406e-18
-1.48029e-17
-3.98158e-18
1.48028e-17
-5.38762e-18
0
-7.3233e-18
0
-9.99994e-18
0
-1.35742e-17
1.48028e-17
-1.85019e-17
1.48028e-17
-2.52824e-17
1.48028e-17
-3.4783e-17
0
-4.8226e-17
0
-6.73321e-17
-3.63487e-30
-9.5098e-17
0
-1.36241e-16
0
-1.98672e-16
-1.48044e-17
-2.96528e-16
1.47996e-17
-4.54899e-16
0
-7.24976e-16
0
-1.21664e-15
9.20004e-29
-2.18088e-15
1.47744e-17
-4.35184e-15
0
-9.44588e-15
1.47388e-17
-3.89733e-14
0
9.33433e-14
0
-7.63164e-12
0
-1.18286e-10
1.51084e-17
-2.20666e-10
0
-1.17177e-10
-1.48523e-17
-7.04268e-12
0
8.77996e-14
0
-3.68946e-14
-1.48437e-17
-9.27352e-15
0
-4.24565e-15
0
-2.14788e-15
0
-1.19638e-15
-1.48096e-17
-7.15835e-16
0
-4.49076e-16
-1.48046e-17
-2.93182e-16
0
-1.96569e-16
0
-1.34927e-16
-1.48025e-17
-9.42702e-17
0
-6.67539e-17
1.48027e-17
-4.78052e-17
0
-3.45392e-17
-1.48028e-17
-2.51116e-17
-1.48027e-17
-1.83705e-17
0
-1.35085e-17
1.48027e-17
-9.97366e-18
-1.48029e-17
-7.40219e-18
-1.48028e-17
-5.49931e-18
0
-4.11299e-18
0
-3.09459e-18
1.48027e-17
-2.35873e-18
-1.48029e-17
-1.80025e-18
1.48027e-17
-1.40681e-18
0
-1.12352e-18
0
-9.59259e-19
0
-8.40994e-19
1.48029e-17
-8.01572e-19
-1.48027e-17
-8.08587e-19
0
-8.67275e-19
0
-9.59259e-19
0
-1.09723e-18
-1.48028e-17
-1.26149e-18
1.48028e-17
-1.46517e-18
0
-1.68291e-18
-6.29137e-32
-1.85939e-18
-1.4804e-17
-1.93166e-18
0
-1.77397e-18
0
-1.19579e-18
0
1.73726e-19
1.71408e-31
3.26542e-18
0
9.15895e-18
2.96661e-17
2.03021e-17
0
4.15504e-17
0
8.17256e-17
0
1.59988e-16
0
3.14384e-16
0
6.49083e-16
-1.49226e-17
1.39695e-15
0
3.333e-15
0
1.05585e-14
-1.46774e-17
1.13474e-14
1.49223e-17
1.06604e-12
0
2.20083e-11
0
1.19197e-10
-1.46358e-17
1.98014e-10
-1.47534e-17
6.07985e-11
0
-2.21216e-10
0
-3.19978e-10
-3.27038e-17
-1.52781e-10
1.25311e-26
-1.48282e-11
0
1.35389e-13
-1.48053e-17
-6.87909e-14
1.48042e-17
-1.69172e-14
0
-7.6541e-15
-1.48033e-17
-3.77176e-15
4.68797e-29
-2.02328e-15
0
-1.10846e-15
0
-5.59576e-16
-1.71353e-16
0
0
0
0
0
0
0
0
0
0
4.01235e-35
1.05135e-19
2.31296e-19
1.57704e-19
-2.31296e-19
2.10272e-19
4.62586e-19
3.1539e-19
2.31268e-19
5.25679e-19
4.62659e-19
7.35951e-19
0
9.9879e-19
0
1.41933e-18
9.25277e-19
2.1026e-18
-4.6264e-19
3.04894e-18
0
4.20543e-18
0
5.67733e-18
4.62635e-19
7.78005e-18
0
1.03033e-17
0
1.34041e-17
4.62573e-19
1.71371e-17
4.62587e-19
2.129e-17
-4.6261e-19
2.54462e-17
-4.62573e-19
2.89123e-17
-4.62589e-19
3.04351e-17
4.62581e-19
2.83867e-17
-1.37223e-32
2.06066e-17
9.25212e-19
5.09909e-18
6.03458e-32
-1.88193e-17
0
-4.92561e-17
9.25164e-19
-7.77962e-17
0
-8.44766e-17
9.25206e-19
-3.06997e-17
0
1.56607e-16
-1.8504e-18
6.12475e-16
0
1.57874e-15
-9.25169e-19
3.41686e-15
1.85043e-18
6.57309e-15
9.25171e-19
1.18455e-14
5.35412e-29
2.22106e-14
9.25214e-19
4.56936e-14
9.25173e-19
8.86433e-14
0
1.21197e-13
-1.41785e-28
2.20043e-14
9.25185e-19
-8.90146e-14
0
1.6574e-12
-9.2521e-19
3.38703e-12
0
-2.35406e-11
1.85148e-18
-2.64152e-10
1.11846e-23
-5.61726e-09
0
-3.85912e-08
-9.24298e-19
-7.10443e-08
9.26379e-19
-7.27691e-08
-2.77147e-18
-6.9303e-08
0
-7.19076e-08
0
-8.99555e-08
2.50647e-23
-5.83244e-08
0
3.93355e-09
0
-7.078e-08
-1.84683e-18
-1.90548e-07
-4.4649e-23
-1.60795e-07
0
1.36558e-08
-1.84943e-18
2.58067e-07
0
3.09656e-07
-1.84734e-18
6.02945e-09
1.84105e-18
-2.44218e-07
-1.84677e-18
-7.41121e-08
0
1.85951e-07
0
1.69421e-07
-5.60082e-23
2.99767e-08
1.84662e-18
-1.50142e-08
-1.84053e-18
7.461e-08
-3.68908e-18
1.98964e-07
0
1.79248e-07
-1.84805e-18
-4.21433e-08
-1.98168e-22
-2.62353e-07
-1.1252e-23
-1.67929e-07
0
1.75076e-07
9.72885e-23
3.37395e-07
-1.82939e-18
1.80423e-07
0
-7.07358e-08
1.81989e-18
-2.40225e-07
3.63018e-18
-2.4727e-07
1.81752e-18
-6.89953e-08
1.81771e-18
1.62578e-07
-4.31762e-23
2.34921e-07
-1.81982e-18
1.24669e-07
0
-3.38848e-08
1.82061e-18
-1.91467e-07
1.81999e-18
-2.34781e-07
1.82531e-18
-5.60273e-08
1.82132e-18
1.90311e-07
1.82652e-18
2.56539e-07
-1.8237e-18
1.3271e-07
-1.82741e-18
-2.19051e-08
-1.82644e-18
-1.7578e-07
3.65751e-18
-2.32795e-07
-1.83137e-18
-8.9882e-08
0
1.16341e-07
-3.65128e-18
2.34883e-07
3.67456e-18
2.16934e-07
0
6.64434e-08
0
-1.28274e-07
0
-1.8371e-07
1.82648e-18
-9.09571e-08
3.67625e-18
1.9101e-08
0
1.31124e-07
-3.66977e-18
1.66541e-07
3.68211e-18
6.16862e-08
0
-6.51061e-08
0
-1.34767e-07
0
-1.44405e-07
3.6747e-18
-9.5385e-08
-1.14514e-23
-1.29873e-08
0
8.06442e-08
0
1.26388e-07
0
1.61809e-07
2.79455e-22
1.99345e-07
0
5.03578e-08
0
-1.34912e-07
0
-9.22961e-08
0
2.46897e-08
-3.65791e-18
6.45448e-08
0
2.11413e-08
3.7111e-18
-3.61194e-08
3.70247e-18
-2.35011e-08
-3.6968e-18
3.12148e-08
7.31705e-18
6.82278e-08
0
2.74154e-08
6.9716e-23
-3.65442e-08
0
-3.07521e-08
-7.40696e-18
-4.54551e-09
0
-1.17227e-11
0
2.08673e-10
1.87273e-25
2.85376e-10
-7.40821e-18
3.48397e-10
0
3.93034e-10
0
3.83516e-10
-2.07857e-27
3.86912e-10
0
3.74193e-10
0
3.66267e-10
3.50126e-26
3.60683e-10
3.70014e-18
3.35931e-10
4.67418e-26
3.12512e-10
3.69986e-18
2.86608e-10
0
2.66519e-10
4.59829e-26
2.53395e-10
0
2.42703e-10
2.87395e-26
2.36417e-10
-3.70067e-18
2.26288e-10
0
2.16757e-10
0
2.08881e-10
3.69965e-18
2.03829e-10
-3.70062e-18
1.94826e-10
2.03076e-26
1.78708e-10
-3.41892e-26
1.57743e-10
-3.69903e-18
1.30283e-10
4.67647e-26
1.02107e-10
0
6.81232e-11
-6.11979e-26
3.77286e-11
3.69468e-18
4.96445e-12
3.70602e-18
-1.82149e-11
7.38416e-18
-3.21054e-11
-3.7077e-18
-3.4924e-11
-8.42778e-26
-3.24405e-11
-3.70768e-18
-2.52853e-11
0
-1.53671e-11
-7.4923e-26
-1.92047e-12
0
1.62953e-11
-3.71155e-18
2.18917e-11
0
2.89254e-11
3.70567e-18
3.45858e-11
3.69796e-18
4.13864e-11
-7.40796e-18
4.2116e-11
0
4.17335e-11
3.70289e-18
3.4604e-11
-7.39977e-18
2.60365e-11
-3.70226e-18
1.43431e-11
0
-9.27235e-14
7.40412e-18
-1.85797e-11
-3.69989e-18
-3.31043e-11
-4.21551e-27
-4.62795e-11
0
-5.88467e-11
-3.70182e-18
-7.38194e-11
0
-8.985e-11
-1.11052e-17
-1.07212e-10
-3.69964e-18
-1.24248e-10
-3.70168e-18
-1.41522e-10
3.69958e-18
-1.57475e-10
-3.70163e-18
-1.72292e-10
-3.69957e-18
-1.84642e-10
-1.11048e-17
-1.95549e-10
0
-2.0476e-10
1.75489e-26
-2.13313e-10
0
-2.21432e-10
-7.40299e-18
-2.29484e-10
3.69951e-18
-2.36304e-10
-3.70145e-18
-2.41722e-10
1.53984e-26
-2.45059e-10
2.12243e-26
-2.45914e-10
-3.69952e-18
-2.4404e-10
3.7014e-18
-2.38469e-10
0
-2.28704e-10
3.70137e-18
-2.13783e-10
-7.39909e-18
-1.93473e-10
3.70135e-18
-1.67267e-10
0
-1.35494e-10
3.70134e-18
-9.81652e-11
-3.69957e-18
-5.6733e-11
3.70131e-18
-1.17039e-11
-7.39918e-18
3.58156e-11
-3.7013e-18
8.56822e-11
-3.69961e-18
1.36382e-10
7.40261e-18
1.87277e-10
-1.59025e-26
2.36388e-10
7.35457e-27
2.82922e-10
1.5785e-26
3.25177e-10
3.70128e-18
3.63395e-10
3.69964e-18
3.96251e-10
-7.40257e-18
4.25002e-10
7.39935e-18
4.48471e-10
0
4.66818e-10
0
4.78891e-10
0
4.84078e-10
-7.39937e-18
4.8207e-10
0
4.73189e-10
0
4.56439e-10
0
4.32098e-10
0
3.99032e-10
-7.40262e-18
3.57055e-10
0
3.06444e-10
0
2.48712e-10
0
1.84377e-10
0
1.15315e-10
0
4.17777e-11
0
-3.44961e-11
0
-1.13584e-10
0
-1.94487e-10
0
-2.77443e-10
0
-3.61546e-10
7.39938e-18
-4.46143e-10
-7.40279e-18
-5.30985e-10
7.39938e-18
-6.16539e-10
-7.40284e-18
-7.00022e-10
-7.39936e-18
-7.79119e-10
0
-8.49561e-10
0
-9.14777e-10
0
-9.74416e-10
-7.39919e-18
-1.03228e-09
-7.40297e-18
-1.08586e-09
7.39905e-18
-1.14193e-09
-7.40315e-18
-1.1944e-09
-7.39878e-18
-1.25148e-09
0
-1.30121e-09
7.39831e-18
-1.35912e-09
-7.40418e-18
-1.40752e-09
-7.39748e-18
-1.47539e-09
-4.33438e-25
-1.52972e-09
7.39612e-18
-1.59612e-09
0
-1.63653e-09
0
-1.66755e-09
0
-1.68042e-09
-7.39244e-18
-1.6815e-09
5.60066e-25
-1.6666e-09
7.39065e-18
-1.63565e-09
-5.29866e-25
-1.5906e-09
-5.54711e-25
-1.52593e-09
7.41224e-18
-1.45195e-09
0
-1.35595e-09
-7.41227e-18
-1.25968e-09
0
-1.139e-09
0
-1.02494e-09
-7.39096e-18
-8.88004e-10
0
-7.65781e-10
0
-6.25225e-10
0
-5.10596e-10
0
-3.83862e-10
0
-2.96539e-10
-3.18375e-25
-2.06655e-10
-7.39291e-18
-1.13335e-10
-4.07117e-25
9.3997e-12
-7.38904e-18
1.42088e-10
0
3.04562e-10
-7.55244e-18
5.0181e-10
-7.26492e-18
7.4063e-10
7.39831e-18
8.87169e-10
7.39355e-18
9.75438e-10
7.40992e-18
1.07307e-09
0
1.15229e-09
7.40707e-18
1.23088e-09
7.39586e-18
1.2887e-09
-7.40477e-18
1.34471e-09
0
1.38143e-09
7.40302e-18
1.41782e-09
0
1.43969e-09
0
1.47163e-09
0
1.51128e-09
2.15715e-25
1.55574e-09
0
1.57932e-09
-1.81753e-25
1.586e-09
-1.80025e-25
1.56705e-09
7.39975e-18
1.54894e-09
1.48052e-17
1.52473e-09
-7.39949e-18
1.49962e-09
-7.40276e-18
1.46563e-09
-7.39935e-18
1.42693e-09
7.40288e-18
1.37544e-09
7.39932e-18
1.31818e-09
7.4029e-18
1.25115e-09
1.47987e-17
1.17866e-09
7.92628e-26
1.09845e-09
-4.51074e-26
1.01201e-09
-7.40274e-18
9.18083e-10
-7.39954e-18
8.18232e-10
-7.40264e-18
7.09912e-10
7.39967e-18
5.9574e-10
7.40246e-18
4.74875e-10
1.47997e-17
3.49052e-10
0
2.18387e-10
-7.40002e-18
8.537e-11
-7.40209e-18
-5.00395e-11
0
-1.84584e-10
7.40191e-18
-3.15608e-10
7.40038e-18
-4.38396e-10
-7.40176e-18
-5.51376e-10
-7.40058e-18
-6.52941e-10
7.4016e-18
-7.4343e-10
-7.40074e-18
-8.25139e-10
-7.4015e-18
-8.98213e-10
0
-9.58422e-10
-3.94722e-26
-1.00707e-09
-2.27676e-26
-1.04078e-09
0
-1.05945e-09
7.40112e-18
-1.06788e-09
7.4014e-18
-1.07113e-09
-2.15296e-26
-1.07307e-09
0
-1.0714e-09
7.40102e-18
-1.06425e-09
-2.63824e-27
-1.05261e-09
-1.12503e-26
-1.03488e-09
7.40127e-18
-1.01488e-09
-7.40091e-18
-9.91826e-10
-7.40125e-18
-9.65817e-10
-1.02631e-26
-9.37044e-10
4.6185e-27
-9.04053e-10
-1.48016e-17
-8.68499e-10
-7.40114e-18
-8.29264e-10
-7.40074e-18
-7.86577e-10
0
-7.4203e-10
0
-6.96231e-10
-7.40093e-18
-6.47409e-10
6.32313e-27
-5.96627e-10
7.40082e-18
-5.43836e-10
1.47998e-17
-4.90717e-10
0
-4.46082e-10
-4.56995e-26
-4.07435e-10
5.12402e-26
-3.78713e-10
7.39744e-18
-3.49953e-10
-7.40341e-18
-3.31344e-10
7.39433e-18
-3.19971e-10
1.48076e-17
-2.96151e-10
7.39261e-18
-2.18766e-10
7.40493e-18
-8.81458e-11
2.78653e-26
-1.23545e-11
1.48009e-17
-1.02065e-12
-2.51418e-27
-3.0531e-13
-7.40081e-18
-1.26839e-13
-6.54699e-28
-6.34636e-14
7.40081e-18
-3.55543e-14
1.48014e-17
-2.13853e-14
0
-1.3498e-14
-1.48016e-17
-8.808e-15
0
-5.86409e-15
7.40075e-18
-3.94678e-15
1.48016e-17
-2.64703e-15
-2.2202e-17
-1.72914e-15
-7.40079e-18
-1.04693e-15
0
-5.0071e-16
7.40083e-18
-2.06569e-17
7.40094e-18
4.54346e-16
0
9.85855e-16
-7.40016e-18
1.64698e-15
4.48639e-29
2.5433e-15
7.39919e-18
3.83267e-15
0
5.79104e-15
-7.39639e-18
8.91973e-15
-7.40768e-18
1.41809e-14
1.47808e-17
2.36746e-14
0
4.21066e-14
1.47615e-17
8.25065e-14
-1.4853e-17
1.85828e-13
-1.47414e-17
5.22671e-13
0
2.08147e-12
7.34483e-18
3.29158e-11
2.22203e-17
2.25102e-10
7.54806e-18
3.86403e-10
1.44984e-17
2.22006e-10
-1.48629e-17
3.1115e-11
1.03439e-26
1.99688e-12
3.77332e-27
5.05806e-13
7.41207e-18
1.83103e-13
7.39171e-18
8.24407e-14
-4.68327e-28
4.37347e-14
2.95862e-17
2.66463e-14
-7.40194e-18
1.91096e-14
-2.47197e-28
1.68955e-14
-7.39539e-18
1.92367e-14
7.41074e-18
2.79135e-14
7.38547e-18
4.99367e-14
7.42358e-18
1.08966e-13
-7.37222e-18
3.03884e-13
1.48734e-17
1.21177e-12
0
1.91443e-11
7.40191e-18
1.3083e-10
7.55732e-18
2.24462e-10
1.44825e-17
1.28905e-10
-3.47946e-26
1.79773e-11
-7.42873e-18
1.15253e-12
-1.47664e-17
2.91261e-13
0
1.04681e-13
-7.38722e-18
4.63225e-14
-7.41197e-18
2.36497e-14
-7.39193e-18
1.32333e-14
1.48153e-17
7.92796e-15
7.39564e-18
4.98334e-15
-7.40459e-18
3.25381e-15
-1.47962e-17
2.18577e-15
0
1.50027e-15
7.3995e-18
1.0484e-15
-7.40171e-18
7.4301e-16
7.40023e-18
5.32299e-16
-2.22035e-17
3.84966e-16
7.40052e-18
2.79946e-16
1.48019e-17
2.04993e-16
-7.40077e-18
1.50643e-16
1.48017e-17
1.11011e-16
7.40072e-18
8.19969e-17
0
6.05849e-17
7.40078e-18
4.46252e-17
0
3.26936e-17
0
2.3653e-17
0
1.67148e-17
1.48017e-17
1.12545e-17
0
6.67539e-18
1.48015e-17
2.68067e-18
-1.48015e-17
-9.9868e-19
2.02865e-31
-4.88828e-18
0
-9.25093e-18
-1.48016e-17
-1.42522e-17
7.1131e-31
-2.06044e-17
0
-2.89617e-17
1.48016e-17
-3.94713e-17
-1.82065e-30
-5.39287e-17
2.47161e-30
-7.32593e-17
0
-9.95001e-17
0
-1.3519e-16
1.48015e-17
-1.84233e-16
0
-2.52038e-16
0
-3.46224e-16
1.63396e-29
-4.79841e-16
-2.29134e-29
-6.69904e-16
-3.2511e-29
-9.4596e-16
0
-1.35432e-15
1.48011e-17
-1.97302e-15
0
-2.941e-15
1.47987e-17
-4.50652e-15
1.48071e-17
-7.16946e-15
1.47918e-17
-1.19895e-14
8.10947e-28
-2.14229e-14
0
-4.21156e-14
0
-9.53311e-14
0
-2.68976e-13
0
-1.07395e-12
0
-1.69365e-11
0
-1.16303e-10
-1.51198e-17
-1.99845e-10
1.44841e-17
-1.14619e-10
0
-1.59506e-11
1.48903e-17
-1.02138e-12
0
-2.58154e-13
0
-9.31566e-14
1.47763e-17
-4.12438e-14
0
-2.10851e-14
0
-1.18086e-14
0
-7.07893e-15
-1.02302e-28
-4.45297e-15
-1.48032e-17
-2.90965e-15
0
-1.95327e-15
0
-1.34165e-15
0
-9.37551e-16
0
-6.64067e-16
0
-4.75924e-16
-1.48016e-17
-3.43838e-16
-6.18609e-30
-2.50328e-16
0
-1.83181e-16
1.48017e-17
-1.34585e-16
0
-9.9395e-17
-1.48017e-17
-7.368e-17
0
-5.4796e-17
1.48016e-17
-4.09985e-17
1.48016e-17
-3.08014e-17
1.48014e-17
-2.34441e-17
-1.48016e-17
-1.79237e-17
-2.9603e-17
-1.39892e-17
2.96037e-17
-1.12746e-17
0
-9.51374e-18
0
-8.4625e-18
1.48016e-17
-7.93688e-18
0
-8.04643e-18
0
-8.59391e-18
2.95309e-31
-9.48746e-18
0
-1.09066e-17
1.48017e-17
-1.26412e-17
0
-1.46123e-17
0
-1.67502e-17
0
-1.85281e-17
1.48025e-17
-1.93166e-17
0
-1.795e-17
0
-1.21156e-17
1.47943e-17
2.12994e-18
-2.96267e-17
3.17212e-17
1.47829e-17
8.99116e-17
0
1.99866e-16
-1.47617e-17
4.08723e-16
0
8.02229e-16
0
1.57024e-15
-1.48834e-17
3.09173e-15
0
6.33471e-15
0
1.36106e-14
0
3.24396e-14
0
8.91092e-14
1.46752e-17
3.21153e-13
-2.97822e-17
3.20896e-12
0
2.86023e-11
1.47169e-17
1.15896e-10
-1.45396e-17
1.78372e-10
1.46295e-17
5.36667e-11
-1.46324e-17
-1.97274e-10
-1.49464e-17
-2.99377e-10
0
-1.66523e-10
-1.5035e-17
-3.16273e-11
0
-2.05665e-12
0
-4.81627e-13
-1.48126e-17
-1.70452e-13
-1.41622e-27
-7.42186e-14
1.4806e-17
-3.70459e-14
-1.48047e-17
-1.9946e-14
-2.25056e-28
-1.0959e-14
0
-5.54084e-15
-1.69765e-15
0
0
0
0
0
5.25676e-20
-1.15647e-19
2.10269e-19
1.15649e-19
1.57702e-19
1.15648e-19
4.73109e-19
0
4.20543e-19
-2.31293e-19
7.88519e-19
0
1.26156e-18
2.31275e-19
1.73474e-18
1.12346e-33
2.52326e-18
0
3.67975e-18
4.6251e-19
5.25679e-18
4.62623e-19
7.30654e-18
0
1.0461e-17
0
1.46139e-17
0
1.99758e-17
0
2.70199e-17
4.62608e-19
3.59039e-17
4.62608e-19
4.67829e-17
0
5.98748e-17
4.62591e-19
7.42784e-17
-9.25199e-19
8.86821e-17
7.67162e-32
1.00825e-16
0
1.06234e-16
-4.62574e-19
9.91431e-17
-4.62603e-19
7.20706e-17
-9.25199e-19
1.85039e-17
1.66593e-31
-6.5401e-17
-9.25175e-19
-1.72002e-16
9.25164e-19
-2.72234e-16
9.25201e-19
-2.97534e-16
-9.25212e-19
-1.13028e-16
9.25182e-19
5.32467e-16
0
2.1083e-15
0
5.44842e-15
9.25158e-19
1.18065e-14
9.2521e-19
2.27397e-14
-9.25173e-19
4.10074e-14
1.45842e-28
7.66897e-14
3.09181e-28
1.57472e-13
9.25171e-19
3.05273e-13
0
4.25558e-13
-3.46563e-28
1.00541e-13
-9.25187e-19
-3.22955e-13
9.25194e-19
4.90525e-12
-9.25176e-19
1.36862e-11
1.85007e-18
-6.75983e-11
-2.22847e-24
-8.62545e-10
-9.24604e-19
-8.32239e-09
9.25646e-19
-3.78492e-08
0
-6.66958e-08
0
-7.09515e-08
0
-6.86917e-08
0
-7.20225e-08
-1.84837e-18
-8.34322e-08
0
-5.47913e-08
-8.96583e-23
-1.0433e-08
3.70331e-18
-7.43647e-08
0
-1.7204e-07
-1.85004e-18
-1.43025e-07
0
1.97504e-08
1.84713e-18
2.32506e-07
1.84196e-18
2.67707e-07
0
1.15145e-08
3.68365e-18
-1.9727e-07
0
-6.35405e-08
-1.84478e-18
1.54698e-07
-1.85019e-18
1.53773e-07
0
3.93955e-08
0
-2.94391e-10
-1.84735e-18
7.70784e-08
0
1.80524e-07
1.85519e-18
1.55494e-07
-9.09697e-23
-4.07958e-08
-1.84069e-18
-2.25426e-07
0
-1.404e-07
1.86422e-18
1.52617e-07
0
2.98262e-07
0
1.67311e-07
1.84466e-18
-6.07194e-08
0
-2.18665e-07
1.84159e-18
-2.23896e-07
1.84279e-18
-6.28223e-08
-1.84363e-18
1.43117e-07
1.84229e-18
2.11917e-07
0
1.17271e-07
-1.84513e-18
-3.27553e-08
1.84553e-18
-1.75775e-07
-5.53492e-18
-2.07904e-07
-3.69914e-18
-4.83274e-08
-1.39474e-22
1.6856e-07
1.84959e-18
2.32488e-07
9.96344e-24
1.27012e-07
1.78474e-24
-2.09006e-08
-1.84723e-18
-1.62092e-07
-5.54808e-18
-2.08131e-07
-3.70395e-18
-8.1731e-08
-6.98122e-23
1.05174e-07
-8.18843e-23
2.16253e-07
-1.85708e-18
1.99006e-07
1.85488e-23
6.08469e-08
1.86778e-18
-1.11363e-07
1.86685e-18
-1.65034e-07
-1.84835e-18
-8.73945e-08
3.70846e-18
1.86166e-08
0
1.20622e-07
-5.5361e-23
1.49234e-07
0
5.82054e-08
0
-5.80128e-08
0
-1.25891e-07
0
-1.35566e-07
0
-9.01432e-08
0
-1.15928e-08
0
7.45698e-08
-3.67049e-18
1.2303e-07
0
1.58669e-07
0
1.77644e-07
0
4.70752e-08
0
-1.08933e-07
0
-8.25992e-08
0
1.66479e-08
0
5.48116e-08
-3.72362e-18
1.94897e-08
-3.7165e-18
-2.81503e-08
0
-1.85824e-08
3.69231e-18
2.88877e-08
0
5.92296e-08
5.72071e-23
2.48588e-08
-3.70991e-18
-2.86743e-08
-3.7056e-18
-2.79558e-08
0
-6.5704e-09
3.70552e-18
-5.19015e-10
0
1.73709e-10
3.70609e-18
3.00479e-10
3.70107e-18
3.50268e-10
0
3.85375e-10
0
3.83261e-10
-3.7017e-18
3.84518e-10
0
3.74166e-10
-1.00692e-26
3.66055e-10
-3.70081e-18
3.58163e-10
3.70001e-18
3.35623e-10
-3.70036e-18
3.12032e-10
0
2.87149e-10
-3.70008e-18
2.67326e-10
0
2.5369e-10
2.70045e-26
2.43148e-10
0
2.35954e-10
1.98651e-26
2.26264e-10
-3.69936e-18
2.16837e-10
7.4e-18
2.09065e-10
-3.69929e-18
2.03167e-10
-3.69996e-18
1.93748e-10
-3.69929e-18
1.77837e-10
0
1.56742e-10
0
1.29976e-10
3.41789e-26
1.01364e-10
0
6.84902e-11
0
3.76619e-11
0
6.31041e-12
3.94523e-26
-1.67591e-11
0
-3.04595e-11
0
-3.39437e-11
7.38328e-18
-3.16335e-11
-3.70423e-18
-2.47642e-11
0
-1.48758e-11
0
-1.46556e-12
0
1.48479e-11
3.2575e-26
2.18539e-11
0
2.86209e-11
-2.8813e-26
3.45123e-11
-3.69911e-18
4.05059e-11
-3.70325e-18
4.17029e-11
-3.69974e-18
4.07203e-11
-1.2116e-26
3.41485e-11
0
2.54257e-11
-1.10328e-26
1.37989e-11
0
-7.08254e-13
3.7017e-18
-1.82956e-11
0
-3.30585e-11
-3.70146e-18
-4.63423e-11
3.69989e-18
-5.92603e-11
0
-7.41019e-11
3.69974e-18
-9.01579e-11
3.70125e-18
-1.07302e-10
-3.69969e-18
-1.24362e-10
1.07701e-26
-1.41437e-10
3.69957e-18
-1.57363e-10
0
-1.72048e-10
0
-1.84465e-10
0
-1.95359e-10
0
-2.04685e-10
3.70096e-18
-2.13263e-10
0
-2.21393e-10
-3.70081e-18
-2.29332e-10
3.69937e-18
-2.36053e-10
0
-2.41368e-10
9.04208e-27
-2.44618e-10
-3.70074e-18
-2.45387e-10
-3.69934e-18
-2.43402e-10
-2.00121e-26
-2.37685e-10
3.69938e-18
-2.27787e-10
-7.40142e-18
-2.12807e-10
7.39878e-18
-1.92428e-10
7.40149e-18
-1.66254e-10
-3.69942e-18
-1.3453e-10
1.76615e-26
-9.7374e-11
3.69935e-18
-5.60608e-11
1.47757e-26
-1.12089e-11
3.69941e-18
3.62195e-11
3.70063e-18
8.58655e-11
3.69949e-18
1.36393e-10
-3.70064e-18
1.86988e-10
1.10984e-17
2.3592e-10
-2.05965e-27
2.82194e-10
1.49605e-26
3.24384e-10
7.40127e-18
3.62478e-10
0
3.95359e-10
0
4.23962e-10
0
4.47395e-10
0
4.65542e-10
-7.39912e-18
4.77582e-10
0
4.82614e-10
0
4.80628e-10
0
4.7161e-10
0
4.54855e-10
7.40129e-18
4.30351e-10
7.399e-18
3.97325e-10
0
3.55329e-10
0
3.04944e-10
0
2.4733e-10
0
1.83255e-10
0
1.14308e-10
-7.3991e-18
4.09932e-11
0
-3.5223e-11
-7.399e-18
-1.14158e-10
0
-1.95036e-10
-7.39896e-18
-2.77825e-10
0
-3.61871e-10
-7.39907e-18
-4.46324e-10
0
-5.31149e-10
-7.39896e-18
-6.16299e-10
0
-6.99369e-10
7.39903e-18
-7.78073e-10
-7.14279e-27
-8.48717e-10
-7.39901e-18
-9.13971e-10
0
-9.74053e-10
0
-1.03172e-09
7.40168e-18
-1.08598e-09
0
-1.14165e-09
0
-1.19476e-09
7.39856e-18
-1.25067e-09
0
-1.302e-09
7.3983e-18
-1.35806e-09
0
-1.40963e-09
0
-1.47372e-09
7.40317e-18
-1.53044e-09
-1.47935e-17
-1.59262e-09
0
-1.63449e-09
-7.39524e-18
-1.66443e-09
0
-1.67819e-09
0
-1.67851e-09
-7.40633e-18
-1.66365e-09
0
-1.63289e-09
-7.40718e-18
-1.58721e-09
-7.39146e-18
-1.52392e-09
7.40784e-18
-1.44847e-09
0
-1.3549e-09
0
-1.25629e-09
0
-1.13895e-09
0
-1.02202e-09
0
-8.89302e-10
0
-7.63794e-10
0
-6.28063e-10
7.40267e-18
-5.09755e-10
0
-3.88298e-10
0
-2.96379e-10
0
-2.0578e-10
0
-1.09369e-10
-7.40436e-18
1.16093e-11
-7.39199e-18
1.46424e-10
-7.42201e-18
3.08828e-10
0
5.06853e-10
-7.21617e-25
7.31745e-10
0
8.80053e-10
-7.39097e-18
9.74728e-10
0
1.0701e-09
-7.39449e-18
1.15145e-09
3.43482e-25
1.22782e-09
0
1.28768e-09
-7.40245e-18
1.34199e-09
0
1.38079e-09
0
1.41588e-09
-7.39874e-18
1.44074e-09
7.40042e-18
1.47224e-09
-2.27278e-25
1.51138e-09
1.31335e-25
1.5528e-09
-7.4004e-18
1.57646e-09
-1.13101e-25
1.58258e-09
-7.40086e-18