/*--------------------------------*- C++ -*----------------------------------*\
| =========                 |                                                 |
| \\      /  F ield         | foam-extend: Open Source CFD                    |
|  \\    /   O peration     | Version:     3.2                                |
|   \\  /    A nd           | Web:         http://www.foam-extend.org         |
|    \\/     M anipulation  | For copyright notice see file Copyright         |
\*---------------------------------------------------------------------------*/
FoamFile
{
    version     2.0;
    format      ascii;
    class       pointVectorField;
    location    "2020";
    object      newMeshPoints;
}
// * * * * * * * * * * * * * * * * * * * * * * * * * * * * * * * * * * * * * //

dimensions      [0 1 0 0 0 0 0];

internalField   nonuniform List<vector> 
67222
(
(0 0 0)
(0.0181818 0 -3.63636e-05)
(0.0363636 0 -7.27273e-05)
(0.0545455 0 -0.000109091)
(0.0727273 0 -0.000145455)
(0.0909091 0 -0.000181818)
(0.109091 0 -0.000218182)
(0.127273 0 -0.000254545)
(0.145455 0 -0.000290909)
(0.163636 0 -0.000327273)
(0.181818 0 -0.000363636)
(0.2 0 -0.000408595)
(0.218182 0 -0.000444959)
(0.236364 0 -0.000472727)
(0.254545 0 -0.000515995)
(0.272727 0 -0.000552359)
(0.290909 0 -0.000581818)
(0.309091 0 -0.000622991)
(0.327273 0 -0.000663597)
(0.345455 0 -0.000698794)
(0.363636 0 -0.000734263)
(0.381818 0 -0.000766984)
(0.4 0 -0.000802672)
(0.418182 0 -0.000839036)
(0.436364 0 -0.000872727)
(0.454545 0 -0.000909091)
(0.472727 0 -0.000945455)
(0.490909 0 -0.000983562)
(0.509091 0 -0.00101992)
(0.527273 0 -0.00105455)
(0.545455 0 -0.00109091)
(0.563636 0 -0.00112727)
(0.581818 0 -0.00116499)
(0.6 0 -0.00120265)
(0.618182 0 -0.00123891)
(0.636364 0 -0.00127518)
(0.654545 0 -0.00131029)
(0.672727 0 -0.00134658)
(0.690909 0 -0.00138404)
(0.709091 0 -0.00141927)
(0.727273 0 -0.00145559)
(0.745455 0 -0.00149296)
(0.763636 0 -0.00152828)
(0.781818 0 -0.0015646)
(0.8 0 -0.0016019)
(0.818182 0 -0.00163821)
(0.836364 0 -0.00167454)
(0.854545 0 -0.00171105)
(0.872727 0 -0.0017441)
(0.890909 0 -0.00179639)
(0.909091 0 -0.00180375)
(0.927273 0 -0.00186943)
(0.945455 0 -0.00187548)
(0.963636 0 -0.00195468)
(0.981818 0 -0.00193618)
(1 0 -0.00202819)
(1.01818 0 -0.00200816)
(1.03636 0 -0.00209896)
(1.05455 0 -0.00208375)
(1.07273 0 -0.00217473)
(1.09091 0 -0.0021522)
(1.10909 0 -0.00224498)
(1.12727 0 -0.00222282)
(1.14545 0 -0.0023186)
(1.16364 0 -0.0023039)
(1.18182 0 -0.00239285)
(1.2 0 -0.00236903)
(1.21818 0 -0.00246307)
(1.23636 0 -0.00244394)
(1.25455 0 -0.00253959)
(1.27273 0 -0.00251508)
(1.29091 0 -0.00260009)
(1.30909 0 -0.00256622)
(1.32727 0 -0.00263368)
(1.34545 0 -0.00261289)
(1.36364 0 -0.00258666)
(1.38182 0 -0.00224906)
(1.4 0 -0.00275185)
(1.41818 0 -0.00286106)
(1.43636 0 -0.00279994)
(1.45455 0 -0.00289638)
(1.47273 0 -0.0028629)
(1.49091 0 -0.00294795)
(1.50909 0 -0.00294457)
(1.52727 0 -0.00300826)
(1.54545 0 -0.00304103)
(1.56364 0 -0.00302471)
(1.58182 0 -0.003079)
(1.6 0 -0.00306293)
(1.61818 0 -0.00308238)
(1.63636 0 -0.0030873)
(1.65455 0 -0.00315603)
(1.67273 0 -0.00312075)
(1.69091 0 -0.00317768)
(1.70909 0 -0.00314736)
(1.72727 0 -0.00318052)
(1.74545 0 -0.00316131)
(1.76364 0 -0.00317349)
(1.78182 0 -0.00317128)
(1.8 0 -0.00314524)
(1.81818 0 -0.00294514)
(1.83636 0 -0.00299029)
(1.85455 0 -0.00274767)
(1.87273 0 -0.00338)
(1.89091 0 -0.00348343)
(1.90909 0 -0.00323171)
(1.92727 0 -0.00328403)
(1.94545 0 -0.00308386)
(1.96364 0 -0.00304696)
(1.98182 0 -0.003067)
(2 0 -0.00298463)
(2.01818 0 -0.00302272)
(2.03636 0 -0.00295813)
(2.05455 0 -0.00293635)
(2.07273 0 -0.00290405)
(2.09091 0 -0.00290473)
(2.10909 0 -0.00280897)
(2.12727 0 -0.00282632)
(2.14545 0 -0.00244942)
(2.16364 0 -0.00317354)
(2.18182 0 -0.00299362)
(2.2 0 -0.00277207)
(2.21818 0 -0.00262807)
(2.23636 0 -0.00231846)
(2.25455 0 -0.00273022)
(2.27273 0 -0.00262991)
(2.29091 0 -0.00242085)
(2.30909 0 -0.00220373)
(2.32727 0 -0.00197077)
(2.34545 0 -0.00249752)
(2.36364 0 -0.00237136)
(2.38182 0 -0.00225091)
(2.4 0 -0.00210045)
(2.41818 0 -0.00192434)
(2.43636 0 -0.00169608)
(2.45455 0 -0.00147509)
(2.47273 0 -0.00117743)
(2.49091 0 -0.000794557)
(2.50909 0 -0.000790056)
(2.52727 0 -0.000724117)
(2.54545 0 -0.000638767)
(2.56364 0 -0.000526881)
(2.58182 0 -0.000408257)
(2.6 0 -0.000284974)
(2.61818 0 -0.00017168)
(2.63636 0 -5.36699e-05)
(2.65455 0 5.09963e-05)
(2.67273 0 0.000159641)
(2.69091 0 0.000252644)
(2.70909 0 0.000350033)
(2.72727 0 0.000431127)
(2.74545 0 0.000517824)
(2.76364 0 0.000588876)
(2.78182 0 0.000664833)
(2.8 0 0.000725733)
(2.81818 0 0.00079171)
(2.83636 0 0.000841801)
(2.85455 0 0.000899852)
(2.87273 0 0.000931167)
(2.89091 0 0.000985885)
(2.90909 0 0.00098398)
(2.92727 0 0.00105244)
(2.94545 0 0.00100714)
(2.96364 0 0.0010827)
(2.98182 0 0.000993631)
(3 0 0.00106291)
(3.01818 0 0.000930825)
(3.03636 0 0.000960378)
(3.05455 0 0.000793157)
(3.07273 0 0.00074979)
(3.09091 0 0.000550047)
(3.10909 0 0.000551853)
(3.12727 0 0.000460255)
(3.14545 0 0.0004632)
(3.16364 0 0.00040404)
(3.18182 0 0.000407908)
(3.2 0 0.000374026)
(3.21818 0 0.000381711)
(3.23636 0 0.000368932)
(3.25455 0 0.000385429)
(3.27273 0 0.000386955)
(3.29091 0 0.000414692)
(3.30909 0 0.000424628)
(3.32727 0 0.000459277)
(3.34545 0 0.000474797)
(3.36364 0 0.000513959)
(3.38182 0 0.000533197)
(3.4 0 0.000575213)
(3.41818 0 0.000596878)
(3.43636 0 0.000640704)
(3.45455 0 0.00066383)
(3.47273 0 0.000708476)
(3.49091 0 0.000732317)
(3.50909 0 0.000777161)
(3.52727 0 0.000800978)
(3.54545 0 0.000845176)
(3.56364 0 0.000868238)
(3.58182 0 0.000911116)
(3.6 0 0.000932991)
(3.61818 0 0.000974095)
(3.63636 0 0.000994511)
(3.65455 0 0.00103369)
(3.67273 0 0.00105243)
(3.69091 0 0.00108946)
(3.70909 0 0.00110646)
(3.72727 0 0.00114137)
(3.74545 0 0.00115662)
(3.76364 0 0.00118946)
(3.78182 0 0.00120299)
(3.8 0 0.00123378)
(3.81818 0 0.00124556)
(3.83636 0 0.00127425)
(3.85455 0 0.00128429)
(3.87273 0 0.001311)
(3.89091 0 0.00131934)
(3.90909 0 0.0013442)
(3.92727 0 0.00135097)
(3.94545 0 0.00137404)
(3.96364 0 0.00137937)
(3.98182 0 0.00140091)
(4 0 0.001405)
(4.01818 0 0.00142529)
(4.03636 0 0.00142839)
(4.05455 0 0.00144772)
(4.07273 0 0.00145016)
(4.09091 0 0.00146896)
(4.10909 0 0.00147097)
(4.12727 0 0.00148943)
(4.14545 0 0.00149111)
(4.16364 0 0.00150934)
(4.18182 0 0.0015107)
(4.2 0 0.00152865)
(4.21818 0 0.00152976)
(4.23636 0 0.00154755)
(4.25455 0 0.00154846)
(4.27273 0 0.00156626)
(4.29091 0 0.0015672)
(4.30909 0 0.00158515)
(4.32727 0 0.00158627)
(4.34545 0 0.00160463)
(4.36364 0 0.00160612)
(4.38182 0 0.00162513)
(4.4 0 0.00162718)
(4.41818 0 0.00164724)
(4.43636 0 0.00165016)
(4.45455 0 0.00167144)
(4.47273 0 0.0016752)
(4.49091 0 0.00169766)
(4.50909 0 0.00170203)
(4.52727 0 0.00172569)
(4.54545 0 0.00173043)
(4.56364 0 0.00175547)
(4.58182 0 0.00176014)
(4.6 0 0.00178697)
(4.61818 0 0.00179086)
(4.63636 0 0.00182062)
(4.65455 0 0.00182252)
(4.67273 0 0.00185725)
(4.69091 0 0.00185526)
(4.70909 0 0.0018974)
(4.72727 0 0.00188928)
(4.74545 0 0.00194083)
(4.76364 0 0.00192401)
(4.78182 0 0.00198419)
(4.8 0 0.00195716)
(4.81818 0 0.00202428)
(4.83636 0 0.0019865)
(4.85455 0 0.00205771)
(4.87273 0 0.00200997)
(4.89091 0 0.00208057)
(4.90909 0 0.00202557)
(4.92727 0 0.00208946)
(4.94545 0 0.00203257)
(4.96364 0 0.00208251)
(4.98182 0 0.00203216)
(5 0 0.00206081)
(5.01818 0 0.00202881)
(5.03636 0 0.00203197)
(5.05455 0 0.00203165)
(5.07273 0 0.00201487)
(5.09091 0 0.0020429)
(5.10909 0 0.00199272)
(5.12727 0 0.00201156)
(5.14545 0 0.00191534)
(5.16364 0 0.00170605)
(5.18182 0 0.00285324)
(5.2 0 0.0026876)
(5.21818 0 0.00264686)
(5.23636 0 0.00254523)
(5.25455 0 0.00253811)
(5.27273 0 0.00245966)
(5.29091 0 0.00244542)
(5.30909 0 0.00237995)
(5.32727 0 0.00235488)
(5.34545 0 0.002299)
(5.36364 0 0.0022655)
(5.38182 0 0.00221726)
(5.4 0 0.00217786)
(5.41818 0 0.00213466)
(5.43636 0 0.00209009)
(5.45455 0 0.00205192)
(5.47273 0 0.00200543)
(5.49091 0 0.00197163)
(5.50909 0 0.00192514)
(5.52727 0 0.001895)
(5.54545 0 0.00184942)
(5.56364 0 0.00182237)
(5.58182 0 0.00177843)
(5.6 0 0.00175407)
(5.61818 0 0.00171239)
(5.63636 0 0.0016905)
(5.65455 0 0.00165151)
(5.67273 0 0.00163177)
(5.69091 0 0.00159582)
(5.70909 0 0.00157804)
(5.72727 0 0.00154535)
(5.74545 0 0.00152945)
(5.76364 0 0.00150019)
(5.78182 0 0.00148602)
(5.8 0 0.00146025)
(5.81818 0 0.00144777)
(5.83636 0 0.00142542)
(5.85455 0 0.00141459)
(5.87273 0 0.00139576)
(5.89091 0 0.0013866)
(5.90909 0 0.00137122)
(5.92727 0 0.0013638)
(5.94545 0 0.00135195)
(5.96364 0 0.00134653)
(5.98182 0 0.00133855)
(6 0 0.0013356)
(6.01818 0 0.00133192)
(6.03636 0 0.00133271)
(6.05455 0 0.00133479)
(6.07273 0 0.00134083)
(6.09091 0 0.00134761)
(6.10909 0 0.0013581)
(6.12727 0 0.00136899)
(6.14545 0 0.00138343)
(6.16364 0 0.00139807)
(6.18182 0 0.00141614)
(6.2 0 0.00143417)
(6.21818 0 0.00145547)
(6.23636 0 0.00147652)
(6.25455 0 0.00150064)
(6.27273 0 0.0015242)
(6.29091 0 0.00155052)
(6.30909 0 0.00157602)
(6.32727 0 0.00160405)
(6.34545 0 0.00163092)
(6.36364 0 0.00165996)
(6.38182 0 0.00168749)
(6.4 0 0.00171688)
(6.41818 0 0.00174275)
(6.43636 0 0.00177066)
(6.45455 0 0.00179133)
(6.47273 0 0.001817)
(6.49091 0 0.00182848)
(6.50909 0 0.00185388)
(6.52727 0 0.00184886)
(6.54545 0 0.00187659)
(6.56364 0 0.00184616)
(6.58182 0 0.00185652)
(6.6 0 0.00179263)
(6.61818 0 0.001774)
(6.63636 0 0.00173789)
(6.65455 0 0.00170115)
(6.67273 0 0.00166435)
(6.69091 0 0.00162826)
(6.70909 0 0.00159147)
(6.72727 0 0.00155533)
(6.74545 0 0.00151886)
(6.76364 0 0.00148242)
(6.78182 0 0.00144596)
(6.8 0 0.00140964)
(6.81818 0 0.00137315)
(6.83636 0 0.00133702)
(6.85455 0 0.00130017)
(6.87273 0 0.00126382)
(6.89091 0 0.00122702)
(6.90909 0 0.00119058)
(6.92727 0 0.0011552)
(6.94545 0 0.00112167)
(6.96364 0 0.00108217)
(6.98182 0 0.00105213)
(7 0 0.00100533)
(7.01818 0 0.000987294)
(7.03636 0 0.000923291)
(7.05455 0 0.000931524)
(7.07273 0 0.000832209)
(7.09091 0 0.000884221)
(7.10909 0 0.00072965)
(7.12727 0 0.00083907)
(7.14545 0 0.000636824)
(7.16364 0 0.000820441)
(7.18182 0 0.000490686)
(7.2 0 0.000111621)
(7.21818 0 0.00107708)
(7.23636 0 0.000576736)
(7.25455 0 0.000456903)
(7.27273 0 0.000488769)
(7.29091 0 0.000391803)
(7.30909 0 0.000408312)
(7.32727 0 0.000330709)
(7.34545 0 0.000323971)
(7.36364 0 0.000273931)
(7.38182 0 0.000235518)
(7.4 0 0.000218872)
(7.41818 0 0.000145145)
(7.43636 0 0.000174619)
(7.45455 0 4.39275e-05)
(7.47273 0 0.000146717)
(7.49091 0 -4.63054e-05)
(7.50909 0 0.000141067)
(7.52727 0 -0.000171616)
(7.54545 0 -0.000584377)
(7.56364 0 0.000434649)
(7.58182 0 -8.84554e-05)
(7.6 0 -0.000247293)
(7.61818 0 -0.000183281)
(7.63636 0 -0.000309093)
(7.65455 0 -0.000269055)
(7.67273 0 -0.000370155)
(7.69091 0 -0.00035588)
(7.70909 0 -0.000433065)
(7.72727 0 -0.000439345)
(7.74545 0 -0.000498986)
(7.76364 0 -0.000519187)
(7.78182 0 -0.000567675)
(7.8 0 -0.00059522)
(7.81818 0 -0.000636621)
(7.83636 0 -0.000668583)
(7.85455 0 -0.000706524)
(7.87273 0 -0.000740411)
(7.89091 0 -0.000777073)
(7.90909 0 -0.000812317)
(7.92727 0 -0.000848116)
(7.94545 0 -0.00088361)
(7.96364 0 -0.000919883)
(7.98182 0 -0.000955799)
(8 0 -0.000991927)
(8.01818 0 -0.00102812)
(8.03636 0 -0.00106415)
(8.05455 0 -0.00110035)
(8.07273 0 -0.00113638)
(8.09091 0 -0.0011727)
(8.10909 0 -0.00120917)
(8.12727 0 -0.00124548)
(8.14545 0 -0.00128145)
(8.16364 0 -0.00131762)
(8.18182 0 -0.00135387)
(8.2 0 -0.0013904)
(8.21818 0 -0.00142688)
(8.23636 0 -0.00146297)
(8.25455 0 -0.00149948)
(8.27273 0 -0.00153573)
(8.29091 0 -0.00157161)
(8.30909 0 -0.00160799)
(8.32727 0 -0.00164448)
(8.34545 0 -0.00168089)
(8.36364 0 -0.00171756)
(8.38182 0 -0.00175344)
(8.4 0 -0.00178992)
(8.41818 0 -0.0018265)
(8.43636 0 -0.00186218)
(8.45455 0 -0.00190077)
(8.47273 0 -0.00193194)
(8.49091 0 -0.00197853)
(8.50909 0 -0.00199593)
(8.52727 0 -0.002065)
(8.54545 0 -0.00204745)
(8.56364 0 -0.00216778)
(8.58182 0 -0.00206698)
(8.6 0 -0.00227737)
(8.61818 0 -0.00202393)
(8.63636 0 -0.002419)
(8.65455 0 -0.00280975)
(8.67273 0 -0.00176035)
(8.69091 0 -0.00223449)
(8.70909 0 -0.0024956)
(8.72727 0 -0.00237499)
(8.74545 0 -0.00252937)
(8.76364 0 -0.00248758)
(8.78182 0 -0.00257964)
(8.8 0 -0.00258366)
(8.81818 0 -0.00264006)
(8.83636 0 -0.00266366)
(8.85455 0 -0.00270372)
(8.87273 0 -0.00273516)
(8.89091 0 -0.00277222)
(8.90909 0 -0.00280698)
(8.92727 0 -0.00284318)
(8.94545 0 -0.00287885)
(8.96364 0 -0.00291511)
(8.98182 0 -0.00295097)
(9 0 -0.00298709)
(9.01818 0 -0.00302382)
(9.03636 0 -0.00305986)
(9.05455 0 -0.0030962)
(9.07273 0 -0.00313219)
(9.09091 0 -0.00316851)
(9.10909 0 -0.00320466)
(9.12727 0 -0.00324053)
(9.14545 0 -0.00327701)
(9.16364 0 -0.00331323)
(9.18182 0 -0.00335009)
(9.2 0 -0.00338619)
(9.21818 0 -0.00342211)
(9.23636 0 -0.00345855)
(9.25455 0 -0.00349468)
(9.27273 0 -0.00353124)
(9.29091 0 -0.00356733)
(9.30909 0 -0.00360329)
(9.32727 0 -0.0036399)
(9.34545 0 -0.00367635)
(9.36364 0 -0.00371282)
(9.38182 0 -0.00374843)
(9.4 0 -0.00378632)
(9.41818 0 -0.00381874)
(9.43636 0 -0.00386253)
(9.45455 0 -0.00388399)
(9.47273 0 -0.00394382)
(9.49091 0 -0.00394153)
(9.50909 0 -0.00403686)
(9.52727 0 -0.00398627)
(9.54545 0 -0.0041406)
(9.56364 0 -0.0040277)
(9.58182 0 -0.00425504)
(9.6 0 -0.0040618)
(9.61818 0 -0.00435916)
(9.63636 0 -0.00408339)
(9.65455 0 -0.00441788)
(9.67273 0 -0.00411696)
(9.69091 0 -0.00442879)
(9.70909 0 -0.00416512)
(9.72727 0 -0.00479565)
(9.74545 0 -0.00551791)
(9.76364 0 -0.00726207)
(9.78182 0 -0.0098008)
(9.8 0 -0.013794)
(9.81818 0 -0.0196364)
(9.83636 0 -0.0196727)
(9.85455 0 -0.0197091)
(9.87273 0 -0.0197455)
(9.89091 0 -0.0197818)
(9.90909 0 -0.0198182)
(9.92727 0 -0.0198545)
(9.94545 0 -0.0198909)
(9.96364 0 -0.0199273)
(9.98182 0 -0.0199636)
(10 0 -0.02)
(0 0.02 0)
(0.0181818 0.02 -3.63636e-05)
(0.0363636 0.02 -7.27273e-05)
(0.0545455 0.02 -0.000109091)
(0.0727273 0.02 -0.000145455)
(0.0909091 0.02 -0.000181818)
(0.109091 0.02 -0.000218182)
(0.127273 0.02 -0.000254545)
(0.145455 0.02 -0.000290909)
(0.163636 0.02 -0.000327273)
(0.181818 0.02 -0.000363636)
(0.2 0.02 -0.000408595)
(0.218182 0.02 -0.000444959)
(0.236364 0.02 -0.000472727)
(0.254545 0.02 -0.000515995)
(0.272727 0.02 -0.000552359)
(0.290909 0.02 -0.000581818)
(0.309091 0.02 -0.000622991)
(0.327273 0.02 -0.000663597)
(0.345455 0.02 -0.000698794)
(0.363636 0.02 -0.000734263)
(0.381818 0.02 -0.000766984)
(0.4 0.02 -0.000802672)
(0.418182 0.02 -0.000839036)
(0.436364 0.02 -0.000872727)
(0.454545 0.02 -0.000909091)
(0.472727 0.02 -0.000945455)
(0.490909 0.02 -0.000983562)
(0.509091 0.02 -0.00101992)
(0.527273 0.02 -0.00105455)
(0.545455 0.02 -0.00109091)
(0.563636 0.02 -0.00112727)
(0.581818 0.02 -0.00116499)
(0.6 0.02 -0.00120265)
(0.618182 0.02 -0.00123891)
(0.636364 0.02 -0.00127518)
(0.654545 0.02 -0.00131029)
(0.672727 0.02 -0.00134658)
(0.690909 0.02 -0.00138404)
(0.709091 0.02 -0.00141927)
(0.727273 0.02 -0.00145559)
(0.745455 0.02 -0.00149296)
(0.763636 0.02 -0.00152828)
(0.781818 0.02 -0.0015646)
(0.8 0.02 -0.0016019)
(0.818182 0.02 -0.00163821)
(0.836364 0.02 -0.00167454)
(0.854545 0.02 -0.00171105)
(0.872727 0.02 -0.0017441)
(0.890909 0.02 -0.00179639)
(0.909091 0.02 -0.00180375)
(0.927273 0.02 -0.00186943)
(0.945455 0.02 -0.00187548)
(0.963636 0.02 -0.00195468)
(0.981818 0.02 -0.00193618)
(1 0.02 -0.00202819)
(1.01818 0.02 -0.00200816)
(1.03636 0.02 -0.00209896)
(1.05455 0.02 -0.00208375)
(1.07273 0.02 -0.00217473)
(1.09091 0.02 -0.0021522)
(1.10909 0.02 -0.00224498)
(1.12727 0.02 -0.00222282)
(1.14545 0.02 -0.0023186)
(1.16364 0.02 -0.0023039)
(1.18182 0.02 -0.00239285)
(1.2 0.02 -0.00236903)
(1.21818 0.02 -0.00246307)
(1.23636 0.02 -0.00244394)
(1.25455 0.02 -0.00253959)
(1.27273 0.02 -0.00251508)
(1.29091 0.02 -0.00260009)
(1.30909 0.02 -0.00256622)
(1.32727 0.02 -0.00263368)
(1.34545 0.02 -0.00261289)
(1.36364 0.02 -0.00258666)
(1.38182 0.02 -0.00224906)
(1.4 0.02 -0.00275185)
(1.41818 0.02 -0.00286106)
(1.43636 0.02 -0.00279994)
(1.45455 0.02 -0.00289638)
(1.47273 0.02 -0.0028629)
(1.49091 0.02 -0.00294795)
(1.50909 0.02 -0.00294457)
(1.52727 0.02 -0.00300826)
(1.54545 0.02 -0.00304103)
(1.56364 0.02 -0.00302471)
(1.58182 0.02 -0.003079)
(1.6 0.02 -0.00306293)
(1.61818 0.02 -0.00308238)
(1.63636 0.02 -0.0030873)
(1.65455 0.02 -0.00315603)
(1.67273 0.02 -0.00312075)
(1.69091 0.02 -0.00317768)
(1.70909 0.02 -0.00314736)
(1.72727 0.02 -0.00318052)
(1.74545 0.02 -0.00316131)
(1.76364 0.02 -0.00317349)
(1.78182 0.02 -0.00317128)
(1.8 0.02 -0.00314524)
(1.81818 0.02 -0.00294514)
(1.83636 0.02 -0.00299029)
(1.85455 0.02 -0.00274767)
(1.87273 0.02 -0.00338)
(1.89091 0.02 -0.00348343)
(1.90909 0.02 -0.00323171)
(1.92727 0.02 -0.00328403)
(1.94545 0.02 -0.00308386)
(1.96364 0.02 -0.00304696)
(1.98182 0.02 -0.003067)
(2 0.02 -0.00298463)
(2.01818 0.02 -0.00302272)
(2.03636 0.02 -0.00295813)
(2.05455 0.02 -0.00293635)
(2.07273 0.02 -0.00290405)
(2.09091 0.02 -0.00290473)
(2.10909 0.02 -0.00280897)
(2.12727 0.02 -0.00282632)
(2.14545 0.02 -0.00244942)
(2.16364 0.02 -0.00317354)
(2.18182 0.02 -0.00299362)
(2.2 0.02 -0.00277207)
(2.21818 0.02 -0.00262807)
(2.23636 0.02 -0.00231846)
(2.25455 0.02 -0.00273022)
(2.27273 0.02 -0.00262991)
(2.29091 0.02 -0.00242085)
(2.30909 0.02 -0.00220373)
(2.32727 0.02 -0.00197077)
(2.34545 0.02 -0.00249752)
(2.36364 0.02 -0.00237136)
(2.38182 0.02 -0.00225091)
(2.4 0.02 -0.00210045)
(2.41818 0.02 -0.00192434)
(2.43636 0.02 -0.00169608)
(2.45455 0.02 -0.00147509)
(2.47273 0.02 -0.00117743)
(2.49091 0.02 -0.000794557)
(2.50909 0.02 -0.000790056)
(2.52727 0.02 -0.000724117)
(2.54545 0.02 -0.000638767)
(2.56364 0.02 -0.000526881)
(2.58182 0.02 -0.000408257)
(2.6 0.02 -0.000284974)
(2.61818 0.02 -0.00017168)
(2.63636 0.02 -5.36699e-05)
(2.65455 0.02 5.09963e-05)
(2.67273 0.02 0.000159641)
(2.69091 0.02 0.000252644)
(2.70909 0.02 0.000350033)
(2.72727 0.02 0.000431127)
(2.74545 0.02 0.000517824)
(2.76364 0.02 0.000588876)
(2.78182 0.02 0.000664833)
(2.8 0.02 0.000725733)
(2.81818 0.02 0.00079171)
(2.83636 0.02 0.000841801)
(2.85455 0.02 0.000899852)
(2.87273 0.02 0.000931167)
(2.89091 0.02 0.000985885)
(2.90909 0.02 0.00098398)
(2.92727 0.02 0.00105244)
(2.94545 0.02 0.00100714)
(2.96364 0.02 0.0010827)
(2.98182 0.02 0.000993631)
(3 0.02 0.00106291)
(3.01818 0.02 0.000930825)
(3.03636 0.02 0.000960378)
(3.05455 0.02 0.000793157)
(3.07273 0.02 0.00074979)
(3.09091 0.02 0.000550047)
(3.10909 0.02 0.000551853)
(3.12727 0.02 0.000460255)
(3.14545 0.02 0.0004632)
(3.16364 0.02 0.00040404)
(3.18182 0.02 0.000407908)
(3.2 0.02 0.000374026)
(3.21818 0.02 0.000381711)
(3.23636 0.02 0.000368932)
(3.25455 0.02 0.000385429)
(3.27273 0.02 0.000386955)
(3.29091 0.02 0.000414692)
(3.30909 0.02 0.000424628)
(3.32727 0.02 0.000459277)
(3.34545 0.02 0.000474797)
(3.36364 0.02 0.000513959)
(3.38182 0.02 0.000533197)
(3.4 0.02 0.000575213)
(3.41818 0.02 0.000596878)
(3.43636 0.02 0.000640704)
(3.45455 0.02 0.00066383)
(3.47273 0.02 0.000708476)
(3.49091 0.02 0.000732317)
(3.50909 0.02 0.000777161)
(3.52727 0.02 0.000800978)
(3.54545 0.02 0.000845176)
(3.56364 0.02 0.000868238)
(3.58182 0.02 0.000911116)
(3.6 0.02 0.000932991)
(3.61818 0.02 0.000974095)
(3.63636 0.02 0.000994511)
(3.65455 0.02 0.00103369)
(3.67273 0.02 0.00105243)
(3.69091 0.02 0.00108946)
(3.70909 0.02 0.00110646)
(3.72727 0.02 0.00114137)
(3.74545 0.02 0.00115662)
(3.76364 0.02 0.00118946)
(3.78182 0.02 0.00120299)
(3.8 0.02 0.00123378)
(3.81818 0.02 0.00124556)
(3.83636 0.02 0.00127425)
(3.85455 0.02 0.00128429)
(3.87273 0.02 0.001311)
(3.89091 0.02 0.00131934)
(3.90909 0.02 0.0013442)
(3.92727 0.02 0.00135097)
(3.94545 0.02 0.00137404)
(3.96364 0.02 0.00137937)
(3.98182 0.02 0.00140091)
(4 0.02 0.001405)
(4.01818 0.02 0.00142529)
(4.03636 0.02 0.00142839)
(4.05455 0.02 0.00144772)
(4.07273 0.02 0.00145016)
(4.09091 0.02 0.00146896)
(4.10909 0.02 0.00147097)
(4.12727 0.02 0.00148943)
(4.14545 0.02 0.00149111)
(4.16364 0.02 0.00150934)
(4.18182 0.02 0.0015107)
(4.2 0.02 0.00152865)
(4.21818 0.02 0.00152976)
(4.23636 0.02 0.00154755)
(4.25455 0.02 0.00154846)
(4.27273 0.02 0.00156626)
(4.29091 0.02 0.0015672)
(4.30909 0.02 0.00158515)
(4.32727 0.02 0.00158627)
(4.34545 0.02 0.00160463)
(4.36364 0.02 0.00160612)
(4.38182 0.02 0.00162513)
(4.4 0.02 0.00162718)
(4.41818 0.02 0.00164724)
(4.43636 0.02 0.00165016)
(4.45455 0.02 0.00167144)
(4.47273 0.02 0.0016752)
(4.49091 0.02 0.00169766)
(4.50909 0.02 0.00170203)
(4.52727 0.02 0.00172569)
(4.54545 0.02 0.00173043)
(4.56364 0.02 0.00175547)
(4.58182 0.02 0.00176014)
(4.6 0.02 0.00178697)
(4.61818 0.02 0.00179086)
(4.63636 0.02 0.00182062)
(4.65455 0.02 0.00182252)
(4.67273 0.02 0.00185725)
(4.69091 0.02 0.00185526)
(4.70909 0.02 0.0018974)
(4.72727 0.02 0.00188928)
(4.74545 0.02 0.00194083)
(4.76364 0.02 0.00192401)
(4.78182 0.02 0.00198419)
(4.8 0.02 0.00195716)
(4.81818 0.02 0.00202428)
(4.83636 0.02 0.0019865)
(4.85455 0.02 0.00205771)
(4.87273 0.02 0.00200997)
(4.89091 0.02 0.00208057)
(4.90909 0.02 0.00202557)
(4.92727 0.02 0.00208946)
(4.94545 0.02 0.00203257)
(4.96364 0.02 0.00208251)
(4.98182 0.02 0.00203216)
(5 0.02 0.00206081)
(5.01818 0.02 0.00202881)
(5.03636 0.02 0.00203197)
(5.05455 0.02 0.00203165)
(5.07273 0.02 0.00201487)
(5.09091 0.02 0.0020429)
(5.10909 0.02 0.00199272)
(5.12727 0.02 0.00201156)
(5.14545 0.02 0.00191534)
(5.16364 0.02 0.00170605)
(5.18182 0.02 0.00285324)
(5.2 0.02 0.0026876)
(5.21818 0.02 0.00264686)
(5.23636 0.02 0.00254523)
(5.25455 0.02 0.00253811)
(5.27273 0.02 0.00245966)
(5.29091 0.02 0.00244542)
(5.30909 0.02 0.00237995)
(5.32727 0.02 0.00235488)
(5.34545 0.02 0.002299)
(5.36364 0.02 0.0022655)
(5.38182 0.02 0.00221726)
(5.4 0.02 0.00217786)
(5.41818 0.02 0.00213466)
(5.43636 0.02 0.00209009)
(5.45455 0.02 0.00205192)
(5.47273 0.02 0.00200543)
(5.49091 0.02 0.00197163)
(5.50909 0.02 0.00192514)
(5.52727 0.02 0.001895)
(5.54545 0.02 0.00184942)
(5.56364 0.02 0.00182237)
(5.58182 0.02 0.00177843)
(5.6 0.02 0.00175407)
(5.61818 0.02 0.00171239)
(5.63636 0.02 0.0016905)
(5.65455 0.02 0.00165151)
(5.67273 0.02 0.00163177)
(5.69091 0.02 0.00159582)
(5.70909 0.02 0.00157804)
(5.72727 0.02 0.00154535)
(5.74545 0.02 0.00152945)
(5.76364 0.02 0.00150019)
(5.78182 0.02 0.00148602)
(5.8 0.02 0.00146025)
(5.81818 0.02 0.00144777)
(5.83636 0.02 0.00142542)
(5.85455 0.02 0.00141459)
(5.87273 0.02 0.00139576)
(5.89091 0.02 0.0013866)
(5.90909 0.02 0.00137122)
(5.92727 0.02 0.0013638)
(5.94545 0.02 0.00135195)
(5.96364 0.02 0.00134653)
(5.98182 0.02 0.00133855)
(6 0.02 0.0013356)
(6.01818 0.02 0.00133192)
(6.03636 0.02 0.00133271)
(6.05455 0.02 0.00133479)
(6.07273 0.02 0.00134083)
(6.09091 0.02 0.00134761)
(6.10909 0.02 0.0013581)
(6.12727 0.02 0.00136899)
(6.14545 0.02 0.00138343)
(6.16364 0.02 0.00139807)
(6.18182 0.02 0.00141614)
(6.2 0.02 0.00143417)
(6.21818 0.02 0.00145547)
(6.23636 0.02 0.00147652)
(6.25455 0.02 0.00150064)
(6.27273 0.02 0.0015242)
(6.29091 0.02 0.00155052)
(6.30909 0.02 0.00157602)
(6.32727 0.02 0.00160405)
(6.34545 0.02 0.00163092)
(6.36364 0.02 0.00165996)
(6.38182 0.02 0.00168749)
(6.4 0.02 0.00171688)
(6.41818 0.02 0.00174275)
(6.43636 0.02 0.00177066)
(6.45455 0.02 0.00179133)
(6.47273 0.02 0.001817)
(6.49091 0.02 0.00182848)
(6.50909 0.02 0.00185388)
(6.52727 0.02 0.00184886)
(6.54545 0.02 0.00187659)
(6.56364 0.02 0.00184616)
(6.58182 0.02 0.00185652)
(6.6 0.02 0.00179263)
(6.61818 0.02 0.001774)
(6.63636 0.02 0.00173789)
(6.65455 0.02 0.00170115)
(6.67273 0.02 0.00166435)
(6.69091 0.02 0.00162826)
(6.70909 0.02 0.00159147)
(6.72727 0.02 0.00155533)
(6.74545 0.02 0.00151886)
(6.76364 0.02 0.00148242)
(6.78182 0.02 0.00144596)
(6.8 0.02 0.00140964)
(6.81818 0.02 0.00137315)
(6.83636 0.02 0.00133702)
(6.85455 0.02 0.00130017)
(6.87273 0.02 0.00126382)
(6.89091 0.02 0.00122702)
(6.90909 0.02 0.00119058)
(6.92727 0.02 0.0011552)
(6.94545 0.02 0.00112167)
(6.96364 0.02 0.00108217)
(6.98182 0.02 0.00105213)
(7 0.02 0.00100533)
(7.01818 0.02 0.000987294)
(7.03636 0.02 0.000923291)
(7.05455 0.02 0.000931524)
(7.07273 0.02 0.000832209)
(7.09091 0.02 0.000884221)
(7.10909 0.02 0.00072965)
(7.12727 0.02 0.00083907)
(7.14545 0.02 0.000636824)
(7.16364 0.02 0.000820441)
(7.18182 0.02 0.000490686)
(7.2 0.02 0.000111621)
(7.21818 0.02 0.00107708)
(7.23636 0.02 0.000576736)
(7.25455 0.02 0.000456903)
(7.27273 0.02 0.000488769)
(7.29091 0.02 0.000391803)
(7.30909 0.02 0.000408312)
(7.32727 0.02 0.000330709)
(7.34545 0.02 0.000323971)
(7.36364 0.02 0.000273931)
(7.38182 0.02 0.000235518)
(7.4 0.02 0.000218872)
(7.41818 0.02 0.000145145)
(7.43636 0.02 0.000174619)
(7.45455 0.02 4.39275e-05)
(7.47273 0.02 0.000146717)
(7.49091 0.02 -4.63054e-05)
(7.50909 0.02 0.000141067)
(7.52727 0.02 -0.000171616)
(7.54545 0.02 -0.000584377)
(7.56364 0.02 0.000434649)
(7.58182 0.02 -8.84554e-05)
(7.6 0.02 -0.000247293)
(7.61818 0.02 -0.000183281)
(7.63636 0.02 -0.000309093)
(7.65455 0.02 -0.000269055)
(7.67273 0.02 -0.000370155)
(7.69091 0.02 -0.00035588)
(7.70909 0.02 -0.000433065)
(7.72727 0.02 -0.000439345)
(7.74545 0.02 -0.000498986)
(7.76364 0.02 -0.000519187)
(7.78182 0.02 -0.000567675)
(7.8 0.02 -0.00059522)
(7.81818 0.02 -0.000636621)
(7.83636 0.02 -0.000668583)
(7.85455 0.02 -0.000706524)
(7.87273 0.02 -0.000740411)
(7.89091 0.02 -0.000777073)
(7.90909 0.02 -0.000812317)
(7.92727 0.02 -0.000848116)
(7.94545 0.02 -0.00088361)
(7.96364 0.02 -0.000919883)
(7.98182 0.02 -0.000955799)
(8 0.02 -0.000991927)
(8.01818 0.02 -0.00102812)
(8.03636 0.02 -0.00106415)
(8.05455 0.02 -0.00110035)
(8.07273 0.02 -0.00113638)
(8.09091 0.02 -0.0011727)
(8.10909 0.02 -0.00120917)
(8.12727 0.02 -0.00124548)
(8.14545 0.02 -0.00128145)
(8.16364 0.02 -0.00131762)
(8.18182 0.02 -0.00135387)
(8.2 0.02 -0.0013904)
(8.21818 0.02 -0.00142688)
(8.23636 0.02 -0.00146297)
(8.25455 0.02 -0.00149948)
(8.27273 0.02 -0.00153573)
(8.29091 0.02 -0.00157161)
(8.30909 0.02 -0.00160799)
(8.32727 0.02 -0.00164448)
(8.34545 0.02 -0.00168089)
(8.36364 0.02 -0.00171756)
(8.38182 0.02 -0.00175344)
(8.4 0.02 -0.00178992)
(8.41818 0.02 -0.0018265)
(8.43636 0.02 -0.00186218)
(8.45455 0.02 -0.00190077)
(8.47273 0.02 -0.00193194)
(8.49091 0.02 -0.00197853)
(8.50909 0.02 -0.00199593)
(8.52727 0.02 -0.002065)
(8.54545 0.02 -0.00204745)
(8.56364 0.02 -0.00216778)
(8.58182 0.02 -0.00206698)
(8.6 0.02 -0.00227737)
(8.61818 0.02 -0.00202393)
(8.63636 0.02 -0.002419)
(8.65455 0.02 -0.00280975)
(8.67273 0.02 -0.00176035)
(8.69091 0.02 -0.00223449)
(8.70909 0.02 -0.0024956)
(8.72727 0.02 -0.00237499)
(8.74545 0.02 -0.00252937)
(8.76364 0.02 -0.00248758)
(8.78182 0.02 -0.00257964)
(8.8 0.02 -0.00258366)
(8.81818 0.02 -0.00264006)
(8.83636 0.02 -0.00266366)
(8.85455 0.02 -0.00270372)
(8.87273 0.02 -0.00273516)
(8.89091 0.02 -0.00277222)
(8.90909 0.02 -0.00280698)
(8.92727 0.02 -0.00284318)
(8.94545 0.02 -0.00287885)
(8.96364 0.02 -0.00291511)
(8.98182 0.02 -0.00295097)
(9 0.02 -0.00298709)
(9.01818 0.02 -0.00302382)
(9.03636 0.02 -0.00305986)
(9.05455 0.02 -0.0030962)
(9.07273 0.02 -0.00313219)
(9.09091 0.02 -0.00316851)
(9.10909 0.02 -0.00320466)
(9.12727 0.02 -0.00324053)
(9.14545 0.02 -0.00327701)
(9.16364 0.02 -0.00331323)
(9.18182 0.02 -0.00335009)
(9.2 0.02 -0.00338619)
(9.21818 0.02 -0.00342211)
(9.23636 0.02 -0.00345855)
(9.25455 0.02 -0.00349468)
(9.27273 0.02 -0.00353124)
(9.29091 0.02 -0.00356733)
(9.30909 0.02 -0.00360329)
(9.32727 0.02 -0.0036399)
(9.34545 0.02 -0.00367635)
(9.36364 0.02 -0.00371282)
(9.38182 0.02 -0.00374843)
(9.4 0.02 -0.00378632)
(9.41818 0.02 -0.00381874)
(9.43636 0.02 -0.00386253)
(9.45455 0.02 -0.00388399)
(9.47273 0.02 -0.00394382)
(9.49091 0.02 -0.00394153)
(9.50909 0.02 -0.00403686)
(9.52727 0.02 -0.00398627)
(9.54545 0.02 -0.0041406)
(9.56364 0.02 -0.0040277)
(9.58182 0.02 -0.00425504)
(9.6 0.02 -0.0040618)
(9.61818 0.02 -0.00435916)
(9.63636 0.02 -0.00408339)
(9.65455 0.02 -0.00441788)
(9.67273 0.02 -0.00411696)
(9.69091 0.02 -0.00442879)
(9.70909 0.02 -0.00416512)
(9.72727 0.02 -0.00479565)
(9.74545 0.02 -0.00551791)
(9.76364 0.02 -0.00726207)
(9.78182 0.02 -0.0098008)
(9.8 0.02 -0.013794)
(9.81818 0.02 -0.0196364)
(9.83636 0.02 -0.0196727)
(9.85455 0.02 -0.0197091)
(9.87273 0.02 -0.0197455)
(9.89091 0.02 -0.0197818)
(9.90909 0.02 -0.0198182)
(9.92727 0.02 -0.0198545)
(9.94545 0.02 -0.0198909)
(9.96364 0.02 -0.0199273)
(9.98182 0.02 -0.0199636)
(10 0.02 -0.02)
(0 0 0.005)
(0.0181818 0 0.00496364)
(0.0363636 0 0.00492727)
(0.0545455 0 0.00489091)
(0.0727273 0 0.00485455)
(0.0909091 0 0.00481818)
(0.109091 0 0.00478182)
(0.127273 0 0.00474545)
(0.145455 0 0.00470909)
(0.163636 0 0.00467274)
(0.181818 0 0.00463578)
(0.2 0 0.00459198)
(0.218182 0 0.00455563)
(0.236364 0 0.00452621)
(0.254545 0 0.00448448)
(0.272727 0 0.00444811)
(0.290909 0 0.00441738)
(0.309091 0 0.00437706)
(0.327273 0 0.00433676)
(0.345455 0 0.00430118)
(0.363636 0 0.00426593)
(0.381818 0 0.00423281)
(0.4 0 0.00419728)
(0.418182 0 0.00416115)
(0.436364 0 0.00412709)
(0.454545 0 0.00409091)
(0.472727 0 0.00405443)
(0.490909 0 0.00401655)
(0.509091 0 0.00398019)
(0.527273 0 0.00394533)
(0.545455 0 0.00390909)
(0.563636 0 0.00387264)
(0.581818 0 0.00383501)
(0.6 0 0.00379745)
(0.618182 0 0.00376109)
(0.636364 0 0.0037249)
(0.654545 0 0.00368963)
(0.672727 0 0.00365334)
(0.690909 0 0.00361611)
(0.709091 0 0.00358065)
(0.727273 0 0.00354434)
(0.745455 0 0.00350718)
(0.763636 0 0.00347165)
(0.781818 0 0.00343533)
(0.8 0 0.00339817)
(0.818182 0 0.00336179)
(0.836364 0 0.00332544)
(0.854545 0 0.00328921)
(0.872727 0 0.00325455)
(0.890909 0 0.00320672)
(0.909091 0 0.00319218)
(0.927273 0 0.00313471)
(0.945455 0 0.00311937)
(0.963636 0 0.00305209)
(0.981818 0 0.00305614)
(1 0 0.00297963)
(1.01818 0 0.00298411)
(1.03636 0 0.00290839)
(1.05455 0 0.00290867)
(1.07273 0 0.00283269)
(1.09091 0 0.00283876)
(1.10909 0 0.00276102)
(1.12727 0 0.00276509)
(1.14545 0 0.00268282)
(1.16364 0 0.0026792)
(1.18182 0 0.00260183)
(1.2 0 0.00260583)
(1.21818 0 0.00252448)
(1.23636 0 0.00252587)
(1.25455 0 0.00244512)
(1.27273 0 0.00245133)
(1.29091 0 0.00237902)
(1.30909 0 0.00239496)
(1.32727 0 0.00233724)
(1.34545 0 0.00234606)
(1.36364 0 0.00238317)
(1.38182 0 0.00262999)
(1.4 0 0.00219385)