/*--------------------------------*- C++ -*----------------------------------*\
| =========                 |                                                 |
| \\      /  F ield         | foam-extend: Open Source CFD                    |
|  \\    /   O peration     | Version:     3.2                                |
|   \\  /    A nd           | Web:         http://www.foam-extend.org         |
|    \\/     M anipulation  | For copyright notice see file Copyright         |
\*---------------------------------------------------------------------------*/
FoamFile
{
    version     2.0;
    format      ascii;
    class       volScalarField;
    location    "2020";
    object      nut;
}
// * * * * * * * * * * * * * * * * * * * * * * * * * * * * * * * * * * * * * //

dimensions      [0 2 -1 0 0 0 0];

internalField   nonuniform List<scalar> 
33000
(
6.25837e-06
7.61072e-06
9.00769e-06
1.04187e-05
1.18081e-05
1.31407e-05
1.43871e-05
1.55215e-05
1.65285e-05
1.73962e-05
1.81249e-05
1.87171e-05
1.91791e-05
1.95259e-05
1.97707e-05
1.99212e-05
1.99957e-05
2.00074e-05
1.98655e-05
1.90765e-05
1.84049e-05
1.76767e-05
1.70821e-05
1.64634e-05
1.59575e-05
1.5432e-05
1.50245e-05
1.45961e-05
1.42808e-05
1.3912e-05
1.36598e-05
1.33429e-05
1.31442e-05
1.2878e-05
1.27252e-05
1.25017e-05
1.23877e-05
1.21908e-05
1.21248e-05
1.19521e-05
1.1908e-05
1.17716e-05
1.17548e-05
1.16251e-05
1.1644e-05
1.15254e-05
1.15806e-05
1.15116e-05
1.15272e-05
1.15771e-05
1.15387e-05
1.15792e-05
1.15235e-05
1.16396e-05
1.15572e-05
1.1619e-05
1.15824e-05
1.16545e-05
1.16569e-05
1.1677e-05
1.1667e-05
1.17123e-05
1.17515e-05
1.18605e-05
1.18595e-05
1.18286e-05
1.18339e-05
1.19082e-05
1.19489e-05
1.19725e-05
1.19585e-05
1.2015e-05
1.20264e-05
1.20737e-05
1.17961e-05
1.24822e-05
1.25615e-05
1.15982e-05
1.2133e-05
1.20722e-05
1.20674e-05
1.20781e-05
1.1991e-05
1.20645e-05
1.19748e-05
1.21632e-05
1.21427e-05
1.21241e-05
1.21525e-05
1.21911e-05
1.21034e-05
1.2204e-05
1.22839e-05
1.23071e-05
1.23553e-05
1.23114e-05
1.23238e-05
1.23737e-05
1.21932e-05
1.26082e-05
1.24408e-05
1.31845e-05
1.31294e-05
1.17179e-05
1.24834e-05
1.25125e-05
1.24913e-05
1.29749e-05
1.27266e-05
1.28476e-05
1.28471e-05
1.28142e-05
1.28892e-05
1.29955e-05
1.28728e-05
1.31368e-05
1.27172e-05
1.3793e-05
1.34477e-05
1.20957e-05
1.30511e-05
1.27357e-05
1.36188e-05
1.34342e-05
1.2483e-05
1.30568e-05
1.29759e-05
1.39929e-05
1.34366e-05
1.25687e-05
1.3081e-05
1.29719e-05
1.2966e-05
1.32247e-05
1.32222e-05
1.32603e-05
1.37407e-05
1.39814e-05
1.36066e-05
1.36766e-05
1.36758e-05
1.3757e-05
1.38048e-05
1.38536e-05
1.38698e-05
1.39119e-05
1.393e-05
1.39555e-05
1.39845e-05
1.40008e-05
1.40276e-05
1.40428e-05
1.40603e-05
1.40683e-05
1.4087e-05
1.40783e-05
1.41114e-05
1.40762e-05
1.41358e-05
1.40489e-05
1.41459e-05
1.4041e-05
1.41209e-05
1.40389e-05
1.40831e-05
1.40465e-05
1.40259e-05
1.40331e-05
1.40378e-05
1.37624e-05
1.3616e-05
1.36839e-05
1.3588e-05
1.36144e-05
1.35488e-05
1.35683e-05
1.35272e-05
1.35415e-05
1.35284e-05
1.35344e-05
1.35449e-05
1.35551e-05
1.35717e-05
1.35863e-05
1.36063e-05
1.36238e-05
1.36455e-05
1.36646e-05
1.36873e-05
1.37074e-05
1.37301e-05
1.37504e-05
1.37731e-05
1.37933e-05
1.38152e-05
1.38349e-05
1.38556e-05
1.38746e-05
1.38939e-05
1.39118e-05
1.39299e-05
1.39466e-05
1.39633e-05
1.39787e-05
1.39943e-05
1.40086e-05
1.40231e-05
1.40364e-05
1.405e-05
1.40625e-05
1.40752e-05
1.40869e-05
1.4099e-05
1.41101e-05
1.41217e-05
1.41325e-05
1.41438e-05
1.41541e-05
1.41655e-05
1.41758e-05
1.41874e-05
1.41978e-05
1.42099e-05
1.42206e-05
1.42336e-05
1.4245e-05
1.42591e-05
1.42714e-05
1.42866e-05
1.43e-05
1.43161e-05
1.43305e-05
1.43477e-05
1.43629e-05
1.43811e-05
1.43974e-05
1.44166e-05
1.44336e-05
1.44539e-05
1.44717e-05
1.44932e-05
1.45115e-05
1.45341e-05
1.45533e-05
1.45761e-05
1.45944e-05
1.46167e-05
1.46334e-05
1.46554e-05
1.46701e-05
1.46926e-05
1.47037e-05
1.47289e-05
1.47334e-05
1.47652e-05
1.47606e-05
1.4802e-05
1.47886e-05
1.48386e-05
1.48198e-05
1.48722e-05
1.48507e-05
1.4904e-05
1.48818e-05
1.49314e-05
1.49122e-05
1.49525e-05
1.49415e-05
1.49651e-05
1.49688e-05
1.49677e-05
1.49928e-05
1.49601e-05
1.50107e-05
1.49437e-05
1.50167e-05
1.4928e-05
1.50037e-05
1.49468e-05
1.49881e-05
1.5036e-05
1.48444e-05
1.52757e-05
1.34623e-05
1.466e-05
1.52301e-05
1.48329e-05
1.49848e-05
1.48127e-05
1.48695e-05
1.47937e-05
1.48314e-05
1.4785e-05
1.48176e-05
1.47889e-05
1.48186e-05
1.48031e-05
1.48162e-05
1.48152e-05
1.48351e-05
1.4837e-05
1.48588e-05
1.48589e-05
1.48768e-05
1.48823e-05
1.48968e-05
1.49047e-05
1.49165e-05
1.4926e-05
1.49363e-05
1.4947e-05
1.49559e-05
1.49676e-05
1.49752e-05
1.49874e-05
1.49946e-05
1.50076e-05
1.50144e-05
1.50278e-05
1.50345e-05
1.50479e-05
1.50543e-05
1.5068e-05
1.50745e-05
1.50878e-05
1.50938e-05
1.51067e-05
1.51124e-05
1.51246e-05
1.51319e-05
1.51372e-05
1.51565e-05
1.51589e-05
1.5185e-05
1.51846e-05
1.52089e-05
1.52114e-05
1.52319e-05
1.52376e-05
1.52551e-05
1.5264e-05
1.52785e-05
1.52906e-05
1.53021e-05
1.53174e-05
1.53251e-05
1.53434e-05
1.53475e-05
1.53577e-05
1.53647e-05
1.53716e-05
1.53786e-05
1.53852e-05
1.53922e-05
1.53984e-05
1.54051e-05
1.54109e-05
1.54165e-05
1.54223e-05
1.5426e-05
1.54309e-05
1.54321e-05
1.54336e-05
1.5357e-05
1.54019e-05
1.53542e-05
1.53071e-05
1.52882e-05
1.52673e-05
1.52517e-05
1.52394e-05
1.52205e-05
1.52149e-05
1.51942e-05
1.51936e-05
1.51728e-05
1.51749e-05
1.5153e-05
1.51593e-05
1.51439e-05
1.51504e-05
1.51601e-05
1.51311e-05
1.51556e-05
1.51018e-05
1.5163e-05
1.50638e-05
1.51777e-05
1.50235e-05
1.51815e-05
1.50006e-05
1.51158e-05
1.50388e-05
1.49921e-05
1.52037e-05
1.34226e-05
1.48236e-05
1.50971e-05
1.39618e-05
1.46485e-05
1.44816e-05
1.45201e-05
1.45653e-05
1.45115e-05
1.46388e-05
1.45515e-05
1.47145e-05
1.45925e-05
1.47947e-05
1.46291e-05
1.48166e-05
1.47496e-05
1.47246e-05
1.50513e-05
1.32089e-05
1.46136e-05
1.49606e-05
1.36917e-05
1.44628e-05
1.43062e-05
1.43546e-05
1.44107e-05
1.43873e-05
1.44827e-05
1.44613e-05
1.45531e-05
1.45488e-05
1.46215e-05
1.46311e-05
1.4689e-05
1.47067e-05
1.4747e-05
1.47682e-05
1.47926e-05
1.48185e-05
1.48402e-05
1.48597e-05
1.48767e-05
1.48916e-05
1.49054e-05
1.49185e-05
1.49288e-05
1.49399e-05
1.49478e-05
1.49562e-05
1.49609e-05
1.49683e-05
1.4972e-05
1.49705e-05
1.49689e-05
1.49671e-05
1.49653e-05
1.49634e-05
1.49614e-05
1.49594e-05
1.49573e-05
1.49552e-05
1.49532e-05
1.49511e-05
1.49491e-05
1.4947e-05
1.49454e-05
1.49433e-05
1.49423e-05
1.49398e-05
1.49392e-05
1.49362e-05
1.49355e-05
1.49326e-05
1.49293e-05
1.48722e-05
1.49168e-05
1.48669e-05
1.48905e-05
1.48961e-05
1.32261e-05
1.47138e-05
1.47969e-05
1.38036e-05
1.44861e-05
1.44684e-05
1.43692e-05
1.45073e-05
1.44094e-05
1.45239e-05
1.44879e-05
1.45654e-05
1.4573e-05
1.46184e-05
1.46378e-05
1.4665e-05
1.46909e-05
1.47138e-05
1.47359e-05
1.47544e-05
1.47711e-05
1.47763e-05
1.47753e-05
1.47739e-05
1.47721e-05
1.47699e-05
1.47673e-05
1.47644e-05
1.47611e-05
1.47573e-05
1.47533e-05
1.47489e-05
1.47442e-05
1.47392e-05
1.47339e-05
1.47283e-05
1.47223e-05
1.47161e-05
1.47099e-05
1.4703e-05
1.46969e-05
1.46891e-05
1.46831e-05
1.46745e-05
1.46684e-05
1.46591e-05
1.46527e-05
1.46074e-05
1.46349e-05
1.45403e-05
1.46145e-05
1.44602e-05
1.45898e-05
1.44001e-05
1.4566e-05
1.44378e-05
1.44783e-05
1.45799e-05
1.45847e-05
1.461e-05
1.46112e-05
1.44832e-05
1.41937e-05
1.04318e-05
7.27741e-06
6.91446e-06
5.37448e-06
4.81873e-06
4.44754e-06
5.80354e-06
5.32088e-06
4.41924e-06
4.60017e-06
6.13895e-06
2.71959e-05
5.22565e-05
3.12926e-05
2.24151e-05
1.78113e-05
1.51142e-05
1.35004e-05
1.24896e-05
1.18538e-05
1.14687e-05
1.12661e-05
1.11975e-05
1.12062e-05
1.12858e-05
1.14124e-05
1.15759e-05
1.17783e-05
1.20209e-05
1.23127e-05
1.26635e-05
1.30599e-05
1.35375e-05
1.40782e-05
1.46596e-05
1.52933e-05
1.59935e-05
1.67712e-05
1.76282e-05
1.83304e-05
1.87884e-05
1.92026e-05
1.96755e-05
2.00637e-05
2.05358e-05
2.09113e-05
2.13741e-05
2.17315e-05
2.21835e-05
2.25049e-05
2.29546e-05
2.32535e-05
2.36774e-05
2.39607e-05
2.4382e-05
2.46249e-05
2.50494e-05
2.5272e-05
2.57058e-05
2.59648e-05
2.62747e-05
2.6692e-05
2.68687e-05
2.72812e-05
2.74312e-05
2.78935e-05
2.80187e-05
2.83146e-05
2.84831e-05
2.87972e-05
2.90176e-05
2.92344e-05
2.93486e-05
2.95324e-05
2.97444e-05
3.01566e-05
3.03365e-05
3.03783e-05
3.04797e-05
3.07492e-05
3.09983e-05
3.11403e-05
3.12075e-05
3.14036e-05
3.15056e-05
3.17515e-05
3.13633e-05
3.25957e-05
3.23617e-05
3.04272e-05
3.21163e-05
3.20898e-05
3.21639e-05
3.21821e-05
3.19722e-05
3.22255e-05
3.2046e-05
3.2616e-05
3.27152e-05
3.26907e-05
3.2769e-05
3.28556e-05
3.27076e-05
3.29975e-05
3.3239e-05
3.3308e-05
3.34431e-05
3.33836e-05
3.33887e-05
3.33874e-05
3.31111e-05
3.40789e-05
3.37079e-05
3.49371e-05
3.44277e-05
3.13698e-05
3.3828e-05
3.37705e-05
3.37482e-05
3.48202e-05
3.40614e-05
3.43237e-05
3.42585e-05
3.41697e-05
3.431e-05
3.44199e-05
3.41447e-05
3.46813e-05
3.38422e-05
3.55032e-05
3.46744e-05
3.24453e-05
3.44991e-05
3.37747e-05
3.53853e-05
3.47305e-05
3.29013e-05
3.44198e-05
3.41043e-05
3.53502e-05
3.44481e-05
3.3077e-05
3.41885e-05
3.39539e-05
3.4018e-05
3.44887e-05
3.44882e-05
3.4344e-05
3.53806e-05
3.54207e-05
3.4589e-05
3.47713e-05
3.4732e-05
3.48814e-05
3.49571e-05
3.50027e-05
3.50259e-05
3.50634e-05
3.50875e-05
3.51055e-05
3.51436e-05
3.51553e-05
3.51894e-05
3.52074e-05
3.52326e-05
3.52429e-05
3.52788e-05
3.52613e-05
3.53423e-05
3.52593e-05
3.53965e-05
3.5223e-05
3.54175e-05
3.5242e-05
3.54085e-05
3.52746e-05
3.53795e-05
3.53337e-05
3.53138e-05
3.53556e-05
3.53751e-05
3.49904e-05
3.4849e-05
3.50808e-05
3.49988e-05
3.51367e-05
3.50965e-05
3.52059e-05
3.51988e-05
3.52809e-05
3.53159e-05
3.53697e-05
3.54434e-05
3.54947e-05
3.55658e-05
3.562e-05
3.5687e-05
3.57416e-05
3.58052e-05
3.58589e-05
3.592e-05
3.59733e-05
3.6032e-05
3.60845e-05
3.61418e-05
3.6194e-05
3.62491e-05
3.63008e-05
3.63538e-05
3.64055e-05
3.64569e-05
3.65083e-05
3.65591e-05
3.66102e-05
3.66602e-05
3.67112e-05
3.67611e-05
3.68123e-05
3.68622e-05
3.69136e-05
3.69637e-05
3.70156e-05
3.70657e-05
3.7118e-05
3.71687e-05
3.72215e-05
3.7273e-05
3.73269e-05
3.73792e-05
3.74336e-05
3.74879e-05
3.75433e-05
3.75997e-05
3.76564e-05
3.77151e-05
3.77732e-05
3.78347e-05
3.7895e-05
3.79593e-05
3.80216e-05
3.80886e-05
3.81527e-05
3.82217e-05
3.82874e-05
3.83585e-05
3.84256e-05
3.84985e-05
3.85673e-05
3.86414e-05
3.87112e-05
3.87867e-05
3.88572e-05
3.89342e-05
3.90047e-05
3.90826e-05
3.91535e-05
3.92008e-05
3.92563e-05
3.92968e-05
3.93502e-05
3.9388e-05
3.944e-05
3.94751e-05
3.95266e-05
3.95587e-05
3.9611e-05
3.964e-05
3.96943e-05
3.97168e-05
3.97741e-05
3.97881e-05
3.98495e-05
3.98523e-05
3.99182e-05
3.99087e-05
3.9978e-05
3.99569e-05
4.00282e-05
3.99975e-05
4.00681e-05
4.00324e-05
4.00984e-05
4.00643e-05
4.01204e-05
4.00963e-05
4.01376e-05
4.01321e-05
4.0157e-05
4.0176e-05
4.01892e-05
4.02328e-05
4.02502e-05
4.01717e-05
4.02146e-05
3.91846e-05
3.75011e-05
4.03121e-05
4.04184e-05
3.9766e-05
3.98062e-05
3.98128e-05
3.99415e-05
4.0012e-05
4.01281e-05
4.02029e-05
4.02958e-05
4.03621e-05
4.04331e-05
4.04867e-05
4.05405e-05
4.0601e-05
4.06373e-05
4.06879e-05
4.07129e-05
4.07545e-05
4.07725e-05
4.08087e-05
4.08206e-05
4.08502e-05
4.08581e-05
4.08838e-05
4.08895e-05
4.09117e-05
4.09169e-05
4.09361e-05
4.09403e-05
4.09575e-05
4.09633e-05
4.09787e-05
4.09851e-05
4.09991e-05
4.10063e-05
4.1019e-05
4.10273e-05
4.10391e-05
4.10461e-05
4.10571e-05
4.10637e-05
4.10738e-05
4.10812e-05
4.10908e-05
4.1098e-05
4.11084e-05
4.11161e-05
4.11287e-05
4.11357e-05
4.11475e-05
4.11537e-05
4.11641e-05
4.11694e-05
4.11787e-05
4.11831e-05
4.11909e-05
4.11945e-05
4.12009e-05
4.1204e-05
4.12088e-05
4.1211e-05
4.12144e-05
4.12162e-05
4.12192e-05
4.1221e-05
4.1224e-05
4.12235e-05
4.12272e-05
4.12233e-05
4.12272e-05
4.12175e-05
4.12249e-05
4.12061e-05
4.12188e-05
4.11912e-05
4.11929e-05
4.11235e-05
4.1057e-05
4.10083e-05
4.09962e-05
4.09522e-05
4.09375e-05
4.09313e-05
4.09307e-05
4.09327e-05
4.09353e-05
4.09394e-05
4.09434e-05
4.09492e-05
4.09543e-05
4.09611e-05
4.09654e-05
4.09705e-05
4.09762e-05
4.09805e-05
4.09973e-05
4.09902e-05
4.10059e-05
4.09805e-05
4.10135e-05
4.09628e-05
4.10196e-05
4.09248e-05
4.10159e-05
4.08705e-05
4.09921e-05
4.08426e-05
4.09774e-05
4.1003e-05
3.97028e-05
3.79681e-05
4.0503e-05
4.03659e-05
3.88027e-05
4.00902e-05
4.03317e-05
4.05077e-05
4.06739e-05
4.08161e-05
4.091e-05
4.10301e-05
4.10458e-05
4.11675e-05
4.10949e-05
4.12399e-05
4.11427e-05
4.12804e-05
4.1305e-05
3.99342e-05
3.80735e-05
4.07744e-05
4.05713e-05
3.84376e-05
4.02785e-05
4.0554e-05
4.07174e-05
4.09078e-05
4.10103e-05
4.11366e-05
4.12106e-05
4.12896e-05
4.13425e-05
4.13886e-05
4.14193e-05
4.1444e-05
4.14581e-05
4.14706e-05
4.14759e-05
4.14817e-05
4.14833e-05
4.14832e-05
4.14791e-05
4.14742e-05
4.14671e-05
4.14594e-05
4.1451e-05
4.14424e-05
4.14335e-05
4.14249e-05
4.14162e-05
4.14083e-05
4.14003e-05
4.13927e-05
4.13851e-05
4.13768e-05
4.13683e-05
4.13613e-05
4.13532e-05
4.13458e-05
4.13389e-05
4.13319e-05
4.1324e-05
4.13171e-05
4.13096e-05
4.13046e-05
4.13028e-05
4.12959e-05
4.12982e-05
4.1286e-05
4.12969e-05
4.12686e-05
4.12955e-05
4.12287e-05
4.12873e-05
4.11479e-05
4.12713e-05
4.10789e-05
4.12649e-05
4.12527e-05
3.98427e-05
3.8226e-05
4.0763e-05
4.04941e-05
3.8612e-05
4.01424e-05
4.04073e-05
4.05421e-05
4.07123e-05
4.08065e-05
4.09125e-05
4.0989e-05
4.10464e-05
4.10842e-05
4.11094e-05
4.11234e-05
4.11321e-05
4.11318e-05
4.11269e-05
4.11157e-05
4.11001e-05
4.10817e-05
4.10614e-05
4.10403e-05
4.10175e-05
4.09936e-05
4.09674e-05
4.09388e-05
4.0908e-05
4.08743e-05
4.084e-05
4.08053e-05
4.07672e-05
4.07291e-05
4.06868e-05
4.06452e-05
4.06015e-05
4.05557e-05
4.05101e-05
4.046e-05
4.0418e-05
4.03591e-05
4.03213e-05
4.02484e-05
4.02241e-05
4.01258e-05
4.01265e-05
3.99782e-05
4.00253e-05
3.98144e-05
3.99167e-05
3.9622e-05
3.97938e-05
3.94507e-05
3.96977e-05
3.94085e-05
3.97074e-05
3.95993e-05
3.99843e-05
3.98561e-05
3.96127e-05
3.78737e-05
3.54963e-05
3.16884e-05
2.66372e-05
2.22867e-05
2.16333e-05
2.54864e-05
2.26063e-05
2.18275e-05
1.83504e-05
1.90779e-05
2.13751e-05
1.65118e-05
1.84136e-05
2.29963e-05
0.000149405
0.0001138
7.80486e-05
6.77778e-05
5.4489e-05
4.4452e-05
3.65514e-05
3.07337e-05
2.64449e-05
2.32602e-05
2.0834e-05
1.89665e-05
1.74629e-05
1.62695e-05
1.53047e-05
1.45216e-05
1.38893e-05
1.33816e-05
1.29829e-05
1.26786e-05
1.24576e-05
1.2313e-05
1.22402e-05
1.2237e-05
1.23008e-05
1.24341e-05
1.2636e-05
1.29032e-05
1.32344e-05
1.36132e-05
1.40635e-05
1.45521e-05
1.51192e-05
1.56962e-05
1.62952e-05
1.69026e-05
1.75339e-05
1.8171e-05
1.88338e-05
1.94998e-05
2.01922e-05
2.08885e-05
2.16114e-05
2.23417e-05
2.31019e-05
2.3874e-05
2.44144e-05
2.51567e-05
2.5542e-05
2.64302e-05
2.68186e-05
2.76939e-05
2.80333e-05
2.88888e-05
2.9429e-05
3.0064e-05
3.06087e-05
3.12781e-05
3.19371e-05
3.2473e-05
3.28411e-05
3.32959e-05
3.4e-05
3.48531e-05
3.5525e-05
3.57904e-05
3.60079e-05
3.66748e-05
3.73755e-05
3.78891e-05
3.82168e-05
3.86319e-05
3.91323e-05
3.98562e-05
3.97342e-05
4.1685e-05
4.17768e-05
3.92319e-05
4.1809e-05
4.20619e-05
4.24436e-05
4.27622e-05
4.2505e-05
4.29355e-05
4.2953e-05
4.40131e-05
4.44514e-05
4.47684e-05
4.51785e-05
4.53885e-05
4.53423e-05
4.58578e-05
4.66239e-05
4.69835e-05
4.74385e-05
4.75819e-05
4.76982e-05
4.78483e-05
4.78073e-05
4.87797e-05
4.91301e-05
4.90105e-05
4.86423e-05
4.55416e-05
4.89322e-05
4.92541e-05
4.95677e-05
4.9765e-05
5.00145e-05
5.01902e-05
5.04042e-05
5.05886e-05
5.07854e-05
5.08823e-05
5.11136e-05
5.11578e-05
5.15568e-05
5.11747e-05
5.09121e-05
4.90814e-05
5.12809e-05
5.17671e-05
5.17976e-05
5.16489e-05
5.07591e-05
5.20241e-05
5.24009e-05
5.21575e-05
5.18517e-05
5.15148e-05
5.20219e-05
5.22841e-05
5.25823e-05
5.28779e-05
5.3157e-05
5.35561e-05
5.36692e-05
5.36915e-05
5.36024e-05
5.36936e-05
5.38171e-05
5.39551e-05
5.40815e-05
5.42116e-05
5.43235e-05
5.44393e-05
5.45382e-05
5.46415e-05
5.47311e-05
5.48267e-05
5.49118e-05
5.50031e-05
5.50816e-05
5.51709e-05
5.52391e-05
5.53296e-05
5.53789e-05
5.54764e-05
5.54883e-05
5.56047e-05
5.55831e-05
5.57136e-05
5.5646e-05
5.57823e-05
5.5681e-05
5.57969e-05
5.56575e-05
5.57163e-05
5.54775e-05
5.54868e-05
5.54583e-05
5.56202e-05
5.56844e-05
5.58505e-05
5.59469e-05
5.61128e-05
5.62358e-05
5.64096e-05
5.6551e-05
5.67254e-05
5.68765e-05
5.70495e-05
5.72001e-05
5.73703e-05
5.75182e-05
5.76846e-05
5.78287e-05
5.79905e-05
5.81309e-05
5.82896e-05
5.84265e-05
5.85815e-05
5.87153e-05
5.88677e-05
5.89986e-05
5.91481e-05
5.92764e-05
5.94244e-05
5.95512e-05
5.9698e-05
5.98237e-05
5.99705e-05
6.00955e-05
6.02423e-05
6.03671e-05
6.05143e-05
6.06389e-05
6.07863e-05
6.09108e-05
6.10591e-05
6.11836e-05
6.13319e-05
6.14567e-05
6.16056e-05
6.17309e-05
6.18808e-05
6.20072e-05
6.21591e-05
6.22872e-05
6.24408e-05
6.25709e-05
6.27272e-05
6.28597e-05
6.30183e-05
6.31535e-05
6.33142e-05
6.34522e-05
6.36154e-05
6.3756e-05
6.39213e-05
6.40639e-05
6.42304e-05
6.43745e-05
6.45423e-05
6.4688e-05
6.4856e-05
6.50021e-05
6.51711e-05
6.53173e-05
6.54864e-05
6.56322e-05
6.58004e-05
6.59458e-05
6.61124e-05
6.62561e-05
6.64211e-05
6.65605e-05
6.67229e-05
6.68577e-05
6.70167e-05
6.71452e-05
6.73019e-05
6.74227e-05
6.75773e-05
6.76865e-05
6.78416e-05
6.79364e-05
6.8095e-05
6.81714e-05
6.83359e-05
6.83887e-05
6.85596e-05
6.8586e-05
6.87606e-05
6.87607e-05
6.89363e-05
6.89136e-05
6.9085e-05
6.90463e-05
6.92069e-05
6.91646e-05
6.93049e-05
6.92756e-05
6.93869e-05
6.93892e-05
6.94677e-05
6.95148e-05
6.95692e-05
6.96614e-05
6.9688e-05
6.96423e-05
6.96429e-05
6.8487e-05
6.78124e-05
7.01256e-05
7.05391e-05
6.9666e-05
6.96142e-05
6.94765e-05
6.95869e-05
6.9592e-05
6.97169e-05
6.9769e-05
6.98844e-05
6.99559e-05
7.00574e-05
7.01361e-05
7.02227e-05
7.03231e-05
7.03934e-05
7.04935e-05
7.05554e-05
7.06503e-05
7.07048e-05
7.07966e-05
7.08451e-05
7.0933e-05
7.09769e-05
7.10587e-05
7.11004e-05
7.11769e-05
7.12184e-05
7.12916e-05
7.13332e-05
7.14037e-05
7.14478e-05
7.15165e-05
7.15629e-05
7.16299e-05
7.16789e-05
7.17443e-05
7.17963e-05
7.18604e-05
7.19143e-05
7.19758e-05
7.20283e-05
7.20871e-05
7.21391e-05
7.2195e-05
7.22465e-05
7.22998e-05
7.23533e-05
7.24107e-05
7.2464e-05
7.25196e-05
7.25695e-05
7.26215e-05
7.26675e-05
7.27161e-05
7.27576e-05
7.28014e-05
7.28382e-05
7.28775e-05
7.29097e-05
7.29446e-05
7.29722e-05
7.30028e-05
7.30267e-05
7.30541e-05
7.30739e-05
7.30995e-05
7.31118e-05
7.3134e-05
7.3135e-05
7.31504e-05
7.31421e-05
7.31599e-05
7.31314e-05
7.31558e-05
7.30964e-05
7.31026e-05
7.29751e-05
7.2898e-05
7.27872e-05
7.2744e-05
7.26589e-05
7.26032e-05
7.25565e-05
7.25227e-05
7.24945e-05
7.24731e-05
7.24548e-05
7.2442e-05
7.24309e-05
7.24251e-05
7.24191e-05
7.24163e-05
7.24114e-05
7.24131e-05
7.24105e-05
7.24295e-05
7.24219e-05
7.24446e-05
7.24099e-05
7.24573e-05
7.23787e-05
7.24623e-05
7.2305e-05
7.24473e-05
7.21841e-05
7.23856e-05
7.20726e-05
7.23042e-05
7.21492e-05
7.06909e-05
6.98232e-05
7.16403e-05
7.17279e-05
7.09404e-05
7.10514e-05
7.12715e-05
7.13792e-05
7.15717e-05
7.17092e-05
7.18494e-05
7.20158e-05
7.2058e-05
7.22655e-05
7.21664e-05
7.24379e-05
7.22551e-05
7.25376e-05
7.24991e-05
7.10077e-05
6.97078e-05
7.20491e-05
7.21136e-05
7.13713e-05
7.14672e-05
7.17267e-05
7.17893e-05
7.2023e-05
7.20974e-05
7.22938e-05
7.23885e-05
7.25503e-05
7.26525e-05
7.27852e-05
7.28862e-05
7.29945e-05
7.30855e-05
7.31764e-05
7.32572e-05
7.33361e-05
7.34059e-05
7.34716e-05
7.3529e-05
7.35831e-05
7.36322e-05
7.36787e-05
7.37221e-05
7.37633e-05
7.38025e-05
7.38389e-05
7.38728e-05
7.39051e-05
7.39371e-05
7.39679e-05
7.39963e-05
7.40214e-05
7.40441e-05
7.40666e-05
7.40861e-05
7.41055e-05
7.41226e-05
7.4138e-05
7.41508e-05
7.41643e-05
7.41753e-05
7.41899e-05
7.4209e-05
7.42229e-05
7.42516e-05
7.42586e-05
7.42966e-05
7.42793e-05
7.43394e-05
7.42568e-05
7.43668e-05
7.41537e-05
7.43684e-05
7.40161e-05
7.43414e-05
7.41473e-05
7.25215e-05
7.18941e-05
7.36146e-05
7.35797e-05
7.27504e-05
7.27767e-05
7.29908e-05
7.29576e-05
7.3115e-05
7.31395e-05
7.32532e-05
7.33096e-05
7.33846e-05
7.34331e-05
7.34756e-05
7.35068e-05
7.35323e-05
7.35485e-05
7.35586e-05
7.35606e-05
7.35569e-05
7.35476e-05
7.35318e-05
7.35124e-05
7.34874e-05
7.34579e-05
7.34246e-05
7.33848e-05
7.33405e-05
7.32882e-05
7.32324e-05
7.31715e-05
7.31044e-05
7.30328e-05
7.29526e-05
7.28685e-05
7.2779e-05
7.26827e-05
7.25847e-05
7.24756e-05
7.23771e-05
7.22572e-05
7.21617e-05
7.20171e-05
7.19385e-05
7.17508e-05
7.17124e-05
7.14377e-05
7.14755e-05
7.10749e-05
7.12063e-05
7.06413e-05
7.08917e-05
7.02054e-05
7.0594e-05
6.99426e-05
7.04475e-05
7.00564e-05
7.07226e-05
7.04985e-05
7.0209e-05
6.76693e-05
6.31576e-05
5.62779e-05
4.48273e-05
3.42142e-05
3.36142e-05
3.66034e-05
3.42772e-05
3.29474e-05
2.95676e-05
2.54989e-05
2.49324e-05
2.70591e-05
2.98722e-05
3.81933e-05
0.000183083
0.000136717
7.53512e-05
7.29383e-05
7.5091e-05
8.20604e-05
9.1758e-05
7.96714e-05
7.01497e-05
6.2456e-05
5.61201e-05
5.08996e-05
4.64172e-05
4.27001e-05
3.95258e-05
3.67719e-05
3.43835e-05
3.22621e-05
3.03553e-05
2.86328e-05
2.7048e-05
2.55978e-05
2.42819e-05
2.30945e-05
2.20373e-05
2.10927e-05
2.02611e-05
1.95278e-05
1.88869e-05
1.8327e-05
1.78413e-05
1.74251e-05
1.70743e-05
1.67859e-05
1.65585e-05
1.63902e-05
1.62799e-05
1.62282e-05
1.62455e-05
1.63316e-05
1.64796e-05
1.66803e-05
1.69412e-05
1.7246e-05
1.76226e-05
1.80386e-05
1.85116e-05
1.90181e-05
1.95387e-05
2.01176e-05
2.06907e-05
2.13469e-05
2.19864e-05
2.27023e-05
2.33931e-05
2.41616e-05
2.48848e-05
2.5686e-05
2.64414e-05
2.72679e-05
2.77926e-05
2.84573e-05
2.91509e-05
3.01804e-05
3.09385e-05
3.14159e-05
3.18505e-05
3.2709e-05
3.3572e-05
3.43342e-05
3.49064e-05
3.55935e-05
3.63623e-05
3.74187e-05
3.7535e-05
3.98879e-05
4.09552e-05
3.837e-05
4.15755e-05
4.201e-05
4.30304e-05
4.36429e-05
4.3834e-05
4.46763e-05
4.51176e-05
4.68477e-05
4.77727e-05
4.88223e-05
4.96176e-05
5.03526e-05
5.05309e-05
5.17464e-05
5.28383e-05
5.34706e-05
5.4108e-05
5.47221e-05
5.53467e-05
5.59503e-05
5.66356e-05
5.719e-05
5.78968e-05
5.81159e-05
5.82868e-05
5.50907e-05
5.91997e-05
5.97925e-05
6.03383e-05
6.08138e-05
6.13305e-05
6.1763e-05
6.22404e-05
6.26636e-05
6.31009e-05
6.34281e-05
6.39132e-05
6.42254e-05
6.48659e-05
6.47108e-05
6.48717e-05
6.49186e-05
6.57123e-05
6.64463e-05
6.66686e-05
6.68563e-05
6.71616e-05
6.7629e-05
6.81797e-05
6.80599e-05
6.8054e-05
6.80618e-05
6.84815e-05
6.88941e-05
6.9363e-05
6.98526e-05
7.03448e-05
7.09642e-05
7.12824e-05
7.15307e-05
7.16068e-05
7.18448e-05
7.21206e-05
7.24243e-05
7.27141e-05
7.30102e-05
7.32838e-05
7.35626e-05
7.38188e-05
7.40792e-05
7.43204e-05
7.45679e-05
7.47995e-05
7.50383e-05
7.52576e-05
7.54887e-05
7.56922e-05
7.5918e-05
7.60948e-05
7.63218e-05
7.6451e-05
7.66925e-05
7.67683e-05
7.70204e-05
7.70307e-05
7.72794e-05
7.7233e-05
7.74462e-05
7.73393e-05
7.7475e-05
7.72557e-05
7.73581e-05
7.73337e-05
7.75876e-05
7.76926e-05
7.79427e-05
7.81003e-05
7.83566e-05
7.85572e-05
7.88301e-05
7.90658e-05
7.93557e-05
7.96134e-05
7.99091e-05
8.01766e-05
8.04795e-05
8.07529e-05
8.10589e-05
8.13355e-05
8.16433e-05
8.19216e-05
8.22307e-05
8.25091e-05
8.2818e-05
8.30956e-05
8.3403e-05
8.36794e-05
8.39859e-05
8.42608e-05
8.45655e-05
8.48401e-05
8.51444e-05
8.54175e-05
8.57218e-05
8.59946e-05
8.62986e-05
8.6571e-05
8.68752e-05
8.71472e-05
8.74508e-05
8.77218e-05
8.80254e-05
8.82955e-05
8.85983e-05
8.88686e-05
8.91707e-05
8.94397e-05
8.97412e-05
9.00101e-05
9.03132e-05
9.0583e-05
9.08864e-05
9.11565e-05
9.14626e-05
9.17358e-05
9.20436e-05
9.23191e-05
9.26302e-05
9.29081e-05
9.32216e-05
9.35033e-05
9.38187e-05
9.41014e-05
9.44187e-05
9.47037e-05
9.50228e-05
9.53093e-05
9.56286e-05
9.59151e-05
9.62344e-05
9.65196e-05
9.68386e-05
9.71231e-05
9.74402e-05
9.77224e-05
9.80373e-05
9.83176e-05
9.86278e-05
9.89011e-05
9.92051e-05
9.9469e-05
9.97658e-05
0.000100019
0.000100309
0.000100547
0.000100832
0.000101053
0.000101335
0.000101533
0.000101815
0.000101985
0.000102272
0.000102406
0.000102699
0.000102794
0.000103087
0.000103141
0.000103431
0.00010345
0.000103729
0.000103718
0.000103977
0.000103956
0.000104182
0.000104171
0.000104356
0.00010438
0.00010452
0.000104604
0.000104704
0.000104847
0.000104896
0.000104881
0.000104863
0.00010375
0.000105217
0.000105723
0.00010648
0.000105552
0.000105467
0.000105223
0.000105311
0.000105252
0.000105365
0.000105378
0.000105488
0.000105539
0.000105641
0.000105717
0.000105806
0.000105919
0.000105995
0.000106119
0.000106195
0.000106321
0.000106395
0.000106523
0.000106594
0.000106724
0.000106796
0.000106926
0.000106998
0.000107127
0.0001072
0.000107325
0.000107401
0.000107524
0.000107607
0.000107729
0.00010782
0.000107944
0.000108041
0.000108166
0.000108271
0.000108397
0.000108507
0.000108632
0.000108746
0.000108868
0.00010898
0.000109099
0.00010921
0.000109325
0.00010944
0.00010956
0.000109674
0.000109792
0.000109902
0.000110015
0.000110119
0.000110227
0.000110324
0.000110424
0.000110513
0.000110605
0.000110685
0.00011077
0.000110843
0.000110919
0.000110985
0.000111056
0.000111114
0.000111181
0.000111228
0.000111288
0.000111318
0.000111365
0.000111377
0.000111422
0.000111407
0.000111456
0.00011139
0.000111412
0.000111252
0.000111181
0.000111033
0.000110967
0.000110856
0.000110774
0.000110697
0.000110634
0.000110575
0.000110526
0.00011048
0.000110441
0.000110404
0.000110374
0.000110344
0.00011032
0.000110293
0.000110275
0.00011025
0.000110253
0.000110227
0.00011024
0.000110184
0.00011023
0.00011012
0.000110206
0.000109995
0.000110153
0.000109797
0.000110034
0.000109589
0.00010985
0.000109472
0.00010802
0.000109031
0.000109047
0.000109328
0.000108347
0.000108369
0.000108531
0.000108543
0.000108709
0.000108795
0.000108928
0.000109099
0.000109129
0.000109371
0.000109237
0.000109571
0.000109316
0.00010967
0.000109473
0.000108036
0.000109182
0.000109259
0.000109541
0.000108621
0.000108624
0.000108865
0.000108837
0.000109079
0.000109105
0.000109329
0.000109417
0.000109623
0.000109752
0.000109945
0.000110098
0.00011028
0.000110441
0.000110615
0.000110778
0.000110941
0.000111095
0.000111243
0.000111382
0.000111516
0.000111642
0.000111764
0.000111882
0.000111995
0.000112108
0.000112216
0.000112322
0.000112424
0.000112525
0.000112623
0.000112716
0.000112803
0.000112885
0.000112963
0.000113035
0.000113102
0.000113165
0.000113223
0.000113275
0.000113326
0.000113374
0.000113424
0.000113479
0.000113529
0.000113598
0.000113642
0.000113723
0.000113738
0.000113843
0.000113775
0.000113936
0.000113701
0.000113978
0.000113543
0.000113943
0.000113504
0.000111954
0.000113005
0.00011308
0.000113242
0.00011228
0.000112029
0.000112191
0.000112002
0.000112104
0.000112015
0.000112071
0.000112052
0.00011208
0.000112078
0.000112088
0.000112086
0.000112091
0.000112086
0.000112076
0.000112061
0.00011204
0.000112015
0.000111987
0.000111955
0.000111919
0.000111878
0.000111831
0.000111776
0.000111713
0.000111639
0.000111557
0.000111466
0.000111365
0.000111251
0.000111125
0.000110988
0.00011084
0.000110682
0.000110517
0.000110335
0.000110165
0.000109967
0.000109798
0.000109571
0.000109425
0.000109147
0.000109045
0.000108661
0.000108649
0.000108098
0.000108203
0.000107434
0.00010769
0.000106737
0.000107175
0.000106224
0.000106813
0.000106155
0.000106926
0.0001064
0.000105858
0.000102424
9.64029e-05
8.67585e-05
6.9604e-05
5.06554e-05
4.67435e-05
5.01291e-05
4.73837e-05
4.42392e-05
3.92595e-05
3.39603e-05
2.88243e-05
3.11239e-05
3.83338e-05
4.12212e-05
0.000188776
0.000123307
7.1947e-05
6.88178e-05
7.10478e-05
7.62661e-05
8.93715e-05
9.90839e-05
0.00011817
0.000115506
0.000107149
9.99299e-05
9.33141e-05
8.74615e-05
8.21988e-05
7.74277e-05
7.3119e-05
6.91634e-05
6.55051e-05
6.21225e-05
5.89394e-05
5.59673e-05
5.32098e-05
5.06483e-05
4.82913e-05
4.61087e-05
4.41122e-05
4.22719e-05
4.05857e-05
3.90326e-05
3.76018e-05
3.62822e-05
3.50674e-05
3.39469e-05
3.29189e-05
3.19676e-05
3.1092e-05
3.02736e-05
2.94378e-05
2.85637e-05
2.76943e-05
2.6864e-05
2.60981e-05
2.54015e-05
2.47822e-05
2.42349e-05
2.37689e-05
2.33624e-05
2.30536e-05
2.27948e-05
2.2627e-05
2.25102e-05
2.24723e-05
2.24965e-05
2.25814e-05
2.27408e-05
2.29421e-05
2.32293e-05
2.35466e-05
2.39576e-05
2.43914e-05
2.49321e-05
2.54845e-05
2.61352e-05
2.6782e-05
2.75239e-05
2.82508e-05
2.90619e-05
2.98732e-05
3.0781e-05
3.1686e-05
3.26594e-05
3.36889e-05
3.47467e-05
3.59296e-05
3.70462e-05
3.81988e-05
3.95179e-05
4.07364e-05
4.19862e-05
4.32604e-05
4.45392e-05
4.5837e-05
4.71233e-05
4.8466e-05
4.97901e-05
5.11476e-05
5.24724e-05
5.38041e-05
5.50851e-05
5.64022e-05
5.76681e-05
5.89278e-05
6.01022e-05
6.12856e-05
6.24234e-05
6.35977e-05
6.47156e-05
6.5927e-05
6.69656e-05
6.82625e-05
6.89255e-05
6.95146e-05
7.03155e-05
7.12275e-05
7.22363e-05
7.32404e-05
7.41328e-05
7.50035e-05
7.57657e-05
7.65709e-05
7.72262e-05
7.78929e-05
7.84187e-05
7.91742e-05
7.97529e-05
8.07175e-05
8.06792e-05
8.1254e-05
8.17588e-05
8.27015e-05
8.38161e-05
8.43276e-05
8.49526e-05
8.5448e-05
8.61608e-05
8.6946e-05
8.69857e-05
8.72613e-05
8.73622e-05
8.79993e-05
8.86441e-05
8.93697e-05
9.01261e-05
9.09019e-05
9.17982e-05
9.23584e-05
9.28566e-05
9.3124e-05
9.35458e-05
9.40103e-05
9.45108e-05
9.49962e-05
9.54895e-05
9.59581e-05
9.64287e-05
9.68749e-05
9.73214e-05
9.77434e-05
9.81698e-05
9.85755e-05
9.89866e-05
9.93718e-05
9.97686e-05
0.00010013
0.000100518
0.000100845
0.000101226
0.000101491
0.000101879
0.00010207
0.000102464
0.000102567
0.000102951
0.000102973
0.000103314
0.00010325
0.000103475
0.000103286
0.000103475
0.000103487
0.000103833
0.000104009
0.000104358
0.000104599
0.000104955
0.000105248
0.000105628
0.000105968
0.000106378
0.00010675
0.000107176
0.000107567
0.000108007
0.000108413
0.000108865
0.000109283
0.000109744
0.00011017
0.000110639
0.00011107
0.000111543
0.000111979
0.000112455
0.000112894
0.000113371
0.000113811
0.000114289
0.000114731
0.000115211
0.000115654
0.000116135
0.000116577
0.00011706
0.000117505
0.000117987
0.000118432
0.000118913
0.000119355
0.000119835
0.000120275
0.000120753
0.000121189
0.000121663
0.000122097
0.000122569
0.000123
0.00012347
0.000123899
0.000124368
0.000124798
0.000125269
0.000125698
0.000126169
0.0001266
0.000127071
0.000127504
0.000127977
0.000128412
0.000128885
0.000129319
0.000129794
0.000130229
0.000130705
0.00013114
0.000131614
0.000132048
0.00013252
0.000132953
0.000133423
0.000133851
0.000134318
0.000134742
0.000135203
0.000135621
0.000136074
0.00013648
0.000136922
0.000137316
0.000137746
0.000138124