/*--------------------------------*- C++ -*----------------------------------*\
| =========                 |                                                 |
| \\      /  F ield         | foam-extend: Open Source CFD                    |
|  \\    /   O peration     | Version:     3.2                                |
|   \\  /    A nd           | Web:         http://www.foam-extend.org         |
|    \\/     M anipulation  | For copyright notice see file Copyright         |
\*---------------------------------------------------------------------------*/
FoamFile
{
    version     2.0;
    format      ascii;
    class       volScalarField;
    location    "1790";
    object      nut;
}
// * * * * * * * * * * * * * * * * * * * * * * * * * * * * * * * * * * * * * //

dimensions      [0 2 -1 0 0 0 0];

internalField   nonuniform List<scalar> 
33000
(
6.25836e-06
7.61071e-06
9.00776e-06
1.04188e-05
1.18085e-05
1.31416e-05
1.43888e-05
1.55241e-05
1.65321e-05
1.74014e-05
1.8131e-05
1.87235e-05
1.91883e-05
1.95359e-05
1.97799e-05
1.9933e-05
2.00091e-05
2.0021e-05
1.98873e-05
1.91361e-05
1.84116e-05
1.7733e-05
1.7096e-05
1.65089e-05
1.59706e-05
1.5482e-05
1.50435e-05
1.465e-05
1.42925e-05
1.39635e-05
1.3665e-05
1.33908e-05
1.31438e-05
1.29184e-05
1.27176e-05
1.25367e-05
1.23776e-05
1.22355e-05
1.21126e-05
1.20045e-05
1.19128e-05
1.18309e-05
1.17616e-05
1.16994e-05
1.16488e-05
1.16033e-05
1.15699e-05
1.15434e-05
1.15285e-05
1.15191e-05
1.15196e-05
1.15223e-05
1.15324e-05
1.15421e-05
1.15574e-05
1.15709e-05
1.159e-05
1.16083e-05
1.16334e-05
1.16589e-05
1.16916e-05
1.17239e-05
1.17625e-05
1.17979e-05
1.18378e-05
1.18716e-05
1.1909e-05
1.19387e-05
1.19736e-05
1.20018e-05
1.20393e-05
1.20716e-05
1.21166e-05
1.21567e-05
1.22098e-05
1.22553e-05
1.23112e-05
1.23542e-05
1.2404e-05
1.24358e-05
1.24717e-05
1.24866e-05
1.25078e-05
1.25099e-05
1.25243e-05
1.25233e-05
1.25416e-05
1.25462e-05
1.25759e-05
1.25936e-05
1.26366e-05
1.26623e-05
1.27108e-05
1.27359e-05
1.27832e-05
1.2802e-05
1.28422e-05
1.28526e-05
1.28852e-05
1.28911e-05
1.2918e-05
1.29206e-05
1.29481e-05
1.29473e-05
1.29796e-05
1.29762e-05
1.30142e-05
1.30029e-05
1.30418e-05
1.30684e-05
1.30249e-05
1.29993e-05
1.29883e-05
1.2968e-05
1.29439e-05
1.29369e-05
1.29201e-05
1.28965e-05
1.30587e-05
1.30636e-05
1.28952e-05
1.28222e-05
1.28754e-05
1.28874e-05
1.28818e-05
1.2809e-05
1.28392e-05
1.28365e-05
1.29986e-05
1.29897e-05
1.28176e-05
1.26843e-05
1.29059e-05
1.29728e-05
1.28254e-05
1.27483e-05
1.28314e-05
1.28461e-05
1.28416e-05
1.27557e-05
1.2813e-05
1.29337e-05
1.30056e-05
1.28091e-05
1.27485e-05
1.27643e-05
1.28119e-05
1.28012e-05
1.28131e-05
1.27469e-05
1.27329e-05
1.2845e-05
1.29254e-05
1.28064e-05
1.27121e-05
1.27377e-05
1.27802e-05
1.27867e-05
1.27759e-05
1.27179e-05
1.27551e-05
1.28828e-05
1.29073e-05
1.27553e-05
1.27112e-05
1.27343e-05
1.27793e-05
1.27652e-05
1.27677e-05
1.2718e-05
1.27312e-05
1.28237e-05
1.29399e-05
1.28119e-05
1.27007e-05
1.27568e-05
1.28158e-05
1.2757e-05
1.27694e-05
1.28009e-05
1.27661e-05
1.27784e-05
1.27986e-05
1.27717e-05
1.27726e-05
1.28679e-05
1.28563e-05
1.28086e-05
1.28245e-05
1.2802e-05
1.28044e-05
1.28241e-05
1.27884e-05
1.28474e-05
1.28437e-05
1.27757e-05
1.28321e-05
1.28559e-05
1.2819e-05
1.28084e-05
1.28887e-05
1.28798e-05
1.28785e-05
1.2883e-05
1.28674e-05
1.28875e-05
1.29042e-05
1.29048e-05
1.29121e-05
1.29292e-05
1.29187e-05
1.29385e-05
1.29242e-05
1.2885e-05
1.28909e-05
1.28144e-05
1.29194e-05
1.29115e-05
1.30117e-05
1.30287e-05
1.30724e-05
1.31274e-05
1.31581e-05
1.31562e-05
1.31521e-05
1.32396e-05
1.32572e-05
1.32496e-05
1.32893e-05
1.33558e-05
1.32747e-05
1.31564e-05
1.34464e-05
1.36222e-05
1.35404e-05
1.35579e-05
1.34091e-05
1.35064e-05
1.36408e-05
1.36369e-05
1.3617e-05
1.36244e-05
1.36324e-05
1.36359e-05
1.36468e-05
1.36457e-05
1.36477e-05
1.36483e-05
1.36516e-05
1.36556e-05
1.3659e-05
1.36627e-05
1.36665e-05
1.36712e-05
1.36775e-05
1.36863e-05
1.36915e-05
1.36978e-05
1.3703e-05
1.37083e-05
1.37127e-05
1.37142e-05
1.37152e-05
1.37153e-05
1.37155e-05
1.37162e-05
1.37115e-05
1.3703e-05
1.37003e-05
1.36846e-05
1.36601e-05
1.37555e-05
1.38161e-05
1.37746e-05
1.3763e-05
1.37598e-05
1.37647e-05
1.37675e-05
1.37693e-05
1.3774e-05
1.37797e-05
1.37847e-05
1.37918e-05
1.37962e-05
1.38016e-05
1.38067e-05
1.3811e-05
1.38158e-05
1.38188e-05
1.38227e-05
1.38252e-05
1.38287e-05
1.38304e-05
1.38345e-05
1.38334e-05
1.38389e-05
1.38361e-05
1.38432e-05
1.38399e-05
1.38484e-05
1.38471e-05
1.38544e-05
1.38547e-05
1.386e-05
1.38625e-05
1.38652e-05
1.38703e-05
1.3871e-05
1.38785e-05
1.3879e-05
1.38873e-05
1.3889e-05
1.38972e-05
1.39003e-05
1.39084e-05
1.39123e-05
1.39203e-05
1.39254e-05
1.39315e-05
1.39465e-05
1.39553e-05
1.39705e-05
1.39735e-05
1.39908e-05
1.399e-05
1.40116e-05
1.40186e-05
1.40162e-05
1.40495e-05
1.40085e-05
1.40581e-05
1.41612e-05
1.41595e-05
1.41102e-05
1.41593e-05
1.41257e-05
1.41884e-05
1.41855e-05
1.41741e-05
1.42926e-05
1.37463e-05
1.41571e-05
1.43512e-05
1.42417e-05
1.43022e-05
1.42876e-05
1.43075e-05
1.433e-05
1.43417e-05
1.43598e-05
1.43639e-05
1.43797e-05
1.43843e-05
1.43992e-05
1.44037e-05
1.44185e-05
1.44226e-05
1.44371e-05
1.44398e-05
1.44545e-05
1.44572e-05
1.44722e-05
1.44751e-05
1.44918e-05
1.44938e-05
1.4513e-05
1.45123e-05
1.45271e-05
1.45346e-05
1.45333e-05
1.45616e-05
1.45453e-05
1.45917e-05
1.45495e-05
1.46047e-05
1.45547e-05
1.46175e-05
1.45903e-05
1.46298e-05
1.46381e-05
1.46381e-05
1.46398e-05
1.45089e-05
1.46287e-05
1.45082e-05
1.45649e-05
1.45182e-05
1.4509e-05
1.44875e-05
1.44693e-05
1.44609e-05
1.44554e-05
1.44421e-05
1.44461e-05
1.44301e-05
1.44403e-05
1.44378e-05
1.44265e-05
1.44415e-05
1.44026e-05
1.44479e-05
1.43805e-05
1.44729e-05
1.43401e-05
1.44507e-05
1.45032e-05
1.37883e-05
1.43227e-05
1.44634e-05
1.41147e-05
1.42901e-05
1.43192e-05
1.4257e-05
1.43079e-05
1.42802e-05
1.42933e-05
1.42825e-05
1.42725e-05
1.42765e-05
1.42735e-05
1.42759e-05
1.4278e-05
1.42746e-05
1.42743e-05
1.42779e-05
1.42731e-05
1.42761e-05
1.4271e-05
1.427e-05
1.42643e-05
1.42622e-05
1.42569e-05
1.42538e-05
1.42489e-05
1.42445e-05
1.42394e-05
1.42345e-05
1.42292e-05
1.42246e-05
1.42191e-05
1.42143e-05
1.42087e-05
1.42026e-05
1.41968e-05
1.41914e-05
1.41858e-05
1.41805e-05
1.4176e-05
1.41699e-05
1.41664e-05
1.41603e-05
1.41579e-05
1.41513e-05
1.41487e-05
1.41419e-05
1.41407e-05
1.41333e-05
1.41322e-05
1.41252e-05
1.41243e-05
1.41174e-05
1.41167e-05
1.41101e-05
1.41098e-05
1.41026e-05
1.41034e-05
1.40968e-05
1.40969e-05
1.40907e-05
1.40907e-05
1.4084e-05
1.40867e-05
1.40763e-05
1.40817e-05
1.4074e-05
1.40789e-05
1.40788e-05
1.40623e-05
1.4077e-05
1.40395e-05
1.40871e-05
1.4015e-05
1.40984e-05
1.39854e-05
1.40767e-05
1.39806e-05
1.38302e-05
1.40631e-05
1.35187e-05
1.39968e-05
1.4048e-05
1.34725e-05
1.38719e-05
1.38555e-05
1.37957e-05
1.38684e-05
1.37955e-05
1.38627e-05
1.38156e-05
1.38696e-05
1.38164e-05
1.38966e-05
1.37929e-05
1.3921e-05
1.37422e-05
1.37461e-05
1.39463e-05
1.33604e-05
1.38416e-05
1.3927e-05
1.34321e-05
1.36941e-05
1.37465e-05
1.36433e-05
1.37255e-05
1.36838e-05
1.37038e-05
1.36928e-05
1.3689e-05
1.37253e-05
1.36715e-05
1.37482e-05
1.36436e-05
1.37699e-05
1.36139e-05
1.37776e-05
1.35824e-05
1.37565e-05
1.35417e-05
1.36964e-05
1.35645e-05
1.36283e-05
1.36812e-05
1.37375e-05
1.38045e-05
1.38066e-05
1.37041e-05
1.35822e-05
1.08603e-05
8.5159e-06
6.7692e-06
7.16424e-06
5.8689e-06
4.92274e-06
4.70009e-06
6.19967e-06
4.39264e-06
4.13184e-06
5.67551e-06
2.57753e-05
5.22304e-05
3.12989e-05
2.24242e-05
1.78182e-05
1.51193e-05
1.35029e-05
1.24892e-05
1.18508e-05
1.14677e-05
1.12603e-05
1.11893e-05
1.12038e-05
1.12842e-05
1.14087e-05
1.15713e-05
1.17712e-05
1.20097e-05
1.22979e-05
1.26416e-05
1.30414e-05
1.35102e-05
1.40518e-05
1.46321e-05
1.52651e-05
1.5964e-05
1.67398e-05
1.75953e-05
1.83227e-05
1.87666e-05
1.92098e-05
1.96517e-05
2.00859e-05
2.05153e-05
2.09352e-05
2.13485e-05
2.17512e-05
2.21465e-05
2.25312e-05
2.29089e-05
2.32775e-05
2.36397e-05
2.39921e-05
2.43382e-05
2.46743e-05
2.50048e-05
2.53253e-05
2.56441e-05
2.59554e-05
2.62665e-05
2.65699e-05
2.68739e-05
2.71677e-05
2.74606e-05
2.77404e-05
2.80167e-05
2.82776e-05
2.8534e-05
2.87762e-05
2.9016e-05
2.92444e-05
2.94736e-05
2.96934e-05
2.99172e-05
3.01303e-05
3.03462e-05
3.05471e-05
3.07491e-05
3.09316e-05
3.11152e-05
3.12784e-05
3.14466e-05
3.15963e-05
3.17578e-05
3.19034e-05
3.20665e-05
3.22139e-05
3.23799e-05
3.25264e-05
3.26888e-05
3.28248e-05
3.29702e-05
3.30784e-05
3.31963e-05
3.32753e-05
3.33673e-05
3.34233e-05
3.35022e-05
3.35467e-05
3.36256e-05
3.36746e-05
3.37643e-05
3.38211e-05
3.39185e-05
3.3978e-05
3.40805e-05
3.41371e-05
3.42379e-05
3.4287e-05
3.4377e-05
3.44159e-05
3.44922e-05
3.45194e-05
3.45896e-05
3.46046e-05
3.46788e-05
3.46837e-05
3.47724e-05
3.47724e-05
3.48537e-05
3.49529e-05
3.484e-05
3.47651e-05
3.47052e-05
3.46951e-05
3.45846e-05
3.44836e-05
3.43669e-05
3.41447e-05
3.46915e-05
3.51142e-05
3.43717e-05
3.40431e-05
3.40983e-05
3.42326e-05
3.4219e-05
3.40549e-05
3.39263e-05
3.38575e-05
3.43814e-05
3.47874e-05
3.40389e-05
3.34519e-05
3.41484e-05
3.46573e-05
3.40848e-05
3.37307e-05
3.38705e-05
3.39965e-05
3.40225e-05
3.37138e-05
3.3657e-05
3.41565e-05
3.46334e-05
3.40163e-05
3.37061e-05
3.37615e-05
3.39219e-05
3.39162e-05
3.38948e-05
3.36885e-05
3.35805e-05
3.40388e-05
3.44715e-05
3.40333e-05
3.37452e-05
3.37509e-05
3.38724e-05
3.39308e-05
3.38709e-05
3.36092e-05
3.36111e-05
3.40905e-05
3.44967e-05
3.39719e-05
3.37018e-05
3.37835e-05
3.38962e-05
3.39076e-05
3.39399e-05
3.37999e-05
3.36968e-05
3.40898e-05
3.45492e-05
3.41438e-05
3.38674e-05
3.39448e-05
3.41505e-05
3.39979e-05
3.4058e-05
3.41867e-05
3.40616e-05
3.4112e-05
3.42115e-05
3.40963e-05
3.40496e-05
3.43555e-05
3.43283e-05
3.42355e-05
3.43185e-05
3.42495e-05
3.43155e-05
3.43516e-05
3.4311e-05
3.44315e-05
3.44144e-05
3.4269e-05
3.44553e-05
3.45164e-05
3.44239e-05
3.44798e-05
3.46503e-05
3.4629e-05
3.4622e-05
3.46338e-05
3.46378e-05
3.46967e-05
3.477e-05
3.48005e-05
3.48417e-05
3.48988e-05
3.48804e-05
3.49523e-05
3.49176e-05
3.49152e-05
3.4902e-05
3.47947e-05
3.51074e-05
3.50966e-05
3.53135e-05
3.53565e-05
3.54154e-05
3.55266e-05
3.56069e-05
3.55406e-05
3.54714e-05
3.57045e-05
3.575e-05
3.56989e-05
3.57666e-05
3.58176e-05
3.56524e-05
3.53172e-05
3.60176e-05
3.60109e-05
3.5962e-05
3.5876e-05
3.57184e-05
3.59851e-05
3.60117e-05
3.60055e-05
3.60203e-05
3.60393e-05
3.60638e-05
3.60858e-05
3.61098e-05
3.61298e-05
3.61508e-05
3.61683e-05
3.61883e-05
3.62054e-05
3.62256e-05
3.62438e-05
3.62662e-05
3.62876e-05
3.63111e-05
3.6332e-05
3.63545e-05
3.63747e-05
3.63961e-05
3.64149e-05
3.64341e-05
3.64489e-05
3.64661e-05
3.64811e-05
3.64985e-05
3.65128e-05
3.65247e-05
3.65362e-05
3.65442e-05
3.65619e-05
3.66305e-05
3.66689e-05
3.66714e-05
3.66558e-05
3.66559e-05
3.66698e-05
3.66901e-05
3.67111e-05
3.67356e-05
3.67594e-05
3.67846e-05
3.68078e-05
3.68318e-05
3.68545e-05
3.68786e-05
3.69011e-05
3.69249e-05
3.69463e-05
3.69699e-05
3.69909e-05
3.70143e-05
3.70338e-05
3.7057e-05
3.70747e-05
3.70985e-05
3.71168e-05
3.71434e-05
3.71626e-05
3.71921e-05
3.72123e-05
3.72428e-05
3.72624e-05
3.72944e-05
3.73156e-05
3.73485e-05
3.73709e-05
3.74045e-05
3.74301e-05
3.74639e-05
3.7492e-05
3.75263e-05
3.75567e-05
3.75912e-05
3.76242e-05
3.76584e-05
3.76916e-05
3.77263e-05
3.776e-05
3.7796e-05
3.78304e-05
3.7868e-05
3.79021e-05
3.7941e-05
3.79726e-05
3.80101e-05
3.80415e-05
3.80695e-05
3.8103e-05
3.81124e-05
3.81661e-05
3.82254e-05
3.82521e-05
3.82506e-05
3.82849e-05
3.82923e-05
3.83405e-05
3.83458e-05
3.83789e-05
3.83825e-05
3.81292e-05
3.79968e-05
3.85187e-05
3.85427e-05
3.83943e-05
3.84214e-05
3.84575e-05
3.84979e-05
3.85342e-05
3.85701e-05
3.86024e-05
3.86349e-05
3.86643e-05
3.86938e-05
3.87211e-05
3.87487e-05
3.87744e-05
3.8801e-05
3.88259e-05
3.88509e-05
3.88735e-05
3.88964e-05
3.89168e-05
3.8938e-05
3.89571e-05
3.89775e-05
3.89967e-05
3.90155e-05
3.90369e-05
3.90539e-05
3.90789e-05
3.90895e-05
3.91207e-05
3.91183e-05
3.91633e-05
3.91358e-05
3.92018e-05
3.91488e-05
3.92256e-05
3.91355e-05
3.91901e-05
3.90759e-05
3.90815e-05
3.90268e-05
3.90423e-05
3.90024e-05
3.90179e-05
3.90058e-05
3.9013e-05
3.90173e-05
3.9027e-05
3.9037e-05
3.90456e-05
3.90557e-05
3.90632e-05
3.90697e-05
3.9082e-05
3.90791e-05
3.90929e-05
3.90762e-05
3.91019e-05
3.90658e-05
3.91087e-05
3.90324e-05
3.9115e-05
3.91106e-05
3.8661e-05
3.84154e-05
3.90121e-05
3.89447e-05
3.87636e-05
3.88203e-05
3.88718e-05
3.88943e-05
3.893e-05
3.89454e-05
3.89678e-05
3.89797e-05
3.89941e-05
3.9006e-05
3.90111e-05
3.9013e-05
3.90095e-05
3.90019e-05
3.89969e-05
3.89875e-05
3.89798e-05
3.89698e-05
3.89594e-05
3.89465e-05
3.8932e-05
3.89153e-05
3.8898e-05
3.88805e-05
3.88635e-05
3.88468e-05
3.88308e-05
3.88145e-05
3.87985e-05
3.87826e-05
3.87673e-05
3.87527e-05
3.87384e-05
3.87247e-05
3.87116e-05
3.86986e-05
3.86859e-05
3.86738e-05
3.86619e-05
3.86512e-05
3.86406e-05
3.8631e-05
3.86222e-05
3.86137e-05
3.86059e-05
3.85998e-05
3.8593e-05
3.85867e-05
3.85797e-05
3.85733e-05
3.85662e-05
3.856e-05
3.85534e-05
3.85483e-05
3.85425e-05
3.85387e-05
3.85344e-05
3.8531e-05
3.85267e-05
3.85234e-05
3.85192e-05
3.85172e-05
3.85122e-05
3.85094e-05
3.85047e-05
3.8498e-05
3.84967e-05
3.84824e-05
3.84846e-05
3.84561e-05
3.84674e-05
3.84137e-05
3.84414e-05
3.83514e-05
3.84027e-05
3.8286e-05
3.83375e-05
3.84368e-05
3.80251e-05
3.80001e-05
3.82937e-05
3.80054e-05
3.74011e-05
3.78543e-05
3.7954e-05
3.79824e-05
3.80392e-05
3.80584e-05
3.80838e-05
3.81039e-05
3.8096e-05
3.81145e-05
3.80563e-05
3.80962e-05
3.79642e-05
3.80499e-05
3.81023e-05
3.76808e-05
3.76171e-05
3.79117e-05
3.76328e-05
3.72459e-05
3.74585e-05
3.75296e-05
3.75498e-05
3.75905e-05
3.75962e-05
3.76158e-05
3.76031e-05
3.76176e-05
3.75775e-05
3.75975e-05
3.75212e-05
3.75624e-05
3.74392e-05
3.75122e-05
3.73323e-05
3.74432e-05
3.72091e-05
3.73712e-05
3.71552e-05
3.73535e-05
3.72328e-05
3.74629e-05
3.74364e-05
3.73986e-05
3.62638e-05
3.48132e-05
3.18855e-05
2.75607e-05
2.4627e-05
2.36018e-05
2.6587e-05
2.41696e-05
2.23364e-05
1.92382e-05
1.57249e-05
1.80528e-05
1.56306e-05
1.5853e-05
2.15019e-05
0.000149361
0.00011389
7.86812e-05
6.78502e-05
5.45925e-05
4.45734e-05
3.66529e-05
3.08243e-05
2.6515e-05
2.33331e-05
2.08906e-05
1.89999e-05
1.74931e-05
1.62904e-05
1.5317e-05
1.45302e-05
1.38939e-05
1.33833e-05
1.29815e-05
1.26749e-05
1.24524e-05
1.23067e-05
1.22325e-05
1.22269e-05
1.22883e-05
1.24171e-05
1.26152e-05
1.288e-05
1.32065e-05
1.35918e-05
1.40347e-05
1.45347e-05
1.50945e-05
1.56791e-05
1.62783e-05
1.68906e-05
1.75154e-05
1.81523e-05
1.88016e-05
1.94638e-05
2.014e-05
2.08307e-05
2.15383e-05
2.22652e-05
2.30143e-05
2.37876e-05
2.44098e-05
2.50293e-05
2.56457e-05
2.62632e-05
2.68801e-05
2.75006e-05
2.81233e-05
2.875e-05
2.93772e-05
3.00051e-05
3.06261e-05
3.12403e-05
3.1843e-05
3.24335e-05
3.30098e-05
3.35789e-05
3.41368e-05
3.4693e-05
3.52404e-05
3.57873e-05
3.63254e-05
3.6861e-05
3.7382e-05
3.78975e-05
3.839e-05
3.88729e-05
3.93314e-05
3.97803e-05
4.02097e-05
4.06363e-05
4.10501e-05
4.14729e-05
4.18901e-05
4.23245e-05
4.27545e-05
4.31986e-05
4.36315e-05
4.40753e-05
4.44964e-05
4.49182e-05
4.53052e-05
4.56846e-05
4.60217e-05
4.6346e-05
4.66358e-05
4.69242e-05
4.71941e-05
4.74815e-05
4.77695e-05
4.80725e-05
4.83881e-05
4.86262e-05
4.88432e-05
4.90535e-05
4.92556e-05
4.94536e-05
4.96467e-05
4.9838e-05
5.00269e-05
5.02194e-05
5.0417e-05
5.06172e-05
5.08037e-05
5.09256e-05
5.10305e-05
5.10357e-05
5.11315e-05
5.12072e-05
5.12928e-05
5.13474e-05
5.13931e-05
5.13909e-05
5.14221e-05
5.14257e-05
5.14949e-05
5.15356e-05
5.16184e-05
5.1644e-05
5.16926e-05
5.17029e-05
5.17593e-05
5.17894e-05
5.18436e-05
5.18749e-05
5.19291e-05
5.19611e-05
5.19978e-05
5.2042e-05
5.20894e-05
5.2105e-05
5.21668e-05
5.22167e-05
5.22752e-05
5.23066e-05
5.23838e-05
5.24315e-05
5.24892e-05
5.25335e-05
5.26063e-05
5.26577e-05
5.27234e-05
5.27417e-05
5.27919e-05
5.2837e-05
5.29005e-05
5.29316e-05
5.30054e-05
5.30248e-05
5.30767e-05
5.3111e-05
5.319e-05
5.32193e-05
5.32799e-05
5.33334e-05
5.33893e-05
5.34367e-05
5.34908e-05
5.35318e-05
5.35988e-05
5.36545e-05
5.37289e-05
5.37996e-05
5.38704e-05
5.39184e-05
5.39911e-05
5.40326e-05
5.41091e-05
5.41497e-05
5.42499e-05
5.43191e-05
5.43643e-05
5.44458e-05
5.45115e-05
5.45614e-05
5.46308e-05
5.46947e-05
5.47722e-05
5.48692e-05
5.49928e-05
5.50953e-05
5.5191e-05
5.5265e-05
5.53232e-05
5.5435e-05
5.55191e-05
5.5594e-05
5.57145e-05
5.57826e-05
5.58307e-05
5.59373e-05
5.60241e-05
5.60603e-05
5.61583e-05
5.62924e-05
5.64078e-05
5.65029e-05
5.65683e-05
5.66549e-05
5.67421e-05
5.68725e-05
5.69797e-05
5.71162e-05
5.72278e-05
5.73313e-05
5.74412e-05
5.75107e-05
5.75983e-05
5.76589e-05
5.7738e-05
5.79038e-05
5.80686e-05
5.82608e-05
5.84319e-05
5.85976e-05
5.87543e-05
5.89001e-05
5.90019e-05
5.91095e-05
5.92373e-05
5.93611e-05
5.9463e-05
5.95704e-05
5.96717e-05
5.97016e-05
5.9765e-05
6.00552e-05
6.02529e-05
6.0346e-05
6.03442e-05
6.02804e-05
6.03761e-05
6.04844e-05
6.05632e-05
6.06022e-05
6.06506e-05
6.07026e-05
6.07625e-05
6.08174e-05
6.0879e-05
6.09335e-05
6.09907e-05
6.1042e-05
6.10978e-05
6.11488e-05
6.12058e-05
6.12596e-05
6.13209e-05
6.13803e-05
6.14443e-05
6.15042e-05
6.15662e-05
6.16237e-05
6.16824e-05
6.17353e-05
6.17886e-05
6.18345e-05
6.18827e-05
6.19253e-05
6.19706e-05
6.20109e-05
6.20479e-05
6.20811e-05
6.21113e-05
6.21598e-05
6.22728e-05
6.23669e-05
6.2418e-05
6.24306e-05
6.24517e-05
6.24876e-05
6.25353e-05
6.25869e-05
6.26453e-05
6.27046e-05
6.27692e-05
6.28322e-05
6.2899e-05
6.29639e-05
6.30318e-05
6.30976e-05
6.31657e-05
6.32307e-05
6.32987e-05
6.33627e-05
6.34305e-05
6.34928e-05
6.35601e-05
6.36199e-05
6.36879e-05
6.37481e-05
6.38204e-05
6.38814e-05
6.39582e-05
6.40204e-05
6.4101e-05
6.41634e-05
6.42485e-05
6.43145e-05
6.44034e-05
6.44738e-05
6.45656e-05
6.46423e-05
6.47364e-05
6.48196e-05
6.49162e-05
6.50055e-05
6.51042e-05
6.51989e-05
6.5299e-05
6.5397e-05
6.54983e-05
6.55983e-05
6.57022e-05
6.58063e-05
6.59154e-05
6.60195e-05
6.61288e-05
6.62288e-05
6.63341e-05
6.64328e-05
6.6525e-05
6.66238e-05
6.66962e-05
6.68248e-05
6.69702e-05
6.70843e-05
6.71522e-05
6.7243e-05
6.72897e-05
6.74061e-05
6.74384e-05
6.75377e-05
6.75422e-05
6.73281e-05
6.76847e-05
6.79157e-05
6.80843e-05
6.7946e-05
6.79947e-05
6.80608e-05
6.8142e-05
6.82235e-05
6.83064e-05
6.8388e-05
6.84682e-05
6.85455e-05
6.86207e-05
6.86935e-05
6.87641e-05
6.88332e-05
6.89009e-05
6.89674e-05
6.9031e-05
6.90922e-05
6.91506e-05
6.92065e-05
6.92604e-05
6.93132e-05
6.93644e-05
6.94168e-05
6.94637e-05
6.95175e-05
6.95597e-05
6.96135e-05
6.96475e-05
6.97114e-05
6.97238e-05
6.98113e-05
6.97746e-05
6.98977e-05
6.97986e-05
6.99461e-05
6.9762e-05
6.98784e-05
6.96413e-05
6.96914e-05
6.95445e-05
6.95666e-05
6.94839e-05
6.94879e-05
6.94518e-05
6.94437e-05
6.94311e-05
6.94246e-05
6.94186e-05
6.94162e-05
6.94141e-05
6.94159e-05
6.94122e-05
6.94228e-05
6.94144e-05
6.94303e-05
6.94057e-05
6.94406e-05
6.93848e-05
6.94493e-05
6.93316e-05
6.94565e-05
6.93647e-05
6.88844e-05
6.91629e-05
6.92624e-05
6.92673e-05
6.90047e-05
6.90077e-05
6.90625e-05
6.90572e-05
6.91016e-05
6.91101e-05
6.91378e-05
6.91539e-05
6.91706e-05
6.91848e-05
6.91898e-05
6.91925e-05
6.91886e-05
6.9178e-05
6.91699e-05
6.91568e-05
6.91453e-05
6.91306e-05
6.91137e-05
6.90929e-05
6.90679e-05
6.9039e-05
6.90086e-05
6.89768e-05
6.89463e-05
6.89161e-05
6.8887e-05
6.88577e-05
6.88287e-05
6.88001e-05
6.87725e-05
6.87473e-05
6.87229e-05
6.87e-05
6.86783e-05
6.86576e-05
6.86382e-05
6.86208e-05
6.86048e-05
6.85897e-05
6.85772e-05
6.85668e-05
6.8558e-05
6.85497e-05
6.85446e-05
6.85405e-05
6.85381e-05
6.85354e-05
6.85326e-05
6.85294e-05
6.85266e-05
6.8524e-05
6.85227e-05
6.85224e-05
6.8523e-05
6.85256e-05
6.85282e-05
6.85322e-05
6.85353e-05
6.85392e-05
6.85421e-05
6.85469e-05
6.85483e-05
6.85493e-05
6.85491e-05
6.85439e-05
6.85461e-05
6.85312e-05
6.85346e-05
6.84965e-05
6.85104e-05
6.8429e-05
6.84645e-05
6.83153e-05
6.83895e-05
6.81704e-05
6.82768e-05
6.83672e-05
6.78923e-05
6.82453e-05
6.82127e-05
6.80324e-05
6.76389e-05
6.76104e-05
6.76694e-05
6.75846e-05
6.76138e-05
6.75692e-05
6.75733e-05
6.75569e-05
6.75244e-05
6.75244e-05
6.74222e-05
6.74607e-05
6.72399e-05
6.73632e-05
6.73826e-05
6.69258e-05
6.71806e-05
6.71319e-05
6.69144e-05
6.65001e-05
6.64376e-05
6.64601e-05
6.63882e-05
6.63929e-05
6.63446e-05
6.6336e-05
6.62783e-05
6.62719e-05
6.61889e-05
6.61928e-05
6.6055e-05
6.60966e-05
6.58775e-05
6.5974e-05
6.56493e-05
6.58113e-05
6.53789e-05
6.56285e-05
6.51797e-05
6.55074e-05
6.5178e-05
6.55772e-05
6.54933e-05
6.55119e-05
6.39812e-05
6.12433e-05
5.6367e-05
4.72975e-05
3.56986e-05
3.74473e-05
3.98911e-05
3.72971e-05
3.47201e-05
3.03879e-05
2.47545e-05
2.09874e-05
2.28772e-05
2.54492e-05
3.59483e-05
0.000183058
0.000142311
7.56136e-05
7.38851e-05
7.59691e-05
8.35977e-05
9.1963e-05
7.99286e-05
7.03966e-05
6.2723e-05
5.63453e-05
5.10509e-05
4.65731e-05
4.27924e-05
3.95723e-05
3.68307e-05
3.44377e-05
3.23268e-05
3.04295e-05
2.86992e-05
2.71116e-05
2.56551e-05
2.43305e-05
2.31381e-05
2.2073e-05
2.11285e-05
2.02957e-05
1.95632e-05
1.89222e-05
1.83636e-05
1.78802e-05
1.74651e-05
1.71135e-05
1.68232e-05
1.65924e-05
1.64187e-05
1.63e-05
1.62371e-05
1.62396e-05
1.63086e-05
1.64372e-05
1.66221e-05
1.68622e-05
1.71589e-05
1.75147e-05
1.79323e-05
1.84046e-05
1.89093e-05
1.94444e-05
2.00085e-05
2.06002e-05
2.1219e-05
2.18656e-05
2.25398e-05
2.32426e-05
2.39723e-05
2.47273e-05
2.55046e-05
2.62997e-05
2.71083e-05
2.7927e-05
2.8611e-05
2.92415e-05
2.9887e-05
3.05239e-05
3.11908e-05
3.18601e-05
3.25696e-05
3.32804e-05
3.40291e-05
3.47619e-05
3.55201e-05
3.62456e-05
3.6988e-05
3.76893e-05
3.84123e-05
3.91034e-05
3.98438e-05
4.05756e-05
4.13893e-05
4.22081e-05
4.31241e-05
4.40455e-05
4.5069e-05
4.60665e-05
4.71387e-05
4.81314e-05
4.91735e-05
5.00803e-05
5.09838e-05
5.17313e-05
5.25098e-05
5.317e-05
5.37651e-05
5.43423e-05
5.49011e-05
5.54494e-05
5.59859e-05
5.65157e-05
5.70404e-05
5.75634e-05
5.80871e-05
5.86122e-05
5.91398e-05
5.96706e-05
6.02093e-05
6.0772e-05
6.13581e-05
6.19413e-05
6.24586e-05
6.2961e-05
6.33302e-05
6.3755e-05
6.41145e-05
6.44596e-05
6.47493e-05
6.50207e-05
6.52171e-05
6.54369e-05
6.56265e-05
6.5902e-05
6.61383e-05
6.64293e-05
6.66365e-05
6.68596e-05
6.70308e-05
6.72467e-05
6.74314e-05
6.76568e-05
6.78506e-05
6.80912e-05
6.82841e-05
6.84829e-05
6.86737e-05
6.88627e-05
6.9004e-05
6.91974e-05
6.93687e-05
6.95503e-05
6.97053e-05
6.99302e-05
7.01204e-05
7.03281e-05
7.05042e-05
7.07161e-05
7.08829e-05
7.10712e-05
7.12012e-05
7.13656e-05
7.1522e-05
7.16974e-05
7.18422e-05
7.2037e-05
7.21611e-05
7.23145e-05
7.24402e-05
7.26212e-05
7.27419e-05
7.28976e-05
7.30573e-05
7.32166e-05
7.33583e-05
7.35043e-05
7.36289e-05
7.37873e-05
7.39385e-05
7.41106e-05
7.42812e-05
7.445e-05
7.45847e-05
7.47526e-05
7.48848e-05
7.50514e-05
7.5179e-05
7.538e-05
7.55359e-05
7.56823e-05
7.58702e-05
7.60188e-05
7.61609e-05
7.63295e-05
7.64773e-05
7.66662e-05
7.68758e-05
7.71129e-05
7.7331e-05
7.75421e-05
7.77195e-05
7.78816e-05
7.81071e-05
7.83017e-05
7.84835e-05
7.87106e-05
7.88747e-05
7.90375e-05
7.92603e-05
7.94604e-05
7.96169e-05
7.98372e-05
8.00874e-05
8.03401e-05
8.0557e-05
8.07361e-05
8.09402e-05
8.11382e-05
8.1384e-05
8.16059e-05
8.1865e-05
8.20903e-05
8.23055e-05
8.25181e-05
8.26861e-05
8.28788e-05
8.30457e-05
8.32351e-05
8.35232e-05
8.38201e-05
8.41542e-05
8.44699e-05
8.47872e-05
8.5083e-05
8.53646e-05
8.55885e-05
8.5814e-05
8.60547e-05
8.62971e-05
8.65133e-05
8.67282e-05
8.69336e-05
8.70651e-05
8.7275e-05
8.76925e-05
8.80306e-05
8.82508e-05
8.83654e-05
8.83884e-05
8.85695e-05
8.87612e-05
8.89316e-05
8.90536e-05
8.91853e-05
8.9306e-05
8.94369e-05
8.9555e-05
8.96838e-05
8.97992e-05
8.99208e-05
9.00344e-05
9.01524e-05
9.02632e-05
9.03803e-05
9.04932e-05
9.06141e-05
9.0732e-05
9.08544e-05
9.09702e-05
9.10871e-05
9.11971e-05
9.13053e-05
9.14047e-05
9.15036e-05
9.15912e-05
9.16808e-05
9.17619e-05
9.1845e-05
9.19211e-05
9.19941e-05
9.20611e-05
9.21287e-05
9.22259e-05
9.23894e-05
9.2535e-05
9.26361e-05
9.26999e-05
9.27618e-05
9.28384e-05
9.29294e-05
9.30278e-05
9.31357e-05
9.32466e-05
9.33673e-05
9.34882e-05
9.36165e-05
9.37437e-05
9.3876e-05
9.40073e-05
9.41417e-05
9.42738e-05
9.4409e-05
9.45397e-05
9.46752e-05
9.48039e-05
9.49392e-05
9.50652e-05
9.52012e-05
9.5327e-05
9.54679e-05
9.55942e-05
9.57399e-05
9.58668e-05
9.60174e-05
9.61453e-05
9.63032e-05
9.64365e-05
9.66012e-05
9.67418e-05
9.69124e-05
9.70632e-05
9.72392e-05
9.74003e-05
9.75804e-05
9.77514e-05
9.79361e-05
9.81159e-05
9.83052e-05
9.84913e-05
9.8683e-05
9.88723e-05
9.90674e-05
9.92636e-05
9.94658e-05
9.96624e-05
9.98645e-05
0.000100055
0.00010025
0.000100437
0.000100616
0.000100802
0.000100965
0.00010119
0.000101427
0.000101641
0.000101798
0.000101976
0.000102095
0.000102298
0.000102387
0.00010257
0.00010261
0.000102495
0.000102986
0.000103292
0.000103627
0.000103568
0.000103679
0.000103804
0.00010395
0.000104097
0.000104246
0.000104395
0.000104542
0.000104686
0.000104826
0.000104963
0.000105096
0.000105227
0.000105353
0.000105477
0.000105596
0.000105711
0.00010582
0.000105925
0.000106025
0.000106122
0.000106215
0.000106309
0.000106395
0.000106489
0.000106566
0.000106659
0.000106725
0.000106829
0.00010687
0.000106999
0.000106974
0.000107149
0.000107034
0.000107239
0.000106995
0.000107157
0.000106828
0.000106903
0.000106679
0.0001067
0.00010658
0.000106558
0.000106491
0.000106456
0.000106416
0.000106382
0.000106346
0.000106316
0.000106285
0.000106262
0.000106231
0.000106218
0.000106184
0.000106182
0.000106133
0.000106157
0.000106072
0.000106133
0.000105974
0.000106104
0.000105905
0.000105454
0.000105751
0.000105792
0.000105862
0.000105578
0.000105496
0.000105534
0.000105487
0.000105516
0.000105499
0.000105507
0.000105505
0.000105502
0.000105497
0.000105483
0.000105466
0.000105443
0.000105412
0.000105384
0.00010535
0.000105318
0.000105282
0.000105244
0.0001052
0.000105151
0.000105097
0.00010504
0.000104981
0.000104925
0.00010487
0.000104816
0.000104764
0.000104713
0.000104663
0.000104616
0.000104573
0.000104533
0.000104496
0.000104462
0.000104432
0.000104405
0.000104381
0.000104362
0.000104345
0.000104333
0.000104323
0.000104318
0.000104314
0.000104315
0.000104317
0.000104322
0.000104327
0.000104332
0.000104336
0.000104342
0.000104347
0.000104355
0.000104364
0.000104375
0.000104388
0.000104401
0.000104416
0.000104429
0.000104443
0.000104454
0.000104467
0.000104474
0.000104479
0.000104481
0.000104474
0.000104475
0.000104454
0.000104452
0.000104399
0.000104406
0.000104297
0.000104325
0.000104123
0.000104193
0.000103894
0.000104018
0.000104063
0.000103553
0.000103946
0.000103715
0.000103623
0.000103169
0.000103004
0.000103034
0.000102855
0.000102839
0.000102713
0.000102661
0.000102579
0.000102486
0.000102435
0.000102265
0.000102259
0.000101949
0.000102056
0.000102014
0.000101519
0.000101771
0.000101596
0.000101411
0.00010092
0.000100688
0.000100644
0.000100468
0.000100405
0.000100278
0.000100204
0.000100073
0.000100006
9.98525e-05
9.9811e-05
9.95973e-05
9.95991e-05
9.92851e-05
9.93576e-05
9.89068e-05
9.90653e-05
9.84695e-05
9.87421e-05
9.80977e-05
9.84735e-05
9.79537e-05
9.8425e-05
9.8179e-05
9.80101e-05
9.59308e-05
9.2271e-05
8.57293e-05
7.3127e-05
5.36578e-05
5.18583e-05
5.46759e-05
5.1288e-05
4.65337e-05
4.04928e-05
3.38292e-05
2.65571e-05
2.62289e-05
3.32333e-05
3.8883e-05
0.000188764
0.000126583
7.21851e-05
6.95477e-05
7.17814e-05
7.74269e-05
9.07019e-05
0.000100866
0.00011982
0.00011581
0.000107463
0.000100171
9.35593e-05
8.76203e-05
8.229e-05
7.75302e-05
7.32158e-05
6.92799e-05
6.56453e-05
6.22559e-05
5.90774e-05
5.61011e-05
5.333e-05
5.07654e-05
4.84001e-05
4.6228e-05
4.4239e-05
4.24133e-05
4.07383e-05
3.91973e-05
3.77773e-05
3.64663e-05
3.52509e-05
3.41238e-05
3.30795e-05
3.21131e-05
3.12215e-05
3.03879e-05
2.95434e-05
2.86666e-05
2.77944e-05
2.69642e-05
2.61975e-05
2.5502e-05
2.48806e-05
2.43328e-05
2.38572e-05
2.3453e-05
2.31189e-05
2.28532e-05
2.26548e-05
2.2523e-05
2.24574e-05
2.2458e-05
2.25244e-05
2.26545e-05
2.28459e-05
2.30966e-05
2.34052e-05
2.37691e-05
2.41884e-05
2.46598e-05
2.51828e-05
2.57563e-05
2.63792e-05
2.70513e-05
2.77743e-05
2.85438e-05
2.93584e-05
3.02191e-05
3.11258e-05
3.20752e-05
3.30635e-05
3.40857e-05
3.51398e-05
3.62211e-05
3.73315e-05
3.84714e-05
3.96458e-05
4.08584e-05
4.2114e-05
4.34137e-05
4.47588e-05
4.61426e-05
4.75588e-05
4.89943e-05
5.0437e-05
5.18714e-05
5.3288e-05
5.46724e-05
5.60178e-05
5.73116e-05
5.85564e-05
5.97498e-05
6.09011e-05
6.2009e-05
6.30863e-05
6.41316e-05
6.51559e-05
6.61591e-05
6.715e-05
6.81288e-05
6.9099e-05
7.00634e-05
7.10244e-05
7.19979e-05
7.3046e-05
7.41732e-05
7.53196e-05
7.63975e-05
7.74651e-05
7.83082e-05
7.91238e-05
7.98207e-05
8.04356e-05
8.09393e-05
8.13987e-05
8.17415e-05
8.20983e-05
8.24747e-05
8.29665e-05
8.34426e-05
8.39694e-05
8.43894e-05
8.48051e-05
8.51313e-05
8.55085e-05
8.58676e-05
8.62834e-05
8.66807e-05
8.71372e-05
8.7546e-05
8.79324e-05
8.8281e-05
8.86336e-05
8.89394e-05
8.92791e-05
8.95852e-05
8.9906e-05
9.02142e-05
9.06105e-05
9.09739e-05
9.13566e-05
9.17138e-05
9.20937e-05
9.23905e-05
9.27091e-05
9.297e-05
9.32695e-05
9.3546e-05
9.38536e-05
9.41361e-05
9.4478e-05
9.47437e-05
9.50145e-05
9.52389e-05
9.55456e-05
9.5762e-05
9.60033e-05
9.62692e-05
9.6555e-05
9.68159e-05
9.70595e-05
9.72671e-05
9.75232e-05
9.77766e-05
9.80507e-05
9.83344e-05
9.86193e-05
9.88561e-05
9.91272e-05
9.93557e-05
9.96199e-05
9.98383e-05
0.000100151
0.000100412
0.000100677
0.000100979
0.000101225
0.000101476
0.000101759
0.000102013
0.000102322
0.000102657
0.000103034
0.000103372
0.00010371
0.000104009
0.000104294
0.000104644
0.000104964
0.000105275
0.000105618
0.000105885
0.000106173
0.00010652
0.000106851
0.000107155
0.000107517
0.000107896
0.000108287
0.000108654
0.000108973
0.000109307
0.000109641
0.000110018
0.000110372
0.000110764
0.000111103
0.000111427
0.000111746
0.000112005
0.000112294
0.000112566
0.000112875
0.000113294
0.000113736
0.000114225
0.000114688
0.000115155
0.000115588
0.000116001
0.00011635
0.000116692
0.000117038
0.000117386
0.000117712
0.000118028
0.00011833
0.000118574
0.000118902
0.000119435
0.00011989
0.000120241
0.000120468
0.000120596
0.000120877
0.000121159
0.000121428
0.000121642
0.000121859
0.000122059
0.000122269
0.000122461
0.000122666
0.000122852
0.000123047
0.000123229
0.000123417
0.000123598
0.000123784