/*--------------------------------*- C++ -*----------------------------------*\
| =========                 |                                                 |
| \\      /  F ield         | foam-extend: Open Source CFD                    |
|  \\    /   O peration     | Version:     3.2                                |
|   \\  /    A nd           | Web:         http://www.foam-extend.org         |
|    \\/     M anipulation  | For copyright notice see file Copyright         |
\*---------------------------------------------------------------------------*/
FoamFile
{
    version     2.0;
    format      ascii;
    class       volScalarField;
    location    "2020";
    object      omega;
}
// * * * * * * * * * * * * * * * * * * * * * * * * * * * * * * * * * * * * * //

dimensions      [0 0 -1 0 0 0 0];

internalField   nonuniform List<scalar> 
33000
(
26.127
29.669
33.4736
37.4325
41.4194
45.308
48.9908
52.3738
55.3979
58.0241
60.2262
62.0115
63.4389
64.4987
65.2261
65.7026
65.9362
65.9565
65.8278
65.5849
65.2508
64.8471
64.3824
63.8841
63.3608
62.8226
62.2788
61.7414
61.2209
60.7158
60.2244
59.7519
59.2955
58.8626
58.4497
58.0604
57.6912
57.34
57.0094
56.7008
56.4049
56.1305
55.8728
55.6291
55.3999
55.1875
54.9855
54.816
54.6126
54.4876
54.3206
54.2025
54.0341
53.9414
53.807
53.6964
53.5864
53.4846
53.3827
53.2967
53.2185
53.1568
53.1057
53.0593
53.0203
52.9925
52.9717
52.9377
52.8857
52.8343
52.7993
52.7739
52.7557
52.7196
52.5928
53.2244
53.4893
52.9195
53.2054
53.2313
53.2607
53.3279
53.2983
53.3288
53.2188
53.2241
53.1469
53.0579
53.0118
52.9727
52.8406
52.7754
52.7086
52.6134
52.5623
52.475
52.4205
52.3414
52.1446
52.2935
52.24
52.6549
52.6653
51.7317
51.9835
51.9203
51.7268
51.851
51.6857
51.6903
51.6499
51.56
51.5584
51.5496
51.4459
51.4993
51.241
51.8159
51.651
50.6618
51.0063
50.7916
51.1203
50.968
50.3524
50.5461
50.5537
51.1013
50.868
50.2791
50.4793
50.397
50.3798
50.4267
50.493
50.5167
50.909
51.1133
51.0098
51.0713
51.1009
51.1445
51.1909
51.2305
51.2729
51.3111
51.3499
51.3832
51.4157
51.4424
51.4673
51.4885
51.507
51.5206
51.5349
51.5391
51.5553
51.5439
51.5677
51.5293
51.5615
51.5158
51.5344
51.4916
51.4878
51.4594
51.412
51.3868
51.2976
51.1614
50.9961
50.9543
50.8438
50.7932
50.7115
50.6715
50.6123
50.5807
50.5442
50.5206
50.5028
50.4906
50.4834
50.4801
50.4804
50.4835
50.4891
50.4968
50.5062
50.5169
50.5288
50.5415
50.5551
50.5695
50.5841
50.599
50.6138
50.6291
50.6438
50.6587
50.673
50.6874
50.7011
50.7147
50.7276
50.7405
50.7526
50.7648
50.7761
50.7875
50.7982
50.8087
50.8187
50.8288
50.8383
50.8477
50.8567
50.8659
50.8746
50.8837
50.8926
50.9015
50.9103
50.9195
50.929
50.9389
50.9491
50.9598
50.9709
50.9825
50.9945
51.007
51.0201
51.0336
51.0476
51.0619
51.0766
51.0917
51.1075
51.1237
51.1403
51.1572
51.175
51.193
51.2117
51.2301
51.2494
51.2681
51.2879
51.3062
51.3266
51.3443
51.3656
51.3817
51.405
51.4184
51.4446
51.4552
51.4848
51.4931
51.5256
51.5333
51.5661
51.574
51.6047
51.6137
51.6398
51.6511
51.6687
51.6839
51.6896
51.7104
51.7007
51.7275
51.7013
51.7327
51.6946
51.7227
51.6964
51.7166
51.7253
51.667
51.8078
50.8038
51.4253
52.2854
51.8076
51.8766
51.841
51.8508
51.8108
51.8115
51.7785
51.7762
51.7505
51.7473
51.7273
51.7218
51.7045
51.6996
51.6862
51.6809
51.67
51.6637
51.6543
51.6475
51.6398
51.6332
51.6266
51.6199
51.615
51.6088
51.6051
51.6002
51.5981
51.5936
51.5926
51.5896
51.5898
51.588
51.5898
51.5895
51.5922
51.5928
51.5967
51.5985
51.6034
51.6058
51.6112
51.6153
51.6213
51.6263
51.6335
51.643
51.653
51.6643
51.6763
51.6899
51.7038
51.7189
51.7346
51.7513
51.7686
51.7864
51.8045
51.8237
51.8436
51.864
51.8842
51.9048
51.9256
51.9482
51.9681
51.9917
52.0078
52.0328
52.044
52.0731
52.0769
52.1081
52.1166
52.1311
52.133
52.0846
52.094
52.0639
52.0397
52.0148
51.9905
51.9663
51.9429
51.9201
51.898
51.8768
51.856
51.8358
51.8155
51.7962
51.7773
51.7586
51.7384
51.7275
51.7031
51.6968
51.6628
51.6687
51.6183
51.6446
51.5733
51.6146
51.5317
51.5557
51.5019
51.5048
51.8275
50.5815
51.2053
51.8426
50.9397
51.1365
51.0721
51.0285
51.0341
50.988
51.0258
50.9804
51.0324
50.9809
51.0504
50.9799
51.0463
51.0056
51.0317
51.3948
50.1331
50.7828
51.4911
50.5163
50.739
50.6875
50.644
50.659
50.6224
50.6542
50.6335
50.6645
50.6569
50.6814
50.6817
50.7006
50.7045
50.7171
50.7225
50.7305
50.7353
50.741
50.7451
50.7482
50.7499
50.7512
50.7511
50.7504
50.7489
50.747
50.7445
50.7409
50.7368
50.7329
50.7285
50.7237
50.7184
50.7125
50.7069
50.7011
50.6948
50.6891
50.6832
50.6767
50.6706
50.6641
50.6582
50.6539
50.6464
50.6455
50.6335
50.6406
50.6165
50.6397
50.5909
50.6411
50.5497
50.6309
50.518
50.6043
50.9613
49.612
50.2916
51.0798
50.0672
50.2269
50.2428
50.1346
50.1753
50.1102
50.1387
50.1121
50.1302
50.1259
50.1356
50.137
50.1423
50.1455
50.1486
50.1505
50.152
50.1511
50.1493
50.1465
50.1423
50.1371
50.1303
50.123
50.1143
50.1045
50.0931
50.0806
50.068
50.0541
50.039
50.0231
50.006
49.9891
49.9705
49.9516
49.9304
49.9138
49.8876
49.8757
49.8387
49.8391
49.7842
49.8055
49.7205
49.768
49.6586
49.7166
49.5863
49.6406
49.5181
49.5464
49.5069
49.4949
49.5965
49.7817
50.3348
50.3206
50.465
49.6577
48.2239
42.0378
34.8994
34.5837
32.0716
29.9661
26.6507
23.772
21.6037
22.0312
25.8222
7.90437
2.16729
3.73505
5.48254
7.33532
9.33657
11.3622
13.3719
15.3214
17.1902
18.9419
20.546
21.9541
23.1947
24.2551
25.1432
25.8895
26.5121
27.0343
27.4797
27.8399
28.1563
28.3887
28.4994
28.5069
28.4284
28.2841
28.0972
27.9023
27.7341
27.6222
27.5566
27.5375
27.5305
27.5477
27.5586
27.5821
27.5912
27.607
27.5979
27.5967
27.5681
27.5434
27.493
27.4515
27.3793
27.3199
27.2216
27.1547
27.0453
26.9492
26.8497
26.7604
26.6451
26.5274
26.4083
26.3038
26.1725
26.0694
25.9336
25.8355
25.6997
25.6051
25.4831
25.3959
25.2787
25.2022
25.0766
24.9945
24.875
24.8041
24.6892
24.6063
24.5072
24.4853
24.3229
24.146
24.3584
24.6451
24.4324
24.3127
24.227
24.1353
24.0785
23.9921
23.9149
23.8001
23.707
23.6305
23.5207
23.4575
23.383
23.3039
23.2023
23.1303
23.0347
22.9785
22.8887
22.8381
22.7293
22.6091
22.4561
22.3956
22.757
23.0435
22.7551
22.5279
22.3503
22.1493
22.081
21.9926
21.9103
21.8514
21.771
21.7349
21.6696
21.6482
21.5077
21.4903
21.8242
21.9421
21.6199
21.3865
21.251
21.423
21.526
21.2922
21.0865
21.0138
21.313
21.4325
21.2226
21.1177
20.9985
20.8706
20.764
20.6351
20.5238
20.531
20.6569
20.635
20.6124
20.5735
20.5412
20.5109
20.4899
20.4691
20.4562
20.4433
20.4361
20.4276
20.4237
20.4171
20.4153
20.4103
20.412
20.4072
20.4125
20.4069
20.423
20.4131
20.4352
20.4172
20.4512
20.4252
20.4691
20.444
20.5048
20.4945
20.6006
20.645
20.6637
20.5941
20.5815
20.5274
20.5089
20.463
20.4404
20.3997
20.3735
20.338
20.3098
20.2783
20.2535
20.2257
20.2054
20.1809
20.1642
20.1424
20.1286
20.1091
20.0978
20.0804
20.0711
20.0556
20.0481
20.0343
20.0282
20.0161
20.0113
20.0007
19.9969
19.9876
19.9847
19.9766
19.9747
19.9675
19.9667
19.96
19.9598
19.9536
19.954
19.9481
19.9488
19.9432
19.9441
19.9385
19.9397
19.9342
19.9353
19.9297
19.9307
19.925
19.9257
19.92
19.9202
19.9143
19.9141
19.908
19.9074
19.9014
19.9005
19.8945
19.8935
19.8875
19.8863
19.8804
19.8792
19.8734
19.8725
19.8665
19.8659
19.8597
19.8593
19.8529
19.8524
19.8454
19.8448
19.8378
19.8374
19.8304
19.8306
19.8238
19.8245
19.8178
19.8188
19.8121
19.8145
19.8067
19.8113
19.8013
19.8098
19.7975
19.8107
19.796
19.8141
19.7971
19.8199
19.8013
19.8276
19.8083
19.8362
19.8178
19.8444
19.829
19.851
19.8405
19.8535
19.8458
19.844
19.8429
19.8723
19.8899
20.2331
20.1378
19.9383
19.6674
20.0877
20.0853
20.1353
20.1041
20.1134
20.0873
20.0883
20.068
20.0654
20.0493
20.0456
20.0339
20.0213
20.012
19.9962
19.9873
19.9718
19.9634
19.947
19.9394
19.9235
19.9161
19.9001
19.8927
19.8769
19.8691
19.854
19.8463
19.8318
19.8235
19.8099
19.8017
19.7889
19.7808
19.7691
19.7611
19.7503
19.7433
19.7334
19.7269
19.7181
19.7118
19.7038
19.698
19.6914
19.6848
19.6777
19.6702
19.6634
19.6566
19.6505
19.6448
19.6395
19.6351
19.6307
19.6275
19.6239
19.6217
19.619
19.618
19.6161
19.6163
19.6149
19.6163
19.6153
19.6184
19.619
19.6246
19.6276
19.634
19.6371
19.6449
19.6464
19.6559
19.6574
19.6852
19.7099
19.7416
19.7421
19.7637
19.7745
19.7805
19.784
19.7857
19.7859
19.7862
19.7846
19.7836
19.7805
19.7784
19.7747
19.7727
19.7675
19.7641
19.7532
19.7486
19.7406
19.7411
19.7289
19.7367
19.7192
19.7381
19.7114
19.7463
19.7074
19.7533
19.6946
19.6972
20.0236
20.0275
19.8806
19.7347
20.1581
20.0324
19.9671
19.917
19.8626
19.8344
19.7967
19.7786
19.7579
19.7281
19.7338
19.6927
19.7098
19.6511
19.652
19.9621
19.9641
19.8159
19.6758
20.1414
20.0058
19.919
19.8676
19.7963
19.7727
19.7189
19.6999
19.6599
19.6409
19.6102
19.5924
19.5672
19.5502
19.529
19.5126
19.4948
19.4791
19.4636
19.4489
19.435
19.4215
19.4088
19.3963
19.3845
19.3729
19.3618
19.351
19.3408
19.3309
19.3213
19.3116
19.303
19.2946
19.2864
19.2782
19.2708
19.2628
19.2556
19.2484
19.2419
19.2352
19.2287
19.2203
19.214
19.2059
19.2011
19.1936
19.1917
19.1822
19.1902
19.1742
19.2021
19.1721
19.2154
19.1593
19.1599
19.5338
19.5529
19.3704
19.2293
19.7305
19.6098
19.4996
19.4679
19.3904
19.3704
19.3199
19.2969
19.2622
19.2408
19.2164
19.1981
19.1792
19.1621
19.1462
19.1305
19.1162
19.1022
19.0884
19.0751
19.0617
19.0496
19.0376
19.0271
19.0166
19.0077
18.9984
18.9895
18.9807
18.9727
18.9648
18.9577
18.9498
18.9433
18.9352
18.9294
18.9194
18.9141
18.9048
18.9025
18.8916
18.8957
18.8802
18.8986
18.874
18.9106
18.8715
18.9404
18.8812
18.9769
18.89
18.9839
18.8628
18.9076
18.7286
18.7101
18.5548
18.9815
19.7666
21.4243
24.8642
27.2792
26.9789
25.2683
25.382
25.3244
26.0684
25.3423
20.2149
14.6058
11.8387
8.56421
0.744147
0.981421
1.30052
1.68516
2.12464
2.6412
3.25951
3.93407
4.64338
5.35945
6.07702
6.7743
7.45898
8.10662
8.71868
9.29784
9.83923
10.3443
10.8104
11.2359
11.631
11.9973
12.3327
12.6395
12.9175
13.1741
13.4113
13.6361
13.8602
14.0831
14.3281
14.5736
14.8449
15.0949
15.331
15.5467
15.7502
15.9315
16.0999
16.244
16.374
16.478
16.5655
16.6279
16.6713
16.6902
16.687
16.6732
16.6329
16.5892
16.5254
16.475
16.4011
16.3468
16.2679
16.2288
16.1554
16.1239
16.0544
16.0283
15.963
15.942
15.8828
15.8641
15.8065
15.7888
15.7236
15.6962
15.6331
15.6109
15.5471
15.5184
15.4546
15.4299
15.3075
15.2312
15.2628
15.4187
15.3308
15.2626
15.233
15.1712
15.1292
15.058
14.9894
14.9067
14.8197
14.747
14.6527
14.584
14.5008
14.4291
14.3374
14.2673
14.1779
14.1132
14.0261
13.9562
13.8479
13.7445
13.6036
13.5834
13.6668
13.7939
13.6815
13.5536
13.4451
13.3064
13.2263
13.1525
13.0724
13.015
12.9419
12.9005
12.8393
12.8008
12.6927
12.7125
12.7751
12.8598
12.7014
12.5488
12.4622
12.4738
12.5208
12.4084
12.2846
12.2642
12.3357
12.4235
12.3237
12.26
12.1763
12.0973
12.0067
11.9045
11.8062
11.7385
11.7694
11.7436
11.7168
11.6819
11.649
11.6165
11.5867
11.5583
11.5333
11.5094
11.4901
11.4709
11.456
11.4406
11.4295
11.4169
11.4097
11.3991
11.3965
11.3869
11.3928
11.3824
11.3967
11.3819
11.4055
11.3875
11.4203
11.4028
11.449
11.4442
11.521
11.5426
11.585
11.5627
11.5731
11.5507
11.5509
11.5302
11.5239
11.5033
11.4922
11.4724
11.4582
11.4386
11.4243
11.4054
11.3919
11.3741
11.3618
11.3454
11.3342
11.319
11.309
11.2951
11.2863
11.2736
11.266
11.2545
11.2482
11.2378
11.2325
11.2232
11.219
11.2106
11.2074
11.1999
11.1974
11.1907
11.189
11.1829
11.1819
11.1762
11.1758
11.1707
11.1707
11.1661
11.1664
11.1621
11.1626
11.1585
11.1592
11.1552
11.156
11.152
11.1527
11.1488
11.1493
11.1453
11.1457
11.1415
11.1416
11.1373
11.1372
11.1329
11.1327
11.1283
11.1278
11.1234
11.1229
11.1183
11.1177
11.113
11.1122
11.1075
11.1064
11.1017
11.1004
11.0953
11.0938
11.0884
11.0868
11.0812
11.0797
11.0739
11.0726
11.0667
11.0662
11.06
11.0605
11.0534
11.0555
11.047
11.0515
11.0412
11.0487
11.0368
11.0477
11.0343
11.0484
11.034
11.0508
11.0362
11.0543
11.0405
11.0581
11.0468
11.0613
11.0539
11.0611
11.0585
11.0581
11.0623
11.0736
11.103
11.2577
11.2077
11.1642
10.9959
11.1669
11.1723
11.2142
11.2062
11.2233
11.2146
11.223
11.2163
11.2201
11.2156
11.2173
11.2146
11.2109
11.2092
11.2033
11.2014
11.194
11.1919
11.1836
11.1813
11.1723
11.1697
11.1605
11.1573
11.148
11.1442
11.1347
11.1304
11.1209
11.1158
11.1065
11.101
11.0918
11.0859
11.077
11.0707
11.0621
11.0556
11.0475
11.0412
11.0335
11.0274
11.0201
11.0142
11.0074
11.0015
10.9947
10.9882
10.9811
10.9746
10.9675
10.9611
10.9542
10.9482
10.9417
10.936
10.9299
10.9247
10.919
10.9143
10.9092
10.905
10.9004
10.8968
10.8926
10.8896
10.8861
10.8843
10.882
10.882
10.8803
10.8821
10.8798
10.8846
10.8822
10.8978
10.9051
10.9259
10.9306
10.9442
10.953
10.9609
10.9672
10.9728
10.9775
10.9817
10.9852
10.9884
10.9908
10.993
10.9947
10.9966
10.9974
10.9986
10.997
10.9971
10.9946
10.9972
10.9922
10.9987
10.9914
11.0054
10.9932
11.0194
10.9995
11.0371
11.0045
11.0351
11.1605
11.1681
11.154
11.0311
11.2302
11.2068
11.1938
11.1893
11.1668
11.1612
11.1433
11.133
11.1249
11.108
11.1148
11.0915
11.1105
11.0739
11.0898
11.2118
11.2133
11.1992
11.0697
11.282
11.2553
11.2321
11.2299
11.1971
11.1948
11.1652
11.1578
11.1334
11.1223
11.102
11.0886
11.0711
11.0572
11.0416
11.0284
11.0146
11.0017
10.989
10.9765
10.9645
10.9526
10.9411
10.9298
10.9189
10.9082
10.898
10.8883
10.879
10.8699
10.861
10.8524
10.8443
10.8364
10.8288
10.8212
10.8139
10.8067
10.7999
10.7931
10.7867
10.7805
10.7745
10.7678
10.762
10.7546
10.7495
10.7426
10.7396
10.7314
10.7342
10.7232
10.7384
10.7217
10.7515
10.7192
10.7434
10.8711
10.8883
10.8671
10.7443
10.968
10.9538
10.9203
10.9306
10.8968
10.8955
10.8706
10.8597
10.8403
10.8264
10.8107
10.7978
10.7849
10.7723
10.7604
10.7485
10.737
10.726
10.7155
10.7053
10.6955
10.686
10.6768
10.668
10.6595
10.6516
10.6437
10.6363
10.6289
10.6219
10.6153
10.609
10.6028
10.5971
10.5911
10.5863
10.58
10.5755
10.569
10.5665
10.5588
10.5604
10.5506
10.5611
10.5475
10.5718
10.5503
10.597
10.5645
10.6325
10.5828
10.6561
10.5794
10.622
10.5042
10.4721
10.3975
10.6435
11.1054
12.3095
15.0068
17.9856
18.7821
18.4617
19.0357
19.8658
21.2295
22.6596
21.7183
16.9774
10.5777
9.26667
0.606379
0.649026
0.71373
0.80422
0.920208
1.0656
1.24754
1.44156
1.64018
1.84432
2.05318
2.263
2.4793
2.69106
2.90128
3.11098
3.31793
3.52578
3.736
3.94781
4.16569
4.38804
4.61258
4.83749
5.05945
5.28045
5.49729
5.7122
5.92468
6.13746
6.35305
6.57196
6.79662
7.02473
7.25452
7.48654
7.7198
7.95101
8.17405
8.3866
8.59309
8.79592
9.00001
9.19963
9.40347
9.59809
9.78674
9.96437
10.1154
10.2665
10.3851
10.5167
10.6138
10.7227
10.7978
10.8903
10.9456
11.0203
11.0583
11.1162
11.1392
11.1827
11.1935
11.222
11.2137
11.2216
11.1898
11.1769
11.1333
11.1125
11.0618
11.0307
10.9646
10.9228
10.8197
10.7683
10.7476
10.8137
10.7598
10.7117
10.695
10.6538
10.62
10.5685
10.5125
10.4473
10.3749
10.3113
10.2368
10.1752
10.1027
10.0383
9.96036
9.89975
9.82461
9.76277
9.68358
9.61501
9.52429
9.43933
9.31507
9.30035
9.29551
9.34553
9.27133
9.18138
9.10657
9.00754
8.94141
8.88406
8.82011
8.77807
8.72455
8.69465
8.64515
8.61017
8.53611
8.55409
8.54041
8.57851
8.48067
8.37917
8.32488
8.29352
8.31018
8.24087
8.16794
8.15736
8.1659
8.21643
8.16099
8.11941
8.06472
8.01155
7.94934
7.88068
7.81796
7.76661
7.76666
7.74095
7.71522
7.68548
7.65668
7.62846
7.60221
7.57678
7.55398
7.53187
7.51302
7.49454
7.47908
7.46362
7.45135
7.43855
7.42936
7.41882
7.41337
7.4044
7.40475
7.3964
7.40358
7.39366
7.40842
7.39726
7.4189
7.40904
7.4397
7.43822
7.48435
7.49796
7.52856
7.52145
7.53422
7.52787
7.53434
7.52815
7.53007
7.52321
7.52127
7.51338
7.50897
7.50066
7.49551
7.48678
7.48141
7.47277
7.46745
7.4591
7.45401
7.446
7.44131
7.43379
7.42958
7.42265
7.419
7.41267
7.40964
7.404
7.40154
7.39654
7.39481
7.3904
7.38925
7.38544
7.38485
7.38157
7.38149
7.37871
7.3791
7.37669
7.37747
7.37547
7.3765
7.37484
7.37622
7.37487
7.37648
7.3753
7.37707
7.37611
7.37809
7.37716
7.3791
7.37829
7.38019
7.37929
7.38113
7.38016
7.38179
7.38075
7.38233
7.3812
7.38258
7.38136
7.38258
7.38131
7.38242
7.38106
7.38209
7.3806
7.38142
7.37983
7.38047
7.37872
7.37904
7.37714
7.37734
7.37528
7.37543
7.37321
7.37333
7.37096
7.37125
7.36865
7.36922
7.36628
7.3674
7.3639
7.3659
7.36156
7.36494
7.35958
7.36466
7.35831
7.36531
7.35811
7.36689
7.35922
7.36967
7.36186
7.37308
7.36594
7.37692
7.37141
7.38033
7.37727
7.38184
7.38156
7.38217
7.38679
7.39351
7.41455
7.48372
7.45697
7.44849
7.36563
7.44109
7.44744
7.47337
7.47212
7.48475
7.48305
7.49079
7.49006
7.49519
7.49536
7.49881
7.5
7.5006
7.50245
7.50191
7.50332
7.50143
7.50233
7.49951
7.50003
7.49655
7.49658
7.49255
7.49206
7.48763
7.48659
7.48199
7.48038
7.47564
7.4734
7.46855
7.46577
7.46074
7.4575
7.45242
7.44876
7.44361
7.4396
7.43452
7.43031
7.42539
7.42123
7.41639
7.41221
7.40757
7.40334
7.39866
7.39413
7.38915
7.38442
7.37934
7.37458
7.36951
7.36486
7.35983
7.35526
7.3504
7.34599
7.34129
7.33705
7.33261
7.32864
7.32444
7.32069
7.31671
7.31336
7.30963
7.30683
7.30384
7.3021
7.29958
7.29906
7.29658
7.29863
7.29662
7.30461
7.30699
7.31768
7.32076
7.3282
7.33344
7.33862
7.34301
7.3473
7.35111
7.35475
7.35805
7.36114
7.36393
7.36654
7.36891
7.3713
7.37326
7.37534
7.37612
7.37763
7.37752
7.38023
7.37848
7.38356
7.38026
7.38983
7.38349
7.40041
7.39011
7.41385
7.39744
7.42581
7.47524
7.47836
7.48125
7.42417
7.52219
7.51475
7.51266
7.51632
7.50783
7.50866
7.50146
7.49777
7.49657
7.4886
7.49552
7.48292
7.49703
7.47796
7.4982
7.5456
7.54371
7.54569
7.48432
7.5862
7.57979
7.57176
7.57677
7.56224
7.565
7.55124
7.54961
7.53762
7.53278
7.52219
7.51538
7.50573
7.49819
7.4892
7.48132
7.47305
7.4647
7.45651
7.4484
7.44044
7.43272
7.42512
7.41764
7.41034
7.40309
7.39605
7.38919
7.38252
7.37595
7.36952
7.36321
7.35716
7.35124
7.34542
7.33972
7.33408
7.32854
7.32319
7.31791
7.31286
7.30792
7.30312
7.29809
7.29343
7.28792
7.28355
7.27804
7.27502
7.26904
7.26949
7.26179
7.26944
7.25803
7.27483
7.25658
7.28071
7.3262
7.33177
7.33214
7.27337
7.37715
7.38261
7.36746
7.37667
7.36127
7.36241
7.35045
7.34553
7.3357
7.32858
7.31983
7.31249
7.30447
7.29675
7.28912
7.28175
7.27449
7.2674
7.26053
7.25365
7.24698
7.24037
7.23389
7.22756
7.22132
7.21535
7.2094
7.20365
7.19785
7.19234
7.18694
7.18178
7.17675
7.17188
7.16697
7.16277
7.15778
7.15381
7.14856
7.14573
7.13974
7.13941
7.13234
7.13729
7.12768
7.14132
7.12745
7.15398
7.13432
7.17327
7.14459
7.18762
7.14294
7.16844
7.10517
7.09701
7.053
7.19933
7.4918
8.23925
10.0477
12.2913
13.4189
13.6126
14.3102
15.4044
17.0428
18.9666
20.3865
18.3392
12.6151
9.98572
0.588268
0.596493
0.612829
0.636998
0.670662
0.714794
0.773206
0.83989
0.914814
0.992443
1.06949
1.14545
1.22449
1.30365
1.38341
1.46422
1.54531
1.62762
1.71164
1.79712
1.88558
1.97623
2.06832
2.16181
2.2555
2.34985
2.44337
2.5367
2.62908
2.72106
2.81273
2.90414
2.99535
3.08664
3.17759
3.26935
3.36177
3.45673
3.56363
3.687
3.8227
3.96728
4.11686
4.2711
4.4277
4.5884
4.74741
4.9136
5.06747
5.2356
5.38318
5.55446
5.69717
5.86262
5.9966
6.15637
6.28238
6.43509
6.554
6.69806
6.80932
6.94718
7.05145
7.17316
7.25448
7.34981
7.40187
7.46459
7.49506
7.54539
7.56491
7.59111
7.56067
7.55272
7.49189
7.48041
7.46274
7.51309
7.49974
7.47013
7.46518
7.4345
7.40293
7.35193
7.29574
7.23164
7.16035
7.10145
7.03705
6.98682
6.92868
6.87877
6.8229
6.78635
6.73793
6.69694
6.64441
6.59823
6.54221
6.49099
6.4127
6.40838
6.41144
6.44409
6.40142
6.34986
6.29995
6.24295
6.20436
6.17345
6.13836
6.12449
6.10412
6.09827
6.07228
6.05372
6.01124
6.03623
6.01374
6.03125
5.97001
5.90716
5.87234
5.83867
5.84328
5.80564
5.76643
5.76689
5.76433
5.79381
5.7623
5.7366
5.703
5.66989
5.63141
5.58891
5.55197
5.51923
5.51561
5.49911
5.48222
5.46306
5.44425
5.42567
5.40846
5.39165
5.37667
5.36198
5.34936
5.33687
5.3263
5.3158
5.30748
5.29884
5.29273
5.28562
5.28204
5.27629
5.27664
5.27178
5.27666
5.27153
5.28128
5.27615
5.29078
5.28662
5.30753
5.31004
5.33941
5.34938
5.37144
5.37159
5.38313
5.38331
5.39104
5.39133
5.39634
5.39604
5.39872
5.39745
5.39852
5.39685
5.39731
5.39538
5.39551
5.39348
5.39343
5.39144
5.39138
5.38946
5.3895
5.38776
5.38796
5.38646
5.38686
5.38566
5.3864
5.38556
5.38659
5.38608
5.38747
5.3873
5.38908
5.38921
5.39123
5.3917
5.39403
5.39481
5.39742
5.39841
5.40124
5.40246
5.40555
5.40701
5.41024
5.41185
5.41523
5.417
5.42053
5.4224
5.42593
5.42782
5.43141
5.43334
5.43687
5.43876
5.4422
5.44402
5.44732
5.44909
5.45234
5.45402
5.45711
5.45867
5.46166
5.46314
5.46599
5.46739
5.47008
5.47135
5.47389
5.47501
5.47733
5.47831
5.48044
5.48125
5.48324
5.48391
5.48573
5.48626
5.48802
5.48839
5.49017
5.49036
5.49223
5.49219
5.49434
5.49389
5.49646
5.49549
5.49872
5.49712
5.50128
5.49904
5.50417
5.50146
5.50765
5.50464
5.51162
5.50858
5.51607
5.51336
5.52065
5.51878
5.52506
5.52448
5.5282
5.52935
5.53085
5.5352
5.54043
5.55342
5.58603
5.57363
5.57525
5.53012
5.56628
5.57
5.58716
5.58902
5.59873
5.60024
5.60699
5.60883
5.6138
5.61594
5.61968
5.62218
5.62434
5.62728
5.62871
5.63132
5.63194
5.63412
5.63404
5.6358
5.63516
5.63653
5.63543
5.63631
5.63481
5.63523
5.6334
5.63341
5.6313
5.63084
5.62854
5.62763
5.6252
5.62388
5.62135
5.61961
5.61694
5.6149
5.61212
5.6098
5.60699
5.6046
5.60174
5.5992
5.59641
5.59379
5.5909
5.58809
5.585
5.58203
5.57878
5.57573
5.57242
5.56932
5.56602
5.56293
5.55964
5.55658
5.55334
5.55036
5.5472
5.54428
5.54126
5.53846
5.53553
5.53291
5.53012
5.52788
5.52547
5.5237
5.52161
5.52064
5.51867
5.51935
5.51776
5.52202
5.52269
5.5286
5.53053
5.53479
5.53792
5.54118
5.54401
5.54687
5.54951
5.55207
5.55444
5.55675
5.55892
5.56097
5.56294
5.56492
5.56664
5.56849
5.56967
5.57114
5.57179
5.57378
5.57356
5.57684
5.57578
5.58143
5.5788
5.58857
5.58363
5.59777
5.58979
5.61009
5.63136
5.63566
5.64871
5.61348
5.66081
5.66011
5.66049
5.66409
5.66078
5.66283
5.65979
5.65867
5.65935
5.65644
5.6612
5.65564
5.66499
5.65562
5.67195
5.69239
5.69441
5.70738
5.66907
5.71743
5.71793
5.71535
5.71983
5.71324
5.71635
5.70989
5.71038
5.70458
5.70295
5.69771
5.69479
5.68981
5.6863
5.6815
5.6773
5.67265
5.66815
5.66356
5.6591
5.65455
5.65011
5.64564
5.6412
5.63679
5.63232
5.62796
5.62362
5.61933
5.61505
5.61084
5.60664
5.60256
5.59851
5.59448
5.59052
5.5865
5.58256
5.57868
5.57485
5.57108
5.56738
5.56375
5.56001
5.55644
5.55244
5.54895
5.54469
5.54194
5.53764
5.53672
5.53176
5.53455
5.52796
5.53613
5.52548
5.54258
5.55856
5.56239
5.56896
5.53309
5.58206
5.58905
5.58231
5.58834
5.58025
5.58141
5.57476
5.57214
5.56644
5.56238
5.55697
5.55246
5.5474
5.54252
5.53757
5.53272
5.52792
5.52316
5.51842
5.51362
5.50895
5.50423
5.49956
5.49494
5.49034
5.48584
5.48132
5.47688
5.47244
5.46801
5.46373
5.45948
5.45529
5.45127
5.44713
5.4434
5.43933
5.43569
5.4314
5.42833
5.42362
5.42199
5.41688
5.41804
5.41184
5.41775
5.40937
5.42265
5.41104
5.43164
5.41448
5.43747
5.41097
5.42384
5.38777
5.38904
5.36738
5.46608
5.66282
6.139
7.30357
8.86427
9.88438
10.2615
10.9467
12.0264
13.6631
15.7067
18.0234
18.1265
14.295
10.8185
0.58575
0.588364
0.596401
0.606989
0.619825
0.63524
0.654253
0.677726
0.707004
0.739967
0.775253
0.812011
0.849076
0.886076
0.922532
0.959854
0.997799
1.03639
1.07558
1.1152
1.15571
1.19701
1.23903
1.282
1.32571
1.37045
1.41576
1.46178
1.50831
1.55537
1.6029
1.65084
1.69923
1.7481
1.79744
1.84753
1.89841
1.95058
2.00703
2.06894
2.1352
2.205
2.27701
2.35127
2.42667
2.50415
2.58108
2.6625
2.73891
2.82365
2.89971
2.98905
3.06542
3.15616
3.23103
3.32299
3.39715
3.49105
3.56655
3.66176
3.73833
3.83896
3.9202
4.01558
4.07785
4.15271
4.19902
4.2624
4.30245
4.3702
4.42197
4.4768
4.4898
4.50358
4.51107
4.55953
4.58092
4.652
4.69328
4.74042
4.79176
4.80327
4.81626
4.81933
4.81075
4.79129
4.76861
4.75575
4.73838
4.73162
4.71556
4.70369
4.68488
4.68114
4.66996
4.66238
4.64098
4.62119
4.59846
4.58169
4.55081
4.55877
4.56864
4.61041
4.60951
4.58925
4.56741
4.54115
4.52753
4.51766
4.50383
4.50818
4.51232
4.52202
4.51505
4.50942
4.48854
4.51182
4.4974
4.50376
4.46884
4.43214
4.41181
4.38729
4.38542
4.36688
4.34835
4.35224
4.34879
4.366
4.34936
4.33444
4.31501
4.29559
4.27344
4.24953
4.23002
4.21204
4.20887
4.19964
4.19019
4.17927
4.16874
4.15813
4.14862
4.13913
4.13093
4.12283
4.11601
4.10924
4.10369
4.09819
4.0941
4.08979
4.08714
4.08388
4.08296
4.0807
4.08225
4.08081
4.08526
4.08409
4.09168
4.09089
4.10171
4.10174
4.11665
4.12158
4.14115
4.15004
4.16596
4.16987
4.17966
4.18324
4.19092
4.19453
4.20066
4.20389
4.20875
4.21138
4.21526
4.21737
4.2209
4.223
4.22632
4.22835
4.23154
4.23358
4.23669
4.23876
4.24192
4.24404
4.24723
4.24945
4.25275
4.25513
4.25858
4.26111
4.26469
4.2674
4.27119
4.27408
4.27802
4.28106
4.2852
4.28839
4.29264
4.29597
4.30037
4.30381
4.30832
4.31187
4.31649
4.32014
4.3248
4.32849
4.33321
4.33694
4.34163
4.34541
4.35013
4.3539
4.35857
4.3623
4.36691
4.37056
4.37505
4.37863
4.38305
4.38653
4.39079
4.39418
4.39833
4.4016
4.40563
4.4088
4.41269
4.41574
4.41946
4.42238
4.42595
4.42874
4.4321
4.43473
4.43795
4.44042
4.44346
4.44578
4.4487
4.45087
4.45366
4.4557
4.4584
4.46028
4.46296
4.46464
4.46742
4.46883
4.47173
4.47282
4.47601
4.4767
4.48033
4.48061
4.48474
4.48472
4.48936
4.48914
4.49421
4.49391
4.49922
4.49908
4.50435
4.50458
4.50926
4.51011
4.51334
4.51516
4.51723
4.52097
4.5252
4.53326
4.549
4.54367
4.54714
4.52434
4.54215
4.5456
4.5567
4.55945
4.56661
4.56919
4.57458
4.57728
4.58162
4.58436
4.58788
4.59068
4.59329
4.5963
4.59835
4.60113
4.60275
4.60521
4.60634
4.6084
4.60912
4.61085
4.61117
4.61256
4.61252
4.61354
4.61324
4.6139
4.61332
4.61362
4.61281
4.61276
4.61174
4.61142
4.61025
4.60966
4.6084
4.60751
4.60614
4.60503
4.60358
4.60231
4.60078
4.5994
4.59786
4.59641
4.59476
4.59312
4.59134
4.5896
4.5877
4.58587
4.58392
4.58204
4.58005
4.57816
4.57615
4.57425
4.57223
4.57035
4.56836
4.5665
4.56455
4.56274
4.56085
4.55913
4.55732
4.55581
4.55422
4.55296
4.55158
4.55076
4.54959
4.54977
4.54888
4.55116
4.55151
4.55488
4.55616
4.5587
4.56064
4.56272
4.56459
4.56648
4.56826
4.56999
4.57166
4.57327
4.5748
4.57628
4.57773
4.57917
4.58049
4.58185
4.58283
4.58401
4.58467
4.58605
4.58628
4.58838
4.5881
4.59149
4.59043
4.59596
4.5937
4.60179
4.59807
4.61102
4.6201
4.62331
4.6349
4.61618
4.64024
4.64093
4.64161
4.64427
4.64304
4.64479
4.64376
4.64384
4.64487
4.644
4.64729
4.64504
4.65093
4.64671
4.65795
4.66682
4.66902
4.68113
4.66075
4.68552
4.68694
4.68648
4.6896
4.68668
4.68914
4.68624
4.68719
4.68461
4.68439
4.68199
4.68104
4.67863
4.67733
4.67504
4.67311
4.67085
4.66866
4.66636
4.66411
4.66175
4.65938
4.65695
4.65449
4.65199
4.64939
4.6468
4.64417
4.64153
4.63886
4.63617
4.63344
4.63073
4.62799
4.62524
4.62244
4.61958
4.61675
4.61387
4.61098
4.60811
4.60523
4.60238
4.59943
4.59658
4.59345
4.59056
4.58722
4.58466
4.58127
4.57975
4.57606
4.57651
4.57198
4.57537
4.56892
4.57898
4.58346
4.58489
4.59158
4.57081
4.59421
4.59824
4.59445
4.5973
4.59233
4.59237
4.58812
4.58613
4.58217
4.57936
4.57561
4.57228
4.56864
4.56508
4.56145
4.55786
4.55425
4.55062
4.54701
4.54336
4.53972
4.53606
4.53241
4.52878
4.52514
4.52152
4.51788
4.51426
4.51061
4.50697
4.50339
4.49978
4.49622
4.4927
4.48914
4.4858
4.48223
4.47891
4.47525
4.47218
4.46829
4.46604
4.46191
4.46127
4.45662
4.45865
4.45303
4.45905
4.45177
4.46187
4.45144
4.4627
4.44679
4.45236
4.4325
4.43656
4.42926
4.4969
4.63133
4.94015
5.67266
6.68314
7.54432
7.96952
8.59011
9.54984
11.0442
13.0043
15.5507
17.0852
15.0977
11.6497
0.585646
0.587905
0.59508
0.603902
0.612746
0.62187
0.630581
0.640214
0.651189
0.664182
0.679374
0.696782
0.715436
0.734974
0.755405
0.776202
0.797295
0.818713
0.840707
0.863314
0.887033
0.912094
0.938661
0.967227
0.997824
1.03046
1.06486
1.10092
1.13848
1.17739
1.21761
1.2594
1.30375
1.35102
1.40105
1.45347
1.50799
1.56424
1.62232
1.68223
1.74398
1.80746
1.87258
1.93912
2.0069
2.07586
2.14523
2.21609
2.2861
2.35804
2.42801
2.50015
2.56899
2.63989
2.70648
2.77488
2.83815
2.90309
2.96197
3.02198
3.07524
3.13067
3.1788
3.22717
3.26429
3.30221
3.33184
3.36461
3.39248
3.42862
3.46135
3.4926
3.51523
3.53671
3.5554
3.57974
3.60135
3.63362
3.6653
3.70239
3.74002
3.75827
3.77424
3.78494
3.78768
3.78477
3.78118
3.7831
3.78212
3.78311
3.77814
3.77605
3.77133
3.77202
3.76822
3.76422
3.7515
3.73802
3.72422
3.7142
3.69555
3.69718
3.69784
3.71219
3.71725
3.70635
3.69362
3.67982
3.66913
3.66058
3.65307
3.65926
3.66927
3.68023
3.67853
3.67359
3.66143
3.67151
3.66137
3.6613
3.6406
3.61787
3.60142
3.58501
3.5801
3.56963
3.56001
3.5622
3.55868
3.56599
3.55629
3.54706
3.53549
3.52395
3.51125
3.49807
3.48748
3.47767
3.4751
3.4699
3.4647
3.45876
3.45321
3.44764
3.44275
3.43797
3.43394
3.43008
3.42699
3.42404
3.42189
3.41982
3.41869
3.41749
3.41743
3.41713
3.41826
3.41875
3.42146
3.42253
3.42711
3.42868
3.43527
3.43729
3.44603
3.44932
3.46053
3.46677
3.48056
3.48886
3.50098
3.50682
3.51559
3.52104
3.52861
3.53401
3.54073
3.54589
3.55185
3.55665
3.56207
3.56655
3.57173
3.57606
3.58114
3.5855
3.59048
3.59483
3.59977
3.60414
3.60905
3.61346
3.61842
3.62286
3.62783
3.63233
3.63737
3.64194
3.64704
3.65168
3.65686
3.66158
3.66681
3.67158
3.6769
3.68171
3.68707
3.69191
3.6973
3.70216
3.70757
3.71243
3.71782
3.72268
3.72806
3.73288
3.73824
3.74301
3.74829
3.75301
3.75824
3.76289
3.76801
3.77258
3.77762
3.78209
3.787
3.79136
3.79615
3.80039
3.80503
3.80917
3.81367
3.81768
3.82207
3.82597
3.83021
3.83398
3.83807
3.84171
3.84565
3.84916
3.85292
3.85629
3.85991
3.86314
3.86659
3.86969
3.87302
3.87598
3.87918
3.882
3.88509
3.88778
3.89076
3.8933
3.89626
3.89862
3.9016
3.90373
3.90678
3.90866
3.91188
3.91351
3.91694
3.91835
3.92201
3.92325
3.92711
3.92827
3.93225
3.93339
3.93733
3.9386
3.94223
3.94374
3.94654
3.94858
3.95079
3.95392
3.9573
3.96242
3.97021
3.96947
3.97313
3.96234
3.97152
3.97397
3.98141
3.98425
3.98954
3.99231
3.9966
3.99938
4.00306
4.00576
4.00884
4.01151
4.01405
4.01675
4.0189
4.02143
4.02329
4.02557
4.02709
4.02909
4.03027
4.03196
4.03285
4.03424
4.03484
4.03596
4.03632
4.03715
4.03727
4.03783
4.03772
4.03802
4.03774
4.03782
4.0374
4.03728
4.03672
4.03642
4.03579
4.03534
4.03465
4.03403
4.03332
4.03264
4.03188
4.03114
4.0303
4.02946
4.02853
4.02762
4.02662
4.02566
4.02462
4.02364
4.02258
4.02157
4.02049
4.01948
4.0184
4.01738
4.01631
4.01531
4.01426
4.01327
4.01224
4.0113
4.01033
4.00951
4.00865
4.00796
4.00725
4.0068
4.00623
4.00634
4.00595
4.0073
4.00758
4.0096
4.01052
4.01215
4.01344
4.01483
4.0161
4.01739
4.0186
4.01979
4.02092
4.02201
4.02306
4.02408
4.02505
4.02602
4.02692
4.02783
4.02854
4.02931
4.02981
4.03067
4.03097
4.03216
4.03207
4.03395