/*--------------------------------*- C++ -*----------------------------------*\
| =========                 |                                                 |
| \\      /  F ield         | foam-extend: Open Source CFD                    |
|  \\    /   O peration     | Version:     3.2                                |
|   \\  /    A nd           | Web:         http://www.foam-extend.org         |
|    \\/     M anipulation  | For copyright notice see file Copyright         |
\*---------------------------------------------------------------------------*/
FoamFile
{
    version     2.0;
    format      ascii;
    class       volScalarField;
    location    "1790";
    object      p;
}
// * * * * * * * * * * * * * * * * * * * * * * * * * * * * * * * * * * * * * //

dimensions      [1 -1 -2 0 0 0 0];

internalField   nonuniform List<scalar> 
33000
(
1182.3
1183.39
1184.49
1186.93
1188.17
1190.38
1191.44
1193.09
1193.92
1195.1
1195.81
1196.69
1197.29
1197.96
1198.48
1199.04
1199.53
1200.02
1200.46
1200.9
1201.31
1201.71
1202.1
1202.48
1202.85
1203.21
1203.57
1203.92
1204.26
1204.6
1204.93
1205.26
1205.58
1205.91
1206.24
1206.57
1206.91
1207.25
1207.6
1207.95
1208.31
1208.67
1209.03
1209.4
1209.78
1210.16
1210.54
1210.92
1211.3
1211.68
1212.07
1212.45
1212.83
1213.21
1213.59
1213.97
1214.34
1214.71
1215.08
1215.45
1215.81
1216.18
1216.54
1216.91
1217.28
1217.64
1218.01
1218.38
1218.75
1219.12
1219.48
1219.85
1220.2
1220.56
1220.91
1221.26
1221.6
1221.94
1222.27
1222.6
1222.93
1223.25
1223.57
1223.88
1224.2
1224.51
1224.82
1225.13
1225.43
1225.74
1226.05
1226.37
1226.69
1227.01
1227.33
1227.66
1227.99
1228.33
1228.66
1229
1229.33
1229.67
1229.99
1230.32
1230.62
1230.93
1231.22
1231.49
1231.74
1231.9
1232.09
1232.57
1232.81
1233.18
1232.85
1230.52
1227.26
1234.5
1249.77
1249.89
1236.78
1232.27
1235.98
1239.45
1239.08
1236.57
1233.55
1240.29
1256.24
1258.25
1248.9
1251.7
1256.37
1244.75
1227.6
1220.01
1222.26
1234.15
1243.44
1242.17
1245.73
1259.03
1259.12
1248.52
1246.28
1249.29
1250.67
1251.35
1252.69
1257.46
1265.47
1268.69
1258.34
1246.2
1245.04
1248.14
1249.17
1249.51
1247.84
1245.38
1250.6
1263.53
1264.62
1255.46
1252.59
1254.22
1256.79
1260.17
1261.93
1263.8
1268.44
1271.69
1264.37
1254.76
1253.3
1255.48
1256.17
1257.05
1257.73
1257.73
1258.16
1258.72
1258.78
1259.31
1259.71
1259.55
1259.32
1259.81
1259.93
1260.25
1260.58
1260.68
1261.02
1261.24
1261.29
1261.88
1262.06
1262.1
1262.52
1262.77
1262.66
1262.71
1262.99
1263.25
1263.55
1263.78
1264
1264.09
1264.35
1264.38
1264.65
1264.83
1265.05
1265.37
1265.56
1265.73
1265.52
1265
1264.53
1263.83
1263.23
1262.51
1261.84
1261.28
1261.01
1260.26
1259.54
1258.97
1258.42
1257.8
1257.34
1256.96
1255.34
1253.14
1252.55
1252.1
1251.75
1251.43
1250.14
1249.64
1249.18
1248.8
1248.35
1247.99
1247.55
1247.21
1246.82
1246.52
1246.16
1245.89
1245.56
1245.31
1245
1244.77
1244.46
1244.24
1243.97
1243.78
1243.54
1243.37
1243.17
1243.04
1242.87
1242.76
1242.61
1242.51
1242.37
1242.27
1242.16
1242.05
1241.83
1241.36
1240.67
1240.46
1240.33
1240.2
1240.05
1239.89
1239.71
1239.54
1239.34
1239.16
1238.96
1238.78
1238.58
1238.42
1238.23
1238.08
1237.91
1237.79
1237.63
1237.53
1237.39
1237.32
1237.19
1237.15
1237.02
1237
1236.86
1236.89
1236.72
1236.79
1236.62
1236.73
1236.56
1236.69
1236.54
1236.67
1236.55
1236.66
1236.57
1236.66
1236.6
1236.68
1236.64
1236.69
1236.66
1236.69
1236.66
1236.67
1236.62
1236.58
1236.5
1236.45
1236.35
1236.29
1236.17
1236.09
1236.02
1235.83
1235.78
1235.02
1234.76
1234.61
1234.64
1234.2
1234.43
1233.78
1234.19
1233.81
1234.02
1234
1229.76
1231.21
1230.6
1230.6
1230.25
1230.01
1229.7
1229.42
1229.13
1228.84
1228.56
1228.28
1228
1227.73
1227.46
1227.18
1226.91
1226.64
1226.36
1226.07
1225.79
1225.49
1225.19
1224.88
1224.57
1224.24
1223.94
1223.58
1223.35
1222.89
1222.82
1222.15
1222.38
1221.31
1222.07
1220.45
1221.96
1219.94
1222.23
1220.33
1222.7
1221.47
1222.8
1222.64
1223.19
1223.44
1223.82
1224.14
1224.49
1224.81
1225.15
1225.48
1225.82
1226.15
1226.5
1226.8
1227.22
1227.41
1228.01
1227.95
1228.88
1228.45
1229.7
1229.04
1231.04
1232.04
1228.02
1231.27
1231.65
1231.48
1232.36
1232.35
1232.9
1233.16
1233.57
1233.92
1234.3
1234.67
1235.04
1235.42
1235.8
1236.19
1236.57
1236.93
1237.31
1237.68
1238.05
1238.41
1238.78
1239.14
1239.49
1239.84
1240.19
1240.53
1240.86
1241.19
1241.52
1241.84
1242.15
1242.46
1242.77
1243.08
1243.38
1243.68
1243.99
1244.29
1244.59
1244.89
1245.2
1245.5
1245.81
1246.12
1246.43
1246.75
1247.07
1247.39
1247.72
1248.05
1248.38
1248.71
1249.05
1249.38
1249.72
1250.06
1250.4
1250.74
1251.08
1251.41
1251.75
1252.09
1252.43
1252.76
1253.1
1253.43
1253.78
1254.08
1254.5
1254.69
1255.28
1255.23
1256.16
1255.7
1257.14
1256.23
1257.78
1256.57
1256.84
1259.68
1254.49
1259.69
1259.92
1259.35
1260.86
1260.25
1261.4
1261.25
1261.94
1262.19
1262.54
1263.13
1263.09
1264.16
1263.55
1264.93
1263.39
1264.46
1266.47
1261.99
1266.37
1267.06
1266.39
1267.65
1267.26
1267.94
1267.95
1268.43
1268.52
1269.03
1268.96
1269.73
1269.26
1270.56
1269.4
1271.55
1269.45
1272.68
1269.47
1273.75
1269.38
1274.37
1269.41
1274.26
1270.09
1276.2
1281.5
1298.26
1321.31
1355.67
1385.58
1381.21
1384.69
1385.83
1387.07
1389.23
1388.77
1390.49
1389.02
1390.71
1133.34
1134.55
1135.62
1138.09
1139.32
1141.55
1142.6
1144.26
1145.08
1146.26
1146.97
1147.85
1148.45
1149.12
1149.65
1150.21
1150.7
1151.18
1151.62
1152.05
1152.46
1152.86
1153.25
1153.63
1154
1154.36
1154.72
1155.07
1155.41
1155.74
1156.08
1156.41
1156.73
1157.06
1157.39
1157.72
1158.06
1158.4
1158.75
1159.1
1159.45
1159.82
1160.18
1160.55
1160.93
1161.31
1161.69
1162.07
1162.45
1162.84
1163.22
1163.6
1163.98
1164.36
1164.74
1165.12
1165.49
1165.86
1166.23
1166.6
1166.96
1167.33
1167.69
1168.06
1168.43
1168.79
1169.16
1169.53
1169.9
1170.27
1170.63
1170.99
1171.35
1171.71
1172.06
1172.41
1172.75
1173.09
1173.42
1173.75
1174.08
1174.4
1174.72
1175.03
1175.34
1175.66
1175.96
1176.27
1176.58
1176.89
1177.2
1177.52
1177.83
1178.16
1178.48
1178.81
1179.14
1179.48
1179.81
1180.15
1180.48
1180.81
1181.13
1181.46
1181.77
1182.07
1182.35
1182.6
1182.85
1183.07
1183.37
1183.94
1184.31
1184.7
1184.48
1182.7
1180.72
1186.75
1198.14
1198.85
1189.93
1186.08
1188.27
1190.91
1190.75
1188.92
1187.18
1192.97
1205.01
1207.38
1201.64
1203.1
1205.11
1195.69
1182.01
1175.23
1176.87
1186.39
1194.12
1194.61
1198.18
1207.91
1208.42
1201.28
1199.26
1201.26
1202.59
1203.48
1204.94
1209.06
1215.16
1217.13
1209.07
1199.71
1198.03
1199.99
1200.9
1201.21
1199.94
1198.5
1202.9
1212.53
1213.88
1207.82
1205.4
1206.4
1208.52
1211.32
1213.15
1215.16
1218.79
1220.73
1214.97
1207.51
1205.72
1207.03
1207.69
1208.49
1209.05
1209.13
1209.55
1210.05
1210.18
1210.66
1210.97
1210.86
1210.7
1211.11
1211.25
1211.56
1211.85
1211.98
1212.29
1212.5
1212.6
1213.12
1213.3
1213.39
1213.77
1213.97
1213.91
1213.97
1214.24
1214.49
1214.77
1215
1215.2
1215.32
1215.55
1215.61
1215.86
1216.04
1216.26
1216.56
1216.75
1216.87
1216.66
1216.16
1215.67
1214.98
1214.37
1213.65
1213.01
1212.46
1212.12
1211.39
1210.7
1210.12
1209.56
1208.97
1208.49
1207.96
1206.41
1204.44
1203.76
1203.27
1202.87
1202.51
1201.34
1200.82
1200.33
1199.95
1199.5
1199.14
1198.7
1198.36
1197.97
1197.67
1197.32
1197.04
1196.71
1196.46
1196.15
1195.91
1195.61
1195.39
1195.12
1194.93
1194.69
1194.52
1194.32
1194.19
1194.02
1193.91
1193.76
1193.65
1193.52
1193.42
1193.3
1193.19
1192.94
1192.48
1191.86
1191.62
1191.48
1191.35
1191.19
1191.04
1190.86
1190.69
1190.49
1190.31
1190.11
1189.93
1189.73
1189.56
1189.38
1189.23
1189.06
1188.94
1188.78
1188.68
1188.54
1188.47
1188.34
1188.29
1188.17
1188.15
1188.02
1188.03
1187.88
1187.93
1187.78
1187.87
1187.72
1187.83
1187.7
1187.81
1187.7
1187.8
1187.73
1187.81
1187.76
1187.82
1187.79
1187.83
1187.81
1187.84
1187.81
1187.81
1187.76
1187.73
1187.65
1187.6
1187.5
1187.43
1187.32
1187.23
1187.17
1186.97
1186.87
1186.19
1185.94
1185.76
1185.78
1185.37
1185.55
1184.98
1185.28
1185.04
1185.02
1184.84
1181.29
1182.34
1181.74
1181.75
1181.39
1181.15
1180.85
1180.57
1180.27
1179.99
1179.7
1179.42
1179.15
1178.87
1178.6
1178.33
1178.06
1177.78
1177.51
1177.22
1176.93
1176.64
1176.34
1176.03
1175.71
1175.39
1175.09
1174.73
1174.5
1174.04
1173.95
1173.31
1173.49
1172.51
1173.15
1171.71
1173
1171.27
1173.23
1171.68
1173.69
1172.72
1173.9
1173.8
1174.34
1174.59
1174.97
1175.29
1175.63
1175.96
1176.3
1176.63
1176.97
1177.3
1177.65
1177.95
1178.37
1178.56
1179.14
1179.13
1179.99
1179.66
1180.75
1180.45
1182
1182.82
1179.68
1182.33
1182.69
1182.7
1183.46
1183.52
1184.04
1184.31
1184.72
1185.07
1185.45
1185.82
1186.19
1186.57
1186.95
1187.33
1187.71
1188.08
1188.46
1188.83
1189.2
1189.56
1189.93
1190.28
1190.64
1190.99
1191.33
1191.67
1192.01
1192.34
1192.66
1192.98
1193.3
1193.61
1193.92
1194.23
1194.53
1194.83
1195.14
1195.44
1195.74
1196.04
1196.34
1196.65
1196.96
1197.27
1197.58
1197.9
1198.22
1198.54
1198.87
1199.2
1199.53
1199.86
1200.2
1200.53
1200.87
1201.21
1201.55
1201.88
1202.23
1202.56
1202.9
1203.24
1203.57
1203.91
1204.25
1204.58
1204.93
1205.23
1205.64
1205.85
1206.42
1206.4
1207.27
1206.91
1208.19
1207.49
1208.7
1207.94
1208.02
1210.35
1206.33
1210.62
1210.91
1210.63
1211.9
1211.48
1212.5
1212.43
1213.07
1213.35
1213.68
1214.27
1214.26
1215.25
1214.77
1215.87
1214.81
1215.56
1217.2
1213.77
1217.37
1218.02
1217.65
1218.71
1218.45
1219.07
1219.11
1219.57
1219.68
1220.17
1220.12
1220.85
1220.45
1221.65
1220.64
1222.58
1220.76
1223.62
1220.87
1224.59
1220.86
1225.14
1220.95
1225.1
1221.92
1227.93
1233.68
1250.21
1273.24
1305.56
1333.61
1332.22
1335.68
1336.94
1338.2
1340.4
1339.96
1341.65
1340.01
1341.65
1084.33
1085.62
1086.73
1089.23
1090.48
1092.7
1093.75
1095.4
1096.23
1097.42
1098.12
1099
1099.59
1100.26
1100.78
1101.34
1101.83
1102.31
1102.75
1103.2
1103.61
1104.01
1104.4
1104.78
1105.15
1105.51
1105.87
1106.22
1106.56
1106.9
1107.23
1107.56
1107.88
1108.21
1108.54
1108.88
1109.21
1109.55
1109.9
1110.25
1110.6
1110.97
1111.33
1111.7
1112.08
1112.45
1112.83
1113.22
1113.6
1113.98
1114.37
1114.75
1115.13
1115.51
1115.89
1116.26
1116.64
1117.01
1117.38
1117.74
1118.11
1118.48
1118.84
1119.21
1119.57
1119.94
1120.31
1120.68
1121.05
1121.41
1121.78
1122.14
1122.5
1122.86
1123.21
1123.56
1123.9
1124.24
1124.57
1124.9
1125.22
1125.55
1125.86
1126.18
1126.49
1126.8
1127.11
1127.42
1127.73
1128.04
1128.35
1128.66
1128.98
1129.3
1129.63
1129.96
1130.29
1130.62
1130.95
1131.29
1131.62
1131.96
1132.28
1132.6
1132.9
1133.2
1133.45
1133.64
1133.82
1133.98
1134.22
1134.74
1135.13
1135.54
1135.34
1134.1
1133.42
1138.97
1147.27
1147.74
1141.71
1138.75
1140
1142.04
1142
1140.72
1140.22
1145.54
1154.48
1156.42
1152.95
1153.7
1154.11
1146.45
1135.52
1129.81
1131.27
1138.66
1144.6
1146.35
1150.39
1157.5
1157.75
1152.94
1151.42
1152.79
1153.98
1154.99
1156.59
1160.2
1164.8
1165.9
1159.64
1152.45
1150.47
1151.58
1152.33
1152.59
1151.61
1151.15
1155.23
1162.31
1163.29
1159.28
1157.44
1158.14
1159.98
1162.38
1164.19
1166.06
1168.8
1169.98
1165.55
1159.76
1157.83
1158.49
1158.99
1159.71
1160.28
1160.4
1160.78
1161.24
1161.4
1161.84
1162.13
1162.07
1161.94
1162.3
1162.45
1162.74
1163.01
1163.17
1163.46
1163.68
1163.81
1164.29
1164.47
1164.59
1164.93
1165.12
1165.09
1165.17
1165.41
1165.66
1165.94
1166.16
1166.36
1166.49
1166.7
1166.79
1167.04
1167.24
1167.46
1167.75
1167.92
1168.02
1167.81
1167.31
1166.83
1166.13
1165.52
1164.81
1164.17
1163.61
1163.24
1162.54
1161.86
1161.27
1160.7
1160.12
1159.61
1158.99
1157.55
1155.68
1154.95
1154.44
1154.01
1153.61
1152.52
1151.99
1151.49
1151.1
1150.65
1150.28
1149.86
1149.51
1149.13
1148.82
1148.47
1148.19
1147.86
1147.6
1147.3
1147.06
1146.77
1146.54
1146.27
1146.08
1145.84
1145.67
1145.47
1145.34
1145.18
1145.06
1144.91
1144.8
1144.67
1144.56
1144.45
1144.32
1144.06
1143.63
1143.04
1142.79
1142.63
1142.5
1142.34
1142.19
1142.01
1141.84
1141.64
1141.46
1141.26
1141.08
1140.88
1140.72
1140.53
1140.38
1140.21
1140.09
1139.94
1139.83
1139.7
1139.62
1139.5
1139.44
1139.32
1139.3
1139.17
1139.18
1139.04
1139.08
1138.94
1139.01
1138.88
1138.97
1138.85
1138.95
1138.86
1138.95
1138.88
1138.95
1138.91
1138.97
1138.94
1138.98
1138.96
1138.98
1138.96
1138.96
1138.91
1138.88
1138.8
1138.75
1138.64
1138.58
1138.47
1138.38
1138.31
1138.1
1137.99
1137.37
1137.11
1136.92
1136.92
1136.53
1136.68
1136.16
1136.42
1136.21
1136.01
1135.87
1132.69
1133.48
1132.89
1132.89
1132.54
1132.3
1132
1131.72
1131.43
1131.14
1130.86
1130.58
1130.3
1130.03
1129.76
1129.48
1129.21
1128.93
1128.66
1128.37
1128.09
1127.79
1127.49
1127.18
1126.87
1126.54
1126.24
1125.88
1125.65
1125.2
1125.1
1124.48
1124.63
1123.69
1124.28
1122.93
1124.11
1122.53
1124.31
1122.94
1124.76
1123.94
1125.02
1124.97
1125.49
1125.74
1126.12
1126.44
1126.79
1127.11
1127.46
1127.78
1128.13
1128.45
1128.8
1129.1
1129.52
1129.72
1130.29
1130.29
1131.12
1130.83
1131.89
1131.72
1132.95
1133.83
1131.16
1133.4
1133.79
1133.89
1134.58
1134.69
1135.19
1135.47
1135.87
1136.22
1136.6
1136.97
1137.35
1137.72
1138.1
1138.48
1138.87
1139.23
1139.61
1139.98
1140.35
1140.71
1141.08
1141.44
1141.79
1142.14
1142.49
1142.83
1143.16
1143.49
1143.82
1144.14
1144.45
1144.76
1145.07
1145.38
1145.68
1145.99
1146.29
1146.59
1146.89
1147.19
1147.5
1147.8
1148.11
1148.42
1148.73
1149.05
1149.37
1149.69
1150.02
1150.35
1150.68
1151.01
1151.35
1151.68
1152.02
1152.36
1152.7
1153.04
1153.38
1153.71
1154.05
1154.39
1154.73
1155.06
1155.4
1155.73
1156.08
1156.38
1156.79
1157
1157.56
1157.57
1158.41
1158.09
1159.3
1158.67
1159.75
1159.24
1159.1
1161.33
1157.91
1161.59
1161.99
1161.84
1162.99
1162.67
1163.62
1163.6
1164.21
1164.5
1164.84
1165.42
1165.43
1166.38
1165.92
1166.94
1166.14
1166.61
1168.21
1165.3
1168.39
1169.08
1168.86
1169.81
1169.62
1170.21
1170.27
1170.72
1170.83
1171.31
1171.29
1171.99
1171.62
1172.77
1171.84
1173.67
1172
1174.67
1172.14
1175.59
1172.19
1176.13
1172.36
1176.21
1173.69
1179.51
1185.89
1202.07
1224.74
1254.58
1281.78
1282.74
1286.4
1287.83
1289.02
1291.34
1290.94
1292.75
1291.03
1292.85
1035.22
1036.68
1037.79
1040.37
1041.64
1043.89
1044.95
1046.6
1047.43
1048.6
1049.3
1050.17
1050.76
1051.43
1051.95
1052.51
1052.99
1053.48
1053.92
1054.36
1054.76
1055.16
1055.55
1055.93
1056.3
1056.66
1057.02
1057.37
1057.71
1058.04
1058.37
1058.7
1059.03
1059.36
1059.69
1060.02
1060.36
1060.7
1061.04
1061.39
1061.75
1062.11
1062.48
1062.85
1063.22
1063.6
1063.98
1064.37
1064.75
1065.13
1065.52
1065.9
1066.28
1066.66
1067.04
1067.41
1067.79
1068.16
1068.53
1068.89
1069.26
1069.62
1069.99
1070.36
1070.72
1071.09
1071.46
1071.83
1072.19
1072.56
1072.93
1073.29
1073.65
1074.01
1074.36
1074.71
1075.05
1075.39
1075.72
1076.05
1076.37
1076.7
1077.01
1077.33
1077.64
1077.95
1078.26
1078.57
1078.88
1079.19
1079.5
1079.81
1080.13
1080.45
1080.77
1081.1
1081.43
1081.77
1082.1
1082.44
1082.77
1083.1
1083.42
1083.74
1084.03
1084.31
1084.49
1084.56
1084.59
1084.6
1084.68
1085.01
1085.3
1085.65
1085.47
1084.67
1084.89
1090.04
1096.45
1096.9
1092.7
1090.41
1091.16
1092.85
1092.91
1092.01
1092.24
1097.11
1104.04
1105.74
1103.58
1103.77
1103.18
1096.9
1088.11
1083.31
1084.59
1090.49
1095.2
1097.55
1101.66
1107.15
1107.36
1104.06
1102.92
1103.91
1104.92
1105.93
1107.57
1110.82
1114.43
1114.97
1110
1104.37
1102.34
1102.88
1103.44
1103.67
1102.96
1103.08
1106.75
1112.16
1113
1110.33
1108.91
1109.41
1111.06
1113.26
1115.01
1116.65
1118.61
1119.28
1115.94
1111.53
1109.62
1109.8
1110.15
1110.77
1111.29
1111.46
1111.83
1112.26
1112.45
1112.85
1113.1
1113.07
1113
1113.33
1113.49
1113.77
1114.03
1114.2
1114.49
1114.72
1114.9
1115.34
1115.52
1115.68
1115.97
1116.15
1116.16
1116.26
1116.5
1116.75
1117.03
1117.24
1117.45
1117.58
1117.79
1117.92
1118.17
1118.39
1118.64
1118.93
1119.1
1119.17
1118.95
1118.47
1117.97
1117.28
1116.66
1115.96
1115.34
1114.78
1114.36
1113.68
1113.02
1112.42
1111.85
1111.27
1110.72
1110.01
1108.64
1106.95
1106.19
1105.61
1105.14
1104.7
1103.72
1103.17
1102.65
1102.26
1101.81
1101.44
1101.01
1100.66
1100.28
1099.97
1099.63
1099.34
1099.02
1098.76
1098.46
1098.21
1097.92
1097.69
1097.43
1097.23
1097
1096.83
1096.63
1096.49
1096.33
1096.21
1096.07
1095.95
1095.82
1095.71
1095.59
1095.45
1095.18
1094.76
1094.23
1093.97
1093.8
1093.65
1093.5
1093.34
1093.16
1092.99
1092.8
1092.61
1092.41
1092.23
1092.04
1091.87
1091.69
1091.54
1091.37
1091.24
1091.09
1090.99
1090.86
1090.77
1090.65
1090.6
1090.48
1090.45
1090.33
1090.33
1090.2
1090.23
1090.1
1090.16
1090.04
1090.12
1090.02
1090.1
1090.02
1090.1
1090.04
1090.1
1090.07
1090.12
1090.1
1090.13
1090.12
1090.13
1090.11
1090.11
1090.06
1090.02
1089.95
1089.9
1089.8
1089.73
1089.63
1089.53
1089.46
1089.24
1089.1
1088.54
1088.29
1088.08
1088.06
1087.71
1087.81
1087.35
1087.54
1087.38
1087.03
1086.81
1084.14
1084.65
1084.06
1084.04
1083.7
1083.46
1083.16
1082.88
1082.58
1082.3
1082.02
1081.74
1081.46
1081.18
1080.91
1080.64
1080.37
1080.09
1079.81
1079.53
1079.24
1078.95
1078.64
1078.33
1078.02
1077.7
1077.4
1077.04
1076.8
1076.36
1076.25
1075.66
1075.76
1074.9
1075.38
1074.19
1075.19
1073.85
1075.38
1074.25
1075.82
1075.18
1076.15
1076.14
1076.65
1076.9
1077.28
1077.6
1077.95
1078.27
1078.62
1078.94
1079.29
1079.61
1079.96
1080.27
1080.67
1080.89
1081.43
1081.48
1082.24
1082.05
1083
1083.02
1083.96
1084.74
1082.69
1084.51
1084.88
1085.09
1085.71
1085.86
1086.34
1086.63
1087.03
1087.38
1087.76
1088.13
1088.51
1088.88
1089.26
1089.64
1090.02
1090.39
1090.77
1091.14
1091.51
1091.88
1092.24
1092.6
1092.95
1093.3
1093.65
1093.99
1094.32
1094.65
1094.98
1095.3
1095.61
1095.93
1096.23
1096.54
1096.84
1097.15
1097.45
1097.75
1098.05
1098.35
1098.66
1098.96
1099.27
1099.58
1099.89
1100.21
1100.53
1100.85
1101.18
1101.51
1101.84
1102.17
1102.51
1102.84
1103.18
1103.52
1103.86
1104.2
1104.54
1104.87
1105.21
1105.55
1105.89
1106.22
1106.56
1106.89
1107.24
1107.54
1107.95
1108.17
1108.71
1108.75
1109.53
1109.29
1110.38
1109.9
1110.77
1110.52
1110.29
1112.18
1109.57
1112.6
1113.02
1113.07
1114.07
1113.88
1114.73
1114.79
1115.35
1115.67
1116
1116.56
1116.61
1117.48
1117.12
1117.97
1117.47
1117.74
1119.11
1116.92
1119.46
1120.1
1120.08
1120.91
1120.81
1121.36
1121.44
1121.88
1122
1122.46
1122.46
1123.13
1122.82
1123.88
1123.08
1124.73
1123.29
1125.67
1123.5
1126.52
1123.63
1127.05
1123.91
1127.35
1125.7
1131.53
1138.42
1154.3
1176.53
1204.07
1229.59
1232.94
1236.87
1238.58
1239.73
1242.14
1241.88
1243.78
1242.15
1243.91
986.04
987.679
988.823
991.503
992.802
995.074
996.126
997.784
998.604
999.781
1000.46
1001.33
1001.92
1002.58
1003.1
1003.66
1004.14
1004.62
1005.06
1005.5
1005.91
1006.31
1006.7
1007.08
1007.45
1007.82
1008.17
1008.52
1008.86
1009.2
1009.53
1009.86
1010.18
1010.51
1010.84
1011.17
1011.51
1011.85
1012.19
1012.54
1012.9
1013.26
1013.62
1014
1014.37
1014.75
1015.13
1015.51
1015.89
1016.28
1016.66
1017.05
1017.43
1017.81
1018.19
1018.56
1018.93
1019.3
1019.67
1020.04
1020.4
1020.77
1021.14
1021.5
1021.87
1022.24
1022.6
1022.97
1023.34
1023.71
1024.08
1024.44
1024.8
1025.16
1025.51
1025.85
1026.2
1026.54
1026.87
1027.2
1027.52
1027.85
1028.16
1028.48
1028.79
1029.1
1029.41
1029.72
1030.02
1030.33
1030.64
1030.96
1031.27
1031.6
1031.92
1032.25
1032.58
1032.92
1033.25
1033.58
1033.91
1034.24
1034.56
1034.87
1035.15
1035.39
1035.47
1035.33
1035.07
1034.82
1034.61
1034.62
1034.68
1034.92
1034.81
1034.51
1035.39
1040.12
1045.3
1045.9
1043.01
1041.26
1041.71
1043.11
1043.28
1042.81
1043.55
1047.9
1053.34
1054.9
1053.58
1053.41
1052.21
1046.96
1039.89
1035.98
1037.02
1041.72
1045.67
1048.38
1052.3
1056.59
1056.86
1054.66
1053.82
1054.57
1055.47
1056.5
1058.1
1060.97
1063.83
1064.07
1060.07
1055.57
1053.6
1053.8
1054.22
1054.43
1054
1054.54
1057.76
1061.93
1062.7
1060.98
1059.97
1060.39
1061.85
1063.83
1065.49
1066.94
1068.37
1068.74
1066.17
1062.77
1061
1060.9
1061.1
1061.62
1062.1
1062.31
1062.67
1063.08
1063.29
1063.66
1063.91
1063.92
1063.89
1064.2
1064.36
1064.62
1064.88
1065.07
1065.37
1065.63
1065.85
1066.26
1066.47
1066.64
1066.9
1067.08
1067.14
1067.26
1067.5
1067.75
1068.03
1068.25
1068.46
1068.6
1068.82
1068.99
1069.27
1069.53
1069.8
1070.1
1070.28
1070.33
1070.11
1069.64
1069.12
1068.43
1067.8
1067.11
1066.5
1065.93
1065.48
1064.82
1064.17
1063.57
1062.99
1062.41
1061.82
1061.05
1059.77
1058.2
1057.39
1056.79
1056.29
1055.82
1054.9
1054.35
1053.82
1053.41
1052.97
1052.59
1052.17
1051.82
1051.45
1051.13
1050.79
1050.49
1050.18
1049.91
1049.61
1049.37
1049.08
1048.85
1048.59
1048.39
1048.16
1047.99
1047.79
1047.65
1047.49
1047.36
1047.22
1047.11
1046.98
1046.87
1046.74
1046.58
1046.31
1045.91
1045.42
1045.15
1044.96
1044.81
1044.65
1044.49
1044.32
1044.15
1043.95
1043.77
1043.57
1043.39
1043.2
1043.03
1042.85
1042.7
1042.53
1042.4
1042.26
1042.15
1042.02
1041.93
1041.82
1041.76
1041.65
1041.61
1041.49
1041.49
1041.37
1041.39
1041.27
1041.32
1041.21
1041.28
1041.19
1041.26
1041.19
1041.25
1041.2
1041.26
1041.23
1041.28
1041.26
1041.29
1041.27
1041.29
1041.27
1041.26
1041.22
1041.18
1041.11
1041.05
1040.96
1040.89
1040.78
1040.69
1040.6
1040.39
1040.23
1039.73
1039.47
1039.25
1039.22
1038.88
1038.95
1038.54
1038.67
1038.51
1038.07
1037.85
1035.52
1035.83
1035.24
1035.2
1034.86
1034.62
1034.32
1034.04
1033.75
1033.47
1033.18
1032.9
1032.63
1032.35
1032.08
1031.81
1031.53
1031.26
1030.98
1030.69
1030.41
1030.11
1029.81
1029.5
1029.19
1028.86
1028.56
1028.21
1027.97
1027.54
1027.41
1026.84
1026.92
1026.11
1026.52
1025.44
1026.32
1025.13
1026.49
1025.53
1026.91
1026.41
1027.29
1027.32
1027.82
1028.08
1028.45
1028.77
1029.12
1029.44
1029.78
1030.11
1030.45
1030.78
1031.13
1031.44
1031.84
1032.06
1032.59
1032.66
1033.38
1033.26
1034.15
1034.26
1034.99
1035.77
1034.12
1035.64
1036
1036.28
1036.85
1037.04
1037.5
1037.8
1038.2
1038.55
1038.93
1039.3
1039.67
1040.05
1040.43
1040.81
1041.19
1041.56
1041.94
1042.31
1042.68
1043.05
1043.41
1043.77
1044.12
1044.47
1044.82
1045.16
1045.49
1045.82
1046.15
1046.47
1046.79
1047.1
1047.4
1047.71
1048.01
1048.32
1048.62
1048.92
1049.22
1049.52
1049.82
1050.13
1050.44
1050.75
1051.06
1051.38
1051.7
1052.02
1052.35
1052.67
1053.01
1053.34
1053.68
1054.01
1054.35
1054.69
1055.03
1055.37
1055.71
1056.04
1056.38
1056.72
1057.06
1057.39
1057.73
1058.06
1058.41
1058.71
1059.11
1059.34
1059.87
1059.93
1060.67
1060.5
1061.48
1061.1
1061.86
1061.76
1061.47
1063.2
1061.1
1063.65
1064.11
1064.28
1065.18
1065.08
1065.87
1065.97
1066.51
1066.84
1067.17
1067.72
1067.79
1068.6
1068.31
1069.07
1068.74
1068.88
1070.15
1068.42
1070.55
1071.18
1071.29
1072.03
1072
1072.51
1072.62
1073.04
1073.18
1073.63
1073.64
1074.28
1074.02
1075.01
1074.31
1075.83
1074.57
1076.72
1074.82
1077.55
1075.03
1078.1
1075.44
1078.67
1077.72
1083.52
1090.91
1106.41
1127.91
1153.37
1177.52
1182.78
1187.05
1189.11
1190.16
1192.72
1192.52
1194.71
1193.2
1195.33
936.763
938.641
939.817
942.626
943.954
946.264
947.317
948.982
949.8
950.971
951.65
952.51
953.09
953.755
954.27
954.827
955.303
955.787
956.224
956.662
957.07
957.471
957.857
958.237
958.606
958.968
959.322
959.669
960.009
960.343
960.674
961.001
961.327
961.654
961.982
962.315
962.65
962.99
963.335
963.686
964.043
964.405
964.771
965.142
965.517
965.895
966.276
966.659
967.044
967.428
967.812
968.195
968.578
968.958
969.336
969.711
970.084
970.454
970.821
971.188
971.553
971.919
972.284
972.651
973.017
973.385
973.753
974.122
974.491
974.859
975.225
975.589
975.949
976.305
976.658
977.005
977.348
977.687
978.02
978.349
978.674
978.996
979.312
979.628
979.938
980.248
980.555
980.863
981.17
981.48
981.79
982.105
982.421
982.743
983.067
983.397
983.726
984.061
984.392
984.728
985.053
985.382
985.688
985.992
986.254
986.456
986.396
985.977
985.29
984.537
983.801
983.365
983.097
983.163
983.154
983.342
984.744
989.194
993.651
994.544
992.68
991.394
991.618
992.714
992.958
992.932
994.108
998.024
1002.38
1003.77
1002.91
1002.47
1000.99
996.577
990.868
987.758
988.625
992.439
995.875
998.745
1002.39
1005.83
1006.15
1004.68
1004.09
1004.72
1005.55
1006.62
1008.2
1010.71
1012.96
1013.02
1009.78
1006.14
1004.3
1004.29
1004.61
1004.84
1004.65
1005.47
1008.29
1011.58
1012.33
1011.28
1010.63
1011.06
1012.35
1014.11
1015.65
1016.92
1017.99
1018.19
1016.23
1013.58
1011.99
1011.73
1011.81
1012.24
1012.7
1012.96
1013.31
1013.7
1013.93
1014.27
1014.5
1014.56
1014.59
1014.9
1015.06
1015.3
1015.55
1015.76
1016.09
1016.4
1016.68
1017.07
1017.29
1017.47
1017.71
1017.9
1018
1018.16
1018.41
1018.66
1018.94
1019.16
1019.39
1019.54
1019.78
1020
1020.33
1020.64
1020.95
1021.27
1021.47
1021.52
1021.29
1020.81
1020.27
1019.58
1018.95
1018.26
1017.65
1017.09
1016.61
1015.96
1015.33
1014.72
1014.14
1013.55
1012.92
1012.11
1010.89
1009.44
1008.62
1007.98
1007.44
1006.94
1006.09
1005.53
1004.99
1004.58
1004.14
1003.75
1003.34
1002.98
1002.61
1002.29
1001.95
1001.65
1001.34
1001.07
1000.78
1000.53
1000.25
1000.01
999.758
999.55
999.329
999.149
998.961
998.812
998.655
998.527
998.386
998.268
998.136
998.021
997.884
997.718
997.44
997.061
996.608
996.334
996.134
995.977
995.817
995.657
995.482
995.308
995.117
994.934
994.738
994.558
994.367
994.197
994.019
993.866
993.704
993.572
993.428
993.317
993.191
993.103
992.99
992.925
992.817
992.776
992.667
992.652
992.54
992.554
992.446
992.484
992.386
992.442
992.36
992.422
992.36
992.418
992.375
992.426
992.401
992.441
992.426
992.455
992.442
992.455
992.434
992.424
992.381
992.344
992.273
992.215
992.123
992.05
991.949
991.848
991.756
991.54
991.364
990.911
990.663
990.439
990.378
990.067
990.103
989.74
989.808
989.646
989.144
988.879
986.885
987.033
986.447
986.379
986.04
985.797
985.5
985.218
984.927
984.643
984.359
984.079
983.803
983.529
983.257
982.984
982.711
982.433
982.155
981.87
981.583
981.286
980.986
980.676
980.365
980.042
979.74
979.394
979.141
978.727
978.579
978.04
978.077
977.335
977.672
976.707
977.463
976.444
977.612
976.825
978.034
977.651
978.452
978.518
978.996
979.262
979.634
979.953
980.3
980.623
980.966
981.294
981.636
981.964
982.312
982.621
983.011
983.252
983.757
983.866
984.536
984.488
985.302
985.496
986.079
986.792
985.541
986.805
987.146
987.48
988.005
988.231
988.674
988.989
989.376
989.732
990.109
990.477
990.855
991.232
991.611
991.992
992.373
992.744
993.122
993.491
993.863
994.227
994.594
994.952
995.308
995.657
996.003
996.343
996.678
997.007
997.332
997.652
997.968
998.279
998.588
998.893
999.196
999.497
999.799
1000.1
1000.4
1000.7
1001.01
1001.31
1001.62
1001.93
1002.24
1002.56
1002.88
1003.2
1003.53
1003.86
1004.19
1004.52
1004.86
1005.19
1005.53
1005.87
1006.21
1006.55
1006.89
1007.22
1007.56
1007.9
1008.24
1008.57
1008.91
1009.24
1009.59
1009.9
1010.29
1010.53
1011.03
1011.13
1011.82
1011.71
1012.59
1012.32
1012.96
1012.99
1012.7
1014.21
1012.61
1014.76
1015.2
1015.49
1016.3
1016.3
1017.02
1017.17
1017.68
1018.02
1018.35
1018.89
1018.99
1019.73
1019.52
1020.18
1020.01
1020.08
1021.2
1019.9
1021.69
1022.27
1022.49
1023.16
1023.19
1023.68
1023.81
1024.22
1024.37
1024.8
1024.84
1025.44
1025.24
1026.15
1025.57
1026.93
1025.87
1027.79
1026.17
1028.58
1026.47
1029.19
1027.06
1030.08
1029.86
1035.72
1043.54
1058.65
1079.41
1102.89
1125.67
1132.39
1137.02
1139.48
1140.47
1143.11
1143.06
1145.42
1144.37
1146.65
887.391
889.586
890.817
893.785
895.142
897.486
898.529
900.19
900.993
902.157
902.825
903.679
904.255
904.917
905.429
905.982
906.456
906.938
907.374
907.813
908.22
908.623
909.009
909.39
909.759
910.121
910.475
910.822
911.162
911.495
911.826
912.153
912.478
912.804
913.132
913.463
913.798
914.138
914.483
914.834
915.189
915.551
915.917
916.288
916.664
917.042
917.423
917.806
918.19
918.574
918.96
919.343
919.725
920.105
920.483
920.858
921.23
921.601
921.968
922.335
922.7
923.066
923.431
923.798
924.165
924.533
924.902
925.271
925.64
926.008
926.374
926.738
927.099
927.455
927.809
928.156
928.498
928.837
929.17
929.5
929.826
930.149
930.463
930.777
931.087
931.397
931.703
932.01
932.317
932.626
932.936
933.251
933.567
933.889
934.213
934.542
934.871
935.205
935.534
935.869
936.19
936.514
936.812
937.101
937.339
937.494
937.277
936.505
935.301
933.907
932.394
931.257
930.545
930.412
930.478
931.122
933.002
937.331
941.506
942.866
941.867
940.947
940.928
941.672
941.958
942.383
943.983
947.609
951.19
952.393
951.714
951.038
949.426
945.744
941.155
938.7
939.443
942.63
945.76
948.703
952.048
954.866
955.204
954.211
953.801
954.386
955.213
956.332
957.882
960.086
961.869
961.829
959.183
956.182
954.497
954.357
954.602
954.923
954.996
955.978
958.377
961.018
961.799
961.287
960.948
961.433
962.603
964.164
965.541
966.644
967.457
967.59
966.103
964.072
962.686
962.338
962.313
962.65
963.08
963.381
963.751
964.149
964.384
964.683
964.892
964.993
965.098
965.421
965.606
965.821
966.042
966.265
966.628
967.017
967.363
967.766
968
968.171
968.383
968.585
968.726
968.924
969.213
969.489
969.778
969.998
970.224
970.394
970.667
970.94
971.33
971.714
972.093
972.454
972.675
972.725
972.493
972.005
971.43
970.738
970.097
969.414
968.807
968.239
967.735
967.109
966.488
965.878
965.286
964.679
964.023
963.186
962.027
960.682
959.831
959.162
958.606
958.076
957.28
956.715
956.174
955.75
955.308
954.919
954.509
954.149
953.779
953.456
953.118
952.821
952.511
952.237
951.947
951.692
951.417
951.18
950.931
950.72
950.502
950.319
950.134
949.982
949.826
949.695
949.556
949.434
949.302
949.181
949.039
948.861
948.584
948.224
947.802
947.524
947.316
947.153
946.989
946.827
946.653
946.478
946.289
946.107
945.913
945.732
945.543
945.372
945.197
945.042
944.883
944.75
944.608
944.495
944.371
944.281
944.17
944.101
943.997
943.952
943.849
943.827
943.723
943.729
943.629
943.659
943.57
943.616
943.543
943.596
943.541
943.592
943.556
943.6
943.58
943.615
943.604
943.629
943.619
943.629
943.608
943.597
943.555
943.517
943.447
943.388
943.299
943.224
943.124
943.02
942.919
942.704
942.52
942.106
941.86
941.632
941.552
941.261
941.267
940.938
940.956
940.78
940.243
939.961
938.226
938.246
937.664
937.566
937.23
936.984
936.688
936.407
936.116
935.833
935.549
935.27
934.994
934.719
934.447
934.174
933.901
933.623
933.345
933.06
932.773
932.476
932.176
931.867
931.557
931.235
930.932
930.59
930.331
929.928
929.766
929.253
929.258
928.573
928.847
927.983
928.633
927.752
928.771
928.118
929.185
928.899
929.632
929.728
930.192
930.463
930.833
931.152
931.498
931.821
932.164
932.492
932.833
933.16
933.508
933.821
934.203
934.457
934.942
935.081