/*--------------------------------*- C++ -*----------------------------------*\
| =========                 |                                                 |
| \\      /  F ield         | foam-extend: Open Source CFD                    |
|  \\    /   O peration     | Version:     3.2                                |
|   \\  /    A nd           | Web:         http://www.foam-extend.org         |
|    \\/     M anipulation  | For copyright notice see file Copyright         |
\*---------------------------------------------------------------------------*/
FoamFile
{
    version     2.0;
    format      ascii;
    class       volScalarField;
    location    "2020";
    object      pd;
}
// * * * * * * * * * * * * * * * * * * * * * * * * * * * * * * * * * * * * * //

dimensions      [1 -1 -2 0 0 0 0];

internalField   nonuniform List<scalar> 
33000
(
1209.83
1210.53
1211.33
1213.4
1214.32
1216.19
1216.93
1218.24
1218.76
1219.59
1219.95
1220.59
1220.8
1221.04
1221.35
1221.53
1221.61
1221.83
1221.94
1222.04
1222.12
1222.17
1222.25
1222.32
1222.35
1222.41
1222.45
1222.51
1222.53
1222.56
1222.58
1222.61
1222.63
1222.64
1222.63
1222.63
1222.6
1222.58
1222.54
1222.46
1222.37
1222.27
1222.1
1221.91
1221.65
1221.31
1220.87
1220.31
1219.37
1218.57
1216.11
1215.3
1213.92
1215.11
1213.67
1214.6
1213.59
1218
1219.33
1223.44
1224.81
1230.23
1233.88
1239.69
1236.19
1232.93
1232.46
1237.56
1233.54
1229.78
1225.32
1229.78
1232.85
1234.64
1226.07
1219.75
1211.48
1225.35
1232.91
1232.9
1227.6
1217.96
1214.45
1216.75
1225.56
1231.33
1230.54
1226.37
1218.35
1214.33
1217.2
1226.19
1230.34
1231.42
1226.29
1219.59
1214.34
1219.06
1227.58
1236.22
1234.93
1235.46
1222.87
1224.68
1224.27
1224.39
1229.04
1228.58
1226.95
1222.89
1217.16
1215.57
1214.87
1219.26
1223.89
1230.46
1231.02
1236.2
1223.22
1225.91
1221.77
1224.71
1227
1221.42
1224.45
1222.83
1223.92
1225.67
1219.76
1223.32
1219.5
1221.08
1220.5
1220.63
1220.31
1220.05
1220.27
1218.05
1219.76
1219.14
1219.42
1219.11
1219.07
1218.85
1218.81
1218.59
1218.58
1218.34
1218.36
1218.11
1218.15
1217.9
1217.95
1217.7
1217.77
1217.48
1217.64
1217.2
1217.61
1216.82
1217.75
1216.34
1217.92
1215.91
1218.03
1215.64
1217.99
1215.65
1217.86
1215.97
1218.08
1216.35
1217.67
1216.56
1217.4
1216.67
1217.2
1216.71
1217.04
1216.67
1216.92
1216.57
1216.8
1216.45
1216.68
1216.33
1216.55
1216.2
1216.41
1216.07
1216.28
1215.93
1216.14
1215.79
1216
1215.66
1215.85
1215.52
1215.71
1215.38
1215.57
1215.25
1215.44
1215.12
1215.31
1215
1215.18
1214.87
1215.05
1214.75
1214.93
1214.64
1214.81
1214.53
1214.7
1214.42
1214.59
1214.31
1214.48
1214.21
1214.38
1214.1
1214.28
1214.01
1214.18
1213.91
1214.08
1213.81
1213.99
1213.72
1213.89
1213.62
1213.8
1213.53
1213.71
1213.44
1213.62
1213.35
1213.53
1213.25
1213.44
1213.16
1213.35
1213.06
1213.26
1212.96
1213.16
1212.86
1213.07
1212.75
1212.97
1212.64
1212.89
1212.51
1212.81
1212.36
1212.76
1212.19
1212.73
1211.99
1212.73
1211.76
1212.73
1211.52
1212.73
1211.3
1212.71
1211.12
1212.66
1210.99
1212.55
1210.95
1212.37
1211.02
1212.1
1211.2
1211.77
1211.43
1211.47
1211.52
1211.37
1211.18
1212.24
1209.44
1217.21
1204.96
1212.2
1209.06
1211.27
1209.79
1210.92
1210.05
1210.71
1210.2
1210.55
1210.29
1210.43
1210.34
1210.36
1210.36
1210.28
1210.37
1210.21
1210.37
1210.16
1210.35
1210.11
1210.33
1210.07
1210.29
1210.04
1210.25
1210
1210.2
1209.97
1210.15
1209.93
1210.09
1209.89
1210.03
1209.85
1209.96
1209.81
1209.89
1209.76
1209.81
1209.7
1209.74
1209.65
1209.66
1209.58
1209.57
1209.51
1209.48
1209.42
1209.38
1209.32
1209.27
1209.21
1209.16
1209.09
1209.04
1208.97
1208.92
1208.85
1208.79
1208.72
1208.66
1208.59
1208.53
1208.45
1208.39
1208.31
1208.27
1208.15
1208.19
1207.96
1208.14
1207.73
1208.13
1207.5
1208.08
1207.39
1207.99
1207.59
1207.75
1207.69
1207.7
1207.67
1207.66
1207.63
1207.62
1207.6
1207.58
1207.56
1207.54
1207.52
1207.51
1207.48
1207.47
1207.44
1207.45
1207.33
1207.5
1207.18
1207.63
1206.91
1207.91
1206.48
1208.33
1205.94
1208.76
1205.62
1208.66
1206.2
1205.87
1212.86
1201.01
1209.19
1206.57
1206.8
1207.33
1206.53
1207.23
1206.73
1206.86
1207.11
1206.38
1207.57
1205.8
1208.09
1205.36
1208.07
1205.94
1205.17
1212.65
1200.39
1208.62
1206.43
1206.05
1207.24
1205.79
1207.16
1205.94
1206.93
1206.12
1206.72
1206.25
1206.58
1206.33
1206.47
1206.36
1206.41
1206.35
1206.36
1206.34
1206.33
1206.31
1206.31
1206.29
1206.28
1206.27
1206.26
1206.25
1206.23
1206.22
1206.21
1206.2
1206.19
1206.18
1206.17
1206.15
1206.14
1206.13
1206.12
1206.1
1206.09
1206.08
1206.06
1206.05
1206.04
1206.03
1206
1206.03
1205.93
1206.09
1205.78
1206.27
1205.48
1206.64
1204.96
1207.25
1204.31
1207.64
1204.41
1204.89
1211.43
1200.03
1207.04
1206.31
1204.83
1206.62
1205
1206.25
1205.35
1205.94
1205.55
1205.76
1205.62
1205.69
1205.64
1205.65
1205.63
1205.63
1205.61
1205.6
1205.59
1205.58
1205.58
1205.56
1205.56
1205.55
1205.53
1205.52
1205.51
1205.5
1205.49
1205.47
1205.46
1205.44
1205.43
1205.41
1205.39
1205.37
1205.34
1205.35
1205.25
1205.37
1205.11
1205.48
1204.84
1205.76
1204.38
1206.27
1203.67
1206.98
1202.82
1207.78
1201.93
1208.43
1201.22
1208.47
1200.92
1207.62
1200.27
1204.76
1202.11
1205.77
1209.6
1211.01
1220.1
1214.57
1217.6
1217.88
1218.18
1219.78
1218.92
1220
1218.29
1219.74
1209.72
1210.54
1211.31
1213.41
1214.32
1216.21
1216.95
1218.26
1218.77
1219.6
1219.98
1220.59
1220.8
1221.08
1221.36
1221.54
1221.65
1221.85
1221.94
1222.04
1222.12
1222.18
1222.25
1222.31
1222.36
1222.42
1222.46
1222.51
1222.53
1222.57
1222.59
1222.61
1222.63
1222.64
1222.64
1222.64
1222.6
1222.58
1222.54
1222.47
1222.38
1222.28
1222.1
1221.92
1221.65
1221.32
1220.89
1220.33
1219.42
1218.6
1216.49
1215.79
1214.5
1215.46
1214.2
1215.2
1214.45
1218.25
1219.6
1223.65
1225.14
1230.01
1233.01
1237.8
1235.31
1233.47
1232.68
1236.18
1232.7
1229.81
1226.12
1229.6
1231.6
1233.01
1225.77
1221
1214.29
1224.99
1230.8
1231.25
1227.11
1219.2
1216.29
1217.93
1224.88
1229.71
1229.32
1225.9
1219.38
1216.17
1218.22
1225.39
1228.94
1230.1
1225.84
1220.55
1216.39
1220.18
1226.9
1234.39
1233.43
1234.1
1224.01
1225.18
1224.4
1224.54
1228.25
1227.73
1226.34
1222.92
1218.03
1216.59
1215.94
1219.76
1223.61
1229.5
1229.94
1234.2
1223.8
1226.12
1222.33
1224.51
1226.28
1221.9
1224.32
1222.91
1223.65
1225.05
1220.25
1223.08
1219.75
1221.06
1220.47
1220.6
1220.29
1220.01
1220.17
1218.4
1219.72
1219.14
1219.4
1219.11
1219.06
1218.86
1218.81
1218.6
1218.57
1218.36
1218.35
1218.13
1218.14
1217.92
1217.94
1217.71
1217.76
1217.5
1217.63
1217.23
1217.58
1216.88
1217.68
1216.45
1217.8
1216.08
1217.87
1215.84
1217.84
1215.85
1217.77
1216.09
1217.9
1216.44
1217.57
1216.62
1217.34
1216.71
1217.16
1216.73
1217.01
1216.69
1216.89
1216.59
1216.78
1216.47
1216.65
1216.35
1216.52
1216.22
1216.39
1216.09
1216.26
1215.95
1216.12
1215.81
1215.98
1215.68
1215.83
1215.54
1215.69
1215.4
1215.56
1215.27
1215.42
1215.14
1215.29
1215.02
1215.16
1214.89
1215.04
1214.77
1214.92
1214.66
1214.8
1214.54
1214.69
1214.43
1214.57
1214.33
1214.47
1214.22
1214.36
1214.12
1214.26
1214.02
1214.16
1213.92
1214.07
1213.83
1213.97
1213.73
1213.88
1213.64
1213.79
1213.55
1213.69
1213.45
1213.6
1213.36
1213.51
1213.27
1213.42
1213.18
1213.33
1213.08
1213.24
1212.98
1213.14
1212.88
1213.05
1212.77
1212.95
1212.66
1212.87
1212.53
1212.79
1212.39
1212.73
1212.23
1212.69
1212.04
1212.67
1211.82
1212.65
1211.61
1212.64
1211.41
1212.6
1211.23
1212.54
1211.12
1212.43
1211.07
1212.26
1211.12
1212.03
1211.26
1211.74
1211.44
1211.49
1211.48
1211.44
1211.13
1212.27
1209.61
1215.99
1206.11
1212.09
1209.18
1211.18
1209.87
1210.86
1210.11
1210.67
1210.23
1210.53
1210.3
1210.43
1210.35
1210.36
1210.35
1210.29
1210.36
1210.23
1210.35
1210.17
1210.33
1210.13
1210.31
1210.09
1210.27
1210.05
1210.23
1210.02
1210.18
1209.98
1210.13
1209.94
1210.07
1209.9
1210.01
1209.86
1209.95
1209.81
1209.88
1209.76
1209.81
1209.71
1209.73
1209.65
1209.65
1209.58
1209.57
1209.51
1209.47
1209.42
1209.37
1209.31
1209.27
1209.21
1209.16
1209.09
1209.04
1208.97
1208.92
1208.85
1208.79
1208.72
1208.66
1208.58
1208.53
1208.45
1208.39
1208.31
1208.27
1208.16
1208.18
1207.97
1208.12
1207.77
1208.09
1207.56
1208.04
1207.46
1207.95
1207.61
1207.75
1207.69
1207.7
1207.67
1207.66
1207.63
1207.62
1207.6
1207.58
1207.56
1207.54
1207.52
1207.51
1207.48
1207.47
1207.44
1207.45
1207.34
1207.49
1207.2
1207.6
1206.96
1207.83
1206.59
1208.18
1206.14
1208.51
1205.91
1208.32
1206.59
1205.99
1211.7
1202.26
1208.87
1206.48
1206.9
1207.24
1206.61
1207.17
1206.77
1206.85
1207.08
1206.44
1207.47
1205.95
1207.87
1205.63
1207.75
1206.3
1205.34
1211.45
1201.67
1208.31
1206.29
1206.2
1207.1
1205.91
1207.06
1206.02
1206.86
1206.17
1206.68
1206.28
1206.55
1206.34
1206.46
1206.36
1206.4
1206.36
1206.36
1206.34
1206.33
1206.31
1206.31
1206.29
1206.28
1206.27
1206.26
1206.25
1206.24
1206.22
1206.21
1206.2
1206.19
1206.18
1206.17
1206.15
1206.14
1206.13
1206.12
1206.1
1206.09
1206.08
1206.06
1206.05
1206.04
1206.03
1206
1206.03
1205.93
1206.08
1205.79
1206.24
1205.53
1206.56
1205.1
1207.04
1204.6
1207.25
1204.91
1204.97
1210.25
1201.27
1206.87
1206.04
1205.04
1206.46
1205.12
1206.17
1205.4
1205.9
1205.57
1205.75
1205.63
1205.68
1205.64
1205.65
1205.63
1205.63
1205.61
1205.61
1205.59
1205.58
1205.57
1205.56
1205.56
1205.55
1205.53
1205.52
1205.51
1205.5
1205.49
1205.48
1205.46
1205.44
1205.43
1205.41
1205.39
1205.37
1205.34
1205.35
1205.26
1205.36
1205.12
1205.46
1204.88
1205.7
1204.47
1206.13
1203.86
1206.73
1203.13
1207.41
1202.37
1207.93
1201.75
1207.91
1201.47
1207.12
1201.1
1205.02
1202.96
1206.44
1210.1
1211.34
1219.27
1214.59
1217.52
1217.89
1218.21
1219.81
1218.96
1220.01
1218.13
1219.5
1209.56
1210.47
1211.27
1213.4
1214.34
1216.21
1216.95
1218.26
1218.77
1219.61
1219.98
1220.58
1220.8
1221.08
1221.34
1221.53
1221.64
1221.83
1221.93
1222.04
1222.12
1222.18
1222.26
1222.32
1222.36
1222.42
1222.46
1222.52
1222.54
1222.57
1222.59
1222.62
1222.63
1222.65
1222.64
1222.64
1222.61
1222.59
1222.55
1222.48
1222.39
1222.29
1222.12
1221.93
1221.67
1221.34
1220.9
1220.37
1219.46
1218.72
1216.86
1216.32
1215.06
1215.85
1214.73
1215.79
1215.33
1218.69
1219.89
1223.61
1225.09
1229.67
1232.32
1236.26
1234.26
1233.36
1232.45
1234.94
1231.96
1229.91
1226.88
1229.52
1230.48
1231.51
1225.39
1222.08
1216.58
1225.16
1229.21
1229.55
1226.38
1220.09
1217.98
1219.17
1224.53
1228.34
1228.03
1225.28
1220.11
1217.84
1219.35
1224.97
1227.75
1228.77
1225.21
1221.28
1218.21
1221.35
1226.48
1232.82
1231.86
1232.68
1224.36
1225.67
1224.74
1224.64
1227.66
1226.93
1225.66
1222.84
1218.72
1217.61
1217.05
1220.37
1223.46
1228.64
1228.84
1232.54
1223.78
1226.43
1222.85
1224.31
1225.7
1221.99
1224.31
1223.03
1223.4
1224.48
1220.32
1223.05
1220.03
1221.07
1220.47
1220.59
1220.27
1220
1220.14
1218.54
1219.67
1219.15
1219.38
1219.1
1219.07
1218.86
1218.81
1218.61
1218.57
1218.37
1218.35
1218.14
1218.14
1217.93
1217.94
1217.72
1217.76
1217.51
1217.62
1217.25
1217.57
1216.91
1217.64
1216.52
1217.74
1216.17
1217.79
1215.95
1217.75
1215.95
1217.67
1216.19
1217.81
1216.5
1217.52
1216.65
1217.31
1216.73
1217.13
1216.75
1217
1216.7
1216.88
1216.6
1216.76
1216.48
1216.64
1216.36
1216.51
1216.23
1216.38
1216.1
1216.24
1215.96
1216.11
1215.83
1215.96
1215.69
1215.82
1215.55
1215.68
1215.41
1215.55
1215.28
1215.41
1215.15
1215.28
1215.03
1215.15
1214.9
1215.03
1214.78
1214.91
1214.67
1214.79
1214.55
1214.68
1214.44
1214.57
1214.34
1214.46
1214.23
1214.35
1214.13
1214.25
1214.03
1214.15
1213.93
1214.06
1213.84
1213.96
1213.74
1213.87
1213.65
1213.78
1213.55
1213.69
1213.46
1213.59
1213.37
1213.5
1213.28
1213.41
1213.19
1213.32
1213.09
1213.23
1212.99
1213.13
1212.89
1213.04
1212.78
1212.94
1212.67
1212.85
1212.54
1212.77
1212.4
1212.71
1212.25
1212.66
1212.06
1212.63
1211.86
1212.61
1211.66
1212.59
1211.46
1212.55
1211.3
1212.48
1211.18
1212.37
1211.13
1212.21
1211.17
1211.99
1211.29
1211.72
1211.44
1211.49
1211.46
1211.46
1211.11
1212.24
1209.7
1215.46
1206.66
1211.93
1209.26
1211.13
1209.91
1210.83
1210.14
1210.65
1210.25
1210.52
1210.31
1210.42
1210.35
1210.36
1210.35
1210.3
1210.35
1210.24
1210.34
1210.18
1210.33
1210.14
1210.3
1210.1
1210.26
1210.06
1210.22
1210.03
1210.18
1209.99
1210.12
1209.95
1210.07
1209.91
1210.01
1209.87
1209.94
1209.82
1209.87
1209.77
1209.8
1209.71
1209.73
1209.65
1209.65
1209.58
1209.56
1209.51
1209.47
1209.41
1209.37
1209.31
1209.27
1209.2
1209.16
1209.09
1209.04
1208.97
1208.92
1208.85
1208.79
1208.72
1208.66
1208.58
1208.53
1208.45
1208.39
1208.31
1208.27
1208.16
1208.18
1207.98
1208.11
1207.78
1208.08
1207.59
1208.02
1207.49
1207.93
1207.62
1207.75
1207.69
1207.7
1207.67
1207.66
1207.63
1207.62
1207.6
1207.58
1207.56
1207.54
1207.52
1207.51
1207.48
1207.47
1207.44
1207.45
1207.34
1207.48
1207.21
1207.58
1206.99
1207.79
1206.64
1208.1
1206.24
1208.38
1206.06
1208.16
1206.73
1206.03
1211.19
1202.83
1208.64
1206.49
1206.93
1207.19
1206.66
1207.14
1206.79
1206.85
1207.07
1206.47
1207.42
1206.03
1207.76
1205.76
1207.6
1206.43
1205.4
1210.91
1202.26
1208.1
1206.28
1206.26
1207.03
1205.98
1207
1206.07
1206.83
1206.2
1206.66
1206.3
1206.54
1206.35
1206.46
1206.37
1206.4
1206.36
1206.36
1206.34
1206.33
1206.31
1206.31
1206.29
1206.28
1206.27
1206.26
1206.25
1206.24
1206.22
1206.21
1206.2
1206.19
1206.18
1206.17
1206.15
1206.14
1206.13
1206.12
1206.1
1206.09
1206.08
1206.06
1206.05
1206.04
1206.03
1206
1206.03
1205.93
1206.08
1205.8
1206.22
1205.56
1206.51
1205.17
1206.94
1204.74
1207.07
1205.08
1204.98
1209.74
1201.82
1206.71
1205.97
1205.14
1206.37
1205.18
1206.12
1205.43
1205.89
1205.58
1205.75
1205.63
1205.68
1205.64
1205.65
1205.63
1205.63
1205.61
1205.6
1205.59
1205.58
1205.58
1205.56
1205.56
1205.55
1205.53
1205.53
1205.51
1205.5
1205.49
1205.48
1205.46
1205.44
1205.43
1205.41
1205.39
1205.37
1205.34
1205.34
1205.26
1205.36
1205.13
1205.45
1204.9
1205.66
1204.52
1206.06
1203.96
1206.6
1203.29
1207.21
1202.59
1207.67
1202.04
1207.64
1201.8
1206.89
1201.52
1204.88
1203.48
1206.46
1209.81
1210.84
1218.5
1214.48
1217.21
1217.72
1218.03
1219.75
1218.86
1219.99
1218
1219.54
1209.31
1210.38
1211.19
1213.4
1214.35
1216.26
1217
1218.32
1218.82
1219.66
1220.02
1220.6
1220.81
1221.12
1221.36
1221.54
1221.67
1221.85
1221.94
1222.05
1222.13
1222.19
1222.26
1222.32
1222.37
1222.42
1222.46
1222.52
1222.54
1222.57
1222.59
1222.62
1222.63
1222.65
1222.64
1222.64
1222.61
1222.59
1222.55
1222.49
1222.4
1222.3
1222.13
1221.95
1221.69
1221.37
1220.94
1220.42
1219.53
1218.88
1217.19
1216.81
1215.58
1216.27
1215.28
1216.34
1216.11
1219.09
1220.24
1223.62
1225.08
1229.26
1231.62
1234.93
1233.42
1233.01
1232.07
1233.82
1231.35
1229.88
1227.4
1229.34
1229.62
1230.27
1225.13
1222.8
1218.57
1225.2
1227.98
1228.24
1225.71
1220.78
1219.25
1220.17
1224.31
1227.26
1227
1224.73
1220.68
1219.09
1220.28
1224.68
1226.85
1227.65
1224.71
1221.79
1219.6
1222.23
1226.2
1231.47
1230.62
1231.41
1224.86
1225.9
1224.91
1224.77
1227.05
1226.29
1225.12
1222.72
1219.31
1218.43
1218.01
1220.88
1223.39
1227.88
1227.94
1231.06
1224.07
1226.34
1223.16
1224.15
1225.18
1222.28
1224.16
1223.04
1223.17
1224
1220.64
1222.85
1220.23
1221.06
1220.46
1220.56
1220.25
1219.98
1220.07
1218.78
1219.66
1219.17
1219.36
1219.1
1219.07
1218.86
1218.81
1218.62
1218.57
1218.38
1218.35
1218.15
1218.14
1217.94
1217.94
1217.74
1217.76
1217.53
1217.61
1217.28
1217.55
1216.97
1217.59
1216.61
1217.65
1216.3
1217.68
1216.1
1217.64
1216.11
1217.59
1216.3
1217.68
1216.56
1217.44
1216.69
1217.26
1216.76
1217.1
1216.76
1216.97
1216.71
1216.86
1216.61
1216.74
1216.49
1216.62
1216.37
1216.5
1216.25
1216.36
1216.11
1216.23
1215.98
1216.09
1215.84
1215.95
1215.7
1215.81
1215.57
1215.67
1215.43
1215.53
1215.3
1215.4
1215.17
1215.27
1215.04
1215.14
1214.92
1215.02
1214.8
1214.9
1214.68
1214.78
1214.57
1214.66
1214.46
1214.55
1214.35
1214.45
1214.25
1214.34
1214.14
1214.24
1214.04
1214.14
1213.95
1214.05
1213.85
1213.95
1213.76
1213.86
1213.66
1213.76
1213.57
1213.67
1213.48
1213.58
1213.38
1213.49
1213.29
1213.4
1213.2
1213.31
1213.1
1213.21
1213
1213.12
1212.9
1213.02
1212.79
1212.93
1212.68
1212.84
1212.56
1212.75
1212.43
1212.68
1212.27
1212.63
1212.1
1212.59
1211.91
1212.55
1211.72
1212.51
1211.54
1212.47
1211.39
1212.39
1211.27
1212.29
1211.22
1212.13
1211.25
1211.93
1211.34
1211.7
1211.44
1211.5
1211.43
1211.5
1211.09
1212.2
1209.87
1214.59
1207.43
1211.84
1209.41
1211.06
1209.98
1210.78
1210.18
1210.62
1210.27
1210.5
1210.32
1210.42
1210.35
1210.36
1210.35
1210.3
1210.34
1210.25
1210.33
1210.2
1210.31
1210.15
1210.28
1210.11
1210.25
1210.08
1210.21
1210.04
1210.16
1210
1210.11
1209.96
1210.06
1209.92
1210
1209.87
1209.93
1209.82
1209.87
1209.77
1209.79
1209.71
1209.72
1209.65
1209.64
1209.58
1209.56
1209.5
1209.47
1209.41
1209.37
1209.31
1209.27
1209.2
1209.15
1209.09
1209.04
1208.97
1208.91
1208.84
1208.79
1208.72
1208.66
1208.58
1208.52
1208.45
1208.39
1208.31
1208.27
1208.16
1208.17
1208
1208.1
1207.81
1208.05
1207.63
1207.99
1207.55
1207.9
1207.64
1207.75
1207.69
1207.7
1207.67
1207.66
1207.63
1207.62
1207.6
1207.58
1207.56
1207.54
1207.52
1207.51
1207.48
1207.47
1207.44
1207.45
1207.35
1207.47
1207.22
1207.56
1207.03
1207.73
1206.73
1207.99
1206.4
1208.19
1206.28
1207.94
1206.94
1206.17
1210.37
1203.66
1208.42
1206.48
1206.98
1207.13
1206.71
1207.09
1206.81
1206.85
1207.05
1206.52
1207.34
1206.15
1207.6
1205.96
1207.39
1206.62
1205.57
1210.06
1203.11
1207.89
1206.23
1206.34
1206.93
1206.07
1206.92
1206.13
1206.78
1206.24
1206.64
1206.32
1206.53
1206.36
1206.45
1206.37
1206.4
1206.36
1206.36
1206.34
1206.33
1206.31
1206.31
1206.29
1206.28
1206.27
1206.26
1206.25
1206.24
1206.22
1206.21
1206.2
1206.19
1206.18
1206.17
1206.15
1206.14
1206.13
1206.12
1206.1
1206.09
1206.08
1206.06
1206.05
1206.04
1206.03
1206
1206.03
1205.94
1206.07
1205.82
1206.19
1205.61
1206.44
1205.27
1206.77
1204.95
1206.8
1205.37
1205.08
1208.92
1202.62
1206.61
1205.83
1205.27
1206.25
1205.27
1206.06
1205.47
1205.86
1205.59
1205.74
1205.64
1205.68
1205.65
1205.65
1205.63
1205.63
1205.61
1205.61
1205.59
1205.59
1205.58
1205.57
1205.56
1205.55
1205.54
1205.53
1205.51
1205.5
1205.49
1205.48
1205.46
1205.44
1205.43
1205.41
1205.39
1205.37
1205.34
1205.34
1205.26
1205.35
1205.14
1205.43
1204.93
1205.61
1204.6
1205.95
1204.11
1206.41
1203.53
1206.91
1202.94
1207.28
1202.46
1207.22
1202.24
1206.57
1202.15
1205.08
1204.19
1206.86
1210.04
1211.04
1217.37
1214.39
1216.81
1217.48
1217.75
1219.51
1218.72
1219.94
1217.95
1219.44
1208.99
1210.23
1211.07
1213.38
1214.36
1216.29
1217.03
1218.35
1218.85
1219.69
1220.04
1220.61
1220.83
1221.13
1221.35
1221.55
1221.67
1221.84
1221.94
1222.05
1222.13
1222.19
1222.27
1222.33
1222.37
1222.43
1222.47
1222.52
1222.55
1222.58
1222.6
1222.63
1222.64
1222.66
1222.65
1222.65
1222.62
1222.6
1222.56
1222.5
1222.41
1222.31
1222.15
1221.96
1221.71
1221.4
1220.98
1220.49
1219.62
1219.03
1217.56
1217.22
1216.11
1216.65
1215.83
1216.84
1216.8
1219.44
1220.55
1223.64
1225.08
1228.86
1230.94
1233.78
1232.66
1232.57
1231.64
1232.87
1230.8
1229.76
1227.7
1229.11
1228.93
1229.3
1224.98
1223.39
1219.95
1225.16
1227.07
1227.21
1225.24
1221.31
1220.23
1220.93
1224.13
1226.45
1226.16
1224.36
1221.14
1220.08
1220.97
1224.47
1226.11
1226.79
1224.34
1222.23
1220.62
1222.88
1225.96
1230.36
1229.57
1230.39
1225.08
1225.99
1225.05
1224.82
1226.55
1225.76
1224.68
1222.65
1219.8
1219.13
1218.8
1221.29
1223.32
1227.23
1227.17
1229.9
1224.11
1226.2
1223.4
1224.03
1224.79
1222.4
1224.01
1223.04
1222.98
1223.63
1220.77
1222.68
1220.42
1221.07
1220.48
1220.54
1220.23
1219.98
1220.04
1218.92
1219.62
1219.19
1219.35
1219.1
1219.06
1218.87
1218.81
1218.62
1218.57
1218.39
1218.35
1218.17
1218.14
1217.95
1217.94
1217.75
1217.75
1217.54
1217.61
1217.3
1217.53
1217.01
1217.55
1216.68
1217.58
1216.39
1217.6
1216.21
1217.55
1216.21
1217.51
1216.39
1217.58
1216.62
1217.39
1216.73
1217.22
1216.78
1217.08
1216.77
1216.95
1216.72
1216.84
1216.62
1216.73
1216.5
1216.61
1216.38
1216.48
1216.26
1216.35
1216.13
1216.22
1215.99
1216.08
1215.85
1215.94
1215.72
1215.8
1215.58
1215.66
1215.44
1215.52
1215.31
1215.39
1215.18
1215.26
1215.05
1215.13
1214.93
1215.01
1214.81
1214.89
1214.69
1214.77
1214.58
1214.66
1214.47
1214.55
1214.36
1214.44
1214.26
1214.33
1214.15
1214.23
1214.05
1214.13
1213.96
1214.04
1213.86
1213.94
1213.76
1213.85
1213.67
1213.76
1213.58
1213.66
1213.49
1213.57
1213.39
1213.48
1213.3
1213.39
1213.21
1213.3
1213.11
1213.2
1213.01
1213.11
1212.91
1213.01
1212.81
1212.92
1212.69
1212.82
1212.57
1212.74
1212.44
1212.66
1212.3
1212.6
1212.13
1212.55
1211.95
1212.51
1211.77
1212.46
1211.6
1212.41
1211.45
1212.33
1211.34
1212.22
1211.29
1212.08
1211.3
1211.89
1211.37
1211.68
1211.45
1211.51
1211.42
1211.51
1211.08
1212.14
1209.99
1214.06
1207.96
1211.7
1209.52
1211
1210.03
1210.75
1210.21
1210.6
1210.29
1210.49
1210.34
1210.41
1210.35
1210.36
1210.35
1210.31
1210.34
1210.25
1210.32
1210.2
1210.3
1210.16
1210.27
1210.12
1210.24
1210.09
1210.2
1210.05
1210.15
1210.01
1210.1
1209.97
1210.05
1209.93
1209.99
1209.88
1209.93
1209.83
1209.86
1209.77
1209.79
1209.72
1209.72
1209.65
1209.64
1209.58
1209.56
1209.5
1209.47
1209.41
1209.37
1209.31
1209.26
1209.2
1209.15
1209.09
1209.04
1208.97
1208.91
1208.84
1208.79
1208.71
1208.66
1208.58
1208.52
1208.45
1208.39
1208.31
1208.27
1208.17
1208.17
1208.01
1208.09
1207.83
1208.04
1207.66
1207.97
1207.58
1207.88
1207.65
1207.75
1207.7
1207.7
1207.67
1207.66
1207.63
1207.62
1207.6
1207.58
1207.56
1207.54
1207.52
1207.51
1207.48
1207.47
1207.44
1207.45
1207.35
1207.46
1207.24
1207.54
1207.06
1207.69
1206.79
1207.9
1206.51
1208.06
1206.42
1207.8
1207.05
1206.24
1209.88
1204.19
1208.21
1206.51
1207
1207.09
1206.75
1207.06
1206.83
1206.84
1207.03
1206.55
1207.28
1206.23
1207.48
1206.09
1207.26
1206.71
1205.66
1209.55
1203.67
1207.69
1206.23
1206.39
1206.86
1206.13
1206.87
1206.18
1206.74
1206.27
1206.62
1206.33
1206.52
1206.37
1206.44
1206.38
1206.4
1206.36
1206.36
1206.34
1206.33
1206.31
1206.31
1206.29
1206.28
1206.27
1206.26
1206.25
1206.24
1206.22
1206.21
1206.2
1206.19
1206.18
1206.17
1206.15
1206.14
1206.13
1206.12
1206.1
1206.09
1206.08
1206.06
1206.05
1206.04
1206.03
1206.01
1206.02
1205.94
1206.06
1205.83
1206.17
1205.64
1206.38
1205.35
1206.66
1205.09
1206.64
1205.51
1205.13
1208.44
1203.13
1206.47
1205.77
1205.36
1206.17
1205.33
1206.02
1205.5
1205.84
1205.6
1205.73
1205.64
1205.68
1205.65
1205.65
1205.63
1205.63
1205.61
1205.61
1205.59
1205.59
1205.58
1205.57
1205.56
1205.55
1205.54
1205.53
1205.51
1205.5
1205.49
1205.48
1205.46
1205.44
1205.43
1205.41
1205.39
1205.37
1205.34
1205.34
1205.26
1205.35
1205.15
1205.41
1204.96
1205.57
1204.65
1205.87
1204.22
1206.27
1203.7
1206.7
1203.18
1207.01
1202.76
1206.95
1202.59
1206.37
1202.59
1205.06
1204.64
1206.85
1209.78
1210.73
1216.31
1214.2
1216.25
1217.09
1217.24
1219.12
1218.34
1219.81
1217.9
1219.65
1208.56
1210.04
1210.92
1213.35
1214.36
1216.33
1217.07
1218.41
1218.9
1219.74
1220.08
1220.63
1220.86
1221.16
1221.37
1221.56
1221.69
1221.86
1221.95
1222.06
1222.14
1222.2
1222.27
1222.33
1222.38
1222.43
1222.47
1222.52
1222.55
1222.58
1222.61
1222.63
1222.64
1222.66
1222.65
1222.65
1222.63
1222.61
1222.56
1222.51
1222.42
1222.32
1222.17
1221.99
1221.74
1221.44
1221.03
1220.54
1219.78
1219.18
1217.93
1217.59
1216.62
1217.03
1216.37
1217.31
1217.42
1219.75
1220.85
1223.63
1225.07
1228.46
1230.33
1232.77
1231.96
1232.06
1231.21
1232.06
1230.33
1229.57
1227.83
1228.84
1228.37
1228.5
1224.89
1223.78
1221.09
1225.08
1226.34
1226.4
1224.88
1221.74
1220.98
1221.51
1223.99
1225.77
1225.49
1224.06
1221.53
1220.81
1221.52
1224.27
1225.52
1226.08
1224.09
1222.56
1221.42
1223.34
1225.75
1229.38
1228.71
1229.49
1225.27
1225.98
1225.07
1224.83
1226.09
1225.32
1224.33
1222.59
1220.24
1219.71
1219.45
1221.6
1223.27
1226.65
1226.54
1228.88
1224.22
1225.97
1223.52
1223.91
1224.45
1222.55
1223.83
1222.98
1222.82
1223.32
1220.96
1222.5
1220.55
1221.06
1220.49
1220.5
1220.22
1219.97
1219.99
1219.07
1219.61
1219.22
1219.34
1219.11
1219.06
1218.88
1218.81
1218.63
1218.57
1218.4
1218.35
1218.18
1218.14
1217.97
1217.94
1217.76
1217.75
1217.56
1217.6
1217.32
1217.52
1217.05
1217.51
1216.75
1217.52
1216.49
1217.52
1216.33
1217.48
1216.33
1217.44
1216.47
1217.49
1216.66
1217.33
1216.76
1217.18
1216.8
1217.05
1216.78
1216.93
1216.72
1216.83
1216.63
1216.71
1216.52
1216.59
1216.39
1216.47
1216.27
1216.34
1216.14
1216.2
1216
1216.07
1215.87
1215.93
1215.73
1215.79
1215.59
1215.65
1215.46
1215.51
1215.32
1215.38
1215.19
1215.25
1215.07
1215.12
1214.94
1215
1214.82
1214.88
1214.7
1214.76
1214.59
1214.65
1214.48
1214.54
1214.37
1214.43
1214.27
1214.33
1214.16
1214.22
1214.06
1214.13
1213.97
1214.03
1213.87
1213.93
1213.77
1213.84
1213.68
1213.75
1213.59
1213.65
1213.5
1213.56
1213.4
1213.47
1213.31
1213.38
1213.22
1213.29
1213.12
1213.19
1213.02
1213.1
1212.92
1213
1212.82
1212.9
1212.71
1212.81
1212.59
1212.72
1212.46
1212.64
1212.32
1212.58
1212.16
1212.52
1211.99
1212.47
1211.82
1212.41
1211.66
1212.35
1211.52
1212.27
1211.41
1212.16
1211.35
1212.02
1211.35
1211.85
1211.4
1211.66
1211.45
1211.51
1211.4
1211.53
1211.08
1212.06
1210.12
1213.5
1208.46
1211.61
1209.66
1210.96
1210.09
1210.72
1210.24
1210.58
1210.31
1210.48
1210.35
1210.41
1210.36
1210.36
1210.35
1210.31
1210.33
1210.26
1210.31
1210.21
1210.29
1210.17
1210.26
1210.13
1210.23
1210.1
1210.19
1210.06
1210.14
1210.02
1210.09
1209.98
1210.04
1209.93
1209.98
1209.88
1209.92
1209.83
1209.85
1209.78
1209.79
1209.72
1209.71
1209.65
1209.64
1209.58
1209.55
1209.5
1209.46
1209.41
1209.37
1209.31
1209.26
1209.2
1209.15
1209.09
1209.03
1208.97
1208.91
1208.84
1208.78
1208.71
1208.66
1208.58
1208.52
1208.45
1208.39
1208.31
1208.27
1208.17
1208.17
1208.02
1208.09
1207.85
1208.02
1207.69
1207.95
1207.62
1207.87
1207.67
1207.75
1207.7
1207.7
1207.67
1207.66
1207.64
1207.62
1207.6
1207.58
1207.56
1207.55
1207.52
1207.51
1207.48
1207.47
1207.44
1207.44
1207.36
1207.46
1207.25
1207.52
1207.09
1207.64
1206.86
1207.81
1206.62
1207.92
1206.57
1207.66
1207.15
1206.35
1209.36
1204.72
1208.05
1206.54
1207.02
1207.05
1206.79
1207.03
1206.85
1206.84
1207.01
1206.59
1207.22
1206.32
1207.37
1206.22
1207.13
1206.8
1205.8
1209.01
1204.21
1207.54
1206.23
1206.44
1206.8
1206.2
1206.81
1206.23
1206.71
1206.3
1206.59
1206.35
1206.51
1206.38
1206.44
1206.38
1206.4
1206.36
1206.36
1206.34
1206.33
1206.31
1206.31
1206.29
1206.28
1206.27
1206.26
1206.25
1206.24
1206.23
1206.21
1206.2
1206.19
1206.18
1206.17
1206.16
1206.14
1206.13
1206.12
1206.1
1206.09
1206.08
1206.07
1206.05
1206.04
1206.03
1206.01
1206.02
1205.95
1206.05
1205.85
1206.15
1205.68
1206.32
1205.43
1206.54
1205.23
1206.47
1205.65
1205.22
1207.93
1203.64
1206.39
1205.71
1205.44
1206.09
1205.39
1205.97
1205.53
1205.82
1205.62
1205.73
1205.65
1205.68
1205.65
1205.65
1205.63
1205.63
1205.61
1205.61
1205.59
1205.59
1205.58
1205.57
1205.56
1205.55
1205.54
1205.53
1205.51
1205.5
1205.49
1205.48
1205.46
1205.45
1205.43
1205.41
1205.39
1205.37
1205.34
1205.34
1205.27
1205.34
1205.16
1205.39
1204.98
1205.53
1204.71
1205.78
1204.33
1206.12
1203.89
1206.48
1203.43
1206.73
1203.08
1206.66
1202.94
1206.17
1203.05
1205.19
1205.13
1207.01
1209.84
1210.55
1215.47
1213.97
1215.66
1216.62
1216.63
1218.54
1217.87
1219.52
1217.95
1219.88
1208.05
1209.83
1210.77
1213.36
1214.4
1216.41
1217.14
1218.47
1218.95
1219.78
1220.12
1220.65
1220.88
1221.18
1221.38
1221.57
1221.7
1221.86
1221.96
1222.06
1222.14
1222.21
1222.28
1222.34
1222.39
1222.44
1222.48
1222.53
1222.56
1222.59
1222.61
1222.64
1222.65
1222.67
1222.66
1222.66
1222.64
1222.62
1222.58
1222.52
1222.43
1222.34
1222.19
1222.02
1221.77
1221.48
1221.09
1220.62
1219.92
1219.35
1218.28
1217.95
1217.1
1217.41
1216.88
1217.76
1217.97
1220.05
1221.11
1223.63
1225.04
1228.08
1229.75
1231.89
1231.32
1231.52
1230.77
1231.34
1229.89
1229.33
1227.85
1228.54
1227.89
1227.86
1224.84
1224.09
1221.91
1224.96
1225.78
1225.77
1224.56
1222.12
1221.55
1221.96
1223.87
1225.21
1224.98
1223.83
1221.87
1221.38
1221.93
1224.1
1225.05
1225.51
1223.91
1222.83
1222.02
1223.66
1225.55
1228.56
1227.98
1228.71
1225.33
1225.89
1225.07
1224.81
1225.69
1224.95
1224.04
1222.57
1220.6
1220.19
1219.99
1221.85
1223.22
1226.14
1225.99
1228.04
1224.21
1225.71
1223.6
1223.81
1224.18
1222.61
1223.64
1222.92
1222.68
1223.07
1221.07
1222.32
1220.66
1221.05
1220.51
1220.48
1220.21
1219.97
1219.96
1219.19
1219.59
1219.24
1219.32
1219.11
1219.05
1218.88
1218.81
1218.64
1218.57
1218.41
1218.35
1218.19
1218.14
1217.98
1217.93
1217.78
1217.75
1217.57
1217.6
1217.34
1217.5
1217.08
1217.47
1216.81
1217.47
1216.57
1217.45
1216.43
1217.41
1216.42
1217.37
1216.54
1217.42
1216.71
1217.28
1216.79
1217.15
1216.81
1217.03
1216.79
1216.92
1216.73
1216.81
1216.63
1216.7
1216.52
1216.58
1216.4
1216.46
1216.28
1216.33
1216.15
1216.19
1216.01
1216.06
1215.88
1215.92
1215.74
1215.78
1215.6
1215.64
1215.47
1215.5
1215.33
1215.37
1215.2
1215.24
1215.08
1215.11
1214.95
1214.99
1214.83
1214.87
1214.71
1214.75
1214.6
1214.64
1214.49
1214.53
1214.38
1214.42
1214.27
1214.32
1214.17
1214.22
1214.07
1214.12
1213.97
1214.02
1213.88
1213.93
1213.78
1213.83
1213.69
1213.74
1213.6
1213.65
1213.5
1213.56
1213.41
1213.46
1213.32
1213.37
1213.23
1213.28
1213.13
1213.19
1213.03
1213.09
1212.93
1212.99
1212.83
1212.9
1212.72
1212.8
1212.6
1212.71
1212.47
1212.63
1212.33
1212.56
1212.18
1212.49
1212.02
1212.43
1211.86
1212.37
1211.71
1212.3
1211.57
1212.21
1211.47
1212.11
1211.41
1211.98
1211.39
1211.82
1211.42
1211.65
1211.45
1211.51
1211.39
1211.53
1211.08
1211.99
1210.23
1213.09
1208.86
1211.5
1209.77
1210.91
1210.14
1210.69
1210.27
1210.56
1210.33
1210.47
1210.36
1210.41
1210.36
1210.36
1210.35
1210.31
1210.33
1210.26
1210.31
1210.22
1210.28
1210.18
1210.25
1210.14
1210.22
1210.1
1210.18
1210.07
1210.13
1210.03
1210.08
1209.98
1210.03
1209.94
1209.97
1209.89
1209.91
1209.84
1209.85
1209.78
1209.78
1209.72
1209.71
1209.65
1209.63
1209.58
1209.55
1209.5
1209.46
1209.41
1209.37
1209.31
1209.26
1209.2
1209.15
1209.08
1209.03
1208.96
1208.91
1208.84
1208.78
1208.71
1208.65
1208.58
1208.52
1208.45
1208.39
1208.31
1208.27
1208.17
1208.16
1208.02
1208.08
1207.87
1208.01
1207.72
1207.94
1207.65
1207.85
1207.68
1207.75
1207.7
1207.7
1207.67
1207.66
1207.64
1207.62
1207.6
1207.58
1207.56
1207.55
1207.52
1207.51
1207.48
1207.47
1207.44
1207.44
1207.37
1207.45
1207.26
1207.5
1207.12
1207.6
1206.91
1207.74