/*--------------------------------*- C++ -*----------------------------------*\
| =========                 |                                                 |
| \\      /  F ield         | foam-extend: Open Source CFD                    |
|  \\    /   O peration     | Version:     3.2                                |
|   \\  /    A nd           | Web:         http://www.foam-extend.org         |
|    \\/     M anipulation  | For copyright notice see file Copyright         |
\*---------------------------------------------------------------------------*/
FoamFile
{
    version     2.0;
    format      ascii;
    class       areaScalarField;
    location    "2020";
    object      Pef;
}
// * * * * * * * * * * * * * * * * * * * * * * * * * * * * * * * * * * * * * //

dimensions      [0 0 0 0 0 0 0];

internalField   nonuniform List<scalar> 
550
(
0
0
0
4.84034e-08
0.029651
0.0614981
0.0942912
0.126668
0.15743
0.18549
0.210154
0.230706
0.247337
0.260217
0.269131
0.274808
0.27777
0.278114
0.276464
0.27346
0.269318
0.2644
0.2588
0.25276
0.246514
0.240134
0.233761
0.227489
0.221431
0.21564
0.210044
0.204717
0.199609
0.194774
0.190206
0.185913
0.181884
0.178101
0.174513
0.171199
0.168066
0.165132
0.162406
0.159861
0.157454
0.155233
0.15315
0.150994
0.149539
0.147374
0.146307
0.14436
0.14386
0.141441
0.141302
0.139051
0.139069
0.136991
0.12278
0.135032
0.135286
0.133304
0.133722
0.104144
0.103219
0.130435
0.13095
0.129185
0.0943837
0.127904
0.128351
0.126624
0.119218
0.106958
0.103347
0.110257
0.132361
0.125073
0.105814
0.0941398
0.100834
0.105303
0.120665
0.120954
0.119802
0.100202
0.0984464
0.100787
0.0995788
0.118181
0.118286
0.116961
0.0960619
0.094339
0.0991768
0.0950464
0.11612
0.115842
0.114772
0.103321
0.096545
0.0911782
0.0946735
0.114693
0.110562
0.113592
0.109612
0.101433
0.093806
0.10332
0.10278
0.112454
0.112825
0.112829
0.112609
0.101845
0.102776
0.101851
0.0786379
0.107417
0.107593
0.107263
0.105912
0.100224
0.107658
0.106781
0.107742
0.106234
0.0997395
0.107569
0.107172
0.106525
0.106459
0.106038
0.106576
0.106019
0.107488
0.106986
0.106731
0.106814
0.10683
0.107067
0.107151
0.10738
0.107442
0.107665
0.107694
0.107902
0.107891
0.108084
0.108031
0.108216
0.108123
0.108294
0.108161
0.108323
0.108139
0.108323
0.107997
0.108348
0.107616
0.108581
0.107333
0.108894
0.107135
0.109117
0.107028
0.108941
0.107079
0.10876
0.107087
0.107755
0.106325
0.106649
0.105515
0.105608
0.104765
0.104712
0.1041
0.104041
0.103562
0.103606
0.103215
0.10333
0.103003
0.103166
0.102885
0.103082
0.102835
0.103053
0.102831
0.103063
0.102859
0.103099
0.102907
0.103149
0.102966
0.103208
0.10303
0.103268
0.103093
0.103327
0.103154
0.103382
0.103209
0.10343
0.103257
0.103471
0.103296
0.103503
0.103327
0.103527
0.103349
0.103543
0.103364
0.103552
0.103373
0.103557
0.103379
0.10356
0.103384
0.103564
0.10339
0.103571
0.103401
0.103585
0.103419
0.103606
0.103446
0.103638
0.103482
0.103681
0.103529
0.103735
0.103587
0.103801
0.103657
0.103879
0.10374
0.103969
0.103834
0.104071
0.103939
0.104186
0.104058
0.104313
0.104185
0.104447
0.104316
0.104586
0.104448
0.104729
0.104578
0.10488
0.1047
0.105046
0.104805
0.105239
0.104893
0.105476
0.104974
0.105761
0.105072
0.106073
0.105185
0.106389
0.105309
0.106677
0.105442
0.106894
0.105582
0.106992
0.105725
0.106916
0.105869
0.106617
0.106006
0.106074
0.106122
0.105561
0.106555
0.105095
0.106959
0.104806
0.108086
0.109119
0.107368
0.108526
0.107077
0.107846
0.106796
0.107274
0.106557
0.106812
0.106354
0.106439
0.106177
0.106132
0.106015
0.10588
0.105863
0.105666
0.105718
0.10548
0.105577
0.105316
0.10544
0.105169
0.105307
0.105037
0.10518
0.104919
0.10506
0.104815
0.104949
0.104723
0.104848
0.104646
0.104758
0.104583
0.104682
0.104534
0.104619
0.104498
0.104568
0.104471
0.104526
0.104451
0.104488
0.104434
0.104453
0.104415
0.104422
0.104415
0.104447
0.104459
0.10451
0.104535
0.104601
0.104636
0.104711
0.104753
0.104836
0.104884
0.104973
0.105024
0.105116
0.105169
0.105262
0.105317
0.105409
0.105464
0.105554
0.105594
0.105688
0.105686
0.105821
0.10571
0.10599
0.105638
0.106239
0.105673
0.106373
0.105404
0.105336
0.10492
0.104497
0.104045
0.103621
0.103179
0.102761
0.102339
0.10193
0.101521
0.101126
0.10073
0.100354
0.0999672
0.0995978
0.0992283
0.0988431
0.0985097
0.0981953
0.0978027
0.0975694
0.0970101
0.0970561
0.0960618
0.096775
0.0948645
0.0967746
0.0933321
0.0968182
0.0914439
0.0989802
0.0954091
0.103769
0.0989221
0.0911973
0.0892261
0.0899215
0.0881297
0.0890242
0.087791
0.0883379
0.0878772
0.0877493
0.0881242
0.0870678
0.08869
0.0859094
0.0895215
0.0843991
0.0920705
0.0895607
0.0987051
0.09342
0.085672
0.0829463
0.0845115
0.0821543
0.0837399
0.0820729
0.0832393
0.0822233
0.0829672
0.0824129
0.0828371
0.0825485
0.0827709
0.0826357
0.0827252
0.0826543
0.0826729
0.0826262
0.0826016
0.0825547
0.0825117
0.082443
0.0823727
0.0822905
0.0821988
0.0821026
0.081996
0.081888
0.0817706
0.0816425
0.0815085
0.081375
0.0812349
0.0810894
0.0809331
0.0807693
0.0806107
0.0804389
0.0802647
0.0800971
0.079921
0.07974
0.0795613
0.079369
0.0792064
0.079014
0.0788542
0.0786673
0.0784652
0.0783729
0.0779624
0.0782129
0.0771547
0.0783563
0.0755764
0.0791446
0.0728273
0.082603
0.0790688
0.0923111
0.0821426
0.076108
0.0708055
0.0736667
0.0704444
0.0719609
0.0703114
0.0708579
0.0701122
0.0702065
0.0698878
0.0698224
0.0696123
0.0694642
0.0692804
0.0691053
0.0689063
0.068705
0.0684909
0.0682457
0.0679968
0.0677259
0.0674485
0.0671494
0.066836
0.0665184
0.066175
0.0658282
0.065451
0.0650745
0.0646968
0.0642977
0.0639005
0.0634815
0.0630632
0.0626457
0.0622169
0.0617761
0.0613374
0.0609129
0.0604113
0.0600789
0.0593497
0.0593557
0.0580706
0.0588141
0.0563413
0.0584676
0.0542527
0.0581555
0.0517719
0.0578105
0.0493901
0.0574891
0.0486021
0.0575748
0.0508332
0.065748
0.0677783
0.0811616
0.0832758
0.0967635
0.0953519
2.24551e-06
7.14228e-07
1.54323e-07
4.35556e-07
0
0
0
0
0
0
)
;

boundaryField
{
    inlet
    {
        type            calculated;
        value           uniform 0;
    }
    endWall
    {
        type            calculated;
        value           uniform 0;
    }
    sideWall
    {
        type            empty;
    }
}


// ************************************************************************* //
