/*--------------------------------*- C++ -*----------------------------------*\
| =========                 |                                                 |
| \\      /  F ield         | foam-extend: Open Source CFD                    |
|  \\    /   O peration     | Version:     3.2                                |
|   \\  /    A nd           | Web:         http://www.foam-extend.org         |
|    \\/     M anipulation  | For copyright notice see file Copyright         |
\*---------------------------------------------------------------------------*/
FoamFile
{
    version     2.0;
    format      ascii;
    class       surfaceScalarField;
    location    "2020";
    object      phi;
}
// * * * * * * * * * * * * * * * * * * * * * * * * * * * * * * * * * * * * * //

dimensions      [0 3 -1 0 0 0 0];

internalField   nonuniform List<scalar> 
65390
(
3.74932e-05
5.06808e-07
3.69671e-05
5.26104e-07
3.6286e-05
6.81054e-07
3.55963e-05
6.8974e-07
3.48696e-05
7.26732e-07
3.41861e-05
6.83436e-07
3.35099e-05
6.7621e-07
3.28791e-05
6.30792e-07
3.22642e-05
6.14953e-07
3.16701e-05
5.94119e-07
3.10977e-05
5.7234e-07
3.05682e-05
5.29535e-07
3.00495e-05
5.18716e-07
2.95527e-05
4.96791e-07
2.90803e-05
4.72385e-07
2.86249e-05
4.55345e-07
2.81858e-05
4.39093e-07
2.77679e-05
4.17995e-07
2.7369e-05
3.98886e-07
2.69909e-05
3.78056e-07
2.6626e-05
3.64957e-07
2.62748e-05
3.51131e-07
2.59406e-05
3.3419e-07
2.56219e-05
3.18741e-07
2.532e-05
3.01938e-07
2.50319e-05
2.88088e-07
2.47613e-05
2.70538e-07
2.45083e-05
2.53008e-07
2.42682e-05
2.40135e-07
2.40412e-05
2.27021e-07
2.38237e-05
2.17458e-07
2.36178e-05
2.05933e-07
2.34241e-05
1.93633e-07
2.32419e-05
1.82207e-07
2.30711e-05
1.70807e-07
2.29096e-05
1.61568e-07
2.27546e-05
1.54985e-07
2.26105e-05
1.44028e-07
2.24743e-05
1.36291e-07
2.23436e-05
1.3063e-07
2.22223e-05
1.21326e-07
2.21088e-05
1.13506e-07
2.1999e-05
1.09765e-07
2.18968e-05
1.02219e-07
2.18013e-05
9.5481e-08
2.1712e-05
8.93428e-08
2.16411e-05
7.08445e-08
2.15462e-05
9.49279e-08
2.15042e-05
4.19466e-08
2.14301e-05
7.67536e-08
2.13802e-05
4.98357e-08
2.12783e-05
9.88884e-08
2.12397e-05
3.86022e-08
2.11655e-05
7.43141e-08
2.11222e-05
4.5546e-08
2.10372e-05
8.07618e-08
2.10016e-05
3.10626e-08
2.09547e-05
5.99095e-08
2.09296e-05
2.91846e-08
2.08209e-05
9.55977e-08
2.07701e-05
4.11572e-08
2.07011e-05
6.17731e-08
2.07342e-05
-1.93516e-08
2.07419e-05
2.39867e-08
2.07025e-05
3.51207e-08
2.05277e-05
1.37102e-07
2.04855e-05
3.66164e-08
2.04896e-05
2.15509e-08
2.05041e-05
-6.46184e-09
2.04156e-05
7.99891e-08
2.03677e-05
3.7633e-08
2.03091e-05
5.53233e-08
2.03331e-05
-1.31407e-08
2.02578e-05
9.17187e-08
2.04436e-05
-1.83721e-07
2.04067e-05
1.28704e-08
1.9944e-05
4.43955e-07
1.96853e-05
2.75687e-07
1.98282e-05
-1.17948e-07
1.98211e-05
1.16848e-08
1.97349e-05
7.98819e-08
1.96363e-05
8.78875e-08
1.9522e-05
1.00732e-07
1.9464e-05
5.37075e-08
1.95107e-05
-3.41153e-08
1.9581e-05
-5.67116e-08
1.95953e-05
-1.29235e-08
1.95885e-05
7.67324e-09
1.95888e-05
-7.31396e-09
1.9495e-05
7.63246e-08
1.94862e-05
3.62473e-09
1.95501e-05
-4.93662e-08
1.96299e-05
-6.55681e-08
1.96433e-05
-1.36714e-08
1.96631e-05
-1.87175e-08
1.96126e-05
4.46514e-08
1.95738e-05
2.26505e-08
1.95163e-05
5.35827e-08
1.96678e-05
-1.44632e-07
1.97826e-05
-1.05695e-07
2.00306e-05
-2.38342e-07
1.99928e-05
4.21321e-08
1.94689e-05
5.11609e-07
1.92089e-05
2.47995e-07
1.94345e-05
-2.24737e-07
1.95582e-05
-1.25264e-07
1.97424e-05
-1.79386e-07
1.98481e-05
-9.40808e-08
1.98454e-05
3.29881e-09
1.98362e-05
4.57876e-09
1.98184e-05
1.3947e-08
1.97947e-05
1.94682e-08
1.98261e-05
-3.33835e-08
1.97861e-05
3.84359e-08
1.98457e-05
-5.49183e-08
1.98012e-05
4.52049e-08
2.00643e-05
-2.66721e-07
2.00267e-05
5.3675e-08
1.96132e-05
4.14989e-07
1.94371e-05
1.5372e-07
1.97162e-05
-2.83522e-07
2.00369e-05
-3.14137e-07
2.01313e-05
-8.84292e-08
1.98611e-05
2.71105e-07
1.97278e-05
1.26769e-07
1.9931e-05
-2.06304e-07
2.02535e-05
-3.21737e-07
2.02109e-05
4.90455e-08
1.98406e-05
3.71815e-07
1.96487e-05
1.8477e-07
1.98034e-05
-1.55735e-07
1.9835e-05
-2.93661e-08
1.99434e-05
-1.08385e-07
2.00539e-05
-1.10506e-07
2.01469e-05
-9.30686e-08
2.03813e-05
-2.34335e-07
2.05497e-05
-1.6839e-07
2.05091e-05
4.05262e-08
2.03873e-05
1.21834e-07
2.03811e-05
6.1964e-09
2.03904e-05
-9.29656e-09
2.04238e-05
-3.33963e-08
2.0449e-05
-2.52231e-08
2.04742e-05
-2.52015e-08
2.04919e-05
-1.76528e-08
2.05123e-05
-2.04289e-08
2.05242e-05
-1.18348e-08
2.05388e-05
-1.46049e-08
2.05456e-05
-6.86519e-09
2.05552e-05
-9.56442e-09
2.05586e-05
-3.43242e-09
2.05649e-05
-6.26926e-09
2.0564e-05
8.53406e-10
2.0568e-05
-3.99252e-09
2.05627e-05
5.29328e-09
2.05666e-05
-3.88208e-09
2.05549e-05
1.17042e-08
2.05601e-05
-5.17746e-09
2.05347e-05
2.5388e-08
2.05434e-05
-8.74294e-09
2.05096e-05
3.38314e-08
2.05199e-05
-1.02995e-08
2.04729e-05
4.69819e-08
2.04838e-05
-1.0855e-08
2.04252e-05
5.86147e-08
2.04224e-05
2.77369e-09
2.03434e-05
7.9039e-08
2.03202e-05
2.31151e-08
2.0174e-05
1.462e-07
2.00834e-05
9.06503e-08
2.00141e-05
6.93382e-08
2.00201e-05
-6.09419e-09
1.99821e-05
3.80386e-08
1.99797e-05
2.41458e-09
1.99526e-05
2.70736e-08
1.995e-05
2.59936e-09
1.99322e-05
1.78477e-08
1.99334e-05
-1.25848e-09
1.99242e-05
9.21537e-09
1.99303e-05
-6.03979e-09
1.99282e-05
2.07804e-09
1.9937e-05
-8.83349e-09
1.99371e-05
-7.22369e-11
1.99476e-05
-1.04773e-08
1.99489e-05
-1.30896e-09
1.99602e-05
-1.13401e-08
1.99622e-05
-1.98871e-09
1.9974e-05
-1.17929e-08
1.99765e-05
-2.50388e-09
1.99886e-05
-1.21468e-08
1.99913e-05
-2.64401e-09
2.00036e-05
-1.22981e-08
2.00062e-05
-2.65791e-09
2.00183e-05
-1.20881e-08
2.00208e-05
-2.44296e-09
2.00323e-05
-1.15587e-08
2.00343e-05
-1.936e-09
2.00451e-05
-1.07846e-08
2.00465e-05
-1.40228e-09
2.00565e-05
-1.00313e-08
2.00573e-05
-7.99422e-10
2.00665e-05
-9.22911e-09
2.00666e-05
-9.05185e-11
2.00751e-05
-8.44748e-09
2.00746e-05
4.37545e-10
2.00823e-05
-7.68885e-09
2.00813e-05
1.03288e-09
2.00883e-05
-6.99782e-09
2.00868e-05
1.48314e-09
2.00931e-05
-6.33758e-09
2.00911e-05
2.05078e-09
2.00969e-05
-5.80298e-09
2.00944e-05
2.51162e-09
2.00995e-05
-5.16134e-09
2.00967e-05
2.83365e-09
2.01015e-05
-4.79472e-09
2.00983e-05
3.1882e-09
2.01027e-05
-4.39315e-09
2.00994e-05
3.28484e-09
2.01035e-05
-4.14007e-09
2.01002e-05
3.30021e-09
2.01045e-05
-4.2609e-09
2.01014e-05
3.10696e-09
2.01059e-05
-4.46235e-09
2.01031e-05
2.75919e-09
2.01081e-05
-4.99195e-09
2.01059e-05
2.2094e-09
2.01114e-05
-5.51605e-09
2.01097e-05
1.6941e-09
2.01157e-05
-5.98322e-09
2.01145e-05
1.24019e-09
2.0121e-05
-6.51014e-09
2.01202e-05
8.08406e-10
2.01271e-05
-6.92066e-09
2.01268e-05
2.42678e-10
2.01344e-05
-7.54243e-09
2.01346e-05
-2.40236e-10
2.01427e-05
-8.11069e-09
2.01434e-05
-6.72653e-10
2.01522e-05
-8.82938e-09
2.01536e-05
-1.36674e-09
2.01631e-05
-9.50876e-09
2.01653e-05
-2.18663e-09
2.01756e-05
-1.03109e-08
2.01783e-05
-2.67e-09
2.01893e-05
-1.10534e-08
2.01921e-05
-2.81837e-09
2.02036e-05
-1.14673e-08
2.02064e-05
-2.82101e-09
2.02184e-05
-1.19883e-08
2.02208e-05
-2.40335e-09
2.02335e-05
-1.26367e-08
2.02351e-05
-1.58654e-09
2.02487e-05
-1.36437e-08
2.02491e-05
-4.12006e-10
2.02648e-05
-1.56579e-08
2.02637e-05
1.10229e-09
2.02821e-05
-1.84011e-08
2.02791e-05
2.97043e-09
2.03009e-05
-2.18383e-08
2.02948e-05
6.16752e-09
2.03201e-05
-2.52886e-08
2.03098e-05
1.02314e-08
2.03377e-05
-2.78685e-08
2.03231e-05
1.45517e-08
2.03523e-05
-2.92113e-08
2.03337e-05
1.86727e-08
2.03623e-05
-2.86777e-08
2.03405e-05
2.18143e-08
2.0366e-05
-2.5505e-08
2.03429e-05
2.3154e-08
2.03623e-05
-1.94571e-08
2.03405e-05
2.18815e-08
2.03508e-05
-1.03682e-08
2.03331e-05
1.77005e-08
2.03337e-05
-5.60662e-10
2.03234e-05
1.02697e-08
2.03214e-05
2.02558e-09
2.03219e-05
-4.8858e-10
2.03195e-05
2.35296e-09
2.0281e-05
3.84971e-08
2.02706e-05
1.04252e-08
1.98594e-05
4.11172e-07
2.00299e-05
-1.70463e-07
2.05956e-05
-5.65739e-07
2.08016e-05
-2.05979e-07
2.04572e-05
3.444e-07
2.04166e-05
4.0584e-08
2.03454e-05
7.12148e-08
2.03377e-05
7.66794e-09
2.03041e-05
3.36268e-08
2.02996e-05
4.50602e-09
2.02783e-05
2.12951e-08
2.02734e-05
4.94239e-09
2.0258e-05
1.53623e-08
2.02521e-05
5.94892e-09
2.0239e-05
1.30239e-08
2.02311e-05
7.95775e-09
2.02267e-05
4.35837e-09
2.02177e-05
9.02791e-09
2.02157e-05
2.03907e-09
2.0207e-05
8.62506e-09
2.02056e-05
1.42539e-09
2.01976e-05
8.03853e-09
2.01975e-05
9.92103e-11
2.01897e-05
7.77394e-09
2.01904e-05
-6.60696e-10
2.01831e-05
7.28292e-09
2.01849e-05
-1.7821e-09
2.01784e-05
6.44353e-09
2.01807e-05
-2.25787e-09
2.01754e-05
5.25063e-09
2.0178e-05
-2.61407e-09
2.01735e-05
4.49213e-09
2.01767e-05
-3.18287e-09
2.01738e-05
2.91888e-09
2.01774e-05
-3.55977e-09
2.01754e-05
1.93794e-09
2.01796e-05
-4.20008e-09
2.01787e-05
9.84072e-10
2.0183e-05
-4.33769e-09
2.01831e-05
-7.17307e-11
2.01881e-05
-5.00548e-09
2.01892e-05
-1.09636e-09
2.01943e-05
-5.09152e-09
2.01962e-05
-1.90136e-09
2.02014e-05
-5.21683e-09
2.02045e-05
-3.11221e-09
2.021e-05
-5.50239e-09
2.02132e-05
-3.22663e-09
2.02196e-05
-6.36754e-09
2.02256e-05
-5.98989e-09
2.02347e-05
-9.13516e-09
2.02428e-05
-8.10174e-09
2.02529e-05
-1.01016e-08
2.02624e-05
-9.45688e-09
2.02731e-05
-1.07694e-08
2.02831e-05
-9.99958e-09
2.02949e-05
-1.18183e-08
2.03055e-05
-1.05982e-08
2.03179e-05
-1.23871e-08
2.03291e-05
-1.11534e-08
2.0342e-05
-1.29035e-08
2.03538e-05
-1.18654e-08
2.03671e-05
-1.32383e-08
2.03788e-05
-1.17104e-08
2.03919e-05
-1.3057e-08
2.04037e-05
-1.1873e-08
2.04172e-05
-1.34571e-08
2.0429e-05
-1.17845e-08
2.04429e-05
-1.39526e-08
2.04524e-05
-9.52786e-09
2.0466e-05
-1.35251e-08
2.04726e-05
-6.66082e-09
2.04855e-05
-1.28363e-08
2.04903e-05
-4.82895e-09
2.05036e-05
-1.32533e-08
2.05037e-05
-1.66263e-10
2.05183e-05
-1.46034e-08
2.05156e-05
2.67839e-09
2.05237e-05
-8.02621e-09
2.05033e-05
2.03565e-08
2.04806e-05
2.27604e-08
2.0453e-05
2.75198e-08
2.0445e-05
8.01488e-09
2.04193e-05
2.57573e-08
2.04013e-05
1.79444e-08
2.0386e-05
1.53015e-08
2.03723e-05
1.3726e-08
2.03596e-05
1.27355e-08
2.03473e-05
1.22406e-08
2.03352e-05
1.215e-08
2.03237e-05
1.14301e-08
2.03123e-05
1.13978e-08
2.03018e-05
1.0569e-08
2.02912e-05
1.05532e-08
2.02809e-05
1.0317e-08
2.02701e-05
1.0844e-08
2.02609e-05
9.1342e-09
2.02508e-05
1.01575e-08
2.02469e-05
3.81453e-09
2.02362e-05
1.06995e-08
2.02316e-05
4.6975e-09
2.02152e-05
1.63377e-08
2.02163e-05
-1.08803e-09
2.01923e-05
2.40518e-08
2.02036e-05
-1.1341e-08
2.01661e-05
3.74432e-08
2.01905e-05
-2.43373e-08
2.01357e-05
5.48099e-08
2.01669e-05
-3.1198e-08
2.01053e-05
6.15971e-08
2.01495e-05
-4.41756e-08
2.01773e-05
-2.79022e-08
1.97306e-05
4.46778e-07
1.97384e-05
-7.85125e-09
2.01427e-05
-4.04235e-07
2.00977e-05
4.49741e-08
1.97473e-05
3.50434e-07
1.98243e-05
-7.7041e-08
1.98262e-05
-1.90614e-09
1.98246e-05
1.58335e-09
1.98369e-05
-1.23149e-08
1.98372e-05
-2.90011e-10
1.98417e-05
-4.44362e-09
1.98517e-05
-1.00664e-08
1.98401e-05
1.1682e-08
1.98681e-05
-2.80361e-08
1.98341e-05
3.402e-08
1.98745e-05
-4.03941e-08
1.98349e-05
3.96137e-08
1.98813e-05
-4.64839e-08
1.99346e-05
-5.33099e-08
1.94841e-05
4.50523e-07
1.94971e-05
-1.29813e-08
1.99229e-05
-4.2577e-07
1.98656e-05
5.72895e-08
1.94989e-05
3.66705e-07
1.95822e-05
-8.32675e-08
1.96008e-05
-1.86065e-08
1.95939e-05
6.87901e-09
1.9624e-05
-3.01021e-08
1.96132e-05
1.0745e-08
1.96397e-05
-2.64307e-08
1.96344e-05
5.29835e-09
1.96544e-05
-1.99974e-08
1.96536e-05
7.93607e-10
1.96681e-05
-1.44888e-08
1.96708e-05
-2.68932e-09
1.96818e-05
-1.10484e-08
1.96851e-05
-3.28667e-09
1.96936e-05
-8.46381e-09
1.9697e-05
-3.48969e-09
1.97034e-05
-6.37999e-09
1.97084e-05
-4.96949e-09
1.97134e-05
-5.00978e-09
1.97172e-05
-3.79934e-09
1.97206e-05
-3.39212e-09
1.97234e-05
-2.78459e-09
1.97257e-05
-2.33986e-09
1.97278e-05
-2.07781e-09
1.97294e-05
-1.59033e-09
1.9731e-05
-1.56378e-09
1.97319e-05
-9.73617e-10
1.97325e-05
-5.81692e-10
1.97327e-05
-2.32834e-10
1.97332e-05
-4.10568e-10
1.97333e-05
-1.49448e-10
1.97333e-05
-1.80985e-11
1.97327e-05
5.82404e-10
1.9732e-05
7.54302e-10
1.97314e-05
6.07065e-10
1.97305e-05
8.74525e-10
1.97294e-05
1.0505e-09
1.97287e-05
7.87356e-10
1.97276e-05
1.06734e-09
1.97263e-05
1.29896e-09
1.97248e-05
1.5267e-09
1.97231e-05
1.70493e-09
1.97215e-05
1.52438e-09
1.97213e-05
2.862e-10
1.97189e-05
2.3784e-09
1.97197e-05
-8.27296e-10
1.97152e-05
4.51327e-09
1.97183e-05
-3.10162e-09
1.97089e-05
9.38628e-09
1.97183e-05
-9.42371e-09
1.96968e-05
2.15615e-08
1.97188e-05
-2.19881e-08
1.96735e-05
4.52764e-08
1.97156e-05
-4.2139e-08
1.96528e-05
6.27705e-08
1.97175e-05
-6.465e-08
1.97685e-05
-5.10042e-08
1.92971e-05
4.71385e-07
1.92874e-05
9.73094e-09
1.97773e-05
-4.89891e-07
1.9716e-05
6.12589e-08
1.93244e-05
3.91572e-07
1.93898e-05
-6.53722e-08
1.94207e-05
-3.08503e-08
1.93992e-05
2.14908e-08
1.94298e-05
-3.06787e-08
1.94164e-05
1.34521e-08
1.94374e-05
-2.10124e-08
1.94361e-05
1.33493e-09
1.94505e-05
-1.43857e-08
1.94532e-05
-2.77772e-09
1.9461e-05
-7.79704e-09
1.94634e-05
-2.3968e-09
1.9469e-05
-5.58092e-09
1.94734e-05
-4.35035e-09
1.94774e-05
-4.01413e-09
1.94808e-05
-3.44224e-09
1.9483e-05
-2.18658e-09
1.9485e-05
-2.0376e-09
1.94861e-05
-1.01406e-09
1.94871e-05
-1.07491e-09
1.94873e-05
-1.28987e-10
1.9487e-05
2.95868e-10
1.94864e-05
5.46488e-10
1.94851e-05
1.28795e-09
1.94836e-05
1.54801e-09
1.9481e-05
2.58924e-09
1.94786e-05
2.43756e-09
1.94761e-05
2.43417e-09
1.94732e-05
2.93565e-09
1.94702e-05
2.97231e-09
1.94665e-05
3.71043e-09
1.94628e-05
3.66819e-09
1.94592e-05
3.61762e-09
1.94548e-05
4.44054e-09
1.94511e-05
3.70204e-09
1.94456e-05
5.44476e-09
1.94436e-05
2.05932e-09
1.94362e-05
7.38801e-09
1.94346e-05
1.59033e-09
1.94228e-05
1.18272e-08
1.94254e-05
-2.63017e-09
1.94051e-05
2.0285e-08
1.94176e-05
-1.25234e-08
1.938e-05
3.76177e-08
1.94076e-05
-2.75795e-08
1.93479e-05
5.97126e-08
1.93922e-05
-4.43005e-08
1.9299e-05
9.31885e-08
1.93635e-05
-6.44548e-08
1.92453e-05
1.18136e-07
1.93389e-05
-9.3604e-08
1.92318e-05
1.0714e-07
1.93724e-05
-1.40579e-07
1.93302e-05
4.22064e-08
1.96303e-05
-3.00188e-07
1.97825e-05
-1.52214e-07
1.99291e-05
-1.46592e-07
1.93938e-05
5.35306e-07
1.84547e-05
9.39196e-07
1.64174e-05
2.03724e-06
1.21108e-05
4.30658e-06
7.8939e-06
4.21692e-06
7.07786e-06
8.1605e-07
7.05118e-06
2.66823e-08
5.79886e-06
1.25232e-06
3.87609e-06
1.92278e-06
1.49869e-06
2.37739e-06
1.14482e-07
1.38421e-06
-1.25849e-06
1.37297e-06
-2.61507e-06
1.35658e-06
-3.75578e-06
1.14071e-06
-3.75578e-06
3.7868e-05
6.38823e-07
3.76406e-05
7.5352e-07
3.7221e-05
1.10058e-06
3.67892e-05
1.12154e-06
3.63437e-05
1.17225e-06
3.59346e-05
1.09251e-06
3.55444e-05
1.06645e-06
3.51876e-05
9.87625e-07
3.48647e-05
9.37801e-07
3.45956e-05
8.63235e-07
3.43546e-05
8.13293e-07
3.41315e-05
7.52701e-07
3.39006e-05
7.49572e-07
3.36928e-05
7.04626e-07
3.34815e-05
6.8364e-07
3.32625e-05
6.7439e-07
3.30432e-05
6.584e-07
3.28123e-05
6.48854e-07
3.25824e-05
6.28858e-07
3.23572e-05
6.03244e-07
3.21344e-05
5.87734e-07
3.19135e-05
5.72049e-07
3.16936e-05
5.54016e-07
3.14748e-05
5.37634e-07
3.12607e-05
5.15952e-07
3.10452e-05
5.03589e-07
3.08343e-05
4.81465e-07
3.06268e-05
4.60513e-07
3.04257e-05
4.41279e-07
3.02298e-05
4.22857e-07
3.00379e-05
4.09349e-07
2.98508e-05
3.93084e-07
2.96699e-05
3.74529e-07
2.94946e-05
3.57472e-07
2.93263e-05
3.39126e-07
2.91624e-05
3.25462e-07
2.90041e-05
3.1327e-07
2.88496e-05
2.9855e-07
2.87007e-05
2.85174e-07
2.85564e-05
2.7499e-07
2.84166e-05
2.61058e-07
2.82809e-05
2.49213e-07
2.81512e-05
2.39538e-07
2.80235e-05
2.29845e-07
2.79026e-05
2.16433e-07
2.7782e-05
2.09879e-07
2.76706e-05
1.82305e-07
2.7547e-05
2.18476e-07
2.74556e-05
1.33648e-07
2.73328e-05
2.02661e-07
2.72592e-05
1.2314e-07
2.71213e-05
2.32915e-07
2.70511e-05
1.07997e-07
2.69232e-05
2.02187e-07
2.6875e-05
9.54026e-08
2.67402e-05
2.09783e-07
2.66927e-05
7.40534e-08
2.65843e-05
1.83703e-07
2.65465e-05
7.16139e-08
2.63935e-05
2.3135e-07
2.63262e-05
9.35205e-08
2.61954e-05
1.84774e-07
2.61936e-05
3.43699e-09
2.61304e-05
1.27807e-07
2.60869e-05
7.31155e-08
2.58995e-05
2.77392e-07
2.58595e-05
6.76639e-08
2.58036e-05
1.09143e-07
2.58087e-05
1.21995e-09
2.56889e-05
1.89695e-07
2.56507e-05
6.18515e-08
2.55472e-05
1.55131e-07
2.55615e-05
-1.16275e-08
2.55398e-05
1.35596e-07
2.56505e-05
-2.93638e-07
2.53818e-05
2.48228e-07
2.5229e-05
5.71013e-07
2.49818e-05
5.44396e-07
2.49736e-05
-7.50685e-08
2.49758e-05
1.87887e-08
2.48175e-05
2.29372e-07
2.47147e-05
1.7365e-07
2.45802e-05
2.15355e-07
2.45342e-05
9.39686e-08
2.45466e-05
-2.92275e-08
2.45674e-05
-5.79154e-08
2.46007e-05
-4.17932e-08
2.45757e-05
3.28753e-08
2.4567e-05
-1.04508e-08
2.44843e-05
1.34993e-07
2.44821e-05
-1.47347e-09
2.44842e-05
-3.17674e-08
2.45519e-05
-1.12644e-07
2.45351e-05
5.54692e-09
2.45536e-05
-3.68578e-08
2.44977e-05
9.04526e-08
2.4458e-05
4.02654e-08
2.44369e-05
6.81296e-08
2.45502e-05
-2.48281e-07
2.45874e-05
-1.28339e-07
2.47756e-05
-4.11888e-07
2.45386e-05
2.84503e-07
2.44095e-05
6.24896e-07
2.42282e-05
4.12732e-07
2.42138e-05
-2.11525e-07
2.43311e-05
-2.43398e-07
2.43932e-05
-2.33403e-07
2.4497e-05
-1.82163e-07
2.454e-05
-3.76779e-08
2.44926e-05
4.56057e-08
2.44898e-05
1.02504e-08
2.44255e-05
7.6951e-08
2.44006e-05
-1.21781e-08
2.43419e-05
9.54545e-08
2.43741e-05
-8.1334e-08
2.43415e-05
7.95535e-08
2.45128e-05
-4.38999e-07
2.42475e-05
3.39766e-07
2.42931e-05
3.7242e-07
2.40936e-05
3.26305e-07
2.42226e-05
-4.20178e-07
2.44684e-05
-5.5179e-07
2.44118e-05
-2.3078e-08
2.4448e-05
2.36264e-07
2.43435e-05
2.23305e-07
2.44349e-05
-3.02163e-07
2.45805e-05
-4.65799e-07
2.44312e-05
2.06866e-07
2.44205e-05
3.84884e-07
2.42214e-05
3.75493e-07
2.42806e-05
-2.17039e-07
2.4322e-05
-6.82334e-08
2.43913e-05
-1.77453e-07
2.44652e-05
-1.84453e-07
2.45708e-05
-1.98598e-07
2.47272e-05
-3.90786e-07
2.4778e-05
-2.19131e-07
2.48265e-05
-8.03225e-09
2.47658e-05
1.82577e-07
2.47571e-05
1.49108e-08
2.47562e-05
-8.44083e-09
2.47743e-05
-5.1482e-08
2.47897e-05
-4.06209e-08
2.48125e-05
-4.79992e-08
2.48268e-05
-3.19533e-08
2.48455e-05
-3.91211e-08
2.48555e-05
-2.18741e-08
2.48688e-05
-2.79004e-08
2.48727e-05
-1.06914e-08
2.48816e-05
-1.85469e-08
2.48813e-05
-3.13447e-09
2.48874e-05
-1.23122e-08
2.48841e-05
4.08326e-09
2.4888e-05
-7.8274e-09
2.48815e-05
1.17649e-08
2.48845e-05
-6.8239e-09
2.48714e-05
2.47517e-08
2.48763e-05
-1.0045e-08
2.48495e-05
5.21797e-08
2.48634e-05
-2.26544e-08
2.48174e-05
7.97859e-08
2.48441e-05
-3.69477e-08
2.47755e-05
1.15564e-07
2.4809e-05
-4.43258e-08
2.472e-05
1.47548e-07
2.47446e-05
-2.18345e-08
2.46347e-05
1.88993e-07
2.46218e-05
3.60367e-08
2.44894e-05
2.78583e-07
2.44704e-05
1.09682e-07
2.4372e-05
1.67703e-07
2.43765e-05
-1.06258e-08
2.43233e-05
9.12974e-08
2.43235e-05
2.17438e-09
2.42857e-05
6.49313e-08
2.42827e-05
5.51396e-09
2.42569e-05
4.37333e-08
2.42549e-05
6.56389e-10
2.42381e-05
2.6102e-08
2.42401e-05
-8.11507e-09
2.42287e-05
1.34681e-08
2.42341e-05
-1.42361e-08
2.42252e-05
8.82613e-09
2.42326e-05
-1.78265e-08
2.42253e-05
5.95273e-09
2.4234e-05
-1.99714e-08
2.42278e-05
4.14453e-09
2.42373e-05
-2.13029e-08
2.4232e-05
2.84016e-09
2.42423e-05
-2.24372e-08
2.42376e-05
2.00079e-09
2.42483e-05
-2.29704e-08
2.42441e-05
1.50154e-09
2.42549e-05
-2.27997e-08
2.42508e-05
1.63379e-09
2.42615e-05
-2.22657e-08
2.42573e-05
2.24923e-09
2.42676e-05
-2.10655e-08
2.42633e-05
2.85884e-09
2.42731e-05
-1.97815e-08
2.42685e-05
3.76521e-09
2.42777e-05
-1.84619e-08
2.42729e-05
4.73435e-09
2.42815e-05
-1.70433e-08
2.42763e-05
5.6237e-09
2.42844e-05
-1.5733e-08
2.42789e-05
6.46544e-09
2.42864e-05
-1.44361e-08
2.42806e-05
7.29423e-09
2.42875e-05
-1.32299e-08
2.42814e-05
8.1501e-09
2.42877e-05
-1.2108e-08
2.42813e-05
8.9002e-09
2.42871e-05
-1.09768e-08
2.42803e-05
9.62826e-09
2.42856e-05
-1.01305e-08
2.42786e-05
1.01784e-08
2.42836e-05
-9.36984e-09
2.42764e-05
1.04599e-08
2.42813e-05
-8.9798e-09
2.42742e-05
1.03729e-08
2.42788e-05
-8.87701e-09
2.42717e-05
1.02219e-08
2.42766e-05
-9.30476e-09
2.42698e-05
9.50964e-09
2.4275e-05
-1.01505e-08
2.42686e-05
8.57579e-09
2.42741e-05
-1.10553e-08
2.42681e-05
7.72396e-09
2.4274e-05
-1.18951e-08
2.42684e-05
6.90519e-09
2.42747e-05
-1.28103e-08
2.42693e-05
6.19787e-09
2.4276e-05
-1.36631e-08
2.42711e-05
5.13901e-09
2.42782e-05
-1.46586e-08
2.42736e-05
4.40498e-09
2.42812e-05
-1.57534e-08
2.42771e-05
3.45496e-09
2.42854e-05
-1.70885e-08
2.42817e-05
2.30974e-09
2.42907e-05
-1.85092e-08
2.42877e-05
7.9164e-10
2.42976e-05
-2.02395e-08
2.42953e-05
-3.74505e-10
2.43061e-05
-2.1822e-08
2.43043e-05
-1.04475e-09
2.4316e-05
-2.31482e-08
2.43145e-05
-1.31747e-09
2.4327e-05
-2.44826e-08
2.43255e-05
-8.68525e-10
2.43389e-05
-2.60962e-08
2.43367e-05
6.06419e-10
2.43519e-05
-2.8755e-08
2.43482e-05
3.26152e-09
2.43657e-05
-3.3204e-08
2.43597e-05
7.08141e-09
2.43813e-05
-3.99332e-08
2.43714e-05
1.2864e-08
2.43987e-05
-4.91845e-08
2.43837e-05
2.1181e-08
2.4417e-05
-5.85599e-08
2.43956e-05
3.16511e-08
2.44342e-05
-6.64815e-08
2.44061e-05
4.26503e-08
2.44488e-05
-7.19067e-08
2.44146e-05
5.27887e-08
2.44591e-05
-7.3131e-08
2.44204e-05
6.05014e-08
2.44632e-05
-6.83453e-08
2.44232e-05
6.31789e-08
2.44599e-05
-5.61e-08
2.44231e-05
5.86329e-08
2.44484e-05
-3.56688e-08
2.44209e-05
4.52655e-08
2.44306e-05
-1.03545e-08
2.44188e-05
2.21436e-08
2.44143e-05
6.51151e-09
2.44182e-05
-4.42217e-09
2.43965e-05
2.40314e-08
2.43811e-05
5.39796e-08
2.43225e-05
6.89623e-08
2.41592e-05
5.74494e-07
2.4472e-05
-4.8328e-07
2.44248e-05
-5.1858e-07
2.47403e-05
-5.21437e-07
2.45831e-05
5.01567e-07
2.4564e-05
5.96842e-08
2.44932e-05
1.42051e-07
2.44946e-05
6.24253e-09
2.44548e-05
7.35055e-08
2.44553e-05
3.99761e-09
2.44278e-05
4.87245e-08
2.44236e-05
9.14716e-09
2.44034e-05
3.55636e-08
2.4395e-05
1.4413e-08
2.43794e-05
2.85495e-08
2.43681e-05
1.928e-08
2.43597e-05
1.2761e-08
2.43455e-05
2.32109e-08
2.43399e-05
7.72534e-09
2.43253e-05
2.31465e-08
2.43218e-05
4.9553e-09
2.43071e-05
2.27384e-08
2.43049e-05
2.29638e-09
2.42906e-05
2.20468e-08
2.42897e-05
2.58179e-10
2.42761e-05
2.0863e-08
2.42762e-05
-1.88043e-09
2.42637e-05
1.89513e-08
2.42647e-05
-3.23606e-09
2.42533e-05
1.66209e-08
2.4255e-05
-4.22671e-09
2.42451e-05
1.43659e-08
2.42473e-05
-5.42437e-09
2.42389e-05
1.13566e-08
2.42416e-05
-6.22177e-09
2.42348e-05
8.72244e-09
2.42377e-05
-7.13296e-09
2.42325e-05
6.1822e-09
2.42357e-05
-7.5643e-09
2.42322e-05
3.47236e-09
2.42356e-05
-8.46657e-09
2.42336e-05
9.38204e-10
2.42374e-05
-8.83757e-09
2.42368e-05
-1.31314e-09
2.42406e-05
-9.0624e-09
2.42414e-05
-3.90445e-09
2.42456e-05
-9.67629e-09
2.42479e-05
-5.59189e-09
2.42522e-05
-1.0646e-08
2.42561e-05
-9.9092e-09
2.42629e-05
-1.59206e-08
2.42693e-05
-1.44498e-08
2.4278e-05
-1.88685e-08
2.42857e-05
-1.70835e-08
2.42956e-05
-2.07548e-08
2.43043e-05
-1.86797e-08
2.43155e-05
-2.30417e-08
2.4325e-05
-2.00636e-08
2.43371e-05
-2.44426e-08
2.43474e-05
-2.14496e-08
2.43602e-05
-2.57949e-08
2.43711e-05
-2.2752e-08
2.43845e-05
-2.65542e-08
2.43958e-05
-2.30293e-08
2.44096e-05
-2.68587e-08
2.44212e-05
-2.34907e-08
2.44353e-05
-2.75526e-08
2.4447e-05
-2.3544e-08
2.44618e-05
-2.8702e-08
2.44733e-05
-2.10779e-08
2.44884e-05
-2.85524e-08
2.44979e-05
-1.62096e-08
2.45111e-05
-2.60046e-08
2.45163e-05
-1.00551e-08
2.45308e-05
-2.77895e-08
2.453e-05
6.4987e-10
2.45482e-05
-3.27768e-08
2.45378e-05
1.30993e-08
2.45531e-05
-2.32985e-08
2.45258e-05
4.75598e-08
2.45252e-05
2.33977e-08
2.44983e-05
5.44244e-08
2.44894e-05
1.69756e-08
2.44726e-05
4.2562e-08
2.44597e-05
3.08153e-08
2.44452e-05
2.97629e-08
2.44327e-05
2.62422e-08
2.44196e-05
2.58654e-08
2.44075e-05
2.43627e-08
2.43952e-05
2.44063e-08
2.43835e-05
2.31605e-08
2.43716e-05
2.32916e-08
2.43605e-05
2.16683e-08
2.43488e-05
2.22394e-08
2.43378e-05
2.13039e-08
2.43261e-05
2.25679e-08
2.43152e-05
2.00135e-08
2.43033e-05
2.20872e-08
2.42943e-05
1.27818e-08
2.42825e-05
2.24544e-08
2.42769e-05
1.03193e-08
2.42602e-05
3.30516e-08
2.42602e-05
-1.09139e-09
2.42338e-05
5.04652e-08
2.42473e-05
-2.47989e-08
2.42017e-05
8.29834e-08
2.42373e-05
-5.99422e-08
2.41613e-05
1.30866e-07
2.42247e-05
-9.46776e-08
2.41219e-05
1.64426e-07
2.42126e-05
-1.34845e-07
2.40735e-05
1.11185e-07
2.39283e-05
5.91924e-07
2.41097e-05
-1.89141e-07
2.39184e-05
-2.12964e-07
2.41351e-05
-1.71785e-07
2.39515e-05
5.34031e-07
2.39235e-05
-4.90391e-08
2.39457e-05
-2.40458e-08
2.39157e-05
3.15477e-08
2.3936e-05
-3.26325e-08
2.3917e-05
1.87788e-08
2.39201e-05
-7.60045e-09
2.39207e-05
-1.06382e-08
2.38999e-05
3.2427e-08
2.39259e-05
-5.39558e-08
2.38729e-05
8.69873e-08
2.39322e-05
-9.97265e-08
2.38477e-05
1.24139e-07
2.39391e-05
-1.37898e-07
2.38168e-05
6.90434e-08
2.36621e-05
6.05135e-07
2.38617e-05
-2.12562e-07
2.36637e-05
-2.27759e-07
2.38827e-05
-1.61653e-07
2.37045e-05
5.44899e-07
2.36619e-05
-4.06685e-08
2.37054e-05
-6.2142e-08
2.36622e-05
5.00964e-08
2.37015e-05
-6.9397e-08
2.36673e-05
4.49023e-08
2.36941e-05
-5.31936e-08
2.36721e-05
2.72458e-08
2.36878e-05
-3.56415e-08
2.36749e-05
1.37036e-08
2.36833e-05
-2.29295e-08
2.36762e-05
4.39553e-09
2.36804e-05
-1.51659e-08
2.36762e-05
8.26042e-10
2.36784e-05
-1.06387e-08
2.36765e-05
-1.56256e-09
2.36775e-05
-7.35291e-09
2.36769e-05
-4.40008e-09
2.36772e-05
-5.33648e-09
2.36766e-05
-3.18296e-09
2.36763e-05
-3.06485e-09
2.36754e-05
-1.95365e-09
2.36744e-05
-1.2927e-09
2.36734e-05
-1.0814e-09
2.3672e-05
-1.91815e-10
2.36707e-05
-2.10465e-10
2.36691e-05
5.96088e-10
2.36673e-05
1.23045e-09
2.36653e-05
1.71491e-09
2.36635e-05
1.4486e-09
2.36619e-05
1.4057e-09
2.36601e-05
1.83614e-09
2.36579e-05
2.77789e-09
2.36555e-05
3.1225e-09
2.36532e-05
2.9457e-09
2.36508e-05
3.26205e-09
2.36489e-05
2.89995e-09
2.36467e-05
3.02441e-09
2.36443e-05
3.44522e-09
2.36418e-05
3.83084e-09
2.36393e-05
3.9449e-09
2.36362e-05
4.87405e-09
2.36334e-05
4.32846e-09
2.36308e-05
2.89286e-09
2.36274e-05
5.76882e-09
2.36265e-05
4.15182e-11
2.3622e-05
9.06467e-09
2.3623e-05
-4.11157e-09
2.36135e-05
1.88549e-08
2.3621e-05
-1.68908e-08
2.35986e-05
4.39179e-08
2.36219e-05
-4.53228e-08
2.35721e-05
9.50944e-08
2.36297e-05
-9.96818e-08
2.35393e-05
1.53143e-07
2.36512e-05
-1.76522e-07
2.35011e-05
9.90268e-08
2.33742e-05
5.98353e-07
2.3554e-05
-1.70094e-07
2.33941e-05
-3.30019e-07
2.35912e-05
-1.35797e-07
2.34397e-05
5.43061e-07
2.33586e-05
1.57514e-08
2.34196e-05
-9.19338e-08
2.33685e-05
7.26096e-08
2.34035e-05
-6.56986e-08
2.3377e-05
4.0017e-08
2.33925e-05
-3.64817e-08
2.33817e-05
1.20673e-08
2.33871e-05
-1.97333e-08
2.33825e-05
1.80267e-09
2.3383e-05
-8.28341e-09
2.33796e-05
9.29397e-10
2.33789e-05
-4.87236e-09
2.33769e-05
-2.27404e-09
2.33754e-05
-2.55489e-09
2.33738e-05
-1.82708e-09
2.33715e-05
1.18164e-10
2.3369e-05
4.48286e-10
2.33662e-05
1.80922e-09
2.33632e-05
1.89586e-09
2.336e-05
3.02655e-09
2.33566e-05
3.73928e-09
2.33532e-05
3.90425e-09
2.33495e-05
5.04734e-09
2.33458e-05
5.23595e-09
2.33414e-05
6.94227e-09
2.33373e-05
6.6194e-09
2.33325e-05
7.16999e-09
2.3328e-05
7.4421e-09
2.33236e-05
7.36836e-09
2.33186e-05
8.71223e-09
2.33137e-05
8.61545e-09
2.33086e-05
8.66747e-09
2.33032e-05
9.87065e-09
2.3298e-05
8.92118e-09
2.32911e-05
1.23169e-08
2.32862e-05
6.99671e-09
2.3279e-05
1.45446e-08
2.32756e-05
5.04499e-09
2.3264e-05
2.33936e-08
2.32656e-05
-4.25913e-09
2.32445e-05
4.1406e-08
2.32574e-05
-2.54574e-08
2.32164e-05
7.86651e-08
2.32521e-05
-6.3322e-08
2.31768e-05
1.3501e-07
2.3246e-05
-1.13454e-07
2.31234e-05
2.15772e-07
2.32346e-05
-1.75612e-07
2.3066e-05
2.86696e-07
2.32299e-05
-2.57474e-07
2.3043e-05
2.94015e-07
2.32667e-05
-3.64304e-07
2.31267e-05
1.82231e-07
2.34295e-05
-6.02979e-07
2.33083e-05
-3.1062e-08
2.33632e-05
-2.01424e-07
2.29107e-05
9.87798e-07
2.19574e-05
1.89245e-06
2.03813e-05
3.61337e-06
1.72466e-05
7.44127e-06
1.44006e-05
7.06286e-06
1.26383e-05
2.57843e-06
1.20583e-05
6.0663e-07
1.09374e-05
2.37329e-06
9.25045e-06
3.60969e-06
6.47836e-06
5.14949e-06
3.09626e-06
4.76631e-06
2.57524e-07
4.21171e-06
-1.43111e-06
3.04521e-06
-2.4471e-06
2.15669e-06
-6.20287e-06
3.78654e-05
7.73433e-07
3.76526e-05
9.66286e-07
3.7239e-05
1.51417e-06
3.68355e-05
1.5251e-06
3.64239e-05
1.58388e-06
3.60649e-05
1.45144e-06
3.5751e-05
1.3804e-06
3.54853e-05
1.25335e-06
3.52648e-05
1.15826e-06
3.50722e-05
1.05587e-06
3.49139e-05
9.71546e-07
3.47735e-05
8.93132e-07
3.46393e-05
8.83777e-07
3.45311e-05
8.12761e-07
3.44349e-05
7.7991e-07
3.43452e-05
7.64091e-07
3.42651e-05
7.38456e-07
3.41875e-05
7.26421e-07
3.41076e-05
7.08853e-07
3.40307e-05
6.8006e-07
3.39506e-05
6.67914e-07
3.38703e-05
6.52279e-07
3.37874e-05
6.36924e-07
3.37005e-05
6.24596e-07
3.36115e-05
6.04956e-07
3.35167e-05
5.98332e-07
3.34198e-05
5.78362e-07
3.3313e-05
5.67325e-07
3.32064e-05
5.47874e-07
3.30917e-05
5.37543e-07
3.29765e-05
5.24519e-07
3.28571e-05
5.12547e-07
3.27347e-05
4.96893e-07
3.26098e-05
4.82383e-07
3.24855e-05
4.63414e-07
3.23573e-05
4.5369e-07
3.22297e-05
4.40866e-07
3.21001e-05
4.28129e-07
3.19699e-05
4.15379e-07
3.18398e-05
4.0507e-07
3.17102e-05
3.9072e-07
3.15785e-05
3.80869e-07
3.14505e-05
3.67542e-07
3.13205e-05
3.59847e-07
3.11939e-05
3.43078e-07
3.1065e-05
3.38751e-07
3.09412e-05
3.06086e-07
3.08175e-05
3.42263e-07
3.07069e-05
2.44769e-07
3.05793e-05
3.32965e-07
3.04826e-05
2.19089e-07
3.03329e-05
3.78305e-07
3.02337e-05
2.05413e-07
3.00894e-05
3.45849e-07
3.00111e-05
1.73816e-07
2.98724e-05
3.41921e-07
2.98002e-05
1.4274e-07
2.96793e-05
3.18997e-07
2.96095e-05
1.44957e-07
2.94544e-05
3.67981e-07
2.93562e-05
1.73902e-07
2.92129e-05
3.22003e-07
2.91655e-05
7.64196e-08
2.90756e-05
2.59606e-07
2.9009e-05
1.3427e-07
2.88573e-05
3.82153e-07
2.88147e-05
9.96954e-08
2.87606e-05
1.94501e-07
2.87565e-05
2.09223e-08
2.86579e-05
2.78908e-07
2.85914e-05
1.13628e-07
2.85048e-05
2.39245e-07
2.85447e-05
-3.30576e-08
2.85492e-05
1.54837e-07
2.8636e-05
-3.81816e-07
2.84566e-05
3.90763e-07
2.83793e-05
6.20786e-07
2.82309e-05
7.15265e-07
2.81323e-05
6.26646e-08
2.80884e-05
7.57666e-08
2.79069e-05
4.00895e-07
2.77808e-05
2.7818e-07
2.76662e-05
3.0656e-07
2.76024e-05
1.51556e-07
2.76004e-05
-7.68944e-09
2.7605e-05
-3.95301e-08
2.76338e-05
-6.32478e-08
2.76002e-05
6.53611e-08
2.755e-05
2.40499e-08
2.74711e-05
1.87049e-07
2.74638e-05
-1.9109e-09
2.74456e-05
8.16154e-09
2.74666e-05
-1.09505e-07
2.74185e-05
5.93154e-08
2.74057e-05
-2.5095e-08
2.73429e-05
1.39631e-07
2.73032e-05
5.52826e-08
2.72856e-05
7.75004e-08
2.7348e-05
-2.99491e-07
2.73888e-05
-1.50481e-07
2.75128e-05
-5.17927e-07
2.72752e-05
5.27676e-07
2.72641e-05
6.19066e-07
2.71048e-05
5.53326e-07
2.69874e-05
-9.76372e-08
2.70269e-05