/*--------------------------------*- C++ -*----------------------------------*\
| =========                 |                                                 |
| \\      /  F ield         | foam-extend: Open Source CFD                    |
|  \\    /   O peration     | Version:     3.2                                |
|   \\  /    A nd           | Web:         http://www.foam-extend.org         |
|    \\/     M anipulation  | For copyright notice see file Copyright         |
\*---------------------------------------------------------------------------*/
FoamFile
{
    version     2.0;
    format      ascii;
    class       areaVectorField;
    location    "2020";
    object      PointNormalVector;
}
// * * * * * * * * * * * * * * * * * * * * * * * * * * * * * * * * * * * * * //

dimensions      [0 0 0 0 0 0 0];

internalField   nonuniform List<vector> 
550
(
(7.27272e-07 0 0.000363636)
(7.27274e-07 0 0.000363636)
(7.27274e-07 2.64698e-23 0.000363638)
(7.2728e-07 -2.64698e-23 0.000363636)
(7.2726e-07 -2.64698e-23 0.000363636)
(7.2728e-07 0 0.000363638)
(7.2726e-07 2.64698e-23 0.00036364)
(7.2728e-07 2.64698e-23 0.00036364)
(7.2728e-07 0 0.00036362)
(7.2726e-07 0 0.00036364)
(8.9918e-07 0 0.00036364)
(7.2728e-07 0 0.00036364)
(5.5536e-07 0 0.00036364)
(8.6536e-07 0 0.00036362)
(7.2728e-07 2.64698e-23 0.00036364)
(5.8918e-07 0 0.00036364)
(8.2346e-07 0 0.00036364)
(8.1212e-07 0 0.00036364)
(7.0394e-07 2.64698e-23 0.00036364)
(7.0938e-07 0 0.00036362)
(6.5442e-07 0 0.00036364)
(7.1376e-07 2.64698e-23 0.00036364)
(7.2728e-07 2.64698e-23 0.00036364)
(6.7382e-07 0 0.00036364)
(7.2728e-07 2.64698e-23 0.00036362)
(7.2728e-07 2.64698e-23 0.00036364)
(7.6214e-07 -2.64698e-23 0.00036364)
(7.2716e-07 0 0.00036364)
(6.926e-07 0 0.00036364)
(7.272e-07 0 0.00036364)
(7.272e-07 0 0.00036362)
(7.544e-07 -2.64698e-23 0.00036364)
(7.532e-07 0 0.00036364)
(7.252e-07 -2.64698e-23 0.00036364)
(7.254e-07 0 0.00036364)
(7.022e-07 0 0.00036362)
(7.258e-07 0 0.00036364)
(7.492e-07 2.64698e-23 0.00036364)
(7.046e-07 0 0.00036364)
(7.264e-07 0 0.00036364)
(7.474e-07 0 0.00036364)
(7.064e-07 2.64698e-23 0.00036362)
(7.264e-07 0 0.00036364)
(7.46e-07 2.64698e-23 0.00036364)
(7.262e-07 0 0.00036364)
(7.266e-07 0 0.00036364)
(7.30172e-07 0 0.00036362)
(6.61047e-07 -2.64698e-23 0.00036364)
(1.04585e-06 0 0.00036364)
(1.47148e-07 0 0.00036364)
(1.31359e-06 -5.29396e-23 0.00036364)
(1.20934e-07 0 0.00036364)
(1.58402e-06 5.29396e-23 0.00036362)
(-3.70037e-07 -1.32349e-23 0.00036364)
(1.84019e-06 0 0.00036364)
(-4.00489e-07 0 0.0003636)
(1.81599e-06 5.29396e-23 0.0003636)
(-3.04146e-07 0 0.0003638)
(1.81958e-06 5.29396e-23 0.0003636)
(-4.50592e-07 0 0.0003636)
(1.85557e-06 0 0.0003636)
(-4.43185e-07 0 0.0003636)
(1.91558e-06 0 0.0003636)
(-2.93974e-07 0 0.0003638)
(1.77895e-06 5.29396e-23 0.0003636)
(-4.76428e-07 -1.32349e-23 0.0003636)
(1.88085e-06 0 0.0003636)
(-3.82718e-07 1.32349e-23 0.0003636)
(1.91316e-06 0 0.0003638)
(-4.90244e-07 0 0.0003636)
(1.7001e-06 0 0.0003636)
(-6.77385e-07 0 0.0003636)
(1.34932e-06 0 0.0003636)
(-4.1594e-07 0 0.0003636)
(-5.24461e-07 0 0.0003638)
(-6.75209e-06 0 0.0003636)
(1.00558e-05 4.23516e-22 0.0003636)
(2.18408e-06 0 0.0003636)
(-1.22229e-06 0 0.0003636)
(1.9287e-06 0 0.0003638)
(-6.69504e-07 2.64698e-23 0.0003636)
(1.70102e-06 0 0.0003636)
(-6.76139e-08 -3.30872e-24 0.0003636)
(1.27377e-06 0 0.0003636)
(6.55429e-07 2.64698e-23 0.0003636)
(-3.26429e-07 1.32349e-23 0.0003638)
(1.08586e-06 0 0.0003636)
(-3.21396e-07 -1.32349e-23 0.0003636)
(3.88992e-07 -1.32349e-23 0.0003636)
(9.84429e-08 0 0.0003636)
(1.37458e-06 5.29396e-23 0.0003638)
(-7.05599e-07 0 0.0003636)
(1.13854e-06 0 0.0003636)
(-6.06369e-07 0 0.0003636)
(6.63222e-07 2.64698e-23 0.0003636)
(-3.84175e-07 -1.32349e-23 0.0003636)
(2.43574e-07 -6.61744e-24 0.0003638)
(-4.42578e-08 -1.65436e-24 0.0003636)
(-5.20708e-07 0 0.0003636)
(-4.00211e-06 0 0.0003636)
(9.02946e-07 -2.64698e-23 0.0003636)
(-4.85225e-06 0 0.0003638)
(1.26465e-05 0 0.0003636)
(2.06856e-06 0 0.0003636)
(-5.03444e-06 0 0.0003636)
(1.04654e-06 0 0.0003636)
(-4.00348e-06 1.05879e-22 0.0003636)
(-7.38086e-07 -2.64698e-23 0.0003638)
(4.0098e-07 0 0.0003636)
(-1.64754e-06 0 0.0003636)
(7.61756e-07 -2.64698e-23 0.0003636)
(-1.29169e-06 0 0.0003636)
(-4.35655e-07 0 0.0003638)
(-6.45997e-07 -2.64698e-23 0.0003636)
(1.35642e-08 0 0.0003636)
(-1.91508e-06 -5.29396e-23 0.0003636)
(3.46998e-07 0 0.0003636)
(-7.53796e-06 -2.11758e-22 0.0003636)
(1.44822e-05 0 0.0003638)
(-3.59832e-06 0 0.0003636)
(-4.43099e-06 0 0.0003636)
(-2.88001e-06 -1.05879e-22 0.0003636)
(-6.19215e-06 0 0.0003636)
(8.23513e-06 2.11758e-22 0.0003638)
(-2.00625e-06 -5.29396e-23 0.0003636)
(-4.1812e-06 0 0.0003636)
(-4.34231e-06 0 0.0003636)
(-4.65915e-06 -2.11758e-22 0.0003636)
(1.05348e-05 0 0.0003636)
(-2.52301e-06 1.05879e-22 0.0003638)
(-2.40902e-06 0 0.0003636)
(-3.00921e-06 1.05879e-22 0.0003636)
(-3.52236e-06 0 0.0003636)
(-4.56507e-06 0 0.0003636)
(-4.41981e-06 0 0.0003638)
(-5.9532e-06 0 0.0003636)
(-7.65748e-06 -2.11758e-22 0.0003636)
(-9.00134e-08 0 0.0003636)
(-1.31878e-06 0 0.0003636)
(-1.70701e-06 0 0.0003636)
(-2.23772e-06 0 0.0003638)
(-2.37247e-06 1.05879e-22 0.0003636)
(-2.46567e-06 0 0.0003636)
(-2.26587e-06 -1.05879e-22 0.0003636)
(-2.36021e-06 1.05879e-22 0.0003636)
(-2.09333e-06 -5.29396e-23 0.0003638)
(-2.17289e-06 0 0.0003636)
(-1.86007e-06 5.29396e-23 0.0003636)
(-1.94778e-06 0 0.0003636)
(-1.62188e-06 5.29396e-23 0.0003636)
(-1.73394e-06 0 0.0003636)
(-1.42103e-06 0 0.0003638)
(-1.51913e-06 0 0.0003636)
(-1.218e-06 -5.29396e-23 0.0003636)
(-1.31955e-06 0 0.0003636)
(-1.0018e-06 0 0.0003636)
(-1.16102e-06 0 0.0003638)
(-6.26315e-07 2.64698e-23 0.0003636)
(-1.09436e-06 -5.29396e-23 0.0003636)
(3.81115e-08 0 0.0003636)
(-1.36912e-06 0 0.0003636)
(9.0593e-07 0 0.0003636)
(-1.51116e-06 0 0.0003638)
(1.78132e-06 0 0.0003636)
(-1.38556e-06 -5.29396e-23 0.0003636)
(2.6417e-06 0 0.0003636)
(-5.91068e-07 -2.64698e-23 0.0003636)
(3.34443e-06 0 0.0003638)
(8.67334e-07 2.64698e-23 0.0003636)
(3.99486e-06 1.05879e-22 0.0003636)
(-3.61293e-08 0 0.0003636)
(1.83198e-06 0 0.0003636)
(-5.89026e-08 0 0.0003636)
(1.1832e-06 -5.29396e-23 0.0003638)
(-7.73641e-08 0 0.0003636)
(6.77637e-07 0 0.0003636)
(-1.53691e-07 0 0.0003636)
(2.55582e-07 -6.61744e-24 0.0003636)
(-3.29953e-07 0 0.0003638)
(-3.05239e-08 8.27181e-25 0.0003636)
(-5.5474e-07 0 0.0003636)
(-1.98723e-07 -6.61744e-24 0.0003636)
(-6.92978e-07 0 0.0003636)
(-3.10386e-07 0 0.0003636)
(-7.83242e-07 0 0.0003638)
(-3.84771e-07 -1.32349e-23 0.0003636)
(-8.40306e-07 2.64698e-23 0.0003636)
(-4.33307e-07 0 0.0003636)
(-8.76519e-07 0 0.0003636)
(-4.62514e-07 0 0.0003638)
(-8.92923e-07 2.64698e-23 0.0003636)
(-4.76832e-07 0 0.0003636)
(-8.96872e-07 0 0.0003636)
(-4.7634e-07 -1.32349e-23 0.0003636)
(-8.83968e-07 0 0.0003636)
(-4.61232e-07 -1.32349e-23 0.0003638)
(-8.57564e-07 -2.64698e-23 0.0003636)
(-4.37496e-07 -1.32349e-23 0.0003636)
(-8.22074e-07 -2.64698e-23 0.0003636)
(-4.08335e-07 0 0.0003636)
(-7.83515e-07 0 0.0003638)
(-3.74904e-07 1.32349e-23 0.0003636)
(-7.40616e-07 0 0.0003636)
(-3.39957e-07 1.32349e-23 0.0003636)
(-6.98201e-07 2.64698e-23 0.0003636)
(-3.0497e-07 0 0.0003636)
(-6.56883e-07 0 0.0003638)
(-2.7051e-07 0 0.0003636)
(-6.15727e-07 0 0.0003636)
(-2.35592e-07 0 0.0003636)
(-5.73973e-07 0 0.0003636)
(-2.00683e-07 -6.61744e-24 0.0003638)
(-5.3418e-07 0 0.0003636)
(-1.66856e-07 0 0.0003636)
(-4.97211e-07 1.32349e-23 0.0003636)
(-1.35489e-07 0 0.0003636)
(-4.61398e-07 -1.32349e-23 0.0003636)
(-1.06557e-07 0 0.0003638)
(-4.30664e-07 0 0.0003636)
(-8.19784e-08 0 0.0003636)
(-4.05798e-07 0 0.0003636)
(-6.18992e-08 0 0.0003636)
(-3.86694e-07 0 0.0003638)
(-4.86433e-08 0 0.0003636)
(-3.76134e-07 -1.32349e-23 0.0003636)
(-4.00659e-08 0 0.0003636)
(-3.69357e-07 0 0.0003636)
(-3.35143e-08 -1.65436e-24 0.0003636)
(-3.64595e-07 0 0.0003638)
(-2.71817e-08 0 0.0003636)
(-3.59108e-07 0 0.0003636)
(-2.21129e-08 -8.27181e-25 0.0003636)
(-3.55724e-07 1.32349e-23 0.0003636)
(-1.82299e-08 0 0.0003638)
(-3.55957e-07 0 0.0003636)
(-1.88221e-08 0 0.0003636)
(-3.59015e-07 0 0.0003636)
(-2.2382e-08 8.27181e-25 0.0003636)
(-3.67244e-07 1.32349e-23 0.0003636)
(-2.98977e-08 0 0.0003638)
(-3.80165e-07 -1.32349e-23 0.0003636)
(-4.10635e-08 0 0.0003636)
(-4.01178e-07 0 0.0003636)
(-5.83242e-08 0 0.0003636)
(-4.25588e-07 0 0.0003638)
(-7.52869e-08 0 0.0003636)
(-4.49147e-07 0 0.0003636)
(-8.7462e-08 0 0.0003636)
(-4.7317e-07 1.32349e-23 0.0003636)
(-9.46949e-08 0 0.0003636)
(-5.00763e-07 1.32349e-23 0.0003638)
(-9.35575e-08 0 0.0003636)
(-5.36618e-07 -2.64698e-23 0.0003636)
(-7.76863e-08 3.30872e-24 0.0003636)
(-5.95203e-07 2.64698e-23 0.0003636)
(-3.81204e-08 0 0.0003638)
(-6.94432e-07 -2.64698e-23 0.0003636)
(3.96865e-08 1.65436e-24 0.0003636)
(-8.42716e-07 2.64698e-23 0.0003636)
(1.62393e-07 -6.61744e-24 0.0003636)
(-1.03106e-06 -2.64698e-23 0.0003636)
(3.36354e-07 0 0.0003638)
(-1.20362e-06 0 0.0003636)
(5.40722e-07 -2.64698e-23 0.0003636)
(-1.34246e-06 5.29396e-23 0.0003636)
(7.55576e-07 0 0.0003636)
(-1.42424e-06 5.29396e-23 0.0003638)
(9.54803e-07 -2.64698e-23 0.0003636)
(-1.41183e-06 -5.29396e-23 0.0003636)
(1.09988e-06 5.29396e-23 0.0003636)
(-1.27779e-06 -5.29396e-23 0.0003636)
(1.13774e-06 -5.29396e-23 0.0003636)
(-9.98738e-07 2.64698e-23 0.0003638)
(1.00703e-06 0 0.0003636)
(-5.73046e-07 2.64698e-23 0.0003636)
(6.40115e-07 2.64698e-23 0.0003636)
(-6.32103e-08 0 0.0003636)
(6.26331e-09 0 0.0003638)
(3.35762e-07 1.32349e-23 0.0003636)
(-5.60619e-07 0 0.0003636)
(1.00353e-06 0 0.0003636)
(-3.76786e-07 0 0.0003636)
(1.92447e-06 0 0.0003636)
(4.18576e-06 0 0.0003638)
(-2.29438e-05 0 0.0003636)
(3.31276e-06 0 0.0003636)
(8.14781e-07 0 0.0003636)
(2.03271e-06 0 0.0003636)
(1.4231e-07 6.61744e-24 0.0003638)
(1.56902e-06 0 0.0003636)
(2.8477e-07 0 0.0003636)
(1.30937e-06 -5.29396e-23 0.0003636)
(5.01448e-07 -1.32349e-23 0.0003636)
(1.11768e-06 0 0.0003636)
(6.69921e-07 0 0.0003638)
(9.64775e-07 0 0.0003636)
(7.8801e-07 2.64698e-23 0.0003636)
(8.6403e-07 2.64698e-23 0.0003636)
(8.91375e-07 -2.64698e-23 0.0003636)
(7.63406e-07 0 0.0003638)
(9.29868e-07 0 0.0003636)
(6.75907e-07 -2.64698e-23 0.0003636)
(9.29841e-07 0 0.0003636)
(6.02742e-07 0 0.0003636)
(9.11709e-07 -2.64698e-23 0.0003636)
(5.41009e-07 0 0.0003638)
(8.78719e-07 0 0.0003636)
(4.87232e-07 1.32349e-23 0.0003636)
(8.33511e-07 0 0.0003636)
(4.37786e-07 0 0.0003636)
(7.7997e-07 0 0.0003638)
(3.9463e-07 -1.32349e-23 0.0003636)
(7.19124e-07 -2.64698e-23 0.0003636)
(3.5566e-07 0 0.0003636)
(6.53619e-07 0 0.0003636)
(3.18118e-07 0 0.0003636)
(5.85241e-07 2.64698e-23 0.0003638)
(2.83238e-07 0 0.0003636)
(5.15557e-07 0 0.0003636)
(2.49459e-07 -6.61744e-24 0.0003636)
(4.46973e-07 -1.32349e-23 0.0003636)
(2.166e-07 6.61744e-24 0.0003638)
(3.76631e-07 0 0.0003636)
(1.83177e-07 0 0.0003636)
(3.07723e-07 0 0.0003636)
(1.48399e-07 0 0.0003636)
(2.36982e-07 0 0.0003636)
(1.08421e-07 0 0.0003638)
(1.59662e-07 0 0.0003636)
(5.88919e-08 1.65436e-24 0.0003636)
(7.36102e-08 0 0.0003636)
(-1.58373e-08 -4.1359e-25 0.0003636)
(-4.15964e-08 0 0.0003638)
(-1.20766e-07 0 0.0003636)
(-1.35502e-07 0 0.0003636)
(-2.09883e-07 0 0.0003636)
(-2.17743e-07 6.61744e-24 0.0003636)
(-2.8892e-07 0 0.0003636)
(-2.92655e-07 0 0.0003638)
(-3.61421e-07 0 0.0003636)
(-3.60611e-07 0 0.0003636)
(-4.26032e-07 0 0.0003636)
(-4.21057e-07 1.32349e-23 0.0003636)
(-4.82459e-07 -1.32349e-23 0.0003638)
(-4.71127e-07 1.32349e-23 0.0003636)
(-5.26484e-07 0 0.0003636)
(-5.09827e-07 0 0.0003636)
(-5.60701e-07 0 0.0003636)
(-5.37449e-07 0 0.0003636)
(-5.80733e-07 0 0.0003638)
(-5.50554e-07 2.64698e-23 0.0003636)
(-5.87913e-07 0 0.0003636)
(-5.17347e-07 -1.32349e-23 0.0003636)
(-5.58252e-07 0 0.0003636)
(-4.13418e-07 -1.32349e-23 0.0003638)
(-5.13357e-07 0 0.0003636)
(-2.29547e-07 0 0.0003636)
(-5.07912e-07 1.32349e-23 0.0003636)
(1.00286e-07 3.30872e-24 0.0003636)
(-5.54597e-07 2.64698e-23 0.0003636)
(6.08696e-07 0 0.0003638)
(-2.07289e-07 0 0.0003636)
(1.27774e-06 -5.29396e-23 0.0003636)
(3.72614e-07 -1.32349e-23 0.0003636)
(7.22268e-07 0 0.0003636)
(7.34795e-07 0 0.0003638)
(7.36074e-07 2.64698e-23 0.0003636)
(7.21734e-07 2.64698e-23 0.0003636)
(7.35731e-07 2.64698e-23 0.0003636)
(7.22932e-07 -2.64698e-23 0.0003636)
(7.29268e-07 0 0.0003636)
(7.28785e-07 2.64698e-23 0.0003638)
(7.29321e-07 0 0.0003636)
(7.26411e-07 0 0.0003636)
(7.29708e-07 0 0.0003636)
(7.22679e-07 0 0.0003636)
(7.36973e-07 0 0.0003638)
(7.26955e-07 2.64698e-23 0.0003636)
(7.3605e-07 0 0.0003636)
(7.28762e-07 -2.64698e-23 0.0003636)
(7.07556e-07 -2.64698e-23 0.0003636)
(6.7066e-07 0 0.0003636)
(7.9009e-07 0 0.0003638)
(6.00717e-07 2.64698e-23 0.0003636)
(9.3603e-07 0 0.0003636)
(3.6067e-07 1.32349e-23 0.0003636)
(1.28007e-06 0 0.0003636)
(-1.64668e-07 -6.61744e-24 0.0003638)
(1.98629e-06 5.29396e-23 0.0003636)
(-1.04023e-06 2.64698e-23 0.0003636)
(3.09142e-06 0 0.0003636)
(-2.1884e-06 1.05879e-22 0.0003636)
(4.04493e-06 0 0.0003636)
(-3.67236e-06 0 0.0003638)
(6.59511e-06 -2.11758e-22 0.0003636)
(7.58129e-06 2.11758e-22 0.0003636)
(-1.93091e-05 0 0.0003636)
(1.00068e-05 0 0.0003636)
(2.39665e-06 0 0.0003638)
(-6.37328e-07 0 0.0003636)
(1.93932e-06 0 0.0003636)
(-3.30169e-07 1.32349e-23 0.0003636)
(1.55206e-06 5.29396e-23 0.0003636)
(1.34753e-07 0 0.0003636)
(1.00079e-06 0 0.0003638)
(7.68257e-07 0 0.0003636)
(3.3292e-07 -1.32349e-23 0.0003636)
(1.47454e-06 0 0.0003636)
(-5.89476e-07 0 0.0003636)
(2.61383e-06 1.05879e-22 0.0003638)
(-2.05579e-06 -5.29396e-23 0.0003636)
(3.86044e-06 0 0.0003636)
(-3.74744e-06 0 0.0003636)
(6.25366e-06 0 0.0003636)
(8.2552e-06 -2.11758e-22 0.0003636)
(-2.03805e-05 0 0.0003638)
(1.04621e-05 4.23516e-22 0.0003636)
(3.17675e-06 2.11758e-22 0.0003636)
(-1.28023e-06 0 0.0003636)
(2.51623e-06 0 0.0003636)
(-8.00745e-07 0 0.0003638)
(2.02199e-06 0 0.0003636)
(-2.85505e-07 -1.32349e-23 0.0003636)
(1.54371e-06 0 0.0003636)
(1.25601e-07 0 0.0003636)
(1.19281e-06 0 0.0003636)
(4.04031e-07 -1.32349e-23 0.0003638)
(9.69757e-07 2.64698e-23 0.0003636)
(5.50899e-07 0 0.0003636)
(8.28021e-07 -2.64698e-23 0.0003636)
(6.39243e-07 -2.64698e-23 0.0003636)
(7.58811e-07 0 0.0003638)
(6.77752e-07 0 0.0003636)
(7.33237e-07 -2.64698e-23 0.0003636)
(7.04866e-07 0 0.0003636)
(7.15981e-07 -2.64698e-23 0.0003636)
(7.09888e-07 0 0.0003636)
(7.25463e-07 0 0.0003638)
(7.18319e-07 -2.64698e-23 0.0003636)
(7.22557e-07 2.64698e-23 0.0003636)
(7.23857e-07 0 0.0003636)
(7.20652e-07 0 0.0003636)
(7.2397e-07 0 0.0003638)
(7.20637e-07 -2.64698e-23 0.0003636)
(7.26386e-07 2.64698e-23 0.0003636)
(7.29455e-07 2.64698e-23 0.0003636)
(7.26114e-07 0 0.0003636)
(7.19477e-07 2.64698e-23 0.0003636)
(7.23404e-07 2.64698e-23 0.0003638)
(7.24859e-07 2.64698e-23 0.0003636)
(7.30604e-07 -2.64698e-23 0.0003636)
(7.29549e-07 0 0.0003636)
(7.21951e-07 0 0.0003636)
(7.30084e-07 0 0.0003638)
(7.25028e-07 0 0.0003636)
(7.17711e-07 0 0.0003636)
(7.27555e-07 0 0.0003636)
(7.2978e-07 0 0.0003636)
(7.28128e-07 0 0.0003636)
(7.33412e-07 0 0.0003638)
(7.17715e-07 0 0.0003636)
(7.29447e-07 0 0.0003636)
(7.31729e-07 0 0.0003636)
(7.13639e-07 -2.64698e-23 0.0003636)
(7.71628e-07 0 0.0003638)
(6.23517e-07 0 0.0003636)
(9.31725e-07 0 0.0003636)
(3.47961e-07 0 0.0003636)
(1.38143e-06 -5.29396e-23 0.0003636)
(-3.5092e-07 0 0.0003636)
(2.40654e-06 0 0.0003638)
(-2.01606e-06 0 0.0003636)
(4.20786e-06 0 0.0003636)
(-5.06873e-06 0 0.0003636)
(7.9013e-06 -2.11758e-22 0.0003636)
(7.81497e-06 -2.11758e-22 0.0003638)
(-2.0988e-05 8.47033e-22 0.0003636)
(9.48295e-06 4.23516e-22 0.0003636)
(5.22223e-06 0 0.0003636)
(-2.41221e-06 0 0.0003636)
(3.08755e-06 1.05879e-22 0.0003636)
(-8.35897e-07 2.64698e-23 0.0003638)
(1.84129e-06 5.29396e-23 0.0003636)
(8.03123e-08 0 0.0003636)
(1.12801e-06 0 0.0003636)
(4.72118e-07 0 0.0003636)
(8.01212e-07 2.64698e-23 0.0003638)
(6.28719e-07 2.64698e-23 0.0003636)
(7.41267e-07 -2.64698e-23 0.0003636)
(6.95104e-07 0 0.0003636)
(7.24006e-07 2.64698e-23 0.0003636)
(7.13522e-07 0 0.0003636)
(7.25172e-07 0 0.0003638)
(7.17067e-07 0 0.0003636)
(7.22367e-07 2.64698e-23 0.0003636)
(7.3462e-07 -2.64698e-23 0.0003636)
(7.20874e-07 0 0.0003636)
(7.26885e-07 2.64698e-23 0.0003638)
(7.19749e-07 0 0.0003636)
(7.2633e-07 2.64698e-23 0.0003636)
(7.23056e-07 0 0.0003636)
(7.17437e-07 0 0.0003636)
(7.29465e-07 -2.64698e-23 0.0003636)
(7.24405e-07 0 0.0003638)
(7.37334e-07 0 0.0003636)
(7.21869e-07 0 0.0003636)
(7.18374e-07 0 0.0003636)
(7.28963e-07 -2.64698e-23 0.0003636)
(7.22436e-07 -2.64698e-23 0.0003638)
(7.31234e-07 2.64698e-23 0.0003636)
(7.21859e-07 0 0.0003636)
(7.19172e-07 0 0.0003636)
(7.3227e-07 0 0.0003636)
(7.2887e-07 0 0.0003636)
(7.29592e-07 -2.64698e-23 0.0003638)
(7.12072e-07 0 0.0003636)
(7.57755e-07 0 0.0003636)
(6.4853e-07 -2.64698e-23 0.0003636)
(8.75814e-07 0 0.0003636)
(4.29144e-07 0 0.0003638)
(1.19665e-06 0 0.0003636)
(-4.5809e-08 0 0.0003636)
(1.90663e-06 -5.29396e-23 0.0003636)
(-1.01185e-06 0 0.0003636)
(3.08655e-06 1.05879e-22 0.0003636)
(-2.25802e-06 1.05879e-22 0.0003638)
(4.54675e-06 -2.11758e-22 0.0003636)
(-3.86462e-06 1.05879e-22 0.0003636)
(5.94706e-06 0 0.0003636)
(-5.51537e-06 0 0.0003636)
(6.68991e-06 0 0.0003638)
(-6.01855e-06 0 0.0003636)
(6.2366e-06 2.11758e-22 0.0003636)
(-5.27326e-06 -2.11758e-22 0.0003636)
(1.26105e-05 -4.23516e-22 0.0003636)
(1.44453e-05 0 0.0003636)
(3.48831e-05 0 0.0003638)
(5.07747e-05 -1.69407e-21 0.0003636)
(7.98642e-05 0 0.0003636)
(0.000116848 -3.38813e-21 0.0003636)
(7.26e-07 0 0.0003636)
(7.28e-07 2.64698e-23 0.0003638)
(7.28e-07 0 0.0003636)
(7.26e-07 -2.64698e-23 0.0003636)
(7.28e-07 0 0.0003636)
(7.26e-07 -2.64698e-23 0.0003636)
(7.28e-07 -2.64698e-23 0.0003636)
(7.28e-07 0 0.0003638)
(7.26e-07 0 0.0003636)
(7.28e-07 -2.64698e-23 0.0003636)
)
;

boundaryField
{
    inlet
    {
        type            calculated;
        value           uniform (0 0 0);
    }
    endWall
    {
        type            calculated;
        value           uniform (0 0 0);
    }
    sideWall
    {
        type            empty;
    }
}


// ************************************************************************* //
