/*--------------------------------*- C++ -*----------------------------------*\
| =========                 |                                                 |
| \\      /  F ield         | foam-extend: Open Source CFD                    |
|  \\    /   O peration     | Version:     3.2                                |
|   \\  /    A nd           | Web:         http://www.foam-extend.org         |
|    \\/     M anipulation  | For copyright notice see file Copyright         |
\*---------------------------------------------------------------------------*/
FoamFile
{
    version     2.0;
    format      ascii;
    class       areaVectorField;
    location    "2020";
    object      q_bed;
}
// * * * * * * * * * * * * * * * * * * * * * * * * * * * * * * * * * * * * * //

dimensions      [0 2 -1 0 0 0 0];

internalField   nonuniform List<vector> 
550
(
(0 0 0)
(0 0 0)
(0 0 0)
(0 0 0)
(2.85472e-07 8.1319e-29 -5.70934e-10)
(7.55313e-07 0 -1.51063e-09)
(1.39335e-06 -3.94897e-28 -2.78663e-09)
(2.1606e-06 -5.8848e-28 -4.3212e-09)
(3.0049e-06 0 -6.01013e-09)
(3.86611e-06 7.34835e-34 -7.73201e-09)
(4.69098e-06 -3.01841e-33 -1.15995e-08)
(5.42422e-06 0 -1.08484e-08)
(6.04722e-06 0 -9.23547e-09)
(6.54825e-06 0 -1.55838e-08)
(6.9034e-06 -1.65549e-27 -1.38068e-08)
(7.13321e-06 -1.61726e-33 -1.15574e-08)
(7.2549e-06 0 -1.64287e-08)
(7.26901e-06 2.41405e-33 -1.62339e-08)
(7.20111e-06 -1.25436e-27 -1.394e-08)
(7.07856e-06 0 -1.38094e-08)
(6.9108e-06 -9.25374e-36 -1.24369e-08)
(6.71387e-06 -9.80738e-28 -1.31781e-08)
(6.49222e-06 -8.99115e-28 -1.29844e-08)
(6.2563e-06 0 -1.15928e-08)
(6.01605e-06 -7.37453e-28 -1.20328e-08)
(5.77436e-06 -6.54371e-28 -1.15487e-08)
(5.53684e-06 5.89497e-28 -1.16045e-08)
(5.30676e-06 0 -1.06118e-08)
(5.08811e-06 7.80121e-35 -9.69098e-09)
(4.88257e-06 0 -9.76407e-09)
(4.68701e-06 0 -9.37349e-09)
(4.50377e-06 3.94083e-28 -9.34342e-09)
(4.33072e-06 -2.71833e-34 -8.97013e-09)
(4.16932e-06 3.28867e-28 -8.31478e-09)
(4.01905e-06 -2.45184e-34 -8.01732e-09)
(3.87975e-06 0 -7.49234e-09)
(3.7508e-06 0 -7.48634e-09)
(3.63125e-06 -2.45782e-28 -7.48139e-09)
(3.51924e-06 -3.12023e-35 -6.81899e-09)
(3.41703e-06 0 -6.82579e-09)
(3.32147e-06 0 -6.82671e-09)
(3.23291e-06 -1.60578e-28 -6.28053e-09)
(3.1515e-06 0 -6.29537e-09)
(3.07619e-06 -1.37852e-28 -6.31075e-09)
(3.00563e-06 0 -6.00234e-09)
(2.94108e-06 0 -5.87666e-09)
(2.88104e-06 0 -5.78531e-09)
(2.81923e-06 6.33087e-29 -5.12496e-09)
(2.77819e-06 3.67035e-34 -7.99025e-09)
(2.71681e-06 -3.41964e-33 -1.09937e-09)
(2.68722e-06 2.30623e-28 -9.70716e-09)
(2.63277e-06 0 -8.7557e-10)
(2.61938e-06 -2.38439e-28 -1.14107e-08)
(2.55228e-06 -4.21086e-31 2.59718e-09)
(2.54888e-06 7.13265e-33 -1.28986e-08)
(2.48718e-06 -2.24688e-33 2.73952e-09)
(2.48805e-06 -5.06382e-28 -1.24265e-08)
(2.43171e-06 -5.63802e-34 2.03297e-09)
(2.06306e-06 -3.4631e-29 -1.03243e-08)
(2.37924e-06 0 2.94847e-09)
(2.38624e-06 1.13121e-31 -1.21777e-08)
(2.33338e-06 -1.33254e-33 2.84411e-09)
(2.34472e-06 0 -1.23528e-08)
(1.62563e-06 0 1.31362e-09)
(1.60484e-06 2.97815e-28 -7.85186e-09)
(2.258e-06 -1.33826e-28 2.95868e-09)
(2.27165e-06 0 -1.17509e-08)
(2.2255e-06 5.61418e-29 2.34252e-09)
(1.41502e-06 0 -7.44138e-09)
(2.19235e-06 -5.76183e-33 2.95596e-09)
(2.20405e-06 0 -1.03056e-08)
(2.15945e-06 0 4.02305e-09)
(1.97344e-06 -4.28939e-32 -7.32345e-09)
(1.68498e-06 0 1.92754e-09)
(1.60377e-06 5.80396e-32 2.31202e-09)
(1.76004e-06 0 3.26842e-08)
(2.30886e-06 -2.83854e-26 -6.38546e-08)
(2.1199e-06 0 -1.27339e-08)
(1.65813e-06 9.54866e-33 5.57402e-09)
(1.40573e-06 0 -7.45256e-09)
(1.54737e-06 2.38833e-28 2.84921e-09)
(1.64569e-06 0 -7.69897e-09)
(2.00866e-06 1.44761e-29 3.73525e-10)
(2.01589e-06 0 -7.06211e-09)
(1.98718e-06 -3.52042e-29 -3.58211e-09)
(1.53227e-06 6.79148e-29 1.37486e-09)
(1.49421e-06 0 -4.46231e-09)
(1.54451e-06 -7.65874e-29 1.36523e-09)
(1.51818e-06 -5.58045e-30 -1.62421e-09)
(1.94707e-06 0 -5.27158e-10)
(1.94961e-06 -5.01564e-28 -7.36642e-09)
(1.91713e-06 0 3.72036e-09)
(1.44253e-06 0 -4.51699e-09)
(1.4062e-06 0 2.3451e-09)
(1.50862e-06 8.79566e-29 -2.75179e-09)
(1.42067e-06 1.30732e-30 1.50107e-09)
(1.89652e-06 5.48521e-29 -1.26977e-09)
(1.88978e-06 1.52647e-29 2.30027e-10)
(1.86378e-06 0 2.6691e-09)
(1.59886e-06 0 1.75985e-08)
(1.45197e-06 -1.156e-28 -3.60574e-09)
(1.34143e-06 2.343e-31 1.78916e-08)
(1.41307e-06 -9.99787e-31 -4.91487e-08)
(1.86167e-06 0 -1.05912e-08)
(1.76316e-06 0 2.44129e-08)
(1.83512e-06 0 -5.28199e-09)
(1.74087e-06 1.22683e-27 1.91681e-08)
(1.55623e-06 -6.04746e-30 3.15732e-09)
(1.39296e-06 0 -1.53617e-09)
(1.59787e-06 0 7.24027e-09)
(1.58587e-06 1.1797e-28 -3.32246e-09)
(1.80797e-06 0 6.42283e-09)
(1.81682e-06 6.37908e-32 2.17566e-09)
(1.81694e-06 1.25501e-28 3.2281e-09)
(1.81163e-06 0 -6.75835e-11)
(1.56506e-06 -1.1373e-28 8.24313e-09)
(1.58519e-06 0 -1.51281e-09)
(1.56522e-06 -4.91768e-27 3.24492e-08)
(1.09346e-06 7.15312e-31 -4.35288e-08)
(1.68922e-06 0 1.67171e-08)
(1.69333e-06 0 2.06357e-08)
(1.68559e-06 -8.98083e-28 1.33512e-08)
(1.65502e-06 0 2.81852e-08)
(1.52825e-06 -7.17021e-27 -3.4594e-08)
(1.69467e-06 -1.54111e-28 9.35074e-09)
(1.67442e-06 0 1.92549e-08)
(1.69649e-06 0 2.02605e-08)
(1.66259e-06 -1.84726e-27 2.13043e-08)
(1.51733e-06 6.72094e-31 -4.39628e-08)
(1.69248e-06 6.5264e-28 1.17376e-08)
(1.68326e-06 0 1.11524e-08)
(1.66819e-06 1.90533e-28 1.38062e-08)
(1.66665e-06 0 1.61456e-08)
(1.65704e-06 1.55884e-32 2.08044e-08)
(1.66955e-06 0 2.02834e-08)
(1.65688e-06 0 2.71281e-08)
(1.69099e-06 -2.94255e-27 3.56125e-08)
(1.68045e-06 0 4.16015e-10)
(1.67473e-06 0 6.07429e-09)
(1.67677e-06 0 7.87201e-09)
(1.67722e-06 0 1.03165e-08)
(1.68273e-06 1.53525e-28 1.09797e-08)
(1.68479e-06 1.11678e-33 1.1425e-08)
(1.69015e-06 -5.41039e-29 1.05326e-08)
(1.69171e-06 1.00887e-28 1.09813e-08)
(1.69694e-06 -1.19051e-29 9.7643e-09)
(1.69773e-06 0 1.01457e-08)
(1.70262e-06 5.05597e-31 8.71013e-09)
(1.70247e-06 -3.95025e-34 9.12e-09)
(1.707e-06 -9.34967e-30 7.61426e-09)
(1.70586e-06 0 8.13494e-09)
(1.71018e-06 -1.63791e-33 6.6801e-09)
(1.7081e-06 0 7.13652e-09)
(1.71208e-06 2.0272e-29 5.7352e-09)
(1.70908e-06 0 6.20246e-09)
(1.71284e-06 0 4.71926e-09)
(1.70865e-06 8.21453e-34 5.45294e-09)
(1.71285e-06 -2.45296e-29 2.95044e-09)
(1.70541e-06 -7.72174e-30 5.13293e-09)
(1.71341e-06 7.89617e-34 -1.79595e-10)
(1.69667e-06 0 6.38875e-09)
(1.7187e-06 0 -4.28224e-09)
(1.6901e-06 0 7.02038e-09)
(1.72578e-06 1.71012e-32 -8.45481e-09)
(1.68542e-06 -2.11028e-28 6.4226e-09)
(1.73077e-06 4.14818e-32 -1.25748e-08)
(1.68274e-06 -8.49406e-29 2.73546e-09)
(1.72642e-06 0 -1.58711e-08)
(1.6835e-06 -7.63401e-29 -4.01583e-09)
(1.72164e-06 -9.94668e-28 -1.89156e-08)
(1.68286e-06 0 1.67219e-10)
(1.69792e-06 -8.90605e-33 -8.55486e-09)
(1.66491e-06 0 2.69713e-10)
(1.67212e-06 9.55299e-29 -5.4383e-09)
(1.64607e-06 1.91038e-34 3.50238e-10)
(1.64802e-06 0 -3.0714e-09)
(1.62877e-06 -2.48798e-34 6.88467e-10)
(1.62744e-06 3.25614e-30 -1.14396e-09)
(1.61353e-06 -7.02312e-34 1.46341e-09)
(1.61212e-06 -1.63658e-31 1.35336e-10)
(1.6013e-06 0 2.44308e-09)
(1.60224e-06 1.39793e-30 8.75695e-10)
(1.59346e-06 0 3.03694e-09)
(1.59602e-06 0 1.36244e-09)
(1.58869e-06 0 3.42036e-09)
(1.59236e-06 3.2719e-30 1.68508e-09)
(1.58609e-06 2.33769e-29 3.66556e-09)
(1.59051e-06 0 1.89543e-09)
(1.58502e-06 0 3.82096e-09)
(1.58995e-06 0 2.02136e-09)
(1.58502e-06 2.24378e-29 3.89248e-09)
(1.59025e-06 0 2.08548e-09)
(1.58575e-06 -9.66455e-34 3.91147e-09)
(1.59114e-06 3.99728e-30 2.0845e-09)
(1.58692e-06 -9.37239e-34 3.85805e-09)
(1.59238e-06 4.33747e-30 2.01885e-09)
(1.58834e-06 -2.00497e-29 3.74616e-09)
(1.59379e-06 4.60684e-30 1.9177e-09)
(1.58986e-06 -1.89089e-29 3.59456e-09)
(1.59525e-06 5.12337e-34 1.79152e-09)
(1.59139e-06 0 3.42737e-09)
(1.59667e-06 -5.07866e-30 1.64631e-09)
(1.59284e-06 0 3.24445e-09)
(1.59799e-06 -5.27445e-30 1.49408e-09)
(1.59417e-06 1.59457e-29 3.0612e-09)
(1.59916e-06 0 1.3413e-09)
(1.59533e-06 0 2.88055e-09)
(1.60016e-06 0 1.19048e-09)
(1.5963e-06 0 2.70321e-09)
(1.60096e-06 -4.66779e-34 1.03733e-09)
(1.59707e-06 0 2.52111e-09)
(1.60157e-06 2.95299e-30 8.83475e-10)
(1.59765e-06 3.8155e-34 2.34717e-09)
(1.602e-06 0 7.35159e-10)
(1.59805e-06 6.04954e-30 2.18529e-09)
(1.60229e-06 0 5.97064e-10)
(1.59833e-06 -5.74901e-30 2.02823e-09)
(1.60247e-06 0 4.69365e-10)
(1.59853e-06 0 1.89337e-09)
(1.60261e-06 1.05181e-34 3.61329e-10)
(1.5987e-06 0 1.78424e-09)
(1.60276e-06 0 2.72853e-10)
(1.59892e-06 0 1.69954e-09)
(1.60299e-06 -1.01225e-34 2.14452e-10)
(1.59924e-06 -5.95083e-30 1.65436e-09)
(1.60336e-06 0 1.76678e-10)
(1.59971e-06 -3.79347e-34 1.62504e-09)
(1.60393e-06 6.36565e-31 1.4784e-10)
(1.60038e-06 0 1.60388e-09)
(1.60472e-06 1.0031e-34 1.19965e-10)
(1.60128e-06 0 1.58149e-09)
(1.60577e-06 2.81014e-31 9.76574e-11)
(1.60243e-06 7.33105e-30 1.56771e-09)
(1.60708e-06 5.01078e-35 8.05305e-11)
(1.60383e-06 0 1.57012e-09)
(1.60867e-06 0 8.32744e-11)
(1.60552e-06 0 1.58528e-09)
(1.61054e-06 -2.12754e-31 9.91393e-11)
(1.60748e-06 8.70495e-30 1.62359e-09)
(1.61268e-06 0 1.32533e-10)
(1.60971e-06 -9.25697e-30 1.68305e-09)
(1.61509e-06 0 1.82402e-10)
(1.61222e-06 4.2477e-34 1.77884e-09)
(1.6178e-06 0 2.59508e-10)
(1.615e-06 0 1.8893e-09)
(1.62078e-06 0 3.35599e-10)
(1.618e-06 0 1.99868e-09)
(1.62394e-06 0 3.90629e-10)
(1.62108e-06 1.09407e-29 2.10959e-09)
(1.6272e-06 0 4.23784e-10)
(1.6242e-06 1.12424e-29 2.23568e-09)
(1.63058e-06 -2.42576e-34 4.19563e-10)
(1.62727e-06 -2.33045e-29 2.4016e-09)
(1.63412e-06 -7.94076e-31 3.49144e-10)
(1.63016e-06 2.55161e-29 2.66852e-09)
(1.63798e-06 -1.61682e-34 1.71634e-10)
(1.63267e-06 -3.10119e-29 3.11819e-09)
(1.64248e-06 -9.59677e-31 -1.79275e-10)
(1.63481e-06 4.08475e-29 3.78899e-09)
(1.64797e-06 6.76695e-30 -7.36021e-10)
(1.63679e-06 -5.41578e-29 4.64144e-09)
(1.65455e-06 0 -1.52972e-09)
(1.63916e-06 -3.74298e-33 5.42608e-09)
(1.66176e-06 5.53641e-29 -2.47127e-09)
(1.64185e-06 1.57274e-28 6.06194e-09)
(1.66906e-06 0 -3.46837e-09)
(1.64477e-06 1.75773e-28 6.43912e-09)
(1.6757e-06 8.36224e-29 -4.40035e-09)
(1.6479e-06 -1.84976e-28 6.39863e-09)
(1.68074e-06 -1.834e-28 -5.08421e-09)
(1.65114e-06 -1.79492e-28 5.80253e-09)
(1.68306e-06 1.82159e-28 -5.26643e-09)
(1.65442e-06 7.65663e-29 4.54187e-09)
(1.68141e-06 4.84558e-33 -4.65685e-09)
(1.6577e-06 5.07024e-29 2.61259e-09)
(1.67464e-06 -4.78887e-29 -2.9482e-09)
(1.66078e-06 0 2.88719e-10)
(1.66233e-06 4.38995e-36 -2.86193e-11)
(1.6634e-06 -1.15958e-29 -1.53605e-09)
(1.65075e-06 1.02063e-33 2.54522e-09)
(1.67323e-06 3.42731e-33 -4.61807e-09)
(1.64006e-06 0 1.69954e-09)
(1.68234e-06 -3.64728e-33 -8.90429e-09)
(1.63194e-06 0 -1.87766e-08)
(1.70332e-06 0 1.07482e-07)
(1.73221e-06 1.14799e-31 -1.57822e-08)
(1.69213e-06 1.12433e-32 -3.79185e-09)
(1.71873e-06 -1.22025e-32 -9.60862e-09)
(1.68558e-06 -2.00904e-30 -6.59358e-10)
(1.70306e-06 7.81489e-33 -7.34911e-09)
(1.67907e-06 1.57045e-33 -1.31504e-09)
(1.68987e-06 9.83178e-29 -6.08545e-09)
(1.67354e-06 -7.97059e-30 -2.308e-09)
(1.67926e-06 1.56441e-33 -5.16191e-09)
(1.66883e-06 0 -3.07308e-09)
(1.67071e-06 -7.68426e-34 -4.43306e-09)
(1.66471e-06 -5.96046e-30 -3.60784e-09)
(1.66368e-06 -8.89878e-30 -3.95343e-09)
(1.66098e-06 6.71108e-30 -4.07195e-09)
(1.65789e-06 0 -3.47896e-09)
(1.65747e-06 -4.58735e-34 -4.23881e-09)
(1.65302e-06 -5.09484e-30 -3.07284e-09)
(1.65413e-06 0 -4.23014e-09)
(1.64876e-06 8.41997e-34 -2.73317e-09)
(1.65089e-06 1.40821e-29 -4.13952e-09)
(1.645e-06 0 -2.44629e-09)
(1.64775e-06 0 -3.98215e-09)
(1.64164e-06 6.97681e-30 -2.19984e-09)
(1.64472e-06 8.39676e-34 -3.77033e-09)
(1.63862e-06 5.08589e-34 -1.97296e-09)
(1.64182e-06 0 -3.51999e-09)
(1.63593e-06 -7.39873e-30 -1.77555e-09)
(1.63909e-06 1.10235e-29 -3.24177e-09)
(1.63356e-06 0 -1.59789e-09)
(1.63656e-06 0 -2.94193e-09)
(1.63149e-06 0 -1.42741e-09)
(1.63426e-06 -7.17553e-30 -2.62902e-09)
(1.62975e-06 3.85068e-34 -1.26955e-09)
(1.63225e-06 0 -2.31441e-09)
(1.62833e-06 -3.29864e-30 -1.11717e-09)
(1.63056e-06 1.55772e-30 -2.00444e-09)
(1.62724e-06 3.1468e-30 -9.6883e-10)
(1.62916e-06 0 -1.68754e-09)
(1.62644e-06 -1.25322e-34 -8.19379e-10)
(1.62804e-06 0 -1.37784e-09)
(1.62587e-06 1.04236e-34 -6.63582e-10)
(1.62711e-06 0 -1.0605e-09)
(1.62545e-06 0 -4.84423e-10)
(1.62631e-06 0 -7.14136e-10)
(1.62512e-06 5.52465e-31 -2.63219e-10)
(1.62556e-06 0 -3.29092e-10)
(1.62475e-06 -1.56699e-31 7.07691e-11)
(1.62494e-06 0 1.85793e-10)
(1.62481e-06 -2.09801e-35 5.39662e-10)
(1.62558e-06 0 6.05799e-10)
(1.62589e-06 4.20069e-35 9.38521e-10)
(1.6271e-06 2.44976e-30 9.7439e-10)
(1.62771e-06 0 1.2934e-09)
(1.62923e-06 0 1.31062e-09)
(1.63008e-06 0 1.62031e-09)
(1.63183e-06 -3.49405e-35 1.61842e-09)
(1.63285e-06 0 1.91322e-09)
(1.63478e-06 5.42616e-30 1.89311e-09)
(1.63593e-06 -7.77061e-30 2.16952e-09)
(1.638e-06 5.39703e-30 2.1224e-09)
(1.63924e-06 0 2.37358e-09)
(1.64137e-06 0 2.30148e-09)
(1.64266e-06 0 2.53312e-09)
(1.64484e-06 -2.9019e-35 2.43128e-09)
(1.64615e-06 0 2.62775e-09)
(1.64832e-06 9.65085e-30 2.49584e-09)
(1.64963e-06 0 2.66733e-09)
(1.65174e-06 -3.39537e-30 2.35017e-09)
(1.65276e-06 0 2.53755e-09)
(1.65493e-06 -1.92396e-30 1.88065e-09)
(1.655e-06 0 2.33664e-09)
(1.65809e-06 -3.90385e-34 1.04678e-09)
(1.6557e-06 8.01541e-30 2.31285e-09)
(1.66203e-06 -2.25619e-30 -4.5841e-10)
(1.65423e-06 3.49173e-29 2.52319e-09)
(1.66778e-06 0 -2.79046e-09)
(1.65511e-06 0 9.43583e-10)
(1.67085e-06 1.8334e-28 -5.87157e-09)
(1.64898e-06 -2.01312e-30 -1.68986e-09)
(1.64741e-06 0 -3.27248e-09)
(1.63803e-06 0 -3.30844e-09)
(1.62848e-06 -1.88619e-29 -3.2967e-09)
(1.61833e-06 -1.28965e-29 -3.21232e-09)
(1.6088e-06 -1.27228e-29 -3.25534e-09)
(1.59893e-06 9.95427e-30 -3.17908e-09)
(1.5896e-06 5.42913e-35 -3.18823e-09)
(1.58021e-06 -9.47678e-30 -3.16558e-09)
(1.57112e-06 4.18719e-35 -3.15141e-09)
(1.56209e-06 0 -3.12079e-09)
(1.55337e-06 4.29914e-35 -3.11746e-09)
(1.54465e-06 3.10447e-35 -3.0701e-09)
(1.53639e-06 0 -3.11237e-09)
(1.52791e-06 -7.13002e-30 -3.05479e-09)
(1.51983e-06 -6.14496e-35 -3.07665e-09)
(1.51178e-06 6.97521e-30 -3.03004e-09)
(1.5034e-06 8.74155e-31 -2.92557e-09)
(1.49618e-06 0 -2.7597e-09)
(1.48934e-06 3.27992e-34 -3.23449e-09)
(1.4809e-06 -9.49968e-31 -2.44666e-09)
(1.47578e-06 0 -3.79916e-09)
(1.46388e-06 5.59131e-30 -1.45209e-09)
(1.46465e-06 0 -5.15639e-09)
(1.44367e-06 -9.79526e-30 6.53454e-10)
(1.45846e-06 -1.56576e-28 -7.96735e-09)
(1.41834e-06 9.22845e-29 4.05774e-09)
(1.45821e-06 0 -1.23981e-08)
(1.38613e-06 6.89134e-28 8.34274e-09)
(1.45896e-06 0 -1.62304e-08)
(1.34684e-06 0 1.35956e-08)
(1.50537e-06 5.72973e-27 -2.7305e-08)
(1.42641e-06 -3.54744e-27 -2.97415e-08)
(1.6058e-06 0 8.52768e-08)
(1.5029e-06 4.40852e-31 -4.13621e-08)
(1.33983e-06 0 -8.82654e-09)
(1.2999e-06 0 2.2785e-09)
(1.31344e-06 7.69469e-33 -7.00547e-09)
(1.27724e-06 3.99842e-29 1.1598e-09)
(1.29508e-06 -9.85209e-29 -5.52819e-09)
(1.27023e-06 1.22706e-33 -4.70759e-10)
(1.28125e-06 0 -3.52465e-09)
(1.27191e-06 0 -2.68745e-09)
(1.26953e-06 -9.9988e-30 -1.16241e-09)
(1.27687e-06 0 -5.17821e-09)
(1.25606e-06 0 2.03634e-09)
(1.28823e-06 -4.0551e-28 -9.25569e-09)
(1.23312e-06 -3.04987e-28 6.97204e-09)
(1.30511e-06 0 -1.38567e-08)
(1.20333e-06 -4.85214e-32 1.24021e-08)
(1.35766e-06 0 -2.33509e-08)
(1.30313e-06 3.58112e-27 -2.95864e-08)
(1.49268e-06 0 8.36215e-08)
(1.38452e-06 -1.51609e-26 -3.98375e-08)
(1.22654e-06 -2.09689e-27 -1.07162e-08)
(1.17359e-06 0 4.13218e-09)
(1.20344e-06 0 -8.32821e-09)
(1.15773e-06 0 2.54824e-09)
(1.18825e-06 0 -6.60792e-09)
(1.15603e-06 -3.23276e-29 9.07733e-10)
(1.17855e-06 0 -5.00369e-09)
(1.15897e-06 0 -4.00349e-10)
(1.17339e-06 0 -3.84938e-09)
(1.16275e-06 -1.32485e-29 -1.29133e-09)
(1.17102e-06 -2.84001e-30 -3.12322e-09)
(1.16551e-06 7.65744e-34 -1.76589e-09)
(1.16989e-06 -3.05007e-30 -2.66416e-09)
(1.16733e-06 -1.00628e-29 -2.05228e-09)
(1.16912e-06 0 -2.43855e-09)
(1.16781e-06 1.49433e-34 -2.1768e-09)
(1.16821e-06 -4.91926e-30 -2.35582e-09)
(1.16735e-06 0 -2.263e-09)
(1.16691e-06 -4.44871e-30 -2.29782e-09)
(1.16604e-06 0 -2.27657e-09)
(1.16524e-06 -2.25925e-35 -2.32363e-09)
(1.16393e-06 -2.87764e-30 -2.29943e-09)
(1.16259e-06 2.36975e-30 -2.31033e-09)
(1.16101e-06 0 -2.31135e-09)
(1.15925e-06 0 -2.29762e-09)
(1.1574e-06 0 -2.30324e-09)
(1.15534e-06 -1.53673e-30 -2.28983e-09)
(1.15326e-06 8.71072e-31 -2.30394e-09)
(1.15099e-06 6.236e-31 -2.30912e-09)
(1.14852e-06 0 -2.29361e-09)
(1.14593e-06 9.62165e-31 -2.26753e-09)
(1.14336e-06 4.38488e-31 -2.27353e-09)
(1.14066e-06 1.45239e-31 -2.27397e-09)
(1.13785e-06 2.56014e-31 -2.28636e-09)
(1.13484e-06 0 -2.27702e-09)
(1.1317e-06 -6.52175e-36 -2.24705e-09)
(1.12865e-06 1.26093e-35 -2.26501e-09)
(1.12535e-06 0 -2.24399e-09)
(1.12202e-06 0 -2.21475e-09)
(1.11881e-06 0 -2.23871e-09)
(1.11544e-06 -8.14142e-36 -2.2388e-09)
(1.11199e-06 0 -2.22682e-09)
(1.10858e-06 0 -2.23488e-09)
(1.10493e-06 0 -2.18103e-09)
(1.10184e-06 0 -2.2105e-09)
(1.09819e-06 0 -2.21006e-09)
(1.09519e-06 1.87674e-30 -2.14952e-09)
(1.09162e-06 0 -2.31536e-09)
(1.08787e-06 0 -1.86553e-09)
(1.08603e-06 -5.5717e-34 -2.78296e-09)
(1.07847e-06 0 -1.03208e-09)
(1.08292e-06 4.47e-29 -4.11437e-09)
(1.06344e-06 0 1.02635e-09)
(1.08541e-06 0 -7.18001e-09)
(1.03426e-06 0 5.73466e-09)
(1.10005e-06 3.94018e-32 -1.27306e-08)
(9.84089e-07 0 1.37186e-08)
(1.16648e-06 5.3195e-27 -2.53485e-08)
(1.09551e-06 2.89865e-27 -2.35332e-08)
(1.35506e-06 5.19702e-26 7.82179e-08)
(1.15681e-06 -1.2052e-26 -3.01705e-08)
(1.04167e-06 -4.22394e-32 -1.49611e-08)
(9.46215e-07 0 6.27743e-09)
(9.96836e-07 -4.43164e-28 -8.46475e-09)
(9.39125e-07 8.11634e-29 2.15781e-09)
(9.65927e-07 -8.08359e-29 -4.89152e-09)
(9.36538e-07 0 -2.06863e-10)
(9.46206e-07 0 -2.93544e-09)
(9.33001e-07 -9.32414e-34 -1.21146e-09)
(9.34721e-07 4.53961e-30 -2.05858e-09)
(9.29134e-07 7.62069e-30 -1.60661e-09)
(9.28041e-07 -4.14634e-30 -1.89199e-09)
(9.24391e-07 0 -1.76718e-09)
(9.21837e-07 4.29121e-30 -1.83558e-09)
(9.1866e-07 0 -1.80276e-09)
(9.15633e-07 0 -1.82515e-09)
(9.12187e-07 0 -1.79895e-09)
(9.087e-07 2.34352e-30 -1.80532e-09)
(9.04984e-07 -1.46385e-30 -1.82844e-09)
(9.0073e-07 0 -1.78579e-09)
(8.96409e-07 1.26274e-30 -1.79106e-09)
(8.91711e-07 -5.76816e-36 -1.76515e-09)
(8.86901e-07 3.91254e-31 -1.77168e-09)
(8.81721e-07 0 -1.75339e-09)
(8.76299e-07 0 -1.72907e-09)
(8.70812e-07 7.13117e-31 -1.74705e-09)
(8.6489e-07 0 -1.72219e-09)
(8.58916e-07 0 -1.74177e-09)
(8.52437e-07 0 -1.69237e-09)
(8.45981e-07 0 -1.67143e-09)
(8.39517e-07 1.49468e-30 -1.6831e-09)
(8.32707e-07 1.23064e-30 -1.65359e-09)
(8.25941e-07 -1.75902e-30 -1.66104e-09)
(8.18826e-07 0 -1.62562e-09)
(8.11742e-07 0 -1.60556e-09)
(8.04686e-07 -2.35379e-35 -1.62059e-09)
(7.97466e-07 -5.15895e-36 -1.5986e-09)
(7.90056e-07 3.82692e-31 -1.58444e-09)
(7.82731e-07 0 -1.5329e-09)
(7.7561e-07 0 -1.6164e-09)
(7.67328e-07 1.55136e-30 -1.36863e-09)
(7.61706e-07 0 -1.83474e-09)
(7.4985e-07 0 -8.84535e-10)
(7.4965e-07 -1.80049e-33 -2.46718e-09)
(7.2904e-07 0 9.18499e-11)
(7.40537e-07 6.79807e-29 -3.88319e-09)
(7.01305e-07 0 1.95163e-09)
(7.34556e-07 -2.92596e-28 -6.23554e-09)
(6.68308e-07 2.85471e-28 4.14804e-09)
(7.29063e-07 9.77857e-28 -9.11679e-09)
(6.29775e-07 4.45606e-28 6.69374e-09)
(7.23039e-07 0 -1.18261e-08)
(5.93438e-07 3.78688e-32 9.00174e-09)
(7.17671e-07 0 -1.31972e-08)
(5.81534e-07 0 9.62594e-09)
(7.19515e-07 -8.20816e-28 -1.23414e-08)
(6.15955e-07 -2.45123e-27 8.93315e-09)
(8.56147e-07 3.17406e-27 -2.96931e-08)
(8.9061e-07 -2.45178e-31 -3.53826e-08)
(1.12803e-06 0 -1.08162e-07)
(1.15741e-06 1.30635e-25 -1.61626e-07)
(1.4073e-06 4.87172e-30 -3.09111e-07)
(1.35114e-06 1.19989e-24 -4.34208e-07)
(0 0 0)
(0 0 0)
(0 0 0)
(0 0 0)
(0 0 0)
(0 0 0)
(0 0 0)
(0 0 0)
(0 0 0)
(0 0 0)
)
;

boundaryField
{
    inlet
    {
        type            zeroGradient;
    }
    endWall
    {
        type            zeroGradient;
    }
    sideWall
    {
        type            empty;
    }
}


// ************************************************************************* //
