/*--------------------------------*- C++ -*----------------------------------*\
| =========                 |                                                 |
| \\      /  F ield         | foam-extend: Open Source CFD                    |
|  \\    /   O peration     | Version:     3.2                                |
|   \\  /    A nd           | Web:         http://www.foam-extend.org         |
|    \\/     M anipulation  | For copyright notice see file Copyright         |
\*---------------------------------------------------------------------------*/
FoamFile
{
    version     2.0;
    format      ascii;
    class       edgeScalarField;
    location    "2020";
    object      q_f;
}
// * * * * * * * * * * * * * * * * * * * * * * * * * * * * * * * * * * * * * //

dimensions      [0 3 -1 0 0 0 0];

internalField   nonuniform List<scalar> 
549
(
0
0
0
2.85472e-09
1.04079e-08
2.14867e-08
3.55396e-08
5.16553e-08
6.871e-08
8.55711e-08
1.01152e-07
1.14715e-07
1.25955e-07
1.34517e-07
1.40366e-07
1.43881e-07
1.4524e-07
1.44702e-07
1.42797e-07
1.39894e-07
1.36247e-07
1.32061e-07
1.27485e-07
1.22724e-07
1.17904e-07
1.13112e-07
1.08436e-07
1.03949e-07
9.9707e-08
9.56959e-08
9.1908e-08
8.83451e-08
8.50005e-08
8.18838e-08
7.89881e-08
7.63057e-08
7.38207e-08
7.15051e-08
6.93629e-08
6.73851e-08
6.55439e-08
6.38442e-08
6.2277e-08
6.08184e-08
5.94672e-08
5.82213e-08
5.70028e-08
5.59743e-08
5.49501e-08
5.40405e-08
5.32001e-08
5.25217e-08
5.17168e-08
5.10119e-08
5.03609e-08
4.97526e-08
4.9198e-08
4.4947e-08
4.44233e-08
4.76551e-08
4.71965e-08
4.67813e-08
3.97057e-08
3.23049e-08
3.86287e-08
4.52968e-08
4.49718e-08
3.64077e-08
3.60761e-08
4.39643e-08
4.36353e-08
4.13291e-08
3.65844e-08
3.28878e-08
3.36414e-08
4.07003e-08
4.42964e-08
3.77807e-08
3.06397e-08
2.95317e-08
3.19308e-08
3.65437e-08
4.02456e-08
4.00308e-08
3.51958e-08
3.02647e-08
3.03873e-08
3.06269e-08
3.46525e-08
3.89669e-08
3.86675e-08
3.35966e-08
2.84874e-08
2.91483e-08
2.9293e-08
3.31707e-08
3.78631e-08
3.75356e-08
3.46275e-08
3.05093e-08
2.79356e-08
2.75548e-08
3.27576e-08
3.62503e-08
3.59847e-08
3.57611e-08
3.29725e-08
2.94915e-08
2.99085e-08
3.18376e-08
3.39386e-08
3.6248e-08
3.63376e-08
3.62857e-08
3.37671e-08
3.15027e-08
3.15075e-08
2.66015e-08
2.78401e-08
3.38276e-08
3.3791e-08
3.3409e-08
3.18394e-08
3.22339e-08
3.36922e-08
3.37115e-08
3.35934e-08
3.18072e-08
3.21048e-08
3.37582e-08
3.35155e-08
3.33498e-08
3.32389e-08
3.32684e-08
3.32678e-08
3.34847e-08
3.37181e-08
3.35519e-08
3.35154e-08
3.35404e-08
3.36001e-08
3.36759e-08
3.37502e-08
3.38193e-08
3.38872e-08
3.39474e-08
3.40041e-08
3.40514e-08
3.40951e-08
3.4129e-08
3.41607e-08
3.41831e-08
3.42021e-08
3.42118e-08
3.42193e-08
3.4215e-08
3.4215e-08
3.41827e-08
3.41883e-08
3.41009e-08
3.41539e-08
3.40883e-08
3.41592e-08
3.41124e-08
3.41625e-08
3.41356e-08
3.40922e-08
3.40998e-08
3.40525e-08
3.40461e-08
3.3808e-08
3.36285e-08
3.33703e-08
3.31819e-08
3.29409e-08
3.27679e-08
3.25621e-08
3.24098e-08
3.22566e-08
3.21342e-08
3.20354e-08
3.1957e-08
3.18948e-08
3.18471e-08
3.18106e-08
3.17846e-08
3.17661e-08
3.17554e-08
3.17497e-08
3.17497e-08
3.17528e-08
3.176e-08
3.17689e-08
3.17807e-08
3.17931e-08
3.18073e-08
3.18214e-08
3.18366e-08
3.18511e-08
3.18664e-08
3.18806e-08
3.18952e-08
3.19084e-08
3.19216e-08
3.19334e-08
3.1945e-08
3.1955e-08
3.19646e-08
3.19727e-08
3.19804e-08
3.19865e-08
3.19922e-08
3.19965e-08
3.20006e-08
3.20034e-08
3.20062e-08
3.2008e-08
3.201e-08
3.20114e-08
3.20131e-08
3.20146e-08
3.20168e-08
3.20191e-08
3.20223e-08
3.2026e-08
3.20307e-08
3.20364e-08
3.20431e-08
3.20511e-08
3.206e-08
3.20704e-08
3.20819e-08
3.20951e-08
3.21091e-08
3.2125e-08
3.21419e-08
3.21606e-08
3.21802e-08
3.22016e-08
3.22239e-08
3.2248e-08
3.22731e-08
3.23002e-08
3.23281e-08
3.23579e-08
3.23878e-08
3.24194e-08
3.24502e-08
3.24829e-08
3.25141e-08
3.25478e-08
3.25786e-08
3.26139e-08
3.26428e-08
3.26814e-08
3.27065e-08
3.27515e-08
3.27729e-08
3.28278e-08
3.28476e-08
3.29134e-08
3.29371e-08
3.30093e-08
3.30362e-08
3.31092e-08
3.31385e-08
3.32051e-08
3.32362e-08
3.32866e-08
3.3319e-08
3.33421e-08
3.3375e-08
3.33585e-08
3.33911e-08
3.33235e-08
3.33542e-08
3.32311e-08
3.32574e-08
3.31416e-08
3.32399e-08
3.3133e-08
3.32243e-08
3.31442e-08
3.3387e-08
3.43901e-08
3.42442e-08
3.4109e-08
3.40435e-08
3.38866e-08
3.38215e-08
3.36895e-08
3.36342e-08
3.35281e-08
3.34811e-08
3.33955e-08
3.33544e-08
3.3284e-08
3.32467e-08
3.31889e-08
3.31537e-08
3.3105e-08
3.30716e-08
3.3029e-08
3.29966e-08
3.2959e-08
3.29276e-08
3.2894e-08
3.28637e-08
3.28335e-08
3.28045e-08
3.27776e-08
3.27503e-08
3.27265e-08
3.27013e-08
3.26805e-08
3.26576e-08
3.26402e-08
3.262e-08
3.26059e-08
3.25889e-08
3.2578e-08
3.2564e-08
3.2556e-08
3.25448e-08
3.25391e-08
3.25299e-08
3.25257e-08
3.25176e-08
3.25143e-08
3.25068e-08
3.25031e-08
3.24969e-08
3.24975e-08
3.25039e-08
3.25147e-08
3.25298e-08
3.25481e-08
3.25694e-08
3.25931e-08
3.26191e-08
3.26468e-08
3.26763e-08
3.27072e-08
3.27393e-08
3.27724e-08
3.28062e-08
3.28404e-08
3.2875e-08
3.29099e-08
3.29447e-08
3.29795e-08
3.30137e-08
3.3045e-08
3.30769e-08
3.30993e-08
3.31309e-08
3.3138e-08
3.31773e-08
3.31626e-08
3.32201e-08
3.32289e-08
3.32597e-08
3.31984e-08
3.29639e-08
3.28545e-08
3.26651e-08
3.24681e-08
3.22713e-08
3.20773e-08
3.18853e-08
3.16982e-08
3.15134e-08
3.13322e-08
3.11546e-08
3.09803e-08
3.08105e-08
3.0643e-08
3.04774e-08
3.03161e-08
3.01518e-08
2.99958e-08
2.98552e-08
2.97024e-08
2.95669e-08
2.93967e-08
2.92855e-08
2.90834e-08
2.90216e-08
2.87683e-08
2.87661e-08
2.84442e-08
2.8452e-08
2.80598e-08
2.85256e-08
2.93234e-08
3.03467e-08
3.11148e-08
2.84334e-08
2.63975e-08
2.61336e-08
2.5907e-08
2.57233e-08
2.56533e-08
2.55149e-08
2.55317e-08
2.54145e-08
2.54641e-08
2.53294e-08
2.54431e-08
2.52139e-08
2.53832e-08
2.50857e-08
2.56125e-08
2.66133e-08
2.7983e-08
2.88001e-08
2.61164e-08
2.40018e-08
2.37707e-08
2.36122e-08
2.34602e-08
2.3443e-08
2.33459e-08
2.33753e-08
2.33237e-08
2.33615e-08
2.33377e-08
2.33653e-08
2.3354e-08
2.33722e-08
2.33646e-08
2.33693e-08
2.33602e-08
2.33557e-08
2.33427e-08
2.33296e-08
2.33128e-08
2.32917e-08
2.32652e-08
2.3236e-08
2.32026e-08
2.31665e-08
2.31274e-08
2.3086e-08
2.30425e-08
2.29951e-08
2.29446e-08
2.2893e-08
2.28402e-08
2.27851e-08
2.2727e-08
2.26654e-08
2.26035e-08
2.25401e-08
2.24738e-08
2.24083e-08
2.23426e-08
2.22744e-08
2.22058e-08
2.21352e-08
2.20678e-08
2.20004e-08
2.19338e-08
2.18682e-08
2.1795e-08
2.17391e-08
2.1645e-08
2.1614e-08
2.14637e-08
2.14886e-08
2.11969e-08
2.13439e-08
2.08431e-08
2.15093e-08
2.26254e-08
2.45297e-08
2.51439e-08
2.19897e-08
1.98801e-08
1.94311e-08
1.93601e-08
1.90507e-08
1.90248e-08
1.88275e-08
1.87921e-08
1.86772e-08
1.86386e-08
1.85718e-08
1.85244e-08
1.84623e-08
1.8405e-08
1.8343e-08
1.82782e-08
1.82089e-08
1.81369e-08
1.80572e-08
1.79714e-08
1.78812e-08
1.77862e-08
1.76863e-08
1.75802e-08
1.74711e-08
1.73571e-08
1.72381e-08
1.71136e-08
1.69842e-08
1.6855e-08
1.67223e-08
1.65865e-08
1.64477e-08
1.63057e-08
1.61643e-08
1.60216e-08
1.58753e-08
1.57279e-08
1.55834e-08
1.54294e-08
1.52904e-08
1.51156e-08
1.4995e-08
1.47869e-08
1.46959e-08
1.44185e-08
1.43589e-08
1.40292e-08
1.39746e-08
1.35893e-08
1.35294e-08
1.31664e-08
1.31126e-08
1.29937e-08
1.30123e-08
1.33564e-08
1.47262e-08
1.74797e-08
2.02399e-08
2.30177e-08
2.6076e-08
2.86032e-08
1.38434e-08
0
0
0
0
0
0
0
0
0
)
;

boundaryField
{
    inlet
    {
        type            calculated;
        value           uniform 0;
    }
    endWall
    {
        type            calculated;
        value           uniform 0;
    }
    sideWall
    {
        type            empty;
    }
}


// ************************************************************************* //
