/*--------------------------------*- C++ -*----------------------------------*\
| =========                 |                                                 |
| \\      /  F ield         | foam-extend: Open Source CFD                    |
|  \\    /   O peration     | Version:     3.2                                |
|   \\  /    A nd           | Web:         http://www.foam-extend.org         |
|    \\/     M anipulation  | For copyright notice see file Copyright         |
\*---------------------------------------------------------------------------*/
FoamFile
{
    version     2.0;
    format      ascii;
    class       areaScalarField;
    location    "2020";
    object      SSd1;
}
// * * * * * * * * * * * * * * * * * * * * * * * * * * * * * * * * * * * * * //

dimensions      [0 1 -2 -1 0 0 0];

internalField   nonuniform List<scalar> 
550
(
9.01327e-06
9.01327e-06
9.01327e-06
9.01327e-06
9.01327e-06
9.01327e-06
9.01327e-06
9.01327e-06
9.01327e-06
9.01327e-06
9.01327e-06
9.01327e-06
9.01327e-06
9.01327e-06
9.01327e-06
9.01327e-06
9.01327e-06
9.01327e-06
9.01327e-06
9.01327e-06
9.01327e-06
9.01327e-06
9.01327e-06
9.01327e-06
9.01327e-06
9.01327e-06
9.01327e-06
9.01327e-06
9.01327e-06
9.01327e-06
9.01327e-06
9.01327e-06
9.01327e-06
9.01327e-06
9.01327e-06
9.01327e-06
9.01327e-06
9.01327e-06
9.01327e-06
9.01327e-06
9.01327e-06
9.01327e-06
9.01327e-06
9.01327e-06
9.01327e-06
9.01327e-06
9.01327e-06
9.0133e-06
9.01344e-06
9.01386e-06
9.02078e-06
9.03801e-06
9.0373e-06
9.03685e-06
9.03676e-06
9.03765e-06
9.04203e-06
9.04682e-06
9.05428e-06
9.06067e-06
9.06755e-06
9.07465e-06
9.07914e-06
9.07983e-06
9.08269e-06
9.08189e-06
9.08759e-06
9.09255e-06
9.0905e-06
9.09191e-06
9.09637e-06
9.09651e-06
9.09796e-06
9.09668e-06
9.09681e-06
9.09388e-06
9.08934e-06
9.09027e-06
9.08969e-06
9.08995e-06
9.08997e-06
9.08952e-06
9.08899e-06
9.08669e-06
9.0855e-06
9.08503e-06
9.083e-06
9.08215e-06
9.08031e-06
9.07922e-06
9.07606e-06
9.07527e-06
9.07235e-06
9.07056e-06
9.06965e-06
9.06841e-06
9.06628e-06
9.06429e-06
9.06166e-06
9.06079e-06
9.05746e-06
9.05518e-06
9.04872e-06
9.04942e-06
9.04863e-06
9.05135e-06
9.04968e-06
9.04939e-06
9.04973e-06
9.04874e-06
9.04803e-06
9.04713e-06
9.04601e-06
9.04491e-06
9.04391e-06
9.04153e-06
9.0403e-06
9.03435e-06
9.03014e-06
9.02948e-06
9.02751e-06
9.02617e-06
9.02278e-06
9.01989e-06
9.02009e-06
9.01768e-06
9.01605e-06
9.01305e-06
9.0095e-06
9.00986e-06
9.00939e-06
9.00837e-06
9.00696e-06
9.00454e-06
9.00242e-06
8.9988e-06
8.99529e-06
8.99482e-06
8.99324e-06
8.99126e-06
8.98896e-06
8.98667e-06
8.98432e-06
8.98216e-06
8.97989e-06
8.97782e-06
8.97564e-06
8.97368e-06
8.97158e-06
8.96971e-06
8.96766e-06
8.96584e-06
8.96385e-06
8.9621e-06
8.96015e-06
8.95846e-06
8.95653e-06
8.95502e-06
8.95301e-06
8.95186e-06
8.94946e-06
8.94816e-06
8.94564e-06
8.94424e-06
8.94187e-06
8.94035e-06
8.93865e-06
8.93685e-06
8.9352e-06
8.93359e-06
8.93321e-06
8.93252e-06
8.93199e-06
8.9312e-06
8.93036e-06
8.92934e-06
8.92813e-06
8.9269e-06
8.92524e-06
8.92377e-06
8.92171e-06
8.91995e-06
8.91768e-06
8.91575e-06
8.91335e-06
8.91132e-06
8.90886e-06
8.90678e-06
8.90428e-06
8.90217e-06
8.89966e-06
8.89754e-06
8.89502e-06
8.89289e-06
8.89038e-06
8.88825e-06
8.88574e-06
8.88361e-06
8.8811e-06
8.87896e-06
8.87646e-06
8.87431e-06
8.8718e-06
8.86965e-06
8.86713e-06
8.86496e-06
8.86242e-06
8.86023e-06
8.85768e-06
8.85545e-06
8.85288e-06
8.85062e-06
8.84801e-06
8.84571e-06
8.84307e-06
8.84073e-06
8.83804e-06
8.83565e-06
8.83292e-06
8.83048e-06
8.8277e-06
8.82521e-06
8.82239e-06
8.81985e-06
8.81697e-06
8.81438e-06
8.81146e-06
8.80883e-06
8.80587e-06
8.8032e-06
8.80021e-06
8.79751e-06
8.79449e-06
8.79177e-06
8.78873e-06
8.786e-06
8.78295e-06
8.7802e-06
8.77714e-06
8.77439e-06
8.77133e-06
8.76858e-06
8.76552e-06
8.76278e-06
8.75971e-06
8.75698e-06
8.75393e-06
8.75123e-06
8.74819e-06
8.74551e-06
8.74248e-06
8.73984e-06
8.73682e-06
8.73422e-06
8.7312e-06
8.72867e-06
8.7256e-06
8.72316e-06
8.72001e-06
8.71766e-06
8.71442e-06
8.71213e-06
8.70883e-06
8.70662e-06
8.7033e-06
8.70116e-06
8.69786e-06
8.69579e-06
8.6926e-06
8.69059e-06
8.68756e-06
8.68559e-06
8.68283e-06
8.68088e-06
8.67846e-06
8.67651e-06
8.67447e-06
8.67249e-06
8.67039e-06
8.66789e-06
8.66588e-06
8.66345e-06
8.66149e-06
8.65794e-06
8.64932e-06
8.6491e-06
8.64801e-06
8.64692e-06
8.64586e-06
8.64454e-06
8.64322e-06
8.64172e-06
8.6402e-06
8.63858e-06
8.63694e-06
8.63525e-06
8.63354e-06
8.63182e-06
8.63005e-06
8.62831e-06
8.62653e-06
8.6248e-06
8.62303e-06
8.62131e-06
8.61954e-06
8.61783e-06
8.61608e-06
8.61439e-06
8.61266e-06
8.61099e-06
8.60928e-06
8.60763e-06
8.60594e-06
8.6043e-06
8.60264e-06
8.60102e-06
8.59937e-06
8.59778e-06
8.59615e-06
8.59457e-06
8.59297e-06
8.59141e-06
8.58983e-06
8.58829e-06
8.58673e-06
8.58521e-06
8.58367e-06
8.58216e-06
8.58065e-06
8.57916e-06
8.57767e-06
8.57618e-06
8.57467e-06
8.5731e-06
8.57154e-06
8.56994e-06
8.56836e-06
8.56674e-06
8.56515e-06
8.56353e-06
8.56194e-06
8.56032e-06
8.55873e-06
8.55712e-06
8.55555e-06
8.55395e-06
8.55239e-06
8.55081e-06
8.54927e-06
8.5477e-06
8.54618e-06
8.54464e-06
8.54316e-06
8.54165e-06
8.54023e-06
8.53874e-06
8.53744e-06
8.53589e-06
8.53474e-06
8.53307e-06
8.53178e-06
8.53034e-06
8.52911e-06
8.52787e-06
8.52662e-06
8.52538e-06
8.52414e-06
8.5229e-06
8.52166e-06
8.52041e-06
8.51917e-06
8.51793e-06
8.5167e-06
8.51546e-06
8.51422e-06
8.51298e-06
8.51174e-06
8.51051e-06
8.50927e-06
8.50803e-06
8.50679e-06
8.50556e-06
8.50432e-06
8.50308e-06
8.50184e-06
8.50061e-06
8.49937e-06
8.49814e-06
8.49689e-06
8.49568e-06
8.49442e-06
8.49321e-06
8.49194e-06
8.49068e-06
8.48952e-06
8.48143e-06
8.48099e-06
8.48025e-06
8.47952e-06
8.47863e-06
8.47772e-06
8.47677e-06
8.47578e-06
8.47477e-06
8.47372e-06
8.47264e-06
8.47154e-06
8.4704e-06
8.46926e-06
8.46805e-06
8.46686e-06
8.46559e-06
8.46429e-06
8.46305e-06
8.45255e-06
8.45238e-06
8.45171e-06
8.451e-06
8.45013e-06
8.44922e-06
8.44825e-06
8.44722e-06
8.44617e-06
8.44506e-06
8.44393e-06
8.44276e-06
8.44156e-06
8.44032e-06
8.43906e-06
8.43776e-06
8.43645e-06
8.43511e-06
8.43374e-06
8.43236e-06
8.43095e-06
8.42953e-06
8.42809e-06
8.42663e-06
8.42515e-06
8.42366e-06
8.42216e-06
8.42064e-06
8.4191e-06
8.41755e-06
8.41599e-06
8.41441e-06
8.41282e-06
8.41121e-06
8.4096e-06
8.40797e-06
8.40633e-06
8.40468e-06
8.40301e-06
8.40134e-06
8.39967e-06
8.39798e-06
8.39629e-06
8.3946e-06
8.3929e-06
8.39119e-06
8.38949e-06
8.38778e-06
8.38607e-06
8.38436e-06
8.38264e-06
8.38093e-06
8.37921e-06
8.37752e-06
8.37579e-06
8.37412e-06
8.37238e-06
8.37073e-06
8.36898e-06
8.36726e-06
8.36569e-06
8.35123e-06
8.3511e-06
8.35041e-06
8.34968e-06
8.34873e-06
8.34771e-06
8.34665e-06
8.34551e-06
8.34435e-06
8.34312e-06
8.34189e-06
8.34062e-06
8.33933e-06
8.33803e-06
8.33672e-06
8.33539e-06
8.33406e-06
8.33273e-06
8.33139e-06
8.33004e-06
8.3287e-06
8.32735e-06
8.32601e-06
8.32466e-06
8.32332e-06
8.32198e-06
8.32064e-06
8.3193e-06
8.31796e-06
8.31663e-06
8.3153e-06
8.31398e-06
8.31266e-06
8.31135e-06
8.31004e-06
8.30873e-06
8.30743e-06
8.30614e-06
8.30486e-06
8.30358e-06
8.30232e-06
8.30105e-06
8.2998e-06
8.29856e-06
8.29733e-06
8.29609e-06
8.29489e-06
8.29366e-06
8.29249e-06
8.29127e-06
8.29013e-06
8.28891e-06
8.28779e-06
8.28656e-06
8.28545e-06
8.28419e-06
8.28304e-06
8.28169e-06
8.28039e-06
8.26184e-06
8.24585e-06
8.23297e-06
8.22019e-06
8.21109e-06
8.21391e-06
8.21662e-06
8.21976e-06
8.22183e-06
8.22365e-06
8.22537e-06
8.22784e-06
8.23273e-06
8.23388e-06
8.23424e-06
8.23445e-06
)
;

boundaryField
{
    inlet
    {
        type            calculated;
        value           uniform 0;
    }
    endWall
    {
        type            calculated;
        value           uniform 0;
    }
    sideWall
    {
        type            empty;
    }
}


// ************************************************************************* //
