/*--------------------------------*- C++ -*----------------------------------*\
| =========                 |                                                 |
| \\      /  F ield         | foam-extend: Open Source CFD                    |
|  \\    /   O peration     | Version:     3.2                                |
|   \\  /    A nd           | Web:         http://www.foam-extend.org         |
|    \\/     M anipulation  | For copyright notice see file Copyright         |
\*---------------------------------------------------------------------------*/
FoamFile
{
    version     2.0;
    format      ascii;
    class       areaScalarField;
    location    "2020";
    object      SSe1;
}
// * * * * * * * * * * * * * * * * * * * * * * * * * * * * * * * * * * * * * //

dimensions      [0 1 -2 -1 0 0 0];

internalField   nonuniform List<scalar> 
550
(
6.8962e-07
1.27451e-06
2.13028e-06
3.30013e-06
4.79837e-06
6.60086e-06
8.64701e-06
1.08406e-05
1.30732e-05
1.52291e-05
1.71996e-05
1.8929e-05
2.03782e-05
2.14826e-05
2.22884e-05
2.28177e-05
2.30641e-05
2.30929e-05
2.29546e-05
2.26832e-05
2.23151e-05
2.18689e-05
2.13685e-05
2.0841e-05
2.02906e-05
1.97376e-05
1.9188e-05
1.86584e-05
1.81525e-05
1.76676e-05
1.72053e-05
1.67673e-05
1.6353e-05
1.59666e-05
1.56025e-05
1.52645e-05
1.49463e-05
1.4649e-05
1.43741e-05
1.41176e-05
1.38758e-05
1.36552e-05
1.34477e-05
1.32543e-05
1.30749e-05
1.29092e-05
1.2754e-05
1.25719e-05
1.2466e-05
1.234e-05
1.21914e-05
1.21123e-05
1.20195e-05
1.18767e-05
1.17965e-05
1.17039e-05
1.16412e-05
1.15784e-05
9.58076e-06
1.14224e-05
1.13745e-05
1.1302e-05
1.12667e-05
8.02592e-06
7.86001e-06
1.11321e-05
1.11059e-05
1.10696e-05
7.23823e-06
1.09783e-05
1.09641e-05
1.0874e-05
9.84615e-06
8.58446e-06
8.25803e-06
8.50155e-06
1.08902e-05
1.07438e-05
8.63087e-06
7.53526e-06
8.28227e-06
8.65684e-06
1.07371e-05
1.06995e-05
1.06555e-05
8.37597e-06
8.15883e-06
8.4544e-06
8.33941e-06
1.05592e-05
1.0479e-05
1.03703e-05
7.96977e-06
7.85136e-06
8.30846e-06
7.93541e-06
1.03512e-05
1.0318e-05
1.01481e-05
8.46763e-06
8.05206e-06
7.28197e-06
7.01858e-06
1.00303e-05
9.32995e-06
1.01318e-05
9.30072e-06
8.59017e-06
7.8767e-06
8.71565e-06
8.73651e-06
9.83973e-06
9.96594e-06
9.94257e-06
9.99249e-06
8.5283e-06
8.78156e-06
8.14073e-06
5.86284e-06
9.16994e-06
9.10025e-06
9.19494e-06
8.73249e-06
7.95025e-06
9.32054e-06
9.0196e-06
9.12985e-06
8.87402e-06
7.74052e-06
9.30376e-06
9.27357e-06
9.17607e-06
9.12343e-06
8.97027e-06
8.99659e-06
8.76817e-06
8.7351e-06
9.17301e-06
9.01774e-06
8.96742e-06
8.91195e-06
8.90904e-06
8.89198e-06
8.91332e-06
8.8938e-06
8.92072e-06
8.90044e-06
8.93183e-06
8.90927e-06
8.94322e-06
8.91748e-06
8.95266e-06
8.92663e-06
8.96308e-06
8.93485e-06
8.97558e-06
8.93912e-06
9.00364e-06
8.92947e-06
9.06117e-06
8.87509e-06
9.03729e-06
8.85076e-06
9.01584e-06
8.86671e-06
8.99301e-06
8.96e-06
8.95482e-06
8.95804e-06
8.96779e-06
9.15662e-06
9.15123e-06
9.17542e-06
9.15995e-06
9.15484e-06
9.14249e-06
9.11529e-06
9.11872e-06
9.05669e-06
9.08455e-06
8.99612e-06
9.03443e-06
8.95385e-06
8.99791e-06
8.92301e-06
8.97076e-06
8.90023e-06
8.95014e-06
8.88297e-06
8.9343e-06
8.86993e-06
8.92191e-06
8.85987e-06
8.91227e-06
8.85224e-06
8.90478e-06
8.84655e-06
8.89873e-06
8.84208e-06
8.8936e-06
8.83825e-06
8.88911e-06
8.83504e-06
8.88487e-06
8.83188e-06
8.88076e-06
8.82864e-06
8.87654e-06
8.82522e-06
8.87209e-06
8.82152e-06
8.86739e-06
8.81742e-06
8.86236e-06
8.81288e-06
8.85692e-06
8.80793e-06
8.85112e-06
8.80249e-06
8.84499e-06
8.7966e-06
8.83841e-06
8.79018e-06
8.83148e-06
8.78337e-06
8.8244e-06
8.7763e-06
8.8173e-06
8.76917e-06
8.81042e-06
8.76232e-06
8.80367e-06
8.75558e-06
8.79732e-06
8.74897e-06
8.79094e-06
8.74249e-06
8.78482e-06
8.73609e-06
8.77887e-06
8.72976e-06
8.77296e-06
8.72308e-06
8.76702e-06
8.71667e-06
8.76163e-06
8.71071e-06
8.75721e-06
8.705e-06
8.75347e-06
8.69896e-06
8.7509e-06
8.69207e-06
8.75041e-06
8.68259e-06
8.75317e-06
8.66824e-06
8.75825e-06
8.64833e-06
8.76291e-06
8.62475e-06
8.76185e-06
8.6044e-06
8.76108e-06
8.589e-06
8.7602e-06
8.58062e-06
8.75855e-06
8.58266e-06
8.75556e-06
8.59758e-06
8.75112e-06
8.62741e-06
8.74507e-06
8.67207e-06
8.73867e-06
8.72471e-06
8.73304e-06
8.71462e-06
8.6448e-06
8.70278e-06
8.63793e-06
8.67201e-06
8.45998e-06
7.51503e-06
8.84609e-06
8.72596e-06
8.7457e-06
8.75317e-06
8.73214e-06
8.72995e-06
8.71008e-06
8.70469e-06
8.69107e-06
8.6841e-06
8.67612e-06
8.66799e-06
8.66292e-06
8.65387e-06
8.65315e-06
8.64415e-06
8.64589e-06
8.63704e-06
8.63988e-06
8.63113e-06
8.63466e-06
8.62634e-06
8.63032e-06
8.62253e-06
8.62644e-06
8.61905e-06
8.62284e-06
8.61594e-06
8.61948e-06
8.61333e-06
8.61645e-06
8.61075e-06
8.61339e-06
8.60844e-06
8.61044e-06
8.60625e-06
8.60793e-06
8.60445e-06
8.60547e-06
8.60267e-06
8.60333e-06
8.60114e-06
8.60139e-06
8.59969e-06
8.59981e-06
8.59878e-06
8.59689e-06
8.59183e-06
8.58076e-06
8.57812e-06
8.56827e-06
8.5672e-06
8.55824e-06
8.55806e-06
8.54956e-06
8.55006e-06
8.54196e-06
8.54286e-06
8.53503e-06
8.53643e-06
8.52909e-06
8.53097e-06
8.52376e-06
8.52582e-06
8.51905e-06
8.52146e-06
8.51508e-06
8.52064e-06
8.51284e-06
8.52542e-06
8.50931e-06
8.53747e-06
8.49806e-06
8.55617e-06
8.47659e-06
8.52716e-06
8.50236e-06
8.48075e-06
8.45744e-06
8.43221e-06
8.39802e-06
8.36622e-06
8.33363e-06
8.30138e-06
8.26945e-06
8.23809e-06
8.20676e-06
8.17651e-06
8.14631e-06
8.1171e-06
8.08814e-06
8.05961e-06
8.03161e-06
8.00424e-06
7.9775e-06
7.95105e-06
7.92826e-06
7.8989e-06
7.88033e-06
7.84578e-06
7.83702e-06
7.7902e-06
7.78695e-06
7.73166e-06
7.64446e-06
7.67144e-06
7.45764e-06
7.62423e-06
7.23674e-06
7.61761e-06
7.38339e-06
7.45908e-06
7.51788e-06
7.319e-06
7.3355e-06
7.32188e-06
7.29631e-06
7.28508e-06
7.27745e-06
7.26651e-06
7.24639e-06
7.25842e-06
7.22139e-06
7.19984e-06
7.19408e-06
7.01991e-06
7.17925e-06
6.81535e-06
7.20009e-06
6.99349e-06
7.10212e-06
7.1522e-06
6.94055e-06
6.9093e-06
6.96502e-06
6.90203e-06
6.94233e-06
6.93218e-06
6.93213e-06
6.93707e-06
6.9279e-06
6.92993e-06
6.92555e-06
6.92583e-06
6.92335e-06
6.92182e-06
6.91911e-06
6.91652e-06
6.91295e-06
6.90938e-06
6.90558e-06
6.90121e-06
6.89616e-06
6.8908e-06
6.88491e-06
6.87857e-06
6.872e-06
6.86489e-06
6.85753e-06
6.84971e-06
6.84151e-06
6.83306e-06
6.82447e-06
6.81544e-06
6.80603e-06
6.79619e-06
6.78597e-06
6.77569e-06
6.76496e-06
6.75407e-06
6.74315e-06
6.73176e-06
6.7201e-06
6.70849e-06
6.69664e-06
6.68499e-06
6.67365e-06
6.66114e-06
6.65115e-06
6.6365e-06
6.63009e-06
6.60911e-06
6.61162e-06
6.57591e-06
6.57136e-06
6.53331e-06
6.37579e-06
6.49219e-06
6.0474e-06
6.50319e-06
6.34224e-06
6.68878e-06
6.46816e-06
6.23789e-06
6.10049e-06
6.25906e-06
6.18127e-06
6.22026e-06
6.20684e-06
6.1891e-06
6.17541e-06
6.16387e-06
6.15142e-06
6.1401e-06
6.12795e-06
6.11603e-06
6.10395e-06
6.09145e-06
6.07865e-06
6.06533e-06
6.05107e-06
6.0365e-06
6.02107e-06
6.00508e-06
5.98828e-06
5.97092e-06
5.95305e-06
5.93426e-06
5.91505e-06
5.89503e-06
5.87482e-06
5.85439e-06
5.83331e-06
5.81206e-06
5.79042e-06
5.7687e-06
5.74683e-06
5.72449e-06
5.70239e-06
5.67991e-06
5.65798e-06
5.63491e-06
5.61388e-06
5.58813e-06
5.57024e-06
5.53879e-06
5.52475e-06
5.48213e-06
5.40096e-06
5.41597e-06
5.24129e-06
5.34167e-06
5.05322e-06
5.27159e-06
4.87477e-06
5.22985e-06
4.818e-06
5.24864e-06
4.95812e-06
5.34497e-06
5.31811e-06
5.30346e-06
5.0146e-06
5.60364e-06
7.13037e-06
2.84624e-06
2.42749e-06
1.78793e-06
1.33317e-06
7.6433e-07
4.03222e-07
2.03013e-07
2.3651e-07
6.40127e-07
1.58564e-06
)
;

boundaryField
{
    inlet
    {
        type            calculated;
        value           uniform 0;
    }
    endWall
    {
        type            calculated;
        value           uniform 0;
    }
    sideWall
    {
        type            empty;
    }
}


// ************************************************************************* //
