/*--------------------------------*- C++ -*----------------------------------*\
| =========                 |                                                 |
| \\      /  F ield         | foam-extend: Open Source CFD                    |
|  \\    /   O peration     | Version:     3.2                                |
|   \\  /    A nd           | Web:         http://www.foam-extend.org         |
|    \\/     M anipulation  | For copyright notice see file Copyright         |
\*---------------------------------------------------------------------------*/
FoamFile
{
    version     2.0;
    format      ascii;
    class       areaScalarField;
    location    "2020";
    object      tau;
}
// * * * * * * * * * * * * * * * * * * * * * * * * * * * * * * * * * * * * * //

dimensions      [1 1 2 0 0 0 0];

internalField   nonuniform List<scalar> 
550
(
0.0488575
0.0674698
0.0900941
0.116531
0.146138
0.177899
0.210605
0.242901
0.273595
0.301609
0.326169
0.346811
0.36355
0.376309
0.385322
0.391091
0.393951
0.394302
0.392698
0.389678
0.385546
0.38058
0.374956
0.368927
0.36264
0.35625
0.349852
0.343592
0.337548
0.33174
0.326144
0.320806
0.315702
0.310885
0.306321
0.302044
0.298009
0.294219
0.290659
0.28734
0.284202
0.281293
0.278562
0.276012
0.27362
0.271402
0.269322
0.26749
0.265562
0.264117
0.262465
0.261201
0.259629
0.258544
0.257233
0.256126
0.254978
0.253938
0.252924
0.252012
0.251141
0.250354
0.249541
0.248795
0.248077
0.24739
0.246737
0.246088
0.245432
0.244763
0.244095
0.243552
0.242904
0.242426
0.241154
0.242844
0.243922
0.240587
0.240056
0.239147
0.238507
0.238061
0.237305
0.236929
0.236086
0.235872
0.235475
0.235075
0.234829
0.234745
0.234218
0.233926
0.233677
0.233354
0.233184
0.232882
0.232618
0.232483
0.231651
0.232384
0.232383
0.234113
0.234687
0.230265
0.229923
0.229564
0.229166
0.230124
0.229845
0.230007
0.229961
0.229719
0.229666
0.229774
0.22923
0.229646
0.228546
0.230488
0.230465
0.225953
0.22638
0.225575
0.227459
0.227863
0.225275
0.22547
0.22529
0.227816
0.227656
0.224821
0.224561
0.223945
0.22387
0.224192
0.224911
0.225469
0.22759
0.229532
0.229907
0.230361
0.230609
0.230955
0.231342
0.231726
0.23212
0.232489
0.232855
0.23318
0.23349
0.233754
0.233996
0.2342
0.234381
0.234515
0.234648
0.234701
0.234817
0.234766
0.234884
0.234687
0.234785
0.234531
0.234523
0.234246
0.234079
0.233807
0.233382
0.232983
0.232287
0.231219
0.229876
0.229081
0.228146
0.227543
0.226852
0.226392
0.22589
0.225544
0.225216
0.224981
0.224801
0.22468
0.224605
0.224572
0.224571
0.224599
0.22465
0.224721
0.224807
0.224909
0.22502
0.225141
0.225269
0.225403
0.225541
0.225683
0.225824
0.225968
0.226108
0.226249
0.226387
0.226523
0.226654
0.226784
0.226908
0.22703
0.227146
0.227261
0.227371
0.227479
0.227581
0.227682
0.227779
0.227874
0.227965
0.228056
0.228143
0.228231
0.228316
0.228402
0.228487
0.228574
0.22866
0.228749
0.22884
0.228935
0.229033
0.229135
0.229242
0.229354
0.229469
0.22959
0.229715
0.229845
0.229979
0.230118
0.23026
0.230407
0.230559
0.230715
0.230875
0.23104
0.23121
0.231384
0.231563
0.231743
0.231927
0.232109
0.232297
0.232478
0.23267
0.232847
0.233045
0.233214
0.23342
0.233577
0.233797
0.233943
0.234178
0.234318
0.234564
0.234704
0.23495
0.235093
0.235324
0.235469
0.235667
0.235815
0.23596
0.236113
0.236184
0.236342
0.236324
0.236482
0.236375
0.236516
0.236357
0.236437
0.236362
0.236332
0.236512
0.235843
0.23647
0.232255
0.233332
0.237937
0.237621
0.238109
0.237748
0.23773
0.237424
0.237336
0.237093
0.237004
0.236812
0.236729
0.236575
0.236481
0.236354
0.236279
0.236171
0.236103
0.236008
0.235939
0.235857
0.235788
0.235716
0.23565
0.235587
0.235525
0.235474
0.235419
0.235378
0.235332
0.235303
0.235268
0.235252
0.235229
0.235226
0.235215
0.235225
0.235226
0.235248
0.235261
0.235294
0.235317
0.235358
0.235391
0.23544
0.235483
0.235538
0.235596
0.235666
0.235753
0.235848
0.235958
0.236075
0.236204
0.23634
0.236486
0.236638
0.2368
0.236967
0.237142
0.237322
0.237508
0.237698
0.237893
0.238091
0.238293
0.238496
0.238707
0.238902
0.239119
0.239289
0.239508
0.23965
0.239872
0.239978
0.24018
0.240295
0.240381
0.240414
0.240155
0.240073
0.239844
0.239611
0.239364
0.239124
0.238889
0.238661
0.238439
0.238223
0.238014
0.23781
0.237613
0.237418
0.237228
0.237039
0.236862
0.236671
0.236542
0.236334
0.236231
0.235971
0.235924
0.23559
0.235618
0.235212
0.235259
0.234861
0.234713
0.234623
0.233996
0.235445
0.230201
0.230828
0.233862
0.230892
0.230881
0.230163
0.22987
0.229759
0.229507
0.229653
0.229453
0.229703
0.2295
0.229803
0.229591
0.229743
0.229866
0.229456
0.231139
0.226001
0.226796
0.230178
0.227015
0.227102
0.226446
0.226208
0.226161
0.225997
0.226135
0.226078
0.226258
0.226277
0.226443
0.226499
0.226638
0.226704
0.226804
0.226867
0.226935
0.226988
0.227038
0.227077
0.227107
0.227125
0.227135
0.227135
0.227129
0.227116
0.227096
0.227071
0.227039
0.227001
0.226962
0.226919
0.226873
0.226823
0.226769
0.226715
0.226659
0.2266
0.226543
0.226485
0.226426
0.226366
0.226307
0.226249
0.226205
0.22614
0.226121
0.226029
0.226052
0.2259
0.225993
0.22573
0.225906
0.225508
0.225671
0.225445
0.225154
0.226827
0.221427
0.222192
0.225841
0.222732
0.222489
0.222025
0.221504
0.221498
0.221175
0.221246
0.221124
0.221209
0.221207
0.221277
0.221305
0.221348
0.221382
0.221411
0.22143
0.22144
0.221435
0.221419
0.221391
0.221352
0.221302
0.22124
0.221169
0.221086
0.220993
0.220887
0.220772
0.220649
0.220518
0.220377
0.220227
0.220068
0.219904
0.219729
0.219554
0.219358
0.219193
0.218962
0.21882
0.21853
0.21844
0.218061
0.218059
0.217547
0.21763
0.217012
0.217103
0.216393
0.216405
0.215763
0.215641
0.215455
0.215334
0.216065
0.216944
0.219735
0.219691
0.218392
0.210602
0.19508
0.154144
0.113165
0.0971246
0.0815186
0.0691627
0.0514705
0.0377948
0.0285269
0.0302824
0.0473659
0.0766241
)
;

boundaryField
{
    inlet
    {
        type            calculated;
        value           uniform 0;
    }
    endWall
    {
        type            calculated;
        value           uniform 0;
    }
    sideWall
    {
        type            empty;
    }
}


// ************************************************************************* //
