/*--------------------------------*- C++ -*----------------------------------*\
| =========                 |                                                 |
| \\      /  F ield         | foam-extend: Open Source CFD                    |
|  \\    /   O peration     | Version:     3.2                                |
|   \\  /    A nd           | Web:         http://www.foam-extend.org         |
|    \\/     M anipulation  | For copyright notice see file Copyright         |
\*---------------------------------------------------------------------------*/
FoamFile
{
    version     2.0;
    format      ascii;
    class       areaScalarField;
    location    "2020";
    object      tauCB;
}
// * * * * * * * * * * * * * * * * * * * * * * * * * * * * * * * * * * * * * //

dimensions      [1 1 2 0 0 0 0];

internalField   nonuniform List<scalar> 
550
(
0.0676939
0.0676939
0.0676939
0.0676939
0.0676939
0.0676939
0.0676939
0.0676939
0.0676939
0.0676939
0.0676445
0.0676939
0.0677434
0.0676542
0.0676939
0.0677337
0.0676663
0.0676695
0.0677006
0.0676991
0.0677149
0.0676978
0.0676939
0.0677093
0.0676939
0.0676939
0.0676839
0.067694
0.0677039
0.067694
0.0676939
0.0676861
0.0676865
0.0676945
0.0676945
0.0677011
0.0676944
0.0676876
0.0677005
0.0676942
0.0676881
0.0676999
0.0676942
0.0676885
0.0676942
0.0676941
0.0676931
0.0678786
0.0676023
0.0680178
0.0676767
0.0680706
0.0674473
0.0682194
0.0675381
0.0682003
0.0675227
0.0681227
0.0757675
0.0681397
0.0674868
0.0681774
0.0674636
0.0841647
0.0842839
0.0681187
0.0674411
0.0680866
0.0878655
0.0680595
0.0674127
0.0680975
0.0720122
0.0788363
0.080189
0.077168
0.064989
0.0672743
0.0781221
0.0843568
0.0801074
0.0772603
0.0679224
0.0675366
0.0677146
0.0789432
0.0797297
0.0781414
0.0786988
0.0678747
0.0675078
0.0681056
0.0800667
0.0808769
0.0779764
0.0801932
0.067833
0.0679157
0.0680525
0.0751116
0.0790353
0.0831485
0.0814575
0.0672935
0.0694879
0.0675241
0.0695984
0.0748922
0.0791479
0.0737317
0.0740173
0.0682737
0.0680281
0.0680885
0.0678991
0.0743759
0.0731983
0.0748613
0.0882934
0.0690037
0.0691501
0.0688741
0.0707508
0.07428
0.0684705
0.0690924
0.0684309
0.0707714
0.0744401
0.0682584
0.0683376
0.0683546
0.0683493
0.0687803
0.068886
0.0695327
0.0699134
0.0713319
0.0716974
0.071913
0.0720477
0.0721118
0.0722873
0.072378
0.0725705
0.0726561
0.0728516
0.0729197
0.0731064
0.0731479
0.0733192
0.0733308
0.0734896
0.0734683
0.0736229
0.0735589
0.0737335
0.0735974
0.0738546
0.0735365
0.0740173
0.073311
0.0740296
0.0729646
0.0738864
0.0725801
0.0735436
0.0722033
0.0728786
0.0712842
0.0714736
0.0706248
0.0709101
0.0703718
0.0706275
0.0703068
0.0705033
0.0703338
0.0704975
0.0703948
0.0705678
0.0704725
0.0706552
0.0705692
0.0707584
0.0706798
0.0708723
0.0707997
0.0709931
0.0709253
0.0711184
0.0710544
0.0712465
0.0711862
0.0713768
0.0713189
0.0715072
0.0714507
0.0716356
0.0715793
0.0717604
0.0717038
0.0718806
0.0718236
0.0719959
0.0719387
0.0721069
0.0720496
0.0722142
0.0721572
0.0723186
0.0722618
0.0724204
0.0723639
0.07252
0.0724641
0.0726182
0.0725627
0.0727152
0.0726604
0.0728117
0.0727578
0.0729085
0.0728556
0.0730065
0.0729556
0.073108
0.0730594
0.0732143
0.0731678
0.0733256
0.0732806
0.0734411
0.0733972
0.0735604
0.0735171
0.073683
0.0736401
0.0738087
0.0737663
0.0739381
0.073896
0.074071
0.0740294
0.0742077
0.0741646
0.0743455
0.0742995
0.0744843
0.0744334
0.0746244
0.0745646
0.0747668
0.0746898
0.0749143
0.074805
0.0750726
0.0749054
0.0752425
0.0749861
0.0754194
0.0750456
0.0755872
0.0750901
0.0757389
0.0751253
0.0758666
0.0751601
0.0759596
0.0752072
0.0760087
0.0752835
0.0760071
0.0754087
0.0759526
0.0756015
0.0758632
0.0758704
0.0757984
0.0761064
0.0756353
0.0760927
0.0753767
0.0741765
0.0729017
0.0749776
0.0758085
0.0754208
0.076051
0.0755947
0.0760256
0.0756974
0.0759712
0.0757722
0.0759258
0.0758283
0.075891
0.0758623
0.0758559
0.0758914
0.0758376
0.0759122
0.0758277
0.075925
0.0758216
0.0759327
0.075819
0.0759372
0.0758209
0.0759417
0.0758285
0.0759481
0.0758426
0.0759581
0.0758636
0.0759737
0.0758926
0.0759956
0.075929
0.0760242
0.0759723
0.076059
0.0760223
0.0761008
0.0760784
0.0761486
0.0761405
0.0762033
0.07621
0.0762665
0.0762872
0.0763427
0.0763792
0.0764343
0.0764705
0.0765279
0.0765657
0.0766263
0.0766672
0.0767319
0.0767767
0.0768459
0.076895
0.0769688
0.0770221
0.0771001
0.0771574
0.0772397
0.0773007
0.0773864
0.0774509
0.077542
0.0776033
0.0777054
0.0777502
0.0778786
0.0778825
0.0780755
0.0779755
0.0782963
0.0780154
0.0783932
0.0780064
0.0784173
0.0784095
0.0785173
0.0786268
0.0787451
0.0788519
0.0789707
0.0790809
0.0791961
0.0793081
0.0794232
0.0795333
0.0796485
0.0797531
0.0798671
0.0799713
0.0800822
0.0801943
0.0803127
0.0803741
0.0805415
0.0805256
0.0808223
0.0806019
0.0811939
0.0805453
0.081679
0.0803414
0.0822497
0.080178
0.0829265
0.0794029
0.0784261
0.0739481
0.0785173
0.081267
0.0824021
0.0815825
0.0824501
0.081868
0.0824356
0.0822039
0.0823542
0.0825736
0.0822387
0.0830262
0.0819637
0.0836628
0.0816417
0.0843709
0.0809048
0.0793747
0.0745399
0.0795648
0.0822158
0.0838451
0.0825575
0.0837843
0.0828391
0.0837089
0.0831136
0.0836692
0.083343
0.0836749
0.0835255
0.083725
0.0836768
0.0837936
0.0838002
0.0838777
0.0839061
0.0839642
0.0840077
0.0840573
0.0840994
0.0841496
0.0841963
0.0842442
0.0842937
0.0843415
0.0843921
0.0844398
0.0844891
0.0845417
0.0845963
0.0846488
0.0847033
0.0847582
0.0848178
0.084881
0.0849402
0.0850055
0.0850735
0.0851367
0.0852044
0.0852746
0.0853438
0.0854214
0.0854904
0.0855638
0.0856454
0.0857004
0.0858309
0.085796
0.0860877
0.0857899
0.0865047
0.0855777
0.0872823
0.0850844
0.0885744
0.083884
0.0827954
0.0755699
0.083578
0.0852678
0.0881978
0.0862711
0.0878349
0.0869533
0.0877209
0.0874458
0.0878065
0.0878016
0.0879851
0.0880631
0.0882012
0.088312
0.088438
0.0885565
0.0886828
0.0888053
0.0889264
0.089059
0.0891869
0.0893212
0.0894527
0.0895899
0.0897303
0.0898662
0.0900109
0.0901501
0.0903017
0.0904487
0.0905911
0.0907402
0.0908832
0.0910335
0.0911808
0.091321
0.0914677
0.0916088
0.0917673
0.0918793
0.0920871
0.092111
0.0924814
0.0922579
0.0930007
0.0922729
0.0937531
0.0921627
0.0946569
0.0919843
0.0956879
0.0918178
0.096624
0.0918252
0.0969022
0.09213
0.0965446
0.0895275
0.0883262
0.0798203
0.0740723
0.057246
0.034291
0.0676943
0.0676938
0.0676937
0.0676943
0.0676937
0.0676943
0.068112
0.0681119
0.0681115
0.068112
)
;

boundaryField
{
    inlet
    {
        type            calculated;
        value           uniform 0;
    }
    endWall
    {
        type            calculated;
        value           uniform 0;
    }
    sideWall
    {
        type            empty;
    }
}


// ************************************************************************* //
