/*--------------------------------*- C++ -*----------------------------------*\
| =========                 |                                                 |
| \\      /  F ield         | foam-extend: Open Source CFD                    |
|  \\    /   O peration     | Version:     3.2                                |
|   \\  /    A nd           | Web:         http://www.foam-extend.org         |
|    \\/     M anipulation  | For copyright notice see file Copyright         |
\*---------------------------------------------------------------------------*/
FoamFile
{
    version     2.0;
    format      ascii;
    class       areaScalarField;
    location    "2020";
    object      tauCSS1;
}
// * * * * * * * * * * * * * * * * * * * * * * * * * * * * * * * * * * * * * //

dimensions      [1 1 2 0 0 0 0];

internalField   nonuniform List<scalar> 
550
(
0.0120735
0.0120735
0.0120735
0.0120735
0.0120735
0.0120735
0.0120735
0.0120735
0.0120735
0.0120735
0.0120647
0.0120735
0.0120824
0.0120665
0.0120735
0.0120806
0.0120686
0.0120692
0.0120747
0.0120745
0.0120773
0.0120742
0.0120735
0.0120763
0.0120735
0.0120735
0.0120718
0.0120736
0.0120753
0.0120736
0.0120736
0.0120722
0.0120722
0.0120737
0.0120736
0.0120748
0.0120736
0.0120724
0.0120747
0.0120736
0.0120725
0.0120746
0.0120736
0.0120726
0.0120736
0.0120736
0.0120734
0.0121065
0.0120572
0.0121313
0.0120705
0.0121407
0.0120296
0.0121673
0.0120458
0.0121639
0.012043
0.01215
0.0135135
0.012153
0.0120366
0.0121598
0.0120325
0.0150112
0.0150324
0.0121493
0.0120284
0.0121436
0.0156712
0.0121387
0.0120234
0.0121455
0.0128437
0.0140608
0.0143021
0.0137633
0.0115911
0.0119987
0.0139335
0.0150455
0.0142876
0.0137798
0.0121143
0.0120455
0.0120772
0.0140799
0.0142202
0.0139369
0.0140363
0.0121058
0.0120404
0.012147
0.0142803
0.0144248
0.0139075
0.0143028
0.0120984
0.0121131
0.0121375
0.0133965
0.0140963
0.0148299
0.0145283
0.0120021
0.0123935
0.0120433
0.0124132
0.0133574
0.0141164
0.0131504
0.0132013
0.0121769
0.0121331
0.0121439
0.0121101
0.0132653
0.0130553
0.0133519
0.0157476
0.0123071
0.0123333
0.012284
0.0126188
0.0132482
0.012212
0.0123229
0.012205
0.0126224
0.0132768
0.0121742
0.0121883
0.0121913
0.0121904
0.0122673
0.0122861
0.0124015
0.0124694
0.0127224
0.0127876
0.0128261
0.0128501
0.0128615
0.0128928
0.012909
0.0129433
0.0129586
0.0129934
0.0130056
0.0130389
0.0130463
0.0130769
0.0130789
0.0131073
0.0131034
0.013131
0.0131196
0.0131507
0.0131265
0.0131723
0.0131156
0.0132014
0.0130754
0.0132035
0.0130136
0.013178
0.012945
0.0131169
0.0128778
0.0129983
0.0127139
0.0127476
0.0125963
0.0126472
0.0125511
0.0125968
0.0125396
0.0125746
0.0125444
0.0125736
0.0125553
0.0125861
0.0125691
0.0126017
0.0125864
0.0126201
0.0126061
0.0126404
0.0126275
0.0126619
0.0126499
0.0126843
0.0126729
0.0127072
0.0126964
0.0127304
0.0127201
0.0127536
0.0127436
0.0127766
0.0127665
0.0127988
0.0127887
0.0128203
0.0128101
0.0128408
0.0128306
0.0128606
0.0128504
0.0128797
0.0128696
0.0128984
0.0128882
0.0129165
0.0129065
0.0129343
0.0129243
0.0129518
0.0129419
0.0129691
0.0129593
0.0129863
0.0129767
0.0130036
0.0129942
0.013021
0.013012
0.0130392
0.0130305
0.0130581
0.0130498
0.013078
0.01307
0.0130986
0.0130907
0.0131199
0.0131122
0.0131417
0.0131341
0.0131642
0.0131566
0.0131872
0.0131797
0.0132109
0.0132035
0.0132353
0.0132276
0.0132599
0.0132517
0.0132846
0.0132756
0.0133096
0.013299
0.013335
0.0133213
0.0133613
0.0133419
0.0133896
0.0133598
0.0134199
0.0133741
0.0134514
0.0133847
0.0134814
0.0133927
0.0135084
0.0133989
0.0135312
0.0134052
0.0135478
0.0134136
0.0135566
0.0134272
0.0135562
0.0134495
0.0135465
0.0134839
0.0135305
0.0135318
0.0135191
0.0135739
0.0134899
0.0135715
0.0134438
0.0132298
0.0130024
0.0133726
0.0135208
0.0134517
0.0135641
0.0134827
0.0135595
0.013501
0.0135498
0.0135144
0.0135417
0.0135244
0.0135356
0.0135304
0.0135293
0.0135356
0.013526
0.0135393
0.0135242
0.0135416
0.0135232
0.013543
0.0135227
0.0135438
0.013523
0.0135445
0.0135243
0.0135457
0.0135269
0.0135475
0.0135307
0.0135503
0.0135358
0.0135542
0.0135423
0.0135593
0.01355
0.0135655
0.0135589
0.013573
0.0135689
0.0135815
0.01358
0.0135913
0.0135924
0.0136025
0.0136062
0.0136161
0.0136226
0.0136324
0.0136389
0.0136491
0.0136559
0.0136667
0.013674
0.0136855
0.0136935
0.0137058
0.0137146
0.0137277
0.0137373
0.0137512
0.0137614
0.0137761
0.013787
0.0138023
0.0138137
0.01383
0.013841
0.0138591
0.0138671
0.01389
0.0138907
0.0139252
0.0139073
0.0139645
0.0139144
0.0139818
0.0139128
0.0139861
0.0139847
0.014004
0.0140235
0.0140446
0.0140636
0.0140848
0.0141045
0.014125
0.014145
0.0141656
0.0141851
0.0142057
0.0142244
0.0142447
0.0142633
0.0142831
0.0143031
0.0143242
0.0143351
0.014365
0.0143621
0.014415
0.0143758
0.0144814
0.0143657
0.0145679
0.0143293
0.0146697
0.0143001
0.0147904
0.0141619
0.0139876
0.013189
0.0140039
0.0144944
0.0146968
0.0145507
0.0147054
0.0146016
0.0147028
0.0146614
0.0146883
0.0147275
0.0146677
0.0148082
0.0146186
0.0149217
0.0145612
0.015048
0.0144298
0.0141569
0.0132946
0.0141908
0.0146636
0.0149542
0.0147246
0.0149433
0.0147747
0.0149299
0.0148237
0.0149228
0.0148647
0.0149238
0.0148972
0.0149328
0.0149242
0.014945
0.0149462
0.01496
0.014965
0.0149754
0.0149831
0.014992
0.0149995
0.0150085
0.0150169
0.0150254
0.0150342
0.0150427
0.0150517
0.0150603
0.015069
0.0150784
0.0150882
0.0150975
0.0151073
0.015117
0.0151277
0.015139
0.0151495
0.0151611
0.0151733
0.0151845
0.0151966
0.0152092
0.0152215
0.0152354
0.0152476
0.0152607
0.0152752
0.015285
0.0153084
0.0153022
0.0153542
0.015301
0.0154286
0.0152632
0.0155672
0.0151752
0.0157977
0.0149612
0.014767
0.0134782
0.0149065
0.0152079
0.0157305
0.0153869
0.0156657
0.0155086
0.0156455
0.0155964
0.0156607
0.0156598
0.0156926
0.0157065
0.0157311
0.0157509
0.0157733
0.0157945
0.0158171
0.0158389
0.0158604
0.0158841
0.0159069
0.0159308
0.0159543
0.0159788
0.0160038
0.0160281
0.0160539
0.0160787
0.0161058
0.0161319
0.0161574
0.016184
0.0162095
0.0162363
0.0162626
0.0162876
0.0163137
0.0163388
0.0163672
0.0163871
0.0164242
0.0164284
0.0164945
0.0164547
0.0165871
0.0164573
0.0167213
0.0164376
0.0168825
0.0164059
0.0170664
0.0163762
0.0172333
0.0163774
0.017283
0.0164319
0.0172192
0.0159676
0.0157534
0.0142363
0.0132112
0.0102101
0.00611596
0.0120736
0.0120735
0.0120735
0.0120736
0.0120735
0.0120736
0.0121481
0.0121481
0.012148
0.0121481
)
;

boundaryField
{
    inlet
    {
        type            calculated;
        value           uniform 0;
    }
    endWall
    {
        type            calculated;
        value           uniform 0;
    }
    sideWall
    {
        type            empty;
    }
}


// ************************************************************************* //
