/*--------------------------------*- C++ -*----------------------------------*\
| =========                 |                                                 |
| \\      /  F ield         | foam-extend: Open Source CFD                    |
|  \\    /   O peration     | Version:     3.2                                |
|   \\  /    A nd           | Web:         http://www.foam-extend.org         |
|    \\/     M anipulation  | For copyright notice see file Copyright         |
\*---------------------------------------------------------------------------*/
FoamFile
{
    version     2.0;
    format      ascii;
    class       areaScalarField;
    location    "2020";
    object      Te;
}
// * * * * * * * * * * * * * * * * * * * * * * * * * * * * * * * * * * * * * //

dimensions      [0 0 1 0 0 0 0];

internalField   nonuniform List<scalar> 
550
(
0
0
0
0
0
0
0
0
0
0
0
0
0
0
0
0
0
0
0
0
0
0
0
0
0
0
0
0
0
0
0
0
0
0
0
0
0
0
0
0
0
0
0
0
0
0
0
0
0
0
0
0
0
0
0
0
0
0
0.012
0.012
0.008
0.008
0
0.016
0.012
0.004
0.004
0.004
0.004
0
0
0
0.008
0.008
0.004
0.004
0
0
0.012
0.008
0.004
0.004
0
0
0
0.008
0.008
0.004
0.004
0
0
0
0.008
0.008
0.004
0.004
0
0
0
0.008
0.008
0.004
0.004
0
0
0
0
0.008
0.004
0.004
0.004
0
0
0
0
0.008
0.008
0.008
0.004
0
0
0.004
0.004
0.004
0
0
0.004
0.004
0.004
0
0
0
0
0
0
0
0
0
0
0
0
0
0
0
0
0
0
0
0
0
0
0
0
0
0
0
0
0
0
0
0
2.532
2.6
2.668
2.736
2.804
2.86
2.912
0
0
0
0
0
0
0
0
0
0
3.272
3.272
3.276
3.284
3.292
3.304
3.312
3.316
3.316
3.32
3.32
3.32
3.32
3.324
3.324
3.332
3.34
3.348
3.364
3.38
3.404
3.428
3.46
3.496
3.54
3.596
3.668
3.756
3.86
4.02
9.832
0.044
0
0
0
0
0
0
0
0
0
0
0
0
0
0
0
0
0
0
0
0
0
0
0
0
0
5.244
5.236
5.232
5.232
5.236
5.24
5.244
5.248
5.248
5.244
5.244
5.252
5.26
5.276
5.284
5.3
5.316
5.34
5.356
5.388
5.404
5.436
5.452
5.488
5.508
5.528
5.544
5.564
5.584
5.604
5.632
5.652
5.688
5.708
5.764
5.8
4.208
2.5
2.26
1.96
1.7
1.164
0.912
0.676
0.468
0
0
0
0
0
0
0
0
0
0
0
0
0
0
0
0
0
0
0
0
0
0
0
0
0
0
0
0
0
0
0
0
0
0
0
0
0
0
0
0
6.168
6.032
5.904
5.776
5.644
5.5
5.336
5.136
4.92
4.756
4.632
4.508
4.36
4.196
3.916
3.352
3.152
2.964
2.748
2.448
2.136
1.968
1.852
1.748
1.644
1.536
1.416
1.28
1.136
0.988
0.856
0.744
0.656
0.588
0.536
0.492
0.464
0.428
0.412
0.424
0.436
0.476
0.5
0
0
0
0
0
0
0
0
0
0
0
0
0
0
0
0
0
0
0
0
0
0
0
0
0
0
0
0
0
0
0
0
0
0
0
0
0
0
0
0
0
0
0
0
0
0
0
0
0
0
0
0
0
0
0
0
0
0
0
0
0
0
0
0
0
0
0
0
0
0
0
0
0
0
0
0
0
0
0
0
0
0
0
0
0
0
0
0
0
0
0
0
0
0
0
0
0
0
0
0
0
0
0
0
0
0
0
0
0
0
0
1.068
1.068
1.068
0
0
0
0
0
0
0
0
0
0
0
0
0
0
0
0
0
0
0
0
0
0
0
0
0
0
0
0
0
0
0
0
0
0
0
0
0
0
0
0
0
0
0
0
0
0
0
0
0
0
0
0
0
0
0
0
0
0
0
0
1.32
1.068
0.996
0
0
0
0
0
0
0
0
0
0
)
;

boundaryField
{
    inlet
    {
        type            calculated;
        value           uniform 0;
    }
    endWall
    {
        type            calculated;
        value           uniform 0;
    }
    sideWall
    {
        type            empty;
    }
}


// ************************************************************************* //
