/*--------------------------------*- C++ -*----------------------------------*\
| =========                 |                                                 |
| \\      /  F ield         | foam-extend: Open Source CFD                    |
|  \\    /   O peration     | Version:     3.2                                |
|   \\  /    A nd           | Web:         http://www.foam-extend.org         |
|    \\/     M anipulation  | For copyright notice see file Copyright         |
\*---------------------------------------------------------------------------*/
FoamFile
{
    version     2.0;
    format      ascii;
    class       areaScalarField;
    location    "2020";
    object      thetaCSS1;
}
// * * * * * * * * * * * * * * * * * * * * * * * * * * * * * * * * * * * * * //

dimensions      [0 0 0 0 0 0 0];

internalField   nonuniform List<scalar> 
550
(
0.127208
0.127208
0.127208
0.127208
0.127208
0.127208
0.127208
0.127208
0.127208
0.127208
0.127115
0.127208
0.127301
0.127133
0.127208
0.127283
0.127156
0.127162
0.127221
0.127218
0.127248
0.127215
0.127208
0.127237
0.127208
0.127208
0.127189
0.127208
0.127227
0.127208
0.127208
0.127193
0.127194
0.127209
0.127209
0.127222
0.127209
0.127196
0.12722
0.127209
0.127197
0.127219
0.127209
0.127198
0.127209
0.127209
0.127207
0.127555
0.127036
0.127817
0.127176
0.127916
0.126745
0.128195
0.126916
0.12816
0.126886
0.128014
0.14238
0.128046
0.126819
0.128117
0.126776
0.15816
0.158383
0.128006
0.126733
0.127946
0.165114
0.127895
0.12668
0.127967
0.135323
0.148146
0.150688
0.145012
0.122125
0.12642
0.146804
0.15852
0.150535
0.145185
0.127638
0.126913
0.127247
0.148347
0.149825
0.146841
0.147888
0.127548
0.126858
0.127982
0.150459
0.151981
0.146531
0.150696
0.12747
0.127625
0.127882
0.141147
0.14852
0.15625
0.153072
0.126456
0.130579
0.126889
0.130787
0.140735
0.148732
0.138554
0.139091
0.128298
0.127836
0.12795
0.127594
0.139765
0.137552
0.140677
0.165918
0.129669
0.129944
0.129426
0.132953
0.139584
0.128667
0.129836
0.128593
0.132991
0.139885
0.128269
0.128418
0.128449
0.128439
0.129249
0.129448
0.130664
0.131379
0.134045
0.134731
0.135137
0.135389
0.13551
0.13584
0.13601
0.136372
0.136533
0.1369
0.137029
0.13738
0.137457
0.137779
0.137801
0.1381
0.138059
0.13835
0.138229
0.138557
0.138302
0.138785
0.138188
0.139091
0.137763
0.139114
0.137113
0.138845
0.13639
0.138201
0.135682
0.136951
0.133955
0.13431
0.132716
0.133252
0.13224
0.132721
0.132118
0.132488
0.132169
0.132477
0.132284
0.132608
0.13243
0.132773
0.132612
0.132967
0.132819
0.133181
0.133044
0.133408
0.13328
0.133644
0.133523
0.133884
0.133771
0.134129
0.13402
0.134374
0.134268
0.134615
0.134509
0.13485
0.134743
0.135076
0.134969
0.135292
0.135185
0.135501
0.135393
0.135702
0.135595
0.135899
0.135792
0.13609
0.135984
0.136277
0.136172
0.136462
0.136358
0.136644
0.136541
0.136825
0.136724
0.137007
0.136908
0.137191
0.137095
0.137382
0.13729
0.137582
0.137494
0.137791
0.137706
0.138008
0.137925
0.138232
0.138151
0.138463
0.138382
0.138699
0.138619
0.138942
0.138863
0.139192
0.139114
0.139448
0.139368
0.139708
0.139621
0.139968
0.139873
0.140232
0.14012
0.140499
0.140354
0.140777
0.140571
0.141074
0.14076
0.141394
0.140911
0.141726
0.141023
0.142041
0.141107
0.142326
0.141173
0.142566
0.141239
0.142741
0.141327
0.142833
0.14147
0.14283
0.141706
0.142727
0.142068
0.142559
0.142573
0.142438
0.143016
0.142131
0.142991
0.141645
0.13939
0.136994
0.140895
0.142457
0.141728
0.142913
0.142055
0.142865
0.142248
0.142762
0.142389
0.142677
0.142494
0.142612
0.142557
0.142546
0.142613
0.142511
0.142652
0.142493
0.142676
0.142482
0.14269
0.142477
0.142698
0.14248
0.142707
0.142494
0.142719
0.142521
0.142738
0.14256
0.142767
0.142615
0.142808
0.142683
0.142862
0.142764
0.142927
0.142858
0.143006
0.142964
0.143096
0.14308
0.143199
0.143211
0.143317
0.143357
0.14346
0.143529
0.143633
0.143701
0.143808
0.14388
0.143994
0.14407
0.144192
0.144276
0.144406
0.144499
0.144637
0.144737
0.144884
0.144991
0.145146
0.145261
0.145422
0.145543
0.145714
0.14583
0.146021
0.146106
0.146347
0.146354
0.146717
0.146529
0.147131
0.146604
0.147314
0.146587
0.147359
0.147345
0.147547
0.147753
0.147975
0.148176
0.148399
0.148606
0.148822
0.149033
0.14925
0.149456
0.149673
0.149869
0.150084
0.150279
0.150488
0.150699
0.150921
0.151036
0.151351
0.151321
0.151878
0.151465
0.152577
0.151358
0.153488
0.150975
0.154561
0.150668
0.155833
0.149212
0.147375
0.138961
0.147547
0.152715
0.154847
0.153307
0.154937
0.153844
0.15491
0.154475
0.154757
0.15517
0.15454
0.15602
0.154023
0.157216
0.153419
0.158547
0.152034
0.149158
0.140073
0.149516
0.154497
0.157559
0.15514
0.157444
0.155668
0.157303
0.156184
0.157229
0.156616
0.157239
0.156958
0.157333
0.157242
0.157462
0.157475
0.15762
0.157673
0.157783
0.157864
0.157958
0.158037
0.158131
0.158219
0.158309
0.158402
0.158491
0.158586
0.158676
0.158769
0.158868
0.158971
0.159069
0.159172
0.159275
0.159387
0.159506
0.159616
0.159739
0.159867
0.159986
0.160113
0.160245
0.160375
0.160521
0.16065
0.160788
0.160942
0.161045
0.161291
0.161225
0.161773
0.161213
0.162557
0.160814
0.164018
0.159888
0.166446
0.157632
0.155587
0.142008
0.157057
0.160232
0.165738
0.162118
0.165056
0.1634
0.164842
0.164325
0.165003
0.164994
0.165339
0.165485
0.165745
0.165953
0.166189
0.166412
0.16665
0.16688
0.167107
0.167357
0.167597
0.167849
0.168096
0.168354
0.168618
0.168873
0.169145
0.169407
0.169692
0.169968
0.170236
0.170516
0.170785
0.171067
0.171344
0.171608
0.171883
0.172148
0.172446
0.172657
0.173047
0.173092
0.173788
0.173368
0.174764
0.173396
0.176177
0.173189
0.177876
0.172854
0.179813
0.172541
0.181572
0.172554
0.182095
0.173128
0.181424
0.168237
0.16598
0.149996
0.139195
0.107574
0.0644384
0.127209
0.127208
0.127208
0.127209
0.127208
0.127209
0.127994
0.127994
0.127993
0.127994
)
;

boundaryField
{
    inlet
    {
        type            calculated;
        value           uniform 0;
    }
    endWall
    {
        type            calculated;
        value           uniform 0;
    }
    sideWall
    {
        type            empty;
    }
}


// ************************************************************************* //
