/*--------------------------------*- C++ -*----------------------------------*\
| =========                 |                                                 |
| \\      /  F ield         | foam-extend: Open Source CFD                    |
|  \\    /   O peration     | Version:     3.2                                |
|   \\  /    A nd           | Web:         http://www.foam-extend.org         |
|    \\/     M anipulation  | For copyright notice see file Copyright         |
\*---------------------------------------------------------------------------*/
FoamFile
{
    version     2.0;
    format      ascii;
    class       areaScalarField;
    location    "1790";
    object      thetaHMaxSS1;
}
// * * * * * * * * * * * * * * * * * * * * * * * * * * * * * * * * * * * * * //

dimensions      [0 0 0 0 0 0 0];

internalField   nonuniform List<scalar> 
550
(
0
0
0
0
0
0
0
0
0
0
0
0
0
0
0
0
0
0
0
0
0
0
0
0
0
0
0
0
0
0
0
0
0
0
0
0
0
0
0
0
0
0
0
0
0
0
0
0
0
0
0
0
0
0
0
0
0
0
0
0
0
0
0
0
0
0
0
0
0
0
0
0
0
0
0
0
0
0
0
0
0
0
0
0
0
0
0
0
0
0
0
0
0
0
0
0
0
0
0
0
0
0
0
0
0
0
0
0
0
2.3999
2.41515
2.4106
2.40631
2.40318
2.39815
2.39329
2.38896
2.3846
2.37969
2.36305
2.37065
2.35553
2.35198
2.35684
2.35015
2.33554
2.33131
2.33832
2.32958
2.32073
2.31475
2.31424
2.30398
2.30448
2.29445
2.28906
2.28504
2.28244
2.27526
2.27129
2.2673
2.26158
2.25675
2.25248
2.24763
2.24335
2.24739
2.2446
2.2412
2.22485
2.22035
2.22366
2.22461
2.20828
2.20427
2.20053
2.1959
2.19344
2.19213
2.1889
2.18636
2.18326
2.17972
2.17562
2.17144
2.16851
2.16446
2.16106
2.15831
2.15402
2.14975
2.14313
2.14426
2.14058
2.1336
2.12365
2.12059
2.11828
2.11463
2.11249
2.11063
2.10755
2.10265
2.0994
2.11166
2.10809
2.10497
2.10228
2.09843
2.08509
2.08541
2.08952
2.07779
2.0757
2.07359
2.07067
2.06939
2.06714
2.06449
2.06359
2.06339
2.07495
2.07774
2.0777
2.07754
2.06511
2.065
2.04953
2.06049
2.05577
2.04985
2.06086
2.05927
2.06127
2.04769
2.05744
2.05026
2.04928
2.03414
2.04081
2.04412
2.04743
2.05148
2.06454
2.05604
2.05938
2.06374
2.0705
2.069
2.07526
2.07922
2.06236
2.041
2.07386
2.09009
2.09781
2.10139
2.08523
2.09503
2.10436
2.10611
2.1078
2.10875
2.10953
2.11015
2.11105
2.11189
2.11241
2.11265
2.11302
2.11326
2.11337
2.11343
2.11324
2.11327
2.1134
2.11359
2.11359
2.1136
2.11356
2.11356
2.11343
2.1129
2.11235
2.11149
2.11079
2.10976
2.10903
2.10754
2.10554
2.09974
2.09353
2.10111
2.10771
2.10766
2.10789
2.10709
2.10672
2.10606
2.10571
2.10534
2.10525
2.1053
2.10549
2.10574
2.10607
2.10646
2.10691
2.10734
2.10779
2.10821
2.10864
2.10904
2.10944
2.10976
2.11009
2.11037
2.11066
2.11094
2.11123
2.11151
2.11178
2.11202
2.11227
2.11247
2.1127
2.11287
2.11308
2.11324
2.11342
2.11356
2.11371
2.11383
2.11396
2.11407
2.11418
2.11431
2.1144
2.11465
2.11475
2.11522
2.11528
2.11604
2.11609
2.1171
2.11737
2.11819
2.11908
2.11826
2.12046
2.11103
2.114
2.12512
2.12522
2.12684
2.12717
2.12801
2.12868
2.12959
2.13016
2.12766
2.0487
2.13438
2.13567
2.13707
2.1384
2.13984
2.14117
2.1426
2.14389
2.14523
2.14647
2.14768
2.1488
2.14984
2.15078
2.15161
2.15237
2.15301
2.15361
2.1541
2.15459
2.15496
2.15536
2.15568
2.15607
2.15641
2.15688
2.15733
2.15787
2.15837
2.15892
2.15946
2.16002
2.16059
2.16118
2.16176
2.1624
2.16305
2.16376
2.16449
2.1653
2.16612
2.16701
2.1679
2.16883
2.16973
2.17066
2.17154
2.17243
2.17326
2.17409
2.17486
2.17564
2.17636
2.1771
2.1778
2.17852
2.1792
2.17991
2.1806
2.18132
2.18202
2.18273
2.18345
2.18393
2.17638
2.02101
2.18664
2.18738
2.18812
2.18884
2.18955
2.19024
2.19091
2.19158
2.19224
2.1929
2.19356
2.1942
2.19483
2.19541
2.19593
2.19635
2.19665
2.21931
2.21772
2.21613
2.21448
2.21279
2.21105
2.20928
2.20747
2.20566
2.20384
2.20201
2.20018
2.19834
2.19651
2.19469
2.19288
2.19109
2.18931
2.18756
2.18582
2.18412
2.18243
2.18078
2.17916
2.17757
2.17601
2.17449
2.17301
2.17156
2.17014
2.16876
2.16741
2.16606
2.16475
2.16345
2.16218
2.16092
2.15969
2.15847
2.15728
2.15611
2.15497
2.15383
2.15271
2.15159
2.15048
2.14939
2.14831
2.14721
2.14616
2.14499
2.14406
2.14268
2.14195
2.14013
2.13978
2.13738
2.13747
2.13466
2.13384
2.13206
2.1262
2.13617
2.10648
2.10992
2.13785
2.12088
2.11923
2.11612
2.11248
2.11166
2.10869
2.1082
2.01416
2.01511
2.01598
2.01687
2.01771
2.01857
2.01938
2.02025
2.09895
2.07006
2.07391
2.10299
2.08827
2.02577
2.02672
2.02769
2.02864
2.02977
2.03062
2.032
2.03267
2.03456
2.0348
2.03753
2.03724
2.04107
2.04047
2.04514
2.04431
2.04893
2.04801
2.05105
2.05031
2.0497
2.0494
2.04372
2.06347
2.06647
2.0725
2.02801
1.93222
1.66221
0
0
0
0
0
0
0
0
0
0
)
;

boundaryField
{
    inlet
    {
        type            calculated;
        value           uniform 0;
    }
    endWall
    {
        type            calculated;
        value           uniform 0;
    }
    sideWall
    {
        type            empty;
    }
}


// ************************************************************************* //
