/*--------------------------------*- C++ -*----------------------------------*\
| =========                 |                                                 |
| \\      /  F ield         | foam-extend: Open Source CFD                    |
|  \\    /   O peration     | Version:     3.2                                |
|   \\  /    A nd           | Web:         http://www.foam-extend.org         |
|    \\/     M anipulation  | For copyright notice see file Copyright         |
\*---------------------------------------------------------------------------*/
FoamFile
{
    version     2.0;
    format      ascii;
    class       areaScalarField;
    location    "2020";
    object      thetaHMaxSS1;
}
// * * * * * * * * * * * * * * * * * * * * * * * * * * * * * * * * * * * * * //

dimensions      [0 0 0 0 0 0 0];

internalField   nonuniform List<scalar> 
550
(
0
0
0
0
0
0
0
0
0
0
0
0
0
0
0
0
0
0
0
0
0
0
0
0
0
0
0
0
0
0
0
0
0
0
0
0
0
0
0
0
0
0
0
0
0
0
2.83816
2.81877
2.79819
2.78199
2.76538
2.75208
2.73693
2.72462
2.71029
2.69911
2.68646
2.67552
2.66506
2.65522
2.64674
2.63933
2.62991
2.62248
2.61388
2.60635
2.5996
2.59274
2.5855
2.57823
2.57173
2.56601
2.56227
2.55744
0
0
0
2.53476
2.52975
0
0
0
0
0
0
0
0
0
0
0
0
0
0
0
0
0
0
0
0
0
0
0
0
2.42542
2.42718
2.41549
2.43364
0
0
0
0
0
0
0
0
0
0
0
0
2.36374
2.3563
2.35764
0
0
2.33912
2.33466
2.3063
2.37744
0
2.30431
2.30348
2.29371
2.28407
2.28399
2.28426
2.28658
2.2786
2.39382
2.38877
2.38717
2.38148
2.37738
2.37738
2.37749
2.37802
2.37865
2.37941
2.37994
2.38035
2.38017
2.37985
2.37862
2.37807
2.3757
2.37504
2.37154
2.37101
2.36743
2.36654
2.3632
2.36019
2.35592
2.35058
2.34507
2.33889
2.33308
2.32771
2.31999
2.31309
2.28926
2.25238
2.23977
2.22727
2.21857
2.21136
2.20503
2.20014
2.19544
2.19196
2.18844
2.18593
2.1833
2.18149
2.1795
2.17819
2.17669
2.17575
2.17463
2.17392
2.17312
2.17262
2.17205
2.1717
2.17139
2.17119
2.17107
2.17098
2.17096
2.17095
2.17096
2.17099
2.17103
2.17108
2.17112
2.17117
2.17121
2.17126
2.17131
2.17137
2.17144
2.17153
2.17162
2.17172
2.17182
2.17192
2.17204
2.17216
2.17227
2.17239
2.1725
2.17262
2.17275
2.17286
2.17299
2.17309
2.17326
2.17337
2.17359
2.17372
2.17398
2.17415
2.17444
2.17465
2.17495
2.17517
2.17548
2.17574
2.17605
2.17633
2.17665
2.17696
2.17731
2.17762
2.17801
2.17834
2.17877
2.1791
2.17956
2.1799
2.18038
2.18071
2.18121
2.18153
2.18202
2.18232
2.18279
2.18307
2.18352
2.18375
2.18413
2.18429
2.18463
2.18475
2.18504
2.18509
2.18531
2.18531
2.18549
2.18543
2.18556
2.18545
2.18553
2.18539
2.18539
2.1852
2.18505
2.18485
2.18449
2.18427
2.18366
2.18342
2.18266
2.18226
2.16743
1.91003
2.18045
2.1801
2.17924
2.17883
2.17796
2.17749
2.17662
2.17609
2.1752
2.1746
2.1737
2.17305
2.17213
2.17143
2.1705
2.16976
2.16882
2.16804
2.16711
2.16632
2.1654
2.16461
2.16372
2.16293
2.16209
2.16135
2.16058
2.15989
2.15917
2.15853
2.1579
2.15733
2.15678
2.15629
2.15581
2.15538
2.15496
2.1546
2.15425
2.15394
2.15365
2.15338
2.15313
2.15292
2.15272
2.15255
2.1524
2.15228
2.15219
2.15213
2.15211
2.15212
2.15217
2.15226
2.15239
2.15256
2.15279
2.15306
2.15339
2.15376
2.15419
2.15466
2.15518
2.15575
2.15636
2.15702
2.15776
2.15864
2.1596
2.16064
2.16174
2.16287
2.16408
2.16525
2.16651
2.16772
2.16902
2.17027
2.1716
2.17287
2.17422
2.1755
2.17685
2.17813
2.17949
2.18077
2.18211
2.18336
2.18466
2.18587
2.18712
2.18826
2.18944
2.19052
2.19164
2.19265
2.1937
2.19464
2.1956
2.19647
2.19736
2.19814
2.19895
2.19965
2.20037
2.20099
2.20161
2.20212
2.20265
2.20185
2.18259
1.8423
2.20557
2.2061
2.2066
2.20707
2.2075
2.20789
2.20824
2.20854
2.20881
2.20903
2.20921
2.20935
2.20945
2.20952
2.20956
2.20952
2.20952
2.18548
1.82465
2.20943
2.20938
2.20934
2.20928
2.20924
2.20919
2.20913
2.20909
2.20905
2.20901
2.20897
2.20893
2.20888
2.20883
2.20876
2.20869
2.20861
2.20852
2.20842
2.20832
2.20822
2.20813
2.20804
2.20797
2.2079
2.20783
2.20778
2.20774
2.20771
2.20769
2.20769
2.20771
2.20775
2.20782
2.20792
2.20806
2.20822
2.20841
2.20862
2.20887
2.20914
2.20944
2.20975
2.2101
2.21046
2.21084
2.21125
2.21166
2.21211
2.21256
2.21304
2.21354
2.21407
2.21462
2.2152
2.21583
2.21649
2.21721
2.2177
2.18643
1.77349
2.22026
2.22116
2.22212
2.22312
2.22414
2.22521
2.2263
2.22742
2.22856
2.22972
2.2309
2.2321
2.2333
2.23451
2.23573
2.23695
2.23818
2.23941
2.24066
2.24193
2.24323
2.24455
2.2459
2.24727
2.24868
2.2501
2.25156
2.25302
2.2545
2.25595
2.25741
2.25885
2.2603
2.26173
2.26316
2.26456
2.26596
2.26724
2.2688
2.2698
2.27168
2.27225
2.27485
2.27455
2.27856
2.27732
2.28309
2.28152
2.28835
2.28664
2.29277
2.29107
2.29369
2.29217
2.28811
2.28626
2.27565
2.27178
2.25004
2.23287
2.24153
2.05538
1.62407
0
0
0
0
0
0
0
0
0
0
)
;

boundaryField
{
    inlet
    {
        type            calculated;
        value           uniform 0;
    }
    endWall
    {
        type            calculated;
        value           uniform 0;
    }
    sideWall
    {
        type            empty;
    }
}


// ************************************************************************* //
