/*--------------------------------*- C++ -*----------------------------------*\
| =========                 |                                                 |
| \\      /  F ield         | foam-extend: Open Source CFD                    |
|  \\    /   O peration     | Version:     3.2                                |
|   \\  /    A nd           | Web:         http://www.foam-extend.org         |
|    \\/     M anipulation  | For copyright notice see file Copyright         |
\*---------------------------------------------------------------------------*/
FoamFile
{
    version     2.0;
    format      ascii;
    class       areaScalarField;
    location    "2020";
    object      thetaSS2;
}
// * * * * * * * * * * * * * * * * * * * * * * * * * * * * * * * * * * * * * //

dimensions      [0 0 0 0 0 0 0];

internalField   nonuniform List<scalar> 
550
(
0.514768
0.710869
0.949241
1.22778
1.53973
1.87437
2.21896
2.55923
2.88262
3.17778
3.43655
3.65404
3.83041
3.96483
4.0598
4.12058
4.15071
4.15441
4.1375
4.10568
4.06215
4.00984
3.95057
3.88705
3.82082
3.75349
3.68608
3.62013
3.55644
3.49524
3.43629
3.38004
3.32627
3.27551
3.22743
3.18237
3.13985
3.09993
3.06242
3.02744
2.99438
2.96373
2.93496
2.90809
2.88288
2.85952
2.8376
2.8183
2.79799
2.78276
2.76536
2.75204
2.73548
2.72405
2.71023
2.69857
2.68647
2.67552
2.66483
2.65523
2.64605
2.63775
2.62919
2.62133
2.61377
2.60652
2.59964
2.59281
2.5859
2.57885
2.57182
2.56608
2.55926
2.55423
2.54082
2.55863
2.56999
2.53485
2.52925
2.51968
2.51293
2.50824
2.50027
2.49631
2.48743
2.48517
2.48099
2.47677
2.47419
2.4733
2.46775
2.46466
2.46204
2.45864
2.45685
2.45367
2.45089
2.44946
2.44069
2.44842
2.44841
2.46664
2.47269
2.42609
2.42249
2.41871
2.41451
2.42461
2.42167
2.42338
2.42289
2.42035
2.41979
2.42093
2.41519
2.41957
2.40798
2.42844
2.4282
2.38066
2.38516
2.37668
2.39653
2.40079
2.37352
2.37558
2.37368
2.4003
2.39861
2.36874
2.366
2.3595
2.35872
2.36211
2.36968
2.37557
2.39791
2.41837
2.42232
2.4271
2.42972
2.43337
2.43744
2.44149
2.44564
2.44953
2.45338
2.4568
2.46007
2.46286
2.46541
2.46756
2.46946
2.47087
2.47228
2.47283
2.47406
2.47352
2.47476
2.47269
2.47371
2.47104
2.47096
2.46804
2.46628
2.46341
2.45893
2.45473
2.4474
2.43614
2.422
2.41362
2.40377
2.39741
2.39013
2.38529
2.38
2.37636
2.3729
2.37042
2.36852
2.36726
2.36646
2.36611
2.3661
2.3664
2.36693
2.36768
2.36859
2.36966
2.37083
2.37211
2.37345
2.37487
2.37632
2.37782
2.3793
2.38082
2.3823
2.38379
2.38523
2.38667
2.38805
2.38941
2.39072
2.39201
2.39324
2.39445
2.3956
2.39674
2.39782
2.39889
2.3999
2.40091
2.40186
2.40282
2.40374
2.40467
2.40556
2.40647
2.40736
2.40828
2.40919
2.41013
2.41108
2.41208
2.41311
2.41419
2.41531
2.41649
2.41771
2.41899
2.4203
2.42167
2.42308
2.42454
2.42604
2.4276
2.42919
2.43083
2.43252
2.43426
2.43605
2.43789
2.43977
2.44167
2.44361
2.44553
2.4475
2.44941
2.45143
2.45331
2.45538
2.45716
2.45934
2.46099
2.46331
2.46484
2.46732
2.4688
2.47139
2.47287
2.47546
2.47696
2.4794
2.48092
2.48302
2.48457
2.4861
2.48771
2.48846
2.49012
2.48994
2.4916
2.49047
2.49196
2.49028
2.49112
2.49033
2.49002
2.49191
2.48487
2.49147
2.44707
2.45841
2.50693
2.5036
2.50874
2.50494
2.50475
2.50153
2.5006
2.49803
2.4971
2.49508
2.4942
2.49258
2.49159
2.49025
2.48946
2.48832
2.4876
2.48661
2.48588
2.48502
2.48429
2.48353
2.48283
2.48217
2.48152
2.48098
2.4804
2.47997
2.47948
2.47918
2.47881
2.47864
2.47839
2.47836
2.47825
2.47835
2.47837
2.4786
2.47874
2.47908
2.47933
2.47976
2.48011
2.48062
2.48108
2.48165
2.48226
2.483
2.48392
2.48492
2.48608
2.48731
2.48867
2.4901
2.49164
2.49324
2.49494
2.49671
2.49855
2.50045
2.50241
2.50441
2.50646
2.50855
2.51067
2.51282
2.51504
2.5171
2.51938
2.52118
2.52349
2.52498
2.52731
2.52843
2.53056
2.53178
2.53268
2.53302
2.53029
2.52943
2.52703
2.52456
2.52196
2.51944
2.51695
2.51456
2.51222
2.50994
2.50774
2.50559
2.50352
2.50146
2.49946
2.49747
2.4956
2.49359
2.49223
2.49004
2.48895
2.48621
2.48572
2.4822
2.48249
2.47822
2.47871
2.47452
2.47296
2.47201
2.4654
2.48067
2.42542
2.43202
2.46399
2.4327
2.43258
2.42502
2.42193
2.42077
2.41811
2.41965
2.41754
2.42017
2.41804
2.42122
2.41899
2.4206
2.42189
2.41758
2.4353
2.38117
2.38955
2.42517
2.39185
2.39277
2.38586
2.38335
2.38286
2.38112
2.38258
2.38198
2.38388
2.38408
2.38583
2.38641
2.38788
2.38857
2.38963
2.3903
2.39101
2.39157
2.3921
2.39251
2.39282
2.39301
2.39312
2.39312
2.39306
2.39291
2.39271
2.39244
2.3921
2.39171
2.39129
2.39084
2.39036
2.38983
2.38926
2.38869
2.3881
2.38748
2.38688
2.38627
2.38564
2.38501
2.38439
2.38378
2.38332
2.38263
2.38243
2.38147
2.38171
2.38011
2.38109
2.37832
2.38017
2.37597
2.37769
2.37531
2.37225
2.38987
2.33298
2.34104
2.37948
2.34673
2.34417
2.33928
2.33379
2.33373
2.33032
2.33107
2.32978
2.33068
2.33066
2.33139
2.33169
2.33214
2.3325
2.33281
2.33301
2.33312
2.33306
2.33289
2.3326
2.33219
2.33166
2.33101
2.33026
2.32939
2.32841
2.32729
2.32608
2.32479
2.3234
2.32191
2.32033
2.31866
2.31693
2.31509
2.31325
2.31117
2.30944
2.30701
2.30551
2.30245
2.30151
2.29752
2.29749
2.2921
2.29297
2.28646
2.28742
2.27994
2.28006
2.2733
2.27202
2.27005
2.26878
2.27648
2.28574
2.31515
2.31469
2.301
2.21893
2.05538
1.62407
1.19232
1.02331
0.858888
0.728705
0.542298
0.39821
0.300563
0.319058
0.499052
0.80732
)
;

boundaryField
{
    inlet
    {
        type            calculated;
        value           uniform 0;
    }
    endWall
    {
        type            calculated;
        value           uniform 0;
    }
    sideWall
    {
        type            empty;
    }
}


// ************************************************************************* //
