/*--------------------------------*- C++ -*----------------------------------*\
| =========                 |                                                 |
| \\      /  F ield         | foam-extend: Open Source CFD                    |
|  \\    /   O peration     | Version:     3.2                                |
|   \\  /    A nd           | Web:         http://www.foam-extend.org         |
|    \\/     M anipulation  | For copyright notice see file Copyright         |
\*---------------------------------------------------------------------------*/
FoamFile
{
    version     2.0;
    format      ascii;
    class       areaScalarField;
    location    "2020";
    object      thetaB;
}
// * * * * * * * * * * * * * * * * * * * * * * * * * * * * * * * * * * * * * //

dimensions      [0 0 0 0 0 0 0];

internalField   nonuniform List<scalar> 
550
(
0.0153908
0.0212539
0.0283809
0.0367089
0.0460356
0.0560407
0.0663435
0.076517
0.086186
0.0950109
0.102748
0.10925
0.114523
0.118542
0.121382
0.123199
0.1241
0.12421
0.123705
0.122754
0.121452
0.119888
0.118116
0.116217
0.114237
0.112224
0.110208
0.108236
0.106332
0.104502
0.10274
0.101058
0.0994503
0.0979328
0.0964953
0.0951481
0.0938769
0.0926831
0.0915616
0.090516
0.0895273
0.0886111
0.0877509
0.0869475
0.0861939
0.0854954
0.08484
0.0842629
0.0836556
0.0832004
0.08268
0.0822817
0.0817866
0.0814449
0.0810317
0.0806832
0.0803214
0.0799939
0.0796745
0.0793873
0.0791128
0.0788648
0.0786088
0.0783737
0.0781477
0.077931
0.0777254
0.077521
0.0773145
0.0771037
0.0768934
0.076722
0.0765181
0.0763676
0.0759667
0.0764991
0.0768388
0.0757881
0.0756208
0.0753346
0.0751329
0.0749925
0.0747544
0.074636
0.0743704
0.0743028
0.0741778
0.0740517
0.0739744
0.073948
0.0737818
0.0736897
0.0736114
0.0735096
0.0734562
0.0733609
0.0732778
0.0732353
0.0729731
0.0732042
0.0732037
0.0737487
0.0739296
0.0725365
0.0724288
0.0723158
0.0721903
0.0724922
0.0724042
0.0724554
0.0724407
0.0723647
0.072348
0.072382
0.0722104
0.0723414
0.071995
0.0726067
0.0725996
0.0711781
0.0713127
0.0710593
0.0716528
0.0717799
0.0709647
0.0710262
0.0709694
0.0717653
0.0717147
0.0708217
0.0707399
0.0705456
0.0705221
0.0706235
0.0708499
0.0710258
0.0716938
0.0723056
0.0724237
0.0725667
0.072645
0.0727539
0.0728758
0.0729968
0.0731208
0.0732372
0.0733524
0.0734547
0.0735525
0.0736356
0.0737119
0.0737762
0.0738331
0.0738753
0.0739174
0.0739338
0.0739706
0.0739545
0.0739916
0.0739296
0.0739603
0.0738804
0.0738779
0.0737906
0.073738
0.0736523
0.0735184
0.0733927
0.0731737
0.072837
0.0724141
0.0721635
0.0718691
0.071679
0.0714614
0.0713165
0.0711584
0.0710495
0.0709462
0.0708719
0.0708152
0.0707773
0.0707537
0.0707431
0.0707428
0.0707517
0.0707677
0.0707901
0.0708174
0.0708493
0.0708843
0.0709224
0.0709626
0.071005
0.0710484
0.0710931
0.0711376
0.0711828
0.0712272
0.0712716
0.0713148
0.0713577
0.0713991
0.0714399
0.0714789
0.0715175
0.0715542
0.0715904
0.0716248
0.0716588
0.0716911
0.071723
0.0717533
0.0717834
0.0718121
0.0718408
0.0718682
0.0718959
0.0719226
0.0719498
0.0719765
0.0720038
0.072031
0.0720591
0.0720877
0.0721176
0.0721484
0.0721807
0.0722143
0.0722495
0.0722859
0.072324
0.0723634
0.0724043
0.0724464
0.0724902
0.072535
0.0725814
0.0726291
0.0726782
0.0727288
0.0727806
0.0728342
0.0728891
0.0729454
0.0730022
0.0730601
0.0731175
0.0731766
0.0732338
0.0732941
0.0733501
0.0734123
0.0734654
0.0735305
0.0735799
0.0736493
0.0736951
0.0737692
0.0738133
0.0738907
0.0739351
0.0740125
0.0740575
0.0741302
0.0741758
0.0742384
0.074285
0.0743307
0.0743787
0.0744013
0.0744509
0.0744453
0.0744951
0.0744612
0.0745057
0.0744557
0.0744808
0.0744571
0.0744479
0.0745044
0.0742938
0.0744911
0.0731636
0.0735028
0.0749535
0.0748539
0.0750075
0.074894
0.0748883
0.0747919
0.074764
0.0746874
0.0746596
0.0745991
0.0745729
0.0745243
0.0744949
0.0744547
0.0744312
0.0743969
0.0743755
0.0743459
0.0743241
0.0742982
0.0742765
0.0742538
0.0742328
0.0742132
0.0741937
0.0741774
0.0741601
0.0741474
0.0741328
0.0741237
0.0741126
0.0741076
0.0741002
0.0740993
0.0740959
0.074099
0.0740994
0.0741063
0.0741105
0.0741206
0.0741281
0.074141
0.0741514
0.0741668
0.0741805
0.0741976
0.0742158
0.0742379
0.0742654
0.0742952
0.07433
0.0743668
0.0744075
0.0744502
0.0744963
0.0745442
0.0745951
0.0746477
0.0747029
0.0747596
0.0748182
0.074878
0.0749394
0.0750018
0.0750654
0.0751294
0.0751959
0.0752574
0.0753256
0.0753793
0.0754484
0.0754929
0.0755628
0.0755963
0.0756598
0.0756963
0.0757234
0.0757336
0.0756519
0.0756262
0.0755542
0.0754806
0.0754029
0.0753274
0.0752531
0.0751815
0.0751115
0.0750435
0.0749777
0.0749133
0.0748513
0.07479
0.0747302
0.0746706
0.0746147
0.0745544
0.0745139
0.0744484
0.0744159
0.074334
0.0743192
0.0742141
0.0742228
0.074095
0.0741098
0.0739843
0.0739379
0.0739094
0.0737117
0.0741682
0.0725163
0.0727138
0.0736696
0.0727341
0.0727305
0.0725044
0.0724121
0.0723773
0.0722978
0.0723439
0.0722807
0.0723595
0.0722957
0.0723909
0.0723242
0.0723723
0.0724108
0.0722819
0.0728119
0.0711934
0.0714438
0.072509
0.0715128
0.0715403
0.0713335
0.0712584
0.0712439
0.071192
0.0712355
0.0712177
0.0712744
0.0712804
0.0713326
0.0713501
0.0713939
0.0714147
0.0714464
0.0714662
0.0714875
0.0715043
0.0715201
0.0715323
0.0715416
0.0715473
0.0715506
0.0715507
0.0715487
0.0715445
0.0715384
0.0715304
0.0715202
0.0715085
0.071496
0.0714825
0.0714681
0.0714522
0.0714354
0.0714182
0.0714005
0.071382
0.0713641
0.0713457
0.0713271
0.0713083
0.0712898
0.0712714
0.0712577
0.0712371
0.0712312
0.0712023
0.0712096
0.0711617
0.0711909
0.0711081
0.0711633
0.071038
0.0710893
0.0710181
0.0709265
0.0714535
0.0697527
0.0699936
0.0711429
0.0701636
0.070087
0.0699408
0.0697767
0.069775
0.0696731
0.0696956
0.069657
0.0696839
0.0696833
0.0697051
0.069714
0.0697276
0.0697382
0.0697475
0.0697535
0.0697567
0.0697551
0.06975
0.0697412
0.0697289
0.0697131
0.0696935
0.0696713
0.0696452
0.0696158
0.0695824
0.0695461
0.0695076
0.0694661
0.0694216
0.0693744
0.0693243
0.0692728
0.0692177
0.0691626
0.0691006
0.0690487
0.0689761
0.0689313
0.0688398
0.0688117
0.0686923
0.0686915
0.0685303
0.0685563
0.0683617
0.0683905
0.0681669
0.0681704
0.0679681
0.0679298
0.0678712
0.0678332
0.0680634
0.0683401
0.0692194
0.0692056
0.0687963
0.0663425
0.0614528
0.0485574
0.0356484
0.0305956
0.0256795
0.0217872
0.0162139
0.0119059
0.00898637
0.00953936
0.0149209
0.0241376
)
;

boundaryField
{
    inlet
    {
        type            calculated;
        value           uniform 0;
    }
    endWall
    {
        type            calculated;
        value           uniform 0;
    }
    sideWall
    {
        type            empty;
    }
}


// ************************************************************************* //
