/*--------------------------------*- C++ -*----------------------------------*\
| =========                 |                                                 |
| \\      /  F ield         | foam-extend: Open Source CFD                    |
|  \\    /   O peration     | Version:     3.2                                |
|   \\  /    A nd           | Web:         http://www.foam-extend.org         |
|    \\/     M anipulation  | For copyright notice see file Copyright         |
\*---------------------------------------------------------------------------*/
FoamFile
{
    version     2.0;
    format      ascii;
    class       areaScalarField;
    location    "1790";
    object      thetaBinit;
}
// * * * * * * * * * * * * * * * * * * * * * * * * * * * * * * * * * * * * * //

dimensions      [0 0 0 0 0 0 0];

internalField   nonuniform List<scalar> 
550
(
0.0222599
0.0307161
0.0409822
0.052949
0.0663269
0.0806471
0.0953747
0.1099
0.123703
0.136292
0.147359
0.156687
0.164228
0.170003
0.17413
0.176761
0.178093
0.178327
0.177672
0.176368
0.174555
0.172352
0.169861
0.167172
0.164363
0.161503
0.158646
0.155844
0.153135
0.150524
0.148013
0.145611
0.143326
0.14116
0.139113
0.137182
0.135366
0.133659
0.132059
0.130561
0.129158
0.127847
0.126621
0.125476
0.124406
0.123407
0.122474
0.121603
0.120791
0.120032
0.119324
0.118663
0.118045
0.117466
0.116924
0.116414
0.115934
0.115481
0.115053
0.114647
0.114261
0.113894
0.113544
0.11321
0.11289
0.112584
0.11229
0.112007
0.111735
0.111473
0.111219
0.110973
0.110735
0.110503
0.110277
0.110055
0.109837
0.109623
0.109413
0.109207
0.109003
0.108804
0.108607
0.108413
0.108222
0.108033
0.107847
0.107663
0.107481
0.1073
0.107122
0.106945
0.10677
0.106596
0.106422
0.106251
0.10608
0.10591
0.105741
0.105574
0.105407
0.105242
0.105077
0.104912
0.104747
0.104581
0.104414
0.104247
0.104078
0.103907
0.103735
0.103562
0.103387
0.10321
0.103032
0.102852
0.102671
0.102488
0.102304
0.102118
0.101931
0.101743
0.101553
0.101362
0.101169
0.100975
0.10078
0.100584
0.100387
0.100189
0.0999896
0.09979
0.0995898
0.0993892
0.0991882
0.0989869
0.0987855
0.0985842
0.098383
0.0981821
0.0979815
0.0977813
0.0975817
0.0973827
0.0971845
0.096987
0.0967905
0.0965949
0.0964004
0.0962069
0.0960146
0.0958236
0.095634
0.095446
0.0952595
0.0950747
0.0948917
0.0947106
0.0945314
0.0943542
0.0941792
0.0940063
0.0938356
0.0936672
0.093501
0.0933372
0.0931757
0.0930167
0.0928601
0.0927061
0.0925545
0.0924054
0.0922589
0.0921149
0.0919733
0.0918343
0.0916977
0.0915637
0.0914322
0.0913032
0.0911767
0.0910528
0.0909314
0.0908125
0.0906961
0.0905822
0.0904707
0.0903615
0.0902547
0.0901501
0.0900478
0.0899476
0.0898496
0.0897536
0.0896596
0.0895675
0.0894772
0.0893888
0.0893022
0.0892172
0.0891341
0.0890526
0.0889727
0.0888945
0.088818
0.088743
0.0886695
0.0885975
0.088527
0.0884579
0.0883902
0.0883238
0.0882587
0.0881947
0.0881318
0.08807
0.0880091
0.0879491
0.0878898
0.0878312
0.0877733
0.0877161
0.0876594
0.0876031
0.0875471
0.0874909
0.0874342
0.0873771
0.0873194
0.0872613
0.0872025
0.0871434
0.0870838
0.0870239
0.0869638
0.0869034
0.0868429
0.0867822
0.0867214
0.0866606
0.0865996
0.0865387
0.0864777
0.0864169
0.0863561
0.0862954
0.0862348
0.0861745
0.0861143
0.0860544
0.0859946
0.0859352
0.0858761
0.0858174
0.0857591
0.0857011
0.0856436
0.0855866
0.08553
0.0854739
0.0854183
0.0853631
0.0853084
0.0852542
0.0852006
0.0851474
0.0850947
0.0850426
0.0849909
0.0849397
0.084889
0.0848386
0.0847888
0.0847395
0.0846906
0.0846424
0.0845947
0.0845476
0.0845012
0.0844555
0.0844106
0.0843665
0.0843232
0.0842806
0.0842389
0.0841979
0.0841578
0.0841184
0.0840798
0.0840422
0.0840053
0.0839694
0.0839344
0.0839004
0.0838672
0.083835
0.0838036
0.083773
0.0837431
0.0837139
0.0836853
0.0836573
0.0836299
0.083603
0.0835765
0.0835506
0.083525
0.0834997
0.0834746
0.0834495
0.0834244
0.0833991
0.0833736
0.0833477
0.0833214
0.0832947
0.0832675
0.0832398
0.0832117
0.083183
0.0831538
0.083124
0.0830936
0.0830627
0.0830313
0.0829994
0.0829669
0.0829339
0.0829006
0.0828668
0.0828326
0.082798
0.0827629
0.0827273
0.0826911
0.0826542
0.0826165
0.082578
0.0825385
0.0824979
0.0824562
0.0824134
0.0823694
0.0823242
0.0822778
0.0822301
0.0821812
0.082131
0.0820796
0.0820269
0.0819731
0.0819182
0.0818623
0.0818054
0.0817476
0.0816888
0.0816293
0.081569
0.081508
0.0814463
0.0813839
0.0813208
0.0812571
0.0811928
0.0811279
0.0810625
0.0809966
0.0809303
0.0808635
0.0807964
0.080729
0.0806614
0.0805936
0.0805256
0.0804575
0.0803894
0.0803212
0.0802531
0.0801851
0.0801172
0.0800495
0.079982
0.0799147
0.0798479
0.0797814
0.0797153
0.0796497
0.0795846
0.07952
0.0794559
0.0793925
0.0793298
0.0792676
0.079206
0.0791451
0.0790847
0.0790248
0.0789654
0.0789064
0.0788478
0.0787896
0.0787318
0.0786744
0.0786173
0.0785605
0.0785041
0.0784481
0.0783923
0.0783369
0.0782817
0.0782268
0.0781721
0.0781176
0.0780635
0.0780095
0.0779559
0.0779026
0.0778497
0.0777971
0.0777449
0.077693
0.0776416
0.0775906
0.0775399
0.0774897
0.0774398
0.0773904
0.0773413
0.0772926
0.0772443
0.0771962
0.0771484
0.0771008
0.0770534
0.0770062
0.0769591
0.0769122
0.0768654
0.0768188
0.0767722
0.0767258
0.0766794
0.0766331
0.0765869
0.0765406
0.0764943
0.0764479
0.0764012
0.0763542
0.0763069
0.076259
0.0762107
0.076162
0.0761128
0.0760632
0.0760132
0.0759628
0.075912
0.075861
0.0758096
0.0757581
0.0757063
0.0756544
0.0756025
0.0755506
0.0754987
0.0754467
0.0753948
0.0753426
0.0752902
0.0752376
0.0751845
0.0751309
0.0750768
0.0750221
0.0749667
0.0749106
0.0748539
0.0747966
0.0747387
0.0746802
0.0746213
0.0745619
0.0745021
0.0744419
0.0743813
0.0743203
0.074259
0.0741975
0.0741358
0.0740739
0.0740119
0.0739497
0.0738873
0.0738245
0.0737612
0.0736972
0.0736327
0.0735673
0.0735014
0.0734346
0.0733672
0.0732989
0.0732301
0.0731604
0.0730903
0.0730195
0.0729486
0.0728775
0.0728065
0.0727354
0.0726646
0.0725937
0.0725232
0.0724525
0.0723823
0.0723118
0.0722418
0.0721715
0.0721016
0.0720309
0.0719605
0.0718888
0.0718168
0.0717428
0.0716678
0.0715892
0.0715085
0.0714201
0.0713269
0.071217
0.0710952
0.0709383
0.070754
0.0704969
0.0701784
0.0697083
0.0691016
0.0681806
0.0669457
0.0650717
0.0624967
0.0586785
0.0535274
0.0465027
0.037288
0.023208
0.0110245
0.0127175
0.0223217
)
;

boundaryField
{
    inlet
    {
        type            calculated;
        value           uniform 0;
    }
    endWall
    {
        type            calculated;
        value           uniform 0;
    }
    sideWall
    {
        type            empty;
    }
}


// ************************************************************************* //
