/*--------------------------------*- C++ -*----------------------------------*\
| =========                 |                                                 |
| \\      /  F ield         | foam-extend: Open Source CFD                    |
|  \\    /   O peration     | Version:     3.2                                |
|   \\  /    A nd           | Web:         http://www.foam-extend.org         |
|    \\/     M anipulation  | For copyright notice see file Copyright         |
\*---------------------------------------------------------------------------*/
FoamFile
{
    version     2.0;
    format      ascii;
    class       areaScalarField;
    location    "2020";
    object      thetaHMaxB;
}
// * * * * * * * * * * * * * * * * * * * * * * * * * * * * * * * * * * * * * //

dimensions      [0 0 0 0 0 0 0];

internalField   nonuniform List<scalar> 
550
(
0
0
0
0
0
0
0
0
0
0
0
0
0
0
0
0
0
0
0
0
0
0
0
0
0
0
0
0
0
0
0
0
0
0
0
0
0
0
0
0
0
0
0
0
0
0
0.0848566
0.0842771
0.0836615
0.0831772
0.0826807
0.0822831
0.0818299
0.081462
0.0810336
0.0806994
0.080321
0.0799941
0.0796812
0.079387
0.0791335
0.078912
0.0786303
0.0784083
0.0781509
0.077926
0.0777241
0.0775191
0.0773024
0.0770852
0.0768908
0.0767198
0.076608
0.0764636
0
0
0
0.0757855
0.0756357
0
0
0
0
0
0
0
0
0
0
0
0
0
0
0
0
0
0
0
0
0
0
0
0
0.0725165
0.072569
0.0722196
0.0727621
0
0
0
0
0
0
0
0
0
0
0
0
0.0706724
0.0704497
0.0704899
0
0
0.0699361
0.0698027
0.0689549
0.0710818
0
0.0688953
0.0688705
0.0685786
0.0682902
0.0682877
0.0682958
0.0683652
0.0681266
0.0715715
0.0714207
0.0713729
0.0712027
0.07108
0.0710799
0.0710832
0.0710992
0.0711181
0.0711408
0.0711565
0.0711689
0.0711633
0.0711539
0.0711171
0.0711007
0.07103
0.0710101
0.0709053
0.0708895
0.0707825
0.070756
0.070656
0.0705662
0.0704384
0.0702788
0.0701139
0.0699293
0.0697557
0.0695949
0.0693643
0.0691578
0.0684455
0.0673428
0.0669659
0.066592
0.0663319
0.0661162
0.0659271
0.0657809
0.0656404
0.0655363
0.0654312
0.0653561
0.0652773
0.0652231
0.0651636
0.0651247
0.0650798
0.0650516
0.065018
0.064997
0.064973
0.0649581
0.0649411
0.0649307
0.0649214
0.0649154
0.0649118
0.0649089
0.0649084
0.064908
0.0649085
0.0649092
0.0649104
0.064912
0.0649132
0.0649146
0.0649159
0.0649174
0.0649188
0.0649207
0.0649229
0.0649255
0.064928
0.0649311
0.064934
0.064937
0.0649406
0.0649442
0.0649476
0.0649512
0.0649546
0.0649581
0.0649619
0.0649652
0.0649691
0.0649721
0.0649773
0.0649805
0.064987
0.0649908
0.0649988
0.0650039
0.0650125
0.0650186
0.0650277
0.0650344
0.0650436
0.0650514
0.0650606
0.065069
0.0650786
0.0650879
0.0650983
0.0651075
0.0651193
0.0651291
0.0651418
0.0651519
0.0651655
0.0651757
0.06519
0.0652001
0.0652148
0.0652245
0.065239
0.065248
0.0652622
0.0652705
0.0652838
0.0652907
0.0653021
0.0653069
0.0653173
0.0653206
0.0653293
0.0653309
0.0653376
0.0653375
0.0653428
0.065341
0.0653449
0.0653416
0.065344
0.0653398
0.0653397
0.0653343
0.0653298
0.0653238
0.0653129
0.0653062
0.0652882
0.0652808
0.0652582
0.0652462
0.0648027
0.0571069
0.0651922
0.0651818
0.0651559
0.0651437
0.0651177
0.0651036
0.0650776
0.0650617
0.0650353
0.0650173
0.0649904
0.0649709
0.0649435
0.0649225
0.0648947
0.0648726
0.0648446
0.0648212
0.0647934
0.0647696
0.0647422
0.0647184
0.064692
0.0646684
0.0646433
0.0646212
0.0645979
0.0645773
0.0645559
0.0645368
0.0645178
0.0645009
0.0644843
0.0644697
0.0644553
0.0644426
0.0644301
0.0644193
0.0644089
0.0643996
0.0643908
0.0643829
0.0643753
0.064369
0.064363
0.064358
0.0643534
0.06435
0.0643472
0.0643454
0.0643447
0.0643451
0.0643465
0.0643492
0.0643531
0.0643584
0.0643652
0.0643733
0.0643831
0.0643943
0.0644071
0.0644212
0.0644366
0.0644536
0.0644719
0.0644915
0.0645139
0.0645401
0.0645689
0.0645999
0.0646327
0.0646664
0.0647027
0.0647376
0.0647753
0.0648116
0.0648505
0.0648878
0.0649276
0.0649655
0.0650058
0.065044
0.0650845
0.0651229
0.0651634
0.0652016
0.0652417
0.0652792
0.065318
0.0653541
0.0653914
0.0654257
0.065461
0.0654933
0.0655267
0.065557
0.0655882
0.0656163
0.0656452
0.0656711
0.0656977
0.0657211
0.0657451
0.0657662
0.0657878
0.0658063
0.0658248
0.0658399
0.0658559
0.065832
0.065256
0.0550819
0.0659431
0.065959
0.065974
0.0659879
0.0660009
0.0660127
0.0660229
0.0660321
0.06604
0.0660465
0.066052
0.0660562
0.0660593
0.0660613
0.0660624
0.0660613
0.0660612
0.0653426
0.0545542
0.0660587
0.0660572
0.0660559
0.0660543
0.0660529
0.0660513
0.0660497
0.0660483
0.0660472
0.0660462
0.0660449
0.0660437
0.0660422
0.0660405
0.0660385
0.0660364
0.066034
0.0660313
0.0660285
0.0660255
0.0660225
0.0660196
0.0660171
0.0660149
0.0660129
0.0660108
0.0660092
0.066008
0.0660072
0.0660066
0.0660065
0.0660071
0.0660084
0.0660105
0.0660135
0.0660177
0.0660225
0.0660281
0.0660345
0.0660417
0.0660498
0.0660588
0.0660683
0.0660786
0.0660894
0.0661009
0.0661129
0.0661254
0.0661386
0.0661523
0.0661666
0.0661815
0.0661972
0.0662137
0.066231
0.06625
0.0662695
0.0662911
0.0663059
0.0653708
0.0530248
0.0663825
0.0664094
0.066438
0.0664679
0.0664985
0.0665304
0.066563
0.0665963
0.0666305
0.0666652
0.0667006
0.0667363
0.0667724
0.0668086
0.066845
0.0668814
0.0669182
0.0669551
0.0669924
0.0670303
0.0670692
0.0671088
0.067149
0.0671901
0.0672321
0.0672746
0.0673181
0.0673619
0.067406
0.0674494
0.0674931
0.0675362
0.0675795
0.0676224
0.0676651
0.0677068
0.0677487
0.0677871
0.0678337
0.0678635
0.0679197
0.0679367
0.0680146
0.0680055
0.0681256
0.0680884
0.0682609
0.0682139
0.0684181
0.0683669
0.0685503
0.0684995
0.0685778
0.0685324
0.068411
0.0683556
0.0680386
0.0679228
0.0672728
0.0667595
0.0670182
0.0614528
0.0485574
0
0
0
0
0
0
0
0
0
0
)
;

boundaryField
{
    inlet
    {
        type            calculated;
        value           uniform 0;
    }
    endWall
    {
        type            calculated;
        value           uniform 0;
    }
    sideWall
    {
        type            empty;
    }
}


// ************************************************************************* //
