/*--------------------------------*- C++ -*----------------------------------*\
| =========                 |                                                 |
| \\      /  F ield         | foam-extend: Open Source CFD                    |
|  \\    /   O peration     | Version:     3.2                                |
|   \\  /    A nd           | Web:         http://www.foam-extend.org         |
|    \\/     M anipulation  | For copyright notice see file Copyright         |
\*---------------------------------------------------------------------------*/
FoamFile
{
    version     2.0;
    format      ascii;
    class       areaScalarField;
    location    "2020";
    object      thetaC2B;
}
// * * * * * * * * * * * * * * * * * * * * * * * * * * * * * * * * * * * * * //

dimensions      [0 0 0 0 0 0 0];

internalField   nonuniform List<scalar> 
550
(
0.0368338
0.0368338
0.0368338
0.0368338
0.0368338
0.0368338
0.0368338
0.0368338
0.0368338
0.0368338
0.0368338
0.0368338
0.0368338
0.0368338
0.0368338
0.0368338
0.0368338
0.0368338
0.0368338
0.0368338
0.0368338
0.0368338
0.0368338
0.0368338
0.0368338
0.0368338
0.0368338
0.0368338
0.0368338
0.0368338
0.0368338
0.0368338
0.0368338
0.0368338
0.0368338
0.0368338
0.0368338
0.0368338
0.0368338
0.0368338
0.0368338
0.0368338
0.0368338
0.0368338
0.0368338
0.0368338
0.0368338
0.0369239
0.0368338
0.0369191
0.0369165
0.0369437
0.0368338
0.0369476
0.0369238
0.0369326
0.0369116
0.0369056
0.0414193
0.0368919
0.0368982
0.0369135
0.036895
0.0455983
0.0460669
0.0368765
0.0368772
0.0368737
0.0480518
0.0368424
0.0368332
0.0368338
0.0392875
0.0426895
0.0434021
0.040704
0.0368338
0.0368338
0.0421593
0.0461361
0.0433314
0.0422139
0.0368338
0.0368338
0.0368338
0.0427635
0.043449
0.0423301
0.0427604
0.0368338
0.0368338
0.0368338
0.0436425
0.0437593
0.0424173
0.04343
0.0368338
0.0368338
0.0368338
0.0400681
0.0430371
0.0442008
0.0467127
0.0368261
0.0369109
0.0367914
0.0371269
0.0404988
0.0430066
0.0397191
0.0402804
0.0368338
0.0368338
0.0368338
0.0368338
0.0400213
0.0397646
0.0393617
0.0510596
0.0368714
0.0368227
0.036912
0.0374042
0.0417575
0.0368296
0.0368299
0.0364531
0.0376507
0.0422815
0.0366366
0.0366963
0.0366139
0.0365332
0.0366056
0.0366842
0.0367961
0.0367423
0.0386791
0.0386765
0.0387297
0.0387165
0.0387289
0.0388081
0.0388892
0.0389773
0.039067
0.0391589
0.0392468
0.0393328
0.0394089
0.0394826
0.0395408
0.03961
0.0396486
0.0397151
0.0397336
0.0398014
0.0398173
0.0398778
0.0398962
0.0399196
0.0399205
0.0399026
0.0398806
0.0398462
0.039817
0.0397941
0.0397301
0.0396785
0.0393352
0.0387648
0.03861
0.0384555
0.0383652
0.0382992
0.0382475
0.0382195
0.0381937
0.038188
0.0381806
0.0381897
0.0381955
0.0382148
0.0382299
0.0382561
0.0382778
0.0383084
0.0383349
0.0383679
0.0383982
0.038433
0.0384657
0.0385015
0.0385371
0.038574
0.0386115
0.0386488
0.0386867
0.038724
0.0387611
0.0387978
0.038834
0.0388698
0.0389046
0.0389391
0.0389727
0.0390059
0.0390385
0.0390707
0.0391025
0.0391341
0.039165
0.0391957
0.039226
0.0392558
0.0392855
0.0393149
0.0393438
0.0393725
0.0394008
0.0394289
0.039457
0.0394845
0.0395122
0.0395393
0.0395679
0.0395954
0.0396253
0.0396538
0.0396851
0.039715
0.0397472
0.0397781
0.0398111
0.0398427
0.039876
0.0399086
0.0399421
0.0399753
0.0400093
0.0400432
0.0400778
0.0401116
0.0401472
0.0401815
0.0402176
0.0402521
0.0402887
0.0403231
0.0403601
0.0403943
0.0404314
0.0404653
0.040502
0.0405351
0.0405713
0.0406037
0.0406391
0.0406702
0.040704
0.0407336
0.0407663
0.0407946
0.0408259
0.0408526
0.0408824
0.0409076
0.0409359
0.0409598
0.0409869
0.0410093
0.0410351
0.0410566
0.0410805
0.0411007
0.0411213
0.0411408
0.0411568
0.0411752
0.0411861
0.0412033
0.0412107
0.0412242
0.0409647
0.0361177
0.0412513
0.0412645
0.0412674
0.0412785
0.0412806
0.0412897
0.0412909
0.0412981
0.041298
0.0413029
0.0413017
0.0413047
0.0413024
0.0413038
0.0413005
0.0413006
0.0412966
0.0412952
0.0412907
0.0412887
0.041284
0.0412815
0.0412771
0.0412745
0.0412709
0.0412692
0.0412668
0.0412663
0.0412654
0.0412662
0.0412673
0.0412699
0.0412731
0.0412776
0.0412827
0.0412891
0.0412959
0.041304
0.0413127
0.0413224
0.0413326
0.0413437
0.0413553
0.0413679
0.0413809
0.0413947
0.0414091
0.0414245
0.0414405
0.0414575
0.0414756
0.0414947
0.041515
0.0415366
0.0415595
0.0415839
0.0416099
0.0416374
0.0416666
0.0416974
0.0417299
0.0417638
0.0417994
0.0418365
0.0418753
0.0419155
0.0419582
0.0420038
0.0420519
0.0421019
0.0421535
0.0422062
0.0422611
0.0423156
0.0423723
0.0424286
0.042487
0.0425447
0.0426045
0.0426635
0.0427244
0.0427843
0.042846
0.0429067
0.042969
0.0430301
0.0430927
0.0431537
0.0432159
0.0432764
0.0433378
0.0433973
0.0434575
0.0435159
0.0435749
0.0436319
0.0436895
0.043745
0.0438009
0.0438548
0.0439089
0.0439607
0.0440128
0.0440626
0.0441126
0.0441602
0.0442076
0.0442525
0.0442976
0.0443157
0.0439615
0.0371355
0.0444915
0.0445354
0.0445787
0.044621
0.0446625
0.0447031
0.0447425
0.044781
0.0448186
0.0448551
0.0448907
0.0449254
0.0449591
0.0449921
0.0450243
0.0450548
0.0450861
0.0446265
0.037284
0.0451775
0.0452072
0.0452368
0.0452661
0.0452953
0.0453243
0.0453529
0.0453816
0.0454103
0.0454388
0.045467
0.0454951
0.0455226
0.04555
0.045577
0.0456037
0.0456302
0.0456564
0.0456825
0.0457083
0.0457342
0.04576
0.045786
0.0458123
0.0458386
0.0458649
0.0458915
0.0459184
0.0459455
0.0459729
0.0460009
0.0460293
0.0460586
0.0460885
0.0461196
0.0461518
0.0461847
0.0462184
0.046253
0.0462886
0.0463249
0.0463622
0.0464001
0.0464387
0.0464779
0.0465177
0.0465582
0.046599
0.0466403
0.046682
0.0467242
0.046767
0.0468105
0.0468547
0.0468997
0.0469463
0.0469936
0.0470428
0.0470877
0.0464579
0.037712
0.0472479
0.0473034
0.0473604
0.0474187
0.0474781
0.0475386
0.0476002
0.0476625
0.0477258
0.0477898
0.0478547
0.04792
0.0479858
0.0480519
0.0481184
0.0481852
0.0482523
0.04832
0.0483884
0.0484578
0.0485285
0.0486002
0.0486731
0.0487471
0.0488223
0.0488987
0.0489763
0.0490549
0.0491341
0.0492134
0.0492931
0.0493728
0.0494525
0.0495323
0.0496119
0.0496909
0.04977
0.0498469
0.0499295
0.0500001
0.05009
0.0501514
0.0502576
0.0503001
0.0504382
0.050461
0.0506396
0.0506568
0.0508617
0.0508794
0.0510735
0.0510989
0.0512241
0.0512692
0.0512661
0.0513378
0.0512328
0.0513321
0.0510717
0.0510237
0.0516712
0.0480203
0.0386435
0.0368338
0.0368338
0.0368338
0.0368338
0.0368338
0.0368338
0.0368338
0.0368338
0.0368338
0.0368338
)
;

boundaryField
{
    inlet
    {
        type            calculated;
        value           uniform 0;
    }
    endWall
    {
        type            calculated;
        value           uniform 0;
    }
    sideWall
    {
        type            empty;
    }
}


// ************************************************************************* //
