/*--------------------------------*- C++ -*----------------------------------*\
| =========                 |                                                 |
| \\      /  F ield         | foam-extend: Open Source CFD                    |
|  \\    /   O peration     | Version:     3.2                                |
|   \\  /    A nd           | Web:         http://www.foam-extend.org         |
|    \\/     M anipulation  | For copyright notice see file Copyright         |
\*---------------------------------------------------------------------------*/
FoamFile
{
    version     2.0;
    format      ascii;
    class       areaScalarField;
    location    "1790";
    object      thetaC2SS2;
}
// * * * * * * * * * * * * * * * * * * * * * * * * * * * * * * * * * * * * * //

dimensions      [0 0 0 0 0 0 0];

internalField   nonuniform List<scalar> 
550
(
0.127601
0.127601
0.127601
0.127601
0.127601
0.127601
0.127601
0.127601
0.127601
0.127601
0.127601
0.127601
0.127601
0.127601
0.127601
0.127601
0.127601
0.127601
0.127601
0.127601
0.127601
0.127601
0.127601
0.127601
0.127601
0.127601
0.127601
0.127601
0.127601
0.127601
0.127601
0.127601
0.127601
0.127601
0.127601
0.127601
0.127601
0.127601
0.127601
0.127601
0.127601
0.127601
0.127601
0.127601
0.127601
0.127601
0.127601
0.127601
0.127601
0.127601
0.127601
0.127601
0.127601
0.127601
0.127601
0.127601
0.127601
0.127601
0.127601
0.127601
0.127601
0.127601
0.127601
0.127601
0.127601
0.127601
0.127601
0.127601
0.127601
0.127601
0.127601
0.127601
0.127601
0.127601
0.127601
0.127601
0.127601
0.127601
0.127601
0.127601
0.127601
0.127601
0.127601
0.127601
0.127601
0.127601
0.127601
0.127601
0.127601
0.127601
0.127601
0.127601
0.127601
0.127601
0.127601
0.127601
0.127601
0.127601
0.127601
0.127601
0.127601
0.127601
0.127601
0.127601
0.127601
0.127601
0.127601
0.127601
0.127601
0.127453
0.128475
0.128448
0.128436
0.128488
0.128442
0.128405
0.128399
0.128393
0.127601
0.493603
0.12829
0.128314
0.12827
0.128309
0.128188
0.128251
0.128243
0.128285
0.127601
0.54174
0.128174
0.128182
0.128171
0.522977
0.128128
0.128158
0.12813
0.127601
0.128147
0.12817
0.128137
0.127601
0.480517
0.128128
0.128125
0.128139
0.128143
0.128157
0.128133
0.128111
0.12811
0.128123
0.580383
0.128081
0.128066
0.128061
0.128045
0.12805
0.128065
0.12805
0.128032
0.128004
0.616388
0.127975
0.127972
0.127967
0.127943
0.127937
0.127928
0.127936
0.127933
0.127922
0.663526
0.127891
0.12787
0.127875
0.127904
0.127829
0.127811
0.127835
0.127765
0.127744
0.127758
0.127707
0.127684
0.127815
0.127888
0.127852
0.127855
0.127797
0.127777
0.1278
0.127744
0.127791
0.127815
0.127702
0.127716
0.127761
0.12768
0.127649
0.127769
0.127889
0.127955
0.127974
0.127965
0.127942
0.127952
0.127954
0.127966
0.128007
0.128007
0.128031
0.128011
0.127962
0.127891
0.127762
0.127782
0.127861
0.12803
0.128256
0.128512
0.128805
0.129143
0.130048
0.129595
0.129889
0.130249
0.13076
0.130753
0.131235
0.131574
0.130596
0.129332
0.131505
0.132625
0.133208
0.133528
0.132594
0.133311
0.133998
0.134204
0.134406
0.134561
0.134706
0.13484
0.134993
0.135142
0.135269
0.135379
0.135498
0.135607
0.135708
0.135805
0.135886
0.13598
0.136081
0.136184
0.136275
0.136366
0.136452
0.136541
0.136621
0.136675
0.136725
0.136756
0.136796
0.136814
0.136851
0.136837
0.13679
0.136495
0.136171
0.136745
0.137254
0.13733
0.137423
0.137449
0.137501
0.137533
0.137585
0.137634
0.1377
0.137774
0.137856
0.137941
0.13803
0.138121
0.138215
0.138307
0.138398
0.138486
0.138574
0.138658
0.138741
0.138816
0.138891
0.138962
0.139031
0.1391
0.139167
0.139234
0.139298
0.13936
0.139421
0.139479
0.139537
0.139591
0.139646
0.139699
0.139753
0.139804
0.139857
0.139908
0.13996
0.140012
0.140063
0.140118
0.14017
0.140234
0.140289
0.140369
0.140424
0.140526
0.140582
0.140702
0.140774
0.140883
0.140999
0.141001
0.141205
0.140635
0.140892
0.141693
0.14176
0.141931
0.142016
0.142137
0.142248
0.142377
0.142485
0.14239
0.137177
0.14299
0.143155
0.14333
0.143502
0.143684
0.143861
0.144048
0.144227
0.144412
0.144592
0.144773
0.144948
0.145121
0.145289
0.145451
0.145611
0.145763
0.145913
0.146059
0.146205
0.146345
0.146489
0.146627
0.146772
0.146915
0.147067
0.147219
0.147378
0.147535
0.147697
0.147858
0.148022
0.148185
0.148352
0.148518
0.148688
0.148858
0.149034
0.14921
0.149392
0.149574
0.149761
0.149946
0.150136
0.150322
0.15051
0.150693
0.150876
0.151054
0.151231
0.151403
0.151576
0.151743
0.15191
0.152074
0.152238
0.1524
0.152563
0.152725
0.152886
0.153047
0.153208
0.153369
0.153514
0.153092
0.142264
0.154032
0.154193
0.154353
0.154512
0.15467
0.154826
0.154981
0.155135
0.155288
0.15544
0.155592
0.155742
0.15589
0.156035
0.156174
0.156306
0.156429
0.158144
0.158132
0.158119
0.158101
0.158079
0.158053
0.158024
0.157993
0.15796
0.157927
0.157891
0.157857
0.157821
0.157785
0.15775
0.157715
0.157682
0.157649
0.157618
0.157588
0.15756
0.157535
0.157512
0.157491
0.157474
0.15746
0.15745
0.157444
0.157439
0.157439
0.157443
0.157449
0.157457
0.157467
0.157479
0.157494
0.157509
0.157527
0.157547
0.157568
0.157591
0.157616
0.157642
0.157668
0.157696
0.157725
0.157757
0.15779
0.157823
0.157861
0.157891
0.157941
0.157958
0.158025
0.158014
0.158111
0.158059
0.158192
0.158111
0.158178
0.158174
0.157868
0.15874
0.156663
0.15705
0.159262
0.15813
0.158139
0.158042
0.157904
0.157978
0.157892
0.157994
0.15797
0.158083
0.158058
0.158203
0.158127
0.158284
0.152314
0.152527
0.158622
0.156591
0.157035
0.159392
0.158431
0.153839
0.154062
0.154286
0.154508
0.154745
0.15496
0.155215
0.155418
0.155714
0.155884
0.156246
0.15638
0.156831
0.156946
0.157471
0.15758
0.158114
0.158239
0.15868
0.158868
0.159093
0.159422
0.159394
0.16152
0.16249
0.164063
0.161951
0.156385
0.137013
0.127601
0.127601
0.127601
0.127601
0.127601
0.127601
0.127601
0.127601
0.127601
0.127601
)
;

boundaryField
{
    inlet
    {
        type            calculated;
        value           uniform 0;
    }
    endWall
    {
        type            calculated;
        value           uniform 0;
    }
    sideWall
    {
        type            empty;
    }
}


// ************************************************************************* //
