/*--------------------------------*- C++ -*----------------------------------*\
| =========                 |                                                 |
| \\      /  F ield         | foam-extend: Open Source CFD                    |
|  \\    /   O peration     | Version:     3.2                                |
|   \\  /    A nd           | Web:         http://www.foam-extend.org         |
|    \\/     M anipulation  | For copyright notice see file Copyright         |
\*---------------------------------------------------------------------------*/
FoamFile
{
    version     2.0;
    format      ascii;
    class       areaScalarField;
    location    "2020";
    object      thetaCB;
}
// * * * * * * * * * * * * * * * * * * * * * * * * * * * * * * * * * * * * * //

dimensions      [0 0 0 0 0 0 0];

internalField   nonuniform List<scalar> 
550
(
0.0367204
0.0367204
0.0367204
0.0367204
0.0367204
0.0367204
0.0367204
0.0367204
0.0367204
0.0367204
0.0366936
0.0367204
0.0367472
0.0366989
0.0367204
0.036742
0.0367054
0.0367072
0.0367241
0.0367232
0.0367318
0.0367225
0.0367204
0.0367288
0.0367204
0.0367204
0.036715
0.0367204
0.0367258
0.0367204
0.0367204
0.0367162
0.0367164
0.0367208
0.0367207
0.0367243
0.0367207
0.036717
0.036724
0.0367206
0.0367173
0.0367237
0.0367206
0.0367175
0.0367206
0.0367205
0.03672
0.0368206
0.0366707
0.0368961
0.0367111
0.0369248
0.0365866
0.0370054
0.0366359
0.0369951
0.0366275
0.036953
0.0410999
0.0369622
0.0366081
0.0369827
0.0365955
0.045655
0.0457196
0.0369508
0.0365833
0.0369334
0.0476624
0.0369188
0.0365678
0.0369393
0.0390629
0.0427646
0.0434984
0.0418596
0.0352531
0.0364928
0.0423771
0.0457592
0.0434541
0.0419097
0.0368444
0.0366351
0.0367316
0.0428226
0.0432492
0.0423876
0.04269
0.0368185
0.0366195
0.0369437
0.043432
0.0438715
0.0422981
0.0435006
0.0367959
0.0368407
0.036915
0.0407441
0.0428725
0.0451037
0.0441864
0.0365032
0.0376935
0.0366283
0.0377535
0.0406251
0.0429336
0.0399956
0.0401505
0.0370349
0.0369017
0.0369345
0.0368317
0.040345
0.0397062
0.0406084
0.0478946
0.0374309
0.0375103
0.0373606
0.0383786
0.040293
0.0371417
0.037479
0.0371202
0.0383898
0.0403799
0.0370266
0.0370696
0.0370788
0.0370759
0.0373097
0.0373671
0.0377179
0.0379244
0.0386938
0.0388921
0.039009
0.0390821
0.0391169
0.0392121
0.0392613
0.0393657
0.0394122
0.0395182
0.0395551
0.0396564
0.0396789
0.0397718
0.0397781
0.0398643
0.0398527
0.0399366
0.0399018
0.0399966
0.0399227
0.0400623
0.0398897
0.0401506
0.0397674
0.0401572
0.0395795
0.0400795
0.0393709
0.0398936
0.0391665
0.0395328
0.0386679
0.0387707
0.0383103
0.038465
0.038173
0.0383118
0.0381378
0.0382444
0.0381524
0.0382412
0.0381855
0.0382793
0.0382276
0.0383268
0.0382801
0.0383827
0.0383401
0.0384445
0.0384051
0.0385101
0.0384733
0.038578
0.0385433
0.0386475
0.0386148
0.0387182
0.0386868
0.0387889
0.0387583
0.0388586
0.0388281
0.0389263
0.0388956
0.0389915
0.0389606
0.039054
0.039023
0.0391142
0.0390832
0.0391724
0.0391415
0.0392291
0.0391982
0.0392843
0.0392536
0.0393383
0.039308
0.0393916
0.0393615
0.0394442
0.0394145
0.0394966
0.0394673
0.039549
0.0395203
0.0396022
0.0395746
0.0396573
0.0396309
0.0397149
0.0396897
0.0397753
0.0397509
0.039838
0.0398141
0.0399027
0.0398792
0.0399692
0.0399459
0.0400374
0.0400143
0.0401076
0.0400847
0.0401797
0.0401571
0.0402538
0.0402304
0.0403286
0.0403036
0.0404038
0.0403762
0.0404798
0.0404474
0.0405571
0.0405153
0.0406371
0.0405778
0.0407229
0.0406322
0.0408151
0.0406761
0.0409111
0.0407083
0.0410021
0.0407325
0.0410844
0.0407516
0.0411537
0.0407704
0.0412041
0.040796
0.0412308
0.0408374
0.0412299
0.0409053
0.0412003
0.0410099
0.0411518
0.0411557
0.0411167
0.0412838
0.0410282
0.0412763
0.040888
0.0402369
0.0395453
0.0406714
0.0411221
0.0409118
0.0412537
0.0410062
0.0412399
0.0410619
0.0412104
0.0411025
0.0411858
0.0411329
0.0411669
0.0411513
0.0411479
0.0411671
0.041138
0.0411784
0.0411326
0.0411854
0.0411293
0.0411895
0.0411279
0.041192
0.0411289
0.0411944
0.041133
0.0411979
0.0411407
0.0412033
0.041152
0.0412117
0.0411678
0.0412236
0.0411875
0.0412392
0.041211
0.0412581
0.0412381
0.0412807
0.0412685
0.0413066
0.0413023
0.0413363
0.0413399
0.0413706
0.0413819
0.0414119
0.0414318
0.0414616
0.0414813
0.0415124
0.0415329
0.0415658
0.041588
0.0416231
0.0416474
0.0416849
0.0417115
0.0417516
0.0417804
0.0418228
0.0418539
0.0418985
0.0419316
0.0419781
0.0420131
0.0420625
0.0420957
0.0421511
0.0421755
0.0422451
0.0422472
0.0423519
0.0422976
0.0424716
0.0423193
0.0425242
0.0423144
0.0425373
0.042533
0.0425916
0.0426509
0.0427151
0.0427731
0.0428375
0.0428972
0.0429598
0.0430205
0.043083
0.0431427
0.0432052
0.0432619
0.0433238
0.0433802
0.0434404
0.0435012
0.0435655
0.0435988
0.0436895
0.0436809
0.0438419
0.0437223
0.0440434
0.0436916
0.0443066
0.043581
0.0446162
0.0434924
0.0449833
0.0430719
0.042542
0.040113
0.0425916
0.0440831
0.0446989
0.0442543
0.0447249
0.0444091
0.044717
0.0445913
0.0446729
0.0447919
0.0446102
0.0450374
0.044461
0.0453827
0.0442863
0.0457668
0.0438866
0.0430566
0.040434
0.0431597
0.0445978
0.0454816
0.0447831
0.0454486
0.0449359
0.0454077
0.0450848
0.0453862
0.0452092
0.0453893
0.0453082
0.0454165
0.0453903
0.0454536
0.0454573
0.0454993
0.0455147
0.0455462
0.0455698
0.0455967
0.0456195
0.0456468
0.0456721
0.0456981
0.0457249
0.0457509
0.0457783
0.0458042
0.0458309
0.0458594
0.0458891
0.0459176
0.0459471
0.0459769
0.0460092
0.0460435
0.0460756
0.0461111
0.0461479
0.0461822
0.0462189
0.046257
0.0462946
0.0463366
0.0463741
0.0464139
0.0464582
0.046488
0.0465588
0.0465399
0.0466981
0.0465366
0.0469243
0.0464214
0.0473461
0.0461538
0.048047
0.0455027
0.0449122
0.0409927
0.0453367
0.0462534
0.0478427
0.0467975
0.0476458
0.0471676
0.047584
0.0474348
0.0476304
0.0476278
0.0477273
0.0477696
0.0478446
0.0479046
0.047973
0.0480373
0.0481058
0.0481723
0.0482379
0.0483099
0.0483792
0.0484521
0.0485234
0.0485978
0.048674
0.0487477
0.0488262
0.0489017
0.048984
0.0490637
0.049141
0.0492218
0.0492994
0.0493809
0.0494608
0.0495369
0.0496165
0.049693
0.049779
0.0498397
0.0499525
0.0499654
0.0501663
0.0500451
0.050448
0.0500532
0.0508562
0.0499935
0.0513464
0.0498967
0.0519057
0.0498064
0.0524135
0.0498104
0.0525644
0.0499757
0.0523704
0.048564
0.0479123
0.0432983
0.0401804
0.031053
0.0186011
0.0367206
0.0367204
0.0367203
0.0367206
0.0367203
0.0367206
0.0369472
0.0369472
0.0369469
0.0369472
)
;

boundaryField
{
    inlet
    {
        type            calculated;
        value           uniform 0;
    }
    endWall
    {
        type            calculated;
        value           uniform 0;
    }
    sideWall
    {
        type            empty;
    }
}


// ************************************************************************* //
