/*--------------------------------*- C++ -*----------------------------------*\
| =========                 |                                                 |
| \\      /  F ield         | foam-extend: Open Source CFD                    |
|  \\    /   O peration     | Version:     3.2                                |
|   \\  /    A nd           | Web:         http://www.foam-extend.org         |
|    \\/     M anipulation  | For copyright notice see file Copyright         |
\*---------------------------------------------------------------------------*/
FoamFile
{
    version     2.0;
    format      ascii;
    class       areaScalarField;
    location    "2020";
    object      thetaC2SS1;
}
// * * * * * * * * * * * * * * * * * * * * * * * * * * * * * * * * * * * * * //

dimensions      [0 0 0 0 0 0 0];

internalField   nonuniform List<scalar> 
550
(
0.127601
0.127601
0.127601
0.127601
0.127601
0.127601
0.127601
0.127601
0.127601
0.127601
0.127601
0.127601
0.127601
0.127601
0.127601
0.127601
0.127601
0.127601
0.127601
0.127601
0.127601
0.127601
0.127601
0.127601
0.127601
0.127601
0.127601
0.127601
0.127601
0.127601
0.127601
0.127601
0.127601
0.127601
0.127601
0.127601
0.127601
0.127601
0.127601
0.127601
0.127601
0.127601
0.127601
0.127601
0.127601
0.127601
0.127601
0.127913
0.127601
0.127897
0.127887
0.127982
0.127601
0.127995
0.127913
0.127943
0.12787
0.127849
0.143486
0.127802
0.127824
0.127877
0.127813
0.157963
0.159586
0.127749
0.127751
0.127739
0.166463
0.12763
0.127599
0.127601
0.136101
0.147886
0.150355
0.141008
0.127601
0.127601
0.14605
0.159826
0.15011
0.146239
0.127601
0.127601
0.127601
0.148143
0.150518
0.146641
0.148132
0.127601
0.127601
0.127601
0.151188
0.151592
0.146943
0.150452
0.127601
0.127601
0.127601
0.138805
0.14909
0.153122
0.161824
0.127574
0.127868
0.127454
0.128616
0.140297
0.148985
0.137596
0.139541
0.127601
0.127601
0.127601
0.127601
0.138643
0.137754
0.136358
0.176882
0.127731
0.127562
0.127872
0.129577
0.144658
0.127586
0.127587
0.126282
0.130431
0.146473
0.126918
0.127125
0.126839
0.126559
0.12681
0.127082
0.12747
0.127284
0.133994
0.133985
0.134169
0.134123
0.134166
0.134441
0.134721
0.135026
0.135337
0.135655
0.13596
0.136259
0.136522
0.136777
0.136979
0.137219
0.137352
0.137583
0.137647
0.137881
0.137936
0.138146
0.13821
0.138291
0.138294
0.138232
0.138156
0.138037
0.137936
0.137856
0.137634
0.137456
0.136266
0.13429
0.133754
0.133219
0.132906
0.132677
0.132498
0.132402
0.132312
0.132292
0.132267
0.132298
0.132318
0.132385
0.132438
0.132528
0.132603
0.132709
0.132801
0.132915
0.13302
0.133141
0.133254
0.133378
0.133502
0.13363
0.13376
0.133888
0.13402
0.134149
0.134277
0.134405
0.13453
0.134654
0.134775
0.134894
0.135011
0.135126
0.135238
0.13535
0.13546
0.13557
0.135677
0.135783
0.135888
0.135991
0.136094
0.136196
0.136296
0.136396
0.136493
0.136591
0.136688
0.136784
0.13688
0.136973
0.137072
0.137168
0.137271
0.13737
0.137478
0.137582
0.137694
0.137801
0.137915
0.138024
0.13814
0.138253
0.138369
0.138484
0.138601
0.138719
0.138839
0.138956
0.139079
0.139198
0.139323
0.139443
0.139569
0.139688
0.139817
0.139935
0.140064
0.140181
0.140308
0.140423
0.140549
0.140661
0.140783
0.140892
0.141008
0.141111
0.141224
0.141322
0.14143
0.141523
0.141626
0.141713
0.141812
0.141894
0.141989
0.142066
0.142155
0.142229
0.142313
0.142382
0.142454
0.142521
0.142577
0.142641
0.142678
0.142738
0.142763
0.14281
0.141912
0.12512
0.142904
0.14295
0.14296
0.142999
0.143006
0.143037
0.143041
0.143066
0.143066
0.143083
0.143079
0.14309
0.143081
0.143086
0.143075
0.143075
0.143061
0.143056
0.143041
0.143034
0.143018
0.143009
0.142993
0.142984
0.142972
0.142966
0.142958
0.142956
0.142953
0.142956
0.142959
0.142969
0.142979
0.142995
0.143013
0.143035
0.143058
0.143086
0.143117
0.14315
0.143186
0.143224
0.143265
0.143308
0.143353
0.143401
0.143451
0.143504
0.143559
0.143618
0.143681
0.143748
0.143818
0.143892
0.143972
0.144056
0.144146
0.144242
0.144342
0.14445
0.144562
0.144679
0.144803
0.144931
0.145066
0.145205
0.145353
0.145512
0.145677
0.145851
0.14603
0.146212
0.146403
0.146591
0.146787
0.146983
0.147185
0.147385
0.147592
0.147796
0.148007
0.148215
0.148429
0.148639
0.148855
0.149066
0.149283
0.149494
0.14971
0.149919
0.150132
0.150338
0.150547
0.150749
0.150954
0.151152
0.151351
0.151543
0.151737
0.151923
0.152111
0.15229
0.152471
0.152643
0.152816
0.152982
0.153146
0.153301
0.153457
0.15352
0.152292
0.128646
0.154129
0.154281
0.154431
0.154578
0.154721
0.154862
0.154998
0.155132
0.155262
0.155389
0.155512
0.155632
0.155749
0.155863
0.155975
0.156081
0.156189
0.154597
0.129161
0.156505
0.156608
0.156711
0.156813
0.156913
0.157014
0.157113
0.157212
0.157312
0.157411
0.157508
0.157606
0.157701
0.157796
0.157889
0.157982
0.158074
0.158164
0.158255
0.158344
0.158434
0.158523
0.158613
0.158705
0.158796
0.158886
0.158978
0.159072
0.159166
0.159261
0.159358
0.159457
0.159557
0.159662
0.159769
0.159881
0.159995
0.160111
0.160231
0.160355
0.16048
0.16061
0.160741
0.160874
0.161011
0.161148
0.161288
0.161429
0.161572
0.161718
0.161864
0.162012
0.162162
0.162316
0.162471
0.162633
0.162797
0.162967
0.163123
0.160941
0.130643
0.163678
0.16387
0.164068
0.16427
0.164475
0.164685
0.164898
0.165114
0.165333
0.165555
0.16578
0.166006
0.166234
0.166463
0.166693
0.166924
0.167158
0.167392
0.167629
0.167869
0.168114
0.168362
0.168615
0.168871
0.169132
0.169396
0.169665
0.169937
0.170212
0.170486
0.170763
0.171039
0.171315
0.171591
0.171867
0.172141
0.172415
0.172681
0.172968
0.173212
0.173523
0.173736
0.174104
0.174251
0.17473
0.174809
0.175427
0.175487
0.176197
0.176259
0.17693
0.177019
0.177452
0.177608
0.177598
0.177847
0.177483
0.177826
0.176924
0.176758
0.179001
0.166353
0.13387
0.127601
0.127601
0.127601
0.127601
0.127601
0.127601
0.127601
0.127601
0.127601
0.127601
)
;

boundaryField
{
    inlet
    {
        type            calculated;
        value           uniform 0;
    }
    endWall
    {
        type            calculated;
        value           uniform 0;
    }
    sideWall
    {
        type            empty;
    }
}


// ************************************************************************* //
