/*--------------------------------*- C++ -*----------------------------------*\
| =========                 |                                                 |
| \\      /  F ield         | foam-extend: Open Source CFD                    |
|  \\    /   O peration     | Version:     3.2                                |
|   \\  /    A nd           | Web:         http://www.foam-extend.org         |
|    \\/     M anipulation  | For copyright notice see file Copyright         |
\*---------------------------------------------------------------------------*/
FoamFile
{
    version     2.0;
    format      ascii;
    class       areaScalarField;
    location    "2020";
    object      totH1;
}
// * * * * * * * * * * * * * * * * * * * * * * * * * * * * * * * * * * * * * //

dimensions      [0 0 0 0 0 0 0];

internalField   nonuniform List<scalar> 
550
(
0
5e-11
-5e-11
0
-5e-10
0
5e-10
0
0
5e-10
-4.2975e-06
-8.595e-06
-4.298e-06
-3.452e-06
-6.904e-06
-3.4525e-06
-2.4045e-06
-6.93e-06
-8.4685e-06
-7.4375e-06
-5.1685e-06
-3.01e-06
-2.672e-06
-1.3365e-06
-1.0842e-19
0
-8.725e-07
-1.741e-06
-8.75e-07
0
0
-6.8e-07
-2e-06
-2.6e-06
-2.495e-06
-1.825e-06
-1.165e-06
-1.67e-06
-1.655e-06
-1.07e-06
-1.545e-06
-1.53e-06
-9.9e-07
-1.43e-06
-1.875e-06
-1.825e-06
-1.8843e-06
-3.0476e-07
-6.60722e-06
-7.22171e-08
-5.22587e-07
-3.30312e-07
-6.32512e-06
-2.55792e-10
-3.61465e-07
-3.32576e-07
-3.51154e-07
-2.11127e-06
-1.62443e-06
2.52785e-06
3.41253e-06
2.48864e-06
1.63229e-07
-2.06025e-06
3.03266e-07
3.3959e-06
3.34762e-06
1.9543e-06
-5.52156e-07
-1.09955e-06
3.40404e-06
1.54137e-05
3.74794e-05
5.12829e-05
0.000111679
0.00032776
0.000276567
7.54057e-06
2.50054e-05
4.60239e-05
5.08145e-05
5.92017e-05
5.12939e-05
5.67946e-05
4.69603e-05
7.70685e-05
9.59535e-05
0.00011366
0.000146223
0.00016736
0.000166282
0.000187423
0.000214569
0.000239734
0.000275427
0.000302237
0.000338713
0.000370246
0.000423398
0.000573787
0.000688788
0.000825074
0.00066465
0.000331162
0.000442106
0.000578318
0.000688073
0.000844057
0.00089005
0.00095716
0.00101464
0.00106299
0.00114166
0.00120522
0.00125867
0.00134377
0.00141979
0.00163653
0.00149838
0.00126102
0.00149842
0.00171855
0.00198215
0.00196682
0.00184666
0.00203793
0.00228808
0.00255001
0.00243893
0.00227409
0.00243395
0.00260613
0.00280578
0.00304434
0.00330532
0.00360101
0.00397764
0.00420769
0.00427927
0.00439128
0.00452626
0.00467788
0.0048352
0.00498985
0.00514187
0.00528957
0.00543259
0.00556978
0.00570134
0.00582694
0.0059472
0.00606244
0.0061723
0.0062771
0.0063769
0.0064713
0.00656173
0.00664278
0.00672217
0.00678493
0.00685457
0.00690252
0.00695401
0.00698361
0.00701009
0.00701505
0.00700015
0.00696768
0.00689874
0.00681356
0.00675095
0.00674241
0.00673446
0.00674271
0.00675142
0.00677279
0.00679605
0.00682987
0.00686809
0.00691346
0.00696446
0.00701966
0.00707831
0.00713977
0.00720347
0.00726903
0.00733603
0.00740423
0.00747334
0.00754318
0.00761342
0.00768404
0.00775474
0.00782543
0.00789581
0.0079658
0.00803513
0.00810388
0.00817173
0.00823886
0.00830501
0.00837033
0.00843459
0.00849796
0.00856028
0.00862173
0.00868213
0.00874168
0.0088002
0.00885785
0.00891445
0.00897018
0.00902491
0.00907881
0.00913177
0.00918394
0.00923524
0.00928579
0.00933558
0.00938477
0.00943332
0.00948139
0.00952896
0.0095762
0.00962319
0.00966996
0.00971656
0.009763
0.00980931
0.00985547
0.00990149
0.00994738
0.0099932
0.0100389
0.0100846
0.0101304
0.0101762
0.0102221
0.0102682
0.0103145
0.0103611
0.010408
0.0104554
0.0105033
0.0105517
0.0106006
0.0106501
0.0106999
0.0107502
0.0108008
0.010852
0.0109033
0.0109554
0.0110071
0.0110603
0.0111125
0.0111672
0.0112199
0.0112763
0.0113297
0.0113878
0.0114415
0.0114996
0.0115525
0.0116089
0.01166
0.011713
0.0117611
0.0118089
0.0118531
0.0118939
0.0119338
0.0119666
0.0120028
0.0120283
0.012063
0.0120849
0.0121227
0.0121506
0.0121925
0.0122178
0.0122385
0.0122361
0.0121198
0.0126251
0.0131522
0.0130854
0.0130505
0.0130326
0.0130262
0.0130161
0.0130127
0.0130038
0.0129996
0.0129913
0.0129869
0.0129793
0.0129744
0.0129669
0.0129619
0.012956
0.0129521
0.0129484
0.0129465
0.0129449
0.012945
0.0129459
0.012948
0.0129514
0.0129559
0.0129619
0.0129689
0.0129774
0.0129869
0.0129981
0.0130101
0.0130239
0.0130386
0.0130549
0.0130722
0.0130911
0.0131109
0.0131325
0.0131548
0.0131789
0.0132039
0.0132306
0.0132583
0.013288
0.0133189
0.013352
0.0133868
0.0134247
0.0134651
0.0135078
0.0135529
0.0136
0.0136489
0.0136999
0.0137526
0.013807
0.013863
0.0139205
0.0139795
0.0140397
0.014101
0.0141633
0.0142264
0.0142902
0.0143545
0.0144192
0.014484
0.014548
0.0146112
0.0146719
0.0147315
0.0147863
0.0148412
0.0148878
0.0149354
0.0149705
0.0149968
0.0150064
0.0150015
0.0150104
0.0150104
0.01501
0.0150099
0.0150099
0.0150098
0.0150098
0.0150097
0.0150097
0.0150096
0.0150096
0.0150096
0.0150095
0.0150093
0.015009
0.0150088
0.0150093
0.0150111
0.015011
0.0150126
0.0150105
0.0150145
0.0150098
0.0150183
0.0150092
0.0150218
0.0150069
0.0150208
0.0150106
0.0150377
0.0150011
0.0146829
0.0150125
0.0152814
0.0150077
0.0150001
0.0150039
0.0150001
0.0150059
0.015
0.0150081
0.0150002
0.015009
0.0150002
0.0150144
0.0150002
0.0150226
0.0150138
0.0150474
0.0150211
0.0146947
0.0150342
0.0153186
0.0150139
0.0150029
0.0150083
0.0150018
0.0150077
0.0150006
0.0150055
0.0150002
0.0150035
0.015
0.0150021
0.0150004
0.0150023
0.0150019
0.0150033
0.0150038
0.0150049
0.0150053
0.0150062
0.0150068
0.0150074
0.0150077
0.0150079
0.0150082
0.0150084
0.0150086
0.0150089
0.0150091
0.0150091
0.0150091
0.0150092
0.0150096
0.0150098
0.0150097
0.0150096
0.0150096
0.0150097
0.0150097
0.0150099
0.0150102
0.0150102
0.01501
0.0150099
0.01501
0.0150101
0.01501
0.0150102
0.0150094
0.0150109
0.0150084
0.0150128
0.0150059
0.0150165
0.0150015
0.0150281
0.0150096
0.0150675
0.015033
0.0146765
0.0150423
0.0153662
0.015035
0.0150011
0.0150205
0.0150006
0.0150119
0.0150002
0.0150063
0.0150026
0.0150072
0.0150079
0.0150099
0.0150104
0.0150113
0.0150117
0.0150121
0.0150125
0.0150128
0.0150127
0.0150127
0.0150129
0.0150131
0.0150133
0.0150134
0.0150138
0.0150139
0.015014
0.0150138
0.0150137
0.0150141
0.0150142
0.0150143
0.0150143
0.0150143
0.0150147
0.0150148
0.0150146
0.0150145
0.0150149
0.0150144
0.0150157
0.0150139
0.0150176
0.0150134
0.0150209
0.0150108
0.0150248
0.0150093
0.015025
0.0150041
0.0150234
0.0150077
0.0150332
0.0150403
0.0150599
0.0150907
0.015103
0.014956
0.0143159
0.0131191
0.0110141
0.00778439
0.00290299
-5e-08
3.46945e-18
0
-5e-08
6.93889e-18
5e-08
3.46945e-18
0
5e-08
3.46945e-18
)
;

boundaryField
{
    inlet
    {
        type            calculated;
        value           uniform 0;
    }
    endWall
    {
        type            calculated;
        value           uniform 0;
    }
    sideWall
    {
        type            empty;
    }
}


// ************************************************************************* //
