/*--------------------------------*- C++ -*----------------------------------*\
| =========                 |                                                 |
| \\      /  F ield         | foam-extend: Open Source CFD                    |
|  \\    /   O peration     | Version:     3.2                                |
|   \\  /    A nd           | Web:         http://www.foam-extend.org         |
|    \\/     M anipulation  | For copyright notice see file Copyright         |
\*---------------------------------------------------------------------------*/
FoamFile
{
    version     2.0;
    format      ascii;
    class       volVectorField;
    location    "2020";
    object      U;
}
// * * * * * * * * * * * * * * * * * * * * * * * * * * * * * * * * * * * * * //

dimensions      [0 1 -1 0 0 0 0];

internalField   nonuniform List<vector> 
33000
(
(0.37706 0 0.000408189)
(0.37284 0 0.000423274)
(0.366429 -1.76917e-28 0.000574012)
(0.35944 -4.63566e-29 0.000608403)
(0.352357 -1.40534e-29 0.000674182)
(0.345162 0 0.00064396)
(0.338457 8.86275e-29 0.0006409)
(0.331825 6.53913e-34 0.000577967)
(0.32569 0 0.00057302)
(0.31964 6.07699e-29 0.000584268)
(0.313789 -2.01926e-28 0.000455343)
(0.308138 0 0.000496256)
(0.303126 0 0.000565417)
(0.297987 0 0.000359798)
(0.293023 3.13912e-29 0.000379301)
(0.288525 0 0.000364097)
(0.284052 0 0.000199371)
(0.279674 0 0.000135241)
(0.275637 1.61576e-29 0.00012602)
(0.271746 0 8.48967e-05)
(0.268052 0 7.02441e-05)
(0.264485 3.88473e-29 1.16245e-05)
(0.261019 2.10812e-29 -2.54351e-05)
(0.257775 0 -3.07672e-05)
(0.254678 3.82612e-29 -8.05384e-05)
(0.251724 2.69346e-29 -0.00011157)
(0.248921 -4.05651e-29 -0.000157636)
(0.246298 -2.387e-30 -0.000155354)
(0.243854 5.12725e-30 -0.000153309)
(0.241522 0 -0.000172739)
(0.2393 0 -0.000185879)
(0.237183 -5.39856e-29 -0.000207005)
(0.235172 0 -0.000215744)
(0.233303 -9.4272e-30 -0.000212566)
(0.231534 0 -0.000219876)
(0.229884 0 -0.000218134)
(0.228311 0 -0.000237206)
(0.226791 3.46389e-29 -0.000256639)
(0.225407 -1.1663e-29 -0.000245156)
(0.224085 -3.8174e-29 -0.000264728)
(0.222793 0 -0.000278974)
(0.221644 6.50869e-29 -0.000279999)
(0.220534 -3.92952e-29 -0.000287043)
(0.219456 6.5302e-29 -0.000316147)
(0.218474 0 -0.000304061)
(0.217553 0 -0.000339208)
(0.21669 -8.14778e-29 -0.000340525)
(0.216127 -2.23348e-31 -0.000329828)
(0.214881 -3.02254e-28 -0.000508855)
(0.21505 -1.14517e-28 -0.000101198)
(0.213695 -5.05694e-30 -0.000721887)
(0.213689 -3.77933e-28 -0.000131478)
(0.212116 0 -0.000912325)
(0.212436 -1.09729e-27 0.000111734)
(0.211207 6.46579e-27 -0.000988523)
(0.210858 -4.53295e-28 5.94231e-05)
(0.210055 1.06082e-26 -0.000937009)
(0.209905 8.05165e-28 0.000158443)
(0.209473 3.35555e-27 -0.00105525)
(0.208838 0 -0.000176551)
(0.207883 -1.90931e-29 -0.00117051)
(0.207389 0 0.000191659)
(0.207378 -1.04234e-26 -0.000529627)
(0.207948 0 0.00048184)
(0.207715 0 -0.00103583)
(0.20658 -2.05104e-27 -0.000215755)
(0.20584 0 -0.000943737)
(0.205848 4.25522e-27 0.000373536)
(0.205859 0 -0.000731246)
(0.205533 1.09602e-28 0.000229901)
(0.204924 0 -0.000785828)
(0.20478 -1.08325e-27 0.000414587)
(0.204577 -1.5223e-26 -0.000395219)
(0.205053 0 0.000491179)
(0.202675 0 -0.000171519)
(0.208913 -6.3007e-26 0.00247063)
(0.207779 -2.78336e-25 -0.00404717)
(0.197268 4.30587e-27 -0.000623108)
(0.203267 0 0.000597802)
(0.20241 2.0414e-26 -0.000791648)
(0.202474 0 4.04242e-05)
(0.202178 1.53301e-26 -0.00110764)
(0.200614 0 -0.000270928)
(0.200981 0 -0.000576603)
(0.19983 -9.11643e-31 -0.000158113)
(0.201509 -7.613e-27 0.000319045)
(0.201303 0 -0.000429555)
(0.201079 7.27378e-28 6.39317e-06)
(0.200943 3.17886e-27 -0.0004703)
(0.200807 0 -0.000267205)
(0.19939 6.43063e-27 -0.000647571)
(0.200042 -5.00328e-27 0.000531633)
(0.20064 0 -0.000212347)
(0.200647 8.17188e-27 0.000348064)
(0.200903 -1.38479e-27 -0.000398446)
(0.200208 0 -2.33308e-05)
(0.199673 0 -0.000301776)
(0.199801 2.59915e-27 9.97439e-05)
(0.197948 4.18586e-27 0.000280316)
(0.202126 0 0.00204246)
(0.201064 9.27863e-27 -0.000300682)
(0.205954 0 0.00206975)
(0.203923 0 -0.00514854)
(0.190698 0 -0.00119376)
(0.198385 0 0.00162074)
(0.198325 0 -0.000347796)
(0.198343 0 0.00183758)
(0.202392 -5.21958e-27 0.000635202)
(0.200004 9.35986e-28 -9.24566e-06)
(0.20105 0 0.000644554)
(0.200468 0 -0.000396207)
(0.199782 1.25595e-26 0.000459624)
(0.200046 0 0.000140684)
(0.200518 3.04158e-27 0.000421691)
(0.198994 0 0.000126827)
(0.201484 0 0.00116355)
(0.197898 0 -0.000152957)
(0.205819 9.72352e-26 0.00353595)
(0.202046 5.47156e-26 -0.0054998)
(0.18988 5.16904e-27 0.00119961)
(0.200178 0 0.00165909)
(0.197224 0 0.00125837)
(0.20436 0 0.00288845)
(0.201744 1.60965e-28 -0.00289935)
(0.193796 6.65641e-30 0.000881072)
(0.199793 2.02537e-27 0.00173791)
(0.198961 0 0.00179506)
(0.206512 2.99519e-26 0.00238526)
(0.200877 0 -0.00384354)
(0.193491 -2.82454e-27 0.00101499)
(0.198786 6.29423e-27 0.000960241)
(0.197606 2.86775e-32 0.00154783)
(0.198766 0 0.00169075)
(0.199871 -1.60862e-27 0.00224838)
(0.201193 0 0.00235903)
(0.201278 0 0.00286632)
(0.20597 -4.7066e-27 0.00372207)
(0.206701 2.13668e-27 0.00063306)
(0.203514 0 0.000990073)
(0.203937 -1.76149e-29 0.000990357)
(0.203632 0 0.00121453)
(0.20408 -3.63992e-28 0.00126767)
(0.20439 -1.35539e-28 0.00132291)
(0.204618 0 0.00125264)
(0.204857 1.11606e-28 0.00128781)
(0.205027 1.4649e-28 0.00116986)
(0.205217 -1.05101e-28 0.00120026)
(0.205322 -1.94055e-28 0.00104995)
(0.205457 0 0.00108112)
(0.205512 -1.99197e-28 0.000924438)
(0.205593 0 0.000965703)
(0.205631 0 0.000816612)
(0.205674 4.87557e-29 0.000852594)
(0.205653 0 0.000705633)
(0.205721 -4.84198e-29 0.000748137)
(0.205576 0 0.000585322)
(0.205777 0 0.000657653)
(0.205385 0 0.000394187)
(0.205811 2.99475e-28 0.000613033)
(0.205025 0 6.89449e-05)
(0.205698 8.3882e-28 0.000703116)
(0.204809 0 -0.000336308)
(0.205315 -1.43953e-27 0.000716252)
(0.204595 0 -0.000753995)
(0.20472 -2.78394e-27 0.000604061)
(0.204342 0 -0.00117359)
(0.203778 -9.2247e-28 0.000189954)
(0.203611 4.86749e-27 -0.0015689)
(0.202631 0 -0.000357149)
(0.201204 0 -0.00181135)
(0.199838 6.88839e-29 -0.000157755)
(0.200539 -2.10276e-27 -0.000916661)
(0.199681 -3.55982e-29 -6.03006e-05)
(0.200033 -3.53668e-28 -0.000572021)
(0.199434 0 -1.21808e-05)
(0.199653 0 -0.000322309)
(0.199261 9.13166e-29 5.00404e-05)
(0.199385 0 -0.00011822)
(0.199218 -8.67127e-29 0.000149413)
(0.199269 2.68187e-30 2.56341e-05)
(0.199269 0 0.000263099)
(0.199321 2.56427e-29 0.000118497)
(0.199358 -1.45222e-28 0.000338433)
(0.199421 5.65526e-29 0.000180676)
(0.199473 3.45581e-32 0.000388371)
(0.199545 -1.76238e-32 0.000222427)
(0.199605 0 0.000420888)
(0.199683 0 0.000249895)
(0.199747 1.28788e-28 0.000441625)
(0.19983 0 0.000266588)
(0.199895 0 0.000452028)
(0.199979 0 0.000275248)
(0.200046 0 0.000455368)
(0.20013 -6.51934e-29 0.000275996)
(0.200194 1.18198e-28 0.000450158)
(0.200274 0 0.000268909)
(0.200331 0 0.000437754)
(0.200406 6.53212e-29 0.000257053)
(0.200457 1.11193e-28 0.000420471)
(0.200525 0 0.000241893)
(0.200568 1.08204e-28 0.000400989)
(0.200629 -6.34537e-29 0.000224401)
(0.200665 0 0.000379578)
(0.200718 -1.24398e-28 0.000205872)
(0.200748 -1.03339e-28 0.000357907)
(0.200794 0 0.000187199)
(0.200818 -1.01305e-28 0.000336529)
(0.200857 0 0.000168756)
(0.200876 2.76435e-32 0.000315531)
(0.200909 5.85766e-29 0.000150068)
(0.200922 -9.7427e-29 0.000294065)
(0.200948 2.86761e-29 0.000131223)
(0.200957 4.79951e-29 0.000273349)
(0.200978 -2.81243e-29 0.000113061)
(0.200982 0 0.000253939)
(0.200999 0 9.60103e-05)
(0.200999 -4.68314e-29 0.000235206)
(0.201012 -2.69645e-29 8.00675e-05)
(0.201011 0 0.000218688)
(0.201021 -1.31943e-29 6.63286e-05)
(0.20102 -4.65765e-29 0.000205013)
(0.201029 6.4777e-30 5.48284e-05)
(0.201029 0 0.000194163)
(0.20104 1.90424e-29 4.66027e-05)
(0.201045 4.73234e-29 0.000187436)
(0.201059 6.29312e-30 4.07752e-05)
(0.20107 0 0.000182564)
(0.201089 0 3.60877e-05)
(0.201106 4.79458e-29 0.000178659)
(0.20113 -1.25731e-29 3.16725e-05)
(0.201151 0 0.000174691)
(0.20118 0 2.77181e-05)
(0.201206 -4.85142e-29 0.000171567)
(0.201239 6.2745e-30 2.44479e-05)
(0.20127 -4.91941e-29 0.000170214)
(0.201309 3.13181e-30 2.34376e-05)
(0.201345 4.97017e-29 0.00017058)
(0.201388 -1.56347e-29 2.40994e-05)
(0.201431 5.05416e-29 0.000173487)
(0.201478 -1.25329e-29 2.68247e-05)
(0.20153 -5.15223e-29 0.000178872)
(0.201582 0 3.17384e-05)
(0.201642 -1.07562e-32 0.000188224)
(0.201703 0 4.00919e-05)
(0.201771 0 0.00020038)
(0.201836 -1.30038e-29 4.93381e-05)
(0.201912 5.59291e-29 0.000212862)
(0.201974 2.69393e-29 5.65712e-05)
(0.202059 5.79264e-29 0.000225481)
(0.202114 4.24008e-29 6.14742e-05)
(0.202213 6.12608e-29 0.000239861)
(0.20225 -1.50398e-29 6.16369e-05)
(0.202375 -6.66354e-29 0.000258856)
(0.202375 1.6597e-29 5.40557e-05)
(0.202548 7.6584e-29 0.000288003)
(0.202494 0 3.65419e-05)
(0.202733 0 0.000334277)
(0.20262 0 3.91369e-06)
(0.202926 -2.60913e-28 0.000400647)
(0.202769 -7.02062e-29 -4.47871e-05)
(0.203117 -1.86979e-31 0.000483633)
(0.202939 -2.03186e-28 -0.000119898)
(0.203288 -4.6417e-28 0.000558931)
(0.203117 -2.59346e-28 -0.000209066)
(0.203424 2.25941e-27 0.000617216)
(0.203291 -9.35736e-28 -0.000304547)
(0.203508 5.29013e-31 0.00064724)
(0.203456 7.06421e-28 -0.00039477)
(0.203522 0 0.00063334)
(0.203597 2.23277e-27 -0.000463255)
(0.203453 1.4025e-27 0.000563072)
(0.203702 0 -0.00048594)
(0.203305 -6.236e-28 0.00042881)
(0.203748 0 -0.000434365)
(0.203101 -4.54491e-28 0.000234764)
(0.203691 0 -0.000278575)
(0.202937 -1.23623e-29 1.40113e-05)
(0.203474 0 -1.07489e-05)
(0.203075 0 -0.000148614)
(0.203126 0 0.000219557)
(0.203697 4.17215e-28 -0.000374647)
(0.201448 -7.36351e-29 7.5538e-05)
(0.204883 0 -0.000261608)
(0.192068 -4.32838e-27 -0.00163667)
(0.202721 -2.32911e-25 0.00952462)
(0.213774 0 -0.000819944)
(0.203303 0 0.000210252)
(0.205227 0 -0.000872474)
(0.203148 1.37153e-28 -6.61548e-05)
(0.203773 -9.3513e-28 -0.000746455)
(0.202911 -1.89801e-28 -0.000195117)
(0.203239 1.2633e-27 -0.000650699)
(0.2027 2.42911e-28 -0.000306062)
(0.202912 1.89053e-28 -0.000574756)
(0.202524 -1.38991e-28 -0.000384822)
(0.202659 0 -0.000511882)
(0.202375 4.56075e-33 -0.000428632)
(0.202412 3.14232e-29 -0.000466138)
(0.20223 -1.76356e-29 -0.000484526)
(0.202274 0 -0.000422035)
(0.202118 -5.59275e-29 -0.000497742)
(0.202153 1.50713e-28 -0.000384358)
(0.20203 3.97077e-34 -0.0004949)
(0.202038 0 -0.000351666)
(0.201957 0 -0.000482728)
(0.201943 1.18392e-28 -0.000321478)
(0.201892 0 -0.000464175)
(0.201866 1.24725e-28 -0.000294087)
(0.201838 -1.03042e-28 -0.000439963)
(0.201808 -6.26284e-29 -0.000267837)
(0.2018 0 -0.000411651)
(0.201767 6.07199e-29 -0.000244063)
(0.201775 0 -0.000380427)
(0.201742 -1.14549e-28 -0.000222031)
(0.201764 8.73346e-29 -0.000347098)
(0.201736 0 -0.000200754)
(0.20177 7.77455e-29 -0.000312413)
(0.201746 0 -0.000180553)
(0.201789 -3.36443e-29 -0.000277445)
(0.201773 -2.11016e-29 -0.000160903)
(0.201823 -4.54004e-33 -0.000242809)
(0.201813 0 -0.00014162)
(0.20187 -2.26777e-29 -0.00020748)
(0.201869 3.11066e-29 -0.000122067)
(0.20193 1.72362e-29 -0.000172438)
(0.201935 0 -0.000101481)
(0.202 1.40893e-33 -0.000136135)
(0.202012 -5.28825e-30 -7.80179e-05)
(0.20208 0 -9.76036e-05)
(0.202104 -4.12073e-30 -4.7838e-05)
(0.202163 0 -5.48285e-05)
(0.202216 3.31302e-31 -8.35207e-06)
(0.202288 -9.75618e-31 4.94575e-06)
(0.20239 2.6137e-30 4.50742e-05)
(0.202467 -2.92141e-30 5.8718e-05)
(0.202579 0 9.31432e-05)
(0.202668 0 0.000104597)
(0.202783 -1.07332e-29 0.000136184)
(0.202883 0 0.000145644)
(0.203003 0 0.000175975)
(0.203112 -8.70083e-30 0.000183308)
(0.203236 0 0.000211806)
(0.203352 0 0.000216939)
(0.203479 -1.03066e-29 0.000243276)
(0.203601 -6.79614e-30 0.000245379)
(0.203728 9.6418e-30 0.000268753)
(0.203852 2.69606e-30 0.000267798)
(0.20398 0 0.000288691)
(0.204106 3.6016e-30 0.000284451)
(0.204232 0 0.000300845)
(0.204357 0 0.000292996)
(0.204495 1.44248e-29 0.000308487)
(0.204576 0 0.000279525)
(0.204744 -2.10301e-29 0.00030176)
(0.20474 2.67912e-29 0.000226117)
(0.20497 -1.80814e-29 0.0002716)
(0.204879 0 0.000135425)
(0.20518 -4.50924e-29 0.00025932)
(0.20499 -2.70989e-29 -2.59685e-05)
(0.205312 -1.97753e-28 0.000253625)
(0.2052 3.54333e-28 -0.000266792)
(0.205201 0 7.30739e-05)
(0.20513 -8.85093e-28 -0.00056625)
(0.204372 1.22311e-28 -0.0002163)
(0.204695 0 -0.000379646)
(0.204263 0 -0.000364594)
(0.204107 1.20477e-29 -0.000380724)
(0.203929 7.62168e-30 -0.000382471)
(0.203795 1.06914e-29 -0.000390235)
(0.203658 -8.43635e-30 -0.000387512)
(0.203537 -6.95244e-30 -0.000389742)
(0.203412 6.32171e-30 -0.000390721)
(0.203296 -5.41784e-30 -0.000390996)
(0.203182 0 -0.000390849)
(0.203071 0 -0.000391882)
(0.202968 -4.07711e-30 -0.000389958)
(0.202861 -7.95203e-30 -0.000394772)
(0.202757 4.41491e-34 -0.000392379)
(0.202652 -8.19085e-30 -0.000397345)
(0.202574 -2.97349e-30 -0.000393178)
(0.202439 -3.82518e-30 -0.000392321)
(0.202509 0 -0.000363779)
(0.202225 -4.45412e-29 -0.000423107)
(0.202406 -1.4353e-28 -0.000332618)
(0.201921 -1.14665e-28 -0.000493451)
(0.20237 -9.57133e-29 -0.000221977)
(0.201554 0 -0.000648104)
(0.202379 5.59621e-29 1.61073e-05)
(0.201196 1.43572e-30 -0.000950739)
(0.202242 -9.06905e-28 0.000397826)
(0.201032 4.9278e-27 -0.00140566)
(0.201525 -6.13931e-27 0.000868827)
(0.201564 7.21478e-27 -0.00178828)
(0.199997 0 0.00125017)
(0.205841 1.88688e-26 -0.00238798)
(0.18866 -6.28006e-27 -0.00312776)
(0.200281 1.08328e-25 0.00762872)
(0.207978 -6.09921e-26 -0.0038564)
(0.19365 0 -0.000810097)
(0.199662 0 -3.0703e-05)
(0.197691 -1.15815e-27 -0.000880746)
(0.19831 -2.58979e-28 9.51537e-06)
(0.198526 1.00512e-27 -0.000743697)
(0.197997 1.91269e-28 -0.000176524)
(0.198874 0 -0.000513756)
(0.197933 0 -0.000439689)
(0.199053 7.59463e-29 -0.000225329)
(0.197888 -7.06388e-28 -0.000744729)
(0.199213 0 0.000183162)
(0.197909 5.63187e-27 -0.00120786)
(0.198859 2.65991e-27 0.000786536)
(0.198815 0 -0.00168807)
(0.197361 0 0.00124268)
(0.203609 0 -0.0022178)
(0.186127 1.79113e-26 -0.0033472)
(0.197709 1.15133e-25 0.00794275)
(0.206366 1.2455e-25 -0.00399662)
(0.19072 -1.45967e-26 -0.00110645)
(0.197343 8.4914e-28 0.000198145)
(0.195344 1.76969e-27 -0.00112568)
(0.196031 0 0.000195594)
(0.196276 1.51025e-27 -0.000951964)
(0.195916 3.11672e-28 3.31214e-06)
(0.196549 0 -0.000760715)
(0.196112 0 -0.000164847)
(0.19667 5.9188e-28 -0.000614441)
(0.19636 2.30241e-28 -0.000279579)
(0.196753 1.57796e-28 -0.000518202)
(0.196582 1.2916e-28 -0.000340045)
(0.196852 1.54973e-32 -0.000455336)
(0.196777 5.68121e-29 -0.00036925)
(0.196936 3.44654e-29 -0.00042141)
(0.196934 -2.51999e-29 -0.0003819)
(0.197015 -1.41003e-29 -0.000408692)
(0.197056 0 -0.000394782)
(0.197116 1.88374e-34 -0.000398464)
(0.197157 3.0144e-30 -0.000394011)
(0.197194 3.82561e-30 -0.000399892)
(0.197221 4.55299e-30 -0.000396316)
(0.197251 -2.05884e-35 -0.000397501)
(0.197269 0 -0.000397342)
(0.19729 0 -0.000395782)
(0.197304 0 -0.000396255)
(0.197318 -8.76107e-35 -0.000394679)
(0.197327 -2.55999e-35 -0.00039626)
(0.197329 2.34462e-30 -0.000397353)
(0.19733 1.67389e-31 -0.000395901)
(0.197335 9.92015e-35 -0.000392757)
(0.197337 9.36756e-31 -0.00039344)
(0.197334 8.88403e-31 -0.000393746)
(0.197326 6.0915e-35 -0.000395894)
(0.197317 -2.9032e-31 -0.000395445)
(0.197312 0 -0.000392221)
(0.197303 0 -0.000394677)
(0.19729 6.19332e-31 -0.000392833)
(0.197286 1.27735e-30 -0.000389622)
(0.197273 0 -0.000392836)
(0.197257 0 -0.000393969)
(0.197242 6.25989e-31 -0.00039347)
(0.197224 -2.20942e-30 -0.000395464)
(0.197206 1.73298e-30 -0.000391867)
(0.197227 -7.82805e-31 -0.000391844)
(0.197149 0 -0.000398319)
(0.197256 1.8671e-29 -0.000382501)
(0.197042 0 -0.000417538)
(0.197334 6.00416e-29 -0.00034203)
(0.196852 0 -0.000492825)
(0.197489 9.63923e-29 -0.000213894)
(0.19653 -6.67207e-31 -0.000690955)
(0.197673 0 0.000104865)
(0.196126 0 -0.00111658)
(0.19755 0 0.00080969)
(0.196486 0 -0.00182541)
(0.196125 0 0.00178066)
(0.202032 -2.39517e-26 -0.00280786)
(0.183661 4.15815e-27 -0.00311013)
(0.195762 -2.25606e-25 0.00806938)
(0.205464 1.20112e-25 -0.00351999)
(0.189154 0 -0.00185886)
(0.19491 0 0.000635746)
(0.194111 1.043e-26 -0.00135196)
(0.193659 -1.01793e-27 0.000214913)
(0.194655 1.41142e-27 -0.000873858)
(0.193782 0 -0.000139888)
(0.194607 0 -0.000582078)
(0.194121 0 -0.000299884)
(0.194595 1.84967e-28 -0.000441555)
(0.19443 -1.08401e-28 -0.000358105)
(0.194635 -3.36939e-29 -0.000408744)
(0.194595 0 -0.000382234)
(0.194675 1.14918e-29 -0.000400086)
(0.194712 -1.47012e-30 -0.000394238)
(0.194759 2.5988e-30 -0.000397244)
(0.194792 0 -0.000393182)
(0.194828 3.18004e-30 -0.000393963)
(0.194841 -5.7065e-30 -0.000397983)
(0.194859 0 -0.000392198)
(0.194868 7.05177e-31 -0.000393125)
(0.194876 0 -0.000389121)
(0.194875 3.69083e-30 -0.000390467)
(0.194868 0 -0.000388296)
(0.194863 0 -0.000385395)
(0.194847 -6.72858e-30 -0.000388725)
(0.194828 -4.80032e-31 -0.000386393)
(0.194799 0 -0.000390833)
(0.194773 0 -0.000384832)
(0.194751 0 -0.000382457)
(0.19472 -3.93301e-30 -0.000385639)
(0.194687 -1.04412e-30 -0.000382675)
(0.194649 4.21278e-30 -0.000385782)
(0.19461 0 -0.000381949)
(0.194577 0 -0.000380393)
(0.194526 0 -0.000385852)
(0.1945 0 -0.000383189)
(0.194412 -5.65978e-30 -0.000388604)
(0.194466 -8.24479e-30 -0.000371782)
(0.194254 0 -0.000398645)
(0.194449 4.17079e-29 -0.000341423)
(0.194007 -7.51799e-29 -0.000452328)
(0.19449 7.25268e-29 -0.000242995)
(0.193662 0 -0.000593356)
(0.194602 9.21637e-29 -2.79619e-05)
(0.193178 -1.14055e-27 -0.000891168)
(0.194675 0 0.000387822)
(0.192731 4.63994e-27 -0.0013724)
(0.194512 -2.95606e-27 0.000921775)
(0.192244 -1.51637e-26 -0.00196115)
(0.194007 1.91643e-29 0.00159058)
(0.192049 0 -0.0025205)
(0.193268 0 0.00223157)
(0.192825 0 -0.00285429)
(0.193033 0 0.00233264)
(0.195028 2.67703e-26 -0.00296301)
(0.196211 -1.21642e-26 0.00150472)
(0.202605 0 -0.0063812)
(0.197332 -8.13126e-26 -0.00651409)
(0.194107 3.51286e-25 -0.0166141)
(0.176619 -1.57336e-28 -0.0203165)
(0.152739 0 -0.0253977)
(0.0851673 0 -0.0186808)
(0.0591791 7.53915e-26 0.00026697)
(0.0808352 8.86821e-29 -0.000288518)
(0.0608496 -5.05773e-28 0.00182971)
(0.0549276 -7.74767e-29 0.00295479)
(0.022504 -2.15109e-28 0.00252563)
(0.00771661 -2.44389e-28 -0.000215549)
(-0.00571761 -5.95912e-28 0.000904934)
(-0.0191432 0 0.00242217)
(-0.033545 0 0.00146919)
(-0.0412683 1.49388e-27 -0.00663694)
(0.379473 0 0.000851149)
(0.377941 0 0.000988318)
(0.37478 -6.91175e-40 0.0016924)
(0.369805 1.53992e-29 0.00173175)
(0.365839 0 0.00188402)
(0.361175 0 0.00170983)
(0.357405 0 0.00169204)
(0.353575 -2.98691e-28 0.00153278)
(0.350107 7.74048e-29 0.00146506)
(0.347247 1.58131e-28 0.0013287)
(0.344709 -1.91859e-28 0.00112209)
(0.342326 0 0.00112005)
(0.340185 -4.61004e-29 0.00124732)
(0.337983 -2.46616e-28 0.000933326)
(0.335813 0 0.000968499)
(0.333748 0 0.00109621)
(0.33161 0 0.00086794)
(0.329269 0 0.000826301)
(0.326911 0 0.000891994)
(0.32473 0 0.000840995)
(0.322386 0 0.000861036)
(0.320327 0 0.00077896)
(0.317952 0 0.000714464)
(0.315898 0 0.000707276)
(0.313621 0 0.000612109)
(0.311601 0 0.000566325)
(0.309317 0 0.000484591)
(0.307356 -3.71534e-29 0.000438575)
(0.30516 1.0888e-28 0.00041997)
(0.30337 0 0.000335286)
(0.301229 0 0.000298229)
(0.299545 -7.58553e-29 0.000229091)
(0.297469 -5.71785e-29 0.000180372)
(0.295917 0 0.000155305)
(0.29397 0 0.000113353)
(0.29255 0 9.24191e-05)
(0.290707 0 5.4003e-05)
(0.289389 0 -6.97854e-06)
(0.287584 -2.61486e-33 -6.78511e-06)
(0.28644 -9.77255e-29 -3.5584e-05)
(0.284696 0 -8.99408e-05)
(0.283624 8.7744e-29 -8.26209e-05)
(0.281999 -1.20062e-28 -0.000113058)
(0.281038 0 -0.000142036)
(0.279424 0 -0.00016782)
(0.27863 0 -0.000158491)
(0.277011 -1.92365e-28 -0.000251429)
(0.2764 3.68448e-28 -8.88093e-05)
(0.274643 -5.40692e-28 -0.000533602)
(0.274231 -4.79773e-28 0.000106531)
(0.272693 -4.49028e-27 -0.000683821)
(0.272205 -3.08442e-27 -4.21796e-05)
(0.270562 0 -0.000922052)
(0.270043 0 0.00010007)
(0.268936 1.26872e-26 -0.00104831)
(0.268032 -8.86599e-28 9.8476e-05)
(0.267149 0 -0.000995927)
(0.266426 1.28315e-28 0.000314269)
(0.265753 1.38833e-29 -0.00113681)
(0.264806 0 -0.000194508)
(0.26368 6.91225e-27 -0.00138821)
(0.262755 0 0.000330775)
(0.262395 0 -0.000315463)
(0.262306 0 0.000920241)
(0.261854 2.32075e-26 -0.0010841)
(0.260661 -3.27644e-28 -0.000275864)
(0.259695 0 -0.00111175)
(0.259201 0 0.00066026)
(0.25889 0 -0.000643488)
(0.258303 0 0.000437188)
(0.257578 0 -0.000806134)
(0.257016 0 0.000673312)
(0.256607 -2.83855e-26 -0.000245979)
(0.256752 0 0.000897586)
(0.255293 -4.06512e-27 -0.000278426)
(0.258624 0 0.00261224)
(0.257338 0 -0.00484762)
(0.250009 0 -0.000283721)
(0.25358 0 0.000955265)
(0.252665 4.05908e-26 -0.000760836)
(0.252526 0 2.86017e-05)
(0.252012 2.56638e-26 -0.00145382)
(0.250587 0 -0.000427248)
(0.250507 0 -0.000693349)
(0.249513 -6.25773e-27 -9.27498e-07)
(0.250433 -2.28319e-27 0.000567764)
(0.250238 0 -0.000322313)
(0.250046 1.69937e-27 4.41683e-05)
(0.249778 5.48371e-27 -0.000740831)
(0.249478 0 -0.00040498)
(0.248364 2.6115e-26 -0.00068413)
(0.248561 3.69085e-27 0.000786815)
(0.248857 -1.56937e-26 -3.82602e-05)
(0.248771 0 0.000560881)
(0.248825 -4.91599e-27 -0.000454375)
(0.248278 0 -0.000107421)
(0.247656 0 -0.000555195)
(0.247593 3.49321e-27 0.000168644)
(0.246355 -6.68184e-27 0.000439292)
(0.249102 0 0.00257859)
(0.24869 0 -0.000347458)
(0.251123 3.34154e-26 0.00238485)
(0.249433 1.38229e-25 -0.005994)
(0.240598 0 -0.00112333)
(0.245332 0 0.00184624)
(0.245115 0 -0.000410097)
(0.245232 3.35048e-26 0.00227585)
(0.247863 -1.98369e-26 0.000781344)
(0.246291 1.94327e-27 5.69013e-05)
(0.246948 0 0.000729055)
(0.246395 0 -0.000560242)
(0.245819 0 0.000487595)
(0.245806 0 6.81373e-05)
(0.24594 0 0.00056587)
(0.24478 0 0.000223624)
(0.246436 0 0.00159096)
(0.244217 0 -0.000144094)
(0.24876 -8.8283e-26 0.00429542)
(0.2461 9.6387e-26 -0.00621887)
(0.238127 1.25355e-26 0.00181563)
(0.244892 0 0.0017454)
(0.242903 9.77136e-27 0.00132818)
(0.247489 3.10686e-26 0.0032735)
(0.245663 2.68501e-26 -0.00330359)
(0.240542 -1.6018e-27 0.00129914)
(0.244595 4.92476e-27 0.00195403)
(0.243966 0 0.00189598)
(0.248595 -2.85573e-26 0.00265318)
(0.244802 0 -0.00432641)
(0.23993 -3.21534e-27 0.00156045)
(0.243274 1.28586e-26 0.00108772)
(0.242377 -2.43882e-32 0.00190485)
(0.243541 0 0.00203236)
(0.24384 -1.92947e-27 0.00260287)
(0.245313 0 0.00269263)
(0.24537 0 0.00317236)
(0.248872 -5.74771e-27 0.00409259)
(0.249365 2.94959e-27 0.000575397)
(0.247351 0 0.00122789)
(0.247629 -1.08959e-28 0.00118095)
(0.247369 0 0.00147032)
(0.247624 -2.12825e-28 0.00149212)
(0.247854 6.92087e-30 0.00157754)
(0.248 0 0.00145982)
(0.248263 -1.16809e-29 0.00152282)
(0.248371 0 0.00136388)
(0.248572 0 0.00141122)
(0.248658 0 0.00123366)
(0.248761 0 0.00127815)
(0.248815 -3.10435e-28 0.00109384)
(0.248858 -8.65202e-29 0.00114553)
(0.248887 -3.03435e-28 0.000966372)
(0.248909 8.2398e-29 0.00101657)
(0.248889 -3.07075e-28 0.000836226)
(0.248923 -9.43142e-29 0.000894223)
(0.248816 0 0.000693717)
(0.248935 0 0.000795626)
(0.248645 0 0.000458636)
(0.248907 0 0.000747725)
(0.248351 0 7.75224e-05)
(0.248744 1.31199e-27 0.000851366)
(0.248134 0 -0.000403346)
(0.24839 -1.09635e-27 0.000892051)
(0.247873 0 -0.000906747)
(0.247831 -1.41327e-27 0.000769732)
(0.247512 0 -0.00139856)
(0.246951 0 0.000311292)
(0.246661 -7.22446e-27 -0.00182207)
(0.245556 0 -0.000410414)
(0.24479 5.20298e-27 -0.00194557)
(0.243611 0 1.73459e-05)
(0.243958 -1.69941e-27 -0.00100614)
(0.243215 -4.32041e-28 4.35808e-05)
(0.243382 1.7121e-31 -0.000625532)
(0.242851 0 6.41711e-05)
(0.24293 0 -0.000341898)
(0.242565 4.67805e-29 0.000116627)
(0.242587 0 -0.000108982)
(0.242394 -1.33297e-28 0.000217523)
(0.24238 0 5.21429e-05)
(0.242315 0 0.000338999)
(0.242309 3.95384e-29 0.000151416)
(0.242281 0 0.00042017)
(0.242291 0 0.000217309)
(0.242281 4.21083e-28 0.000473847)
(0.242303 -1.78411e-28 0.000261312)
(0.242305 0 0.000508385)
(0.242336 -1.83084e-28 0.000289969)
(0.242347 0 0.000529916)
(0.242386 0 0.000306757)
(0.242402 0 0.000539953)
(0.242446 1.88231e-28 0.00031483)
(0.242467 0 0.000541991)
(0.242514 0 0.000314121)
(0.242537 0 0.000534571)
(0.242584 0 0.000305084)
(0.242604 -1.77279e-28 0.000519317)
(0.242648 0 0.000290995)
(0.242666 0 0.000498705)
(0.242706 0 0.000273587)
(0.24272 0 0.000475793)
(0.242757 9.26825e-29 0.000253714)
(0.242766 1.63292e-28 0.000450874)
(0.242797 -9.09747e-29 0.000232883)
(0.242803 -1.5975e-28 0.000425786)
(0.242829 -8.93311e-29 0.000211932)
(0.24283 -1.56446e-28 0.000401044)
(0.242852 0 0.000191231)
(0.242849 1.53541e-28 0.000376837)
(0.242866 1.72835e-28 0.000170228)
(0.242859 0 0.000352066)
(0.24287 8.48835e-29 0.000149159)
(0.242859 7.39323e-29 0.000328155)
(0.242866 0 0.000128826)
(0.242851 0 0.000305761)
(0.242854 0 0.000109676)
(0.242836 -7.19927e-29 0.000284128)
(0.242835 5.40015e-33 9.17019e-05)
(0.242815 0 0.000264949)
(0.242811 1.97622e-29 7.60848e-05)
(0.242791 0 0.000248906)
(0.242786 0 6.28167e-05)
(0.242766 0 0.000236083)
(0.242762 1.91042e-29 5.30503e-05)
(0.242744 7.22768e-29 0.000227602)
(0.242743 -1.8986e-29 4.55095e-05)
(0.24273 0 0.000221045)
(0.242732 0 3.91133e-05)
(0.242724 0 0.00021555)
(0.24273 -1.89974e-29 3.30464e-05)
(0.242724 0 0.000210039)
(0.242733 0 2.75753e-05)
(0.242732 0 0.000205556)
(0.242744 -9.49632e-30 2.30373e-05)
(0.242747 -7.45224e-29 0.000203288)
(0.242764 0 2.11745e-05)
(0.24277 0 0.000203115)
(0.242791 -1.89484e-29 2.11953e-05)
(0.242803 0 0.000205819)
(0.242828 -1.8983e-29 2.34517e-05)
(0.242846 -7.77905e-29 0.000211319)
(0.242876 -3.8177e-29 2.81194e-05)
(0.242902 -1.60124e-28 0.000221306)
(0.242939 -3.84717e-29 3.62341e-05)
(0.242976 -8.22715e-29 0.000233961)
(0.24302 -5.87728e-29 4.50424e-05)
(0.243066 0 0.000247185)
(0.243113 4.04972e-29 5.17885e-05)
(0.24317 8.73837e-29 0.000261021)
(0.243215 8.49368e-29 5.60323e-05)
(0.243286 0 0.000277457)
(0.243322 0 5.62969e-05)
(0.243413 -2.03241e-28 0.000299149)
(0.243429 0 4.9175e-05)
(0.24355 -2.24908e-32 0.000332494)
(0.243536 0 2.88248e-05)
(0.2437 1.49776e-28 0.000386747)
(0.243647 -8.26916e-29 -1.2475e-05)
(0.243858 0 0.000466636)
(0.243774 7.0861e-30 -7.89598e-05)
(0.244023 -5.43973e-28 0.000569367)
(0.243929 0 -0.000170037)
(0.244174 -6.98125e-28 0.000661674)
(0.244089 -4.40301e-28 -0.000278547)
(0.2443 1.69976e-27 0.000734088)
(0.244246 -4.69938e-28 -0.000393547)
(0.244386 2.93599e-27 0.000773472)
(0.244391 1.59416e-27 -0.000500322)
(0.244417 0 0.000761139)
(0.244509 1.67774e-27 -0.00057865)
(0.24438 0 0.000681867)
(0.244588 -5.3509e-28 -0.00059937)
(0.244277 -4.70157e-28 0.000526479)
(0.244608 0 -0.000528606)
(0.244127 0 0.000299736)
(0.24454 0 -0.000333016)
(0.244005 0 4.11196e-05)
(0.244348 -2.50271e-30 -9.448e-06)
(0.244097 0 -0.000156424)
(0.244019 0 0.000258163)
(0.244493 5.35726e-28 -0.000370318)
(0.242638 -1.04301e-28 0.00012712)
(0.244959 0 0.000130981)
(0.237204 0 -0.00165495)
(0.243989 -1.62261e-25 0.0106352)
(0.251655 0 -0.00171921)
(0.244876 0 0.000312375)
(0.246457 2.44515e-27 -0.00111158)
(0.244775 4.41733e-28 -2.33055e-05)
(0.245241 -2.92698e-27 -0.00088264)
(0.244534 -2.86971e-28 -0.000181593)
(0.244743 -2.06712e-31 -0.000757757)
(0.24429 3.57298e-28 -0.000319811)
(0.244397 2.95434e-28 -0.000664193)
(0.244054 0 -0.00041796)
(0.244093 1.47468e-28 -0.000586258)
(0.243826 -7.75268e-29 -0.000484579)
(0.243809 0 -0.000535381)
(0.243609 0 -0.000560493)
(0.243584 0 -0.000484337)
(0.243404 -8.61702e-29 -0.000582229)
(0.243366 -9.62136e-33 -0.000435986)
(0.243227 2.42376e-28 -0.000573754)
(0.243172 1.46096e-28 -0.000393747)
(0.243062 0 -0.000560817)
(0.242996 0 -0.000357038)
(0.242911 1.57611e-28 -0.000539502)
(0.24284 1.75456e-28 -0.000325414)
(0.242776 -1.60355e-28 -0.000512011)
(0.242705 0 -0.000296446)
(0.242661 0 -0.000480256)
(0.242592 8.61097e-29 -0.000270618)
(0.242563 0 -0.000444988)
(0.2425 -1.62643e-28 -0.000247103)
(0.242485 0 -0.000407293)
(0.242429 -7.51516e-29 -0.000224477)
(0.242427 1.21917e-28 -0.000367906)
(0.242379 0 -0.000203209)
(0.242387 5.29381e-29 -0.000328025)
(0.242349 -5.98826e-29 -0.00018255)
(0.242366 -8.96526e-29 -0.000288539)
(0.242338 0 -0.000162283)
(0.242363 -3.61244e-29 -0.000248145)
(0.242346 -1.192e-33 -0.000141653)
(0.242378 0 -0.000207809)
(0.24237 1.8272e-29 -0.000119472)
(0.242409 1.92016e-29 -0.000165775)
(0.24241 -2.25443e-29 -9.33495e-05)
(0.242455 -5.24452e-30 -0.000119221)
(0.242465 -1.21074e-29 -6.06532e-05)
(0.24252 1.68208e-31 -6.69535e-05)
(0.24253 8.87003e-31 -1.70054e-05)
(0.242608 -1.73746e-30 -5.8555e-06)
(0.242657 -2.31263e-34 4.39004e-05)
(0.24275 -6.20112e-30 5.08933e-05)
(0.242818 0 9.95083e-05)
(0.24292 5.70922e-30 0.000101704)
(0.243004 -1.22045e-29 0.000149549)
(0.243112 0 0.00014828)
(0.243211 -1.18859e-29 0.000195474)
(0.243322 -1.00896e-29 0.000191423)
(0.243435 0 0.000236685)
(0.243548 0 0.00022991)
(0.243675 -1.03842e-29 0.000272861)
(0.243787 -8.0689e-30 0.000262579)
(0.243925 9.13709e-30 0.000302139)
(0.244034 1.4293e-33 0.000288098)
(0.244183 0 0.000324992)
(0.244288 2.48338e-33 0.000306779)
(0.24445 0 0.000339065)
(0.244544 8.35578e-30 0.000312828)
(0.244731 0 0.000349951)
(0.244804 0 0.000294376)
(0.245014 0 0.000331219)
(0.245035 0 0.000237547)
(0.245239 0 0.000299442)
(0.245205 -7.07022e-29 0.000127372)
(0.245447 0 0.000285049)
(0.245349 -4.51695e-30 -6.07191e-05)
(0.245584 1.45638e-28 0.000279302)
(0.24553 0 -0.000341693)
(0.245508 -4.48753e-29 8.39166e-05)
(0.245466 6.32562e-28 -0.000661179)
(0.244927 3.63532e-28 -0.000214401)
(0.245121 0 -0.000434727)
(0.244778 0 -0.000399194)
(0.244708 0 -0.000428017)
(0.244538 0 -0.000424618)
(0.244419 1.14156e-29 -0.000439512)
(0.244283 -5.99073e-30 -0.000433415)
(0.244157 2.25912e-35 -0.000438799)
(0.244044 -7.90856e-30 -0.00043965)
(0.243905 -3.56027e-37 -0.000441721)
(0.243812 -7.43084e-30 -0.000440902)
(0.243667 -6.17426e-30 -0.000444816)
(0.243587 -3.39104e-34 -0.0004402)
(0.243441 -8.01293e-30 -0.000449707)
(0.243363 -1.51264e-34 -0.000442976)
(0.243208 -7.01177e-30 -0.000453174)
(0.243142 -3.92448e-30 -0.000443071)
(0.242956 0 -0.000451881)
(0.242978 0 -0.000411572)
(0.242736 -7.04196e-29 -0.000489202)
(0.242835 -2.042e-28 -0.000363102)
(0.242449 -1.81047e-28 -0.000571808)