/*--------------------------------*- C++ -*----------------------------------*\
| =========                 |                                                 |
| \\      /  F ield         | foam-extend: Open Source CFD                    |
|  \\    /   O peration     | Version:     3.2                                |
|   \\  /    A nd           | Web:         http://www.foam-extend.org         |
|    \\/     M anipulation  | For copyright notice see file Copyright         |
\*---------------------------------------------------------------------------*/
FoamFile
{
    version     2.0;
    format      ascii;
    class       volVectorField;
    location    "1790";
    object      U;
}
// * * * * * * * * * * * * * * * * * * * * * * * * * * * * * * * * * * * * * //

dimensions      [0 1 -1 0 0 0 0];

internalField   nonuniform List<vector> 
33000
(
(0.377024 0 0.000413014)
(0.372828 5.98669e-29 0.000417016)
(0.366463 -8.73412e-29 0.000566775)
(0.359501 -4.78322e-29 0.000599872)
(0.352479 -1.29806e-29 0.00066626)
(0.345353 0 0.00063257)
(0.338724 8.94121e-29 0.000628988)
(0.332157 2.91409e-28 0.000570894)
(0.326067 0 0.000575436)
(0.320014 -7.45473e-29 0.000573904)
(0.314325 1.75565e-28 0.000555848)
(0.308769 0 0.000510827)
(0.303534 -3.54203e-34 0.000471596)
(0.298466 9.97152e-29 0.000425124)
(0.293645 1.0461e-28 0.000369776)
(0.288973 0 0.000309306)
(0.284539 1.12212e-28 0.000236131)
(0.280312 0 0.000169723)
(0.276287 5.81322e-29 0.000117067)
(0.272407 3.05032e-29 6.87974e-05)
(0.268696 0 2.96125e-05)
(0.265134 1.79925e-29 -4.34039e-06)
(0.261728 1.61538e-29 -3.36146e-05)
(0.258478 0 -6.28629e-05)
(0.255397 2.18284e-29 -9.17885e-05)
(0.252486 2.49562e-29 -0.000120572)
(0.249751 0 -0.000147701)
(0.247182 1.90561e-29 -0.000164477)
(0.244754 0 -0.000173268)
(0.242455 0 -0.000182529)
(0.240275 -1.49146e-29 -0.000191932)
(0.238207 0 -0.000199941)
(0.236245 0 -0.000207604)
(0.234382 0 -0.000215732)
(0.232616 0 -0.00022393)
(0.230943 0 -0.000232169)
(0.229362 0 -0.000240781)
(0.227868 0 -0.000249559)
(0.226459 0 -0.000258437)
(0.225132 0 -0.000267305)
(0.223882 1.9037e-29 -0.000276407)
(0.222703 -2.0853e-29 -0.000286259)
(0.221591 2.05526e-29 -0.000294453)
(0.22054 -2.09029e-29 -0.000302105)
(0.219545 -2.08643e-29 -0.000309156)
(0.218601 0 -0.000317516)
(0.217706 -2.39606e-29 -0.000327123)
(0.216856 0 -0.000337038)
(0.216051 -2.59956e-29 -0.000346142)
(0.215288 0 -0.000354457)
(0.214567 2.7078e-29 -0.000361642)
(0.213888 -2.69889e-29 -0.000367643)
(0.21325 -2.68216e-29 -0.000372752)
(0.212651 -2.6283e-29 -0.00037694)
(0.212084 0 -0.000380414)
(0.211549 0 -0.000383999)
(0.211038 2.45294e-29 -0.000387559)
(0.21055 0 -0.000390292)
(0.21008 0 -0.000392798)
(0.209628 0 -0.000394766)
(0.209193 0 -0.000395401)
(0.208774 2.26801e-29 -0.000394804)
(0.208374 -2.179e-29 -0.000393369)
(0.207992 2.08339e-29 -0.000391671)
(0.207628 0 -0.000390576)
(0.20728 1.91538e-29 -0.000389595)
(0.206948 0 -0.00038926)
(0.206629 -1.85569e-29 -0.000389433)
(0.206323 0 -0.00038977)
(0.206027 1.90736e-29 -0.000390764)
(0.20574 0 -0.000391949)
(0.205464 -1.99732e-29 -0.000392953)
(0.205195 -2.07561e-29 -0.000394148)
(0.204939 2.09537e-29 -0.000394771)
(0.204696 2.10337e-29 -0.00039517)
(0.204468 2.07943e-29 -0.000395952)
(0.204255 -1.98196e-29 -0.000396376)
(0.204058 0 -0.000396932)
(0.203876 -1.76353e-29 -0.00039728)
(0.20371 1.53646e-29 -0.000396529)
(0.203557 1.31734e-29 -0.000395627)
(0.203415 0 -0.000394975)
(0.203277 0 -0.000394242)
(0.203138 0 -0.00039385)
(0.202995 0 -0.000393389)
(0.202843 0 -0.000392854)
(0.202681 0 -0.000392661)
(0.202508 0 -0.000392227)
(0.202327 0 -0.000392004)
(0.20214 0 -0.000392053)
(0.201953 0 -0.000392472)
(0.201772 2.6472e-29 -0.000393506)
(0.201599 0 -0.000393797)
(0.201437 0 -0.000393531)
(0.201284 0 -0.000393292)
(0.201146 0 -0.000392594)
(0.201017 8.37306e-30 -0.000391962)
(0.200902 0 -0.000392322)
(0.20079 0 -0.000392406)
(0.200687 8.74066e-30 -0.000392626)
(0.200582 8.91136e-30 -0.000392351)
(0.200481 -1.06e-29 -0.000393103)
(0.200373 0 -0.000392423)
(0.200264 0 -0.000392831)
(0.200148 0 -0.000391528)
(0.200027 0 -0.000392997)
(0.199916 -1.51632e-29 -0.000390547)
(0.199799 0 -0.000393586)
(0.199669 0 -0.000412192)
(0.199798 -1.94382e-28 -0.000321269)
(0.199425 0 -0.00063768)
(0.19907 0 -0.000555452)
(0.198694 0 -0.000640112)
(0.198644 5.72123e-28 -0.00057361)
(0.19803 -9.94886e-28 -0.00068434)
(0.197774 2.04745e-27 -0.000370982)
(0.197293 -1.16354e-26 -0.000423958)
(0.197243 0 0.000103508)
(0.198633 2.05341e-26 0.000182723)
(0.199207 -1.72446e-26 -0.000620947)
(0.197703 0 -0.00123529)
(0.196809 0 -0.000832074)
(0.19642 4.42006e-30 -0.000789406)
(0.196458 0 -0.000499997)
(0.196234 -1.08648e-27 -0.000687095)
(0.195719 3.05897e-27 -0.000467153)
(0.195244 0 -0.000327367)
(0.195384 -4.92224e-27 0.000130559)
(0.196446 0 0.000173853)
(0.196999 1.69577e-26 -0.000407642)
(0.195447 -9.17668e-31 -0.00117783)
(0.194376 0 -0.000403913)
(0.195482 0 0.000218368)
(0.196404 1.16953e-26 -0.00030422)
(0.195252 -1.57465e-26 -0.00103513)
(0.194176 0 -0.000601444)
(0.194068 0 -0.000469196)
(0.194091 -4.71367e-27 -0.000443197)
(0.19382 3.7328e-27 -0.000614458)
(0.193207 0 -0.000339349)
(0.193191 3.69093e-27 1.79667e-05)
(0.194471 -1.82966e-26 0.000271672)
(0.195015 0 -0.000546607)
(0.193927 6.09389e-27 -0.00104225)
(0.192822 0 -0.000870804)
(0.1927 -1.19599e-27 -0.000494688)
(0.192615 -9.57741e-28 -0.000524051)
(0.192501 -2.22835e-27 -0.000373836)
(0.192112 0 -0.000511596)
(0.191682 1.8147e-27 -0.000393923)
(0.191492 -6.45269e-27 -0.000141765)
(0.19255 4.25966e-26 0.000269088)
(0.193086 0 -0.000365526)
(0.192292 5.64647e-27 -0.000849318)
(0.191115 -7.99557e-27 -0.000895157)
(0.190864 1.07333e-27 -0.000460547)
(0.190815 -9.51567e-28 -0.000519393)
(0.19079 1.66246e-28 -0.000297012)
(0.190466 0 -0.0004279)
(0.18977 0 -0.000219639)
(0.189893 0 0.000108631)
(0.190941 0 0.000224567)
(0.191472 0 -0.000410289)
(0.190564 -5.02435e-27 -0.000883417)
(0.189595 7.82471e-27 -0.000715043)
(0.189398 3.88841e-27 -0.000440837)
(0.189316 -1.27465e-27 -0.00046506)
(0.18919 0 -0.000487701)
(0.189007 -1.759e-27 -0.000435681)
(0.188788 -9.06334e-28 -0.000281254)
(0.188593 0 -6.81123e-05)
(0.189454 0 0.000340428)
(0.19014 0 -0.000285496)
(0.189437 0 -0.0008018)
(0.188332 6.08444e-27 -0.000831046)
(0.18834 -3.98775e-28 -0.000294045)
(0.188632 0 -0.000482069)
(0.187971 6.30244e-28 -0.000613832)
(0.187951 0 -0.000250586)
(0.188222 -8.74213e-30 -0.000418603)
(0.187677 -2.96887e-28 -0.000592975)
(0.187619 0 -0.000260026)
(0.187714 0 -0.000443103)
(0.187168 2.45165e-28 -0.000554996)
(0.186996 0 -0.000171595)
(0.187737 0 5.53981e-05)
(0.18766 0 -0.000355232)
(0.187165 0 -0.000265806)
(0.187227 2.01029e-29 -0.000305998)
(0.18683 0 -0.000420423)
(0.186807 -6.54538e-29 -0.000215131)
(0.186846 -8.3648e-29 -0.000349005)
(0.186421 0 -0.000346191)
(0.186734 0 -0.000141087)
(0.186613 2.01919e-28 -0.000472227)
(0.185935 5.87035e-29 -0.00038345)
(0.186226 0 -0.000144278)
(0.186265 -1.26258e-28 -0.000346865)
(0.18571 0 -0.000393822)
(0.185699 5.3992e-30 -0.000101061)
(0.186081 -9.26597e-31 -8.44671e-05)
(0.186011 0 -0.000262888)
(0.185819 0 -0.000297531)
(0.185653 0 -0.000321883)
(0.185514 0 -0.00029395)
(0.185378 0 -0.000304295)
(0.185427 3.83495e-29 -0.00018688)
(0.185324 6.15044e-29 -0.000280092)
(0.185288 0 -0.000145075)
(0.185339 3.07698e-29 -0.000239699)
(0.185116 0 -0.000254412)
(0.185138 1.40101e-29 -0.000207342)
(0.184885 0 -0.00030295)
(0.184665 0 -0.00021853)
(0.184448 0 -0.000208935)
(0.184043 0 -5.27903e-05)
(0.184499 0 0.000305542)
(0.184691 -3.53945e-29 0.000333251)
(0.185096 0 0.000512521)
(0.185427 2.29143e-29 0.000516437)
(0.185692 0 0.000558759)
(0.186014 -8.00404e-29 0.000612447)
(0.186425 -4.25446e-29 0.000565349)
(0.186287 -1.67845e-28 0.000319722)
(0.18616 2.65229e-28 0.00052607)
(0.186667 -1.40497e-28 0.000627327)
(0.186912 -6.07126e-29 0.000570861)
(0.186895 3.45983e-29 0.000492741)
(0.187039 7.69916e-29 0.000569041)
(0.187383 -2.40783e-29 0.000531302)
(0.186865 1.6349e-28 0.000293071)
(0.186177 1.6865e-27 0.00093713)
(0.18837 -2.06786e-27 0.00180247)
(0.189803 -1.18718e-27 0.000991232)
(0.189147 1.10932e-32 0.00064796)
(0.18923 8.04919e-29 0.000434669)
(0.188335 -2.04145e-29 0.000247767)
(0.188789 -1.27535e-27 0.000903833)
(0.189766 3.92796e-28 0.000650763)
(0.189612 0 0.000482081)
(0.18954 2.48268e-29 0.000398977)
(0.189573 0 0.000406676)
(0.189606 -3.06388e-29 0.000347396)
(0.189658 -1.91161e-29 0.000380598)
(0.189711 0 0.000328928)
(0.189759 1.42566e-29 0.000351331)
(0.189778 -7.83308e-29 0.000289154)
(0.189785 1.62814e-29 0.000310989)
(0.189804 -2.50457e-33 0.00026709)
(0.18982 0 0.0002853)
(0.189829 0 0.00024283)
(0.189834 0 0.000261183)
(0.18984 0 0.000224004)
(0.189849 1.5947e-29 0.000246812)
(0.189875 0 0.0002122)
(0.189898 -3.14432e-30 0.000222385)
(0.189914 0 0.000184051)
(0.189925 2.86527e-30 0.000192922)
(0.189939 0 0.000157904)
(0.189945 -2.19009e-30 0.000163632)
(0.189951 0 0.000125842)
(0.189936 0 0.000128192)
(0.189924 4.59581e-30 0.000100587)
(0.189906 0 0.000111146)
(0.189895 3.212e-30 9.1069e-05)
(0.189878 1.2652e-30 0.000104085)
(0.189857 -2.8053e-30 9.07048e-05)
(0.189806 0 8.8825e-05)
(0.189752 0 9.19413e-05)
(0.189662 -1.03207e-33 0.000118959)
(0.189539 -2.22871e-28 0.000267276)
(0.190151 -2.95038e-28 0.000530846)
(0.190642 -1.78544e-28 0.00034374)
(0.190413 -1.99345e-29 0.000162901)
(0.190296 3.34559e-30 0.00013441)
(0.19026 0 0.000128408)
(0.190239 6.88919e-31 0.000125385)
(0.190244 0 0.000140823)
(0.190246 0 0.000136789)
(0.190268 0 0.000153898)
(0.190284 0 0.000146899)
(0.190317 -4.16868e-30 0.000161247)
(0.190339 -8.58965e-34 0.000145805)
(0.190367 -1.10969e-33 0.00015579)
(0.190383 3.04937e-30 0.000135788)
(0.190404 0 0.000144017)
(0.190414 3.68953e-30 0.000121189)
(0.190425 8.07832e-31 0.000126876)
(0.190425 -4.16234e-30 0.000101957)
(0.190428 6.14401e-34 0.000107928)
(0.19042 0 8.11054e-05)
(0.19042 -1.14997e-30 8.87638e-05)
(0.190404 -2.56919e-30 5.94008e-05)
(0.190404 -1.37739e-30 7.15579e-05)
(0.19037 -2.53843e-30 3.87292e-05)
(0.190377 1.39237e-30 5.94369e-05)
(0.190329 7.69327e-31 1.90872e-05)
(0.19035 2.76635e-30 5.58523e-05)
(0.190297 5.7025e-31 -3.43508e-06)
(0.190325 -4.69368e-30 5.52718e-05)
(0.19028 -3.36612e-30 -2.88189e-05)
(0.190295 6.29237e-30 4.98023e-05)
(0.190264 -8.10503e-30 -5.18162e-05)
(0.190259 3.63026e-30 3.87499e-05)
(0.190247 -3.45118e-29 -6.94566e-05)
(0.190219 1.85684e-30 2.33551e-05)
(0.190228 0 -7.81676e-05)
(0.190183 0 5.12961e-06)
(0.190208 2.60755e-29 -7.70402e-05)
(0.190162 0 -1.22363e-05)
(0.190191 0 -7.19716e-05)
(0.190154 0 -2.51364e-05)
(0.190181 3.25952e-30 -6.67229e-05)
(0.190157 0 -3.26205e-05)
(0.190182 -2.04962e-30 -5.92864e-05)
(0.190169 -9.49194e-35 -3.35949e-05)
(0.190193 0 -4.74288e-05)
(0.190194 1.01604e-30 -2.47903e-05)
(0.190214 1.29972e-32 -3.18845e-05)
(0.190247 5.03447e-32 -7.28573e-06)
(0.190282 1.32865e-35 -1.83803e-06)
(0.190354 1.96559e-30 2.50438e-05)
(0.190392 0 1.87115e-05)
(0.190481 -5.26884e-30 5.52174e-05)
(0.190522 -1.01795e-30 3.01755e-05)
(0.190601 6.47964e-34 7.11237e-05)
(0.190708 1.37429e-30 5.27462e-05)
(0.190653 0 6.54013e-05)
(0.190867 2.32582e-33 0.000110857)
(0.190616 0 1.8833e-05)
(0.190865 2.50491e-28 0.000418035)
(0.19162 0 0.000362077)
(0.191717 3.15043e-29 0.000166681)
(0.191393 7.86157e-30 6.84182e-05)
(0.191753 0 0.000235588)
(0.19152 2.03059e-29 -3.44688e-05)
(0.191868 0 0.000372985)
(0.191924 0 -0.000171831)
(0.191572 0 0.000385153)
(0.192554 -4.15901e-28 -0.000252723)
(0.188958 -4.3542e-29 -0.000125212)
(0.192329 -1.42584e-26 0.0026307)
(0.195379 -1.21872e-27 0.000108896)
(0.192719 0 0.000204668)
(0.193377 -1.89966e-30 0.000206672)
(0.1931 -6.83416e-30 0.00022453)
(0.193322 4.14054e-30 0.00022998)
(0.193387 0 0.000240091)
(0.193512 0 0.000244238)
(0.193606 0 0.000247942)
(0.193708 0 0.000244587)
(0.193799 0 0.000241636)
(0.19389 -4.55431e-31 0.000236117)
(0.193974 0 0.000232285)
(0.194056 4.3295e-31 0.000227645)
(0.19413 1.49676e-32 0.000224513)
(0.194204 0 0.00022263)
(0.194275 0 0.000221777)
(0.194345 0 0.000222159)
(0.194412 -1.38763e-30 0.000223777)
(0.19448 0 0.000226666)
(0.194546 0 0.000229751)
(0.194613 0 0.000234553)
(0.194681 -5.67438e-30 0.000240156)
(0.19475 2.28377e-34 0.000245811)
(0.19482 3.86263e-30 0.000253178)
(0.194903 0 0.000260683)
(0.19494 6.40048e-31 0.000257811)
(0.195075 0 0.000274723)
(0.19503 0 0.000242349)
(0.195259 -3.41068e-29 0.0002892)
(0.195101 0 0.000204881)
(0.195499 -9.47594e-29 0.000343347)
(0.195127 3.90411e-29 0.000106967)
(0.195798 4.90324e-28 0.000474391)
(0.195185 1.84864e-28 -9.85172e-05)
(0.196079 1.02197e-27 0.000673428)
(0.195427 -7.23947e-28 -0.000436151)
(0.196145 -3.22906e-27 0.00078377)
(0.195784 -6.59092e-27 -0.000887293)
(0.195525 0 0.000601174)
(0.195895 0 -0.00106927)
(0.194451 6.07344e-28 0.000176846)
(0.195629 0 -0.000619715)
(0.194379 0 -0.000285778)
(0.194871 7.01506e-29 -0.000386773)
(0.194424 -9.01499e-30 -0.000353086)
(0.194409 -1.07919e-29 -0.000373616)
(0.194234 -7.46007e-32 -0.000365546)
(0.194136 -9.18562e-30 -0.000372842)
(0.194022 0 -0.000373928)
(0.193924 0 -0.000374525)
(0.193819 -1.1655e-29 -0.000375572)
(0.193724 1.32296e-34 -0.000376017)
(0.193637 -1.0007e-29 -0.000375516)
(0.193526 0 -0.000383033)
(0.193516 5.72847e-30 -0.000367089)
(0.193314 5.28169e-34 -0.000396863)
(0.193418 -1.15845e-32 -0.000341283)
(0.193057 7.08628e-29 -0.000444773)
(0.193349 0 -0.000262172)
(0.192796 -2.10216e-28 -0.000578052)
(0.193294 9.66826e-29 -6.5989e-05)
(0.19259 -9.72139e-28 -0.000844959)
(0.192922 0 0.000380642)
(0.194417 0 -0.00141051)
(0.18841 0 -0.00119775)
(0.192557 -3.56901e-26 0.00226305)
(0.195721 8.97387e-27 -0.00124125)
(0.190745 -1.62078e-27 -0.000902789)
(0.192215 0 -4.88385e-05)
(0.192149 -2.42159e-32 -0.000632846)
(0.191758 0 -0.000256038)
(0.192076 -2.21462e-28 -0.000424213)
(0.191793 -4.71366e-29 -0.000349499)
(0.191868 0 -0.000379834)
(0.191744 -4.61474e-30 -0.000371222)
(0.191697 4.56462e-30 -0.00037444)
(0.191637 -6.91977e-30 -0.000381916)
(0.191591 0 -0.000378708)
(0.191534 0 -0.000383491)
(0.191483 -1.73027e-31 -0.000378505)
(0.191422 0 -0.000383686)
(0.191345 0 -0.000389058)
(0.191295 0 -0.000370324)
(0.191237 -9.25785e-30 -0.000379319)
(0.191173 0 -0.00037484)
(0.19112 8.14932e-30 -0.000374758)
(0.191061 0 -0.000375071)
(0.191004 4.63006e-30 -0.000374992)
(0.190944 -1.44917e-35 -0.000373993)
(0.190883 -5.70564e-30 -0.000374229)
(0.190818 0 -0.000373439)
(0.190753 -5.67647e-30 -0.000373184)
(0.190687 5.69072e-30 -0.000372689)
(0.190619 4.31194e-35 -0.00037301)
(0.190551 8.17936e-35 -0.00037187)
(0.190481 6.31997e-30 -0.000372236)
(0.190409 5.47905e-30 -0.000371147)
(0.190336 0 -0.000371308)
(0.190261 0 -0.000370817)
(0.190186 0 -0.000369337)
(0.190109 5.6378e-30 -0.000370124)
(0.19003 -4.80085e-30 -0.000370113)
(0.189953 0 -0.000368745)
(0.189875 -4.80188e-30 -0.000369236)
(0.189795 0 -0.00036905)
(0.189718 3.23467e-30 -0.000367997)
(0.189638 0 -0.000369067)
(0.189559 0 -0.000368843)
(0.189482 2.83269e-30 -0.000368393)
(0.189406 0 -0.000367898)
(0.18933 -2.81731e-30 -0.000368008)
(0.189253 0 -0.00036929)
(0.189179 0 -0.000368745)
(0.18911 1.32727e-30 -0.000368138)
(0.189044 4.32988e-30 -0.000368861)
(0.188978 0 -0.000369587)
(0.188916 -1.23209e-30 -0.000368715)
(0.188854 -1.90035e-30 -0.000368891)
(0.188794 4.25932e-30 -0.000369323)
(0.188733 4.31492e-30 -0.000369624)
(0.188676 2.01682e-30 -0.000369603)
(0.188619 0 -0.000369164)
(0.188563 0 -0.000370505)
(0.188509 0 -0.000368579)
(0.188459 0 -0.000368236)
(0.188405 0 -0.000368883)
(0.188352 -1.15619e-36 -0.000368998)
(0.188296 0 -0.000367978)
(0.188242 2.48313e-30 -0.0003676)
(0.18819 0 -0.00036357)
(0.188135 0 -0.000367659)
(0.188076 1.38001e-30 -0.000365309)
(0.188032 2.3347e-36 -0.000365557)
(0.187948 -4.74373e-30 -0.000369855)
(0.187959 9.53719e-30 -0.000356699)
(0.187785 0 -0.000380288)
(0.1879 0 -0.000335892)
(0.187553 -5.74263e-29 -0.000422699)
(0.187879 5.69083e-29 -0.000258402)
(0.187279 1.88164e-28 -0.000549524)
(0.187868 0 -5.73487e-05)
(0.187055 -9.22206e-28 -0.000803457)
(0.187478 3.33052e-28 0.000253745)
(0.187178 -3.50395e-27 -0.00111918)
(0.185778 -4.80303e-27 0.000752636)
(0.190456 5.93918e-28 -0.000226428)
(0.183844 0 -0.00189588)
(0.187353 0 0.00280282)
(0.191242 -2.50124e-26 -0.00221783)
(0.18349 -2.50175e-27 -0.00118473)
(0.186645 0 0.000194657)
(0.186196 2.85362e-27 -0.000935247)
(0.185918 0 -2.45733e-06)
(0.186502 8.10342e-28 -0.000651838)
(0.185919 0 -0.000204136)
(0.186481 -1.63464e-28 -0.000465613)
(0.186036 0 -0.00032448)
(0.186487 6.41831e-29 -0.000373801)
(0.185999 3.17311e-29 -0.000419919)
(0.186594 1.18414e-28 -0.000244695)
(0.185818 4.8261e-28 -0.000617972)
(0.186633 -2.34184e-28 8.8679e-05)
(0.185701 0 -0.00102002)
(0.18548 0 0.000958491)
(0.18941 1.9187e-27 -0.000629208)
(0.182956 -2.80352e-27 -0.0016137)
(0.186608 2.06237e-26 0.00249229)
(0.190298 0 -0.00186824)
(0.183361 -2.28115e-27 -0.00135002)
(0.18556 1.3734e-27 0.000138029)
(0.185674 0 -0.000829197)
(0.185074 0 -0.000157702)
(0.185675 0 -0.000462289)
(0.185313 1.02386e-28 -0.00030687)
(0.185446 0 -0.00039171)
(0.185382 0 -0.000330738)
(0.1852 0 -0.000411035)
(0.185441 0 -0.000290353)
(0.18492 -1.28039e-28 -0.000484055)
(0.185474 -5.16424e-29 -0.00015814)
(0.184561 0 -0.000659254)
(0.185482 0 9.0088e-05)
(0.18419 0 -0.000955544)
(0.185378 -1.71373e-27 0.000433129)
(0.183827 -4.48703e-27 -0.00135244)
(0.185056 5.42097e-27 0.000841594)
(0.183504 0 -0.00176727)
(0.184536 0 0.00134377)
(0.183831 0 -0.00207293)
(0.184132 0 0.0015775)
(0.18516 -9.19865e-27 -0.00219214)
(0.185124 0 0.00118324)
(0.189953 0 -0.00320271)
(0.189042 -1.03373e-26 -0.00301726)
(0.185865 0 -0.011186)
(0.175877 -9.33005e-26 -0.0128252)
(0.159938 2.12853e-25 -0.0188111)
(0.111152 -6.2011e-25 -0.0195404)
(0.0914704 5.43691e-26 -5.49147e-05)
(0.105296 3.73021e-29 -0.000122873)
(0.0894256 0 0.00180838)
(0.0784789 1.09504e-28 0.00261476)
(0.0530358 0 0.00423871)
(0.0197714 -1.60265e-28 0.0020011)
(0.000435526 -6.46432e-28 0.000322404)
(-0.0125911 0 0.00266003)
(-0.0304354 0 0.00182166)
(-0.0397234 2.67874e-27 -0.00614833)
(0.379459 0 0.00086098)
(0.377917 -3.70391e-28 0.000972622)
(0.374799 -3.45249e-28 0.00168335)
(0.369843 0 0.00171229)
(0.365917 0 0.00185726)
(0.361355 1.80123e-28 0.00167943)
(0.357625 0 0.00166614)
(0.353863 2.97016e-28 0.00150627)
(0.350498 0 0.00144937)
(0.347668 -3.00566e-28 0.00129849)
(0.345241 1.2356e-28 0.00124301)
(0.342907 0 0.00114921)
(0.340702 -1.11768e-28 0.00109205)
(0.338523 1.01035e-28 0.00102319)
(0.336384 0 0.000997436)
(0.334252 0 0.000956857)
(0.332122 0 0.000926826)
(0.329835 0 0.000888953)
(0.327588 0 0.000856539)
(0.325321 0 0.000825269)
(0.323115 0 0.000788946)
(0.320913 0 0.000748704)
(0.318738 0 0.000703633)
(0.316571 0 0.000653982)
(0.31443 0 0.000600378)
(0.312315 0 0.00054401)
(0.310229 0 0.000487048)
(0.308183 0 0.000427878)
(0.306191 0 0.0003703)
(0.304265 0 0.000320601)
(0.302378 -5.60704e-29 0.000274516)
(0.300551 0 0.000230096)
(0.298757 0 0.000189076)
(0.297017 0 0.000150694)
(0.295308 0 0.000113521)
(0.293651 0 7.77185e-05)
(0.292029 0 4.38241e-05)
(0.29046 0 1.09975e-05)
(0.288928 0 -1.94525e-05)
(0.28745 0 -4.88526e-05)
(0.286009 4.18707e-29 -7.47449e-05)
(0.284632 -4.03656e-29 -9.76391e-05)
(0.283296 3.98206e-29 -0.000119655)
(0.282021 -3.93402e-29 -0.000139287)
(0.280775 -3.8811e-29 -0.000157173)
(0.279585 0 -0.000172086)
(0.278411 -3.65642e-29 -0.000183849)
(0.277274 3.68069e-29 -0.000194255)
(0.276146 -3.69629e-29 -0.000205478)
(0.275058 0 -0.000216374)
(0.273986 3.70621e-29 -0.000229071)
(0.272967 -3.65899e-29 -0.000242062)
(0.271973 -3.62468e-29 -0.000255531)
(0.271039 -3.54524e-29 -0.000268237)
(0.270127 0 -0.000279207)
(0.269272 0 -0.000288151)
(0.268425 3.21136e-29 -0.000295207)
(0.267618 0 -0.000300779)
(0.266808 0 -0.00030602)
(0.266025 0 -0.000311118)
(0.265233 0 -0.000316798)
(0.264473 2.91777e-29 -0.000325383)
(0.263713 -2.85251e-29 -0.00033426)
(0.262996 2.80513e-29 -0.000343332)
(0.262287 0 -0.000352315)
(0.261631 2.63345e-29 -0.000359931)
(0.260982 0 -0.000366221)
(0.260388 -3.35382e-39 -0.000371756)
(0.259788 0 -0.000375227)
(0.259234 5.09109e-29 -0.000378425)
(0.258652 0 -0.000380857)
(0.258107 -4.59222e-39 -0.000382885)
(0.257521 -2.77665e-29 -0.000385948)
(0.256976 2.8389e-29 -0.000390319)
(0.256395 5.86712e-29 -0.000395611)
(0.25587 2.92679e-29 -0.000402476)
(0.255325 -5.64278e-29 -0.00040884)
(0.254858 0 -0.00041553)
(0.254385 -2.57714e-29 -0.000422659)
(0.254006 -1.9876e-37 -0.000429841)
(0.253626 2.22896e-29 -0.000436716)
(0.253343 1.97749e-29 -0.000441399)
(0.253036 0 -0.000441642)
(0.252803 1.52777e-29 -0.000440326)
(0.252511 0 -0.000435699)
(0.252267 -1.30399e-29 -0.000429915)
(0.251933 -1.26455e-29 -0.000423738)
(0.251641 0 -0.000418036)
(0.251241 1.27602e-29 -0.000412787)
(0.250886 0 -0.00041055)
(0.250436 0 -0.00040944)
(0.250067 1.20086e-29 -0.000411744)
(0.249625 0 -0.000415444)
(0.249292 1.18356e-29 -0.00042071)
(0.248892 0 -0.000426303)
(0.248619 0 -0.000433191)
(0.248281 0 -0.00043809)
(0.248069 0 -0.000443271)
(0.24778 -1.11697e-29 -0.000444851)
(0.247598 1.22553e-29 -0.000446625)
(0.247334 1.36249e-29 -0.000445793)
(0.247161 -1.51255e-29 -0.000444618)
(0.246887 0 -0.000440772)
(0.246711 0 -0.00043979)
(0.246407 0 -0.000434674)
(0.246224 -3.24851e-29 -0.000435204)
(0.245904 3.61554e-32 -0.000437147)
(0.245754 0 -0.000425255)
(0.245392 6.82615e-29 -0.000484803)
(0.245319 -2.38557e-28 -0.000395909)
(0.244932 1.08425e-27 -0.000814481)
(0.244449 0 -0.000720939)
(0.243909 0 -0.000867836)
(0.243799 2.93856e-28 -0.00065906)
(0.243121 -2.01423e-27 -0.000887366)
(0.242779 3.33835e-27 -0.000536919)
(0.242203 -2.20804e-26 -0.00060939)
(0.242087 0 0.000451628)
(0.242861 -3.3923e-26 0.000823908)
(0.243358 -1.00128e-25 -0.000463441)
(0.242219 0 -0.00174252)
(0.241448 1.99428e-26 -0.00127749)
(0.240762 -9.4513e-27 -0.00106365)
(0.240671 0 -0.000545543)
(0.240368 -2.29511e-27 -0.000838781)
(0.239989 -5.13773e-27 -0.000647322)
(0.2393 0 -0.000412466)
(0.239374 -1.12338e-26 0.00040508)
(0.239851 0 0.000766651)
(0.240408 -3.33275e-26 -0.000217374)
(0.239246 -8.39761e-27 -0.00156913)
(0.23845 0 -0.00041182)
(0.238779 0 0.000674107)
(0.239491 0 -0.000230217)
(0.238682 -2.79506e-26 -0.00147448)
(0.237724 0 -0.000971179)
(0.237267 -6.78322e-26 -0.000670969)
(0.237185 -6.88582e-27 -0.000473427)
(0.236823 0 -0.000656762)
(0.236385 0 -0.000472021)
(0.236113 7.85131e-27 0.000275724)
(0.236991 -3.00525e-26 0.000870728)
(0.237284 0 -0.000392323)
(0.236705 7.34713e-27 -0.00143101)
(0.235663 1.1942e-26 -0.00123318)
(0.23543 0 -0.000666339)
(0.23513 -2.11535e-31 -0.000691709)
(0.234981 -2.52546e-27 -0.000473431)
(0.234471 0 -0.000610898)
(0.234157 2.80893e-27 -0.000340133)
(0.233918 -1.20026e-26 0.000164162)
(0.234573 7.63498e-26 0.00077786)
(0.234851 2.29481e-26 -0.000266317)
(0.234333 0 -0.00109419)
(0.233318 6.51551e-32 -0.00120722)
(0.232917 2.4313e-27 -0.000574153)
(0.232683 -1.60613e-27 -0.000611321)
(0.232568 1.34787e-28 -0.000367206)
(0.232215 0 -0.00057864)
(0.231613 0 -0.000289046)
(0.231553 0 0.000388687)
(0.232179 2.58393e-26 0.000822629)
(0.232611 0 -0.000226366)
(0.232071 0 -0.0011939)
(0.231127 -3.04412e-32 -0.00105776)
(0.230809 0 -0.000589626)
(0.23054 2.08315e-27 -0.000512384)
(0.230397 0 -0.000485433)
(0.230136 0 -0.000433337)
(0.229997 0 -0.000280926)
(0.229697 0 8.1338e-05)
(0.230246 0 0.000774487)
(0.230582 9.57565e-27 -0.000131599)
(0.230191 0 -0.00101724)
(0.229311 1.1242e-26 -0.00108322)
(0.229097 -9.7562e-28 -0.000373078)
(0.229187 0 -0.000580151)
(0.228642 5.6522e-28 -0.000758147)
(0.228519 0 -0.000231038)
(0.228666 -1.68488e-28 -0.000405837)
(0.228155 -3.36459e-28 -0.000680939)
(0.227998 0 -0.000269197)
(0.227993 1.54818e-28 -0.00046552)
(0.227475 5.54229e-29 -0.000620668)
(0.227223 0 -0.000185339)
(0.227686 0 0.000109448)
(0.227616 0 -0.000376018)
(0.227227 0 -0.000248133)
(0.227204 9.42876e-29 -0.00029839)
(0.226817 0 -0.00045085)
(0.226735 -8.48175e-29 -0.000219121)
(0.226681 0 -0.000376428)
(0.226321 0 -0.000380781)
(0.226427 0 -0.000140171)
(0.226281 -1.62619e-32 -0.000519491)
(0.225751 -1.92756e-32 -0.000406114)
(0.225832 4.88361e-29 -0.000135973)
(0.225776 -1.78266e-28 -0.00035991)
(0.225286 0 -0.000416852)
(0.225248 -2.831e-29 -0.00010011)
(0.225402 -8.01886e-31 -0.000112972)
(0.225357 6.80426e-29 -0.000287899)
(0.22516 0 -0.000314946)
(0.224958 0 -0.000363112)
(0.224835 0 -0.000305192)
(0.224602 -7.56863e-30 -0.000324147)
(0.224571 0 -0.00019253)
(0.224441 0 -0.000312587)
(0.224356 6.08209e-29 -0.000146858)
(0.224339 0 -0.000260751)
(0.224124 0 -0.00028453)
(0.224069 2.21191e-29 -0.000199228)
(0.223828 6.07631e-29 -0.000335703)
(0.223687 -4.36366e-29 -0.000201033)
(0.223416 0 -0.000183181)
(0.223161 1.44649e-29 9.75084e-07)
(0.223302 0 0.000387012)
(0.223516 -7.74468e-29 0.000376134)
(0.223665 0 0.000590184)
(0.223991 0 0.000569567)
(0.224183 0 0.000619302)
(0.224404 0 0.000690287)
(0.224797 -4.47629e-29 0.000629513)
(0.224724 -4.20719e-28 0.00036437)
(0.224646 4.05971e-28 0.000605008)
(0.224957 -1.17654e-28 0.000719081)
(0.225214 0 0.000653015)
(0.225276 3.15397e-29 0.000562791)
(0.225358 0 0.000649224)
(0.225571 0 0.000632171)
(0.225299 9.23914e-29 0.000404198)
(0.224894 0 0.00101644)
(0.226432 -2.15994e-27 0.00199437)
(0.227596 0 0.00106998)
(0.22726 -2.39423e-28 0.0006172)
(0.227379 -1.00445e-28 0.000497207)
(0.226894 -5.58599e-29 0.000359251)
(0.227137 2.97431e-31 0.000994691)
(0.227835 1.07462e-27 0.000672084)
(0.22776 0 0.000520548)
(0.227793 5.66263e-29 0.000443861)
(0.227849 -1.66687e-29 0.000467206)
(0.227899 -4.70856e-29 0.000395388)
(0.227976 -2.79377e-29 0.000438802)
(0.228029 0 0.000376372)
(0.228109 1.88634e-29 0.000408386)
(0.228148 -5.64198e-29 0.000334025)
(0.228175 2.54949e-29 0.000364955)
(0.228205 -2.02959e-29 0.000311616)
(0.228228 0 0.000335966)
(0.228245 0 0.000284887)
(0.228255 0 0.000309345)
(0.228267 0 0.000263699)
(0.228278 -2.15419e-33 0.000291451)
(0.228302 1.56177e-29 0.000248914)
(0.228317 -5.43458e-30 0.00026075)
(0.228334 0 0.000214649)
(0.228342 4.85005e-30 0.000225998)
(0.228356 0 0.000183482)
(0.22836 0 0.000192399)
(0.228365 0 0.000146305)
(0.228354 1.20876e-30 0.00015226)
(0.228348 0 0.000119277)
(0.228334 0 0.000133812)
(0.228328 -4.07898e-34 0.000110619)
(0.228312 -3.3534e-34 0.000125501)
(0.228306 2.19873e-34 0.000113372)
(0.228279 0 0.000114324)
(0.228229 0 0.000123722)
(0.22817 5.57788e-30 0.000165012)
(0.228098 -3.42948e-33 0.000295004)
(0.228488 -6.14813e-28 0.000595525)
(0.228877 0 0.000358397)
(0.22879 -6.88735e-29 0.000168302)
(0.228713 0 0.000151069)
(0.228697 7.64952e-31 0.000151288)
(0.228671 6.37518e-31 0.000151045)
(0.228677 0 0.000168652)
(0.228682 2.09585e-30 0.000162874)
(0.228701 0 0.000182794)
(0.228713 2.95287e-30 0.00017175)
(0.228745 -4.48765e-30 0.0001891)
(0.22876 -6.6367e-30 0.000169273)
(0.22879 -5.83657e-30 0.000181485)
(0.228805 8.97991e-30 0.000158173)
(0.228826 0 0.000168462)
(0.228839 -5.7894e-30 0.000140871)
(0.22885 1.15558e-30 0.000148693)
(0.228854 -6.25861e-30 0.000118358)
(0.228859 1.50679e-30 0.000127217)
(0.228856 6.74568e-30 9.40352e-05)
(0.228857 -1.91987e-30 0.000104907)
(0.228846 -7.41073e-30 6.9046e-05)
(0.228844 -1.35355e-30 8.47274e-05)
(0.228822 -3.90132e-30 4.66374e-05)
(0.228822 2.35059e-30 7.20003e-05)
(0.228789 1.20608e-30 2.40392e-05)
(0.228798 0 6.82168e-05)
(0.22876 8.79614e-31 -3.40428e-06)
(0.228774 0 6.78044e-05)
(0.22874 5.95197e-34 -3.46836e-05)
(0.228743 4.72427e-30 6.14034e-05)
(0.228719 -2.42739e-29 -6.23052e-05)
(0.228707 -5.46947e-30 4.85971e-05)
(0.228697 -2.58586e-29 -8.33046e-05)
(0.22867 2.09877e-30 3.05439e-05)
(0.228674 1.21216e-29 -9.34539e-05)
(0.228635 2.52625e-30 9.08067e-06)
(0.228649 1.97154e-29 -9.21233e-05)
(0.228609 3.9747e-30 -1.1668e-05)
(0.228626 0 -8.60819e-05)
(0.228593 -5.86547e-30 -2.77406e-05)
(0.228609 -5.35611e-34 -8.00216e-05)
(0.228586 -4.34873e-30 -3.74193e-05)
(0.228601 -3.19659e-30 -7.16492e-05)
(0.228589 -4.97268e-30 -3.94486e-05)
(0.228604 -1.6361e-30 -5.77397e-05)
(0.228603 1.45493e-30 -2.97603e-05)
(0.22862 1.98776e-31 -3.73428e-05)
(0.228626 2.20112e-32 -1.15194e-05)
(0.228654 2.31229e-31 -1.19945e-05)
(0.228705 8.10679e-31 2.60261e-05)
(0.228753 0 6.49984e-06)
(0.228818 0 5.95012e-05)
(0.228883 -7.3154e-32 2.15574e-05)
(0.228927 5.84559e-30 7.16471e-05)
(0.229042 1.34744e-30 5.03064e-05)
(0.22901 0 6.46002e-05)
(0.229165 1.29003e-29 0.000128292)
(0.22904 0 3.11772e-05)
(0.229181 3.43631e-28 0.00046643)
(0.229713 1.25274e-28 0.000401309)
(0.229887 2.7143e-29 0.000138504)
(0.22971 1.96007e-29 4.35169e-05)
(0.22998 -8.56423e-29 0.000258029)
(0.229861 -3.10442e-29 -5.665e-05)
(0.230077 -3.82356e-28 0.000420938)
(0.23018 -6.27644e-29 -0.000211641)
(0.229858 -2.63683e-28 0.000448571)
(0.230569 -5.29347e-28 -0.000214462)
(0.228394 2.79336e-29 -7.87775e-05)
(0.230645 -1.9313e-26 0.00292263)
(0.232749 -1.1672e-27 -7.40781e-05)
(0.231095 0 0.00024774)
(0.23165 3.46834e-29 0.000209039)
(0.23144 1.54693e-29 0.00025243)
(0.23165 1.9006e-30 0.00025163)
(0.23169 0 0.000267319)
(0.231822 0 0.000270101)
(0.231905 0 0.000274745)
(0.232033 0 0.000269266)
(0.232118 0 0.000266694)
(0.232234 0 0.000259802)
(0.232313 0 0.000256622)
(0.232417 1.73558e-30 0.000251843)
(0.232486 -1.03276e-34 0.000249044)
(0.232582 3.365e-31 0.000247316)
(0.232647 0 0.000246906)
(0.232742 0 0.000247989)
(0.232801 -2.598e-30 0.000250724)
(0.232894 0 0.000254922)
(0.23295 -2.25699e-30 0.00025894)
(0.233039 -2.96783e-30 0.000265121)
(0.233094 -6.64905e-30 0.000271827)
(0.233189 -3.49692e-30 0.000278982)
(0.233238 4.70119e-30 0.000285392)
(0.233355 2.96459e-30 0.000298232)
(0.233383 0 0.00028841)
(0.233534 9.56666e-30 0.000312897)
(0.233521 0 0.000270329)
(0.233713 0 0.000331298)
(0.23362 4.34069e-29 0.000217523)
(0.233933 -1.48637e-28 0.000394982)
(0.233695 -5.88009e-29 9.67593e-05)
(0.234194 3.71972e-28 0.000550513)
(0.233803 7.00901e-29 -0.000151067)
(0.234437 2.28693e-27 0.000784765)
(0.234032 -1.07962e-27 -0.000559604)
(0.234503 -1.20084e-27 0.000920561)
(0.234301 -8.70407e-32 -0.00108059)
(0.234058 -7.31723e-28 0.000735839)
(0.234342 0 -0.00126513)