/*--------------------------------*- C++ -*----------------------------------*\
| =========                 |                                                 |
| \\      /  F ield         | foam-extend: Open Source CFD                    |
|  \\    /   O peration     | Version:     3.2                                |
|   \\  /    A nd           | Web:         http://www.foam-extend.org         |
|    \\/     M anipulation  | For copyright notice see file Copyright         |
\*---------------------------------------------------------------------------*/
FoamFile
{
    version     2.0;
    format      ascii;
    class       areaVectorField;
    location    "2020";
    object      Ub2;
}
// * * * * * * * * * * * * * * * * * * * * * * * * * * * * * * * * * * * * * //

dimensions      [0 1 -1 0 0 0 0];

internalField   nonuniform List<vector> 
550
(
(0 0 0)
(0 0 0)
(0 0 0)
(0.0324547 8.72561e-24 -6.491e-05)
(0.0454016 1.2933e-23 -9.08016e-05)
(0.0579177 0 -0.000115836)
(0.0696846 -1.97496e-23 -0.000139365)
(0.0804364 -2.19084e-23 -0.000160873)
(0.0900098 0 -0.000180029)
(0.0982882 1.86817e-29 -0.000196571)
(0.105262 -6.77308e-29 -0.000260284)
(0.110873 0 -0.000221746)
(0.115296 0 -0.000176083)
(0.118669 0 -0.000282414)
(0.120961 -2.90074e-23 -0.000241922)
(0.122406 -2.77521e-29 -0.000198325)
(0.123166 0 -0.00027891)
(0.123253 4.09327e-29 -0.000275263)
(0.122831 -2.13959e-23 -0.000237778)
(0.122067 0 -0.000238138)
(0.121007 -1.62031e-31 -0.000217768)
(0.119745 -1.74919e-23 -0.000235038)
(0.118298 -1.63832e-23 -0.000236595)
(0.116723 0 -0.000216286)
(0.115085 -1.41072e-23 -0.000230182)
(0.113396 -1.28504e-23 -0.000226792)
(0.111696 1.1892e-23 -0.000234099)
(0.110006 0 -0.000219975)
(0.108359 1.66139e-30 -0.000206384)
(0.106774 0 -0.000213524)
(0.105228 0 -0.000210445)
(0.103745 9.0778e-24 -0.000215228)
(0.102312 -6.42197e-30 -0.000211917)
(0.100944 7.96225e-24 -0.000201311)
(0.0996426 -6.07873e-30 -0.00019877)
(0.0984103 0 -0.000190044)
(0.0972469 0 -0.000194098)
(0.0961473 -6.50775e-24 -0.00019809)
(0.0950972 -8.43149e-31 -0.000184263)
(0.0941225 0 -0.000188017)
(0.0931957 0 -0.000191548)
(0.0923226 -4.58564e-24 -0.000179354)
(0.0915081 0 -0.000182795)
(0.0907439 -4.06645e-24 -0.000186159)
(0.0900177 0 -0.000179768)
(0.0893449 0 -0.000178523)
(0.0887114 0 -0.000178138)
(0.0880475 1.9772e-24 -0.000160058)
(0.0876102 1.15745e-29 -0.000251972)
(0.0869333 -1.09423e-28 -3.51778e-05)
(0.0866134 7.43334e-24 -0.000312877)
(0.0860027 0 -2.86016e-05)
(0.0858623 -7.81596e-24 -0.000374039)
(0.085094 -1.40392e-26 8.6591e-05)
(0.0850642 2.38039e-28 -0.000430466)
(0.0843491 -7.61998e-29 9.29068e-05)
(0.0843673 -1.71709e-23 -0.00042137)
(0.0837077 -1.9408e-29 6.99817e-05)
(0.0792378 -1.3301e-24 -0.000396533)
(0.0830898 0 0.000102969)
(0.083178 3.94311e-27 -0.000424484)
(0.0825443 -4.71391e-29 0.000100612)
(0.0826864 0 -0.000435622)
(0.0736098 0 5.94815e-05)
(0.0733193 1.36061e-23 -0.000358723)
(0.0816352 -4.83832e-24 0.000106967)
(0.0818055 0 -0.000423168)
(0.0812384 2.04937e-24 8.55099e-05)
(0.0706989 0 -0.000371794)
(0.0808298 -2.12433e-28 0.000108983)
(0.0809781 0 -0.000378633)
(0.0804217 0 0.000149825)
(0.0780601 -1.69669e-27 -0.000289682)
(0.0742896 0 8.49835e-05)
(0.0731796 2.64834e-27 0.000105497)
(0.0752774 0 0.00139791)
(0.082259 -1.0113e-21 -0.00227498)
(0.0799275 0 -0.000480111)
(0.073896 4.25543e-28 0.000248411)
(0.0704168 0 -0.000373317)
(0.0723657 1.11695e-23 0.000133248)
(0.0736976 0 -0.000344777)
(0.0785005 5.65741e-25 1.45977e-05)
(0.0785944 0 -0.000275334)
(0.0782206 -1.38573e-24 -0.000141001)
(0.0721113 3.1962e-24 6.47038e-05)
(0.0715745 0 -0.00021375)
(0.0722656 -3.58343e-24 6.38775e-05)
(0.0718958 -2.64271e-25 -7.69167e-05)
(0.0776925 0 -2.10348e-05)
(0.0777254 -1.99959e-23 -0.000293677)
(0.077296 0 0.00015)
(0.0708139 0 -0.00022174)
(0.0702915 0 0.000117224)
(0.0717325 4.1822e-24 -0.000130843)
(0.0704864 6.48625e-26 7.44751e-05)
(0.0770189 2.22757e-24 -5.15661e-05)
(0.0769292 6.21395e-25 9.36392e-06)
(0.0765783 0 0.000109667)
(0.0729744 0 0.000803222)
(0.0709208 -5.64644e-24 -0.000176121)
(0.0693782 1.21179e-26 0.000925344)
(0.0703853 -4.97995e-26 -0.0024481)
(0.0765443 0 -0.000435468)
(0.0752028 0 0.00104127)
(0.0761839 0 -0.000219278)
(0.0748955 5.27806e-23 0.000824651)
(0.0723501 -2.8115e-25 0.000146786)
(0.0700253 0 -7.72243e-05)
(0.0729297 0 0.000330458)
(0.0727619 5.41261e-24 -0.000152439)
(0.0758166 0 0.000269339)
(0.075937 2.66625e-27 9.09356e-05)
(0.0759394 5.24536e-24 0.000134919)
(0.075865 0 -2.83017e-06)
(0.0724664 -5.266e-24 0.00038168)
(0.0727342 0 -6.94132e-05)
(0.0724695 -2.27689e-22 0.0015024)
(0.0655721 4.28953e-26 -0.00261031)
(0.074158 0 0.000733894)
(0.0742174 0 0.000904446)
(0.0741053 -3.94834e-23 0.000586974)
(0.0736896 0 0.00125494)
(0.0719068 -3.37372e-22 -0.00162771)
(0.0742306 -6.75045e-24 0.000409585)
(0.0739467 0 0.000850347)
(0.074253 0 0.000886771)
(0.0738018 -8.19995e-23 0.000945693)
(0.0717398 3.17767e-26 -0.00207857)
(0.0741962 2.86109e-23 0.000514563)
(0.0740653 0 0.000490718)
(0.0738486 8.43463e-24 0.000611182)
(0.0738257 0 0.000715184)
(0.0736915 6.93246e-28 0.000925212)
(0.0738735 0 0.000897491)
(0.0736977 0 0.00120665)
(0.074187 -1.29096e-22 0.00156239)
(0.0740702 0 1.8337e-05)
(0.073995 0 0.000268381)
(0.0740275 0 0.00034754)
(0.0740358 0 0.000455392)
(0.074115 6.76194e-24 0.000483596)
(0.0741473 4.91491e-29 0.000502812)
(0.0742249 -2.37603e-24 0.000462552)
(0.0742503 4.42799e-24 0.000481975)
(0.0743258 -5.21442e-25 0.000427675)
(0.0743404 0 0.000444261)
(0.0744106 2.20964e-26 0.000380663)
(0.0744117 -1.72658e-29 0.000398618)
(0.0744762 -4.07926e-25 0.00033221)
(0.0744634 0 0.000355101)
(0.0745243 -7.13752e-29 0.000291098)
(0.074498 0 0.000311255)
(0.0745535 8.82753e-25 0.000249742)
(0.0745142 0 0.000270421)
(0.0745658 0 0.000205446)
(0.0745102 3.58217e-29 0.00023779)
(0.0745667 -1.06787e-24 0.000128444)
(0.0744672 -3.37172e-25 0.00022413)
(0.0745737 3.43669e-29 -7.81661e-06)
(0.0743474 0 0.000279953)
(0.0746435 0 -0.000185978)
(0.0742551 0 0.000308443)
(0.0747359 7.4058e-28 -0.000366141)
(0.0741866 -9.28873e-24 0.000282701)
(0.0747985 1.79271e-27 -0.000543441)
(0.0741423 -3.74253e-24 0.000120526)
(0.0747309 0 -0.000687004)
(0.0741406 -3.36199e-24 -0.000176856)
(0.0746487 -4.31278e-23 -0.000820161)
(0.0741071 0 7.3637e-06)
(0.0743066 -3.89758e-28 -0.000374389)
(0.0738417 0 1.19622e-05)
(0.0739358 4.22404e-24 -0.000240465)
(0.0735664 8.5379e-30 1.56529e-05)
(0.073589 0 -0.000137147)
(0.0733142 -1.11989e-29 3.09893e-05)
(0.0732919 1.46641e-25 -5.15184e-05)
(0.0730926 -3.18145e-29 6.62923e-05)
(0.0730702 -7.41786e-27 6.13418e-06)
(0.0729152 0 0.000111246)
(0.0729273 6.36279e-26 3.98579e-05)
(0.072802 0 0.000138752)
(0.072838 0 6.21778e-05)
(0.0727339 0 0.000156592)
(0.0727864 1.49557e-25 7.70245e-05)
(0.0726979 1.07147e-24 0.00016801)
(0.0727616 0 8.67109e-05)
(0.0726846 0 0.000175218)
(0.0727557 0 9.24973e-05)
(0.0726871 1.02897e-24 0.000178504)
(0.0727627 0 9.54224e-05)
(0.0727003 -4.43082e-29 0.000179326)
(0.0727783 1.82835e-25 9.53443e-05)
(0.0727202 -4.29487e-29 0.000176794)
(0.0727992 1.98297e-25 9.22961e-05)
(0.0727437 -9.18246e-25 0.000171569)
(0.0728225 2.10493e-25 8.76224e-05)
(0.0727686 -8.65469e-25 0.000164525)
(0.0728463 2.33957e-29 8.18089e-05)
(0.0727935 0 0.000156775)
(0.0728697 -2.31782e-25 7.51352e-05)
(0.0728172 0 0.000148321)
(0.0728914 -2.40591e-25 6.81517e-05)
(0.0728391 7.28572e-25 0.000139869)
(0.0729109 0 6.11541e-05)
(0.0728583 0 0.000131554)
(0.0729277 0 5.42565e-05)
(0.0728748 0 0.000123408)
(0.0729416 -2.1267e-29 4.7262e-05)
(0.0728882 0 0.00011506)
(0.0729527 1.34511e-25 4.02428e-05)
(0.0728988 1.74096e-29 0.000107099)
(0.0729611 0 3.34818e-05)
(0.0729068 2.75994e-25 9.96976e-05)
(0.0729673 0 2.719e-05)
(0.0729128 -2.62259e-25 9.25244e-05)
(0.072972 0 2.13736e-05)
(0.0729178 0 8.63671e-05)
(0.072976 4.78953e-30 1.64534e-05)
(0.0729224 0 8.13854e-05)
(0.0729803 0 1.24242e-05)
(0.0729276 0 7.7517e-05)
(0.0729857 -4.60886e-30 9.7642e-06)
(0.0729343 -2.71392e-25 7.54485e-05)
(0.0729932 0 8.04328e-06)
(0.0729434 -1.72974e-29 7.40983e-05)
(0.0730036 2.89737e-26 6.72901e-06)
(0.0729555 0 7.31149e-05)
(0.0730175 4.56428e-30 5.45859e-06)
(0.0729709 0 7.20693e-05)
(0.0730351 1.27814e-26 4.44175e-06)
(0.0729901 3.33928e-25 7.1409e-05)
(0.0730567 2.27786e-30 3.66085e-06)
(0.0730131 0 7.14784e-05)
(0.0730823 0 3.78318e-06)
(0.0730403 0 7.21193e-05)
(0.073112 -9.65821e-27 4.50053e-06)
(0.0730714 3.95702e-25 7.38037e-05)
(0.0731457 0 6.01124e-06)
(0.0731066 -4.20414e-25 7.64372e-05)
(0.0731834 0 8.26504e-06)
(0.0731457 1.92717e-29 8.07053e-05)
(0.0732255 0 1.17459e-05)
(0.073189 0 8.56195e-05)
(0.0732714 0 1.51715e-05)
(0.0732352 0 9.04659e-05)
(0.0733197 0 1.76367e-05)
(0.0732827 4.94585e-25 9.53664e-05)
(0.0733696 0 1.91082e-05)
(0.0733307 5.07579e-25 0.000100938)
(0.073421 -1.09226e-29 1.88919e-05)
(0.073378 -1.05086e-24 0.000108295)
(0.0734744 -3.57038e-26 1.56985e-05)
(0.0734227 1.14925e-24 0.000120191)
(0.0735322 -7.25823e-30 7.70501e-06)
(0.0734621 -1.39539e-24 0.000140304)
(0.0735987 -4.30026e-26 -8.03322e-06)
(0.0734965 1.8364e-24 0.000170343)
(0.0736787 3.02543e-25 -3.29067e-05)
(0.0735288 -2.43291e-24 0.000208505)
(0.0737736 0 -6.8208e-05)
(0.0735664 -1.67987e-28 0.000243525)
(0.0738769 2.46132e-24 -0.000109865)
(0.0736081 7.05097e-24 0.000271772)
(0.0739808 0 -0.000153735)
(0.0736526 7.87109e-24 0.000288342)
(0.0740754 3.69657e-24 -0.00019452)
(0.0736991 -8.27271e-24 0.000286167)
(0.0741473 -8.09085e-24 -0.000224294)
(0.0737463 -8.01681e-24 0.000259164)
(0.0741815 8.02876e-24 -0.00023212)
(0.073793 3.41513e-24 0.000202584)
(0.074161 2.13722e-28 -0.000205397)
(0.0738384 2.25842e-24 0.000116372)
(0.07407 -2.11813e-24 -0.0001304)
(0.07388 0 1.28437e-05)
(0.0739022 1.95164e-31 -1.27233e-06)
(0.0739157 -5.15274e-25 -6.82566e-05)
(0.0737434 4.5594e-29 0.000113702)
(0.0740506 1.5168e-28 -0.000204378)
(0.0735912 0 7.62601e-05)
(0.0741725 -1.60805e-28 -0.000392581)
(0.0734286 0 -0.000844845)
(0.0743141 0 0.00468935)
(0.0748593 4.96116e-27 -0.000682044)
(0.0743198 4.93817e-28 -0.000166541)
(0.0746828 -5.30226e-28 -0.000417516)
(0.0742336 -8.8479e-26 -2.90384e-05)
(0.0744682 3.41715e-28 -0.000321348)
(0.0741416 6.93455e-29 -5.80674e-05)
(0.0742859 4.322e-24 -0.000267513)
(0.0740625 -3.52739e-25 -0.000102141)
(0.0741386 6.90679e-29 -0.000227896)
(0.0739951 0 -0.000136259)
(0.0740195 -3.40444e-29 -0.000196403)
(0.0739362 -2.64726e-25 -0.000160238)
(0.0739209 -3.95393e-25 -0.00017566)
(0.0738827 2.98517e-25 -0.000181125)
(0.0738397 0 -0.000154947)
(0.0738326 -2.04345e-29 -0.000188819)
(0.0737712 -2.27373e-25 -0.000137135)
(0.0737849 0 -0.000188692)
(0.0737111 3.76431e-29 -0.000122191)
(0.0737388 6.28994e-25 -0.000184896)
(0.0736578 0 -0.000109537)
(0.0736942 0 -0.000178098)
(0.0736101 3.12835e-25 -9.86392e-05)
(0.0736512 3.7601e-29 -0.000168837)
(0.0735672 2.28335e-29 -8.85773e-05)
(0.0736101 0 -0.000157816)
(0.0735291 -3.32545e-25 -7.98041e-05)
(0.0735715 4.94795e-25 -0.000145509)
(0.0734955 0 -7.18905e-05)
(0.0735359 0 -0.00013219)
(0.0734663 0 -6.42765e-05)
(0.0735038 -3.22732e-25 -0.000118245)
(0.0734419 1.73524e-29 -5.72099e-05)
(0.073476 0 -0.000104183)
(0.0734223 -1.48737e-25 -5.03735e-05)
(0.0734528 7.01717e-26 -9.02955e-05)
(0.0734075 1.41957e-25 -4.37055e-05)
(0.0734339 0 -7.60658e-05)
(0.073397 -5.65547e-30 -3.69764e-05)
(0.0734193 0 -6.21364e-05)
(0.07339 4.70509e-30 -2.99534e-05)
(0.0734076 0 -4.78446e-05)
(0.0733853 0 -2.18705e-05)
(0.0733978 0 -3.223e-05)
(0.0733821 2.49465e-26 -1.18856e-05)
(0.0733889 0 -1.48575e-05)
(0.0733786 -7.07703e-27 3.19615e-06)
(0.0733822 0 8.39042e-06)
(0.0733817 -9.47531e-31 2.43729e-05)
(0.0733936 0 2.73513e-05)
(0.0733994 1.89637e-30 4.23688e-05)
(0.0734176 1.10538e-25 4.39663e-05)
(0.0734279 0 5.83465e-05)
(0.0734506 0 5.90865e-05)
(0.0734642 0 7.3024e-05)
(0.0734903 -1.57356e-30 7.28861e-05)
(0.0735065 0 8.6128e-05)
(0.0735351 2.44078e-25 8.51554e-05)
(0.0735534 -3.49375e-25 9.7544e-05)
(0.073584 2.42452e-25 9.53449e-05)
(0.0736036 0 0.000106576)
(0.0736353 0 0.000103249)
(0.0736555 0 0.000113583)
(0.0736879 -1.30004e-30 0.00010892)
(0.0737086 0 0.000117661)
(0.0737408 4.3175e-25 0.000111657)
(0.0737616 0 0.000119267)
(0.0737929 -1.51691e-25 0.000104996)
(0.0738098 0 0.000113324)
(0.0738417 -8.58452e-26 8.39128e-05)
(0.0738457 0 0.000104261)
(0.0738895 -1.73967e-29 4.66478e-05)
(0.0738605 3.57565e-25 0.000103176)
(0.0739471 -1.00383e-25 -2.03957e-05)
(0.0738453 1.55872e-24 0.000112636)
(0.0740289 0 -0.000123862)
(0.0738602 0 4.21078e-05)
(0.0740715 8.12778e-24 -0.000260297)
(0.0737743 -9.00659e-26 -7.56033e-05)
(0.0737519 0 -0.000146503)
(0.0736219 0 -0.0001487)
(0.0734895 -8.51192e-25 -0.000148772)
(0.0733482 -5.84515e-25 -0.000145594)
(0.0732152 -5.79006e-25 -0.000148148)
(0.0730773 4.5495e-25 -0.000145297)
(0.0729465 2.49142e-30 -0.000146308)
(0.0728148 -4.36681e-25 -0.000145867)
(0.0726869 1.93718e-30 -0.000145798)
(0.0725596 0 -0.000144962)
(0.0724364 2.00476e-30 -0.000145372)
(0.072313 1.45336e-30 -0.000143727)
(0.0721958 0 -0.000146252)
(0.0720753 -3.36341e-25 -0.000144102)
(0.0719601 -2.90948e-30 -0.000145672)
(0.0718453 3.31488e-25 -0.000143999)
(0.0717254 4.1705e-26 -0.000139576)
(0.0716227 0 -0.000132108)
(0.0715234 1.57514e-29 -0.000155332)
(0.0714039 -4.58041e-26 -0.000117969)
(0.0713272 0 -0.00018362)
(0.07116 2.71796e-25 -7.05867e-05)
(0.0711637 0 -0.000250535)
(0.0708702 -4.80852e-25 3.20782e-05)
(0.0710687 -7.62973e-24 -0.000388237)
(0.0705054 4.58745e-24 0.00020171)
(0.0710568 0 -0.000604142)
(0.0700359 3.48192e-23 0.000421526)
(0.071061 0 -0.000790531)
(0.0694555 0 0.000701114)
(0.0717202 2.72981e-22 -0.00130089)
(0.0705017 -1.75336e-22 -0.00147001)
(0.0729747 0 0.00387536)
(0.0716444 2.10158e-26 -0.00197177)
(0.0692809 0 -0.00045641)
(0.0687011 0 0.000120421)
(0.06888 4.03528e-28 -0.000367384)
(0.0683433 2.1395e-24 6.20594e-05)
(0.0686018 -5.21875e-24 -0.000292834)
(0.0682307 6.59116e-29 -2.52868e-05)
(0.0683964 0 -0.000188155)
(0.0682539 0 -0.000144215)
(0.0682256 -5.37342e-25 -6.24688e-05)
(0.0683278 0 -0.000277097)
(0.0680295 0 0.000110291)
(0.0684962 -2.15612e-23 -0.000492131)
(0.067688 -1.67412e-23 0.000382707)
(0.0687487 0 -0.000729924)
(0.0672347 -2.71108e-27 0.000692953)
(0.0695374 0 -0.00119599)
(0.0686146 1.88559e-22 -0.00155783)
(0.0713136 0 0.00399507)
(0.0698884 -7.65299e-22 -0.00201094)
(0.067513 -1.1542e-22 -0.000589856)
(0.0667213 0 0.000234925)
(0.0671516 0 -0.00046471)
(0.0664546 0 0.00014627)
(0.0669149 0 -0.000372116)
(0.0664224 -1.85746e-24 5.2156e-05)
(0.0667678 0 -0.00028347)
(0.0664695 0 -2.2961e-05)
(0.0666935 0 -0.000218792)
(0.0665329 -7.58085e-25 -7.38905e-05)
(0.0666631 -1.61674e-25 -0.000177797)
(0.0665814 4.37442e-29 -0.000100879)
(0.0666518 -1.73771e-25 -0.000151785)
(0.0666151 -5.74248e-25 -0.000117116)
(0.0666452 0 -0.000139008)
(0.0666272 8.52566e-30 -0.000124193)
(0.0666354 -2.80597e-25 -0.000134377)
(0.0666239 0 -0.000129156)
(0.0666188 -2.53976e-25 -0.000131182)
(0.0666068 0 -0.000130042)
(0.0665955 -1.2912e-30 -0.0001328)
(0.0665763 -1.646e-25 -0.000131526)
(0.0665563 1.35664e-25 -0.000132263)
(0.0665324 0 -0.000132453)
(0.0665055 0 -0.000131813)
(0.066477 0 -0.000132291)
(0.0664453 -8.83797e-26 -0.000131691)
(0.0664129 5.01626e-26 -0.000132677)
(0.0663775 3.5963e-26 -0.000133167)
(0.0663388 0 -0.00013248)
(0.0662984 5.56664e-26 -0.000131188)
(0.0662579 2.54105e-26 -0.000131751)
(0.0662154 8.43118e-27 -0.000132004)
(0.0661711 1.48883e-26 -0.000132962)
(0.0661236 0 -0.000132674)
(0.0660739 -3.80771e-31 -0.000131194)
(0.0660256 7.37638e-31 -0.000132502)
(0.0659734 0 -0.000131553)
(0.0659206 0 -0.000130121)
(0.0658697 0 -0.000131804)
(0.0658162 -4.80381e-31 -0.0001321)
(0.0657614 0 -0.000131691)
(0.0657073 0 -0.000132464)
(0.0656492 0 -0.000129586)
(0.0656004 0 -0.000131606)
(0.0655421 0 -0.000131901)
(0.0654952 1.12234e-25 -0.000128548)
(0.0654373 0 -0.000138794)
(0.0653802 0 -0.000112117)
(0.0653467 -3.35249e-29 -0.000167451)
(0.065233 0 -6.24273e-05)
(0.0652928 2.6951e-24 -0.000248068)
(0.0649973 0 6.27305e-05)
(0.0653231 0 -0.000432113)
(0.064534 0 0.000357823)
(0.0655447 2.34769e-27 -0.000758534)
(0.0637216 0 0.000888303)
(0.066593 3.03684e-22 -0.00144712)
(0.0653369 1.72877e-22 -0.00140353)
(0.0692232 2.65489e-21 0.00399575)
(0.0664111 -6.91891e-22 -0.00173205)
(0.0645426 -2.61718e-27 -0.000926997)
(0.0630187 0 0.000418082)
(0.0638115 -2.83687e-23 -0.000541862)
(0.0628671 5.43325e-24 0.000144449)
(0.0632986 -5.29729e-24 -0.000320548)
(0.0628125 0 -1.38741e-05)
(0.0629715 0 -0.000195358)
(0.0627531 -6.27136e-29 -8.14821e-05)
(0.0627843 3.04921e-25 -0.000138272)
(0.0626936 5.14208e-25 -0.000108407)
(0.0626786 -2.80038e-25 -0.000127782)
(0.0626204 0 -0.000119713)
(0.0625806 2.91317e-25 -0.000124611)
(0.0625303 0 -0.000122708)
(0.0624822 0 -0.000124547)
(0.0624268 0 -0.000123114)
(0.0623704 1.60852e-25 -0.000123912)
(0.0623096 -1.00788e-25 -0.000125891)
(0.0622394 0 -0.000123396)
(0.0621677 8.75733e-26 -0.000124213)
(0.0620891 -4.01633e-31 -0.000122906)
(0.0620082 2.73548e-26 -0.000123868)
(0.0619206 0 -0.000123135)
(0.0618285 0 -0.000121997)
(0.0617346 5.05551e-26 -0.000123854)
(0.061633 0 -0.000122725)
(0.0615297 0 -0.000124774)
(0.0614175 0 -0.000121934)
(0.061305 0 -0.000121122)
(0.0611918 1.08946e-25 -0.00012268)
(0.0610721 9.02569e-26 -0.000121277)
(0.0609524 -1.29812e-25 -0.000122581)
(0.0608262 0 -0.000120759)
(0.0607 0 -0.00012006)
(0.0605733 -1.77183e-30 -0.000121991)
(0.0604436 -3.9102e-31 -0.000121165)
(0.0603092 2.92129e-26 -0.000120949)
(0.0601774 0 -0.000117851)
(0.0600455 0 -0.000125137)
(0.0598976 1.21099e-25 -0.000106836)
(0.0597877 0 -0.000144012)
(0.0595802 0 -7.02817e-05)
(0.0595584 -1.43046e-28 -0.000196013)
(0.0592027 0 7.4588e-06)
(0.0593761 5.45068e-24 -0.000311353)
(0.0586985 0 0.00016335)
(0.0592456 -2.35993e-23 -0.000502928)
(0.0580901 2.48134e-23 0.000360552)
(0.0591181 7.92923e-23 -0.000739261)
(0.0573637 4.05885e-23 0.000609706)
(0.0589796 0 -0.000964674)
(0.0566607 3.61566e-27 0.000859474)
(0.0588689 0 -0.00108254)
(0.0564244 0 0.000933974)
(0.0589324 -6.72295e-23 -0.00101083)
(0.057141 -2.27396e-22 0.000828712)
(0.0614062 2.27656e-22 -0.0021297)
(0.0619646 -1.70583e-26 -0.00246176)
(0.0655414 0 -0.00628447)
(0.0655415 7.39755e-21 -0.00915251)
(0.0685837 2.3742e-25 -0.0150643)
(0.0668219 5.93416e-20 -0.0214741)
(0.0324549 0 -6.48027e-05)
(0.0324541 -4.61578e-24 -6.49438e-05)
(0.0324473 0 -6.49661e-05)
(0.0324458 5.48509e-23 -6.47846e-05)
(0 0 0)
(0 0 0)
(0 0 0)
(0 0 0)
(0 0 0)
(0 0 0)
)
;

boundaryField
{
    inlet
    {
        type            calculated;
        value           uniform (0 0 0);
    }
    endWall
    {
        type            calculated;
        value           uniform (0 0 0);
    }
    sideWall
    {
        type            empty;
    }
}


// ************************************************************************* //
