/*--------------------------------*- C++ -*----------------------------------*\
| =========                 |                                                 |
| \\      /  F ield         | foam-extend: Open Source CFD                    |
|  \\    /   O peration     | Version:     3.2                                |
|   \\  /    A nd           | Web:         http://www.foam-extend.org         |
|    \\/     M anipulation  | For copyright notice see file Copyright         |
\*---------------------------------------------------------------------------*/
FoamFile
{
    version     2.0;
    format      ascii;
    class       areaScalarField;
    location    "2020";
    object      Uf;
}
// * * * * * * * * * * * * * * * * * * * * * * * * * * * * * * * * * * * * * //

dimensions      [0 1 -1 0 0 0 0];

internalField   nonuniform List<scalar> 
550
(
0.00700384
0.00823048
0.00951083
0.0108166
0.012113
0.0133646
0.0145414
0.0156165
0.0165739
0.0174017
0.0180964
0.0186602
0.0191052
0.0194376
0.019669
0.0198157
0.019888
0.0198969
0.0198563
0.0197798
0.0196747
0.0195476
0.0194026
0.019246
0.0190813
0.0189124
0.0187418
0.0185734
0.0184093
0.0182502
0.0180957
0.017947
0.0178036
0.0176673
0.0175371
0.0174143
0.0172975
0.0171872
0.0170829
0.0169851
0.0168921
0.0168054
0.0167237
0.0166469
0.0165746
0.0165073
0.0164439
0.0163879
0.0163287
0.0162842
0.0162332
0.0161941
0.0161453
0.0161116
0.0160706
0.016036
0.0160001
0.0159677
0.0159357
0.0159067
0.0158791
0.0158542
0.0158288
0.0158051
0.0157819
0.01576
0.0157393
0.0157185
0.0156975
0.0156762
0.0156551
0.0156376
0.0156167
0.0156013
0.01556
0.0156143
0.0156496
0.0155425
0.015525
0.0154954
0.0154744
0.0154599
0.0154357
0.0154237
0.0153962
0.0153891
0.015376
0.0153627
0.0153547
0.0153522
0.0153351
0.0153255
0.0153174
0.0153066
0.0153008
0.0152909
0.0152826
0.0152783
0.0152508
0.015275
0.0152748
0.0153313
0.0153502
0.015205
0.0151936
0.0151817
0.0151687
0.0152003
0.015191
0.0151963
0.0151948
0.0151869
0.0151852
0.0151889
0.0151709
0.0151846
0.0151482
0.0152122
0.0152115
0.015062
0.0150762
0.0150493
0.015112
0.0151254
0.0150393
0.0150459
0.0150398
0.0151238
0.0151185
0.0150242
0.0150154
0.0149948
0.0149923
0.0150031
0.0150271
0.0150458
0.0151163
0.0151807
0.0151931
0.0152081
0.0152163
0.0152277
0.0152404
0.0152531
0.015266
0.0152782
0.0152902
0.0153008
0.015311
0.0153197
0.0153276
0.0153343
0.0153402
0.0153446
0.015349
0.0153507
0.0153545
0.0153528
0.0153567
0.0153502
0.0153534
0.0153451
0.0153449
0.0153358
0.0153303
0.0153214
0.0153075
0.0152944
0.0152716
0.0152364
0.0151921
0.0151658
0.0151348
0.0151148
0.0150918
0.0150765
0.0150598
0.0150483
0.0150373
0.0150294
0.0150234
0.0150194
0.0150169
0.0150158
0.0150157
0.0150167
0.0150184
0.0150207
0.0150236
0.015027
0.0150307
0.0150348
0.015039
0.0150435
0.0150481
0.0150529
0.0150576
0.0150624
0.015067
0.0150717
0.0150763
0.0150809
0.0150852
0.0150895
0.0150937
0.0150977
0.0151016
0.0151054
0.0151091
0.0151126
0.0151161
0.0151194
0.0151226
0.0151258
0.0151288
0.0151318
0.0151347
0.0151376
0.0151404
0.0151433
0.0151461
0.015149
0.0151518
0.0151548
0.0151578
0.0151609
0.0151642
0.0151676
0.0151711
0.0151748
0.0151786
0.0151826
0.0151867
0.015191
0.0151954
0.0152
0.0152047
0.0152096
0.0152146
0.0152197
0.015225
0.0152304
0.0152361
0.0152418
0.0152477
0.0152536
0.0152597
0.0152657
0.0152718
0.0152778
0.0152841
0.0152899
0.0152964
0.0153019
0.0153087
0.0153139
0.0153211
0.0153258
0.0153335
0.0153381
0.0153462
0.0153508
0.0153588
0.0153635
0.015371
0.0153758
0.0153822
0.0153871
0.0153918
0.0153968
0.0153991
0.0154042
0.0154037
0.0154088
0.0154053
0.0154099
0.0154047
0.0154073
0.0154049
0.0154039
0.0154098
0.015388
0.0154084
0.0152705
0.0153059
0.0154562
0.0154459
0.0154617
0.01545
0.0154494
0.0154395
0.0154366
0.0154287
0.0154258
0.0154196
0.0154169
0.0154119
0.0154088
0.0154047
0.0154022
0.0153987
0.0153965
0.0153934
0.0153911
0.0153885
0.0153862
0.0153839
0.0153817
0.0153797
0.0153776
0.0153759
0.0153741
0.0153728
0.0153713
0.0153704
0.0153692
0.0153687
0.0153679
0.0153678
0.0153675
0.0153678
0.0153678
0.0153685
0.015369
0.01537
0.0153708
0.0153721
0.0153732
0.0153748
0.0153762
0.015378
0.0153799
0.0153822
0.015385
0.0153881
0.0153917
0.0153955
0.0153998
0.0154042
0.0154089
0.0154139
0.0154192
0.0154246
0.0154303
0.0154362
0.0154422
0.0154484
0.0154547
0.0154611
0.0154677
0.0154743
0.0154811
0.0154875
0.0154945
0.0155
0.0155071
0.0155117
0.0155189
0.0155223
0.0155288
0.0155326
0.0155354
0.0155364
0.015528
0.0155254
0.015518
0.0155104
0.0155025
0.0154947
0.015487
0.0154797
0.0154725
0.0154655
0.0154587
0.015452
0.0154456
0.0154393
0.0154331
0.015427
0.0154212
0.015415
0.0154108
0.015404
0.0154007
0.0153922
0.0153906
0.0153798
0.0153807
0.0153674
0.0153689
0.0153559
0.0153511
0.0153482
0.0153276
0.015375
0.0152028
0.0152235
0.0153232
0.0152256
0.0152252
0.0152016
0.0151919
0.0151882
0.0151799
0.0151847
0.0151781
0.0151864
0.0151797
0.0151896
0.0151826
0.0151877
0.0151917
0.0151782
0.0152338
0.0150635
0.01509
0.015202
0.0150972
0.0151001
0.0150783
0.0150704
0.0150688
0.0150633
0.0150679
0.015066
0.015072
0.0150727
0.0150782
0.01508
0.0150847
0.0150869
0.0150902
0.0150923
0.0150945
0.0150963
0.015098
0.0150993
0.0151003
0.0151009
0.0151012
0.0151012
0.015101
0.0151006
0.0150999
0.0150991
0.015098
0.0150968
0.0150955
0.015094
0.0150925
0.0150908
0.0150891
0.0150872
0.0150854
0.0150834
0.0150815
0.0150796
0.0150776
0.0150756
0.0150737
0.0150717
0.0150703
0.0150681
0.0150675
0.0150644
0.0150652
0.0150601
0.0150632
0.0150544
0.0150603
0.015047
0.0150524
0.0150449
0.0150352
0.015091
0.0149103
0.014936
0.0150581
0.0149541
0.014946
0.0149304
0.0149129
0.0149127
0.0149018
0.0149042
0.0149001
0.0149029
0.0149029
0.0149052
0.0149061
0.0149076
0.0149087
0.0149097
0.0149104
0.0149107
0.0149105
0.01491
0.014909
0.0149077
0.014906
0.0149039
0.0149016
0.0148988
0.0148956
0.014892
0.0148882
0.014884
0.0148796
0.0148748
0.0148698
0.0148644
0.0148589
0.014853
0.0148471
0.0148404
0.0148349
0.0148271
0.0148222
0.0148124
0.0148094
0.0147965
0.0147964
0.0147791
0.0147819
0.0147609
0.014764
0.0147398
0.0147402
0.0147183
0.0147142
0.0147078
0.0147037
0.0147286
0.0147586
0.0148532
0.0148517
0.0148077
0.0145412
0.0139951
0.0124404
0.0106592
0.00987494
0.00904687
0.00833308
0.00718868
0.00616008
0.00535178
0.00551399
0.0068961
0.00877109
)
;

boundaryField
{
    inlet
    {
        type            calculated;
        value           uniform 0;
    }
    endWall
    {
        type            calculated;
        value           uniform 0;
    }
    sideWall
    {
        type            empty;
    }
}


// ************************************************************************* //
