/*--------------------------------*- C++ -*----------------------------------*\
| =========                 |                                                 |
| \\      /  F ield         | foam-extend: Open Source CFD                    |
|  \\    /   O peration     | Version:     3.2                                |
|   \\  /    A nd           | Web:         http://www.foam-extend.org         |
|    \\/     M anipulation  | For copyright notice see file Copyright         |
\*---------------------------------------------------------------------------*/
FoamFile
{
    version     2.0;
    format      ascii;
    class       areaScalarField;
    location    "1790";
    object      Uf2;
}
// * * * * * * * * * * * * * * * * * * * * * * * * * * * * * * * * * * * * * //

dimensions      [0 1 -1 0 0 0 0];

internalField   nonuniform List<scalar> 
550
(
0.0377024
0.0372828
0.0366463
0.0359501
0.0352479
0.0345353
0.0338724
0.0332156
0.0326067
0.0320013
0.0314325
0.0308768
0.0303533
0.0298465
0.0293644
0.0288972
0.0284538
0.028031
0.0276285
0.0272406
0.0268693
0.0265131
0.0261725
0.0258474
0.0255393
0.0252482
0.0249747
0.0247177
0.0244749
0.024245
0.0240269
0.0238201
0.0236239
0.0234377
0.023261
0.0230938
0.0229357
0.0227864
0.0226456
0.022513
0.022388
0.0222703
0.0221591
0.0220541
0.0219546
0.0218603
0.0217708
0.0216858
0.0216053
0.021529
0.0214569
0.021389
0.0213252
0.0212653
0.0212086
0.021155
0.0211039
0.021055
0.0210081
0.0209629
0.0209193
0.0208774
0.0208374
0.0207993
0.0207628
0.0207281
0.0206948
0.020663
0.0206323
0.0206028
0.0205741
0.0205463
0.0205195
0.0204938
0.0204695
0.0204467
0.0204253
0.0204056
0.0203874
0.0203708
0.0203554
0.0203412
0.0203273
0.0203134
0.020299
0.0202838
0.0202675
0.0202503
0.0202321
0.0202134
0.0201947
0.0201767
0.0201594
0.0201433
0.0201281
0.0201144
0.0201015
0.0200901
0.0200789
0.0200687
0.0200581
0.020048
0.0200371
0.0200261
0.0200144
0.0200021
0.0199908
0.0199788
0.0199653
0.0199779
0.0199414
0.0199054
0.0198685
0.0198603
0.01978
0.0197366
0.0197599
0.0198798
0.0199451
0.0198083
0.0196542
0.0196803
0.0196836
0.0196625
0.0196007
0.0195304
0.0195535
0.0196951
0.0197437
0.0196259
0.0194998
0.0194827
0.0194766
0.0194429
0.0193732
0.0193959
0.0195161
0.0195506
0.0194161
0.01933
0.0194363
0.0195185
0.0194089
0.019306
0.0192915
0.0192951
0.0192708
0.0192583
0.0192461
0.0192477
0.0192122
0.0191846
0.0191491
0.0191493
0.0191266
0.019109
0.0190869
0.0190669
0.0190152
0.0189965
0.0191142
0.0191714
0.019073
0.0189748
0.0189543
0.0189623
0.0189659
0.0189487
0.0189208
0.0189172
0.018899
0.0188979
0.0188937
0.0188772
0.0188398
0.0188497
0.0188695
0.0188005
0.0187963
0.018822
0.0187682
0.0187621
0.0187713
0.0187171
0.0186997
0.0187735
0.0187658
0.0187165
0.0187227
0.0186829
0.0186806
0.0186846
0.0186421
0.0186734
0.0186613
0.0185934
0.0186225
0.0186265
0.0185708
0.0185697
0.0186081
0.0186011
0.0185818
0.0185652
0.0185513
0.0185377
0.0185426
0.0185323
0.0185287
0.0185338
0.0185115
0.0185137
0.0184884
0.0184664
0.0184447
0.0184041
0.0184498
0.018469
0.0185096
0.0185427
0.0185692
0.0186014
0.0186424
0.0186286
0.0186159
0.0186666
0.018691
0.0186894
0.0187038
0.0187381
0.0186864
0.0186177
0.0188377
0.0189804
0.0189146
0.0189228
0.0188334
0.018879
0.0189765
0.0189611
0.0189539
0.0189572
0.0189606
0.0189657
0.018971
0.0189758
0.0189777
0.0189784
0.0189803
0.0189819
0.0189829
0.0189833
0.0189839
0.0189848
0.0189875
0.0189898
0.0189913
0.0189925
0.0189939
0.0189945
0.0189951
0.0189936
0.0189924
0.0189906
0.0189895
0.0189878
0.0189857
0.0189807
0.0189752
0.0189662
0.018954
0.0190152
0.0190643
0.0190414
0.0190296
0.019026
0.0190239
0.0190245
0.0190246
0.0190268
0.0190284
0.0190317
0.0190339
0.0190366
0.0190382
0.0190404
0.0190413
0.0190424
0.0190423
0.0190427
0.0190419
0.0190419
0.0190402
0.0190402
0.0190368
0.0190375
0.0190327
0.0190348
0.0190295
0.0190323
0.0190278
0.0190293
0.0190262
0.0190257
0.0190245
0.0190218
0.0190226
0.0190182
0.0190207
0.019016
0.019019
0.0190153
0.019018
0.0190156
0.0190181
0.0190169
0.0190193
0.0190194
0.0190214
0.0190247
0.0190283
0.0190355
0.0190393
0.0190482
0.0190524
0.0190602
0.019071
0.0190654
0.0190869
0.0190618
0.0190868
0.0191623
0.0191719
0.0191395
0.0191755
0.0191523
0.0191871
0.0191927
0.0191575
0.0192556
0.018896
0.019235
0.0195381
0.0192722
0.0193379
0.0193102
0.0193324
0.0193388
0.0193513
0.0193607
0.0193709
0.0193799
0.019389
0.0193973
0.0194055
0.0194129
0.0194203
0.0194273
0.0194343
0.0194411
0.0194478
0.0194544
0.019461
0.0194679
0.0194748
0.0194817
0.01949
0.0194937
0.0195073
0.0195028
0.0195256
0.0195098
0.0195497
0.0195125
0.0195796
0.0195183
0.0196079
0.0195426
0.0196145
0.0195785
0.0195525
0.0195897
0.019445
0.0195629
0.0194378
0.0194871
0.0194423
0.0194409
0.0194233
0.0194136
0.0194021
0.0193923
0.0193818
0.0193723
0.0193637
0.0193525
0.0193515
0.0193314
0.0193417
0.0193057
0.0193349
0.0192797
0.0193295
0.0192593
0.0192923
0.0194424
0.0188416
0.0192572
0.0195727
0.0190749
0.0192218
0.0192153
0.0191761
0.0192079
0.0191796
0.0191871
0.0191748
0.0191701
0.0191641
0.0191595
0.0191538
0.0191487
0.0191426
0.0191349
0.0191299
0.0191241
0.0191177
0.0191124
0.0191064
0.0191007
0.0190946
0.0190885
0.0190819
0.0190754
0.0190687
0.0190618
0.0190549
0.0190479
0.0190407
0.0190333
0.0190257
0.0190182
0.0190104
0.0190025
0.0189948
0.018987
0.018979
0.0189712
0.0189633
0.0189554
0.0189476
0.0189401
0.0189326
0.0189249
0.0189176
0.0189107
0.0189041
0.0188976
0.0188914
0.0188852
0.0188793
0.0188732
0.0188675
0.0188618
0.0188563
0.0188508
0.0188459
0.0188404
0.0188351
0.0188295
0.0188242
0.018819
0.0188134
0.0188076
0.0188032
0.0187948
0.0187959
0.0187784
0.01879
0.0187553
0.0187879
0.018728
0.0187868
0.0187058
0.018748
0.0187183
0.0185782
0.0190459
0.0183857
0.0187378
0.0191259
0.0183499
0.018665
0.0186204
0.0185923
0.0186509
0.0185926
0.0186488
0.0186043
0.0186494
0.0186006
0.01866
0.0185824
0.0186638
0.0185708
0.0185486
0.0189414
0.0182965
0.0186625
0.0190307
0.0183365
0.0185558
0.0185672
0.0185069
0.0185671
0.0185307
0.0185439
0.0185374
0.0185192
0.0185432
0.018491
0.0185464
0.0184551
0.0185471
0.0184182
0.0185368
0.0183822
0.0185048
0.0183503
0.0184532
0.0183834
0.0184131
0.0185166
0.0185121
0.0189974
0.018906
0.0186197
0.017634
0.0161037
0.0112853
0.00914679
0.0105295
0.00894423
0.00785212
0.00532045
0.00198713
5.41529e-05
0.00128678
0.00304898
0.00401966
)
;

boundaryField
{
    inlet
    {
        type            calculated;
        value           uniform 0;
    }
    endWall
    {
        type            calculated;
        value           uniform 0;
    }
    sideWall
    {
        type            empty;
    }
}


// ************************************************************************* //
