/*--------------------------------*- C++ -*----------------------------------*\
| =========                 |                                                 |
| \\      /  F ield         | foam-extend: Open Source CFD                    |
|  \\    /   O peration     | Version:     3.2                                |
|   \\  /    A nd           | Web:         http://www.foam-extend.org         |
|    \\/     M anipulation  | For copyright notice see file Copyright         |
\*---------------------------------------------------------------------------*/
FoamFile
{
    version     2.0;
    format      ascii;
    class       areaScalarField;
    location    "2020";
    object      Uf2;
}
// * * * * * * * * * * * * * * * * * * * * * * * * * * * * * * * * * * * * * //

dimensions      [0 1 -1 0 0 0 0];

internalField   nonuniform List<scalar> 
550
(
0.037706
0.037284
0.036643
0.0359441
0.0352357
0.0345162
0.0338458
0.0331826
0.032569
0.0319641
0.0313789
0.0308138
0.0303127
0.0297988
0.0293023
0.0288525
0.0284053
0.0279674
0.0275637
0.0271746
0.0268052
0.0264485
0.0261019
0.0257775
0.0254678
0.0251724
0.0248921
0.0246298
0.0243853
0.0241522
0.0239299
0.0237182
0.023517
0.02333
0.023153
0.022988
0.0228305
0.0226783
0.0225397
0.0224073
0.0222777
0.0221624
0.0220509
0.0219424
0.0218434
0.0217501
0.0216622
0.0216035
0.0214753
0.0214853
0.0213493
0.0213595
0.021212
0.0212458
0.0211188
0.0210894
0.0210329
0.0210323
0.0209838
0.0209182
0.0208329
0.0207974
0.0207963
0.0208006
0.0207195
0.0206347
0.0206124
0.0205829
0.0205296
0.0205023
0.0204998
0.0205291
0.0204799
0.0204522
0.0201591
0.0208257
0.020837
0.0198447
0.0203775
0.0201906
0.0201453
0.020138
0.0200649
0.0201825
0.0200725
0.0201778
0.0200878
0.0200221
0.0200205
0.0200878
0.0200236
0.0200888
0.0200909
0.0200289
0.0200073
0.0199464
0.0199785
0.0200772
0.0198981
0.0202628
0.0200874
0.0205209
0.020328
0.019054
0.01986
0.0198634
0.0198599
0.02023
0.0199518
0.0200439
0.0200021
0.0199696
0.0200377
0.0201177
0.0199675
0.0201971
0.0198106
0.0205457
0.0201358
0.0189559
0.0200411
0.0197465
0.0204317
0.020154
0.0193721
0.0199938
0.0199109
0.0206421
0.0200625
0.0193326
0.01988
0.0197652
0.0198791
0.0199891
0.020121
0.0201299
0.0206004
0.0206702
0.0203516
0.0203939
0.0203635
0.0204084
0.0204395
0.0204621
0.0204861
0.020503
0.020522
0.0205324
0.0205459
0.0205514
0.0205595
0.0205632
0.0205675
0.0205654
0.0205721
0.0205576
0.0205777
0.0205385
0.0205811
0.0205024
0.0205699
0.0204808
0.0205315
0.0204596
0.020472
0.0204344
0.0203778
0.0203617
0.020263
0.0201211
0.0199837
0.0200541
0.019968
0.0200034
0.0199434
0.0199653
0.019926
0.0199385
0.0199219
0.0199269
0.019927
0.0199321
0.0199358
0.0199421
0.0199473
0.0199545
0.0199605
0.0199683
0.0199748
0.019983
0.0199896
0.0199979
0.0200046
0.020013
0.0200194
0.0200274
0.0200331
0.0200406
0.0200456
0.0200524
0.0200568
0.0200629
0.0200665
0.0200718
0.0200748
0.0200794
0.0200818
0.0200857
0.0200875
0.0200909
0.0200921
0.0200948
0.0200956
0.0200977
0.0200982
0.0200999
0.0200999
0.0201011
0.020101
0.020102
0.0201019
0.0201029
0.0201029
0.020104
0.0201044
0.0201059
0.020107
0.0201089
0.0201106
0.020113
0.0201151
0.020118
0.0201206
0.0201239
0.020127
0.0201309
0.0201345
0.0201388
0.0201431
0.0201479
0.020153
0.0201582
0.0201643
0.0201703
0.0201772
0.0201836
0.0201912
0.0201974
0.0202059
0.0202114
0.0202213
0.020225
0.0202375
0.0202375
0.0202548
0.0202494
0.0202733
0.020262
0.0202927
0.0202768
0.0203117
0.0202939
0.0203289
0.0203117
0.0203425
0.0203292
0.0203509
0.0203456
0.0203523
0.0203597
0.0203454
0.0203703
0.0203305
0.0203748
0.0203101
0.0203691
0.0202937
0.0203474
0.0203075
0.0203125
0.0203697
0.0201447
0.0204882
0.0192074
0.0202944
0.0213775
0.0203302
0.0205228
0.0203147
0.0203774
0.020291
0.0203239
0.02027
0.0202912
0.0202524
0.0202659
0.0202374
0.0202411
0.020223
0.0202274
0.0202118
0.0202153
0.020203
0.0202038
0.0201957
0.0201943
0.0201892
0.0201866
0.0201838
0.0201808
0.02018
0.0201767
0.0201775
0.0201742
0.0201764
0.0201736
0.020177
0.0201746
0.0201789
0.0201773
0.0201823
0.0201813
0.020187
0.0201869
0.020193
0.0201935
0.0202
0.0202012
0.020208
0.0202104
0.0202163
0.0202216
0.0202288
0.020239
0.0202467
0.0202578
0.0202668
0.0202783
0.0202883
0.0203003
0.0203112
0.0203236
0.0203352
0.0203479
0.0203601
0.0203728
0.0203852
0.0203979
0.0204105
0.0204232
0.0204357
0.0204495
0.0204575
0.0204744
0.0204739
0.020497
0.0204878
0.020518
0.0204989
0.0205312
0.0205199
0.02052
0.020513
0.0204371
0.0204694
0.0204262
0.0204107
0.0203928
0.0203795
0.0203658
0.0203537
0.0203411
0.0203295
0.0203182
0.0203071
0.0202968
0.020286
0.0202757
0.0202651
0.0202574
0.0202438
0.0202509
0.0202224
0.0202405
0.0201921
0.0202369
0.0201554
0.0202378
0.0201198
0.0202241
0.0201037
0.0201527
0.0201571
0.02
0.0205854
0.0188685
0.0200426
0.0208013
0.0193651
0.0199662
0.0197692
0.019831
0.0198527
0.0197996
0.0198874
0.0197933
0.0199052
0.0197889
0.0199213
0.0197912
0.019886
0.0198821
0.0197364
0.020362
0.0186157
0.0197868
0.0206404
0.0190722
0.0197343
0.0195347
0.019603
0.0196277
0.0195916
0.019655
0.0196112
0.019667
0.019636
0.0196753
0.0196582
0.0196852
0.0196777
0.0196936
0.0196934
0.0197015
0.0197056
0.0197116
0.0197157
0.0197194
0.0197222
0.0197251
0.019727
0.019729
0.0197304
0.0197318
0.0197327
0.0197329
0.019733
0.0197336
0.0197337
0.0197335
0.0197327
0.0197317
0.0197313
0.0197303
0.019729
0.0197286
0.0197273
0.0197258
0.0197242
0.0197225
0.0197207
0.0197228
0.019715
0.0197256
0.0197043
0.0197335
0.0196853
0.019749
0.0196532
0.0197674
0.019613
0.0197553
0.0196495
0.0196134
0.0202052
0.0183688
0.0195929
0.0205495
0.0189164
0.0194912
0.0194116
0.019366
0.0194657
0.0193782
0.0194608
0.0194122
0.0194596
0.019443
0.0194636
0.0194596
0.0194675
0.0194712
0.0194759
0.0194793
0.0194828
0.0194841
0.019486
0.0194869
0.0194877
0.0194875
0.0194868
0.0194863
0.0194847
0.0194829
0.0194799
0.0194774
0.0194751
0.019472
0.0194687
0.0194649
0.019461
0.0194577
0.0194526
0.0194499
0.0194412
0.0194466
0.0194254
0.0194448
0.0194006
0.0194488
0.0193661
0.0194601
0.0193179
0.0194675
0.0192735
0.0194513
0.0192254
0.0194013
0.0192065
0.019328
0.0192846
0.0193047
0.019505
0.0196216
0.0202705
0.0197439
0.0194816
0.0177783
0.0154836
0.0087192
0.00591794
0.00808355
0.00608768
0.00550067
0.0022645
0.000771921
0.000578914
0.00192961
0.00335774
0.00417987
)
;

boundaryField
{
    inlet
    {
        type            calculated;
        value           uniform 0;
    }
    endWall
    {
        type            calculated;
        value           uniform 0;
    }
    sideWall
    {
        type            empty;
    }
}


// ************************************************************************* //
