/*--------------------------------*- C++ -*----------------------------------*\
| =========                 |                                                 |
| \\      /  F ield         | foam-extend: Open Source CFD                    |
|  \\    /   O peration     | Version:     3.2                                |
|   \\  /    A nd           | Web:         http://www.foam-extend.org         |
|    \\/     M anipulation  | For copyright notice see file Copyright         |
\*---------------------------------------------------------------------------*/
FoamFile
{
    version     2.0;
    format      ascii;
    class       areaVectorField;
    location    "2020";
    object      uNormal;
}
// * * * * * * * * * * * * * * * * * * * * * * * * * * * * * * * * * * * * * //

dimensions      [0 0 0 0 0 0 0];

internalField   nonuniform List<vector> 
550
(
(0.002 0 0.999998)
(0.002 0 0.999998)
(0.00199999 7.27914e-20 0.999998)
(0.00200002 -7.27918e-20 0.999998)
(0.00199996 -7.27918e-20 0.999998)
(0.00200001 0 0.999998)
(0.00199994 7.2791e-20 0.999998)
(0.002 7.2791e-20 0.999998)
(0.00200011 0 0.999998)
(0.00199994 0 0.999998)
(0.00247271 0 0.999997)
(0.002 0 0.999998)
(0.00152722 0 0.999999)
(0.00237984 0 0.999997)
(0.002 7.2791e-20 0.999998)
(0.00162023 0 0.999999)
(0.00226449 0 0.999997)
(0.0022333 0 0.999998)
(0.00193581 7.2791e-20 0.999998)
(0.00195088 0 0.999998)
(0.00179963 0 0.999998)
(0.00196282 7.2791e-20 0.999998)
(0.002 7.2791e-20 0.999998)
(0.00185298 0 0.999998)
(0.00200011 7.2795e-20 0.999998)
(0.002 7.2791e-20 0.999998)
(0.00209586 -7.2791e-20 0.999998)
(0.00199967 0 0.999998)
(0.00190463 0 0.999998)
(0.00199978 0 0.999998)
(0.00199989 0 0.999998)
(0.00207457 -7.2791e-20 0.999998)
(0.00207127 0 0.999998)
(0.00199428 -7.2791e-20 0.999998)
(0.00199483 0 0.999998)
(0.00193113 0 0.999998)
(0.00199593 0 0.999998)
(0.00206028 7.2791e-20 0.999998)
(0.00193763 0 0.999998)
(0.00199758 0 0.999998)
(0.00205533 0 0.999998)
(0.00194268 7.2795e-20 0.999998)
(0.00199758 0 0.999998)
(0.00205148 7.2791e-20 0.999998)
(0.00199703 0 0.999998)
(0.00199813 0 0.999998)
(0.00200806 0 0.999998)
(0.00181786 -7.2791e-20 0.999998)
(0.00287605 0 0.999996)
(0.000404653 0 1)
(0.00361232 -1.45581e-19 0.999993)
(0.000332566 0 1)
(0.00435622 1.45589e-19 0.999991)
(-0.00101759 -3.63956e-20 0.999999)
(0.00506042 0 0.999987)
(-0.00110146 0 0.999999)
(0.00499441 1.45597e-19 0.999988)
(-0.000836024 0 1)
(0.00500428 1.45597e-19 0.999987)
(-0.00123925 0 0.999999)
(0.00510325 0 0.999987)
(-0.00121888 0 0.999999)
(0.00526829 0 0.999986)
(-0.000808065 0 1)
(0.00489255 1.45597e-19 0.999988)
(-0.00131031 -3.63996e-20 0.999999)
(0.00517278 0 0.999987)
(-0.00105258 3.63996e-20 0.999999)
(0.00525876 0 0.999986)
(-0.0013483 0 0.999999)
(0.00467569 0 0.999989)
(-0.00186299 0 0.999998)
(0.00371099 0 0.999993)
(-0.00114395 0 0.999999)
(-0.00144162 0 0.999999)
(-0.0185669 0 0.999828)
(0.0276458 1.16434e-18 0.999618)
(0.00600673 0 0.999982)
(-0.0033616 0 0.999994)
(0.00530146 0 0.999986)
(-0.00184132 7.27991e-20 0.999998)
(0.00467822 0 0.999989)
(-0.000185957 -9.0999e-21 1)
(0.00350321 0 0.999994)
(0.00180261 7.27991e-20 0.999998)
(-0.000897275 3.63796e-20 1)
(0.00298639 0 0.999996)
(-0.000883926 -3.63996e-20 1)
(0.00106983 -3.63996e-20 0.999999)
(0.000270745 0 1)
(0.00377837 1.45517e-19 0.999993)
(-0.00194059 0 0.999998)
(0.00313129 0 0.999995)
(-0.00166768 0 0.999999)
(0.00182404 7.27991e-20 0.999998)
(-0.00105659 -3.63996e-20 0.999999)
(0.000669526 -1.81898e-20 1)
(-0.000121721 -4.54995e-21 1)
(-0.00143209 0 0.999999)
(-0.0110062 0 0.999939)
(0.00248334 -7.27989e-20 0.999997)
(-0.0133365 0 0.999911)
(0.0347604 0 0.999396)
(0.00568901 0 0.999984)
(-0.0138448 0 0.999904)
(0.00287826 0 0.999996)
(-0.01101 2.91179e-19 0.999939)
(-0.00202882 -7.2759e-20 0.999998)
(0.0011028 0 0.999999)
(-0.00453115 0 0.99999)
(0.00209504 -7.2799e-20 0.999998)
(-0.00355248 0 0.999994)
(-0.00119751 0 0.999999)
(-0.00177667 -7.27991e-20 0.999998)
(3.73054e-05 0 1)
(-0.00526691 -1.45596e-19 0.999986)
(0.00095434 0 1)
(-0.020727 -5.82268e-19 0.999785)
(0.0397767 0 0.999209)
(-0.00989587 0 0.999951)
(-0.0121855 0 0.999926)
(-0.00792056 -2.91188e-19 0.999969)
(-0.0170276 0 0.999855)
(0.0226306 5.81924e-19 0.999744)
(-0.00551766 -1.45596e-19 0.999985)
(-0.0114987 0 0.999934)
(-0.0119417 0 0.999929)
(-0.0128129 -5.82346e-19 0.999918)
(0.0289616 0 0.999581)
(-0.006935 2.9103e-19 0.999976)
(-0.00662532 0 0.999978)
(-0.00827586 2.91187e-19 0.999966)
(-0.00968702 0 0.999953)
(-0.0125542 0 0.999921)
(-0.0121481 0 0.999926)
(-0.0163707 0 0.999866)
(-0.0210555 -5.82264e-19 0.999778)
(-0.000247562 0 1)
(-0.00362699 0 0.999993)
(-0.00469469 0 0.999989)
(-0.00615086 0 0.999981)
(-0.0065248 2.9119e-19 0.999979)
(-0.00678111 0 0.999977)
(-0.00623164 -2.91191e-19 0.999981)
(-0.00649109 2.91191e-19 0.999979)
(-0.00575396 -1.45516e-19 0.999983)
(-0.00597593 0 0.999982)
(-0.00511565 1.45596e-19 0.999987)
(-0.00535685 0 0.999986)
(-0.00446058 1.45597e-19 0.99999)
(-0.00476875 0 0.999989)
(-0.00390606 0 0.999992)
(-0.004178 0 0.999991)
(-0.00334982 -1.45598e-19 0.999994)
(-0.0036291 0 0.999993)
(-0.00275522 0 0.999996)
(-0.00319136 0 0.999995)
(-0.00172254 7.27991e-20 0.999999)
(-0.00300977 -1.45598e-19 0.999995)
(0.000104817 0 1)
(-0.00376544 0 0.999993)
(0.00249155 0 0.999997)
(-0.00415379 0 0.999991)
(0.00489907 0 0.999988)
(-0.00381065 -1.45597e-19 0.999993)
(0.00726521 0 0.999974)
(-0.0016256 -7.27991e-20 0.999999)
(0.00919265 0 0.999958)
(0.0023854 7.2799e-20 0.999997)
(0.0109863 2.91179e-19 0.99994)
(-9.93656e-05 0 1)
(0.00503837 0 0.999987)
(-0.000161998 0 1)
(0.00325233 -1.45518e-19 0.999995)
(-0.000212772 0 1)
(0.00186368 0 0.999998)
(-0.000422692 0 1)
(0.00070292 -1.81998e-20 1)
(-0.000906963 0 1)
(-8.39492e-05 2.27497e-21 1)
(-0.00152569 0 0.999999)
(-0.000546543 -1.81998e-20 1)
(-0.00190588 0 0.999998)
(-0.000853645 0 1)
(-0.00215294 0 0.999998)
(-0.00105823 -3.63996e-20 0.999999)
(-0.00231107 7.2799e-20 0.999997)
(-0.00119171 0 0.999999)
(-0.00241066 0 0.999997)
(-0.00127134 0 0.999999)
(-0.00245578 7.2799e-20 0.999997)
(-0.00131142 0 0.999999)
(-0.00246664 0 0.999997)
(-0.00131006 -3.63996e-20 0.999999)
(-0.00243115 0 0.999997)
(-0.00126782 -3.63795e-20 0.999999)
(-0.00235853 -7.2799e-20 0.999997)
(-0.00120323 -3.63996e-20 0.999999)
(-0.00226092 -7.2799e-20 0.999997)
(-0.00112303 0 0.999999)
(-0.00215369 0 0.999998)
(-0.00103109 3.63996e-20 0.999999)
(-0.00203689 0 0.999998)
(-0.000934976 3.63996e-20 1)
(-0.00192024 7.2799e-20 0.999998)
(-0.000838751 0 1)
(-0.00180561 0 0.999998)
(-0.000743976 0 1)
(-0.00169342 0 0.999999)
(-0.000647943 0 1)
(-0.00157858 0 0.999999)
(-0.000551629 -1.81898e-20 1)
(-0.00146914 0 0.999999)
(-0.0004589 0 1)
(-0.00136747 3.63996e-20 0.999999)
(-0.000372632 0 1)
(-0.00126897 -3.63996e-20 0.999999)
(-0.000292901 0 1)
(-0.00118444 0 0.999999)
(-0.000225463 0 1)
(-0.00111605 0 0.999999)
(-0.00017024 0 1)
(-0.00106293 0 0.999999)
(-0.000133782 0 1)
(-0.00103447 -3.63996e-20 0.999999)
(-0.000110192 0 1)
(-0.00101583 0 0.999999)
(-9.21737e-05 -4.54995e-21 1)
(-0.00100218 0 0.999999)
(-7.47573e-05 0 1)
(-0.000987645 0 1)
(-6.08166e-05 -2.27497e-21 1)
(-0.000978337 3.63996e-20 1)
(-5.01098e-05 0 1)
(-0.000978979 0 1)
(-5.1766e-05 0 1)
(-0.000987391 0 1)
(-6.15567e-05 2.27497e-21 1)
(-0.00101002 3.63996e-20 0.999999)
(-8.21818e-05 0 1)
(-0.00104556 -3.63996e-20 0.999999)
(-0.000112936 0 1)
(-0.00110335 0 0.999999)
(-0.000160407 0 1)
(-0.00116984 0 0.999999)
(-0.00020706 0 1)
(-0.00123528 0 0.999999)
(-0.000240545 0 1)
(-0.00130135 3.63996e-20 0.999999)
(-0.000260437 0 1)
(-0.00137648 3.63795e-20 0.999999)
(-0.000257309 0 1)
(-0.00147584 -7.27991e-20 0.999999)
(-0.000213659 9.0999e-21 1)
(-0.00163697 7.27991e-20 0.999999)
(-0.000104784 0 1)
(-0.00190988 -7.2799e-20 0.999998)
(0.000109149 4.54995e-21 1)
(-0.00231769 7.2799e-20 0.999997)
(0.000446624 -1.81998e-20 1)
(-0.00283568 -7.27989e-20 0.999996)
(0.000924558 0 1)
(-0.00331026 0 0.999995)
(0.00148713 -7.27991e-20 0.999999)
(-0.00369212 1.45597e-19 0.999993)
(0.00207804 0 0.999998)
(-0.00391486 1.45517e-19 0.999992)
(0.00262596 -7.27989e-20 0.999997)
(-0.00388288 -1.45597e-19 0.999992)
(0.00302497 1.45598e-19 0.999995)
(-0.00351424 -1.45597e-19 0.999994)
(0.00312907 -1.45598e-19 0.999995)
(-0.00274528 7.27589e-20 0.999996)
(0.00276961 0 0.999996)
(-0.00157603 7.27991e-20 0.999999)
(0.00176049 7.27991e-20 0.999998)
(-0.000173846 0 1)
(1.72164e-05 0 1)
(0.000923438 3.63996e-20 1)
(-0.00154185 0 0.999999)
(0.00275997 0 0.999996)
(-0.00103627 0 0.999999)
(0.00529274 0 0.999986)
(0.0115049 0 0.999934)
(-0.0629766 0 0.998015)
(0.00911063 0 0.999958)
(0.00224087 0 0.999997)
(0.00559043 0 0.999984)
(0.000391175 1.81898e-20 1)
(0.00431519 0 0.999991)
(0.000783195 0 1)
(0.00360111 -1.45597e-19 0.999994)
(0.00137912 -3.63996e-20 0.999999)
(0.0030739 0 0.999995)
(0.00184145 0 0.999998)
(0.00265339 0 0.999996)
(0.00216724 7.2799e-20 0.999998)
(0.00237631 7.2799e-20 0.999997)
(0.00245152 -7.2799e-20 0.999997)
(0.00209842 0 0.999998)
(0.00255738 0 0.999997)
(0.00185893 -7.2799e-20 0.999998)
(0.00255731 0 0.999997)
(0.0016577 0 0.999999)
(0.00250744 -7.27989e-20 0.999997)
(0.0014871 0 0.999999)
(0.00241671 0 0.999997)
(0.00134002 3.63996e-20 0.999999)
(0.00229238 0 0.999997)
(0.00120403 0 0.999999)
(0.00214395 0 0.999998)
(0.00108534 -3.63996e-20 0.999999)
(0.00197778 -7.2799e-20 0.999998)
(0.000978162 0 1)
(0.00179763 0 0.999998)
(0.000874911 0 1)
(0.00160869 7.27591e-20 0.999999)
(0.000778982 0 1)
(0.00141792 0 0.999999)
(0.00068608 -1.81998e-20 1)
(0.0012293 -3.63996e-20 0.999999)
(0.000595381 1.81898e-20 1)
(0.00103584 0 0.999999)
(0.000503787 0 1)
(0.000846322 0 1)
(0.000408139 0 1)
(0.000651766 0 1)
(0.000298023 0 1)
(0.000439114 0 1)
(0.000161969 4.54995e-21 1)
(0.000202448 0 1)
(-4.3557e-05 -1.13749e-21 1)
(-0.000114339 0 1)
(-0.000332139 0 1)
(-0.000372666 0 1)
(-0.000577237 0 1)
(-0.000598852 1.81998e-20 1)
(-0.00079461 0 1)
(-0.000804438 0 1)
(-0.000994007 0 1)
(-0.000991778 0 1)
(-0.0011717 0 0.999999)
(-0.00115802 3.63996e-20 0.999999)
(-0.00132616 -3.63795e-20 0.999999)
(-0.00129573 3.63996e-20 0.999999)
(-0.00144798 0 0.999999)
(-0.00140216 0 0.999999)
(-0.00154208 0 0.999999)
(-0.00147813 0 0.999999)
(-0.00159629 0 0.999999)
(-0.00151417 7.27991e-20 0.999999)
(-0.00161692 0 0.999999)
(-0.00142284 -3.63996e-20 0.999999)
(-0.00153535 0 0.999999)
(-0.00113639 -3.63796e-20 0.999999)
(-0.00141187 0 0.999999)
(-0.000631318 0 1)
(-0.0013969 3.63996e-20 0.999999)
(0.000275814 9.0999e-21 1)
(-0.00152529 7.27991e-20 0.999999)
(0.00167316 0 0.999999)
(-0.000570102 0 1)
(0.00351411 -1.45597e-19 0.999994)
(0.00102479 -3.63996e-20 0.999999)
(0.00198643 0 0.999998)
(0.00201977 0 0.999998)
(0.0020244 7.2799e-20 0.999998)
(0.00198496 7.2799e-20 0.999998)
(0.00202346 7.2799e-20 0.999998)
(0.00198826 -7.2799e-20 0.999998)
(0.00200568 0 0.999998)
(0.00200325 7.2759e-20 0.999998)
(0.00200583 0 0.999998)
(0.00199783 0 0.999998)
(0.00200689 0 0.999998)
(0.00198756 0 0.999998)
(0.00202576 0 0.999998)
(0.00199932 7.2799e-20 0.999998)
(0.00202434 0 0.999998)
(0.00200429 -7.2799e-20 0.999998)
(0.00194597 -7.2799e-20 0.999998)
(0.0018445 0 0.999998)
(0.00217176 0 0.999998)
(0.00165214 7.27991e-20 0.999999)
(0.00257433 0 0.999997)
(0.000991942 3.63996e-20 1)
(0.00352053 0 0.999994)
(-0.000452633 -1.81898e-20 1)
(0.00546277 1.45596e-19 0.999985)
(-0.0028609 7.27989e-20 0.999996)
(0.00850194 0 0.999964)
(-0.0060186 2.91191e-19 0.999982)
(0.011124 0 0.999938)
(-0.0100939 0 0.999949)
(0.0181354 -5.82298e-19 0.999836)
(0.0208461 5.82267e-19 0.999783)
(-0.0530307 0 0.998593)
(0.0275112 0 0.999621)
(0.00658768 0 0.999978)
(-0.00175283 0 0.999998)
(0.0053336 0 0.999986)
(-0.000908054 3.63996e-20 1)
(0.00426856 1.45597e-19 0.999991)
(0.000370608 0 1)
(0.00275094 0 0.999996)
(0.00211291 0 0.999998)
(0.000915621 -3.63996e-20 1)
(0.00405537 0 0.999992)
(-0.00162122 0 0.999999)
(0.00718461 2.91029e-19 0.999974)
(-0.00565389 -1.45596e-19 0.999984)
(0.0106167 0 0.999944)
(-0.0103059 0 0.999947)
(0.0171967 0 0.999852)
(0.0226982 -5.82243e-19 0.999742)
(-0.0559335 0 0.998434)
(0.0287617 1.1643e-18 0.999586)
(0.0087366 5.82371e-19 0.999962)
(-0.00352096 0 0.999994)
(0.00692015 0 0.999976)
(-0.00220105 0 0.999998)
(0.00556095 0 0.999985)
(-0.000785218 -3.63996e-20 1)
(0.00424558 0 0.999991)
(0.000345436 0 1)
(0.00328054 0 0.999995)
(0.00111059 -3.63796e-20 0.999999)
(0.00266709 7.27989e-20 0.999996)
(0.00151512 0 0.999999)
(0.00227728 -7.2799e-20 0.999997)
(0.00175809 -7.27991e-20 0.999998)
(0.00208579 0 0.999998)
(0.001864 0 0.999998)
(0.0020166 -7.2799e-20 0.999998)
(0.00193857 0 0.999998)
(0.00196914 -7.2799e-20 0.999998)
(0.00195238 0 0.999998)
(0.00199412 0 0.999998)
(0.00197557 -7.2799e-20 0.999998)
(0.00198723 7.2799e-20 0.999998)
(0.0019908 0 0.999998)
(0.00198199 0 0.999998)
(0.00199002 0 0.999998)
(0.00198195 -7.2799e-20 0.999998)
(0.00199776 7.2799e-20 0.999998)
(0.0020062 7.2799e-20 0.999998)
(0.00199701 0 0.999998)
(0.00197876 7.2799e-20 0.999998)
(0.00198846 7.2759e-20 0.999998)
(0.00199356 7.2799e-20 0.999998)
(0.00200936 -7.2799e-20 0.999998)
(0.00200646 0 0.999998)
(0.00198556 0 0.999998)
(0.00200683 0 0.999998)
(0.00199402 0 0.999998)
(0.0019739 0 0.999998)
(0.00200097 0 0.999998)
(0.00200709 0 0.999998)
(0.00200255 0 0.999998)
(0.00201597 0 0.999998)
(0.00197391 0 0.999998)
(0.00200618 0 0.999998)
(0.00201245 0 0.999998)
(0.0019627 -7.2799e-20 0.999998)
(0.00212102 0 0.999998)
(0.00171484 0 0.999999)
(0.00256249 0 0.999997)
(0.000956989 0 1)
(0.00379929 -1.45597e-19 0.999993)
(-0.000965125 0 1)
(0.00661487 0 0.999978)
(-0.00554464 0 0.999985)
(0.011572 0 0.999933)
(-0.013939 0 0.999903)
(0.0217256 -5.82256e-19 0.999764)
(0.0214765 -5.81939e-19 0.999769)
(-0.0576268 2.3257e-18 0.998338)
(0.0260719 1.16439e-18 0.99966)
(0.0143611 0 0.999897)
(-0.00663411 0 0.999978)
(0.00849131 2.91186e-19 0.999964)
(-0.00229768 7.2759e-20 0.999997)
(0.005064 1.45596e-19 0.999987)
(0.000220881 0 1)
(0.00310231 0 0.999995)
(0.00129845 0 0.999999)
(0.00220234 7.2759e-20 0.999998)
(0.00172915 7.27991e-20 0.999999)
(0.00203868 -7.2799e-20 0.999998)
(0.00191172 0 0.999998)
(0.00199121 7.2799e-20 0.999998)
(0.00196238 0 0.999998)
(0.00199332 0 0.999998)
(0.00197213 0 0.999998)
(0.00198671 7.2799e-20 0.999998)
(0.0020204 -7.2799e-20 0.999998)
(0.0019826 0 0.999998)
(0.00199803 7.2759e-20 0.999998)
(0.0019795 0 0.999998)
(0.0019976 7.2799e-20 0.999998)
(0.0019886 0 0.999998)
(0.00197315 0 0.999998)
(0.00200623 -7.2799e-20 0.999998)
(0.00199121 0 0.999998)
(0.00202787 0 0.999998)
(0.00198533 0 0.999998)
(0.00197572 0 0.999998)
(0.00200484 -7.2799e-20 0.999998)
(0.0019858 -7.2759e-20 0.999998)
(0.00201109 7.2799e-20 0.999998)
(0.00198531 0 0.999998)
(0.00197792 0 0.999998)
(0.00201394 0 0.999998)
(0.00200459 0 0.999998)
(0.00200547 -7.2759e-20 0.999998)
(0.00195839 0 0.999998)
(0.00208403 0 0.999998)
(0.00178363 -7.27991e-20 0.999998)
(0.00240872 0 0.999997)
(0.00117962 0 0.999999)
(0.00329109 0 0.999995)
(-0.000125987 0 1)
(0.00524368 -1.45596e-19 0.999986)
(-0.00278285 0 0.999996)
(0.00848855 2.91186e-19 0.999964)
(-0.00620665 2.91031e-19 0.999981)
(0.0125038 -5.82348e-19 0.999922)
(-0.0106282 2.9118e-19 0.999944)
(0.0163539 0 0.999866)
(-0.0151671 0 0.999885)
(0.0183859 0 0.999831)
(-0.0165504 0 0.999863)
(0.0171498 5.82308e-19 0.999853)
(-0.0145014 -5.82332e-19 0.999895)
(0.0346614 -1.16409e-18 0.999399)
(0.0396972 0 0.999212)
(0.0954476 0 0.995434)
(0.138303 -4.61437e-18 0.99039)
(0.214534 0 0.976716)
(0.305953 -8.87145e-18 0.952047)
(0.0019967 0 0.999998)
(0.0020011 7.2759e-20 0.999998)
(0.0020022 0 0.999998)
(0.0019967 -7.2799e-20 0.999998)
(0.0020022 0 0.999998)
(0.0019967 -7.2799e-20 0.999998)
(0.0020022 -7.2799e-20 0.999998)
(0.0020011 0 0.999998)
(0.0019967 0 0.999998)
(0.0020022 -7.2799e-20 0.999998)
)
;

boundaryField
{
    inlet
    {
        type            calculated;
        value           uniform (0 0 0);
    }
    endWall
    {
        type            calculated;
        value           uniform (0 0 0);
    }
    sideWall
    {
        type            empty;
    }
}


// ************************************************************************* //
