/*--------------------------------*- C++ -*----------------------------------*\
| =========                 |                                                 |
| \\      /  F ield         | foam-extend: Open Source CFD                    |
|  \\    /   O peration     | Version:     3.2                                |
|   \\  /    A nd           | Web:         http://www.foam-extend.org         |
|    \\/     M anipulation  | For copyright notice see file Copyright         |
\*---------------------------------------------------------------------------*/
FoamFile
{
    version     2.0;
    format      ascii;
    class       areaVectorField;
    location    "2020";
    object      Utau;
}
// * * * * * * * * * * * * * * * * * * * * * * * * * * * * * * * * * * * * * //

dimensions      [0 1 -1 0 0 0 0];

internalField   nonuniform List<vector> 
550
(
(0.0700379 0 -0.000140076)
(0.0823042 0 -0.000164609)
(0.0951075 -2.4691e-23 -0.000190215)
(0.108165 2.90744e-23 -0.000216333)
(0.121129 3.45046e-23 -0.000242254)
(0.133645 0 -0.000267292)
(0.145412 -4.12119e-23 -0.000290816)
(0.156164 -4.25342e-23 -0.000312328)
(0.165737 0 -0.000331493)
(0.174016 3.30753e-29 -0.000348022)
(0.180962 -1.1644e-28 -0.000447468)
(0.186601 0 -0.000373201)
(0.191051 0 -0.000291778)
(0.194374 0 -0.000462581)
(0.196689 -4.71674e-23 -0.000393377)
(0.198156 -4.49263e-29 -0.000321058)
(0.198879 0 -0.000450359)
(0.198967 6.60775e-29 -0.000444356)
(0.198563 -3.45876e-23 -0.00038438)
(0.197798 0 -0.00038588)
(0.196746 -2.63448e-31 -0.000354072)
(0.195475 -2.85543e-23 -0.000383683)
(0.194025 -2.68708e-23 -0.000388051)
(0.192459 0 -0.000356624)
(0.190812 -2.339e-23 -0.000381646)
(0.189124 -2.14322e-23 -0.000378247)
(0.187418 1.9954e-23 -0.000392802)
(0.185734 0 -0.000371406)
(0.184093 2.82255e-30 -0.000350629)
(0.182502 0 -0.000364964)
(0.180956 0 -0.000361892)
(0.179469 1.57037e-23 -0.000372323)
(0.178036 -1.1175e-29 -0.000368762)
(0.176672 1.39355e-23 -0.000352334)
(0.175371 -1.06986e-29 -0.000349835)
(0.174142 0 -0.000336293)
(0.172975 0 -0.000345246)
(0.171872 -1.16332e-23 -0.000354104)
(0.170829 -1.5146e-30 -0.000331003)
(0.169851 0 -0.00033929)
(0.168921 0 -0.000347187)
(0.168054 -8.3472e-24 -0.000326476)
(0.167236 0 -0.000334068)
(0.166469 -7.45987e-24 -0.000341508)
(0.165746 0 -0.000331)
(0.165073 0 -0.000329837)
(0.164439 0 -0.000330204)
(0.163879 3.68007e-24 -0.000297909)
(0.163287 2.15723e-29 -0.000469623)
(0.162842 -2.04969e-28 -6.58945e-05)
(0.162331 1.39316e-23 -0.000586396)
(0.161941 0 -5.38562e-05)
(0.161452 -1.46968e-23 -0.000703327)
(0.161115 -2.65816e-26 0.00016395)
(0.160704 4.49705e-28 -0.00081324)
(0.16036 -1.44867e-28 0.000176629)
(0.159999 -3.25639e-23 -0.00079911)
(0.159677 -3.70217e-29 0.000133493)
(0.159355 -2.67496e-24 -0.000797466)
(0.159066 0 0.000197123)
(0.158788 7.52748e-27 -0.000810348)
(0.158542 -9.05394e-29 0.000193244)
(0.158286 0 -0.000833907)
(0.158051 0 0.000127716)
(0.157817 2.92866e-23 -0.000772137)
(0.1576 -9.34054e-24 0.000206504)
(0.157391 0 -0.000814159)
(0.157185 3.96525e-24 0.00016545)
(0.156973 0 -0.000825496)
(0.156762 -4.11994e-28 0.000211363)
(0.156549 0 -0.000731981)
(0.156376 0 0.000291328)
(0.156166 -3.39437e-27 -0.000579535)
(0.156013 0 0.000178471)
(0.155599 5.63106e-27 0.000224315)
(0.156115 0 0.00289906)
(0.156428 -1.92314e-21 -0.00432621)
(0.155421 0 -0.00093359)
(0.155248 8.94026e-28 0.000521887)
(0.154952 0 -0.000821483)
(0.154744 2.38843e-23 0.000284933)
(0.154598 0 -0.00072325)
(0.154357 1.11243e-24 2.87037e-05)
(0.154235 0 -0.000540322)
(0.153961 -2.72753e-24 -0.000277532)
(0.153891 6.82093e-24 0.000138083)
(0.153759 0 -0.000459187)
(0.153627 -7.61788e-24 0.000135795)
(0.153547 -5.64399e-25 -0.00016427)
(0.153522 0 -4.15653e-05)
(0.15335 -3.94513e-23 -0.000579417)
(0.153255 0 0.000297406)
(0.153174 0 -0.000479633)
(0.153066 0 0.000255265)
(0.153008 8.92075e-24 -0.000279092)
(0.152909 1.40709e-25 0.000161562)
(0.152826 4.42009e-24 -0.000102321)
(0.152783 1.2341e-24 1.85969e-05)
(0.152508 0 0.000218405)
(0.15274 0 0.00168119)
(0.152748 -1.21612e-23 -0.000379326)
(0.153298 2.67756e-26 0.00204463)
(0.153401 -1.08536e-25 -0.00533553)
(0.152047 0 -0.000865012)
(0.151919 0 0.00210349)
(0.151816 0 -0.00043697)
(0.151677 1.06891e-22 0.00167007)
(0.152003 -5.90679e-25 0.000308388)
(0.151909 0 -0.000167526)
(0.151962 0 0.000688567)
(0.151947 1.13031e-23 -0.000318336)
(0.151868 0 0.000539511)
(0.151852 5.33173e-27 0.000181845)
(0.151889 1.04914e-23 0.000269856)
(0.151709 0 -5.65955e-06)
(0.151844 -1.10342e-23 0.000799759)
(0.151482 0 -0.000144565)
(0.152087 -4.77836e-22 0.00315299)
(0.151983 9.94229e-26 -0.00605018)
(0.150612 0 0.00149051)
(0.15075 0 0.00183711)
(0.150488 -8.01804e-23 0.00119199)
(0.151097 0 0.0025732)
(0.15121 -7.09448e-22 -0.00342286)
(0.150391 -1.36764e-23 0.000829819)
(0.150448 0 0.00173007)
(0.150387 0 0.001796)
(0.151225 -1.68023e-22 0.0019378)
(0.151115 6.69354e-26 -0.00437835)
(0.150238 5.79333e-23 0.00104192)
(0.150151 0 0.000994821)
(0.149943 1.71257e-23 0.00124095)
(0.149916 0 0.00145231)
(0.150019 1.41129e-27 0.00188352)
(0.15026 0 0.00182551)
(0.150437 0 0.0024631)
(0.151129 -2.62986e-22 0.00318281)
(0.151806 0 3.75814e-05)
(0.15193 0 0.000551052)
(0.152079 0 0.000713971)
(0.15216 0 0.000935931)
(0.152274 1.38928e-23 0.000993576)
(0.152401 1.0102e-28 0.00103347)
(0.152528 -4.88261e-24 0.000950516)
(0.152657 9.10385e-24 0.00099093)
(0.152779 -1.07184e-24 0.0008791)
(0.152899 0 0.00091373)
(0.153006 4.54355e-26 0.000782737)
(0.153108 -3.55257e-29 0.000820188)
(0.153195 -8.39091e-25 0.000683346)
(0.153274 0 0.000730935)
(0.153342 -1.46862e-28 0.000598966)
(0.153401 0 0.000640914)
(0.153445 1.81687e-24 0.000514016)
(0.153489 0 0.000557029)
(0.153506 0 0.000422944)
(0.153544 7.38182e-29 0.000490017)
(0.153528 -2.19866e-24 0.000264458)
(0.153566 -6.95314e-25 0.000462201)
(0.153502 7.07407e-29 -1.60897e-05)
(0.153533 0 0.000578123)
(0.153451 0 -0.000382331)
(0.153447 0 0.000637393)
(0.153356 1.51965e-27 -0.000751311)
(0.153302 -1.91946e-23 0.000584184)
(0.15321 3.67202e-27 -0.00111313)
(0.153075 -7.72684e-24 0.000248838)
(0.152937 0 -0.00140596)
(0.152715 -6.92504e-24 -0.000364288)
(0.152354 -8.80216e-23 -0.00167391)
(0.151921 0 1.50957e-05)
(0.151656 -7.95476e-28 -0.000764108)
(0.151348 0 2.45181e-05)
(0.151147 8.63519e-24 -0.000491582)
(0.150918 1.75151e-29 3.21112e-05)
(0.150765 0 -0.000280978)
(0.150598 -2.30042e-29 6.36564e-05)
(0.150483 3.01081e-25 -0.000105777)
(0.150373 -6.54519e-29 0.000136383)
(0.150294 -1.52574e-26 1.26171e-05)
(0.150234 0 0.00022921)
(0.150194 1.31042e-25 8.20874e-05)
(0.150169 0 0.000286203)
(0.150158 0 0.000128181)
(0.150157 0 0.00032328)
(0.150167 3.08554e-25 0.00015891)
(0.150183 2.2135e-24 0.000347084)
(0.150207 0 0.000179004)
(0.150236 0 0.000362169)
(0.15027 0 0.000191045)
(0.150307 2.12777e-24 0.000369121)
(0.150348 0 0.000197169)
(0.15039 -9.16572e-29 0.000370958)
(0.150435 3.77925e-25 0.00019708)
(0.150481 -8.88743e-29 0.000365842)
(0.150528 4.10022e-25 0.000190843)
(0.150575 -1.90072e-24 0.000355137)
(0.150623 4.35375e-25 0.000181235)
(0.15067 -1.79199e-24 0.000340654)
(0.150717 4.84051e-29 0.000169261)
(0.150763 0 0.000324698)
(0.150808 -4.79688e-25 0.000155497)
(0.150852 0 0.00030727)
(0.150895 -4.98056e-25 0.000141083)
(0.150936 1.50974e-24 0.000289835)
(0.150977 0 0.000126632)
(0.151016 0 0.000272676)
(0.151054 0 0.000112381)
(0.15109 0 0.000255859)
(0.151126 -4.40626e-29 9.79213e-05)
(0.15116 0 0.000238619)
(0.151194 2.78773e-25 8.34031e-05)
(0.151226 3.61157e-29 0.000222172)
(0.151258 0 6.94122e-05)
(0.151288 5.72711e-25 0.000206881)
(0.151318 0 5.63861e-05)
(0.151347 -5.44378e-25 0.000192055)
(0.151376 0 4.43382e-05)
(0.151404 0 0.00017933)
(0.151433 9.93877e-30 3.41425e-05)
(0.151461 0 0.000169039)
(0.15149 0 2.57896e-05)
(0.151518 0 0.000161053)
(0.151548 -9.56987e-30 2.02744e-05)
(0.151578 -5.64028e-25 0.000156803)
(0.151609 0 1.67062e-05)
(0.151642 -3.59595e-29 0.000154042)
(0.151676 6.0197e-26 1.39805e-05)
(0.151711 0 0.000152042)
(0.151748 9.48567e-30 1.13443e-05)
(0.151786 0 0.000149911)
(0.151826 2.657e-26 9.23355e-06)
(0.151867 6.94789e-25 0.000148578)
(0.15191 4.73647e-30 7.61219e-06)
(0.151954 0 0.00014876)
(0.152 0 7.86845e-06)
(0.152047 0 0.00015013)
(0.152096 -2.00921e-26 9.36252e-06)
(0.152146 8.23911e-25 0.00015367)
(0.152197 0 1.25078e-05)
(0.15225 -8.75545e-25 0.000159186)
(0.152304 0 1.72007e-05)
(0.15236 4.01424e-29 0.000168107)
(0.152418 0 2.4449e-05)
(0.152477 0 0.000178374)
(0.152536 0 3.15841e-05)
(0.152597 0 0.000188499)
(0.152657 0 3.67207e-05)
(0.152718 1.03069e-24 0.000198739)
(0.152778 0 3.9789e-05)
(0.152841 1.05793e-24 0.000210382)
(0.152899 -2.27463e-29 3.93423e-05)
(0.152964 -2.19063e-24 0.000225751)
(0.153019 -7.43575e-26 3.26939e-05)
(0.153087 2.3962e-24 0.000250599)
(0.153139 -1.5116e-29 1.60465e-05)
(0.153211 -2.91018e-24 0.000292613)
(0.153258 -8.95466e-26 -1.6728e-05)
(0.153335 3.83126e-24 0.000355385)
(0.153381 6.29821e-25 -6.85038e-05)
(0.153461 -5.07769e-24 0.000435169)
(0.153508 0 -0.000141927)
(0.153587 -3.50713e-28 0.000508418)
(0.153635 5.11857e-24 -0.000228476)
(0.153709 1.47239e-23 0.000567517)
(0.153757 0 -0.000319514)
(0.153821 1.64385e-23 0.000602194)
(0.15387 7.67856e-24 -0.000404059)
(0.153917 -1.72771e-23 0.000597646)
(0.153967 -1.68007e-23 -0.000465747)
(0.15399 -1.674e-23 0.000541162)
(0.154042 1.66721e-23 -0.00048201)
(0.154036 7.12876e-24 0.000422875)
(0.154088 4.44059e-28 -0.000426764)
(0.154053 4.71186e-24 0.000242793)
(0.154099 -4.40667e-24 -0.00027129)
(0.154047 0 2.67805e-05)
(0.154073 4.06883e-31 -2.65258e-06)
(0.154049 -1.07389e-24 -0.000142255)
(0.154039 9.52392e-29 0.000237506)
(0.154097 3.15642e-28 -0.000425305)
(0.15388 0 0.000159461)
(0.154081 -3.34044e-28 -0.000815521)
(0.152694 0 -0.00175685)
(0.152735 0 0.00963787)
(0.154553 1.02427e-26 -0.00140813)
(0.154458 1.02629e-27 -0.00034612)
(0.154615 -1.09772e-27 -0.000864378)
(0.1545 -1.84149e-25 -6.04367e-05)
(0.154493 7.08927e-28 -0.000666673)
(0.154395 1.44407e-28 -0.000120921)
(0.154365 8.98108e-24 -0.00055589)
(0.154287 -7.34827e-25 -0.00021278)
(0.154258 1.43707e-28 -0.000474175)
(0.154196 0 -0.000283944)
(0.154168 -7.0908e-29 -0.00040907)
(0.154118 -5.51816e-25 -0.000334012)
(0.154088 -8.24195e-25 -0.000366162)
(0.154046 6.22411e-25 -0.000377648)
(0.154022 0 -0.000323203)
(0.153986 -4.26185e-29 -0.000393804)
(0.153965 -4.74541e-25 -0.000286209)
(0.153934 0 -0.000393657)
(0.153911 7.86e-29 -0.00025514)
(0.153884 1.31264e-24 -0.000385857)
(0.153862 0 -0.000228809)
(0.153838 0 -0.000371784)
(0.153817 6.53705e-25 -0.000206118)
(0.153796 7.85173e-29 -0.00035256)
(0.153776 4.77284e-29 -0.000185151)
(0.153759 0 -0.000329652)
(0.153741 -6.95316e-25 -0.000166862)
(0.153728 1.03388e-24 -0.000304041)
(0.153713 0 -0.000150356)
(0.153703 0 -0.000276302)
(0.153692 0 -0.000134467)
(0.153687 -6.74789e-25 -0.000247234)
(0.153679 3.63104e-29 -0.000119713)
(0.153678 0 -0.000217904)
(0.153675 -3.11311e-25 -0.000105433)
(0.153678 1.46813e-25 -0.000188916)
(0.153678 2.97187e-25 -9.14972e-05)
(0.153685 0 -0.000159193)
(0.15369 -1.18423e-29 -7.74269e-05)
(0.1537 0 -0.00013008)
(0.153708 9.85434e-30 -6.27343e-05)
(0.153721 0 -0.00010019)
(0.153732 0 -4.58158e-05)
(0.153748 0 -6.7513e-05)
(0.153762 5.2272e-26 -2.49047e-05)
(0.15378 0 -3.11325e-05)
(0.153799 -1.48332e-26 6.69902e-06)
(0.153822 0 1.75878e-05)
(0.15385 -1.98657e-30 5.10996e-05)
(0.153881 0 5.73464e-05)
(0.153917 3.97665e-30 8.88467e-05)
(0.153955 2.31795e-25 9.21965e-05)
(0.153997 0 0.000122368)
(0.154042 0 0.000123917)
(0.154089 0 0.000153166)
(0.154139 -3.30039e-30 0.000152872)
(0.154191 0 0.000180667)
(0.154246 5.11973e-25 0.00017862)
(0.154303 -7.32932e-25 0.000204631)
(0.154361 5.08605e-25 0.000200011)
(0.154422 0 0.000223599)
(0.154484 0 0.000216612)
(0.154547 0 0.000238324)
(0.154611 -2.72773e-30 0.000228536)
(0.154677 0 0.00024691)
(0.154743 9.06015e-25 0.000234308)
(0.154811 0 0.000250318)
(0.154875 -3.18365e-25 0.000220363)
(0.154945 0 0.000237894)
(0.155 -1.80197e-25 0.00017614)
(0.155071 0 0.000218941)
(0.155117 -3.65211e-29 9.79282e-05)
(0.155189 7.51281e-25 0.000216782)
(0.155223 -2.10714e-25 -4.28127e-05)
(0.155288 3.2778e-24 0.00023686)
(0.155326 0 -0.000259885)
(0.155354 0 8.85674e-05)
(0.155363 1.70478e-23 -0.000545966)
(0.15528 -1.89571e-25 -0.00015913)
(0.155254 0 -0.000308401)
(0.15518 0 -0.000313428)
(0.155104 -1.79649e-24 -0.000313993)
(0.155024 -1.23539e-24 -0.000307718)
(0.154947 -1.22536e-24 -0.000313529)
(0.15487 9.64159e-25 -0.000307923)
(0.154796 5.28694e-30 -0.000310473)
(0.154724 -9.27905e-25 -0.000309953)
(0.154654 4.12169e-30 -0.000310211)
(0.154586 0 -0.000308837)
(0.15452 4.27653e-30 -0.000310106)
(0.154456 3.10429e-30 -0.000306992)
(0.154393 0 -0.000312764)
(0.154331 -7.2019e-25 -0.000308558)
(0.15427 -6.23741e-30 -0.000312294)
(0.154212 7.1152e-25 -0.000309086)
(0.15415 8.96309e-26 -0.000299971)
(0.154108 0 -0.000284252)
(0.15404 3.39238e-29 -0.000334539)
(0.154006 -9.87917e-26 -0.00025444)
(0.153921 0 -0.000396245)
(0.153906 5.87846e-25 -0.000152666)
(0.153797 0 -0.000541449)
(0.153807 -1.04357e-24 6.9618e-05)
(0.153672 -1.64978e-23 -0.000839486)
(0.153689 9.9998e-24 0.00043969)
(0.153554 0 -0.00130555)
(0.153508 7.63185e-23 0.000923921)
(0.153472 0 -0.00170732)
(0.153267 0 0.00154715)
(0.153721 5.85094e-22 -0.00278826)
(0.151994 -3.78005e-22 -0.00316917)
(0.152004 0 0.00807222)
(0.153168 4.49296e-26 -0.00421543)
(0.152252 0 -0.00100301)
(0.152252 0 0.000266871)
(0.152013 8.90558e-28 -0.00081079)
(0.151919 4.75584e-24 0.00013795)
(0.151881 -1.15541e-23 -0.000648319)
(0.151799 1.46639e-28 -5.62578e-05)
(0.151847 0 -0.000417722)
(0.15178 0 -0.0003207)
(0.151864 -1.19607e-24 -0.000139049)
(0.151795 0 -0.000615591)
(0.151896 0 0.000246257)
(0.151822 -4.77907e-23 -0.00109081)
(0.151874 -3.7563e-23 0.000858694)
(0.151908 0 -0.00161286)
(0.151773 -6.11988e-27 0.00156424)
(0.152312 0 -0.00261966)
(0.150594 4.13847e-22 -0.00341911)
(0.150645 0 0.00843928)
(0.151951 -1.66391e-21 -0.00437217)
(0.150966 -2.58092e-22 -0.00131898)
(0.151 0 0.000531668)
(0.150779 0 -0.00104344)
(0.150703 0 0.000331707)
(0.150686 0 -0.000837969)
(0.150633 -4.21236e-24 0.00011828)
(0.150678 0 -0.000639721)
(0.15066 0 -5.20436e-05)
(0.15072 0 -0.000494444)
(0.150727 -1.7174e-24 -0.000167395)
(0.150781 -3.65682e-25 -0.000402149)
(0.1508 9.90764e-29 -0.000228481)
(0.150846 -3.93279e-25 -0.00034352)
(0.150868 -1.30054e-24 -0.000265241)
(0.150902 0 -0.00031475)
(0.150923 1.93122e-29 -0.000281321)
(0.150945 -6.3562e-25 -0.000304397)
(0.150963 0 -0.000292653)
(0.15098 -5.75591e-25 -0.000297301)
(0.150993 0 -0.000294796)
(0.151002 -2.92775e-30 -0.000301118)
(0.151008 -3.73345e-25 -0.000298328)
(0.151012 3.07813e-25 -0.000300095)
(0.151012 0 -0.000300635)
(0.15101 0 -0.0002993)
(0.151005 0 -0.000300504)
(0.150999 -2.00846e-25 -0.000299272)
(0.15099 1.14045e-25 -0.000301643)
(0.15098 8.17999e-26 -0.000302896)
(0.150967 0 -0.000301484)
(0.150954 1.26746e-25 -0.000298702)
(0.15094 5.78868e-26 -0.000300139)
(0.150925 1.92172e-26 -0.000300878)
(0.150908 3.39539e-26 -0.000303229)
(0.15089 0 -0.000302755)
(0.150872 -8.69448e-31 -0.000299566)
(0.150853 1.68533e-30 -0.000302737)
(0.150834 0 -0.000300767)
(0.150815 0 -0.000297694)
(0.150796 0 -0.000301738)
(0.150776 -1.10049e-30 -0.000302622)
(0.150756 0 -0.000301897)
(0.150736 0 -0.000303881)
(0.150717 0 -0.000297502)
(0.150702 0 -0.000302336)
(0.150681 0 -0.000303238)
(0.150674 2.582e-25 -0.000295729)
(0.150644 0 -0.000319519)
(0.150652 0 -0.000258344)
(0.150601 -7.72629e-29 -0.000385914)
(0.150632 0 -0.000144153)
(0.150543 6.214e-24 -0.000571962)
(0.150603 0 0.000145351)
(0.150467 0 -0.00099534)
(0.150522 0 0.000834603)
(0.150439 5.38843e-27 -0.00174099)
(0.150336 0 0.00209574)
(0.150869 6.88009e-22 -0.00327851)
(0.149067 3.9442e-22 -0.00320218)
(0.149092 5.71806e-21 0.00860598)
(0.150524 -1.56821e-21 -0.00392578)
(0.149524 -6.06316e-27 -0.00214755)
(0.149456 0 0.000991527)
(0.149298 -6.63735e-23 -0.00126778)
(0.149128 1.28883e-23 0.000342649)
(0.149125 -1.24799e-23 -0.000755178)
(0.149018 0 -3.29152e-05)
(0.149041 0 -0.000462374)
(0.149 -1.48907e-28 -0.00019347)
(0.149029 7.23782e-25 -0.000328213)
(0.149028 1.22232e-24 -0.000257693)
(0.149052 -6.65939e-25 -0.00030387)
(0.149061 0 -0.000284964)
(0.149076 6.93957e-25 -0.000296842)
(0.149087 0 -0.000292566)
(0.149097 0 -0.000297199)
(0.149103 0 -0.000294051)
(0.149107 3.84543e-25 -0.000296232)
(0.149105 -2.41183e-25 -0.000301253)
(0.149099 0 -0.000295605)
(0.14909 2.10018e-25 -0.000297887)
(0.149077 -9.64326e-31 -0.000295099)
(0.14906 6.57574e-26 -0.000297763)
(0.149039 0 -0.000296379)
(0.149015 0 -0.00029403)
(0.148987 1.22007e-25 -0.000298903)
(0.148956 0 -0.000296604)
(0.14892 0 -0.000301991)
(0.148881 0 -0.00029558)
(0.14884 0 -0.000294067)
(0.148796 2.64917e-25 -0.000298313)
(0.148748 2.19831e-25 -0.000295385)
(0.148698 -3.16684e-25 -0.000299045)
(0.148644 0 -0.000295104)
(0.148589 0 -0.000293897)
(0.14853 -4.34464e-30 -0.00029913)
(0.148471 -9.60482e-31 -0.000297623)
(0.148404 7.18847e-26 -0.000297621)
(0.148348 0 -0.000290525)
(0.14827 0 -0.000309)
(0.148222 2.9967e-25 -0.000264374)
(0.148124 0 -0.00035679)
(0.148094 0 -0.000174694)
(0.147965 -3.55377e-28 -0.000486968)
(0.147964 0 1.86417e-05)
(0.147789 1.35669e-23 -0.000774967)
(0.147818 0 0.000411358)
(0.147603 -5.87948e-23 -0.00125298)
(0.147637 6.30638e-23 0.000916349)
(0.147386 1.97682e-22 -0.00184304)
(0.147393 1.0429e-22 0.00156661)
(0.147163 0 -0.002407)
(0.147124 9.38835e-27 0.00223169)
(0.147052 0 -0.00270414)
(0.147016 0 0.0024335)
(0.147265 -1.67998e-22 -0.00252594)
(0.147567 -5.87249e-22 0.00214015)
(0.148442 5.5033e-22 -0.0051483)
(0.148397 -4.08524e-26 -0.00589558)
(0.147393 0 -0.0141329)
(0.143973 1.62499e-20 -0.020105)
(0.136512 4.72569e-25 -0.0299846)
(0.117904 1.04705e-19 -0.0378899)
(0.10659 -1.3579e-25 -0.000212828)
(0.0987491 1.12675e-23 -0.000197607)
(0.090422 0 -0.000181043)
(0.0832012 3.37964e-22 -0.000166128)
(0.0714219 0 -0.000143001)
(0.0615799 -1.16276e-22 -0.000122957)
(-0.0528765 6.01303e-22 0.000105869)
(-0.0547174 0 0.000109495)
(-0.0689007 0 0.000137574)
(-0.0865699 -1.02649e-21 0.00017333)
)
;

boundaryField
{
    inlet
    {
        type            calculated;
        value           uniform (0 0 0);
    }
    endWall
    {
        type            calculated;
        value           uniform (0 0 0);
    }
    sideWall
    {
        type            empty;
    }
}


// ************************************************************************* //
