/*--------------------------------*- C++ -*----------------------------------*\
| =========                 |                                                 |
| \\      /  F ield         | foam-extend: Open Source CFD                    |
|  \\    /   O peration     | Version:     3.2                                |
|   \\  /    A nd           | Web:         http://www.foam-extend.org         |
|    \\/     M anipulation  | For copyright notice see file Copyright         |
\*---------------------------------------------------------------------------*/
FoamFile
{
    version     2.0;
    format      ascii;
    class       areaVectorField;
    location    "2020";
    object      Wt;
}
// * * * * * * * * * * * * * * * * * * * * * * * * * * * * * * * * * * * * * //

dimensions      [1 1 -2 0 0 0 0];

internalField   nonuniform List<vector> 
550
(
(5.45265e-10 0 -1.09053e-12)
(5.45267e-10 0 -1.09054e-12)
(5.45264e-10 1.98454e-26 -1.09052e-12)
(5.45271e-10 -1.98455e-26 -1.09055e-12)
(5.45256e-10 -1.98455e-26 -1.09049e-12)
(5.45268e-10 0 -1.09054e-12)
(5.4525e-10 1.98452e-26 -1.09047e-12)
(5.45265e-10 1.98452e-26 -1.09053e-12)
(5.45295e-10 0 -1.09065e-12)
(5.4525e-10 0 -1.09047e-12)
(6.74143e-10 0 -1.66697e-12)
(5.45265e-10 0 -1.09053e-12)
(4.16372e-10 0 -6.35893e-13)
(6.48823e-10 0 -1.5441e-12)
(5.45265e-10 1.98452e-26 -1.09053e-12)
(4.41728e-10 0 -7.157e-13)
(6.17374e-10 0 -1.39804e-12)
(6.08872e-10 0 -1.3598e-12)
(5.27767e-10 1.98452e-26 -1.02166e-12)
(5.31874e-10 0 -1.03762e-12)
(4.9064e-10 0 -8.82974e-13)
(5.35129e-10 1.98452e-26 -1.05036e-12)
(5.45265e-10 1.98452e-26 -1.09053e-12)
(5.05185e-10 0 -9.36101e-13)
(5.45295e-10 1.98463e-26 -1.09065e-12)
(5.45265e-10 1.98452e-26 -1.09053e-12)
(5.71401e-10 -1.98452e-26 -1.19758e-12)
(5.45175e-10 0 -1.09017e-12)
(5.19265e-10 0 -9.89007e-13)
(5.45205e-10 0 -1.09029e-12)
(5.45235e-10 0 -1.09041e-12)
(5.65598e-10 -1.98452e-26 -1.17338e-12)
(5.64698e-10 0 -1.16965e-12)
(5.43706e-10 -1.98452e-26 -1.0843e-12)
(5.43856e-10 0 -1.0849e-12)
(5.26491e-10 0 -1.01673e-12)
(5.44156e-10 0 -1.0861e-12)
(5.61699e-10 1.98452e-26 -1.15726e-12)
(5.28261e-10 0 -1.02358e-12)
(5.44605e-10 0 -1.08789e-12)
(5.6035e-10 0 -1.1517e-12)
(5.2964e-10 1.98463e-26 -1.02892e-12)
(5.44605e-10 0 -1.08789e-12)
(5.593e-10 1.98452e-26 -1.14739e-12)
(5.44455e-10 0 -1.08729e-12)
(5.44755e-10 0 -1.08849e-12)
(5.47463e-10 0 -1.09934e-12)
(4.95608e-10 -1.98453e-26 -9.00947e-13)
(7.84105e-10 0 -2.25514e-12)
(1.10322e-10 0 -4.4642e-14)
(9.84834e-10 -3.96901e-26 -3.55756e-12)
(9.06687e-11 0 -3.01533e-14)
(1.18764e-09 3.96921e-26 -5.17368e-12)
(-2.7743e-10 -9.92265e-27 -2.8231e-13)
(1.37962e-09 0 -6.98155e-12)
(-3.00294e-10 0 -3.3076e-13)
(1.36163e-09 3.9694e-26 -6.80061e-12)
(-2.27928e-10 0 -1.90553e-13)
(1.36432e-09 3.9694e-26 -6.82753e-12)
(-3.37861e-10 0 -4.18695e-13)
(1.3913e-09 0 -7.10024e-12)
(-3.32307e-10 0 -4.05043e-13)
(1.43629e-09 0 -7.56692e-12)
(-2.20306e-10 0 -1.78021e-13)
(1.33386e-09 3.96941e-26 -6.52605e-12)
(-3.57233e-10 -9.92374e-27 -4.68085e-13)
(1.41026e-09 0 -7.29504e-12)
(-2.86968e-10 9.92374e-27 -3.02057e-13)
(1.4337e-09 0 -7.53957e-12)
(-3.67593e-10 0 -4.95628e-13)
(1.27474e-09 0 -5.96034e-12)
(-5.07913e-10 0 -9.4624e-13)
(1.01173e-09 0 -3.75455e-12)
(-3.11878e-10 0 -3.56773e-13)
(-3.93033e-10 0 -5.66605e-13)
(-5.06109e-09 0 -9.3985e-11)
(7.53428e-09 3.17317e-25 -2.08371e-10)
(1.63761e-09 0 -9.83683e-12)
(-9.16481e-10 0 -3.08087e-12)
(1.44534e-09 0 -7.66251e-12)
(-5.02004e-10 1.98474e-26 -9.2435e-13)
(1.27543e-09 0 -5.9668e-12)
(-5.06981e-11 -2.48094e-27 -9.42766e-15)
(9.55087e-10 0 -3.34589e-12)
(4.9145e-10 1.98474e-26 -8.85893e-13)
(-2.44627e-10 9.91829e-27 -2.19498e-13)
(8.14187e-10 0 -2.43149e-12)
(-2.40988e-10 -9.92374e-27 -2.13016e-13)
(2.91673e-10 -9.92374e-27 -3.12042e-13)
(7.38142e-11 0 -1.99848e-14)
(1.0301e-09 3.96726e-26 -3.89214e-12)
(-5.29069e-10 0 -1.02671e-12)
(8.53691e-10 0 -2.67317e-12)
(-4.54665e-10 0 -7.58237e-13)
(4.97294e-10 1.98474e-26 -9.07084e-13)
(-2.88061e-10 -9.92374e-27 -3.04362e-13)
(1.82535e-10 -4.95915e-27 -1.22212e-13)
(-3.31853e-11 -1.24047e-27 -4.03936e-15)
(-3.90435e-10 0 -5.59139e-13)
(-3.00049e-09 0 -3.30261e-11)
(6.7704e-10 -1.98474e-26 -1.68133e-12)
(-3.63565e-09 0 -4.84912e-11)
(9.47114e-09 0 -3.2942e-10)
(1.55099e-09 0 -8.82375e-12)
(-3.77419e-09 0 -5.22578e-11)
(7.84708e-10 0 -2.25861e-12)
(-3.00152e-09 7.93804e-26 -3.30487e-11)
(-5.53124e-10 -1.98365e-26 -1.12219e-12)
(3.00661e-10 0 -3.31571e-13)
(-1.23533e-09 0 -5.59752e-12)
(5.71176e-10 -1.98474e-26 -1.19664e-12)
(-9.68519e-10 0 -3.44067e-12)
(-3.26482e-10 0 -3.90967e-13)
(-4.84379e-10 -1.98474e-26 -8.60582e-13)
(1.01707e-11 0 -3.79422e-16)
(-1.43592e-09 -3.96939e-26 -7.56296e-12)
(2.60185e-10 0 -2.48305e-13)
(-5.64967e-09 -1.58712e-25 -1.17126e-10)
(1.08359e-08 0 -4.31358e-10)
(-2.69782e-09 0 -2.66985e-11)
(-3.32194e-09 0 -4.04827e-11)
(-2.15934e-09 -7.9385e-26 -1.71038e-11)
(-4.64163e-09 0 -7.90475e-11)
(6.16829e-09 1.58611e-25 -1.39628e-10)
(-1.50428e-09 -3.96938e-26 -8.30022e-12)
(-3.13472e-09 0 -3.60476e-11)
(-3.25548e-09 0 -3.88788e-11)
(-3.49294e-09 -1.58754e-25 -4.47584e-11)
(7.89259e-09 0 -2.28678e-10)
(-1.89067e-09 7.93426e-26 -1.31121e-11)
(-1.80625e-09 0 -1.19672e-11)
(-2.2562e-09 7.93846e-26 -1.86726e-11)
(-2.64088e-09 0 -2.55835e-11)
(-3.42243e-09 0 -4.29693e-11)
(-3.31174e-09 0 -4.02344e-11)
(-4.46262e-09 0 -7.30662e-11)
(-5.73917e-09 -1.5871e-25 -1.20868e-10)
(-6.74937e-11 0 -1.67088e-14)
(-9.88834e-10 0 -3.58652e-12)
(-1.27992e-09 0 -6.00887e-12)
(-1.6769e-09 0 -1.03146e-11)
(-1.77884e-09 7.93866e-26 -1.16068e-11)
(-1.84872e-09 0 -1.25366e-11)
(-1.69892e-09 -7.93869e-26 -1.05873e-11)
(-1.76965e-09 7.93867e-26 -1.14872e-11)
(-1.5687e-09 -3.96719e-26 -9.02637e-12)
(-1.62921e-09 0 -9.73623e-12)
(-1.39468e-09 3.9694e-26 -7.13479e-12)
(-1.46044e-09 0 -7.82345e-12)
(-1.21609e-09 3.96942e-26 -5.42452e-12)
(-1.30011e-09 0 -6.19996e-12)
(-1.06491e-09 0 -4.15965e-12)
(-1.13905e-09 0 -4.75901e-12)
(-9.13269e-10 -3.96946e-26 -3.05931e-12)
(-9.89409e-10 0 -3.59069e-12)
(-7.51162e-10 0 -2.06962e-12)
(-8.70069e-10 0 -2.77672e-12)
(-4.69621e-10 1.98474e-26 -8.0894e-13)
(-8.20562e-10 -3.96947e-26 -2.46972e-12)
(2.85767e-11 0 -2.99533e-15)
(-1.02658e-09 0 -3.86554e-12)
(6.79278e-10 0 -1.69246e-12)
(-1.13245e-09 0 -4.70402e-12)
(1.33564e-09 0 -6.54345e-12)
(-1.0389e-09 -3.96944e-26 -3.95892e-12)
(1.98069e-09 0 -1.43905e-11)
(-4.43192e-10 -1.98475e-26 -7.20453e-13)
(2.50612e-09 0 -2.30389e-11)
(6.50339e-10 1.98474e-26 -1.55132e-12)
(2.99505e-09 7.93804e-26 -3.29065e-11)
(-2.70904e-11 0 -2.69186e-15)
(1.37361e-09 0 -6.92086e-12)
(-4.41662e-11 0 -7.15486e-15)
(8.86689e-10 -3.96728e-26 -2.88382e-12)
(-5.80089e-11 0 -1.23427e-14)
(5.08102e-10 0 -9.46943e-13)
(-1.1524e-10 0 -4.8711e-14)
(1.9164e-10 -4.96187e-27 -1.34707e-13)
(-2.47268e-10 0 -2.24263e-13)
(-2.28874e-11 6.20235e-28 -1.92138e-15)
(-4.15953e-10 0 -6.34614e-13)
(-1.49006e-10 -4.96187e-27 -8.1438e-14)
(-5.19605e-10 0 -9.90305e-13)
(-2.32732e-10 0 -1.98671e-13)
(-5.86963e-10 0 -1.2637e-12)
(-2.88508e-10 -9.92374e-27 -3.05307e-13)
(-6.30072e-10 1.98474e-26 -1.45614e-12)
(-3.249e-10 0 -3.87188e-13)
(-6.57225e-10 0 -1.58435e-12)
(-3.4661e-10 0 -4.4066e-13)
(-6.69526e-10 1.98474e-26 -1.64421e-12)
(-3.57536e-10 0 -4.6888e-13)
(-6.72486e-10 0 -1.65878e-12)
(-3.57167e-10 -9.92374e-27 -4.67912e-13)
(-6.62811e-10 0 -1.6114e-12)
(-3.45649e-10 -9.91828e-27 -4.3822e-13)
(-6.43013e-10 -1.98474e-26 -1.51657e-12)
(-3.28041e-10 -9.92374e-27 -3.94711e-13)
(-6.16402e-10 -1.98474e-26 -1.39364e-12)
(-3.06177e-10 0 -3.43847e-13)
(-5.87168e-10 0 -1.26458e-12)
(-2.81109e-10 9.92374e-27 -2.89849e-13)
(-5.55324e-10 0 -1.13114e-12)
(-2.54906e-10 9.92374e-27 -2.38331e-13)
(-5.23521e-10 1.98474e-26 -1.00529e-12)
(-2.28672e-10 0 -1.91799e-13)
(-4.9227e-10 0 -8.8885e-13)
(-2.02833e-10 0 -1.50903e-13)
(-4.61682e-10 0 -7.81821e-13)
(-1.76651e-10 0 -1.1446e-13)
(-4.30374e-10 0 -6.79381e-13)
(-1.50393e-10 -4.95915e-27 -8.29609e-14)
(-4.00537e-10 0 -5.88445e-13)
(-1.25112e-10 0 -5.74137e-14)
(-3.72817e-10 9.92373e-27 -5.09815e-13)
(-1.01592e-10 0 -3.78565e-14)
(-3.45964e-10 -9.92374e-27 -4.39019e-13)
(-7.98546e-11 0 -2.33895e-14)
(-3.22919e-10 0 -3.8248e-13)
(-6.14688e-11 0 -1.38589e-14)
(-3.04274e-10 0 -3.39586e-13)
(-4.64131e-11 0 -7.90136e-15)
(-2.8979e-10 0 -3.08027e-13)
(-3.64736e-11 0 -4.87952e-15)
(-2.82031e-10 -9.92374e-27 -2.91754e-13)
(-3.00421e-11 0 -3.3104e-15)
(-2.7695e-10 0 -2.81334e-13)
(-2.51296e-11 -1.24047e-27 -2.31629e-15)
(-2.73229e-10 0 -2.73826e-13)
(-2.03813e-11 0 -1.52365e-15)
(-2.69265e-10 0 -2.65938e-13)
(-1.65807e-11 -6.20235e-28 -1.00838e-15)
(-2.66728e-10 9.92374e-27 -2.6095e-13)
(-1.36616e-11 0 -6.8458e-16)
(-2.66903e-10 0 -2.61292e-13)
(-1.41131e-11 0 -7.30581e-16)
(-2.69196e-10 0 -2.65802e-13)
(-1.67824e-11 6.20235e-28 -1.03307e-15)
(-2.75365e-10 9.92374e-27 -2.78125e-13)
(-2.24055e-11 0 -1.84132e-15)
(-2.85054e-10 -9.92374e-27 -2.9804e-13)
(-3.07902e-11 0 -3.47732e-15)
(-3.0081e-10 0 -3.31898e-13)
(-4.37325e-11 0 -7.01502e-15)
(-3.18938e-10 0 -3.73107e-13)
(-5.64514e-11 0 -1.16888e-14)
(-3.36778e-10 0 -4.16015e-13)
(-6.55806e-11 0 -1.57751e-14)
(-3.54791e-10 9.92374e-27 -4.61706e-13)
(-7.10039e-11 0 -1.8492e-14)
(-3.75274e-10 9.91828e-27 -5.16556e-13)
(-7.0151e-11 0 -1.80505e-14)
(-4.02364e-10 -1.98475e-26 -5.93828e-13)
(-5.82506e-11 2.48094e-27 -1.24457e-14)
(-4.46293e-10 1.98475e-26 -7.30569e-13)
(-2.85677e-11 0 -2.99343e-15)
(-5.20695e-10 -1.98474e-26 -9.94465e-13)
(2.97577e-11 1.24047e-27 -3.24802e-15)
(-6.3188e-10 1.98474e-26 -1.46451e-12)
(1.21765e-10 -4.96188e-27 -5.43831e-14)
(-7.731e-10 -1.98473e-26 -2.19228e-12)
(2.52066e-10 0 -2.33049e-13)
(-9.02485e-10 0 -2.98748e-12)
(4.05442e-10 -1.98475e-26 -6.02947e-13)
(-1.00659e-09 3.96945e-26 -3.71647e-12)
(5.66542e-10 0 -1.1773e-12)
(-1.06732e-09 3.96726e-26 -4.17843e-12)
(7.15923e-10 -1.98474e-26 -1.87999e-12)
(-1.0586e-09 -3.96944e-26 -4.11044e-12)
(8.24704e-10 3.96946e-26 -2.49471e-12)
(-9.58095e-10 -3.96945e-26 -3.367e-12)
(8.53086e-10 -3.96946e-26 -2.66938e-12)
(-7.48454e-10 1.98364e-26 -2.05473e-12)
(7.55085e-10 0 -2.0913e-12)
(-4.29679e-10 1.98475e-26 -6.77189e-13)
(4.79968e-10 1.98474e-26 -8.44979e-13)
(-4.73962e-11 0 -8.23961e-15)
(4.69376e-12 0 -8.08095e-17)
(2.5176e-10 9.92374e-27 -2.32485e-13)
(-4.20361e-10 0 -6.48136e-13)
(7.52457e-10 0 -2.07677e-12)
(-2.82521e-10 0 -2.92767e-13)
(1.44296e-09 0 -7.63731e-12)
(3.13642e-09 0 -3.60866e-11)
(-1.71355e-08 0 -1.08128e-09)
(2.48376e-09 0 -2.26296e-11)
(6.10934e-10 0 -1.36902e-12)
(1.52412e-09 0 -8.52061e-12)
(1.06648e-10 4.95915e-27 -4.17179e-14)
(1.17646e-09 0 -5.07668e-12)
(2.13525e-10 0 -1.67232e-13)
(9.81777e-10 -3.96945e-26 -3.53551e-12)
(3.75994e-10 -9.92373e-27 -5.1854e-13)
(8.38045e-10 0 -2.57608e-12)
(5.02041e-10 0 -9.24485e-13)
(7.234e-10 0 -1.91947e-12)
(5.90861e-10 1.98474e-26 -1.28054e-12)
(6.47862e-10 1.98474e-26 -1.53953e-12)
(6.68365e-10 -1.98474e-26 -1.63851e-12)
(5.72098e-10 0 -1.2005e-12)
(6.97227e-10 0 -1.78308e-12)
(5.06805e-10 -1.98474e-26 -9.42115e-13)
(6.97207e-10 0 -1.78298e-12)
(4.51945e-10 0 -7.49192e-13)
(6.83611e-10 -1.98474e-26 -1.71412e-12)
(4.05434e-10 0 -6.02923e-13)
(6.58875e-10 0 -1.59231e-12)
(3.65334e-10 9.92373e-27 -4.89556e-13)
(6.24978e-10 0 -1.43269e-12)
(3.28259e-10 0 -3.95234e-13)
(5.84511e-10 0 -1.25316e-12)
(2.959e-10 -9.92374e-27 -3.21153e-13)
(5.39209e-10 -1.98474e-26 -1.06644e-12)
(2.6668e-10 0 -2.60856e-13)
(4.90093e-10 0 -8.81007e-13)
(2.3853e-10 0 -2.08693e-13)
(4.38581e-10 1.98365e-26 -7.0554e-13)
(2.12377e-10 0 -1.65438e-13)
(3.86573e-10 0 -5.48131e-13)
(1.87048e-10 -4.96187e-27 -1.2833e-13)
(3.35148e-10 -9.92374e-27 -4.11997e-13)
(1.62321e-10 4.95915e-27 -9.66429e-14)
(2.82404e-10 0 -2.92525e-13)
(1.37349e-10 0 -6.91947e-14)
(2.30736e-10 0 -1.95277e-13)
(1.11272e-10 0 -4.54147e-14)
(1.77693e-10 0 -1.15815e-13)
(8.12512e-11 0 -2.42148e-14)
(1.19717e-10 0 -5.25696e-14)
(4.41582e-11 1.24047e-27 -7.15224e-15)
(5.51942e-11 0 -1.1174e-14)
(-1.18751e-11 -3.10117e-28 -5.17243e-16)
(-3.11726e-11 0 -3.56423e-15)
(-9.05521e-11 0 -3.00759e-14)
(-1.01601e-10 0 -3.78634e-14)
(-1.57374e-10 0 -9.08421e-14)
(-1.63267e-10 4.96187e-27 -9.77729e-14)
(-2.16637e-10 0 -1.72142e-13)
(-2.19317e-10 0 -1.76427e-13)
(-2.71e-10 0 -2.69376e-13)
(-2.70392e-10 0 -2.68169e-13)
(-3.19446e-10 0 -3.74296e-13)
(-3.15716e-10 9.92374e-27 -3.65606e-13)
(-3.61557e-10 -9.91828e-27 -4.79484e-13)
(-3.53259e-10 9.92374e-27 -4.57727e-13)
(-3.94766e-10 0 -5.71612e-13)
(-3.82277e-10 0 -5.36015e-13)
(-4.20422e-10 0 -6.48326e-13)
(-4.02987e-10 0 -5.95668e-13)
(-4.35203e-10 0 -6.94713e-13)
(-4.12814e-10 1.98475e-26 -6.25073e-13)
(-4.40827e-10 0 -7.12783e-13)
(-3.87915e-10 -9.92373e-27 -5.51943e-13)
(-4.18586e-10 0 -6.42676e-13)
(-3.09817e-10 -9.91828e-27 -3.52072e-13)
(-3.84923e-10 0 -5.43462e-13)
(-1.72119e-10 0 -1.08662e-13)
(-3.8084e-10 9.92373e-27 -5.31995e-13)
(7.51962e-11 2.48094e-27 -2.07402e-14)
(-4.15846e-10 1.98475e-26 -6.34287e-13)
(4.56158e-10 0 -7.63226e-13)
(-1.55429e-10 0 -8.86103e-14)
(9.58059e-10 -3.96945e-26 -3.36674e-12)
(2.79393e-10 -9.92374e-27 -2.86319e-13)
(5.41567e-10 0 -1.07579e-12)
(5.50657e-10 0 -1.1122e-12)
(5.51919e-10 1.98474e-26 -1.11731e-12)
(5.41167e-10 1.98474e-26 -1.0742e-12)
(5.51662e-10 1.98474e-26 -1.11627e-12)
(5.42065e-10 -1.98474e-26 -1.07777e-12)
(5.46816e-10 0 -1.09674e-12)
(5.46153e-10 1.98365e-26 -1.09409e-12)
(5.46856e-10 0 -1.0969e-12)
(5.44673e-10 0 -1.08816e-12)
(5.47146e-10 0 -1.09807e-12)
(5.41875e-10 0 -1.07701e-12)
(5.52289e-10 0 -1.11881e-12)
(5.45081e-10 1.98474e-26 -1.08979e-12)
(5.51901e-10 0 -1.11724e-12)
(5.46436e-10 -1.98474e-26 -1.09522e-12)
(5.30536e-10 -1.98474e-26 -1.03241e-12)
(5.02871e-10 0 -9.27545e-13)
(5.92095e-10 0 -1.28589e-12)
(4.50427e-10 1.98475e-26 -7.44168e-13)
(7.01847e-10 0 -1.80679e-12)
(2.70437e-10 9.92374e-27 -2.68258e-13)
(9.59809e-10 0 -3.37906e-12)
(-1.23403e-10 -4.95915e-27 -5.58563e-14)
(1.48931e-09 3.96938e-26 -8.13589e-12)
(-7.79974e-10 1.98473e-26 -2.23144e-12)
(2.31783e-09 0 -1.97068e-11)
(-1.64084e-09 7.93871e-26 -9.87577e-12)
(3.03259e-09 0 -3.37366e-11)
(-2.7518e-09 0 -2.77779e-11)
(4.9435e-09 -1.58728e-25 -8.96671e-11)
(5.68212e-09 1.58711e-25 -1.18476e-10)
(-1.44376e-08 0 -7.66716e-10)
(7.49763e-09 0 -2.06347e-10)
(1.79598e-09 0 -1.18316e-11)
(-4.77879e-10 0 -8.37639e-13)
(1.4541e-09 0 -7.75569e-12)
(-2.47566e-10 9.92374e-27 -2.24803e-13)
(1.16374e-09 3.96943e-26 -4.96755e-12)
(1.0104e-10 0 -3.74462e-14)
(7.49995e-10 0 -2.06319e-12)
(5.7605e-10 0 -1.21715e-12)
(2.49629e-10 -9.92374e-27 -2.28565e-13)
(1.10562e-09 0 -4.48374e-12)
(-4.41998e-10 0 -7.16576e-13)
(1.95872e-09 7.93423e-26 -1.4073e-11)
(-1.54142e-09 -3.96937e-26 -8.71513e-12)
(2.8943e-09 0 -3.07296e-11)
(-2.8096e-09 0 -2.89571e-11)
(4.68772e-09 0 -8.06253e-11)
(6.18671e-09 -1.58698e-25 -1.40463e-10)
(-1.52255e-08 0 -8.52949e-10)
(7.83816e-09 3.17297e-25 -2.25532e-10)
(2.3818e-09 1.58768e-25 -2.08096e-11)
(-9.59926e-10 0 -3.37988e-12)
(1.88662e-09 0 -1.3056e-11)
(-6.0008e-10 0 -1.32081e-12)
(1.51608e-09 0 -8.43097e-12)
(-2.14077e-10 -9.92375e-27 -1.68097e-13)
(1.15748e-09 0 -4.9142e-12)
(9.41776e-11 0 -3.25324e-14)
(8.9438e-10 0 -2.93406e-12)
(3.02783e-10 -9.91828e-27 -3.36266e-13)
(7.27135e-10 1.98474e-26 -1.93934e-12)
(4.13073e-10 0 -6.25857e-13)
(6.20862e-10 -1.98474e-26 -1.41388e-12)
(4.79314e-10 -1.98474e-26 -8.42679e-13)
(5.68655e-10 0 -1.1861e-12)
(5.08189e-10 0 -9.47267e-13)
(5.49792e-10 -1.98474e-26 -1.10871e-12)
(5.28519e-10 0 -1.02457e-12)
(5.36853e-10 -1.98474e-26 -1.05714e-12)
(5.32285e-10 0 -1.03923e-12)
(5.43664e-10 0 -1.08413e-12)
(5.38606e-10 -1.98474e-26 -1.06406e-12)
(5.41784e-10 1.98474e-26 -1.07665e-12)
(5.42758e-10 0 -1.08053e-12)
(5.40356e-10 0 -1.07098e-12)
(5.42545e-10 0 -1.07968e-12)
(5.40344e-10 -1.98474e-26 -1.07094e-12)
(5.44655e-10 1.98474e-26 -1.08809e-12)
(5.46956e-10 1.98474e-26 -1.0973e-12)
(5.44451e-10 0 -1.08728e-12)
(5.39474e-10 1.98474e-26 -1.06749e-12)
(5.42121e-10 1.98365e-26 -1.07799e-12)
(5.4351e-10 1.98474e-26 -1.08352e-12)
(5.47818e-10 -1.98474e-26 -1.10076e-12)
(5.47026e-10 0 -1.09759e-12)
(5.41329e-10 0 -1.07484e-12)
(5.47127e-10 0 -1.09799e-12)
(5.43637e-10 0 -1.08403e-12)
(5.3815e-10 0 -1.06226e-12)
(5.45531e-10 0 -1.0916e-12)
(5.472e-10 0 -1.09828e-12)
(5.45961e-10 0 -1.09331e-12)
(5.4962e-10 0 -1.10802e-12)
(5.38153e-10 0 -1.06227e-12)
(5.4695e-10 0 -1.09728e-12)
(5.48661e-10 0 -1.10416e-12)
(5.35097e-10 -1.98474e-26 -1.05024e-12)
(5.7826e-10 0 -1.2265e-12)
(4.67523e-10 0 -8.01729e-13)
(6.98619e-10 0 -1.79021e-12)
(2.60907e-10 0 -2.49685e-13)
(1.03581e-09 -3.96944e-26 -3.93537e-12)
(-2.63125e-10 0 -2.53949e-13)
(1.8034e-09 0 -1.19295e-11)
(-1.51163e-09 0 -8.38158e-12)
(3.1547e-09 0 -3.65087e-11)
(-3.79988e-09 0 -5.29718e-11)
(5.92174e-09 -1.58705e-25 -1.28684e-10)
(5.85388e-09 -1.5862e-25 -1.2575e-10)
(-1.56849e-08 6.33011e-25 -9.05376e-10)
(7.10565e-09 3.17344e-25 -1.8532e-10)
(3.91491e-09 0 -5.62281e-11)
(-1.80864e-09 0 -1.1999e-11)
(2.31493e-09 7.93843e-26 -1.96575e-11)
(-6.26422e-10 1.98365e-26 -1.43932e-12)
(1.3806e-09 3.9694e-26 -6.99145e-12)
(6.02196e-11 0 -1.33014e-14)
(8.4579e-10 0 -2.62392e-12)
(3.54002e-10 0 -4.59656e-13)
(6.0043e-10 1.98365e-26 -1.32235e-12)
(4.71423e-10 1.98474e-26 -8.15161e-13)
(5.55813e-10 -1.98474e-26 -1.13313e-12)
(5.21199e-10 0 -9.96391e-13)
(5.4287e-10 1.98474e-26 -1.08097e-12)
(5.35009e-10 0 -1.04989e-12)
(5.43445e-10 0 -1.08326e-12)
(5.37667e-10 0 -1.06035e-12)
(5.41642e-10 1.98474e-26 -1.07608e-12)
(5.50829e-10 -1.98474e-26 -1.1129e-12)
(5.40522e-10 0 -1.07164e-12)
(5.44729e-10 1.98365e-26 -1.08839e-12)
(5.39678e-10 0 -1.0683e-12)
(5.44613e-10 1.98474e-26 -1.08792e-12)
(5.42158e-10 0 -1.07814e-12)
(5.37945e-10 0 -1.06145e-12)
(5.46964e-10 -1.98474e-26 -1.09733e-12)
(5.42871e-10 0 -1.08097e-12)
(5.52864e-10 0 -1.12114e-12)
(5.41268e-10 0 -1.0746e-12)
(5.38647e-10 0 -1.06422e-12)
(5.46587e-10 -1.98474e-26 -1.09582e-12)
(5.41395e-10 -1.98365e-26 -1.0751e-12)
(5.4829e-10 1.98474e-26 -1.10266e-12)
(5.4126e-10 0 -1.07457e-12)
(5.39246e-10 0 -1.06659e-12)
(5.49067e-10 0 -1.10579e-12)
(5.46517e-10 0 -1.09554e-12)
(5.46758e-10 -1.98365e-26 -1.09651e-12)
(5.33922e-10 0 -1.04563e-12)
(5.68175e-10 0 -1.1841e-12)
(4.86277e-10 -1.98474e-26 -8.67341e-13)
(6.56697e-10 0 -1.58181e-12)
(3.21603e-10 0 -3.79368e-13)
(8.97258e-10 0 -2.95298e-12)
(-3.43484e-11 0 -4.32747e-15)
(1.42958e-09 -3.96939e-26 -7.49637e-12)
(-7.58696e-10 0 -2.11134e-12)
(2.31418e-09 7.93843e-26 -1.96448e-11)
(-1.69211e-09 7.93433e-26 -1.05025e-11)
(3.4087e-09 -1.58755e-25 -4.26251e-11)
(-2.89744e-09 7.93811e-26 -3.07962e-11)
(4.45802e-09 0 -7.29156e-11)
(-4.13457e-09 0 -6.27165e-11)
(5.01176e-09 0 -9.21611e-11)
(-4.51158e-09 0 -7.46787e-11)
(4.67494e-09 1.58733e-25 -8.01863e-11)
(-3.95316e-09 -1.58747e-25 -5.73323e-11)
(9.44418e-09 -3.17179e-25 -3.27545e-10)
(1.08143e-08 0 -4.29635e-10)
(2.59034e-08 0 -2.48376e-09)
(3.73436e-08 -1.24594e-24 -5.21482e-09)
(5.71275e-08 0 -1.2548e-08)
(7.94131e-08 -2.30267e-24 -2.55205e-08)
(5.44365e-10 0 -1.08693e-12)
(5.45565e-10 1.98365e-26 -1.09173e-12)
(5.45865e-10 0 -1.09293e-12)
(5.44365e-10 -1.98474e-26 -1.08693e-12)
(5.45865e-10 0 -1.09293e-12)
(5.44365e-10 -1.98474e-26 -1.08693e-12)
(5.45865e-10 -1.98474e-26 -1.09293e-12)
(5.45565e-10 0 -1.09173e-12)
(5.44365e-10 0 -1.08693e-12)
(5.45865e-10 -1.98474e-26 -1.09293e-12)
)
;

boundaryField
{
    inlet
    {
        type            calculated;
        value           uniform (0 0 0);
    }
    endWall
    {
        type            calculated;
        value           uniform (0 0 0);
    }
    sideWall
    {
        type            empty;
    }
}


// ************************************************************************* //
