/*--------------------------------*- C++ -*----------------------------------*\
| =========                 |                                                 |
| \\      /  F ield         | foam-extend: Open Source CFD                    |
|  \\    /   O peration     | Version:     3.2                                |
|   \\  /    A nd           | Web:         http://www.foam-extend.org         |
|    \\/     M anipulation  | For copyright notice see file Copyright         |
\*---------------------------------------------------------------------------*/
FoamFile
{
    version     2.0;
    format      ascii;
    class       areaScalarField;
    location    "1790";
    object      zCo;
}
// * * * * * * * * * * * * * * * * * * * * * * * * * * * * * * * * * * * * * //

dimensions      [0 1 0 0 0 0 0];

internalField   nonuniform List<scalar> 
550
(
-1.81818e-05
-5.45454e-05
-9.09091e-05
-0.000127273
-0.000163636
-0.0002
-0.000236364
-0.000272727
-0.000309091
-0.000345454
-0.000381818
-0.000418182
-0.000454546
-0.000490909
-0.000527273
-0.000563637
-0.0006
-0.000636364
-0.000672727
-0.000709091
-0.000745454
-0.000781818
-0.000818182
-0.000854546
-0.000890909
-0.000927273
-0.000963637
-0.000999999
-0.00103637
-0.00107273
-0.00110909
-0.00114546
-0.00118182
-0.00121818
-0.00125454
-0.00129091
-0.00132727
-0.00136363
-0.0014
-0.00143636
-0.00147273
-0.00150909
-0.00154545
-0.00158182
-0.00161818
-0.00165454
-0.00169091
-0.00172727
-0.00176363
-0.0018
-0.00183636
-0.00187273
-0.00190909
-0.00194545
-0.00198182
-0.00201818
-0.00205455
-0.00209091
-0.00212727
-0.00216364
-0.0022
-0.00223637
-0.00227273
-0.00230909
-0.00234546
-0.00238182
-0.00241818
-0.00245454
-0.00249091
-0.00252727
-0.00256363
-0.0026
-0.00263637
-0.00267273
-0.00270909
-0.00274545
-0.00278182
-0.00281818
-0.00285454
-0.00289091
-0.00292727
-0.00296364
-0.003
-0.00303637
-0.00307273
-0.00310909
-0.00314546
-0.00318182
-0.00321818
-0.00325455
-0.00329091
-0.00332727
-0.00336363
-0.0034
-0.00343636
-0.00347273
-0.00350909
-0.00354546
-0.00358182
-0.00361818
-0.00365454
-0.00369091
-0.00372727
-0.00376363
-0.0038
-0.00383637
-0.00387273
-0.00390909
-0.00394545
-0.00397566
-0.00401148
-0.00405086
-0.00408642
-0.00412155
-0.00416009
-0.00419202
-0.00422533
-0.00426936
-0.00431188
-0.00435171
-0.00438129
-0.00440998
-0.00445449
-0.00448844
-0.00451555
-0.00455346
-0.00458759
-0.00462859
-0.00467763
-0.00471393
-0.00474239
-0.00477488
-0.00481246
-0.00485547
-0.00488705
-0.00490976
-0.00495435
-0.00500227
-0.00502514
-0.00505283
-0.00510145
-0.00514918
-0.00518505
-0.00521584
-0.00524792
-0.00528285
-0.00531884
-0.00535435
-0.00539565
-0.00543636
-0.00546495
-0.00549888
-0.00554579
-0.00558091
-0.00561091
-0.00564786
-0.00568294
-0.0057123
-0.00574356
-0.00578554
-0.00582867
-0.00587251
-0.00590966
-0.00593784
-0.00596896
-0.00601037
-0.00605274
-0.00608744
-0.00611672
-0.00614468
-0.00618127
-0.00622746
-0.00627461
-0.00630897
-0.00634039
-0.0063685
-0.00639828
-0.0064535
-0.00649037
-0.00651173
-0.00655775
-0.0065949
-0.00662313
-0.00667217
-0.0067026
-0.00669348
-0.00670033
-0.0067291
-0.00675343
-0.00678705
-0.00681428
-0.00683822
-0.00687024
-0.00688775
-0.00691611
-0.00696041
-0.00698095
-0.00700084
-0.00703903
-0.00706009
-0.00706138
-0.00707434
-0.00710081
-0.00713116
-0.00716123
-0.00718907
-0.00721052
-0.00723176
-0.0072505
-0.00726729
-0.00729144
-0.0073136
-0.0073403
-0.00736892
-0.00739367
-0.00740801
-0.00739021
-0.00735262
-0.00730512
-0.00724902
-0.00719237
-0.00712988
-0.00706894
-0.00702858
-0.00698855
-0.00692703
-0.00686531
-0.00681411
-0.00676114
-0.00670718
-0.0066761
-0.00661672
-0.00645696
-0.0063026
-0.00623136
-0.00619214
-0.00616718
-0.00610584
-0.00602157
-0.00596845
-0.00593007
-0.00589265
-0.00585669
-0.0058217
-0.00578745
-0.00575482
-0.00572447
-0.00569624
-0.0056689
-0.00564277
-0.00561787
-0.00559415
-0.00557126
-0.00554889
-0.00552685
-0.00550596
-0.00548653
-0.00546857
-0.00545184
-0.00543654
-0.0054229
-0.00541114
-0.0054006
-0.00539084
-0.00538143
-0.00537243
-0.0053636
-0.0053558
-0.00534816
-0.00533947
-0.00531937
-0.00527242
-0.00522444
-0.00520315
-0.00519285
-0.00518185
-0.00517023
-0.00515754
-0.00514415
-0.00512997
-0.00511524
-0.00510011
-0.00508508
-0.00507041
-0.00505629
-0.0050428
-0.00503013
-0.00501839
-0.0050077
-0.00499797
-0.00498932
-0.00498164
-0.00497507
-0.00496941
-0.00496479
-0.00496072
-0.00495764
-0.0049546
-0.00495275
-0.0049507
-0.00495005
-0.00494956
-0.00495028
-0.00495146
-0.00495352
-0.0049563
-0.00495942
-0.00496347
-0.00496726
-0.00497196
-0.00497619
-0.00498109
-0.00498556
-0.00499041
-0.00499475
-0.00499912
-0.00500279
-0.00500602
-0.00500823
-0.00500939
-0.00500897
-0.00500674
-0.00500356
-0.00499882
-0.00499357
-0.00498739
-0.00498042
-0.00497406
-0.00496488
-0.00495905
-0.00493222
-0.00488454
-0.00485793
-0.0048504
-0.00483561
-0.0048257
-0.00480663
-0.00479713
-0.00478529
-0.00478752
-0.00482293
-0.00466481
-0.0045029
-0.0045069
-0.00449559
-0.00447498
-0.00445245
-0.00442832
-0.0044037
-0.00437881
-0.00435409
-0.00432981
-0.00430602
-0.00428278
-0.00426002
-0.00423771
-0.00421569
-0.00419384
-0.00417205
-0.00415018
-0.00412812
-0.0041058
-0.00408311
-0.00405992
-0.00403619
-0.00401183
-0.00398684
-0.00396165
-0.00393592
-0.00391107
-0.00388533
-0.00386168
-0.00383507
-0.00381382
-0.00378486
-0.00376754
-0.00373767
-0.00372745
-0.00370891
-0.00371707
-0.00373333
-0.00375962
-0.00380905
-0.00382828
-0.00387585
-0.00390835
-0.00394472
-0.00398091
-0.00401727
-0.00405357
-0.00409001
-0.00412643
-0.00416288
-0.00419934
-0.00423575
-0.0042723
-0.00430847
-0.00434537
-0.00438091
-0.00441915
-0.00445263
-0.00449359
-0.00452385
-0.00457041
-0.0045826
-0.00464289
-0.00480484
-0.00471559
-0.00463935
-0.0047776
-0.00482718
-0.00485383
-0.00489798
-0.00492859
-0.00496581
-0.00500071
-0.00503706
-0.00507324
-0.00510976
-0.00514644
-0.00518317
-0.00521992
-0.00525674
-0.00529428
-0.00533092
-0.00536704
-0.00540357
-0.00543983
-0.00547615
-0.00551252
-0.00554884
-0.00558518
-0.00562154
-0.00565786
-0.00569419
-0.00573055
-0.00576689
-0.00580324
-0.00583959
-0.00587592
-0.00591229
-0.00594858
-0.0059849
-0.0060213
-0.00605761
-0.0060939
-0.00613025
-0.00616653
-0.00620285
-0.00623924
-0.00627558
-0.00631186
-0.00634814
-0.00638453
-0.00642094
-0.00645723
-0.00649351
-0.00652987
-0.0065662
-0.00660249
-0.00663881
-0.00667516
-0.00671152
-0.00674784
-0.00678422
-0.00682055
-0.00685673
-0.00689297
-0.00692928
-0.00696556
-0.00700177
-0.00703775
-0.00707378
-0.00710989
-0.00714589
-0.00718205
-0.00721792
-0.00725446
-0.0072899
-0.0073277
-0.00736086
-0.0074014
-0.00743041
-0.00747599
-0.00750176
-0.00755214
-0.00756055
-0.00752091
-0.00766292
-0.00758839
-0.00754022
-0.0077619
-0.00780883
-0.00783447
-0.00788153
-0.00791009
-0.00795232
-0.00798292
-0.00802111
-0.00805416
-0.00809294
-0.00812435
-0.00816778
-0.00819187
-0.00824543
-0.008233
-0.0082057
-0.00835431
-0.00827905
-0.00822627
-0.00843702
-0.00849959
-0.00852218
-0.00857255
-0.00859929
-0.00863681
-0.00867067
-0.00870636
-0.00874303
-0.00877743
-0.00881643
-0.00884781
-0.00889008
-0.00891752
-0.00896371
-0.00898893
-0.00903958
-0.00906498
-0.00911714
-0.00913625
-0.00917454
-0.00919412
-0.00921398
-0.00923824
-0.00929063
-0.00963084
-0.010429
-0.0118399
-0.0140218
-0.0175208
-0.0196545
-0.0196909
-0.0197273
-0.0197636
-0.0198
-0.0198363
-0.0198727
-0.0199091
-0.0199454
-0.0199818
)
;

boundaryField
{
    inlet
    {
        type            calculated;
        value           uniform 0;
    }
    endWall
    {
        type            calculated;
        value           uniform 0;
    }
    sideWall
    {
        type            empty;
    }
}


// ************************************************************************* //
