/*--------------------------------*- C++ -*----------------------------------*\
| =========                 |                                                 |
| \\      /  F ield         | foam-extend: Open Source CFD                    |
|  \\    /   O peration     | Version:     3.2                                |
|   \\  /    A nd           | Web:         http://www.foam-extend.org         |
|    \\/     M anipulation  | For copyright notice see file Copyright         |
\*---------------------------------------------------------------------------*/
FoamFile
{
    version     2.0;
    format      ascii;
    class       volScalarField;
    location    "1790";
    object      zDim;
}
// * * * * * * * * * * * * * * * * * * * * * * * * * * * * * * * * * * * * * //

dimensions      [0 1 0 0 0 0 0];

internalField   nonuniform List<scalar> 
33000
(
0.00503636
0.00503637
0.00503636
0.00503637
0.00503637
0.00503636
0.00503637
0.00503636
0.00503636
0.00503637
0.00503636
0.00503636
0.00503637
0.00503636
0.00503637
0.00503637
0.00503636
0.00503637
0.00503636
0.00503636
0.00503637
0.00503636
0.00503636
0.00503637
0.00503636
0.00503636
0.00503637
0.00503636
0.00503637
0.00503636
0.00503636
0.00503637
0.00503636
0.00503636
0.00503637
0.00503636
0.00503636
0.00503637
0.00503636
0.00503637
0.00503636
0.00503636
0.00503637
0.00503636
0.00503636
0.00503637
0.00503636
0.00503636
0.00503637
0.00503636
0.00503637
0.00503636
0.00503636
0.00503637
0.00503636
0.00503636
0.00503637
0.00503636
0.00503636
0.00503637
0.00503636
0.00503637
0.00503636
0.00503636
0.00503637
0.00503636
0.00503636
0.00503637
0.00503636
0.00503636
0.00503637
0.00503636
0.00503637
0.00503636
0.00503636
0.00503637
0.00503636
0.00503636
0.00503637
0.00503636
0.00503636
0.00503637
0.00503636
0.00503637
0.00503636
0.00503636
0.00503637
0.00503636
0.00503636
0.00503637
0.00503636
0.00503636
0.00503637
0.00503636
0.00503637
0.00503636
0.00503636
0.00503637
0.00503636
0.00503636
0.00503638
0.00503637
0.00503638
0.0050364
0.0050364
0.00503645
0.00503655
0.00503688
0.0050376
0.00502185
0.00503585
0.00501094
0.00500075
0.00498424
0.00499489
0.00496233
0.00498788
0.00497396
0.00497416
0.0049583
0.00494614
0.00494818
0.00497116
0.00492698
0.00495385
0.00494433
0.00494597
0.00495585
0.00496263
0.00493277
0.00494591
0.00493831
0.0049554
0.00494799
0.00493453
0.00493127
0.00497432
0.00494049
0.00492828
0.00494741
0.00497133
0.00495227
0.00495279
0.00494538
0.00495751
0.00495313
0.00496266
0.00495476
0.00497533
0.00495592
0.00495444
0.00496683
0.00498202
0.00494963
0.00497393
0.00496439
0.00497455
0.00495723
0.00498087
0.00498115
0.00498751
0.00498558
0.00497866
0.00497143
0.00498611
0.00499383
0.00499238
0.00498309
0.0049841
0.00498214
0.00500246
0.0050042
0.00500845
0.00498353
0.00500467
0.00498006
0.0050102
0.00503045
0.00498168
0.0050012
0.00502791
0.00499049
0.00501235
0.00502986
0.00498223
0.00499483
0.00500854
0.00500046
0.00500508
0.00501872
0.00499601
0.00501323
0.00501188
0.00498887
0.00503194
0.00502147
0.00499118
0.00501853
0.00502643
0.00498996
0.0049882
0.00501023
0.00501614
0.00502043
0.00501736
0.00501716
0.00500596
0.00501692
0.00500217
0.00501373
0.00501644
0.00501189
0.0050257
0.00501743
0.00502021
0.004999
0.00503493
0.00503661
0.00505646
0.00505391
0.00505896
0.00506497
0.00505347
0.00502674
0.00505593
0.00506691
0.00505492
0.00504759
0.00505848
0.00504635
0.00501954
0.00511295
0.00520622
0.0050916
0.00504671
0.00502972
0.00502507
0.00510074
0.00506361
0.00504064
0.00503596
0.00503865
0.00503311
0.00503674
0.00503152
0.00503343
0.00502693
0.00502939
0.00502509
0.00502695
0.00502266
0.00502465
0.00502101
0.00502365
0.00502025
0.00502128
0.00501734
0.00501839
0.00501483
0.00501549
0.00501148
0.00501183
0.0050091
0.00501033
0.00500838
0.00500957
0.00500791
0.00500764
0.00500773
0.00501109
0.00503266
0.00506136
0.00503099
0.0050101
0.00501055
0.00501147
0.00501188
0.00501352
0.0050133
0.00501508
0.0050144
0.00501581
0.00501415
0.00501505
0.00501306
0.00501378
0.00501141
0.00501187
0.00500931
0.00500994
0.00500716
0.00500794
0.005005
0.00500612
0.005003
0.005005
0.00500114
0.00500475
0.00500105
0.00500491
0.00500362
0.00500447
0.00500592
0.00500351
0.00500763
0.00500207
0.00500833
0.00500067
0.00500806
0.00500118
0.00500732
0.00500233
0.00500655
0.00500294
0.00500571
0.00500297
0.0050044
0.00500211
0.00500241
0.00500022
0.00500084
0.00500367
0.00500283
0.00500662
0.00500388
0.00500852
0.00500529
0.00500779
0.00501008
0.00500437
0.00505207
0.00504041
0.00501016
0.00500576
0.00502298
0.00500342
0.00503879
0.0050198
0.00504134
0.00504581
0.00502445
0.00531124
0.00500117
0.00500368
0.00502
0.00502134
0.00502382
0.00502441
0.00502477
0.00502489
0.00502441
0.00502404
0.00502338
0.00502296
0.00502248
0.00502207
0.00502184
0.00502178
0.00502175
0.0050219
0.0050222
0.00502243
0.00502291
0.00502344
0.00502402
0.00502475
0.00502517
0.00502513
0.00502611
0.0050237
0.00502742
0.00502018
0.00503224
0.0050113
0.00504493
0.00501028
0.00506557
0.00504513
0.00507744
0.00509376
0.00506097
0.00511356
0.00502202
0.00506049
0.00503067
0.00503631
0.00503574
0.00503651
0.005036
0.00503643
0.00503629
0.00503644
0.00503638
0.00503648
0.00503625
0.00503669
0.00503562
0.00503805
0.00503317
0.00504286
0.00502466
0.00505609
0.00500589
0.00508486
0.00504969
0.00517028
0.00513983
0.00528278
0.0051303
0.0051178
0.00500902
0.00506232
0.00502348
0.00503955
0.00503386
0.0050362
0.00503623
0.00503609
0.00503684
0.00503641
0.00503698
0.00503646
0.0050371
0.0050378
0.00503552
0.00503671
0.00503622
0.00503625
0.00503631
0.00503634
0.00503624
0.00503636
0.00503628
0.00503632
0.00503628
0.00503637
0.00503626
0.00503637
0.00503625
0.00503633
0.00503633
0.0050362
0.00503635
0.00503636
0.0050362
0.0050363
0.00503631
0.0050362
0.00503635
0.00503635
0.00503628
0.00503622
0.00503626
0.00503644
0.0050363
0.00503622
0.00503627
0.00503636
0.00503623
0.00503627
0.0050363
0.00503633
0.00503631
0.00503626
0.00503643
0.00503617
0.00503614
0.00503625
0.0050363
0.0050362
0.00503618
0.00503573
0.00503625
0.0050359
0.00503603
0.00503619
0.00503552
0.00503738
0.00503358
0.00504163
0.00502525
0.00505474
0.00500485
0.00508394
0.00502625
0.00512702
0.00511145
0.00503216
0.00522708
0.00534381
0.00524747
0.00516047
0.00504476
0.00509603
0.00500842
0.00506445
0.00501804
0.00504472
0.00503053
0.00503621
0.00504047
0.00502331
0.00506179
0.00500681
0.00511394
0.00513228
0.00507769
0.00519561
0.00531319
0.00520763
0.00517913
0.00503837
0.00508355
0.00501339
0.00504333
0.00503011
0.00503808
0.00503299
0.00504016
0.00502887
0.00504842
0.00501535
0.00506759
0.00500808
0.00510047
0.00504361
0.00514489
0.00508689
0.0051912
0.0051459
0.00522246
0.00518052
0.00522026
0.00516878
0.00527354
0.00536884
0.0061725
0.00658791
0.0077271
0.00922968
0.00538932
0.00503214
0.00503838
0.0050369
0.0050366
0.0050364
0.0050365
0.0050364
0.0050363
0.0050364
0.00503636
0.00503637
0.00503636
0.00503636
0.00503637
0.00503636
0.00503637
0.00503636
0.00503636
0.00503637
0.00503636
0.00503636
0.00503637
0.00503636
0.00503636
0.00503637
0.00503636
0.00503637
0.00503636
0.00503636
0.00503637
0.00503636
0.00503636
0.00503637
0.00503636
0.00503636
0.00503637
0.00503636
0.00503637
0.00503636
0.00503636
0.00503637
0.00503636
0.00503636
0.00503637
0.00503636
0.00503636
0.00503637
0.00503636
0.00503637
0.00503636
0.00503636
0.00503637
0.00503636
0.00503636
0.00503637
0.00503636
0.00503636
0.00503637
0.00503636
0.00503637
0.00503636
0.00503636
0.00503637
0.00503636
0.00503636
0.00503637
0.00503636
0.00503636
0.00503637
0.00503636
0.00503637
0.00503636
0.00503636
0.00503637
0.00503636
0.00503636
0.00503637
0.00503636
0.00503636
0.00503637
0.00503636
0.00503637
0.00503636
0.00503636
0.00503637
0.00503636
0.00503636
0.00503637
0.00503636
0.00503636
0.00503637
0.00503636
0.00503637
0.00503636
0.00503636
0.00503637
0.00503636
0.00503636
0.00503637
0.00503636
0.00503636
0.00503637
0.00503637
0.00503638
0.00503637
0.00503638
0.00503639
0.00503639
0.0050364
0.00503643
0.00503645
0.0050365
0.00503659
0.00503671
0.00503691
0.0050378
0.00503995
0.00504819
0.00504474
0.00506457
0.00505888
0.00504383
0.00502884
0.00504081
0.00501201
0.00502989
0.00501962
0.0050119
0.00499506
0.00497888
0.00497993
0.00499921
0.00496786
0.00498576
0.00497998
0.00497581
0.00498369
0.00498795
0.00496492
0.00497532
0.00497017
0.00498498
0.00497784
0.00496631
0.00496526
0.00499755
0.00497158
0.00495803
0.00497238
0.00499187
0.00497784
0.0049764
0.00497215
0.00498161
0.00497888
0.00498626
0.00498106
0.00499573
0.00498045
0.00497821
0.00498941
0.00500045
0.00497657
0.00499415
0.00498775
0.0049941
0.00498068
0.00499726
0.00500099
0.00500609
0.00500324
0.00499601
0.0049901
0.00500182
0.0050085
0.00500692
0.00499894
0.00499912
0.00499869
0.00501522
0.00501833
0.0050197
0.00499969
0.00501324
0.00499584
0.00502045
0.00503717
0.00499858
0.0050126
0.00503362
0.00500489
0.00502165
0.00503564
0.00499501
0.00499978
0.0050124
0.00501021
0.00501399
0.00502429
0.00500804
0.00502015
0.00501828
0.00500107
0.00503382
0.00502652
0.00500193
0.00502257
0.00502905
0.00499938
0.00499562
0.00501372
0.00502065
0.00502411
0.00502183
0.00502091
0.00501199
0.00501889
0.00500799
0.00501618
0.00501846
0.00501506
0.005025
0.00501847
0.00501839
0.00499948
0.00503396
0.00503965
0.00505579
0.00505511
0.00505941
0.00506375
0.00505202
0.00503137
0.00505512
0.00506509
0.00505496
0.00504909
0.00505678
0.00504508
0.00503034
0.00511568
0.00518945
0.00509425
0.00504744
0.00503031
0.00503226
0.00509232
0.00506373
0.0050414
0.00503631
0.00503784
0.00503366
0.00503588
0.00503189
0.00503256
0.00502745
0.0050287
0.00502541
0.0050263
0.00502299
0.00502405
0.00502137
0.00502303
0.00502041
0.00502072
0.00501753
0.00501784
0.00501497
0.00501492
0.00501161
0.00501141
0.00500925
0.00500994
0.00500849
0.00500921
0.0050079
0.00500764
0.00500808
0.00501293
0.00503385
0.00505653
0.00503077
0.00501117
0.0050104
0.00501131
0.00501187
0.00501325
0.00501337
0.00501476
0.00501442
0.0050154
0.00501418
0.00501464
0.0050131
0.00501332
0.00501144
0.00501139
0.00500938
0.00500945
0.00500722
0.00500746
0.00500515
0.00500556
0.00500321
0.00500431
0.00500151
0.00500376
0.00500025
0.0050036
0.00500208
0.00500278
0.00500416
0.00500169
0.00500579
0.00500053
0.00500663
0.00500066
0.00500663
0.005002
0.00500628
0.00500292
0.0050058
0.00500327
0.00500513
0.00500314
0.00500392
0.0050022
0.00500209
0.00500004
0.00500088
0.00500326
0.00500309
0.00500596
0.00500437
0.00500779
0.00500558
0.00500773
0.00500938
0.005009
0.00504771
0.00503816
0.0050114
0.00500738
0.00501943
0.00500322
0.00503058
0.0050099
0.00502916
0.00503672
0.00503063
0.00526174
0.00501169
0.00500333
0.00501886
0.00502128
0.00502352
0.00502421
0.00502453
0.0050246
0.00502419
0.00502374
0.00502314
0.00502271
0.00502222
0.00502179
0.00502161
0.00502157
0.00502149
0.0050217
0.00502197
0.0050222
0.0050227
0.00502324
0.00502381
0.00502449
0.00502486
0.00502499
0.00502561
0.00502389
0.00502621
0.00502151
0.00502925
0.00501538
0.00503748
0.00500534
0.00505031
0.00502592
0.00505322
0.00506696
0.00503403
0.0050885
0.00500992
0.00505111
0.00503345
0.00503548
0.00503561
0.00503617
0.00503582
0.00503611
0.00503604
0.00503613
0.00503609
0.00503621
0.00503604
0.00503629
0.00503557
0.00503722
0.00503399
0.00504051
0.00502816
0.00504954
0.00501553
0.00506792
0.00501983
0.00514805
0.00511441
0.00521689
0.0050918
0.00511001
0.00500961
0.00505349
0.00502786
0.00503748
0.00503427
0.00503569
0.0050359
0.00503584
0.00503649
0.00503621
0.0050366
0.00503629
0.00503681
0.00503732
0.00503552
0.00503629
0.005036
0.00503598
0.00503604
0.00503606
0.00503596
0.00503603
0.005036
0.005036
0.00503601
0.00503609
0.00503603
0.00503613
0.00503602
0.00503603
0.00503599
0.00503593
0.00503607
0.0050361
0.00503596
0.005036
0.00503599
0.00503596
0.00503607
0.00503601
0.00503598
0.00503598
0.00503601
0.00503615
0.00503605
0.00503595
0.005036
0.00503609
0.00503599
0.005036
0.00503601
0.00503602
0.00503604
0.00503598
0.00503613
0.00503593
0.00503584
0.00503593
0.00503597
0.00503589
0.00503585
0.00503556
0.00503592
0.00503564
0.00503572
0.00503585
0.00503542
0.00503669
0.00503421
0.00503955
0.00502844
0.0050484
0.0050144
0.00506885
0.00500818
0.00509745
0.00508044
0.00503285
0.00517042
0.00525059
0.00518775
0.00515434
0.00502032
0.005077
0.00500884
0.00505492
0.00502375
0.00504111
0.00503195
0.00503574
0.00503867
0.00502723
0.00505311
0.00500498
0.00508633
0.00509504
0.0050668
0.00515027
0.0052307
0.00515809
0.00516698
0.00501703
0.00506848
0.0050216
0.00503957
0.0050316
0.00503674
0.00503365
0.00503848
0.00503095
0.00504412
0.00502162
0.00505733
0.0050054
0.00508013
0.00501718
0.00511133
0.00504665
0.00514256
0.00509006
0.00516128
0.00511578
0.00515633
0.0050934
0.00523276
0.00539911
0.00610553
0.00658832
0.00765556
0.00886653
0.00578627
0.00508341
0.00504886
0.00504129
0.00503877
0.00503758
0.00503714
0.00503686
0.0050366
0.00503649
0.00503636
0.00503633
0.00503639
0.00503635
0.00503632
0.00503638
0.00503635
0.00503641
0.00503637
0.00503634
0.0050364
0.00503636
0.00503633
0.00503639
0.00503635
0.00503632
0.00503638
0.00503635
0.00503641
0.00503637
0.00503634
0.0050364
0.00503636
0.00503633
0.00503639
0.00503635
0.00503632
0.00503638
0.00503635
0.00503641
0.00503637
0.00503634
0.0050364
0.00503636
0.00503633
0.00503639
0.00503635
0.00503632
0.00503638
0.00503635
0.00503641
0.00503637
0.00503634
0.0050364
0.00503636
0.00503633
0.00503639
0.00503635
0.00503632
0.00503638
0.00503635
0.00503641
0.00503637
0.00503634
0.0050364
0.00503636
0.00503633
0.00503639
0.00503635
0.00503632
0.00503638
0.00503635
0.00503641
0.00503637
0.00503634
0.0050364
0.00503636
0.00503633
0.00503639
0.00503635
0.00503632
0.00503638
0.00503635
0.00503641
0.00503637
0.00503634
0.0050364
0.00503636
0.00503633
0.00503639
0.00503635
0.00503632
0.00503638
0.00503635
0.00503641
0.00503637
0.00503634
0.0050364
0.00503636
0.00503633
0.0050364
0.00503636
0.00503633
0.00503639
0.00503637
0.00503644
0.00503641
0.00503639
0.00503647
0.00503646
0.00503647
0.0050366
0.00503665
0.00503681
0.00503713
0.00503689
0.00503793
0.00504354
0.0050585
0.00506911
0.00510128
0.00511825
0.00511044
0.00510053
0.00511266
0.00509021
0.0051004
0.00509024
0.00507548
0.00505339
0.00503289
0.00503037
0.00504233
0.00502394
0.00503616
0.00503425
0.00502662
0.00502897
0.00502817
0.00500939
0.00501764
0.00501901
0.00503188
0.00502423
0.00501454
0.00501629
0.00503847
0.00501737
0.00500314
0.00501195
0.00502582
0.0050148
0.00501252
0.00501185
0.00501973
0.0050185
0.00502341
0.00502128
0.00503024
0.00501655
0.00501362
0.00502324
0.0050307
0.0050157
0.00502756
0.00502331
0.00502674
0.00501685
0.00502577
0.00502956
0.00503504
0.00503217
0.00502396
0.00501839
0.00502703
0.00503189
0.00502922
0.00502298
0.00502313
0.00502376
0.00503646
0.00504057
0.00503918
0.005023
0.0050297
0.00501881
0.00503796
0.00505061
0.0050222
0.00503094
0.00504632
0.00502582
0.00503685
0.00504658
0.00501348
0.00501027
0.00502327
0.00502515
0.00502835
0.00503489
0.00502456
0.00503316
0.00503055
0.00501811
0.00504106
0.00503492
0.00501566
0.00503102
0.00503558
0.00501171
0.00500683
0.00502126
0.00502817
0.00503064
0.00502876
0.00502692
0.00502046
0.00502421
0.00501617
0.00502147
0.00502279
0.00501949
0.00502532
0.00501983
0.00501681
0.00500123
0.00503186
0.0050414
0.00505498
0.00505614
0.00505971
0.00506231
0.00505103
0.00503584
0.00505417
0.0050631
0.00505521
0.00505035
0.00505505
0.0050454
0.00504142
0.00511571
0.00517193
0.00509658
0.0050494
0.00503224
0.0050383
0.00508366
0.00506338
0.00504246
0.00503666
0.00503704
0.00503402
0.00503503
0.00503206
0.00503173
0.0050278
0.00502802
0.00502555
0.00502564
0.00502318
0.00502346
0.00502154
0.00502236
0.00502041
0.00502009
0.00501757
0.00501725
0.00501494
0.0050143
0.00501162
0.00501097
0.00500927
0.00500949
0.00500845
0.00500881
0.00500783
0.00500764
0.00500863
0.00501471
0.00503407
0.00505129
0.00503046
0.00501243
0.00501029
0.00501105
0.00501169
0.00501288
0.00501323
0.00501434
0.00501427
0.00501489
0.00501401
0.00501411
0.00501293
0.00501275
0.00501124
0.00501084
0.00500921
0.00500886
0.0050071
0.00500685
0.00500502
0.00500491
0.00500317
0.00500357
0.00500163
0.00500279
0.00500003
0.00500224
0.00500059
0.00500118
0.00500244
0.00499993
0.00500402
0.00500014
0.00500496
0.00500144
0.00500525
0.00500248
0.00500518
0.00500315
0.00500493
0.00500333
0.0050044
0.00500307
0.00500335
0.00500205
0.00500159
0.00499976
0.00500073
0.00500271
0.00500307
0.00500521
0.00500453
0.00500694
0.00500571
0.00500753
0.00500916
0.00501279
0.00504274
0.00503555
0.00501283
0.0050086
0.00501635
0.00500703
0.00502358
0.00500253
0.00501923
0.00502617
0.00504801
0.00521385
0.00503117
0.00500511
0.00501751
0.00502086
0.00502294
0.00502371
0.00502405
0.00502408
0.00502369
0.00502323
0.00502266
0.0050222
0.00502173
0.00502132
0.00502113
0.00502108
0.00502103
0.00502122
0.00502149
0.00502174
0.00502222
0.00502276
0.00502332
0.00502398
0.00502432
0.00502451
0.00502484
0.00502373
0.00502496
0.00502213
0.00502654
0.00501822
0.00503114
0.00500864
0.00503727
0.0050095
0.00503259
0.00504393
0.00501107
0.00506672
0.00501164
0.00504351
0.00503474
0.00503467
0.00503507
0.00503548
0.00503532
0.00503551
0.00503547
0.00503554
0.00503553
0.00503562
0.00503552
0.00503564
0.00503523
0.00503619
0.00503433
0.00503818
0.00503077
0.00504374
0.00502313
0.00505352
0.0050056
0.00512579
0.00508808
0.00515405
0.00506134
0.00509738
0.0050225
0.00504642
0.00503086
0.0050357
0.00503419
0.00503503
0.00503535
0.00503531
0.00503581
0.00503572
0.00503594
0.00503581
0.00503623
0.00503657
0.00503522
0.00503562
0.00503545
0.00503542
0.00503547
0.00503549
0.00503545
0.00503546
0.00503547
0.00503543
0.00503543
0.00503547
0.00503543
0.00503551
0.00503547
0.00503551
0.00503544
0.00503538
0.00503547
0.00503551
0.00503543
0.00503547
0.00503541
0.00503537
0.00503554
0.00503548
0.00503538
0.00503539
0.00503546
0.00503553
0.00503549
0.00503538
0.00503542
0.00503548
0.00503543
0.00503544
0.00503548
0.00503545
0.00503548
0.00503542
0.00503551
0.00503542
0.00503533
0.00503541
0.00503544
0.00503537
0.00503523
0.00503504
0.00503532
0.00503514
0.00503516
0.00503525
0.005035
0.00503578
0.00503435
0.00503744
0.00503084
0.00504279
0.00502218
0.00505578
0.00500773
0.00507104
0.00505021
0.00503338
0.00511765
0.00516493
0.00513822
0.00514071
0.00501436
0.00506175
0.00501954
0.00504705
0.00502798
0.005038
0.00503267
0.00503503
0.00503679
0.00503018
0.00504554
0.00501572
0.00506171
0.00505987
0.00505688
0.00510666
0.0051538
0.00511752
0.00514862
0.00501745
0.00505692
0.0050277
0.00503664
0.00503239
0.00503541
0.00503384
0.00503672
0.00503234
0.00504015
0.00502648
0.00504832
0.0050152
0.00506263
0.0050067
0.00508265
0.00501314
0.00510105
0.00504277
0.00510948
0.00505917
0.00510325
0.00501931
0.00520689
0.00543086
0.006053
0.00659238
0.00757642
0.00847771
0.00610238
0.00518603
0.00507392
0.0050512
0.00504351
0.00504025
0.00503864
0.00503773
0.00503717
0.00503678
0.0050364
0.0050363
0.0050364
0.0050364
0.0050363
0.0050364
0.0050363
0.0050364
0.0050364
0.0050363
0.0050364
0.0050364
0.0050363
0.0050364
0.0050364
0.0050363
0.0050364
0.0050363
0.0050364
0.0050364
0.0050363
0.0050364
0.0050364
0.0050363
0.0050364
0.0050364
0.0050363
0.0050364
0.0050363
0.0050364
0.0050364
0.0050363
0.0050364
0.0050364
0.0050363
0.0050364
0.0050364
0.0050363
0.0050364
0.0050363
0.0050364
0.0050364
0.0050363
0.0050364
0.0050364
0.0050363
0.0050364
0.0050364
0.0050363
0.0050364
0.0050363
0.0050364
0.0050364
0.0050363
0.0050364
0.0050364
0.0050363
0.0050364
0.0050364
0.0050363
0.0050364
0.0050363
0.0050364
0.0050364
0.0050363
0.0050364
0.0050364
0.0050363
0.0050364
0.0050364
0.0050363
0.0050364
0.0050363
0.0050364
0.0050364
0.0050363
0.0050364
0.0050364
0.0050363
0.0050364
0.0050364
0.0050363
0.0050364
0.0050363
0.0050364
0.0050364
0.0050363
0.0050364
0.00503641
0.00503631
0.00503641
0.00503641
0.00503632
0.00503642
0.00503633
0.00503645
0.00503646
0.00503638
0.00503651
0.00503656
0.00503652
0.00503671
0.00503683
0.00503698
0.00503739
0.00503578
0.00503367
0.00504288
0.00506814
0.005087
0.00512743
0.00517384
0.00518885
0.00519135
0.0052102
0.00519369
0.00519423
0.00518116
0.00515698
0.00512246
0.00509445
0.00508791
0.00509457
0.00508796
0.00509984
0.00510274
0.00509129
0.0050842
0.00507688
0.00505959
0.00506232
0.0050695
0.00508788
0.00508345
0.00507126
0.00507391
0.00509169
0.0050748
0.00505998
0.00506089
0.00506803
0.00505862
0.00505362
0.00505462
0.00506595
0.00506878
0.00506895
0.00506626
0.00507268
0.00506076
0.0050556
0.00506287
0.00506676
0.00505836
0.005069
0.0050654
0.00506614
0.00506321
0.00506598
0.00506206
0.00506555
0.00506681
0.00506151
0.00505474
0.0050584
0.00506251
0.00505846
0.00504996
0.00504978
0.00505405
0.00506421
0.00506839
0.00506631
0.00505139
0.00505045
0.00504412
0.00505956
0.00506905
0.0050497
0.00505461
0.00506477
0.00505084
0.00505719
0.00506222
0.00503521
0.00502533
0.00504105
0.00504412
0.00504698
0.00505063
0.00504304
0.00504948
0.00504883
0.00503946
0.00505335
0.0050477
0.00503143
0.0050407
0.00504488
0.005028
0.0050219
0.00503239
0.00503959
0.00504061
0.00503715
0.00503432
0.00502908
0.00503177
0.00502674
0.00502926
0.0050295
0.00502675
0.00502799
0.00502089
0.00501444
0.00500211
0.00502995
0.00504234
0.00505409
0.00505686
0.00505982
0.0050611
0.00505088
0.00503949
0.00505321
0.00506123
0.00505536
0.00505136
0.00505387
0.00504702
0.00505093
0.0051138
0.00515599
0.00509737
0.00505207
0.00503516
0.00504268
0.00507614
0.00506227
0.00504343
0.00503709
0.00503645
0.00503415
0.0050342
0.00503195
0.00503095
0.00502781
0.00502737
0.00502546
0.00502507
0.0050231
0.0050229
0.00502142
0.00502173
0.00502024
0.00501941
0.00501735
0.0050167
0.00501461
0.00501363
0.00501143
0.00501043
0.00500914
0.00500912
0.00500819
0.00500833
0.0050077
0.00500763
0.00500926
0.00501616
0.00503342
0.00504629
0.00502964
0.00501358
0.00501031
0.0050107
0.00501128
0.00501246
0.00501288
0.00501373
0.00501386
0.00501419
0.00501362
0.00501346
0.00501249
0.00501212
0.00501088
0.00501025
0.0050088
0.00500815
0.00500668
0.00500606
0.00500472
0.00500427
0.00500288
0.00500282
0.00500152
0.00500182
0.00499998
0.00500107
0.0049993
0.00499976
0.00500096
0.00499917
0.00500249
0.00500053
0.00500347
0.00500163
0.00500401
0.00500259
0.00500419
0.00500302
0.00500405
0.00500303
0.00500361
0.00500279
0.00500269
0.00500169
0.0050009
0.00499927
0.0050003
0.0050021
0.00500276
0.00500445
0.00500432
0.00500611
0.0050056
0.00500715
0.00500923
0.00501527
0.00503796
0.00503282
0.00501398
0.00500944
0.00501404
0.00500924
0.00501849
0.00500187
0.00501294
0.00501522
0.00505797
0.0051742
0.00504454
0.00500876
0.00501648
0.00502025
0.00502216
0.00502298
0.00502332
0.00502337
0.00502294
0.00502244
0.00502192
0.00502147
0.005021
0.00502069
0.00502042
0.00502039
0.00502028
0.00502056
0.0050208
0.00502107
0.00502152
0.00502201
0.00502259
0.00502319
0.00502349
0.00502366
0.00502384
0.00502318
0.00502364
0.00502204
0.00502424
0.00501946
0.00502635
0.00501289
0.00502768
0.00500073
0.00501767
0.00502736
0.00500173
0.00505072
0.00501962
0.00503821
0.00503471
0.00503374
0.00503422
0.00503445
0.00503446
0.00503466
0.00503462
0.00503465
0.00503468
0.00503468
0.00503466
0.00503473
0.0050345
0.00503506
0.00503399
0.00503611
0.00503206
0.00503943
0.00502773
0.00504378
0.00501348
0.00510559
0.00506701
0.0051031
0.00504092
0.00508346
0.00503165
0.00504167
0.0050323
0.00503426
0.00503367
0.00503408
0.00503449
0.00503448
0.00503492
0.00503497
0.00503501
0.00503499
0.00503529
0.00503552
0.00503461
0.00503481
0.00503463
0.00503461
0.00503459
0.00503465
0.00503454
0.00503456
0.00503461
0.00503452
0.00503453
0.00503459
0.00503453
0.00503463
0.00503458
0.00503457
0.0050346
0.00503448
0.00503464
0.00503462
0.00503454
0.0050346
0.00503461
0.00503458
0.00503471
0.00503467
0.00503455
0.00503453
0.00503459
0.00503471
0.00503459
0.00503456
0.00503458
0.00503464
0.00503456
0.00503459
0.00503465
0.0050346
0.00503457
0.00503459
0.00503467
0.00503456
0.00503448
0.00503447
0.00503458
0.00503453
0.00503443
0.00503419
0.00503438
0.00503431
0.00503439
0.00503429
0.00503417
0.00503467
0.00503399
0.00503554
0.00503193
0.00503851
0.005027
0.0050463
0.00501841
0.00505158
0.00502585
0.00503177
0.00507833
0.00509874
0.00510272
0.00512427
0.00502862
0.00505183
0.00502643
0.0050415
0.00503038
0.00503563
0.00503272
0.00503416
0.00503512
0.00503156
0.00503985
0.0050226
0.00504383
0.00503218
0.00504761
0.00507332
0.00509344
0.00508862
0.00512901
0.00503447
0.00504958
0.00503131
0.00503471
0.00503249
0.0050341
0.00503347
0.00503513
0.00503281
0.00503711
0.0050293
0.00504171
0.00502271
0.00505024
0.00501428
0.00506248
0.00500558
0.00507191
0.00500904
0.00507352
0.00501664
0.00506856
0.00499591
0.00519853
0.00545884
0.00601819
0.00658956
0.00747837
0.00812882
0.0063169
0.00531467
0.00511424
0.00506758
0.00505151
0.00504462
0.0050412
0.0050393
0.00503816
0.00503737
0.0050364
0.0050363
0.0050364
0.0050364
0.0050363
0.0050364
0.0050363
0.0050364
0.0050364
0.0050363
0.0050364
0.0050364
0.0050363
0.0050364
0.0050364
0.0050363
0.0050364
0.0050363
0.0050364
0.0050364
0.0050363
0.0050364
0.0050364
0.0050363
0.0050364
0.0050364
0.0050363
0.0050364
0.0050363
0.0050364
0.0050364
0.0050363
0.0050364
0.0050364
0.0050363
0.0050364
0.0050364
0.0050363
0.0050364
0.0050363
0.0050364
0.0050364
0.0050363
0.0050364
0.0050364
0.0050363
0.0050364
0.0050364
0.0050363
0.0050364
0.0050363
0.0050364
0.0050364
0.0050363
0.0050364
0.0050364
0.0050363
0.0050364
0.0050364
0.0050363
0.0050364
0.0050363
0.0050364
0.0050364
0.0050363
0.0050364
0.0050364
0.0050363
0.0050364
0.0050364
0.0050363
0.0050364
0.0050363
0.0050364
0.0050364
0.0050363
0.0050364
0.0050364
0.0050363
0.0050364
0.0050364
0.0050363
0.0050364
0.0050363
0.0050364
0.0050364
0.0050363
0.00503641
0.00503641
0.00503631
0.00503641
0.00503642
0.00503633
0.00503643
0.00503635
0.00503646
0.00503648
0.00503641
0.00503655
0.0050366
0.00503657
0.00503676
0.00503683
0.00503696
0.0050373
0.00503321
0.00502964
0.00506331
0.00510542
0.00514187
0.00517603
0.00521106
0.00524921
0.00527705
0.00530344
0.00529149
0.00528855
0.00527249
0.00523614
0.0051891
0.00515473
0.00514692
0.00514978
0.00514455
0.0051508
0.00515831
0.00515048
0.00513795
0.0051249
0.00511043
0.00510912
0.00511171
0.00513127
0.00513794
0.00512829
0.00512388
0.00513406
0.0051241
0.00511079
0.00510335
0.00510328
0.00509855
0.00509441
0.00509108
0.00510116
0.00511125
0.00511435
0.00510814
0.00510809
0.00509965
0.00509301
0.00509528
0.00509922
0.00509692
0.00510712
0.00510408
0.00509661
0.00509602
0.00510582
0.00510176
0.0050926
0.00508858
0.00509073
0.00508828
0.00508474
0.00508445
0.00508446
0.00507909
0.00507546
0.00507784
0.00508694
0.00509076
0.00508844
0.00507738
0.00507268
0.00506706
0.00507805
0.0050856
0.0050735
0.00507433
0.00507861
0.00507102
0.00507717
0.00507779
0.00505362
0.00504133
0.0050566
0.00505924
0.00506146
0.00506629
0.00506173
0.00506354
0.00506292
0.00505678
0.00506401
0.0050595
0.00504645
0.00505031
0.00505239
0.00504008
0.00503388
0.00504051
0.00504733
0.00504961
0.00504717
0.00504349
0.00503689
0.00503751
0.00503642
0.00503773
0.00503513
0.00503182
0.00503106
0.00502341
0.00501331
0.005002
0.00502818
0.00504321
0.00505449
0.0050579
0.00505988
0.00505986
0.00505068
0.00504234
0.00505274
0.00505929
0.0050552
0.00505204
0.00505312
0.00504934
0.00505872
0.00511085
0.00514228
0.00509683
0.00505512
0.00503854
0.00504572
0.00507014
0.00506069
0.00504431
0.00503743
0.00503585
0.00503401
0.00503354
0.00503178
0.00503034
0.00502772
0.00502686
0.00502515
0.00502445
0.00502277
0.00502239
0.00502112
0.00502103
0.00501969
0.0050188
0.00501711
0.00501608
0.00501421
0.00501302
0.00501104
0.00500995
0.00500887
0.00500855
0.0050078
0.00500785
0.00500741
0.00500757
0.00500983
0.00501698
0.00503218
0.00504178
0.0050287
0.00501454
0.00501029
0.00501029
0.00501093
0.0050118
0.00501237
0.00501317
0.00501334
0.00501359
0.00501307
0.00501274
0.00501202
0.00501137
0.00501028
0.00500945
0.00500825
0.00500743
0.00500627
0.00500544
0.00500422
0.00500327
0.00500224
0.005002
0.00500086
0.00500082
0.00499963
0.00499987
0.00499833
0.0049985
0.00499957
0.004999
0.00500117
0.00500042
0.00500226
0.00500137
0.00500273
0.00500205
0.00500319
0.00500249
0.00500317
0.0050025
0.00500261
0.00500208
0.00500176
0.00500102
0.00500026
0.00499863
0.00499977
0.00500121
0.00500213
0.00500352
0.00500382
0.00500526
0.00500522
0.00500676
0.00500941
0.00501641
0.00503369
0.00502995
0.00501455
0.00500976
0.00501223
0.00501004
0.00501476
0.00500445
0.0050097
0.00500751
0.00506212
0.00514322
0.00505193
0.00501323
0.00501594
0.00501926
0.00502103
0.00502192
0.00502233
0.00502229
0.00502191
0.0050215
0.00502101
0.00502057
0.00502007
0.00501968
0.00501936
0.0050193
0.00501929
0.00501964
0.00501969
0.00502011
0.00502049
0.00502103
0.00502158
0.00502212
0.0050225
0.00502268
0.00502268
0.00502214
0.0050222
0.00502136
0.00502221
0.00501953
0.00502279
0.0050144
0.00502073
0.00500014
0.0050078
0.00501649
0.0050045
0.00503952
0.0050234
0.00503423
0.00503369
0.00503256
0.0050331
0.00503329
0.00503327
0.0050334
0.00503343
0.00503346
0.00503366
0.00503364
0.0050335
0.00503356
0.00503353
0.00503381
0.00503333
0.00503436
0.00503214
0.00503604
0.00502983
0.00503784
0.00502516
0.00508838
0.00505192
0.00506431
0.00502835
0.00507041
0.00503669
0.00503863
0.00503264
0.00503286
0.00503274
0.00503292
0.00503333
0.00503338
0.0050336
0.00503382
0.00503396
0.005034
0.00503424
0.00503425
0.00503352
0.00503357
0.00503346
0.00503353
0.00503343
0.00503357
0.0050335
0.00503346
0.00503354
0.00503352
0.00503352
0.00503351
0.0050335
0.0050335
0.0050336
0.00503349
0.00503349
0.00503339
0.00503349
0.00503349
0.00503349
0.00503349
0.00503339
0.00503339
0.00503339
0.00503349
0.00503339
0.00503339
0.00503349
0.00503359
0.00503349
0.00503339
0.00503349
0.00503349
0.00503339
0.00503349
0.00503349
0.00503359
0.00503349
0.00503339
0.00503349
0.00503349
0.00503349
0.00503339
0.00503339
0.00503339
0.00503329
0.00503319
0.00503329
0.00503309
0.00503329
0.00503338
0.00503319
0.00503338
0.00503319
0.00503389
0.00503199
0.00503538
0.00502934
0.00503989
0.00502387
0.00503866
0.00500796
0.00502877
0.00505199