/*--------------------------------*- C++ -*----------------------------------*\
| =========                 |                                                 |
| \\      /  F ield         | foam-extend: Open Source CFD                    |
|  \\    /   O peration     | Version:     3.2                                |
|   \\  /    A nd           | Web:         http://www.foam-extend.org         |
|    \\/     M anipulation  | For copyright notice see file Copyright         |
\*---------------------------------------------------------------------------*/
FoamFile
{
    version     2.0;
    format      ascii;
    class       volScalarField;
    location    "2020";
    object      zDim;
}
// * * * * * * * * * * * * * * * * * * * * * * * * * * * * * * * * * * * * * //

dimensions      [0 1 0 0 0 0 0];

internalField   nonuniform List<scalar> 
33000
(
0.00503636
0.00503637
0.00503636
0.00503636
0.00503637
0.00503636
0.00503636
0.00503636
0.00503636
0.00503638
0.00504437
0.00503694
0.00502836
0.0050422
0.00503684
0.00502993
0.00504037
0.00504066
0.00503555
0.00503544
0.00503291
0.00503548
0.00503632
0.00503388
0.00503618
0.00503636
0.00503799
0.00503647
0.00503474
0.00503624
0.00503636
0.00503763
0.00503766
0.00503636
0.00503627
0.00503519
0.00503621
0.00503738
0.00503538
0.00503624
0.0050373
0.00503546
0.00503625
0.00503723
0.00503638
0.00503633
0.00503649
0.00503331
0.00505094
0.00501047
0.00506161
0.00501019
0.00507405
0.00501081
0.00508432
0.0050123
0.00508307
0.00500763
0.0050834
0.00501349
0.00508374
0.00501007
0.00508369
0.00500143
0.00507205
0.00499868
0.0050689
0.00498894
0.00506546
0.00499092
0.00505142
0.00499505
0.00502864
0.00497975
0.00499606
0.00521665
0.00538184
0.00505491
0.00494725
0.00498257
0.00490247
0.00495405
0.00487512
0.00492411
0.00489627
0.004875
0.00491298
0.00488262
0.004886
0.00487836
0.00494043
0.00491333
0.00493498
0.00491854
0.00492139
0.00491701
0.00490998
0.00491179
0.00495
0.00509767
0.00494271
0.00509965
0.00548937
0.00504963
0.00514751
0.00494812
0.00512383
0.00497046
0.0049536
0.00501814
0.00497385
0.00501206
0.0049751
0.00498349
0.00496183
0.00504521
0.0049875
0.00526151
0.00560872
0.00515145
0.005189
0.00513914
0.00525415
0.0053563
0.00510657
0.00520898
0.00521857
0.00518088
0.00547466
0.00512459
0.00512243
0.00515231
0.00517994
0.00522801
0.00522648
0.00530452
0.00535768
0.0050089
0.00506707
0.00508716
0.00511241
0.00511903
0.00512267
0.0051137
0.00511714
0.00510501
0.00510761
0.00509335
0.00509629
0.00508151
0.00508563
0.00507141
0.00507492
0.00506125
0.00506486
0.00505064
0.00505618
0.00503295
0.00505074
0.00500489
0.00506052
0.00503736
0.00506412
0.00507763
0.00505533
0.00511814
0.00501599
0.00515366
0.00505214
0.00518895
0.00501402
0.00508498
0.0050066
0.00505481
0.00500437
0.00503122
0.00500623
0.00501132
0.00501542
0.00500332
0.00502647
0.00501163
0.00503328
0.00501714
0.00503775
0.00502081
0.00504057
0.00502318
0.00504235
0.0050246
0.00504317
0.00502529
0.00504334
0.00502521
0.00504269
0.00502442
0.00504139
0.00502318
0.00503963
0.00502169
0.00503773
0.00501999
0.0050356
0.00501822
0.00503351
0.00501645
0.00503146
0.00501469
0.00502943
0.00501292
0.00502736
0.00501117
0.00502539
0.00500945
0.00502355
0.00500788
0.0050218
0.00500643
0.00502029
0.00500518
0.00501904
0.00500419
0.00501813
0.00500354
0.00501759
0.00500311
0.00501725
0.00500278
0.00501701
0.00500247
0.00501674
0.00500223
0.00501656
0.00500203
0.00501657
0.00500208
0.00501674
0.00500229
0.00501713
0.00500268
0.00501778
0.00500326
0.00501882
0.00500413
0.00502001
0.00500502
0.00502115
0.00500567
0.00502229
0.00500611
0.00502357
0.00500618
0.00502519
0.00500563
0.00502777
0.00500416
0.00503212
0.00500303
0.00503859
0.00500457
0.00504674
0.00501201
0.00505406
0.00502091
0.00505978
0.00503044
0.00506289
0.00503942
0.00506183
0.00504623
0.00505546
0.00504846
0.00504294
0.00504335
0.00502439
0.00502774
0.00500286
0.00500001
0.00501557
0.0050226
0.00504475
0.00501149
0.00508887
0.00520039
0.00606229
0.00508074
0.00505054
0.00509698
0.00501359
0.00507339
0.00501869
0.00506189
0.00502782
0.00505373
0.00503504
0.00504715
0.00504
0.00504286
0.00504443
0.00503859
0.00504584
0.00503463
0.00504553
0.0050312
0.00504445
0.00502832
0.00504273
0.00502569
0.00504041
0.00502327
0.00503777
0.00502104
0.00503482
0.00501901
0.00503157
0.00501697
0.00502829
0.00501512
0.00502491
0.00501335
0.0050216
0.00501155
0.00501817
0.00500979
0.00501488
0.00500794
0.00501145
0.00500581
0.00500777
0.00500327
0.00500354
0.00500083
0.00500232
0.00500599
0.00500695
0.00501047
0.00501106
0.00501437
0.00501481
0.00501798
0.00501818
0.00502119
0.00502118
0.00502405
0.00502374
0.00502624
0.00502558
0.00502787
0.00502698
0.00502888
0.00502763
0.00502907
0.00502597
0.00502733
0.00502099
0.00502462
0.00501238
0.00502318
0.00500279
0.00502359
0.0050263
0.00500517
0.00505869
0.00502173
0.00503484
0.00503665
0.00503676
0.00503606
0.00503669
0.00503609
0.00503638
0.00503642
0.0050364
0.0050363
0.00503639
0.00503609
0.00503677
0.00503636
0.00503669
0.00503637
0.00503535
0.00503357
0.00503906
0.00503065
0.00504554
0.00501999
0.00506077
0.00500496
0.00509174
0.00503766
0.00514022
0.00508772
0.00518054
0.0051494
0.00529554
0.00537578
0.00586935
0.00540424
0.00514775
0.00502299
0.00508809
0.00500991
0.00507101
0.00501161
0.005047
0.00503915
0.00501812
0.00506966
0.00501832
0.00511954
0.0050822
0.00517244
0.00515404
0.00527935
0.00540593
0.00591822
0.00542229
0.00518586
0.00505093
0.00511273
0.00503018
0.00509124
0.00500803
0.00507076
0.00501119
0.00505587
0.00502291
0.00504646
0.00502896
0.00504038
0.00503257
0.00503747
0.00503412
0.00503642
0.0050353
0.0050357
0.00503546
0.00503617
0.00503589
0.00503606
0.00503613
0.00503599
0.00503613
0.005036
0.00503624
0.00503641
0.00503626
0.00503595
0.0050361
0.00503619
0.00503646
0.00503643
0.00503608
0.00503644
0.00503621
0.00503586
0.00503629
0.00503644
0.00503635
0.00503661
0.00503589
0.00503638
0.00503653
0.0050357
0.00503832
0.00503165
0.00504546
0.00501939
0.00506541
0.00500789
0.00511067
0.00507914
0.00518873
0.00521027
0.0053519
0.00539134
0.0059501
0.00537485
0.00527778
0.0051016
0.00513537
0.00503241
0.00508268
0.00501014
0.00505268
0.00502585
0.00503886
0.00503199
0.00503662
0.00503487
0.00503605
0.00503566
0.00503618
0.00503583
0.00503605
0.00503664
0.00503605
0.00503626
0.00503596
0.00503624
0.00503612
0.00503584
0.00503639
0.00503619
0.00503676
0.00503609
0.00503588
0.00503635
0.00503609
0.00503649
0.00503607
0.00503592
0.00503651
0.0050364
0.00503643
0.00503563
0.00503767
0.00503276
0.00504295
0.00502296
0.00505709
0.00500429
0.00508847
0.00503632
0.00514006
0.00508933
0.00520377
0.00515937
0.00526349
0.00523384
0.00529257
0.00525852
0.00526942
0.00520355
0.00557041
0.00572028
0.00668768
0.00752199
0.00898001
0.0109068
0.00555948
0.00503039
0.00503909
0.0050371
0.0050368
0.0050365
0.0050365
0.0050365
0.0050363
0.0050364
0.00503636
0.00503637
0.00503636
0.00503636
0.00503637
0.00503636
0.00503637
0.00503635
0.00503633
0.00503688
0.00504318
0.00503706
0.00503007
0.00504062
0.00503686
0.00503124
0.00503943
0.00504029
0.00503603
0.00503531
0.00503333
0.00503531
0.00503607
0.00503424
0.00503597
0.00503644
0.00503775
0.0050365
0.005035
0.00503611
0.00503642
0.00503751
0.00503757
0.00503647
0.00503622
0.00503535
0.00503619
0.00503714
0.00503562
0.00503623
0.00503708
0.00503568
0.00503625
0.00503708
0.00503645
0.00503635
0.00503623
0.00503479
0.00504663
0.00501753
0.0050535
0.00501904
0.00506249
0.00500645
0.00506914
0.00500732
0.00506838
0.00500675
0.00506861
0.00500642
0.00506816
0.00500385
0.00506822
0.00500161
0.00505824
0.00499182
0.00505615
0.00499061
0.00505709
0.00499093
0.00504698
0.0049897
0.0050312
0.00499015
0.00503064
0.00515409
0.0053434
0.00512519
0.0049642
0.00502078
0.00494324
0.00499236
0.00492871
0.00496528
0.00494312
0.00491631
0.00494853
0.00492537
0.00492543
0.00492597
0.00497124
0.00494807
0.00496262
0.00495234
0.00494949
0.00495218
0.00494159
0.00495594
0.00500135
0.00510696
0.0049647
0.00505563
0.00543189
0.00510406
0.00514831
0.00496689
0.00513076
0.00500502
0.00497483
0.005032
0.00498138
0.00502402
0.00499244
0.00498934
0.00497681
0.00503848
0.00500466
0.0051572
0.00547002
0.00510955
0.00518735
0.00516495
0.00520113
0.00526675
0.0050888
0.00520503
0.00521331
0.00512246
0.00537336
0.00508581
0.00512783
0.00515403
0.00518341
0.00522543
0.00523391
0.00530357
0.00532081
0.00503532
0.00506436
0.00508833
0.00511141
0.00511887
0.00512144
0.00511438
0.00511554
0.00510578
0.00510582
0.00509422
0.00509443
0.0050825
0.00508373
0.0050723
0.00507308
0.00506212
0.00506298
0.00505171
0.00505331
0.00503569
0.00504482
0.0050109
0.00504743
0.00502075
0.00504401
0.00505487
0.00502985
0.0050924
0.00500938
0.00513061
0.00506989
0.00516475
0.00503343
0.00507332
0.00501465
0.00504668
0.00500753
0.00502608
0.00500289
0.00500815
0.00501255
0.00500618
0.00502352
0.00501448
0.00503026
0.00501996
0.00503471
0.00502357
0.00503751
0.00502589
0.00503927
0.00502727
0.00504011
0.00502791
0.00504028
0.00502778
0.00503963
0.00502695
0.00503835
0.00502563
0.00503667
0.00502408
0.0050348
0.00502232
0.00503272
0.0050205
0.00503067
0.00501867
0.00502867
0.00501687
0.00502668
0.00501505
0.00502465
0.00501327
0.00502272
0.00501153
0.00502092
0.00500992
0.00501918
0.00500842
0.00501769
0.00500716
0.00501651
0.00500618
0.00501559
0.00500549
0.00501506
0.00500508
0.00501472
0.00500476
0.00501447
0.00500446
0.0050142
0.00500423
0.00501401
0.00500405
0.00501404
0.00500412
0.00501418
0.00500432
0.00501455
0.00500475
0.00501518
0.00500536
0.0050162
0.00500628
0.00501735
0.00500722
0.00501839
0.00500793
0.00501944
0.00500848
0.00502055
0.00500877
0.00502186
0.00500866
0.00502388
0.00500797
0.00502716
0.00500621
0.00503193
0.00500357
0.00503778
0.00500467
0.00504261
0.00500827
0.00504593
0.00501555
0.00504705
0.00502292
0.00504484
0.0050292
0.00503872
0.00503257
0.00502842
0.00503077
0.00501451
0.00502094
0.00500198
0.00500073
0.00501113
0.00501374
0.0050341
0.00500393
0.00508936
0.00510439
0.00587199
0.00499785
0.00505305
0.00508515
0.00502434
0.00506383
0.00502603
0.00505534
0.00503219
0.00504974
0.00503717
0.00504519
0.0050405
0.00504234
0.00504352
0.00503929
0.0050441
0.00503608
0.00504329
0.00503307
0.00504184
0.00503038
0.00503996
0.0050279
0.00503757
0.00502545
0.00503501
0.0050231
0.00503219
0.00502097
0.00502919
0.00501872
0.00502611
0.00501665
0.00502292
0.00501462
0.00501989
0.00501262
0.00501669
0.00501058
0.00501361
0.00500852
0.00501044
0.00500611
0.00500694
0.00500343
0.00500294
0.00500038
0.00500225
0.00500551
0.00500695
0.00501
0.00501099
0.00501388
0.00501478
0.00501745
0.00501813
0.00502065
0.00502113
0.0050235
0.00502359
0.00502559
0.00502543
0.00502728
0.00502683
0.00502822
0.0050274
0.00502823
0.00502585
0.00502617
0.00502127
0.00502273
0.0050136
0.00501954
0.0050013
0.00501658
0.00501868
0.00500155
0.0050496
0.00502533
0.00503328
0.00503599
0.00503625
0.00503569
0.00503618
0.00503571
0.00503588
0.00503598
0.00503594
0.00503591
0.00503593
0.00503572
0.00503621
0.00503601
0.00503624
0.00503595
0.00503494
0.00503364
0.00503755
0.00503201
0.00504203
0.00502459
0.00505237
0.00500849
0.00507376
0.00501317
0.00510778
0.00504846
0.00513275
0.00508415
0.00526055
0.00528329
0.0056704
0.00527344
0.00515834
0.00501322
0.00507173
0.00500715
0.00505953
0.00501889
0.00504292
0.00503798
0.00502313
0.00505838
0.00500625
0.00509239
0.00504611
0.00512612
0.00508988
0.00524857
0.00530369
0.00570745
0.00528704
0.00519026
0.00502397
0.00508879
0.00501058
0.00507357
0.00500727
0.00505939
0.00501912
0.00504921
0.00502704
0.00504275
0.0050309
0.00503842
0.0050332
0.00503639
0.00503415
0.00503571
0.00503502
0.00503525
0.00503514
0.00503568
0.00503553
0.00503564
0.00503572
0.00503563
0.00503572
0.00503563
0.00503583
0.00503595
0.0050358
0.00503553
0.0050357
0.00503581
0.00503603
0.00503599
0.00503568
0.00503595
0.00503584
0.00503554
0.00503585
0.005036
0.00503599
0.00503611
0.0050356
0.00503597
0.00503604
0.00503554
0.00503723
0.00503279
0.00504203
0.00502445
0.00505562
0.00500512
0.00508597
0.00504322
0.00513578
0.00512983
0.00530336
0.00529611
0.00573921
0.00525047
0.00526024
0.0050582
0.00510394
0.00501256
0.00506756
0.00501919
0.00504668
0.0050288
0.00503682
0.00503252
0.00503571
0.00503473
0.00503557
0.00503535
0.00503567
0.00503544
0.00503565
0.00503614
0.00503572
0.00503584
0.0050356
0.00503579
0.00503567
0.00503545
0.00503589
0.00503582
0.00503627
0.00503575
0.0050355
0.00503585
0.0050357
0.005036
0.00503564
0.00503554
0.00503607
0.00503601
0.00503593
0.0050354
0.00503676
0.00503346
0.00504023
0.00502668
0.00504987
0.00501237
0.00507153
0.00501221
0.00510745
0.00504793
0.00515152
0.00509733
0.00519057
0.0051525
0.00520702
0.00517077
0.00518596
0.00508759
0.00549674
0.0057477
0.00661548
0.00747659
0.00885796
0.0104321
0.00614042
0.00510606
0.00505475
0.00504352
0.00503984
0.00503823
0.00503742
0.00503709
0.00503672
0.00503655
0.00503636
0.00503633
0.00503639
0.00503635
0.00503632
0.00503638
0.00503636
0.00503643
0.00503634
0.00503734
0.00504201
0.00503712
0.0050317
0.00503923
0.00503668
0.00503251
0.00503865
0.00503979
0.00503646
0.00503526
0.00503371
0.00503518
0.00503587
0.00503452
0.00503583
0.0050365
0.00503741
0.00503647
0.0050352
0.00503604
0.00503648
0.00503738
0.00503754
0.00503658
0.00503612
0.00503557
0.00503615
0.00503683
0.00503583
0.00503624
0.00503687
0.00503592
0.00503625
0.00503696
0.00503651
0.00503635
0.00503614
0.00503594
0.00504281
0.00502378
0.0050467
0.00502632
0.00505257
0.00501431
0.00505641
0.00501536
0.00505622
0.00501848
0.00505621
0.00501332
0.00505528
0.00501278
0.00505471
0.00501198
0.00504405
0.00499909
0.00504219
0.00500419
0.00505106
0.00500955
0.00504843
0.00500075
0.00503865
0.00501901
0.00507695
0.00513382
0.00533043
0.00520536
0.00503796
0.00508555
0.00503377
0.00505933
0.0050079
0.00503032
0.00501067
0.00498259
0.00500944
0.00499377
0.00499195
0.00499466
0.00502438
0.00500633
0.00501731
0.00500503
0.00499992
0.00500538
0.00499817
0.00501872
0.0050651
0.00514134
0.00503943
0.00504536
0.00539726
0.0051668
0.00515889
0.00503192
0.00515192
0.00505921
0.00502198
0.00505766
0.00500974
0.00504347
0.00501169
0.00499525
0.00498803
0.0050307
0.00501964
0.00507116
0.00533949
0.00506612
0.00518224
0.00518041
0.00515686
0.00518076
0.00507502
0.00519746
0.00519967
0.00507807
0.00527701
0.00505146
0.00512884
0.0051559
0.00518617
0.00522324
0.00523989
0.00529684
0.00528704
0.00506202
0.00506443
0.00508883
0.00510998
0.00511814
0.0051201
0.00511468
0.00511406
0.00510609
0.00510402
0.00509466
0.00509265
0.00508305
0.00508196
0.00507279
0.00507129
0.00506255
0.00506118
0.00505222
0.00505066
0.00503746
0.00503996
0.00501678
0.00503627
0.00500641
0.00502695
0.00503555
0.00500815
0.00507073
0.00502368
0.00511125
0.00508332
0.00514266
0.00505041
0.00506439
0.00502381
0.0050401
0.00501319
0.00502183
0.00500309
0.00500551
0.00501003
0.00500833
0.00502095
0.0050166
0.00502753
0.00502208
0.00503191
0.00502567
0.00503475
0.00502785
0.00503642
0.00502931
0.00503733
0.00502982
0.0050374
0.00502968
0.00503684
0.00502871
0.00503548
0.00502735
0.00503395
0.00502573
0.00503198
0.00502393
0.00503
0.00502209
0.00502799
0.00502029
0.00502605
0.0050184
0.005024
0.00501661
0.00502208
0.00501468
0.00502027
0.00501293
0.00501845
0.00501124
0.00501672
0.00500979
0.00501536
0.00500857
0.00501401
0.00500755
0.00501325
0.00500695
0.00501274
0.00500643
0.00501224
0.00500605
0.00501203
0.00500587
0.00501174
0.00500553
0.00501155
0.00500541
0.00501164
0.00500539
0.00501169
0.00500572
0.00501202
0.0050062
0.00501271
0.00500686
0.00501361
0.00500765
0.00501477
0.00500866
0.0050158
0.00500949
0.00501683
0.00501016
0.00501766
0.00501064
0.00501876
0.00501084
0.00502034
0.00501073
0.00502276
0.00501005
0.00502619
0.00500855
0.00502999
0.0050054
0.0050328
0.00500327
0.00503404
0.00500384
0.0050336
0.00500887
0.00503026
0.00501461
0.00502437
0.00501901
0.00501581
0.00501992
0.00500568
0.00501487
0.00500281
0.00500112
0.00500699
0.00500595
0.00502491
0.00500765
0.0050809
0.00508414
0.00569081
0.00500326
0.00504249
0.00507234
0.00503227
0.00505534
0.00503155
0.00504945
0.00503528
0.005046
0.00503843
0.00504317
0.00504044
0.00504156
0.00504232
0.00503945
0.00504219
0.00503683
0.00504095
0.0050342
0.00503926
0.00503173
0.00503723
0.00502931
0.00503482
0.00502685
0.00503229
0.00502446
0.0050296
0.00502219
0.00502676
0.00501977
0.00502385
0.00501751
0.00502089
0.00501527
0.00501804
0.00501305
0.00501506
0.00501079
0.00501217
0.00500853
0.00500919
0.00500595
0.00500587
0.00500307
0.00500202
0.0049996
0.00500176
0.0050047
0.00500646
0.00500914
0.00501052
0.00501303
0.00501428
0.00501658
0.00501763
0.00501977
0.0050206
0.00502256
0.00502304
0.00502464
0.00502486
0.00502629
0.00502621
0.00502721
0.00502671
0.00502704
0.00502517
0.00502469
0.00502088
0.00502064
0.00501396
0.00501601
0.00500278
0.00500997
0.00501182
0.0050043
0.005041
0.00502734
0.00503172
0.00503477
0.00503523
0.00503491
0.00503523
0.0050349
0.00503501
0.00503508
0.00503506
0.00503506
0.00503503
0.0050349
0.00503528
0.0050352
0.00503534
0.00503502
0.00503408
0.00503327
0.00503578
0.0050326
0.00503858
0.00502797
0.00504476
0.0050179
0.00505808
0.00500559
0.00507982
0.00501553
0.00509269
0.00502658
0.00522344
0.00519428
0.00548496
0.00516677
0.00515209
0.00502102
0.00505844
0.00501619
0.00504965
0.00502435
0.00503924
0.00503632
0.00502696
0.00504831
0.00500934
0.00506888
0.00501589
0.00508705
0.00503276
0.00521494
0.00520605
0.005511
0.00517686
0.0051775
0.00501696
0.0050694
0.00500857
0.00505869
0.00501789
0.00504972
0.00502509
0.00504337
0.00502988
0.00503928
0.00503195
0.00503636
0.00503319
0.00503505
0.00503369
0.00503465
0.00503427
0.00503436
0.00503436
0.00503476
0.0050347
0.00503478
0.00503483
0.00503478
0.00503485
0.00503481
0.005035
0.00503512
0.005035
0.00503471
0.00503483
0.00503495
0.00503515
0.00503515
0.00503494
0.00503503
0.00503495
0.00503475
0.00503501
0.00503513
0.00503518
0.00503521
0.00503482
0.00503514
0.00503519
0.00503495
0.00503586
0.00503329
0.00503875
0.00502827
0.00504699
0.00501517
0.00506466
0.0050138
0.00509105
0.00505887
0.0052538
0.00520296
0.00554043
0.00515052
0.00522746
0.00502543
0.00507904
0.00501115
0.00505513
0.00502578
0.00504146
0.00503054
0.00503483
0.00503245
0.00503438
0.00503406
0.00503464
0.00503464
0.00503485
0.00503474
0.0050348
0.00503527
0.00503492
0.00503502
0.00503481
0.00503493
0.00503489
0.0050347
0.00503504
0.00503499
0.0050353
0.00503494
0.00503475
0.00503512
0.00503491
0.00503526
0.00503489
0.00503466
0.00503521
0.00503521
0.00503501
0.00503473
0.00503544
0.00503363
0.00503743
0.00502924
0.0050433
0.00502049
0.00505671
0.00500533
0.00507936
0.00501349
0.00510686
0.00504545
0.00512866
0.00508336
0.00513462
0.00509277
0.00511866
0.0050072
0.00544347
0.00577592
0.00656142
0.00743907
0.00872723
0.00991718
0.00660284
0.00525699
0.00509154
0.00505824
0.00504691
0.00504213
0.00503973
0.0050384
0.00503756
0.00503699
0.0050364
0.0050363
0.0050364
0.0050364
0.0050363
0.0050364
0.0050363
0.0050365
0.0050365
0.0050376
0.0050409
0.0050372
0.0050331
0.0050382
0.0050366
0.0050336
0.0050381
0.0050392
0.0050367
0.0050353
0.0050341
0.0050351
0.0050357
0.0050348
0.0050358
0.0050365
0.0050372
0.0050366
0.0050355
0.005036
0.0050365
0.0050372
0.0050374
0.0050367
0.0050361
0.0050358
0.0050363
0.0050367
0.005036
0.0050362
0.0050367
0.005036
0.0050362
0.0050368
0.0050365
0.0050363
0.00503619
0.00503667
0.00504006
0.00502822
0.00504214
0.00503121
0.00504589
0.00502264
0.00504752
0.00502384
0.00504784
0.00502675
0.00504802
0.00502223
0.00504723
0.00502264
0.0050444
0.00501602
0.00503171
0.00500455
0.00502912
0.00501106
0.00504848
0.00503213
0.00505702
0.00502488
0.00504654
0.00506307
0.00511831
0.00513923
0.00532189
0.00529822
0.00516097
0.00516942
0.00514232
0.00514679
0.00509864
0.0051079
0.00508908
0.00506794
0.0050873
0.00508018
0.00508105
0.0050824
0.00509517
0.00508191
0.00509289
0.00508074
0.00507263
0.00507173
0.0050741
0.00509322
0.00513192
0.00518262
0.00512466
0.00509005
0.00541317
0.00523626
0.00518102
0.00510954
0.00518365
0.00511373
0.00507331
0.00509202
0.00505351
0.00506107
0.00502734
0.00500782
0.00499332
0.00502677
0.00502143
0.00500366
0.00522306
0.0050401
0.00517114
0.00518153
0.00513176
0.00511017
0.00507177
0.0051857
0.00517971
0.00505013
0.00519962
0.00503009
0.00512524
0.00515672
0.00518781
0.0052212
0.00524315
0.00528662
0.0052599
0.00508387
0.00506785
0.00508914
0.00510847
0.00511694
0.00511864
0.00511435
0.00511248
0.00510597
0.0051026
0.00509482
0.00509113
0.00508299
0.00508025
0.00507267
0.0050697
0.00506257
0.00505949
0.00505191
0.00504849
0.00503818
0.00503623
0.00502009
0.00502826
0.00500024
0.00501457
0.00502202
0.00500081
0.00505533
0.00503616
0.00509728
0.0050905
0.00512561
0.00506162
0.00505893
0.00503
0.00503559
0.00501678
0.00501877
0.00500509
0.00500348
0.00500809
0.00500942
0.00501881
0.00501769
0.00502533
0.0050233
0.00502975
0.00502676
0.00503247
0.00502889
0.0050342
0.00503032
0.00503496
0.00503081
0.00503516
0.00503056
0.00503452
0.00502968
0.00503337
0.00502826
0.00503171
0.00502653
0.00502989
0.00502487
0.00502779
0.00502276
0.00502588
0.00502094
0.0050239
0.00501898
0.00502193
0.00501719
0.00502
0.00501529
0.00501805
0.00501334
0.00501634
0.0050117
0.00501471
0.00501038
0.00501312
0.00500885
0.00501195
0.00500813
0.00501108
0.00500717
0.00501038
0.00500676
0.00501014
0.00500659
0.00501006
0.00500633
0.00500953
0.00500598
0.00500942
0.00500592
0.00500942
0.0050059
0.00500962
0.00500622
0.00500992
0.00500675
0.00501045
0.00500727
0.00501138
0.00500833
0.00501264
0.00500924
0.00501344
0.00500996
0.00501432
0.00501054
0.00501526
0.00501128
0.00501612
0.0050117
0.00501744
0.00501209
0.00501927
0.00501209
0.00502163
0.00501157
0.00502416
0.00500989
0.00502541
0.00500646
0.00502543
0.00500209
0.00502363
0.00500087
0.00501968
0.00500406
0.00501379
0.00500892
0.00500653
0.00501183
0.00499994
0.00501009
0.00500297
0.00500092
0.00500387
0.00500033
0.00501824
0.005014
0.00506376
0.00513096
0.00554405
0.00505659
0.00502373
0.00505936
0.00503605
0.00504868
0.00503448
0.00504488
0.00503684
0.00504286
0.00503858
0.00504122
0.00503964
0.00504027
0.00504075
0.00503893
0.00504026
0.00503672
0.00503871
0.00503445
0.00503686
0.00503207
0.00503475
0.00502974
0.00503234
0.00502722
0.00502989
0.0050248
0.0050273
0.00502251
0.00502459
0.00501996
0.00502178
0.00501742
0.00501887
0.00501511
0.00501618
0.00501271
0.00501339
0.00501041
0.00501055
0.00500792
0.00500772
0.00500518
0.00500446
0.00500222
0.00500071
0.00499848
0.00500079
0.00500354
0.00500555
0.00500799
0.00500963
0.00501187
0.00501335
0.00501524
0.00501664
0.00501852
0.00501959
0.00502125
0.00502199
0.0050234
0.00502387
0.0050249
0.00502505
0.00502574
0.00502554
0.0050254
0.00502399
0.00502304
0.00501983
0.0050184
0.00501335
0.00501276
0.00500321
0.00500438
0.00500646
0.00500708
0.00503377
0.00502764
0.00503005
0.0050331
0.00503377
0.00503359
0.00503381
0.0050337
0.00503377
0.00503377
0.00503369
0.00503377
0.00503371
0.00503359
0.0050339
0.00503388
0.0050339
0.00503375
0.00503286
0.0050323
0.00503396
0.00503219
0.00503555
0.00502953
0.00503897
0.00502362
0.00504663
0.00501444
0.00505985
0.0050052
0.00506573
0.00500568
0.00518659
0.00512719
0.00533861
0.00509354
0.00513532
0.00503649
0.0050496
0.00502328
0.00504241
0.0050274
0.0050361
0.00503446
0.00502885
0.00504079
0.00501835
0.00505209
0.00500444
0.0050607
0.00500571
0.00518044
0.00513283
0.00535612
0.00510105
0.00515514
0.0050327
0.00505668
0.00501936
0.00504805
0.00502436
0.00504256
0.00502839
0.00503873
0.00503097
0.0050362
0.00503203
0.00503425
0.00503253
0.0050334
0.0050326
0.00503336
0.00503302
0.00503312
0.00503312
0.00503339
0.00503341
0.0050335
0.00503355
0.00503352
0.0050335
0.00503362
0.00503369
0.00503377
0.00503366
0.00503349
0.00503355
0.0050337
0.00503385
0.00503382
0.00503376
0.00503371
0.00503369
0.00503356
0.00503377
0.00503384
0.00503394
0.00503396
0.00503369
0.00503389
0.00503399
0.00503381
0.00503427
0.00503289
0.00503597
0.00503007
0.00504052
0.00502246
0.00504951
0.00500414
0.00506112
0.00500819
0.00520712
0.00513168
0.00538172
0.00508243
0.00518971
0.0050274
0.0050629
0.00502219
0.00504626
0.00502956
0.00503746
0.00503104
0.00503293
0.00503174
0.00503293
0.00503289
0.00503334
0.00503344
0.00503354
0.0050336
0.00503367
0.00503398
0.00503359
0.00503369
0.00503367
0.00503359
0.00503358
0.00503344
0.00503377
0.00503378
0.00503404
0.00503378
0.00503346
0.0050337
0.00503361
0.00503379
0.00503369
0.00503351
0.00503376
0.00503403
0.0050338
0.00503359
0.00503392
0.00503304
0.00503499
0.00503034
0.00503815
0.00502539
0.00504584
0.00501452
0.00505955
0.00500468
0.0050755
0.00500919
0.00508543
0.00503366
0.00508441
0.005033
0.00507727
0.00501566
0.00541589
0.00579975
0.00652523
0.00739909
0.00857427
0.00945127
0.00691831
0.00544687
0.00515099
0.00508239
0.00505873
0.00504859
0.00504354
0.00504074
0.00503902
0.00503786
0.0050364
0.0050363
0.0050364
0.0050364
0.0050363
0.0050364
0.0050363
0.0050364
0.0050366
0.0050377
0.00504
0.0050372
0.0050342
0.0050375
0.0050365
0.0050344
0.0050377
0.0050387
0.0050368
0.0050354
0.0050343
0.005035
0.0050355
0.0050349
0.0050358
0.0050365
0.0050369
0.0050364
0.0050357
0.0050361
0.0050365
0.0050371
0.0050373
0.0050367
0.0050361
0.0050358
0.0050362
0.0050365
0.0050362
0.0050362
0.0050367
0.0050362
0.0050363
0.0050368
0.0050366
0.00503629
0.00503627
0.0050371
0.00503848
0.00503116
0.0050392
0.00503381
0.00504166
0.00502792
0.00504211
0.00502914
0.00504332
0.00503254
0.00504405
0.00502825
0.00504255
0.00503126
0.00504095
0.00501465
0.00501329
0.0049989
0.00501814
0.00500987
0.00503676
0.005044
0.00506716
0.00503593
0.00507556
0.00514071
0.00519029
0.00518074
0.00528718
0.00533043
0.00527768
0.0052769
0.00522534
0.00520142
0.00517731
0.00518397
0.00515213
0.00513741
0.00514781
0.00514787
0.00515513
0.00515851
0.00516056
0.00513835
0.00514246
0.00513876
0.00513681
0.00512166
0.00513642
0.00516519
0.00519687
0.00522591
0.00519071
0.00513155
0.00542141
0.00532999
0.00517389
0.00513767
0.00521794
0.00518108
0.00512774
0.00512442
0.00508885
0.00508102
0.00505534
0.00502386
0.00498498
0.00501442
0.00501429
0.00496649
0.00514555
0.00502363
0.00516166
0.00518612
0.00511808
0.00504553
0.00507734
0.00517011
0.00515543
0.0050332
0.00514014
0.00502167
0.00511943
0.00515707
0.00518833
0.00521941
0.00524352
0.00527434
0.00523885
0.0051006
0.00507363
0.00508968
0.00510702
0.00511539
0.00511705
0.00511364
0.00511119
0.00510537
0.00510104
0.00509419
0.00508955
0.00508262
0.00507893
0.00507234
0.00506819
0.00506192
0.00505777
0.00505133
0.00504662
0.00503787
0.00503338
0.00502153
0.00502257
0.00500144
0.00500626
0.00501314
0.00500558
0.00504556
0.00504334
0.00508776
0.0050926
0.00511287
0.00506792
0.00505608
0.00503387
0.00503293
0.00501888
0.0050168
0.00500626
0.00500216
0.00500649
0.0050096
0.00501683
0.00501787
0.00502347
0.00502349
0.00502776
0.00502688
0.00503063
0.00502905
0.00503244
0.00503057
0.00503315
0.00503093
0.0050332
0.00503062
0.0050327
0.00502966
0.00503136
0.00502813
0.0050299
0.00502657
0.00502801
0.00502461
0.00502593
0.00502285
0.00502393
0.00502062
0.00502194
0.00501864
0.0050199
0.00501684
0.005018
0.00501501
0.00501608
0.00501315
0.00501438
0.00501153
0.00501275
0.00500989
0.00501139
0.00500875
0.00501014
0.00500774
0.00500924
0.00500697
0.00500875
0.0050066
0.00500845
0.00500638
0.00500811
0.00500583
0.0050078
0.00500575
0.00500763
0.00500566
0.00500755
0.00500562
0.00500768
0.00500578
0.00500804
0.00500626
0.00500855
0.005007
0.00500964
0.00500795
0.00501049
0.00500884
0.00501149
0.00500977
0.00501244
0.00501049
0.00501321
0.00501104
0.00501394
0.00501164
0.00501512
0.00501216
0.00501633
0.00501276
0.00501837
0.00501301
0.00501999
0.00501183
0.00502023
0.0050095
0.00501936
0.0050055
0.00501672
0.00500057
0.00501256
0.00499788
0.00500673
0.00500235
0.00500032
0.00500618
0.00499862
0.00500637
0.00500213
0.00500019
0.00500132
0.00499762
0.0050132
0.00501584
0.00504247
0.00515483
0.00543196
0.00508731
0.005002
0.00504608
0.00503613
0.00504319
0.00503523
0.0050409
0.00503657
0.00504012
0.00503774
0.00503941
0.00503854
0.00503889
0.0050391
0.00503786
0.00503825
0.005036
0.00503658
0.00503379
0.00503467
0.00503153
0.00503262
0.00502922
0.00503013
0.00502672
0.00502752
0.00502422
0.00502503
0.00502174
0.00502237
0.00501914
0.00501973
0.0050167
0.00501702
0.00501436
0.00501442
0.00501186
0.0050115
0.00500936
0.00500884
0.00500685
0.0050061
0.00500409
0.00500295
0.00500094
0.00499924
0.00499721
0.00499949
0.00500212
0.00500422
0.00500647
0.00500822
0.00501021
0.0050118
0.00501383
0.00501532
0.0050169
0.0050181
0.00501957
0.00502049
0.00502152
0.00502211
0.00502314
0.00502341
0.00502396
0.00502372
0.00502346
0.00502224
0.00502078
0.00501798
0.00501612
0.00501197
0.00500954
0.00500213
0.00499972
0.00500236
0.00500771
0.00502766
0.00502635
0.00502801
0.00503076
0.00503171
0.00503176
0.00503187
0.00503178
0.00503194
0.00503195
0.00503202
0.005032
0.00503199
0.00503191
0.00503219
0.0050322
0.00503204
0.00503175
0.00503109
0.00503082
0.00503185
0.00503103
0.00503274
0.00502955
0.00503439
0.00502624
0.00503873
0.00502133
0.00504656
0.00501307
0.00504959
0.00501941
0.00515273
0.00508177
0.00523083
0.00504779
0.0051141
0.00504555
0.00504407
0.00502706
0.00503713
0.00502839
0.00503326
0.0050323
0.00502913
0.00503533
0.00502279
0.00504085
0.00500977
0.00504469
0.00501336
0.00514784
0.00508349
0.00524231
0.00505353
0.00512977
0.00504538
0.00504892
0.0050255
0.00504083
0.00502747
0.00503736
0.00502949
0.0050351
0.0050308
0.0050335
0.00503119
0.00503208
0.00503127
0.00503164
0.00503099
0.00503157
0.00503136
0.00503149
0.0050316
0.00503175
0.0050317
0.00503187
0.00503195
0.00503197
0.00503173
0.00503195
0.00503204
0.00503219
0.00503204
0.00503185
0.00503187
0.00503204
0.00503218
0.00503211
0.00503202
0.00503206
0.00503207
0.00503176
0.00503201
0.00503214
0.00503215
0.00503225
0.00503202
0.00503221
0.00503236
0.00503235
0.00503257
0.00503177
0.00503334
0.00503025
0.00503561
0.00502575
0.00503932
0.00501047
0.00504332
0.00500075
0.00516592
0.00508299
0.00526353
0.00504032
0.0051535
0.00504591
0.00505363
0.00502858