/*--------------------------------*- C++ -*----------------------------------*\
| =========                 |                                                 |
| \\      /  F ield         | foam-extend: Open Source CFD                    |
|  \\    /   O peration     | Version:     3.2                                |
|   \\  /    A nd           | Web:         http://www.foam-extend.org         |
|    \\/     M anipulation  | For copyright notice see file Copyright         |
\*---------------------------------------------------------------------------*/
FoamFile
{
    version     2.0;
    format      ascii;
    class       areaScalarField;
    location    "2020";
    object      zDimA;
}
// * * * * * * * * * * * * * * * * * * * * * * * * * * * * * * * * * * * * * //

dimensions      [0 1 0 0 0 0 0];

internalField   nonuniform List<scalar> 
550
(
0.00503636
0.00503637
0.00503636
0.00503636
0.00503637
0.00503636
0.00503636
0.00503636
0.00503636
0.00503638
0.00504437
0.00503694
0.00502836
0.0050422
0.00503684
0.00502993
0.00504037
0.00504066
0.00503555
0.00503544
0.00503291
0.00503548
0.00503632
0.00503388
0.00503618
0.00503636
0.00503799
0.00503647
0.00503474
0.00503624
0.00503636
0.00503763
0.00503766
0.00503636
0.00503627
0.00503519
0.00503621
0.00503738
0.00503538
0.00503624
0.0050373
0.00503546
0.00503625
0.00503723
0.00503638
0.00503633
0.00503649
0.00503331
0.00505094
0.00501047
0.00506161
0.00501019
0.00507405
0.00501081
0.00508432
0.0050123
0.00508307
0.00500763
0.0050834
0.00501349
0.00508374
0.00501007
0.00508369
0.00500143
0.00507205
0.00499868
0.0050689
0.00498894
0.00506546
0.00499092
0.00505142
0.00499505
0.00502864
0.00497975
0.00499606
0.00521665
0.00538184
0.00505491
0.00494725
0.00498257
0.00490247
0.00495405
0.00487512
0.00492411
0.00489627
0.004875
0.00491298
0.00488262
0.004886
0.00487836
0.00494043
0.00491333
0.00493498
0.00491854
0.00492139
0.00491701
0.00490998
0.00491179
0.00495
0.00509767
0.00494271
0.00509965
0.00548937
0.00504963
0.00514751
0.00494812
0.00512383
0.00497046
0.0049536
0.00501814
0.00497385
0.00501206
0.0049751
0.00498349
0.00496183
0.00504521
0.0049875
0.00526151
0.00560872
0.00515145
0.005189
0.00513914
0.00525415
0.0053563
0.00510657
0.00520898
0.00521857
0.00518088
0.00547466
0.00512459
0.00512243
0.00515231
0.00517994
0.00522801
0.00522648
0.00530452
0.00535768
0.0050089
0.00506707
0.00508716
0.00511241
0.00511903
0.00512267
0.0051137
0.00511714
0.00510501
0.00510761
0.00509335
0.00509629
0.00508151
0.00508563
0.00507141
0.00507492
0.00506125
0.00506486
0.00505064
0.00505618
0.00503295
0.00505074
0.00500489
0.00506052
0.00503736
0.00506412
0.00507763
0.00505533
0.00511814
0.00501599
0.00515366
0.00505214
0.00518895
0.00501402
0.00508498
0.0050066
0.00505481
0.00500437
0.00503122
0.00500623
0.00501132
0.00501542
0.00500332
0.00502647
0.00501163
0.00503328
0.00501714
0.00503775
0.00502081
0.00504057
0.00502318
0.00504235
0.0050246
0.00504317
0.00502529
0.00504334
0.00502521
0.00504269
0.00502442
0.00504139
0.00502318
0.00503963
0.00502169
0.00503773
0.00501999
0.0050356
0.00501822
0.00503351
0.00501645
0.00503146
0.00501469
0.00502943
0.00501292
0.00502736
0.00501117
0.00502539
0.00500945
0.00502355
0.00500788
0.0050218
0.00500643
0.00502029
0.00500518
0.00501904
0.00500419
0.00501813
0.00500354
0.00501759
0.00500311
0.00501725
0.00500278
0.00501701
0.00500247
0.00501674
0.00500223
0.00501656
0.00500203
0.00501657
0.00500208
0.00501674
0.00500229
0.00501713
0.00500268
0.00501778
0.00500326
0.00501882
0.00500413
0.00502001
0.00500502
0.00502115
0.00500567
0.00502229
0.00500611
0.00502357
0.00500618
0.00502519
0.00500563
0.00502777
0.00500416
0.00503212
0.00500303
0.00503859
0.00500457
0.00504674
0.00501201
0.00505406
0.00502091
0.00505978
0.00503044
0.00506289
0.00503942
0.00506183
0.00504623
0.00505546
0.00504846
0.00504294
0.00504335
0.00502439
0.00502774
0.00500286
0.00500001
0.00501557
0.0050226
0.00504475
0.00501149
0.00508887
0.00520039
0.00606229
0.00508074
0.00505054
0.00509698
0.00501359
0.00507339
0.00501869
0.00506189
0.00502782
0.00505373
0.00503504
0.00504715
0.00504
0.00504286
0.00504443
0.00503859
0.00504584
0.00503463
0.00504553
0.0050312
0.00504445
0.00502832
0.00504273
0.00502569
0.00504041
0.00502327
0.00503777
0.00502104
0.00503482
0.00501901
0.00503157
0.00501697
0.00502829
0.00501512
0.00502491
0.00501335
0.0050216
0.00501155
0.00501817
0.00500979
0.00501488
0.00500794
0.00501145
0.00500581
0.00500777
0.00500327
0.00500354
0.00500083
0.00500232
0.00500599
0.00500695
0.00501047
0.00501106
0.00501437
0.00501481
0.00501798
0.00501818
0.00502119
0.00502118
0.00502405
0.00502374
0.00502624
0.00502558
0.00502787
0.00502698
0.00502888
0.00502763
0.00502907
0.00502597
0.00502733
0.00502099
0.00502462
0.00501238
0.00502318
0.00500279
0.00502359
0.0050263
0.00500517
0.00505869
0.00502173
0.00503484
0.00503665
0.00503676
0.00503606
0.00503669
0.00503609
0.00503638
0.00503642
0.0050364
0.0050363
0.00503639
0.00503609
0.00503677
0.00503636
0.00503669
0.00503637
0.00503535
0.00503357
0.00503906
0.00503065
0.00504554
0.00501999
0.00506077
0.00500496
0.00509174
0.00503766
0.00514022
0.00508772
0.00518054
0.0051494
0.00529554
0.00537578
0.00586935
0.00540424
0.00514775
0.00502299
0.00508809
0.00500991
0.00507101
0.00501161
0.005047
0.00503915
0.00501812
0.00506966
0.00501832
0.00511954
0.0050822
0.00517244
0.00515404
0.00527935
0.00540593
0.00591822
0.00542229
0.00518586
0.00505093
0.00511273
0.00503018
0.00509124
0.00500803
0.00507076
0.00501119
0.00505587
0.00502291
0.00504646
0.00502896
0.00504038
0.00503257
0.00503747
0.00503412
0.00503642
0.0050353
0.0050357
0.00503546
0.00503617
0.00503589
0.00503606
0.00503613
0.00503599
0.00503613
0.005036
0.00503624
0.00503641
0.00503626
0.00503595
0.0050361
0.00503619
0.00503646
0.00503643
0.00503608
0.00503644
0.00503621
0.00503586
0.00503629
0.00503644
0.00503635
0.00503661
0.00503589
0.00503638
0.00503653
0.0050357
0.00503832
0.00503165
0.00504546
0.00501939
0.00506541
0.00500789
0.00511067
0.00507914
0.00518873
0.00521027
0.0053519
0.00539134
0.0059501
0.00537485
0.00527778
0.0051016
0.00513537
0.00503241
0.00508268
0.00501014
0.00505268
0.00502585
0.00503886
0.00503199
0.00503662
0.00503487
0.00503605
0.00503566
0.00503618
0.00503583
0.00503605
0.00503664
0.00503605
0.00503626
0.00503596
0.00503624
0.00503612
0.00503584
0.00503639
0.00503619
0.00503676
0.00503609
0.00503588
0.00503635
0.00503609
0.00503649
0.00503607
0.00503592
0.00503651
0.0050364
0.00503643
0.00503563
0.00503767
0.00503276
0.00504295
0.00502296
0.00505709
0.00500429
0.00508847
0.00503632
0.00514006
0.00508933
0.00520377
0.00515937
0.00526349
0.00523384
0.00529257
0.00525852
0.00526942
0.00520355
0.00557041
0.00572028
0.00668768
0.00752199
0.00898001
0.0109068
0.00555948
0.00503039
0.00503909
0.0050371
0.0050368
0.0050365
0.0050365
0.0050365
0.0050363
0.0050364
)
;

boundaryField
{
    inlet
    {
        type            calculated;
        value           uniform 0;
    }
    endWall
    {
        type            calculated;
        value           uniform 0;
    }
    sideWall
    {
        type            empty;
    }
}


// ************************************************************************* //
