/*--------------------------------*- C++ -*----------------------------------*\
| =========                 |                                                 |
| \\      /  F ield         | foam-extend: Open Source CFD                    |
|  \\    /   O peration     | Version:     3.2                                |
|   \\  /    A nd           | Web:         http://www.foam-extend.org         |
|    \\/     M anipulation  | For copyright notice see file Copyright         |
\*---------------------------------------------------------------------------*/
FoamFile
{
    version     2.0;
    format      ascii;
    class       areaScalarField;
    location    "160";
    object      a;
}
// * * * * * * * * * * * * * * * * * * * * * * * * * * * * * * * * * * * * * //

dimensions      [1 -1 0 0 0 0 0];

internalField   nonuniform List<scalar> 
300
(
0.00216728
0.00216728
0.00216728
0.00216728
0.00216728
0.00216728
0.00216728
0.00216728
0.00216728
0.00216728
0.00216728
0.00216728
0.00216728
0.00216728
0.00216728
0.00216728
0.00216728
0.00216728
0.00216728
0.00216728
0.00216728
0.00216728
0.00216728
0.00216728
0.00216728
0.00216728
0.00216728
0.00216728
0.00216728
0.00216728
0.00216728
0.00216728
0.00216728
0.00216728
0.00216728
0.00216728
0.00216728
0.00216728
0.00216728
0.00216728
0.00216728
0.00216728
0.00216728
0.00216728
0.00216728
0.00216728
0.00216728
0.00216728
0.00216728
0.00216728
0.00216728
0.00216728
0.00216728
0.00216728
0.00216728
0.00216728
0.00216728
0.00216728
0.00216728
0.00216728
0.00216728
0.00216728
0.00216728
0.00216728
0.00216728
0.00216728
0.00216728
0.00216728
0.00216728
0.00216728
0.00216728
0.00216728
0.00216728
0.00216728
0.00216728
0.00216728
0.00216728
0.00216728
0.00216728
0.00216728
0.00216728
0.00216728
0.00216728
0.00216728
0.00216728
0.00216728
0.00216728
0.00216728
0.00216728
0.00216728
0.00216728
0.00216728
0.00216728
0.00216728
0.00216728
0.00216728
0.00216728
0.00216728
0.00216728
0.00216728
0.00216728
0.00216728
0.00216728
0.00216728
0.00216728
0.00216728
0.00216728
0.00216728
0.00216728
0.00216728
0.00216728
0.00216728
0.00216728
0.00100123
0.000985295
0.000971839
0.000960653
0.00216728
0.00216728
0.00216728
0.000924563
0.000916517
0.000912717
0.000906115
0.00216728
0.00216728
0.00216728
0.00216728
0.000896584
0.000895694
0.000891931
0.000883289
0.000885234
0.00216728
0.00216728
0.00216728
0.00216728
0.000898485
0.000896249
0.000900573
0.000894006
0.000893807
0.000895713
0.00216728
0.00216728
0.00216728
0.00216728
0.000914573
0.000924534
0.000931729
0.000936473
0.00216728
0.00216728
0.00216728
0.00216728
0.00216728
0.000966954
0.000979609
0.000992169
0.00100207
0.00216728
0.00216728
0.00216728
0.00216728
0.00102723
0.00103536
0.0010387
0.00104366
0.00216728
0.00216728
0.00216728
0.00216728
0.00216728
0.00105439
0.00105058
0.00104785
0.00216728
0.00216728
0.00216728
0.00216728
0.00101676
0.00101043
0.00100785
0.00100192
0.00216728
0.00216728
0.00216728
0.00216728
0.00216728
0.00098612
0.000990716
0.000997943
0.00216728
0.00216728
0.00216728
0.00216728
0.00216728
0.00104299
0.00105505
0.00105186
0.00105526
0.00105122
0.00216728
0.00216728
0.00216728
0.00216728
0.00216728
0.00216728
0.00216728
0.00103847
0.00103201
0.00102992
0.0010262
0.00102736
0.00216728
0.00216728
0.00216728
0.00216728
0.00104043
0.00104042
0.00105381
0.001058
0.00216728
0.00216728
0.00216728
0.00216728
0.00104702
0.00104353
0.00103381
0.00216728
0.00216728
0.00216728
0.00216728
0.00216728
0.0010254
0.00102885
0.00103409
0.00104039
0.00216728
0.00216728
0.00216728
0.00216728
0.00104631
0.00103859
0.00103368
0.00102861
0.00102762
0.00216728
0.00216728
0.00216728
0.00216728
0.00103529
0.00103397
0.0010379
0.00103588
0.00216728
0.00216728
0.00216728
0.00216728
0.00102272
0.00102314
0.00102556
0.00103278
0.00103501
0.00216728
0.00216728
0.00216728
0.00216728
0.00104047
0.00103568
0.00103402
0.00216728
0.00216728
0.00216728
0.00103019
0.00103438
0.00104165
0.00104631
0.00216728
0.00216728
0.00216728
0.00108174
0.00108071
0.00216728
0.00216728
0.00216728
0.00108003
0.00108835
0.0011073
0.00113202
0.00116456
0.00120755
0.00126463
0.00134482
0.00145857
0.00166874
0.00199452
0.00216728
0.00216728
0.00216728
)
;

boundaryField
{
    inlet
    {
        type            calculated;
        value           uniform 0;
    }
    outlet
    {
        type            calculated;
        value           uniform 0;
    }
    sideWall
    {
        type            empty;
    }
}


// ************************************************************************* //
