/*--------------------------------*- C++ -*----------------------------------*\
| =========                 |                                                 |
| \\      /  F ield         | foam-extend: Open Source CFD                    |
|  \\    /   O peration     | Version:     3.2                                |
|   \\  /    A nd           | Web:         http://www.foam-extend.org         |
|    \\/     M anipulation  | For copyright notice see file Copyright         |
\*---------------------------------------------------------------------------*/
FoamFile
{
    version     2.0;
    format      ascii;
    class       surfaceScalarField;
    location    "160";
    object      AdSS1;
}
// * * * * * * * * * * * * * * * * * * * * * * * * * * * * * * * * * * * * * //

dimensions      [0 3 -1 0 0 0 0];

internalField   nonuniform List<scalar> 
191380
(
6.20162e-05
2.38444e-05
4.34316e-05
3.19508e-06
3.68831e-05
-8.8409e-06
3.4861e-05
-1.33674e-05
3.39662e-05
-1.44946e-05
3.33299e-05
-1.47532e-05
3.27754e-05
-1.4835e-05
3.22528e-05
-1.48668e-05
3.17611e-05
-1.48978e-05
3.13152e-05
-1.49436e-05
3.09158e-05
-1.49901e-05
3.05513e-05
-1.50249e-05
3.0221e-05
-1.50592e-05
2.99228e-05
-1.50912e-05
2.96509e-05
-1.51176e-05
2.94014e-05
-1.51399e-05
2.91694e-05
-1.51575e-05
2.89547e-05
-1.51748e-05
2.87583e-05
-1.51931e-05
2.85779e-05
-1.52091e-05
2.84077e-05
-1.52193e-05
2.82466e-05
-1.52283e-05
2.80941e-05
-1.5237e-05
2.79505e-05
-1.52459e-05
2.78145e-05
-1.52535e-05
2.76852e-05
-1.52601e-05
2.75619e-05
-1.52662e-05
2.74442e-05
-1.52717e-05
2.73324e-05
-1.52777e-05
2.72255e-05
-1.52825e-05
2.71233e-05
-1.52872e-05
2.7025e-05
-1.52911e-05
2.69306e-05
-1.52951e-05
2.68399e-05
-1.52988e-05
2.6753e-05
-1.53026e-05
2.66692e-05
-1.53057e-05
2.65883e-05
-1.53086e-05
2.65103e-05
-1.53114e-05
2.64346e-05
-1.53138e-05
2.63619e-05
-1.53167e-05
2.62914e-05
-1.5319e-05
2.62232e-05
-1.53213e-05
2.6157e-05
-1.53233e-05
2.60928e-05
-1.53252e-05
2.60305e-05
-1.53272e-05
2.59701e-05
-1.5329e-05
2.59115e-05
-1.53309e-05
2.58544e-05
-1.53323e-05
2.5799e-05
-1.5334e-05
2.57449e-05
-1.53354e-05
2.56923e-05
-1.53368e-05
2.56411e-05
-1.53383e-05
2.55913e-05
-1.53396e-05
2.55428e-05
-1.53409e-05
2.54954e-05
-1.53421e-05
2.54491e-05
-1.53432e-05
2.5404e-05
-1.53444e-05
2.53596e-05
-1.5345e-05
2.53162e-05
-1.53461e-05
2.52738e-05
-1.53471e-05
2.52325e-05
-1.53482e-05
2.51923e-05
-1.53492e-05
2.5153e-05
-1.53502e-05
2.51148e-05
-1.53512e-05
2.50776e-05
-1.53523e-05
2.50414e-05
-1.53532e-05
2.50062e-05
-1.53542e-05
2.4972e-05
-1.53553e-05
2.49388e-05
-1.53562e-05
2.49067e-05
-1.53574e-05
2.48757e-05
-1.53585e-05
2.4846e-05
-1.53597e-05
2.48174e-05
-1.53609e-05
2.47902e-05
-1.53623e-05
2.47644e-05
-1.53636e-05
2.47404e-05
-1.53655e-05
2.47178e-05
-1.53669e-05
2.46977e-05
-1.53693e-05
2.46793e-05
-1.53711e-05
2.46641e-05
-1.53743e-05
2.46509e-05
-1.53763e-05
2.46424e-05
-1.53809e-05
2.46362e-05
-1.53833e-05
2.4637e-05
-1.53903e-05
2.46402e-05
-1.53926e-05
2.46512e-05
-1.54005e-05
2.46689e-05
-1.54071e-05
2.46992e-05
-1.54198e-05
2.47363e-05
-1.54266e-05
2.47929e-05
-1.54461e-05
2.48603e-05
-1.54568e-05
2.49611e-05
-1.54902e-05
2.50787e-05
-1.55071e-05
2.52583e-05
-1.55691e-05
2.54819e-05
-1.5613e-05
2.58553e-05
-1.57628e-05
2.62141e-05
-1.57483e-05
2.76575e-05
-1.68329e-05
2.85014e-05
-1.62333e-05
1.91567e-05
-6.00236e-06
1.40996e-05
-1.0179e-05
1.64976e-05
-1.75268e-05
1.74808e-05
-1.60477e-05
1.81092e-05
-1.56442e-05
1.85965e-05
-1.54643e-05
1.90141e-05
-1.53643e-05
1.92528e-05
-1.51586e-05
1.98923e-05
-1.55433e-05
1.95111e-05
-1.47124e-05
1.93902e-05
-1.50471e-05
2.0982e-05
-1.56606e-05
2.0405e-05
-1.26131e-05
2.07149e-05
-1.43791e-05
2.10353e-05
-1.58473e-05
1.98527e-05
-1.61699e-05
2.0475e-05
-1.86899e-05
1.99747e-05
-1.55339e-05
2.11298e-05
-1.44472e-05
2.07617e-05
-1.21414e-05
2.05755e-05
-1.35381e-05
2.08188e-05
-1.59008e-05
2.02086e-05
-1.7495e-05
2.123e-05
-1.9422e-05
1.94637e-05
-1.47668e-05
2.10289e-05
-1.68873e-05
2.06068e-05
-1.28377e-05
2.06527e-05
-1.22666e-05
2.22895e-05
-1.54534e-05
2.046e-05
-1.39829e-05
2.20254e-05
-1.93887e-05
1.93114e-05
-1.53525e-05
2.04084e-05
-1.78345e-05
2.03569e-05
-1.61065e-05
1.99793e-05
-1.49758e-05
2.18187e-05
-1.49602e-05
2.06746e-05
-1.11564e-05
2.30701e-05
-1.62968e-05
2.0585e-05
-1.3426e-05
2.17864e-05
-1.94063e-05
2.04047e-05
-1.67251e-05
1.88992e-05
-1.46614e-05
2.13495e-05
-1.84949e-05
1.97897e-05
-1.48572e-05
2.2226e-05
-1.75772e-05
1.99538e-05
-1.03601e-05
2.19022e-05
-1.41511e-05
2.10025e-05
-1.29918e-05
2.01979e-05
-1.51416e-05
2.29597e-05
-2.13081e-05
2.04078e-05
-1.6366e-05
2.22783e-05
-1.84222e-05
1.95697e-05
-1.24743e-05
2.1202e-05
-1.63767e-05
2.05111e-05
-1.23824e-05
2.0969e-05
-1.30898e-05
2.2689e-05
-1.60786e-05
2.1488e-05
-1.51485e-05
2.29619e-05
-2.0328e-05
2.14872e-05
-1.788e-05
2.26961e-05
-1.69437e-05
2.03233e-05
-9.52182e-06
2.16468e-05
-1.32417e-05
2.23006e-05
-1.46855e-05
2.11249e-05
-1.4009e-05
2.37186e-05
-1.88885e-05
2.1098e-05
-1.54194e-05
2.23459e-05
-1.93683e-05
2.06521e-05
-1.48208e-05
2.16649e-05
-1.63054e-05
2.26063e-05
-1.43979e-05
2.20772e-05
-1.18989e-05
2.28721e-05
-1.43947e-05
2.08729e-05
-1.33399e-05
2.24425e-05
-1.90508e-05
2.01493e-05
-1.57793e-05
2.21909e-05
-1.84144e-05
1.98151e-05
-1.2013e-05
2.17209e-05
-1.46469e-05
2.0668e-05
-1.14006e-05
2.01858e-05
-1.41412e-05
2.15741e-05
-1.88271e-05
1.95053e-05
-1.59488e-05
2.17538e-05
-1.87065e-05
1.90458e-05
-1.27676e-05
2.17352e-05
-1.80675e-05
1.85835e-05
-1.13025e-05
2.14906e-05
-1.58296e-05
1.93458e-05
-1.04141e-05
1.96039e-05
-1.41788e-05
2.12371e-05
-1.77487e-05
2.02588e-05
-1.71984e-05
2.15224e-05
-1.90882e-05
1.88772e-05
-1.26357e-05
2.26179e-05
-1.68717e-05
2.02532e-05
-1.04794e-05
2.31205e-05
-1.70565e-05
2.04449e-05
-1.22999e-05
2.25304e-05
-1.78658e-05
2.07463e-05
-1.60016e-05
2.08431e-05
-1.84585e-05
2.12372e-05
-1.69953e-05
1.95855e-05
-1.39215e-05
2.19393e-05
-1.69859e-05
1.89273e-05
-9.60339e-06
2.25491e-05
-1.61129e-05
1.903e-05
-1.04039e-05
2.14568e-05
-1.71297e-05
1.97393e-05
-1.32158e-05
2.13469e-05
-1.6647e-05
2.06459e-05
-1.49833e-05
1.94058e-05
-1.59978e-05
2.08136e-05
-1.90132e-05
1.91339e-05
-1.48212e-05
2.14929e-05
-1.82858e-05
1.91237e-05
-1.26149e-05
2.17661e-05
-1.57127e-05
1.94401e-05
-1.03908e-05
2.20912e-05
-1.69408e-05
2.02494e-05
-1.41864e-05
2.12289e-05
-1.89395e-05
2.13552e-05
-1.85241e-05
2.03839e-05
-1.58508e-05
2.17241e-05
-1.61196e-05
1.97143e-05
-1.07545e-05
2.23543e-05
-1.51404e-05
1.92078e-05
-1.14739e-05
2.18679e-05
-1.97472e-05
1.88051e-05
-1.44366e-05
2.04884e-05
-1.79906e-05
1.90001e-05
-1.33398e-05
1.94608e-05
-1.37736e-05
2.07227e-05
-1.44677e-05
1.96806e-05
-1.3399e-05
2.20712e-05
-1.73801e-05
1.95894e-05
-1.31672e-05
2.18622e-05
-1.98089e-05
1.95141e-05
-1.58032e-05
2.19009e-05
-1.93e-05
2.0147e-05
-1.36015e-05
2.18208e-05
-1.51324e-05
2.09496e-05
-1.18832e-05
2.04595e-05
-1.34258e-05
2.12489e-05
-1.62043e-05
1.94088e-05
-1.52393e-05
2.07501e-05
-1.89294e-05
1.91686e-05
-1.49558e-05
2.12798e-05
-1.78506e-05
1.88129e-05
-1.23604e-05
2.17306e-05
-1.62617e-05
2.00766e-05
-1.13545e-05
2.13788e-05
-1.54985e-05
2.05414e-05
-1.50239e-05
2.07323e-05
-1.80465e-05
2.11861e-05
-1.85989e-05
1.9803e-05
-1.51458e-05
2.12758e-05
-1.63444e-05
1.98143e-05
-1.15254e-05
2.13594e-05
-1.40944e-05
1.95585e-05
-1.21504e-05
2.15869e-05
-1.75776e-05
1.94241e-05
-1.52838e-05
2.13625e-05
-2.00808e-05
2.00302e-05
-1.56602e-05
2.10833e-05
-1.66219e-05
2.1308e-05
-1.39618e-05
2.16026e-05
-1.31067e-05
2.09774e-05
-1.31319e-05
2.00812e-05
-1.44656e-05
2.12975e-05
-1.84446e-05
1.91775e-05
-1.5657e-05
2.12689e-05
-1.78228e-05
1.92209e-05
-1.09878e-05
2.10105e-05
-1.45156e-05
2.00355e-05
-1.32262e-05
2.09291e-05
-1.66907e-05
2.02531e-05
-1.70984e-05
2.13041e-05
-1.90963e-05
1.97053e-05
-1.49071e-05
2.11765e-05
-1.67516e-05
2.10371e-05
-1.36215e-05
2.19617e-05
-1.47053e-05
2.07728e-05
-1.51595e-05
1.98166e-05
-1.58909e-05
2.11597e-05
-1.54105e-05
1.99038e-05
-1.19667e-05
1.98702e-05
-1.52126e-05
1.89818e-05
-1.52319e-05
2.02807e-05
-1.71773e-05
2.00728e-05
-1.56729e-05
2.08366e-05
-1.663e-05
2.07261e-05
-1.57352e-05
2.14821e-05
-1.65738e-05
2.15042e-05
-1.58057e-05
2.24658e-05
-1.66982e-05
2.39119e-05
-1.71178e-05
3.06906e-05
-2.2334e-05
3.06005e-05
-1.53424e-05
2.28052e-05
-7.59418e-06
2.04559e-05
-1.30402e-05
-1.47044e-05
8.94817e-05
3.56127e-05
7.65994e-05
1.60773e-05
6.8042e-05
-2.83439e-07
6.32813e-05
-8.60669e-06
6.03139e-05
-1.15273e-05
5.82033e-05
-1.26425e-05
5.65594e-05
-1.31912e-05
5.5187e-05
-1.34944e-05
5.40282e-05
-1.37389e-05
5.30422e-05
-1.39577e-05
5.21841e-05
-1.4132e-05
5.14251e-05
-1.42659e-05
5.07532e-05
-1.43873e-05
5.01583e-05
-1.44963e-05
4.96219e-05
-1.45812e-05
4.91339e-05
-1.46519e-05
4.86864e-05
-1.47101e-05
4.82767e-05
-1.47651e-05
4.78994e-05
-1.48158e-05
4.75473e-05
-1.48569e-05
4.72174e-05
-1.48894e-05
4.69083e-05
-1.49192e-05
4.66186e-05
-1.49473e-05
4.6347e-05
-1.49743e-05
4.60909e-05
-1.49973e-05
4.58485e-05
-1.50177e-05
4.56189e-05
-1.50366e-05
4.54008e-05
-1.50536e-05
4.51944e-05
-1.50713e-05
4.49976e-05
-1.50857e-05
4.48099e-05
-1.50996e-05
4.46302e-05
-1.51115e-05
4.44584e-05
-1.51232e-05
4.42939e-05
-1.51343e-05
4.41363e-05
-1.5145e-05
4.39849e-05
-1.51543e-05
4.38391e-05
-1.51627e-05
4.36988e-05
-1.51712e-05
4.35634e-05
-1.51784e-05
4.34331e-05
-1.51864e-05
4.33073e-05
-1.51931e-05
4.31857e-05
-1.51996e-05
4.3068e-05
-1.52057e-05
4.29539e-05
-1.52111e-05
4.28436e-05
-1.52169e-05
4.27367e-05
-1.5222e-05
4.26332e-05
-1.52274e-05
4.25324e-05
-1.52316e-05
4.24347e-05
-1.52363e-05
4.23396e-05
-1.52403e-05
4.22472e-05
-1.52444e-05
4.21574e-05
-1.52485e-05
4.207e-05
-1.52523e-05
4.1985e-05
-1.52559e-05
4.19021e-05
-1.52592e-05
4.18213e-05
-1.52624e-05
4.17426e-05
-1.52657e-05
4.16659e-05
-1.52684e-05
4.15915e-05
-1.52716e-05
4.15189e-05
-1.52745e-05
4.14482e-05
-1.52775e-05
4.13793e-05
-1.52803e-05
4.13122e-05
-1.52831e-05
4.12468e-05
-1.52858e-05
4.11832e-05
-1.52887e-05
4.11212e-05
-1.52912e-05
4.10609e-05
-1.5294e-05
4.10023e-05
-1.52966e-05
4.09454e-05
-1.52993e-05
4.08903e-05
-1.53023e-05
4.08371e-05
-1.53052e-05
4.07857e-05
-1.53084e-05
4.07364e-05
-1.53116e-05
4.06892e-05
-1.53151e-05
4.06443e-05
-1.53187e-05
4.0602e-05
-1.53232e-05
4.05622e-05
-1.53271e-05
4.05258e-05
-1.5333e-05
4.04925e-05
-1.53377e-05
4.04636e-05
-1.53454e-05
4.04383e-05
-1.5351e-05
4.04194e-05
-1.5362e-05
4.04045e-05
-1.53684e-05
4.03996e-05
-1.53853e-05
4.03999e-05
-1.5393e-05
4.04107e-05
-1.54113e-05
4.04314e-05
-1.54278e-05
4.04699e-05
-1.54583e-05
4.05195e-05
-1.54761e-05
4.05997e-05
-1.55263e-05
4.06956e-05
-1.55527e-05
4.08411e-05
-1.56357e-05
4.10147e-05
-1.56808e-05
4.12735e-05
-1.58278e-05
4.1595e-05
-1.59346e-05
4.21072e-05
-1.62751e-05
4.27161e-05
-1.63571e-05
4.44453e-05
-1.85621e-05
4.59004e-05
-1.76884e-05
3.66007e-05
3.29736e-06
2.86283e-05
-2.20659e-06
2.88411e-05
-1.77395e-05
2.9411e-05
-1.66176e-05
2.98845e-05
-1.61178e-05
3.04227e-05
-1.60025e-05
3.09107e-05
-1.58522e-05
3.1254e-05
-1.5502e-05
3.20349e-05
-1.63242e-05
3.18052e-05
-1.44826e-05
3.18554e-05
-1.50974e-05
3.34004e-05
-1.72056e-05
3.32353e-05
-1.24479e-05
3.3581e-05
-1.47249e-05
3.38023e-05
-1.60686e-05
3.29532e-05
-1.53208e-05
3.33441e-05
-1.90808e-05
3.30097e-05
-1.51995e-05
3.39415e-05
-1.53789e-05
3.38161e-05
-1.20161e-05
3.36898e-05
-1.34118e-05
3.3714e-05
-1.5925e-05
3.34964e-05
-1.72774e-05
3.43113e-05
-2.02369e-05
3.28753e-05
-1.33308e-05
3.39831e-05
-1.7995e-05
3.37848e-05
-1.26393e-05
3.41743e-05
-1.26561e-05
3.53886e-05
-1.66678e-05
3.41189e-05
-1.27131e-05
3.52742e-05
-2.05441e-05
3.31014e-05
-1.31797e-05
3.35501e-05
-1.82832e-05
3.35287e-05
-1.60851e-05
3.36036e-05
-1.50506e-05
3.48314e-05
-1.6188e-05
3.4228e-05
-1.0553e-05
3.62944e-05
-1.83632e-05
3.46118e-05
-1.17434e-05
3.53328e-05
-2.01273e-05
3.41025e-05
-1.54948e-05
3.29388e-05
-1.34978e-05
3.44568e-05
-2.00129e-05
3.34258e-05
-1.38262e-05
3.53383e-05
-1.94897e-05
3.37361e-05
-8.75802e-06
3.50155e-05
-1.54304e-05
3.44608e-05
-1.24372e-05
3.44264e-05
-1.51071e-05
3.6528e-05
-2.34098e-05
3.46374e-05
-1.44754e-05
3.58437e-05
-1.96285e-05
3.36682e-05
-1.02988e-05
3.47031e-05
-1.74116e-05
3.41506e-05
-1.18299e-05
3.46223e-05
-1.35615e-05
3.60282e-05
-1.74845e-05
3.55806e-05
-1.47009e-05
3.69283e-05
-2.16756e-05
3.60304e-05
-1.69822e-05
3.67354e-05
-1.76487e-05
3.49334e-05
-7.71981e-06
3.55827e-05
-1.3891e-05
3.57418e-05
-1.48446e-05
3.54073e-05
-1.36745e-05
3.76302e-05
-2.11114e-05
3.57733e-05
-1.35624e-05
3.65027e-05
-2.00978e-05
3.52537e-05
-1.35718e-05
3.58482e-05
-1.68999e-05
3.65222e-05
-1.50719e-05
3.66092e-05
-1.1986e-05
3.68143e-05
-1.45998e-05
3.52004e-05
-1.1726e-05
3.62752e-05
-2.01256e-05
3.43699e-05
-1.38741e-05
3.57158e-05
-1.97603e-05
3.38642e-05
-1.01614e-05
3.50648e-05
-1.58475e-05
3.43115e-05
-1.06473e-05
3.41404e-05
-1.39702e-05
3.46351e-05
-1.93218e-05
3.31934e-05
-1.45071e-05
3.47935e-05
-2.03066e-05
3.25909e-05
-1.0565e-05
3.45388e-05
-2.00153e-05
3.2175e-05
-8.93878e-06
3.43034e-05
-1.7958e-05
3.28497e-05
-8.96033e-06
3.27867e-05
-1.41158e-05
3.38445e-05
-1.88066e-05
3.39318e-05
-1.72857e-05
3.45328e-05
-1.96891e-05
3.2354e-05
-1.04569e-05
3.54366e-05
-1.99543e-05
3.40048e-05
-9.04757e-06
3.62587e-05
-1.93104e-05
3.45632e-05
-1.06044e-05
3.61913e-05
-1.94938e-05
3.51526e-05
-1.4963e-05
3.50369e-05
-1.83428e-05
3.44742e-05
-1.64326e-05
3.35158e-05
-1.29632e-05
3.50119e-05
-1.8482e-05
3.24737e-05
-7.06516e-06
3.52931e-05
-1.89323e-05
3.27326e-05
-7.84338e-06
3.43607e-05
-1.87578e-05
3.31881e-05
-1.20432e-05
3.43214e-05
-1.77802e-05
3.39616e-05
-1.46236e-05
3.33484e-05
-1.53845e-05
3.37014e-05
-1.93662e-05
3.23568e-05
-1.34766e-05
3.4278e-05
-2.02071e-05
3.25166e-05
-1.08535e-05
3.44456e-05
-1.76417e-05
3.28888e-05
-8.83396e-06
3.49607e-05
-1.90126e-05
3.38313e-05
-1.30569e-05
3.46662e-05
-1.97744e-05
3.48912e-05
-1.87491e-05
3.45428e-05
-1.55024e-05
3.49449e-05
-1.65218e-05
3.33326e-05
-9.14214e-06
3.53431e-05
-1.71509e-05
3.28399e-05
-8.97076e-06
3.47109e-05
-2.16182e-05
3.24072e-05
-1.21328e-05
3.34456e-05
-1.9029e-05
3.23459e-05
-1.22401e-05
3.24445e-05
-1.38722e-05
3.30369e-05
-1.50601e-05
3.28707e-05
-1.32328e-05
3.4773e-05
-1.92825e-05
3.29839e-05
-1.13781e-05
3.47688e-05
-2.15938e-05
3.322e-05
-1.42544e-05
3.49943e-05
-2.10743e-05
3.38645e-05
-1.24717e-05
3.50034e-05
-1.62712e-05
3.46608e-05
-1.15406e-05
3.44838e-05
-1.32488e-05
3.43273e-05
-1.60478e-05
3.29268e-05
-1.38389e-05
3.36057e-05
-1.96083e-05
3.23322e-05
-1.36823e-05
3.40208e-05
-1.95392e-05
3.21234e-05
-1.0463e-05
3.43551e-05
-1.84934e-05
3.3413e-05
-1.04124e-05
3.44771e-05
-1.65626e-05
3.41586e-05
-1.47053e-05
3.43574e-05
-1.82454e-05
3.42807e-05
-1.85222e-05
3.34045e-05
-1.42696e-05
3.43495e-05
-1.72894e-05
3.32072e-05
-1.03831e-05
3.4198e-05
-1.50853e-05
3.27798e-05
-1.07322e-05
3.43419e-05
-1.91396e-05
3.28763e-05
-1.38183e-05
3.43092e-05
-2.15136e-05
3.35093e-05
-1.48603e-05
3.43477e-05
-1.74603e-05
3.46911e-05
-1.43052e-05
3.50773e-05
-1.34929e-05
3.44041e-05
-1.24587e-05
3.38085e-05
-1.387e-05
3.43783e-05
-1.90144e-05
3.25981e-05
-1.38768e-05
3.41436e-05
-1.93684e-05
3.25452e-05
-9.38941e-06
3.37565e-05
-1.57269e-05
3.31955e-05
-1.26653e-05
3.37689e-05
-1.72641e-05
3.34655e-05
-1.6795e-05
3.438e-05
-2.00109e-05
3.31821e-05
-1.37091e-05
3.42771e-05
-1.78466e-05
3.44016e-05
-1.3746e-05
3.52192e-05
-1.55228e-05
3.43927e-05
-1.4333e-05
3.36362e-05
-1.51345e-05
3.42855e-05
-1.60598e-05
3.3241e-05
-1.09222e-05
3.2807e-05
-1.47786e-05
3.18162e-05
-1.42411e-05
3.27704e-05
-1.81315e-05
3.28972e-05
-1.57997e-05
3.36092e-05
-1.7342e-05
3.38355e-05
-1.59616e-05
3.45329e-05
-1.72712e-05
3.50806e-05
-1.63534e-05
3.58859e-05
-1.75034e-05
3.82664e-05
-1.94983e-05
4.61337e-05
-3.02013e-05
4.77932e-05
-1.7002e-05
4.11208e-05
-9.21799e-07
3.67839e-05
-8.70326e-06
-1.27337e-05
9.94287e-05
3.74339e-05
9.34365e-05
2.20695e-05
8.60997e-05
7.05343e-06
8.00867e-05
-2.59371e-06
7.57095e-05
-7.15003e-06
7.24369e-05
-9.36997e-06
6.99182e-05
-1.06725e-05
6.79141e-05
-1.14903e-05
6.62808e-05
-1.21056e-05
6.49103e-05
-1.25871e-05
6.37256e-05
-1.29473e-05
6.2691e-05
-1.32313e-05
6.17843e-05
-1.34806e-05
6.0986e-05
-1.36979e-05
6.02685e-05
-1.38637e-05
5.96186e-05
-1.4002e-05
5.9027e-05
-1.41185e-05
5.84879e-05
-1.4226e-05
5.79938e-05
-1.43216e-05
5.7535e-05
-1.43982e-05
5.71075e-05
-1.44619e-05
5.67087e-05
-1.45204e-05
5.63363e-05
-1.45749e-05
5.59877e-05
-1.46257e-05
5.56595e-05
-1.46691e-05
5.53495e-05
-1.47078e-05
5.50567e-05
-1.47438e-05
5.47792e-05
-1.47761e-05
5.45168e-05
-1.48089e-05
5.42669e-05
-1.48359e-05
5.4029e-05
-1.48616e-05
5.38017e-05
-1.48842e-05
5.35846e-05
-1.49061e-05
5.3377e-05
-1.49268e-05
5.31784e-05
-1.49464e-05
5.29877e-05
-1.49636e-05
5.28043e-05
-1.49793e-05
5.26281e-05
-1.4995e-05
5.24583e-05
-1.50085e-05
5.2295e-05
-1.50231e-05
5.21374e-05
-1.50355e-05
5.19851e-05
-1.50474e-05
5.18381e-05
-1.50586e-05
5.16956e-05
-1.50686e-05
5.15579e-05
-1.50793e-05
5.14245e-05
-1.50886e-05
5.12955e-05
-1.50984e-05
5.117e-05
-1.51061e-05
5.10484e-05
-1.51147e-05
5.09302e-05
-1.51221e-05
5.08153e-05
-1.51295e-05
5.07038e-05
-1.5137e-05
5.05953e-05
-1.51438e-05
5.04897e-05
-1.51503e-05
5.03869e-05
-1.51564e-05
5.02868e-05
-1.51622e-05
5.01893e-05
-1.51682e-05
5.00943e-05
-1.51734e-05
5.00021e-05
-1.51794e-05
4.99122e-05
-1.51846e-05
4.98247e-05
-1.519e-05
4.97394e-05
-1.5195e-05
4.96564e-05
-1.52001e-05
4.95754e-05
-1.52048e-05
4.94966e-05
-1.521e-05
4.94199e-05
-1.52145e-05
4.93453e-05
-1.52194e-05
4.92727e-05
-1.5224e-05
4.92022e-05
-1.52289e-05
4.91339e-05
-1.52339e-05
4.90679e-05
-1.52392e-05
4.9004e-05
-1.52445e-05
4.89427e-05
-1.52503e-05
4.88839e-05
-1.52562e-05
4.88277e-05
-1.52625e-05
4.87746e-05
-1.52701e-05
4.87245e-05
-1.5277e-05
4.86783e-05
-1.52867e-05
4.86357e-05
-1.52952e-05
4.8598e-05
-1.53077e-05
4.85647e-05
-1.53176e-05
4.85384e-05
-1.53357e-05
4.85171e-05
-1.53471e-05
4.85062e-05
-1.53744e-05
4.85025e-05
-1.53893e-05
4.85109e-05
-1.54198e-05
4.85295e-05
-1.54464e-05
4.85676e-05
-1.54964e-05
4.86192e-05
-1.55278e-05
4.87045e-05
-1.56116e-05
4.8808e-05
-1.56562e-05
4.89651e-05
-1.57928e-05
4.91551e-05
-1.58707e-05
4.94359e-05
-1.61086e-05
4.97849e-05
-1.62836e-05
5.03359e-05
-1.68261e-05
5.09992e-05
-1.70204e-05
5.27379e-05
-2.03008e-05
5.38627e-05
-1.88133e-05
4.65475e-05
1.06126e-05
3.85581e-05
5.78287e-06
3.6545e-05
-1.57264e-05
3.6408e-05
-1.64805e-05
3.65041e-05
-1.62139e-05
3.68688e-05
-1.63673e-05
3.72516e-05
-1.62349e-05
3.75872e-05
-1.58376e-05
3.83243e-05
-1.70614e-05
3.8209e-05
-1.43673e-05
3.83549e-05
-1.52433e-05
3.96489e-05
-1.84996e-05
3.97624e-05
-1.25615e-05
4.00411e-05
-1.50035e-05
4.02334e-05
-1.62609e-05
3.97625e-05
-1.48499e-05
3.98796e-05
-1.91978e-05
3.97459e-05
-1.50658e-05
4.04737e-05
-1.61067e-05
4.0525e-05
-1.20675e-05
4.03923e-05
-1.32791e-05
4.03019e-05
-1.58346e-05
4.02865e-05
-1.72621e-05
4.0774e-05
-2.07243e-05
3.98853e-05
-1.24421e-05
4.06111e-05
-1.87209e-05
4.07316e-05
-1.27597e-05
4.10332e-05
-1.29578e-05
4.17586e-05
-1.73932e-05
4.1278e-05
-1.22325e-05
4.18268e-05
-2.10928e-05
4.02768e-05
-1.16298e-05
4.03894e-05
-1.83958e-05
4.04799e-05
-1.61757e-05
4.0557e-05
-1.51277e-05
4.12977e-05
-1.69287e-05
4.13834e-05
-1.06387e-05
4.28007e-05
-1.97805e-05
4.17935e-05
-1.07362e-05
4.21072e-05
-2.04409e-05
4.1348e-05
-1.47356e-05
4.04438e-05
-1.25935e-05
4.1039e-05
-2.06082e-05
4.06965e-05
-1.34837e-05
4.18894e-05
-2.06826e-05
4.09301e-05
-7.79871e-06
4.17856e-05
-1.62859e-05
4.16913e-05
-1.23429e-05
4.17568e-05
-1.51726e-05
4.29896e-05
-2.46425e-05
4.21126e-05
-1.35984e-05
4.25375e-05
-2.00534e-05
4.11469e-05
-8.90813e-06
4.16515e-05
-1.79162e-05
4.14547e-05
-1.16331e-05
4.17601e-05
-1.38669e-05
4.26293e-05
-1.83537e-05
4.28061e-05
-1.48777e-05
4.38156e-05
-2.26851e-05
4.34142e-05
-1.65807e-05
4.37678e-05
-1.80023e-05
4.24801e-05
-6.43211e-06
4.27331e-05
-1.4144e-05
4.28806e-05
-1.49921e-05
4.29466e-05
-1.37405e-05
4.43733e-05
-2.25382e-05
4.33692e-05
-1.25583e-05
4.36278e-05
-2.03564e-05
4.27671e-05
-1.27111e-05
4.30824e-05
-1.72152e-05
4.37227e-05
-1.57121e-05
4.39669e-05
-1.22302e-05
4.39031e-05
-1.4536e-05
4.28898e-05
-1.07126e-05
4.32151e-05
-2.04509e-05
4.19906e-05
-1.26495e-05
4.25598e-05
-2.03295e-05
4.13201e-05
-8.92168e-06
4.20129e-05
-1.65403e-05
4.16753e-05
-1.03097e-05
4.13203e-05
-1.36151e-05
4.12839e-05
-1.92854e-05
4.05647e-05
-1.37879e-05
4.13254e-05
-2.10672e-05
3.99632e-05
-9.20282e-06
4.08969e-05
-2.0949e-05
3.95096e-05
-7.55153e-06
4.08233e-05
-1.92717e-05
4.00347e-05
-8.17164e-06
3.98133e-05
-1.38944e-05
4.0435e-05
-1.94282e-05
4.06601e-05
-1.75108e-05
4.09842e-05
-2.00132e-05
3.99466e-05
-9.41922e-06
4.17586e-05
-2.17664e-05
4.1318e-05
-8.60697e-06
4.26627e-05
-2.06551e-05
4.18524e-05
-9.79415e-06
4.29596e-05
-2.0601e-05
4.23705e-05
-1.43738e-05
4.20512e-05
-1.80236e-05
4.16755e-05
-1.60568e-05
4.11014e-05
-1.23891e-05
4.15996e-05
-1.89802e-05
4.01234e-05
-5.58892e-06
4.15904e-05
-2.03993e-05
4.008e-05
-6.33298e-06
4.09026e-05
-1.95804e-05
4.02366e-05
-1.13773e-05
4.09902e-05
-1.85338e-05
4.0966e-05
-1.45994e-05
4.04227e-05
-1.48412e-05
4.0248e-05
-1.91915e-05
3.95565e-05
-1.27851e-05
4.06645e-05
-2.13151e-05
3.97446e-05
-9.93359e-06
4.07137e-05
-1.86108e-05
3.99998e-05
-8.12008e-06
4.13687e-05
-2.03815e-05
4.08177e-05
-1.2506e-05
4.13936e-05
-2.03502e-05
4.18338e-05
-1.91894e-05
4.16903e-05
-1.53588e-05
4.16816e-05
-1.65131e-05
4.08478e-05
-8.30832e-06
4.18135e-05
-1.81166e-05
4.02444e-05
-7.40166e-06
4.1101e-05
-2.24749e-05
3.96053e-05
-1.06371e-05
4.00932e-05
-1.9517e-05
3.93813e-05
-1.15282e-05
3.92676e-05
-1.37586e-05
3.95505e-05
-1.53429e-05
3.96931e-05
-1.33755e-05
4.09483e-05
-2.05376e-05
4.01217e-05
-1.05515e-05
4.10718e-05
-2.25438e-05
4.03647e-05
-1.35473e-05
4.14774e-05
-2.2187e-05
4.09347e-05
-1.1929e-05
4.17146e-05
-1.70511e-05
4.16373e-05
-1.14633e-05
4.13955e-05
-1.30069e-05
4.11288e-05
-1.57812e-05
4.02111e-05
-1.29211e-05
4.01868e-05
-1.95841e-05
3.94088e-05
-1.29043e-05
4.03693e-05
-2.04997e-05
3.93279e-05
-9.42159e-06
4.06732e-05
-1.98387e-05
4.0332e-05
-1.00712e-05
4.10898e-05
-1.73204e-05
4.1022e-05
-1.46375e-05
4.10789e-05
-1.83023e-05
4.10524e-05
-1.84957e-05
4.06082e-05
-1.38254e-05
4.09377e-05
-1.76189e-05
4.02872e-05
-9.73261e-06
4.0711e-05
-1.55091e-05
3.98121e-05
-9.83328e-06
4.06704e-05
-1.99979e-05
3.99227e-05
-1.30706e-05
4.08055e-05
-2.23964e-05
4.04512e-05
-1.45061e-05
4.10675e-05
-1.80765e-05
4.14771e-05
-1.47148e-05
4.17818e-05
-1.37976e-05
4.14225e-05
-1.20994e-05
4.09898e-05
-1.34374e-05
4.09652e-05
-1.89898e-05
3.98294e-05
-1.2741e-05
4.05904e-05
-2.01293e-05
3.96357e-05
-8.43473e-06
4.02695e-05
-1.63608e-05
4.00274e-05
-1.24232e-05
4.03306e-05
-1.75673e-05
4.02725e-05
-1.67369e-05
4.08795e-05
-2.06179e-05
4.02008e-05
-1.30303e-05
4.09097e-05
-1.85555e-05
4.12215e-05
-1.40579e-05
4.18535e-05
-1.61548e-05
4.13624e-05
-1.38419e-05
4.07699e-05
-1.4542e-05
4.09091e-05
-1.6199e-05
4.0187e-05
-1.02001e-05
3.95414e-05
-1.41331e-05
3.86614e-05
-1.3361e-05
3.91969e-05
-1.86671e-05
3.95334e-05
-1.61362e-05
4.01077e-05
-1.79163e-05
4.05463e-05
-1.64002e-05
4.11271e-05
-1.78519e-05
4.19678e-05
-1.71941e-05
4.26669e-05
-1.82025e-05
4.52325e-05
-2.20639e-05
5.24977e-05
-3.74665e-05
5.51556e-05
-1.96599e-05
5.09413e-05
3.29247e-06
4.62923e-05
-4.05427e-06
-9.93836e-06
0.000102569
3.61153e-05
0.00010099
2.36486e-05
9.72211e-05
1.08219e-05
9.20747e-05
2.55273e-06
8.73721e-05
-2.44744e-06
8.34179e-05
-5.41577e-06
8.01889e-05
-7.4435e-06
7.75791e-05
-8.88049e-06
7.54536e-05
-9.98003e-06
7.36819e-05
-1.08154e-05
7.2183e-05
-1.14485e-05
7.08943e-05
-1.19426e-05
6.97719e-05
-1.23582e-05
6.87849e-05
-1.2711e-05
6.78983e-05
-1.29771e-05
6.70986e-05
-1.32023e-05
6.63751e-05
-1.3395e-05
6.57184e-05
-1.35693e-05
6.51175e-05
-1.37207e-05
6.45613e-05
-1.3842e-05
6.40455e-05
-1.3946e-05
6.35665e-05
-1.40414e-05
6.31205e-05
-1.41289e-05
6.27036e-05
-1.42088e-05
6.23117e-05
-1.42772e-05
6.19425e-05
-1.43387e-05
6.15946e-05
-1.43958e-05
6.12657e-05
-1.44472e-05
6.09549e-05
-1.44981e-05
6.06594e-05
-1.45403e-05
6.03784e-05
-1.45806e-05
6.01104e-05
-1.46163e-05
5.9855e-05
-1.46506e-05
5.96112e-05
-1.46829e-05
5.93779e-05
-1.47131e-05
5.91543e-05
-1.474e-05
5.89395e-05
-1.47645e-05
5.87333e-05
-1.47889e-05
5.8535e-05
-1.48102e-05
5.83443e-05
-1.48325e-05
5.81605e-05
-1.48517e-05
5.79831e-05
-1.487e-05
5.78119e-05
-1.48874e-05
5.76463e-05
-1.4903e-05
5.74864e-05
-1.49194e-05
5.73316e-05
-1.49338e-05
5.71818e-05
-1.49487e-05
5.70364e-05
-1.49607e-05
5.68955e-05
-1.49738e-05
5.67587e-05
-1.49853e-05
5.66259e-05
-1.49967e-05
5.6497e-05
-1.5008e-05
5.63716e-05
-1.50185e-05
5.62497e-05
-1.50284e-05
5.61312e-05
-1.50379e-05
5.60156e-05
-1.50467e-05
5.59033e-05
-1.50559e-05
5.57938e-05
-1.5064e-05
5.56875e-05
-1.50731e-05
5.55838e-05
-1.50809e-05
5.54829e-05
-1.50891e-05
5.53845e-05
-1.50966e-05
5.52888e-05
-1.51044e-05
5.51955e-05
-1.51114e-05
5.51048e-05
-1.51193e-05
5.50163e-05
-1.51261e-05
5.49304e-05
-1.51335e-05
5.48467e-05
-1.51404e-05
5.47655e-05
-1.51476e-05
5.46867e-05
-1.51551e-05
5.46105e-05
-1.5163e-05
5.45367e-05
-1.51708e-05
5.44658e-05
-1.51794e-05
5.43976e-05
-1.5188e-05
5.43323e-05
-1.51973e-05
5.42705e-05
-1.52083e-05
5.42119e-05
-1.52185e-05
5.41575e-05
-1.52322e-05
5.41071e-05
-1.52448e-05
5.40618e-05
-1.52625e-05
5.40214e-05
-1.52772e-05
5.39881e-05
-1.53024e-05
5.39606e-05
-1.53196e-05
5.39433e-05
-1.53571e-05
5.39345e-05
-1.53804e-05
5.39391e-05
-1.54244e-05
5.39534e-05
-1.54607e-05
5.39876e-05
-1.55305e-05
5.40368e-05
-1.5577e-05
5.41204e-05
-1.56952e-05
5.42236e-05
-1.57594e-05
5.43808e-05
-1.59501e-05
5.45727e-05
-1.60626e-05
5.48563e-05
-1.63923e-05
5.52086e-05
-1.66359e-05
5.57607e-05
-1.73781e-05
5.64284e-05
-1.76881e-05
5.8087e-05
-2.19593e-05
5.87925e-05
-1.95188e-05
5.329e-05
1.6115e-05
4.61437e-05
1.29292e-05
4.26853e-05
-1.22681e-05
4.18197e-05
-1.56149e-05
4.14751e-05
-1.58692e-05
4.15733e-05
-1.64655e-05
4.17736e-05
-1.64353e-05
4.20395e-05
-1.61035e-05
4.26544e-05
-1.76763e-05
4.262e-05
-1.43328e-05
4.28102e-05
-1.54335e-05
4.37955e-05
-1.94849e-05
4.40923e-05
-1.28583e-05
4.43615e-05
-1.52728e-05
4.4511e-05
-1.64103e-05
4.42917e-05
-1.46307e-05
4.42354e-05
-1.91416e-05
4.42633e-05
-1.50937e-05
4.48105e-05
-1.66538e-05
4.49521e-05
-1.22091e-05
4.48671e-05
-1.31941e-05
4.47498e-05
-1.57173e-05
4.48232e-05
-1.73355e-05
4.49874e-05
-2.08886e-05
4.45477e-05
-1.20024e-05
4.50138e-05
-1.9187e-05
4.5272e-05
-1.30179e-05
4.55978e-05
-1.32836e-05
4.6002e-05
-1.77974e-05
4.59843e-05
-1.22148e-05
4.60849e-05
-2.11935e-05
4.50598e-05
-1.06046e-05
4.49747e-05
-1.83106e-05
4.51129e-05
-1.63139e-05
4.52473e-05
-1.52621e-05
4.56505e-05
-1.73319e-05
4.61177e-05
-1.11059e-05
4.69591e-05
-2.0622e-05
4.6516e-05
-1.0293e-05
4.65958e-05
-2.05207e-05
4.60929e-05
-1.42327e-05
4.54438e-05
-1.19445e-05
4.55022e-05
-2.06665e-05
4.55841e-05
-1.35656e-05
4.61481e-05
-2.12466e-05
4.5739e-05
-7.38962e-06
4.62958e-05
-1.68427e-05
4.64738e-05
-1.25209e-05
4.66639e-05
-1.53627e-05
4.72088e-05
-2.51874e-05
4.69714e-05
-1.3361e-05
4.69629e-05
-2.00449e-05
4.6146e-05
-8.09128e-06
4.62922e-05
-1.80624e-05
4.62742e-05
-1.16151e-05
4.65436e-05
-1.41363e-05
4.71153e-05
-1.89254e-05
4.75939e-05
-1.53563e-05
4.82356e-05
-2.33268e-05
4.82747e-05
-1.66199e-05
4.83449e-05
-1.80724e-05
4.7487e-05
-5.5742e-06
4.75408e-05
-1.41979e-05
4.77342e-05
-1.51854e-05
4.80165e-05
-1.40228e-05
4.87394e-05
-2.32611e-05
4.83488e-05
-1.21677e-05
4.83057e-05
-2.03133e-05
4.77613e-05
-1.21668e-05
4.79291e-05
-1.7383e-05
4.84641e-05
-1.62471e-05
4.87601e-05
-1.25261e-05
4.85957e-05
-1.43716e-05
4.80507e-05
-1.01676e-05
4.78102e-05
-2.02105e-05
4.71786e-05
-1.20179e-05
4.71703e-05
-2.03212e-05
4.63942e-05
-8.14554e-06
4.66968e-05
-1.6843e-05
4.65095e-05
-1.01223e-05
4.61567e-05
-1.32623e-05
4.59295e-05
-1.90582e-05
4.55786e-05
-1.3437e-05
4.56022e-05
-2.10908e-05
4.50426e-05
-8.64322e-06
4.51393e-05
-2.10458e-05
4.44716e-05
-6.88378e-06
4.51705e-05
-1.99706e-05
4.47721e-05
-7.77327e-06
4.45403e-05
-1.36626e-05
4.49382e-05
-1.98261e-05
4.52627e-05
-1.78353e-05
4.53118e-05
-2.00623e-05
4.50185e-05
-9.12585e-06
4.58599e-05
-2.26078e-05
4.61223e-05
-8.86936e-06
4.68471e-05
-2.138e-05
4.66711e-05
-9.61814e-06
4.73498e-05
-2.12796e-05
4.70646e-05
-1.40887e-05
4.67293e-05
-1.76883e-05
4.6491e-05
-1.58185e-05
4.61848e-05
-1.20829e-05
4.60055e-05
-1.88008e-05
4.53775e-05
-4.96088e-06
4.57567e-05
-2.07786e-05
4.50255e-05
-5.60172e-06
4.52634e-05
-1.98183e-05
4.49872e-05
-1.11011e-05
4.54555e-05
-1.90021e-05
4.55106e-05
-1.46545e-05
4.50905e-05
-1.44211e-05
4.47819e-05
-1.88829e-05
4.45371e-05
-1.25404e-05
4.48632e-05
-2.16411e-05
4.45729e-05
-9.64335e-06
4.48989e-05
-1.89367e-05
4.47679e-05
-7.98908e-06
4.55789e-05
-2.11926e-05
4.54436e-05
-1.23707e-05
4.58628e-05
-2.07694e-05
4.63091e-05
-1.96357e-05
4.63194e-05
-1.53691e-05
4.61939e-05
-1.63876e-05
4.58959e-05
-8.01036e-06
4.59849e-05
-1.82055e-05
4.52794e-05
-6.69619e-06
4.53785e-05
-2.2574e-05
4.44781e-05
-9.73668e-06
4.45421e-05
-1.9581e-05
4.40626e-05
-1.10487e-05
4.38987e-05
-1.35947e-05
4.40708e-05
-1.5515e-05
4.43658e-05
-1.36705e-05
4.49885e-05
-2.11602e-05
4.48388e-05
-1.04018e-05
4.51659e-05
-2.28709e-05
4.50715e-05
-1.34529e-05
4.57043e-05
-2.28198e-05
4.56078e-05
-1.18325e-05
4.61151e-05
-1.75584e-05
4.61572e-05
-1.15054e-05
4.5934e-05
-1.27837e-05
4.5641e-05
-1.54882e-05
4.50682e-05
-1.23483e-05
4.46893e-05
-1.92052e-05
4.4314e-05
-1.2529e-05
4.45429e-05
-2.07286e-05
4.41671e-05
-9.04577e-06
4.48853e-05
-2.05569e-05
4.49529e-05
-1.01388e-05
4.54483e-05
-1.78157e-05
4.55216e-05
-1.47109e-05
4.55543e-05
-1.8335e-05
4.55202e-05
-1.84616e-05
4.53059e-05
-1.36112e-05
4.52746e-05
-1.75875e-05
4.50257e-05
-9.48379e-06
4.50046e-05
-1.5488e-05
4.46364e-05
-9.46508e-06
4.48902e-05
-2.02517e-05
4.46318e-05
-1.28122e-05
4.5089e-05
-2.28536e-05
4.50629e-05
-1.448e-05
4.54992e-05
-1.85128e-05
4.59371e-05
-1.51527e-05
4.62081e-05
-1.40686e-05
4.59754e-05
-1.18667e-05
4.56748e-05
-1.31368e-05
4.53847e-05
-1.86997e-05
4.47554e-05
-1.21117e-05
4.4845e-05
-2.02189e-05
4.44006e-05
-7.99034e-06
4.46267e-05
-1.65868e-05
4.46268e-05
-1.24233e-05
4.47126e-05
-1.7653e-05
4.48434e-05
-1.68676e-05
4.51322e-05