/*--------------------------------*- C++ -*----------------------------------*\
| =========                 |                                                 |
| \\      /  F ield         | foam-extend: Open Source CFD                    |
|  \\    /   O peration     | Version:     3.2                                |
|   \\  /    A nd           | Web:         http://www.foam-extend.org         |
|    \\/     M anipulation  | For copyright notice see file Copyright         |
\*---------------------------------------------------------------------------*/
FoamFile
{
    version     2.0;
    format      ascii;
    class       surfaceScalarField;
    location    "160";
    object      AdSS2;
}
// * * * * * * * * * * * * * * * * * * * * * * * * * * * * * * * * * * * * * //

dimensions      [0 3 -1 0 0 0 0];

internalField   nonuniform List<scalar> 
191380
(
6.20162e-05
-1.62923e-06
4.34316e-05
-2.22785e-05
3.68831e-05
-3.43145e-05
3.4861e-05
-3.88409e-05
3.39662e-05
-3.99682e-05
3.33299e-05
-4.02268e-05
3.27754e-05
-4.03086e-05
3.22528e-05
-4.03404e-05
3.17611e-05
-4.03714e-05
3.13152e-05
-4.04172e-05
3.09158e-05
-4.04637e-05
3.05513e-05
-4.04985e-05
3.0221e-05
-4.05328e-05
2.99228e-05
-4.05648e-05
2.96509e-05
-4.05912e-05
2.94014e-05
-4.06135e-05
2.91694e-05
-4.06311e-05
2.89547e-05
-4.06483e-05
2.87583e-05
-4.06667e-05
2.85779e-05
-4.06826e-05
2.84077e-05
-4.06929e-05
2.82466e-05
-4.07019e-05
2.80941e-05
-4.07106e-05
2.79505e-05
-4.07195e-05
2.78145e-05
-4.07271e-05
2.76852e-05
-4.07337e-05
2.75619e-05
-4.07398e-05
2.74442e-05
-4.07453e-05
2.73324e-05
-4.07513e-05
2.72255e-05
-4.07561e-05
2.71233e-05
-4.07608e-05
2.7025e-05
-4.07647e-05
2.69306e-05
-4.07687e-05
2.68399e-05
-4.07724e-05
2.6753e-05
-4.07761e-05
2.66692e-05
-4.07792e-05
2.65883e-05
-4.07821e-05
2.65103e-05
-4.0785e-05
2.64346e-05
-4.07874e-05
2.63619e-05
-4.07903e-05
2.62914e-05
-4.07926e-05
2.62232e-05
-4.07949e-05
2.6157e-05
-4.07969e-05
2.60928e-05
-4.07988e-05
2.60305e-05
-4.08008e-05
2.59701e-05
-4.08026e-05
2.59115e-05
-4.08045e-05
2.58544e-05
-4.08059e-05
2.5799e-05
-4.08076e-05
2.57449e-05
-4.0809e-05
2.56923e-05
-4.08104e-05
2.56411e-05
-4.08119e-05
2.55913e-05
-4.08132e-05
2.55428e-05
-4.08145e-05
2.54954e-05
-4.08157e-05
2.54491e-05
-4.08168e-05
2.5404e-05
-4.0818e-05
2.53596e-05
-4.08186e-05
2.53162e-05
-4.08196e-05
2.52738e-05
-4.08207e-05
2.52325e-05
-4.08218e-05
2.51923e-05
-4.08228e-05
2.5153e-05
-4.08238e-05
2.51148e-05
-4.08248e-05
2.50776e-05
-4.08259e-05
2.50414e-05
-4.08268e-05
2.50062e-05
-4.08278e-05
2.4972e-05
-4.08288e-05
2.49388e-05
-4.08298e-05
2.49067e-05
-4.0831e-05
2.48757e-05
-4.08321e-05
2.4846e-05
-4.08333e-05
2.48174e-05
-4.08345e-05
2.47902e-05
-4.08359e-05
2.47644e-05
-4.08372e-05
2.47404e-05
-4.08391e-05
2.47178e-05
-4.08404e-05
2.46977e-05
-4.08429e-05
2.46793e-05
-4.08446e-05
2.46641e-05
-4.08478e-05
2.46509e-05
-4.08499e-05
2.46424e-05
-4.08545e-05
2.46362e-05
-4.08568e-05
2.4637e-05
-4.08639e-05
2.46402e-05
-4.08662e-05
2.46512e-05
-4.08741e-05
2.46689e-05
-4.08807e-05
2.46992e-05
-4.08934e-05
2.47363e-05
-4.09001e-05
2.47929e-05
-4.09197e-05
2.48603e-05
-4.09304e-05
2.49611e-05
-4.09638e-05
2.50787e-05
-4.09807e-05
2.52583e-05
-4.10427e-05
2.54819e-05
-4.10866e-05
2.58553e-05
-4.12364e-05
2.62141e-05
-4.12219e-05
2.76575e-05
-4.23065e-05
2.85014e-05
-4.17069e-05
1.91567e-05
-3.1476e-05
1.40996e-05
-3.56526e-05
1.64976e-05
-4.30003e-05
1.74808e-05
-4.15213e-05
1.81092e-05
-4.11178e-05
1.85965e-05
-4.09379e-05
1.90141e-05
-4.08379e-05
1.92528e-05
-4.06322e-05
1.98923e-05
-4.10169e-05
1.95111e-05
-4.0186e-05
1.93902e-05
-4.05207e-05
2.0982e-05
-4.11342e-05
2.0405e-05
-3.80867e-05
2.07149e-05
-3.98527e-05
2.10353e-05
-4.13209e-05
1.98527e-05
-4.16434e-05
2.0475e-05
-4.41635e-05
1.99747e-05
-4.10075e-05
2.11298e-05
-3.99208e-05
2.07617e-05
-3.7615e-05
2.05755e-05
-3.90117e-05
2.08188e-05
-4.13744e-05
2.02086e-05
-4.29686e-05
2.123e-05
-4.48956e-05
1.94637e-05
-4.02404e-05
2.10289e-05
-4.23609e-05
2.06068e-05
-3.83112e-05
2.06527e-05
-3.77402e-05
2.22895e-05
-4.0927e-05
2.046e-05
-3.94565e-05
2.20254e-05
-4.48623e-05
1.93114e-05
-4.08261e-05
2.04084e-05
-4.33081e-05
2.03569e-05
-4.15801e-05
1.99793e-05
-4.04494e-05
2.18187e-05
-4.04338e-05
2.06746e-05
-3.663e-05
2.30701e-05
-4.17704e-05
2.0585e-05
-3.88996e-05
2.17864e-05
-4.48799e-05
2.04047e-05
-4.21987e-05
1.88992e-05
-4.0135e-05
2.13495e-05
-4.39685e-05
1.97897e-05
-4.03308e-05
2.2226e-05
-4.30508e-05
1.99538e-05
-3.58337e-05
2.19022e-05
-3.96247e-05
2.10025e-05
-3.84654e-05
2.01979e-05
-4.06152e-05
2.29597e-05
-4.67817e-05
2.04078e-05
-4.18396e-05
2.22783e-05
-4.38957e-05
1.95697e-05
-3.79479e-05
2.1202e-05
-4.18503e-05
2.05111e-05
-3.7856e-05
2.0969e-05
-3.85634e-05
2.2689e-05
-4.15522e-05
2.1488e-05
-4.06221e-05
2.29619e-05
-4.58016e-05
2.14872e-05
-4.33536e-05
2.26961e-05
-4.24173e-05
2.03233e-05
-3.49954e-05
2.16468e-05
-3.87153e-05
2.23006e-05
-4.0159e-05
2.11249e-05
-3.94826e-05
2.37186e-05
-4.43621e-05
2.1098e-05
-4.0893e-05
2.23459e-05
-4.48419e-05
2.06521e-05
-4.02944e-05
2.16649e-05
-4.1779e-05
2.26063e-05
-3.98715e-05
2.20772e-05
-3.73725e-05
2.28721e-05
-3.98683e-05
2.08729e-05
-3.88135e-05
2.24425e-05
-4.45244e-05
2.01493e-05
-4.12529e-05
2.21909e-05
-4.3888e-05
1.98151e-05
-3.74866e-05
2.17209e-05
-4.01205e-05
2.0668e-05
-3.68742e-05
2.01858e-05
-3.96148e-05
2.15741e-05
-4.43007e-05
1.95053e-05
-4.14223e-05
2.17538e-05
-4.41801e-05
1.90458e-05
-3.82412e-05
2.17352e-05
-4.35411e-05
1.85835e-05
-3.67761e-05
2.14906e-05
-4.13032e-05
1.93458e-05
-3.58876e-05
1.96039e-05
-3.96524e-05
2.12371e-05
-4.32223e-05
2.02588e-05
-4.2672e-05
2.15224e-05
-4.45617e-05
1.88772e-05
-3.81093e-05
2.26179e-05
-4.23453e-05
2.02532e-05
-3.5953e-05
2.31205e-05
-4.25301e-05
2.04449e-05
-3.77735e-05
2.25304e-05
-4.33394e-05
2.07463e-05
-4.14752e-05
2.08431e-05
-4.39321e-05
2.12372e-05
-4.24689e-05
1.95855e-05
-3.93951e-05
2.19393e-05
-4.24595e-05
1.89273e-05
-3.5077e-05
2.25491e-05
-4.15865e-05
1.903e-05
-3.58775e-05
2.14568e-05
-4.26032e-05
1.97393e-05
-3.86894e-05
2.13469e-05
-4.21206e-05
2.06459e-05
-4.04569e-05
1.94058e-05
-4.14714e-05
2.08136e-05
-4.44868e-05
1.91339e-05
-4.02948e-05
2.14929e-05
-4.37594e-05
1.91237e-05
-3.80885e-05
2.17661e-05
-4.11863e-05
1.94401e-05
-3.58644e-05
2.20912e-05
-4.24144e-05
2.02494e-05
-3.966e-05
2.12289e-05
-4.44131e-05
2.13552e-05
-4.39977e-05
2.03839e-05
-4.13243e-05
2.17241e-05
-4.15932e-05
1.97143e-05
-3.62281e-05
2.23543e-05
-4.0614e-05
1.92078e-05
-3.69475e-05
2.18679e-05
-4.52208e-05
1.88051e-05
-3.99102e-05
2.04884e-05
-4.34642e-05
1.90001e-05
-3.88134e-05
1.94608e-05
-3.92472e-05
2.07227e-05
-3.99413e-05
1.96806e-05
-3.88726e-05
2.20712e-05
-4.28537e-05
1.95894e-05
-3.86408e-05
2.18622e-05
-4.52825e-05
1.95141e-05
-4.12768e-05
2.19009e-05
-4.47736e-05
2.0147e-05
-3.90751e-05
2.18208e-05
-4.0606e-05
2.09496e-05
-3.73568e-05
2.04595e-05
-3.88994e-05
2.12489e-05
-4.16779e-05
1.94088e-05
-4.07129e-05
2.07501e-05
-4.4403e-05
1.91686e-05
-4.04294e-05
2.12798e-05
-4.33242e-05
1.88129e-05
-3.7834e-05
2.17306e-05
-4.17353e-05
2.00766e-05
-3.68281e-05
2.13788e-05
-4.09721e-05
2.05414e-05
-4.04975e-05
2.07323e-05
-4.35201e-05
2.11861e-05
-4.40725e-05
1.9803e-05
-4.06194e-05
2.12758e-05
-4.1818e-05
1.98143e-05
-3.6999e-05
2.13594e-05
-3.9568e-05
1.95585e-05
-3.7624e-05
2.15869e-05
-4.30511e-05
1.94241e-05
-4.07574e-05
2.13625e-05
-4.55544e-05
2.00302e-05
-4.11338e-05
2.10833e-05
-4.20955e-05
2.1308e-05
-3.94354e-05
2.16026e-05
-3.85803e-05
2.09774e-05
-3.86055e-05
2.00812e-05
-3.99392e-05
2.12975e-05
-4.39182e-05
1.91775e-05
-4.11306e-05
2.12689e-05
-4.32964e-05
1.92209e-05
-3.64614e-05
2.10105e-05
-3.99892e-05
2.00355e-05
-3.86998e-05
2.09291e-05
-4.21643e-05
2.02531e-05
-4.2572e-05
2.13041e-05
-4.45699e-05
1.97053e-05
-4.03807e-05
2.11765e-05
-4.22252e-05
2.10371e-05
-3.90951e-05
2.19617e-05
-4.01789e-05
2.07728e-05
-4.0633e-05
1.98166e-05
-4.13645e-05
2.11597e-05
-4.08841e-05
1.99038e-05
-3.74403e-05
1.98702e-05
-4.06862e-05
1.89818e-05
-4.07055e-05
2.02807e-05
-4.26509e-05
2.00728e-05
-4.11465e-05
2.08366e-05
-4.21036e-05
2.07261e-05
-4.12088e-05
2.14821e-05
-4.20473e-05
2.15042e-05
-4.12793e-05
2.24658e-05
-4.21718e-05
2.39119e-05
-4.25914e-05
3.06906e-05
-4.78076e-05
3.06005e-05
-4.0816e-05
2.28052e-05
-3.30678e-05
2.04559e-05
-3.85138e-05
-4.0178e-05
8.94817e-05
1.01391e-05
7.65994e-05
-9.39627e-06
6.8042e-05
-2.5757e-05
6.32813e-05
-3.40803e-05
6.03139e-05
-3.70008e-05
5.82033e-05
-3.81161e-05
5.65594e-05
-3.86648e-05
5.5187e-05
-3.89679e-05
5.40282e-05
-3.92125e-05
5.30422e-05
-3.94312e-05
5.21841e-05
-3.96056e-05
5.14251e-05
-3.97395e-05
5.07532e-05
-3.98609e-05
5.01583e-05
-3.99699e-05
4.96219e-05
-4.00548e-05
4.91339e-05
-4.01255e-05
4.86864e-05
-4.01837e-05
4.82767e-05
-4.02386e-05
4.78994e-05
-4.02893e-05
4.75473e-05
-4.03305e-05
4.72174e-05
-4.0363e-05
4.69083e-05
-4.03928e-05
4.66186e-05
-4.04209e-05
4.6347e-05
-4.04479e-05
4.60909e-05
-4.04709e-05
4.58485e-05
-4.04913e-05
4.56189e-05
-4.05102e-05
4.54008e-05
-4.05272e-05
4.51944e-05
-4.05449e-05
4.49976e-05
-4.05593e-05
4.48099e-05
-4.05731e-05
4.46302e-05
-4.05851e-05
4.44584e-05
-4.05968e-05
4.42939e-05
-4.06079e-05
4.41363e-05
-4.06186e-05
4.39849e-05
-4.06278e-05
4.38391e-05
-4.06363e-05
4.36988e-05
-4.06448e-05
4.35634e-05
-4.0652e-05
4.34331e-05
-4.066e-05
4.33073e-05
-4.06667e-05
4.31857e-05
-4.06732e-05
4.3068e-05
-4.06793e-05
4.29539e-05
-4.06847e-05
4.28436e-05
-4.06905e-05
4.27367e-05
-4.06956e-05
4.26332e-05
-4.0701e-05
4.25324e-05
-4.07052e-05
4.24347e-05
-4.07099e-05
4.23396e-05
-4.07139e-05
4.22472e-05
-4.0718e-05
4.21574e-05
-4.07221e-05
4.207e-05
-4.07258e-05
4.1985e-05
-4.07295e-05
4.19021e-05
-4.07328e-05
4.18213e-05
-4.0736e-05
4.17426e-05
-4.07393e-05
4.16659e-05
-4.07419e-05
4.15915e-05
-4.07452e-05
4.15189e-05
-4.07481e-05
4.14482e-05
-4.07511e-05
4.13793e-05
-4.07539e-05
4.13122e-05
-4.07567e-05
4.12468e-05
-4.07594e-05
4.11832e-05
-4.07623e-05
4.11212e-05
-4.07648e-05
4.10609e-05
-4.07676e-05
4.10023e-05
-4.07702e-05
4.09454e-05
-4.07729e-05
4.08903e-05
-4.07759e-05
4.08371e-05
-4.07788e-05
4.07857e-05
-4.0782e-05
4.07364e-05
-4.07852e-05
4.06892e-05
-4.07887e-05
4.06443e-05
-4.07922e-05
4.0602e-05
-4.07968e-05
4.05622e-05
-4.08007e-05
4.05258e-05
-4.08066e-05
4.04925e-05
-4.08113e-05
4.04636e-05
-4.0819e-05
4.04383e-05
-4.08246e-05
4.04194e-05
-4.08356e-05
4.04045e-05
-4.0842e-05
4.03996e-05
-4.08589e-05
4.03999e-05
-4.08666e-05
4.04107e-05
-4.08849e-05
4.04314e-05
-4.09014e-05
4.04699e-05
-4.09319e-05
4.05195e-05
-4.09497e-05
4.05997e-05
-4.09999e-05
4.06956e-05
-4.10263e-05
4.08411e-05
-4.11093e-05
4.10147e-05
-4.11543e-05
4.12735e-05
-4.13014e-05
4.1595e-05
-4.14082e-05
4.21072e-05
-4.17487e-05
4.27161e-05
-4.18307e-05
4.44453e-05
-4.40357e-05
4.59004e-05
-4.3162e-05
3.66007e-05
-2.21762e-05
2.86283e-05
-2.76802e-05
2.88411e-05
-4.32131e-05
2.9411e-05
-4.20912e-05
2.98845e-05
-4.15914e-05
3.04227e-05
-4.14761e-05
3.09107e-05
-4.13258e-05
3.1254e-05
-4.09756e-05
3.20349e-05
-4.17978e-05
3.18052e-05
-3.99562e-05
3.18554e-05
-4.0571e-05
3.34004e-05
-4.26792e-05
3.32353e-05
-3.79215e-05
3.3581e-05
-4.01985e-05
3.38023e-05
-4.15422e-05
3.29532e-05
-4.07944e-05
3.33441e-05
-4.45544e-05
3.30097e-05
-4.06731e-05
3.39415e-05
-4.08525e-05
3.38161e-05
-3.74897e-05
3.36898e-05
-3.88854e-05
3.3714e-05
-4.13986e-05
3.34964e-05
-4.2751e-05
3.43113e-05
-4.57105e-05
3.28753e-05
-3.88044e-05
3.39831e-05
-4.34686e-05
3.37848e-05
-3.81129e-05
3.41743e-05
-3.81297e-05
3.53886e-05
-4.21414e-05
3.41189e-05
-3.81867e-05
3.52742e-05
-4.60177e-05
3.31014e-05
-3.86533e-05
3.35501e-05
-4.37568e-05
3.35287e-05
-4.15587e-05
3.36036e-05
-4.05242e-05
3.48314e-05
-4.16616e-05
3.4228e-05
-3.60266e-05
3.62944e-05
-4.38368e-05
3.46118e-05
-3.72169e-05
3.53328e-05
-4.56009e-05
3.41025e-05
-4.09684e-05
3.29388e-05
-3.89714e-05
3.44568e-05
-4.54865e-05
3.34258e-05
-3.92998e-05
3.53383e-05
-4.49633e-05
3.37361e-05
-3.42316e-05
3.50155e-05
-4.0904e-05
3.44608e-05
-3.79108e-05
3.44264e-05
-4.05807e-05
3.6528e-05
-4.88834e-05
3.46374e-05
-3.9949e-05
3.58437e-05
-4.51021e-05
3.36682e-05
-3.57723e-05
3.47031e-05
-4.28852e-05
3.41506e-05
-3.73035e-05
3.46223e-05
-3.90351e-05
3.60282e-05
-4.29581e-05
3.55806e-05
-4.01745e-05
3.69283e-05
-4.71492e-05
3.60304e-05
-4.24558e-05
3.67354e-05
-4.31223e-05
3.49334e-05
-3.31934e-05
3.55827e-05
-3.93646e-05
3.57418e-05
-4.03181e-05
3.54073e-05
-3.91481e-05
3.76302e-05
-4.6585e-05
3.57733e-05
-3.9036e-05
3.65027e-05
-4.55714e-05
3.52537e-05
-3.90454e-05
3.58482e-05
-4.23734e-05
3.65222e-05
-4.05455e-05
3.66092e-05
-3.74595e-05
3.68143e-05
-4.00734e-05
3.52004e-05
-3.71996e-05
3.62752e-05
-4.55992e-05
3.43699e-05
-3.93476e-05
3.57158e-05
-4.52339e-05
3.38642e-05
-3.5635e-05
3.50648e-05
-4.13211e-05
3.43115e-05
-3.61209e-05
3.41404e-05
-3.94438e-05
3.46351e-05
-4.47954e-05
3.31934e-05
-3.99807e-05
3.47935e-05
-4.57802e-05
3.25909e-05
-3.60386e-05
3.45388e-05
-4.54889e-05
3.2175e-05
-3.44124e-05
3.43034e-05
-4.34316e-05
3.28497e-05
-3.44339e-05
3.27867e-05
-3.95894e-05
3.38445e-05
-4.42802e-05
3.39318e-05
-4.27593e-05
3.45328e-05
-4.51627e-05
3.2354e-05
-3.59305e-05
3.54366e-05
-4.54279e-05
3.40048e-05
-3.45212e-05
3.62587e-05
-4.4784e-05
3.45632e-05
-3.6078e-05
3.61913e-05
-4.49674e-05
3.51526e-05
-4.04366e-05
3.50369e-05
-4.38164e-05
3.44742e-05
-4.19062e-05
3.35158e-05
-3.84367e-05
3.50119e-05
-4.39556e-05
3.24737e-05
-3.25387e-05
3.52931e-05
-4.44059e-05
3.27326e-05
-3.3317e-05
3.43607e-05
-4.42313e-05
3.31881e-05
-3.75168e-05
3.43214e-05
-4.32538e-05
3.39616e-05
-4.00972e-05
3.33484e-05
-4.08581e-05
3.37014e-05
-4.48398e-05
3.23568e-05
-3.89502e-05
3.4278e-05
-4.56806e-05
3.25166e-05
-3.63271e-05
3.44456e-05
-4.31153e-05
3.28888e-05
-3.43076e-05
3.49607e-05
-4.44862e-05
3.38313e-05
-3.85305e-05
3.46662e-05
-4.5248e-05
3.48912e-05
-4.42227e-05
3.45428e-05
-4.09759e-05
3.49449e-05
-4.19954e-05
3.33326e-05
-3.46157e-05
3.53431e-05
-4.26244e-05
3.28399e-05
-3.44443e-05
3.47109e-05
-4.70918e-05
3.24072e-05
-3.76064e-05
3.34456e-05
-4.45026e-05
3.23459e-05
-3.77137e-05
3.24445e-05
-3.93458e-05
3.30369e-05
-4.05337e-05
3.28707e-05
-3.87064e-05
3.4773e-05
-4.4756e-05
3.29839e-05
-3.68517e-05
3.47688e-05
-4.70674e-05
3.322e-05
-3.9728e-05
3.49943e-05
-4.65479e-05
3.38645e-05
-3.79453e-05
3.50034e-05
-4.17448e-05
3.46608e-05
-3.70142e-05
3.44838e-05
-3.87224e-05
3.43273e-05
-4.15214e-05
3.29268e-05
-3.93125e-05
3.36057e-05
-4.50819e-05
3.23322e-05
-3.91559e-05
3.40208e-05
-4.50128e-05
3.21234e-05
-3.59366e-05
3.43551e-05
-4.3967e-05
3.3413e-05
-3.5886e-05
3.44771e-05
-4.20362e-05
3.41586e-05
-4.01789e-05
3.43574e-05
-4.3719e-05
3.42807e-05
-4.39958e-05
3.34045e-05
-3.97432e-05
3.43495e-05
-4.2763e-05
3.32072e-05
-3.58567e-05
3.4198e-05
-4.05589e-05
3.27798e-05
-3.62058e-05
3.43419e-05
-4.46132e-05
3.28763e-05
-3.92919e-05
3.43092e-05
-4.69872e-05
3.35093e-05
-4.03339e-05
3.43477e-05
-4.29339e-05
3.46911e-05
-3.97787e-05
3.50773e-05
-3.89665e-05
3.44041e-05
-3.79323e-05
3.38085e-05
-3.93436e-05
3.43783e-05
-4.4488e-05
3.25981e-05
-3.93504e-05
3.41436e-05
-4.4842e-05
3.25452e-05
-3.4863e-05
3.37565e-05
-4.12005e-05
3.31955e-05
-3.81389e-05
3.37689e-05
-4.27377e-05
3.34655e-05
-4.22686e-05
3.438e-05
-4.54845e-05
3.31821e-05
-3.91827e-05
3.42771e-05
-4.33202e-05
3.44016e-05
-3.92196e-05
3.52192e-05
-4.09964e-05
3.43927e-05
-3.98066e-05
3.36362e-05
-4.0608e-05
3.42855e-05
-4.15334e-05
3.3241e-05
-3.63958e-05
3.2807e-05
-4.02522e-05
3.18162e-05
-3.97147e-05
3.27704e-05
-4.36051e-05
3.28972e-05
-4.12733e-05
3.36092e-05
-4.28156e-05
3.38355e-05
-4.14352e-05
3.45329e-05
-4.27447e-05
3.50806e-05
-4.1827e-05
3.58859e-05
-4.2977e-05
3.82664e-05
-4.49719e-05
4.61337e-05
-5.56749e-05
4.77932e-05
-4.24756e-05
4.11208e-05
-2.63954e-05
3.67839e-05
-3.41769e-05
-3.82073e-05
9.94287e-05
1.19604e-05
9.34365e-05
-3.40406e-06
8.60997e-05
-1.84202e-05
8.00867e-05
-2.80673e-05
7.57095e-05
-3.26236e-05
7.24369e-05
-3.48436e-05
6.99182e-05
-3.61461e-05
6.79141e-05
-3.69639e-05
6.62808e-05
-3.75792e-05
6.49103e-05
-3.80607e-05
6.37256e-05
-3.84209e-05
6.2691e-05
-3.87049e-05
6.17843e-05
-3.89542e-05
6.0986e-05
-3.91715e-05
6.02685e-05
-3.93372e-05
5.96186e-05
-3.94756e-05
5.9027e-05
-3.95921e-05
5.84879e-05
-3.96996e-05
5.79938e-05
-3.97952e-05
5.7535e-05
-3.98717e-05
5.71075e-05
-3.99355e-05
5.67087e-05
-3.9994e-05
5.63363e-05
-4.00485e-05
5.59877e-05
-4.00993e-05
5.56595e-05
-4.01427e-05
5.53495e-05
-4.01814e-05
5.50567e-05
-4.02174e-05
5.47792e-05
-4.02497e-05
5.45168e-05
-4.02825e-05
5.42669e-05
-4.03095e-05
5.4029e-05
-4.03352e-05
5.38017e-05
-4.03578e-05
5.35846e-05
-4.03797e-05
5.3377e-05
-4.04003e-05
5.31784e-05
-4.042e-05
5.29877e-05
-4.04372e-05
5.28043e-05
-4.04529e-05
5.26281e-05
-4.04686e-05
5.24583e-05
-4.04821e-05
5.2295e-05
-4.04967e-05
5.21374e-05
-4.05091e-05
5.19851e-05
-4.0521e-05
5.18381e-05
-4.05322e-05
5.16956e-05
-4.05422e-05
5.15579e-05
-4.05528e-05
5.14245e-05
-4.05622e-05
5.12955e-05
-4.0572e-05
5.117e-05
-4.05797e-05
5.10484e-05
-4.05883e-05
5.09302e-05
-4.05957e-05
5.08153e-05
-4.06031e-05
5.07038e-05
-4.06105e-05
5.05953e-05
-4.06174e-05
5.04897e-05
-4.06239e-05
5.03869e-05
-4.063e-05
5.02868e-05
-4.06358e-05
5.01893e-05
-4.06418e-05
5.00943e-05
-4.0647e-05
5.00021e-05
-4.0653e-05
4.99122e-05
-4.06582e-05
4.98247e-05
-4.06636e-05
4.97394e-05
-4.06686e-05
4.96564e-05
-4.06737e-05
4.95754e-05
-4.06784e-05
4.94966e-05
-4.06836e-05
4.94199e-05
-4.06881e-05
4.93453e-05
-4.0693e-05
4.92727e-05
-4.06976e-05
4.92022e-05
-4.07024e-05
4.91339e-05
-4.07075e-05
4.90679e-05
-4.07128e-05
4.9004e-05
-4.07181e-05
4.89427e-05
-4.07239e-05
4.88839e-05
-4.07298e-05
4.88277e-05
-4.07361e-05
4.87746e-05
-4.07437e-05
4.87245e-05
-4.07506e-05
4.86783e-05
-4.07603e-05
4.86357e-05
-4.07688e-05
4.8598e-05
-4.07813e-05
4.85647e-05
-4.07912e-05
4.85384e-05
-4.08093e-05
4.85171e-05
-4.08207e-05
4.85062e-05
-4.0848e-05
4.85025e-05
-4.08629e-05
4.85109e-05
-4.08933e-05
4.85295e-05
-4.09199e-05
4.85676e-05
-4.097e-05
4.86192e-05
-4.10013e-05
4.87045e-05
-4.10852e-05
4.8808e-05
-4.11298e-05
4.89651e-05
-4.12664e-05
4.91551e-05
-4.13443e-05
4.94359e-05
-4.15822e-05
4.97849e-05
-4.17572e-05
5.03359e-05
-4.22997e-05
5.09992e-05
-4.2494e-05
5.27379e-05
-4.57744e-05
5.38627e-05
-4.42869e-05
4.65475e-05
-1.4861e-05
3.85581e-05
-1.96907e-05
3.6545e-05
-4.12e-05
3.6408e-05
-4.19541e-05
3.65041e-05
-4.16875e-05
3.68688e-05
-4.18409e-05
3.72516e-05
-4.17085e-05
3.75872e-05
-4.13112e-05
3.83243e-05
-4.2535e-05
3.8209e-05
-3.98409e-05
3.83549e-05
-4.07169e-05
3.96489e-05
-4.39732e-05
3.97624e-05
-3.80351e-05
4.00411e-05
-4.04771e-05
4.02334e-05
-4.17345e-05
3.97625e-05
-4.03235e-05
3.98796e-05
-4.46714e-05
3.97459e-05
-4.05394e-05
4.04737e-05
-4.15803e-05
4.0525e-05
-3.75411e-05
4.03923e-05
-3.87527e-05
4.03019e-05
-4.13082e-05
4.02865e-05
-4.27357e-05
4.0774e-05
-4.61979e-05
3.98853e-05
-3.79157e-05
4.06111e-05
-4.41945e-05
4.07316e-05
-3.82333e-05
4.10332e-05
-3.84314e-05
4.17586e-05
-4.28668e-05
4.1278e-05
-3.7706e-05
4.18268e-05
-4.65664e-05
4.02768e-05
-3.71033e-05
4.03894e-05
-4.38694e-05
4.04799e-05
-4.16492e-05
4.0557e-05
-4.06013e-05
4.12977e-05
-4.24023e-05
4.13834e-05
-3.61123e-05
4.28007e-05
-4.52541e-05
4.17935e-05
-3.62098e-05
4.21072e-05
-4.59145e-05
4.1348e-05
-4.02092e-05
4.04438e-05
-3.80671e-05
4.1039e-05
-4.60817e-05
4.06965e-05
-3.89573e-05
4.18894e-05
-4.61562e-05
4.09301e-05
-3.32723e-05
4.17856e-05
-4.17595e-05
4.16913e-05
-3.78165e-05
4.17568e-05
-4.06462e-05
4.29896e-05
-5.01161e-05
4.21126e-05
-3.9072e-05
4.25375e-05
-4.5527e-05
4.11469e-05
-3.43817e-05
4.16515e-05
-4.33898e-05
4.14547e-05
-3.71067e-05
4.17601e-05
-3.93405e-05
4.26293e-05
-4.38273e-05
4.28061e-05
-4.03513e-05
4.38156e-05
-4.81587e-05
4.34142e-05
-4.20543e-05
4.37678e-05
-4.34759e-05
4.24801e-05
-3.19057e-05
4.27331e-05
-3.96176e-05
4.28806e-05
-4.04657e-05
4.29466e-05
-3.9214e-05
4.43733e-05
-4.80118e-05
4.33692e-05
-3.80319e-05
4.36278e-05
-4.583e-05
4.27671e-05
-3.81847e-05
4.30824e-05
-4.26888e-05
4.37227e-05
-4.11857e-05
4.39669e-05
-3.77038e-05
4.39031e-05
-4.00096e-05
4.28898e-05
-3.61862e-05
4.32151e-05
-4.59245e-05
4.19906e-05
-3.81231e-05
4.25598e-05
-4.58031e-05
4.13201e-05
-3.43953e-05
4.20129e-05
-4.20139e-05
4.16753e-05
-3.57833e-05
4.13203e-05
-3.90887e-05
4.12839e-05
-4.4759e-05
4.05647e-05
-3.92615e-05
4.13254e-05
-4.65408e-05
3.99632e-05
-3.46764e-05
4.08969e-05
-4.64226e-05
3.95096e-05
-3.30251e-05
4.08233e-05
-4.47453e-05
4.00347e-05
-3.36452e-05
3.98133e-05
-3.9368e-05
4.0435e-05
-4.49018e-05
4.06601e-05
-4.29844e-05
4.09842e-05
-4.54868e-05
3.99466e-05
-3.48928e-05
4.17586e-05
-4.724e-05
4.1318e-05
-3.40806e-05
4.26627e-05
-4.61287e-05
4.18524e-05
-3.52677e-05
4.29596e-05
-4.60746e-05
4.23705e-05
-3.98474e-05
4.20512e-05
-4.34972e-05
4.16755e-05
-4.15304e-05
4.11014e-05
-3.78627e-05
4.15996e-05
-4.44538e-05
4.01234e-05
-3.10625e-05
4.15904e-05
-4.58729e-05
4.008e-05
-3.18066e-05
4.09026e-05
-4.5054e-05
4.02366e-05
-3.68509e-05
4.09902e-05
-4.40074e-05
4.0966e-05
-4.0073e-05
4.04227e-05
-4.03148e-05
4.0248e-05
-4.46651e-05
3.95565e-05
-3.82587e-05
4.06645e-05
-4.67887e-05
3.97446e-05
-3.54072e-05
4.07137e-05
-4.40844e-05
3.99998e-05
-3.35937e-05
4.13687e-05
-4.58551e-05
4.08177e-05
-3.79796e-05
4.13936e-05
-4.58238e-05
4.18338e-05
-4.4663e-05
4.16903e-05
-4.08324e-05
4.16816e-05
-4.19867e-05
4.08478e-05
-3.37819e-05
4.18135e-05
-4.35901e-05
4.02444e-05
-3.28753e-05
4.1101e-05
-4.79484e-05
3.96053e-05
-3.61107e-05
4.00932e-05
-4.49906e-05
3.93813e-05
-3.70018e-05
3.92676e-05
-3.92321e-05
3.95505e-05
-4.08165e-05
3.96931e-05
-3.88491e-05
4.09483e-05
-4.60112e-05
4.01217e-05
-3.60251e-05
4.10718e-05
-4.80174e-05
4.03647e-05
-3.90209e-05
4.14774e-05
-4.76606e-05
4.09347e-05
-3.74026e-05
4.17146e-05
-4.25247e-05
4.16373e-05
-3.69369e-05
4.13955e-05
-3.84805e-05
4.11288e-05
-4.12548e-05
4.02111e-05
-3.83947e-05
4.01868e-05
-4.50576e-05
3.94088e-05
-3.83779e-05
4.03693e-05
-4.59733e-05
3.93279e-05
-3.48952e-05
4.06732e-05
-4.53123e-05
4.0332e-05
-3.55448e-05
4.10898e-05
-4.2794e-05
4.1022e-05
-4.01111e-05
4.10789e-05
-4.37759e-05
4.10524e-05
-4.39693e-05
4.06082e-05
-3.9299e-05
4.09377e-05
-4.30925e-05
4.02872e-05
-3.52062e-05
4.0711e-05
-4.09826e-05
3.98121e-05
-3.53069e-05
4.06704e-05
-4.54715e-05
3.99227e-05
-3.85442e-05
4.08055e-05
-4.787e-05
4.04512e-05
-3.99797e-05
4.10675e-05
-4.35501e-05
4.14771e-05
-4.01883e-05
4.17818e-05
-3.92712e-05
4.14225e-05
-3.7573e-05
4.09898e-05
-3.89109e-05
4.09652e-05
-4.44634e-05
3.98294e-05
-3.82146e-05
4.05904e-05
-4.56029e-05
3.96357e-05
-3.39083e-05
4.02695e-05
-4.18343e-05
4.00274e-05
-3.78967e-05
4.03306e-05
-4.30409e-05
4.02725e-05
-4.22104e-05
4.08795e-05
-4.60915e-05
4.02008e-05
-3.85039e-05
4.09097e-05
-4.40291e-05
4.12215e-05
-3.95315e-05
4.18535e-05
-4.16283e-05
4.13624e-05
-3.93155e-05
4.07699e-05
-4.00156e-05
4.09091e-05
-4.16726e-05
4.0187e-05
-3.56737e-05
3.95414e-05
-3.96067e-05
3.86614e-05
-3.88346e-05
3.91969e-05
-4.41407e-05
3.95334e-05
-4.16097e-05
4.01077e-05
-4.33899e-05
4.05463e-05
-4.18738e-05
4.11271e-05
-4.33255e-05
4.19678e-05
-4.26677e-05
4.26669e-05
-4.36761e-05
4.52325e-05
-4.75375e-05
5.24977e-05
-6.29401e-05
5.51556e-05
-4.51335e-05
5.09413e-05
-2.21811e-05
4.62923e-05
-2.95279e-05
-3.5412e-05
0.000102569
1.06417e-05
0.00010099
-1.82497e-06
9.72211e-05
-1.46517e-05
9.20747e-05
-2.29209e-05
8.73721e-05
-2.7921e-05
8.34179e-05
-3.08894e-05
8.01889e-05
-3.29171e-05
7.75791e-05
-3.43541e-05
7.54536e-05
-3.54536e-05
7.36819e-05
-3.6289e-05
7.2183e-05
-3.69221e-05
7.08943e-05
-3.74162e-05
6.97719e-05
-3.78317e-05
6.87849e-05
-3.81845e-05
6.78983e-05
-3.84507e-05
6.70986e-05
-3.86759e-05
6.63751e-05
-3.88686e-05
6.57184e-05
-3.90429e-05
6.51175e-05
-3.91943e-05
6.45613e-05
-3.93155e-05
6.40455e-05
-3.94196e-05
6.35665e-05
-3.9515e-05
6.31205e-05
-3.96025e-05
6.27036e-05
-3.96824e-05
6.23117e-05
-3.97508e-05
6.19425e-05
-3.98123e-05
6.15946e-05
-3.98694e-05
6.12657e-05
-3.99208e-05
6.09549e-05
-3.99717e-05
6.06594e-05
-4.00139e-05
6.03784e-05
-4.00541e-05
6.01104e-05
-4.00899e-05
5.9855e-05
-4.01242e-05
5.96112e-05
-4.01565e-05
5.93779e-05
-4.01867e-05
5.91543e-05
-4.02135e-05
5.89395e-05
-4.02381e-05
5.87333e-05
-4.02625e-05
5.8535e-05
-4.02838e-05
5.83443e-05
-4.03061e-05
5.81605e-05
-4.03253e-05
5.79831e-05
-4.03436e-05
5.78119e-05
-4.0361e-05
5.76463e-05
-4.03766e-05
5.74864e-05
-4.0393e-05
5.73316e-05
-4.04074e-05
5.71818e-05
-4.04222e-05
5.70364e-05
-4.04343e-05
5.68955e-05
-4.04474e-05
5.67587e-05
-4.04589e-05
5.66259e-05
-4.04703e-05
5.6497e-05
-4.04816e-05
5.63716e-05
-4.0492e-05
5.62497e-05
-4.0502e-05
5.61312e-05
-4.05115e-05
5.60156e-05
-4.05203e-05
5.59033e-05
-4.05294e-05
5.57938e-05
-4.05376e-05
5.56875e-05
-4.05467e-05
5.55838e-05
-4.05545e-05
5.54829e-05
-4.05627e-05
5.53845e-05
-4.05702e-05
5.52888e-05
-4.05779e-05
5.51955e-05
-4.0585e-05
5.51048e-05
-4.05928e-05
5.50163e-05
-4.05996e-05
5.49304e-05
-4.06071e-05
5.48467e-05
-4.0614e-05
5.47655e-05
-4.06212e-05
5.46867e-05
-4.06287e-05
5.46105e-05
-4.06366e-05
5.45367e-05
-4.06444e-05
5.44658e-05
-4.0653e-05
5.43976e-05
-4.06616e-05
5.43323e-05
-4.06709e-05
5.42705e-05
-4.06819e-05
5.42119e-05
-4.0692e-05
5.41575e-05
-4.07058e-05
5.41071e-05
-4.07184e-05
5.40618e-05
-4.07361e-05
5.40214e-05
-4.07508e-05
5.39881e-05
-4.0776e-05
5.39606e-05
-4.07932e-05
5.39433e-05
-4.08307e-05
5.39345e-05
-4.0854e-05
5.39391e-05
-4.08979e-05
5.39534e-05
-4.09343e-05
5.39876e-05
-4.10041e-05
5.40368e-05
-4.10505e-05
5.41204e-05
-4.11688e-05
5.42236e-05
-4.1233e-05
5.43808e-05
-4.14237e-05
5.45727e-05
-4.15362e-05
5.48563e-05
-4.18659e-05
5.52086e-05
-4.21095e-05
5.57607e-05
-4.28517e-05
5.64284e-05
-4.31617e-05
5.8087e-05
-4.74329e-05
5.87925e-05
-4.49924e-05
5.329e-05
-9.35861e-06
4.61437e-05
-1.25443e-05
4.26853e-05
-3.77417e-05
4.18197e-05
-4.10885e-05
4.14751e-05
-4.13428e-05
4.15733e-05
-4.19391e-05
4.17736e-05
-4.19089e-05
4.20395e-05
-4.15771e-05
4.26544e-05
-4.31499e-05
4.262e-05
-3.98064e-05
4.28102e-05
-4.09071e-05
4.37955e-05
-4.49585e-05
4.40923e-05
-3.83319e-05
4.43615e-05
-4.07464e-05
4.4511e-05
-4.18839e-05
4.42917e-05
-4.01043e-05
4.42354e-05
-4.46152e-05
4.42633e-05
-4.05673e-05
4.48105e-05
-4.21274e-05
4.49521e-05
-3.76827e-05
4.48671e-05
-3.86677e-05
4.47498e-05
-4.11909e-05
4.48232e-05
-4.2809e-05
4.49874e-05
-4.63622e-05
4.45477e-05
-3.7476e-05
4.50138e-05
-4.46606e-05
4.5272e-05
-3.84915e-05
4.55978e-05
-3.87572e-05
4.6002e-05
-4.3271e-05
4.59843e-05
-3.76884e-05
4.60849e-05
-4.66671e-05
4.50598e-05
-3.60782e-05
4.49747e-05
-4.37842e-05
4.51129e-05
-4.17875e-05
4.52473e-05
-4.07357e-05
4.56505e-05
-4.28055e-05
4.61177e-05
-3.65795e-05
4.69591e-05
-4.60956e-05
4.6516e-05
-3.57666e-05
4.65958e-05
-4.59943e-05
4.60929e-05
-3.97063e-05
4.54438e-05
-3.74181e-05
4.55022e-05
-4.61401e-05
4.55841e-05
-3.90392e-05
4.61481e-05
-4.67202e-05
4.5739e-05
-3.28632e-05
4.62958e-05
-4.23162e-05
4.64738e-05
-3.79945e-05
4.66639e-05
-4.08363e-05
4.72088e-05
-5.0661e-05
4.69714e-05
-3.88346e-05
4.69629e-05
-4.55185e-05
4.6146e-05
-3.35649e-05
4.62922e-05
-4.3536e-05
4.62742e-05
-3.70887e-05
4.65436e-05
-3.96099e-05
4.71153e-05
-4.4399e-05
4.75939e-05
-4.08299e-05
4.82356e-05
-4.88004e-05
4.82747e-05
-4.20935e-05
4.83449e-05
-4.3546e-05
4.7487e-05
-3.10478e-05
4.75408e-05
-3.96715e-05
4.77342e-05
-4.0659e-05
4.80165e-05
-3.94964e-05
4.87394e-05
-4.87347e-05
4.83488e-05
-3.76413e-05
4.83057e-05
-4.57868e-05
4.77613e-05
-3.76404e-05
4.79291e-05
-4.28566e-05
4.84641e-05
-4.17207e-05
4.87601e-05
-3.79997e-05
4.85957e-05
-3.98452e-05
4.80507e-05
-3.56412e-05
4.78102e-05
-4.5684e-05
4.71786e-05
-3.74915e-05
4.71703e-05
-4.57948e-05
4.63942e-05
-3.36191e-05
4.66968e-05
-4.23166e-05
4.65095e-05
-3.55959e-05
4.61567e-05
-3.87359e-05
4.59295e-05
-4.45318e-05
4.55786e-05
-3.89106e-05
4.56022e-05
-4.65644e-05
4.50426e-05
-3.41168e-05
4.51393e-05
-4.65194e-05
4.44716e-05
-3.23574e-05
4.51705e-05
-4.54442e-05
4.47721e-05
-3.32469e-05
4.45403e-05
-3.91362e-05
4.49382e-05
-4.52997e-05
4.52627e-05
-4.33089e-05
4.53118e-05
-4.55359e-05
4.50185e-05
-3.45994e-05
4.58599e-05
-4.80814e-05
4.61223e-05
-3.4343e-05
4.68471e-05
-4.68536e-05
4.66711e-05
-3.50917e-05
4.73498e-05
-4.67532e-05
4.70646e-05
-3.95623e-05
4.67293e-05
-4.31619e-05
4.6491e-05
-4.12921e-05
4.61848e-05
-3.75565e-05
4.60055e-05
-4.42744e-05
4.53775e-05
-3.04345e-05
4.57567e-05
-4.62522e-05
4.50255e-05
-3.10753e-05
4.52634e-05
-4.52919e-05
4.49872e-05
-3.65747e-05
4.54555e-05
-4.44757e-05
4.55106e-05
-4.01281e-05
4.50905e-05
-3.98947e-05
4.47819e-05
-4.43565e-05
4.45371e-05
-3.8014e-05
4.48632e-05
-4.71147e-05
4.45729e-05
-3.51169e-05
4.48989e-05
-4.44103e-05
4.47679e-05
-3.34627e-05
4.55789e-05
-4.66662e-05
4.54436e-05
-3.78443e-05
4.58628e-05
-4.6243e-05
4.63091e-05
-4.51093e-05
4.63194e-05
-4.08427e-05
4.61939e-05
-4.18612e-05
4.58959e-05
-3.3484e-05
4.59849e-05
-4.36791e-05
4.52794e-05
-3.21698e-05
4.53785e-05
-4.80476e-05
4.44781e-05
-3.52103e-05
4.45421e-05
-4.50545e-05
4.40626e-05
-3.65223e-05
4.38987e-05
-3.90683e-05
4.40708e-05
-4.09886e-05
4.43658e-05
-3.91441e-05
4.49885e-05
-4.66338e-05
4.48388e-05
-3.58754e-05
4.51659e-05
-4.83445e-05
4.50715e-05
-3.89265e-05
4.57043e-05
-4.82934e-05
4.56078e-05
-3.73061e-05
4.61151e-05
-4.3032e-05
4.61572e-05
-3.69789e-05
4.5934e-05
-3.82573e-05
4.5641e-05
-4.09618e-05
4.50682e-05
-3.78219e-05
4.46893e-05
-4.46788e-05
4.4314e-05
-3.80026e-05
4.45429e-05
-4.62022e-05
4.41671e-05
-3.45194e-05
4.48853e-05
-4.60304e-05
4.49529e-05
-3.56124e-05
4.54483e-05
-4.32893e-05
4.55216e-05
-4.01845e-05
4.55543e-05
-4.38086e-05
4.55202e-05
-4.39352e-05
4.53059e-05
-3.90848e-05
4.52746e-05
-4.30611e-05
4.50257e-05
-3.49574e-05
4.50046e-05
-4.09615e-05
4.46364e-05
-3.49387e-05
4.48902e-05
-4.57253e-05
4.46318e-05
-3.82858e-05
4.5089e-05
-4.83272e-05
4.50629e-05
-3.99536e-05
4.54992e-05
-4.39864e-05
4.59371e-05
-4.06263e-05
4.62081e-05
-3.95421e-05
4.59754e-05
-3.73403e-05
4.56748e-05
-3.86104e-05
4.53847e-05
-4.41733e-05
4.47554e-05
-3.75853e-05
4.4845e-05
-4.56925e-05
4.44006e-05
-3.34639e-05
4.46267e-05
-4.20604e-05
4.46268e-05
-3.78969e-05
4.47126e-05
-4.31266e-05
4.48434e-05
-4.23412e-05
4.51322e-05