/*--------------------------------*- C++ -*----------------------------------*\
| =========                 |                                                 |
| \\      /  F ield         | foam-extend: Open Source CFD                    |
|  \\    /   O peration     | Version:     3.2                                |
|   \\  /    A nd           | Web:         http://www.foam-extend.org         |
|    \\/     M anipulation  | For copyright notice see file Copyright         |
\*---------------------------------------------------------------------------*/
FoamFile
{
    version     2.0;
    format      ascii;
    class       areaVectorField;
    location    "160";
    object      aMeshCentreN;
}
// * * * * * * * * * * * * * * * * * * * * * * * * * * * * * * * * * * * * * //

dimensions      [0 0 0 0 0 0 0];

internalField   nonuniform List<vector> 
300
(
(0.025 0.01 0)
(0.075 0.01 0)
(0.125 0.01 0)
(0.175 0.01 0)
(0.225 0.01 0)
(0.275 0.01 0)
(0.325 0.01 0)
(0.375 0.01 0)
(0.425 0.01 0)
(0.475 0.01 0)
(0.525 0.01 0)
(0.575 0.01 0)
(0.625 0.01 0)
(0.675 0.01 0)
(0.725 0.01 0)
(0.775 0.01 0)
(0.825 0.01 0)
(0.875 0.01 0)
(0.925 0.01 0)
(0.975 0.01 0)
(1.025 0.01 0)
(1.075 0.01 0)
(1.125 0.01 0)
(1.175 0.01 0)
(1.225 0.01 0)
(1.275 0.01 0)
(1.325 0.01 0)
(1.375 0.01 0)
(1.425 0.01 0)
(1.475 0.01 0)
(1.525 0.01 0)
(1.575 0.01 0)
(1.625 0.01 0)
(1.675 0.01 0)
(1.725 0.01 0)
(1.775 0.01 0)
(1.825 0.01 0)
(1.875 0.01 0)
(1.925 0.01 0)
(1.975 0.01 0)
(2.025 0.01 0)
(2.075 0.01 0)
(2.125 0.01 0)
(2.175 0.01 0)
(2.225 0.01 0)
(2.275 0.01 0)
(2.325 0.01 0)
(2.375 0.01 0)
(2.425 0.01 0)
(2.475 0.01 0)
(2.525 0.01 0)
(2.575 0.01 0)
(2.625 0.01 0)
(2.675 0.01 0)
(2.725 0.01 0)
(2.775 0.01 0)
(2.825 0.01 0)
(2.875 0.01 0)
(2.925 0.01 0)
(2.975 0.01 0)
(3.025 0.01 0)
(3.075 0.01 0)
(3.125 0.01 0)
(3.175 0.01 0)
(3.225 0.01 0)
(3.275 0.01 0)
(3.325 0.01 0)
(3.375 0.01 0)
(3.425 0.01 0)
(3.475 0.01 0)
(3.525 0.01 0)
(3.575 0.01 0)
(3.625 0.01 0)
(3.675 0.01 0)
(3.725 0.01 0)
(3.775 0.01 0)
(3.825 0.01 0)
(3.875 0.01 0)
(3.925 0.01 0)
(3.975 0.01 0)
(4.025 0.01 0)
(4.075 0.01 0)
(4.125 0.01 0)
(4.175 0.01 0)
(4.225 0.01 0)
(4.275 0.01 0)
(4.325 0.01 0)
(4.375 0.01 0)
(4.425 0.01 0)
(4.475 0.01 0)
(4.525 0.01 0)
(4.575 0.01 0)
(4.625 0.01 0)
(4.675 0.01 0)
(4.725 0.01 0)
(4.775 0.01 0)
(4.825 0.01 0)
(4.875 0.01 0)
(4.925 0.01 0)
(4.975 0.01 -0.00244165)
(5.025 0.01 -0.00819762)
(5.075 0.01 -0.0135626)
(5.125 0.01 -0.0174974)
(5.175 0.01 -0.0209516)
(5.225 0.01 -0.0239398)
(5.275 0.01 -0.0265253)
(5.325 0.01 -0.028817)
(5.375 0.01 -0.0307938)
(5.425 0.01 -0.0325281)
(5.475 0.01 -0.0343504)
(5.525 0.01 -0.0355411)
(5.575 0.01 -0.0365107)
(5.625 0.01 -0.0378343)
(5.675 0.01 -0.0388209)
(5.725 0.01 -0.0399876)
(5.775 0.01 -0.0410029)
(5.825 0.01 -0.0418684)
(5.875 0.01 -0.0425997)
(5.925 0.01 -0.0431241)
(5.975 0.01 -0.0440753)
(6.025 0.01 -0.0448039)
(6.075 0.01 -0.0454898)
(6.125 0.01 -0.045818)
(6.175 0.01 -0.0463947)
(6.225 0.01 -0.0468887)
(6.275 0.01 -0.0467392)
(6.325 0.01 -0.0471496)
(6.375 0.01 -0.0470695)
(6.425 0.01 -0.0472423)
(6.475 0.01 -0.0473224)
(6.525 0.01 -0.0476627)
(6.575 0.01 -0.0484551)
(6.625 0.01 -0.0482754)
(6.675 0.01 -0.0483718)
(6.725 0.01 -0.0480763)
(6.775 0.01 -0.0478827)
(6.825 0.01 -0.0473606)
(6.875 0.01 -0.0470718)
(6.925 0.01 -0.0472724)
(6.975 0.01 -0.0468854)
(7.025 0.01 -0.0474747)
(7.075 0.01 -0.0474926)
(7.125 0.01 -0.0473206)
(7.175 0.01 -0.0468432)
(7.225 0.01 -0.046541)
(7.275 0.01 -0.0466009)
(7.325 0.01 -0.04578)
(7.375 0.01 -0.0456574)
(7.425 0.01 -0.0448063)
(7.475 0.01 -0.0442029)
(7.525 0.01 -0.0438102)
(7.575 0.01 -0.0436751)
(7.625 0.01 -0.0437748)
(7.675 0.01 -0.0431643)
(7.725 0.01 -0.043046)
(7.775 0.01 -0.0422006)
(7.825 0.01 -0.0413784)
(7.875 0.01 -0.0404133)
(7.925 0.01 -0.0394797)
(7.975 0.01 -0.03876)
(8.025 0.01 -0.0385695)
(8.075 0.01 -0.0388896)
(8.125 0.01 -0.0381834)
(8.175 0.01 -0.0378039)
(8.225 0.01 -0.0369943)
(8.275 0.01 -0.0364421)
(8.325 0.01 -0.0362177)
(8.375 0.01 -0.0358874)
(8.425 0.01 -0.0359655)
(8.475 0.01 -0.0353094)
(8.525 0.01 -0.0350077)
(8.575 0.01 -0.0348091)
(8.625 0.01 -0.0350582)
(8.675 0.01 -0.0351831)
(8.725 0.01 -0.0354315)
(8.775 0.01 -0.0356108)
(8.825 0.01 -0.0359584)
(8.875 0.01 -0.0365816)
(8.925 0.01 -0.0366013)
(8.975 0.01 -0.0374577)
(9.025 0.01 -0.0377189)
(9.075 0.01 -0.0381637)
(9.125 0.01 -0.038347)
(9.175 0.01 -0.038771)
(9.225 0.01 -0.0390148)
(9.275 0.01 -0.0393498)
(9.325 0.01 -0.0396602)
(9.375 0.01 -0.039375)
(9.425 0.01 -0.0401738)
(9.475 0.01 -0.0399263)
(9.525 0.01 -0.0395865)
(9.575 0.01 -0.0390584)
(9.625 0.01 -0.0389975)
(9.675 0.01 -0.0384302)
(9.725 0.01 -0.0376962)
(9.775 0.01 -0.0369842)
(9.825 0.01 -0.0362904)
(9.875 0.01 -0.0359319)
(9.925 0.01 -0.0351397)
(9.975 0.01 -0.0353477)
(10.025 0.01 -0.0351266)
(10.075 0.01 -0.0353898)
(10.125 0.01 -0.0353499)
(10.175 0.01 -0.0357707)
(10.225 0.01 -0.0358738)
(10.275 0.01 -0.0360301)
(10.325 0.01 -0.0364375)
(10.375 0.01 -0.0363198)
(10.425 0.01 -0.0366109)
(10.475 0.01 -0.0362333)
(10.525 0.01 -0.0366685)
(10.575 0.01 -0.0368108)
(10.625 0.01 -0.0370648)
(10.675 0.01 -0.0369855)
(10.725 0.01 -0.0370392)
(10.775 0.01 -0.03699)
(10.825 0.01 -0.0369229)
(10.875 0.01 -0.0367096)
(10.925 0.01 -0.0361019)
(10.975 0.01 -0.036103)
(11.025 0.01 -0.0352208)
(11.075 0.01 -0.034949)
(11.125 0.01 -0.0347157)
(11.175 0.01 -0.034956)
(11.225 0.01 -0.0350378)
(11.275 0.01 -0.0354203)
(11.325 0.01 -0.0356655)
(11.375 0.01 -0.0358956)
(11.425 0.01 -0.036547)
(11.475 0.01 -0.0366316)
(11.525 0.01 -0.0374406)
(11.575 0.01 -0.0374909)
(11.625 0.01 -0.0376148)
(11.675 0.01 -0.0372564)
(11.725 0.01 -0.03712)
(11.775 0.01 -0.036884)
(11.825 0.01 -0.0365282)
(11.875 0.01 -0.0361052)
(11.925 0.01 -0.03555)
(11.975 0.01 -0.0354836)
(12.025 0.01 -0.0350722)
(12.075 0.01 -0.0354936)
(12.125 0.01 -0.0357122)
(12.175 0.01 -0.0362255)
(12.225 0.01 -0.0365559)
(12.275 0.01 -0.0369002)
(12.325 0.01 -0.0369677)
(12.375 0.01 -0.0371859)
(12.425 0.01 -0.0371637)
(12.475 0.01 -0.0368015)
(12.525 0.01 -0.0368432)
(12.575 0.01 -0.0364472)
(12.625 0.01 -0.0365363)
(12.675 0.01 -0.0362717)
(12.725 0.01 -0.0364071)
(12.775 0.01 -0.0364635)
(12.825 0.01 -0.0366964)
(12.875 0.01 -0.0369448)
(12.925 0.01 -0.0372502)
(12.975 0.01 -0.0373049)
(13.025 0.01 -0.0372754)
(13.075 0.01 -0.0371091)
(13.125 0.01 -0.0366164)
(13.175 0.01 -0.0364661)
(13.225 0.01 -0.0358886)
(13.275 0.01 -0.0356805)
(13.325 0.01 -0.0356132)
(13.375 0.01 -0.0360154)
(13.425 0.01 -0.0360998)
(13.475 0.01 -0.036421)
(13.525 0.01 -0.0365325)
(13.575 0.01 -0.0367152)
(13.625 0.01 -0.0369994)
(13.675 0.01 -0.0368669)
(13.725 0.01 -0.0367925)
(13.775 0.01 -0.0365083)
(13.825 0.01 -0.0360211)
(13.875 0.01 -0.0357121)
(13.925 0.01 -0.0353691)
(13.975 0.01 -0.0346004)
(14.025 0.01 -0.0340091)
(14.075 0.01 -0.0334504)
(14.125 0.01 -0.0335145)
(14.175 0.01 -0.0333451)
(14.225 0.01 -0.0333202)
(14.275 0.01 -0.0334935)
(14.325 0.01 -0.0335565)
(14.375 0.01 -0.0330452)
(14.425 0.01 -0.031909)
(14.475 0.01 -0.0304843)
(14.525 0.01 -0.0287013)
(14.575 0.01 -0.0264927)
(14.625 0.01 -0.0237924)
(14.675 0.01 -0.0203861)
(14.725 0.01 -0.0161966)
(14.775 0.01 -0.00995851)
(14.825 0.01 -0.00288724)
(14.875 0.01 0)
(14.925 0.01 0)
(14.975 0.01 0)
)
;

boundaryField
{
    inlet
    {
        type            calculated;
        value           uniform (0 0 0);
    }
    outlet
    {
        type            calculated;
        value           uniform (0 0 0);
    }
    sideWall
    {
        type            empty;
    }
}


// ************************************************************************* //
