/*--------------------------------*- C++ -*----------------------------------*\
| =========                 |                                                 |
| \\      /  F ield         | foam-extend: Open Source CFD                    |
|  \\    /   O peration     | Version:     3.2                                |
|   \\  /    A nd           | Web:         http://www.foam-extend.org         |
|    \\/     M anipulation  | For copyright notice see file Copyright         |
\*---------------------------------------------------------------------------*/
FoamFile
{
    version     2.0;
    format      ascii;
    class       areaScalarField;
    location    "160";
    object      angBeta;
}
// * * * * * * * * * * * * * * * * * * * * * * * * * * * * * * * * * * * * * //

dimensions      [0 0 0 0 0 0 0];

internalField   nonuniform List<scalar> 
300
(
0
0
0
0
0
0
0
0
0
0
0
0
0
0
0
0
0
0
0
0
0
0
0
0
0
0
0
0
0
0
0
0
0
0
0
0
0
0
0
0
0
0
0
0
0
0
0
0
0
0
0
0
0
0
0
0
0
0
0
0
0
0
0
0
0
0
0
0
0
0
0
0
0
0
0
0
0
0
0
0
0
0
0
0
0
0
0
0
0
0
0
0
0
0
0
0
0
0
0
0.0973572
0.131804
0.0818443
0.0752213
0.0627225
0.0566634
0.0466605
0.0449424
0.0340888
0.0352554
0.0376029
0.0100049
0.0287739
0.0241564
0.0153009
0.0313573
0.00924164
0.0253752
0.00386891
0.0171055
0.0209397
0.00820149
0.0192319
0.00610715
0.0291673
0.00941657
0.00343794
0.0129754
0.0161762
0.0230842
0.0198832
0.0334856
0.00180109
0.00538671
0.00924132
0.0210586
0.0133179
0.0341891
0.0226471
0.0146248
0.000856278
0.0244227
0.0237046
0.0168268
0.0359098
0.0238309
0.0214355
0.0113964
0.00649389
0.0405142
0.0163989
0.0320995
0.0267
0.022713
0.00170299
0.00303114
0.0307719
0.00210905
0.0364799
0.000847037
0.0279313
0.0203158
0.0075165
0.0207268
0.00554718
0.0379131
0.0158447
0.0248168
0.0116099
0.00848671
0.0177565
0.00568847
0.0136295
0.0235912
0.0186002
0.0285309
0.0213633
0.0352584
0.0103454
0.0111321
0.023121
0.0126763
0.030458
0.0231315
0.0400736
0.0303338
0.0437137
0.0313148
0.0199167
0.0120304
0.021927
0.00833689
0.0294523
0.0270178
0.0496723
0.0203506
0.048795
0.0210779
0.0354077
0.00373583
0.00458478
0.0134279
0.0239504
0.0255467
0.0423609
0.0382423
0.0444811
0.0282065
0.0235025
0.0118612
0.00324306
0.0206471
0.0149559
0.0251111
0.0282801
0.0304241
0.0323897
0.0297106
0.0382346
0.0139466
0.0139032
0.0213826
0.0105146
0.0198425
0.0294472
0.0261796
0.0414653
0.0316733
0.0408665
0.0148313
0.0182153
0.0141391
0.012125
0.0170795
0.0314094
0.0259607
0.0353915
0.0211688
0.0380727
0.015883
0.0185391
0.00208568
0.0147663
0.00601953
0.0265448
0.0133346
0.0271015
0.0244063
0.0331272
0.0340137
0.0195374
0.0178689
0.00203061
0.00153222
0.0121157
0.0175286
0.0152732
0.0245862
0.0146529
0.0268614
0.0246721
0.0234932
0.0301432
0.0104461
0.0164582
0.00663892
0.0016855
0.00100718
0.0170926
0.0137166
0.0265595
0.0221018
0.0294048
0.0180429
0.0127418
0.0157165
0.00435144
0.0238346
0.0114786
0.0251953
0.00554462
0.0181068
0.00423968
0.00680224
0.0135745
0.0125758
0.00564126
0.0081605
0.0286051
0.0168354
0.0401306
0.0311557
0.0571158
0.0507911
0.0852101
0.0819783
0.165825
0.11498
0
0
0
)
;

boundaryField
{
    inlet
    {
        type            calculated;
        value           uniform 0;
    }
    outlet
    {
        type            calculated;
        value           uniform 0;
    }
    sideWall
    {
        type            empty;
    }
}


// ************************************************************************* //
