/*--------------------------------*- C++ -*----------------------------------*\
| =========                 |                                                 |
| \\      /  F ield         | foam-extend: Open Source CFD                    |
|  \\    /   O peration     | Version:     3.2                                |
|   \\  /    A nd           | Web:         http://www.foam-extend.org         |
|    \\/     M anipulation  | For copyright notice see file Copyright         |
\*---------------------------------------------------------------------------*/
FoamFile
{
    version     2.0;
    format      ascii;
    class       areaVectorField;
    location    "160";
    object      aUf;
}
// * * * * * * * * * * * * * * * * * * * * * * * * * * * * * * * * * * * * * //

dimensions      [0 1 -1 0 0 0 0];

internalField   nonuniform List<vector> 
300
(
(2.31224 0 0.0560184)
(2.06385 0 0.0276194)
(1.71914 0 0.0054363)
(1.55785 0 -0.00117478)
(1.49252 0 -0.00120527)
(1.4571 0 -0.000527311)
(1.43089 0 -0.000296742)
(1.40756 0 -0.000136712)
(1.38574 0 -3.08089e-05)
(1.36563 0 1.02126e-05)
(1.34743 0 2.2983e-05)
(1.33095 0 4.6164e-05)
(1.31587 0 5.78954e-05)
(1.30226 0 6.51834e-05)
(1.28989 0 6.69411e-05)
(1.27854 0 6.66355e-05)
(1.26807 0 6.89378e-05)
(1.25833 0 6.84823e-05)
(1.24935 0 7.10535e-05)
(1.2411 0 7.17178e-05)
(1.23339 0 7.08642e-05)
(1.2261 0 6.94511e-05)
(1.21921 0 6.76179e-05)
(1.21272 0 6.44476e-05)
(1.20659 0 6.20488e-05)
(1.20076 0 5.99658e-05)
(1.19523 0 5.8137e-05)
(1.18994 0 5.6509e-05)
(1.18491 0 5.3777e-05)
(1.18013 0 5.22305e-05)
(1.17554 0 5.0228e-05)
(1.17115 0 4.91214e-05)
(1.16693 0 4.7422e-05)
(1.16288 1.90285e-39 4.60409e-05)
(1.15899 3.62979e-39 4.4192e-05)
(1.15526 0 4.30716e-05)
(1.15166 0 4.18542e-05)
(1.14818 0 4.06037e-05)
(1.14482 6.15574e-39 3.98156e-05)
(1.14158 5.89584e-39 3.81754e-05)
(1.13845 0 3.73888e-05)
(1.13542 0 3.61983e-05)
(1.13249 1.05464e-38 3.54054e-05)
(1.12964 2.04266e-38 3.45651e-05)
(1.12687 0 3.35642e-05)
(1.1242 0 3.2725e-05)
(1.12159 0 3.16987e-05)
(1.11908 0 3.12442e-05)
(1.11661 -6.89968e-38 3.02626e-05)
(1.11423 -6.69916e-38 2.97516e-05)
(1.11189 0 2.90167e-05)
(1.10964 0 2.8187e-05)
(1.10743 0 2.76054e-05)
(1.10529 0 2.6891e-05)
(1.10319 0 2.64284e-05)
(1.10115 0 2.57906e-05)
(1.09915 0 2.52089e-05)
(1.09721 0 2.56654e-05)
(1.09528 4.01961e-37 2.54726e-05)
(1.09343 0 2.49704e-05)
(1.09159 -7.60176e-37 2.43062e-05)
(1.08983 0 2.36797e-05)
(1.08808 0 2.31291e-05)
(1.08641 0 2.24908e-05)
(1.08473 -1.35738e-36 2.18597e-05)
(1.08315 0 2.12616e-05)
(1.08156 0 2.07102e-05)
(1.08007 -2.48491e-36 1.99969e-05)
(1.07855 -4.8231e-36 1.94991e-05)
(1.07715 -4.65322e-36 1.85567e-05)
(1.07572 0 1.80395e-05)
(1.07441 0 1.70089e-05)
(1.07307 8.2671e-36 1.64142e-05)
(1.07187 1.5726e-35 1.52432e-05)
(1.07063 -1.50111e-35 1.45626e-05)
(1.06955 0 1.28725e-05)
(1.06842 -2.63631e-35 1.23518e-05)
(1.06748 0 9.95292e-06)
(1.0665 0 9.3053e-06)
(1.06573 3.61345e-35 6.2056e-06)
(1.06494 -3.2472e-35 5.48726e-06)
(1.06439 0 8.08827e-07)
(1.06385 0 1.56171e-06)
(1.06357 -8.91503e-36 -4.82066e-06)
(1.06341 -2.36123e-35 -4.91836e-06)
(1.06346 0 -1.43784e-05)
(1.06373 0 -1.8138e-05)
(1.06437 0 -2.99871e-05)
(1.06532 1.17368e-33 -3.30765e-05)
(1.0667 -2.12742e-33 -4.87492e-05)
(1.06871 0 -5.51576e-05)
(1.07122 0 -8.39267e-05)
(1.07505 -1.64691e-32 -9.18314e-05)
(1.07929 0 -0.000148438)
(1.08667 0 -0.000187147)
(1.09425 -3.77376e-31 -0.000317222)
(1.11104 -1.31489e-29 -0.000285014)
(1.11785 0 -0.00145323)
(1.2064 0 0.000548995)
(1.14582 -3.17258e-23 -0.0988571)
(0.803086 -2.69723e-23 -0.0998068)
(0.792274 0 -0.0711592)
(0.816466 -5.90815e-28 -0.0629164)
(0.821994 0 -0.0523154)
(0.832385 0 -0.0474799)
(0.843336 -4.01492e-24 -0.0395131)
(0.84747 0 -0.0379238)
(0.858226 0 -0.0295991)
(0.875279 -1.69057e-24 -0.0298352)
(0.84465 0 -0.031323)
(0.883021 0 -0.00975792)
(0.901063 0 -0.022007)
(0.870488 0 -0.0202259)
(0.913319 0 -0.0152704)
(0.875573 8.29316e-24 -0.027675)
(0.887496 -7.20173e-24 -0.0123275)
(0.888196 -1.02067e-23 -0.0217053)
(0.888051 0 -0.00228308)
(0.915479 0 -0.0111599)
(0.87402 5.8533e-24 -0.0161203)
(0.90739 -1.46649e-24 -0.00887074)
(0.869855 0 -0.0195244)
(0.920316 1.42075e-24 -0.000199648)
(0.889248 0 -0.0230899)
(0.871506 -2.51228e-27 0.00630232)
(0.936126 0 0.000619896)
(0.858444 0 -0.00700175)
(0.945587 0 0.0134407)
(0.89208 2.77848e-24 -0.0185525)
(0.922182 2.24101e-24 0.0135157)
(0.914914 0 -0.0300043)
(0.85103 0 -0.00253733)
(0.926852 0 0.00484809)
(0.851753 -1.95378e-24 -0.0059495)
(0.938329 -3.03336e-24 0.0195656)
(0.888786 7.12959e-24 -0.00615831)
(0.93648 1.57475e-23 0.0299441)
(0.937348 -2.22948e-26 -0.0190871)
(0.88375 0 0.00619025)
(0.967971 -4.32121e-25 0.000107094)
(0.8285 -1.44185e-23 -0.0173181)
(0.920101 0 0.0175502)
(0.884139 3.30378e-24 -0.013394)
(0.921766 4.29751e-24 0.0300953)
(0.922862 0 -0.0147726)
(0.867504 -4.40381e-27 0.0197419)
(0.967748 0 0.0142531)
(0.840617 -2.16998e-24 -0.00655135)
(0.965208 0 0.0297554)
(0.918389 -7.73064e-24 -0.0142145)
(0.938784 1.18801e-23 0.0260973)
(0.922419 0 -0.0179783)
(0.877479 3.53019e-24 0.0181155)
(0.938075 4.00091e-25 0.00572388)
(0.863035 -9.02575e-25 0.00554007)
(0.958992 0 0.0273443)
(0.918841 3.64714e-25 0.00121052)
(0.960329 -1.85113e-26 0.0281697)
(0.958093 0 -0.00265894)
(0.96308 -7.75383e-24 0.0251844)
(0.957523 1.23147e-24 -0.0100223)
(0.877919 -4.35932e-24 0.00839218)
(0.983335 0 0.0204733)
(0.890427 -8.57845e-28 -0.00357082)
(0.978501 2.08658e-24 0.0312821)
(0.957233 0 -0.0134647)
(0.93927 -7.55569e-24 0.0171609)
(0.961189 -3.79198e-24 -0.00865446)
(0.897149 1.28337e-24 0.00643392)
(0.989686 0 0.0189387)
(0.92742 0 -0.000484535)
(0.993777 0 0.0137831)
(0.909813 0 -0.0177377)
(0.960131 0 0.012245)
(0.917324 0 -0.0254055)
(0.933536 3.50763e-24 0.0162364)
(0.930184 1.06964e-23 -0.026407)
(0.882297 3.35655e-24 0.00922232)
(0.956659 -2.98827e-24 -0.00525658)
(0.84241 0 -0.0181113)
(0.955926 2.21514e-24 0.00676524)
(0.858841 1.31779e-23 -0.0255063)
(0.939825 -4.65115e-24 0.0174731)
(0.868575 1.12635e-23 -0.0281605)
(0.911218 0 0.0234264)
(0.886305 0 -0.0312679)
(0.856058 -1.80749e-23 0.0250376)
(0.927628 4.12806e-24 -0.011133)
(0.80288 -3.50787e-24 -0.00930187)
(0.927275 -1.56978e-24 0.0170828)
(0.854605 0 -0.00936405)
(0.960617 0 0.0232743)
(0.846376 -1.97475e-23 -0.0162996)
(0.924426 0 0.0428678)
(0.901419 -5.46683e-24 -0.0101616)
(0.925248 -3.11755e-23 0.0406869)
(0.935707 1.48028e-25 -0.0147154)
(0.894259 -8.22177e-24 0.0269318)
(0.966615 1.42832e-24 -0.00347683)
(0.867924 0 -0.00963824)
(0.977218 0 0.0113426)
(0.846599 0 -0.0154113)
(0.965831 6.04782e-25 0.0221222)
(0.859076 -9.22452e-24 -0.0264856)
(0.914484 0 0.0325978)
(0.893762 8.92314e-25 -0.0308778)
(0.864326 0 0.0207338)
(0.911213 0 -0.0181887)
(0.852996 0 0.00697675)
(0.947673 0 0.0046552)
(0.833273 -3.99926e-24 -0.0179728)
(0.926582 -4.36998e-24 0.00784758)
(0.83798 -1.1883e-27 -0.0184572)
(0.918924 0 0.0224995)
(0.871025 0 -0.0209079)
(0.899713 0 0.0273819)
(0.879434 0 -0.017883)
(0.877225 5.94848e-27 0.0298813)
(0.92953 0 -0.0108906)
(0.859256 -4.78868e-24 0.00605592)
(0.963425 -6.7863e-24 0.0172163)
(0.873065 -3.32403e-24 -0.00878055)
(0.96681 0 0.0175051)
(0.861483 2.26992e-26 -0.0177386)
(0.938417 2.93351e-23 0.0234569)
(0.8735 2.33377e-26 -0.0294086)
(0.892902 -4.24444e-25 0.0212354)
(0.897842 -3.64943e-23 -0.0329367)
(0.846037 0 0.00880894)
(0.907706 0 -0.0122856)
(0.809105 -3.13065e-24 -0.0097261)
(0.916061 2.49665e-24 0.0120101)
(0.832346 0 -0.0118024)
(0.929449 8.63095e-24 0.0249182)
(0.865005 6.69171e-25 -0.0178425)
(0.906512 1.34123e-23 0.0257314)
(0.891786 -7.19005e-27 -0.0191413)
(0.894095 5.12303e-24 0.0287)
(0.925157 0 -0.0103114)
(0.884992 -4.68193e-24 0.015797)
(0.951678 -5.15575e-25 0.0032718)
(0.856163 -4.95944e-28 -0.0107529)
(0.939615 0 0.0032895)
(0.850045 -5.99933e-24 -0.0213683)
(0.910224 0 0.00702235)
(0.847302 0 -0.0206325)
(0.910745 5.92596e-24 0.0188182)
(0.864909 2.02489e-24 -0.0226696)
(0.877791 -1.08484e-23 0.0276598)
(0.907125 0 -0.0111367)
(0.871322 7.21925e-24 0.0137968)
(0.922702 -2.34303e-25 -0.00199383)
(0.859606 -3.17914e-25 -0.00609586)
(0.943642 2.04222e-27 0.00731382)
(0.867427 5.52484e-24 -0.0130344)
(0.926102 0 0.0128304)
(0.871311 0 -0.0147027)
(0.909125 0 0.0142086)
(0.863161 0 -0.0183208)
(0.893716 0 0.0175943)
(0.877845 0 -0.0201175)
(0.881111 0 0.0201118)
(0.912318 -3.50237e-24 -0.0083363)
(0.880226 1.3853e-24 0.0126424)
(0.931369 -7.13483e-29 0.00811196)
(0.900813 -6.65099e-25 0.00430789)
(0.939569 2.57908e-25 0.00355129)
(0.852682 0 -0.013189)
(0.931609 0 0.00820237)
(0.859438 -1.66471e-23 -0.0212699)
(0.905679 0 0.0166843)
(0.877628 0 -0.0181975)
(0.868381 0 0.0158115)
(0.883504 0 -0.00824498)
(0.880232 -3.55052e-24 0.0103101)
(0.877995 0 -0.00562961)
(0.908048 1.30162e-23 0.0167019)
(0.891168 0 -0.00794278)
(0.883949 0 0.0198147)
(0.916396 0 0.00772551)
(0.904171 -4.19635e-24 0.016605)
(0.942101 2.87028e-29 0.0045805)
(0.86389 -1.49007e-24 -0.00667216)
(0.908331 1.44147e-24 0.0121239)
(0.881619 0 -0.00566959)
(0.874652 1.83053e-25 0.00481417)
(0.844066 -7.87612e-25 -0.00611225)
(0.858031 1.04958e-24 0.0217687)
(0.87012 0 0.0148405)
(0.884531 -3.17099e-24 0.033875)
(0.88623 -9.54898e-28 0.0274924)
(0.911762 -2.04547e-24 0.0504715)
(0.903144 -2.27537e-24 0.0459377)
(0.949983 2.87685e-25 0.0790954)
(0.928324 0 0.0745194)
(1.06378 7.55981e-23 0.169133)
(1.29288 0 0.15212)
(1.17573 0 0.014548)
(0.969012 0 0.000961024)
(0.92241 -7.08563e-29 -0.000282464)
)
;

boundaryField
{
    inlet
    {
        type            calculated;
        value           uniform (0 0 0);
    }
    outlet
    {
        type            calculated;
        value           uniform (0 0 0);
    }
    sideWall
    {
        type            empty;
    }
}


// ************************************************************************* //
