/*--------------------------------*- C++ -*----------------------------------*\
| =========                 |                                                 |
| \\      /  F ield         | foam-extend: Open Source CFD                    |
|  \\    /   O peration     | Version:     3.2                                |
|   \\  /    A nd           | Web:         http://www.foam-extend.org         |
|    \\/     M anipulation  | For copyright notice see file Copyright         |
\*---------------------------------------------------------------------------*/
FoamFile
{
    version     2.0;
    format      ascii;
    class       volScalarField;
    location    "160";
    object      C1;
}
// * * * * * * * * * * * * * * * * * * * * * * * * * * * * * * * * * * * * * //

dimensions      [1 -3 0 0 0 0 0];

internalField   nonuniform List<scalar> 
96000
(
0.04
0.04
0.04
0.04
0.04
0.04
0.04
0.04
0.04
0.04
0.04
0.04
0.04
0.04
0.04
0.04
0.04
0.04
0.04
0.04
0.04
0.04
0.04
0.04
0.04
0.04
0.04
0.04
0.04
0.04
0.04
0.04
0.04
0.04
0.04
0.04
0.04
0.04
0.04
0.04
0.04
0.04
0.04
0.04
0.04
0.04
0.04
0.04
0.04
0.04
0.04
0.04
0.04
0.04
0.04
0.04
0.04
0.04
0.04
0.04
0.04
0.04
0.04
0.04
0.04
0.04
0.04
0.04
0.04
0.04
0.04
0.04
0.04
0.04
0.04
0.04
0.04
0.04
0.04
0.04
0.04
0.04
0.04
0.04
0.04
0.04
0.04
0.04
0.04
0.04
0.04
0.04
0.04
0.04
0.04
0.04
0.04
0.04
0.04
0.0400001
0.0399635
0.039855
0.039859
0.0398386
0.0397186
0.0398553
0.0395989
0.0398052
0.039849
0.0389587
0.0412406
0.0392383
0.0382917
0.04049
0.038714
0.0419809
0.0398908
0.0414237
0.0399114
0.0383373
0.0409046
0.0392149
0.0432675
0.0403052
0.0395105
0.0419857
0.0384525
0.0390463
0.0394638
0.038707
0.0394459
0.0418355
0.0434004
0.0404118
0.0393101
0.0388373
0.0380866
0.0398564
0.0390967
0.0454685
0.0399011
0.0383663
0.0392372
0.0388148
0.0398504
0.0368767
0.0377592
0.040172
0.0387078
0.041257
0.0390957
0.0391865
0.0388381
0.0425351
0.0399477
0.0378622
0.0411938
0.0381949
0.0438776
0.0398283
0.0397902
0.038295
0.0384375
0.0399781
0.0382196
0.0385352
0.0387372
0.0412975
0.0399109
0.0392896
0.0390308
0.0385124
0.0387913
0.0382984
0.0393169
0.0401453
0.038786
0.0398196
0.0402199
0.0383877
0.0395182
0.0392683
0.0393137
0.0379409
0.0375491
0.0378578
0.0378697
0.0379061
0.0386055
0.0373776
0.0385361
0.03881
0.0373479
0.0370812
0.0372107
0.0366346
0.0382424
0.037594
0.0406355
0.0421771
0.042239
0.039139
0.0384494
0.0384233
0.0370581
0.0378928
0.0367446
0.0389154
0.04021
0.0401519
0.0385145
0.040695
0.0401494
0.0380968
0.0374816
0.0387566
0.0378437
0.0364762
0.038942
0.0388014
0.0397527
0.0398174
0.0390305
0.0395137
0.0376335
0.0381484
0.0381987
0.0388768
0.0397588
0.0396858
0.0397029
0.03813
0.0376165
0.038003
0.0377782
0.0366429
0.039303
0.0386469
0.03957
0.0389488
0.0417778
0.0392253
0.0402138
0.0394412
0.0409477
0.0399425
0.0388205
0.0388235
0.0384704
0.0377416
0.0378167
0.0423626
0.0427606
0.0418096
0.0408997
0.0400641
0.0397631
0.0386224
0.0384541
0.0390228
0.0392506
0.0392129
0.0408198
0.0397625
0.0404015
0.0410724
0.0402447
0.0402443
0.039129
0.0396204
0.038821
0.0387884
0.0377744
0.0388842
0.0398997
0.0408712
0.041079
0.040067
0.0396442
0.0398432
0.0382498
0.0394524
0.0431387
0.0404204
0.0392477
0.0410368
0.040769
0.0402896
0.0406065
0.0401936
0.0404733
0.040101
0.0403136
0.0400284
0.0401456
0.0399882
0.0399761
0.0399892
0.0399948
0.0399964
0.04
0.04
0.04
0.04
0.04
0.04
0.04
0.04
0.04
0.04
0.04
0.04
0.04
0.04
0.04
0.04
0.04
0.04
0.04
0.04
0.04
0.04
0.04
0.04
0.04
0.04
0.04
0.04
0.04
0.04
0.04
0.04
0.04
0.04
0.04
0.04
0.04
0.04
0.04
0.04
0.04
0.04
0.04
0.04
0.04
0.04
0.04
0.04
0.04
0.04
0.04
0.04
0.04
0.04
0.04
0.04
0.04
0.04
0.04
0.04
0.04
0.04
0.04
0.04
0.04
0.04
0.04
0.04
0.04
0.04
0.04
0.04
0.04
0.04
0.04
0.04
0.04
0.04
0.04
0.04
0.04
0.04
0.04
0.04
0.04
0.04
0.04
0.04
0.04
0.04
0.04
0.04
0.04
0.04
0.04
0.04
0.04
0.04
0.04
0.04
0.0400086
0.0400025
0.0400113
0.0400217
0.0400032
0.0400446
0.0399986
0.0400506
0.0400826
0.0397192
0.0400413
0.0400562
0.0398162
0.040067
0.0398365
0.0401723
0.0400575
0.040225
0.0404464
0.0400104
0.0404177
0.0400349
0.0404679
0.0401364
0.0398087
0.0402183
0.040085
0.0401762
0.0400098
0.039708
0.0394959
0.0398524
0.0404072
0.0402351
0.0398865
0.0400714
0.0397711
0.0399259
0.0397142
0.0406076
0.0399922
0.039417
0.0393966
0.0393584
0.0394604
0.0391572
0.0393432
0.0398691
0.0396229
0.0396603
0.0393674
0.0394538
0.0394429
0.0401705
0.0403238
0.0397401
0.0401819
0.0396592
0.0401815
0.0399477
0.0398931
0.0397581
0.0397232
0.0399801
0.0395445
0.039499
0.0392064
0.0396312
0.0397219
0.0395579
0.0397983
0.0397361
0.0396499
0.0395083
0.0394398
0.0395598
0.0394204
0.0395232
0.0401346
0.0396558
0.0396853
0.0394651
0.0394191
0.039137
0.0389183
0.0388525
0.0388599
0.0391598
0.0393079
0.0389638
0.0392059
0.0390243
0.0387994
0.0387215
0.0388406
0.0386546
0.0388326
0.0388356
0.0397682
0.0399253
0.0400636
0.0396551
0.0393693
0.0392522
0.0391113
0.0390576
0.0389337
0.0392637
0.0396151
0.0398166
0.0396265
0.0397632
0.0396878
0.0392094
0.0388795
0.0391384
0.0392498
0.0388527
0.03911
0.0394006
0.0392526
0.0393378
0.0393541
0.0394869
0.0392738
0.0391574
0.0391823
0.0390869
0.0391698
0.0394686
0.0396459
0.0395146
0.0392385
0.0391443
0.0389415
0.0386663
0.0388805
0.0389948
0.0391988
0.0391863
0.0404299
0.0400782
0.0400144
0.0398697
0.0398776
0.0397042
0.0394305
0.0393415
0.0392433
0.0393117
0.0393764
0.0404169
0.0408468
0.0403529
0.0400591
0.0400374
0.0399655
0.0398513
0.0397487
0.0397186
0.0397201
0.0393793
0.039476
0.0395332
0.0396939
0.0404587
0.040586
0.0404017
0.040046
0.0397218
0.0394791
0.0394492
0.0394017
0.0397235
0.0398139
0.0402043
0.0399936
0.0399445
0.0397457
0.0395605
0.0397076
0.0399816
0.0404026
0.0401211
0.0401758
0.0404165
0.040177
0.0400515
0.0400612
0.0400064
0.0400363
0.0399906
0.0400152
0.0399821
0.0399963
0.0399878
0.0399923
0.0399946
0.0399964
0.0399968
0.04
0.04
0.04
0.04
0.04
0.04
0.04
0.04
0.04
0.04
0.04
0.04
0.04
0.04
0.04
0.04
0.04
0.04
0.04
0.04
0.04
0.04
0.04
0.04
0.04
0.04
0.04
0.04
0.04
0.04
0.04
0.04
0.04
0.04
0.04
0.04
0.04
0.04
0.04
0.04
0.04
0.04
0.04
0.04
0.04
0.04
0.04
0.04
0.04
0.04
0.04
0.04
0.04
0.04
0.04
0.04
0.04
0.04
0.04
0.04
0.04
0.04
0.04
0.04
0.04
0.04
0.04
0.04
0.04
0.04
0.04
0.04
0.04
0.04
0.04
0.04
0.04
0.04
0.04
0.04
0.04
0.04
0.04
0.04
0.04
0.04
0.04
0.04
0.04
0.04
0.04
0.04
0.04
0.04
0.04
0.04
0.04
0.04
0.04
0.04
0.0400027
0.0400002
0.0400025
0.0400068
0.04
0.0400145
0.0399997
0.0400159
0.0400337
0.0399084
0.04002
0.0400268
0.039938
0.039984
0.0399369
0.0400664
0.0400728
0.0401365
0.0402254
0.0400815
0.0401948
0.0400746
0.0402246
0.0401417
0.0399973
0.0401193
0.0400886
0.0401127
0.0400304
0.0398814
0.0397734
0.0398901
0.0401189
0.0401617
0.0400459
0.04005
0.039912
0.0399082
0.0398132
0.0401331
0.0399949
0.0397396
0.0396567
0.039611
0.0396149
0.0395024
0.0395431
0.0397299
0.0397066
0.0397354
0.0396479
0.0396563
0.0396531
0.0399273
0.0400547
0.0398884
0.0399838
0.0398399
0.0400034
0.03998
0.0399577
0.0398593
0.0398124
0.0398922
0.0397593
0.0396996
0.0395728
0.0396806
0.0397691
0.0397328
0.0397857
0.0397893
0.0397533
0.0396987
0.0396595
0.0396827
0.0396374
0.0396545
0.0398744
0.0397569
0.0397342
0.0396751
0.0396506
0.0395185
0.0393933
0.0392981
0.0392793
0.0393553
0.0394322
0.0393231
0.0393854
0.0393492
0.0392628
0.0392134
0.0391931
0.039122
0.0391304
0.0391625
0.0395388
0.0397125
0.0398148
0.0397324
0.0396267
0.0395363
0.0394549
0.0393752
0.0393216
0.0393871
0.0395164
0.0396677
0.0396782
0.039731
0.0397201
0.0395564
0.039374
0.0394134
0.0394442
0.0393067
0.039326
0.0394717
0.0394511
0.0394876
0.0395325
0.0395825
0.0394899
0.0394014
0.0393957
0.0393605
0.0394
0.0395381
0.0396546
0.0396058
0.0394724
0.0394093
0.0392954
0.0391723
0.0392165
0.0392792
0.0393795
0.0394051
0.039853
0.0398727
0.0398577
0.0398262
0.0398489
0.0397837
0.0396735
0.0395971
0.0395444
0.0395511
0.0395761
0.0399391
0.0402108
0.0401558
0.0400609
0.0400419
0.0400019
0.0399131
0.0398399
0.0398001
0.0397699
0.0396342
0.0396358
0.0396687
0.0397556
0.0400509
0.0402171
0.0401897
0.0400561
0.0398991
0.0397647
0.0397097
0.0396484
0.0397354
0.0397827
0.0399495
0.0399521
0.0399643
0.0398611
0.0397808
0.0398227
0.039878
0.0400631
0.0400518
0.0400831
0.040153
0.0401137
0.0400615
0.0400537
0.0400294
0.0400343
0.0400166
0.0400202
0.0400066
0.0400064
0.0400003
0.0399983
0.0399977
0.0399975
0.039997
0.04
0.04
0.04
0.04
0.04
0.04
0.04
0.04
0.04
0.04
0.04
0.04
0.04
0.04
0.04
0.04
0.04
0.04
0.04
0.04
0.04
0.04
0.04
0.04
0.04
0.04
0.04
0.04
0.04
0.04
0.04
0.04
0.04
0.04
0.04
0.04
0.04
0.04
0.04
0.04
0.04
0.04
0.04
0.04
0.04
0.04
0.04
0.04
0.04
0.04
0.04
0.04
0.04
0.04
0.04
0.04
0.04
0.04
0.04
0.04
0.04
0.04
0.04
0.04
0.04
0.04
0.04
0.04
0.04
0.04
0.04
0.04
0.04
0.04
0.04
0.04
0.04
0.04
0.04
0.04
0.04
0.04
0.04
0.04
0.04
0.04
0.04
0.04
0.04
0.04
0.04
0.04
0.04
0.04
0.04
0.04
0.04
0.04
0.04
0.04
0.0400012
0.0400004
0.0400012
0.0400034
0.0400008
0.040007
0.0400016
0.0400078
0.0400186
0.0399646
0.0400056
0.0400146
0.0399752
0.0399831
0.039969
0.0400259
0.0400473
0.0400816
0.0401303
0.0400807
0.0401229
0.0400764
0.0401311
0.0401122
0.0400427
0.0400818
0.040076
0.0400812
0.0400419
0.0399628
0.0398961
0.0399316
0.0400382
0.0400946
0.0400581
0.0400386
0.0399619
0.0399362
0.03988
0.0400005
0.0399721
0.0398497
0.0397741
0.039734
0.0397192
0.0396641
0.0396626
0.0397421
0.0397578
0.0397838
0.0397606
0.0397528
0.0397469
0.0398719
0.0399647
0.0399176
0.0399488
0.0398973
0.0399574
0.0399681
0.0399654
0.0399088
0.0398671
0.0398941
0.0398461
0.0398031
0.039734
0.0397581
0.0398034
0.0397971
0.0398131
0.039821
0.0398093
0.0397843
0.0397578
0.0397612
0.0397379
0.0397362
0.0398256
0.0397998
0.0397872
0.0397651
0.0397524
0.0396811
0.0396031
0.0395252
0.0394978
0.0395069
0.0395444
0.0395056
0.0395187
0.0395119
0.0394738
0.0394428
0.0394061
0.0393671
0.0393456
0.0393629
0.0395299
0.0396516
0.0397369
0.0397374
0.0397008
0.0396518
0.0396042
0.0395444
0.0395056
0.0395075
0.0395624
0.0396542
0.0396898
0.0397246
0.0397387
0.0396783
0.0395744
0.0395655
0.0395692
0.0395099
0.0394917
0.0395532
0.0395585
0.0395768
0.0396088
0.0396374
0.0395974
0.0395398
0.039527
0.0395059
0.0395259
0.0395898
0.0396631
0.0396564
0.0395909
0.0395514
0.0394875
0.0394162
0.0394089
0.0394395
0.0394872
0.0395105
0.0397074
0.0397792
0.0398017
0.0398056
0.0398272
0.0398081
0.0397589
0.039711
0.0396812
0.0396741
0.0396791
0.0398323
0.0399972
0.0400337
0.0400159
0.0400049
0.0399855
0.0399352
0.0398826
0.0398487
0.0398183
0.0397474
0.0397302
0.0397396
0.0397831
0.0399258
0.0400489
0.0400733
0.0400254
0.0399478
0.0398687
0.039822
0.0397746
0.0397882
0.0398129
0.0398936
0.039926
0.0399461
0.0398987
0.0398599
0.0398662
0.0398679
0.0399601
0.0399956
0.0400254
0.0400608
0.0400612
0.0400417
0.0400356
0.0400244
0.0400247
0.040017
0.0400166
0.0400099
0.0400074
0.0400023
0.0399996
0.0399984
0.0399975
0.0399966
0.04
0.04
0.04
0.04
0.04
0.04
0.04
0.04
0.04
0.04
0.04
0.04
0.04
0.04
0.04
0.04
0.04
0.04
0.04
0.04
0.04
0.04
0.04
0.04
0.04
0.04
0.04
0.04
0.04
0.04
0.04
0.04
0.04
0.04
0.04
0.04
0.04
0.04
0.04
0.04
0.04
0.04
0.04
0.04
0.04
0.04
0.04
0.04
0.04
0.04
0.04
0.04
0.04
0.04
0.04
0.04
0.04
0.04
0.04
0.04
0.04
0.04
0.04
0.04
0.04
0.04
0.04
0.04
0.04
0.04
0.04
0.04
0.04
0.04
0.04
0.04
0.04
0.04
0.04
0.04
0.04
0.04
0.04
0.04
0.04
0.04
0.04
0.04
0.04
0.04
0.04
0.04
0.04
0.04
0.04
0.04
0.04
0.04
0.04
0.04
0.0400007
0.0400005
0.0400008
0.0400021
0.0400011
0.040004
0.0400021
0.0400047
0.0400118
0.039986
0.040001
0.0400092
0.0399891
0.0399872
0.0399812
0.0400089
0.0400297
0.0400526
0.0400828
0.0400667
0.0400856
0.0400645
0.0400858
0.0400881
0.0400548
0.0400675
0.040066
0.040063
0.0400417
0.0399978
0.0399563
0.0399624
0.0400146
0.040059
0.0400504
0.0400313
0.0399826
0.0399573
0.0399183
0.0399634
0.0399642
0.0399013
0.0398408
0.0398066
0.0397917
0.0397598
0.0397435
0.0397757
0.0397935
0.039817
0.0398185
0.0398124
0.0398058
0.0398698
0.0399344
0.0399242
0.0399384
0.0399181
0.0399427
0.0399598
0.0399679
0.0399352
0.0399011
0.0399073
0.0398873
0.0398594
0.0398176
0.0398185
0.0398393
0.0398378
0.0398426
0.0398466
0.0398427
0.03983
0.0398118
0.0398121
0.0397998
0.0397933
0.0398309
0.0398275
0.039822
0.0398129
0.0398083
0.0397682
0.0397165
0.0396575
0.0396302
0.0396172
0.0396311
0.0396143
0.039612
0.0396122
0.039595
0.0395759
0.039543
0.0395158
0.0394901
0.0394962
0.0395719
0.0396483
0.0397172
0.0397421
0.0397337
0.0397096
0.0396825
0.0396418
0.0396121
0.0395959
0.0396204
0.0396745
0.0397032
0.0397293
0.0397535
0.0397354
0.0396746
0.039658
0.0396543
0.0396226
0.0395989
0.0396218
0.0396298
0.0396415
0.0396614
0.0396793
0.0396624
0.0396242
0.0396109
0.0395968
0.0396076
0.0396388
0.0396849
0.0396923
0.0396585
0.0396337
0.0395979
0.0395525
0.0395301
0.0395443
0.0395682
0.0395838
0.0396816
0.039745
0.0397765
0.0397931
0.0398145
0.0398165
0.0397969
0.0397698
0.0397544
0.0397466
0.0397421
0.039811
0.0399112
0.0399625
0.0399752
0.0399744
0.0399678
0.0399408
0.039903
0.0398744
0.039849
0.0398066
0.0397884
0.0397883
0.0398085
0.0398847
0.0399685
0.0400034
0.039992
0.0399567
0.0399124
0.0398797
0.0398443
0.0398335
0.0398422
0.0398828
0.0399134
0.0399341
0.0399141
0.0398945
0.0398888
0.0398761
0.039925
0.0399645
0.0399912
0.0400144
0.0400252
0.0400211
0.0400192
0.040015
0.0400154
0.0400123
0.0400116
0.0400081
0.0400056
0.0400013
0.0399988
0.0399977
0.0399967
0.0399957
0.04
0.04
0.04
0.04
0.04
0.04
0.04
0.04
0.04
0.04
0.04
0.04
0.04
0.04
0.04
0.04
0.04
0.04
0.04
0.04
0.04
0.04
0.04
0.04
0.04
0.04
0.04
0.04
0.04
0.04
0.04
0.04
0.04
0.04
0.04
0.04
0.04
0.04
0.04
0.04
0.04
0.04
0.04
0.04
0.04
0.04
0.04
0.04
0.04
0.04
0.04
0.04
0.04
0.04
0.04
0.04
0.04
0.04
0.04
0.04
0.04
0.04
0.04
0.04
0.04
0.04
0.04
0.04
0.04
0.04
0.04
0.04
0.04
0.04
0.04
0.04
0.04
0.04
0.04
0.04
0.04
0.04
0.04
0.04
0.04
0.04
0.04
0.04
0.04
0.04
0.04
0.04
0.04
0.04
0.04
0.04
0.04
0.04
0.04
0.0400001
0.0400005
0.0400006
0.0400008
0.0400016
0.0400013
0.0400028
0.0400022
0.0400034
0.0400084
0.0399954
0.0400004
0.0400073
0.0399958
0.0399909
0.0399869
0.0400007
0.0400183
0.040036
0.0400568
0.0400532
0.0400627
0.0400508
0.0400593
0.0400699
0.0400554
0.04006
0.0400591
0.0400521
0.0400382
0.0400123
0.0399867
0.039983
0.0400089
0.040041
0.0400424
0.0400269
0.0399928
0.0399716
0.0399413
0.0399559
0.0399648
0.0399302
0.0398824
0.0398538
0.0398437
0.0398238
0.0398024
0.0398101
0.0398217
0.0398416
0.0398534
0.0398519
0.0398462
0.0398827
0.0399279
0.0399283
0.0399358
0.039927
0.0399372
0.039955
0.0399698
0.039951
0.0399236
0.039921
0.0399109
0.0398924
0.0398652
0.0398609
0.0398703
0.0398686
0.0398689
0.0398692
0.0398669
0.0398587
0.039845
0.0398462
0.0398412
0.0398347
0.0398502
0.0398509
0.039847
0.0398424
0.039843
0.0398204
0.0397846
0.0397409
0.0397173
0.0396983
0.0396994
0.0396884
0.0396796
0.0396809
0.0396743
0.0396629
0.039637
0.0396154
0.0395917
0.0395911
0.0396227
0.0396671
0.039721
0.0397515
0.0397548
0.0397452
0.0397307
0.039704
0.0396811
0.0396605
0.0396714
0.0397035
0.0397209
0.0397394
0.0397665
0.0397678
0.0397319
0.0397182
0.0397145
0.0396943
0.0396715
0.0396763
0.0396816
0.0396901
0.0397023
0.0397142
0.039708
0.0396816
0.0396686
0.0396586
0.0396652
0.0396811
0.0397111
0.0397217
0.0397025
0.0396872
0.0396678
0.0396368
0.0396115
0.0396177
0.0396307
0.0396404
0.0396932
0.03974
0.0397688
0.0397878
0.0398082
0.0398197
0.0398159
0.0398027
0.0397975
0.039793
0.0397844
0.0398143
0.039875
0.0399217
0.0399452
0.0399517
0.0399535
0.0399405
0.0399132
0.0398891
0.0398682
0.0398405
0.0398258
0.0398227
0.0398313
0.0398741
0.03993
0.0399617
0.0399651
0.0399521
0.0399296
0.0399104
0.0398849
0.039867
0.0398659
0.0398852
0.0399084
0.0399274
0.0399211
0.0399124
0.0399034
0.0398866
0.0399133
0.0399483
0.0399713
0.0399878
0.0400005
0.0400036
0.0400052
0.0400051
0.0400066
0.0400061
0.0400061
0.0400045
0.0400025
0.039999
0.039997
0.0399962
0.0399954
0.0399944
0.04
0.04
0.04
0.04
0.04
0.04
0.04
0.04
0.04
0.04
0.04
0.04
0.04
0.04
0.04
0.04
0.04
0.04
0.04
0.04
0.04
0.04
0.04
0.04
0.04
0.04
0.04
0.04
0.04
0.04
0.04
0.04
0.04
0.04
0.04
0.04
0.04
0.04
0.04
0.04
0.04
0.04
0.04
0.04
0.04
0.04
0.04
0.04
0.04
0.04
0.04
0.04
0.04
0.04
0.04
0.04
0.04
0.04
0.04
0.04
0.04
0.04
0.04
0.04
0.04
0.04
0.04
0.04
0.04
0.04
0.04
0.04
0.04
0.04
0.04
0.04
0.04
0.04
0.04
0.04
0.04
0.04
0.04
0.04
0.04
0.04
0.04
0.04
0.04
0.04
0.04
0.04
0.04
0.04
0.04
0.04
0.04
0.04
0.04
0.0400001
0.0400005
0.0400007
0.0400009
0.0400014
0.0400013
0.0400023
0.0400022
0.0400028
0.0400066
0.0399998
0.040001
0.0400066
0.0399988
0.0399929
0.0399897
0.0399971
0.0400119
0.0400264
0.0400413
0.0400416
0.0400464
0.0400381
0.0400419
0.0400569
0.0400528
0.0400552
0.0400538
0.0400439
0.040033
0.0400171
0.0400021
0.0399965
0.0400099
0.0400329
0.0400372
0.040024
0.0399973
0.0399799
0.0399553
0.039958
0.0399699
0.0399497
0.0399108
0.0398869
0.0398819
0.0398692
0.0398457
0.0398398
0.0398446
0.0398616
0.0398781
0.0398808
0.039876
0.0398988
0.0399308
0.0399324
0.0399357
0.0399316
0.0399361
0.0399538
0.0399723
0.0399613
0.0399381
0.0399317
0.0399257
0.0399132
0.0398949
0.0398916
0.0398961
0.0398933
0.039891
0.039888
0.0398855
0.0398787
0.0398679
0.039871
0.0398712
0.0398657
0.0398707
0.0398705
0.0398661
0.0398634
0.0398674
0.0398553
0.0398294
0.0397971
0.0397777
0.0397582
0.0397525
0.0397424
0.0397309
0.0397324
0.039732
0.0397249
0.0397045
0.0396857
0.0396651
0.0396613
0.0396705
0.039694
0.0397358
0.0397656
0.0397731
0.0397709
0.0397637
0.0397464
0.0397286
0.0397083
0.039713
0.0397326
0.0397407
0.0397527
0.0397798
0.0397902
0.0397688
0.0397598
0.039758
0.0397431
0.0397224
0.039719
0.039722
0.0397289
0.0397363
0.0397442
0.0397421
0.0397227
0.0397104
0.0397037
0.0397088
0.0397174
0.0397372
0.0397467
0.0397339
0.0397242
0.039715
0.0396931
0.0396695
0.0396724
0.0396806
0.0396861
0.0397157
0.0397477
0.0397701
0.0397878
0.0398068
0.0398227
0.0398274
0.0398231
0.0398249
0.0398239
0.0398135
0.0398236
0.0398604
0.039899
0.0399256
0.0399364
0.0399431
0.0399381
0.0399176
0.0398972
0.0398802
0.0398615
0.0398516
0.0398485
0.039851
0.0398753
0.0399116
0.0399365
0.0399453
0.0399444
0.039936
0.0399272
0.0399092
0.0398898
0.0398834
0.0398911
0.039908
0.039925
0.0399256
0.039923
0.0399136
0.0398956
0.0399107
0.0399405
0.0399598
0.0399715
0.0399833
0.0399898
0.0399938
0.0399963
0.0399989
0.04
0.0400007
0.0400004
0.039999
0.0399963
0.0399949
0.0399944
0.0399938
0.039993
0.04
0.04
0.04
0.04
0.04
0.04
0.04
0.04
0.04
0.04
0.04
0.04
0.04
0.04
0.04
0.04
0.04
0.04
0.04
0.04
0.04
0.04
0.04
0.04
0.04
0.04
0.04
0.04
0.04
0.04
0.04
0.04
0.04
0.04
0.04
0.04
0.04
0.04
0.04
0.04
0.04
0.04
0.04
0.04
0.04
0.04
0.04
0.04
0.04
0.04
0.04
0.04
0.04
0.04
0.04
0.04
0.04
0.04
0.04
0.04
0.04
0.04
0.04
0.04
0.04
0.04
0.04
0.04
0.04
0.04
0.04
0.04
0.04
0.04
0.04
0.04
0.04
0.04
0.04
0.04
0.04
0.04
0.04
0.04
0.04
0.04
0.04
0.04
0.04
0.04
0.04
0.04
0.04
0.04
0.04
0.04
0.04
0.04
0.04
0.0400001
0.0400005
0.0400008
0.0400009
0.0400013
0.0400014
0.040002
0.0400022
0.0400024
0.0400055
0.0400022
0.0400024
0.0400068
0.0400002
0.0399935
0.0399905
0.0399953
0.0400088
0.0400214
0.0400318
0.0400322
0.0400336
0.0400265
0.0400292
0.040047
0.0400497
0.0400521
0.0400498
0.0400374
0.0400268
0.0400166
0.0400094
0.0400049
0.0400125
0.0400302
0.0400352
0.0400226
0.0399991
0.0399838
0.0399633
0.0399624
0.0399762
0.0399641
0.0399315
0.0399115
0.0399111
0.039903
0.0398788
0.0398642
0.0398629
0.039878
0.0398972
0.0399032
0.0398993
0.0399149
0.0399378
0.0399371
0.0399365
0.0399337
0.0399367
0.0399553
0.039976
0.0399688
0.0399481
0.0399397
0.0399351
0.0399265
0.0399143
0.039914
0.0399175
0.0399141
0.0399098
0.0399038
0.0398998
0.0398931
0.0398846
0.0398898
0.0398944
0.0398902
0.0398895
0.0398865
0.0398808
0.0398793
0.0398857
0.0398804
0.0398611
0.0398372
0.0398218
0.0398036
0.039794
0.0397831
0.0397705
0.0397726
0.0397769
0.0397722
0.0397552
0.0397378
0.0397199
0.0397143
0.039712
0.0397221
0.0397548
0.0397824
0.039791
0.0397924
0.0397885
0.0397773
0.0397634
0.0397447
0.0397464
0.0397589
0.0397603
0.0397671
0.0397929
0.0398078
0.0397956
0.0397905
0.0397907
0.0397783
0.0397592
0.0397521
0.039754
0.0397606
0.0397656
0.0397708
0.0397693
0.0397532
0.0397416
0.0397377
0.0397431
0.0397487
0.0397621
0.0397688
0.0397583
0.0397514
0.0397485
0.0397326
0.0397122
0.0397145
0.0397215
0.0397244
0.0397407
0.039761
0.0397762
0.039791
0.0398084
0.0398264
0.0398358
0.0398374
0.0398439
0.0398458
0.0398344
0.0398332
0.0398551
0.0398865
0.0399135
0.039927
0.0399364
0.0399357
0.0399192
0.0399013
0.0398874
0.039875
0.03987
0.0398687
0.0398684
0.0398815
0.0399039
0.0399212
0.0399307
0.0399368
0.0399382
0.0399371
0.0399244
0.0399053
0.0398956
0.0398967
0.0399096
0.0399253
0.0399296
0.0399307
0.0399211
0.0399024
0.0399116
0.0399377
0.0399534
0.0399609
0.0399713
0.0399792
0.0399846
0.0399886
0.0399921
0.0399944
0.0399958
0.0399963
0.0399955
0.0399935
0.0399926
0.0399924
0.0399921
0.0399915
0.04
0.04
0.04
0.04
0.04
0.04
0.04
0.04
0.04
0.04
0.04
0.04
0.04
0.04
0.04
0.04
0.04
0.04
0.04
0.04
0.04
0.04
0.04
0.04
0.04
0.04
0.04
0.04
0.04
0.04
0.04
0.04
0.04
0.04
0.04
0.04
0.04
0.04
0.04
0.04
0.04
0.04
0.04
0.04
0.04
0.04
0.04
0.04
0.04
0.04
0.04
0.04
0.04
0.04
0.04
0.04
0.04
0.04
0.04
0.04
0.04
0.04
0.04
0.04
0.04
0.04
0.04
0.04
0.04
0.04
0.04
0.04
0.04
0.04
0.04
0.04
0.04
0.04
0.04
0.04
0.04
0.04
0.04
0.04
0.04
0.04
0.04
0.04
0.04
0.04
0.04
0.04
0.04
0.04
0.04
0.04
0.04
0.04
0.04
0.0400002
0.0400006
0.040001
0.0400012
0.0400015
0.0400017
0.0400021
0.0400024
0.0400025
0.040005
0.0400038
0.0400041
0.0400081
0.0400021
0.0399943
0.0399905
0.0399932
0.040006
0.0400184
0.0400267
0.0400264
0.0400246
0.0400166
0.0400184
0.0400377
0.0400453
0.0400497
0.0400475
0.0400337
0.0400218
0.0400137
0.0400112
0.0400087
0.0400141
0.0400292
0.0400348
0.0400232
0.0400012
0.0399864
0.0399677
0.0399657
0.0399809
0.0399739
0.0399463
0.0399301
0.0399342
0.03993
0.0399059
0.0398853
0.0398782
0.0398906
0.0399111
0.0399198
0.0399174
0.0399298
0.0399472
0.0399437
0.0399392
0.039935
0.0399366
0.0399564
0.0399798
0.0399758
0.0399569
0.0399471
0.0399422
0.0399351
0.0399266
0.0399292
0.0399338
0.0399314
0.0399266
0.0399187
0.0399126
0.0399044
0.0398965
0.0399034
0.0399117
0.0399099
0.039907
0.0399013
0.0398931
0.0398912
0.0398989
0.0398982
0.0398838
0.0398667
0.0398554
0.0398398
0.0398283
0.0398157
0.0398016
0.0398035
0.0398112
0.0398093
0.0397956
0.0397791
0.0397633
0.0397563
0.0397469
0.0397481
0.0397739
0.039799
0.0398079
0.0398118
0.03981
0.0398023
0.0397907
0.0397738
0.0397741
0.0397823
0.0397786
0.0397809
0.0398047
0.0398217
0.0398158
0.0398147
0.0398171
0.039806
0.0397877
0.0397782
0.0397788
0.0397855
0.0397899
0.0397945
0.0397932
0.0397786
0.0397662
0.0397637
0.0397695
0.0397745
0.0397846
0.0397891
0.0397794
0.0397738
0.0397741
0.0397616
0.0397439
0.0397466
0.0397541
0.0397565
0.0397656
0.0397774
0.039786
0.0397965
0.0398115
0.0398297
0.0398419
0.0398478
0.0398581
0.0398628
0.0398511
0.039843
0.0398544
0.0398794
0.0399053
0.0399207
0.0399325
0.0399347
0.039921
0.0399043
0.0398918
0.0398832
0.0398823
0.0398836
0.0398832
0.0398902
0.0399032
0.0399133
0.0399206
0.0399295
0.0399373
0.0399428
0.0399349
0.0399172
0.0399053
0.0399017
0.0399111
0.0399256
0.0399325
0.0399368
0.0399278
0.0399082
0.0399136
0.0399372
0.0399505
0.0399547
0.0399628
0.0399709
0.0399769
0.0399819
0.039986
0.039989
0.0399911
0.0399922
0.0399919
0.0399907
0.0399902
0.0399904
0.0399904
0.0399899
0.04
0.04
0.04
0.04
0.04
0.04
0.04
0.04
0.04
0.04
0.04
0.04
0.04
0.04
0.04
0.04
0.04
0.04
0.04
0.04
0.04
0.04
0.04
0.04
0.04
0.04
0.04
0.04
0.04
0.04
0.04
0.04
0.04
0.04
0.04
0.04
0.04
0.04
0.04
0.04
0.04
0.04
0.04
0.04
0.04
0.04
0.04
0.04
0.04
0.04
0.04
0.04
0.04
0.04
0.04
0.04
0.04
0.04
0.04
0.04
0.04
0.04
0.04
0.04
0.04
0.04
0.04
0.04
0.04
0.04
0.04
0.04
0.04
0.04
0.04
0.04
0.04
0.04
0.04
0.04
0.04
0.04
0.04
0.04
0.04
0.04
0.04
0.04
0.04
0.04
0.04
0.04
0.04
0.04
0.04
0.04
0.04
0.04
0.04
0.0400002
0.0400007
0.0400012
0.0400015
0.0400018
0.0400021
0.0400024
0.0400028
0.0400028
0.040005
0.0400047
0.0400056
0.0400097
0.0400038
0.0399953
0.0399902
0.0399912
0.0400035
0.0400165
0.0400241
0.0400226
0.0400179
0.0400084
0.0400093
0.0400296
0.0400409
0.0400474
0.0400461
0.0400311
0.0400176
0.0400099
0.0400099
0.04001
0.0400153
0.0400289
0.040035
0.0400245
0.0400032
0.039988
0.0399701
0.0399679
0.0399844
0.0399812
0.0399573
0.0399445
0.0399525
0.0399514
0.0399278
0.0399032
0.0398911
0.0399008
0.0399221
0.0399331
0.0399319
0.0399429
0.0399569
0.0399508
0.0399428
0.0399364
0.0399366
0.0399573
0.0399835
0.0399824
0.0399643
0.0399533
0.0399477
0.039941
0.0399347
0.0399401
0.0399464
0.0399455
0.0399412
0.039932
0.0399237
0.0399136
0.0399056
0.0399137
0.0399252
0.0399258
0.0399224
0.0399146
0.0399037
0.0399006
0.0399092
0.0399117
0.039901
0.0398891
0.0398814
0.0398688
0.0398566
0.0398423
0.0398268
0.0398282
0.0398385
0.0398392
0.0398282
0.0398123
0.0397979
0.0397901
0.0397764
0.0397714
0.0397924
0.0398154
0.039824
0.0398294
0.0398291
0.0398233
0.0398126
0.0397974
0.0397974
0.0398029
0.0397955
0.0397941
0.0398159
0.0398337
0.0398321
0.0398343
0.0398386
0.0398282
0.0398105
0.0397994
0.0397988
0.0398056
0.0398105
0.0398154
0.0398142
0.0398
0.0397864
0.0397843
0.0397908
0.0397963
0.0398047
0.0398076
0.0397978
0.0397926
0.0397945
0.0397838
0.0397684
0.0397719
0.0397807
0.0397835
0.0397888
0.0397945
0.0397973
0.0398036
0.0398158
0.0398335
0.0398472
0.039856
0.0398694
0.0398763
0.0398646
0.0398521
0.039856
0.0398757
0.0399003
0.039917
0.0399304
0.0399347
0.0399227
0.0399066
0.0398947
0.0398884
0.0398909
0.039895
0.0398957
0.0398995
0.0399059
0.03991
0.0399142
0.0399234
0.0399353
0.0399463
0.0399425
0.0399261
0.0399128
0.039906
0.0399125
0.039926
0.039935
0.039942
0.0399339
0.0399133
0.0399156
0.0399376
0.0399499
0.0399514
0.0399568
0.0399644
0.0399708
0.0399763
0.0399807
0.0399843
0.0399867
0.0399884
0.0399885
0.0399879
0.039988
0.0399885
0.0399887
0.0399884
0.04
0.04
0.04
0.04
0.04
0.04
0.04
0.04
0.04
0.04
0.04
0.04
0.04
0.04
0.04
0.04
0.04
0.04
0.04
0.04
0.04
0.04
0.04
0.04
0.04
0.04
0.04
0.04
0.04
0.04
0.04
0.04
0.04
0.04
0.04
0.04
0.04
0.04
0.04
0.04
0.04
0.04
0.04
0.04
0.04
0.04
0.04
0.04
0.04
0.04
0.04
0.04
0.04
0.04
0.04
0.04
0.04
0.04
0.04
0.04
0.04
0.04
0.04
0.04
0.04
0.04
0.04
0.04
0.04
0.04
0.04
0.04
0.04
0.04
0.04
0.04
0.04
0.04
0.04
0.04
0.04
0.04
0.04
0.04
0.04
0.04
0.04
0.04
0.04
0.04
0.04
0.04
0.04
0.04
0.04
0.04
0.04
0.04
0.04
0.0400002
0.0400007
0.0400013
0.0400016
0.040002
0.0400022
0.0400025
0.0400029
0.0400029
0.0400048
0.0400053
0.0400068
0.0400106
0.0400042
0.039995
0.0399896
0.0399904
0.040003
0.0400163
0.0400223
0.0400185
0.0400114
0.0400011
0.0400023
0.0400241
0.0400381
0.040046
0.0400444
0.0400276
0.0400124
0.0400053
0.0400077
0.0400107
0.0400171
0.0400299
0.0400362
0.0400256
0.0400033
0.0399872
0.0399705
0.03997
0.0399886
0.039988
0.0399668
0.0399562
0.039967
0.0399679
0.0399443
0.0399168
0.0399013
0.0399099
0.0399326
0.0399455
0.0399448
0.0399543
0.0399652
0.0399563
0.0399453
0.0399376
0.039938
0.0399602
0.039988
0.0399877
0.039969
0.0399568
0.0399512
0.0399453
0.0399414
0.0399497
0.0399577
0.0399577
0.0399531
0.0399422
0.0399321
0.0399209
0.0399137
0.0399234
0.0399372
0.0399391
0.0399347
0.0399247
0.039912
0.039909
0.0399189
0.0399238
0.0399154
0.0399069
0.0399018
0.0398911
0.0398784
0.039863
0.0398474
0.0398497
0.0398623
0.0398646
0.0398545
0.0398381
0.0398248
0.0398168
0.0398013
0.039793
0.039811
0.0398324
0.0398402
0.0398456
0.0398453
0.0398401
0.0398299
0.0398164
0.0398165
0.0398205
0.039811
0.0398074
0.0398275
0.0398456
0.0398467
0.0398508
0.0398557
0.0398451
0.0398279
0.0398167
0.0398162
0.039824
0.0398293
0.0398337
0.0398315
0.0398169
0.0398026
0.0398017
0.0398097
0.0398161
0.0398231
0.0398238
0.0398128
0.0398074
0.0398105
0.0398015
0.0397886
0.0397937
0.0398039
0.039807
0.0398093
0.0398097
0.0398079
0.0398112
0.0398214
0.039839
0.0398534
0.0398638
0.0398787
0.0398867
0.0398745
0.039859
0.0398581
0.0398746
0.0398989
0.0399164
0.0399303
0.0399349
0.0399231
0.0399073
0.0398962
0.0398923
0.0398985
0.0399052
0.0399068
0.0399081
0.0399091
0.0399083
0.0399101
0.0399198
0.0399347
0.0399493
0.0399477
0.0399316
0.0399173
0.0399092
0.0399146
0.0399281
0.0399384
0.0399465
0.0399385
0.0399172
0.0399177
0.0399389
0.0399503
0.0399493
0.0399525
0.0399597
0.0399663
0.0399719
0.0399766
0.0399804
0.0399831
0.0399852
0.0399857
0.0399856
0.039986
0.0399867
0.0399871
0.0399869
0.04
0.04
0.04
0.04
0.04
0.04
0.04
0.04
0.04
0.04
0.04
0.04
0.04
0.04
0.04
0.04
0.04
0.04
0.04
0.04
0.04
0.04
0.04
0.04
0.04
0.04
0.04
0.04
0.04
0.04
0.04
0.04
0.04
0.04
0.04
0.04
0.04
0.04
0.04
0.04
0.04
0.04
0.04
0.04
0.04
0.04
0.04
0.04
0.04
0.04
0.04
0.04
0.04
0.04
0.04
0.04
0.04
0.04
0.04
0.04
0.04
0.04
0.04
0.04
0.04
0.04
0.04
0.04
0.04
0.04
0.04
0.04
0.04
0.04
0.04
0.04
0.04
0.04
0.04
0.04
0.04
0.04
0.04
0.04
0.04
0.04
0.04
0.04
0.04
0.04
0.04
0.04
0.04
0.04
0.04
0.04
0.04
0.04
0.04
0.0400003
0.0400008
0.0400014
0.0400017
0.0400021
0.0400023
0.0400026
0.0400029
0.0400029
0.0400047
0.040006
0.0400082
0.0400115
0.0400041
0.0399937
0.0399882
0.0399901
0.040004
0.0400173
0.0400214
0.0400149
0.0400051
0.0399941
0.0399964
0.0400199
0.0400366
0.0400456
0.0400432
0.040024
0.0400066
0.0399999
0.0400049
0.0400107
0.0400184
0.0400317
0.0400385
0.0400269
0.0400026
0.0399848
0.0399694
0.0399714
0.0399924
0.039994
0.0399749
0.0399661
0.0399789
0.0399812
0.0399574
0.0399271
0.039909
0.0399175
0.0399421
0.0399568
0.0399565
0.0399646
0.0399728
0.0399611
0.0399469
0.0399379
0.0399399
0.0399646
0.0399933
0.0399923
0.0399725
0.0399591
0.039953
0.0399481
0.0399465
0.0399577
0.0399679
0.0399688
0.0399633
0.0399504
0.0399384
0.0399265
0.0399204
0.0399321
0.0399481
0.039951
0.0399449
0.0399322
0.0399181
0.0399161
0.0399276
0.0399343
0.0399275
0.0399216
0.0399186
0.0399091
0.0398955
0.039879
0.039864
0.0398681
0.0398835
0.0398867
0.0398763
0.039859
0.0398463
0.0398383
0.0398221
0.0398122
0.0398284
0.0398489
0.0398563
0.0398611
0.0398595
0.0398543
0.0398448
0.0398325
0.0398323
0.0398354
0.0398249
0.0398199
0.0398388
0.0398571
0.0398602
0.0398655
0.0398702
0.0398587
0.0398415
0.0398303
0.0398309
0.0398404
0.0398467
0.0398504
0.0398463
0.0398305
0.0398157
0.0398163
0.0398264
0.0398342
0.0398401
0.0398384
0.0398258
0.0398198