/*--------------------------------*- C++ -*----------------------------------*\
| =========                 |                                                 |
| \\      /  F ield         | foam-extend: Open Source CFD                    |
|  \\    /   O peration     | Version:     3.2                                |
|   \\  /    A nd           | Web:         http://www.foam-extend.org         |
|    \\/     M anipulation  | For copyright notice see file Copyright         |
\*---------------------------------------------------------------------------*/
FoamFile
{
    version     2.0;
    format      ascii;
    class       areaScalarField;
    location    "160";
    object      Ce1;
}
// * * * * * * * * * * * * * * * * * * * * * * * * * * * * * * * * * * * * * //

dimensions      [1 -3 0 0 0 0 0];

internalField   nonuniform List<scalar> 
300
(
5.38826
3.82633
2.20716
1.64038
1.44168
1.34094
1.26953
1.20811
1.15248
1.10276
1.05901
1.02039
0.985871
0.955408
0.928268
0.903823
0.88166
0.861362
0.842916
0.826209
0.810797
0.796405
0.78297
0.770423
0.75872
0.747695
0.737328
0.727513
0.718258
0.709521
0.701216
0.693332
0.685798
0.678633
0.671791
0.665274
0.659009
0.653018
0.647253
0.64172
0.636416
0.631299
0.626379
0.621623
0.617033
0.612607
0.608328
0.604203
0.600186
0.596321
0.592544
0.588911
0.585367
0.58195
0.57861
0.575384
0.572225
0.569179
0.566153
0.563261
0.560391
0.557663
0.554947
0.552373
0.549801
0.547381
0.544947
0.542673
0.540373
0.538244
0.536085
0.534114
0.532099
0.530296
0.528436
0.526821
0.525145
0.523742
0.52229
0.521153
0.519975
0.519164
0.518366
0.517958
0.517714
0.517792
0.518189
0.519132
0.520542
0.522597
0.525583
0.529334
0.535085
0.54151
0.552798
0.564564
0.591199
0.602088
0.758242
0.309501
0.096328
0.107173
0.121053
0.131587
0.141645
0.157285
0.161647
0.18275
0.192183
0.169392
0.25564
0.221961
0.208562
0.081494
0.0595276
0.0769195
0.0634457
0.282911
0.262257
0.218265
0.0769901
0.0587517
0.0794609
0.0561442
0.238218
0.335195
0.226502
0.27135
0.058851
0.061472
0.0576272
0.0641181
0.0784056
0.232615
0.246623
0.251103
0.202977
0.0691308
0.0584971
0.100425
0.0461037
0.0575781
0.0615635
0.190259
0.251286
0.192317
0.314892
0.0612526
0.0558867
0.0738335
0.0585489
0.244607
0.196268
0.342629
0.257972
0.228383
0.0923068
0.0633041
0.112825
0.0744914
0.291241
0.250972
0.284433
0.278295
0.0707499
0.0990798
0.0760794
0.107071
0.264062
0.304895
0.314943
0.328851
0.24032
0.0913025
0.0782297
0.0797623
0.232184
0.242804
0.321405
0.190985
0.0937781
0.0590197
0.074616
0.0556778
0.197965
0.187889
0.161039
0.265155
0.186142
0.0701862
0.0715573
0.0718447
0.187716
0.162051
0.242329
0.163681
0.269267
0.0565781
0.122555
0.0865622
0.105155
0.063803
0.252549
0.172187
0.17964
0.190793
0.172788
0.242402
0.212814
0.11135
0.0608548
0.0837666
0.058818
0.0665656
0.198746
0.184749
0.204575
0.157921
0.093112
0.0682581
0.088455
0.0824475
0.275466
0.193001
0.228217
0.181782
0.059689
0.0652718
0.0637732
0.253786
0.186483
0.263742
0.196824
0.206061
0.0640132
0.0579727
0.075236
0.0547046
0.276315
0.214399
0.357946
0.219607
0.104225
0.0616115
0.0818116
0.0599979
0.0685017
0.189647
0.167602
0.248921
0.205891
0.105471
0.0851852
0.0939393
0.0719496
0.25979
0.209185
0.24701
0.198486
0.0635325
0.0685564
0.0567407
0.091036
0.070259
0.305709
0.30203
0.347859
0.211341
0.0881504
0.0636507
0.0703524
0.204421
0.203427
0.247814
0.0702517
0.0875494
0.0697352
0.0851443
0.193373
0.296109
0.229515
0.114235
0.0861832
0.250919
0.246569
0.256458
0.0785983
0.0583309
0.0744004
0.0585053
0.0689713
0.0582904
0.0650596
0.059331
0.0641195
0.0655578
0.217911
0.701735
0.390539
0.336342
)
;

boundaryField
{
    inlet
    {
        type            calculated;
        value           uniform 0;
    }
    outlet
    {
        type            calculated;
        value           uniform 0;
    }
    sideWall
    {
        type            empty;
    }
}


// ************************************************************************* //
