/*--------------------------------*- C++ -*----------------------------------*\
| =========                 |                                                 |
| \\      /  F ield         | foam-extend: Open Source CFD                    |
|  \\    /   O peration     | Version:     3.2                                |
|   \\  /    A nd           | Web:         http://www.foam-extend.org         |
|    \\/     M anipulation  | For copyright notice see file Copyright         |
\*---------------------------------------------------------------------------*/
FoamFile
{
    version     2.0;
    format      ascii;
    class       areaScalarField;
    location    "160";
    object      Ce2;
}
// * * * * * * * * * * * * * * * * * * * * * * * * * * * * * * * * * * * * * //

dimensions      [1 -3 0 0 0 0 0];

internalField   nonuniform List<scalar> 
300
(
4.59558
3.263
1.88168
1.39819
1.2287
1.14278
1.08186
1.02948
0.982032
0.939625
0.902304
0.86937
0.839929
0.813948
0.790801
0.769954
0.751052
0.733741
0.71801
0.703762
0.690619
0.678345
0.666887
0.656188
0.646207
0.636805
0.627965
0.619594
0.611702
0.604252
0.59717
0.590446
0.584022
0.577912
0.572077
0.56652
0.561178
0.556069
0.551153
0.546435
0.541912
0.537549
0.533353
0.529297
0.525383
0.52161
0.517961
0.514444
0.511018
0.507723
0.504502
0.501405
0.498383
0.495469
0.492621
0.48987
0.487176
0.484579
0.481999
0.479533
0.477086
0.47476
0.472444
0.470249
0.468057
0.465993
0.463917
0.461978
0.460017
0.458203
0.456361
0.45468
0.452963
0.451426
0.449839
0.448462
0.447033
0.445838
0.444599
0.443629
0.442626
0.441934
0.441253
0.440906
0.440697
0.440764
0.441102
0.441907
0.443109
0.444861
0.447407
0.450605
0.455508
0.460987
0.470611
0.480644
0.503355
0.51264
0.6458
0.263639
0.0819242
0.0911029
0.10292
0.111871
0.120429
0.13373
0.137442
0.155388
0.163433
0.144017
0.217379
0.188786
0.177342
0.069044
0.0504051
0.0651206
0.0537207
0.24057
0.223067
0.185594
0.0651748
0.049704
0.0672646
0.0475187
0.202523
0.28513
0.192564
0.230811
0.0498021
0.0520206
0.0487933
0.0541858
0.0663628
0.197747
0.209765
0.213534
0.172628
0.0585492
0.0494688
0.0850744
0.0389616
0.048721
0.0520865
0.161794
0.213756
0.163482
0.267894
0.0517745
0.0473305
0.0625268
0.0495737
0.208078
0.166856
0.291449
0.219307
0.194269
0.0781749
0.0536341
0.0956326
0.0631318
0.247796
0.21338
0.241994
0.236649
0.0599772
0.0840182
0.0644728
0.090801
0.224544
0.259419
0.267888
0.279811
0.204407
0.0774087
0.0663167
0.0675947
0.197529
0.206439
0.273444
0.162356
0.0794881
0.0499698
0.0632202
0.0471516
0.168338
0.159804
0.136872
0.225555
0.158164
0.0594452
0.0605513
0.0608835
0.159588
0.1378
0.2061
0.139187
0.229067
0.0479059
0.103937
0.0733004
0.0891799
0.0540196
0.214842
0.146416
0.152752
0.162281
0.146872
0.206181
0.180892
0.0943933
0.0514987
0.0709759
0.0497811
0.0563855
0.169005
0.157084
0.17397
0.134242
0.0789273
0.0577717
0.0749965
0.0698312
0.234345
0.164104
0.194104
0.154591
0.0505428
0.0553208
0.0539586
0.215854
0.158469
0.224298
0.167297
0.175245
0.0542052
0.0490927
0.0637406
0.0463183
0.235042
0.182285
0.30451
0.1867
0.0883448
0.0521634
0.0693039
0.0507918
0.0580203
0.161262
0.142476
0.211715
0.17503
0.0893793
0.0721089
0.0796228
0.0609287
0.220952
0.177875
0.210055
0.168767
0.0537918
0.0580637
0.0480293
0.0771419
0.0594856
0.260027
0.256843
0.2959
0.17967
0.0747022
0.053899
0.0595872
0.173837
0.172931
0.210727
0.0594759
0.0741388
0.0590686
0.0721319
0.164401
0.251835
0.195166
0.0968572
0.0729912
0.21338
0.209665
0.218039
0.066543
0.0493784
0.063013
0.0495593
0.0584442
0.0494139
0.0551653
0.0503453
0.0544204
0.0557261
0.185564
0.597613
0.332273
0.286073
)
;

boundaryField
{
    inlet
    {
        type            calculated;
        value           uniform 0;
    }
    outlet
    {
        type            calculated;
        value           uniform 0;
    }
    sideWall
    {
        type            empty;
    }
}


// ************************************************************************* //
