/*--------------------------------*- C++ -*----------------------------------*\
| =========                 |                                                 |
| \\      /  F ield         | foam-extend: Open Source CFD                    |
|  \\    /   O peration     | Version:     3.2                                |
|   \\  /    A nd           | Web:         http://www.foam-extend.org         |
|    \\/     M anipulation  | For copyright notice see file Copyright         |
\*---------------------------------------------------------------------------*/
FoamFile
{
    version     2.0;
    format      ascii;
    class       areaScalarField;
    location    "160";
    object      Cpre;
}
// * * * * * * * * * * * * * * * * * * * * * * * * * * * * * * * * * * * * * //

dimensions      [1 -3 0 0 0 0 0];

internalField   nonuniform List<scalar> 
300
(
0.04
0.04
0.04
0.04
0.04
0.04
0.04
0.04
0.04
0.04
0.04
0.04
0.04
0.04
0.04
0.04
0.04
0.04
0.04
0.04
0.04
0.04
0.04
0.04
0.04
0.04
0.04
0.04
0.04
0.04
0.04
0.04
0.04
0.04
0.04
0.04
0.04
0.04
0.04
0.04
0.04
0.04
0.04
0.04
0.04
0.04
0.04
0.04
0.04
0.04
0.04
0.04
0.04
0.04
0.04
0.04
0.04
0.04
0.04
0.04
0.04
0.04
0.04
0.04
0.04
0.04
0.04
0.04
0.04
0.04
0.04
0.04
0.04
0.04
0.04
0.04
0.04
0.04
0.04
0.04
0.04
0.04
0.04
0.04
0.04
0.04
0.04
0.04
0.04
0.04
0.04
0.04
0.04
0.04
0.04
0.04
0.04
0.04
0.04
0.0400001
0.0400697
0.0400871
0.0401513
0.0402085
0.0401575
0.0403528
0.0401599
0.0404326
0.0404926
0.0385865
0.0396398
0.0399671
0.0390803
0.041346
0.0395298
0.0407879
0.0392327
0.0397924
0.0408383
0.0393041
0.0420285
0.0402416
0.0417084
0.0398457
0.0384309
0.0399859
0.0395706
0.0400582
0.0404399
0.0397357
0.0388766
0.0403339
0.0420026
0.0394087
0.0384542
0.039886
0.0389845
0.0407954
0.0401642
0.0431232
0.0395547
0.0377711
0.0381751
0.0384161
0.0390123
0.0378052
0.0386854
0.041397
0.0395647
0.0399472
0.0385838
0.0384352
0.0382235
0.0408963
0.0410354
0.0387093
0.0422781
0.0390145
0.0417191
0.0391833
0.0390401
0.0392969
0.0393233
0.0410749
0.0390203
0.0393671
0.0382572
0.0402549
0.0389889
0.038426
0.0399217
0.0393308
0.0396568
0.0391464
0.0388651
0.0395536
0.0383698
0.0389899
0.0410728
0.0393571
0.040439
0.0388679
0.0388125
0.0376001
0.037154
0.0375668
0.037557
0.0387701
0.0396579
0.0383198
0.0394661
0.0382926
0.0370065
0.0369828
0.0380266
0.0373206
0.0390391
0.0383689
0.0414773
0.0409154
0.041242
0.0386558
0.0379063
0.0381583
0.0378468
0.0385804
0.0375395
0.0397478
0.041154
0.0410487
0.0393769
0.0400513
0.0396918
0.037588
0.0369778
0.0383344
0.038645
0.0372167
0.0397538
0.039688
0.0389739
0.0386108
0.0382623
0.0389846
0.0384593
0.0388559
0.0390124
0.0384836
0.038858
0.0388242
0.0389237
0.0390562
0.0384892
0.0388157
0.0385816
0.0374065
0.0384432
0.0383861
0.0383685
0.0380408
0.0426102
0.0400961
0.0412196
0.0403013
0.0400827
0.0395102
0.0381933
0.0384083
0.0381579
0.0385154
0.0386131
0.0434155
0.0439107
0.0408414
0.0400029
0.039253
0.0391397
0.0394981
0.0392833
0.0398944
0.0401342
0.03874
0.039585
0.0387443
0.0389454
0.0419395
0.0411913
0.0411933
0.0400485
0.0391413
0.0381499
0.0382618
0.0386289
0.0397919
0.0407764
0.0419708
0.0402379
0.0391469
0.039093
0.0386239
0.03904
0.0403071
0.0421674
0.0397216
0.040067
0.0420479
0.0398715
0.0396357
0.0397588
0.0396505
0.0398079
0.0396916
0.0398391
0.0397627
0.0398761
0.0398972
0.0399761
0.0399892
0.0399948
0.0399964
)
;

boundaryField
{
    inlet
    {
        type            calculated;
        value           uniform 0;
    }
    outlet
    {
        type            calculated;
        value           uniform 0;
    }
    sideWall
    {
        type            empty;
    }
}


// ************************************************************************* //
