/*--------------------------------*- C++ -*----------------------------------*\
| =========                 |                                                 |
| \\      /  F ield         | foam-extend: Open Source CFD                    |
|  \\    /   O peration     | Version:     3.2                                |
|   \\  /    A nd           | Web:         http://www.foam-extend.org         |
|    \\/     M anipulation  | For copyright notice see file Copyright         |
\*---------------------------------------------------------------------------*/
FoamFile
{
    version     2.0;
    format      ascii;
    class       areaScalarField;
    location    "160";
    object      Cs;
}
// * * * * * * * * * * * * * * * * * * * * * * * * * * * * * * * * * * * * * //

dimensions      [0 0 0 0 0 0 0];

internalField   nonuniform List<scalar> 
300
(
0.321737
0.321737
0.321737
0.321737
0.321737
0.321737
0.321737
0.321737
0.321737
0.321737
0.321737
0.321737
0.321737
0.321737
0.321737
0.321737
0.321737
0.321737
0.321737
0.321737
0.321737
0.321737
0.321737
0.321737
0.321737
0.321737
0.321737
0.321737
0.321737
0.321737
0.321737
0.321737
0.321737
0.321737
0.321737
0.321737
0.321737
0.321737
0.321737
0.321737
0.321737
0.321737
0.321737
0.321737
0.321737
0.321737
0.321737
0.321737
0.321737
0.321737
0.321737
0.321737
0.321737
0.321737
0.321737
0.321737
0.321737
0.321737
0.321737
0.321737
0.321737
0.321737
0.321737
0.321737
0.321737
0.321737
0.321737
0.321737
0.321737
0.321737
0.321737
0.321737
0.321737
0.321737
0.321737
0.321737
0.321737
0.321737
0.321737
0.321737
0.321737
0.321737
0.321737
0.321737
0.321737
0.321737
0.321737
0.321737
0.321737
0.321737
0.321737
0.321737
0.321737
0.321737
0.321737
0.321737
0.321737
0.321737
0.321737
0.321737
0.321737
0.321737
0.321737
0.321737
0.321737
0.321737
0.321737
0.321737
0.321737
0.321737
0.321737
0.321737
0.321737
0.148634
0.146269
0.144271
0.14261
0.321737
0.321737
0.321737
0.137253
0.136058
0.135494
0.134514
0.321737
0.321737
0.321737
0.321737
0.133099
0.132967
0.132408
0.131126
0.131414
0.321737
0.321737
0.321737
0.321737
0.133381
0.133049
0.133691
0.132716
0.132687
0.13297
0.321737
0.321737
0.321737
0.321737
0.13577
0.137249
0.138317
0.139021
0.321737
0.321737
0.321737
0.321737
0.321737
0.143546
0.145424
0.147289
0.148759
0.321737
0.321737
0.321737
0.321737
0.152494
0.153701
0.154197
0.154933
0.321737
0.321737
0.321737
0.321737
0.321737
0.156525
0.15596
0.155554
0.321737
0.321737
0.321737
0.321737
0.150939
0.15
0.149616
0.148737
0.321737
0.321737
0.321737
0.321737
0.321737
0.146391
0.147073
0.148146
0.321737
0.321737
0.321737
0.321737
0.321737
0.154833
0.156624
0.15615
0.156654
0.156055
0.321737
0.321737
0.321737
0.321737
0.321737
0.321737
0.321737
0.154162
0.153204
0.152893
0.152341
0.152513
0.321737
0.321737
0.321737
0.321737
0.154454
0.154452
0.156439
0.157062
0.321737
0.321737
0.321737
0.321737
0.155431
0.154914
0.15347
0.321737
0.321737
0.321737
0.321737
0.321737
0.152222
0.152734
0.153512
0.154447
0.321737
0.321737
0.321737
0.321737
0.155326
0.15418
0.153451
0.152698
0.152552
0.321737
0.321737
0.321737
0.321737
0.15369
0.153494
0.154077
0.153778
0.321737
0.321737
0.321737
0.321737
0.151824
0.151887
0.152246
0.153318
0.153648
0.321737
0.321737
0.321737
0.321737
0.154459
0.153748
0.153502
0.321737
0.321737
0.321737
0.152933
0.153555
0.154634
0.155326
0.321737
0.321737
0.321737
0.160586
0.160432
0.321737
0.321737
0.321737
0.160332
0.161567
0.16438
0.16805
0.17288
0.179262
0.187736
0.19964
0.216527
0.247727
0.29609
0.321737
0.321737
0.321737
)
;

boundaryField
{
    inlet
    {
        type            calculated;
        value           uniform 0;
    }
    outlet
    {
        type            calculated;
        value           uniform 0;
    }
    sideWall
    {
        type            empty;
    }
}


// ************************************************************************* //
