/*--------------------------------*- C++ -*----------------------------------*\
| =========                 |                                                 |
| \\      /  F ield         | foam-extend: Open Source CFD                    |
|  \\    /   O peration     | Version:     3.2                                |
|   \\  /    A nd           | Web:         http://www.foam-extend.org         |
|    \\/     M anipulation  | For copyright notice see file Copyright         |
\*---------------------------------------------------------------------------*/
FoamFile
{
    version     2.0;
    format      ascii;
    class       areaScalarField;
    location    "160";
    object      dd;
}
// * * * * * * * * * * * * * * * * * * * * * * * * * * * * * * * * * * * * * //

dimensions      [0 1 0 0 0 0 0];

internalField   nonuniform List<scalar> 
300
(
0.1
0.1
0.1
0.1
0.1
0.1
0.1
0.1
0.1
0.1
0.1
0.1
0.1
0.1
0.1
0.1
0.1
0.1
0.1
0.1
0.1
0.1
0.1
0.1
0.1
0.1
0.1
0.1
0.1
0.1
0.1
0.1
0.1
0.1
0.1
0.1
0.1
0.1
0.1
0.1
0.1
0.1
0.1
0.1
0.1
0.1
0.1
0.1
0.1
0.1
0.1
0.1
0.1
0.1
0.1
0.1
0.1
0.1
0.1
0.1
0.1
0.1
0.1
0.1
0.1
0.1
0.1
0.1
0.1
0.1
0.1
0.1
0.1
0.1
0.1
0.1
0.1
0.1
0.1
0.1
0.1
0.1
0.1
0.1
0.1
0.1
0.1
0.1
0.1
0.1
0.1
0.1
0.1
0.1
0.1
0.1
0.1
0.1
0.1
0.0975584
0.0918024
0.0864374
0.0825026
0.0790484
0.0760602
0.0734747
0.071183
0.0692062
0.0674719
0.0656496
0.0644589
0.0634893
0.0621657
0.0611791
0.0600124
0.0589971
0.0581316
0.0574003
0.0568759
0.0559247
0.0551961
0.0545102
0.054182
0.0536053
0.0531113
0.0532608
0.0528504
0.0529305
0.0527577
0.0526776
0.0523373
0.0515449
0.0517246
0.0516282
0.0519237
0.0521173
0.0526394
0.0529282
0.0527276
0.0531146
0.0525253
0.0525074
0.0526794
0.0531568
0.053459
0.0533991
0.05422
0.0543426
0.0551937
0.0557971
0.0561898
0.0563249
0.0562252
0.0568357
0.056954
0.0577994
0.0586216
0.0595867
0.0605203
0.06124
0.0614305
0.0611104
0.0618166
0.0621961
0.0630057
0.0635579
0.0637823
0.0641126
0.0640345
0.0646906
0.0649923
0.0651909
0.0649418
0.0648169
0.0645685
0.0643892
0.0640416
0.0634184
0.0633987
0.0625423
0.0622811
0.0618363
0.061653
0.061229
0.0609852
0.0606502
0.0603398
0.060625
0.0598262
0.0600737
0.0604135
0.0609416
0.0610025
0.0615698
0.0623038
0.0630158
0.0637096
0.0640681
0.0648603
0.0646523
0.0648734
0.0646102
0.0646501
0.0642293
0.0641262
0.0639699
0.0635625
0.0636802
0.0633891
0.0637667
0.0633315
0.0631892
0.0629352
0.0630145
0.0629608
0.06301
0.0630771
0.0632904
0.0638981
0.063897
0.0647792
0.065051
0.0652843
0.065044
0.0649622
0.0645797
0.0643345
0.0641044
0.063453
0.0633684
0.0625594
0.0625091
0.0623852
0.0627436
0.06288
0.063116
0.0634718
0.0638948
0.06445
0.0645164
0.0649278
0.0645064
0.0642878
0.0637745
0.0634441
0.0630998
0.0630323
0.0628141
0.0628363
0.0631985
0.0631568
0.0635528
0.0634637
0.0637283
0.0635929
0.0635365
0.0633036
0.0630552
0.0627498
0.0626951
0.0627246
0.0628909
0.0633836
0.0635339
0.0641114
0.0643195
0.0643868
0.0639846
0.0639002
0.063579
0.0634675
0.0632848
0.0630006
0.0631331
0.0632075
0.0634917
0.0639789
0.0642879
0.0646309
0.0653996
0.0659909
0.0665496
0.0664855
0.0666549
0.0666798
0.0665065
0.0664435
0.0669548
0.068091
0.0695157
0.0712987
0.0735073
0.0762076
0.0796139
0.0838034
0.0900415
0.0971128
0.1
0.1
0.1
)
;

boundaryField
{
    inlet
    {
        type            calculated;
        value           uniform 0;
    }
    outlet
    {
        type            calculated;
        value           uniform 0;
    }
    sideWall
    {
        type            empty;
    }
}


// ************************************************************************* //
