/*--------------------------------*- C++ -*----------------------------------*\
| =========                 |                                                 |
| \\      /  F ield         | foam-extend: Open Source CFD                    |
|  \\    /   O peration     | Version:     3.2                                |
|   \\  /    A nd           | Web:         http://www.foam-extend.org         |
|    \\/     M anipulation  | For copyright notice see file Copyright         |
\*---------------------------------------------------------------------------*/
FoamFile
{
    version     2.0;
    format      ascii;
    class       areaScalarField;
    location    "160";
    object      deltaHs1;
}
// * * * * * * * * * * * * * * * * * * * * * * * * * * * * * * * * * * * * * //

dimensions      [0 1 -1 0 0 0 0];

internalField   nonuniform List<scalar> 
300
(
-0.0007439
-0.000525237
-0.00029856
-0.000219213
-0.000191395
-0.000177293
-0.000167295
-0.000158698
-0.000150909
-0.000143949
-0.000137823
-0.000132417
-0.000127584
-0.00012332
-0.00011952
-0.000116098
-0.000112995
-0.000110154
-0.000107571
-0.000105232
-0.000103075
-0.00010106
-9.9179e-05
-9.74226e-05
-9.57842e-05
-9.42407e-05
-9.27894e-05
-9.14152e-05
-9.01196e-05
-8.88965e-05
-8.77339e-05
-8.66301e-05
-8.55754e-05
-8.45723e-05
-8.36144e-05
-8.27021e-05
-8.1825e-05
-8.09863e-05
-8.01793e-05
-7.94046e-05
-7.86621e-05
-7.79458e-05
-7.7257e-05
-7.65911e-05
-7.59485e-05
-7.5329e-05
-7.47299e-05
-7.41524e-05
-7.359e-05
-7.30489e-05
-7.25202e-05
-7.20116e-05
-7.15155e-05
-7.10371e-05
-7.05695e-05
-7.01178e-05
-6.96756e-05
-6.92491e-05
-6.88255e-05
-6.84207e-05
-6.80189e-05
-6.7637e-05
-6.72568e-05
-6.68964e-05
-6.65364e-05
-6.61976e-05
-6.58568e-05
-6.55384e-05
-6.52164e-05
-6.49185e-05
-6.46162e-05
-6.43402e-05
-6.40582e-05
-6.38058e-05
-6.35453e-05
-6.33192e-05
-6.30846e-05
-6.28883e-05
-6.26849e-05
-6.25257e-05
-6.23609e-05
-6.22473e-05
-6.21355e-05
-6.20785e-05
-6.20442e-05
-6.20552e-05
-6.21108e-05
-6.22429e-05
-6.24402e-05
-6.27279e-05
-6.31459e-05
-6.36711e-05
-6.44761e-05
-6.53756e-05
-6.69559e-05
-6.86031e-05
-7.23319e-05
-7.38563e-05
-9.57173e-05
-3.28953e-05
-1.81338e-06
-2.62906e-06
-3.35269e-06
-3.85492e-06
-3.99753e-06
-4.77859e-06
-4.36301e-06
-5.28897e-06
-5.431e-06
-2.77655e-06
-8.67046e-06
-5.83974e-06
-5.20311e-06
4.89971e-06
5.91497e-06
5.87205e-06
6.13959e-06
-8.02202e-06
-7.19809e-06
-4.05948e-06
5.75341e-06
6.35001e-06
6.24292e-06
6.91148e-06
-5.6009e-06
-9.80319e-06
-4.4597e-06
-6.34768e-06
6.28275e-06
6.34159e-06
6.58236e-06
6.43255e-06
6.67277e-06
-5.30307e-06
-5.17547e-06
-6.55472e-06
-2.75044e-06
5.95741e-06
6.09131e-06
6.00051e-06
7.17429e-06
6.45667e-06
5.98484e-06
-2.89827e-06
-5.55035e-06
-4.58769e-06
-8.19389e-06
6.10177e-06
6.81052e-06
5.67634e-06
6.40755e-06
-5.04117e-06
-3.881e-06
-7.54395e-06
-8.55297e-06
-3.35352e-06
4.89045e-06
6.29731e-06
5.01046e-06
5.91844e-06
-4.74134e-06
-5.93992e-06
-4.42941e-06
-5.7284e-06
6.22735e-06
4.87915e-06
5.84661e-06
5.33016e-06
-4.74295e-06
-5.0058e-06
-7.14824e-06
-6.11417e-06
-3.34422e-06
5.14523e-06
5.84403e-06
5.82832e-06
-3.11595e-06
-4.38989e-06
-7.9013e-06
-1.65521e-06
5.04045e-06
6.20492e-06
6.11061e-06
6.05831e-06
-2.69987e-06
-2.38702e-06
-2.13804e-06
-5.14146e-06
-4.33932e-06
6.02354e-06
4.84329e-06
5.972e-06
-2.29979e-06
-7.57063e-07
-5.04333e-06
-1.67812e-06
-5.48669e-06
5.83112e-06
3.95773e-06
5.31611e-06
5.50303e-06
5.82953e-06
-3.47318e-06
-2.15154e-06
-1.14303e-06
-3.0114e-06
-2.96995e-06
-4.71374e-06
-6.29011e-06
4.20376e-06
5.45682e-06
6.04399e-06
6.17861e-06
5.6832e-06
-3.51348e-06
-2.97986e-06
-3.4309e-06
-2.06929e-06
4.56296e-06
5.00665e-06
5.32472e-06
4.74424e-06
-4.6084e-06
-3.76412e-06
-2.94275e-06
-2.95487e-06
5.82177e-06
5.81234e-06
5.41056e-06
-5.24175e-06
-4.49736e-06
-5.40436e-06
-4.76327e-06
-2.96828e-06
5.4089e-06
5.78787e-06
5.21064e-06
6.18012e-06
-7.05542e-06
-5.35804e-06
-1.06864e-05
-5.44285e-06
4.93822e-06
5.8252e-06
5.69588e-06
6.16061e-06
5.61263e-06
-3.04784e-06
-2.21471e-06
-5.96335e-06
-6.01506e-06
4.73167e-06
5.22962e-06
5.68265e-06
5.49166e-06
-4.57197e-06
-4.15693e-06
-5.83871e-06
-3.8108e-06
5.69932e-06
5.72948e-06
5.96216e-06
5.06529e-06
5.13346e-06
-7.19847e-06
-1.01156e-05
-8.36751e-06
-4.4352e-06
5.20113e-06
5.96743e-06
5.55818e-06
-3.70891e-06
-4.95788e-06
-5.78806e-06
5.02986e-06
5.29558e-06
5.47761e-06
5.36777e-06
-3.60005e-06
-5.89779e-06
-5.34461e-06
4.04131e-06
5.60713e-06
-3.72261e-06
-6.108e-06
-6.20975e-06
5.39604e-06
5.29305e-06
5.0123e-06
5.02687e-06
4.63931e-06
4.62407e-06
4.062e-06
3.89755e-06
3.05011e-06
2.27606e-06
-2.00794e-05
-8.78094e-05
-4.42417e-05
-3.66539e-05
)
;

boundaryField
{
    inlet
    {
        type            zeroGradient;
    }
    outlet
    {
        type            zeroGradient;
    }
    sideWall
    {
        type            empty;
    }
}


// ************************************************************************* //
