/*--------------------------------*- C++ -*----------------------------------*\
| =========                 |                                                 |
| \\      /  F ield         | foam-extend: Open Source CFD                    |
|  \\    /   O peration     | Version:     3.2                                |
|   \\  /    A nd           | Web:         http://www.foam-extend.org         |
|    \\/     M anipulation  | For copyright notice see file Copyright         |
\*---------------------------------------------------------------------------*/
FoamFile
{
    version     2.0;
    format      ascii;
    class       areaScalarField;
    location    "160";
    object      deltaHb;
}
// * * * * * * * * * * * * * * * * * * * * * * * * * * * * * * * * * * * * * //

dimensions      [0 1 -1 0 0 0 0];

internalField   nonuniform List<scalar> 
300
(
0
0
0
0
0
0
0
0
0
0
0
0
0
0
0
0
0
0
0
0
0
0
0
0
0
0
0
0
0
0
0
0
0
0
0
0
0
0
0
0
0
0
0
0
0
0
0
0
0
0
0
0
0
0
0
0
0
0
0
0
0
0
0
0
0
0
0
0
0
0
0
0
0
0
0
0
0
0
0
0
0
0
0
0
0
0
0
0
0
0
0
0
0
0
0
0
0
0
0
0
0
0
0
0
0
0
0
0
0
0
-1.14799e-05
2.07994e-06
3.12514e-05
2.92875e-05
5.23262e-06
-3.26865e-07
-3.29939e-05
-3.9713e-05
2.40019e-06
4.06198e-05
3.5112e-05
-3.98e-07
-2.61385e-06
-2.83685e-05
-4.64665e-05
1.84031e-06
-1.02901e-06
2.97616e-05
4.6797e-05
-3.88902e-06
7.35684e-06
1.53725e-06
-3.49769e-05
-4.36813e-05
-8.45521e-06
1.49833e-06
2.99636e-05
4.85879e-05
-3.38551e-06
3.3692e-06
9.15617e-06
-5.44819e-06
-4.01773e-05
-4.56589e-05
1.2406e-05
-9.47211e-06
3.63897e-05
4.59779e-05
-1.11474e-05
2.74372e-06
-4.05518e-05
-2.70501e-05
-2.10335e-06
2.48136e-06
-3.65689e-06
2.47706e-05
4.15238e-05
-8.62982e-06
-2.65257e-06
-4.19992e-05
-2.08089e-05
-4.62826e-06
-3.67558e-06
4.45026e-05
1.99765e-05
5.84919e-06
-1.05941e-06
-2.81318e-05
-4.53169e-05
-8.91088e-06
-1.2642e-06
3.76952e-06
4.93272e-05
3.19489e-05
5.45918e-06
-3.78265e-05
-2.36952e-05
-5.4016e-06
7.18641e-06
4.08946e-05
2.61397e-05
3.9631e-06
-1.64531e-06
-2.92061e-05
-3.50754e-05
1.27128e-05
-8.11954e-06
8.68744e-06
3.74308e-05
2.06387e-05
-5.61103e-06
-2.99615e-05
-2.949e-05
-1.19893e-05
-8.57987e-08
-8.77457e-06
3.99654e-05
2.88081e-05
6.45963e-07
-8.87985e-07
1.65976e-06
-3.37219e-05
-3.20671e-05
1.43238e-05
-8.29378e-06
1.09525e-05
-2.89489e-06
1.64427e-06
2.65693e-05
2.95209e-05
4.57553e-06
-6.63393e-07
2.15646e-06
-3.44102e-05
-2.92906e-05
-1.47944e-06
5.63599e-06
2.1867e-05
3.1574e-05
-4.08436e-06
-4.21307e-06
-3.785e-05
-2.86253e-05
8.25895e-06
-3.51926e-06
4.1529e-05
2.46011e-05
5.23736e-06
-3.00843e-05
-2.18718e-05
-2.46083e-08
-4.70061e-06
-2.16922e-06
2.21019e-05
3.83392e-05
-4.00772e-06
1.32638e-06
-3.80712e-05
-3.08915e-05
-5.75848e-06
4.87463e-06
3.78658e-05
2.94898e-05
5.69763e-06
5.71907e-07
8.31174e-07
-3.14618e-05
-2.48018e-05
-8.56611e-06
7.57356e-07
2.94124e-05
3.06424e-05
-2.77298e-06
-2.30124e-06
-3.03279e-05
-3.12568e-05
4.44448e-06
1.78239e-06
3.56534e-05
2.64314e-05
1.71425e-06
-4.56532e-06
-1.12051e-06
-3.5317e-05
-3.71549e-05
-2.17413e-06
1.0395e-05
3.66233e-05
2.71509e-05
4.80401e-06
-3.24392e-05
-2.39796e-05
-2.02372e-07
2.79482e-05
2.98621e-05
-4.12736e-06
-2.75982e-06
-2.7826e-05
-3.45944e-05
-5.21757e-06
2.6788e-05
3.6669e-05
-2.44307e-05
-3.2527e-05
7.52137e-06
3.35861e-05
0
0
0
0
0
0
0
0
0
0
0
0
0
0
)
;

boundaryField
{
    inlet
    {
        type            zeroGradient;
    }
    outlet
    {
        type            zeroGradient;
    }
    sideWall
    {
        type            empty;
    }
}


// ************************************************************************* //
