/*--------------------------------*- C++ -*----------------------------------*\
| =========                 |                                                 |
| \\      /  F ield         | foam-extend: Open Source CFD                    |
|  \\    /   O peration     | Version:     3.2                                |
|   \\  /    A nd           | Web:         http://www.foam-extend.org         |
|    \\/     M anipulation  | For copyright notice see file Copyright         |
\*---------------------------------------------------------------------------*/
FoamFile
{
    version     2.0;
    format      ascii;
    class       volScalarField;
    location    "160";
    object      deltaHF;
}
// * * * * * * * * * * * * * * * * * * * * * * * * * * * * * * * * * * * * * //

dimensions      [0 1 0 0 0 0 0];

internalField   uniform 0;

boundaryField
{
    inlet
    {
        type            calculated;
        value           uniform 0;
    }
    outlet
    {
        type            calculated;
        value           uniform 0;
    }
    sideWall
    {
        type            empty;
    }
    bed
    {
        type            calculated;
        value           nonuniform List<scalar> 
300
(
0
0
0
0
0
0
0
0
0
0
0
0
0
0
0
0
0
0
0
0
0
0
0
0
0
0
0
0
0
0
0
0
0
0
0
0
0
0
0
0
0
0
0
0
0
0
0
0
0
0
0
0
0
0
0
0
0
0
0
0
0
0
0
0
0
0
0
0
0
0
0
0
0
0
0
0
0
0
0
0
0
0
0
0
0
0
0
0
0
0
0
0
0
0
0
0
0
0
0
0
-1.81338e-06
-2.62906e-06
-3.35269e-06
-3.85492e-06
-3.99753e-06
-4.77859e-06
-4.36301e-06
-5.28897e-06
-5.431e-06
-2.77655e-06
-2.01504e-05
-3.7598e-06
2.60483e-05
3.41872e-05
1.11476e-05
5.54519e-06
-2.68543e-05
-4.77351e-05
-4.7979e-06
3.65604e-05
4.08654e-05
5.95201e-06
3.62907e-06
-2.1457e-05
-5.20674e-05
-7.96287e-06
-5.48871e-06
2.34139e-05
5.30797e-05
2.45256e-06
1.39392e-05
7.9698e-06
-2.83041e-05
-4.89844e-05
-1.36307e-05
-5.05639e-06
2.72132e-05
5.45453e-05
2.7058e-06
9.36971e-06
1.63305e-05
1.00849e-06
-3.41924e-05
-4.85571e-05
6.85561e-06
-1.40598e-05
2.81958e-05
5.20797e-05
-4.33688e-06
8.42006e-06
-3.41443e-05
-3.20913e-05
-5.98435e-06
-5.06259e-06
-1.22099e-05
2.14171e-05
4.64143e-05
-2.33251e-06
2.35789e-06
-3.60808e-05
-2.55503e-05
-1.05682e-05
-8.10499e-06
3.87742e-05
2.62038e-05
1.07283e-05
4.7872e-06
-2.28017e-05
-5.00598e-05
-1.39167e-05
-8.41244e-06
-2.34465e-06
4.59829e-05
3.70942e-05
1.13032e-05
-3.19982e-05
-2.68112e-05
-9.79149e-06
-7.14893e-07
3.92394e-05
3.11802e-05
1.0168e-05
4.4653e-06
-2.31477e-05
-3.77753e-05
1.03258e-05
-1.02576e-05
3.54598e-06
3.30914e-05
2.66622e-05
-7.67734e-07
-2.39895e-05
-3.17898e-05
-1.27463e-05
-5.12913e-06
-1.04527e-05
3.44787e-05
3.46392e-05
4.60369e-06
4.42812e-06
7.16279e-06
-2.78924e-05
-3.55403e-05
1.21722e-05
-9.43681e-06
7.94106e-06
-5.86484e-06
-3.06947e-06
2.02792e-05
3.37246e-05
1.00323e-05
5.3806e-06
8.33507e-06
-2.8727e-05
-3.28041e-05
-4.4593e-06
2.20509e-06
1.97977e-05
3.6137e-05
9.22289e-07
1.11166e-06
-3.31058e-05
-3.32337e-05
4.49483e-06
-6.46201e-06
3.85741e-05
3.04229e-05
1.10497e-05
-2.46737e-05
-2.71135e-05
-4.52197e-06
-1.0105e-05
-6.93249e-06
1.91336e-05
4.37481e-05
1.78015e-06
6.53702e-06
-3.18911e-05
-3.79469e-05
-1.11165e-05
-5.81176e-06
3.2423e-05
3.4428e-05
1.15228e-05
6.26779e-06
6.99179e-06
-2.58492e-05
-2.78497e-05
-1.07808e-05
-5.206e-06
2.33974e-05
3.53741e-05
2.45664e-06
3.38141e-06
-2.48363e-05
-3.58287e-05
2.87553e-07
-4.05632e-06
3.18426e-05
3.21308e-05
7.44373e-06
1.39684e-06
3.94478e-06
-3.01835e-05
-4.43534e-05
-1.22898e-05
2.02745e-06
3.21881e-05
3.23521e-05
1.07714e-05
-2.6881e-05
-2.76885e-05
-5.16025e-06
2.21601e-05
3.48919e-05
1.16823e-06
2.71779e-06
-2.24583e-05
-3.81944e-05
-1.11154e-05
2.14434e-05
4.07104e-05
-1.88236e-05
-3.62496e-05
1.41338e-06
2.73763e-05
5.39604e-06
5.29305e-06
5.0123e-06
5.02687e-06
4.63931e-06
4.62407e-06
4.062e-06
3.89755e-06
3.05011e-06
2.27606e-06
0
0
0
0
)
;
    }
    topWall
    {
        type            calculated;
        value           uniform 0;
    }
}


// ************************************************************************* //
