/*--------------------------------*- C++ -*----------------------------------*\
| =========                 |                                                 |
| \\      /  F ield         | foam-extend: Open Source CFD                    |
|  \\    /   O peration     | Version:     3.2                                |
|   \\  /    A nd           | Web:         http://www.foam-extend.org         |
|    \\/     M anipulation  | For copyright notice see file Copyright         |
\*---------------------------------------------------------------------------*/
FoamFile
{
    version     2.0;
    format      ascii;
    class       volScalarField;
    location    "160";
    object      DiSSt;
}
// * * * * * * * * * * * * * * * * * * * * * * * * * * * * * * * * * * * * * //

dimensions      [0 2 -1 0 0 0 0];

internalField   nonuniform List<scalar> 
96000
(
0.000134293
0.000107227
8.92923e-05
7.99945e-05
7.69941e-05
7.58668e-05
7.5095e-05
7.43396e-05
7.35384e-05
7.27134e-05
7.19296e-05
7.11954e-05
7.05099e-05
6.98752e-05
6.929e-05
6.87496e-05
6.82455e-05
6.77746e-05
6.73458e-05
6.70833e-05
6.6837e-05
6.65953e-05
6.63569e-05
6.61256e-05
6.5904e-05
6.56899e-05
6.54826e-05
6.52797e-05
6.50846e-05
6.48958e-05
6.47145e-05
6.45372e-05
6.43657e-05
6.41982e-05
6.40368e-05
6.38806e-05
6.37281e-05
6.35806e-05
6.34357e-05
6.32954e-05
6.31592e-05
6.30263e-05
6.28976e-05
6.27707e-05
6.26482e-05
6.25273e-05
6.24115e-05
6.22964e-05
6.21858e-05
6.20761e-05
6.19701e-05
6.18652e-05
6.17646e-05
6.16642e-05
6.15684e-05
6.14717e-05
6.13802e-05
6.12873e-05
6.11935e-05
6.1101e-05
6.10106e-05
6.09223e-05
6.08362e-05
6.07518e-05
6.06699e-05
6.05897e-05
6.05118e-05
6.04357e-05
6.03617e-05
6.02899e-05
6.02207e-05
6.01536e-05
6.00893e-05
6.00276e-05
5.99686e-05
5.99135e-05
5.98611e-05
5.98136e-05
5.97698e-05
5.97324e-05
5.96988e-05
5.96749e-05
5.96554e-05
5.96497e-05
5.96491e-05
5.96591e-05
5.9685e-05
5.9738e-05
5.97979e-05
5.99051e-05
5.9994e-05
6.0194e-05
6.03575e-05
6.06702e-05
6.10478e-05
6.15895e-05
6.27138e-05
6.22728e-05
7.03041e-05
6.07921e-05
4.7418e-05
4.68229e-05
4.79844e-05
4.79699e-05
4.89232e-05
4.95339e-05
4.97633e-05
5.03718e-05
5.13288e-05
4.83814e-05
5.17587e-05
5.27889e-05
4.8657e-05
5.3497e-05
4.90098e-05
5.0566e-05
5.07586e-05
5.0858e-05
5.35781e-05
4.81154e-05
5.31461e-05
4.84838e-05
5.32978e-05
4.95185e-05
4.85604e-05
5.46746e-05
4.80462e-05
5.53274e-05
4.9339e-05
5.25817e-05
5.11201e-05
4.79075e-05
5.41267e-05
4.8019e-05
5.48444e-05
4.97631e-05
5.44782e-05
5.32989e-05
4.87595e-05
5.64715e-05
4.74206e-05
5.27698e-05
4.95146e-05
5.27596e-05
5.2548e-05
4.79255e-05
5.65683e-05
4.74608e-05
5.64032e-05
5.05853e-05
5.27406e-05
5.11648e-05
4.88186e-05
5.44665e-05
4.81654e-05
5.61101e-05
5.10367e-05
5.45411e-05
5.32453e-05
5.37084e-05
5.36662e-05
4.88399e-05
5.75157e-05
4.95718e-05
5.6775e-05
5.29593e-05
5.13975e-05
5.38872e-05
4.98841e-05
5.78084e-05
5.09711e-05
5.74712e-05
5.04898e-05
5.40938e-05
5.09164e-05
5.22989e-05
5.22148e-05
4.90967e-05
5.59491e-05
4.7552e-05
5.58921e-05
4.925e-05
5.42783e-05
4.90604e-05
5.25323e-05
4.95724e-05
4.76763e-05
5.42342e-05
4.55596e-05
5.42683e-05
4.8281e-05
5.60999e-05
4.88815e-05
5.41159e-05
5.09703e-05
5.30043e-05
5.35132e-05
4.87855e-05
5.61242e-05
4.8475e-05
5.70565e-05
4.92223e-05
5.64274e-05
4.91688e-05
5.31307e-05
5.01783e-05
4.76557e-05
5.27842e-05
4.73964e-05
5.54094e-05
4.70477e-05
5.34876e-05
4.80255e-05
5.37457e-05
4.89312e-05
5.18242e-05
4.94485e-05
4.88487e-05
5.4376e-05
4.79403e-05
5.62649e-05
4.93126e-05
5.6486e-05
4.91297e-05
5.46248e-05
4.83213e-05
5.02991e-05
5.0708e-05
4.7603e-05
5.29096e-05
4.6001e-05
5.36348e-05
4.72766e-05
5.44222e-05
4.78963e-05
5.2161e-05
4.97496e-05
4.96819e-05
5.32582e-05
4.89933e-05
5.56693e-05
4.72278e-05
5.49953e-05
4.80452e-05
5.15754e-05
4.82253e-05
5.29936e-05
4.83316e-05
4.97972e-05
5.29083e-05
4.78673e-05
5.37824e-05
4.74147e-05
5.51599e-05
4.91441e-05
5.3137e-05
4.86079e-05
5.20622e-05
4.80736e-05
5.12893e-05
4.90065e-05
4.90916e-05
5.25426e-05
4.89076e-05
5.44599e-05
4.98227e-05
5.50014e-05
4.77015e-05
5.3796e-05
4.86111e-05
5.18995e-05
4.90326e-05
4.83189e-05
5.04779e-05
4.93863e-05
4.98018e-05
5.19371e-05
4.98181e-05
4.90784e-05
5.31341e-05
5.0829e-05
5.51233e-05
4.81985e-05
5.15485e-05
4.92369e-05
4.80024e-05
4.70828e-05
4.87944e-05
5.03106e-05
5.08142e-05
5.10202e-05
5.29759e-05
5.18814e-05
5.52305e-05
5.43683e-05
6.28007e-05
7.55669e-05
6.289e-05
5.43608e-05
5.13724e-05
9.29619e-05
0.00013719
0.000149935
0.000162679
0.000172816
0.000179851
0.000184419
0.000186981
0.000188203
0.000188553
0.000188556
0.000188287
0.000187855
0.000187314
0.00018672
0.000186108
0.000185462
0.00018482
0.000184173
0.000183567
0.000182961
0.00018236
0.000181768
0.000181194
0.000180636
0.000180092
0.00017956
0.000179042
0.000178543
0.000178056
0.000177585
0.000177122
0.000176675
0.000176239
0.000175817
0.000175405
0.000175004
0.000174613
0.000174231
0.00017386
0.000173499
0.000173146
0.000172802
0.000172465
0.000172138
0.000171816
0.000171506
0.000171198
0.000170901
0.000170606
0.000170322
0.000170041
0.00016977
0.0001695
0.00016924
0.00016898
0.000168731
0.000168479
0.000168219
0.000167969
0.000167721
0.000167482
0.000167244
0.000167015
0.000166787
0.000166569
0.00016635
0.000166141
0.000165931
0.000165732
0.000165532
0.000165343
0.000165153
0.000164975
0.000164795
0.00016463
0.000164461
0.00016431
0.000164156
0.000164021
0.000163883
0.000163768
0.000163652
0.000163563
0.000163466
0.0001634
0.000163347
0.000163311
0.0001633
0.000163318
0.0001633
0.000163428
0.000163421
0.000163678
0.000163799
0.000164308
0.00016477
0.000165115
0.000166686
0.000145344
0.000137705
0.000155429
0.000155125
0.000153781
0.000151569
0.000149748
0.000148241
0.000147611
0.0001443
0.000146061
0.000146827
0.000142032
0.000144778
0.000141996
0.000141295
0.000143027
0.000141257
0.000143695
0.000140282
0.000141104
0.000140512
0.000141343
0.000141526
0.000137216
0.000140907
0.000138123
0.000137389
0.000140622
0.000138615
0.000141728
0.000134224
0.000136517
0.00013822
0.000135699
0.000140565
0.000139726
0.000142994
0.000135591
0.000137577
0.000134522
0.000129023
0.000140143
0.000138091
0.000142053
0.000134495
0.000138266
0.00013601
0.000131939
0.000141516
0.000136315
0.00014127
0.000135098
0.000138097
0.000138355
0.000137612
0.000142168
0.000141454
0.000144274
0.000141368
0.000143246
0.000138088
0.000137568
0.000141597
0.000139369
0.000145867
0.000139948
0.000141857
0.000140353
0.000139244
0.000143921
0.000141076
0.000143631
0.000140503
0.000144605
0.00014058
0.00014477
0.000138031
0.0001416
0.000138575
0.000134909
0.000139858
0.000136894
0.000140585
0.000136395
0.000140912
0.000132497
0.00013898
0.000132818
0.000131735
0.000138524
0.000136434
0.000137385
0.000132699
0.000140746
0.000135287
0.000141729
0.000134106
0.000138192
0.000136928
0.000133495
0.000138037
0.000133069
0.000139252
0.000134809
0.000141171
0.000131923
0.00013816
0.00013465
0.000137834
0.000136298
0.000130836
0.000137471
0.000135526
0.000139655
0.000135165
0.000139571
0.000133759
0.00013995
0.000134511
0.000136572
0.000138973
0.000133662
0.000138646
0.00013545
0.000139924
0.00013408
0.000140981
0.000132052
0.000136231
0.000134007
0.000132836
0.000137179
0.000136207
0.000138583
0.000135191
0.000139778
0.00013413
0.000138772
0.0001352
0.000138285
0.000136354
0.0001325
0.000137366
0.000134179
0.00013842
0.000137187
0.0001392
0.000133938
0.000140717
0.000134424
0.000138353
0.000136963
0.00013507
0.000137891
0.000134913
0.000139195
0.000137492
0.000139158
0.000136059
0.000139671
0.000134868
0.000139127
0.0001359
0.000138305
0.000139595
0.000140193
0.000137359
0.000134203
0.000138519
0.000135852
0.00013972
0.000134059
0.000139142
0.000136383
0.000139526
0.000138715
0.000140008
0.000136138
0.00013937
0.000139166
0.000141334
0.000136344
0.000133246
0.00013993
0.000136772
0.00013804
0.00013739
0.000139731
0.000138531
0.000139996
0.000139941
0.000140504
0.000141986
0.00014285
0.000147206
0.000154305
0.000152632
0.000139953
0.000134708
0.000146638
7.27215e-05
0.00010317
0.000145052
0.000172421
0.000199423
0.000222697
0.00024177
0.000253407
0.000261135
0.000266909
0.000271189
0.000274374
0.000276787
0.000278667
0.000280086
0.000281127
0.000281893
0.000282457
0.000282871
0.000283118
0.000283227
0.000283241
0.000283192
0.000283092
0.000282937
0.000282736
0.000282503
0.000282249
0.00028198
0.000281691
0.000281384
0.000281064
0.000280735
0.000280406
0.000280072
0.000279732
0.000279386
0.000279039
0.000278693
0.00027835
0.000278007
0.000277663
0.00027732
0.000276979
0.000276642
0.00027631
0.000275979
0.000275651
0.000275324
0.000275002
0.000274683
0.00027437
0.000274059
0.000273752
0.000273447
0.000273147
0.00027285
0.000272558
0.000272268
0.000271985
0.000271702
0.000271426
0.000271151
0.000270884
0.000270616
0.000270357
0.000270097
0.000269846
0.000269594
0.000269352
0.00026911
0.000268878
0.000268645
0.000268424
0.000268203
0.000267995
0.000267786
0.000267594
0.000267402
0.000267229
0.000267056
0.000266908
0.000266759
0.000266649
0.000266518
0.000266424
0.000266344
0.000266288
0.000266245
0.000266265
0.000266312
0.00026644
0.000266618
0.000266943
0.000267368
0.000268159
0.000268701
0.000273215
0.000269998
0.000223039
0.000200741
0.000242554
0.00025319
0.000258037
0.000259273
0.000258689
0.000257458
0.000257387
0.000251013
0.000253366
0.000254629
0.000246213
0.000248257
0.000244428
0.00024111
0.00024352
0.000240773
0.000244273
0.000238746
0.000240039
0.000238322
0.000241484
0.000239484
0.000231107
0.000239656
0.00023371
0.000235451
0.000237173
0.000232823
0.000236811
0.000223617
0.000233688
0.000232168
0.000232195
0.000236119
0.000234471
0.000238709
0.000225703
0.000234901
0.000224525
0.000215914
0.000232334
0.000229976
0.000235709
0.000223358
0.000235055
0.00022792
0.000220945
0.000235668
0.000227491
0.000233041
0.000222184
0.000233398
0.000228728
0.00023163
0.000237214
0.000236178
0.000240143
0.000234199
0.000237315
0.000225901
0.000236633
0.000234829
0.000229817
0.000240761
0.000230117
0.000237189
0.000229863
0.000239292
0.00023817
0.000238491
0.00023532
0.000227902
0.000236331
0.00023084
0.000238133
0.000227421
0.000238104
0.000230064
0.000228707
0.000233338
0.000221881
0.000233222
0.000227082
0.000234406
0.000220901
0.000235528
0.00022244
0.000227549
0.000234251
0.000231725
0.000231173
0.000213881
0.000234919
0.000226245
0.000235918
0.000223467
0.00023595
0.000227471
0.000235246
0.000230035
0.000210535
0.000230063
0.000216354
0.000233559
0.000219337
0.000233091
0.000224928
0.000236077
0.000229885
0.000225353
0.000229893
0.000219367
0.000234163
0.000226205
0.000232834
0.000223847
0.000236273
0.000226005
0.000236904
0.000234147
0.000226874
0.000230731
0.000214841
0.000231308
0.000222363
0.000233503
0.000220325
0.000232611
0.000224349
0.000230999
0.000232395
0.000228323
0.000234084
0.000227815
0.000234566
0.000225159
0.000235456
0.000226611
0.000235514
0.000228623
0.000233284
0.000229047
0.000219244
0.000229541
0.000224556
0.000232759
0.000224014
0.000235053
0.000226171
0.000234775
0.000229759
0.000235941
0.000232141
0.000224555
0.000231441
0.000229224
0.000230807
0.000227054
0.000233133
0.000225906
0.000235304
0.000228413
0.000235559
0.000233921
0.000235727
0.000228899
0.000224077
0.000230266
0.000224394
0.000232296
0.00022327
0.000231941
0.000228052
0.000232837
0.000233103
0.000234689
0.000227709
0.000234985
0.000233189
0.000236879
0.000228443
0.000230123
0.000231556
0.00022699
0.000229104
0.000228203
0.000233797
0.000234332
0.000236042
0.000236899
0.000236635
0.000239866
0.000238978
0.000248376
0.000262886
0.000249887
0.000214333
0.000200786
0.000223846
6.07194e-05
7.73586e-05
0.000105338
0.00014281
0.000173465
0.00020321
0.000231766
0.000258218
0.000280133
0.000299143
0.00031215
0.000321772
0.000329785
0.000336578
0.000342283
0.000347066
0.000351122
0.000354604
0.000357613
0.000360173
0.000362356
0.000364236
0.000365872
0.000367293
0.000368513
0.000369561
0.000370467
0.000371254
0.000371941
0.000372524
0.000373018
0.000373435
0.000373788
0.000374089
0.000374337
0.000374533
0.000374684
0.000374799
0.000374882
0.00037494
0.000374967
0.00037497
0.000374949
0.000374908
0.000374853
0.000374783
0.000374699
0.000374599
0.000374487
0.000374366
0.000374235
0.000374099
0.000373954
0.000373802
0.000373642
0.000373479
0.00037331
0.000373138
0.000372962
0.000372784
0.0003726
0.000372417
0.000372229
0.000372043
0.000371854
0.000371666
0.000371474
0.000371286
0.000371094
0.000370907
0.000370718
0.000370536
0.000370351
0.000370174
0.000369996
0.000369828
0.000369659
0.000369505
0.00036935
0.000369214
0.000369077
0.000368968
0.000368857
0.000368792
0.000368707
0.000368649
0.000368609
0.000368607
0.000368605
0.000368701
0.000368792
0.000369031
0.000369276
0.000369778
0.000370347
0.000371498
0.000372271
0.000378377
0.000374552
0.00030892
0.000266987
0.000307166
0.000336934
0.000349138
0.000356776
0.000360621
0.000362449
0.000364952
0.000358475
0.000361431
0.000364119
0.00035496
0.000355791
0.00035197
0.000346192
0.000348429
0.000345246
0.000349109
0.000342513
0.000342043
0.000340696
0.000343744
0.000342356
0.000331207
0.000340664
0.000334711
0.000340157
0.0003394
0.000332431
0.000336598
0.000319736
0.000329837
0.000329541
0.000332242
0.000336082
0.000333383
0.000338574
0.000322663
0.0003317
0.000320377
0.000314918
0.000328222
0.000325108
0.000332415
0.000317986
0.000330757
0.000324244
0.000318508
0.000334624
0.000323294
0.000329094
0.000315061
0.000327019
0.000322696
0.000331647
0.000335206
0.000334539
0.000339027
0.000332038
0.000334356
0.000319227
0.000330002
0.000330287
0.000321491
0.000338421
0.000325431
0.000332149
0.000323375
0.000333401
0.000334549
0.000335834
0.000331306
0.00032152
0.000330888
0.00032385
0.0003323
0.000320166
0.000331882
0.000323917
0.00033027
0.000329832
0.000312848
0.000329616
0.000321229
0.000330271
0.00031458
0.000331058
0.00031705
0.000327875
0.000332016
0.000328304
0.000331406
0.000311467
0.000333784
0.000323534
0.000334856
0.000320269
0.0003335
0.000323988
0.00033077
0.000326787
0.000305426
0.000326847
0.000308471
0.000328899
0.000312434
0.000327645
0.000319672
0.000332421
0.000327422
0.000329161
0.000327604
0.000308773
0.000332722
0.000322221
0.000330217
0.000319857
0.000334491
0.000323653
0.000335515
0.000334488
0.000333976
0.000330126
0.000308319
0.000328415
0.000315861
0.000328892
0.00031413
0.00032751
0.00031899
0.000328622
0.00033016
0.000321258
0.000334809
0.000325796
0.000334225
0.000323333
0.000334897
0.000324918
0.000334173
0.000326582
0.0003293
0.000326415
0.000317526
0.000325665
0.00031115
0.000330262
0.000319299
0.000332623
0.000323602
0.000333002
0.000327889
0.000333683
0.000331545
0.000327246
0.000329332
0.000325072
0.000327242
0.000322122
0.00033004
0.000322178
0.000333391
0.000326423
0.000334211
0.000333054
0.000334314
0.000326624
0.000328025
0.000327359
0.000317482
0.000328618
0.000317598
0.000327181
0.00032382
0.000329436
0.000330999
0.000333404
0.000324903
0.000333137
0.000332042
0.000336181
0.000326601
0.000325963
0.000327376
0.000321525
0.000322113
0.00032141
0.00032953
0.000332487
0.00033517
0.000337597
0.000337213
0.000342175
0.000340421
0.000337191
0.000380036
0.000361453
0.000302315
0.000279262
0.00029436
5.44163e-05
6.12925e-05
7.52523e-05
9.95011e-05
0.000133542
0.000165556
0.000192909
0.000222567
0.000251138
0.000279282
0.00030381
0.000325655
0.000344585
0.00036108
0.000373937
0.000383773
0.000392404
0.000400055
0.00040686
0.000412853
0.000418158
0.000422892
0.000427145
0.000430965
0.000434386
0.000437462
0.00044024
0.000442761
0.000445052
0.000447122
0.000448998
0.000450703
0.000452257
0.000453682
0.000454977
0.000456153
0.000457224
0.000458203
0.000459099
0.00045992
0.000460666
0.000461345
0.000461963
0.000462525
0.000463042
0.000463512
0.000463938
0.000464322
0.000464669
0.000464983
0.000465267
0.000465524
0.000465752
0.000465955
0.000466134
0.000466292
0.000466431
0.000466553
0.000466656
0.000466745
0.000466816
0.000466876
0.000466922
0.000466959
0.000466983
0.000466999
0.000467003
0.000467002
0.00046699
0.000466976
0.000466954
0.000466931
0.000466901
0.000466872
0.000466837
0.000466807
0.000466774
0.00046675
0.000466724
0.000466712
0.000466699
0.000466712
0.000466721
0.000466779
0.000466822
0.000466885
0.00046696
0.000467092
0.000467215
0.000467466
0.000467686
0.000468113
0.000468524
0.000469282
0.000470101
0.000471682
0.000472864
0.000480349
0.000476039
0.000399471
0.000348469
0.000365173
0.000398834
0.000428847
0.000442301
0.000451221
0.000457374
0.000463514
0.000459211
0.000463519
0.000468397
0.00046057
0.000461285
0.000457681
0.000451018
0.000452667
0.000449543
0.000453419
0.000446477
0.000444754
0.000443268
0.000445996
0.000445406
0.000433185
0.000442522
0.000436865
0.000441201
0.000441951
0.000434005
0.000437675
0.000418841
0.000427798
0.000427808
0.000433618
0.000435911
0.000433348
0.000439249
0.000422438
0.000430445
0.000418242
0.000417342
0.000424722
0.000421637
0.000429767
0.000414947
0.000427661
0.000421802
0.000426964
0.000433878
0.000421802
0.00042669
0.000411039
0.000422278
0.000418129
0.000427503
0.000432782
0.000433376
0.000438545
0.000431808
0.000432961
0.000415438
0.000425034
0.000426078
0.00042388
0.000436183
0.00042273
0.000428307
0.000418632
0.000428198
0.000430794
0.000431832
0.000427994
0.000422291
0.000425993
0.000417956
0.000426133
0.000413707
0.000425305
0.0004176
0.000423435
0.000424781
0.000418167
0.000425852
0.000416049
0.000425712
0.000410097
0.000426687
0.000412872
0.000422344
0.000428779
0.000431765
0.000431396
0.000421982
0.000433512
0.00042369
0.000435204
0.00042045
0.000433206
0.000423173
0.000428617
0.000424975
0.000417909
0.000425081
0.000412614
0.00042511
0.000408249
0.000423162
0.000415938
0.000429288
0.000425388
0.000425735
0.000425725
0.000415937
0.000431766
0.000420591
0.000428577
0.000418456
0.000433749
0.000423538
0.000435652
0.000435887
0.00043543
0.000431435
0.000424125
0.000427881
0.00041289
0.000425639
0.000410555
0.000423627
0.000415167
0.00042407
0.00042757
0.000425296
0.000435778
0.000426052
0.000435241
0.000424749
0.000436365
0.00042642
0.000435272
0.000427116
0.000428159
0.000425789
0.000421695
0.000423724
0.00041487
0.000428942
0.000417293
0.000431222
0.000423175
0.000432829
0.000428011
0.000433449
0.000432172
0.000428892
0.000429237
0.000423209
0.000425787
0.000419393
0.000428035
0.000420745
0.000432651
0.00042651
0.000434576
0.000433922
0.000434859
0.000426674
0.000426511
0.000426167
0.000420197
0.000426374
0.000414525
0.000423839
0.000421222
0.000427121
0.000429703
0.000433007
0.000424456
0.000432933
0.000432731
0.000437149
0.000427035
0.000424247
0.000425316
0.000418182
0.000416785
0.000415864
0.000425253
0.000430248
0.0004343
0.000438416
0.000438922
0.000432465
0.00044407
0.000417322
0.000498412
0.000477134
0.000403838
0.000380454
0.000365928
5.48766e-05
5.26072e-05
5.78097e-05
6.93614e-05
9.0202e-05
0.000120236
0.000156716
0.000180574
0.000207509
0.000235907
0.000263758
0.00029229
0.000318162
0.000342434
0.00036455
0.000383959
0.000401397
0.000416987
0.000430835
0.000441015
0.0004502
0.000458546
0.000466161
0.000473104
0.000479416
0.000485176
0.000490457
0.000495319
0.000499796
0.000503909
0.000507698
0.000511198
0.00051444
0.000517452
0.000520239
0.000522821
0.000525219
0.000527452
0.000529534
0.000531477
0.000533284
0.000534969
0.000536543
0.000538013
0.000539393
0.000540684
0.00054189
0.000543017
0.000544073
0.000545064
0.000545994
0.000546868
0.000547686
0.000548452
0.000549171
0.000549846
0.00055048
0.000551077
0.000551636
0.000552161
0.000552652
0.000553114
0.000553548
0.000553958
0.00055434
0.000554701
0.000555038
0.000555356
0.000555653
0.000555937
0.000556203
0.000556457
0.000556696
0.000556926
0.000557143
0.000557357
0.000557562
0.000557768
0.000557967
0.000558174
0.000558376
0.000558601
0.000558818
0.000559082
0.000559334
0.000559608
0.000559876
0.00056022
0.000560552
0.000561031
0.000561457
0.000562139
0.000562796
0.000563871
0.000565009
0.000567046
0.00056873
0.000577274
0.000572461
0.000490929
0.000441636
0.000430494
0.000451358
0.000491963
0.000518432
0.000531636
0.000541996
0.000551846
0.000550851
0.000557221
0.000564594
0.000559324
0.000560906
0.000557993
0.000551805
0.000553027
0.000550472
0.000554275
0.000547521
0.000545211
0.000543493
0.000546095
0.00054598
0.000534009
0.000542836
0.000537619
0.000541378
0.000542654
0.000534982
0.000537664
0.000518231
0.000525678
0.000525472
0.000530834
0.00053406
0.000532498
0.0005386
0.000522252
0.000529043
0.000516071
0.000513138
0.000520569
0.000518291
0.000526305
0.000512108
0.000524231
0.000518894
0.000524728
0.000531602
0.000520476
0.000524058
0.00050803
0.00051791
0.000513754
0.000522618
0.000529172
0.000531334
0.00053706
0.00053136
0.0005313
0.000512549
0.000518749
0.000521495
0.000525629
0.000532635
0.000519977
0.000524247
0.000514174
0.000520855
0.000526169
0.000527238
0.000523719
0.000516788
0.000520214
0.0005121
0.000519144
0.000506947
0.000517758
0.000510202
0.000515078
0.00051759
0.000516157
0.000519867
0.000510409
0.000519589
0.00050533
0.000521114
0.000507986
0.00051607
0.000523747
0.00053106
0.000529
0.000519749
0.000531729
0.000523873
0.00053481
0.000521193
0.00053296
0.000522813
0.000527034
0.00052309
0.000521979
0.000522546
0.000509156
0.000520899
0.000504852
0.000518541
0.000512237
0.000525498
0.00052238
0.000522181
0.000522774
0.000521878
0.000529364
0.000519095
0.000526305
0.000517409
0.000532446
0.000523454
0.000535448
0.000536562
0.000536001
0.000532342
0.000523634
0.000527118
0.000511649
0.000522843
0.000508051
0.000519985
0.00051159
0.00051962
0.000523999
0.000529998
0.000535037
0.00052637
0.00053555
0.00052671
0.000537824
0.000528677
0.000536817
0.000528254
0.000528058
0.000525406
0.0005199
0.000522066
0.000520976
0.00052712
0.00051617
0.000529707
0.000523079
0.000532652
0.000528305
0.000533512
0.000532553
0.000528719
0.000529197
0.000522375
0.000524652
0.000517857
0.000526169
0.00052001
0.000531881
0.000526939
0.00053507
0.000534857
0.00053564
0.000527112
0.000525419
0.000525222
0.000518276
0.000524256
0.000512526
0.000520931
0.000519076
0.000524842
0.000528241
0.000532213
0.000524445
0.000532834
0.000533549
0.000538133
0.000527849
0.000523677
0.000523953
0.000515817
0.000512343
0.000510933
0.000520674
0.000527111
0.000532455
0.000538048
0.000540195
0.000529683
0.000548517
0.000501277
0.00061512
0.00059294
0.000513963
0.000474698
0.00045071
6.84577e-05
5.0982e-05
4.93926e-05
5.29879e-05
6.25063e-05
7.97797e-05
0.000106067
0.000138379
0.000171187
0.000193404
0.000218598
0.000245748
0.000272225
0.00030017
0.000326637
0.000351802
0.000375809
0.000397788
0.000418154
0.000436661
0.000453355
0.000468463
0.00048239
0.000494375
0.000504054
0.000512985
0.00052126
0.000528947
0.000536087
0.0005427
0.000548844
0.000554569
0.000559917
0.000564922
0.000569593
0.00057396
0.00057805
0.00058189
0.0005855
0.000588894
0.000592081
0.00059508
0.000597905
0.000600571
0.000603092
0.00060547
0.000607715
0.000609836
0.000611843
0.000613744
0.000615548
0.000617257
0.000618876
0.000620411
0.000621868
0.000623252
0.000624569
0.000625822
0.000627012
0.000628143
0.000629219
0.000630244
0.000631222
0.000632155
0.000633043
0.000633891
0.000634698
0.000635471
0.000636209
0.000636918
0.000637596
0.000638248
0.000638872
0.000639476
0.000640056
0.000640622
0.00064117
0.000641708
0.000642232
0.000642755
0.000643266
0.000643793
0.000644307
0.000644863
0.000645405
0.000645974
0.000646516
0.000647146
0.000647766
0.000648538
0.000649243
0.000650243
0.000651208
0.000652645
0.000654146
0.000656637
0.000658855
0.000668104
0.000662758
0.000580428
0.00053152
0.000505486
0.000509112
0.000540558
0.000574441
0.000604218
0.000617904
0.000630947
0.000633517
0.000642233
0.000652046
0.000649814
0.000652967
0.000651227
0.000646425
0.000647613
0.000646057
0.000649895
0.000643771
0.000641483
0.000639694
0.000642453
0.000642545
0.000631673
0.000639913
0.000635179
0.000638839
0.00064016
0.000633493
0.00063503
0.000615979
0.000621906
0.000621288
0.000626291
0.000629715
0.000629656
0.000635417
0.000620331
0.000625968
0.00061243
0.000608355
0.000614961
0.000613867
0.000621155
0.000608117
0.000619381
0.000614448
0.000620016
0.000627134
0.000617763
0.000619971
0.000604446
0.000612773
0.000608565
0.000616877
0.000623927
0.000627453
0.00063357
0.000629281
0.000628109
0.000609047
0.000610748
0.000615899
0.000620022
0.000627215
0.000615999
0.000619005
0.000608937
0.000612261
0.000620164
0.000621393
0.000617856
0.000610563
0.000613056
0.000605414
0.000610909
0.000599231
0.000608851
0.000601325
0.000605384
0.000608269
0.000607377
0.000611357
0.000603276
0.000611393
0.000599107
0.000613572
0.000601382
0.000608252
0.000616498
0.000624553
0.000623638
0.000615946
0.000627539
0.000622383
0.000632406
0.00062068
0.000631274
0.000621364
0.000624628
0.000620087
0.000618351
0.000618578
0.000605668
0.000615682
0.000601057
0.000613016
0.000607679
0.000620315
0.000617709
0.000617438
0.000618106
0.000617354
0.000624861
0.000616345
0.000622453
0.00061532
0.000629595
0.000622105
0.000633709
0.000635479
0.000635408
0.000631698
0.000622872
0.000625255
0.000610531
0.000619589
0.000605497
0.000615813
0.000607453
0.000613776
0.000619117
0.000625954
0.00063203
0.000625368
0.000634139
0.000627608
0.000637971
0.000630086
0.000637426
0.000628647
0.00062764
0.00062429
0.000618254
0.000619874
0.000618389
0.000624217
0.000614725
0.000627329
0.00062228
0.000631541
0.000627719
0.000632787
0.000631846
0.000628085
0.000628226
0.000621406
0.000622922
0.000616458
0.00062381
0.000619006
0.000630355
0.000626722
0.000634741
0.000634885
0.000635621
0.000626867
0.000624384
0.000623756
0.000616649
0.000621674
0.000610585
0.000617778
0.000616663
0.000622022
0.000626126
0.000630346
0.000623784
0.000631914
0.000633486
0.000638163
0.000627942
0.000622973
0.000622305
0.00061353
0.000608082
0.000606127
0.000615615
0.000623058
0.000629313
0.000636211
0.000640127
0.000642672
0.000652397
0.000593047
0.000725348
0.00070705
0.000627767
0.000576077
0.000551435
0.000108647
6.01572e-05
4.93498e-05
4.66602e-05
4.87461e-05
5.60383e-05
7.00202e-05
9.15701e-05
0.000119681
0.000152092
0.000182939
0.000204175
0.000227679
0.000253075
0.000278146
0.000304675
0.00033138
0.000356617
0.000381328
0.000404982
0.000427057
0.000447736
0.000467099
0.000484981
0.000501342
0.000516433
0.000530319
0.000543216
0.00055465
0.000564085
0.000572915
0.000581199
0.000588989
0.000596321
0.000603198
0.000609662
0.000615751
0.000621499
0.000626932
0.000632065
0.000636912
0.000641497
0.000645839
0.000649957
0.00065387
0.000657579
0.000661101
0.000664446
0.000667628
0.000670658
0.000673546
0.000676297
0.000678916
0.000681415
0.000683799
0.000686077
0.000688256
0.000690337
0.000692326
0.000694229
0.000696049
0.000697794
0.000699466
0.000701071
0.000702608
0.000704082
0.000705497
0.000706857
0.000708164
0.000709424
0.000710637
0.000711806
0.000712933
0.000714023
0.000715077
0.000716103
0.000717098
0.000718071
0.000719018
0.000719953
0.000720867
0.000721787
0.000722686
0.000723619
0.000724532
0.000725476
0.000726376
0.00072736
0.00072834
0.000729469
0.00073052
0.00073189
0.000733217
0.000735047
0.000736939
0.000739868
0.000742617
0.000752229
0.000746366
0.000666018
0.00061067
0.000585104
0.000575872
0.000592718
0.000617591
0.000661693
0.000686805
0.000702387
0.000708278
0.000719188
0.000731157
0.000732007
0.000737064
0.000736839
0.000733938
0.000735482
0.000735222
0.000739277
0.000734138
0.000732369
0.000730785
0.000733971
0.00073416
0.000724879
0.000732584
0.000728423
0.000732264
0.000733461
0.00072823
0.000728695
0.00071069
0.000714258
0.000714225
0.000718964
0.000722172
0.000723645
0.000728866
0.000715486
0.000720118
0.000706253
0.000701687
0.000707108
0.000707375
0.000713604
0.000701994
0.000712255
0.000707669
0.000713278
0.000719999
0.000712659
0.000713558
0.000699104
0.000705897
0.000701692
0.000709479
0.000716559
0.000721275
0.000727492
0.000724676
0.000722525
0.000703815
0.000700419
0.00070863
0.000712926
0.000719634
0.00071007
0.000711905
0.000702125
0.000701409
0.000712286
0.000713744
0.000709835
0.000702795
0.000704143
0.000697223
0.000701026
0.000690038
0.000697147
0.000690684
0.000694026
0.000696903
0.000696665
0.000700341
0.000694029
0.000700832
0.000690742
0.000703562
0.000692476
0.000697725
0.000706759
0.000715512
0.00071519
0.000709575
0.00072041
0.000718259
0.000727224
0.000717762
0.000727148
0.000717757
0.00072034
0.000715154
0.00071335
0.000712706
0.000700987
0.000708878
0.000695997
0.000705956
0.000701605
0.000713212
0.000710955
0.00071082
0.000711316
0.000711116
0.000717988
0.000711513
0.000716425
0.000711291
0.000724531
0.000718677
0.000726242
0.000732003
0.000732691
0.000728766
0.000720636
0.000721606
0.000708314
0.000715072
0.000701979
0.000710423
0.000702116
0.000705847
0.000712634
0.000720246
0.000726661
0.000722325
0.000730468
0.000726509
0.000736009
0.000729625
0.000736162
0.000727351
0.000725899
0.000721726
0.000715703
0.000716496
0.000715048
0.000719896
0.000712152
0.000723527
0.000720093
0.000728876
0.000725587
0.000730566
0.000729493
0.000726118
0.000725692
0.000719385
0.000719997
0.000714281
0.000720396
0.000717031
0.000727552
0.000725232
0.000732968
0.000733373
0.00073412
0.000725248
0.000722465
0.000721227
0.000714406
0.000718099
0.000707948
0.000713832
0.000713434
0.00071823
0.000722928
0.000727056
0.000721844
0.000729599
0.000731936
0.000736639
0.000726625
0.000721269
0.000719682
0.000710574
0.000703378
0.000700948
0.000709824
0.000717972
0.000724757
0.000732816
0.00073826
0.000751275
0.000754614
0.000695782
0.000825544
0.000818287
0.000741699
0.00068155
0.000656415
0.000114486
8.83524e-05
6.1248e-05
5.02565e-05
4.58093e-05
4.59544e-05
5.08533e-05
6.13753e-05
7.82057e-05
0.00010164
0.000130381
0.000162165
0.000193619
0.000213636
0.000235436
0.000258985
0.000283022
0.000307549
0.000333549
0.000358589
0.000383287
0.000407592
0.0004307
0.000452704
0.00047384
0.000493733
0.000512313
0.000529811
0.000546244
0.000561365
0.000575388
0.000588562
0.000600821
0.000612336
0.000621646
0.000630443
0.00063877
0.000646668
0.000654166
0.000661276
0.000668014
0.000674412
0.000680495
0.000686287
0.000691809
0.000697064
0.00070207
0.000706843
0.000711399
0.000715753
0.000719916