/*--------------------------------*- C++ -*----------------------------------*\
| =========                 |                                                 |
| \\      /  F ield         | foam-extend: Open Source CFD                    |
|  \\    /   O peration     | Version:     3.2                                |
|   \\  /    A nd           | Web:         http://www.foam-extend.org         |
|    \\/     M anipulation  | For copyright notice see file Copyright         |
\*---------------------------------------------------------------------------*/
FoamFile
{
    version     2.0;
    format      ascii;
    class       areaScalarField;
    location    "160";
    object      Fi1;
}
// * * * * * * * * * * * * * * * * * * * * * * * * * * * * * * * * * * * * * //

dimensions      [0 1 -1 0 0 0 0];

internalField   nonuniform List<scalar> 
300
(
-0.0007439
-0.000525237
-0.00029856
-0.000219213
-0.000191395
-0.000177293
-0.000167295
-0.000158698
-0.000150909
-0.000143949
-0.000137823
-0.000132417
-0.000127584
-0.00012332
-0.00011952
-0.000116098
-0.000112995
-0.000110154
-0.000107571
-0.000105232
-0.000103075
-0.00010106
-9.9179e-05
-9.74226e-05
-9.57842e-05
-9.42407e-05
-9.27894e-05
-9.14152e-05
-9.01196e-05
-8.88965e-05
-8.77339e-05
-8.66301e-05
-8.55754e-05
-8.45723e-05
-8.36144e-05
-8.27021e-05
-8.1825e-05
-8.09863e-05
-8.01793e-05
-7.94046e-05
-7.86621e-05
-7.79458e-05
-7.7257e-05
-7.65911e-05
-7.59485e-05
-7.5329e-05
-7.47299e-05
-7.41524e-05
-7.359e-05
-7.30489e-05
-7.25202e-05
-7.20116e-05
-7.15155e-05
-7.10371e-05
-7.05695e-05
-7.01178e-05
-6.96756e-05
-6.92491e-05
-6.88255e-05
-6.84207e-05
-6.80189e-05
-6.7637e-05
-6.72567e-05
-6.68964e-05
-6.65364e-05
-6.61976e-05
-6.58568e-05
-6.55384e-05
-6.52164e-05
-6.49185e-05
-6.46161e-05
-6.43401e-05
-6.40581e-05
-6.38057e-05
-6.35452e-05
-6.33191e-05
-6.30845e-05
-6.28881e-05
-6.26848e-05
-6.25255e-05
-6.23608e-05
-6.22471e-05
-6.21353e-05
-6.20782e-05
-6.20439e-05
-6.20548e-05
-6.21103e-05
-6.22423e-05
-6.24396e-05
-6.27271e-05
-6.31449e-05
-6.36699e-05
-6.44746e-05
-6.53737e-05
-6.69534e-05
-6.85998e-05
-7.23271e-05
-7.38491e-05
-9.57032e-05
-2.84968e-05
1.70212e-06
2.73004e-06
3.26391e-06
3.73862e-06
4.20572e-06
4.34546e-06
4.8148e-06
4.80861e-06
4.99331e-06
-2.9617e-06
9.78319e-06
3.62222e-05
5.75542e-06
5.07763e-06
-2.14108e-05
-4.07789e-05
-4.14627e-06
2.32818e-05
4.14729e-05
8.97146e-06
7.18661e-06
-3.40691e-05
-4.76806e-05
8.99553e-06
-1.60426e-05
2.57896e-05
4.96505e-05
1.65948e-06
9.94407e-06
-3.84632e-05
-3.03703e-05
-7.88476e-06
-7.78673e-06
-7.28316e-06
2.37984e-05
5.04351e-05
-1.12293e-06
1.13277e-05
-4.2398e-05
-3.91485e-05
1.20119e-05
-1.59694e-05
-6.28009e-06
-1.2576e-05
4.13657e-05
4.01215e-05
5.86536e-06
8.06731e-06
-4.42873e-05
-4.57857e-05
-5.272e-06
9.8496e-06
-6.16555e-06
2.82803e-05
4.22487e-05
-2.48767e-06
3.94969e-06
-4.38282e-05
-5.48891e-05
-4.99088e-06
5.10613e-05
4.26586e-05
2.465e-06
6.71971e-06
-7.71599e-06
-2.75031e-05
-4.32929e-05
4.84465e-06
-1.14103e-05
2.18522e-05
4.50248e-05
6.55549e-06
1.34494e-05
-3.14368e-05
-3.42445e-05
-7.39888e-06
9.70771e-06
2.80081e-05
4.02043e-05
9.02094e-06
-2.7605e-05
-3.57852e-05
-5.95088e-06
4.94219e-06
-7.37318e-06
1.02652e-05
2.42512e-05
3.99071e-05
9.15697e-06
5.31225e-07
-3.92564e-05
-3.35043e-05
8.8615e-06
2.01287e-05
4.12106e-05
-7.59555e-07
8.29523e-06
7.21145e-07
-2.53638e-05
-4.58371e-05
-1.85077e-06
1.06973e-06
-7.63872e-06
4.45186e-05
2.95766e-05
1.22643e-05
4.55025e-06
6.10404e-06
1.4884e-06
4.92374e-06
-2.31343e-05
-3.25932e-05
-3.15187e-07
-1.12357e-05
1.2934e-06
2.48629e-05
4.17461e-05
-1.45438e-06
5.14833e-06
-3.43951e-05
-3.91782e-05
-7.58306e-06
-2.96246e-06
3.79138e-05
3.21474e-05
1.33499e-05
-2.80845e-05
-2.50794e-05
-6.15865e-06
6.74381e-07
2.72627e-05
2.78648e-05
4.35161e-06
1.36516e-06
8.91136e-06
-2.95736e-05
-3.5634e-05
-9.62604e-06
-6.05795e-06
2.31075e-05
3.70754e-05
8.14314e-06
5.57823e-06
-2.0321e-05
-3.25361e-05
-2.54745e-06
-8.28207e-06
5.11436e-06
2.05411e-05
3.56207e-05
3.45362e-06
5.19926e-06
-3.27266e-05
-3.83934e-05
-7.12193e-07
-5.75684e-06
3.2943e-05
3.59753e-05
8.70832e-06
4.13166e-06
-2.33561e-05
-3.97071e-05
-7.35322e-06
-9.71001e-06
1.95964e-05
3.66113e-05
1.02747e-05
8.13431e-06
-2.54382e-05
-3.08146e-05
-8.43567e-06
3.40122e-05
3.45595e-05
3.40653e-06
6.15769e-06
-3.20254e-05
-3.75028e-05
7.92663e-07
-8.7438e-06
2.10534e-05
3.17773e-05
-2.02511e-05
-2.96261e-05
2.1198e-05
4.01119e-05
-1.47449e-05
-4.89405e-06
-4.70015e-06
-5.25947e-06
-4.43614e-06
-4.93861e-06
-3.93718e-06
-4.31707e-06
-3.19284e-06
-3.18079e-06
-1.72719e-06
-2.41496e-05
-8.77733e-05
-4.42213e-05
-3.66394e-05
)
;

boundaryField
{
    inlet
    {
        type            calculated;
        value           uniform -0.000743899;
    }
    outlet
    {
        type            calculated;
        value           uniform -4.3718e-05;
    }
    sideWall
    {
        type            empty;
    }
}


// ************************************************************************* //
