/*--------------------------------*- C++ -*----------------------------------*\
| =========                 |                                                 |
| \\      /  F ield         | foam-extend: Open Source CFD                    |
|  \\    /   O peration     | Version:     3.2                                |
|   \\  /    A nd           | Web:         http://www.foam-extend.org         |
|    \\/     M anipulation  | For copyright notice see file Copyright         |
\*---------------------------------------------------------------------------*/
FoamFile
{
    version     2.0;
    format      ascii;
    class       areaScalarField;
    location    "160";
    object      Fi2;
}
// * * * * * * * * * * * * * * * * * * * * * * * * * * * * * * * * * * * * * //

dimensions      [0 1 -1 0 0 0 0];

internalField   nonuniform List<scalar> 
300
(
-0.0007439
-0.000525237
-0.00029856
-0.000219213
-0.000191395
-0.000177293
-0.000167295
-0.000158698
-0.000150909
-0.000143949
-0.000137823
-0.000132417
-0.000127584
-0.00012332
-0.00011952
-0.000116098
-0.000112995
-0.000110154
-0.000107571
-0.000105232
-0.000103075
-0.00010106
-9.9179e-05
-9.74226e-05
-9.57842e-05
-9.42407e-05
-9.27894e-05
-9.14152e-05
-9.01196e-05
-8.88965e-05
-8.77339e-05
-8.66301e-05
-8.55754e-05
-8.45723e-05
-8.36144e-05
-8.27021e-05
-8.1825e-05
-8.09863e-05
-8.01793e-05
-7.94046e-05
-7.86621e-05
-7.79458e-05
-7.7257e-05
-7.65911e-05
-7.59485e-05
-7.5329e-05
-7.47299e-05
-7.41524e-05
-7.359e-05
-7.30489e-05
-7.25202e-05
-7.20116e-05
-7.15155e-05
-7.10371e-05
-7.05695e-05
-7.01178e-05
-6.96756e-05
-6.92491e-05
-6.88255e-05
-6.84207e-05
-6.80189e-05
-6.7637e-05
-6.72567e-05
-6.68964e-05
-6.65364e-05
-6.61976e-05
-6.58568e-05
-6.55384e-05
-6.52164e-05
-6.49185e-05
-6.46162e-05
-6.43402e-05
-6.40581e-05
-6.38058e-05
-6.35453e-05
-6.33191e-05
-6.30846e-05
-6.28882e-05
-6.26849e-05
-6.25256e-05
-6.23609e-05
-6.22472e-05
-6.21355e-05
-6.20784e-05
-6.20441e-05
-6.20551e-05
-6.21106e-05
-6.22427e-05
-6.244e-05
-6.27276e-05
-6.31455e-05
-6.36707e-05
-6.44756e-05
-6.5375e-05
-6.69551e-05
-6.86022e-05
-7.23306e-05
-7.38547e-05
-9.57135e-05
-3.28948e-05
-1.81297e-06
-2.62797e-06
-3.35209e-06
-3.85317e-06
-3.99618e-06
-4.7764e-06
-4.35869e-06
-5.28917e-06
-5.40545e-06
5.75137e-06
-1.47263e-06
7.57726e-06
-2.75819e-05
-3.89322e-05
2.75241e-06
2.45839e-05
4.06259e-05
2.98955e-06
7.50206e-06
-2.89603e-05
-4.07795e-05
-7.15536e-06
-1.35392e-05
4.41501e-05
3.78977e-05
5.59031e-06
7.14252e-06
-3.62288e-05
-4.26275e-05
-1.11831e-05
1.12106e-05
-8.35545e-06
2.59825e-05
4.77959e-05
1.72698e-06
7.1516e-06
-4.39644e-05
-3.83765e-05
-1.29623e-05
-1.43893e-06
5.20886e-05
3.15725e-05
5.91657e-06
9.84094e-07
1.18224e-05
1.6642e-06
-2.60457e-05
-4.83351e-05
-2.11171e-05
-1.32113e-06
3.32388e-05
5.56195e-05
5.60424e-06
6.10559e-06
3.94936e-06
-4.09337e-05
-5.24186e-05
-1.39322e-05
2.97247e-05
4.51514e-05
1.82625e-05
3.66738e-06
-3.15185e-05
-4.68666e-05
-2.13157e-05
5.01315e-06
-4.50991e-06
3.87229e-05
4.04121e-05
-2.10061e-06
3.22599e-06
-2.7442e-05
-3.42284e-05
-7.53816e-06
4.41757e-06
2.76487e-05
5.0422e-05
3.40647e-06
-1.97678e-05
-3.87318e-05
-1.07712e-05
2.37164e-06
2.56848e-05
4.80846e-05
3.28829e-06
1.34716e-05
2.18907e-06
-1.66085e-05
-3.64038e-05
-1.36938e-05
-1.55068e-05
2.65514e-05
5.37127e-05
-1.17709e-06
4.14157e-06
-3.52214e-05
-3.50684e-05
-9.44763e-06
-5.71078e-06
-8.96982e-06
2.61108e-05
4.72644e-05
2.6957e-06
1.5953e-05
-3.02951e-05
3.48324e-06
2.6887e-06
-3.26233e-05
-1.34038e-05
-6.52447e-06
1.3908e-06
-5.29551e-06
3.28504e-05
2.76947e-05
8.38263e-06
5.27262e-06
9.23906e-06
-3.45289e-05
-3.56955e-05
-1.23719e-05
1.98863e-05
4.04937e-05
5.71198e-06
1.14874e-05
-2.6661e-05
-2.56892e-05
-8.37538e-06
5.94518e-06
2.41938e-05
3.60457e-05
7.11954e-06
2.98655e-06
-2.97809e-05
-3.70291e-05
1.7252e-06
-8.6285e-06
-2.64819e-06
2.29152e-05
3.62273e-05
1.21392e-06
6.4399e-06
-2.61656e-05
-3.51027e-05
4.64009e-06
-4.78157e-06
3.00052e-05
3.04301e-05
1.11405e-05
1.14504e-06
4.87496e-06
-2.85748e-05
-3.75863e-05
-1.1823e-05
-8.88281e-06
3.27049e-05
3.52425e-05
8.78915e-06
6.60061e-06
-2.26483e-05
-3.52648e-05
-9.88145e-07
-1.10123e-05
2.35147e-05
3.45989e-05
1.70535e-07
2.94133e-06
-1.83542e-05
-3.61822e-05
-7.39868e-06
3.59667e-05
3.14103e-05
1.08768e-05
5.89034e-06
-2.7112e-05
-3.39491e-05
-1.21018e-05
2.00475e-05
4.22856e-05
2.29259e-06
3.60037e-07
-1.12795e-07
-1.99036e-05
1.17481e-06
3.09219e-05
-1.82487e-05
-8.1467e-07
5.37206e-06
5.28582e-06
5.00747e-06
5.02326e-06
4.63547e-06
4.62088e-06
4.05824e-06
3.8941e-06
3.04596e-06
2.27169e-06
-2.00958e-05
-8.78805e-05
-4.42817e-05
-3.66875e-05
)
;

boundaryField
{
    inlet
    {
        type            calculated;
        value           uniform -0.000743899;
    }
    outlet
    {
        type            calculated;
        value           uniform -4.3718e-05;
    }
    sideWall
    {
        type            empty;
    }
}


// ************************************************************************* //
