/*--------------------------------*- C++ -*----------------------------------*\
| =========                 |                                                 |
| \\      /  F ield         | foam-extend: Open Source CFD                    |
|  \\    /   O peration     | Version:     3.2                                |
|   \\  /    A nd           | Web:         http://www.foam-extend.org         |
|    \\/     M anipulation  | For copyright notice see file Copyright         |
\*---------------------------------------------------------------------------*/
FoamFile
{
    version     2.0;
    format      ascii;
    class       areaScalarField;
    location    "160";
    object      He;
}
// * * * * * * * * * * * * * * * * * * * * * * * * * * * * * * * * * * * * * //

dimensions      [0 0 0 0 0 0 0];

internalField   nonuniform List<scalar> 
300
(
0
0
0
0
0
0
0
0
0
0
0
0
0
0
0
0
0
0
0
0
0
0
0
0
0
0
0
0
0
0
0
0
0
0
0
0
0
0
0
0
0
0
0
0
0
0
0
0
0
0
0
0
0
0
0
0
0
0
0
0
0
0
0
0
0
0
0
0
0
0
0
0
0
0
0
0
0
0
0
0
0
0
0
0
0
0
0
0
0
0
0
0
0
0
0
0
0
0
0
0
0
0
0
0
0
0
0
0
0
0
0
0
0
2.70494e-05
2.18421e-05
2.67808e-05
6.44759e-06
0
0
0
3.20999e-05
4.43156e-05
3.01115e-05
1.14366e-05
0
0
0
0
3.73957e-05
3.77852e-05
2.67711e-05
1.34802e-05
7.68535e-06
0
0
0
0
3.8636e-05
4.45894e-05
2.71724e-05
7.77525e-06
6.55164e-06
1.02759e-05
0
0
0
0
4.15279e-05
5.45422e-05
3.52844e-05
1.16214e-05
0
0
0
0
0
4.95294e-05
4.72855e-05
3.96521e-05
3.45347e-06
0
0
0
0
3.01755e-05
3.04528e-05
2.73096e-05
1.12523e-05
0
0
0
0
0
3.21394e-05
2.68305e-05
9.83384e-06
0
0
0
0
3.49696e-05
2.62806e-05
1.06862e-05
8.61013e-07
0
0
0
0
0
2.70851e-05
3.24134e-05
2.43509e-05
0
0
0
0
0
1.88275e-05
3.14222e-05
2.97225e-05
1.21176e-05
1.83755e-06
0
0
0
0
0
0
0
9.21459e-06
2.07439e-05
2.21598e-05
1.11155e-05
5.37332e-06
0
0
0
0
3.59607e-05
3.58436e-05
3.0083e-05
1.43262e-05
0
0
0
0
2.60998e-05
2.10991e-05
9.17912e-06
0
0
0
0
0
1.31458e-05
2.60108e-05
2.76185e-05
1.52372e-05
0
0
0
0
2.31887e-05
2.45521e-05
2.19864e-05
1.14793e-05
3.49974e-06
0
0
0
0
3.36113e-05
4.21906e-05
2.75567e-05
1.1394e-05
0
0
0
0
2.51377e-05
3.26348e-05
2.75292e-05
1.60295e-05
1.79383e-06
0
0
0
0
2.21435e-05
2.38753e-05
3.41912e-06
0
0
0
3.08541e-05
3.33762e-05
2.65586e-05
1.11642e-05
0
0
0
2.08073e-05
1.45766e-05
0
0
0
7.30832e-06
4.88847e-06
4.91388e-06
4.76766e-06
4.56278e-06
4.28265e-06
3.94134e-06
3.47117e-06
2.82204e-06
1.65909e-06
4.30457e-07
0
0
0
)
;

boundaryField
{
    inlet
    {
        type            calculated;
        value           uniform 0;
    }
    outlet
    {
        type            calculated;
        value           uniform 0;
    }
    sideWall
    {
        type            empty;
    }
}


// ************************************************************************* //
