/*--------------------------------*- C++ -*----------------------------------*\
| =========                 |                                                 |
| \\      /  F ield         | foam-extend: Open Source CFD                    |
|  \\    /   O peration     | Version:     3.2                                |
|   \\  /    A nd           | Web:         http://www.foam-extend.org         |
|    \\/     M anipulation  | For copyright notice see file Copyright         |
\*---------------------------------------------------------------------------*/
FoamFile
{
    version     2.0;
    format      ascii;
    class       volScalarField;
    location    "160";
    object      Ktemp;
}
// * * * * * * * * * * * * * * * * * * * * * * * * * * * * * * * * * * * * * //

dimensions      [0 2 -2 0 0 0 0];

internalField   nonuniform List<scalar> 
96000
(
0.178319
0.142008
0.0985161
0.0808966
0.0742543
0.070771
0.0682485
0.0660411
0.064009
0.0621651
0.0605192
0.0590479
0.0577168
0.0565291
0.0554604
0.0544888
0.0536003
0.0527801
0.052029
0.051344
0.0507081
0.0501105
0.0495495
0.0490226
0.0485286
0.0480608
0.0476189
0.0471986
0.0468006
0.0464232
0.0460631
0.0457199
0.0453907
0.0450766
0.0447755
0.0444878
0.0442104
0.0439442
0.0436874
0.0434401
0.0432024
0.0429725
0.0427508
0.0425359
0.0423281
0.0421272
0.0419325
0.0417443
0.0415607
0.0413837
0.0412103
0.0410432
0.0408798
0.040722
0.0405674
0.0404178
0.0402711
0.0401293
0.0399882
0.0398532
0.0397189
0.0395911
0.0394636
0.0393426
0.0392216
0.0391074
0.0389925
0.038885
0.038776
0.0386751
0.0385726
0.0384788
0.0383829
0.038297
0.0382082
0.038131
0.0380509
0.0379838
0.0379142
0.0378596
0.0378031
0.0377642
0.0377258
0.0377062
0.0376944
0.0376982
0.0377172
0.0377625
0.0378301
0.0379286
0.0380715
0.0382506
0.0385244
0.0388291
0.0393616
0.0399128
0.0411466
0.0416531
0.0485134
0.0440894
0.0218303
0.021092
0.0223525
0.0226137
0.0231707
0.0237592
0.0239881
0.0245809
0.0255668
0.0238138
0.025994
0.02708
0.0252719
0.0278128
0.0255798
0.02626
0.0263121
0.026288
0.0279409
0.0254724
0.0274478
0.0252343
0.0282327
0.0263765
0.0253187
0.0292111
0.0245659
0.0298105
0.0265384
0.0283534
0.0279323
0.024142
0.0286359
0.0241839
0.0293614
0.0263326
0.029263
0.0292995
0.0260351
0.0312323
0.0228904
0.0282298
0.0260627
0.0283519
0.0283964
0.0250985
0.0312247
0.023556
0.0310837
0.0281214
0.0293999
0.0283727
0.0256766
0.0293339
0.0248286
0.0306804
0.0281424
0.0307675
0.0305983
0.0309386
0.030565
0.0256938
0.0322456
0.0264291
0.0319481
0.0305492
0.0294174
0.0307987
0.0268306
0.0326612
0.0286702
0.0329261
0.0276025
0.0307334
0.028071
0.0290584
0.0288646
0.0259511
0.0305075
0.0236661
0.0304614
0.0246086
0.0294525
0.0251738
0.0276956
0.0262171
0.0244488
0.0286873
0.0214901
0.028671
0.0243479
0.0307776
0.0238873
0.0285467
0.0270886
0.0285913
0.0291921
0.0266808
0.0311452
0.0251128
0.0318361
0.0238989
0.0311106
0.0246238
0.0279115
0.0266588
0.0249163
0.027688
0.024255
0.0299369
0.0231555
0.0286206
0.0234184
0.0281643
0.025304
0.0270078
0.0257908
0.0256805
0.0288048
0.0246119
0.0309495
0.0254106
0.0311676
0.0247489
0.0293725
0.0254622
0.0265908
0.0269068
0.0238619
0.0274694
0.0218248
0.0279771
0.023098
0.0288165
0.0249517
0.0274142
0.0265216
0.0266743
0.028534
0.0261154
0.0301901
0.0244377
0.0294295
0.0241011
0.0276186
0.0239449
0.0276603
0.0249527
0.0257094
0.0274334
0.0253131
0.0283794
0.024632
0.0296838
0.0250867
0.0285943
0.0253133
0.027557
0.0248461
0.0266346
0.0257006
0.025892
0.0277464
0.0258319
0.0289171
0.0270494
0.0294267
0.0242414
0.0289321
0.0246362
0.0273511
0.0256854
0.0251445
0.0260216
0.0258305
0.0256969
0.0274943
0.0264748
0.0260586
0.0279947
0.02726
0.0295858
0.0248783
0.0275071
0.0259095
0.0255013
0.0237495
0.0245564
0.0252443
0.0261181
0.0262053
0.0277953
0.0272593
0.0302908
0.0289113
0.0386744
0.0564897
0.0460855
0.0312995
0.0283613
0.0457228
0.0704376
0.0777443
0.0777712
0.075762
0.0733601
0.071026
0.0688371
0.0668366
0.0650512
0.063426
0.0619602
0.0606352
0.0594487
0.0583732
0.0573818
0.0564724
0.0556344
0.0548665
0.0541467
0.0534709
0.052837
0.0522444
0.0516892
0.0511661
0.0506709
0.0502022
0.0497584
0.049338
0.0489387
0.0485571
0.0481933
0.047845
0.0475129
0.0471947
0.0468896
0.046596
0.0463137
0.0460422
0.0457809
0.0455292
0.045286
0.045051
0.0448238
0.0446039
0.0443916
0.0441855
0.0439863
0.0437921
0.0436045
0.0434214
0.0432446
0.0430718
0.0429047
0.0427409
0.0425827
0.0424273
0.0422771
0.0421286
0.041986
0.0418448
0.0417094
0.041575
0.0414466
0.0413187
0.041197
0.0410752
0.0409599
0.0408441
0.0407351
0.0406253
0.040523
0.0404193
0.0403237
0.0402266
0.0401382
0.0400484
0.0399684
0.039887
0.0398166
0.0397456
0.0396867
0.0396289
0.0395843
0.039543
0.0395171
0.0395004
0.0394947
0.0395094
0.0395367
0.0396034
0.0396776
0.0398222
0.0399763
0.0402529
0.0405516
0.0410756
0.0418322
0.0428756
0.0412671
0.0378157
0.0336766
0.0312213
0.0299586
0.0290564
0.0286078
0.0283148
0.0281757
0.0280808
0.0282527
0.0284164
0.0282395
0.0287711
0.0282161
0.0285359
0.0285272
0.0283832
0.0286461
0.0284569
0.0288154
0.0282479
0.0287762
0.0285275
0.0282689
0.0285229
0.0282499
0.0292318
0.028543
0.028936
0.0290785
0.028454
0.0285944
0.0281274
0.0291041
0.0285002
0.028943
0.0293665
0.0290289
0.0293531
0.0284246
0.0293219
0.028606
0.0287654
0.0290811
0.0285248
0.0289044
0.0284077
0.029797
0.0292978
0.0296332
0.0297602
0.0292089
0.0294335
0.0292061
0.0299388
0.0293932
0.029994
0.0307245
0.030908
0.0312884
0.0306999
0.0310091
0.0300401
0.0309714
0.0311041
0.0310445
0.0313721
0.0310076
0.0314349
0.0308998
0.0318549
0.0313038
0.0313153
0.0311017
0.030737
0.0307668
0.0299451
0.0301277
0.0294568
0.0303548
0.0288291
0.0292128
0.0288693
0.028605
0.0284972
0.0277597
0.0282327
0.02771
0.0285573
0.0275093
0.0285996
0.0278546
0.0281514
0.0283434
0.0283482
0.0290098
0.0286951
0.0294341
0.0295046
0.0302621
0.0289306
0.0298376
0.0289267
0.0286917
0.0286316
0.0278303
0.0283043
0.0278992
0.0283937
0.0279073
0.0290218
0.0278561
0.0280424
0.0279072
0.0279099
0.0279092
0.0274713
0.0281042
0.0279763
0.0286504
0.0285574
0.0297409
0.0288629
0.0290229
0.028772
0.0282788
0.0284619
0.0275999
0.0279674
0.02749
0.028139
0.0269655
0.027762
0.0274321
0.0276929
0.0279342
0.0277016
0.0283459
0.0282098
0.0288002
0.0284094
0.0293588
0.0282292
0.0285295
0.0280508
0.0278892
0.0277608
0.0274668
0.0278136
0.0275056
0.0281098
0.0281663
0.0288332
0.0280237
0.0287383
0.0284055
0.0283565
0.0281703
0.0278041
0.0278208
0.0275383
0.0280462
0.0279007
0.0284445
0.0286101
0.0290258
0.0285265
0.0291792
0.0283088
0.0283009
0.028123
0.0275768
0.0278227
0.0275243
0.0278805
0.0278243
0.0280928
0.02794
0.0283151
0.0284168
0.0288852
0.0283679
0.0289579
0.0285501
0.0280591
0.0281123
0.0273673
0.0272119
0.0271417
0.0275976
0.0278001
0.0282339
0.0286824
0.0296379
0.0302494
0.032521
0.0374105
0.0392165
0.0384709
0.0351226
0.0150988
0.0289288
0.0427709
0.051652
0.0566799
0.0589914
0.0597322
0.0594858
0.0588411
0.0580294
0.0571557
0.0562923
0.0554563
0.0546683
0.0539162
0.0531954
0.0525181
0.0518831
0.05129
0.0507256
0.0501892
0.0496818
0.049204
0.0487523
0.0483214
0.0479101
0.047518
0.0471453
0.0467904
0.0464507
0.0461241
0.0458113
0.0455108
0.0452236
0.0449472
0.0446808
0.0444237
0.0441757
0.0439367
0.0437063
0.0434835
0.0432677
0.0430586
0.0428561
0.0426599
0.0424701
0.0422855
0.0421064
0.0419319
0.0417627
0.0415978
0.041438
0.0412819
0.0411303
0.0409819
0.040838
0.0406969
0.0405602
0.0404255
0.0402951
0.0401664
0.0400421
0.0399194
0.0398011
0.0396839
0.0395713
0.0394595
0.0393522
0.0392455
0.0391437
0.0390422
0.0389457
0.0388494
0.0387584
0.0386675
0.0385822
0.0384972
0.0384184
0.03834
0.0382684
0.0381979
0.0381348
0.0380737
0.0380219
0.0379704
0.0379319
0.0379004
0.037874
0.03786
0.0378568
0.0378757
0.0379041
0.0379683
0.0380475
0.0381852
0.0383518
0.0385786
0.0391333
0.0389308
0.0365929
0.0392919
0.0371235
0.0346043
0.0329801
0.0316754
0.0307654
0.0301638
0.0297382
0.0291332
0.0295648
0.0290874
0.0285788
0.0290038
0.0282432
0.0287123
0.0285605
0.0284396
0.0285919
0.0281934
0.0286566
0.0280218
0.0288946
0.0278776
0.0279199
0.0282873
0.0277093
0.0290875
0.027591
0.0285505
0.028192
0.0276891
0.0283673
0.0277188
0.0290573
0.0276095
0.0286992
0.0282785
0.0279409
0.0285704
0.0273855
0.0292327
0.0278209
0.0284968
0.0281127
0.0276869
0.0284302
0.0276294
0.0296483
0.0279301
0.0286144
0.028412
0.0282404
0.0288158
0.0283283
0.0296375
0.0284328
0.0293243
0.0292582
0.029414
0.0295849
0.0293098
0.0302039
0.0291005
0.0307538
0.029625
0.0296629
0.0300064
0.0296885
0.0305209
0.0296909
0.0308716
0.0293892
0.0308385
0.0297266
0.0301301
0.029896
0.0292978
0.0297688
0.0288133
0.030289
0.0280194
0.0296645
0.0278359
0.0287903
0.0279466
0.0275615
0.0280994
0.0272132
0.0287323
0.0274208
0.028824
0.0265615
0.0284821
0.0275087
0.0278418
0.0279567
0.0277177
0.0285523
0.0281643
0.0293132
0.027806
0.0301033
0.0275302
0.0289596
0.0280107
0.0275232
0.0280113
0.0274688
0.0282462
0.0274011
0.0289023
0.0269609
0.0286346
0.0272995
0.0277989
0.0272899
0.0272102
0.0276742
0.0272469
0.0283034
0.0275564
0.0291913
0.0272522
0.0291784
0.027591
0.0281191
0.0279556
0.0272668
0.027858
0.0271281
0.0282962
0.0269273
0.0283356
0.0266055
0.0276691
0.0272126
0.0271619
0.0275746
0.0273619
0.028059
0.0275093
0.0286402
0.0271343
0.0286363
0.0271851
0.0283724
0.0271019
0.0273721
0.0274491
0.0270456
0.027652
0.0273782
0.028217
0.027142
0.028566
0.0272587
0.028206
0.0272265
0.0278011
0.0273032
0.0272495
0.0275541
0.0272786
0.027841
0.0276814
0.0281234
0.0273952
0.0289059
0.027205
0.0283586
0.0274001
0.0272595
0.0274478
0.027192
0.0273808
0.0276444
0.0272865
0.027332
0.0276815
0.0276274
0.0280142
0.0273615
0.0283629
0.0275835
0.0276
0.0275316
0.0274389
0.0272087
0.0271763
0.0272048
0.0275111
0.0274176
0.0281523
0.028183
0.029572
0.0295248
0.0304567
0.0321618
0.0349847
0.0340244
0.00552737
0.0118407
0.0195543
0.0283668
0.0361684
0.0420775
0.0462296
0.0486715
0.0500084
0.0506173
0.0507638
0.0506554
0.0504099
0.0500931
0.0497268
0.0493359
0.0489385
0.048543
0.0481533
0.0477653
0.0473855
0.0470182
0.0466658
0.0463256
0.0459941
0.0456731
0.0453633
0.0450661
0.0447802
0.0445031
0.0442343
0.0439747
0.0437241
0.0434831
0.0432496
0.0430229
0.042803
0.0425899
0.042384
0.0421846
0.0419908
0.0418024
0.0416191
0.0414412
0.0412684
0.0411008
0.0409372
0.040778
0.0406226
0.0404714
0.0403241
0.0401808
0.0400406
0.039904
0.0397703
0.0396401
0.0395126
0.0393886
0.0392665
0.0391477
0.0390306
0.0389169
0.0388047
0.0386961
0.0385888
0.0384849
0.0383821
0.0382827
0.0381844
0.0380896
0.0379956
0.0379054
0.0378158
0.03773
0.0376449
0.0375638
0.0374836
0.0374076
0.0373328
0.0372624
0.0371935
0.0371298
0.0370679
0.0370129
0.0369578
0.0369111
0.0368715
0.0368352
0.0368045
0.0367843
0.0367741
0.0367755
0.0367914
0.0368246
0.0368828
0.0369668
0.03704
0.037406
0.036869
0.0344568
0.0379255
0.0379014
0.0364097
0.034872
0.0335533
0.0324785
0.0317148
0.0311455
0.0302789
0.030638
0.0299564
0.0292939
0.0294779
0.0288278
0.0290299
0.0288901
0.0287672
0.0288243
0.0283665
0.0286581
0.0282336
0.0289481
0.0279779
0.0279211
0.0282668
0.0277057
0.0287117
0.027673
0.0282879
0.0279368
0.0274971
0.0281684
0.0276617
0.0286911
0.0276476
0.0284541
0.0279126
0.0275665
0.0281021
0.0271825
0.0285945
0.0277196
0.0282124
0.027775
0.0274201
0.028093
0.0274281
0.0289617
0.0277309
0.0280266
0.0278964
0.0277767
0.0283396
0.0279469
0.0290034
0.0282401
0.0289636
0.0286159
0.0286758
0.0287368
0.0285684
0.0294474
0.0287327
0.0300776
0.0290696
0.0289586
0.0292039
0.0289771
0.0297462
0.0291691
0.0299205
0.028767
0.0300284
0.0291658
0.0295923
0.0294352
0.0290053
0.0294287
0.0285841
0.0296827
0.0281961
0.0294709
0.0278378
0.0286581
0.0279797
0.0276307
0.0280667
0.0272499
0.0284637
0.0276429
0.028696
0.0268388
0.0282751
0.0274447
0.027637
0.0276693
0.0274467
0.0280919
0.0276582
0.0285966
0.0276526
0.0293872
0.0274711
0.0286843
0.0279476
0.0275407
0.0279159
0.0274668
0.0281359
0.0274211
0.0284454
0.0271341
0.0285893
0.0274501
0.027692
0.0272899
0.0272345
0.0275819
0.0271483
0.0280648
0.0274306
0.0285184
0.0271067
0.028705
0.0273955
0.027902
0.0278187
0.0273009
0.0278011
0.0271612
0.0281074
0.027236
0.0283846
0.0268625
0.0275796
0.0271683
0.0270894
0.0273481
0.0271462
0.0276984
0.0272061
0.0280178
0.0270306
0.0282118
0.0271119
0.0283296
0.0271861
0.0273383
0.0274095
0.0270448
0.0274891
0.0271663
0.0278084
0.0270972
0.0281021
0.0270481
0.027897
0.027041
0.0276924
0.0272816
0.0272225
0.0274198
0.0271532
0.0275778
0.0273558
0.027672
0.0271294
0.0282496
0.0270498
0.0280604
0.0272727
0.0271598
0.0273068
0.027137
0.0272409
0.0275929
0.0271088
0.0271118
0.0274045
0.0273392
0.0276102
0.0270679
0.027744
0.0272083
0.0273543
0.0272149
0.0273982
0.0273008
0.0273328
0.0271576
0.0274897
0.0271294
0.0280053
0.0275508
0.0291562
0.0287645
0.0280032
0.0284348
0.0311931
0.0319838
0.00217495
0.00492547
0.00829336
0.0131587
0.0193435
0.0257944
0.0314845
0.0360825
0.0395227
0.0418796
0.0434073
0.0443526
0.0449217
0.0452394
0.0453645
0.045368
0.0452962
0.0451751
0.0450175
0.0448354
0.0446369
0.0444299
0.0442189
0.0440034
0.0437841
0.0435646
0.0433472
0.043134
0.0429243
0.0427162
0.0425112
0.0423105
0.0421145
0.0419241
0.0417372
0.0415536
0.0413741
0.0411989
0.0410286
0.0408625
0.0406998
0.0405407
0.0403851
0.0402333
0.0400855
0.0399413
0.0397999
0.0396616
0.0395263
0.0393942
0.0392651
0.0391391
0.0390155
0.0388947
0.0387761
0.0386603
0.0385467
0.038436
0.0383269
0.0382202
0.0381151
0.0380124
0.0379113
0.0378129
0.0377158
0.0376212
0.0375278
0.0374369
0.0373471
0.03726
0.037174
0.0370906
0.0370081
0.0369284
0.0368497
0.0367737
0.036699
0.0366271
0.0365566
0.0364892
0.0364233
0.0363611
0.0363004
0.0362449
0.0361896
0.0361389
0.0360943
0.0360536
0.036014
0.035984
0.0359562
0.0359404
0.0359281
0.0359317
0.035943
0.0359734
0.0359631
0.0361904
0.0355488
0.0333535
0.0361521
0.0372919
0.0369761
0.0359052
0.0348008
0.0337506
0.0329423
0.0323062
0.0313286
0.0314936
0.0308248
0.0300873
0.0300766
0.029486
0.0294776
0.0293219
0.0291825
0.0291668
0.0286943
0.0288378
0.0285318
0.0290224
0.0282918
0.028126
0.0283933
0.0278837
0.0285395
0.0278882
0.0282124
0.0279444
0.0275435
0.0281161
0.0277223
0.0284172
0.0277934
0.0283002
0.0278707
0.0275095
0.0279076
0.0271772
0.0281367
0.0277073
0.0280023
0.0277014
0.027388
0.0279379
0.0274008
0.0284297
0.0277081
0.0277886
0.0276819
0.0275744
0.0280588
0.0277643
0.0285543
0.0281362
0.0286889
0.0283433
0.0283142
0.0282951
0.0281521
0.0289332
0.0284812
0.0294222
0.0287798
0.0285967
0.0287387
0.0285567
0.0292192
0.0288342
0.0292808
0.0285273
0.0293473
0.0288694
0.0291626
0.0290914
0.0288093
0.0291705
0.028466
0.0292344
0.0283426
0.0291481
0.0280702
0.0285216
0.028105
0.0278129
0.0281394
0.0274323
0.0283243
0.0278322
0.0285414
0.027264
0.0281025
0.0276051
0.0276819
0.0276736
0.0274628
0.0279339
0.0275029
0.028231
0.0276582
0.028765
0.027619
0.0283871
0.0279944
0.027678
0.0279567
0.0275991
0.0281387
0.0275603
0.0282
0.0274138
0.0284027
0.0276976
0.0277507
0.0274508
0.0274025
0.0276619
0.0272705
0.0280121
0.027508
0.0281456
0.0272664
0.0282714
0.0275016
0.027789
0.0277833
0.0274253
0.0278351
0.0273072
0.0280282
0.0274931
0.0283036
0.0272575
0.027623
0.0273559
0.0272487
0.0273908
0.0271939
0.0276033
0.0271543
0.0277298
0.0271278
0.0278711
0.0272295
0.0281316
0.0274098
0.0274243
0.0274872
0.0271886
0.0275074
0.0271824
0.027655
0.0271871
0.0277877
0.0271292
0.0276618
0.0271329
0.0275755
0.0273527
0.0273112
0.0274447
0.0272098
0.0275182
0.0272815
0.0274865
0.0270957
0.0278082
0.0270932
0.0277587
0.0272983
0.0271751
0.0272874
0.0271801
0.0272432
0.0275617
0.0271479
0.0271047
0.0273265
0.0272632
0.027447
0.0269935
0.0274324
0.0270885
0.0271964
0.0270468
0.0273517
0.0273617
0.0274452
0.0272348
0.027529
0.0271034
0.0279412
0.0273082
0.02888
0.0286243
0.0268594
0.0266245
0.0285242
0.0299478
0.000945262
0.00212323
0.00355461
0.005596
0.00881313
0.0133281
0.0185137
0.0234862
0.0279092
0.0316382
0.0345924
0.0368081
0.0384135
0.0395639
0.0403622
0.0409099
0.0412766
0.0415172
0.04166
0.0417234
0.0417358
0.0417128
0.0416621
0.0415889
0.0414993
0.0413969
0.0412852
0.0411674
0.0410437
0.0409143
0.0407819
0.040648
0.0405137
0.04038
0.0402452
0.0401102
0.0399761
0.0398434
0.0397127
0.0395836
0.0394555
0.0393289
0.039204
0.0390812
0.0389608
0.0388424
0.0387254
0.0386102
0.0384969
0.0383856
0.0382766
0.0381695
0.0380639
0.0379602
0.0378581
0.0377579
0.0376595
0.0375632
0.037468
0.0373745
0.0372821
0.0371916
0.0371024
0.0370152
0.0369289
0.0368446
0.0367612
0.0366796
0.0365991
0.0365207
0.0364431
0.0363675
0.0362928
0.0362201
0.0361483
0.0360786
0.03601
0.0359435
0.0358782
0.0358151
0.0357533
0.0356942
0.0356362
0.0355823
0.0355285
0.0354777
0.0354296
0.0353876
0.0353445
0.0353089
0.0352703
0.0352436
0.0352141
0.0351981
0.0351799
0.035174
0.0351167
0.0352407
0.0345835
0.0326657
0.0346647
0.0361547
0.0366722
0.036242
0.0354937
0.034589
0.0338321
0.0331864
0.0322008
0.0321731
0.0315773
0.0308209
0.0306745
0.0301052
0.0299592
0.0297643
0.029601
0.0295292
0.0290571
0.0290928
0.0288393
0.0291441
0.0286149
0.028401
0.0285858
0.0281174
0.028542
0.0281018
0.0282581
0.0280359
0.0276768
0.0281459
0.0278226
0.0282889
0.0279127
0.0282269
0.0279174
0.0275717
0.0278524
0.0272364
0.0278904
0.0276957
0.0278932
0.0276929
0.0274332
0.0278737
0.0274279
0.0281155
0.0276872
0.0276953
0.0275955
0.0274965
0.0278942
0.0276678
0.0282715
0.0280468
0.0284537
0.0282059
0.0281267
0.0280512
0.0279096
0.0285734
0.0282758
0.0289171
0.028544
0.0283691
0.0284408
0.0282814
0.0288363
0.0285732
0.0288491
0.0283646
0.0288641
0.0286229
0.0288352
0.0288098
0.0286362
0.0289472
0.0283657
0.0289251
0.028386
0.0288874
0.02822
0.0284644
0.0282024
0.0279914
0.0282352
0.0276292
0.0282884
0.0279793
0.0284408
0.0275963
0.0280632
0.0277737
0.0278123
0.027779
0.027584
0.02792
0.0274976
0.0280528
0.0276861
0.0283933
0.0277252
0.0282134
0.0280256
0.027819
0.0280381
0.0277543
0.0281846
0.027712
0.0281251
0.0276404
0.0282783
0.0278809
0.0278751
0.0276415
0.0276083
0.0278025
0.0274576
0.0280482
0.0276377
0.0280134
0.0274433
0.0280396
0.0276084
0.0277821
0.0278044
0.0275615
0.0279009
0.0274686
0.0280242
0.0276878
0.0282425
0.0275741
0.0277571
0.0275748
0.0274728
0.0275391
0.0273434
0.0276369
0.0272129
0.0276226
0.027244
0.0277067
0.0273601
0.0279726
0.0275664
0.0275537
0.0276045
0.0273641
0.0275965
0.0272818
0.0276255
0.0272969
0.0276566
0.0272447
0.0275618
0.0272584
0.0275363
0.0274288
0.0274238
0.0275239
0.0273221
0.0275463
0.0273081
0.0274299
0.0271296
0.0275868
0.0271583
0.0275778
0.0273246
0.0272298
0.0273179
0.0272516
0.0272931
0.0275338
0.0272425
0.0271788
0.0273381
0.0272744
0.0273953
0.0270014
0.0272873
0.0270631
0.0271114
0.026971
0.027301
0.0273838
0.0274868
0.0273295
0.0275482
0.0272018
0.0278676
0.0272601
0.0286504
0.0285731
0.0263252
0.0257752
0.0268659
0.0283108
0.00049687
0.000983904
0.00159441
0.00241849
0.00373159
0.00589047
0.00914961
0.0131641
0.0173652
0.0213351
0.0249341
0.028064
0.0306657
0.0327748
0.0343983
0.03564
0.0365818
0.0372994
0.0378399
0.0382363
0.0385286
0.038743
0.0388958
0.0389974
0.0390584
0.0390895
0.0390974
0.0390869
0.0390602
0.0390207
0.038971
0.0389129
0.0388482
0.0387781
0.0387021
0.038622
0.038539
0.038454
0.0383678
0.03828
0.0381905
0.0381003
0.0380097
0.0379193
0.0378294
0.0377396
0.0376496
0.03756
0.0374711
0.037383
0.037296
0.0372097
0.0371239
0.0370391
0.036955
0.0368722
0.0367904
0.0367097
0.0366297
0.0365506
0.0364723
0.0363951
0.0363188
0.0362438
0.0361694
0.0360963
0.0360238
0.0359526
0.0358822
0.0358133
0.035745
0.0356781
0.0356119
0.0355471
0.0354831
0.0354205
0.0353589
0.0352987
0.0352394
0.0351817
0.0351251
0.0350704
0.0350164
0.0349655
0.0349145
0.0348661
0.0348168
0.0347748
0.0347315
0.0346933
0.0346486
0.0346151
0.0345754
0.0345461
0.0345089
0.0344776
0.0343938
0.0344393
0.0337992
0.0321468
0.033529
0.0349514
0.0358867
0.0360216
0.0356989
0.0350291
0.0343981
0.0337882
0.0328679
0.0327004
0.0321715
0.0314364
0.0312063
0.0306458
0.0304134
0.0301764
0.0299865
0.0298701
0.0294042
0.029365
0.0291303
0.0293015
0.0288994
0.0286789
0.0287971
0.0283571
0.0286294
0.0282979
0.0283592
0.028158
0.027836
0.0282169
0.0279347
0.0282517
0.0280069
0.0282104
0.0279773
0.0276669
0.0278632
0.0273174
0.0277778
0.0276909
0.0278428
0.0277039
0.0274956
0.027852
0.0274684
0.0279427
0.0276667
0.0276588
0.0275653
0.0274749
0.0277972
0.0276127
0.0280873
0.0279655
0.0282613
0.0281051
0.0280113
0.0279035
0.027759
0.0283128
0.0281007
0.0285485
0.0283284
0.0281916
0.0282264
0.0280816
0.0285435
0.0283526
0.0285327
0.0282107
0.028529
0.0284021
0.0285722
0.0285682
0.0284674
0.0287407
0.0282578
0.0286883
0.0283564
0.0286957
0.0282788
0.0284344
0.0282617
0.028127
0.0283145
0.0277962
0.0282954
0.0280893
0.0283971
0.0278229
0.0281039
0.0279188
0.0279515
0.0279059
0.0277296
0.0279674
0.027554
0.0279757
0.0277185
0.0281994
0.0277904
0.0281343
0.0280482
0.0279324
0.0281179
0.027893
0.0282395
0.0278456
0.0281251
0.0278088
0.028234
0.0280066
0.0280021
0.0278185
0.0278034
0.0279514
0.0276482
0.0281213
0.0277743
0.0279985
0.0275991
0.0279649
0.0277013
0.0278285
0.0278547
0.0276876
0.0279729
0.0276151
0.0280529
0.0278341
0.0282282
0.0277992
0.0279077
0.0277762
0.0276942
0.0277157
0.0275219
0.0277272
0.0273178
0.0276104
0.0273528
0.0276586
0.02747
0.0278953
0.0276703
0.0276781
0.0277236
0.02753
0.0277045
0.0274037
0.0276541
0.027403
0.0276243
0.0273509
0.0275444
0.0273663
0.0275543
0.0275032
0.0275301
0.0276137
0.0274413
0.0276073
0.0273717
0.0274346
0.0271861
0.027489
0.0272153
0.0274941
0.0273486
0.0272898
0.0273645
0.0273244
0.0273546
0.0275273
0.0273296
0.02727
0.0273847
0.027318
0.0273935
0.0270401
0.0272279
0.0270688
0.0270774
0.0269478
0.0272593
0.0273824
0.0274939
0.0273971
0.0275544
0.0273228
0.0277871
0.0273086
0.0284488
0.0284872
0.0261286
0.0254085
0.0259216
0.0271375
0.00034182
0.000534352
0.000789554
0.00112399
0.0016322
0.00248551
0.00393219
0.0061872
0.00918272
0.012617
0.0161043
0.0193696
0.0223779
0.0250852
0.0274198
0.0293893
0.0310051
0.0323057
0.0333506
0.0341797
0.0348379
0.0353613
0.0357784
0.0361079
0.0363652
0.0365667
0.0367243
0.0368458
0.0369354
0.0369988
0.0370423
0.0370687
0.0370816
0.037082
0.0370724
0.0370541
0.0370285
0.0369969
0.03696
0.0369182
0.0368719
0.0368224
0.03677
0.0367156
0.0366595
0.0366013
0.0365412
0.0364801
0.0364182
0.0363557
0.036293
0.0362297
0.0361657
0.0361017
0.0360376
0.0359737
0.0359101
0.0358467
0.0357832
0.03572
0.0356569
0.0355943
0.0355321
0.0354705
0.0354091
0.0353483
0.0352877
0.0352279
0.0351686
0.0351101
0.035052
0.0349947
0.0349378
0.0348818
0.0348263
0.0347718
0.0347179
0.0346649
0.0346126
0.0345613
0.0345107
0.0344614
0.0344126
0.0343659
0.0343189
0.0342741
0.0342264
0.0341851
0.0341436
0.0341047
0.0340576
0.0340204
0.0339747
0.0339367
0.033887
0.0338377
0.0337394
0.0337239
0.0331124
0.0316936
0.0326624
0.0338769
0.0349138
0.035429
0.0355059
0.0351164
0.034674
0.0341315
0.0333254
0.0330797
0.0326022
0.0319137
0.0316404
0.0310907
0.030807
0.0305358
0.0303213
0.0301698
0.0297126
0.0296225
0.029392
0.0294694
0.0291413
0.0289316
0.0290005
0.0285807
0.02875
0.028473
0.0284783
0.0282858
0.0279942
0.0283039
0.028045
0.0282616
0.0280839
0.0282211
0.0280338
0.0277608
0.0278998
0.0274012
0.0277342
0.0276935
0.0278205
0.0277195
0.0275534
0.0278466
0.0275068
0.027846
0.0276477
0.0276418
0.0275563
0.0274748
0.0277369
0.0275772
0.0279587
0.0278904
0.0281106
0.0280122
0.0279222
0.0278007
0.0276555
0.0281156
0.0279488
0.0282744
0.028133
0.0280341
0.0280537
0.027921
0.0283068
0.0281582
0.0282816
0.0280569
0.0282735
0.0282009
0.0283454
0.0283524
0.028299
0.0285432
0.0281374
0.028485
0.028279
0.0285356
0.0282729
0.0283978
0.0282831
0.02821
0.0283618
0.0279198
0.0283101
0.0281649
0.0283785
0.0279704
0.0281596
0.0280323
0.0280684
0.02802
0.0278629
0.028031
0.0276287
0.02795
0.0277502
0.0280971
0.0278297
0.0280962
0.0280628
0.0280129
0.0281792
0.0280021
0.0282859
0.0279523
0.0281503
0.0279306
0.0282329
0.0280947
0.0281078
0.0279654
0.0279678
0.028084
0.0278174
0.0282017
0.0279004
0.0280345
0.0277304
0.0279646
0.0277831
0.0278901
0.0279138
0.0277957
0.0280385
0.0277381
0.0280914
0.027944
0.0282423
0.0279581
0.0280413
0.027945
0.0278859
0.0278834
0.0276947
0.0278352
0.0274361
0.0276451
0.0274514
0.0276653
0.0275596
0.0278724
0.0277444
0.0277812
0.0278276
0.0276713
0.0278071
0.0275214
0.0277054
0.0274984
0.0276381
0.0274423
0.0275664
0.027455
0.0275953
0.0275718
0.0276202
0.0276953
0.0275478
0.0276741
0.0274433
0.0274653
0.0272474
0.0274538
0.0272632
0.0274609
0.0273712
0.0273427
0.0274111
0.0273877
0.027412
0.0275359
0.0273982
0.0273532
0.0274389
0.0273686
0.0274111
0.0270865
0.0272107
0.027086
0.027071
0.0269521
0.0272291
0.027369
0.0274845
0.0274328
0.0275573
0.0274167
0.0277241
0.0273929
0.0282716
0.0283637
0.0260712
0.0252771
0.0254131
0.0263471
0.000285607
0.000365888
0.000469264
0.000604524
0.000799959
0.00111715
0.00166664
0.00261186
0.0041113
0.00626657
0.00895158
0.0118791
0.014834
0.0175884
0.0201645
0.0225384
0.0246524
0.0264935
0.0280843
0.029407
0.0305044
0.0314144
0.0321684
0.0327903
0.0333014
0.0337231
0.0340719
0.0343607
0.0345982
0.034792
0.0349511
0.0350809
0.0351871
0.0352718
0.0353373
0.035388
0.0354259
0.0354532
0.0354706
0.0354797
0.0354816
0.0354772
0.0354672
0.0354525
0.0354335
0.0354102
0.0353834
0.0353537
0.0353215
0.0352873
0.0352512
0.0352131
0.0351732
0.0351321
0.0350898
0.0350468
0.035003
0.0349585
0.0349131
0.0348672
0.0348208
0.0347742
0.0347274
0.0346804
0.034633
0.0345856
0.0345381
0.0344907
0.0344434
0.0343964
0.0343493
0.0343025
0.0342559
0.0342095
0.0341634
0.0341178
0.0340726
0.0340277
0.0339831
0.033939
0.0338953
0.0338524
0.0338095
0.0337681
0.0337261
0.0336859
0.0336422
0.0336023
0.0335635
0.0335258
0.033479
0.0334404
0.0333917
0.0333481
0.0332904
0.0332286
0.0331235
0.0330598
0.03248
0.0312609
0.0319685
0.0329679
0.0339383
0.0346375
0.0350128
0.0349046
0.0346803
0.0342465
0.0335819
0.0333088
0.0328774
0.0322503
0.0319633
0.0314335
0.0311235
0.0308292
0.0305951
0.0304174
0.0299719
0.0298483
0.0296168
0.0296279
0.0293419
0.0291474
0.0291808
0.0287771
0.028875
0.028625
0.0285951
0.0284059
0.0281381
0.0283908
0.0281455
0.0282918
0.0281472
0.0282409
0.028081
0.0278408
0.0279406
0.027477
0.0277233
0.0276994
0.0278088
0.0277321
0.0275984
0.027844
0.0275367
0.0277858
0.0276282
0.027627
0.0275503
0.0274774
0.027693
0.027549
0.0278612
0.02782
0.0279875
0.0279212
0.0278394
0.0277157
0.0275738
0.0279579
0.0278141
0.0280578
0.027956
0.0278855
0.027901
0.0277793
0.0281044
0.027981
0.0280686
0.0279031
0.0280605
0.0280137
0.0281389
0.0281524
0.028129
0.0283504
0.0280053
0.0282974
0.0281702
0.0283824
0.0282202
0.0283396
0.0282683
0.0282419
0.028373
0.0279986
0.0283147
0.0282078
0.0283603
0.0280581
0.0282015
0.028111
0.0281514
0.0281067
0.0279682
0.0280872
0.0276991
0.0279452
0.0277765
0.0280372
0.0278501
0.0280714
0.0280676
0.028062
0.0282163
0.0280787
0.0283163
0.0280305
0.0281764
0.0280143
0.028242
0.0281533
0.028184
0.0280771
0.0280948
0.02819
0.0279562
0.0282738
0.0280069
0.0280855
0.0278368
0.0279933
0.0278535
0.0279488
0.0279688
0.0278819
0.0280906
0.0278354
0.0281275
0.0280252
0.0282623
0.0280687
0.0281465
0.0280768
0.0280384
0.0280248
0.0278448
0.0279393
0.0275507
0.0276994
0.0275389
0.027695
0.0276317
0.027873
0.0277979
0.0278588
0.0279097
0.0277836
0.0278933
0.0276235
0.0277599
0.0275794
0.0276691
0.0275178
0.0276024
0.0275271
0.0276403
0.0276309
0.027691
0.0277609
0.0276336
0.0277328
0.0275089
0.0275034
0.0273051
0.0274489
0.0273028
0.0274508
0.0273904
0.027384
0.0274501
0.0274374
0.0274587
0.0275488
0.0274484
0.0274189
0.0274867
0.0274137
0.0274327
0.0271298
0.0272115
0.0271053
0.027077
0.0269689
0.0272079
0.0273496
0.0274647
0.0274437
0.0275528
0.0274752
0.0276836
0.0274768
0.0281201
0.0282277
0.0260646
0.0252563
0.0251594
0.025835
0.000263423
0.000299149
0.000345476
0.00040044
0.000476536
0.000593312
0.00078933
0.00113481
0.00173123
0.0027079
0.00418144
0.00616558
0.00855404
0.0110673
0.0136065
0.0160033
0.0182437
0.0203375
0.0222626
0.0239827
0.0255048
0.0268328
0.0279651
0.0289299
0.0297515
0.0304476
0.0310371
0.0315382
0.0319638
0.0323237
0.0326291
0.032889
0.033111
0.0333001
0.0334589
0.0335938
0.0337081
0.0338052
0.0338866
0.0339539
0.0340091
0.0340545
0.0340907
0.0341195
0.0341408
0.0341562
0.0341659
0.0341709
0.0341713
0.0341679
0.0341608
0.0341503
0.0341368
0.0341207
0.0341024
0.0340821
0.03406
0.0340361
0.0340104
0.0339834
0.0339551
0.0339259
0.0338957
0.0338646
0.0338325
0.0337998
0.0337663
0.0337325
0.0336982
0.0336637
0.0336286
0.0335933
0.0335577
0.033522
0.0334861
0.0334503
0.0334144
0.0333784
0.0333424
0.0333064
0.0332704
0.0332347
0.0331987
0.0331635
0.0331274
0.0330924
0.0330543
0.0330171
0.0329816
0.0329465
0.0329021
0.0328639
0.0328143
0.0327676
0.0327051
0.0326346
0.0325279
0.032425
0.031878
0.0308285
0.0313764
0.0321986
0.0330429
0.0337869
0.034331
0.034461
0.0344506
0.0341634
0.0336507
0.033391
0.033008
0.0324509
0.0321714
0.0316725
0.0313553
0.0310498
0.0308025
0.0306072
0.0301763
0.0300321
0.0297996
0.0297635
0.0295022
0.0293224
0.0293299
0.0289403
0.0289876
0.0287511
0.0286978
0.0285103
0.0282611
0.0284678
0.0282315
0.0283266
0.0281967
0.0282589
0.0281154
0.0279014
0.027974
0.0275393
0.0277248
0.0277043
0.027798
0.0277373
0.0276273
0.0278357
0.0275541
0.0277407
0.0276053
0.0276069
0.0275386
0.0274734
0.0276534
0.0275202
0.0277791
0.027751
0.02788
0.0278299
0.027755
0.0276353
0.0274996
0.0278231
0.0276905
0.0278757
0.0277933
0.0277411
0.0277574
0.0276459
0.0279226
0.0278145
0.0278778
0.0277492
0.0278699
0.0278355
0.0279441
0.0279617
0.027957
0.0281595
0.0278628
0.0281157
0.0280399
0.0282264
0.0281332
0.0282566
0.0282204
0.0282275
0.0283488
0.0280345
0.0282996
0.028219
0.0283302
0.0280987
0.0282186
0.0281545
0.0281969
0.0281598
0.0280388
0.028124
0.0277535
0.0279437
0.0277935
0.0279945
0.0278544
0.0280456
0.0280598
0.0280821
0.0282285
0.0281234
0.028327
0.0280803
0.0281915
0.028066
0.0282454
0.0281862
0.0282295
0.0281532
0.0281833
0.0282653
0.0280614
0.0283289
0.0280897
0.0281328
0.0279183
0.0280265
0.0279095
0.0279948
0.0280117
0.0279451
0.0281261
0.0279073
0.0281537
0.0280816
0.0282765
0.0281421
0.0282205
0.0281726
0.0281505
0.0281338
0.0279651
0.0280275
0.0276513