/*--------------------------------*- C++ -*----------------------------------*\
| =========                 |                                                 |
| \\      /  F ield         | foam-extend: Open Source CFD                    |
|  \\    /   O peration     | Version:     3.2                                |
|   \\  /    A nd           | Web:         http://www.foam-extend.org         |
|    \\/     M anipulation  | For copyright notice see file Copyright         |
\*---------------------------------------------------------------------------*/
FoamFile
{
    version     2.0;
    format      ascii;
    class       areaScalarField;
    location    "160";
    object      kTempA;
}
// * * * * * * * * * * * * * * * * * * * * * * * * * * * * * * * * * * * * * //

dimensions      [0 2 -2 0 0 0 0];

internalField   nonuniform List<scalar> 
300
(
0.178319
0.142008
0.0985161
0.0808966
0.0742543
0.070771
0.0682485
0.0660411
0.064009
0.0621651
0.0605192
0.0590479
0.0577168
0.0565291
0.0554604
0.0544888
0.0536003
0.0527801
0.052029
0.051344
0.0507081
0.0501105
0.0495495
0.0490226
0.0485286
0.0480608
0.0476189
0.0471986
0.0468006
0.0464232
0.0460631
0.0457199
0.0453907
0.0450766
0.0447755
0.0444878
0.0442104
0.0439442
0.0436874
0.0434401
0.0432024
0.0429725
0.0427508
0.0425359
0.0423281
0.0421272
0.0419325
0.0417443
0.0415607
0.0413837
0.0412103
0.0410432
0.0408798
0.040722
0.0405674
0.0404178
0.0402711
0.0401293
0.0399882
0.0398532
0.0397189
0.0395911
0.0394636
0.0393426
0.0392216
0.0391074
0.0389925
0.038885
0.038776
0.0386751
0.0385726
0.0384788
0.0383829
0.038297
0.0382082
0.038131
0.0380509
0.0379838
0.0379142
0.0378596
0.0378031
0.0377642
0.0377258
0.0377062
0.0376944
0.0376982
0.0377172
0.0377625
0.0378301
0.0379286
0.0380715
0.0382506
0.0385244
0.0388291
0.0393616
0.0399128
0.0411466
0.0416531
0.0485134
0.0440894
0.0218303
0.021092
0.0223525
0.0226137
0.0231707
0.0237592
0.0239881
0.0245809
0.0255668
0.0238138
0.025994
0.02708
0.0252719
0.0278128
0.0255798
0.02626
0.0263121
0.026288
0.0279409
0.0254724
0.0274478
0.0252343
0.0282327
0.0263765
0.0253187
0.0292111
0.0245659
0.0298105
0.0265384
0.0283534
0.0279323
0.024142
0.0286359
0.0241839
0.0293614
0.0263326
0.029263
0.0292995
0.0260351
0.0312323
0.0228904
0.0282298
0.0260627
0.0283519
0.0283964
0.0250985
0.0312247
0.023556
0.0310837
0.0281214
0.0293999
0.0283727
0.0256766
0.0293339
0.0248286
0.0306804
0.0281424
0.0307675
0.0305983
0.0309386
0.030565
0.0256938
0.0322456
0.0264291
0.0319481
0.0305492
0.0294174
0.0307987
0.0268306
0.0326612
0.0286702
0.0329261
0.0276025
0.0307334
0.028071
0.0290584
0.0288646
0.0259511
0.0305075
0.0236661
0.0304614
0.0246086
0.0294525
0.0251738
0.0276956
0.0262171
0.0244488
0.0286873
0.0214901
0.028671
0.0243479
0.0307776
0.0238873
0.0285467
0.0270886
0.0285913
0.0291921
0.0266808
0.0311452
0.0251128
0.0318361
0.0238989
0.0311106
0.0246238
0.0279115
0.0266588
0.0249163
0.027688
0.024255
0.0299369
0.0231555
0.0286206
0.0234184
0.0281643
0.025304
0.0270078
0.0257908
0.0256805
0.0288048
0.0246119
0.0309495
0.0254106
0.0311676
0.0247489
0.0293725
0.0254622
0.0265908
0.0269068
0.0238619
0.0274694
0.0218248
0.0279771
0.023098
0.0288165
0.0249517
0.0274142
0.0265216
0.0266743
0.028534
0.0261154
0.0301901
0.0244377
0.0294295
0.0241011
0.0276186
0.0239449
0.0276603
0.0249527
0.0257094
0.0274334
0.0253131
0.0283794
0.024632
0.0296838
0.0250867
0.0285943
0.0253133
0.027557
0.0248461
0.0266346
0.0257006
0.025892
0.0277464
0.0258319
0.0289171
0.0270494
0.0294267
0.0242414
0.0289321
0.0246362
0.0273511
0.0256854
0.0251445
0.0260216
0.0258305
0.0256969
0.0274943
0.0264748
0.0260586
0.0279947
0.02726
0.0295858
0.0248783
0.0275071
0.0259095
0.0255013
0.0237495
0.0245564
0.0252443
0.0261181
0.0262053
0.0277953
0.0272593
0.0302908
0.0289113
0.0386744
0.0564897
0.0460855
0.0312995
0.0283613
)
;

boundaryField
{
    inlet
    {
        type            calculated;
        value           uniform 0;
    }
    outlet
    {
        type            calculated;
        value           uniform 0;
    }
    sideWall
    {
        type            empty;
    }
}


// ************************************************************************* //
