/*--------------------------------*- C++ -*----------------------------------*\
| =========                 |                                                 |
| \\      /  F ield         | foam-extend: Open Source CFD                    |
|  \\    /   O peration     | Version:     3.2                                |
|   \\  /    A nd           | Web:         http://www.foam-extend.org         |
|    \\/     M anipulation  | For copyright notice see file Copyright         |
\*---------------------------------------------------------------------------*/
FoamFile
{
    version     2.0;
    format      ascii;
    class       volVectorField;
    location    "160";
    object      meshCentreN;
}
// * * * * * * * * * * * * * * * * * * * * * * * * * * * * * * * * * * * * * //

dimensions      [0 1 0 0 0 0 0];

internalField   nonuniform List<vector> 
96000
(
(0.025 0.01 0.00140625)
(0.075 0.01 0.00140625)
(0.125 0.01 0.00140625)
(0.175 0.01 0.00140625)
(0.225 0.01 0.00140625)
(0.275 0.01 0.00140625)
(0.325 0.01 0.00140625)
(0.375 0.01 0.00140625)
(0.425 0.01 0.00140625)
(0.475 0.01 0.00140625)
(0.525 0.01 0.00140625)
(0.575 0.01 0.00140625)
(0.625 0.01 0.00140625)
(0.675 0.01 0.00140625)
(0.725 0.01 0.00140625)
(0.775 0.01 0.00140625)
(0.825 0.01 0.00140625)
(0.875 0.01 0.00140625)
(0.925 0.01 0.00140625)
(0.975 0.01 0.00140625)
(1.025 0.01 0.00140625)
(1.075 0.01 0.00140625)
(1.125 0.01 0.00140625)
(1.175 0.01 0.00140625)
(1.225 0.01 0.00140625)
(1.275 0.01 0.00140625)
(1.325 0.01 0.00140625)
(1.375 0.01 0.00140625)
(1.425 0.01 0.00140625)
(1.475 0.01 0.00140625)
(1.525 0.01 0.00140625)
(1.575 0.01 0.00140625)
(1.625 0.01 0.00140625)
(1.675 0.01 0.00140625)
(1.725 0.01 0.00140625)
(1.775 0.01 0.00140625)
(1.825 0.01 0.00140625)
(1.875 0.01 0.00140625)
(1.925 0.01 0.00140625)
(1.975 0.01 0.00140625)
(2.025 0.01 0.00140625)
(2.075 0.01 0.00140625)
(2.125 0.01 0.00140625)
(2.175 0.01 0.00140625)
(2.225 0.01 0.00140625)
(2.275 0.01 0.00140625)
(2.325 0.01 0.00140625)
(2.375 0.01 0.00140625)
(2.425 0.01 0.00140625)
(2.475 0.01 0.00140625)
(2.525 0.01 0.00140625)
(2.575 0.01 0.00140625)
(2.625 0.01 0.00140625)
(2.675 0.01 0.00140625)
(2.725 0.01 0.00140625)
(2.775 0.01 0.00140625)
(2.825 0.01 0.00140625)
(2.875 0.01 0.00140625)
(2.925 0.01 0.00140625)
(2.975 0.01 0.00140625)
(3.025 0.01 0.00140625)
(3.075 0.01 0.00140625)
(3.125 0.01 0.00140625)
(3.175 0.01 0.00140625)
(3.225 0.01 0.00140625)
(3.275 0.01 0.00140625)
(3.325 0.01 0.00140625)
(3.375 0.01 0.00140625)
(3.425 0.01 0.00140625)
(3.475 0.01 0.00140625)
(3.525 0.01 0.00140625)
(3.575 0.01 0.00140625)
(3.625 0.01 0.00140625)
(3.675 0.01 0.00140625)
(3.725 0.01 0.00140625)
(3.775 0.01 0.00140625)
(3.825 0.01 0.00140625)
(3.875 0.01 0.00140625)
(3.925 0.01 0.00140625)
(3.975 0.01 0.00140625)
(4.025 0.01 0.00140625)
(4.075 0.01 0.00140625)
(4.125 0.01 0.00140625)
(4.175 0.01 0.00140625)
(4.225 0.01 0.00140625)
(4.275 0.01 0.00140625)
(4.325 0.01 0.00140625)
(4.375 0.01 0.00140625)
(4.425 0.01 0.00140625)
(4.475 0.01 0.00140625)
(4.525 0.01 0.00140625)
(4.575 0.01 0.00140625)
(4.625 0.01 0.00140625)
(4.675 0.01 0.00140625)
(4.725 0.01 0.00140625)
(4.775 0.01 0.00140625)
(4.825 0.01 0.00140623)
(4.875 0.01 0.00140644)
(4.92498 0.01 0.00140357)
(4.97504 0.01 -0.00103844)
(5.02502 0.01 -0.00678354)
(5.07497 0.01 -0.0121452)
(5.125 0.01 -0.0160868)
(5.175 0.01 -0.0195414)
(5.225 0.01 -0.0225307)
(5.275 0.01 -0.0251167)
(5.325 0.01 -0.027409)
(5.375 0.01 -0.0293861)
(5.425 0.01 -0.0311214)
(5.47501 0.01 -0.0329428)
(5.52498 0.01 -0.0341344)
(5.57501 0.01 -0.0351059)
(5.625 0.01 -0.036428)
(5.67499 0.01 -0.0374158)
(5.72501 0.01 -0.0385824)
(5.77499 0.01 -0.0395974)
(5.82501 0.01 -0.0404637)
(5.87499 0.01 -0.0411945)
(5.925 0.01 -0.0417204)
(5.975 0.01 -0.0426704)
(6.02499 0.01 -0.0433995)
(6.07501 0.01 -0.0440851)
(6.12498 0.01 -0.0444144)
(6.17502 0.01 -0.044991)
(6.22498 0.01 -0.0454835)
(6.275 0.01 -0.0453365)
(6.32501 0.01 -0.0457447)
(6.37498 0.01 -0.0456664)
(6.42503 0.01 -0.0458386)
(6.47497 0.01 -0.0459192)
(6.52503 0.01 -0.0462603)
(6.57499 0.01 -0.0470493)
(6.62499 0.01 -0.0468724)
(6.67501 0.01 -0.0469673)
(6.72498 0.01 -0.0466731)
(6.77503 0.01 -0.0464783)
(6.82497 0.01 -0.0459578)
(6.87503 0.01 -0.0456692)
(6.92498 0.01 -0.0458675)
(6.975 0.01 -0.0454835)
(7.02502 0.01 -0.0460699)
(7.07497 0.01 -0.0460889)
(7.12503 0.01 -0.0459163)
(7.17496 0.01 -0.0454402)
(7.22503 0.01 -0.0451381)
(7.27498 0.01 -0.0451952)
(7.325 0.01 -0.0443775)
(7.37502 0.01 -0.0442518)
(7.42497 0.01 -0.0434035)
(7.47503 0.01 -0.0427992)
(7.52497 0.01 -0.0424071)
(7.57503 0.01 -0.0422718)
(7.62498 0.01 -0.0423694)
(7.67501 0.01 -0.0417612)
(7.72501 0.01 -0.0416402)
(7.77498 0.01 -0.0407969)
(7.82502 0.01 -0.0399735)
(7.87498 0.01 -0.0390095)
(7.92502 0.01 -0.0380754)
(7.97498 0.01 -0.037357)
(8.02502 0.01 -0.0371664)
(8.075 0.01 -0.0374831)
(8.12499 0.01 -0.03678)
(8.17502 0.01 -0.0363984)
(8.22497 0.01 -0.0355909)
(8.27503 0.01 -0.0350383)
(8.32498 0.01 -0.0348134)
(8.37502 0.01 -0.034484)
(8.425 0.01 -0.0345596)
(8.47499 0.01 -0.0339058)
(8.52501 0.01 -0.0336033)
(8.57498 0.01 -0.0334056)
(8.62503 0.01 -0.0336538)
(8.67497 0.01 -0.0337791)
(8.72503 0.01 -0.0340274)
(8.77497 0.01 -0.0342068)
(8.82503 0.01 -0.0345552)
(8.87498 0.01 -0.0351759)
(8.925 0.01 -0.0351985)
(8.97501 0.01 -0.0360521)
(9.02498 0.01 -0.036315)
(9.07503 0.01 -0.0367592)
(9.12496 0.01 -0.0369433)
(9.17504 0.01 -0.0373671)
(9.22495 0.01 -0.037611)
(9.27505 0.01 -0.0379463)
(9.32496 0.01 -0.0382549)
(9.37502 0.01 -0.0379728)
(9.42501 0.01 -0.0387671)
(9.47498 0.01 -0.0385221)
(9.52502 0.01 -0.0381815)
(9.57497 0.01 -0.0376553)
(9.62504 0.01 -0.0375923)
(9.67495 0.01 -0.0370267)
(9.72504 0.01 -0.0362917)
(9.77496 0.01 -0.0355808)
(9.82504 0.01 -0.0348866)
(9.87497 0.01 -0.0345269)
(9.92501 0.01 -0.033737)
(9.97501 0.01 -0.0339421)
(10.025 0.01 -0.0337231)
(10.075 0.01 -0.0339848)
(10.125 0.01 -0.0339465)
(10.175 0.01 -0.0343664)
(10.2249 0.01 -0.0344701)
(10.275 0.01 -0.0346271)
(10.325 0.01 -0.0350323)
(10.375 0.01 -0.0349165)
(10.425 0.01 -0.035205)
(10.475 0.01 -0.0348303)
(10.525 0.01 -0.0352634)
(10.575 0.01 -0.0354066)
(10.625 0.01 -0.0356599)
(10.675 0.01 -0.0355816)
(10.725 0.01 -0.0356348)
(10.775 0.01 -0.0355859)
(10.825 0.01 -0.0355185)
(10.875 0.01 -0.0353048)
(10.925 0.01 -0.0346985)
(10.975 0.01 -0.0346963)
(11.025 0.01 -0.0338173)
(11.075 0.01 -0.0335441)
(11.125 0.01 -0.033312)
(11.175 0.01 -0.0335513)
(11.225 0.01 -0.0336338)
(11.275 0.01 -0.0340162)
(11.325 0.01 -0.034261)
(11.375 0.01 -0.0344924)
(11.425 0.01 -0.0351409)
(11.475 0.01 -0.0352283)
(11.525 0.01 -0.036034)
(11.575 0.01 -0.0360864)
(11.625 0.01 -0.0362091)
(11.675 0.01 -0.0358524)
(11.725 0.01 -0.0357152)
(11.775 0.01 -0.0354796)
(11.825 0.01 -0.0351233)
(11.875 0.01 -0.0347006)
(11.925 0.01 -0.034146)
(11.975 0.01 -0.0340779)
(12.025 0.01 -0.0336688)
(12.075 0.01 -0.0340881)
(12.125 0.01 -0.0343077)
(12.175 0.01 -0.0348204)
(12.225 0.01 -0.035151)
(12.275 0.01 -0.0354951)
(12.325 0.01 -0.0355633)
(12.375 0.01 -0.035781)
(12.425 0.01 -0.0357586)
(12.475 0.01 -0.0353975)
(12.525 0.01 -0.0354374)
(12.575 0.01 -0.0350432)
(12.625 0.01 -0.0351304)
(12.675 0.01 -0.0348675)
(12.725 0.01 -0.0350019)
(12.775 0.01 -0.0350588)
(12.825 0.01 -0.0352916)
(12.875 0.01 -0.0355399)
(12.925 0.01 -0.0358449)
(12.975 0.01 -0.0359)
(13.025 0.01 -0.0358703)
(13.075 0.01 -0.0357037)
(13.125 0.01 -0.0352119)
(13.175 0.01 -0.0350601)
(13.225 0.01 -0.0344841)
(13.275 0.01 -0.0342754)
(13.325 0.01 -0.0342088)
(13.375 0.01 -0.0346096)
(13.425 0.01 -0.0346951)
(13.475 0.01 -0.0350157)
(13.525 0.01 -0.0351276)
(13.575 0.01 -0.0353105)
(13.625 0.01 -0.0355934)
(13.675 0.01 -0.0354617)
(13.725 0.01 -0.0353868)
(13.775 0.01 -0.0351024)
(13.825 0.01 -0.0346163)
(13.875 0.01 -0.0343066)
(13.925 0.01 -0.0339629)
(13.975 0.01 -0.033195)
(14.025 0.01 -0.0326034)
(14.075 0.01 -0.0320458)
(14.125 0.01 -0.0321081)
(14.175 0.01 -0.0319396)
(14.225 0.01 -0.0319146)
(14.275 0.01 -0.0320873)
(14.325 0.01 -0.0321493)
(14.375 0.01 -0.031638)
(14.425 0.01 -0.0305016)
(14.475 0.01 -0.029077)
(14.525 0.01 -0.0272928)
(14.575 0.01 -0.0250845)
(14.625 0.01 -0.0223813)
(14.675 0.01 -0.0189757)
(14.7251 0.01 -0.014774)
(14.775 0.01 -0.00854139)
(14.8249 0.01 -0.00148445)
(14.875 0.01 0.00140339)
(14.925 0.01 0.00140645)
(14.975 0.01 0.00140623)
(0.025 0.01 0.00421875)
(0.075 0.01 0.00421875)
(0.125 0.01 0.00421875)
(0.175 0.01 0.00421875)
(0.225 0.01 0.00421875)
(0.275 0.01 0.00421875)
(0.325 0.01 0.00421875)
(0.375 0.01 0.00421875)
(0.425 0.01 0.00421875)
(0.475 0.01 0.00421875)
(0.525 0.01 0.00421875)
(0.575 0.01 0.00421875)
(0.625 0.01 0.00421875)
(0.675 0.01 0.00421875)
(0.725 0.01 0.00421875)
(0.775 0.01 0.00421875)
(0.825 0.01 0.00421875)
(0.875 0.01 0.00421875)
(0.925 0.01 0.00421875)
(0.975 0.01 0.00421875)
(1.025 0.01 0.00421875)
(1.075 0.01 0.00421875)
(1.125 0.01 0.00421875)
(1.175 0.01 0.00421875)
(1.225 0.01 0.00421875)
(1.275 0.01 0.00421875)
(1.325 0.01 0.00421875)
(1.375 0.01 0.00421875)
(1.425 0.01 0.00421875)
(1.475 0.01 0.00421875)
(1.525 0.01 0.00421875)
(1.575 0.01 0.00421875)
(1.625 0.01 0.00421875)
(1.675 0.01 0.00421875)
(1.725 0.01 0.00421875)
(1.775 0.01 0.00421875)
(1.825 0.01 0.00421875)
(1.875 0.01 0.00421875)
(1.925 0.01 0.00421875)
(1.975 0.01 0.00421875)
(2.025 0.01 0.00421875)
(2.075 0.01 0.00421875)
(2.125 0.01 0.00421875)
(2.175 0.01 0.00421875)
(2.225 0.01 0.00421875)
(2.275 0.01 0.00421875)
(2.325 0.01 0.00421875)
(2.375 0.01 0.00421875)
(2.425 0.01 0.00421875)
(2.475 0.01 0.00421875)
(2.525 0.01 0.00421875)
(2.575 0.01 0.00421875)
(2.625 0.01 0.00421875)
(2.675 0.01 0.00421875)
(2.725 0.01 0.00421875)
(2.775 0.01 0.00421875)
(2.825 0.01 0.00421875)
(2.875 0.01 0.00421875)
(2.925 0.01 0.00421875)
(2.975 0.01 0.00421875)
(3.025 0.01 0.00421875)
(3.075 0.01 0.00421875)
(3.125 0.01 0.00421875)
(3.175 0.01 0.00421875)
(3.225 0.01 0.00421875)
(3.275 0.01 0.00421875)
(3.325 0.01 0.00421875)
(3.375 0.01 0.00421875)
(3.425 0.01 0.00421875)
(3.475 0.01 0.00421875)
(3.525 0.01 0.00421875)
(3.575 0.01 0.00421875)
(3.625 0.01 0.00421875)
(3.675 0.01 0.00421875)
(3.725 0.01 0.00421875)
(3.775 0.01 0.00421875)
(3.825 0.01 0.00421875)
(3.875 0.01 0.00421875)
(3.925 0.01 0.00421875)
(3.975 0.01 0.00421875)
(4.025 0.01 0.00421875)
(4.075 0.01 0.00421875)
(4.125 0.01 0.00421875)
(4.175 0.01 0.00421875)
(4.225 0.01 0.00421875)
(4.275 0.01 0.00421875)
(4.325 0.01 0.00421875)
(4.375 0.01 0.00421875)
(4.425 0.01 0.00421875)
(4.475 0.01 0.00421875)
(4.525 0.01 0.00421875)
(4.575 0.01 0.00421875)
(4.625 0.01 0.00421874)
(4.675 0.01 0.00421874)
(4.725 0.01 0.00421874)
(4.775 0.01 0.00421873)
(4.825 0.01 0.00421863)
(4.875 0.01 0.00421946)
(4.92496 0.01 0.00420707)
(4.97505 0.01 0.00176879)
(5.02504 0.01 -0.00395208)
(5.07496 0.01 -0.00931167)
(5.125 0.01 -0.0132651)
(5.17499 0.01 -0.0167206)
(5.225 0.01 -0.019712)
(5.27499 0.01 -0.0222994)
(5.325 0.01 -0.0245925)
(5.37499 0.01 -0.0265702)
(5.425 0.01 -0.028308)
(5.47501 0.01 -0.0301264)
(5.52497 0.01 -0.031321)
(5.57501 0.01 -0.0322963)
(5.625 0.01 -0.0336147)
(5.67499 0.01 -0.0346059)
(5.72502 0.01 -0.0357711)
(5.77498 0.01 -0.0367863)
(5.82502 0.01 -0.0376534)
(5.87498 0.01 -0.0383838)
(5.92501 0.01 -0.0389136)
(5.97501 0.01 -0.0398599)
(6.02499 0.01 -0.0405905)
(6.07502 0.01 -0.0412745)
(6.12497 0.01 -0.0416071)
(6.17504 0.01 -0.0421823)
(6.22497 0.01 -0.0426715)
(6.275 0.01 -0.0425318)
(6.32502 0.01 -0.0429338)
(6.37496 0.01 -0.04286)
(6.42505 0.01 -0.0430299)
(6.47494 0.01 -0.0431121)
(6.52505 0.01 -0.043455)
(6.57498 0.01 -0.0442358)
(6.62499 0.01 -0.0440667)
(6.67503 0.01 -0.0441572)
(6.72496 0.01 -0.0438661)
(6.77505 0.01 -0.0436683)
(6.82494 0.01 -0.0431511)
(6.87505 0.01 -0.042864)
(6.92497 0.01 -0.0430559)
(6.97499 0.01 -0.042681)
(7.02504 0.01 -0.0432584)
(7.07495 0.01 -0.0432801)
(7.12506 0.01 -0.0431062)
(7.17494 0.01 -0.0426329)
(7.22506 0.01 -0.0423318)
(7.27497 0.01 -0.0423817)
(7.325 0.01 -0.0415734)
(7.37504 0.01 -0.0414387)
(7.42494 0.01 -0.0405965)
(7.47506 0.01 -0.0399912)
(7.52494 0.01 -0.0395997)
(7.57506 0.01 -0.0394643)
(7.62496 0.01 -0.0395565)
(7.67501 0.01 -0.0389557)
(7.72502 0.01 -0.0388272)
(7.77497 0.01 -0.0379886)
(7.82504 0.01 -0.0371634)
(7.87496 0.01 -0.0362007)
(7.92504 0.01 -0.0352669)
(7.97496 0.01 -0.0345506)
(8.02504 0.01 -0.0343603)
(8.07499 0.01 -0.0346681)
(8.12498 0.01 -0.0339733)
(8.17504 0.01 -0.0335863)
(8.22494 0.01 -0.0327831)
(8.27505 0.01 -0.0322305)
(8.32495 0.01 -0.0320035)
(8.37503 0.01 -0.0316775)
(8.42499 0.01 -0.0317464)
(8.47498 0.01 -0.0310989)
(8.52503 0.01 -0.0307944)
(8.57497 0.01 -0.0305989)
(8.62505 0.01 -0.0308439)
(8.67495 0.01 -0.0309706)
(8.72506 0.01 -0.0312178)
(8.77494 0.01 -0.0313981)
(8.82506 0.01 -0.0317476)
(8.87496 0.01 -0.0323628)
(8.92501 0.01 -0.0323939)
(8.97503 0.01 -0.0332391)
(9.02495 0.01 -0.0335068)
(9.07506 0.01 -0.0339483)
(9.12493 0.01 -0.0341351)
(9.17508 0.01 -0.0345566)
(9.22492 0.01 -0.0348016)
(9.27509 0.01 -0.0351369)
(9.32493 0.01 -0.0354416)
(9.37503 0.01 -0.0351697)
(9.42501 0.01 -0.0359516)
(9.47496 0.01 -0.035713)
(9.52504 0.01 -0.0353708)
(9.57494 0.01 -0.0348488)
(9.62508 0.01 -0.0347795)
(9.67491 0.01 -0.0342165)
(9.72508 0.01 -0.0334814)
(9.77492 0.01 -0.0327713)
(9.82507 0.01 -0.0320783)
(9.87494 0.01 -0.0317146)
(9.92502 0.01 -0.030933)
(9.97501 0.01 -0.0311298)
(10.025 0.01 -0.0309165)
(10.0751 0.01 -0.0311733)
(10.1249 0.01 -0.0311393)
(10.1751 0.01 -0.0315547)
(10.2249 0.01 -0.0316603)
(10.2751 0.01 -0.0318188)
(10.3249 0.01 -0.0322194)
(10.3751 0.01 -0.0321097)
(10.425 0.01 -0.0323914)
(10.475 0.01 -0.0320255)
(10.525 0.01 -0.0324521)
(10.575 0.01 -0.0325979)
(10.6251 0.01 -0.0328483)
(10.6749 0.01 -0.0327727)
(10.7251 0.01 -0.0328243)
(10.7749 0.01 -0.032776)
(10.8251 0.01 -0.0327078)
(10.8749 0.01 -0.0324926)
(10.925 0.01 -0.0318922)
(10.975 0.01 -0.0318812)
(11.025 0.01 -0.0310108)
(11.075 0.01 -0.0307339)
(11.125 0.01 -0.0305047)
(11.1751 0.01 -0.0307401)
(11.2249 0.01 -0.0308251)
(11.2751 0.01 -0.0312051)
(11.3249 0.01 -0.0314502)
(11.3751 0.01 -0.0316847)
(11.4249 0.01 -0.032327)
(11.475 0.01 -0.0324225)
(11.525 0.01 -0.0332193)
(11.575 0.01 -0.0332771)
(11.625 0.01 -0.033396)
(11.6749 0.01 -0.0330435)
(11.7251 0.01 -0.032904)
(11.7749 0.01 -0.0326687)
(11.8251 0.01 -0.0323122)
(11.8749 0.01 -0.0318893)
(11.9251 0.01 -0.0313381)
(11.975 0.01 -0.0312654)
(12.025 0.01 -0.0308631)
(12.075 0.01 -0.0312763)
(12.125 0.01 -0.031499)
(12.175 0.01 -0.032009)
(12.225 0.01 -0.0323407)
(12.2751 0.01 -0.0326832)
(12.3249 0.01 -0.0327537)
(12.3751 0.01 -0.0329692)
(12.4249 0.01 -0.0329462)
(12.4751 0.01 -0.0325894)
(12.525 0.01 -0.0326243)
(12.575 0.01 -0.0322356)
(12.625 0.01 -0.0323178)
(12.675 0.01 -0.0320594)
(12.725 0.01 -0.0321909)
(12.775 0.01 -0.0322494)
(12.825 0.01 -0.0324812)
(12.875 0.01 -0.0327296)
(12.9251 0.01 -0.033033)
(12.9749 0.01 -0.0330889)
(13.0251 0.01 -0.0330589)
(13.0749 0.01 -0.0328912)
(13.125 0.01 -0.0324032)
(13.175 0.01 -0.0322469)
(13.225 0.01 -0.0316755)
(13.275 0.01 -0.0314653)
(13.325 0.01 -0.0314008)
(13.375 0.01 -0.031797)
(13.425 0.01 -0.0318858)
(13.4751 0.01 -0.0322036)
(13.5249 0.01 -0.0323169)
(13.5751 0.01 -0.0325002)
(13.625 0.01 -0.0327801)
(13.675 0.01 -0.0326513)
(13.725 0.01 -0.0325747)
(13.775 0.01 -0.0322901)
(13.825 0.01 -0.0318061)
(13.875 0.01 -0.0314951)
(13.925 0.01 -0.0311493)
(13.975 0.01 -0.0303845)
(14.025 0.01 -0.0297918)
(14.075 0.01 -0.0292375)
(14.125 0.01 -0.0292948)
(14.175 0.01 -0.0291284)
(14.225 0.01 -0.0291034)
(14.275 0.01 -0.0292744)
(14.325 0.01 -0.0293338)
(14.375 0.01 -0.0288221)
(14.425 0.01 -0.0276866)
(14.475 0.01 -0.0262616)
(14.525 0.01 -0.0244756)
(14.575 0.01 -0.0222667)
(14.625 0.01 -0.0195593)
(14.675 0.01 -0.016153)
(14.7251 0.01 -0.0119324)
(14.7749 0.01 -0.00570107)
(14.8249 0.01 0.0013244)
(14.875 0.01 0.00420588)
(14.925 0.01 0.00421953)
(14.975 0.01 0.00421864)
(0.025 0.01 0.00703125)
(0.075 0.01 0.00703125)
(0.125 0.01 0.00703125)
(0.175 0.01 0.00703125)
(0.225 0.01 0.00703125)
(0.275 0.01 0.00703125)
(0.325 0.01 0.00703125)
(0.375 0.01 0.00703125)
(0.425 0.01 0.00703125)
(0.475 0.01 0.00703125)
(0.525 0.01 0.00703125)
(0.575 0.01 0.00703125)
(0.625 0.01 0.00703125)
(0.675 0.01 0.00703125)
(0.725 0.01 0.00703125)
(0.775 0.01 0.00703125)
(0.825 0.01 0.00703125)
(0.875 0.01 0.00703125)
(0.925 0.01 0.00703125)
(0.975 0.01 0.00703125)
(1.025 0.01 0.00703125)
(1.075 0.01 0.00703125)
(1.125 0.01 0.00703125)
(1.175 0.01 0.00703125)
(1.225 0.01 0.00703125)
(1.275 0.01 0.00703125)
(1.325 0.01 0.00703125)
(1.375 0.01 0.00703125)
(1.425 0.01 0.00703125)
(1.475 0.01 0.00703125)
(1.525 0.01 0.00703125)
(1.575 0.01 0.00703125)
(1.625 0.01 0.00703125)
(1.675 0.01 0.00703125)
(1.725 0.01 0.00703125)
(1.775 0.01 0.00703125)
(1.825 0.01 0.00703125)
(1.875 0.01 0.00703125)
(1.925 0.01 0.00703125)
(1.975 0.01 0.00703125)
(2.025 0.01 0.00703125)
(2.075 0.01 0.00703125)
(2.125 0.01 0.00703125)
(2.175 0.01 0.00703125)
(2.225 0.01 0.00703125)
(2.275 0.01 0.00703125)
(2.325 0.01 0.00703125)
(2.375 0.01 0.00703125)
(2.425 0.01 0.00703125)
(2.475 0.01 0.00703125)
(2.525 0.01 0.00703125)
(2.575 0.01 0.00703125)
(2.625 0.01 0.00703125)
(2.675 0.01 0.00703125)
(2.725 0.01 0.00703125)
(2.775 0.01 0.00703125)
(2.825 0.01 0.00703125)
(2.875 0.01 0.00703125)
(2.925 0.01 0.00703125)
(2.975 0.01 0.00703125)
(3.025 0.01 0.00703125)
(3.075 0.01 0.00703125)
(3.125 0.01 0.00703125)
(3.175 0.01 0.00703125)
(3.225 0.01 0.00703125)
(3.275 0.01 0.00703125)
(3.325 0.01 0.00703125)
(3.375 0.01 0.00703125)
(3.425 0.01 0.00703125)
(3.475 0.01 0.00703125)
(3.525 0.01 0.00703125)
(3.575 0.01 0.00703125)
(3.625 0.01 0.00703125)
(3.675 0.01 0.00703125)
(3.725 0.01 0.00703125)
(3.775 0.01 0.00703125)
(3.825 0.01 0.00703125)
(3.875 0.01 0.00703125)
(3.925 0.01 0.00703125)
(3.975 0.01 0.00703125)
(4.025 0.01 0.00703125)
(4.075 0.01 0.00703125)
(4.125 0.01 0.00703125)
(4.175 0.01 0.00703125)
(4.225 0.01 0.00703125)
(4.275 0.01 0.00703125)
(4.325 0.01 0.00703125)
(4.375 0.01 0.00703125)
(4.425 0.01 0.00703124)
(4.475 0.01 0.00703124)
(4.525 0.01 0.00703124)
(4.575 0.01 0.00703123)
(4.625 0.01 0.00703123)
(4.675 0.01 0.00703121)
(4.725 0.01 0.00703119)
(4.775 0.01 0.00703116)
(4.825 0.01 0.00703088)
(4.875 0.01 0.00703256)
(4.92494 0.01 0.00700362)
(4.97507 0.01 0.00456666)
(5.02506 0.01 -0.00111894)
(5.07495 0.01 -0.00647426)
(5.125 0.01 -0.010442)
(5.17499 0.01 -0.0138983)
(5.225 0.01 -0.0168919)
(5.27499 0.01 -0.0194811)
(5.32501 0.01 -0.0217749)
(5.37499 0.01 -0.0237536)
(5.425 0.01 -0.0254949)
(5.47502 0.01 -0.0273081)
(5.52496 0.01 -0.0285068)
(5.57502 0.01 -0.0294876)
(5.625 0.01 -0.0307999)
(5.67498 0.01 -0.0317962)
(5.72503 0.01 -0.0329588)
(5.77497 0.01 -0.0339744)
(5.82503 0.01 -0.0348424)
(5.87497 0.01 -0.035572)
(5.92501 0.01 -0.0361076)
(5.97501 0.01 -0.0370482)
(6.02498 0.01 -0.0377809)
(6.07503 0.01 -0.0384623)
(6.12495 0.01 -0.0388001)
(6.17506 0.01 -0.0393729)
(6.22496 0.01 -0.0398571)
(6.275 0.01 -0.0397286)
(6.32503 0.01 -0.0401207)
(6.37495 0.01 -0.0400537)
(6.42507 0.01 -0.0402201)
(6.47492 0.01 -0.040305)
(6.52507 0.01 -0.0406503)
(6.57497 0.01 -0.0414187)
(6.62499 0.01 -0.0412615)
(6.67504 0.01 -0.0413452)
(6.72495 0.01 -0.041059)
(6.77507 0.01 -0.0408567)
(6.82492 0.01 -0.0403442)
(6.87507 0.01 -0.0400595)
(6.92496 0.01 -0.0402416)
(6.97499 0.01 -0.0398808)
(7.02506 0.01 -0.0404442)
(7.07493 0.01 -0.0404701)
(7.12508 0.01 -0.0402946)
(7.17491 0.01 -0.0398253)
(7.22508 0.01 -0.0395261)
(7.27496 0.01 -0.0395649)
(7.32499 0.01 -0.038771)
(7.37505 0.01 -0.0386226)
(7.42492 0.01 -0.0377894)
(7.47508 0.01 -0.037183)
(7.52492 0.01 -0.0367923)
(7.57508 0.01 -0.0366568)
(7.62494 0.01 -0.0367406)
(7.67502 0.01 -0.0361511)
(7.72502 0.01 -0.0360115)
(7.77496 0.01 -0.03518)
(7.82505 0.01 -0.0343522)
(7.87494 0.01 -0.0333912)
(7.92505 0.01 -0.0324584)
(7.97494 0.01 -0.031745)
(8.02506 0.01 -0.0315551)
(8.07499 0.01 -0.0318495)
(8.12497 0.01 -0.0311672)
(8.17506 0.01 -0.0307723)
(8.22492 0.01 -0.0299754)
(8.27507 0.01 -0.029423)
(8.32494 0.01 -0.0291926)
(8.37504 0.01 -0.0288717)
(8.42499 0.01 -0.0289303)
(8.47498 0.01 -0.0282925)
(8.52503 0.01 -0.027985)
(8.57495 0.01 -0.0277929)
(8.62506 0.01 -0.0280329)
(8.67493 0.01 -0.028162)
(8.72508 0.01 -0.0284074)
(8.77492 0.01 -0.0285892)
(8.82508 0.01 -0.0289402)
(8.87495 0.01 -0.0295472)
(8.92501 0.01 -0.0295915)
(8.97504 0.01 -0.0304235)
(9.02494 0.01 -0.0306986)
(9.07508 0.01 -0.0311359)
(9.12491 0.01 -0.0313271)
(9.17511 0.01 -0.0317448)
(9.22489 0.01 -0.0319917)
(9.27512 0.01 -0.0323265)
(9.3249 0.01 -0.0326256)
(9.37505 0.01 -0.0323693)
(9.42502 0.01 -0.0331324)
(9.47495 0.01 -0.0329031)
(9.52506 0.01 -0.032559)
(9.57492 0.01 -0.0320432)
(9.62511 0.01 -0.0319645)
(9.67488 0.01 -0.0314048)
(9.72511 0.01 -0.0306702)
(9.77489 0.01 -0.0299606)
(9.8251 0.01 -0.0292703)
(9.87492 0.01 -0.0289002)
(9.92503 0.01 -0.0281316)
(9.97501 0.01 -0.0283156)
(10.025 0.01 -0.0281108)
(10.0751 0.01 -0.0283601)
(10.1249 0.01 -0.0283329)
(10.1751 0.01 -0.0287411)
(10.2249 0.01 -0.0288496)
(10.2751 0.01 -0.0290104)
(10.3249 0.01 -0.0294041)
(10.3751 0.01 -0.0293037)
(10.425 0.01 -0.0295752)
(10.475 0.01 -0.0292228)
(10.525 0.01 -0.0296392)
(10.5749 0.01 -0.029789)
(10.6251 0.01 -0.0300351)
(10.6749 0.01 -0.0299634)
(10.7251 0.01 -0.0300126)
(10.7749 0.01 -0.0299654)
(10.8251 0.01 -0.0298962)
(10.8749 0.01 -0.0296786)
(10.9251 0.01 -0.0290873)
(10.975 0.01 -0.0290627)
(11.025 0.01 -0.0282057)
(11.075 0.01 -0.027923)
(11.1249 0.01 -0.0276983)
(11.1751 0.01 -0.0279278)
(11.2249 0.01 -0.0280167)
(11.2751 0.01 -0.0283929)
(11.3249 0.01 -0.0286387)
(11.3751 0.01 -0.0288777)
(11.4249 0.01 -0.0295108)
(11.475 0.01 -0.0296185)
(11.525 0.01 -0.0304018)
(11.575 0.01 -0.0304677)
(11.6251 0.01 -0.0305808)
(11.6749 0.01 -0.0302348)
(11.7251 0.01 -0.030092)
(11.7749 0.01 -0.0298568)
(11.8251 0.01 -0.0295004)
(11.8749 0.01 -0.0290768)
(11.9251 0.01 -0.0285312)
(11.975 0.01 -0.0284512)
(12.025 0.01 -0.0280599)
(12.075 0.01 -0.0284635)
(12.125 0.01 -0.0286907)
(12.1751 0.01 -0.0291963)
(12.2249 0.01 -0.0295299)
(12.2751 0.01 -0.0298698)
(12.3249 0.01 -0.029944)
(12.3751 0.01 -0.0301562)
(12.4249 0.01 -0.0301323)
(12.4751 0.01 -0.0297823)
(12.525 0.01 -0.0298094)
(12.575 0.01 -0.0294292)
(12.625 0.01 -0.0295035)
(12.675 0.01 -0.0292521)
(12.725 0.01 -0.0293792)
(12.7749 0.01 -0.0294402)
(12.8251 0.01 -0.0296705)
(12.8749 0.01 -0.0299191)
(12.9251 0.01 -0.0302197)
(12.9749 0.01 -0.030277)
(13.0251 0.01 -0.0302466)
(13.0749 0.01 -0.0300771)
(13.1251 0.01 -0.0295952)
(13.175 0.01 -0.029432)
(13.225 0.01 -0.0288679)
(13.275 0.01 -0.0286552)
(13.325 0.01 -0.0285939)
(13.375 0.01 -0.028983)
(13.4249 0.01 -0.0290768)
(13.4751 0.01 -0.0293905)
(13.5249 0.01 -0.029506)
(13.5751 0.01 -0.0296899)
(13.6249 0.01 -0.0299651)
(13.675 0.01 -0.0298407)
(13.725 0.01 -0.0297617)
(13.775 0.01 -0.0294768)
(13.8249 0.01 -0.0289962)
(13.8751 0.01 -0.0286833)
(13.925 0.01 -0.0283343)
(13.975 0.01 -0.0275744)
(14.025 0.01 -0.0269799)
(14.075 0.01 -0.026431)
(14.125 0.01 -0.0264806)
(14.175 0.01 -0.0263175)
(14.225 0.01 -0.0262926)
(14.275 0.01 -0.0264611)
(14.325 0.01 -0.0265164)
(14.375 0.01 -0.0260042)
(14.425 0.01 -0.0248708)
(14.475 0.01 -0.0234449)
(14.525 0.01 -0.021657)
(14.575 0.01 -0.0194473)
(14.625 0.01 -0.0167353)
(14.675 0.01 -0.0133278)
(14.7251 0.01 -0.00908527)
(14.7749 0.01 -0.00285722)
(14.8249 0.01 0.00412137)
(14.8751 0.01 0.00700023)
(14.925 0.01 0.00703276)
(14.975 0.01 0.00703093)
(0.025 0.01 0.00984375)
(0.075 0.01 0.00984375)
(0.125 0.01 0.00984375)
(0.175 0.01 0.00984375)
(0.225 0.01 0.00984375)
(0.275 0.01 0.00984375)
(0.325 0.01 0.00984375)
(0.375 0.01 0.00984375)
(0.425 0.01 0.00984375)
(0.475 0.01 0.00984375)
(0.525 0.01 0.00984375)
(0.575 0.01 0.00984375)
(0.625 0.01 0.00984375)
(0.675 0.01 0.00984375)
(0.725 0.01 0.00984375)
(0.775 0.01 0.00984375)
(0.825 0.01 0.00984375)
(0.875 0.01 0.00984375)
(0.925 0.01 0.00984375)
(0.975 0.01 0.00984375)
(1.025 0.01 0.00984375)
(1.075 0.01 0.00984375)
(1.125 0.01 0.00984375)
(1.175 0.01 0.00984375)
(1.225 0.01 0.00984375)
(1.275 0.01 0.00984375)
(1.325 0.01 0.00984375)
(1.375 0.01 0.00984375)
(1.425 0.01 0.00984375)
(1.475 0.01 0.00984375)
(1.525 0.01 0.00984375)
(1.575 0.01 0.00984375)
(1.625 0.01 0.00984375)
(1.675 0.01 0.00984375)
(1.725 0.01 0.00984375)
(1.775 0.01 0.00984375)
(1.825 0.01 0.00984375)
(1.875 0.01 0.00984375)
(1.925 0.01 0.00984375)
(1.975 0.01 0.00984375)
(2.025 0.01 0.00984375)
(2.075 0.01 0.00984375)
(2.125 0.01 0.00984375)
(2.175 0.01 0.00984375)
(2.225 0.01 0.00984375)
(2.275 0.01 0.00984375)
(2.325 0.01 0.00984375)
(2.375 0.01 0.00984375)
(2.425 0.01 0.00984375)
(2.475 0.01 0.00984375)
(2.525 0.01 0.00984375)
(2.575 0.01 0.00984375)
(2.625 0.01 0.00984375)
(2.675 0.01 0.00984375)
(2.725 0.01 0.00984375)
(2.775 0.01 0.00984375)
(2.825 0.01 0.00984375)
(2.875 0.01 0.00984375)
(2.925 0.01 0.00984375)
(2.975 0.01 0.00984375)
(3.025 0.01 0.00984375)
(3.075 0.01 0.00984375)
(3.125 0.01 0.00984375)
(3.175 0.01 0.00984375)
(3.225 0.01 0.00984375)
(3.275 0.01 0.00984375)
(3.325 0.01 0.00984375)
(3.375 0.01 0.00984375)
(3.425 0.01 0.00984375)
(3.475 0.01 0.00984375)
(3.525 0.01 0.00984375)
(3.575 0.01 0.00984375)
(3.625 0.01 0.00984375)
(3.675 0.01 0.00984375)
(3.725 0.01 0.00984375)
(3.775 0.01 0.00984375)
(3.825 0.01 0.00984375)
(3.875 0.01 0.00984375)
(3.925 0.01 0.00984375)
(3.975 0.01 0.00984375)
(4.025 0.01 0.00984375)
(4.075 0.01 0.00984375)
(4.125 0.01 0.00984375)
(4.175 0.01 0.00984375)
(4.225 0.01 0.00984375)
(4.275 0.01 0.00984374)
(4.325 0.01 0.00984374)
(4.375 0.01 0.00984374)
(4.425 0.01 0.00984373)
(4.475 0.01 0.00984373)
(4.525 0.01 0.00984372)
(4.575 0.01 0.00984371)
(4.625 0.01 0.00984369)
(4.675 0.01 0.00984365)
(4.725 0.01 0.00984359)
(4.775 0.01 0.0098435)
(4.825 0.01 0.00984292)
(4.875 0.01 0.00984535)
(4.92492 0.01 0.00979404)
(4.97508 0.01 0.00735658)
(5.02507 0.01 0.00171528)
(5.07495 0.01 -0.00363363)
(5.12501 0.01 -0.00761731)
(5.17499 0.01 -0.0110747)
(5.225 0.01 -0.0140705)
(5.27499 0.01 -0.0166619)
(5.32501 0.01 -0.0189563)
(5.37499 0.01 -0.0209361)
(5.425 0.01 -0.0226818)
(5.47503 0.01 -0.024488)
(5.52496 0.01 -0.0256918)
(5.57502 0.01 -0.026679)
(5.625 0.01 -0.0279836)
(5.67498 0.01 -0.0289862)
(5.72504 0.01 -0.0301453)
(5.77496 0.01 -0.0311612)
(5.82503 0.01 -0.0320302)
(5.87497 0.01 -0.0327591)
(5.92501 0.01 -0.033302)
(5.97501 0.01 -0.0342351)
(6.02498 0.01 -0.0349704)
(6.07503 0.01 -0.0356482)
(6.12494 0.01 -0.0359927)
(6.17507 0.01 -0.0365622)
(6.22495 0.01 -0.0370404)
(6.275 0.01 -0.0369258)
(6.32504 0.01 -0.0373055)
(6.37494 0.01 -0.0372469)
(6.42508 0.01 -0.0374087)
(6.47491 0.01 -0.0374971)
(6.52508 0.01 -0.0378455)
(6.57497 0.01 -0.0385984)
(6.62498 0.01 -0.0384559)
(6.67504 0.01 -0.0385314)
(6.72494 0.01 -0.0382511)
(6.77508 0.01 -0.0380433)
(6.8249 0.01 -0.0375367)
(6.87509 0.01 -0.037255)
(6.92495 0.01 -0.0374248)
(6.97499 0.01 -0.0370816)
(7.02507 0.01 -0.0376274)
(7.07492 0.01 -0.0376584)
(7.12509 0.01 -0.0374811)
(7.1749 0.01 -0.037017)
(7.2251 0.01 -0.0367202)
(7.27495 0.01 -0.0367449)
(7.32499 0.01 -0.035969)
(7.37506 0.01 -0.0358034)
(7.4249 0.01 -0.0349816)
(7.4751 0.01 -0.0343743)
(7.5249 0.01 -0.0339843)
(7.5751 0.01 -0.0338485)
(7.62493 0.01 -0.0339218)
(7.67502 0.01 -0.0333466)
(7.72502 0.01 -0.0331931)
(7.77495 0.01 -0.0323704)
(7.82506 0.01 -0.0315397)
(7.87493 0.01 -0.0305805)
(7.92506 0.01 -0.0296492)
(7.97493 0.01 -0.0289394)
(8.02507 0.01 -0.02875)
(8.07499 0.01 -0.0290275)
(8.12496 0.01 -0.0283609)
(8.17507 0.01 -0.0279564)
(8.22491 0.01 -0.027167)
(8.27509 0.01 -0.0266151)
(8.32493 0.01 -0.0263803)
(8.37505 0.01 -0.026066)
(8.42499 0.01 -0.0261116)
(8.47497 0.01 -0.0254859)
(8.52504 0.01 -0.0251748)
(8.57495 0.01 -0.024987)
(8.62507 0.01 -0.0252208)
(8.67492 0.01 -0.0253528)
(8.72509 0.01 -0.0255958)
(8.7749 0.01 -0.0257797)
(8.82509 0.01 -0.0261324)
(8.87494 0.01 -0.0267294)
(8.92501 0.01 -0.02679)
(8.97504 0.01 -0.0276055)
(9.02493 0.01 -0.0278897)
(9.07509 0.01 -0.0283218)
(9.12489 0.01 -0.0285187)
(9.17513 0.01 -0.0289315)
(9.22486 0.01 -0.0291808)
(9.27514 0.01 -0.0295145)
(9.32488 0.01 -0.0298068)
(9.37505 0.01 -0.0295704)
(9.42502 0.01 -0.0303096)
(9.47494 0.01 -0.0300921)
(9.52507 0.01 -0.0297459)
(9.57491 0.01 -0.0292377)
(9.62513 0.01 -0.0291471)
(9.67486 0.01 -0.0285911)
(9.72513 0.01 -0.027858)
(9.77487 0.01 -0.0271486)
(9.82512 0.01 -0.0264621)
(9.87491 0.01 -0.026084)
(9.92504 0.01 -0.025332)
(9.97502 0.01 -0.0254996)
(10.0249 0.01 -0.0253055)
(10.0751 0.01 -0.0255454)
(10.1249 0.01 -0.0255267)
(10.1751 0.01 -0.0259255)
(10.2248 0.01 -0.0260378)
(10.2751 0.01 -0.0262013)
(10.3249 0.01 -0.0265866)
(10.3751 0.01 -0.0264978)
(10.425 0.01 -0.0267566)
(10.475 0.01 -0.0264212)
(10.5251 0.01 -0.0268249)
(10.5749 0.01 -0.0269796)
(10.6251 0.01 -0.02722)
(10.6749 0.01 -0.0271531)
(10.7251 0.01 -0.0271994)
(10.7749 0.01 -0.0271538)
(10.8251 0.01 -0.0270835)
(10.8749 0.01 -0.0268628)
(10.9251 0.01 -0.0262831)
(10.975 0.01 -0.0262413)
(11.025 0.01 -0.0254011)
(11.0751 0.01 -0.0251114)
(11.1249 0.01 -0.0248922)
(11.1751 0.01 -0.0251142)
(11.2249 0.01 -0.0252081)
(11.2751 0.01 -0.0255794)
(11.3249 0.01 -0.0258262)
(11.3751 0.01 -0.0260708)
(11.4249 0.01 -0.0266925)
(11.475 0.01 -0.0268155)
(11.525 0.01 -0.0275817)
(11.5749 0.01 -0.0276576)
(11.6251 0.01 -0.0277637)
(11.6749 0.01 -0.0274257)
(11.7251 0.01 -0.0272789)
(11.7749 0.01 -0.0270438)
(11.8251 0.01 -0.0266875)
(11.8749 0.01 -0.0262629)
(11.9251 0.01 -0.0257247)
(11.9749 0.01 -0.0256358)
(12.025 0.01 -0.0252582)
(12.075 0.01 -0.0256498)
(12.125 0.01 -0.0258825)
(12.1751 0.01 -0.0263824)
(12.2249 0.01 -0.0267183)
(12.2751 0.01 -0.0270549)
(12.3249 0.01 -0.0271338)
(12.3751 0.01 -0.0273418)
(12.4249 0.01 -0.0273169)
(12.4751 0.01 -0.0269754)
(12.5249 0.01 -0.0269926)
(12.575 0.01 -0.026623)
(12.625 0.01 -0.0266876)
(12.675 0.01 -0.0264451)
(12.7251 0.01 -0.0265667)
(12.7749 0.01 -0.026631)
(12.8251 0.01 -0.0268593)
(12.8749 0.01 -0.0271082)
(12.9251 0.01 -0.0274051)
(12.9749 0.01 -0.0274641)
(13.0251 0.01 -0.0274333)
(13.0749 0.01 -0.0272616)
(13.1251 0.01 -0.0267874)
(13.175 0.01 -0.0266156)