/*--------------------------------*- C++ -*----------------------------------*\
| =========                 |                                                 |
| \\      /  F ield         | foam-extend: Open Source CFD                    |
|  \\    /   O peration     | Version:     3.2                                |
|   \\  /    A nd           | Web:         http://www.foam-extend.org         |
|    \\/     M anipulation  | For copyright notice see file Copyright         |
\*---------------------------------------------------------------------------*/
FoamFile
{
    version     2.0;
    format      ascii;
    class       pointVectorField;
    location    "160";
    object      newMeshPoints;
}
// * * * * * * * * * * * * * * * * * * * * * * * * * * * * * * * * * * * * * //

dimensions      [0 1 0 0 0 0 0];

internalField   nonuniform List<vector> 
193242
(
(0 0 0)
(0.05 0 0)
(0.1 0 0)
(0.15 0 0)
(0.2 0 0)
(0.25 0 0)
(0.3 0 0)
(0.35 0 0)
(0.4 0 0)
(0.45 0 0)
(0.5 0 0)
(0.55 0 0)
(0.6 0 0)
(0.65 0 0)
(0.7 0 0)
(0.75 0 0)
(0.8 0 0)
(0.85 0 0)
(0.9 0 0)
(0.95 0 0)
(1 0 0)
(1.05 0 0)
(1.1 0 0)
(1.15 0 0)
(1.2 0 0)
(1.25 0 0)
(1.3 0 0)
(1.35 0 0)
(1.4 0 0)
(1.45 0 0)
(1.5 0 0)
(1.55 0 0)
(1.6 0 0)
(1.65 0 0)
(1.7 0 0)
(1.75 0 0)
(1.8 0 0)
(1.85 0 0)
(1.9 0 0)
(1.95 0 0)
(2 0 0)
(2.05 0 0)
(2.1 0 0)
(2.15 0 0)
(2.2 0 0)
(2.25 0 0)
(2.3 0 0)
(2.35 0 0)
(2.4 0 0)
(2.45 0 0)
(2.5 0 0)
(2.55 0 0)
(2.6 0 0)
(2.65 0 0)
(2.7 0 0)
(2.75 0 0)
(2.8 0 0)
(2.85 0 0)
(2.9 0 0)
(2.95 0 0)
(3 0 0)
(3.05 0 0)
(3.1 0 0)
(3.15 0 0)
(3.2 0 0)
(3.25 0 0)
(3.3 0 0)
(3.35 0 0)
(3.4 0 0)
(3.45 0 0)
(3.5 0 0)
(3.55 0 0)
(3.6 0 0)
(3.65 0 0)
(3.7 0 0)
(3.75 0 0)
(3.8 0 0)
(3.85 0 0)
(3.9 0 0)
(3.95 0 0)
(4 0 0)
(4.05 0 0)
(4.1 0 0)
(4.15 0 0)
(4.2 0 0)
(4.25 0 0)
(4.3 0 0)
(4.35 0 0)
(4.4 0 0)
(4.45 0 0)
(4.5 0 0)
(4.55 0 0)
(4.6 0 0)
(4.65 0 0)
(4.7 0 0)
(4.75 0 0)
(4.8 0 0)
(4.85 0 0)
(4.9 0 0)
(4.95 0 0)
(5 0 -0.0048833)
(5.05 0 -0.0115119)
(5.1 0 -0.0156133)
(5.15 0 -0.0193815)
(5.2 0 -0.0225217)
(5.25 0 -0.0253579)
(5.3 0 -0.0276927)
(5.35 0 -0.0299413)
(5.4 0 -0.0316464)
(5.45 0 -0.0334099)
(5.5 0 -0.0352909)
(5.55 0 -0.0357912)
(5.6 0 -0.0372303)
(5.65 0 -0.0384383)
(5.7 0 -0.0392034)
(5.75 0 -0.0407718)
(5.8 0 -0.0412339)
(5.85 0 -0.042503)
(5.9 0 -0.0426964)
(5.95 0 -0.0435518)
(6 0 -0.0445989)
(6.05 0 -0.045009)
(6.1 0 -0.0459707)
(6.15 0 -0.0456653)
(6.2 0 -0.0471241)
(6.25 0 -0.0466533)
(6.3 0 -0.0468252)
(6.35 0 -0.047474)
(6.4 0 -0.0466651)
(6.45 0 -0.0478195)
(6.5 0 -0.0468252)
(6.55 0 -0.0485001)
(6.6 0 -0.0484101)
(6.65 0 -0.0481407)
(6.7 0 -0.0486028)
(6.75 0 -0.0475497)
(6.8 0 -0.0482157)
(6.85 0 -0.0465055)
(6.9 0 -0.0476381)
(6.95 0 -0.0469068)
(7 0 -0.046864)
(7.05 0 -0.0480854)
(7.1 0 -0.0468999)
(7.15 0 -0.0477413)
(7.2 0 -0.0459451)
(7.25 0 -0.0471368)
(7.3 0 -0.0460649)
(7.35 0 -0.0454951)
(7.4 0 -0.0458198)
(7.45 0 -0.0437929)
(7.5 0 -0.044613)
(7.55 0 -0.0430074)
(7.6 0 -0.0443427)
(7.65 0 -0.0432069)
(7.7 0 -0.0431217)
(7.75 0 -0.0429702)
(7.8 0 -0.0414311)
(7.85 0 -0.0413257)
(7.9 0 -0.0395009)
(7.95 0 -0.0394585)
(8 0 -0.0380616)
(8.05 0 -0.0390775)
(8.1 0 -0.0387017)
(8.15 0 -0.0376652)
(8.2 0 -0.0379425)
(8.25 0 -0.036046)
(8.3 0 -0.0368383)
(8.35 0 -0.0355972)
(8.4 0 -0.0361777)
(8.45 0 -0.0357534)
(8.5 0 -0.0348654)
(8.55 0 -0.0351499)
(8.6 0 -0.0344684)
(8.65 0 -0.0356481)
(8.7 0 -0.034718)
(8.75 0 -0.036145)
(8.8 0 -0.0350766)
(8.85 0 -0.0368403)
(8.9 0 -0.036323)
(8.95 0 -0.0368796)
(9 0 -0.0380359)
(9.05 0 -0.037402)
(9.1 0 -0.0389254)
(9.15 0 -0.0377686)
(9.2 0 -0.0397734)
(9.25 0 -0.0382562)
(9.3 0 -0.0404433)
(9.35 0 -0.038877)
(9.4 0 -0.039873)
(9.45 0 -0.0404746)
(9.5 0 -0.039378)
(9.55 0 -0.0397949)
(9.6 0 -0.0383219)
(9.65 0 -0.0396731)
(9.7 0 -0.0371874)
(9.75 0 -0.0382051)
(9.8 0 -0.0357634)
(9.85 0 -0.0368174)
(9.9 0 -0.0350463)
(9.95 0 -0.0352331)
(10 0 -0.0354624)
(10.05 0 -0.0347909)
(10.1 0 -0.0359887)
(10.15 0 -0.034711)
(10.2 0 -0.0368304)
(10.25 0 -0.0349173)
(10.3 0 -0.0371428)
(10.35 0 -0.0357321)
(10.4 0 -0.0369075)
(10.45 0 -0.0363144)
(10.5 0 -0.0361522)
(10.55 0 -0.0371847)
(10.6 0 -0.0364369)
(10.65 0 -0.0376927)
(10.7 0 -0.0362783)
(10.75 0 -0.0378)
(10.8 0 -0.0361799)
(10.85 0 -0.0376659)
(10.9 0 -0.0357532)
(10.95 0 -0.0364506)
(11 0 -0.0357554)
(11.05 0 -0.0346861)
(11.1 0 -0.0352119)
(11.15 0 -0.0342196)
(11.2 0 -0.0356924)
(11.25 0 -0.0343831)
(11.3 0 -0.0364576)
(11.35 0 -0.0348734)
(11.4 0 -0.0369178)
(11.45 0 -0.0361762)
(11.5 0 -0.0370871)
(11.55 0 -0.0377941)
(11.6 0 -0.0371878)
(11.65 0 -0.0380419)
(11.7 0 -0.0364709)
(11.75 0 -0.0377692)
(11.8 0 -0.0359989)
(11.85 0 -0.0370575)
(11.9 0 -0.0351529)
(11.95 0 -0.0359471)
(12 0 -0.0350201)
(12.05 0 -0.0351244)
(12.1 0 -0.0358627)
(12.15 0 -0.0355618)
(12.2 0 -0.0368893)
(12.25 0 -0.0362225)
(12.3 0 -0.037578)
(12.35 0 -0.0363574)
(12.4 0 -0.0380144)
(12.45 0 -0.036313)
(12.5 0 -0.03729)
(12.55 0 -0.0363965)
(12.6 0 -0.036498)
(12.65 0 -0.0365746)
(12.7 0 -0.0359688)
(12.75 0 -0.0368453)
(12.8 0 -0.0360816)
(12.85 0 -0.0373112)
(12.9 0 -0.0365785)
(12.95 0 -0.0379219)
(13 0 -0.036688)
(13.05 0 -0.0378629)
(13.1 0 -0.0363553)
(13.15 0 -0.0368776)
(13.2 0 -0.0360546)
(13.25 0 -0.0357226)
(13.3 0 -0.0356384)
(13.35 0 -0.035588)
(13.4 0 -0.0364427)
(13.45 0 -0.0357568)
(13.5 0 -0.0370851)
(13.55 0 -0.0359799)
(13.6 0 -0.0374505)
(13.65 0 -0.0365483)
(13.7 0 -0.0371854)
(13.75 0 -0.0363995)
(13.8 0 -0.0366171)
(13.85 0 -0.0354251)
(13.9 0 -0.0359991)
(13.95 0 -0.0347391)
(14 0 -0.0344618)
(14.05 0 -0.0335564)
(14.1 0 -0.0333444)
(14.15 0 -0.0336845)
(14.2 0 -0.0330058)
(14.25 0 -0.0336346)
(14.3 0 -0.0333525)
(14.35 0 -0.0337605)
(14.4 0 -0.0323299)
(14.45 0 -0.0314881)
(14.5 0 -0.0294804)
(14.55 0 -0.0279222)
(14.6 0 -0.0250633)
(14.65 0 -0.0225215)
(14.7 0 -0.0182507)
(14.75 0 -0.0141425)
(14.8 0 -0.00577447)
(14.85 0 0)
(14.9 0 0)
(14.95 0 0)
(15 0 0)
(0 0.02 0)
(0.05 0.02 0)
(0.1 0.02 0)
(0.15 0.02 0)
(0.2 0.02 0)
(0.25 0.02 0)
(0.3 0.02 0)
(0.35 0.02 0)
(0.4 0.02 0)
(0.45 0.02 0)
(0.5 0.02 0)
(0.55 0.02 0)
(0.6 0.02 0)
(0.65 0.02 0)
(0.7 0.02 0)
(0.75 0.02 0)
(0.8 0.02 0)
(0.85 0.02 0)
(0.9 0.02 0)
(0.95 0.02 0)
(1 0.02 0)
(1.05 0.02 0)
(1.1 0.02 0)
(1.15 0.02 0)
(1.2 0.02 0)
(1.25 0.02 0)
(1.3 0.02 0)
(1.35 0.02 0)
(1.4 0.02 0)
(1.45 0.02 0)
(1.5 0.02 0)
(1.55 0.02 0)
(1.6 0.02 0)
(1.65 0.02 0)
(1.7 0.02 0)
(1.75 0.02 0)
(1.8 0.02 0)
(1.85 0.02 0)
(1.9 0.02 0)
(1.95 0.02 0)
(2 0.02 0)
(2.05 0.02 0)
(2.1 0.02 0)
(2.15 0.02 0)
(2.2 0.02 0)
(2.25 0.02 0)
(2.3 0.02 0)
(2.35 0.02 0)
(2.4 0.02 0)
(2.45 0.02 0)
(2.5 0.02 0)
(2.55 0.02 0)
(2.6 0.02 0)
(2.65 0.02 0)
(2.7 0.02 0)
(2.75 0.02 0)
(2.8 0.02 0)
(2.85 0.02 0)
(2.9 0.02 0)
(2.95 0.02 0)
(3 0.02 0)
(3.05 0.02 0)
(3.1 0.02 0)
(3.15 0.02 0)
(3.2 0.02 0)
(3.25 0.02 0)
(3.3 0.02 0)
(3.35 0.02 0)
(3.4 0.02 0)
(3.45 0.02 0)
(3.5 0.02 0)
(3.55 0.02 0)
(3.6 0.02 0)
(3.65 0.02 0)
(3.7 0.02 0)
(3.75 0.02 0)
(3.8 0.02 0)
(3.85 0.02 0)
(3.9 0.02 0)
(3.95 0.02 0)
(4 0.02 0)
(4.05 0.02 0)
(4.1 0.02 0)
(4.15 0.02 0)
(4.2 0.02 0)
(4.25 0.02 0)
(4.3 0.02 0)
(4.35 0.02 0)
(4.4 0.02 0)
(4.45 0.02 0)
(4.5 0.02 0)
(4.55 0.02 0)
(4.6 0.02 0)
(4.65 0.02 0)
(4.7 0.02 0)
(4.75 0.02 0)
(4.8 0.02 0)
(4.85 0.02 0)
(4.9 0.02 0)
(4.95 0.02 0)
(5 0.02 -0.0048833)
(5.05 0.02 -0.0115119)
(5.1 0.02 -0.0156133)
(5.15 0.02 -0.0193815)
(5.2 0.02 -0.0225217)
(5.25 0.02 -0.0253579)
(5.3 0.02 -0.0276927)
(5.35 0.02 -0.0299413)
(5.4 0.02 -0.0316464)
(5.45 0.02 -0.0334099)
(5.5 0.02 -0.0352909)
(5.55 0.02 -0.0357912)
(5.6 0.02 -0.0372303)
(5.65 0.02 -0.0384383)
(5.7 0.02 -0.0392034)
(5.75 0.02 -0.0407718)
(5.8 0.02 -0.0412339)
(5.85 0.02 -0.042503)
(5.9 0.02 -0.0426964)
(5.95 0.02 -0.0435518)
(6 0.02 -0.0445989)
(6.05 0.02 -0.045009)
(6.1 0.02 -0.0459707)
(6.15 0.02 -0.0456653)
(6.2 0.02 -0.0471241)
(6.25 0.02 -0.0466533)
(6.3 0.02 -0.0468252)
(6.35 0.02 -0.047474)
(6.4 0.02 -0.0466651)
(6.45 0.02 -0.0478195)
(6.5 0.02 -0.0468252)
(6.55 0.02 -0.0485001)
(6.6 0.02 -0.0484101)
(6.65 0.02 -0.0481407)
(6.7 0.02 -0.0486028)
(6.75 0.02 -0.0475497)
(6.8 0.02 -0.0482157)
(6.85 0.02 -0.0465055)
(6.9 0.02 -0.0476381)
(6.95 0.02 -0.0469068)
(7 0.02 -0.046864)
(7.05 0.02 -0.0480854)
(7.1 0.02 -0.0468999)
(7.15 0.02 -0.0477413)
(7.2 0.02 -0.0459451)
(7.25 0.02 -0.0471368)
(7.3 0.02 -0.0460649)
(7.35 0.02 -0.0454951)
(7.4 0.02 -0.0458198)
(7.45 0.02 -0.0437929)
(7.5 0.02 -0.044613)
(7.55 0.02 -0.0430074)
(7.6 0.02 -0.0443427)
(7.65 0.02 -0.0432069)
(7.7 0.02 -0.0431217)
(7.75 0.02 -0.0429702)
(7.8 0.02 -0.0414311)
(7.85 0.02 -0.0413257)
(7.9 0.02 -0.0395009)
(7.95 0.02 -0.0394585)
(8 0.02 -0.0380616)
(8.05 0.02 -0.0390775)
(8.1 0.02 -0.0387017)
(8.15 0.02 -0.0376652)
(8.2 0.02 -0.0379425)
(8.25 0.02 -0.036046)
(8.3 0.02 -0.0368383)
(8.35 0.02 -0.0355972)
(8.4 0.02 -0.0361777)
(8.45 0.02 -0.0357534)
(8.5 0.02 -0.0348654)
(8.55 0.02 -0.0351499)
(8.6 0.02 -0.0344684)
(8.65 0.02 -0.0356481)
(8.7 0.02 -0.034718)
(8.75 0.02 -0.036145)
(8.8 0.02 -0.0350766)
(8.85 0.02 -0.0368403)
(8.9 0.02 -0.036323)
(8.95 0.02 -0.0368796)
(9 0.02 -0.0380359)
(9.05 0.02 -0.037402)
(9.1 0.02 -0.0389254)
(9.15 0.02 -0.0377686)
(9.2 0.02 -0.0397734)
(9.25 0.02 -0.0382562)
(9.3 0.02 -0.0404433)
(9.35 0.02 -0.038877)
(9.4 0.02 -0.039873)
(9.45 0.02 -0.0404746)
(9.5 0.02 -0.039378)
(9.55 0.02 -0.0397949)
(9.6 0.02 -0.0383219)
(9.65 0.02 -0.0396731)
(9.7 0.02 -0.0371874)
(9.75 0.02 -0.0382051)
(9.8 0.02 -0.0357634)
(9.85 0.02 -0.0368174)
(9.9 0.02 -0.0350463)
(9.95 0.02 -0.0352331)
(10 0.02 -0.0354624)
(10.05 0.02 -0.0347909)
(10.1 0.02 -0.0359887)
(10.15 0.02 -0.034711)
(10.2 0.02 -0.0368304)
(10.25 0.02 -0.0349173)
(10.3 0.02 -0.0371428)
(10.35 0.02 -0.0357321)
(10.4 0.02 -0.0369075)
(10.45 0.02 -0.0363144)
(10.5 0.02 -0.0361522)
(10.55 0.02 -0.0371847)
(10.6 0.02 -0.0364369)
(10.65 0.02 -0.0376927)
(10.7 0.02 -0.0362783)
(10.75 0.02 -0.0378)
(10.8 0.02 -0.0361799)
(10.85 0.02 -0.0376659)
(10.9 0.02 -0.0357532)
(10.95 0.02 -0.0364506)
(11 0.02 -0.0357554)
(11.05 0.02 -0.0346861)
(11.1 0.02 -0.0352119)
(11.15 0.02 -0.0342196)
(11.2 0.02 -0.0356924)
(11.25 0.02 -0.0343831)
(11.3 0.02 -0.0364576)
(11.35 0.02 -0.0348734)
(11.4 0.02 -0.0369178)
(11.45 0.02 -0.0361762)
(11.5 0.02 -0.0370871)
(11.55 0.02 -0.0377941)
(11.6 0.02 -0.0371878)
(11.65 0.02 -0.0380419)
(11.7 0.02 -0.0364709)
(11.75 0.02 -0.0377692)
(11.8 0.02 -0.0359989)
(11.85 0.02 -0.0370575)
(11.9 0.02 -0.0351529)
(11.95 0.02 -0.0359471)
(12 0.02 -0.0350201)
(12.05 0.02 -0.0351244)
(12.1 0.02 -0.0358627)
(12.15 0.02 -0.0355618)
(12.2 0.02 -0.0368893)
(12.25 0.02 -0.0362225)
(12.3 0.02 -0.037578)
(12.35 0.02 -0.0363574)
(12.4 0.02 -0.0380144)
(12.45 0.02 -0.036313)
(12.5 0.02 -0.03729)
(12.55 0.02 -0.0363965)
(12.6 0.02 -0.036498)
(12.65 0.02 -0.0365746)
(12.7 0.02 -0.0359688)
(12.75 0.02 -0.0368453)
(12.8 0.02 -0.0360816)
(12.85 0.02 -0.0373112)
(12.9 0.02 -0.0365785)
(12.95 0.02 -0.0379219)
(13 0.02 -0.036688)
(13.05 0.02 -0.0378629)
(13.1 0.02 -0.0363553)
(13.15 0.02 -0.0368776)
(13.2 0.02 -0.0360546)
(13.25 0.02 -0.0357226)
(13.3 0.02 -0.0356384)
(13.35 0.02 -0.035588)
(13.4 0.02 -0.0364427)
(13.45 0.02 -0.0357568)
(13.5 0.02 -0.0370851)
(13.55 0.02 -0.0359799)
(13.6 0.02 -0.0374505)
(13.65 0.02 -0.0365483)
(13.7 0.02 -0.0371854)
(13.75 0.02 -0.0363995)
(13.8 0.02 -0.0366171)
(13.85 0.02 -0.0354251)
(13.9 0.02 -0.0359991)
(13.95 0.02 -0.0347391)
(14 0.02 -0.0344618)
(14.05 0.02 -0.0335564)
(14.1 0.02 -0.0333444)
(14.15 0.02 -0.0336845)
(14.2 0.02 -0.0330058)
(14.25 0.02 -0.0336346)
(14.3 0.02 -0.0333525)
(14.35 0.02 -0.0337605)
(14.4 0.02 -0.0323299)
(14.45 0.02 -0.0314881)
(14.5 0.02 -0.0294804)
(14.55 0.02 -0.0279222)
(14.6 0.02 -0.0250633)
(14.65 0.02 -0.0225215)
(14.7 0.02 -0.0182507)
(14.75 0.02 -0.0141425)
(14.8 0.02 -0.00577447)
(14.85 0.02 0)
(14.9 0.02 0)
(14.95 0.02 0)
(15 0.02 0)
(0 0 0.0028125)
(0.05 0 0.0028125)
(0.1 0 0.0028125)
(0.15 0 0.0028125)
(0.2 0 0.0028125)
(0.25 0 0.0028125)
(0.3 0 0.0028125)
(0.35 0 0.0028125)
(0.4 0 0.0028125)
(0.45 0 0.0028125)
(0.5 0 0.0028125)
(0.55 0 0.0028125)
(0.6 0 0.0028125)
(0.65 0 0.0028125)
(0.7 0 0.0028125)
(0.75 0 0.0028125)
(0.8 0 0.0028125)
(0.85 0 0.0028125)
(0.9 0 0.0028125)
(0.95 0 0.0028125)
(1 0 0.0028125)
(1.05 0 0.0028125)
(1.1 0 0.0028125)
(1.15 0 0.0028125)
(1.2 0 0.0028125)
(1.25 0 0.0028125)
(1.3 0 0.0028125)
(1.35 0 0.0028125)
(1.4 0 0.0028125)
(1.45 0 0.0028125)
(1.5 0 0.0028125)
(1.55 0 0.0028125)
(1.6 0 0.0028125)
(1.65 0 0.0028125)
(1.7 0 0.0028125)
(1.75 0 0.0028125)
(1.8 0 0.0028125)
(1.85 0 0.0028125)
(1.9 0 0.0028125)
(1.95 0 0.0028125)
(2 0 0.0028125)
(2.05 0 0.0028125)
(2.1 0 0.0028125)
(2.15 0 0.0028125)
(2.2 0 0.0028125)
(2.25 0 0.0028125)
(2.3 0 0.0028125)
(2.35 0 0.0028125)
(2.4 0 0.0028125)
(2.45 0 0.0028125)
(2.5 0 0.0028125)
(2.55 0 0.0028125)
(2.6 0 0.0028125)
(2.65 0 0.0028125)
(2.7 0 0.0028125)
(2.75 0 0.0028125)
(2.8 0 0.0028125)
(2.85 0 0.0028125)
(2.9 0 0.0028125)
(2.95 0 0.0028125)
(3 0 0.0028125)
(3.05 0 0.0028125)
(3.1 0 0.0028125)
(3.15 0 0.0028125)
(3.2 0 0.0028125)
(3.25 0 0.0028125)
(3.3 0 0.0028125)
(3.35 0 0.0028125)
(3.4 0 0.0028125)
(3.45 0 0.0028125)
(3.5 0 0.0028125)
(3.55 0 0.0028125)
(3.6 0 0.0028125)
(3.65 0 0.0028125)
(3.7 0 0.0028125)
(3.75 0 0.0028125)
(3.8 0 0.0028125)
(3.85 0 0.0028125)
(3.9 0 0.0028125)
(3.95 0 0.0028125)
(4 0 0.0028125)
(4.05 0 0.0028125)
(4.1 0 0.0028125)
(4.15 0 0.0028125)
(4.2 0 0.0028125)
(4.25 0 0.0028125)
(4.3 0 0.0028125)
(4.35 0 0.0028125)
(4.4 0 0.0028125)
(4.45 0 0.0028125)
(4.5 0 0.0028125)
(4.55 0 0.0028125)
(4.6 0 0.0028125)
(4.65 0 0.0028125)
(4.7 0 0.0028125)
(4.75 0 0.0028125)
(4.8 0 0.0028125)
(4.85 0 0.00281242)
(4.9 0 0.00281333)
(4.95 0 0.00280095)
(5 0 -0.00205656)
(5.05 0 -0.00867221)
(5.1 0 -0.0127923)
(5.15 0 -0.01656)
(5.2 0 -0.0197034)
(5.25 0 -0.0225399)
(5.3 0 -0.0248772)
(5.35 0 -0.0271245)
(5.4 0 -0.0288326)
(5.45 0 -0.0305967)
(5.5 0 -0.0324728)
(5.55 0 -0.0329834)
(5.6 0 -0.0344177)
(5.65 0 -0.0356258)
(5.7 0 -0.0363961)
(5.75 0 -0.0379568)
(5.8 0 -0.0384277)
(5.85 0 -0.0396889)
(5.9 0 -0.03989)
(5.95 0 -0.0407432)
(6 0 -0.0417874)
(6.05 0 -0.042203)
(6.1 0 -0.0431569)
(6.15 0 -0.0428642)
(6.2 0 -0.0443076)
(6.25 0 -0.0438482)
(6.3 0 -0.0440193)
(6.35 0 -0.0446599)
(6.4 0 -0.0438653)
(6.45 0 -0.0450019)
(6.5 0 -0.0440277)
(6.55 0 -0.0456845)
(6.6 0 -0.0456023)
(6.65 0 -0.0453364)
(6.7 0 -0.0457886)
(6.75 0 -0.0447494)
(6.8 0 -0.045397)
(6.85 0 -0.0437087)
(6.9 0 -0.0448222)
(6.95 0 -0.0441019)
(7 0 -0.0440612)
(7.05 0 -0.0452669)
(7.1 0 -0.0441007)
(7.15 0 -0.0449211)
(7.2 0 -0.0431485)
(7.25 0 -0.0443188)
(7.3 0 -0.0432588)
(7.35 0 -0.042691)
(7.4 0 -0.0430007)
(7.45 0 -0.0409955)
(7.5 0 -0.0417933)
(7.55 0 -0.0402104)
(7.6 0 -0.0415231)
(7.65 0 -0.0404029)
(7.7 0 -0.0403133)
(7.75 0 -0.0401556)
(7.8 0 -0.0386285)
(7.85 0 -0.038509)
(7.9 0 -0.0366991)
(7.95 0 -0.0366433)
(8 0 -0.0352619)
(8.05 0 -0.0362629)
(8.1 0 -0.0358902)
(8.15 0 -0.0348619)
(8.2 0 -0.0351234)
(8.25 0 -0.0332473)
(8.3 0 -0.03402)
(8.35 0 -0.0327956)
(8.4 0 -0.0333648)
(8.45 0 -0.0329426)
(8.5 0 -0.0320612)
(8.55 0 -0.0323365)
(8.6 0 -0.0316669)
(8.65 0 -0.0328296)
(8.7 0 -0.0319186)
(8.75 0 -0.0333244)
(8.8 0 -0.0322785)
(8.85 0 -0.0340208)
(8.9 0 -0.0335185)
(8.95 0 -0.0340726)
(9 0 -0.035219)
(9.05 0 -0.0346017)
(9.1 0 -0.0361039)
(9.15 0 -0.0349719)
(9.2 0 -0.0369475)
(9.25 0 -0.0354613)
(9.3 0 -0.0376164)
(9.35 0 -0.0360779)
(9.4 0 -0.0370619)
(9.45 0 -0.0376586)
(9.5 0 -0.0365755)
(9.55 0 -0.0369769)
(9.6 0 -0.0355241)
(9.65 0 -0.0368455)
(9.7 0 -0.0343916)
(9.75 0 -0.0353791)
(9.8 0 -0.0329672)
(9.85 0 -0.033995)
(9.9 0 -0.0322444)
(9.95 0 -0.0324238)
(10 0 -0.0326491)
(10.05 0 -0.0319892)
(10.1 0 -0.0331678)
(10.15 0 -0.0319147)
(10.2 0 -0.0340016)
(10.25 0 -0.0321234)
(10.3 0 -0.0343161)
(10.35 0 -0.0329334)
(10.4 0 -0.0340903)
(10.45 0 -0.0335069)
(10.5 0 -0.0333476)
(10.55 0 -0.0343675)
(10.6 0 -0.0336359)
(10.65 0 -0.034871)
(10.7 0 -0.0334805)
(10.75 0 -0.0349757)
(10.8 0 -0.0333828)
(10.85 0 -0.0348404)
(10.9 0 -0.0329537)
(10.95 0 -0.0336351)
(11 0 -0.032944)
(11.05 0 -0.0318826)
(11.1 0 -0.0323951)
(11.15 0 -0.0314196)
(11.2 0 -0.0328695)
(11.25 0 -0.0315863)
(11.3 0 -0.0336302)
(11.35 0 -0.0320772)
(11.4 0 -0.0340947)
(11.45 0 -0.0333731)
(11.5 0 -0.0342759)
(11.55 0 -0.0349787)
(11.6 0 -0.0343842)
(11.65 0 -0.0352206)
(11.7 0 -0.0336721)
(11.75 0 -0.0349447)
(11.8 0 -0.0332001)
(11.85 0 -0.0342334)
(11.9 0 -0.0323531)
(11.95 0 -0.0331292)
(12 0 -0.032214)
(12.05 0 -0.0323165)
(12.1 0 -0.033048)
(12.15 0 -0.0327581)
(12.2 0 -0.03407)
(12.25 0 -0.0334208)
(12.3 0 -0.0347558)
(12.35 0 -0.0335586)
(12.4 0 -0.0351884)
(12.45 0 -0.0335134)
(12.5 0 -0.0344714)
(12.55 0 -0.0335904)
(12.6 0 -0.0336877)
(12.65 0 -0.0337614)
(12.7 0 -0.0331645)
(12.75 0 -0.0340276)
(12.8 0 -0.0332794)
(12.85 0 -0.0344918)
(12.9 0 -0.0337767)
(12.95 0 -0.0350995)
(13 0 -0.0338874)
(13.05 0 -0.0350401)
(13.1 0 -0.0335529)
(13.15 0 -0.0340611)
(13.2 0 -0.0332461)
(13.25 0 -0.032913)
(13.3 0 -0.0328277)
(13.35 0 -0.0327812)
(13.4 0 -0.0336253)
(13.45 0 -0.0329544)
(13.5 0 -0.0342632)
(13.55 0 -0.0331793)
(13.6 0 -0.0346289)
(13.65 0 -0.0337441)
(13.7 0 -0.0343682)
(13.75 0 -0.0335931)
(13.8 0 -0.0337996)
(13.85 0 -0.0326212)
(13.9 0 -0.0331799)
(13.95 0 -0.0319319)
(14 0 -0.0316475)
(14.05 0 -0.0307474)
(14.1 0 -0.030535)
(14.15 0 -0.0308683)
(14.2 0 -0.030199)
(14.25 0 -0.0308182)
(14.3 0 -0.0305435)
(14.35 0 -0.0309401)
(14.4 0 -0.0295197)
(14.45 0 -0.0286695)
(14.5 0 -0.0266686)
(14.55 0 -0.0251015)
(14.6 0 -0.0222488)
(14.65 0 -0.0196953)
(14.7 0 -0.0154316)
(14.75 0 -0.0112884)
(14.8 0 -0.00294044)
(14.85 0 0.00280016)
(14.9 0 0.00281338)
(14.95 0 0.00281242)
(15 0 0.0028125)
(0 0.02 0.0028125)
(0.05 0.02 0.0028125)
(0.1 0.02 0.0028125)
(0.15 0.02 0.0028125)
(0.2 0.02 0.0028125)
(0.25 0.02 0.0028125)
(0.3 0.02 0.0028125)
(0.35 0.02 0.0028125)
(0.4 0.02 0.0028125)
(0.45 0.02 0.0028125)
(0.5 0.02 0.0028125)
(0.55 0.02 0.0028125)
(0.6 0.02 0.0028125)
(0.65 0.02 0.0028125)
(0.7 0.02 0.0028125)
(0.75 0.02 0.0028125)
(0.8 0.02 0.0028125)
(0.85 0.02 0.0028125)
(0.9 0.02 0.0028125)
(0.95 0.02 0.0028125)
(1 0.02 0.0028125)
(1.05 0.02 0.0028125)
(1.1 0.02 0.0028125)
(1.15 0.02 0.0028125)
(1.2 0.02 0.0028125)
(1.25 0.02 0.0028125)
(1.3 0.02 0.0028125)
(1.35 0.02 0.0028125)
(1.4 0.02 0.0028125)
(1.45 0.02 0.0028125)
(1.5 0.02 0.0028125)
(1.55 0.02 0.0028125)
(1.6 0.02 0.0028125)
(1.65 0.02 0.0028125)
(1.7 0.02 0.0028125)
(1.75 0.02 0.0028125)
(1.8 0.02 0.0028125)
(1.85 0.02 0.0028125)
(1.9 0.02 0.0028125)
(1.95 0.02 0.0028125)
(2 0.02 0.0028125)
(2.05 0.02 0.0028125)
(2.1 0.02 0.0028125)
(2.15 0.02 0.0028125)
(2.2 0.02 0.0028125)
(2.25 0.02 0.0028125)
(2.3 0.02 0.0028125)
(2.35 0.02 0.0028125)
(2.4 0.02 0.0028125)
(2.45 0.02 0.0028125)
(2.5 0.02 0.0028125)
(2.55 0.02 0.0028125)
(2.6 0.02 0.0028125)
(2.65 0.02 0.0028125)
(2.7 0.02 0.0028125)
(2.75 0.02 0.0028125)
(2.8 0.02 0.0028125)
(2.85 0.02 0.0028125)
(2.9 0.02 0.0028125)
(2.95 0.02 0.0028125)
(3 0.02 0.0028125)
(3.05 0.02 0.0028125)
(3.1 0.02 0.0028125)
(3.15 0.02 0.0028125)
(3.2 0.02 0.0028125)
(3.25 0.02 0.0028125)
(3.3 0.02 0.0028125)
(3.35 0.02 0.0028125)
(3.4 0.02 0.0028125)
(3.45 0.02 0.0028125)
(3.5 0.02 0.0028125)
(3.55 0.02 0.0028125)
(3.6 0.02 0.0028125)
(3.65 0.02 0.0028125)
(3.7 0.02 0.0028125)
(3.75 0.02 0.0028125)
(3.8 0.02 0.0028125)
(3.85 0.02 0.0028125)
(3.9 0.02 0.0028125)
(3.95 0.02 0.0028125)
(4 0.02 0.0028125)
(4.05 0.02 0.0028125)
(4.1 0.02 0.0028125)
(4.15 0.02 0.0028125)
(4.2 0.02 0.0028125)
(4.25 0.02 0.0028125)
(4.3 0.02 0.0028125)
(4.35 0.02 0.0028125)
(4.4 0.02 0.0028125)
(4.45 0.02 0.0028125)
(4.5 0.02 0.0028125)
(4.55 0.02 0.0028125)
(4.6 0.02 0.0028125)
(4.65 0.02 0.0028125)
(4.7 0.02 0.0028125)
(4.75 0.02 0.0028125)
(4.8 0.02 0.0028125)
(4.85 0.02 0.00281242)
(4.9 0.02 0.00281333)
(4.95 0.02 0.00280095)
(5 0.02 -0.00205656)
(5.05 0.02 -0.00867221)
(5.1 0.02 -0.0127923)
(5.15 0.02 -0.01656)
(5.2 0.02 -0.0197034)
(5.25 0.02 -0.0225399)
(5.3 0.02 -0.0248772)
(5.35 0.02 -0.0271245)
(5.4 0.02 -0.0288326)
(5.45 0.02 -0.0305967)
(5.5 0.02 -0.0324728)
(5.55 0.02 -0.0329834)
(5.6 0.02 -0.0344177)
(5.65 0.02 -0.0356258)
(5.7 0.02 -0.0363961)
(5.75 0.02 -0.0379568)
(5.8 0.02 -0.0384277)
(5.85 0.02 -0.0396889)
(5.9 0.02 -0.03989)
(5.95 0.02 -0.0407432)
(6 0.02 -0.0417874)
(6.05 0.02 -0.042203)
(6.1 0.02 -0.0431569)
(6.15 0.02 -0.0428642)
(6.2 0.02 -0.0443076)
(6.25 0.02 -0.0438482)
(6.3 0.02 -0.0440193)
(6.35 0.02 -0.0446599)
(6.4 0.02 -0.0438653)
(6.45 0.02 -0.0450019)
(6.5 0.02 -0.0440277)
(6.55 0.02 -0.0456845)
(6.6 0.02 -0.0456023)
(6.65 0.02 -0.0453364)
(6.7 0.02 -0.0457886)
(6.75 0.02 -0.0447494)
(6.8 0.02 -0.045397)
(6.85 0.02 -0.0437087)
(6.9 0.02 -0.0448222)
(6.95 0.02 -0.0441019)
(7 0.02 -0.0440612)
(7.05 0.02 -0.0452669)
(7.1 0.02 -0.0441007)
(7.15 0.02 -0.0449211)
(7.2 0.02 -0.0431485)
(7.25 0.02 -0.0443188)
(7.3 0.02 -0.0432588)
(7.35 0.02 -0.042691)
(7.4 0.02 -0.0430007)
(7.45 0.02 -0.0409955)
(7.5 0.02 -0.0417933)
(7.55 0.02 -0.0402104)
(7.6 0.02 -0.0415231)
(7.65 0.02 -0.0404029)
(7.7 0.02 -0.0403133)
(7.75 0.02 -0.0401556)
(7.8 0.02 -0.0386285)
(7.85 0.02 -0.038509)
(7.9 0.02 -0.0366991)
(7.95 0.02 -0.0366433)
(8 0.02 -0.0352619)
(8.05 0.02 -0.0362629)
(8.1 0.02 -0.0358902)
(8.15 0.02 -0.0348619)
(8.2 0.02 -0.0351234)
(8.25 0.02 -0.0332473)
(8.3 0.02 -0.03402)
(8.35 0.02 -0.0327956)
(8.4 0.02 -0.0333648)
(8.45 0.02 -0.0329426)
(8.5 0.02 -0.0320612)
(8.55 0.02 -0.0323365)
(8.6 0.02 -0.0316669)
(8.65 0.02 -0.0328296)
(8.7 0.02 -0.0319186)
(8.75 0.02 -0.0333244)
(8.8 0.02 -0.0322785)
(8.85 0.02 -0.0340208)
(8.9 0.02 -0.0335185)
(8.95 0.02 -0.0340726)
(9 0.02 -0.035219)
(9.05 0.02 -0.0346017)
(9.1 0.02 -0.0361039)
(9.15 0.02 -0.0349719)
(9.2 0.02 -0.0369475)
(9.25 0.02 -0.0354613)
(9.3 0.02 -0.0376164)
(9.35 0.02 -0.0360779)
(9.4 0.02 -0.0370619)
(9.45 0.02 -0.0376586)
(9.5 0.02 -0.0365755)
(9.55 0.02 -0.0369769)
(9.6 0.02 -0.0355241)
(9.65 0.02 -0.0368455)
(9.7 0.02 -0.0343916)
(9.75 0.02 -0.0353791)
(9.8 0.02 -0.0329672)
(9.85 0.02 -0.033995)
(9.9 0.02 -0.0322444)
(9.95 0.02 -0.0324238)
(10 0.02 -0.0326491)
(10.05 0.02 -0.0319892)
(10.1 0.02 -0.0331678)
(10.15 0.02 -0.0319147)
(10.2 0.02 -0.0340016)
(10.25 0.02 -0.0321234)
(10.3 0.02 -0.0343161)
(10.35 0.02 -0.0329334)
(10.4 0.02 -0.0340903)
(10.45 0.02 -0.0335069)
(10.5 0.02 -0.0333476)
(10.55 0.02 -0.0343675)
(10.6 0.02 -0.0336359)
(10.65 0.02 -0.034871)
(10.7 0.02 -0.0334805)
(10.75 0.02 -0.0349757)
(10.8 0.02 -0.0333828)
(10.85 0.02 -0.0348404)
(10.9 0.02 -0.0329537)
(10.95 0.02 -0.0336351)
(11 0.02 -0.032944)
(11.05 0.02 -0.0318826)
(11.1 0.02 -0.0323951)
(11.15 0.02 -0.0314196)
(11.2 0.02 -0.0328695)
(11.25 0.02 -0.0315863)
(11.3 0.02 -0.0336302)
(11.35 0.02 -0.0320772)
(11.4 0.02 -0.0340947)
(11.45 0.02 -0.0333731)
(11.5 0.02 -0.0342759)
(11.55 0.02 -0.0349787)
(11.6 0.02 -0.0343842)
(11.65 0.02 -0.0352206)
(11.7 0.02 -0.0336721)
(11.75 0.02 -0.0349447)
(11.8 0.02 -0.0332001)
(11.85 0.02 -0.0342334)
(11.9 0.02 -0.0323531)
(11.95 0.02 -0.0331292)
(12 0.02 -0.032214)
(12.05 0.02 -0.0323165)
(12.1 0.02 -0.033048)
(12.15 0.02 -0.0327581)
(12.2 0.02 -0.03407)
(12.25 0.02 -0.0334208)
(12.3 0.02 -0.0347558)
(12.35 0.02 -0.0335586)
(12.4 0.02 -0.0351884)
(12.45 0.02 -0.0335134)
(12.5 0.02 -0.0344714)
(12.55 0.02 -0.0335904)
(12.6 0.02 -0.0336877)
(12.65 0.02 -0.0337614)
(12.7 0.02 -0.0331645)
(12.75 0.02 -0.0340276)
(12.8 0.02 -0.0332794)
(12.85 0.02 -0.0344918)
(12.9 0.02 -0.0337767)
(12.95 0.02 -0.0350995)
(13 0.02 -0.0338874)
(13.05 0.02 -0.0350401)
(13.1 0.02 -0.0335529)
(13.15 0.02 -0.0340611)
(13.2 0.02 -0.0332461)
(13.25 0.02 -0.032913)
(13.3 0.02 -0.0328277)
(13.35 0.02 -0.0327812)
(13.4 0.02 -0.0336253)
(13.45 0.02 -0.0329544)
(13.5 0.02 -0.0342632)
(13.55 0.02 -0.0331793)
(13.6 0.02 -0.0346289)
(13.65 0.02 -0.0337441)
(13.7 0.02 -0.0343682)
(13.75 0.02 -0.0335931)
(13.8 0.02 -0.0337996)
(13.85 0.02 -0.0326212)
(13.9 0.02 -0.0331799)
(13.95 0.02 -0.0319319)
(14 0.02 -0.0316475)
(14.05 0.02 -0.0307474)
(14.1 0.02 -0.030535)
(14.15 0.02 -0.0308683)
(14.2 0.02 -0.030199)
(14.25 0.02 -0.0308182)
(14.3 0.02 -0.0305435)
(14.35 0.02 -0.0309401)
(14.4 0.02 -0.0295197)
(14.45 0.02 -0.0286695)
(14.5 0.02 -0.0266686)
(14.55 0.02 -0.0251015)
(14.6 0.02 -0.0222488)
(14.65 0.02 -0.0196953)
(14.7 0.02 -0.0154316)
(14.75 0.02 -0.0112884)
(14.8 0.02 -0.00294044)
(14.85 0.02 0.00280016)
(14.9 0.02 0.00281338)
(14.95 0.02 0.00281242)
(15 0.02 0.0028125)
(0 0 0.005625)
(0.05 0 0.005625)
(0.1 0 0.005625)
(0.15 0 0.005625)
(0.2 0 0.005625)
(0.25 0 0.005625)
(0.3 0 0.005625)
(0.35 0 0.005625)
(0.4 0 0.005625)
(0.45 0 0.005625)
(0.5 0 0.005625)
(0.55 0 0.005625)
(0.6 0 0.005625)
(0.65 0 0.005625)
(0.7 0 0.005625)
(0.75 0 0.005625)
(0.8 0 0.005625)
(0.85 0 0.005625)
(0.9 0 0.005625)
(0.95 0 0.005625)
(1 0 0.005625)
(1.05 0 0.005625)
(1.1 0 0.005625)
(1.15 0 0.005625)
(1.2 0 0.005625)
(1.25 0 0.005625)
(1.3 0 0.005625)
(1.35 0 0.005625)
(1.4 0 0.005625)
(1.45 0 0.005625)
(1.5 0 0.005625)
(1.55 0 0.005625)
(1.6 0 0.005625)
(1.65 0 0.005625)
(1.7 0 0.005625)
(1.75 0 0.005625)
(1.8 0 0.005625)
(1.85 0 0.005625)
(1.9 0 0.005625)
(1.95 0 0.005625)
(2 0 0.005625)
(2.05 0 0.005625)
(2.1 0 0.005625)
(2.15 0 0.005625)
(2.2 0 0.005625)
(2.25 0 0.005625)
(2.3 0 0.005625)
(2.35 0 0.005625)
(2.4 0 0.005625)
(2.45 0 0.005625)
(2.5 0 0.005625)
(2.55 0 0.005625)
(2.6 0 0.005625)
(2.65 0 0.005625)
(2.7 0 0.005625)
(2.75 0 0.005625)
(2.8 0 0.005625)
(2.85 0 0.005625)
(2.9 0 0.005625)
(2.95 0 0.005625)
(3 0 0.005625)
(3.05 0 0.005625)
(3.1 0 0.005625)
(3.15 0 0.005625)
(3.2 0 0.005625)
(3.25 0 0.005625)
(3.3 0 0.005625)
(3.35 0 0.005625)
(3.4 0 0.005625)
(3.45 0 0.005625)
(3.5 0 0.005625)
(3.55 0 0.005625)
(3.6 0 0.005625)
(3.65 0 0.005625)
(3.7 0 0.005625)
(3.75 0 0.005625)
(3.8 0 0.005625)
(3.85 0 0.005625)
(3.9 0 0.005625)
(3.95 0 0.005625)
(4 0 0.005625)
(4.05 0 0.005625)
(4.1 0 0.005625)
(4.15 0 0.005625)
(4.2 0 0.005625)
(4.25 0 0.005625)
(4.3 0 0.005625)
(4.35 0 0.005625)
(4.4 0 0.005625)
(4.45 0 0.005625)
(4.5 0 0.005625)
(4.55 0 0.00562499)
(4.6 0 0.00562499)
(4.65 0 0.00562499)
(4.7 0 0.00562498)
(4.75 0 0.00562497)
(4.8 0 0.00562496)
(4.85 0 0.00562464)
(4.9 0 0.00562744)
(4.95 0 0.00558646)
(5 0 0.00076509)
(5.05 0 -0.00582416)
(5.1 0 -0.0099709)
(5.15 0 -0.0137363)
(5.2 0 -0.0168842)
(5.25 0 -0.0197201)
(5.3 0 -0.0220615)
(5.35 0 -0.0243059)
(5.4 0 -0.0260189)
(5.45 0 -0.027784)
(5.5 0 -0.0296501)
(5.55 0 -0.0301788)
(5.6 0 -0.0316038)
(5.65 0 -0.0328114)
(5.7 0 -0.0335913)
(5.75 0 -0.0351375)
(5.8 0 -0.0356242)
(5.85 0 -0.0368708)
(5.9 0 -0.0370857)
(5.95 0 -0.0379349)
(6 0 -0.0389734)
(6.05 0 -0.0393987)
(6.1 0 -0.040338)
(6.15 0 -0.0400688)
(6.2 0 -0.041484)
(6.25 0 -0.0410452)
(6.3 0 -0.0412147)
(6.35 0 -0.0418401)
(6.4 0 -0.0410721)
(6.45 0 -0.0421759)
(6.5 0 -0.0412389)
(6.55 0 -0.0428623)
(6.6 0 -0.0427938)
(6.65 0 -0.0425343)
(6.7 0 -0.0429685)
(6.75 0 -0.041955)
(6.8 0 -0.0425693)
(6.85 0 -0.0409213)
(6.9 0 -0.041999)
(6.95 0 -0.0412987)
(7 0 -0.0412621)
(7.05 0 -0.0424395)
(7.1 0 -0.0413086)
(7.15 0 -0.0420909)
(7.2 0 -0.0403621)
(7.25 0 -0.0414924)
(7.3 0 -0.0404542)
(7.35 0 -0.0398896)
(7.4 0 -0.0401727)
(7.45 0 -0.0382078)
(7.5 0 -0.0389642)
(7.55 0 -0.0374232)
(7.6 0 -0.0386942)
(7.65 0 -0.0376022)
(7.7 0 -0.0375043)
(7.75 0 -0.0373359)
(7.8 0 -0.0358307)
(7.85 0 -0.0356857)
(7.9 0 -0.0339032)
(7.95 0 -0.0338224)
(8 0 -0.0324701)
(8.05 0 -0.033443)
(8.1 0 -0.0330762)
(8.15 0 -0.032063)
(8.2 0 -0.032296)
(8.25 0 -0.0304576)
(8.3 0 -0.0311939)
(8.35 0 -0.0300001)
(8.4 0 -0.030548)
(8.45 0 -0.0301299)
(8.5 0 -0.0292606)
(8.55 0 -0.0295188)
(8.6 0 -0.0288717)
(8.65 0 -0.030003)
(8.7 0 -0.0291274)
(8.75 0 -0.0304944)
(8.8 0 -0.0294901)
(8.85 0 -0.0311928)
(8.9 0 -0.0307174)
(8.95 0 -0.0312671)
(9 0 -0.0323954)
(9.05 0 -0.0318087)
(9.1 0 -0.0332722)
(9.15 0 -0.0321863)
(9.2 0 -0.0341085)
(9.25 0 -0.0326794)
(9.3 0 -0.0347757)
(9.35 0 -0.0332875)
(9.4 0 -0.0342489)
(9.45 0 -0.0348366)
(9.5 0 -0.0337781)
(9.55 0 -0.0341516)
(9.6 0 -0.0327364)
(9.65 0 -0.0340039)
(9.7 0 -0.0316082)
(9.75 0 -0.0325401)
(9.8 0 -0.0301831)
(9.85 0 -0.031162)
(9.9 0 -0.0294491)
(9.95 0 -0.0296141)
(10 0 -0.0298321)
(10.05 0 -0.0291938)
(10.1 0 -0.0303376)
(10.15 0 -0.0291303)
(10.2 0 -0.0311579)
(10.25 0 -0.029344)
(10.3 0 -0.0314759)
(10.35 0 -0.0301438)
(10.4 0 -0.0312665)
(10.45 0 -0.0307006)
(10.5 0 -0.0305467)
(10.55 0 -0.0315436)
(10.6 0 -0.0308419)
(10.65 0 -0.0320392)
(10.7 0 -0.0306929)
(10.75 0 -0.0321396)
(10.8 0 -0.0305967)
(10.85 0 -0.0320026)
(10.9 0 -0.0301633)
(10.95 0 -0.0308142)
(11 0 -0.0301309)
(11.05 0 -0.0290841)
(11.1 0 -0.0295723)
(11.15 0 -0.0286281)
(11.2 0 -0.0300361)
(11.25 0 -0.0288014)
(11.3 0 -0.0307893)
(11.35 0 -0.0292938)
(11.4 0 -0.0312613)
(11.45 0 -0.0305757)
(11.5 0 -0.0314636)
(11.55 0 -0.0321585)
(11.6 0 -0.0315856)
(11.65 0 -0.0323903)
(11.7 0 -0.0308835)
(11.75 0 -0.0321088)
(11.8 0 -0.0304114)
(11.85 0 -0.0313983)
(11.9 0 -0.0295626)
(11.95 0 -0.0303046)
(12 0 -0.0294113)
(12.05 0 -0.0295106)
(12.1 0 -0.0302291)
(12.15 0 -0.02996)
(12.2 0 -0.0312432)
(12.25 0 -0.0306262)
(12.3 0 -0.031924)
(12.35 0 -0.0307701)
(12.4 0 -0.0323503)
(12.45 0 -0.0307234)
(12.5 0 -0.0316456)
(12.55 0 -0.0307876)
(12.6 0 -0.0308768)
(12.65 0 -0.0309453)
(12.7 0 -0.0303652)
(12.75 0 -0.0312037)
(12.8 0 -0.0304842)
(12.85 0 -0.031665)
(12.9 0 -0.0309823)
(12.95 0 -0.0322677)
(13 0 -0.0310953)
(13.05 0 -0.0322075)
(13.1 0 -0.0307577)
(13.15 0 -0.0312396)
(13.2 0 -0.0304393)
(13.25 0 -0.0301038)
(13.3 0 -0.0300167)
(13.35 0 -0.0299774)
(13.4 0 -0.0308021)
(13.45 0 -0.030159)
(13.5 0 -0.0314323)
(13.55 0 -0.0303878)
(13.6 0 -0.0317985)
(13.65 0 -0.0309455)
(13.7 0 -0.0315456)
(13.75 0 -0.0307903)
(13.8 0 -0.0309768)
(13.85 0 -0.0298235)
(13.9 0 -0.030354)
(13.95 0 -0.0291283)
(14 0 -0.0288307)
(14.05 0 -0.0279404)
(14.1 0 -0.0277273)
(14.15 0 -0.0280483)
(14.2 0 -0.0273967)
(14.25 0 -0.0279983)
(14.3 0 -0.0277372)
(14.35 0 -0.0281134)
(14.4 0 -0.026712)
(14.45 0 -0.0258468)
(14.5 0 -0.0238586)
(14.55 0 -0.0222764)
(14.6 0 -0.019436)
(14.65 0 -0.0168631)
(14.7 0 -0.0126144)
(14.75 0 -0.00842005)
(14.8 0 -0.000114294)
(14.85 0 0.00558216)
(14.9 0 0.00562769)
(14.95 0 0.00562463)