/*--------------------------------*- C++ -*----------------------------------*\
| =========                 |                                                 |
| \\      /  F ield         | foam-extend: Open Source CFD                    |
|  \\    /   O peration     | Version:     3.2                                |
|   \\  /    A nd           | Web:         http://www.foam-extend.org         |
|    \\/     M anipulation  | For copyright notice see file Copyright         |
\*---------------------------------------------------------------------------*/
FoamFile
{
    version     2.0;
    format      ascii;
    class       pointVectorField;
    location    "160";
    object      newPoints;
}
// * * * * * * * * * * * * * * * * * * * * * * * * * * * * * * * * * * * * * //

dimensions      [0 1 0 0 0 0 0];

internalField   nonuniform List<vector> 
602
(
(0 0 0)
(0.05 0 0)
(0.1 0 0)
(0.15 0 0)
(0.2 0 0)
(0.25 0 0)
(0.3 0 0)
(0.35 0 0)
(0.4 0 0)
(0.45 0 0)
(0.5 0 0)
(0.55 0 0)
(0.6 0 0)
(0.65 0 0)
(0.7 0 0)
(0.75 0 0)
(0.8 0 0)
(0.85 0 0)
(0.9 0 0)
(0.95 0 0)
(1 0 0)
(1.05 0 0)
(1.1 0 0)
(1.15 0 0)
(1.2 0 0)
(1.25 0 0)
(1.3 0 0)
(1.35 0 0)
(1.4 0 0)
(1.45 0 0)
(1.5 0 0)
(1.55 0 0)
(1.6 0 0)
(1.65 0 0)
(1.7 0 0)
(1.75 0 0)
(1.8 0 0)
(1.85 0 0)
(1.9 0 0)
(1.95 0 0)
(2 0 0)
(2.05 0 0)
(2.1 0 0)
(2.15 0 0)
(2.2 0 0)
(2.25 0 0)
(2.3 0 0)
(2.35 0 0)
(2.4 0 0)
(2.45 0 0)
(2.5 0 0)
(2.55 0 0)
(2.6 0 0)
(2.65 0 0)
(2.7 0 0)
(2.75 0 0)
(2.8 0 0)
(2.85 0 0)
(2.9 0 0)
(2.95 0 0)
(3 0 0)
(3.05 0 0)
(3.1 0 0)
(3.15 0 0)
(3.2 0 0)
(3.25 0 0)
(3.3 0 0)
(3.35 0 0)
(3.4 0 0)
(3.45 0 0)
(3.5 0 0)
(3.55 0 0)
(3.6 0 0)
(3.65 0 0)
(3.7 0 0)
(3.75 0 0)
(3.8 0 0)
(3.85 0 0)
(3.9 0 0)
(3.95 0 0)
(4 0 0)
(4.05 0 0)
(4.1 0 0)
(4.15 0 0)
(4.2 0 0)
(4.25 0 0)
(4.3 0 0)
(4.35 0 0)
(4.4 0 0)
(4.45 0 0)
(4.5 0 0)
(4.55 0 0)
(4.6 0 0)
(4.65 0 0)
(4.7 0 0)
(4.75 0 0)
(4.8 0 0)
(4.85 0 0)
(4.9 0 0)
(4.95 0 0)
(5 0 -0.0048833)
(5.05 0 -0.0115119)
(5.1 0 -0.0156133)
(5.15 0 -0.0193815)
(5.2 0 -0.0225217)
(5.25 0 -0.0253579)
(5.3 0 -0.0276927)
(5.35 0 -0.0299413)
(5.4 0 -0.0316464)
(5.45 0 -0.0334099)
(5.5 0 -0.0352909)
(5.55 0 -0.0357912)
(5.6 0 -0.0372303)
(5.65 0 -0.0384383)
(5.7 0 -0.0392034)
(5.75 0 -0.0407718)
(5.8 0 -0.0412339)
(5.85 0 -0.042503)
(5.9 0 -0.0426964)
(5.95 0 -0.0435518)
(6 0 -0.0445989)
(6.05 0 -0.045009)
(6.1 0 -0.0459707)
(6.15 0 -0.0456653)
(6.2 0 -0.0471241)
(6.25 0 -0.0466533)
(6.3 0 -0.0468252)
(6.35 0 -0.047474)
(6.4 0 -0.0466651)
(6.45 0 -0.0478195)
(6.5 0 -0.0468252)
(6.55 0 -0.0485001)
(6.6 0 -0.0484101)
(6.65 0 -0.0481407)
(6.7 0 -0.0486028)
(6.75 0 -0.0475497)
(6.8 0 -0.0482157)
(6.85 0 -0.0465055)
(6.9 0 -0.0476381)
(6.95 0 -0.0469068)
(7 0 -0.046864)
(7.05 0 -0.0480854)
(7.1 0 -0.0468999)
(7.15 0 -0.0477413)
(7.2 0 -0.0459451)
(7.25 0 -0.0471368)
(7.3 0 -0.0460649)
(7.35 0 -0.0454951)
(7.4 0 -0.0458198)
(7.45 0 -0.0437929)
(7.5 0 -0.044613)
(7.55 0 -0.0430074)
(7.6 0 -0.0443427)
(7.65 0 -0.0432069)
(7.7 0 -0.0431217)
(7.75 0 -0.0429702)
(7.8 0 -0.0414311)
(7.85 0 -0.0413257)
(7.9 0 -0.0395009)
(7.95 0 -0.0394585)
(8 0 -0.0380616)
(8.05 0 -0.0390775)
(8.1 0 -0.0387017)
(8.15 0 -0.0376652)
(8.2 0 -0.0379425)
(8.25 0 -0.036046)
(8.3 0 -0.0368383)
(8.35 0 -0.0355972)
(8.4 0 -0.0361777)
(8.45 0 -0.0357534)
(8.5 0 -0.0348654)
(8.55 0 -0.0351499)
(8.6 0 -0.0344684)
(8.65 0 -0.0356481)
(8.7 0 -0.034718)
(8.75 0 -0.036145)
(8.8 0 -0.0350766)
(8.85 0 -0.0368403)
(8.9 0 -0.036323)
(8.95 0 -0.0368796)
(9 0 -0.0380359)
(9.05 0 -0.037402)
(9.1 0 -0.0389254)
(9.15 0 -0.0377686)
(9.2 0 -0.0397734)
(9.25 0 -0.0382562)
(9.3 0 -0.0404433)
(9.35 0 -0.038877)
(9.4 0 -0.039873)
(9.45 0 -0.0404746)
(9.5 0 -0.039378)
(9.55 0 -0.0397949)
(9.6 0 -0.0383219)
(9.65 0 -0.0396731)
(9.7 0 -0.0371874)
(9.75 0 -0.0382051)
(9.8 0 -0.0357634)
(9.85 0 -0.0368174)
(9.9 0 -0.0350463)
(9.95 0 -0.0352331)
(10 0 -0.0354624)
(10.05 0 -0.0347909)
(10.1 0 -0.0359887)
(10.15 0 -0.034711)
(10.2 0 -0.0368304)
(10.25 0 -0.0349173)
(10.3 0 -0.0371428)
(10.35 0 -0.0357321)
(10.4 0 -0.0369075)
(10.45 0 -0.0363144)
(10.5 0 -0.0361522)
(10.55 0 -0.0371847)
(10.6 0 -0.0364369)
(10.65 0 -0.0376927)
(10.7 0 -0.0362783)
(10.75 0 -0.0378)
(10.8 0 -0.0361799)
(10.85 0 -0.0376659)
(10.9 0 -0.0357532)
(10.95 0 -0.0364506)
(11 0 -0.0357554)
(11.05 0 -0.0346861)
(11.1 0 -0.0352119)
(11.15 0 -0.0342196)
(11.2 0 -0.0356924)
(11.25 0 -0.0343831)
(11.3 0 -0.0364576)
(11.35 0 -0.0348734)
(11.4 0 -0.0369178)
(11.45 0 -0.0361762)
(11.5 0 -0.0370871)
(11.55 0 -0.0377941)
(11.6 0 -0.0371878)
(11.65 0 -0.0380419)
(11.7 0 -0.0364709)
(11.75 0 -0.0377692)
(11.8 0 -0.0359989)
(11.85 0 -0.0370575)
(11.9 0 -0.0351529)
(11.95 0 -0.0359471)
(12 0 -0.0350201)
(12.05 0 -0.0351244)
(12.1 0 -0.0358627)
(12.15 0 -0.0355618)
(12.2 0 -0.0368893)
(12.25 0 -0.0362225)
(12.3 0 -0.037578)
(12.35 0 -0.0363574)
(12.4 0 -0.0380144)
(12.45 0 -0.036313)
(12.5 0 -0.03729)
(12.55 0 -0.0363965)
(12.6 0 -0.036498)
(12.65 0 -0.0365746)
(12.7 0 -0.0359688)
(12.75 0 -0.0368453)
(12.8 0 -0.0360816)
(12.85 0 -0.0373112)
(12.9 0 -0.0365785)
(12.95 0 -0.0379219)
(13 0 -0.036688)
(13.05 0 -0.0378629)
(13.1 0 -0.0363553)
(13.15 0 -0.0368776)
(13.2 0 -0.0360546)
(13.25 0 -0.0357226)
(13.3 0 -0.0356384)
(13.35 0 -0.035588)
(13.4 0 -0.0364427)
(13.45 0 -0.0357568)
(13.5 0 -0.0370851)
(13.55 0 -0.0359799)
(13.6 0 -0.0374505)
(13.65 0 -0.0365483)
(13.7 0 -0.0371854)
(13.75 0 -0.0363995)
(13.8 0 -0.0366171)
(13.85 0 -0.0354251)
(13.9 0 -0.0359991)
(13.95 0 -0.0347391)
(14 0 -0.0344618)
(14.05 0 -0.0335564)
(14.1 0 -0.0333444)
(14.15 0 -0.0336845)
(14.2 0 -0.0330058)
(14.25 0 -0.0336346)
(14.3 0 -0.0333525)
(14.35 0 -0.0337605)
(14.4 0 -0.0323299)
(14.45 0 -0.0314881)
(14.5 0 -0.0294804)
(14.55 0 -0.0279222)
(14.6 0 -0.0250633)
(14.65 0 -0.0225215)
(14.7 0 -0.0182507)
(14.75 0 -0.0141425)
(14.8 0 -0.00577447)
(14.85 0 0)
(14.9 0 0)
(14.95 0 0)
(15 0 0)
(0 0.02 0)
(0.05 0.02 0)
(0.1 0.02 0)
(0.15 0.02 0)
(0.2 0.02 0)
(0.25 0.02 0)
(0.3 0.02 0)
(0.35 0.02 0)
(0.4 0.02 0)
(0.45 0.02 0)
(0.5 0.02 0)
(0.55 0.02 0)
(0.6 0.02 0)
(0.65 0.02 0)
(0.7 0.02 0)
(0.75 0.02 0)
(0.8 0.02 0)
(0.85 0.02 0)
(0.9 0.02 0)
(0.95 0.02 0)
(1 0.02 0)
(1.05 0.02 0)
(1.1 0.02 0)
(1.15 0.02 0)
(1.2 0.02 0)
(1.25 0.02 0)
(1.3 0.02 0)
(1.35 0.02 0)
(1.4 0.02 0)
(1.45 0.02 0)
(1.5 0.02 0)
(1.55 0.02 0)
(1.6 0.02 0)
(1.65 0.02 0)
(1.7 0.02 0)
(1.75 0.02 0)
(1.8 0.02 0)
(1.85 0.02 0)
(1.9 0.02 0)
(1.95 0.02 0)
(2 0.02 0)
(2.05 0.02 0)
(2.1 0.02 0)
(2.15 0.02 0)
(2.2 0.02 0)
(2.25 0.02 0)
(2.3 0.02 0)
(2.35 0.02 0)
(2.4 0.02 0)
(2.45 0.02 0)
(2.5 0.02 0)
(2.55 0.02 0)
(2.6 0.02 0)
(2.65 0.02 0)
(2.7 0.02 0)
(2.75 0.02 0)
(2.8 0.02 0)
(2.85 0.02 0)
(2.9 0.02 0)
(2.95 0.02 0)
(3 0.02 0)
(3.05 0.02 0)
(3.1 0.02 0)
(3.15 0.02 0)
(3.2 0.02 0)
(3.25 0.02 0)
(3.3 0.02 0)
(3.35 0.02 0)
(3.4 0.02 0)
(3.45 0.02 0)
(3.5 0.02 0)
(3.55 0.02 0)
(3.6 0.02 0)
(3.65 0.02 0)
(3.7 0.02 0)
(3.75 0.02 0)
(3.8 0.02 0)
(3.85 0.02 0)
(3.9 0.02 0)
(3.95 0.02 0)
(4 0.02 0)
(4.05 0.02 0)
(4.1 0.02 0)
(4.15 0.02 0)
(4.2 0.02 0)
(4.25 0.02 0)
(4.3 0.02 0)
(4.35 0.02 0)
(4.4 0.02 0)
(4.45 0.02 0)
(4.5 0.02 0)
(4.55 0.02 0)
(4.6 0.02 0)
(4.65 0.02 0)
(4.7 0.02 0)
(4.75 0.02 0)
(4.8 0.02 0)
(4.85 0.02 0)
(4.9 0.02 0)
(4.95 0.02 0)
(5 0.02 -0.0048833)
(5.05 0.02 -0.0115119)
(5.1 0.02 -0.0156133)
(5.15 0.02 -0.0193815)
(5.2 0.02 -0.0225217)
(5.25 0.02 -0.0253579)
(5.3 0.02 -0.0276927)
(5.35 0.02 -0.0299413)
(5.4 0.02 -0.0316464)
(5.45 0.02 -0.0334099)
(5.5 0.02 -0.0352909)
(5.55 0.02 -0.0357912)
(5.6 0.02 -0.0372303)
(5.65 0.02 -0.0384383)
(5.7 0.02 -0.0392034)
(5.75 0.02 -0.0407718)
(5.8 0.02 -0.0412339)
(5.85 0.02 -0.042503)
(5.9 0.02 -0.0426964)
(5.95 0.02 -0.0435518)
(6 0.02 -0.0445989)
(6.05 0.02 -0.045009)
(6.1 0.02 -0.0459707)
(6.15 0.02 -0.0456653)
(6.2 0.02 -0.0471241)
(6.25 0.02 -0.0466533)
(6.3 0.02 -0.0468252)
(6.35 0.02 -0.047474)
(6.4 0.02 -0.0466651)
(6.45 0.02 -0.0478195)
(6.5 0.02 -0.0468252)
(6.55 0.02 -0.0485001)
(6.6 0.02 -0.0484101)
(6.65 0.02 -0.0481407)
(6.7 0.02 -0.0486028)
(6.75 0.02 -0.0475497)
(6.8 0.02 -0.0482157)
(6.85 0.02 -0.0465055)
(6.9 0.02 -0.0476381)
(6.95 0.02 -0.0469068)
(7 0.02 -0.046864)
(7.05 0.02 -0.0480854)
(7.1 0.02 -0.0468999)
(7.15 0.02 -0.0477413)
(7.2 0.02 -0.0459451)
(7.25 0.02 -0.0471368)
(7.3 0.02 -0.0460649)
(7.35 0.02 -0.0454951)
(7.4 0.02 -0.0458198)
(7.45 0.02 -0.0437929)
(7.5 0.02 -0.044613)
(7.55 0.02 -0.0430074)
(7.6 0.02 -0.0443427)
(7.65 0.02 -0.0432069)
(7.7 0.02 -0.0431217)
(7.75 0.02 -0.0429702)
(7.8 0.02 -0.0414311)
(7.85 0.02 -0.0413257)
(7.9 0.02 -0.0395009)
(7.95 0.02 -0.0394585)
(8 0.02 -0.0380616)
(8.05 0.02 -0.0390775)
(8.1 0.02 -0.0387017)
(8.15 0.02 -0.0376652)
(8.2 0.02 -0.0379425)
(8.25 0.02 -0.036046)
(8.3 0.02 -0.0368383)
(8.35 0.02 -0.0355972)
(8.4 0.02 -0.0361777)
(8.45 0.02 -0.0357534)
(8.5 0.02 -0.0348654)
(8.55 0.02 -0.0351499)
(8.6 0.02 -0.0344684)
(8.65 0.02 -0.0356481)
(8.7 0.02 -0.034718)
(8.75 0.02 -0.036145)
(8.8 0.02 -0.0350766)
(8.85 0.02 -0.0368403)
(8.9 0.02 -0.036323)
(8.95 0.02 -0.0368796)
(9 0.02 -0.0380359)
(9.05 0.02 -0.037402)
(9.1 0.02 -0.0389254)
(9.15 0.02 -0.0377686)
(9.2 0.02 -0.0397734)
(9.25 0.02 -0.0382562)
(9.3 0.02 -0.0404433)
(9.35 0.02 -0.038877)
(9.4 0.02 -0.039873)
(9.45 0.02 -0.0404746)
(9.5 0.02 -0.039378)
(9.55 0.02 -0.0397949)
(9.6 0.02 -0.0383219)
(9.65 0.02 -0.0396731)
(9.7 0.02 -0.0371874)
(9.75 0.02 -0.0382051)
(9.8 0.02 -0.0357634)
(9.85 0.02 -0.0368174)
(9.9 0.02 -0.0350463)
(9.95 0.02 -0.0352331)
(10 0.02 -0.0354624)
(10.05 0.02 -0.0347909)
(10.1 0.02 -0.0359887)
(10.15 0.02 -0.034711)
(10.2 0.02 -0.0368304)
(10.25 0.02 -0.0349173)
(10.3 0.02 -0.0371428)
(10.35 0.02 -0.0357321)
(10.4 0.02 -0.0369075)
(10.45 0.02 -0.0363144)
(10.5 0.02 -0.0361522)
(10.55 0.02 -0.0371847)
(10.6 0.02 -0.0364369)
(10.65 0.02 -0.0376927)
(10.7 0.02 -0.0362783)
(10.75 0.02 -0.0378)
(10.8 0.02 -0.0361799)
(10.85 0.02 -0.0376659)
(10.9 0.02 -0.0357532)
(10.95 0.02 -0.0364506)
(11 0.02 -0.0357554)
(11.05 0.02 -0.0346861)
(11.1 0.02 -0.0352119)
(11.15 0.02 -0.0342196)
(11.2 0.02 -0.0356924)
(11.25 0.02 -0.0343831)
(11.3 0.02 -0.0364576)
(11.35 0.02 -0.0348734)
(11.4 0.02 -0.0369178)
(11.45 0.02 -0.0361762)
(11.5 0.02 -0.0370871)
(11.55 0.02 -0.0377941)
(11.6 0.02 -0.0371878)
(11.65 0.02 -0.0380419)
(11.7 0.02 -0.0364709)
(11.75 0.02 -0.0377692)
(11.8 0.02 -0.0359989)
(11.85 0.02 -0.0370575)
(11.9 0.02 -0.0351529)
(11.95 0.02 -0.0359471)
(12 0.02 -0.0350201)
(12.05 0.02 -0.0351244)
(12.1 0.02 -0.0358627)
(12.15 0.02 -0.0355618)
(12.2 0.02 -0.0368893)
(12.25 0.02 -0.0362225)
(12.3 0.02 -0.037578)
(12.35 0.02 -0.0363574)
(12.4 0.02 -0.0380144)
(12.45 0.02 -0.036313)
(12.5 0.02 -0.03729)
(12.55 0.02 -0.0363965)
(12.6 0.02 -0.036498)
(12.65 0.02 -0.0365746)
(12.7 0.02 -0.0359688)
(12.75 0.02 -0.0368453)
(12.8 0.02 -0.0360816)
(12.85 0.02 -0.0373112)
(12.9 0.02 -0.0365785)
(12.95 0.02 -0.0379219)
(13 0.02 -0.036688)
(13.05 0.02 -0.0378629)
(13.1 0.02 -0.0363553)
(13.15 0.02 -0.0368776)
(13.2 0.02 -0.0360546)
(13.25 0.02 -0.0357226)
(13.3 0.02 -0.0356384)
(13.35 0.02 -0.035588)
(13.4 0.02 -0.0364427)
(13.45 0.02 -0.0357568)
(13.5 0.02 -0.0370851)
(13.55 0.02 -0.0359799)
(13.6 0.02 -0.0374505)
(13.65 0.02 -0.0365483)
(13.7 0.02 -0.0371854)
(13.75 0.02 -0.0363995)
(13.8 0.02 -0.0366171)
(13.85 0.02 -0.0354251)
(13.9 0.02 -0.0359991)
(13.95 0.02 -0.0347391)
(14 0.02 -0.0344618)
(14.05 0.02 -0.0335564)
(14.1 0.02 -0.0333444)
(14.15 0.02 -0.0336845)
(14.2 0.02 -0.0330058)
(14.25 0.02 -0.0336346)
(14.3 0.02 -0.0333525)
(14.35 0.02 -0.0337605)
(14.4 0.02 -0.0323299)
(14.45 0.02 -0.0314881)
(14.5 0.02 -0.0294804)
(14.55 0.02 -0.0279222)
(14.6 0.02 -0.0250633)
(14.65 0.02 -0.0225215)
(14.7 0.02 -0.0182507)
(14.75 0.02 -0.0141425)
(14.8 0.02 -0.00577447)
(14.85 0.02 0)
(14.9 0.02 0)
(14.95 0.02 0)
(15 0.02 0)
)
;

boundaryField
{
    inlet
    {
        type            zeroGradient;
    }
    outlet
    {
        type            zeroGradient;
    }
    sideWall
    {
        type            empty;
    }
    bed
    {
        type            zeroGradient;
    }
    topWall
    {
        type            zeroGradient;
    }
}


// ************************************************************************* //
