/*--------------------------------*- C++ -*----------------------------------*\
| =========                 |                                                 |
| \\      /  F ield         | foam-extend: Open Source CFD                    |
|  \\    /   O peration     | Version:     3.2                                |
|   \\  /    A nd           | Web:         http://www.foam-extend.org         |
|    \\/     M anipulation  | For copyright notice see file Copyright         |
\*---------------------------------------------------------------------------*/
FoamFile
{
    version     2.0;
    format      ascii;
    class       volScalarField;
    location    "160";
    object      nut;
}
// * * * * * * * * * * * * * * * * * * * * * * * * * * * * * * * * * * * * * //

dimensions      [0 2 -1 0 0 0 0];

internalField   nonuniform List<scalar> 
96000
(
0.000133293
0.000106227
8.82923e-05
7.89945e-05
7.59941e-05
7.48668e-05
7.4095e-05
7.33396e-05
7.25384e-05
7.17134e-05
7.09296e-05
7.01954e-05
6.95099e-05
6.88752e-05
6.829e-05
6.77496e-05
6.72455e-05
6.67746e-05
6.63458e-05
6.60833e-05
6.5837e-05
6.55953e-05
6.53569e-05
6.51256e-05
6.4904e-05
6.46899e-05
6.44826e-05
6.42797e-05
6.40846e-05
6.38958e-05
6.37145e-05
6.35372e-05
6.33657e-05
6.31982e-05
6.30368e-05
6.28806e-05
6.27281e-05
6.25806e-05
6.24357e-05
6.22954e-05
6.21592e-05
6.20263e-05
6.18976e-05
6.17707e-05
6.16482e-05
6.15273e-05
6.14115e-05
6.12964e-05
6.11858e-05
6.10761e-05
6.09701e-05
6.08652e-05
6.07646e-05
6.06642e-05
6.05684e-05
6.04717e-05
6.03802e-05
6.02873e-05
6.01935e-05
6.0101e-05
6.00106e-05
5.99223e-05
5.98362e-05
5.97518e-05
5.96699e-05
5.95897e-05
5.95118e-05
5.94357e-05
5.93618e-05
5.929e-05
5.92207e-05
5.91536e-05
5.90893e-05
5.90276e-05
5.89686e-05
5.89135e-05
5.88611e-05
5.88137e-05
5.87698e-05
5.87325e-05
5.86989e-05
5.8675e-05
5.86556e-05
5.86499e-05
5.86493e-05
5.86594e-05
5.86854e-05
5.87384e-05
5.87983e-05
5.89056e-05
5.89947e-05
5.91948e-05
5.93584e-05
5.96713e-05
6.00493e-05
6.05913e-05
6.17159e-05
6.12759e-05
6.93129e-05
5.97413e-05
4.64274e-05
4.58267e-05
4.69657e-05
4.69317e-05
4.79154e-05
4.85219e-05
4.8748e-05
4.93499e-05
5.03174e-05
4.72273e-05
5.06789e-05
5.16869e-05
4.77056e-05
5.25062e-05
4.85416e-05
5.00763e-05
4.96802e-05
4.91055e-05
5.2434e-05
4.77292e-05
5.21667e-05
4.75773e-05
5.2876e-05
4.85457e-05
4.74998e-05
5.35534e-05
4.77439e-05
5.42314e-05
4.87873e-05
5.22535e-05
5.0748e-05
4.63455e-05
5.31829e-05
4.69686e-05
5.36218e-05
4.90225e-05
5.34592e-05
5.28828e-05
4.76808e-05
5.55818e-05
4.58703e-05
5.18867e-05
4.81221e-05
5.12647e-05
5.09799e-05
4.75841e-05
5.54765e-05
4.67284e-05
5.55065e-05
4.96051e-05
5.16822e-05
4.982e-05
4.78001e-05
5.29762e-05
4.7784e-05
5.50127e-05
5.05301e-05
5.43355e-05
5.28426e-05
5.25915e-05
5.19311e-05
4.84171e-05
5.63815e-05
4.9117e-05
5.62549e-05
5.26085e-05
5.01952e-05
5.28914e-05
4.87231e-05
5.67037e-05
5.06067e-05
5.6105e-05
4.99953e-05
5.39706e-05
4.95492e-05
5.1286e-05
5.08105e-05
4.84868e-05
5.48295e-05
4.71143e-05
5.49409e-05
4.77816e-05
5.36121e-05
4.7726e-05
5.11504e-05
4.83092e-05
4.68755e-05
5.31475e-05
4.50262e-05
5.32998e-05
4.69838e-05
5.51677e-05
4.76734e-05
5.26087e-05
4.94361e-05
5.16961e-05
5.26535e-05
4.79964e-05
5.5537e-05
4.70388e-05
5.61868e-05
4.77705e-05
5.51631e-05
4.82842e-05
5.16541e-05
4.89508e-05
4.71881e-05
5.16226e-05
4.68564e-05
5.44244e-05
4.60186e-05
5.30303e-05
4.65032e-05
5.26359e-05
4.7876e-05
5.02872e-05
4.81035e-05
4.7828e-05
5.33764e-05
4.67822e-05
5.53665e-05
4.79147e-05
5.50227e-05
4.84688e-05
5.31558e-05
4.78229e-05
4.99433e-05
5.0243e-05
4.61908e-05
5.15658e-05
4.51724e-05
5.25229e-05
4.69594e-05
5.33514e-05
4.72344e-05
5.17371e-05
4.91811e-05
4.87065e-05
5.1857e-05
4.82856e-05
5.45486e-05
4.68179e-05
5.39875e-05
4.7026e-05
5.11241e-05
4.67039e-05
5.18351e-05
4.72711e-05
4.82989e-05
5.14423e-05
4.74203e-05
5.30073e-05
4.63147e-05
5.42684e-05
4.77289e-05
5.16986e-05
4.79237e-05
5.06142e-05
4.73641e-05
5.06831e-05
4.84838e-05
4.8549e-05
5.18557e-05
4.74891e-05
5.28612e-05
4.87795e-05
5.37341e-05
4.72242e-05
5.35745e-05
4.70896e-05
5.07917e-05
4.75311e-05
4.71871e-05
4.94167e-05
4.87347e-05
4.93186e-05
5.14076e-05
4.88125e-05
4.77898e-05
5.16279e-05
4.97675e-05
5.41856e-05
4.6961e-05
5.00768e-05
4.7866e-05
4.70871e-05
4.62743e-05
4.79147e-05
4.94429e-05
4.99429e-05
5.01536e-05
5.21008e-05
5.10015e-05
5.43451e-05
5.34662e-05
6.18295e-05
7.45946e-05
6.17995e-05
5.32811e-05
5.03018e-05
9.19619e-05
0.00013619
0.000148935
0.000161679
0.000171816
0.000178851
0.000183419
0.000185981
0.000187203
0.000187553
0.000187556
0.000187287
0.000186855
0.000186314
0.00018572
0.000185108
0.000184462
0.00018382
0.000183173
0.000182567
0.000181961
0.00018136
0.000180768
0.000180194
0.000179636
0.000179092
0.00017856
0.000178042
0.000177543
0.000177056
0.000176585
0.000176122
0.000175675
0.000175239
0.000174817
0.000174405
0.000174004
0.000173613
0.000173231
0.00017286
0.000172499
0.000172146
0.000171802
0.000171465
0.000171138
0.000170816
0.000170506
0.000170198
0.000169901
0.000169606
0.000169322
0.000169041
0.00016877
0.0001685
0.00016824
0.00016798
0.000167731
0.000167479
0.000167219
0.000166969
0.000166721
0.000166482
0.000166244
0.000166015
0.000165787
0.000165569
0.00016535
0.000165141
0.000164931
0.000164732
0.000164532
0.000164343
0.000164153
0.000163975
0.000163795
0.00016363
0.000163461
0.00016331
0.000163156
0.000163021
0.000162883
0.000162769
0.000162652
0.000162563
0.000162466
0.0001624
0.000162347
0.000162311
0.0001623
0.000162318
0.000162302
0.00016243
0.000162424
0.000162682
0.000162803
0.000163314
0.000163776
0.000164124
0.000165691
0.000144346
0.000136701
0.000154425
0.000154118
0.000152771
0.000150559
0.000148737
0.000147226
0.000146598
0.000143281
0.00014501
0.000145758
0.000140978
0.000143462
0.000141099
0.000140392
0.000142105
0.000140075
0.000142212
0.000139218
0.000139734
0.00013961
0.000141424
0.000140636
0.000136072
0.000139204
0.000137004
0.000135366
0.000139686
0.000137809
0.000140848
0.000133341
0.000136371
0.000137072
0.000134087
0.000139417
0.000137915
0.000142058
0.000134744
0.000137615
0.000133649
0.000128595
0.000139129
0.000136928
0.000140621
0.000133399
0.000136234
0.000135142
0.000131451
0.000140672
0.000136442
0.00014046
0.000133949
0.000136687
0.000137258
0.000135856
0.000141226
0.000140751
0.000144004
0.000140802
0.000142301
0.0001368
0.000135092
0.00014055
0.000138532
0.000144989
0.000139068
0.000141918
0.00013922
0.000137669
0.000142809
0.000138989
0.000142601
0.000139673
0.000143783
0.000139699
0.000143992
0.000136871
0.000139593
0.000137515
0.000133857
0.000139002
0.000137007
0.000139618
0.000135198
0.000139831
0.000131504
0.000137312
0.000131812
0.00013046
0.000137617
0.000136231
0.000136378
0.000131463
0.000139626
0.000134171
0.000140509
0.000133266
0.000137782
0.000135994
0.000133373
0.000137074
0.000132087
0.000138157
0.000133268
0.000140096
0.000130882
0.000136726
0.000133667
0.000136921
0.000135401
0.000130478
0.000136598
0.000135092
0.000138551
0.000134057
0.000138492
0.000132689
0.000138713
0.000133659
0.000136459
0.000138014
0.00013274
0.000137539
0.00013374
0.000138868
0.000133233
0.000140129
0.0001311
0.000135366
0.000132899
0.000131258
0.000136085
0.000134665
0.000137684
0.000134317
0.000138869
0.0001332
0.000138011
0.000134033
0.000136337
0.000135274
0.000131197
0.000136475
0.000133833
0.000137508
0.00013615
0.000138133
0.000132825
0.000138882
0.000133347
0.000137137
0.000136129
0.000134914
0.000136949
0.000134103
0.000138097
0.000135839
0.000138079
0.000135187
0.000138761
0.000133944
0.000139128
0.000134928
0.000137092
0.000138416
0.000137929
0.000136335
0.000133219
0.000137683
0.000135755
0.000138663
0.000132869
0.000137086
0.000135496
0.000138682
0.000137824
0.000139084
0.000135004
0.000137715
0.000138111
0.000140026
0.000135501
0.00013264
0.000138791
0.00013571
0.00013708
0.000136446
0.000138747
0.000137552
0.000139013
0.000138964
0.000139521
0.000141001
0.000141866
0.000146219
0.000153316
0.000151625
0.000138955
0.000133699
0.000145633
7.17215e-05
0.00010217
0.000144052
0.000171421
0.000198423
0.000221697
0.00024077
0.000252407
0.000260135
0.000265909
0.000270189
0.000273374
0.000275787
0.000277667
0.000279086
0.000280127
0.000280893
0.000281457
0.000281871
0.000282118
0.000282227
0.000282241
0.000282192
0.000282092
0.000281937
0.000281736
0.000281503
0.000281249
0.00028098
0.000280691
0.000280384
0.000280064
0.000279735
0.000279406
0.000279072
0.000278732
0.000278386
0.000278039
0.000277693
0.00027735
0.000277007
0.000276663
0.00027632
0.000275979
0.000275642
0.00027531
0.000274979
0.000274651
0.000274324
0.000274002
0.000273683
0.00027337
0.000273059
0.000272752
0.000272447
0.000272147
0.00027185
0.000271558
0.000271268
0.000270985
0.000270702
0.000270426
0.000270151
0.000269884
0.000269616
0.000269357
0.000269097
0.000268846
0.000268594
0.000268352
0.00026811
0.000267878
0.000267645
0.000267424
0.000267203
0.000266995
0.000266786
0.000266594
0.000266402
0.000266229
0.000266056
0.000265909
0.000265759
0.000265649
0.000265518
0.000265424
0.000265344
0.000265289
0.000265246
0.000265266
0.000265312
0.000265441
0.000265618
0.000265944
0.00026637
0.000267161
0.000267704
0.00027222
0.000269006
0.000222046
0.000199785
0.00024155
0.000252186
0.00025703
0.000258265
0.00025768
0.000256442
0.000256377
0.000249997
0.000252278
0.000253548
0.000245162
0.000247309
0.000243573
0.000240235
0.000242574
0.000239512
0.00024305
0.000237703
0.000239215
0.000237448
0.000240596
0.000238593
0.000229882
0.000238463
0.000232557
0.000232582
0.0002363
0.000232007
0.000235926
0.000222724
0.000232746
0.000230964
0.000231014
0.000234941
0.00023307
0.000237876
0.000224936
0.000234012
0.000223667
0.00021588
0.000231263
0.000228813
0.000234628
0.000222268
0.000233938
0.000227102
0.0002198
0.000234845
0.000226558
0.00023193
0.000220964
0.000232345
0.000227635
0.000228892
0.000236315
0.000235429
0.000239301
0.000233294
0.000236261
0.000224564
0.000234529
0.000233804
0.000228294
0.000239923
0.000229243
0.000236289
0.00022867
0.000238124
0.000237055
0.000235347
0.000234346
0.000225901
0.00023552
0.000229908
0.000237052
0.000226205
0.000236978
0.000229037
0.000226587
0.000232492
0.000221999
0.000232242
0.000226035
0.000233274
0.000219907
0.000234472
0.000221465
0.000225385
0.000233371
0.000231403
0.000230156
0.00021306
0.000233801
0.000225103
0.000234879
0.000222714
0.000235078
0.000226521
0.000234436
0.000229072
0.000209963
0.000228944
0.000215024
0.000232515
0.00021829
0.000232009
0.000223949
0.000235171
0.000229025
0.000224675
0.000229017
0.000219511
0.000232993
0.00022506
0.000231795
0.000222798
0.000235309
0.000225209
0.000236023
0.000233173
0.000226515
0.000229612
0.000213176
0.000230288
0.000221556
0.000232683
0.000219351
0.000231526
0.00022321
0.000229495
0.000231279
0.000226093
0.000233248
0.000226943
0.000233645
0.000224222
0.000234384
0.000225359
0.000234386
0.000227577
0.00023186
0.000228188
0.000218601
0.00022861
0.000224702
0.00023165
0.000222863
0.000233931
0.000225098
0.00023384
0.000229016
0.000235085
0.000231187
0.000224378
0.000230308
0.000227684
0.000229749
0.000226231
0.000232279
0.000224978
0.000234404
0.000227418
0.000234429
0.000232708
0.000234611
0.000227902
0.000222229
0.000229447
0.000225046
0.000231194
0.000222024
0.00023083
0.000227229
0.000231952
0.000232232
0.000233759
0.000226496
0.000233807
0.000232114
0.00023594
0.000227659
0.000229578
0.00023038
0.000225918
0.000228185
0.000227259
0.000232807
0.000233357
0.000235058
0.000235915
0.00023565
0.00023888
0.000237994
0.000247386
0.000261898
0.00024889
0.000213327
0.000199838
0.000222842
5.97194e-05
7.63586e-05
0.000104338
0.00014181
0.000172465
0.00020221
0.000230766
0.000257218
0.000279133
0.000298143
0.00031115
0.000320772
0.000328785
0.000335578
0.000341283
0.000346066
0.000350122
0.000353604
0.000356613
0.000359173
0.000361356
0.000363236
0.000364872
0.000366293
0.000367513
0.000368561
0.000369467
0.000370254
0.000370941
0.000371524
0.000372018
0.000372435
0.000372788
0.000373089
0.000373337
0.000373533
0.000373684
0.000373799
0.000373882
0.00037394
0.000373967
0.00037397
0.000373949
0.000373908
0.000373853
0.000373783
0.000373699
0.000373599
0.000373487
0.000373366
0.000373235
0.000373099
0.000372954
0.000372802
0.000372642
0.000372479
0.00037231
0.000372138
0.000371962
0.000371784
0.0003716
0.000371417
0.000371229
0.000371043
0.000370854
0.000370666
0.000370474
0.000370286
0.000370094
0.000369907
0.000369718
0.000369536
0.000369351
0.000369174
0.000368996
0.000368828
0.000368659
0.000368505
0.00036835
0.000368214
0.000368077
0.000367969
0.000367857
0.000367792
0.000367707
0.000367649
0.000367609
0.000367608
0.000367605
0.000367702
0.000367793
0.000368032
0.000368277
0.00036878
0.000369349
0.0003705
0.000371275
0.000377383
0.000373562
0.000307931
0.00026608
0.00030626
0.000335933
0.000348136
0.000355772
0.000359618
0.000361437
0.000363947
0.000357463
0.000360353
0.000363032
0.0003539
0.000354854
0.000351119
0.000345346
0.000347493
0.000343988
0.000347883
0.000341463
0.000341275
0.000339835
0.000342884
0.000341472
0.000329973
0.000339445
0.000333527
0.000337967
0.000338532
0.000331637
0.000335711
0.000318856
0.000328895
0.000328338
0.000331856
0.000334894
0.000331483
0.000337762
0.00032191
0.0003308
0.000319552
0.000316218
0.000327132
0.000323921
0.000331333
0.000316898
0.000329644
0.000323412
0.000316212
0.000333801
0.000322355
0.000327961
0.000313832
0.000325959
0.000321592
0.000327843
0.0003343
0.00033384
0.000338183
0.000331141
0.000333295
0.000317896
0.00032872
0.000329273
0.000318409
0.000337582
0.00032456
0.000331235
0.000322189
0.000332214
0.000333429
0.000334668
0.000330328
0.000318748
0.000330077
0.000322911
0.0003312
0.000318941
0.000330755
0.000322889
0.000326951
0.000328969
0.00031347
0.000328652
0.000319962
0.000329128
0.000313572
0.000330005
0.000316081
0.000324594
0.00033113
0.00032825
0.000330423
0.000311092
0.000332662
0.000322358
0.000333811
0.000319525
0.000332645
0.000323036
0.000329882
0.000325843
0.000305678
0.000325741
0.000306894
0.000327863
0.000311384
0.000326542
0.000318665
0.000331519
0.000326568
0.000328267
0.000326742
0.000309889
0.000331554
0.000321041
0.000329187
0.000318815
0.000333544
0.000322853
0.000334636
0.000333508
0.000334023
0.000329021
0.000305969
0.000327387
0.000315094
0.00032809
0.000313167
0.000326408
0.00031785
0.000327572
0.000329031
0.000317272
0.000333984
0.000324944
0.0003333
0.000322394
0.000333796
0.000323646
0.000333036
0.000325547
0.000328456
0.000325535
0.000316756
0.000324747
0.000311976
0.00032915
0.000318133
0.000331504
0.000322515
0.000332076
0.000327159
0.000332843
0.000330604
0.000328094
0.000328197
0.000323181
0.000326172
0.000321138
0.000329191
0.000321246
0.00033247
0.000325431
0.000333056
0.000331866
0.000333222
0.000325633
0.000325013
0.000326545
0.000319237
0.000327503
0.00031633
0.000326078
0.000322997
0.000328573
0.000330136
0.000332485
0.000323673
0.000331923
0.000330982
0.00033528
0.000325834
0.000324906
0.0003262
0.000320439
0.000321194
0.000320452
0.000328527
0.000331492
0.00033418
0.000336608
0.000336226
0.000341185
0.000339438
0.000336618
0.00037905
0.000360461
0.000301312
0.000278429
0.000293507
5.34163e-05
6.02925e-05
7.42523e-05
9.85011e-05
0.000132542
0.000164556
0.000191909
0.000221567
0.000250138
0.000278282
0.00030281
0.000324655
0.000343585
0.00036008
0.000372937
0.000382773
0.000391404
0.000399055
0.00040586
0.000411853
0.000417158
0.000421892
0.000426145
0.000429965
0.000433386
0.000436462
0.00043924
0.000441761
0.000444052
0.000446122
0.000447998
0.000449703
0.000451257
0.000452682
0.000453977
0.000455153
0.000456224
0.000457203
0.000458099
0.00045892
0.000459666
0.000460345
0.000460963
0.000461525
0.000462042
0.000462512
0.000462938
0.000463322
0.000463669
0.000463983
0.000464267
0.000464524
0.000464752
0.000464955
0.000465134
0.000465292
0.000465431
0.000465553
0.000465656
0.000465745
0.000465816
0.000465876
0.000465922
0.000465959
0.000465983
0.000465999
0.000466003
0.000466002
0.00046599
0.000465976
0.000465954
0.000465931
0.000465901
0.000465872
0.000465837
0.000465807
0.000465774
0.00046575
0.000465724
0.000465712
0.000465699
0.000465712
0.000465721
0.000465779
0.000465822
0.000465885
0.00046596
0.000466093
0.000466215
0.000466467
0.000466687
0.000467113
0.000467525
0.000468283
0.000469103
0.000470684
0.000471868
0.000479356
0.000475051
0.000398485
0.000347653
0.000364328
0.00039794
0.000427848
0.000441302
0.000450222
0.000456366
0.000462513
0.000458202
0.000462455
0.000467312
0.000459499
0.000460317
0.00045681
0.000450179
0.000451758
0.000448321
0.000452208
0.00044541
0.000443974
0.000442393
0.000445143
0.000444521
0.000431986
0.000441318
0.000435663
0.00044009
0.000441056
0.00043321
0.000436783
0.000417978
0.000426875
0.000426638
0.000432381
0.000434725
0.000432256
0.000438426
0.000421668
0.000429539
0.000417451
0.000416406
0.000423631
0.000420431
0.000428686
0.000413858
0.000426534
0.000420938
0.000424162
0.00043304
0.000420882
0.000425572
0.000409818
0.00042122
0.000417016
0.000425971
0.000431847
0.000432711
0.000437703
0.000430927
0.000431936
0.000414126
0.000421221
0.000425055
0.00041955
0.000435327
0.000421866
0.000427404
0.000417469
0.000427178
0.00042967
0.000430647
0.000426991
0.00042151
0.000425182
0.000417018
0.000425043
0.000412491
0.000424172
0.000416551
0.000422506
0.000423903
0.000419418
0.000424906
0.000414798
0.00042457
0.000409076
0.000425629
0.000411895
0.000420521
0.000427883
0.000432208
0.000430441
0.000420863
0.000432392
0.000422499
0.000434138
0.000419692
0.000432347
0.000422221
0.000427756
0.00042406
0.000419644
0.000424003
0.000411597
0.000424071
0.000407191
0.000422041
0.000414903
0.000428373
0.000424527
0.00042483
0.000424881
0.000418035
0.000430614
0.000419412
0.000427543
0.000417406
0.000432789
0.000422716
0.000434787
0.000434915
0.000434271
0.000430336
0.000421711
0.000426853
0.000412123
0.000424845
0.000409614
0.000422539
0.000414035
0.000422988
0.000426417
0.000419832
0.000434941
0.000425214
0.000434311
0.000423817
0.000435271
0.000425158
0.000434132
0.000426074
0.000427316
0.000424882
0.000420793
0.000422828
0.000416755
0.000427832
0.00041613
0.000430102
0.000422069
0.000431879
0.000427265
0.000432616
0.000431247
0.000427734
0.000428106
0.000422078
0.000424706
0.000418562
0.00042717
0.000419815
0.000431736
0.000425533
0.000433424
0.000432742
0.000433762
0.000425683
0.000425676
0.000425358
0.000419271
0.000425253
0.000413254
0.000422722
0.000420375
0.000426251
0.000428903
0.000432107
0.00042324
0.000431713
0.000431685
0.000436249
0.000426266
0.000423197
0.000424154
0.000417087
0.000415851
0.000414898
0.00042424
0.000429242
0.000433302
0.000437422
0.000437932
0.000431844
0.000443087
0.000416856
0.000497428
0.000476149
0.000402838
0.00037946
0.000365174
5.38766e-05
5.16072e-05
5.68097e-05
6.83614e-05
8.9202e-05
0.000119236
0.000155716
0.000179574
0.000206509
0.000234907
0.000262758
0.00029129
0.000317162
0.000341434
0.00036355
0.000382959
0.000400397
0.000415987
0.000429835
0.000440015
0.0004492
0.000457546
0.000465161
0.000472104
0.000478416
0.000484176
0.000489457
0.000494319
0.000498796
0.000502909
0.000506698
0.000510198
0.00051344
0.000516452
0.000519239
0.000521821
0.000524219
0.000526452
0.000528534
0.000530477
0.000532284
0.000533969
0.000535543
0.000537013
0.000538393
0.000539684
0.00054089
0.000542017
0.000543073
0.000544064
0.000544994
0.000545868
0.000546686
0.000547452
0.000548171
0.000548846
0.00054948
0.000550077
0.000550636
0.000551161
0.000551652
0.000552114
0.000552548
0.000552958
0.00055334
0.000553701
0.000554038
0.000554356
0.000554653
0.000554937
0.000555203
0.000555457
0.000555696
0.000555926
0.000556143
0.000556357
0.000556562
0.000556768
0.000556967
0.000557174
0.000557376
0.000557601
0.000557818
0.000558083
0.000558334
0.000558608
0.000558876
0.000559221
0.000559553
0.000560031
0.000560458
0.00056114
0.000561797
0.000562873
0.000564011
0.000566049
0.000567735
0.000576282
0.000571474
0.000489944
0.000440959
0.000429728
0.000450499
0.000491078
0.00051744
0.000530646
0.000540997
0.000550856
0.00054985
0.000556172
0.000563528
0.000558234
0.000559903
0.000557087
0.000550949
0.000552122
0.000549285
0.000553108
0.000546459
0.000544403
0.000542583
0.000545194
0.00054508
0.000532845
0.000541666
0.000536405
0.000540266
0.000541728
0.000534159
0.000536752
0.000517364
0.000524766
0.000524335
0.000529591
0.000532897
0.0005314
0.00053775
0.000521444
0.00052811
0.000515285
0.000512198
0.000519472
0.000517073
0.000525236
0.000511034
0.00052311
0.000518
0.000523867
0.000530726
0.000519558
0.000522957
0.000506828
0.000516866
0.000512645
0.000521299
0.000528219
0.000530574
0.000536183
0.000530463
0.000530303
0.000511275
0.000513714
0.000520475
0.000523682
0.00053176
0.000519101
0.000523338
0.000513031
0.000522015
0.000525061
0.000526076
0.000522728
0.000516041
0.000519386
0.000511159
0.000518068
0.000505756
0.000516638
0.000509144
0.000514179
0.000516688
0.000515321
0.000518928
0.000509185
0.00051846
0.000504307
0.000520062
0.000507008
0.00051316
0.000522834
0.000530121
0.000528062
0.000518636
0.00053063
0.000522688
0.000533745
0.000520413
0.000532077
0.000521844
0.000526183
0.000522188
0.000520833
0.0005215
0.000508155
0.000519878
0.0005038
0.000517416
0.000511184
0.000524565
0.000521499
0.000521266
0.00052192
0.000520934
0.000528234
0.000517935
0.00052528
0.000516362
0.000531473
0.0005226
0.000534587
0.000535584
0.000534822
0.000531258
0.000522539
0.000526104
0.000510863
0.000522038
0.000507118
0.000518911
0.000510473
0.000518517
0.000522843
0.000526146
0.00053418
0.000525528
0.000534599
0.000525769
0.000536741
0.000527441
0.000535696
0.000527214
0.000527206
0.000524512
0.000519018
0.000521167
0.000519986
0.000526021
0.000515021
0.000528604
0.000521969
0.000531678
0.000527532
0.000532664
0.000531627
0.000527556
0.000528078
0.000521269
0.000523589
0.000517008
0.000525275
0.00051907
0.000530959
0.000525965
0.000533932
0.000533696
0.000534559
0.000526126
0.000524617
0.000524404
0.000517338
0.000523136
0.000511263
0.000519817
0.000518206
0.000523948
0.000527421
0.000531304
0.000523244
0.000531626
0.000532497
0.000537226
0.000527065
0.00052264
0.000522836
0.000514728
0.000511399
0.000509958
0.000519647
0.00052609
0.000531442
0.000537043
0.000539193
0.000529273
0.000547527
0.000500988
0.000614118
0.000591948
0.000512964
0.000473704
0.000450101
6.74577e-05
4.9982e-05
4.83926e-05
5.19879e-05
6.15063e-05
7.87797e-05
0.000105067
0.000137379
0.000170187
0.000192404
0.000217598
0.000244748
0.000271225
0.00029917
0.000325637
0.000350802
0.000374809
0.000396788
0.000417154
0.000435661
0.000452355
0.000467463
0.00048139
0.000493375
0.000503054
0.000511985
0.00052026
0.000527947
0.000535087
0.0005417
0.000547844
0.000553569
0.000558917
0.000563922
0.000568593
0.00057296
0.00057705
0.00058089
0.0005845
0.000587894
0.000591081
0.00059408
0.000596905
0.000599571
0.000602092
0.00060447
0.000606715
0.000608836
0.000610843
0.000612744
0.000614548
0.000616257
0.000617876
0.000619411
0.000620868
0.000622252
0.000623569
0.000624822
0.000626012
0.000627143
0.000628219
0.000629244
0.000630222
0.000631155
0.000632043
0.000632891
0.000633698
0.000634471
0.000635209
0.000635918
0.000636596
0.000637248
0.000637873
0.000638476
0.000639056
0.000639622
0.00064017
0.000640708
0.000641232
0.000641755
0.000642266
0.000642793
0.000643307
0.000643863
0.000644405
0.000644974
0.000645517
0.000646147
0.000646767
0.000647539
0.000648244
0.000649244
0.000650209
0.000651646
0.000653148
0.00065564
0.000657859
0.000667112
0.000661772
0.000579446
0.00053054
0.000504833
0.000508309
0.000539706
0.000573536
0.000603236
0.000616917
0.000629967
0.000632527
0.000641198
0.000651001
0.000648757
0.000651925
0.000650274
0.00064554
0.000646708
0.000644918
0.00064879
0.000642726
0.000640632
0.000638734
0.000641495
0.000641633
0.000630552
0.000638798
0.000633997
0.000637721
0.000639189
0.000632614
0.000634086
0.000615093
0.000620996
0.000620193
0.000625127
0.000628587
0.000628542
0.000634519
0.000619461
0.000624996
0.000611632
0.000607417
0.000613869
0.000612655
0.000620113
0.000607068
0.000618274
0.000613519
0.00061911
0.00062622
0.000616839
0.000618899
0.000603286
0.000611754
0.000607468
0.00061507
0.000622946
0.000626586
0.000632651
0.000628403
0.000627149
0.00060783
0.000604918
0.000614879
0.000619209
0.000626307
0.000615103
0.000618086
0.000607824
0.000614242
0.000619085
0.000620257
0.000616899
0.000609798
0.000612198
0.000604472
0.000609859
0.000598079
0.000607333
0.000600259
0.000603346
0.000607331
0.000606531
0.000610417
0.000602082
0.00061029
0.00059809
0.000612529
0.000600402
0.000603065
0.000615557
0.000623625
0.000622717
0.000614876
0.000626473
0.000621213
0.000631336
0.000619863
0.000630352
0.000620367
0.000623776
0.000619195
0.000617208
0.000617569
0.000604696
0.000614682
0.000600016
0.000611889
0.000606609
0.000619378
0.0006168
0.000616499
0.000617221
0.000616413
0.000623761
0.000615216
0.000621445
0.000614279
0.0006286
0.000621207
0.000632818
0.000634495
0.000634244
0.000630692
0.000621805
0.000624248
0.000609721
0.00061876
0.000604564
0.000614764
0.000606364
0.000613153
0.000617965
0.000624816
0.000631148
0.000624502
0.000633161
0.000626653
0.000636911
0.000628896
0.000636334
0.00062761
0.000626765
0.000623428
0.000617363
0.000618949
0.000617396
0.000623141
0.000613604
0.000626248
0.000621173
0.000630534
0.000626934
0.000631916
0.000630917
0.000626945
0.00062714
0.000620325
0.000621866
0.000615577
0.000622874
0.000618044
0.000629424
0.000625751
0.000633629
0.000633758
0.000634561
0.000625882
0.000623567
0.000622903
0.000615704
0.00062057
0.000609346
0.000616674
0.000615764
0.000621086
0.000625245
0.000629429
0.000622604
0.000630734
0.000632443
0.000637244
0.000627131
0.000621949
0.000621288
0.000612459
0.000607128
0.000605139
0.000614574
0.000622021
0.000628285
0.000635191
0.000639113
0.000642433
0.000651399
0.000593082
0.000725914
0.000706049
0.000626766
0.000575083
0.000551025
0.000107647
5.91572e-05
4.83498e-05
4.56602e-05
4.77461e-05
5.50383e-05
6.90202e-05
9.05701e-05
0.000118681
0.000151092
0.000181939
0.000203175
0.000226679
0.000252075
0.000277146
0.000303675
0.00033038
0.000355617
0.000380328
0.000403982
0.000426057
0.000446736
0.000466099
0.000483981
0.000500342
0.000515433
0.000529319
0.000542216
0.00055365
0.000563085
0.000571915
0.000580199
0.000587989
0.000595321
0.000602198
0.000608662
0.000614751
0.000620499
0.000625932
0.000631065
0.000635912
0.000640497
0.000644839
0.000648957
0.00065287
0.000656579
0.000660101
0.000663446
0.000666628
0.000669658
0.000672546
0.000675297
0.000677916
0.000680415
0.000682799
0.000685077
0.000687256
0.000689337
0.000691326
0.000693229
0.000695049
0.000696794
0.000698466
0.000700071
0.000701608
0.000703082
0.000704497
0.000705857
0.000707164
0.000708424
0.000709637
0.000710806
0.000711933
0.000713023
0.000714077
0.000715103
0.000716098
0.000717071
0.000718018
0.000718953
0.000719867
0.000720787
0.000721686
0.000722619
0.000723532
0.000724476
0.000725376
0.00072636
0.00072734
0.000728469
0.000729521
0.000730891
0.000732218
0.000734049
0.000735941
0.000738871
0.000741622
0.000751238
0.000745381
0.000665038
0.000609691
0.000584586
0.000575207
0.000591904
0.000616697
0.000660753
0.000685829
0.000701417
0.000707298
0.000718175
0.000730139
0.000730965
0.000735967
0.000735816
0.000733009
0.000734588
0.000734163
0.000738258
0.000733103
0.000731448
0.000729747
0.000732934
0.000733246
0.000723825
0.000731555
0.000727296
0.000731139
0.000732415
0.00072726
0.000727696
0.000709782
0.000714343
0.00071319
0.000717938
0.000721099
0.000722577
0.000727886
0.00071452
0.00071909
0.000705437
0.000700759
0.000706041
0.000706187
0.000712607
0.00070098
0.000710029
0.000706702
0.000712267
0.000719022
0.000711736
0.000712548
0.000698013
0.000704921
0.000700616
0.000706818
0.000715518
0.000720283
0.000726518
0.00072389
0.000721647
0.000702685
0.000693918
0.000707588
0.000712015
0.000718664
0.000709141
0.000710991
0.000701068
0.000704017
0.000711257
0.000712662
0.000708864
0.000701967
0.000703212
0.000696285
0.000700038
0.000688953
0.000694358
0.000689598
0.000689775
0.000695852
0.000695803
0.000699414
0.000692878
0.00069977
0.000689743
0.000702528
0.000691484
0.000689382
0.000705764
0.000714581
0.000714303
0.00070857
0.000719396
0.000717099
0.00072613
0.000716884
0.000726165
0.000716717
0.000719476
0.000714282
0.000712269
0.000711762
0.000700052
0.000707895
0.000694962
0.000704831
0.000700515
0.000710233
0.000710004
0.000709846
0.000710375
0.000710193
0.000716943
0.000710435
0.000715441
0.000710248
0.000723493
0.000717711
0.000726038
0.000731023
0.000731582
0.0007278
0.000719601
0.000720584
0.000707451
0.000714199
0.000701049
0.000709423
0.000701079
0.000705279
0.000711487
0.000717999
0.000725727
0.00072141
0.000729456
0.000725546
0.000734995
0.000728508
0.000735115
0.000726311
0.000724976
0.000720815
0.000714776
0.000715538
0.000714074
0.000718868
0.00071108
0.000722479
0.000718986
0.000727817
0.000724727
0.00072965
0.000728558
0.000725031
0.000724676
0.000718339
0.000718928
0.000713347
0.000719395
0.000716032
0.000726613
0.000724273
0.000731914
0.000732305
0.000733081
0.000724246
0.000721597
0.000720275
0.000713461
0.000717051
0.000706758
0.00071273
0.000712489
0.000717231
0.000721978
0.00072614
0.000720707
0.000728471
0.000730913
0.000735688
0.000725772
0.00072027
0.000718683
0.000709507
0.000702402
0.000699943
0.00070877
0.000716919
0.000723714
0.000731783
0.000737233
0.000750267
0.000753606
0.000696189
0.000826183
0.000817279
0.000740695
0.000680554
0.000655434
0.000113486
8.73524e-05
6.0248e-05
4.92565e-05
4.48093e-05
4.49544e-05
4.98533e-05
6.03753e-05
7.72057e-05
0.00010064
0.000129381
0.000161165
0.000192619
0.000212636
0.000234436
0.000257985
0.000282022
0.000306549
0.000332549
0.000357589
0.000382287
0.000406592
0.0004297
0.000451704
0.00047284
0.000492733
0.000511313
0.000528811
0.000545244
0.000560365
0.000574388
0.000587562
0.000599821
0.000611336
0.000620646
0.000629443
0.00063777
0.000645668
0.000653166
0.000660276
0.000667014
0.000673412
0.000679495
0.000685287
0.000690809
0.000696064
0.00070107
0.000705843
0.000710399
0.000714753
0.000718916