/*--------------------------------*- C++ -*----------------------------------*\
| =========                 |                                                 |
| \\      /  F ield         | foam-extend: Open Source CFD                    |
|  \\    /   O peration     | Version:     3.2                                |
|   \\  /    A nd           | Web:         http://www.foam-extend.org         |
|    \\/     M anipulation  | For copyright notice see file Copyright         |
\*---------------------------------------------------------------------------*/
FoamFile
{
    version     2.0;
    format      ascii;
    class       volScalarField;
    location    "160";
    object      omega;
}
// * * * * * * * * * * * * * * * * * * * * * * * * * * * * * * * * * * * * * //

dimensions      [0 0 -1 0 0 0 0];

internalField   nonuniform List<scalar> 
96000
(
1337.8
1193.99
994.732
901.562
863.835
843.375
828.244
814.772
802.17
790.561
780.054
770.539
761.828
753.972
746.831
740.28
734.238
728.615
723.429
718.666
714.216
710.009
706.035
702.284
698.748
695.384
692.191
689.139
686.237
683.475
680.828
678.296
675.859
673.524
671.279
669.127
667.045
665.042
663.102
661.23
659.426
657.675
655.983
654.339
652.744
651.199
649.699
648.245
646.823
645.449
644.101
642.799
641.524
640.289
639.077
637.903
636.748
635.631
634.517
633.449
632.386
631.372
630.359
629.395
628.43
627.519
626.6
625.739
624.866
624.055
623.231
622.476
621.704
621.01
620.293
619.669
619.02
618.476
617.912
617.469
617.01
616.694
616.381
616.222
616.126
616.157
616.312
616.68
617.23
618.029
619.187
620.636
622.844
625.292
629.547
633.921
643.615
647.453
699.977
668.992
470.259
460.28
475.024
477.583
483.51
489.563
491.975
497.911
508.075
490.127
512.079
523.307
505.163
530.204
508.566
515.11
515.845
515.418
531.891
507.591
526.92
505.206
534.569
516.761
505.797
544.09
498.45
549.409
518.304
535.775
532.201
493.836
538.626
494.676
545.245
516.033
544.451
544.88
512.967
562.81
481.271
534.429
513.378
535.844
536.294
503.491
562.556
487.878
561.056
533.387
545.534
535.894
509.288
545.079
500.768
557.18
533.323
557.94
556.184
559.674
556.263
509.105
571.234
516.637
568.581
555.816
545.3
558.275
520.389
574.833
538.417
577.119
528.284
557.416
532.788
542.026
540.549
511.837
555.935
489.056
554.975
498.908
545.746
504.657
529.159
515.104
496.936
539.388
465.843
538.47
496.178
558.16
491.225
537.377
523.15
537.877
543.292
519.22
561.691
503.668
567.523
491.543
560.943
498.983
531.189
519.526
501.634
529.464
494.902
550.67
483.933
537.948
486.633
533.682
505.816
522.577
510.579
509.441
539.973
498.297
559.68
506.839
561.426
500.2
544.91
507.419
518.352
521.975
490.756
527.476
469.474
531.808
483.027
539.825
502.169
526.342
517.597
519.225
537.18
513.504
552.788
496.947
545.398
493.618
528.222
491.956
528.737
502.133
509.591
526.77
505.546
535.82
498.759
547.844
503.522
537.532
505.889
527.639
501.044
518.729
509.538
511.357
529.645
510.619
540.662
522.807
545.45
494.834
540.693
498.908
525.602
509.564
503.76
512.788
510.732
509.33
527.114
517.026
512.789
531.698
524.645
546.836
501.043
526.958
511.524
507.282
489.303
497.572
504.482
513.27
513.765
529.397
523.594
552.625
537.138
625.702
757.482
682.386
561.603
534.821
497.193
517.199
492.029
452.319
418.385
393.181
374.395
360.151
348.938
339.83
332.099
325.489
319.734
314.713
310.279
306.293
302.712
299.455
296.5
293.794
291.306
288.999
286.856
284.856
282.987
281.229
279.574
278.014
276.537
275.142
273.813
272.553
271.349
270.202
269.105
268.058
267.052
266.087
265.161
264.269
263.412
262.585
261.788
261.018
260.273
259.555
258.857
258.185
257.529
256.897
256.28
255.684
255.102
254.54
253.989
253.458
252.936
252.433
251.936
251.459
250.986
250.533
250.084
249.655
249.227
248.821
248.414
248.03
247.644
247.281
246.915
246.575
246.23
245.913
245.591
245.299
245.003
244.739
244.472
244.243
244.013
243.823
243.643
243.501
243.392
243.332
243.309
243.328
243.434
243.576
243.89
244.201
244.832
245.421
246.568
247.595
249.942
250.833
258.766
285.891
261.356
218.086
202.593
196.115
193.008
192.358
192.345
192.226
195.989
194.865
195.019
200.383
199.759
199.852
203.111
200.669
202.673
201.2
204.533
203.833
202.173
202.947
202.781
207.8
201.751
206.348
206.793
204.269
209.842
206.306
213.293
204.777
205.275
207.136
204.606
208.79
206.654
215.231
208.376
212.6
214.752
205.605
209.767
206.42
213.987
205.714
210.131
213.223
208.07
217.01
211.954
218.227
209.126
212.905
210.454
208.076
212.941
213.12
219.381
218.112
224.604
216.766
213.703
217.163
214.348
223.073
217.683
222.797
217.324
216.528
220.922
219.539
221.824
216.101
219.851
213.53
218.931
210.152
214.218
213.541
207.232
211.454
206.735
211.643
203.917
211.167
201.005
210.283
205.283
199.753
204.694
204.288
210.751
203.141
211.364
206.239
215.228
208.212
216.792
213.925
211.026
216.048
209.538
214.606
204.45
212.686
202.814
208.728
202.059
206.003
209.954
203.85
206.039
201.509
208.307
201.642
207.092
200.252
209.171
203.779
206.847
213.027
209.98
213.713
207.255
212.206
202.955
210.437
201.55
206.988
202.48
198.234
201.659
199.189
206.062
201.019
207.885
202.793
210.609
205.636
210.043
210.866
206.728
209.555
203.908
204.809
201.036
206.892
199.354
206.343
201.679
206.733
205.287
204.571
209.451
205.831
208.04
204.108
205.633
200.366
205.462
200.519
206.758
203.519
206.914
206.974
209.247
210.26
205.461
208.305
202.866
207.711
200.927
203.118
200.938
201.756
201.921
207.001
202.787
205.871
205.022
209.188
210.278
205.854
206.861
203.828
200.527
196.089
197.286
198.491
200.017
202.33
203.387
208.882
206.85
212.092
246.707
280.916
269.555
241.159
210.519
283.144
296.912
287.41
274.512
260.432
247.127
235.674
226.195
218.23
211.54
205.917
201.083
196.885
193.188
189.897
186.969
184.338
181.963
179.803
177.833
176.026
174.363
172.824
171.391
170.053
168.801
167.629
166.526
165.487
164.504
163.575
162.692
161.856
161.059
160.3
159.576
158.883
158.221
157.585
156.976
156.391
155.828
155.287
154.765
154.263
153.777
153.309
152.855
152.418
151.993
151.582
151.183
150.797
150.422
150.058
149.704
149.361
149.024
148.699
148.379
148.07
147.767
147.475
147.187
146.91
146.637
146.375
146.115
145.867
145.62
145.386
145.152
144.932
144.712
144.505
144.3
144.108
143.918
143.743
143.571
143.413
143.264
143.128
143.005
142.911
142.835
142.765
142.735
142.713
142.759
142.797
142.943
143.066
143.354
143.553
144.108
143.755
144.718
164.796
178.359
153.687
137.219
128.313
122.65
119.398
117.628
116.004
116.536
117.193
114.746
116.604
117.307
115.938
119.463
117.696
118.721
117.677
118.668
119.83
117.976
120.055
116.825
121.426
118.647
119.198
121.889
116.775
123.005
119.47
124.285
121.836
120.007
122.803
117.568
123.004
118.901
124.179
122.054
122.386
128.79
120.267
124.569
119.862
124.606
121.568
121.667
127.152
118.888
126.226
122.493
127.834
124.055
124.485
125.507
120.34
124.519
122.196
126.038
125.227
130.533
128.376
124.485
129.937
123.449
129.342
126.944
129.822
128.205
125.291
129.303
125.436
132.774
126.171
130.983
126.106
129.545
125.669
125.826
128.363
120.494
128.411
119.813
127.34
119.836
125.363
119.865
122.906
123.629
117.476
121.755
115.405
126.819
117.693
123.714
119.064
124.459
121.425
124.284
125.004
121.334
131.066
120.282
130.373
120.492
126.101
120.76
122.686
120.121
119.626
124.548
117.692
125.253
117.145
123.569
117.799
122.149
117.612
120.964
119.871
118.139
124.307
118.71
128.865
119.837
126.932
120.108
124.267
120.316
121.568
121.545
116.459
121.363
114.104
121.859
116.424
121.105
117.635
121.436
119.762
120.905
123.248
118.909
125.913
118.876
124.256
116.99
122.847
117.381
120.183
118.263
119.516
119.983
117.363
123.79
118.392
123.692
118.532
122.918
117.526
121.074
117.516
119.922
118.755
119.003
119.93
120.232
124.881
118.554
124.943
118.52
122.81
118.953
119.691
118.016
119.017
116.701
120.658
118.416
119.066
118.741
120.147
123.504
119.761
122.212
120.671
120.743
116.871
116.456
115.731
116.607
116.34
117.842
118.408
119.528
112.724
122.357
150.752
162.283
152.674
92.5557
155.067
187.413
200.034
199.201
194.735
189.413
182.689
175.77
169.119
163.149
157.917
153.322
149.274
145.705
142.562
139.776
137.281
135.03
132.987
131.132
129.443
127.896
126.471
125.15
123.923
122.781
121.717
120.721
119.785
118.904
118.073
117.289
116.549
115.846
115.178
114.543
113.938
113.362
112.811
112.285
111.78
111.296
110.833
110.387
109.959
109.546
109.149
108.766
108.396
108.039
107.695
107.361
107.038
106.725
106.423
106.128
105.844
105.566
105.297
105.034
104.779
104.53
104.29
104.054
103.826
103.603
103.387
103.175
102.971
102.769
102.575
102.384
102.201
102.02
101.846
101.676
101.512
101.351
101.198
101.048
100.905
100.767
100.635
100.509
100.398
100.301
100.203
100.12
100.038
99.9857
99.9246
99.9011
99.8552
99.8586
99.775
99.764
99.1188
98.6942
111.895
128.977
119.327
108.383
100.167
94.3112
90.315
87.7467
85.5816
84.7055
85.0193
82.5307
82.7933
83.0921
82.1044
84.0381
83.1157
83.6087
82.8655
83.1083
83.998
83.0723
84.4093
81.9265
84.5944
83.2726
83.0881
84.7185
81.7574
85.2752
83.2114
86.2216
85.6204
84.2368
85.7809
82.576
85.6596
82.6613
85.6283
84.9406
85.0419
89.0607
84.7107
87.1112
83.8484
86.5397
85.2407
84.8229
87.8289
83.0621
86.9117
85.0477
88.5082
86.955
86.9172
87.6029
84.4939
86.7539
84.5906
86.5792
86.2151
89.8593
89.5928
87.274
90.4738
86.1094
89.2052
88.1446
89.9236
89.5417
87.4994
89.4435
87.1116
92.009
88.3419
91.6154
88.8626
90.9463
88.9974
88.547
90.0132
85.7047
90.2057
84.6788
89.5378
85.0204
88.1279
85.0617
86.2275
87.0813
83.4769
85.4614
81.2235
87.8151
82.512
85.7407
82.9107
85.9127
84.4431
85.5984
86.6719
84.8361
90.1516
84.3416
90.8957
85.249
88.4508
85.5033
86.2138
84.8843
83.9686
86.6575
83.0313
87.8466
82.7668
86.2815
82.9357
85.4348
82.6993
84.0866
83.8475
82.2294
85.3741
82.3956
88.7656
83.6906
88.5626
84.784
87.1544
85.1612
85.4628
85.8148
82.7897
85.5181
80.4579
84.8472
81.4915
84.0131
81.9209
83.8757
83.1924
83.5918
85.3173
83.0398
87.2919
83.4627
87.4379
82.5863
85.943
82.7002
83.8732
82.7942
83.0323
83.5315
81.9394
85.5216
82.4287
86.1385
82.9145
86.22
82.875
84.7216
82.4551
83.4196
82.7908
82.447
83.0739
83.3322
86.1887
82.8335
87.1126
83.2745
85.866
83.7635
84.0355
82.8998
83.5778
81.5226
83.7482
82.5636
82.6161
82.3562
83.0577
85.3759
83.4164
85.3852
84.7405
85.5052
83.104
82.4566
81.266
81.6653
80.6847
82.0786
81.1614
82.7735
75.8807
77.6813
94.3645
106.417
107.331
40.717
81.6929
111.692
133.589
145.942
150.942
150.632
148.6
145.712
141.813
137.459
133.086
128.946
125.123
121.641
118.525
115.727
113.205
110.919
108.863
107.003
105.311
103.765
102.342
101.028
99.8131
98.6869
97.6411
96.6649
95.7501
94.8915
94.0856
93.3271
92.6129
91.9368
91.2959
90.6882
90.1108
89.5627
89.0405
88.5421
88.0659
87.6104
87.1747
86.7573
86.3572
85.9724
85.6028
85.2468
84.9044
84.5745
84.2565
83.9492
83.6525
83.3654
83.0882
82.8195
82.56
82.3073
82.0626
81.8242
81.5934
81.3684
81.1507
80.9381
80.7323
80.5311
80.3363
80.1457
79.9612
79.7803
79.6053
79.4335
79.2673
79.1042
78.9462
78.7914
78.6412
78.4942
78.3514
78.2121
78.0763
77.9445
77.8157
77.6897
77.5703
77.462
77.3529
77.2475
77.1415
77.0455
76.9415
76.8474
76.7306
76.6205
76.4277
76.2138
75.4974
74.8307
83.6991
97.4251
95.5467
90.0151
83.9198
78.8592
74.9647
72.1834
69.8517
68.3729
68.0973
65.9697
65.4903
65.3541
64.5522
65.4701
64.8915
65.0775
64.5008
64.4449
64.9715
64.4936
65.1881
63.6432
65.0928
64.3327
64.0125
64.8686
63.2431
65.1176
63.9758
65.8879
65.8489
64.9696
65.7205
63.9424
65.4994
63.5848
65.2416
64.9665
65.0917
67.5432
65.3864
66.6103
64.6299
66.1825
65.5108
65.1089
66.5335
63.9809
66.0071
65.0343
67.2792
66.6183
66.5855
66.9863
65.1676
66.3053
64.7431
65.6958
65.5014
67.9713
68.2857
67.0176
68.5784
66.1141
67.7772
67.2272
68.392
68.3967
67.1158
68.0128
66.8284
69.6267
67.8895
69.9175
68.4337
69.8405
68.7832
68.3533
69.2036
66.8601
69.0348
66.0492
68.7416
66.1968
67.9944
66.1194
66.6105
67.2226
65.0466
65.7444
63.3407
66.7672
63.8472
65.5222
63.7553
65.4474
64.6102
65.1272
65.9886
65.2074
67.8628
65.1414
68.9704
66.0165
67.975
66.2493
66.5328
65.6989
64.9242
66.3829
64.5157
66.9955
64.3044
66.175
64.2269
65.6578
63.9207
64.514
64.4176
63.2374
64.8086
63.3659
66.8237
64.4342
67.44
65.3956
66.9397
65.8655
65.9574
66.2673
64.4832
65.6662
62.6891
64.9498
62.9752
64.2854
62.92
63.9578
63.5954
63.748
64.9051
63.8528
66.2313
64.3832
66.6388
64.0608
65.907
63.9184
64.4282
63.7046
63.6205
63.918
63.0308
64.9567
63.3763
65.5436
63.892
65.8983
64.0374
65.0454
63.5572
63.9301
63.48
63.0504
63.386
63.6656
65.338
63.6936
66.1893
64.1889
65.7599
64.5635
64.6709
63.9133
64.2588
62.8223
64.0295
63.2944
63.1626
62.9212
63.3183
64.8108
63.8672
65.2159
65.0459
65.928
64.4985
63.9415
62.855
62.9345
61.8883
62.853
61.6297
62.8221
57.5419
56.4061
66.0896
75.1674
79.296
17.5449
41.1421
62.5704
81.8591
98.7997
111.78
118.894
121.865
121.903
120.719
118.878
116.384
113.454
110.385
107.334
104.437
101.727
99.2259
96.9209
94.8226
92.9113
91.1664
89.5649
88.0927
86.7432
85.4997
84.3488
83.281
82.2854
81.3553
80.4855
79.671
78.9064
78.1874
77.5081
76.8658
76.2584
75.6828
75.1375
74.6189
74.1248
73.6538
73.2042
72.7751
72.365
71.9725
71.5956
71.2343
70.8871
70.5536
70.233
69.9244
69.6267
69.3397
69.0625
68.7952
68.5366
68.2871
68.0449
67.8105
67.5827
67.3622
67.1478
66.9403
66.7382
66.5423
66.3514
66.1662
65.9856
65.8104
65.6393
65.4731
65.3106
65.1527
64.9982
64.8478
64.7008
64.5574
64.417
64.2798
64.1456
64.0138
63.885
63.7581
63.633
63.5109
63.3943
63.2802
63.1655
63.0481
62.9312
62.807
62.6812
62.5328
62.3744
62.1393
61.8538
61.1515
60.5157
66.6714
76.9294
78.0601
76.0556
72.3961
68.5942
65.1825
62.5356
60.2462
58.5624
57.8443
56.0387
55.2187
54.7961
54.0452
54.3735
53.9002
53.8791
53.3871
53.1877
53.4527
53.1536
53.4518
52.4944
53.2899
52.7684
52.423
52.8393
51.8839
52.9026
52.2322
53.4908
53.6247
53.056
53.4135
52.384
53.133
51.9284
52.8797
52.739
52.8524
54.4362
53.3025
53.947
52.7302
53.6834
53.2912
52.9616
53.6738
52.1672
53.2952
52.7587
54.2459
53.9696
53.9734
54.2191
53.1067
53.6314
52.6005
53.0179
52.8915
54.5806
55.0321
54.3355
55.1031
53.6827
54.6463
54.3379
55.1168
55.2335
54.4221
54.8491
54.2735
55.9386
55.1062
56.4031
55.6028
56.6171
56.0368
55.7233
56.2623
54.9391
56.0511
54.3728
55.8907
54.3947
55.5064
54.2956
54.501
54.9147
53.5163
53.6511
52.2599
54.1065
52.3425
53.2113
52.0515
53.0132
52.4765
52.6871
53.3084
53.011
54.5082
53.1649
55.5222
53.9097
55.2184
54.1928
54.3031
53.738
53.1438
53.9587
52.958
54.2713
52.7701
53.8243
52.6349
53.4726
52.3165
52.5427
52.463
51.5955
52.3754
51.6592
53.6641
52.4814
54.3915
53.2622
54.3406
53.7601
53.8108
54.049
52.9612
53.4149
51.6338
52.8125
51.5735
52.2477
51.3016
51.8371
51.5976
51.6284
52.4032
51.9465
53.3813
52.4889
53.7815
52.4
53.5013
52.2265
52.4309
51.9135
51.7183
51.8602
51.3389
52.418
51.594
52.8778
52.0632
53.2719
52.2228
52.8273
51.8316
51.9381
51.5831
51.1704
51.3243
51.5743
52.5924
51.7895
53.2973
52.2279
53.2592
52.5596
52.5982
52.0936
52.2045
51.2737
51.9346
51.4195
51.223
50.9974
51.2263
52.2028
51.7617
52.6775
52.7438
53.5389
52.6994
52.2497
51.4265
51.2965
50.4489
50.8082
49.7868
50.3539
46.5256
44.4707
50.2464
56.713
60.9407
7.36565
19.6852
32.9474
46.5202
60.67
74.7714
87.0839
95.8235
100.422
102.355
102.539
101.754
100.51
98.8749
96.8218
94.5898
92.3021
90.063
87.9106
85.8714
83.9681
82.2017
80.5614
79.0422
77.6426
76.3489
75.1499
74.0357
72.9977
72.0339
71.1352
70.2946
69.5062
68.765
68.0664
67.4078
66.7863
66.1985
65.6422
65.1138
64.6113
64.1333
63.678
63.2441
62.8301
62.4342
62.0548
61.6915
61.3432
61.0091
60.6885
60.3801
60.0832
59.7973
59.5216
59.256
58.9996
58.7523
58.5128
58.2812
58.0566
57.8394
57.6286
57.4246
57.2262
57.034
56.8469
56.6655
56.4889
56.3175
56.1503
55.9879
55.8292
55.6749
55.5242
55.3772
55.2336
55.0932
54.9558
54.8211
54.6893
54.5593
54.4319
54.3057
54.181
54.0582
53.9363
53.8188
53.7002
53.5771
53.4499
53.316
53.1757
53.0135
52.8346
52.586
52.2812
51.6241
51.0734
55.4779
63.1969
65.154
64.9345
63.2361
60.7911
58.0682
55.7571
53.6352
51.9618
50.9967
49.4204
48.4611
47.8759
47.1319
47.1115
46.656
46.4887
46.0383
45.7586
45.8473
45.6089
45.6749
45.0381
45.474
45.0748
44.7299
44.8991
44.279
44.8318
44.4081
45.2519
45.4312
45.0367
45.1902
44.5582
44.8917
44.1029
44.6672
44.5822
44.6619
45.7208
45.0997
45.4459
44.6782
45.2928
45.0525
44.7821
45.139
44.1805
44.8328
44.5318
45.536
45.4386
45.4563
45.6164
44.8992
45.1074
44.4225
44.5726
44.4887
45.6623
46.1045
45.7081
46.1122
45.235
45.8304
45.6631
46.1929
46.333
45.7988
46.0079
45.7373
46.7895
46.3934
47.2625
46.8384
47.5945
47.2949
47.0836
47.4635
46.6915
47.3078
46.3209
47.2193
46.3064
47.0288
46.2279
46.3003
46.5904
45.6342
45.5367
44.6799
45.7046
44.5657
44.996
44.2055
44.7423
44.3716
44.4123
44.8458
44.7599
45.6824
44.9991
46.5275
45.6317
46.5525
45.9553
45.988
45.5997
45.1497
45.6237
45.0551
45.796
44.8918
45.5184
44.772
45.2658
44.4699
44.5099
44.4368
43.7691
44.1412
43.7608
44.9771
44.3796
45.6477
45.0186
45.792
45.4956
45.5416
45.734
45.0447
45.182
44.0563
44.6865
43.8652
44.1904
43.5107
43.758
43.5777
43.5353
44.0589
43.8795
44.8004
44.3757
45.1735
44.3998
45.1073
44.272
44.3231
43.9449
43.7134
43.7614
43.4293
44.0571
43.6122
44.4056
44.009
44.7689
44.1595
44.5408
43.867
43.8474
43.5633
43.1901
43.241
43.4434
44.0893
43.6922
44.6489
44.066
44.784
44.3782
44.3822
44.0461
44.0276
43.4189
43.7938
43.4133
43.1958
42.99
43.1154
43.7731
43.5676
44.215
44.3888
45.0486
44.5569
44.2029
43.6073
43.3804
42.7513
42.6939
41.9229
41.9344
39.1324
37.0063
40.5384
45.0738
48.6405
3.17538
9.03275
16.33
24.6164
34.1849
45.1597
56.9716
68.3139
77.3733
83.5054
86.8035
88.1669
88.3918
87.8905
87.0461
85.8887
84.457
82.8318
81.1169
79.3706
77.652
75.992
74.4082
72.9097
71.4998
70.1794
68.9456
67.7921
66.7126
65.7072
64.7688
63.8896
63.0651
62.2891
61.5618
60.878
60.2334
59.6244
59.048
58.5015
57.9828
57.4903
57.022
56.5763
56.1513
55.7453
55.3571
54.9858
54.6304
54.29
53.9636
53.65
53.3484
53.0583
52.7792
52.5104
52.2514
52.0017
51.7602
51.527
51.3012
51.083
50.8716
50.6671
50.4685
50.2761
50.0892
49.908
49.7318
49.5608
49.3943
49.2324
49.0746
48.9209
48.771
48.6248
48.4821
48.3424
48.2058
48.0717
47.9403
47.8108
47.6835
47.5574
47.4324
47.3088
47.1844
47.0636
46.943
46.8169
46.6848
46.5464
46.3996
46.2321
46.0457
45.7965
45.4939
44.8909
44.4232
47.6563
53.5715
55.6086
56.0869
55.5981
54.3006
52.3818
50.5569
48.6607
47.1154
46.0588
44.653
43.663
42.9981
42.2577
42.0281
41.5647
41.294
40.8644
40.537
40.5065
40.2799
40.2067
39.7406
39.9633
39.6369
39.2983
39.3263
38.8817
39.1626
38.8719
39.4385
39.617
39.3189
39.3615
38.9478
39.0634
38.5233
38.8571
38.8002
38.8429
39.5704
39.2165
39.3934
38.8996
39.3066
39.1603
38.9318
39.1005
38.4525
38.8319
38.6665
39.3558
39.3466
39.3613
39.4707
38.985
39.0312
38.5561
38.5704
38.5202
39.351
39.7429
39.5046
39.7171
39.1504
39.5317
39.4539
39.82
39.9584
39.5893
39.6886
39.5857
40.2827
40.1041
40.7055
40.4966
41.0717
40.9462
40.8084
41.1024
40.6412
41.0089
40.4186
40.9791
40.4154
40.8999
40.3727
40.3801
40.5987
39.909
39.7143
39.157
39.7394
38.9666
39.1427
38.5919
38.873
38.6055
38.547
38.8454
38.8462
39.4417
39.0984
40.1354
39.6439
40.3084
39.9819
39.9781
39.7174
39.3735
39.6599
39.3187
39.7487
39.1805
39.5651
39.0935
39.3805
38.8208
38.7615
38.6984
38.1625
38.3168
38.1016
38.8639
38.5605
39.429
39.0861
39.6446
39.5175
39.5635
39.7284
39.2775
39.277
38.5328
38.8707
38.3069
38.4315
37.9322
38.0115
37.8678
37.7814
38.1382
38.0883
38.7049
38.5116
39.0268
38.59
39.0678
38.518
38.4892
38.2117
37.9778
37.9706
37.7405
38.1158
37.8673
38.3767
38.1913
38.6897
38.33
38.5721
38.1124
38.0303
37.8046
37.4748
37.4705
37.6273
38.0511
37.8527
38.4856
38.1677
38.6856
38.4618
38.4455
38.2224
38.1407
37.7303
37.9481
37.6626
37.445
37.2618
37.3203
37.7743
37.6866
38.1577
38.3742
38.9037
38.6161
38.3383
37.9066
37.6585
37.189
36.9524
36.3491
35.9533
33.8206
31.8998
34.1258
37.3414
40.1976
1.45756
4.18864
7.78888
12.273
17.8525
24.8508
33.431
43.2604
53.2512
62.2672
69.1875
73.708
76.2153
77.2705
77.541
77.2711
76.6768
75.8548
74.8654
73.6726
72.3683
71.0119
69.646
68.2961
66.9787
65.7113
64.5026
63.3544
62.2664
61.2397
60.2731
59.3623
58.5053
57.6963
56.9362
56.2212
55.5466
54.9093
54.3056
53.7347
53.1947
52.6828
52.1964
51.7338
51.2927
50.8721
50.4706
50.0873
49.7207
49.3699
49.0338
48.7112
48.4014
48.1038
47.8178
47.5427
47.2778
47.0225
46.776
46.5382
46.3084
46.0864
45.8716
45.6639
45.4625
45.2675
45.0783
44.8949
44.7168
44.544
44.3759
44.2126
44.0535
43.8986
43.7477
43.6005
43.4569
43.3164
43.179
43.0442
42.912
42.7818
42.6538
42.5269
42.4011
42.2762
42.1508
42.0268
41.9046
41.7769
41.6427
41.5024
41.3529
41.1843
40.9965
40.7525
40.4617
39.9121
39.5126
41.9345
46.535
48.4485
49.123
49.2379
48.7174
47.5338
46.2602
44.6632
43.3055
42.2644
41.005
40.0415
39.3533
38.6297
38.2778
37.8048
37.4621
37.0423
36.6863
36.576
36.3444
36.1876
35.8117
35.8964
35.6153
35.283
35.2282
34.8822
34.9958
34.7803
35.1542
35.3123
35.0683
35.0473
34.7552
34.758
34.3688
34.5567
34.516
34.5257
35.0339
34.824
34.8947
34.5726
34.8429
34.7588
34.5624
34.6278
34.1678
34.3789
34.2909
34.7691
34.8052
34.8101
34.8863
34.5436
34.5069
34.1622
34.1084
34.0785
34.6755
35.0103
34.8578
34.9639
34.5841
34.8293
34.8079
35.0631
35.1903
34.9231
34.9663
34.9538
35.4365
35.3722
35.797
35.7103
36.1537
36.1366
36.0498
36.2949
36.0207
36.2581
35.9031
36.2722
35.9275
36.2598
35.9285
35.9019
36.0771
35.5616
35.3325
34.9504
35.287
34.7413
34.7614
34.3769
34.5013
34.3056
34.1893
34.393
34.4239
34.8178
34.6484
35.3833
35.1284
35.6127
35.4611
35.4389
35.2748
35.007
35.1871
34.9736
35.2275
34.8579
35.0942
34.7985
34.9582
34.5618
34.4499
34.397
33.9556
33.9878
33.8596
34.3462
34.1956
34.8034
34.6307
35.0333
35.0097
35.0503
35.1983
34.8943
34.8353
34.3279
34.5015
34.1077
34.112
33.7407
33.7204
33.6034
33.4929
33.7381
33.747
34.1723
34.0975
34.4395
34.1945
34.5247
34.1651
34.0935
33.8927
33.6717
33.6354
33.4642
33.689
33.5436
33.881
33.8032
34.1438
33.9337
34.0823
33.7666
33.6516
33.4739
33.184
33.1511
33.2718
33.558
33.4629
33.8923
33.7224
34.1017
33.9917
33.9628
33.8189
33.7117
33.4254
33.5496
33.3335
33.1259
32.9666
32.9831
33.3029
33.2732
33.6251
33.853
34.2731
34.1059
33.8838
33.5658
33.3293
32.9691
32.6722
32.1877
31.5518
29.8468
28.1788
29.6228
31.9523
34.1955
0.724555
2.0041
3.78191
5.97785
8.86971
12.7119
17.8198
24.4365
32.3844
41.0587
49.5112
56.7615
62.222
65.7149
67.7272
68.6822
68.9585
68.829
68.424
67.8508
67.1198
66.2651
65.2867
64.2377
63.1543
62.0601
60.9734
59.9093
58.8775
57.8822
56.9284
56.0182
55.1531
54.3307
53.5498
52.8107
52.1104
51.4472
50.8177
50.2214
49.6567
49.1214
48.6125
48.1286
47.6669
47.2284
46.8106
46.4122
46.0313
45.6671
45.3181
44.9837
44.6631
44.3555
44.0601
43.7762
43.503
43.2399
42.9862
42.7417
42.5057
42.278
42.0579
41.845
41.6389
41.4395
41.2462
41.0589
40.8773
40.7012
40.53
40.3636
40.2018
40.0444
39.8911
39.7417
39.5959
39.4534
39.3142
39.1776
39.0438
38.9121
38.7826
38.6543
38.5272
38.4008
38.2745
38.1478
38.0236
37.8948
37.7598
37.6189
37.4687
37.3007
37.1145
36.8781
36.6029
36.102
35.756
37.5986
41.2299
42.967
43.654
44.0172
43.927
43.2957
42.5032
41.2892
40.1505
39.1993
38.0772
37.1705
36.4973
35.8056
35.3874
34.9122
34.5238
34.1102
33.7378
33.5743
33.3342
33.1255
32.7983
32.7887
32.5363
32.2118
32.1059
31.8176
31.8226
31.652
31.8885
32.019
31.8069
31.746
31.524
31.4642
31.1717
31.2626
31.2308
31.2135
31.5716
31.441
31.4419
31.2292
31.4042
31.362
31.1892
31.1965
30.8566
30.9581
30.9142
31.2475
31.3079
31.3014
31.3538
31.1018
31.0221
30.7614
30.6735
30.6543
31.089
31.3723
31.2669
31.3107
31.0476
31.2001
31.2127
31.3913
31.504
31.3032
31.3163
31.352
31.698
31.6971
32.0006
31.9837
32.328
32.376
32.3243
32.5365
32.3794
32.5467
32.3341
32.5969
32.3896
32.6251
32.436
32.392
32.5382
32.1447
31.9131
31.6361
31.8322
31.436
31.3673
31.0962
31.1204
30.98
30.8297
30.9685
31.0044
31.2676
31.1959
31.7296
31.6126
31.9656
31.9297
31.8951
31.8004
31.5904
31.7097
31.5771
31.7257
31.4765
31.6177
31.4365
31.5161
31.2368
31.097
31.0535
30.6841
30.6472
30.5681
30.8791
30.8082
31.2413
31.1703
31.4588
31.4958
31.5299
31.6658
31.4551
31.3747
31.0203
31.0967
30.8199
30.7489
30.4746
30.395
30.3006
30.1785
30.3478
30.3817
30.6801
30.6715
30.8971
30.7626
30.9921
30.7615
30.665
30.5245
30.3221
30.2721
30.1376
30.2689
30.1815
30.4074
30.3922
30.626
30.5075
30.5901
30.3724
30.2419
30.1023
29.8472
29.8007
29.8939
30.0913
30.0504
30.3475
30.2606
30.5408
30.5013
30.4661
30.3766
30.2627
30.0574
30.1223
29.9578
29.7646
29.6279
29.6188
29.8482
29.848
30.1153
30.3394
30.6719
30.5757
30.393
30.154
29.9388
29.6545
29.3442
28.9482
28.2157
26.7899
25.3454
26.3032
28.0329
29.7825
0.395623
0.978316
1.89151
3.02524
4.41864
6.32123
8.95206
12.6109
17.538
23.7837
31.0539
38.6642
45.8649
51.8054
56.239
59.1128
60.8136
61.6824
61.9659
61.9336
61.6861
61.2782
60.7501
60.1217
59.4029
58.5971
57.7411
56.8609
55.9712
55.0826
54.2058
53.3497
52.5197
51.7193
50.9481
50.2092
49.5025
48.8285
48.1855
47.5724
46.9883
46.4327
45.9031
45.3991
44.9175
44.4595
44.023
43.6066
43.2086
42.8281
42.4635
42.1152
41.7818
41.4622
41.1554
40.8607
40.5771
40.3044
40.0418
39.7891
39.5453
39.3102
39.0831
38.8637
38.6514
38.4461
38.2475
38.0551
37.8687
37.6879
37.5124
37.342
37.1763
37.0153
36.8586
36.7059
36.5571
36.4118
36.2698
36.1306
35.9944
35.8605
35.7289
35.5986
35.4697
35.3416
35.2139
35.0854
34.9585
34.8287
34.6935
34.5525
34.4022
34.2359
34.0525
33.8244
33.5653
33.1073
32.8027
34.2205
37.1271
38.6803
39.3235
39.7674
39.8758
39.6023
39.1533
38.3332
37.4419
36.6211
35.6385
34.8044
34.172
33.523
33.0753
32.6073
32.1952
31.7908
31.4118
31.2125
30.9641
30.7217
30.4223
30.3473
30.1147
29.8
29.6615
29.4075
29.3424
29.194
29.3305
29.4351
29.2414
29.1551
28.975
28.8782
28.6479
28.6705
28.6417
28.6035
28.8563
28.77
28.729
28.5836
28.6896
28.6751
28.5179
28.4902
28.2294
28.2567
28.2426
28.4728
28.546
28.5284
28.5635
28.3693
28.2658
28.0598
27.9546
27.9446
28.2635
28.5038
28.4238
28.4277
28.2386
28.325
28.3563
28.4822
28.581
28.4261
28.4219
28.4816
28.7348
28.7711
28.9869
29.0148
29.2805
29.3643
29.3367
29.5214
29.4452
29.5655
29.4496
29.6459
29.5312
29.7057
29.6137
29.5639
29.6898
29.3843
29.165
28.958
29.0656
28.7768
28.6682
28.4706
28.4261
28.3316
28.1609
28.2556
28.2868
28.4634
28.4486
28.8414
28.8036
29.0605
29.099
29.0561
29.0074
28.8431
28.929
28.8473
28.9318
28.7597
28.8414
28.7345
28.7639
28.5717
28.4165
28.3797
28.0662
27.9936
27.9419
28.1385
28.1129
28.4226
28.409
28.6136
28.6866
28.7137
28.8382
28.6892
28.6046
28.3515
28.3665
28.1729
28.0642
27.8578
27.7441
27.6701
27.5439
27.6596
27.7015
27.9116
27.9387
28.0856
28.014
28.1752
28.0329
27.9251
27.828
27.6439
27.5876
27.4773
27.5497
27.4985
27.6494
27.6707
27.829
27.7657
27.8003
27.6503
27.5182
27.4064
27.1819
27.1302
27.202
27.3392
27.3299
27.5341
27.4952
27.7037
27.7061
27.6694
27.6151
27.5021
27.3521
27.3786
27.2537
27.0767
26.9598
26.9343
27.1011
27.1175
27.324
27.5363
27.7988
27.7445
27.5896
27.4062
27.2125
26.9821
26.6805
26.3457
25.6035
24.377
23.1163
23.7603
25.0758
26.4458
0.270361
0.517588
0.964903
1.58993
2.35524
3.28199
4.53323
6.31031
8.84055
12.3724
17.0868
22.9149
29.5112
36.1921
42.3563
47.3746
51.0942
53.5573
55.0432
55.8404
56.1887
56.2134
56.0668
55.7846
55.408
54.9413
54.4079
53.8005
53.1319
52.4283
51.7028
50.9662
50.2287
49.4998
48.7823
48.0812
47.3998
46.7411
46.1061
45.4947
44.9069
44.3436
43.8037
43.2875
42.793
42.3198
41.8671
41.4345
41.0203
40.6241
40.244
39.8807
39.5327
39.1993
38.8791
38.5717
38.2758
37.9921
37.7193
37.4569
37.2039
36.96
36.7246
36.4973
36.2777
36.0656
35.8604
35.6619
35.4696
35.2832
35.1023
34.9269
34.7565
34.591
34.4301
34.2734
34.1208
33.9718
33.8264
33.6841
33.5448
33.4081
33.2737
33.141
33.0099
32.8796
32.7501
32.62
32.4904
32.3591
32.2239
32.0828
31.9328
31.7684
31.5881
31.3682
31.1234
30.7034
30.4301
31.5295
33.8856
35.2624
35.848
36.3033
36.4883
36.4205
36.1873
35.6859
35.0512
34.3746
33.5442
32.7925
32.2209
31.6206
31.1681
30.7158
30.2977
29.9065
29.5294
29.307
29.052
28.7887
28.5061
28.3853
28.167
27.8628
27.7042
27.472
27.3603
27.2206
27.2838
27.365
27.1819
27.0784
26.9239
26.8045
26.615
26.5878
26.5582
26.5037
26.6808
26.6173
26.5515
26.4479
26.503
26.5044
26.3593
26.3096
26.1023
26.0789
26.0845
26.2403
26.318
26.2906
26.3137
26.1573
26.0399
25.8702
25.7558
25.7522
25.9878
26.1924
26.1268
26.1039
25.9626
26.0002
26.0428
26.1292
26.2154
26.0928
26.078
26.1481
26.3356
26.3942
26.5445
26.6005
26.8049
26.9051
26.8944
27.0555
27.0332
27.1198
27.0737
27.2206
27.1811
27.3109
27.2823
27.2333
27.3449
27.1054
26.9028
26.747
26.7924
26.5883
26.4654
26.3202
26.2328
26.1708
25.9888
26.0535
26.0764
26.1946
26.2121
26.5011
26.5095
26.6982
26.7817
26.7338
26.7151
26.5864
26.654
26.6047
26.6463
26.527
26.5733
26.5161
26.5157
26.3919
26.2279
26.1931
25.9227
25.8323
25.7976
25.9188
25.9228
26.1417
26.1589
26.3006
26.3936
26.4136
26.5263
26.4202
26.3365
26.1535
26.1329
25.9963
25.8711
25.7139
25.5832
25.5266
25.4006
25.4782
25.5196
25.6665
25.7116
25.8045
25.7716
25.8825
25.8007
25.6908
25.6239
25.4556
25.397
25.3042
25.3376
25.3103
25.4093
25.4511
25.5555
25.5246
25.5237
25.4222
25.2935
25.2033
25.0053
24.9531
25.0086
25.1037
25.1121
25.2501
25.2422
25.3957
25.425
25.3863
25.3538
25.2451
25.1334
25.134
25.0397
24.8796
24.7797
24.7433
24.8654
24.8919
25.0545
25.2512
25.4584
25.4288
25.2941
25.1499
24.9751
24.7838
24.5006
24.2087
23.4928
22.4294
21.317
21.7514
22.7734
23.8568
0.227937
0.324158
0.527218
0.855224
1.30236
1.83275
2.48417
3.31425
4.4982
6.19854
8.63918
12.0288
16.4853
21.8694
27.8148
33.7232
39.0742
43.4186
46.6312
48.8103
50.1636
50.9253
51.2983
51.3933
51.3058
51.1213
50.849
50.5092
50.1037
49.654
49.1417
48.5821
47.996
47.3931
46.7782
46.16
45.5447
44.9369
44.3402
43.7573
43.1894
42.6385
42.1052
41.5908
41.0952
40.6174
40.1576
39.716
39.2916
38.8844
38.493
38.1171
37.7562
37.4098
37.0768
36.7571
36.4491
36.1535
35.8693
35.5959
35.3324
35.0784
34.8332
34.597
34.3691
34.1492
33.9365
33.7308
33.5317
33.3387
33.1518
32.9706
32.7948
32.624
32.4581
32.2967
32.1396
31.9863
31.8368
31.6908
31.548
31.4078
31.2703
31.1347
31.0009
30.8681
30.7362
30.6044
30.4722