/*--------------------------------*- C++ -*----------------------------------*\
| =========                 |                                                 |
| \\      /  F ield         | foam-extend: Open Source CFD                    |
|  \\    /   O peration     | Version:     3.2                                |
|   \\  /    A nd           | Web:         http://www.foam-extend.org         |
|    \\/     M anipulation  | For copyright notice see file Copyright         |
\*---------------------------------------------------------------------------*/
FoamFile
{
    version     2.0;
    format      ascii;
    class       volScalarField;
    location    "160";
    object      p;
}
// * * * * * * * * * * * * * * * * * * * * * * * * * * * * * * * * * * * * * //

dimensions      [1 -1 -2 0 0 0 0];

internalField   nonuniform List<scalar> 
96000
(
-725.218
-863.071
-876.685
-877.971
-879.275
-881.119
-883.232
-885.345
-887.65
-889.658
-891.423
-893.173
-894.713
-896.206
-897.591
-898.906
-900.217
-901.446
-902.659
-903.81
-904.972
-906.103
-907.229
-908.321
-909.408
-910.482
-911.543
-912.602
-913.631
-914.671
-915.686
-916.71
-917.713
-918.718
-919.706
-920.696
-921.678
-922.651
-923.627
-924.584
-925.549
-926.498
-927.45
-928.395
-929.332
-930.27
-931.197
-932.129
-933.047
-933.97
-934.884
-935.795
-936.705
-937.61
-938.515
-939.415
-940.314
-941.211
-942.106
-943.002
-943.895
-944.788
-945.684
-946.577
-947.477
-948.376
-949.286
-950.194
-951.12
-952.042
-952.992
-953.94
-954.924
-955.909
-956.945
-957.981
-959.094
-960.201
-961.421
-962.635
-964.006
-965.37
-966.955
-968.54
-970.42
-972.322
-974.643
-977
-980.003
-983.064
-987.062
-991.224
-996.791
-1002.85
-1010.84
-1020.85
-1032.31
-1053.33
-1050.19
-1158.75
-960.431
-842.359
-794.537
-730.989
-696.825
-653.839
-628.95
-591.788
-572.54
-558.788
-504.219
-505.24
-416.725
-346.918
-358.489
-317.067
-413.713
-386.319
-377.427
-292.236
-202.833
-224.407
-177.559
-312.456
-262.812
-303.951
-282.469
-138.358
-180.83
-40.0448
-171.296
-104.157
-194.888
-268.519
-187.843
-253.501
-57.3882
-138.723
-5.14203
-57.7553
-136.116
-80.8739
-269.777
-158.234
-323.187
-169.233
-150.963
-139.576
-26.1687
-221.559
-127.014
-336.937
-195.034
-290.873
-251.14
-141.609
-187.373
-94.9402
-261.515
-245.611
-417.694
-321.615
-250.964
-256.245
-112.529
-263.386
-158.752
-345.814
-326.565
-337.536
-381.86
-229.374
-261.239
-82.9935
-262.625
-159.028
-361.305
-213.587
-236.802
-169.648
-23.9813
-166.665
-40.8757
-295.084
-98.8412
-318.725
-112.294
-243.039
-124.132
-43.4898
-158.641
-62.4906
-284.277
-92.0406
-313.153
-40.3994
-196.08
22.7684
-101.544
-72.7056
-71.8751
-258.983
-121.982
-331.123
-87.3143
-300.151
-23.4565
-148.958
33.0905
25.7075
3.57768
106.401
-68.9741
38.1055
-169.207
28.2683
-141.71
109.932
-11.5901
93.7959
51.7692
-82.7062
3.96943
-148.071
73.4214
-62.5849
199.063
-36.1374
101.445
-45.7912
-8.52713
61.7314
18.7663
222.935
89.2445
281.23
65.9243
192.047
-23.5478
99.3366
66.912
132.491
253.429
180.601
309.194
130.877
239.614
37.2597
222.389
79.1234
273.35
241.519
274.721
288.745
155.789
232.055
109.706
285.954
209.687
413.766
270.856
418.733
222.348
246.727
152.108
176.621
268.544
294.035
433.466
289.152
381.988
197.828
382.843
319.391
482.312
396.08
469.565
314.217
387.537
312.814
395.369
384.143
350.244
382.769
349.05
481.411
461.655
548.283
483.387
533.574
462.851
491.144
399.357
413.036
275.896
268.102
27.551
-161.176
-6.53813
-53.9643
-755.691
-889.359
-903.428
-905.123
-906.56
-908.443
-910.599
-912.734
-915.057
-917.08
-918.855
-920.611
-922.156
-923.653
-925.041
-926.36
-927.672
-928.904
-930.117
-931.268
-932.431
-933.564
-934.691
-935.785
-936.873
-937.947
-939.01
-940.069
-941.099
-942.14
-943.155
-944.18
-945.183
-946.189
-947.177
-948.168
-949.15
-950.124
-951.1
-952.057
-953.022
-953.972
-954.924
-955.869
-956.807
-957.744
-958.671
-959.603
-960.522
-961.445
-962.359
-963.271
-964.181
-965.085
-965.991
-966.891
-967.79
-968.687
-969.583
-970.478
-971.372
-972.265
-973.16
-974.054
-974.954
-975.853
-976.763
-977.671
-978.597
-979.52
-980.47
-981.417
-982.402
-983.387
-984.423
-985.459
-986.572
-987.68
-988.899
-990.114
-991.484
-992.85
-994.435
-996.02
-997.9
-999.803
-1002.12
-1004.48
-1007.49
-1010.55
-1014.55
-1018.71
-1024.28
-1030.34
-1038.33
-1048.35
-1059.82
-1080.9
-1076.56
-1183.92
-987.939
-870.275
-822.113
-758.427
-724.189
-681.13
-656.187
-619.022
-599.641
-585.923
-530.979
-531.784
-445.101
-375.822
-387.281
-345.338
-439.819
-411.738
-403.56
-320.666
-232.012
-253.559
-205.95
-338.541
-288.978
-329.572
-309.086
-166.6
-210.038
-69.3553
-199.499
-132.565
-221.2
-294.121
-213.585
-280.02
-86.0941
-167.377
-35.1147
-86.3039
-164.168
-108.268
-296.02
-184.67
-348.021
-196.23
-179.062
-169.056
-55.5122
-249.716
-153.618
-362.198
-222.305
-316.8
-277.842
-169.954
-216.624
-124.319
-289.687
-272.211
-441.615
-347.544
-278.234
-285.052
-141.652
-291.818
-187.854
-371.581
-352.437
-363.302
-407.825
-256.645
-290.214
-112.802
-290.994
-186.162
-386.002
-240.197
-263.393
-198.499
-53.4932
-195.557
-68.6428
-321.096
-125.318
-344.78
-139.837
-269.121
-152.641
-72.4829
-186.986
-89.6843
-310.219
-118.19
-339.234
-68.24
-223.585
-7.09857
-129.801
-101.576
-99.4495
-285.203
-148.136
-357.141
-113.851
-326.236
-51.5517
-175.73
4.11993
-2.87292
-25.2208
77.763
-96.497
11.4986
-195.186
1.93648
-167.902
80.8014
-39.7188
64.4754
23.6581
-109.241
-22.0916
-174.167
46.3793
-90.8908
169.074
-63.2493
73.8247
-71.306
-34.8038
35.3321
-8.52849
194.395
60.5788
252.265
38.0921
164.469
-48.4962
72.8301
40.4997
104.284
224.595
151.854
280.516
103.33
212.908
11.2737
195.783
53.3141
244.602
212.803
245.746
260.59
129.14
205.957
83.7265
259.057
181.596
384.812
242.443
389.225
195.338
220.183
127.005
150.911
241.378
265.22
404.115
260.945
355.244
172.801
355.791
291.729
453.162
367.315
441.356
287.846
360.905
286.534
367.234
355.718
322.844
356.77
322.647
453.163
433.361
520.042
455.449
505.444
434.833
462.958
371.203
384.682
246.938
238.037
1.56695
-186.682
-33.7457
-81.2862
-788.868
-915.347
-929.742
-931.824
-933.572
-935.609
-937.846
-940.039
-942.394
-944.437
-946.227
-947.996
-949.553
-951.06
-952.457
-953.782
-955.1
-956.336
-957.554
-958.709
-959.875
-961.011
-962.14
-963.236
-964.325
-965.402
-966.466
-967.526
-968.558
-969.6
-970.615
-971.642
-972.645
-973.652
-974.641
-975.632
-976.615
-977.59
-978.566
-979.524
-980.489
-981.44
-982.392
-983.338
-984.276
-985.214
-986.141
-987.074
-987.993
-988.916
-989.831
-990.742
-991.652
-992.557
-993.463
-994.363
-995.263
-996.16
-997.056
-997.951
-998.845
-999.738
-1000.63
-1001.53
-1002.43
-1003.33
-1004.24
-1005.15
-1006.07
-1006.99
-1007.94
-1008.89
-1009.88
-1010.86
-1011.9
-1012.93
-1014.05
-1015.16
-1016.38
-1017.59
-1018.96
-1020.33
-1021.91
-1023.5
-1025.38
-1027.28
-1029.61
-1031.96
-1034.97
-1038.03
-1042.03
-1046.2
-1051.77
-1057.84
-1065.83
-1075.87
-1087.29
-1108.47
-1103.33
-1207.71
-1015.11
-897.953
-849.524
-785.912
-751.514
-708.37
-683.376
-646.205
-626.706
-613.042
-557.576
-558.013
-473.296
-404.869
-416.293
-374.154
-465.866
-437.099
-429.343
-348.824
-261.367
-283.024
-234.674
-364.786
-315.43
-354.958
-335.159
-194.798
-239.151
-99.2583
-227.622
-161.418
-247.746
-319.589
-239.282
-306.178
-114.811
-195.476
-65.633
-115.437
-192.226
-135.995
-322.389
-211.189
-372.145
-223.219
-207.116
-198.245
-85.3877
-277.876
-180.954
-387.14
-249.861
-342.334
-304.124
-198.386
-245.778
-154.177
-317.898
-299.198
-464.893
-373.073
-305.595
-313.657
-171.045
-320.18
-217.54
-397.31
-378.424
-389.061
-433.128
-283.791
-319.152
-142.683
-319.552
-213.93
-410.352
-266.812
-289.606
-226.933
-83.5671
-224.786
-96.5516
-347.316
-152.137
-370.213
-167.545
-294.68
-180.814
-101.946
-215.325
-117.419
-336.345
-144.258
-364.55
-96.1863
-250.608
-37.3978
-158.095
-130.612
-127.658
-311.363
-174.294
-382.982
-140.215
-351.526
-79.979
-202.118
-25.0132
-31.6923
-53.8701
48.6544
-124.288
-15.3069
-220.963
-24.4699
-193.403
51.4157
-67.568
34.7303
-5.05059
-135.582
-48.3052
-200.043
19.8261
-118.81
138.411
-90.2984
45.6577
-96.6959
-60.6848
8.87528
-35.5316
165.774
31.9081
222.866
10.5409
136.206
-73.2368
46.3214
14.4629
76.5847
195.545
122.981
251.535
75.4499
186.178
-14.3745
168.904
28.0043
215.849
184.291
216.659
231.843
102.406
179.869
57.8621
232.574
153.542
355.728
214.209
358.972
168.306
193.458
102.172
125.612
214.299
236.606
374.486
232.383
328.375
148.104
328.775
264.412
423.93
338.26
412.794
261.443
334.02
260.509
339.246
327.289
295.585
330.77
296.398
424.883
405.024
491.39
427.308
477.111
406.631
434.567
342.761
356.107
217.489
207.778
-24.9384
-210.436
-60.6462
-108.44
-821.802
-940.997
-955.904
-958.761
-960.723
-962.835
-965.117
-967.346
-969.723
-971.787
-973.598
-975.382
-976.948
-978.463
-979.866
-981.198
-982.521
-983.763
-984.985
-986.144
-987.313
-988.452
-989.584
-990.682
-991.774
-992.852
-993.918
-994.98
-996.013
-997.056
-998.073
-999.1
-1000.1
-1001.11
-1002.1
-1003.09
-1004.08
-1005.05
-1006.03
-1006.99
-1007.95
-1008.91
-1009.86
-1010.8
-1011.74
-1012.68
-1013.61
-1014.54
-1015.46
-1016.39
-1017.3
-1018.21
-1019.12
-1020.03
-1020.93
-1021.83
-1022.73
-1023.63
-1024.53
-1025.42
-1026.32
-1027.21
-1028.11
-1029
-1029.9
-1030.8
-1031.71
-1032.62
-1033.55
-1034.47
-1035.42
-1036.37
-1037.35
-1038.34
-1039.37
-1040.41
-1041.52
-1042.63
-1043.85
-1045.07
-1046.44
-1047.8
-1049.39
-1050.98
-1052.86
-1054.76
-1057.08
-1059.44
-1062.45
-1065.52
-1069.51
-1073.69
-1079.25
-1085.33
-1093.31
-1103.36
-1114.71
-1135.98
-1130.89
-1230.5
-1041.94
-925.699
-876.758
-813.488
-778.823
-735.596
-710.548
-673.378
-653.76
-640.055
-584.252
-584.216
-501.438
-434.103
-445.068
-403.243
-491.897
-462.609
-455.085
-376.822
-290.879
-312.283
-263.824
-390.808
-342.081
-380.339
-360.96
-223.557
-267.622
-129.657
-255.507
-190.453
-274.382
-344.837
-265.511
-332.005
-143.613
-223.384
-96.303
-144.695
-219.935
-164.55
-348.113
-238.066
-396.139
-250.357
-235.085
-227.017
-116.145
-305.053
-209.368
-411.542
-277.597
-367.781
-330.171
-227.219
-274.702
-184.361
-345.758
-326.55
-488.044
-398.708
-333.063
-341.823
-201.171
-347.959
-247.428
-422.969
-404.568
-414.962
-458.016
-311.344
-347.404
-173.103
-347.508
-242.255
-434.57
-293.631
-315.7
-254.998
-114.32
-253.356
-125.265
-372.674
-180.036
-394.878
-195.491
-320.026
-208.864
-131.643
-243.359
-145.856
-361.633
-171.381
-388.64
-124.77
-277.343
-67.96
-186.236
-159.705
-156.29
-336.793
-201.197
-407.78
-167.674
-375.898
-108.63
-228.287
-54.2679
-60.4825
-82.1868
18.8295
-151.61
-42.7624
-245.849
-51.8439
-218.285
21.8104
-95.1718
4.87947
-33.9597
-161.486
-75.2022
-225.125
-7.4209
-145.677
107.082
-117.04
17.231
-122.035
-86.5421
-17.8102
-62.196
136.58
4.04917
192.564
-16.4954
107.614
-97.8546
19.6494
-11.4726
49.0579
166.145
94.6906
222.022
47.9598
158.786
-39.1143
141.391
2.86831
186.997
155.917
187.592
202.816
76.188
153.236
32.515
205.656
126.022
325.954
186.416
328.513
141.392
166.6
77.3324
100.331
187.184
208.421
344.365
204.367
300.787
123.778
301.58
237.277
394.448
309.41
383.888
235.297
306.945
234.513
311.197
298.973
268.555
304.464
270.24
396.586
376.941
462.328
399.059
448.672
378.288
406.032
314.154
327.29
187.874
177.585
-52.836
-231.792
-87.4482
-135.588
-854.112
-967.765
-981.848
-985.683
-987.954
-990.153
-992.445
-994.67
-997.055
-999.133
-1000.96
-1002.76
-1004.33
-1005.86
-1007.27
-1008.61
-1009.94
-1011.18
-1012.41
-1013.57
-1014.75
-1015.89
-1017.02
-1018.12
-1019.22
-1020.3
-1021.37
-1022.43
-1023.46
-1024.51
-1025.53
-1026.56
-1027.56
-1028.57
-1029.56
-1030.55
-1031.54
-1032.51
-1033.49
-1034.45
-1035.42
-1036.37
-1037.32
-1038.27
-1039.21
-1040.15
-1041.08
-1042.01
-1042.93
-1043.85
-1044.77
-1045.68
-1046.59
-1047.5
-1048.4
-1049.3
-1050.2
-1051.1
-1052
-1052.89
-1053.79
-1054.68
-1055.58
-1056.47
-1057.37
-1058.27
-1059.18
-1060.09
-1061.02
-1061.94
-1062.89
-1063.84
-1064.83
-1065.81
-1066.85
-1067.88
-1069
-1070.11
-1071.33
-1072.54
-1073.91
-1075.28
-1076.87
-1078.45
-1080.34
-1082.24
-1084.56
-1086.92
-1089.93
-1092.99
-1096.99
-1101.17
-1106.73
-1112.81
-1120.78
-1130.84
-1142.08
-1163.42
-1158.17
-1253.17
-1068.64
-953.572
-904.085
-840.928
-806.116
-762.802
-737.696
-700.515
-680.794
-666.844
-611.09
-610.424
-529.612
-463.383
-473.829
-432.391
-517.885
-488.202
-480.836
-404.843
-320.46
-341.397
-293.325
-416.651
-368.815
-405.714
-386.685
-252.46
-295.878
-160.463
-283.336
-219.61
-301.034
-369.891
-291.9
-357.478
-172.872
-251.247
-127.096
-173.966
-247.571
-193.427
-373.234
-265.469
-420.023
-277.615
-263.052
-255.613
-147.17
-332.289
-237.802
-435.905
-305.45
-393.194
-356.228
-256.172
-303.447
-214.798
-373.479
-353.949
-511.165
-424.427
-360.555
-369.658
-231.645
-375.727
-277.442
-448.543
-430.739
-440.852
-482.786
-339.161
-375.27
-204.255
-375.06
-270.682
-458.64
-320.596
-341.786
-283.083
-145.216
-281.418
-154.81
-397.251
-208.39
-419.473
-223.636
-345.283
-236.97
-161.421
-271.105
-174.554
-386.193
-199.162
-412.579
-153.713
-303.936
-98.6808
-214.303
-188.806
-185.003
-361.782
-228.619
-431.649
-195.767
-400.171
-137.465
-254.373
-83.6384
-89.2846
-110.479
-11.2526
-178.428
-70.7282
-270.352
-79.5011
-243.126
-7.97897
-122.683
-25.0354
-62.8461
-187.277
-102.344
-249.534
-35.5562
-172.213
75.6711
-143.595
-11.3318
-147.306
-112.423
-44.5652
-88.4742
107.005
-23.3942
161.731
-43.5316
78.8847
-122.354
-7.09909
-37.3958
21.5567
136.614
66.6663
192.035
21.0557
130.745
-63.6541
113.795
-22.1546
158.054
127.563
158.534
173.766
50.1993
126.221
7.73003
178.079
99.1528
295.775
158.62
297.936
114.576
139.711
52.5114
75.0599
160.092
180.305
313.953
176.844
272.698
99.6531
274.231
210.201
364.795
280.826
354.72
209.223
279.764
208.525
283.11
270.746
241.562
277.944
244.28
368.243
348.794
433.168
370.883
420.001
349.936
377.294
285.49
298.134
158.402
147.351
-80.2147
-253.311
-114.282
-162.767
-885.879
-994.356
-1008.41
-1012.57
-1015.22
-1017.5
-1019.82
-1022.05
-1024.42
-1026.5
-1028.34
-1030.13
-1031.71
-1033.25
-1034.67
-1036.02
-1037.35
-1038.6
-1039.83
-1041
-1042.18
-1043.32
-1044.46
-1045.56
-1046.66
-1047.74
-1048.81
-1049.88
-1050.91
-1051.96
-1052.98
-1054.01
-1055.02
-1056.03
-1057.02
-1058.01
-1059
-1059.97
-1060.95
-1061.91
-1062.88
-1063.83
-1064.79
-1065.73
-1066.67
-1067.61
-1068.54
-1069.47
-1070.4
-1071.32
-1072.24
-1073.15
-1074.06
-1074.97
-1075.87
-1076.77
-1077.67
-1078.57
-1079.47
-1080.36
-1081.26
-1082.15
-1083.05
-1083.94
-1084.84
-1085.74
-1086.65
-1087.56
-1088.49
-1089.41
-1090.36
-1091.31
-1092.3
-1093.28
-1094.32
-1095.36
-1096.47
-1097.58
-1098.8
-1100.02
-1101.39
-1102.75
-1104.34
-1105.93
-1107.81
-1109.71
-1112.04
-1114.4
-1117.4
-1120.47
-1124.47
-1128.64
-1134.2
-1140.28
-1148.24
-1158.3
-1169.4
-1190.8
-1185.35
-1275.62
-1095.27
-981.558
-931.515
-868.28
-833.396
-789.995
-764.825
-727.613
-707.807
-693.477
-638.035
-636.622
-557.801
-492.725
-502.636
-461.551
-543.842
-513.841
-506.584
-432.866
-350.115
-370.503
-322.94
-442.477
-395.586
-431.07
-412.424
-281.427
-324.186
-191.359
-311.151
-248.858
-327.707
-394.92
-318.334
-382.663
-202.486
-279.099
-158.004
-203.3
-275.291
-222.374
-398.35
-292.905
-443.808
-304.951
-291.029
-284.264
-178.297
-359.451
-266.342
-460.204
-333.347
-418.585
-382.319
-285.211
-332.008
-245.517
-401.159
-381.359
-534.233
-450.183
-388.064
-397.398
-262.329
-403.432
-307.528
-474.07
-456.918
-466.741
-507.517
-367.019
-403.158
-235.591
-402.435
-299.23
-482.632
-347.655
-367.886
-311.175
-176.173
-309.476
-184.5
-421.856
-236.806
-443.933
-251.896
-370.494
-265.1
-191.263
-298.745
-203.377
-410.735
-227.05
-436.418
-182.788
-330.458
-129.522
-242.354
-217.919
-213.751
-386.741
-256.152
-455.462
-223.899
-424.285
-166.402
-280.408
-113.099
-118.127
-138.797
-41.4432
-205.135
-98.8776
-294.811
-107.244
-267.896
-37.8815
-150.155
-55.0067
-91.7441
-213.049
-129.479
-273.895
-63.7822
-198.705
44.1504
-170.057
-39.9855
-172.528
-138.299
-71.3697
-114.578
77.1815
-50.8951
130.846
-70.4954
50.0712
-146.773
-33.887
-63.303
-5.92242
107.028
38.6001
161.835
-5.67635
102.624
-88.1441
86.0971
-47.1144
129.047
99.2105
129.469
144.689
24.2029
99.1875
-17.0229
150.414
72.3355
265.51
130.862
267.27
87.8233
112.812
27.7153
49.8056
133.006
152.187
283.439
149.366
244.603
75.5551
246.779
183.164
335.092
252.399
325.329
183.176
252.516
182.54
255.008
242.584
214.619
251.323
218.374
339.83
320.657
403.903
342.893
391.01
321.798
348.231
256.977
268.632
129.097
116.877
-107.358
-274.78
-141.124
-189.953
-917.76
-1020.45
-1035.17
-1039.67
-1042.43
-1044.86
-1047.21
-1049.45
-1051.82
-1053.91
-1055.73
-1057.53
-1059.11
-1060.65
-1062.08
-1063.43
-1064.76
-1066.02
-1067.25
-1068.43
-1069.61
-1070.75
-1071.89
-1073
-1074.1
-1075.18
-1076.25
-1077.32
-1078.36
-1079.41
-1080.43
-1081.46
-1082.47
-1083.48
-1084.47
-1085.47
-1086.45
-1087.43
-1088.41
-1089.37
-1090.34
-1091.29
-1092.25
-1093.2
-1094.14
-1095.08
-1096
-1096.94
-1097.86
-1098.78
-1099.7
-1100.61
-1101.53
-1102.43
-1103.34
-1104.24
-1105.14
-1106.04
-1106.94
-1107.83
-1108.73
-1109.62
-1110.52
-1111.41
-1112.31
-1113.22
-1114.13
-1115.03
-1115.96
-1116.89
-1117.84
-1118.78
-1119.77
-1120.76
-1121.79
-1122.83
-1123.94
-1125.05
-1126.27
-1127.49
-1128.86
-1130.23
-1131.81
-1133.4
-1135.28
-1137.19
-1139.51
-1141.86
-1144.87
-1147.94
-1151.94
-1156.11
-1161.67
-1167.74
-1175.68
-1185.75
-1196.67
-1218.1
-1212.46
-1297.93
-1121.9
-1009.63
-958.975
-895.673
-860.666
-817.177
-791.911
-754.698
-734.811
-720.056
-665.008
-662.816
-586.004
-522.119
-531.461
-490.743
-569.791
-539.524
-532.336
-460.89
-379.835
-399.645
-352.6
-468.306
-422.386
-456.423
-438.179
-310.469
-352.497
-222.358
-338.99
-278.18
-354.41
-419.936
-344.813
-407.839
-232.174
-306.96
-189.006
-232.712
-303.058
-251.407
-423.444
-320.368
-467.54
-332.345
-319.028
-312.933
-209.51
-386.562
-294.983
-484.46
-361.267
-443.964
-408.441
-314.317
-360.532
-276.365
-428.791
-408.79
-557.283
-475.967
-415.591
-425.141
-293.096
-431.1
-337.66
-499.583
-483.107
-492.629
-532.227
-394.908
-431.038
-266.963
-429.781
-327.873
-506.585
-374.783
-394.01
-339.273
-207.201
-337.556
-214.267
-446.444
-265.314
-468.295
-280.237
-395.682
-293.245
-221.159
-326.368
-232.244
-435.265
-254.997
-460.177
-211.958
-356.938
-160.449
-270.416
-247.052
-242.546
-411.684
-283.721
-479.207
-252.104
-448.277
-195.408
-306.418
-142.628
-147.011
-167.132
-71.7175
-231.875
-127.09
-319.217
-135.069
-292.61
-67.8643
-177.611
-85.0187
-120.656
-238.798
-156.654
-298.226
-92.0646
-225.16
12.5592
-196.46
-68.7037
-197.729
-164.173
-98.2192
-140.682
47.2854
-78.3755
99.8806
-97.4182
21.1902
-171.145
-60.7001
-89.2033
-33.3886
77.3955
10.5155
131.568
-32.4396
74.4481
-112.573
58.3198
-72.0356
99.9997
70.8527
100.396
115.59
-1.78408
72.1223
-41.7593
122.724
45.5066
235.158
103.121
236.539
61.1067
85.9076
2.93377
24.5637
105.917
124.088
252.905
121.913
216.443
51.4661
219.254
156.154
305.342
223.95
295.919
157.148
225.216
156.551
226.9
214.475
187.715
224.658
192.45
311.369
292.52
374.545
314.902
361.883
293.743
318.926
228.668
238.813
99.8219
86.2751
-134.339
-296.235
-167.974
-217.113
-949.388
-1046.87
-1061.83
-1066.78
-1069.74
-1072.18
-1074.6
-1076.86
-1079.23
-1081.32
-1083.14
-1084.95
-1086.52
-1088.05
-1089.49
-1090.84
-1092.18
-1093.44
-1094.68
-1095.85
-1097.04
-1098.18
-1099.33
-1100.44
-1101.54
-1102.62
-1103.7
-1104.77
-1105.81
-1106.86
-1107.88
-1108.91
-1109.92
-1110.93
-1111.93
-1112.92
-1113.91
-1114.89
-1115.87
-1116.83
-1117.8
-1118.75
-1119.71
-1120.66
-1121.6
-1122.54
-1123.47
-1124.4
-1125.32
-1126.25
-1127.17
-1128.08
-1128.99
-1129.9
-1130.81
-1131.71
-1132.61
-1133.51
-1134.4
-1135.3
-1136.2
-1137.09
-1137.99
-1138.88
-1139.78
-1140.68
-1141.6
-1142.51
-1143.43
-1144.36
-1145.31
-1146.26
-1147.24
-1148.23
-1149.26
-1150.3
-1151.42
-1152.52
-1153.74
-1154.96
-1156.33
-1157.7
-1159.28
-1160.87
-1162.75
-1164.66
-1166.99
-1169.33
-1172.34
-1175.41
-1179.4
-1183.57
-1189.12
-1195.19
-1203.1
-1213.17
-1223.9
-1245.34
-1239.49
-1320.17
-1148.51
-1037.74
-986.475
-923.115
-887.939
-844.343
-818.953
-781.774
-761.815
-746.616
-691.988
-689.018
-614.217
-551.551
-560.293
-519.96
-595.744
-565.258
-558.105
-488.917
-409.605
-428.806
-382.304
-494.152
-449.209
-481.785
-463.955
-339.565
-380.811
-253.446
-366.865
-307.56
-381.147
-444.944
-371.341
-433.025
-261.921
-334.846
-220.081
-262.2
-330.872
-280.515
-448.508
-347.868
-491.244
-359.78
-347.052
-341.617
-240.789
-413.653
-323.695
-508.705
-389.196
-469.347
-434.598
-343.474
-389.073
-307.249
-456.383
-436.237
-580.344
-501.771
-443.134
-452.871
-323.926
-458.757
-367.821
-525.1
-509.302
-518.517
-556.931
-422.839
-458.89
-298.366
-457.099
-356.588
-530.526
-401.962
-420.166
-367.379
-238.282
-365.62
-244.127
-471.008
-293.902
-492.586
-308.632
-420.868
-321.401
-251.093
-353.959
-261.152
-459.758
-283.018
-483.893
-241.2
-383.393
-191.435
-298.5
-276.2
-271.384
-436.606
-311.324
-502.873
-280.365
-472.182
-224.459
-332.418
-172.207
-175.938
-195.492
-102.06
-258.617
-155.371
-343.586
-162.965
-317.293
-97.9005
-205.067
-115.053
-149.579
-264.54
-183.866
-322.525
-120.427
-251.566
-19.0672
-222.823
-97.4632
-222.923
-190.048
-125.109
-166.777
17.3274
-105.836
68.8483
-124.318
-7.74103
-195.494
-87.5301
-115.106
-60.8454
47.7234
-17.5773
101.241
-59.2037
46.2075
-136.962
30.4897
-96.9358
70.9275
42.4865
71.3171
86.4753
-27.7654
45.0209
-66.4732
94.9801
18.6996
204.738
75.3813
205.767
34.4111
59.0014
-21.8431
-0.671693
78.8257
96.008
222.358
94.4988
188.226
27.3721
191.672
129.164
275.554
195.496
266.495
131.119
197.874
130.553
198.796
186.414
160.84
197.941
166.52
282.872
264.374
345.116
286.853
332.695
265.609
289.562
200.414
208.77
70.6327
55.5848
-161.186
-317.731
-194.818
-244.261
-980.841
-1073.38
-1088.58
-1093.83
-1097.07
-1099.58
-1101.98
-1104.27
-1106.66
-1108.73
-1110.56
-1112.37
-1113.94
-1115.49
-1116.92
-1118.26
-1119.6
-1120.86
-1122.1
-1123.28
-1124.47
-1125.62
-1126.76
-1127.87
-1128.98
-1130.06
-1131.14
-1132.21
-1133.25
-1134.3
-1135.33
-1136.36
-1137.37
-1138.38
-1139.38
-1140.38
-1141.36
-1142.34
-1143.33
-1144.29
-1145.26
-1146.21
-1147.17
-1148.12
-1149.06
-1150
-1150.93
-1151.87
-1152.79
-1153.71
-1154.63
-1155.54
-1156.46
-1157.36
-1158.27
-1159.17
-1160.08
-1160.97
-1161.87
-1162.77
-1163.66
-1164.56
-1165.46
-1166.35
-1167.25
-1168.15
-1169.07
-1169.97
-1170.9
-1171.83
-1172.78
-1173.73
-1174.71
-1175.7
-1176.74
-1177.77
-1178.89
-1179.99
-1181.22
-1182.43
-1183.8
-1185.17
-1186.75
-1188.34
-1190.22
-1192.13
-1194.46
-1196.8
-1199.8
-1202.87
-1206.86
-1211.03
-1216.57
-1222.63
-1230.51
-1240.57
-1251.08
-1272.52
-1266.46
-1342.38
-1175.08
-1065.86
-1014
-950.602
-915.239
-871.516
-846.012
-808.774
-788.835
-773.152
-718.995
-715.241
-642.441
-581.012
-589.128
-549.193
-621.714
-591.048
-583.902
-516.95
-439.414
-457.98
-412.045
-520.028
-476.055
-507.171
-489.76
-368.71
-409.14
-284.602
-394.782
-336.985
-407.923
-469.96
-397.918
-458.227
-291.72
-362.763
-251.213
-291.758
-358.742
-309.683
-473.566
-375.397
-514.943
-387.248
-375.1
-370.321
-272.116
-440.738
-352.466
-532.961
-417.123
-494.745
-460.794
-372.669
-417.625
-338.16
-483.948
-463.699
-603.439
-527.597
-470.689
-480.596
-354.806
-486.415
-397.995
-550.637
-535.506
-544.407
-581.644
-450.808
-486.726
-329.788
-484.398
-385.36
-554.48
-429.186
-446.363
-395.495
-269.399
-393.674
-274.063
-495.574
-322.549
-516.828
-337.065
-446.068
-349.565
-281.049
-381.526
-290.098
-484.232
-311.101
-507.588
-270.494
-409.837
-222.462
-326.612
-305.362
-300.255
-461.523
-338.953
-526.485
-308.658
-496.023
-253.537
-358.423
-201.825
-204.906
-223.879
-132.455
-285.361
-183.715
-367.938
-190.918
-341.962
-127.972
-232.531
-145.095
-178.508
-290.29
-211.108
-346.813
-148.853
-277.94
-50.7067
-249.165
-126.249
-248.125
-215.929
-152.036
-192.867
-12.6823
-133.292
37.772
-151.205
-36.7078
-219.841
-114.375
-141.02
-88.2965
18.0217
-45.6843
70.8678
-85.9679
17.9147
-161.333
2.61918
-121.832
41.8404
14.111
42.2368
57.3506
-53.7537
17.8909
-91.182
67.1879
-8.0929
174.271
47.6363
174.973
7.72507
32.0928
-46.6264
-25.9096
51.7309
67.9436
191.809
67.1124
159.969
3.254
164.041
102.186
245.741
167.05
237.05
105.074
170.494
104.538
170.699
158.397
133.986
171.175
140.576
254.347
236.219
315.626
258.762
303.438
237.42
260.126
172.098
178.662
41.5524
24.7731
-187.934
-339.291
-221.665
-271.412
-1012.12
-1099.99
-1115.37
-1120.94
-1124.33
-1126.97
-1129.39
-1131.71
-1134.07
-1136.15
-1138
-1139.79
-1141.37
-1142.92
-1144.35
-1145.7
-1147.04
-1148.29
-1149.54
-1150.72
-1151.9
-1153.05
-1154.2
-1155.31
-1156.42
-1157.51
-1158.58
-1159.65
-1160.7
-1161.75
-1162.77
-1163.81
-1164.82
-1165.84
-1166.83
-1167.83
-1168.82
-1169.8
-1170.78
-1171.75
-1172.72
-1173.67
-1174.63
-1175.58
-1176.52
-1177.46
-1178.39
-1179.33
-1180.25
-1181.18
-1182.09
-1183.01
-1183.92
-1184.83
-1185.74
-1186.64
-1187.54
-1188.44
-1189.34
-1190.24
-1191.13
-1192.03
-1192.92
-1193.82
-1194.72
-1195.62
-1196.53
-1197.44
-1198.37
-1199.3
-1200.25
-1201.2
-1202.18
-1203.17
-1204.21
-1205.24
-1206.36
-1207.47
-1208.69
-1209.9
-1211.27
-1212.64
-1214.22
-1215.81
-1217.69
-1219.59
-1221.92
-1224.27
-1227.26
-1230.33
-1234.31
-1238.48
-1244.01
-1250.06
-1257.91
-1267.95
-1278.22
-1299.64
-1293.36
-1364.57
-1201.64
-1093.98
-1041.54
-978.126
-942.572
-898.722
-873.097
-835.706
-815.873
-799.671
-746.035
-741.495
-670.674
-610.494
-617.961
-578.435
-647.71
-616.905
-609.742
-544.991
-469.253
-487.163
-441.814
-545.945
-502.931
-532.594
-515.608
-397.902
-437.489
-315.807
-422.744
-366.444
-434.741
-494.997
-424.549
-483.459
-321.561
-390.718
-282.385
-321.381
-386.666
-338.898
-498.63
-402.954
-538.663
-414.749
-403.176
-399.042
-303.471
-467.827
-381.291
-557.245
-445.045
-520.167
-487.032
-401.899
-446.192
-369.087
-511.49
-491.173
-626.584
-553.445
-498.258
-508.321
-385.719
-514.078
-428.171
-576.206
-561.721
-570.308
-606.376
-478.808
-514.55
-361.214
-511.689
-414.18
-578.466
-456.451
-472.608
-423.62
-300.534
-421.722
-304.059
-520.161
-351.244
-541.044
-365.524
-471.294
-377.73
-311.013
-409.076
-319.079
-508.709
-339.235
-531.279
-299.827
-436.278
-253.512
-354.756
-334.533
-329.153
-486.446
-366.606
-550.067
-336.964
-519.821
-282.626
-384.444
-231.469
-233.909
-252.294
-162.891
-312.119
-212.109
-392.288
-218.921
-366.635
-158.067
-260.011
-175.132
-207.435
-316.056
-238.379
-371.105
-177.328
-304.292
-82.3373
-275.496
-155.051
-273.344
-241.821
-178.993
-218.961
-42.7289
-160.746
6.66708
-178.086
-65.6995
-244.198
-141.232
-166.956
-115.746
-11.7009
-73.8068
40.463
-112.74
-10.4211
-185.702
-25.2855
-146.741
12.7452
-14.2722
13.1608
28.2226
-79.7573
-9.26707
-115.9
39.356
-34.8791
143.771
19.8809
144.17
-18.9599
5.18078
-71.4266
-51.1595
24.6292
39.8941
161.268
39.7454
131.677
-20.905
136.367
75.2114
215.909
138.608
207.595
79.0055
143.078
78.496
142.608
130.419
107.149
144.362
114.608
225.798
208.052
286.083
230.626
274.118
209.176
230.616
143.727
148.492
12.6005
-6.15505
-214.609
-360.933
-248.52
-298.568
-1043.24
-1126.69
-1142.21
-1148.05
-1151.63
-1154.33
-1156.79
-1159.15
-1161.52
-1163.57
-1165.42
-1167.23
-1168.81
-1170.35
-1171.79
-1173.15
-1174.48
-1175.74
-1176.99
-1178.16
-1179.34
-1180.5
-1181.64
-1182.75
-1183.86
-1184.95
-1186.03
-1187.1
-1188.14
-1189.2
-1190.22
-1191.26
-1192.27
-1193.29
-1194.29
-1195.28
-1196.27
-1197.25
-1198.24
-1199.2
-1200.17
-1201.13
-1202.09
-1203.04
-1203.98
-1204.92
-1205.85
-1206.79
-1207.71
-1208.64
-1209.56
-1210.47
-1211.39
-1212.29
-1213.2
-1214.11
-1215.01
-1215.91
-1216.81
-1217.7
-1218.6
-1219.49
-1220.39
-1221.29
-1222.19
-1223.09
-1224
-1224.91
-1225.84
-1226.76
-1227.72
-1228.67
-1229.65
-1230.64
-1231.67
-1232.71
-1233.83
-1234.93
-1236.15
-1237.37
-1238.74
-1240.11
-1241.69
-1243.28
-1245.16
-1247.06
-1249.39
-1251.73
-1254.72
-1257.78
-1261.76
-1265.93
-1271.44
-1277.48
-1285.29
-1295.32
-1305.32
-1326.7
-1320.2
-1386.78
-1228.17
-1122.1
-1069.09
-1005.68
-969.929
-925.959
-900.191
-862.671
-842.877
-826.183
-773.108
-767.787
-698.913
-639.987
-646.789
-607.677
-673.733
-642.829
-635.63
-573.037
-499.109
-516.347
-471.599
-571.903
-529.835
-558.062
-541.5
-427.128
-465.846
-347.041
-450.746
-395.924
-461.599
-520.063
-451.228
-508.726
-351.432
-418.708
-313.583
-351.059
-414.639
-368.147
-523.708
-430.53
-562.413
-442.275
-431.276
-427.774
-334.835
-494.92
-410.158
-581.567
-472.954
-545.616
-513.311
-431.153
-474.771
-400.015
-539.009
-518.654
-649.79
-579.315
-525.837
-536.047
-416.65
-541.747
-458.334
-601.81
-587.948
-596.218
-631.132
-506.83
-542.361
-392.628
-538.975
-443.034
-602.496
-483.747
-498.903
-451.75
-331.673
-449.763
-334.097
-544.778
-379.972
-565.252
-393.997
-496.548
-405.891
-340.971
-436.606
-348.084
-533.2
-367.405
-554.981
-329.186
-462.719
-284.567
-382.931
-363.706
-358.066
-511.382
-394.273
-573.631
-365.269
-543.59
-311.716
-410.491
-261.13
-262.941
-280.736
-193.355
-338.891
-240.544
-416.644
-246.961
-391.318
-188.174
-287.514
-205.154
-236.358
-341.842
-265.678
-395.412
-205.845
-330.627
-113.943
-301.828
-183.863
-298.589
-267.726
-205.979
-245.065
-72.8012
-188.206
-24.4543
-204.967
-94.7082
-268.577
-168.101
-192.918
-143.198
-41.438
-101.943
10.0418
-139.521
-38.788
-210.078
-53.2118
-171.669
-16.3476
-42.6593
-15.9056
-0.901367
-105.778
-36.4497
-140.637
11.4888
-61.6638
113.253
-7.88605
113.372
-45.6441
-21.7298
-96.2462
-76.4237
-2.47643
11.8646
130.75
12.3967
103.363
-45.1095
108.659
48.2398
186.07
110.172
178.139
52.9132
115.633
52.4275
114.528
102.48
80.3273
117.511
88.6124
197.232
179.876
256.498
202.448
244.749
180.879
201.042
115.309
118.258
-16.2338
-37.1522
-241.224
-382.667
-275.379
-325.722
-1074.22
-1153.49
-1169.09
-1175.18
-1178.92
-1181.7
-1184.21
-1186.57
-1188.96
-1191.01
-1192.87
-1194.66
-1196.24
-1197.8
-1199.23
-1200.59
-1201.93
-1203.19
-1204.43
-1205.61
-1206.8
-1207.95
-1209.09
-1210.2
-1211.31
-1212.4
-1213.47
-1214.55
-1215.59
-1216.65
-1217.67
-1218.71
-1219.72
-1220.74
-1221.74
-1222.74
-1223.73
-1224.71
-1225.69
-1226.66
-1227.63
-1228.59
-1229.55
-1230.5
-1231.44
-1232.38
-1233.32
-1234.25
-1235.18
-1236.1