/*--------------------------------*- C++ -*----------------------------------*\
| =========                 |                                                 |
| \\      /  F ield         | foam-extend: Open Source CFD                    |
|  \\    /   O peration     | Version:     3.2                                |
|   \\  /    A nd           | Web:         http://www.foam-extend.org         |
|    \\/     M anipulation  | For copyright notice see file Copyright         |
\*---------------------------------------------------------------------------*/
FoamFile
{
    version     2.0;
    format      ascii;
    class       areaScalarField;
    location    "160";
    object      Pa;
}
// * * * * * * * * * * * * * * * * * * * * * * * * * * * * * * * * * * * * * //

dimensions      [0 0 0 0 0 0 0];

internalField   nonuniform List<scalar> 
300
(
0.5
0.5
0.5
0.5
0.5
0.5
0.5
0.5
0.5
0.5
0.5
0.5
0.5
0.5
0.5
0.5
0.5
0.5
0.5
0.5
0.5
0.5
0.5
0.5
0.5
0.5
0.5
0.5
0.5
0.5
0.5
0.5
0.5
0.5
0.5
0.5
0.5
0.5
0.5
0.5
0.5
0.5
0.5
0.5
0.5
0.5
0.5
0.5
0.5
0.5
0.5
0.5
0.5
0.5
0.5
0.5
0.5
0.5
0.5
0.5
0.5
0.5
0.5
0.5
0.5
0.5
0.5
0.5
0.5
0.5
0.5
0.5
0.5
0.5
0.5
0.5
0.5
0.5
0.5
0.5
0.5
0.5
0.5
0.5
0.5
0.5
0.5
0.5
0.5
0.5
0.5
0.5
0.5
0.5
0.5
0.5
0.5
0.5
0.5
0.5
0.549581
0.570438
0.600315
0.620148
0.645723
0.663713
0.684167
0.702847
0.7152
0.736682
0.738068
0.750877
0.749387
0.761401
0.758551
0.773688
0.769384
0.771812
0.769697
0.779382
0.781369
0.773688
0.782749
0.780318
0.771007
0.788218
0.780952
0.791721
0.766099
0.791181
0.779712
0.759996
0.797538
0.766245
0.785943
0.772169
0.786181
0.780117
0.758802
0.80082
0.759042
0.789102
0.762979
0.765055
0.782787
0.745689
0.804507
0.75434
0.799234
0.763542
0.778249
0.786528
0.754562
0.814691
0.74685
0.802298
0.78289
0.802387
0.805449
0.794953
0.823386
0.782734
0.827211
0.801848
0.819987
0.822381
0.809206
0.827202
0.804203
0.829974
0.812504
0.83308
0.809006
0.819386
0.807705
0.801293
0.805583
0.791966
0.804769
0.791127
0.80848
0.765174
0.810701
0.763318
0.783992
0.77638
0.743021
0.806685
0.732991
0.819289
0.74957
0.802817
0.780327
0.779581
0.79194
0.764395
0.804075
0.758616
0.815414
0.774897
0.821548
0.764369
0.817969
0.757021
0.794386
0.768112
0.750031
0.790327
0.72784
0.808006
0.740161
0.814105
0.748794
0.781185
0.770665
0.756497
0.777225
0.747548
0.794693
0.741909
0.805464
0.765125
0.817186
0.749144
0.809398
0.755975
0.76169
0.772652
0.73167
0.789898
0.724924
0.801331
0.74504
0.786124
0.761516
0.777195
0.77019
0.75488
0.784789
0.751036
0.793938
0.754616
0.81868
0.75084
0.791706
0.756068
0.774164
0.761416
0.748499
0.782603
0.734017
0.795331
0.761153
0.810482
0.752571
0.802658
0.76147
0.779354
0.760472
0.757722
0.774592
0.740976
0.790341
0.743238
0.801976
0.763217
0.815279
0.757182
0.80633
0.764474
0.77756
0.767938
0.749496
0.779843
0.736092
0.790466
0.741269
0.796045
0.752049
0.812531
0.771068
0.813614
0.775527
0.806071
0.772722
0.773929
0.771469
0.689519
0.741669
0.675444
0.702687
0.650326
0.653734
0.612625
0.592217
0.559648
0.5
0.5
0.5
0.5
)
;

boundaryField
{
    inlet
    {
        type            calculated;
        value           uniform 0;
    }
    outlet
    {
        type            calculated;
        value           uniform 0;
    }
    sideWall
    {
        type            empty;
    }
}


// ************************************************************************* //
