/*--------------------------------*- C++ -*----------------------------------*\
| =========                 |                                                 |
| \\      /  F ield         | foam-extend: Open Source CFD                    |
|  \\    /   O peration     | Version:     3.2                                |
|   \\  /    A nd           | Web:         http://www.foam-extend.org         |
|    \\/     M anipulation  | For copyright notice see file Copyright         |
\*---------------------------------------------------------------------------*/
FoamFile
{
    version     2.0;
    format      ascii;
    class       areaScalarField;
    location    "160";
    object      Pc;
}
// * * * * * * * * * * * * * * * * * * * * * * * * * * * * * * * * * * * * * //

dimensions      [0 0 0 0 0 0 0];

internalField   nonuniform List<scalar> 
300
(
0.5
0.5
0.5
0.5
0.5
0.5
0.5
0.5
0.5
0.5
0.5
0.5
0.5
0.5
0.5
0.5
0.5
0.5
0.5
0.5
0.5
0.5
0.5
0.5
0.5
0.5
0.5
0.5
0.5
0.5
0.5
0.5
0.5
0.5
0.5
0.5
0.5
0.5
0.5
0.5
0.5
0.5
0.5
0.5
0.5
0.5
0.5
0.5
0.5
0.5
0.5
0.5
0.5
0.5
0.5
0.5
0.5
0.5
0.5
0.5
0.5
0.5
0.5
0.5
0.5
0.5
0.5
0.5
0.5
0.5
0.5
0.5
0.5
0.5
0.5
0.5
0.5
0.5
0.5
0.5
0.5
0.5
0.5
0.5
0.5
0.5
0.5
0.5
0.5
0.5
0.5
0.5
0.5
0.5
0.5
0.5
0.5
0.5
0.5
0.5
0.450419
0.429562
0.399685
0.379852
0.354277
0.336287
0.315833
0.297153
0.2848
0.263318
0.261932
0.249123
0.250613
0.238599
0.241449
0.226312
0.230616
0.228188
0.230303
0.220618
0.218631
0.226312
0.217251
0.219682
0.228993
0.211782
0.219048
0.208279
0.233901
0.208819
0.220288
0.240004
0.202462
0.233755
0.214057
0.227831
0.213819
0.219883
0.241198
0.19918
0.240958
0.210898
0.237021
0.234945
0.217213
0.254311
0.195493
0.24566
0.200766
0.236458
0.221751
0.213472
0.245438
0.185309
0.25315
0.197702
0.21711
0.197613
0.194551
0.205047
0.176614
0.217266
0.172789
0.198152
0.180013
0.177619
0.190794
0.172798
0.195797
0.170026
0.187496
0.16692
0.190994
0.180614
0.192295
0.198707
0.194417
0.208034
0.195231
0.208873
0.19152
0.234826
0.189299
0.236682
0.216008
0.22362
0.256979
0.193315
0.267009
0.180711
0.25043
0.197183
0.219673
0.220419
0.20806
0.235605
0.195925
0.241384
0.184586
0.225103
0.178452
0.235631
0.182031
0.242979
0.205614
0.231888
0.249969
0.209673
0.27216
0.191994
0.259839
0.185895
0.251206
0.218815
0.229335
0.243503
0.222775
0.252452
0.205307
0.258091
0.194536
0.234875
0.182814
0.250856
0.190602
0.244025
0.23831
0.227348
0.26833
0.210102
0.275076
0.198669
0.25496
0.213876
0.238484
0.222805
0.22981
0.24512
0.215211
0.248964
0.206062
0.245384
0.18132
0.24916
0.208294
0.243932
0.225836
0.238584
0.251501
0.217397
0.265983
0.204669
0.238847
0.189518
0.247429
0.197342
0.23853
0.220646
0.239528
0.242278
0.225408
0.259024
0.209659
0.256762
0.198024
0.236783
0.184721
0.242818
0.19367
0.235526
0.22244
0.232062
0.250504
0.220157
0.263908
0.209534
0.258731
0.203955
0.247951
0.187469
0.228932
0.186386
0.224473
0.193929
0.227278
0.226071
0.228531
0.310481
0.258331
0.324556
0.297313
0.349674
0.346266
0.387375
0.407783
0.440352
0.5
0.5
0.5
0.5
)
;

boundaryField
{
    inlet
    {
        type            calculated;
        value           uniform 0;
    }
    outlet
    {
        type            calculated;
        value           uniform 0;
    }
    sideWall
    {
        type            empty;
    }
}


// ************************************************************************* //
