/*--------------------------------*- C++ -*----------------------------------*\
| =========                 |                                                 |
| \\      /  F ield         | foam-extend: Open Source CFD                    |
|  \\    /   O peration     | Version:     3.2                                |
|   \\  /    A nd           | Web:         http://www.foam-extend.org         |
|    \\/     M anipulation  | For copyright notice see file Copyright         |
\*---------------------------------------------------------------------------*/
FoamFile
{
    version     2.0;
    format      ascii;
    class       volScalarField;
    location    "160";
    object      pd;
}
// * * * * * * * * * * * * * * * * * * * * * * * * * * * * * * * * * * * * * //

dimensions      [1 -1 -2 0 0 0 0];

internalField   nonuniform List<scalar> 
96000
(
-711.478
-849.331
-862.945
-864.231
-865.535
-867.379
-869.492
-871.605
-873.909
-875.918
-877.683
-879.433
-880.973
-882.466
-883.851
-885.166
-886.477
-887.706
-888.919
-890.07
-891.231
-892.363
-893.489
-894.581
-895.668
-896.742
-897.803
-898.862
-899.891
-900.931
-901.945
-902.97
-903.972
-904.978
-905.966
-906.956
-907.938
-908.911
-909.887
-910.844
-911.809
-912.758
-913.71
-914.655
-915.592
-916.53
-917.456
-918.388
-919.307
-920.23
-921.144
-922.055
-922.965
-923.87
-924.775
-925.675
-926.574
-927.471
-928.366
-929.261
-930.155
-931.048
-931.944
-932.837
-933.737
-934.636
-935.546
-936.454
-937.38
-938.302
-939.252
-940.2
-941.184
-942.169
-943.205
-944.241
-945.353
-946.461
-947.68
-948.895
-950.265
-951.63
-953.215
-954.799
-956.68
-958.582
-960.903
-963.26
-966.263
-969.324
-973.321
-977.484
-983.051
-989.108
-997.096
-1007.11
-1018.57
-1039.59
-1036.47
-1168.9
-1026.73
-961.053
-951.75
-921.96
-917.008
-899.293
-896.803
-878.962
-876.666
-880.741
-837.853
-848.255
-772.454
-712.241
-735.317
-703.976
-809.307
-789.131
-785.118
-708.892
-626.576
-655.014
-611.542
-752.275
-707.546
-747.102
-729.419
-584.323
-628.386
-488.534
-623.2
-563.861
-653.106
-727.767
-644.073
-707.62
-506.177
-584.607
-453.132
-502.071
-586.149
-531.236
-718.697
-602.524
-764.34
-610.807
-584.334
-571.637
-450.127
-639.793
-541.588
-750.219
-609.135
-698.981
-658.015
-540.038
-577.672
-475.984
-633.623
-610.849
-781.077
-687.987
-610.303
-611.652
-460.03
-605.61
-498.912
-682.971
-664.572
-669.033
-710.27
-555.692
-589.754
-412.72
-595.031
-493.448
-699.168
-557.397
-580.649
-521.638
-378.533
-525.694
-401.849
-660.382
-466.545
-689.557
-486.09
-613.989
-502.681
-419.671
-531.701
-430.608
-651.828
-453.973
-667.833
-388.031
-536.721
-314.321
-431.062
-404.296
-401.398
-591.246
-453.877
-666.96
-424.111
-638.483
-365.765
-490.098
-310.715
-314.373
-340.828
-239.478
-417.415
-309.754
-517.627
-319.53
-488.704
-234.833
-350.394
-245.118
-278.725
-410.698
-321.746
-475.967
-255.133
-394.702
-135.423
-373.087
-242.068
-390.202
-360.72
-290.937
-335.035
-127.187
-259.456
-65.3008
-277.298
-147.236
-357.47
-233.792
-262.034
-200.347
-81.5085
-159.465
-34.1817
-215.951
-108.043
-312.573
-127.133
-266.732
-72.7124
-100.644
-68.4236
-51.9754
-186.406
-110.731
-235.216
-61.2387
-140.321
63.2486
-79.5064
69.9155
-121.751
-96.082
-185.148
-158.44
-65.6436
-43.8858
94.7315
-52.9116
38.5926
-147.396
35.03
-26.9161
136.783
53.2003
131.299
-21.1811
55.4249
-11.6218
76.9856
71.236
36.4423
70.4764
37.2056
168.044
147.638
239.207
185.413
249.518
196.226
246.093
180.715
227.666
131.572
184.664
13.0523
-147.464
7.20395
-40.2244
-714.47
-848.139
-862.208
-863.902
-865.34
-867.222
-869.378
-871.514
-873.836
-875.86
-877.634
-879.39
-880.935
-882.432
-883.821
-885.139
-886.452
-887.684
-888.897
-890.048
-891.211
-892.344
-893.471
-894.564
-895.652
-896.727
-897.789
-898.849
-899.879
-900.92
-901.934
-902.96
-903.962
-904.968
-905.957
-906.947
-907.929
-908.903
-909.88
-910.837
-911.802
-912.751
-913.703
-914.648
-915.586
-916.524
-917.451
-918.383
-919.302
-920.225
-921.139
-922.05
-922.96
-923.865
-924.77
-925.67
-926.57
-927.467
-928.362
-929.258
-930.152
-931.044
-931.94
-932.834
-933.734
-934.633
-935.543
-936.451
-937.377
-938.299
-939.249
-940.197
-941.182
-942.167
-943.203
-944.238
-945.351
-946.459
-947.679
-948.894
-950.264
-951.629
-953.214
-954.799
-956.68
-958.583
-960.904
-963.262
-966.266
-969.328
-973.326
-977.492
-983.06
-989.122
-997.112
-1007.13
-1018.6
-1039.67
-1035.45
-1166.64
-1026.57
-961.282
-951.755
-921.836
-916.83
-899.056
-896.52
-878.683
-876.278
-880.357
-837.123
-847.347
-773.342
-713.691
-736.641
-704.779
-807.954
-787.085
-783.826
-709.863
-628.31
-656.704
-612.504
-750.917
-706.236
-745.319
-728.571
-585.145
-630.152
-490.417
-623.994
-564.779
-652.003
-725.91
-642.389
-706.683
-507.46
-585.852
-455.633
-503.236
-586.731
-531.187
-717.483
-601.529
-761.755
-610.315
-585.036
-573.633
-452.044
-640.513
-540.761
-748.048
-608.923
-697.496
-657.232
-540.945
-579.467
-477.92
-634.354
-610.029
-777.58
-686.412
-610.15
-612.983
-461.72
-606.607
-500.56
-681.315
-662.955
-667.372
-708.79
-555.539
-591.274
-415.089
-595.948
-493.137
-696.432
-556.521
-579.838
-523.006
-380.608
-527.122
-402.178
-658.934
-465.571
-688.162
-486.145
-612.682
-503.682
-421.218
-532.583
-430.38
-650.286
-452.663
-666.454
-388.419
-536.788
-316.711
-431.921
-405.688
-401.55
-589.994
-452.601
-665.506
-423.194
-637.128
-366.376
-489.445
-312.196
-315.549
-342.157
-240.672
-417.467
-308.914
-516.144
-318.407
-487.434
-236.487
-351.103
-246.933
-279.415
-409.773
-320.377
-474.596
-254.732
-395.543
-137.95
-372.765
-242.193
-388.301
-359.495
-289.888
-334.843
-128.283
-260.655
-66.8008
-277.665
-147.345
-354.983
-232.817
-261.033
-201.082
-82.8995
-160.742
-35.4004
-216.024
-107.297
-311.085
-126.26
-265.104
-73.9755
-101.929
-69.9169
-52.6924
-185.589
-109.378
-233.735
-60.6774
-140.938
61.7602
-80.4494
67.8877
-121.318
-95.1392
-182.808
-156.692
-65.3731
-45.2212
92.8284
-53.6433
39.3122
-144.963
35.4662
-27.1186
135.108
51.914
130.547
-20.081
56.2851
-10.4395
76.3211
70.2482
36.531
71.9458
38.2694
167.279
146.854
238.48
184.979
248.897
195.735
245.439
180.134
226.891
130.38
182.352
14.5128
-145.588
7.48237
-40.0669
-720.168
-846.646
-861.041
-863.123
-864.871
-866.908
-869.146
-871.338
-873.693
-875.736
-877.526
-879.296
-880.852
-882.36
-883.756
-885.081
-886.399
-887.635
-888.853
-890.008
-891.174
-892.31
-893.439
-894.535
-895.625
-896.701
-897.765
-898.826
-899.857
-900.899
-901.915
-902.941
-903.945
-904.951
-905.941
-906.932
-907.914
-908.889
-909.866
-910.823
-911.789
-912.739
-913.692
-914.637
-915.575
-916.513
-917.44
-918.373
-919.292
-920.215
-921.13
-922.041
-922.952
-923.857
-924.762
-925.663
-926.562
-927.459
-928.355
-929.251
-930.145
-931.038
-931.934
-932.828
-933.728
-934.627
-935.537
-936.445
-937.371
-938.294
-939.244
-940.192
-941.177
-942.162
-943.198
-944.234
-945.347
-946.456
-947.675
-948.89
-950.261
-951.627
-953.212
-954.798
-956.679
-958.582
-960.904
-963.264
-966.268
-969.333
-973.332
-977.502
-983.07
-989.138
-997.128
-1007.17
-1018.59
-1039.76
-1034.9
-1163.09
-1026.06
-961.236
-951.583
-921.746
-916.602
-898.759
-896.179
-878.346
-875.857
-879.938
-836.221
-846.132
-774.036
-715.287
-738.175
-706.121
-806.534
-784.97
-782.192
-710.552
-630.216
-658.692
-613.801
-749.71
-705.186
-743.315
-727.158
-585.925
-631.813
-492.892
-624.714
-566.109
-651.138
-723.9
-640.657
-705.369
-508.754
-586.553
-458.654
-505.009
-587.295
-531.459
-716.377
-600.613
-758.465
-609.78
-585.71
-575.31
-454.493
-641.236
-540.665
-745.557
-608.965
-695.627
-656
-541.936
-581.156
-480.328
-635.123
-609.601
-773.447
-684.399
-610.093
-614.096
-463.681
-607.537
-502.781
-679.629
-661.425
-665.71
-706.643
-555.268
-592.749
-417.53
-597.046
-493.459
-693.35
-555.625
-578.669
-523.932
-383.245
-528.871
-402.651
-657.678
-464.933
-686.135
-486.337
-610.879
-504.31
-423.229
-533.449
-430.7
-648.904
-451.259
-664.302
-388.902
-536.377
-319.514
-432.844
-407.227
-402.346
-588.666
-451.337
-663.857
-422.095
-634.978
-367.295
-488.415
-313.814
-316.985
-343.323
-242.336
-417.772
-308.269
-514.446
-317.351
-485.463
-238.379
-351.549
-249.14
-280.715
-408.648
-319.168
-472.994
-253.845
-395.986
-141.144
-372.388
-242.841
-386.293
-357.847
-288.894
-334.339
-129.462
-261.852
-68.7265
-277.743
-148.126
-352.296
-231.829
-259.679
-201.3
-84.5124
-162.133
-36.919
-216.415
-106.572
-309.246
-125.644
-262.985
-75.2256
-103.021
-71.5068
-54.0106
-184.849
-108.015
-232.137
-59.7001
-141.506
60.1485
-81.2051
65.1299
-120.915
-94.3588
-180.206
-154.533
-65.027
-46.3416
90.6429
-54.719
39.9095
-142.199
35.9552
-26.9761
133.36
50.3464
129.44
-19.0093
56.9086
-9.00756
75.8052
69.2386
36.7704
73.4136
39.4843
166.485
146.045
237.361
184.351
248.084
195.071
244.596
179.286
225.921
128.749
179.879
15.3361
-142.038
8.0692
-39.742
-725.621
-844.816
-859.723
-862.58
-864.542
-866.654
-868.936
-871.165
-873.542
-875.606
-877.418
-879.201
-880.767
-882.282
-883.685
-885.017
-886.341
-887.582
-888.804
-889.963
-891.133
-892.271
-893.403
-894.501
-895.593
-896.671
-897.737
-898.799
-899.832
-900.875
-901.892
-902.919
-903.924
-904.931
-905.922
-906.914
-907.897
-908.872
-909.85
-910.808
-911.774
-912.725
-913.678
-914.624
-915.562
-916.501
-917.429
-918.361
-919.281
-920.205
-921.119
-922.031
-922.942
-923.847
-924.753
-925.654
-926.553
-927.451
-928.347
-929.243
-930.137
-931.03
-931.926
-932.82
-933.72
-934.62
-935.53
-936.439
-937.365
-938.288
-939.238
-940.186
-941.171
-942.157
-943.193
-944.229
-945.343
-946.451
-947.671
-948.886
-950.257
-951.623
-953.209
-954.795
-956.678
-958.58
-960.903
-963.264
-966.268
-969.335
-973.334
-977.506
-983.074
-989.146
-997.131
-1007.18
-1018.54
-1039.78
-1035.2
-1158.62
-1025.19
-961.228
-951.217
-921.733
-916.343
-898.439
-895.811
-877.988
-875.425
-879.397
-835.391
-844.893
-774.664
-717.068
-739.46
-707.724
-805.086
-782.991
-780.52
-711.068
-632.27
-660.456
-615.52
-748.267
-704.311
-741.31
-725.452
-587.261
-632.82
-495.857
-625.194
-567.589
-650.358
-721.65
-639.45
-703.707
-510.126
-587.062
-461.802
-506.917
-587.483
-532.541
-714.607
-600.046
-755.042
-609.363
-586.303
-576.541
-457.816
-640.97
-541.641
-742.517
-609.159
-693.671
-654.508
-543.318
-582.604
-483.051
-635.535
-609.538
-769.187
-682.459
-610.14
-614.75
-466.37
-607.883
-505.192
-677.872
-660.024
-664.188
-704.072
-555.404
-593.528
-420.506
-597.532
-494.33
-690.131
-554.91
-577.391
-524.465
-386.557
-529.946
-403.924
-655.546
-465.364
-683.326
-486.741
-608.876
-504.783
-425.463
-533.998
-431.723
-646.661
-450.889
-660.913
-390.009
-535.676
-322.562
-433.63
-408.807
-403.569
-586.59
-450.818
-661.144
-422.08
-631.904
-368.417
-487.168
-315.53
-318.404
-344.142
-244.711
-417.589
-308.264
-511.843
-317.253
-482.863
-240.473
-351.756
-251.424
-282.221
-407.079
-318.645
-470.584
-253.65
-395.365
-144.997
-371.705
-243.728
-384.242
-356.149
-288.122
-333.477
-131.211
-262.229
-71.5451
-277.296
-149.222
-349.488
-230.99
-258.24
-201.337
-86.4769
-162.93
-38.9616
-216.402
-106.505
-306.485
-125.647
-260.695
-76.5577
-103.98
-73.062
-55.6106
-183.585
-107.197
-230.015
-59.1528
-141.527
57.8558
-81.5095
62.1813
-120.395
-93.6964
-177.613
-152.355
-64.7232
-47.0232
87.9631
-55.2391
39.7922
-139.059
36.2796
-26.6491
131.372
48.9946
127.991
-17.6755
57.3553
-7.54718
75.2288
68.3299
37.2484
74.5751
40.7872
165.679
145.505
235.851
183.624
247.178
194.279
243.625
178.29
224.733
126.996
177.499
14.6691
-136.162
8.75161
-39.4131
-730.45
-844.104
-858.187
-862.022
-864.293
-866.492
-868.784
-871.009
-873.394
-875.472
-877.304
-879.098
-880.67
-882.196
-883.61
-884.949
-886.278
-887.523
-888.75
-889.912
-891.085
-892.227
-893.362
-894.462
-895.556
-896.636
-897.704
-898.768
-899.803
-900.847
-901.866
-902.894
-903.9
-904.909
-905.9
-906.893
-907.877
-908.853
-909.831
-910.79
-911.757
-912.709
-913.662
-914.608
-915.548
-916.486
-917.415
-918.348
-919.268
-920.192
-921.107
-922.019
-922.93
-923.836
-924.742
-925.643
-926.543
-927.441
-928.337
-929.233
-930.128
-931.021
-931.917
-932.812
-933.712
-934.612
-935.522
-936.431
-937.357
-938.28
-939.231
-940.179
-941.164
-942.15
-943.187
-944.223
-945.337
-946.445
-947.665
-948.881
-950.252
-951.618
-953.204
-954.791
-956.675
-958.578
-960.899
-963.261
-966.265
-969.334
-973.332
-977.506
-983.072
-989.146
-997.123
-1007.19
-1018.43
-1039.75
-1035.26
-1154.1
-1024.2
-961.319
-950.928
-921.57
-916.057
-898.088
-895.408
-877.589
-874.97
-878.618
-834.714
-843.657
-775.31
-718.89
-740.72
-709.372
-803.58
-781.081
-778.856
-711.593
-634.38
-662.057
-617.583
-746.631
-703.497
-739.294
-723.649
-588.732
-633.596
-499.218
-625.61
-569.16
-649.583
-719.185
-638.388
-701.672
-511.948
-587.523
-465.049
-508.838
-587.572
-533.924
-712.215
-599.995
-751.503
-609.039
-586.89
-577.568
-461.394
-640.755
-542.627
-739.425
-609.441
-691.674
-653.002
-544.81
-583.858
-486.011
-635.799
-609.517
-764.893
-680.574
-610.204
-615.057
-469.398
-608.21
-507.716
-676.025
-658.626
-662.646
-701.372
-555.801
-593.909
-424.208
-597.602
-495.294
-686.755
-554.321
-576.106
-524.996
-390
-530.496
-406.024
-652.617
-466.239
-680.431
-487.321
-606.789
-505.282
-427.762
-534.245
-433.004
-643.67
-451.159
-657.359
-391.46
-534.828
-325.754
-434.351
-410.378
-404.87
-584.059
-450.815
-657.484
-422.687
-628.72
-369.704
-485.833
-317.343
-319.839
-344.924
-247.335
-416.884
-308.756
-508.84
-317.426
-480.21
-242.738
-351.872
-253.748
-283.702
-405.387
-318.367
-467.491
-254.338
-394.401
-148.924
-370.833
-244.735
-382.124
-354.452
-287.408
-332.21
-133.334
-262.181
-74.8835
-276.837
-150.441
-346.559
-230.216
-256.799
-201.342
-88.5708
-163.448
-41.4677
-215.789
-107.079
-303.509
-125.719
-258.291
-77.9666
-104.918
-74.5931
-57.232
-182.084
-106.758
-227.327
-59.2583
-140.884
55.168
-81.8068
59.1279
-119.775
-93.0507
-175.001
-150.165
-64.3992
-47.6246
84.9936
-55.2559
39.1804
-135.712
36.462
-26.2575
129.222
47.9182
126.284
-16.2633
57.709
-6.08069
74.6144
67.501
37.7683
75.5243
42.287
164.832
144.917
234.259
182.979
246.052
193.49
242.466
177.256
223.232
125.423
175.091
14.4396
-130.509
9.39437
-39.1166
-734.737
-843.215
-857.271
-861.428
-864.077
-866.357
-868.675
-870.913
-873.281
-875.358
-877.194
-878.993
-880.573
-882.107
-883.531
-884.877
-886.21
-887.459
-888.692
-889.861
-891.037
-892.181
-893.318
-894.42
-895.517
-896.599
-897.669
-898.735
-899.771
-900.817
-901.837
-902.867
-903.874
-904.884
-905.876
-906.87
-907.855
-908.832
-909.811
-910.771
-911.738
-912.69
-913.644
-914.591
-915.531
-916.471
-917.399
-918.333
-919.254
-920.178
-921.094
-922.006
-922.918
-923.824
-924.73
-925.631
-926.532
-927.43
-928.326
-929.223
-930.117
-931.011
-931.908
-932.802
-933.703
-934.603
-935.513
-936.422
-937.349
-938.272
-939.223
-940.171
-941.157
-942.143
-943.179
-944.216
-945.33
-946.438
-947.659
-948.875
-950.246
-951.612
-953.198
-954.785
-956.669
-958.574
-960.895
-963.254
-966.259
-969.33
-973.326
-977.501
-983.063
-989.138
-997.1
-1007.17
-1018.28
-1039.66
-1035.27
-1149.42
-1023.14
-961.502
-950.726
-921.306
-915.745
-897.714
-894.976
-877.141
-874.491
-877.669
-834.135
-842.406
-775.96
-720.765
-742.011
-711.017
-802.026
-779.204
-777.181
-712.108
-636.549
-663.63
-619.747
-744.96
-702.699
-737.252
-721.841
-590.254
-634.408
-502.659
-625.999
-570.795
-648.81
-716.673
-637.354
-699.331
-514.114
-587.963
-468.391
-510.814
-587.72
-535.355
-709.796
-599.963
-747.853
-608.77
-587.476
-578.624
-465.058
-640.456
-543.709
-736.253
-609.741
-689.64
-651.505
-546.371
-584.913
-489.239
-636.01
-609.5
-760.535
-678.7
-610.273
-615.253
-472.626
-608.465
-510.297
-674.12
-657.213
-661.091
-698.621
-556.23
-594.301
-428.085
-597.483
-496.368
-683.291
-553.808
-574.83
-525.517
-393.491
-531.025
-408.257
-649.7
-467.162
-677.383
-487.995
-604.65
-505.78
-430.109
-534.372
-434.399
-640.64
-451.514
-653.689
-393.028
-533.9
-329.053
-435.058
-411.948
-406.197
-581.483
-450.916
-653.753
-423.32
-625.366
-371.075
-484.439
-319.228
-321.311
-345.718
-250.056
-416.05
-309.416
-505.778
-317.67
-477.474
-245.103
-351.942
-256.106
-285.185
-403.666
-318.078
-464.34
-255.11
-393.381
-152.953
-369.865
-245.819
-379.952
-352.73
-286.728
-330.751
-135.698
-262.182
-78.2631
-276.295
-151.729
-343.543
-229.471
-255.346
-201.319
-90.7134
-163.995
-44.1753
-214.989
-107.722
-300.47
-125.881
-255.82
-79.4256
-105.848
-76.1181
-58.8739
-180.581
-106.333
-224.6
-59.4456
-140.177
52.4054
-82.055
55.9978
-119.086
-92.4014
-172.36
-147.955
-64.0692
-48.2211
81.9263
-55.2187
38.5686
-132.33
36.5536
-25.8205
127.033
47.0099
124.36
-14.8159
58.0059
-4.60773
73.9844
66.7311
38.3449
76.375
43.8412
163.921
144.351
232.576
182.53
244.617
192.926
240.998
176.39
221.41
124.047
172.446
14.3762
-124.86
10.0178
-38.8292
-739.138
-841.829
-856.55
-861.049
-863.807
-866.235
-868.587
-870.829
-873.199
-875.284
-877.106
-878.904
-880.488
-882.024
-883.454
-884.804
-886.141
-887.394
-888.633
-889.807
-890.986
-892.132
-893.272
-894.378
-895.478
-896.562
-897.633
-898.7
-899.738
-900.785
-901.807
-902.838
-903.846
-904.857
-905.85
-906.846
-907.832
-908.81
-909.789
-910.75
-911.718
-912.671
-913.626
-914.573
-915.514
-916.454
-917.383
-918.317
-919.238
-920.163
-921.079
-921.992
-922.904
-923.81
-924.717
-925.619
-926.519
-927.418
-928.315
-929.211
-930.106
-931
-931.897
-932.792
-933.693
-934.593
-935.504
-936.413
-937.34
-938.263
-939.214
-940.163
-941.148
-942.135
-943.171
-944.208
-945.322
-946.431
-947.651
-948.867
-950.238
-951.605
-953.191
-954.778
-956.662
-958.566
-960.891
-963.244
-966.25
-969.321
-973.315
-977.49
-983.047
-989.121
-997.065
-1007.14
-1018.09
-1039.51
-1035.26
-1144.63
-1022.08
-961.751
-950.534
-921.068
-915.409
-897.317
-894.49
-876.671
-873.994
-876.654
-833.572
-841.142
-776.609
-722.679
-743.305
-712.675
-800.446
-777.355
-775.499
-712.608
-638.766
-665.22
-621.939
-743.271
-701.905
-735.188
-720.026
-591.828
-635.205
-506.187
-626.394
-572.476
-648.044
-714.123
-636.344
-696.96
-516.339
-588.398
-471.805
-512.853
-587.891
-536.845
-707.33
-599.941
-744.133
-608.532
-588.063
-579.674
-468.79
-640.094
-544.877
-733.017
-610.037
-687.573
-650.016
-547.98
-585.912
-492.575
-636.156
-609.492
-756.144
-676.828
-610.339
-615.432
-475.922
-608.67
-512.909
-672.184
-655.787
-659.516
-695.834
-556.678
-594.672
-431.987
-597.322
-497.524
-679.772
-553.344
-573.564
-526.022
-397.036
-531.561
-410.555
-646.75
-468.16
-674.217
-488.728
-602.476
-506.269
-432.488
-534.466
-435.826
-637.576
-451.905
-649.919
-394.675
-532.917
-332.426
-435.77
-413.525
-407.561
-578.878
-451.038
-649.936
-424.01
-621.877
-372.5
-483.004
-321.165
-322.816
-346.518
-252.846
-415.231
-310.121
-502.643
-317.983
-474.668
-247.534
-351.985
-258.484
-286.67
-401.913
-317.82
-461.147
-255.927
-392.314
-157.044
-368.829
-246.953
-377.745
-350.985
-286.075
-329.275
-138.123
-262.151
-81.7096
-275.696
-153.07
-340.469
-228.741
-253.885
-201.277
-92.8946
-164.548
-46.9362
-214.205
-108.408
-297.354
-126.108
-253.3
-80.9123
-106.774
-77.6391
-60.5296
-179.06
-105.931
-221.847
-59.6453
-139.469
49.5673
-82.2734
52.8155
-118.35
-91.7445
-169.696
-145.727
-63.7379
-48.79
78.8446
-55.1482
37.9019
-128.931
36.5842
-25.3456
124.809
46.0912
122.425
-13.34
58.2616
-3.13372
73.3509
66.0136
38.9645
77.1853
45.3801
162.967
143.798
230.816
182.091
243.058
192.459
239.304
175.746
219.299
122.728
169.67
14.4133
-119.247
10.6193
-38.5182
-743.286
-840.77
-855.724
-860.678
-863.643
-866.077
-868.501
-870.756
-873.128
-875.216
-877.039
-878.846
-880.418
-881.953
-883.388
-884.737
-886.077
-887.333
-888.575
-889.752
-890.934
-892.082
-893.224
-894.334
-895.437
-896.522
-897.595
-898.664
-899.704
-900.754
-901.776
-902.809
-903.818
-904.83
-905.824
-906.82
-907.807
-908.786
-909.767
-910.728
-911.697
-912.651
-913.606
-914.554
-915.495
-916.436
-917.366
-918.301
-919.222
-920.148
-921.064
-921.977
-922.89
-923.796
-924.704
-925.606
-926.506
-927.405
-928.302
-929.199
-930.095
-930.989
-931.886
-932.781
-933.682
-934.583
-935.494
-936.403
-937.33
-938.254
-939.205
-940.154
-941.139
-942.126
-943.162
-944.199
-945.313
-946.422
-947.643
-948.859
-950.23
-951.597
-953.182
-954.769
-956.653
-958.557
-960.886
-963.231
-966.236
-969.309
-973.3
-977.474
-983.024
-989.095
-997.015
-1007.09
-1017.86
-1039.31
-1035.21
-1139.82
-1021.01
-962.022
-950.365
-920.867
-915.065
-896.894
-893.95
-876.186
-873.49
-875.609
-833.005
-839.875
-777.257
-724.619
-744.589
-714.34
-798.85
-775.54
-773.821
-713.096
-641.011
-666.808
-624.157
-741.579
-701.113
-733.113
-718.211
-593.439
-635.988
-509.786
-626.802
-574.189
-647.285
-711.542
-635.359
-694.578
-518.605
-588.84
-475.273
-514.946
-588.085
-538.38
-704.81
-599.936
-740.368
-608.314
-588.65
-580.712
-472.565
-639.695
-546.102
-729.75
-610.315
-685.485
-648.539
-549.617
-586.908
-495.926
-636.245
-609.486
-751.746
-674.954
-610.4
-615.58
-479.264
-608.849
-515.532
-670.234
-654.347
-657.922
-693.026
-557.153
-595.002
-435.907
-597.117
-498.737
-676.224
-552.916
-572.315
-526.516
-400.613
-532.064
-412.932
-643.761
-469.22
-670.96
-489.498
-600.281
-506.746
-434.881
-534.514
-437.278
-634.455
-452.348
-646.088
-396.375
-531.895
-335.848
-436.495
-415.105
-408.951
-576.238
-451.182
-646.023
-424.74
-618.285
-373.955
-481.544
-323.137
-324.351
-347.328
-255.688
-414.395
-310.875
-499.454
-318.35
-471.817
-250.008
-352.013
-260.867
-288.149
-400.143
-317.589
-457.911
-256.813
-391.187
-161.163
-367.745
-248.117
-375.518
-349.224
-285.441
-327.773
-140.597
-262.092
-85.211
-275.06
-154.446
-337.359
-228.02
-252.422
-201.22
-95.105
-165.095
-49.742
-213.408
-109.145
-294.186
-126.376
-250.749
-82.4119
-107.695
-79.1531
-62.1889
-177.525
-105.557
-219.065
-59.8903
-138.726
46.675
-82.4771
49.605
-117.582
-91.0783
-167.02
-143.488
-63.4031
-49.3332
75.7578
-55.0301
37.1866
-125.527
36.5668
-24.8417
122.558
45.1791
120.486
-11.8569
58.4842
-1.66509
72.7213
65.3445
39.616
77.9467
46.9136
161.983
143.248
228.996
181.605
241.449
191.924
237.566
175.174
216.99
121.515
166.792
14.5307
-113.73
11.2003
-38.2001
-747.258
-839.797
-855
-860.251
-863.485
-865.993
-868.402
-870.683
-873.078
-875.147
-876.98
-878.789
-880.36
-881.907
-883.334
-884.679
-886.022
-887.279
-888.521
-889.701
-890.885
-892.035
-893.179
-894.291
-895.395
-896.482
-897.556
-898.627
-899.669
-900.721
-901.745
-902.778
-903.788
-904.802
-905.798
-906.795
-907.783
-908.762
-909.744
-910.705
-911.675
-912.63
-913.586
-914.535
-915.476
-916.417
-917.348
-918.283
-919.205
-920.131
-921.048
-921.962
-922.875
-923.782
-924.689
-925.592
-926.493
-927.392
-928.289
-929.187
-930.082
-930.977
-931.874
-932.77
-933.671
-934.572
-935.483
-936.393
-937.32
-938.244
-939.195
-940.144
-941.13
-942.116
-943.153
-944.19
-945.304
-946.413
-947.633
-948.849
-950.22
-951.587
-953.172
-954.759
-956.643
-958.546
-960.877
-963.219
-966.22
-969.293
-973.28
-977.453
-982.994
-989.06
-996.952
-1007.03
-1017.58
-1039.08
-1035.12
-1135.01
-1019.92
-962.295
-950.205
-920.697
-914.734
-896.466
-893.416
-875.615
-872.992
-874.529
-832.453
-838.616
-777.902
-726.571
-745.859
-716
-797.249
-773.763
-772.155
-713.572
-643.274
-668.387
-626.39
-739.893
-700.323
-731.037
-716.403
-595.075
-636.767
-513.433
-627.229
-575.919
-646.534
-708.941
-634.396
-692.19
-520.905
-589.293
-478.777
-517.085
-588.31
-539.945
-702.257
-599.94
-736.575
-608.109
-589.235
-581.746
-476.361
-639.273
-547.366
-726.468
-610.566
-683.384
-647.076
-551.269
-587.894
-499.282
-636.286
-609.476
-747.361
-673.079
-610.448
-615.703
-482.637
-609.008
-518.151
-668.282
-652.894
-656.311
-690.21
-557.649
-595.301
-439.83
-596.878
-499.991
-672.669
-552.516
-571.088
-527.004
-404.203
-532.538
-415.366
-640.757
-470.322
-667.633
-490.288
-598.079
-507.209
-437.271
-534.518
-438.748
-631.296
-452.829
-642.215
-398.111
-530.846
-339.298
-437.235
-416.686
-410.356
-573.577
-451.336
-642.042
-425.486
-614.613
-375.42
-480.07
-325.131
-325.908
-348.152
-258.563
-413.543
-311.67
-496.228
-318.756
-468.938
-252.503
-352.032
-263.238
-289.613
-398.366
-317.374
-454.652
-257.749
-390.015
-165.283
-366.626
-249.295
-373.279
-347.449
-284.82
-326.248
-143.107
-262.014
-88.7417
-274.395
-155.841
-334.23
-227.302
-250.961
-201.151
-97.3328
-165.644
-52.578
-212.596
-109.918
-290.983
-126.672
-248.182
-83.9156
-108.61
-80.6562
-63.843
-175.983
-105.198
-216.265
-60.1699
-137.955
43.7485
-82.6729
46.3849
-116.79
-90.4021
-164.338
-141.245
-63.0644
-49.8539
72.6781
-54.8754
36.4409
-122.137
36.511
-24.3155
120.293
44.2859
118.537
-10.3775
58.6794
-0.207217
72.0989
64.7214
40.2928
78.6641
48.4364
160.976
142.698
227.128
181.089
239.782
191.347
235.773
174.556
214.639
120.426
163.777
14.7097
-108.31
11.7603
-37.8971
-751.055
-838.93
-854.309
-859.877
-863.271
-865.91
-868.326
-870.648
-873.003
-875.091
-876.936
-878.731
-880.311
-881.859
-883.286
-884.641
-885.981
-887.232
-888.475
-889.657
-890.84
-891.991
-893.137
-894.249
-895.354
-896.443
-897.519
-898.59
-899.634
-900.688
-901.712
-902.746
-903.758
-904.773
-905.771
-906.769
-907.757
-908.737
-909.72
-910.683
-911.654
-912.609
-913.565
-914.515
-915.457
-916.398
-917.329
-918.266
-919.188
-920.114
-921.032
-921.946
-922.859
-923.767
-924.675
-925.577
-926.479
-927.378
-928.276
-929.174
-930.07
-930.964
-931.862
-932.758
-933.659
-934.561
-935.472
-936.382
-937.309
-938.233
-939.184
-940.133
-941.119
-942.106
-943.143
-944.18
-945.294
-946.403
-947.623
-948.839
-950.21
-951.577
-953.161
-954.748
-956.63
-958.533
-960.863
-963.209
-966.201
-969.271
-973.255
-977.426
-982.956
-989.016
-996.875
-1006.94
-1017.27
-1038.79
-1035
-1130.23
-1018.83
-962.562
-950.038
-920.548
-914.421
-896.057
-892.894
-874.965
-872.5
-873.419
-831.92
-837.371
-778.543
-728.528
-747.112
-717.648
-795.649
-772.031
-770.509
-714.038
-645.544
-669.953
-628.626
-738.218
-699.534
-728.969
-714.609
-596.728
-637.543
-517.11
-627.675
-577.656
-645.791
-706.333
-633.455
-689.806
-523.225
-589.761
-482.302
-519.262
-588.565
-541.528
-699.683
-599.944
-732.771
-607.909
-589.817
-582.775
-480.163
-638.833
-548.662
-723.187
-610.788
-681.277
-645.63
-552.927
-588.871
-502.631
-636.284
-609.462
-743.003
-671.203
-610.482
-615.806
-486.024
-609.156
-520.754
-666.338
-651.43
-654.683
-687.397
-558.159
-595.573
-443.739
-596.612
-501.272
-669.124
-552.137
-569.886
-527.485
-407.792
-532.989
-417.838
-637.753
-471.449
-664.256
-491.085
-595.877
-507.655
-439.643
-534.482
-440.226
-628.113
-453.335
-638.317
-399.869
-529.777
-342.759
-437.989
-418.263
-411.766
-570.906
-451.491
-638.013
-426.228
-610.878
-376.879
-478.589
-327.139
-327.483
-348.991
-261.458
-412.683
-312.494
-492.98
-319.193
-466.042
-255.004
-352.044
-265.589
-291.059
-396.597
-317.175
-451.385
-258.72
-388.806
-169.383
-365.48
-250.475
-371.034
-345.667
-284.207
-324.708
-145.637
-261.919
-92.2846
-273.704
-157.247
-331.096
-226.591
-249.511
-201.073
-99.5673
-166.194
-55.429
-211.777
-110.715
-287.761
-126.985
-245.609
-85.4147
-109.517
-82.1428
-65.4866
-174.445
-104.855
-213.461
-60.4737
-137.163
40.8021
-82.8655
43.1693
-115.979
-89.7133
-161.655
-139.002
-62.721
-50.3515
69.6189
-54.6906
35.6749
-118.773
36.4259
-23.7694
118.025
43.4111
116.592
-8.90657
58.8529
1.23718
71.4879
64.1435
40.9914
79.3442
49.9434
159.956
142.149
225.223
180.543
238.068
190.731
233.921
173.902
212.252
119.481
160.634
14.9361
-102.994
12.3042
-37.5911
-754.7
-838.149
-853.668
-859.504
-863.086
-865.79
-868.252
-870.611
-872.974
-875.031
-876.876
-878.692
-880.268
-881.81
-883.245
-884.603
-885.94
-887.196
-888.443
-889.62
-890.8
-891.953
-893.099
-894.211
-895.318
-896.407
-897.484
-898.556
-899.601
-900.655
-901.68
-902.716
-903.728
-904.744
-905.743
-906.742
-907.731
-908.712
-909.695
-910.66
-911.632
-912.587
-913.544
-914.494
-915.437
-916.379
-917.311
-918.248
-919.17
-920.097
-921.015
-921.929
-922.843
-923.751
-924.66
-925.562
-926.464
-927.364
-928.262
-929.16
-930.056
-930.951
-931.85
-932.745
-933.647
-934.549
-935.46
-936.37
-937.297
-938.222
-939.173
-940.123
-941.109
-942.095
-943.132
-944.169
-945.283
-946.392
-947.612
-948.828
-950.199
-951.565
-953.149
-954.735
-956.617
-958.519
-960.847
-963.194
-966.183
-969.245
-973.226
-977.394
-982.91
-988.964
-996.785
-1006.84
-1016.92
-1038.48
-1034.85
-1125.48
-1017.73
-962.816
-949.861
-920.41
-914.118
-895.666
-892.371
-874.337
-871.96
-872.291
-831.406
-836.148
-779.177
-730.48
-748.343
-719.279
-794.056
-770.347
-768.89
-714.493
-647.81
-671.502
-630.856
-736.561
-698.749
-726.916
-712.839
-598.389
-638.311
-520.803
-628.139
-579.393
-645.057
-703.728
-632.535
-687.436
-525.557
-590.246
-485.839
-521.471
-588.853
-543.119
-697.097
-599.944
-728.975
-607.717
-590.396
-583.798
-483.955
-638.382
-549.981
-719.922
-610.978
-679.172
-644.207
-554.584
-589.84
-505.962
-636.246
-609.444
-738.688
-669.335
-610.504
-615.896
-489.414
-609.298
-523.332
-664.409
-649.961
-653.046
-684.595
-558.679
-595.823
-447.624
-596.329
-502.573
-665.604
-551.777
-568.714
-527.96
-411.37
-533.422
-420.337
-634.761
-472.589
-660.85
-491.883
-593.683
-508.083
-441.987
-534.411
-441.706
-624.927
-453.859
-634.415
-401.643
-528.695
-346.218
-438.758
-419.831
-413.177
-568.238
-451.646
-633.955
-426.958
-607.102
-378.331
-477.117
-329.155
-329.075
-349.849
-264.367
-411.824
-313.343
-489.725
-319.652
-463.142
-257.51
-352.064
-267.92
-292.489
-394.842
-316.996
-448.127
-259.726
-387.582
-173.459
-364.329
-251.66
-368.801
-343.892
-283.609
-323.173
-148.185
-261.827
-95.838
-273.006
-158.663
-327.975
-225.889
-248.08
-200.996
-101.811
-166.751
-58.2833
-210.952
-111.528
-284.527
-127.305
-243.037
-86.9034
-110.418
-83.6192
-67.1191
-172.92
-104.528
-210.669
-60.808
-136.366
37.8478
-83.0575
39.97
-115.149
-89.0148
-158.982
-136.771
-62.3737
-50.8229
66.5918
-54.4794
34.8988
-115.438
36.3191
-23.2062
115.759
42.5486
114.655
-7.44765
59.0087
2.6656
70.8913
63.6089
41.7078
79.9893
51.4269
158.924
141.601
223.289
179.969
236.317
190.074
232.021
173.217
209.827
118.671
157.412
15.1897
-97.8062
12.8322
-37.2765
-758.197
-837.466
-853.063
-859.154
-862.897
-865.682
-868.186
-870.549
-872.934
-874.982
-876.851
-878.639
-880.219
-881.782
-883.209
-884.563