/*--------------------------------*- C++ -*----------------------------------*\
| =========                 |                                                 |
| \\      /  F ield         | foam-extend: Open Source CFD                    |
|  \\    /   O peration     | Version:     3.2                                |
|   \\  /    A nd           | Web:         http://www.foam-extend.org         |
|    \\/     M anipulation  | For copyright notice see file Copyright         |
\*---------------------------------------------------------------------------*/
FoamFile
{
    version     2.0;
    format      ascii;
    class       areaScalarField;
    location    "160";
    object      Pef;
}
// * * * * * * * * * * * * * * * * * * * * * * * * * * * * * * * * * * * * * //

dimensions      [0 0 0 0 0 0 0];

internalField   nonuniform List<scalar> 
300
(
0.996918
0.992009
0.963813
0.922379
0.894485
0.875779
0.860155
0.844907
0.829479
0.814262
0.799665
0.785783
0.772536
0.76016
0.748573
0.73767
0.727393
0.717648
0.70851
0.699999
0.691948
0.684253
0.676917
0.66993
0.663293
0.656936
0.650864
0.64503
0.639454
0.634124
0.628995
0.624071
0.619316
0.614747
0.610343
0.60611
0.602006
0.598049
0.594212
0.590501
0.586919
0.58344
0.580072
0.576797
0.573616
0.570533
0.567535
0.564629
0.561784
0.559034
0.556334
0.553725
0.551168
0.548692
0.546262
0.543905
0.541589
0.539346
0.53711
0.534966
0.53283
0.530793
0.528758
0.526824
0.524885
0.523056
0.52121
0.519481
0.517727
0.5161
0.514445
0.51293
0.511378
0.509987
0.508548
0.507296
0.505994
0.504903
0.503771
0.502884
0.501964
0.501329
0.500703
0.500384
0.500192
0.500254
0.500565
0.501304
0.502407
0.504011
0.506335
0.509243
0.513676
0.518594
0.527143
0.535933
0.555369
0.563258
0.663147
0.620551
0.260918
0.235006
0.255501
0.256918
0.265174
0.273001
0.276556
0.284283
0.301773
0.271923
0.303256
0.325987
0.29316
0.156573
0.120804
0.116952
0.122889
0.307053
0.338028
0.295722
0.11804
0.0830268
0.120698
0.105371
0.287347
0.35792
0.278404
0.36211
0.0991983
0.106647
0.129588
0.0380548
0.116383
0.271745
0.354571
0.309395
0.348425
0.148212
0.0689339
0.171288
0.0356973
0.102336
0.088972
0.334157
0.348113
0.279219
0.387689
0.0444743
0.155769
0.138889
0.136603
0.349282
0.290321
0.358549
0.278941
0.374132
0.140908
0.174574
0.196264
0.191253
0.384785
0.29379
0.402908
0.308554
0.211048
0.216686
0.178162
0.222615
0.314099
0.412214
0.348284
0.416114
0.333394
0.208615
0.184989
0.176622
0.359646
0.297493
0.380491
0.264792
0.194604
0.112155
0.168878
0.124519
0.324046
0.315937
0.266239
0.351611
0.223523
0.147061
0.0890964
0.185839
0.270923
0.333755
0.324227
0.33392
0.360789
0.124375
0.226996
0.120903
0.231891
0.108952
0.384267
0.28715
0.324634
0.322453
0.274719
0.335602
0.266808
0.196495
0.0874271
0.165801
0.0930364
0.150247
0.296999
0.310833
0.303361
0.285368
0.186154
0.0983875
0.21172
0.13136
0.38649
0.285867
0.352474
0.300604
0.126412
0.168239
0.0832707
0.331517
0.230838
0.332013
0.253782
0.34182
0.119058
0.133391
0.148776
0.12352
0.349525
0.298806
0.373214
0.276274
0.188821
0.109109
0.149858
0.104476
0.143558
0.291111
0.287687
0.329998
0.283869
0.170748
0.104252
0.188671
0.122259
0.343179
0.294628
0.323808
0.28641
0.122038
0.130956
0.108529
0.164727
0.117774
0.350611
0.318049
0.359005
0.273478
0.174904
0.118469
0.141571
0.302468
0.280981
0.303537
0.11496
0.124913
0.145273
0.146579
0.29643
0.334431
0.317964
0.203587
0.126153
0.323847
0.301617
0.290304
0.106256
0.105247
0.128588
0.140363
0.154891
0.182991
0.190006
0.248021
0.247174
0.425623
0.732922
0.629454
0.392965
0.342181
)
;

boundaryField
{
    inlet
    {
        type            calculated;
        value           uniform 0;
    }
    outlet
    {
        type            calculated;
        value           uniform 0;
    }
    sideWall
    {
        type            empty;
    }
}


// ************************************************************************* //
