/*--------------------------------*- C++ -*----------------------------------*\
| =========                 |                                                 |
| \\      /  F ield         | foam-extend: Open Source CFD                    |
|  \\    /   O peration     | Version:     3.2                                |
|   \\  /    A nd           | Web:         http://www.foam-extend.org         |
|    \\/     M anipulation  | For copyright notice see file Copyright         |
\*---------------------------------------------------------------------------*/
FoamFile
{
    version     2.0;
    format      ascii;
    class       surfaceScalarField;
    location    "160";
    object      phi;
}
// * * * * * * * * * * * * * * * * * * * * * * * * * * * * * * * * * * * * * //

dimensions      [0 3 -1 0 0 0 0];

internalField   nonuniform List<scalar> 
191380
(
6.20162e-05
3.92338e-05
4.34316e-05
1.85845e-05
3.68831e-05
6.54856e-06
3.4861e-05
2.0221e-06
3.39662e-05
8.94831e-07
3.33299e-05
6.36252e-07
3.27754e-05
5.54469e-07
3.22528e-05
5.22662e-07
3.17611e-05
4.91696e-07
3.13152e-05
4.45894e-07
3.09158e-05
3.99333e-07
3.05513e-05
3.64539e-07
3.0221e-05
3.3029e-07
2.99228e-05
2.98266e-07
2.96509e-05
2.71854e-07
2.94014e-05
2.49546e-07
2.91694e-05
2.31977e-07
2.89547e-05
2.14705e-07
2.87583e-05
1.96368e-07
2.85779e-05
1.80408e-07
2.84077e-05
1.70198e-07
2.82466e-05
1.61144e-07
2.80941e-05
1.52461e-07
2.79505e-05
1.43564e-07
2.78145e-05
1.36e-07
2.76852e-05
1.29339e-07
2.75619e-05
1.23248e-07
2.74442e-05
1.17774e-07
2.73324e-05
1.11721e-07
2.72255e-05
1.06923e-07
2.71233e-05
1.02219e-07
2.7025e-05
9.83427e-08
2.69306e-05
9.43767e-08
2.68399e-05
9.06768e-08
2.6753e-05
8.69079e-08
2.66692e-05
8.38019e-08
2.65883e-05
8.09044e-08
2.65103e-05
7.80255e-08
2.64346e-05
7.56445e-08
2.63619e-05
7.27501e-08
2.62914e-05
7.04993e-08
2.62232e-05
6.81957e-08
2.6157e-05
6.61473e-08
2.60928e-05
6.4277e-08
2.60305e-05
6.22482e-08
2.59701e-05
6.04488e-08
2.59115e-05
5.85217e-08
2.58544e-05
5.71314e-08
2.5799e-05
5.54224e-08
2.57449e-05
5.40707e-08
2.56923e-05
5.26338e-08
2.56411e-05
5.11417e-08
2.55913e-05
4.98386e-08
2.55428e-05
4.85381e-08
2.54954e-05
4.73936e-08
2.54491e-05
4.62412e-08
2.5404e-05
4.50845e-08
2.53596e-05
4.44233e-08
2.53162e-05
4.33981e-08
2.52738e-05
4.23948e-08
2.52325e-05
4.12813e-08
2.51923e-05
4.02476e-08
2.51531e-05
3.92294e-08
2.51148e-05
3.82386e-08
2.50777e-05
3.71622e-08
2.50415e-05
3.62078e-08
2.50063e-05
3.52071e-08
2.49721e-05
3.41929e-08
2.49388e-05
3.32221e-08
2.49068e-05
3.20444e-08
2.48758e-05
3.09852e-08
2.48461e-05
2.97248e-08
2.48175e-05
2.85412e-08
2.47904e-05
2.71388e-08
2.47646e-05
2.58218e-08
2.47406e-05
2.39369e-08
2.47181e-05
2.25685e-08
2.4698e-05
2.00781e-08
2.46796e-05
1.83551e-08
2.46645e-05
1.51388e-08
2.46514e-05
1.31043e-08
2.4643e-05
8.43472e-09
2.46369e-05
6.11283e-09
2.46378e-05
-9.346e-10
2.46411e-05
-3.30939e-09
2.46523e-05
-1.12232e-08
2.46702e-05
-1.7864e-08
2.47008e-05
-3.05708e-08
2.47382e-05
-3.74059e-08
2.47952e-05
-5.70141e-08
2.4863e-05
-6.78717e-08
2.49645e-05
-1.01431e-07
2.5083e-05
-1.18489e-07
2.52638e-05
-1.80788e-07
2.54889e-05
-2.25181e-07
2.58646e-05
-3.75657e-07
2.6227e-05
-3.62395e-07
2.76771e-05
-1.45009e-06
2.85329e-05
-8.55813e-07
1.91948e-05
9.3379e-06
1.41263e-05
5.0678e-06
1.65082e-05
-2.38249e-06
1.74765e-05
-9.68481e-07
1.8091e-05
-6.14567e-07
1.85645e-05
-4.7351e-07
1.89686e-05
-4.04116e-07
1.9193e-05
-2.24226e-07
1.98103e-05
-6.17558e-07
1.94474e-05
3.63975e-07
1.93136e-05
1.33701e-07
2.07018e-05
-1.39277e-06
2.00206e-05
6.8081e-07
2.05094e-05
-4.80962e-07
2.10213e-05
-5.06961e-07
2.00721e-05
9.4847e-07
2.08903e-05
-8.18352e-07
2.00538e-05
8.29445e-07
2.07187e-05
-6.76168e-07
2.02529e-05
4.67499e-07
2.03432e-05
-7.77804e-08
2.08167e-05
-4.67191e-07
2.04803e-05
3.33775e-07
2.1638e-05
-1.15764e-06
1.95826e-05
2.04973e-06
2.09146e-05
-1.34205e-06
2.02499e-05
6.64908e-07
2.01189e-05
1.30394e-07
2.19783e-05
-1.85656e-06
2.04429e-05
1.54304e-06
2.22409e-05
-1.80062e-06
1.97373e-05
2.50399e-06
2.07589e-05
-1.01543e-06
2.04424e-05
3.12125e-07
1.98438e-05
5.89873e-07
2.14009e-05
-1.55892e-06
2.01296e-05
1.26896e-06
2.27621e-05
-2.63008e-06
2.05666e-05
2.20287e-06
2.20071e-05
-1.44442e-06
2.0808e-05
1.19529e-06
1.92853e-05
1.52863e-06
2.16728e-05
-2.38254e-06
1.98885e-05
1.77469e-06
2.20995e-05
-2.22011e-06
1.96192e-05
2.48343e-06
2.13936e-05
-1.77781e-06
2.0747e-05
6.49494e-07
2.02361e-05
5.20785e-07
2.32987e-05
-3.06203e-06
2.08549e-05
2.44473e-06
2.24302e-05
-1.57822e-06
1.95294e-05
2.8965e-06
2.11755e-05
-1.64274e-06
2.02275e-05
9.48289e-07
2.04951e-05
-2.74707e-07
2.24509e-05
-1.95401e-06
2.15486e-05
9.10926e-07
2.33441e-05
-1.79339e-06
2.20653e-05
1.27869e-06
2.29157e-05
-8.53988e-07
2.00056e-05
2.90859e-06
2.10629e-05
-1.05883e-06
2.18626e-05
-8.02864e-07
2.09901e-05
8.79603e-07
2.37883e-05
-2.7925e-06
2.144e-05
2.3485e-06
2.28072e-05
-1.36389e-06
2.08273e-05
1.9759e-06
2.15971e-05
-7.79225e-07
2.23039e-05
-7.06794e-07
2.1524e-05
7.7851e-07
2.23827e-05
-8.6189e-07
2.07943e-05
1.5973e-06
2.28144e-05
-2.01115e-06
2.05845e-05
2.22737e-06
2.23535e-05
-1.77665e-06
1.97138e-05
2.63664e-06
2.13455e-05
-1.63278e-06
2.01708e-05
1.17543e-06
1.99926e-05
1.86864e-07
2.18048e-05
-1.80755e-06
1.99339e-05
1.86968e-06
2.21128e-05
-2.17784e-06
1.90925e-05
3.01186e-06
2.17055e-05
-2.62102e-06
1.85556e-05
3.15569e-06
2.12307e-05
-2.67443e-06
1.89948e-05
2.23477e-06
1.94422e-05
-4.38836e-07
2.1314e-05
-1.86492e-06
2.05197e-05
7.93934e-07
2.17721e-05
-1.2567e-06
1.88812e-05
2.88632e-06
2.23338e-05
-3.45252e-06
1.97782e-05
2.553e-06
2.26663e-05
-2.89433e-06
2.02745e-05
2.39871e-06
2.25258e-05
-2.24255e-06
2.09528e-05
1.56948e-06
2.12911e-05
-3.38513e-07
2.16302e-05
-3.34783e-07
1.97007e-05
1.92102e-06
2.19209e-05
-2.22759e-06
1.87424e-05
3.1845e-06
2.21619e-05
-3.41612e-06
1.87034e-05
3.45988e-06
2.11009e-05
-2.39808e-06
1.94054e-05
1.69197e-06
2.11573e-05
-1.74891e-06
2.06308e-05
5.3133e-07
1.95888e-05
1.03956e-06
2.11851e-05
-1.59749e-06
1.94283e-05
1.76005e-06
2.15848e-05
-2.15999e-06
1.90259e-05
2.55371e-06
2.14289e-05
-2.4027e-06
1.90345e-05
2.3941e-06
2.18566e-05
-2.82011e-06
2.02415e-05
1.61977e-06
2.14643e-05
-1.2213e-06
2.17173e-05
-2.51966e-07
2.05186e-05
1.19175e-06
2.16365e-05
-1.12358e-06
1.93934e-05
2.2445e-06
2.18706e-05
-2.47782e-06
1.90402e-05
2.83789e-06
2.21402e-05
-3.09179e-06
1.91556e-05
2.98239e-06
2.06485e-05
-1.50017e-06
1.89762e-05
1.66909e-06
1.92309e-05
-2.51154e-07
2.02679e-05
-1.03689e-06
1.92735e-05
9.89237e-07
2.18676e-05
-2.59249e-06
1.96023e-05
2.27193e-06
2.2121e-05
-2.51725e-06
1.98663e-05
2.25618e-06
2.20333e-05
-2.1694e-06
2.00515e-05
1.97682e-06
2.14739e-05
-1.42425e-06
2.04813e-05
9.92158e-07
2.02064e-05
2.81709e-07
2.11993e-05
-9.87043e-07
1.95556e-05
1.64033e-06
2.11137e-05
-1.55945e-06
1.94719e-05
1.644e-06
2.13892e-05
-1.92043e-06
1.87233e-05
2.66216e-06
2.13813e-05
-2.65916e-06
1.96484e-05
1.73142e-06
2.11359e-05
-1.48325e-06
2.05211e-05
6.20224e-07
2.09704e-05
-4.49598e-07
2.15515e-05
-5.8059e-07
1.9927e-05
1.61891e-06
2.11816e-05
-1.26108e-06
1.94973e-05
1.68531e-06
2.0909e-05
-1.41148e-06
1.93317e-05
1.58369e-06
2.15367e-05
-2.19814e-06
1.96054e-05
1.92785e-06
2.17581e-05
-2.15393e-06
2.04207e-05
1.34167e-06
2.11801e-05
-7.6258e-07
2.09935e-05
1.79288e-07
2.10576e-05
-6.5638e-08
2.04972e-05
5.6215e-07
1.993e-05
5.73358e-07
2.15684e-05
-1.63162e-06
1.95875e-05
1.98013e-06
2.13948e-05
-1.81358e-06
1.89e-05
2.48891e-06
2.05372e-05
-1.63878e-06
1.97842e-05
7.59623e-07
2.08836e-05
-1.09273e-06
2.04452e-05
4.37994e-07
2.16433e-05
-1.19708e-06
1.98213e-05
1.81873e-06
2.1023e-05
-1.21114e-06
2.07321e-05
2.86278e-07
2.182e-05
-1.08066e-06
2.09797e-05
8.5076e-07
1.99355e-05
1.03765e-06
2.08348e-05
-9.11792e-07
1.94921e-05
1.34606e-06
1.97118e-05
-2.11662e-07
1.89406e-05
7.70515e-07
2.02477e-05
-1.30938e-06
2.0067e-05
1.80843e-07
2.08568e-05
-7.89932e-07
2.0766e-05
9.07742e-08
2.15408e-05
-7.74829e-07
2.15771e-05
-3.62316e-08
2.2554e-05
-9.76762e-07
2.40063e-05
-1.45159e-06
3.07897e-05
-6.78237e-06
3.06743e-05
1.15905e-07
2.28542e-05
7.82004e-06
2.04979e-05
2.35629e-06
6.86828e-07
8.94817e-05
5.10021e-05
7.65994e-05
3.14668e-05
6.8042e-05
1.5106e-05
6.32813e-05
6.78276e-06
6.03139e-05
3.86221e-06
5.82033e-05
2.74693e-06
5.65594e-05
2.19828e-06
5.5187e-05
1.89511e-06
5.40282e-05
1.65054e-06
5.30422e-05
1.4318e-06
5.21841e-05
1.25747e-06
5.14251e-05
1.12354e-06
5.07532e-05
1.00215e-06
5.01583e-05
8.93199e-07
4.96219e-05
8.08285e-07
4.91339e-05
7.37571e-07
4.86864e-05
6.79386e-07
4.82767e-05
6.24403e-07
4.78994e-05
5.73705e-07
4.75473e-05
5.32526e-07
4.72174e-05
5.00078e-07
4.69083e-05
4.70278e-07
4.66186e-05
4.42179e-07
4.6347e-05
4.15134e-07
4.60909e-05
3.92123e-07
4.58485e-05
3.71718e-07
4.56189e-05
3.5283e-07
4.54008e-05
3.35874e-07
4.51944e-05
3.18148e-07
4.49976e-05
3.03734e-07
4.48099e-05
2.89902e-07
4.46302e-05
2.77986e-07
4.44584e-05
2.66252e-07
4.42939e-05
2.55184e-07
4.41363e-05
2.44441e-07
4.39849e-05
2.35208e-07
4.38391e-05
2.26725e-07
4.36988e-05
2.18283e-07
4.35634e-05
2.11086e-07
4.34331e-05
2.03009e-07
4.33073e-05
1.96337e-07
4.31857e-05
1.89831e-07
4.3068e-05
1.83781e-07
4.29539e-05
1.78368e-07
4.28436e-05
1.7255e-07
4.27367e-05
1.67422e-07
4.26332e-05
1.62018e-07
4.25324e-05
1.57877e-07
4.24347e-05
1.53131e-07
4.23396e-05
1.49149e-07
4.22472e-05
1.45071e-07
4.21574e-05
1.40939e-07
4.207e-05
1.37204e-07
4.1985e-05
1.33597e-07
4.19021e-05
1.30253e-07
4.18213e-05
1.27056e-07
4.17426e-05
1.23776e-07
4.16659e-05
1.21097e-07
4.15915e-05
1.17825e-07
4.15189e-05
1.14986e-07
4.14483e-05
1.11946e-07
4.13794e-05
1.09153e-07
4.13123e-05
1.06326e-07
4.12468e-05
1.03681e-07
4.11832e-05
1.00754e-07
4.11212e-05
9.82e-08
4.1061e-05
9.54515e-08
4.10024e-05
9.28024e-08
4.09455e-05
9.01138e-08
4.08904e-05
8.71452e-08
4.08372e-05
8.42079e-08
4.07858e-05
8.10579e-08
4.07366e-05
7.78085e-08
4.06894e-05
7.43187e-08
4.06445e-05
7.07497e-08
4.06022e-05
6.61618e-08
4.05625e-05
6.23262e-08
4.05261e-05
5.6412e-08
4.04929e-05
5.16215e-08
4.0464e-05
4.39696e-08
4.04388e-05
3.8347e-08
4.042e-05
2.7276e-08
4.04052e-05
2.08801e-08
4.04003e-05
3.91734e-09
4.04008e-05
-3.77746e-09
4.04118e-05
-2.22094e-08
4.04327e-05
-3.87613e-08
4.04715e-05
-6.93389e-08
4.05213e-05
-8.72756e-08
4.0602e-05
-1.37639e-07
4.06983e-05
-1.64247e-07
4.08444e-05
-2.47534e-07
4.10189e-05
-2.93001e-07
4.12788e-05
-4.40683e-07
4.1602e-05
-5.48316e-07
4.21165e-05
-8.90228e-07
4.27292e-05
-9.75089e-07
4.44651e-05
-3.18597e-06
4.59339e-05
-2.32449e-06
3.66389e-05
1.86327e-05
2.8661e-05
1.30447e-05
2.88646e-05
-2.58715e-06
2.9424e-05
-1.52872e-06
2.98875e-05
-1.07869e-06
3.0415e-05
-1.00174e-06
3.08919e-05
-8.8182e-07
3.12222e-05
-5.55061e-07
3.19809e-05
-1.37747e-06
3.17682e-05
5.77813e-07
3.18224e-05
7.83666e-08
3.32032e-05
-2.78379e-06
3.29017e-05
9.79069e-07
3.33334e-05
-8.98071e-07
3.36971e-05
-8.57234e-07
3.30765e-05
1.57214e-06
3.36812e-05
-1.42175e-06
3.31767e-05
1.31968e-06
3.36922e-05
-1.21683e-06
3.33902e-05
7.68142e-07
3.34079e-05
-7.18173e-08
3.36013e-05
-6.43691e-07
3.36432e-05
2.91605e-07
3.46446e-05
-2.15727e-06
3.30483e-05
3.63472e-06
3.39737e-05
-2.28988e-06
3.35474e-05
1.08727e-06
3.37146e-05
-3.86117e-08
3.50339e-05
-3.16645e-06
3.39739e-05
2.62304e-06
3.53596e-05
-3.18746e-06
3.34083e-05
4.45757e-06
3.38758e-05
-1.47227e-06
3.368e-05
4.95967e-07
3.35882e-05
6.60649e-07
3.45516e-05
-2.52879e-06
3.37371e-05
2.0796e-06
3.59305e-05
-4.813e-06
3.44656e-05
3.68831e-06
3.54144e-05
-2.3964e-06
3.4386e-05
2.21896e-06
3.32765e-05
2.64923e-06
3.47831e-05
-3.88267e-06
3.3588e-05
2.9502e-06
3.53521e-05
-4.00356e-06
3.35067e-05
4.33138e-06
3.45855e-05
-2.8629e-06
3.41648e-05
1.07975e-06
3.43308e-05
3.77884e-07
3.67034e-05
-5.43146e-06
3.5025e-05
4.12416e-06
3.60473e-05
-2.61017e-06
3.37062e-05
5.22401e-06
3.47422e-05
-2.67606e-06
3.39616e-05
1.72781e-06
3.42093e-05
-5.34477e-07
3.57382e-05
-3.4748e-06
3.55e-05
1.1702e-06
3.71724e-05
-3.46021e-06
3.6531e-05
1.9183e-06
3.70612e-05
-1.3957e-06
3.47958e-05
5.16474e-06
3.51393e-05
-1.40812e-06
3.5321e-05
-9.88528e-07
3.51835e-05
1.03368e-06
3.75687e-05
-5.16371e-06
3.59922e-05
3.92773e-06
3.68922e-05
-2.25807e-06
3.54872e-05
3.37113e-06
3.59021e-05
-1.21562e-06
3.63559e-05
-1.16436e-06
3.61539e-05
9.76873e-07
3.63446e-05
-1.0567e-06
3.49996e-05
2.96182e-06
3.6465e-05
-3.4558e-06
3.47381e-05
3.95343e-06
3.59281e-05
-2.98341e-06
3.3861e-05
4.69193e-06
3.48038e-05
-2.58077e-06
3.3874e-05
2.10593e-06
3.3856e-05
2.22518e-07
3.46999e-05
-2.63862e-06
3.35266e-05
3.04404e-06
3.51318e-05
-3.78135e-06
3.27092e-05
5.41838e-06
3.45746e-05
-4.50299e-06
3.2195e-05
5.54221e-06
3.41374e-05
-4.61812e-06
3.25507e-05
3.81846e-06
3.25829e-05
-4.54423e-07
3.38209e-05
-3.08766e-06
3.41189e-05
4.96165e-07
3.47774e-05
-1.92601e-06
3.24471e-05
5.20401e-06
3.52893e-05
-6.29694e-06
3.36095e-05
4.22796e-06
3.58265e-05
-5.12e-06
3.43199e-05
3.9207e-06
3.60798e-05
-3.98404e-06
3.52447e-05
2.40143e-06
3.53863e-05
-4.79098e-07
3.4838e-05
2.2081e-07
3.37024e-05
3.03958e-06
3.50966e-05
-3.63808e-06
3.23782e-05
5.91026e-06
3.50113e-05
-6.04571e-06
3.24408e-05
6.0314e-06
3.40348e-05
-3.9941e-06
3.28487e-05
2.87202e-06
3.40737e-05
-2.96582e-06
3.38497e-05
7.68423e-07
3.34242e-05
1.46431e-06
3.39793e-05
-2.15228e-06
3.26495e-05
3.09563e-06
3.44288e-05
-3.95e-06
3.25032e-05
4.46491e-06
3.42153e-05
-4.11631e-06
3.25227e-05
4.08615e-06
3.46857e-05
-4.97564e-06
3.37312e-05
2.58781e-06
3.47965e-05
-2.28197e-06
3.51852e-05
-6.3978e-07
3.47249e-05
1.63738e-06
3.49563e-05
-1.36874e-06
3.30982e-05
4.10268e-06
3.49212e-05
-4.30158e-06
3.26003e-05
5.1734e-06
3.48402e-05
-5.31364e-06
3.26966e-05
5.12582e-06
3.36388e-05
-2.45726e-06
3.23936e-05
2.9032e-06
3.23025e-05
-1.5744e-07
3.26765e-05
-1.41279e-06
3.2473e-05
1.18399e-06
3.45093e-05
-4.62087e-06
3.29014e-05
3.89655e-06
3.49055e-05
-4.51676e-06
3.35196e-05
3.64438e-06
3.51656e-05
-3.82435e-06
3.38595e-05
3.26815e-06
3.47652e-05
-2.33586e-06
3.42608e-05
1.49516e-06
3.41883e-05
3.68076e-07
3.4188e-05
-9.71824e-07
3.29767e-05
2.8498e-06
3.3873e-05
-2.45562e-06
3.26314e-05
2.88961e-06
3.41878e-05
-3.48625e-06
3.21169e-05
4.72164e-06
3.41167e-05
-4.66362e-06
3.30375e-05
2.80738e-06
3.41965e-05
-2.63165e-06
3.40476e-05
7.83967e-07
3.4484e-05
-8.83518e-07
3.45713e-05
-6.66515e-07
3.35738e-05
2.60462e-06
3.435e-05
-2.0528e-06
3.29829e-05
3.0507e-06
3.3808e-05
-2.23685e-06
3.25034e-05
2.90104e-06
3.42136e-05
-3.89272e-06
3.29423e-05
3.19686e-06
3.46153e-05
-3.8272e-06
3.38848e-05
2.07899e-06
3.45409e-05
-1.42922e-06
3.45273e-05
1.74354e-07
3.46347e-05
-1.78842e-07
3.39417e-05
1.25869e-06
3.35642e-05
9.65046e-07
3.44997e-05
-2.55074e-06
3.29549e-05
3.5261e-06
3.4335e-05
-3.20844e-06
3.23426e-05
4.46588e-06
3.33591e-05
-2.65938e-06
3.29046e-05
1.2279e-06
3.36317e-05
-1.80419e-06
3.35571e-05
5.14395e-07
3.4656e-05
-2.29444e-06
3.33384e-05
3.12846e-06
3.42136e-05
-2.10625e-06
3.41609e-05
3.30088e-07
3.50443e-05
-1.94824e-06
3.45149e-05
1.40195e-06
3.37723e-05
1.76874e-06
3.40654e-05
-1.22982e-06
3.28715e-05
2.54342e-06
3.26032e-05
7.18578e-08
3.17261e-05
1.64886e-06
3.2702e-05
-2.28803e-06
3.28581e-05
2.55364e-08
3.35953e-05
-1.52649e-06
3.38447e-05
-1.5785e-07
3.45618e-05
-1.49126e-06
3.51272e-05
-6.00965e-07
3.59499e-05
-1.79869e-06
3.83421e-05
-3.84261e-06
4.62186e-05
-1.46574e-05
4.78656e-05
-1.53085e-06
4.11736e-05
1.45119e-05
3.68281e-05
6.70171e-06
2.65967e-06
9.94287e-05
5.28234e-05
9.34365e-05
3.7459e-05
8.60997e-05
2.24429e-05
8.00867e-05
1.27957e-05
7.57095e-05
8.23943e-06
7.24369e-05
6.01949e-06
6.99182e-05
4.71697e-06
6.79141e-05
3.89917e-06
6.62808e-05
3.28388e-06
6.49103e-05
2.80233e-06
6.37256e-05
2.44215e-06
6.2691e-05
2.15812e-06
6.17843e-05
1.90885e-06
6.0986e-05
1.69152e-06
6.02685e-05
1.52581e-06
5.96186e-05
1.38744e-06
5.9027e-05
1.27098e-06
5.84879e-05
1.16347e-06
5.79938e-05
1.06786e-06
5.7535e-05
9.91303e-07
5.71075e-05
9.27597e-07
5.67087e-05
8.69058e-07
5.63363e-05
8.14598e-07
5.59877e-05
7.63739e-07
5.56595e-05
7.20347e-07
5.53495e-05
6.81629e-07
5.50567e-05
6.45662e-07
5.47792e-05
6.13355e-07
5.45168e-05
5.80589e-07
5.42669e-05
5.53587e-07
5.4029e-05
5.27863e-07
5.38017e-05
5.05281e-07
5.35846e-05
4.83379e-07
5.3377e-05
4.62704e-07
5.31784e-05
4.43079e-07
5.29877e-05
4.25871e-07
5.28043e-05
4.10117e-07
5.26281e-05
3.94478e-07
5.24583e-05
3.80937e-07
5.2295e-05
3.66332e-07
5.21374e-05
3.53941e-07
5.19851e-05
3.42069e-07
5.18381e-05
3.30852e-07
5.16956e-05
3.20845e-07
5.15579e-05
3.102e-07
5.14245e-05
3.00824e-07
5.12955e-05
2.9106e-07
5.117e-05
2.83323e-07
5.10484e-05
2.74761e-07
5.09302e-05
2.67374e-07
5.08153e-05
2.59937e-07
5.07038e-05
2.52499e-07
5.05953e-05
2.4568e-07
5.04897e-05
2.3917e-07
5.0387e-05
2.33014e-07
5.02868e-05
2.27236e-07
5.01893e-05
2.21259e-07
5.00943e-05
2.16037e-07
5.00022e-05
2.10013e-07
4.99123e-05
2.04882e-07
4.98248e-05
1.99453e-07
4.97394e-05
1.94475e-07
4.96564e-05
1.89374e-07
4.95754e-05
1.84683e-07
4.94967e-05
1.79473e-07
4.94199e-05
1.74945e-07
4.93453e-05
1.70031e-07
4.92728e-05
1.65394e-07
4.92023e-05
1.6057e-07
4.9134e-05
1.5548e-07
4.90679e-05
1.5023e-07
4.90041e-05
1.44862e-07
4.89428e-05
1.39099e-07
4.8884e-05
1.33171e-07
4.88279e-05
1.26888e-07
4.87748e-05
1.19218e-07
4.87248e-05
1.12371e-07
4.86785e-05
1.02639e-07
4.8636e-05
9.41464e-08
4.85984e-05
8.15698e-08
4.85651e-05
7.16186e-08
4.85389e-05
5.35454e-08
4.85177e-05
4.20765e-08
4.85068e-05
1.47452e-08
4.85033e-05
-1.9795e-10
4.85119e-05
-3.08065e-08
4.85306e-05
-5.75224e-08
4.85689e-05
-1.07662e-07
4.86208e-05
-1.39182e-07
4.87065e-05
-2.2328e-07
4.88104e-05
-2.68155e-07
4.89681e-05
-4.0524e-07
4.91589e-05
-4.83775e-07
4.94407e-05
-7.22521e-07
4.97912e-05
-8.98852e-07
5.03445e-05
-1.44346e-06
5.10112e-05
-1.64185e-06
5.27559e-05
-4.93069e-06
5.38922e-05
-3.46056e-06
4.6584e-05
2.59407e-05
3.85902e-05
2.10371e-05
3.65694e-05
-5.68074e-07
3.64238e-05
-1.38469e-06
3.65115e-05
-1.16802e-06
3.68669e-05
-1.35889e-06
3.72401e-05
-1.25683e-06
3.75643e-05
-8.80924e-07
3.82832e-05
-2.09905e-06
3.81807e-05
6.81059e-07
3.83289e-05
-7.26859e-08
3.94856e-05
-3.9568e-06
3.94738e-05
9.86029e-07
3.98103e-05
-1.21191e-06
4.01241e-05
-1.14885e-06
3.98562e-05
1.84763e-06
4.01537e-05
-1.71719e-06
3.99075e-05
1.54261e-06
4.02832e-05
-1.63122e-06
4.01595e-05
8.89077e-07
4.01261e-05
-3.40074e-09
4.01811e-05
-6.71388e-07
4.03929e-05
8.34123e-08
4.10615e-05
-2.82308e-06
4.00476e-05
4.63007e-06
4.06223e-05
-2.89929e-06
4.05315e-05
1.16869e-06
4.06361e-05
-1.45848e-07
4.1436e-05
-3.94871e-06
4.11208e-05
2.97062e-06
4.18714e-05
-3.93611e-06
4.0532e-05
5.80221e-06
4.06796e-05
-1.60605e-06
4.06363e-05
5.19035e-07
4.0564e-05
6.99151e-07
4.10661e-05
-3.0436e-06
4.09605e-05
2.18075e-06
4.24585e-05
-6.29101e-06
4.16329e-05
4.54771e-06
4.21483e-05
-2.91233e-06
4.15822e-05
2.78057e-06
4.07473e-05
3.49969e-06
4.13319e-05
-4.46022e-06
4.08569e-05
3.39526e-06
4.19206e-05
-5.09695e-06
4.07454e-05
5.50649e-06
4.14155e-05
-3.54158e-06
4.14037e-05
1.10929e-06
4.16447e-05
1.73268e-07
4.31231e-05
-6.90262e-06
4.24284e-05
4.81939e-06
4.2733e-05
-2.93311e-06
4.12041e-05
6.73027e-06
4.16942e-05
-3.16515e-06
4.13014e-05
2.11597e-06
4.1408e-05
-6.56553e-07
4.23594e-05
-4.40986e-06
4.27143e-05
8.48585e-07
4.39804e-05
-4.71635e-06
4.38593e-05
2.03553e-06
4.40725e-05
-1.62997e-06
4.23995e-05
6.8201e-06
4.23709e-05
-1.38909e-06
4.25e-05
-1.12139e-06
4.27136e-05
8.46095e-07
4.43011e-05
-6.72872e-06
4.35341e-05
4.70141e-06
4.39634e-05
-2.67971e-06
4.29969e-05
4.32028e-06
4.31511e-05
-1.40353e-06
4.35909e-05
-1.61309e-06
4.35843e-05
9.76873e-07
4.34856e-05
-9.61797e-07
4.26871e-05
3.79118e-06
4.3351e-05
-4.08676e-06
4.22964e-05
5.00796e-06
4.27595e-05
-3.47243e-06
4.13357e-05
6.09555e-06
4.17966e-05
-3.05189e-06
4.12933e-05
2.61061e-06
4.10555e-05
4.88298e-07
4.13125e-05
-2.87431e-06
4.0841e-05
3.51882e-06
4.16184e-05
-4.55718e-06
4.00995e-05
6.91307e-06
4.09377e-05
-5.36588e-06
3.95338e-05
6.9527e-06
4.06882e-05
-5.77688e-06
3.97707e-05
4.7327e-06
3.96195e-05
-2.77332e-07
4.04033e-05
-3.84814e-06
4.08201e-05
7.99995e-08
4.12047e-05
-2.32887e-06
4.00333e-05
6.35391e-06
4.16531e-05
-7.92229e-06
4.09666e-05
4.9073e-06
4.22943e-05
-6.45721e-06
4.16086e-05
4.63064e-06
4.28384e-05
-5.18562e-06
4.24311e-05
2.8077e-06
4.23405e-05
-3.85298e-07
4.19988e-05
5.71027e-07
4.12961e-05
3.71637e-06
4.16962e-05
-4.06302e-06
4.00457e-05
7.56754e-06
4.13653e-05
-7.36228e-06
3.98234e-05
7.57386e-06
4.06107e-05
-4.78536e-06
3.99234e-05
3.55172e-06
4.07509e-05
-3.77903e-06
4.08495e-05
6.9142e-07
4.04707e-05
1.84566e-06
4.04741e-05
-2.15327e-06
3.98188e-05
3.7577e-06
4.08188e-05
-4.96835e-06
3.97393e-05
5.52058e-06
4.05314e-05
-4.9128e-06
3.96818e-05
4.93564e-06
4.11113e-05
-6.39121e-06
4.07087e-05
3.01287e-06
4.14866e-05
-3.05133e-06
4.2083e-05
-1.23621e-06
4.18735e-05
1.82327e-06
4.17055e-05
-1.22219e-06
4.06423e-05
5.16386e-06
4.14441e-05
-5.10382e-06
4.003e-05
6.61095e-06
4.11838e-05
-6.43976e-06
3.98551e-05
6.45488e-06
4.02776e-05
-2.90245e-06
3.94386e-05
3.72346e-06
3.91583e-05
1.22992e-07
3.92424e-05
-1.50136e-06
3.93296e-05
1.086e-06
4.06962e-05
-5.97285e-06
4.00244e-05
4.59524e-06
4.11779e-05
-5.66148e-06
4.06056e-05
4.21906e-06
4.16467e-05
-4.88197e-06
4.09479e-05
3.94219e-06
4.15187e-05
-2.91784e-06
4.12878e-05
1.7242e-06
4.11156e-05
5.62504e-07
4.09812e-05
-8.13359e-07
4.02429e-05
3.58932e-06
4.04087e-05
-2.61903e-06
3.96725e-05
3.63036e-06
4.05386e-05
-4.36848e-06
3.93308e-05
5.90983e-06
4.04836e-05
-5.8257e-06
4.00013e-05
3.28531e-06
4.08239e-05
-3.43621e-06
4.09023e-05
7.2999e-07
4.11718e-05
-1.14643e-06
4.13001e-05
-7.93134e-07
4.07737e-05
3.11178e-06
4.09542e-05
-2.25807e-06
4.00942e-05
3.90533e-06
4.03728e-05
-2.51591e-06
3.954e-05
3.75413e-06
4.05489e-05
-4.87709e-06
3.99616e-05
3.78443e-06
4.10619e-05
-4.92603e-06
4.07872e-05
2.36144e-06
4.12594e-05
-1.9203e-06
4.13599e-05
4.35499e-08
4.14068e-05
-2.35925e-07
4.1012e-05
1.65893e-06
4.07566e-05
1.24279e-06
4.10433e-05
-2.81139e-06
4.01324e-05
4.439e-06
4.07703e-05
-3.86998e-06
3.94717e-05
5.73991e-06
3.99271e-05
-3.12024e-06
3.97591e-05
1.41734e-06
4.0176e-05
-2.19675e-06
4.03399e-05
3.55377e-07
4.11148e-05
-3.06783e-06
4.0343e-05
3.88639e-06
4.08695e-05
-2.663e-06
4.10195e-05
1.67219e-07
4.16935e-05
-2.59753e-06
4.1447e-05
1.68083e-06
4.08851e-05
2.31286e-06
4.07392e-05
-1.12098e-06
3.98644e-05
3.42314e-06
3.93456e-05
6.12721e-07
3.85639e-05
2.43273e-06
3.91248e-05
-2.85163e-06
3.9489e-05
-3.36252e-07
4.0087e-05
-2.12261e-06
4.05471e-05
-6.16084e-07
4.11465e-05
-2.08888e-06
4.20043e-05
-1.457e-06
4.27201e-05
-2.51282e-06
4.52983e-05
-6.41872e-06
5.25714e-05
-2.19287e-05
5.52201e-05
-4.17917e-06
5.09918e-05
1.874e-05
4.63348e-05
1.13588e-05
5.45745e-06
0.000102569
5.15048e-05
0.00010099
3.90381e-05
9.72211e-05
2.62113e-05
9.20747e-05
1.79422e-05
8.73721e-05
1.2942e-05
8.34179e-05
9.97369e-06
8.01889e-05
7.94596e-06
7.75791e-05
6.50896e-06
7.54536e-05
5.40943e-06
7.36819e-05
4.57401e-06
7.2183e-05
3.94099e-06
7.08943e-05
3.44683e-06
6.97719e-05
3.03131e-06
6.87849e-05
2.6785e-06
6.78983e-05
2.4124e-06
6.70986e-05
2.18716e-06
6.63751e-05
1.99448e-06
6.57184e-05
1.8202e-06
6.51175e-05
1.66873e-06
6.45613e-05
1.5475e-06
6.40455e-05
1.44342e-06
6.35665e-05
1.34807e-06
6.31205e-05
1.26052e-06
6.27036e-05
1.18065e-06
6.23117e-05
1.11227e-06
6.19425e-05
1.0508e-06
6.15946e-05
9.93611e-07
6.12657e-05
9.42229e-07
6.09549e-05
8.91382e-07
6.06594e-05
8.49109e-07
6.03784e-05
8.08903e-07
6.01104e-05
7.73193e-07
5.9855e-05
7.38846e-07
5.96112e-05
7.06526e-07
5.93779e-05
6.76344e-07
5.91543e-05
6.49503e-07
5.89395e-05
6.24917e-07
5.87333e-05
6.00592e-07
5.8535e-05
5.79299e-07
5.83443e-05
5.56981e-07
5.81605e-05
5.37743e-07
5.79831e-05
5.19459e-07
5.78119e-05
5.02048e-07
5.76463e-05
4.86481e-07
5.74864e-05
4.70094e-07
5.73316e-05
4.55668e-07
5.71818e-05
4.408e-07
5.70364e-05
4.28719e-07
5.68955e-05
4.15662e-07
5.67587e-05
4.04187e-07
5.66259e-05
3.92755e-07
5.6497e-05
3.81448e-07
5.63716e-05
3.70998e-07
5.62497e-05
3.61073e-07
5.61312e-05
3.51586e-07
5.60156e-05
3.4276e-07
5.59033e-05
3.33601e-07
5.57939e-05
3.25484e-07
5.56875e-05
3.16356e-07
5.55838e-05
3.08561e-07
5.54829e-05
3.00361e-07
5.53846e-05
2.92842e-07
5.52888e-05
2.85086e-07
5.51955e-05
2.78016e-07
5.51048e-05
2.70185e-07
5.50164e-05
2.63377e-07
5.49304e-05
2.55971e-07
5.48468e-05
2.4906e-07
5.47656e-05
2.41777e-07
5.46867e-05
2.34303e-07
5.46105e-05
2.26424e-07
5.45368e-05
2.18591e-07
5.44659e-05
2.10007e-07
5.43977e-05
2.01384e-07
5.43325e-05
1.9208e-07
5.42706e-05
1.81075e-07
5.42121e-05
1.70868e-07
5.41577e-05
1.57081e-07
5.41073e-05
1.44512e-07
5.40622e-05
1.26745e-07
5.40217e-05
1.12028e-07
5.39886e-05
8.67015e-08
5.39612e-05
6.95157e-08
5.39439e-05
3.197e-08
5.39351e-05
8.58443e-09
5.39399e-05
-3.55285e-08
5.39544e-05
-7.20808e-08
5.39888e-05
-1.42003e-07
5.40382e-05
-1.88635e-07
5.41222e-05
-3.07212e-07
5.42258e-05
-3.71763e-07
5.43835e-05
-5.63009e-07
5.45761e-05
-6.76317e-07
5.48607e-05
-1.00713e-06
5.52143e-05
-1.25246e-06
5.57684e-05
-1.99752e-06
5.64393e-05
-2.31279e-06
5.8103e-05
-6.59447e-06
5.88183e-05
-4.1756e-06
5.33232e-05
3.14355e-05
4.61742e-05
2.81842e-05
4.27086e-05
2.89471e-06
4.18352e-05
-5.14457e-07
4.14832e-05
-8.19462e-07
4.15733e-05
-1.45272e-06
4.17652e-05
-1.45287e-06
4.2021e-05
-1.14061e-06
4.26212e-05
-2.70471e-06
4.25968e-05
7.03571e-07
4.27854e-05
-2.66251e-07
4.36536e-05
-4.847e-06
4.38405e-05
7.89046e-07
4.41545e-05
-1.49748e-06
4.44151e-05
-1.37585e-06
4.43671e-05
1.91131e-06
4.4472e-05
-1.81516e-06
4.44075e-05
1.57884e-06
4.46537e-05
-1.93278e-06
4.46337e-05
8.95824e-07
4.46252e-05
4.79624e-08
4.46438e-05
-6.48695e-07
4.49088e-05
-1.68619e-07
4.52235e-05
-3.12841e-06
4.47054e-05
5.12412e-06
4.50282e-05
-3.2725e-06
4.51033e-05
1.07382e-06
4.52571e-05
-3.08441e-07
4.5707e-05
-4.37512e-06
4.58417e-05
2.8841e-06
4.6113e-05
-4.19536e-06
4.52776e-05
6.65134e-06
4.52329e-05
-1.54143e-06
4.52606e-05
4.62418e-07
4.52572e-05
6.52525e-07
4.545e-05
-3.26039e-06
4.57429e-05
1.877e-06
4.66548e-05
-7.17538e-06
4.63628e-05
4.89056e-06
4.66249e-05
-3.16468e-06
4.62904e-05
3.1178e-06
4.57081e-05
4.10411e-06
4.57569e-05
-4.50139e-06
4.57451e-05
3.36651e-06
4.61781e-05
-5.5732e-06
4.55795e-05
6.09754e-06
4.5973e-05
-3.95059e-06
4.62128e-05
8.93141e-07
4.65611e-05
-1.22527e-07
4.73134e-05
-7.63759e-06
4.72461e-05
4.89352e-06
4.71468e-05
-2.8586e-06
4.62066e-05
7.63247e-06
4.63277e-05
-3.29206e-06
4.61462e-05
2.28858e-06
4.62394e-05
-7.72392e-07
4.6866e-05
-5.0144e-06
4.75035e-05
2.59568e-07
4.83916e-05
-5.58514e-06
4.86432e-05
1.78466e-06
4.86246e-05
-1.63852e-06
4.74302e-05
7.98269e-06
4.72307e-05
-1.21235e-06
4.73953e-05
-1.29417e-06
4.78002e-05
4.77522e-07
4.86724e-05
-7.56529e-06
4.84892e-05
4.89992e-06
4.85989e-05
-2.7753e-06
4.7976e-05
4.92007e-06
4.79975e-05
-1.4746e-06
4.83546e-05
-1.99027e-06
4.84354e-05
8.81157e-07
4.82243e-05
-7.57161e-07
4.7866e-05
4.19071e-06
4.79098e-05
-4.08053e-06
4.74412e-05
5.48673e-06
4.73541e-05
-3.4174e-06
4.64126e-05
7.0045e-06
4.65084e-05
-3.1673e-06
4.61742e-05
2.94198e-06
4.59182e-05
7.7943e-07
4.59475e-05
-2.86896e-06
4.5811e-05
3.66897e-06
4.58531e-05
-4.59404e-06
4.51663e-05
7.56726e-06
4.51861e-05
-5.42334e-06
4.44906e-05
7.6509e-06
4.50537e-05
-6.34795e-06
4.45379e-05
5.24176e-06
4.43639e-05
-7.06229e-08
4.49097e-05
-4.36048e-06
4.5399e-05
-4.03796e-07
4.54953e-05
-2.44753e-06
4.51148e-05
6.70281e-06
4.57571e-05
-8.57866e-06
4.58331e-05
4.81665e-06
4.65104e-05
-7.14747e-06
4.64421e-05
4.7326e-06
4.72365e-05
-5.93829e-06
4.71135e-05
2.93692e-06
4.69748e-05
-2.36512e-07
4.67759e-05
7.82519e-07
4.6373e-05
4.08424e-06
4.60898e-05
-3.81716e-06
4.53165e-05
8.34236e-06
4.55671e-05
-7.61498e-06
4.47948e-05
8.34309e-06
4.50017e-05
-4.99828e-06
4.47038e-05
3.84059e-06
4.52359e-05
-4.29024e-06
4.54011e-05
5.59e-07
4.51281e-05
2.12868e-06
4.49743e-05
-1.99063e-06
4.47672e-05
3.97528e-06
4.49946e-05
-5.22252e-06
4.45808e-05
5.89835e-06
4.47412e-05
-5.08472e-06
4.44856e-05
5.18695e-06
4.53452e-05
-7.23153e-06
4.5342e-05
3.05025e-06
4.59411e-05
-3.63389e-06
4.65242e-05
-1.81581e-06
4.64797e-05
1.83746e-06
4.62147e-05
-9.89654e-07
4.57238e-05
5.64672e-06
4.56782e-05
-5.06175e-06
4.50811e-05
7.23659e-06
4.54429e-05
-6.76061e-06
4.46969e-05
7.20974e-06
4.47113e-05
-2.94492e-06
4.41176e-05
4.28736e-06
4.38037e-05
4.29909e-07
4.38032e-05
-1.51219e-06
4.40439e-05
8.29851e-07
4.47668e-05
-6.6737e-06
4.47475e-05
4.65422e-06
4.52501e-05
-6.14705e-06
4.52828e-05
4.19368e-06
4.58594e-05
-5.4814e-06
4.56233e-05
4.14048e-06
4.59446e-05
-3.26003e-06
4.58487e-05
1.81286e-06
4.568e-05
7.59431e-07
4.55058e-05
-6.02309e-07
4.50908e-05
4.01359e-06
4.48779e-05
-2.39736e-06
4.455e-05
3.96632e-06
4.46823e-05
-4.52418e-06
4.41808e-05
6.38047e-06
4.47215e-05
-6.38414e-06
4.46602e-05
3.33635e-06
4.5205e-05
-3.95717e-06
4.54092e-05
5.62517e-07
4.56275e-05
-1.34951e-06
4.57315e-05
-8.90423e-07
4.54587e-05
3.35995e-06
4.52927e-05
-2.129e-06
4.48634e-05
4.32092e-06
4.47123e-05
-2.36953e-06
4.44033e-05
4.08889e-06
4.47703e-05
-5.20758e-06
4.46638e-05
3.89845e-06
4.53114e-05
-5.56646e-06
4.53608e-05
2.32321e-06
4.56747e-05
-2.26088e-06
4.5843e-05
-1.70961e-07
4.58867e-05
-3.02128e-07
4.56138e-05
1.93467e-06
4.5462e-05
1.42463e-06
4.54403e-05
-2.75043e-06
4.50025e-05
4.88716e-06
4.49995e-05
-3.89554e-06
4.42745e-05
6.42756e-06
4.43271e-05
-3.18694e-06
4.4376e-05
1.39436e-06
4.45894e-05
-2.37443e-06
4.48935e-05
6.36076e-08
4.53275e-05
-3.49617e-06
4.49797e-05
4.21599e-06
4.52546e-05
-2.97996e-06
4.55488e-05
-1.4788e-07
4.60703e-05
-3.09134e-06
4.5948e-05
1.84662e-06
4.55074e-05
2.738e-06
4.5172e-05
-8.33782e-07
4.45884e-05
4.00423e-06
4.38982e-05
1.329e-06
4.32617e-05
3.07678e-06
4.35207e-05
-3.11054e-06
4.39649e-05
-7.7518e-07
4.44207e-05
-2.5742e-06
4.49936e-05
-1.18468e-06
4.54983e-05
-2.58947e-06
4.65317e-05
-2.48658e-06
4.72229e-05
-3.20048e-06
4.99061e-05
-9.09819e-06
5.63228e-05
-2.83424e-05
5.92347e-05
-7.09025e-06
5.68391e-05
2.11354e-05
5.26883e-05
1.55096e-05
8.45671e-06
0.000103461
4.92934e-05
0.000103822
3.86774e-05
0.000102648
2.73852e-05
9.99309e-05
2.06595e-05
9.61977e-05
1.66751e-05
9.24624e-05
1.3709e-05
8.90194e-05
1.1389e-05
8.59781e-05
9.55027e-06
8.33919e-05