/*--------------------------------*- C++ -*----------------------------------*\
| =========                 |                                                 |
| \\      /  F ield         | foam-extend: Open Source CFD                    |
|  \\    /   O peration     | Version:     3.2                                |
|   \\  /    A nd           | Web:         http://www.foam-extend.org         |
|    \\/     M anipulation  | For copyright notice see file Copyright         |
\*---------------------------------------------------------------------------*/
FoamFile
{
    version     2.0;
    format      ascii;
    class       areaVectorField;
    location    "160";
    object      PointNormalVector;
}
// * * * * * * * * * * * * * * * * * * * * * * * * * * * * * * * * * * * * * //

dimensions      [0 0 0 0 0 0 0];

internalField   nonuniform List<vector> 
300
(
(-0 -0 0.001)
(-0 -0 0.001)
(-0 -0 0.001)
(-0 -0 0.001)
(-0 -0 0.001)
(-0 -0 0.001)
(-0 -0 0.001)
(-0 -0 0.001)
(-0 -0 0.001)
(-0 -0 0.001)
(-0 -0 0.001)
(-0 -0 0.001)
(-0 -0 0.001)
(-0 -0 0.001)
(-0 -0 0.001)
(-0 -0 0.001)
(-0 -0 0.001)
(-0 -0 0.001)
(-0 -0 0.001)
(-0 -0 0.001)
(-0 -0 0.001)
(-0 -0 0.001)
(-0 -0 0.001)
(-0 -0 0.001)
(-0 -0 0.001)
(-0 -0 0.001)
(-0 -0 0.001)
(-0 -0 0.001)
(-0 -0 0.001)
(-0 -0 0.001)
(-0 -0 0.001)
(-0 -0 0.001)
(-0 -0 0.001)
(-0 -0 0.001)
(-0 -0 0.001)
(-0 -0 0.001)
(-0 -0 0.001)
(-0 -0 0.001)
(-0 -0 0.001)
(-0 -0 0.001)
(-0 -0 0.001)
(-0 -0 0.001)
(-0 -0 0.001)
(-0 -0 0.001)
(-0 -0 0.001)
(-0 -0 0.001)
(-0 -0 0.001)
(-0 -0 0.001)
(-0 -0 0.001)
(-0 -0 0.001)
(-0 -0 0.001)
(-0 -0 0.001)
(-0 -0 0.001)
(-0 -0 0.001)
(-0 -0 0.001)
(-0 -0 0.001)
(-0 -0 0.001)
(-0 -0 0.001)
(-0 -0 0.001)
(-0 -0 0.001)
(-0 -0 0.001)
(-0 -0 0.001)
(-0 -0 0.001)
(-0 -0 0.001)
(-0 -0 0.001)
(-0 -0 0.001)
(-0 -0 0.001)
(-0 -0 0.001)
(-0 -0 0.001)
(-0 -0 0.001)
(-0 -0 0.001)
(-0 -0 0.001)
(-0 -0 0.001)
(-0 -0 0.001)
(-0 -0 0.001)
(-0 -0 0.001)
(-0 -0 0.001)
(-0 -0 0.001)
(-0 -0 0.001)
(-0 -0 0.001)
(-0 -0 0.001)
(-0 -0 0.001)
(-0 -0 0.001)
(-0 -0 0.001)
(-0 -0 0.001)
(-0 -0 0.001)
(-0 -0 0.001)
(-0 -0 0.001)
(-0 -0 0.001)
(-0 -0 0.001)
(-0 -0 0.001)
(-0 -0 0.001)
(-0 -0 0.001)
(-0 -0 0.001)
(-0 -0 0.001)
(-0 -0 0.001)
(-0 -0 0.001)
(-0 -0 0.001)
(-0 -0 0.001)
(9.76659e-05 -0 0.001)
(0.000132573 -0 0.001)
(8.20275e-05 -0 0.001)
(7.53635e-05 -6.77626e-21 0.001)
(6.28048e-05 -0 0.001)
(5.67241e-05 -0 0.001)
(4.66943e-05 3.38813e-21 0.001)
(4.49727e-05 -0 0.001)
(3.4102e-05 -0 0.001)
(3.527e-05 -0 0.001)
(3.76206e-05 -0 0.001)
(1.00052e-05 -0 0.001)
(2.87819e-05 -0 0.001)
(2.41611e-05 -0 0.001)
(1.53021e-05 -0 0.001)
(3.13675e-05 -0 0.001)
(9.24191e-06 -8.47033e-22 0.001)
(2.53807e-05 -3.38813e-21 0.001)
(3.86893e-06 -0 0.001)
(1.71072e-05 -0 0.001)
(2.09428e-05 -1.69407e-21 0.001)
(8.20168e-06 -0 0.001)
(1.92343e-05 -0 0.001)
(-6.10723e-06 8.47033e-22 0.001)
(2.91756e-05 -0 0.001)
(-9.41685e-06 8.47033e-22 0.001)
(3.43796e-06 -0 0.001)
(1.29761e-05 -0 0.001)
(-1.61776e-05 -0 0.001)
(2.30883e-05 -1.69407e-21 0.001)
(-1.98858e-05 -0 0.001)
(3.34981e-05 -0 0.001)
(-1.80109e-06 -0 0.001)
(-5.38677e-06 -0 0.001)
(9.24158e-06 -0 0.001)
(-2.10617e-05 -0 0.001)
(1.33187e-05 -1.69407e-21 0.001)
(-3.42024e-05 -0 0.001)
(2.2651e-05 1.69407e-21 0.001)
(-1.46259e-05 -0 0.001)
(-8.56279e-07 -0 0.001)
(2.44276e-05 -3.38813e-21 0.001)
(-2.3709e-05 -0 0.001)
(1.68284e-05 -0 0.001)
(-3.59252e-05 -3.38813e-21 0.001)
(2.38354e-05 -0 0.001)
(-2.14388e-05 1.69407e-21 0.001)
(-1.13968e-05 -0 0.001)
(6.49398e-06 8.47033e-22 0.001)
(-4.05364e-05 -0 0.001)
(1.64004e-05 -0 0.001)
(-3.21106e-05 -0 0.001)
(2.67063e-05 -0 0.001)
(-2.27169e-05 -1.69407e-21 0.001)
(-1.703e-06 -0 0.001)
(-3.03114e-06 -2.11758e-22 0.001)
(-3.07816e-05 -0 0.001)
(-2.10905e-06 -0 0.001)
(-3.64961e-05 -3.38813e-21 0.001)
(-8.47037e-07 -0 0.001)
(-2.79386e-05 -3.38813e-21 0.001)
(2.03186e-05 -1.69407e-21 0.001)
(-7.51664e-06 -0 0.001)
(-2.07298e-05 -0 0.001)
(5.54724e-06 4.23516e-22 0.001)
(-3.79313e-05 -3.38813e-21 0.001)
(1.58461e-05 -0 0.001)
(-2.48219e-05 -3.38813e-21 0.001)
(1.16105e-05 -0 0.001)
(-8.48691e-06 8.47033e-22 0.001)
(-1.77584e-05 -0 0.001)
(5.68853e-06 -0 0.001)
(-1.36303e-05 -0 0.001)
(2.35956e-05 -0 0.001)
(-1.86023e-05 -0 0.001)
(2.85387e-05 -0 0.001)
(-2.13666e-05 1.69407e-21 0.001)
(3.52731e-05 -0 0.001)
(-1.03457e-05 -0 0.001)
(1.11326e-05 -0 0.001)
(2.31251e-05 -0 0.001)
(-1.2677e-05 1.69407e-21 0.001)
(3.04674e-05 -0 0.001)
(-2.31356e-05 -1.69407e-21 0.001)
(4.0095e-05 -0 0.001)
(-3.03431e-05 -0 0.001)
(4.37415e-05 -0 0.001)
(-3.1325e-05 -0 0.001)
(1.99194e-05 -1.69407e-21 0.001)
(1.2031e-05 -0 0.001)
(-2.19305e-05 1.69407e-21 0.001)
(8.33708e-06 -0 0.001)
(-2.94608e-05 -0 0.001)
(2.70244e-05 -3.38813e-21 0.001)
(-4.97132e-05 -0 0.001)
(2.03535e-05 1.69407e-21 0.001)
(-4.88338e-05 6.77626e-21 0.001)
(2.1081e-05 -0 0.001)
(-3.54225e-05 3.38813e-21 0.001)
(3.73585e-06 4.23516e-22 0.001)
(4.58481e-06 -0 0.001)
(-1.34288e-05 -0 0.001)
(2.39549e-05 -0 0.001)
(-2.55523e-05 3.38813e-21 0.001)
(4.23862e-05 -0 0.001)
(-3.82609e-05 -0 0.001)
(4.45104e-05 -0 0.001)
(-2.8214e-05 -0 0.001)
(2.35068e-05 -0 0.001)
(-1.18617e-05 -0 0.001)
(-3.24307e-06 -0 0.001)
(2.065e-05 -0 0.001)
(-1.4957e-05 -1.69407e-21 0.001)
(2.51163e-05 -3.38813e-21 0.001)
(-2.82877e-05 -0 0.001)
(3.04334e-05 -0 0.001)
(-3.24011e-05 -0 0.001)
(2.97193e-05 -0 0.001)
(-3.82533e-05 3.38813e-21 0.001)
(1.39475e-05 -0 0.001)
(-1.39041e-05 -1.69407e-21 0.001)
(-2.13858e-05 -1.69407e-21 0.001)
(1.05149e-05 -8.47033e-22 0.001)
(-1.98451e-05 -0 0.001)
(2.94557e-05 3.38813e-21 0.001)
(-2.61856e-05 -3.38813e-21 0.001)
(4.1489e-05 -3.38813e-21 0.001)
(-3.16839e-05 -0 0.001)
(4.08892e-05 -3.38813e-21 0.001)
(-1.48324e-05 -0 0.001)
(1.82173e-05 -0 0.001)
(1.41401e-05 -0 0.001)
(-1.21256e-05 -0 0.001)
(1.70811e-05 -0 0.001)
(-3.14197e-05 -3.38813e-21 0.001)
(2.59665e-05 3.38813e-21 0.001)
(-3.54063e-05 3.38813e-21 0.001)
(2.1172e-05 1.69407e-21 0.001)
(-3.80911e-05 3.38813e-21 0.001)
(1.58843e-05 -0 0.001)
(-1.85413e-05 1.69407e-21 0.001)
(2.08569e-06 2.11758e-22 0.001)
(1.47674e-05 -1.69407e-21 0.001)
(-6.0196e-06 -0 0.001)
(2.65511e-05 -3.38813e-21 0.001)
(-1.33354e-05 -0 0.001)
(2.71082e-05 -0 0.001)
(-2.44111e-05 1.69407e-21 0.001)
(3.31393e-05 3.38813e-21 0.001)
(-3.40269e-05 -0 0.001)
(1.95399e-05 -0 0.001)
(-1.78708e-05 -0 0.001)
(2.03061e-06 2.11758e-22 0.001)
(1.53222e-06 -2.11758e-22 0.001)
(-1.21163e-05 8.47033e-22 0.001)
(1.75304e-05 -0 0.001)
(-1.52744e-05 -0 0.001)
(2.45912e-05 -0 0.001)
(-1.4654e-05 -0 0.001)
(2.68679e-05 -0 0.001)
(-2.46771e-05 -0 0.001)
(2.34975e-05 -0 0.001)
(-3.01523e-05 -0 0.001)
(1.04465e-05 -8.47033e-22 0.001)
(-1.64597e-05 -0 0.001)
(-6.63902e-06 -8.47033e-22 0.001)
(-1.6855e-06 2.11758e-22 0.001)
(-1.00718e-06 -0 0.001)
(1.70942e-05 -0 0.001)
(-1.37175e-05 -0 0.001)
(2.65658e-05 -3.38813e-21 0.001)
(-2.21054e-05 -0 0.001)
(2.94133e-05 -0 0.001)
(-1.80449e-05 -0 0.001)
(1.27425e-05 -0 0.001)
(-1.57178e-05 -0 0.001)
(4.35146e-06 -0 0.001)
(-2.38391e-05 1.69407e-21 0.001)
(1.14791e-05 -0 0.001)
(-2.52006e-05 -0 0.001)
(-5.54467e-06 -0 0.001)
(-1.81088e-05 1.69407e-21 0.001)
(-4.23971e-06 -4.23516e-22 0.001)
(6.80234e-06 -8.47033e-22 0.001)
(-1.35754e-05 -0 0.001)
(1.25765e-05 -0 0.001)
(-5.64132e-06 -0 0.001)
(8.16068e-06 -8.47033e-22 0.001)
(-2.86129e-05 3.38813e-21 0.001)
(-1.6837e-05 -0 0.001)
(-4.01521e-05 -3.38813e-21 0.001)
(-3.11658e-05 3.38813e-21 0.001)
(-5.7178e-05 -0 0.001)
(-5.08348e-05 -0 0.001)
(-8.54169e-05 -6.77626e-21 0.001)
(-8.21625e-05 -0 0.001)
(-0.000167362 -2.71051e-20 0.001)
(-0.000115489 -0 0.001)
(-0 -0 0.001)
(-0 -0 0.001)
(-0 -0 0.001)
)
;

boundaryField
{
    inlet
    {
        type            calculated;
        value           uniform (0 0 0);
    }
    outlet
    {
        type            calculated;
        value           uniform (0 0 0);
    }
    sideWall
    {
        type            empty;
    }
}


// ************************************************************************* //
