/*--------------------------------*- C++ -*----------------------------------*\
| =========                 |                                                 |
| \\      /  F ield         | foam-extend: Open Source CFD                    |
|  \\    /   O peration     | Version:     3.2                                |
|   \\  /    A nd           | Web:         http://www.foam-extend.org         |
|    \\/     M anipulation  | For copyright notice see file Copyright         |
\*---------------------------------------------------------------------------*/
FoamFile
{
    version     2.0;
    format      ascii;
    class       areaScalarField;
    location    "160";
    object      Pva;
}
// * * * * * * * * * * * * * * * * * * * * * * * * * * * * * * * * * * * * * //

dimensions      [0 0 0 0 0 0 0];

internalField   nonuniform List<scalar> 
300
(
0.463285
0.463285
0.463285
0.463285
0.463285
0.463285
0.463285
0.463285
0.463285
0.463285
0.463285
0.463285
0.463285
0.463285
0.463285
0.463285
0.463285
0.463285
0.463285
0.463285
0.463285
0.463285
0.463285
0.463285
0.463285
0.463285
0.463285
0.463285
0.463285
0.463285
0.463285
0.463285
0.463285
0.463285
0.463285
0.463285
0.463285
0.463285
0.463285
0.463285
0.463285
0.463285
0.463285
0.463285
0.463285
0.463285
0.463285
0.463285
0.463285
0.463285
0.463285
0.463285
0.463285
0.463285
0.463285
0.463285
0.463285
0.463285
0.463285
0.463285
0.463285
0.463285
0.463285
0.463285
0.463285
0.463285
0.463285
0.463285
0.463285
0.463285
0.463285
0.463285
0.463285
0.463285
0.463285
0.463285
0.463285
0.463285
0.463285
0.463285
0.463285
0.463285
0.463285
0.463285
0.463285
0.463285
0.463285
0.463285
0.463285
0.463285
0.463285
0.463285
0.463285
0.463285
0.463285
0.463285
0.463285
0.463285
0.463285
0.463285
0.51296
0.534075
0.56455
0.584932
0.611392
0.630127
0.65155
0.671233
0.68431
0.707168
0.708647
0.722354
0.720757
0.733655
0.730592
0.746896
0.742253
0.744872
0.74259
0.75305
0.755199
0.746897
0.756693
0.754062
0.744003
0.762619
0.754748
0.766419
0.738712
0.765834
0.753407
0.732144
0.772741
0.73887
0.760153
0.745257
0.76041
0.753845
0.730861
0.776312
0.73112
0.763577
0.735353
0.737588
0.756734
0.716796
0.780328
0.726069
0.774585
0.73596
0.751824
0.760786
0.726307
0.791445
0.71804
0.777922
0.756845
0.778018
0.781355
0.769931
0.800964
0.756677
0.80516
0.777432
0.79724
0.799863
0.785454
0.80515
0.779997
0.808194
0.789055
0.811608
0.785235
0.796582
0.783815
0.776827
0.781501
0.766686
0.780614
0.765775
0.78466
0.737716
0.787085
0.735718
0.758039
0.749804
0.713941
0.782703
0.703229
0.796476
0.720953
0.778486
0.754071
0.753264
0.766657
0.736878
0.779857
0.730661
0.792236
0.748202
0.79895
0.73685
0.79503
0.728947
0.769314
0.740882
0.721447
0.764907
0.697741
0.784144
0.710883
0.790804
0.720122
0.755
0.743635
0.728384
0.750717
0.718787
0.769648
0.712752
0.781371
0.737663
0.794174
0.720496
0.785662
0.727824
0.733967
0.745778
0.701821
0.764441
0.694638
0.776868
0.716101
0.760349
0.73378
0.750685
0.743122
0.726649
0.758902
0.722524
0.768828
0.726365
0.795809
0.722315
0.766404
0.727924
0.74741
0.733672
0.719805
0.756534
0.704324
0.770341
0.733389
0.786846
0.724171
0.778313
0.73373
0.753019
0.732656
0.729701
0.747872
0.711755
0.764922
0.714173
0.77757
0.73561
0.792088
0.729121
0.782316
0.736963
0.751079
0.740694
0.720874
0.753547
0.706538
0.765058
0.712068
0.771117
0.723611
0.789084
0.744069
0.790268
0.748883
0.782033
0.745854
0.747157
0.744502
0.657179
0.712496
0.642398
0.671064
0.616175
0.619722
0.577186
0.556264
0.523135
0.463285
0.463285
0.463285
0.463285
)
;

boundaryField
{
    inlet
    {
        type            calculated;
        value           uniform 0;
    }
    outlet
    {
        type            calculated;
        value           uniform 0;
    }
    sideWall
    {
        type            empty;
    }
}


// ************************************************************************* //
