/*--------------------------------*- C++ -*----------------------------------*\
| =========                 |                                                 |
| \\      /  F ield         | foam-extend: Open Source CFD                    |
|  \\    /   O peration     | Version:     3.2                                |
|   \\  /    A nd           | Web:         http://www.foam-extend.org         |
|    \\/     M anipulation  | For copyright notice see file Copyright         |
\*---------------------------------------------------------------------------*/
FoamFile
{
    version     2.0;
    format      ascii;
    class       areaScalarField;
    location    "160";
    object      Pvc;
}
// * * * * * * * * * * * * * * * * * * * * * * * * * * * * * * * * * * * * * //

dimensions      [0 0 0 0 0 0 0];

internalField   nonuniform List<scalar> 
300
(
0.536715
0.536715
0.536715
0.536715
0.536715
0.536715
0.536715
0.536715
0.536715
0.536715
0.536715
0.536715
0.536715
0.536715
0.536715
0.536715
0.536715
0.536715
0.536715
0.536715
0.536715
0.536715
0.536715
0.536715
0.536715
0.536715
0.536715
0.536715
0.536715
0.536715
0.536715
0.536715
0.536715
0.536715
0.536715
0.536715
0.536715
0.536715
0.536715
0.536715
0.536715
0.536715
0.536715
0.536715
0.536715
0.536715
0.536715
0.536715
0.536715
0.536715
0.536715
0.536715
0.536715
0.536715
0.536715
0.536715
0.536715
0.536715
0.536715
0.536715
0.536715
0.536715
0.536715
0.536715
0.536715
0.536715
0.536715
0.536715
0.536715
0.536715
0.536715
0.536715
0.536715
0.536715
0.536715
0.536715
0.536715
0.536715
0.536715
0.536715
0.536715
0.536715
0.536715
0.536715
0.536715
0.536715
0.536715
0.536715
0.536715
0.536715
0.536715
0.536715
0.536715
0.536715
0.536715
0.536715
0.536715
0.536715
0.536715
0.536715
0.48704
0.465925
0.43545
0.415068
0.388608
0.369873
0.34845
0.328767
0.31569
0.292832
0.291353
0.277646
0.279243
0.266345
0.269408
0.253104
0.257747
0.255128
0.25741
0.24695
0.244801
0.253103
0.243307
0.245938
0.255997
0.237381
0.245252
0.233581
0.261288
0.234166
0.246593
0.267856
0.227259
0.26113
0.239847
0.254743
0.23959
0.246155
0.269139
0.223688
0.26888
0.236423
0.264647
0.262412
0.243266
0.283204
0.219672
0.273931
0.225415
0.26404
0.248176
0.239214
0.273693
0.208555
0.28196
0.222078
0.243155
0.221982
0.218645
0.230069
0.199036
0.243323
0.19484
0.222568
0.20276
0.200137
0.214546
0.19485
0.220003
0.191806
0.210945
0.188392
0.214765
0.203418
0.216185
0.223173
0.218499
0.233314
0.219386
0.234225
0.21534
0.262284
0.212915
0.264282
0.241961
0.250196
0.286059
0.217297
0.296771
0.203524
0.279047
0.221514
0.245929
0.246736
0.233343
0.263122
0.220143
0.269339
0.207764
0.251798
0.20105
0.26315
0.20497
0.271053
0.230686
0.259118
0.278553
0.235093
0.302259
0.215856
0.289117
0.209196
0.279878
0.245
0.256365
0.271616
0.249283
0.281213
0.230352
0.287248
0.218629
0.262337
0.205826
0.279504
0.214338
0.272176
0.266033
0.254222
0.298179
0.235559
0.305362
0.223132
0.283899
0.239651
0.26622
0.249315
0.256878
0.273351
0.241098
0.277476
0.231172
0.273635
0.204191
0.277685
0.233596
0.272076
0.25259
0.266328
0.280195
0.243466
0.295676
0.229659
0.266611
0.213154
0.275829
0.221687
0.26627
0.246981
0.267344
0.270299
0.252128
0.288245
0.235078
0.285827
0.22243
0.26439
0.207912
0.270879
0.217684
0.263037
0.248921
0.259306
0.279126
0.246453
0.293462
0.234942
0.287932
0.228883
0.276389
0.210916
0.255931
0.209732
0.251117
0.217967
0.254146
0.252843
0.255498
0.342821
0.287504
0.357602
0.328936
0.383825
0.380278
0.422814
0.443736
0.476865
0.536715
0.536715
0.536715
0.536715
)
;

boundaryField
{
    inlet
    {
        type            calculated;
        value           uniform 0;
    }
    outlet
    {
        type            calculated;
        value           uniform 0;
    }
    sideWall
    {
        type            empty;
    }
}


// ************************************************************************* //
