/*--------------------------------*- C++ -*----------------------------------*\
| =========                 |                                                 |
| \\      /  F ield         | foam-extend: Open Source CFD                    |
|  \\    /   O peration     | Version:     3.2                                |
|   \\  /    A nd           | Web:         http://www.foam-extend.org         |
|    \\/     M anipulation  | For copyright notice see file Copyright         |
\*---------------------------------------------------------------------------*/
FoamFile
{
    version     2.0;
    format      ascii;
    class       areaVectorField;
    location    "160";
    object      q_bed;
}
// * * * * * * * * * * * * * * * * * * * * * * * * * * * * * * * * * * * * * //

dimensions      [0 2 -1 0 0 0 0];

internalField   nonuniform List<vector> 
300
(
(0.00422331 0 0)
(0.00366695 0 0)
(0.00284074 0 0)
(0.00239534 0 0)
(0.00219593 0 0)
(0.00208258 0 0)
(0.00199645 0 0)
(0.00191823 0 0)
(0.00184387 0 0)
(0.00177447 0 0)
(0.00171103 0 0)
(0.00165319 0 0)
(0.00159999 0 0)
(0.00155188 0 0)
(0.00150811 0 0)
(0.00146795 0 0)
(0.00143096 0 0)
(0.0013966 0 0)
(0.00136498 0 0)
(0.00133604 0 0)
(0.00130908 0 0)
(0.00128368 0 0)
(0.00125979 0 0)
(0.00123733 0 0)
(0.00121624 0 0)
(0.00119626 0 0)
(0.00117738 0 0)
(0.00115942 0 0)
(0.00114241 0 0)
(0.00112629 0 0)
(0.00111091 0 0)
(0.00109627 0 0)
(0.00108223 0 0)
(0.00106884 1.74897e-42 0)
(0.00105603 3.30732e-42 0)
(0.00104379 0 0)
(0.001032 0 0)
(0.00102071 0 0)
(0.00100982 5.42983e-42 0)
(0.000999352 5.16129e-42 0)
(0.000989302 0 0)
(0.000979591 0 0)
(0.000970241 9.0355e-42 0)
(0.000961191 1.73807e-41 0)
(0.000952447 0 0)
(0.000944008 0 0)
(0.000935839 0 0)
(0.000927957 0 0)
(0.000920274 -5.68648e-41 0)
(0.000912877 -5.48855e-41 0)
(0.000905643 0 0)
(0.000898681 0 0)
(0.000891884 0 0)
(0.000885326 0 0)
(0.000878911 0 0)
(0.000872714 0 0)
(0.000866642 0 0)
(0.000860784 0 0)
(0.000854963 3.13765e-40 0)
(0.000849398 0 0)
(0.000843873 -5.87668e-40 0)
(0.000838619 0 0)
(0.000833387 0 0)
(0.000828427 0 0)
(0.000823471 -1.03045e-39 0)
(0.000818805 0 0)
(0.000814111 0 0)
(0.000809726 -1.86293e-39 0)
(0.000805289 -3.6011e-39 0)
(0.000801183 -3.46106e-39 0)
(0.000797017 0 0)
(0.000793212 0 0)
(0.000789324 6.08105e-39 0)
(0.000785845 1.15295e-38 0)
(0.000782253 -1.09678e-38 0)
(0.000779135 0 0)
(0.0007759 -1.91452e-38 0)
(0.000773193 0 0)
(0.000770388 0 0)
(0.000768192 2.60462e-38 0)
(0.000765919 -2.33543e-38 0)
(0.000764352 0 0)
(0.00076281 0 0)
(0.000762024 -6.3874e-39 0)
(0.000761551 -1.69098e-38 0)
(0.000761702 0 0)
(0.000762468 0 0)
(0.000764289 0 0)
(0.000767011 8.45032e-37 0)
(0.000770978 -1.53762e-36 0)
(0.000776742 0 0)
(0.000783983 0 0)
(0.000795079 -1.21801e-35 0)
(0.000807474 0 0)
(0.000829235 0 0)
(0.000851892 -2.93793e-34 0)
(0.000903045 -1.06873e-32 0)
(0.000924221 0 0)
(0.00121573 0 0)
(0.00109573 -3.03721e-26 -0.000107015)
(0.000273739 -9.20369e-27 -3.62904e-05)
(0.000232564 0 -1.90767e-05)
(0.000264804 -3.02545e-24 -1.99566e-05)
(0.00026701 0 -1.67695e-05)
(0.000280427 0 -1.5907e-05)
(0.000293304 1.56293e-25 -1.36956e-05)
(0.000299266 0 -1.34588e-05)
(0.000312218 0 -1.06472e-05)
(0.000342792 -6.62119e-28 -1.20903e-05)
(0.000291298 0 -1.09588e-05)
(0.000344727 0 -3.44907e-06)
(0.000386952 0 -1.11372e-05)
(0.000327649 0 -7.91637e-06)
(0.000131217 0 -2.0079e-06)
(9.21193e-05 8.72519e-28 -2.88956e-06)
(8.89587e-05 -3.50934e-25 -8.22148e-07)
(9.47163e-05 3.01398e-25 -2.40397e-06)
(0.000351264 0 -1.35902e-06)
(0.000409294 0 -7.00188e-06)
(0.000332114 1.40763e-24 -6.9554e-06)
(9.10575e-05 -1.47162e-28 -7.46824e-07)
(5.78292e-05 0 -1.11231e-06)
(9.42028e-05 5.0477e-25 5.75318e-07)
(7.81872e-05 0 -2.28116e-06)
(0.000316206 5.85267e-25 2.97766e-06)
(0.00044676 0 -1.53594e-06)
(0.000301954 0 -3.91819e-06)
(0.000454757 0 7.35689e-06)
(7.27919e-05 2.82649e-25 -1.68064e-06)
(8.09651e-05 1.96775e-28 1.61006e-06)
(0.000102725 0 -3.44109e-06)
(2.33549e-05 0 4.20642e-08)
(9.03715e-05 0 4.8681e-07)
(0.000290403 -6.66149e-28 -2.68378e-06)
(0.000439103 -1.4195e-27 9.24825e-06)
(0.000356016 3.85627e-24 -4.74167e-06)
(0.0004271 7.18251e-27 1.46078e-05)
(0.000123426 -4.78195e-25 -2.79571e-06)
(4.69276e-05 0 6.86356e-07)
(0.000150779 -6.73108e-29 1.29109e-07)
(2.13064e-05 2.5394e-25 -5.20463e-07)
(7.68658e-05 0 1.82241e-06)
(6.3414e-05 2.36967e-28 -1.06715e-06)
(0.000399116 -4.42241e-24 1.43383e-05)
(0.000428674 0 -1.02176e-05)
(0.00030256 -6.75397e-25 6.48652e-06)
(0.000506726 0 5.77508e-06)
(2.74983e-05 3.0196e-26 -1.78573e-07)
(0.000133059 0 5.39374e-06)
(0.000112428 -9.46388e-28 -1.84386e-06)
(0.000111105 1.40621e-27 3.56765e-06)
(0.000430662 0 -1.15014e-05)
(0.000320962 -1.1248e-24 7.29127e-06)
(0.000447884 1.91022e-28 7.62744e-07)
(0.000302562 2.16758e-25 9.17109e-07)
(0.000477748 0 1.47058e-05)
(0.00011465 4.5508e-29 2.41803e-07)
(0.000154098 -3.73566e-24 5.62398e-06)
(0.000180116 0 1.52565e-07)
(0.00017417 -1.05616e-24 4.86606e-06)
(0.00050195 8.37614e-24 -1.01989e-05)
(0.000327587 -1.62661e-27 2.46236e-06)
(0.00053803 0 1.11532e-05)
(0.000354529 -2.30774e-25 -1.96666e-06)
(0.00020019 -4.03845e-24 7.59347e-06)
(0.000206618 0 -3.27408e-06)
(0.000157132 -3.48756e-24 3.90032e-06)
(0.000214587 -8.46592e-28 -2.49146e-06)
(0.000363331 4.05312e-25 3.08356e-06)
(0.000557323 0 9.89715e-06)
(0.000428397 0 -2.43695e-06)
(0.000566807 0 7.72577e-06)
(0.000400866 0 -9.45867e-06)
(0.000196121 0 3.6483e-06)
(0.000164221 0 -4.68664e-06)
(0.000155014 1.04385e-24 3.31212e-06)
(0.000451422 5.19226e-27 -1.5923e-05)
(0.000334007 1.27067e-27 3.45554e-06)
(0.00049321 -1.54071e-27 -5.49069e-06)
(0.000279608 0 -6.46597e-06)
(0.000178096 1.68976e-24 2.25772e-06)
(8.30514e-05 1.27436e-27 -2.53036e-06)
(0.000146373 -1.12693e-24 3.38643e-06)
(9.53425e-05 1.23676e-27 -3.82276e-06)
(0.000380604 0 1.15487e-05)
(0.000368239 0 -1.61073e-05)
(0.000280536 -5.92366e-27 8.78779e-06)
(0.000435594 5.8433e-24 -8.67676e-06)
(0.000215196 -9.40219e-28 -2.58902e-06)
(0.000121568 7.21929e-25 2.66604e-06)
(6.23024e-05 0 -5.1942e-07)
(0.00016746 0 4.93349e-06)
(0.000289345 7.60285e-24 -7.81936e-06)
(0.000397912 0 1.97815e-05)
(0.000383354 -5.89811e-24 -7.80258e-06)
(0.000398589 1.30844e-23 1.94646e-05)
(0.000453638 7.17732e-29 -9.56316e-06)
(9.65325e-05 1.73272e-24 3.41942e-06)
(0.000221003 -1.26768e-26 -8.25634e-07)
(9.18197e-05 0 -4.20976e-07)
(0.000227992 0 3.06165e-06)
(7.952e-05 0 -1.9049e-06)
(0.000497964 4.46443e-24 1.27241e-05)
(0.000317249 -3.40819e-27 -1.3447e-05)
(0.000381855 0 1.46101e-05)
(0.000380815 3.80366e-28 -1.69502e-05)
(0.000294736 0 8.31568e-06)
(0.000404732 0 -9.51396e-06)
(0.000282167 0 3.34699e-06)
(0.000180151 0 5.84242e-07)
(6.00382e-05 -2.88146e-28 -1.23979e-06)
(0.000142162 -1.56289e-24 2.12631e-06)
(6.49768e-05 6.8001e-25 -1.63198e-06)
(0.000124465 0 3.52081e-06)
(0.000333856 0 -1.01604e-05)
(0.00035682 0 1.15614e-05)
(0.000345847 0 -1.02783e-05)
(0.00031246 4.42987e-24 1.19526e-05)
(0.000166413 0 -2.32105e-06)
(7.05708e-05 -8.19992e-25 9.81227e-07)
(0.000200205 -1.19343e-24 4.28155e-06)
(0.000102391 3.93089e-26 -1.07664e-06)
(0.000502921 0 9.98052e-06)
(0.000314912 -9.45278e-24 -9.27595e-06)
(0.000435228 -1.73911e-24 1.13967e-05)
(0.000341174 9.02852e-24 -1.4155e-05)
(9.84573e-05 -4.68137e-29 3.11952e-06)
(0.000143456 2.03492e-24 -5.86579e-06)
(5.70558e-05 0 8.46274e-07)
(0.000396426 0 -7.22179e-06)
(0.000225871 -8.73983e-28 -3.19383e-06)
(0.000396663 1.08106e-27 4.80979e-06)
(0.000261555 0 -4.46766e-06)
(0.000414394 -6.46336e-24 1.30202e-05)
(8.99752e-05 -1.62681e-24 -2.33635e-06)
(0.000106137 2.5239e-24 3.7579e-06)
(0.000121491 6.00641e-26 -2.57221e-06)
(9.55974e-05 1.93884e-24 3.64141e-06)
(0.000430712 0 -6.84158e-06)
(0.0003359 3.91548e-25 6.22801e-06)
(0.000477786 -5.59115e-25 -9.96513e-07)
(0.000298519 1.11637e-24 -4.40835e-06)
(0.000170196 0 1.02451e-06)
(7.98661e-05 3.81598e-25 -2.12053e-06)
(0.000123642 0 1.64881e-06)
(7.54625e-05 0 -2.04565e-06)
(0.000116884 7.42674e-25 2.85327e-06)
(0.000323771 -7.59351e-24 -1.07296e-05)
(0.000316269 -3.90901e-27 1.07616e-05)
(0.000394113 0 -7.70094e-06)
(0.000310511 2.5728e-27 5.54909e-06)
(0.000147777 4.03853e-27 -3.00077e-07)
(7.58589e-05 -8.93293e-26 -1.16233e-07)
(0.000170076 6.28863e-25 2.0607e-06)
(9.30949e-05 5.92968e-28 -1.63199e-06)
(0.000417164 0 6.37192e-06)
(0.000329977 0 -8.11451e-06)
(0.000381426 0 5.5894e-06)
(0.000315992 0 -8.49005e-06)
(9.42359e-05 0 2.32547e-06)
(0.000102295 0 -2.40369e-06)
(8.06986e-05 0 2.43325e-06)
(0.000140167 1.54857e-25 -1.46425e-06)
(8.93762e-05 1.40665e-28 1.4711e-06)
(0.000431951 7.57578e-25 2.86773e-06)
(0.000371336 -2.43779e-25 6.25886e-07)
(0.000449398 1.23357e-28 4.52625e-07)
(0.000293854 0 -5.02321e-06)
(0.000153002 0 2.0988e-06)
(8.90697e-05 5.46299e-25 -2.36621e-06)
(0.000114521 0 2.53154e-06)
(0.000343859 0 -1.0114e-05)
(0.000305575 0 5.51407e-06)
(0.00034563 0 -4.4042e-06)
(8.67687e-05 -3.50014e-28 1.36382e-06)
(9.62655e-05 0 -4.18896e-07)
(0.000118579 1.09519e-24 2.82682e-06)
(0.000119129 0 -1.3675e-06)
(0.000331452 0 8.35279e-06)
(0.00040125 0 2.2248e-06)
(0.000370517 -1.62445e-25 6.70961e-06)
(0.000188824 4.97644e-26 8.0056e-07)
(9.6794e-05 -7.56776e-26 -6.58426e-07)
(0.000381281 6.05073e-28 5.17602e-06)
(0.00034218 0 -4.30341e-06)
(0.000321809 6.73505e-29 1.81543e-06)
(7.69817e-05 5.98642e-26 -6.28223e-07)
(7.66616e-05 8.41666e-25 2.19351e-06)
(9.95273e-05 0 1.67574e-06)
(0.000112215 -7.04596e-25 4.50567e-06)
(0.000127913 6.23852e-26 3.9865e-06)
(0.000161464 -3.62271e-28 9.2322e-06)
(0.00016972 -4.2759e-28 8.62768e-06)
(0.000249381 -3.6195e-24 2.13014e-05)
(0.00024778 0 2.03582e-05)
(0.000562643 -1.2428e-22 9.41649e-05)
(0.00141259 0 0.000163139)
(0.00111208 0 0)
(0.000517721 0 0)
(0.000416161 -3.19681e-32 0)
)
;

boundaryField
{
    inlet
    {
        type            zeroGradient;
    }
    outlet
    {
        type            zeroGradient;
    }
    sideWall
    {
        type            empty;
    }
}


// ************************************************************************* //
