/*--------------------------------*- C++ -*----------------------------------*\
| =========                 |                                                 |
| \\      /  F ield         | foam-extend: Open Source CFD                    |
|  \\    /   O peration     | Version:     3.2                                |
|   \\  /    A nd           | Web:         http://www.foam-extend.org         |
|    \\/     M anipulation  | For copyright notice see file Copyright         |
\*---------------------------------------------------------------------------*/
FoamFile
{
    version     2.0;
    format      ascii;
    class       edgeScalarField;
    location    "160";
    object      q_f;
}
// * * * * * * * * * * * * * * * * * * * * * * * * * * * * * * * * * * * * * //

dimensions      [0 3 -1 0 0 0 0];

internalField   nonuniform List<scalar> 
299
(
7.89027e-05
6.50769e-05
5.23607e-05
4.59126e-05
4.27851e-05
4.07904e-05
3.91469e-05
3.7621e-05
3.61834e-05
3.4855e-05
3.36422e-05
3.25318e-05
3.15188e-05
3.05999e-05
2.97606e-05
2.89891e-05
2.82756e-05
2.76158e-05
2.70102e-05
2.64511e-05
2.59276e-05
2.54348e-05
2.49712e-05
2.45357e-05
2.41251e-05
2.37365e-05
2.3368e-05
2.30183e-05
2.2687e-05
2.23721e-05
2.20718e-05
2.1785e-05
2.15107e-05
2.12487e-05
2.09982e-05
2.0758e-05
2.05271e-05
2.03053e-05
2.00917e-05
1.98865e-05
1.96889e-05
1.94983e-05
1.93143e-05
1.91364e-05
1.89645e-05
1.87985e-05
1.8638e-05
1.84823e-05
1.83315e-05
1.81852e-05
1.80432e-05
1.79056e-05
1.77721e-05
1.76424e-05
1.75163e-05
1.73936e-05
1.72743e-05
1.71575e-05
1.70436e-05
1.69327e-05
1.68249e-05
1.67201e-05
1.66181e-05
1.6519e-05
1.64228e-05
1.63292e-05
1.62384e-05
1.61501e-05
1.60647e-05
1.5982e-05
1.59023e-05
1.58254e-05
1.57517e-05
1.5681e-05
1.56139e-05
1.55504e-05
1.54909e-05
1.54358e-05
1.53858e-05
1.53411e-05
1.53027e-05
1.52716e-05
1.52483e-05
1.52357e-05
1.52325e-05
1.52417e-05
1.52676e-05
1.5313e-05
1.53799e-05
1.54772e-05
1.56072e-05
1.57906e-05
1.60255e-05
1.63671e-05
1.68113e-05
1.75494e-05
1.82727e-05
2.13995e-05
2.31694e-05
1.37871e-05
5.09365e-06
4.98909e-06
5.33092e-06
5.48417e-06
5.74505e-06
5.93193e-06
6.11971e-06
6.55404e-06
6.34511e-06
6.36265e-06
7.31849e-06
7.14853e-06
4.5896e-06
2.23404e-06
1.81126e-06
1.83709e-06
4.46054e-06
7.60616e-06
7.41544e-06
4.23225e-06
1.48903e-06
1.52048e-06
1.72428e-06
3.94486e-06
7.62985e-06
7.48748e-06
7.56792e-06
5.27654e-06
1.53793e-06
1.8376e-06
1.26115e-06
1.13727e-06
3.80785e-06
7.29602e-06
7.95243e-06
7.8338e-06
5.50757e-06
1.70384e-06
1.97717e-06
1.72111e-06
9.82006e-07
1.40309e-06
4.62712e-06
8.28174e-06
7.31422e-06
8.09405e-06
5.34248e-06
1.60625e-06
2.45604e-06
2.23606e-06
5.42004e-06
7.51855e-06
7.68946e-06
7.50448e-06
7.80496e-06
5.92539e-06
2.68838e-06
3.34325e-06
3.54355e-06
6.76321e-06
8.29634e-06
8.65723e-06
8.92662e-06
5.54923e-06
4.0698e-06
3.63829e-06
3.71789e-06
5.77949e-06
9.20743e-06
9.85805e-06
9.95258e-06
9.67853e-06
5.97121e-06
3.60446e-06
3.19336e-06
6.06694e-06
7.85694e-06
8.27264e-06
7.72945e-06
4.57784e-06
2.61219e-06
2.29509e-06
2.41845e-06
4.76247e-06
7.49374e-06
6.49244e-06
7.16377e-06
6.50878e-06
3.36816e-06
1.83896e-06
2.29816e-06
4.56987e-06
6.87807e-06
7.8183e-06
7.8249e-06
8.5283e-06
5.50404e-06
3.17637e-06
3.12826e-06
3.19828e-06
3.0757e-06
5.77661e-06
8.15712e-06
6.99673e-06
7.63326e-06
6.7602e-06
6.99704e-06
6.87017e-06
4.62335e-06
2.40216e-06
2.02233e-06
2.07183e-06
1.89509e-06
4.58518e-06
6.91017e-06
7.03007e-06
6.58693e-06
4.79072e-06
2.37007e-06
2.7082e-06
3.02639e-06
6.05389e-06
8.18091e-06
7.50431e-06
7.76868e-06
4.3993e-06
2.42075e-06
2.00606e-06
4.53544e-06
6.22379e-06
6.22588e-06
6.5829e-06
6.76165e-06
5.04579e-06
1.96206e-06
2.27725e-06
2.17192e-06
5.26534e-06
7.66726e-06
8.13757e-06
7.76349e-06
4.68745e-06
2.50108e-06
2.03553e-06
1.9915e-06
1.9241e-06
4.40841e-06
6.40401e-06
7.10655e-06
7.04747e-06
4.58325e-06
2.23636e-06
2.45944e-06
2.63201e-06
5.10328e-06
7.47297e-06
7.11548e-06
6.97581e-06
4.10365e-06
1.96588e-06
1.83061e-06
2.20922e-06
2.29565e-06
5.21369e-06
8.03297e-06
8.20735e-06
7.43306e-06
4.46909e-06
2.42126e-06
2.03652e-06
4.58536e-06
6.49628e-06
6.51284e-06
4.32443e-06
1.83046e-06
2.14876e-06
2.3775e-06
4.50667e-06
7.32824e-06
7.71837e-06
5.5939e-06
2.85623e-06
4.78102e-06
7.23523e-06
6.64021e-06
3.98801e-06
1.53677e-06
1.76237e-06
2.11843e-06
2.40283e-06
2.89683e-06
3.31668e-06
4.20134e-06
4.98905e-06
8.17403e-06
1.99551e-05
2.53303e-05
1.6298e-05
9.33883e-06
)
;

boundaryField
{
    inlet
    {
        type            calculated;
        value           uniform -8.44662e-05;
    }
    outlet
    {
        type            calculated;
        value           uniform 1.02097e-05;
    }
    sideWall
    {
        type            empty;
    }
}


// ************************************************************************* //
