/*--------------------------------*- C++ -*----------------------------------*\
| =========                 |                                                 |
| \\      /  F ield         | foam-extend: Open Source CFD                    |
|  \\    /   O peration     | Version:     3.2                                |
|   \\  /    A nd           | Web:         http://www.foam-extend.org         |
|    \\/     M anipulation  | For copyright notice see file Copyright         |
\*---------------------------------------------------------------------------*/
FoamFile
{
    version     2.0;
    format      ascii;
    class       areaScalarField;
    location    "160";
    object      SSd1;
}
// * * * * * * * * * * * * * * * * * * * * * * * * * * * * * * * * * * * * * //

dimensions      [0 1 -2 -1 0 0 0];

internalField   nonuniform List<scalar> 
300
(
0.000615578
0.000615578
0.000615578
0.000615578
0.000615578
0.000615578
0.000615578
0.000615578
0.000615578
0.000615578
0.000615578
0.000615578
0.000615578
0.000615578
0.000615578
0.000615578
0.000615578
0.000615578
0.000615578
0.000615578
0.000615578
0.000615578
0.000615578
0.000615578
0.000615578
0.000615578
0.000615578
0.000615578
0.000615578
0.000615578
0.000615578
0.000615578
0.000615578
0.000615578
0.000615578
0.000615578
0.000615578
0.000615578
0.000615578
0.000615578
0.000615578
0.000615578
0.000615578
0.000615578
0.000615578
0.000615578
0.000615578
0.000615578
0.000615578
0.000615578
0.000615578
0.000615578
0.000615578
0.000615578
0.000615578
0.000615578
0.000615578
0.000615578
0.000615578
0.000615578
0.000615578
0.000615578
0.000615578
0.000615578
0.000615578
0.000615578
0.000615578
0.000615578
0.000615578
0.000615578
0.000615578
0.000615578
0.000615578
0.000615578
0.000615578
0.000615578
0.000615578
0.000615578
0.000615578
0.000615578
0.000615578
0.000615578
0.000615578
0.000615578
0.000615578
0.000615578
0.000615578
0.000615578
0.000615578
0.000615578
0.000615578
0.000615578
0.000615578
0.000615578
0.000615578
0.000615578
0.000615578
0.000615578
0.000615578
0.000615579
0.000615016
0.000613347
0.000613409
0.000613094
0.000611248
0.000613351
0.000609406
0.000612581
0.000613255
0.000599554
0.000634671
0.000603857
0.000589289
0.000623119
0.000595787
0.000646063
0.000613899
0.000637489
0.000614215
0.000589991
0.0006295
0.000603496
0.000665863
0.000620275
0.000608044
0.000646137
0.000591763
0.000600902
0.000607327
0.00059568
0.000607051
0.000643825
0.000667909
0.000621916
0.00060496
0.000597684
0.000586131
0.000613368
0.000601677
0.000699736
0.000614057
0.000590437
0.00060384
0.000597338
0.000613275
0.000567513
0.000581093
0.000618225
0.000595692
0.000634922
0.000601661
0.00060306
0.000597698
0.000654592
0.000614773
0.000582678
0.00063395
0.000587799
0.000675252
0.000612935
0.00061235
0.00058934
0.000591532
0.000615241
0.000588179
0.000593036
0.000596145
0.000635545
0.000614207
0.000604646
0.000600663
0.000592685
0.000596978
0.000589391
0.000605066
0.000617815
0.000596896
0.000612802
0.000618963
0.000590766
0.000608163
0.000604318
0.000605016
0.00058389
0.00057786
0.000582611
0.000582794
0.000583355
0.000594118
0.000575221
0.000593049
0.000597265
0.000574764
0.00057066
0.000572652
0.000563787
0.00058853
0.000578551
0.000625359
0.000649083
0.000650035
0.000602328
0.000591716
0.000591314
0.000570305
0.000583149
0.000565479
0.000598887
0.000618811
0.000617917
0.000592717
0.000626275
0.000617878
0.000586289
0.000576822
0.000596444
0.000582394
0.000561349
0.000599296
0.000597133
0.000611773
0.000612769
0.000600658
0.000608095
0.00057916
0.000587083
0.000587857
0.000598294
0.000611867
0.000610742
0.000611006
0.0005868
0.000578898
0.000584846
0.000581386
0.000563915
0.000604852
0.000594755
0.00060896
0.000599402
0.000642938
0.000603656
0.000618869
0.000606979
0.000630163
0.000614693
0.000597427
0.000597473
0.000592038
0.000580822
0.000581979
0.000651938
0.000658063
0.000643428
0.000629424
0.000616565
0.000611932
0.000594378
0.000591787
0.000600539
0.000604046
0.000603466
0.000628195
0.000611924
0.000621757
0.000632082
0.000619344
0.000619338
0.000602174
0.000609737
0.000597435
0.000596932
0.000581327
0.000598407
0.000614034
0.000628986
0.000632184
0.00061661
0.000610103
0.000613165
0.000588644
0.00060715
0.000663881
0.000622047
0.000604
0.000631534
0.000627413
0.000620035
0.000624913
0.000618558
0.000622862
0.000617133
0.000620405
0.000616015
0.00061782
0.000615396
0.000615211
0.000615412
0.000615498
0.000615523
)
;

boundaryField
{
    inlet
    {
        type            calculated;
        value           uniform 0;
    }
    outlet
    {
        type            calculated;
        value           uniform 0;
    }
    sideWall
    {
        type            empty;
    }
}


// ************************************************************************* //
