/*--------------------------------*- C++ -*----------------------------------*\
| =========                 |                                                 |
| \\      /  F ield         | foam-extend: Open Source CFD                    |
|  \\    /   O peration     | Version:     3.2                                |
|   \\  /    A nd           | Web:         http://www.foam-extend.org         |
|    \\/     M anipulation  | For copyright notice see file Copyright         |
\*---------------------------------------------------------------------------*/
FoamFile
{
    version     2.0;
    format      ascii;
    class       areaScalarField;
    location    "160";
    object      SSe1;
}
// * * * * * * * * * * * * * * * * * * * * * * * * * * * * * * * * * * * * * //

dimensions      [0 1 -2 -1 0 0 0];

internalField   nonuniform List<scalar> 
300
(
0.0445057
0.0316045
0.0182306
0.0135491
0.0119079
0.0110759
0.010486
0.00997874
0.00951923
0.00910855
0.00874713
0.00842818
0.00814305
0.00789144
0.00766727
0.00746536
0.00728229
0.00711464
0.00696228
0.00682428
0.00669699
0.00657811
0.00646714
0.00636351
0.00626684
0.00617578
0.00609015
0.00600908
0.00593264
0.00586047
0.00579188
0.00572675
0.00566453
0.00560534
0.00554883
0.005495
0.00544325
0.00539377
0.00534616
0.00530045
0.00525664
0.00521438
0.00517374
0.00513445
0.00509654
0.00505999
0.00502464
0.00499057
0.00495739
0.00492546
0.00489427
0.00486427
0.00483499
0.00480677
0.00477918
0.00475253
0.00472644
0.00470128
0.00467628
0.0046524
0.0046287
0.00460616
0.00458373
0.00456246
0.00454123
0.00452124
0.00450113
0.00448235
0.00446335
0.00444577
0.00442793
0.00441165
0.00439501
0.00438012
0.00436475
0.00435141
0.00433757
0.00432599
0.00431399
0.0043046
0.00429487
0.00428817
0.00428157
0.00427821
0.00427619
0.00427683
0.00428011
0.00428791
0.00429955
0.00431652
0.00434119
0.00437217
0.00441967
0.00447274
0.00456597
0.00466316
0.00488316
0.0049731
0.0062629
0.0025564
0.000722005
0.000768462
0.000811218
0.000840534
0.000847103
0.000895288
0.000866824
0.00092463
0.000933683
0.00076337
0.00114623
0.000948402
0.000896273
0.000334036
0.000246804
0.000299611
0.000251663
0.00111079
0.0010389
0.0008295
0.000290049
0.000228845
0.000297531
0.000212498
0.000938497
0.00122453
0.000854885
0.000975415
0.000236644
0.000221526
0.000218692
0.000264305
0.000274216
0.000934797
0.000910313
0.000984413
0.000748408
0.000261881
0.000242289
0.000345706
0.000190774
0.000209493
0.000250734
0.000768336
0.000940746
0.000838186
0.00106453
0.00025822
0.000193872
0.000300018
0.000223616
0.000900489
0.000826677
0.00109968
0.0011194
0.000780535
0.000345414
0.000216258
0.000379635
0.000263747
0.000892089
0.000939795
0.000852867
0.000953217
0.000220766
0.000305166
0.000251195
0.000321066
0.000894041
0.000899988
0.00102241
0.000953421
0.000794287
0.000285822
0.000260268
0.000273944
0.000780737
0.000871805
0.00108514
0.000688424
0.000310777
0.000238228
0.00024449
0.00022645
0.000737152
0.000723445
0.000708938
0.000886701
0.000850138
0.000219832
0.000307295
0.000244917
0.000710451
0.000615327
0.000870209
0.000662796
0.000912244
0.000234515
0.000391853
0.000335432
0.000325356
0.000258385
0.000796633
0.000718254
0.000637744
0.000760822
0.000740706
0.000876998
0.000989927
0.000369895
0.000270764
0.000269679
0.00025334
0.00025098
0.000784117
0.000772256
0.000784817
0.000683437
0.000330081
0.000301741
0.000297614
0.000332858
0.000872554
0.000830178
0.000752782
0.000761421
0.000244373
0.000255366
0.000292644
0.000920006
0.000876351
0.000905657
0.000859931
0.000759975
0.000262261
0.000222431
0.000297424
0.000230127
0.00102523
0.000915526
0.00127343
0.000924784
0.000327514
0.000263292
0.000294106
0.000251217
0.000266281
0.000777296
0.000722706
0.00093266
0.000936867
0.00037277
0.000349515
0.000308152
0.000305416
0.000886311
0.000857191
0.000938862
0.000816625
0.000264279
0.000266006
0.000251698
0.000329343
0.00030905
0.00104647
0.0012289
0.00111303
0.000881015
0.000295307
0.000257659
0.000269503
0.000815758
0.000873842
0.000939902
0.000317272
0.000316547
0.000309005
0.000299911
0.000822506
0.000961134
0.000903976
0.000368713
0.00033306
0.000841682
0.000964372
0.000997909
0.000309047
0.000307744
0.000329187
0.000321972
0.000349143
0.000344313
0.000380747
0.00038606
0.000437863
0.000481109
0.00179989
0.00579616
0.00322576
0.0027781
)
;

boundaryField
{
    inlet
    {
        type            calculated;
        value           uniform 0;
    }
    outlet
    {
        type            calculated;
        value           uniform 0;
    }
    sideWall
    {
        type            empty;
    }
}


// ************************************************************************* //
