/*--------------------------------*- C++ -*----------------------------------*\
| =========                 |                                                 |
| \\      /  F ield         | foam-extend: Open Source CFD                    |
|  \\    /   O peration     | Version:     3.2                                |
|   \\  /    A nd           | Web:         http://www.foam-extend.org         |
|    \\/     M anipulation  | For copyright notice see file Copyright         |
\*---------------------------------------------------------------------------*/
FoamFile
{
    version     2.0;
    format      ascii;
    class       areaScalarField;
    location    "160";
    object      tau;
}
// * * * * * * * * * * * * * * * * * * * * * * * * * * * * * * * * * * * * * //

dimensions      [1 1 2 0 0 0 0];

internalField   nonuniform List<scalar> 
300
(
53.2817
42.4321
29.4366
24.1719
22.1872
21.1464
20.3926
19.7331
19.1259
18.5749
18.0831
17.6435
17.2458
16.8909
16.5716
16.2813
16.0158
15.7707
15.5463
15.3416
15.1516
14.973
14.8054
14.648
14.5003
14.3606
14.2285
14.1029
13.984
13.8713
13.7637
13.6611
13.5628
13.4689
13.3789
13.293
13.2101
13.1305
13.0538
12.9799
12.9089
12.8402
12.7739
12.7097
12.6476
12.5876
12.5294
12.4732
12.4183
12.3654
12.3136
12.2637
12.2149
12.1677
12.1215
12.0768
12.033
11.9906
11.9485
11.9081
11.868
11.8298
11.7917
11.7556
11.7194
11.6853
11.651
11.6188
11.5863
11.5561
11.5255
11.4975
11.4688
11.4431
11.4166
11.3936
11.3696
11.3496
11.3288
11.3125
11.2956
11.284
11.2725
11.2666
11.2631
11.2643
11.27
11.2835
11.3037
11.3332
11.3759
11.4294
11.5113
11.6024
11.7615
11.9263
12.2951
12.4468
14.4971
13.1756
6.52398
6.30272
6.67912
6.7568
6.92296
7.09855
7.16632
7.34366
7.637
7.11846
7.76771
8.07835
7.53657
8.29807
7.63737
7.85532
7.87268
7.85794
8.33364
7.5937
8.18443
7.53884
8.44957
7.88756
7.57627
8.73261
7.33172
8.88528
7.90968
8.46993
8.34989
7.22337
8.56844
7.23387
8.77508
7.85886
8.72226
8.72926
7.77685
9.33939
6.84119
8.44874
7.80604
8.48395
8.479
7.48678
9.30891
7.02574
9.28719
8.41011
8.80016
8.48712
7.6811
8.76462
7.40693
9.15228
8.39482
9.19528
9.16692
9.26303
9.12758
7.67834
9.6121
7.87665
9.53521
9.12426
8.80259
9.2178
8.02914
9.76285
8.55729
9.81445
8.22706
9.18005
8.39931
8.69706
8.62984
7.75308
9.09121
7.05793
9.10066
7.36008
8.80818
7.52796
8.28814
7.8434
7.30589
8.55555
6.40368
8.55976
7.28078
9.2097
7.14591
8.53205
8.0834
8.53138
8.70895
7.95814
9.30003
7.51447
9.52655
7.15008
9.30696
7.35765
8.33001
7.95168
7.43759
8.26532
7.23666
8.93057
6.9141
8.55864
7.00031
8.42399
7.57582
8.07032
7.6874
7.65925
8.59712
7.35215
9.25897
7.60923
9.32246
7.39012
8.75968
7.59089
7.93895
8.04382
7.14103
8.21727
6.51893
8.35084
6.89604
8.59746
7.43677
8.1909
7.93545
7.98062
8.53642
7.80887
9.00247
7.28804
8.78227
7.19466
8.25429
7.16338
8.27639
7.46406
7.68182
8.1857
7.55149
8.46677
7.35416
8.87709
7.50956
8.55546
7.55981
8.2205
7.41021
7.943
7.67167
7.74511
8.30552
7.7313
8.64806
8.06883
8.76963
7.23078
8.64373
7.36776
8.18702
7.67344
7.503
7.76118
7.70423
7.67672
8.22178
7.91843
7.79532
8.36542
8.13451
8.83443
7.43879
8.21677
7.72908
7.61122
7.09461
7.33626
7.54221
7.80402
7.83077
8.30642
8.14682
9.05326
8.64132
11.5593
16.8831
13.7732
9.35398
8.47576
)
;

boundaryField
{
    inlet
    {
        type            calculated;
        value           uniform 0;
    }
    outlet
    {
        type            calculated;
        value           uniform 0;
    }
    sideWall
    {
        type            empty;
    }
}


// ************************************************************************* //
