/*--------------------------------*- C++ -*----------------------------------*\
| =========                 |                                                 |
| \\      /  F ield         | foam-extend: Open Source CFD                    |
|  \\    /   O peration     | Version:     3.2                                |
|   \\  /    A nd           | Web:         http://www.foam-extend.org         |
|    \\/     M anipulation  | For copyright notice see file Copyright         |
\*---------------------------------------------------------------------------*/
FoamFile
{
    version     2.0;
    format      ascii;
    class       areaScalarField;
    location    "160";
    object      tauCB;
}
// * * * * * * * * * * * * * * * * * * * * * * * * * * * * * * * * * * * * * //

dimensions      [1 1 2 0 0 0 0];

internalField   nonuniform List<scalar> 
300
(
2.35358
2.35358
2.35358
2.35358
2.35358
2.35358
2.35358
2.35358
2.35358
2.35358
2.35358
2.35358
2.35358
2.35358
2.35358
2.35358
2.35358
2.35358
2.35358
2.35358
2.35358
2.35358
2.35358
2.35358
2.35358
2.35358
2.35358
2.35358
2.35358
2.35358
2.35358
2.35358
2.35358
2.35358
2.35358
2.35358
2.35358
2.35358
2.35358
2.35358
2.35358
2.35358
2.35358
2.35358
2.35358
2.35358
2.35358
2.35358
2.35358
2.35358
2.35358
2.35358
2.35358
2.35358
2.35358
2.35358
2.35358
2.35358
2.35358
2.35358
2.35358
2.35358
2.35358
2.35358
2.35358
2.35358
2.35358
2.35358
2.35358
2.35358
2.35358
2.35358
2.35358
2.35358
2.35358
2.35358
2.35358
2.35358
2.35358
2.35358
2.35358
2.35358
2.35358
2.35358
2.35358
2.35358
2.35358
2.35358
2.35358
2.35358
2.35358
2.35358
2.35358
2.35358
2.35358
2.35358
2.35358
2.35358
2.35358
1.99047
1.8573
2.04969
2.07482
2.12199
2.14474
2.18213
2.18853
2.22881
2.22449
2.2158
2.31724
2.24844
2.26544
4.97411
4.92476
5.17384
5.10083
2.33956
2.2913
2.27725
5.44728
5.39982
5.64108
5.37443
2.38757
2.34112
2.3064
2.41185
5.4857
5.86796
5.42116
5.79087
5.80986
2.32002
2.42931
2.30515
2.47598
5.47796
5.81881
5.6715
5.48959
5.91342
5.54655
2.48206
2.26663
2.43065
2.39469
5.5215
5.85651
5.33579
5.71305
2.25608
2.43521
2.35975
2.36455
2.46387
5.29231
5.49577
5.14784
5.30706
2.27954
2.38073
2.42812
2.33346
5.25165
4.80596
5.09679
4.79988
2.38423
2.4175
2.33295
2.40271
2.26751
4.97536
4.64025
5.02684
2.22448
2.39092
2.31313
2.26924
5.11426
4.80937
5.23991
4.77323
2.46232
2.1931
2.4658
2.281
2.30985
5.34592
5.08247
5.34075
2.25491
2.53046
2.27941
2.52739
2.27675
5.15393
4.80689
4.81514
4.93321
4.6722
2.44531
2.19813
2.4903
2.19025
2.45477
2.26784
2.39636
4.93641
4.78461
5.0661
4.77706
5.17904
2.24235
2.46961
2.24498
2.49027
4.79698
5.00712
4.99855
4.74299
2.42496
2.24595
2.44756
2.20146
5.10675
4.57677
5.04611
2.28724
2.30215
2.39731
2.2914
2.46613
4.7742
5.22466
4.77101
5.18644
2.29578
2.4203
2.34603
2.29986
4.92019
4.7091
5.0355
4.75046
5.14866
2.23236
2.47536
2.2824
2.41791
4.91163
4.92169
5.00588
4.79065
2.40861
2.26386
2.40639
2.25548
5.17537
4.80396
5.20212
4.85933
5.05248
2.37757
2.35968
2.35723
2.29135
5.00549
4.72222
5.09957
2.24611
2.41853
2.30726
5.07051
4.89828
5.0751
4.78872
2.44406
2.37362
2.41876
4.74615
4.67045
2.40252
2.30786
2.37397
4.66347
4.89114
4.72525
4.78049
4.5879
4.58826
4.34335
4.27586
3.92601
3.79105
2.99195
2.35358
2.35358
2.35358
)
;

boundaryField
{
    inlet
    {
        type            calculated;
        value           uniform 0;
    }
    outlet
    {
        type            calculated;
        value           uniform 0;
    }
    sideWall
    {
        type            empty;
    }
}


// ************************************************************************* //
