/*--------------------------------*- C++ -*----------------------------------*\
| =========                 |                                                 |
| \\      /  F ield         | foam-extend: Open Source CFD                    |
|  \\    /   O peration     | Version:     3.2                                |
|   \\  /    A nd           | Web:         http://www.foam-extend.org         |
|    \\/     M anipulation  | For copyright notice see file Copyright         |
\*---------------------------------------------------------------------------*/
FoamFile
{
    version     2.0;
    format      ascii;
    class       areaScalarField;
    location    "160";
    object      tauCSS2;
}
// * * * * * * * * * * * * * * * * * * * * * * * * * * * * * * * * * * * * * //

dimensions      [1 1 2 0 0 0 0];

internalField   nonuniform List<scalar> 
300
(
0.126764
0.126764
0.126764
0.126764
0.126764
0.126764
0.126764
0.126764
0.126764
0.126764
0.126764
0.126764
0.126764
0.126764
0.126764
0.126764
0.126764
0.126764
0.126764
0.126764
0.126764
0.126764
0.126764
0.126764
0.126764
0.126764
0.126764
0.126764
0.126764
0.126764
0.126764
0.126764
0.126764
0.126764
0.126764
0.126764
0.126764
0.126764
0.126764
0.126764
0.126764
0.126764
0.126764
0.126764
0.126764
0.126764
0.126764
0.126764
0.126764
0.126764
0.126764
0.126764
0.126764
0.126764
0.126764
0.126764
0.126764
0.126764
0.126764
0.126764
0.126764
0.126764
0.126764
0.126764
0.126764
0.126764
0.126764
0.126764
0.126764
0.126764
0.126764
0.126764
0.126764
0.126764
0.126764
0.126764
0.126764
0.126764
0.126764
0.126764
0.126764
0.126764
0.126764
0.126764
0.126764
0.126764
0.126764
0.126764
0.126764
0.126764
0.126764
0.126764
0.126764
0.126764
0.126764
0.126764
0.126764
0.126764
0.126764
0.107207
0.100034
0.110396
0.111749
0.11429
0.115515
0.117529
0.117874
0.120043
0.119811
0.119342
0.124806
0.1211
0.122016
0.267905
0.265247
0.278662
0.27473
0.126008
0.123409
0.122652
0.29339
0.290833
0.303828
0.289466
0.128594
0.126092
0.124222
0.129902
0.295459
0.316047
0.291983
0.311895
0.312918
0.124956
0.130842
0.124155
0.133356
0.295042
0.3134
0.305466
0.295668
0.318496
0.298736
0.133684
0.12208
0.130915
0.128978
0.297387
0.315431
0.287385
0.307704
0.121512
0.13116
0.127096
0.127354
0.132704
0.285043
0.296001
0.277262
0.285837
0.122776
0.128226
0.130778
0.12568
0.282853
0.258848
0.274512
0.258521
0.128414
0.130206
0.125652
0.12941
0.122128
0.267972
0.249923
0.270745
0.11981
0.128774
0.124585
0.122221
0.275453
0.259032
0.282221
0.257085
0.13262
0.11812
0.132807
0.122855
0.124408
0.28793
0.273741
0.287652
0.121449
0.13629
0.122769
0.136125
0.122625
0.27759
0.258898
0.259343
0.265702
0.251644
0.131704
0.118391
0.134127
0.117966
0.132213
0.122146
0.129068
0.265874
0.257698
0.272859
0.257292
0.278942
0.120772
0.133013
0.120914
0.134126
0.258365
0.269682
0.269221
0.255457
0.130608
0.120967
0.131825
0.11857
0.275048
0.246504
0.271783
0.12319
0.123994
0.129119
0.123414
0.132826
0.257138
0.281399
0.256966
0.279341
0.12365
0.130357
0.126357
0.12387
0.265001
0.253631
0.271211
0.255859
0.277306
0.120235
0.133322
0.122929
0.130228
0.264539
0.265081
0.269616
0.258024
0.129727
0.121931
0.129607
0.12148
0.278744
0.25874
0.280185
0.261723
0.272125
0.128055
0.127092
0.12696
0.123412
0.269595
0.254338
0.274662
0.120975
0.130261
0.124268
0.273097
0.263821
0.273344
0.257919
0.131636
0.127843
0.130274
0.255627
0.25155
0.129399
0.124301
0.127862
0.251174
0.263436
0.254501
0.257477
0.247103
0.247123
0.233932
0.230297
0.211454
0.204185
0.161146
0.126764
0.126764
0.126764
)
;

boundaryField
{
    inlet
    {
        type            calculated;
        value           uniform 0;
    }
    outlet
    {
        type            calculated;
        value           uniform 0;
    }
    sideWall
    {
        type            empty;
    }
}


// ************************************************************************* //
