/*--------------------------------*- C++ -*----------------------------------*\
| =========                 |                                                 |
| \\      /  F ield         | foam-extend: Open Source CFD                    |
|  \\    /   O peration     | Version:     3.2                                |
|   \\  /    A nd           | Web:         http://www.foam-extend.org         |
|    \\/     M anipulation  | For copyright notice see file Copyright         |
\*---------------------------------------------------------------------------*/
FoamFile
{
    version     2.0;
    format      ascii;
    class       areaScalarField;
    location    "160";
    object      tauCSS1;
}
// * * * * * * * * * * * * * * * * * * * * * * * * * * * * * * * * * * * * * //

dimensions      [1 1 2 0 0 0 0];

internalField   nonuniform List<scalar> 
300
(
0.108551
0.108551
0.108551
0.108551
0.108551
0.108551
0.108551
0.108551
0.108551
0.108551
0.108551
0.108551
0.108551
0.108551
0.108551
0.108551
0.108551
0.108551
0.108551
0.108551
0.108551
0.108551
0.108551
0.108551
0.108551
0.108551
0.108551
0.108551
0.108551
0.108551
0.108551
0.108551
0.108551
0.108551
0.108551
0.108551
0.108551
0.108551
0.108551
0.108551
0.108551
0.108551
0.108551
0.108551
0.108551
0.108551
0.108551
0.108551
0.108551
0.108551
0.108551
0.108551
0.108551
0.108551
0.108551
0.108551
0.108551
0.108551
0.108551
0.108551
0.108551
0.108551
0.108551
0.108551
0.108551
0.108551
0.108551
0.108551
0.108551
0.108551
0.108551
0.108551
0.108551
0.108551
0.108551
0.108551
0.108551
0.108551
0.108551
0.108551
0.108551
0.108551
0.108551
0.108551
0.108551
0.108551
0.108551
0.108551
0.108551
0.108551
0.108551
0.108551
0.108551
0.108551
0.108551
0.108551
0.108551
0.108551
0.108551
0.0918035
0.0856612
0.0945344
0.0956934
0.0978693
0.0989186
0.100643
0.100938
0.102796
0.102597
0.102196
0.106874
0.103701
0.104485
0.229413
0.227137
0.238625
0.235258
0.107904
0.105678
0.10503
0.251236
0.249047
0.260175
0.247876
0.110118
0.107976
0.106375
0.111238
0.253008
0.270639
0.250031
0.267083
0.267959
0.107003
0.112043
0.106317
0.114196
0.252651
0.268372
0.261578
0.253188
0.272735
0.255815
0.114476
0.10454
0.112105
0.110447
0.254659
0.270111
0.246094
0.263494
0.104053
0.112315
0.108835
0.109056
0.113637
0.244089
0.253473
0.237426
0.244769
0.105136
0.109803
0.111988
0.107622
0.242214
0.221658
0.235071
0.221377
0.109964
0.111499
0.107599
0.110817
0.104581
0.229471
0.214015
0.231845
0.102596
0.110272
0.106685
0.104661
0.235877
0.221815
0.241672
0.220148
0.113566
0.101149
0.113726
0.105203
0.106534
0.246561
0.234411
0.246323
0.103999
0.116709
0.10513
0.116567
0.105007
0.237707
0.2217
0.222081
0.227526
0.215488
0.112781
0.101381
0.114856
0.101017
0.113217
0.104596
0.110524
0.227674
0.220673
0.233656
0.220325
0.238865
0.10342
0.113902
0.103542
0.114855
0.221244
0.230935
0.23054
0.218753
0.111843
0.103586
0.112885
0.101534
0.23553
0.211087
0.232734
0.105491
0.106179
0.110567
0.105683
0.113742
0.220193
0.240969
0.220046
0.239206
0.105884
0.111628
0.108202
0.106073
0.226926
0.21719
0.232244
0.219098
0.237463
0.10296
0.114167
0.105267
0.111517
0.226531
0.226995
0.230878
0.220952
0.111088
0.104412
0.110986
0.104026
0.238695
0.221565
0.239929
0.224119
0.233027
0.109657
0.108832
0.108719
0.10568
0.23086
0.217795
0.235199
0.103594
0.111546
0.106414
0.233859
0.225916
0.234071
0.220862
0.112723
0.109475
0.111556
0.218899
0.215408
0.110807
0.106442
0.109491
0.215086
0.225586
0.217935
0.220483
0.2116
0.211617
0.200321
0.197209
0.181073
0.174848
0.137993
0.108551
0.108551
0.108551
)
;

boundaryField
{
    inlet
    {
        type            calculated;
        value           uniform 0;
    }
    outlet
    {
        type            calculated;
        value           uniform 0;
    }
    sideWall
    {
        type            empty;
    }
}


// ************************************************************************* //
