/*--------------------------------*- C++ -*----------------------------------*\
| =========                 |                                                 |
| \\      /  F ield         | foam-extend: Open Source CFD                    |
|  \\    /   O peration     | Version:     3.2                                |
|   \\  /    A nd           | Web:         http://www.foam-extend.org         |
|    \\/     M anipulation  | For copyright notice see file Copyright         |
\*---------------------------------------------------------------------------*/
FoamFile
{
    version     2.0;
    format      ascii;
    class       areaScalarField;
    location    "160";
    object      thetaBinit;
}
// * * * * * * * * * * * * * * * * * * * * * * * * * * * * * * * * * * * * * //

dimensions      [0 0 0 0 0 0 0];

internalField   nonuniform List<scalar> 
300
(
0.990735
0.788995
0.547354
0.44946
0.412556
0.393203
0.379188
0.366923
0.355633
0.345388
0.336243
0.328069
0.320673
0.314075
0.308136
0.302739
0.297802
0.293245
0.289072
0.285266
0.281733
0.278413
0.275295
0.272368
0.269623
0.267024
0.264569
0.262234
0.260022
0.257926
0.255925
0.254018
0.252189
0.250443
0.248771
0.247172
0.245631
0.244152
0.242725
0.241351
0.240031
0.238752
0.237521
0.236326
0.235172
0.234054
0.232973
0.231925
0.230907
0.22992
0.228958
0.228025
0.227119
0.226237
0.225379
0.224541
0.223727
0.222928
0.222147
0.221384
0.220639
0.219913
0.219203
0.21851
0.217834
0.217174
0.216529
0.215897
0.215279
0.214675
0.214084
0.213506
0.21294
0.212387
0.211844
0.211315
0.210797
0.21029
0.209795
0.20931
0.20884
0.208378
0.207931
0.207495
0.207074
0.206666
0.206278
0.205901
0.205552
0.205221
0.204922
0.204662
0.204441
0.204303
0.204226
0.204281
0.20476
0.20488
0.209661
0.204975
0.187288
0.188086
0.194948
0.195614
0.195938
0.195785
0.195644
0.195353
0.195006
0.194782
0.194559
0.194164
0.19379
0.193459
0.193121
0.192797
0.192471
0.192151
0.191832
0.191516
0.191204
0.190894
0.190587
0.190283
0.189981
0.189681
0.189385
0.189091
0.188799
0.188509
0.188223
0.187939
0.187656
0.187376
0.187097
0.186821
0.186546
0.186273
0.186004
0.185737
0.185473
0.185211
0.184954
0.184698
0.184448
0.1842
0.183956
0.183715
0.183477
0.18324
0.183005
0.18277
0.182536
0.182303
0.182072
0.181843
0.181615
0.181388
0.181164
0.180941
0.180719
0.1805
0.180282
0.180066
0.179851
0.179639
0.179427
0.179217
0.179009
0.178803
0.178598
0.178395
0.178193
0.177992
0.177793
0.177595
0.177399
0.177204
0.17701
0.176817
0.176626
0.176435
0.176247
0.17606
0.175873
0.175688
0.175505
0.175323
0.175141
0.174961
0.174783
0.174605
0.174428
0.174252
0.174078
0.173905
0.173734
0.173563
0.173393
0.173224
0.173055
0.172888
0.172721
0.172556
0.172392
0.172228
0.172066
0.171905
0.171744
0.171584
0.171425
0.171267
0.171111
0.170955
0.170801
0.170647
0.170494
0.170341
0.17019
0.170038
0.169887
0.169737
0.169587
0.169439
0.169291
0.169144
0.168998
0.168853
0.168709
0.168567
0.168424
0.168282
0.16814
0.167999
0.167858
0.167718
0.167579
0.16744
0.167302
0.167165
0.167028
0.166892
0.166756
0.166622
0.166487
0.166354
0.166221
0.166088
0.165957
0.165826
0.165695
0.165565
0.165436
0.165308
0.16518
0.165053
0.164926
0.164799
0.164672
0.164546
0.164421
0.164295
0.164172
0.164048
0.163926
0.163803
0.163682
0.163561
0.163442
0.163321
0.163205
0.163084
0.162968
0.162846
0.162729
0.162604
0.162485
0.162356
0.162233
0.162099
0.161969
0.161826
0.161684
0.16153
0.161376
0.161191
0.160902
0.160728
0.16047
0.160222
0.159843
0.159456
0.158854
0.158351
0.156274
0.158815
0.165756
0.1657
0.163154
0.162981
)
;

boundaryField
{
    inlet
    {
        type            calculated;
        value           uniform 0;
    }
    outlet
    {
        type            calculated;
        value           uniform 0;
    }
    sideWall
    {
        type            empty;
    }
}


// ************************************************************************* //
