/*--------------------------------*- C++ -*----------------------------------*\
| =========                 |                                                 |
| \\      /  F ield         | foam-extend: Open Source CFD                    |
|  \\    /   O peration     | Version:     3.2                                |
|   \\  /    A nd           | Web:         http://www.foam-extend.org         |
|    \\/     M anipulation  | For copyright notice see file Copyright         |
\*---------------------------------------------------------------------------*/
FoamFile
{
    version     2.0;
    format      ascii;
    class       areaScalarField;
    location    "160";
    object      thetaB;
}
// * * * * * * * * * * * * * * * * * * * * * * * * * * * * * * * * * * * * * //

dimensions      [0 0 0 0 0 0 0];

internalField   nonuniform List<scalar> 
300
(
0.990737
0.788995
0.547354
0.44946
0.412555
0.393202
0.379187
0.366923
0.355633
0.345388
0.336244
0.328069
0.320673
0.314075
0.308137
0.302739
0.297802
0.293245
0.289072
0.285266
0.281733
0.278413
0.275296
0.272369
0.269624
0.267025
0.26457
0.262234
0.260023
0.257926
0.255926
0.254019
0.25219
0.250444
0.248772
0.247173
0.245632
0.244153
0.242726
0.241352
0.240032
0.238754
0.237523
0.236329
0.235174
0.234058
0.232976
0.231931
0.230911
0.229927
0.228964
0.228035
0.227127
0.22625
0.225392
0.22456
0.223745
0.222958
0.222174
0.221424
0.220678
0.219967
0.219259
0.218587
0.217914
0.21728
0.216642
0.216044
0.215439
0.214878
0.214308
0.213788
0.213255
0.212777
0.212284
0.211855
0.21141
0.211037
0.210651
0.210348
0.210034
0.209817
0.209604
0.209496
0.20943
0.209451
0.209557
0.209809
0.210185
0.210732
0.211527
0.212522
0.214044
0.215738
0.218698
0.221762
0.22862
0.231439
0.269564
0.244992
0.121309
0.117195
0.124194
0.125638
0.128728
0.131993
0.133253
0.13655
0.142005
0.132363
0.144435
0.150211
0.140137
0.154297
0.142012
0.146064
0.146387
0.146113
0.154958
0.1412
0.152184
0.14018
0.157114
0.146664
0.140876
0.162377
0.136328
0.165216
0.147075
0.157492
0.155261
0.134314
0.159324
0.134509
0.163167
0.14613
0.162184
0.162315
0.144605
0.17366
0.127207
0.157099
0.145148
0.157753
0.157661
0.139211
0.173093
0.130639
0.172689
0.15638
0.163633
0.157812
0.142825
0.162972
0.137727
0.17018
0.156096
0.17098
0.170452
0.17224
0.169721
0.142773
0.17873
0.146461
0.177301
0.169659
0.163678
0.171399
0.149296
0.181534
0.159117
0.182493
0.152976
0.170697
0.156179
0.161716
0.160466
0.144163
0.169045
0.131237
0.16922
0.136856
0.163782
0.139977
0.154112
0.145843
0.135848
0.159085
0.119072
0.159163
0.135381
0.171248
0.132873
0.158648
0.150305
0.158635
0.161937
0.147976
0.172928
0.139726
0.17714
0.132951
0.173056
0.13681
0.154891
0.147856
0.138297
0.153688
0.134561
0.166058
0.128563
0.159142
0.130166
0.156638
0.140867
0.150062
0.142942
0.142418
0.159858
0.136708
0.172164
0.141488
0.173345
0.137414
0.16288
0.141147
0.147619
0.149569
0.132783
0.152794
0.121215
0.155278
0.128227
0.159864
0.138282
0.152304
0.147554
0.148394
0.158729
0.145201
0.167395
0.135516
0.1633
0.13378
0.153483
0.133198
0.153894
0.138789
0.142838
0.152207
0.140415
0.157434
0.136746
0.165063
0.139635
0.159083
0.140569
0.152855
0.137788
0.147695
0.142649
0.144015
0.154435
0.143758
0.160805
0.150034
0.163065
0.134451
0.160724
0.136998
0.152232
0.142682
0.139513
0.144314
0.143255
0.142743
0.152878
0.147238
0.144949
0.155549
0.151256
0.16427
0.138319
0.152785
0.143717
0.141525
0.131919
0.136413
0.140242
0.14511
0.145608
0.154452
0.151484
0.168339
0.160679
0.214937
0.313929
0.256104
0.173931
0.157601
)
;

boundaryField
{
    inlet
    {
        type            calculated;
        value           uniform 0;
    }
    outlet
    {
        type            calculated;
        value           uniform 0;
    }
    sideWall
    {
        type            empty;
    }
}


// ************************************************************************* //
