/*--------------------------------*- C++ -*----------------------------------*\
| =========                 |                                                 |
| \\      /  F ield         | foam-extend: Open Source CFD                    |
|  \\    /   O peration     | Version:     3.2                                |
|   \\  /    A nd           | Web:         http://www.foam-extend.org         |
|    \\/     M anipulation  | For copyright notice see file Copyright         |
\*---------------------------------------------------------------------------*/
FoamFile
{
    version     2.0;
    format      ascii;
    class       areaScalarField;
    location    "160";
    object      thetaSS2init;
}
// * * * * * * * * * * * * * * * * * * * * * * * * * * * * * * * * * * * * * //

dimensions      [0 0 0 0 0 0 0];

internalField   nonuniform List<scalar> 
300
(
13.5108
10.7597
7.46437
6.12937
5.62611
5.36218
5.17106
5.0038
4.84983
4.71012
4.58541
4.47393
4.37307
4.28309
4.20211
4.12851
4.06118
3.99903
3.94213
3.89023
3.84205
3.79677
3.75425
3.71434
3.6769
3.64146
3.60798
3.57613
3.54598
3.51738
3.4901
3.46409
3.43915
3.41534
3.39254
3.37073
3.34972
3.32954
3.31009
3.29134
3.27334
3.25591
3.23912
3.22282
3.20708
3.19183
3.1771
3.16281
3.14892
3.13546
3.12234
3.10962
3.09726
3.08524
3.07353
3.06211
3.051
3.04012
3.02946
3.01905
3.00889
2.99899
2.98931
2.97986
2.97064
2.96164
2.95284
2.94423
2.9358
2.92756
2.9195
2.91162
2.90391
2.89636
2.88896
2.88175
2.87467
2.86776
2.86101
2.85441
2.84799
2.84169
2.83559
2.82965
2.82391
2.81834
2.81305
2.80792
2.80315
2.79864
2.79456
2.79101
2.78799
2.78611
2.78506
2.78581
2.79235
2.79399
2.85919
2.79528
2.55408
2.56497
2.65854
2.66763
2.67205
2.66995
2.66803
2.66406
2.65934
2.65628
2.65323
2.64785
2.64276
2.63824
2.63363
2.62921
2.62476
2.62039
2.61605
2.61174
2.60748
2.60325
2.59907
2.59493
2.59081
2.58672
2.58267
2.57866
2.57468
2.57073
2.56683
2.56297
2.5591
2.55529
2.55148
2.54771
2.54396
2.54024
2.53657
2.53293
2.52933
2.52576
2.52225
2.51877
2.51535
2.51198
2.50865
2.50536
2.50211
2.49888
2.49567
2.49246
2.48928
2.48611
2.48295
2.47982
2.47672
2.47363
2.47057
2.46753
2.4645
2.46151
2.45854
2.45559
2.45266
2.44976
2.44688
2.44402
2.44118
2.43837
2.43557
2.43281
2.43005
2.42732
2.4246
2.4219
2.41922
2.41656
2.41392
2.41128
2.40868
2.40608
2.40351
2.40096
2.39841
2.39589
2.39339
2.39091
2.38844
2.38598
2.38354
2.38112
2.37871
2.37631
2.37394
2.37158
2.36924
2.36691
2.36459
2.36229
2.35999
2.35771
2.35544
2.35318
2.35094
2.34871
2.3465
2.3443
2.3421
2.33993
2.33776
2.3356
2.33347
2.33134
2.32924
2.32714
2.32505
2.32297
2.32091
2.31884
2.31678
2.31474
2.31269
2.31067
2.30865
2.30665
2.30466
2.30269
2.30072
2.29877
2.29683
2.2949
2.29296
2.29103
2.28911
2.2872
2.2853
2.28342
2.28153
2.27967
2.27779
2.27594
2.27409
2.27225
2.27042
2.2686
2.26678
2.26498
2.26318
2.2614
2.25961
2.25785
2.25608
2.25434
2.25259
2.25085
2.24912
2.24739
2.24566
2.24394
2.24224
2.24053
2.23885
2.23715
2.23549
2.23381
2.23217
2.23051
2.22889
2.22724
2.22565
2.22401
2.22243
2.22076
2.21916
2.21746
2.21583
2.21408
2.2124
2.21057
2.2088
2.20685
2.20491
2.20282
2.20072
2.19819
2.19426
2.19187
2.18836
2.18497
2.17981
2.17454
2.16632
2.15946
2.13114
2.16579
2.26045
2.25968
2.22496
2.22261
)
;

boundaryField
{
    inlet
    {
        type            calculated;
        value           uniform 0;
    }
    outlet
    {
        type            calculated;
        value           uniform 0;
    }
    sideWall
    {
        type            empty;
    }
}


// ************************************************************************* //
