/*--------------------------------*- C++ -*----------------------------------*\
| =========                 |                                                 |
| \\      /  F ield         | foam-extend: Open Source CFD                    |
|  \\    /   O peration     | Version:     3.2                                |
|   \\  /    A nd           | Web:         http://www.foam-extend.org         |
|    \\/     M anipulation  | For copyright notice see file Copyright         |
\*---------------------------------------------------------------------------*/
FoamFile
{
    version     2.0;
    format      ascii;
    class       areaScalarField;
    location    "160";
    object      thetaCSS2;
}
// * * * * * * * * * * * * * * * * * * * * * * * * * * * * * * * * * * * * * //

dimensions      [0 0 0 0 0 0 0];

internalField   nonuniform List<scalar> 
300
(
0.032144
0.032144
0.032144
0.032144
0.032144
0.032144
0.032144
0.032144
0.032144
0.032144
0.032144
0.032144
0.032144
0.032144
0.032144
0.032144
0.032144
0.032144
0.032144
0.032144
0.032144
0.032144
0.032144
0.032144
0.032144
0.032144
0.032144
0.032144
0.032144
0.032144
0.032144
0.032144
0.032144
0.032144
0.032144
0.032144
0.032144
0.032144
0.032144
0.032144
0.032144
0.032144
0.032144
0.032144
0.032144
0.032144
0.032144
0.032144
0.032144
0.032144
0.032144
0.032144
0.032144
0.032144
0.032144
0.032144
0.032144
0.032144
0.032144
0.032144
0.032144
0.032144
0.032144
0.032144
0.032144
0.032144
0.032144
0.032144
0.032144
0.032144
0.032144
0.032144
0.032144
0.032144
0.032144
0.032144
0.032144
0.032144
0.032144
0.032144
0.032144
0.032144
0.032144
0.032144
0.032144
0.032144
0.032144
0.032144
0.032144
0.032144
0.032144
0.032144
0.032144
0.032144
0.032144
0.032144
0.032144
0.032144
0.032144
0.0271848
0.025366
0.0279935
0.0283367
0.028981
0.0292917
0.0298023
0.0298898
0.0304398
0.0303809
0.0302621
0.0316476
0.0307079
0.0309401
0.0679337
0.0672597
0.0706616
0.0696644
0.0319524
0.0312934
0.0311015
0.074396
0.0737478
0.0770429
0.0734011
0.0326082
0.0319738
0.0314996
0.0329397
0.0749207
0.0801415
0.0740392
0.0790885
0.0793479
0.0316856
0.0331782
0.0314825
0.0338156
0.0748151
0.0794702
0.0774583
0.0749738
0.0807623
0.0757518
0.0338987
0.0309565
0.0331965
0.0327054
0.0754096
0.0799851
0.0728734
0.0780257
0.0308123
0.0332588
0.0322281
0.0322937
0.0336502
0.0722795
0.0750582
0.0703064
0.0724809
0.0311327
0.0325148
0.033162
0.0318691
0.0717242
0.0656372
0.0696092
0.0655542
0.0325625
0.0330169
0.0318621
0.032815
0.0309685
0.0679508
0.063374
0.0686539
0.0303807
0.0326538
0.0315915
0.0309921
0.0698477
0.0656838
0.0715639
0.0651902
0.033629
0.0299522
0.0336765
0.0311527
0.0315467
0.0730116
0.0694136
0.0729411
0.0307963
0.0345597
0.031131
0.0345178
0.0310945
0.0703896
0.0656499
0.0657626
0.0673751
0.0638104
0.0333967
0.0300209
0.0340112
0.0299132
0.0335259
0.0309729
0.0327282
0.0674188
0.0653456
0.0691901
0.0652425
0.0707325
0.0306248
0.0337286
0.0306607
0.0340108
0.0655146
0.0683845
0.0682674
0.0647772
0.0331188
0.030674
0.0334274
0.0300664
0.0697452
0.062507
0.0689171
0.0312379
0.0314416
0.0327412
0.0312947
0.0336811
0.0652034
0.0713556
0.0651598
0.0708335
0.0313545
0.0330552
0.0320407
0.0314103
0.0671973
0.0643143
0.0687721
0.0648792
0.0703176
0.0304884
0.0338071
0.0311717
0.0330224
0.0670804
0.0672177
0.0683676
0.0654281
0.0328955
0.0309185
0.0328651
0.0308042
0.0706824
0.0656098
0.0710477
0.0663662
0.069004
0.0324716
0.0322273
0.0321938
0.031294
0.0683623
0.0644935
0.0696472
0.0306761
0.0330309
0.0315113
0.0692503
0.0668981
0.069313
0.0654017
0.0333796
0.0324177
0.0330341
0.0648203
0.0637865
0.0328123
0.0315195
0.0324224
0.0636912
0.0668005
0.0645349
0.0652894
0.062659
0.0626639
0.0593191
0.0583974
0.0536194
0.0517761
0.0408625
0.032144
0.032144
0.032144
)
;

boundaryField
{
    inlet
    {
        type            calculated;
        value           uniform 0;
    }
    outlet
    {
        type            calculated;
        value           uniform 0;
    }
    sideWall
    {
        type            empty;
    }
}


// ************************************************************************* //
