/*--------------------------------*- C++ -*----------------------------------*\
| =========                 |                                                 |
| \\      /  F ield         | foam-extend: Open Source CFD                    |
|  \\    /   O peration     | Version:     3.2                                |
|   \\  /    A nd           | Web:         http://www.foam-extend.org         |
|    \\/     M anipulation  | For copyright notice see file Copyright         |
\*---------------------------------------------------------------------------*/
FoamFile
{
    version     2.0;
    format      ascii;
    class       areaScalarField;
    location    "160";
    object      thetaC2SS2;
}
// * * * * * * * * * * * * * * * * * * * * * * * * * * * * * * * * * * * * * //

dimensions      [0 0 0 0 0 0 0];

internalField   nonuniform List<scalar> 
300
(
0.032144
0.032144
0.032144
0.032144
0.032144
0.032144
0.032144
0.032144
0.032144
0.032144
0.032144
0.032144
0.032144
0.032144
0.032144
0.032144
0.032144
0.032144
0.032144
0.032144
0.032144
0.032144
0.032144
0.032144
0.032144
0.032144
0.032144
0.032144
0.032144
0.032144
0.032144
0.032144
0.032144
0.032144
0.032144
0.032144
0.032144
0.032144
0.032144
0.032144
0.032144
0.032144
0.032144
0.032144
0.032144
0.032144
0.032144
0.032144
0.032144
0.032144
0.032144
0.032144
0.032144
0.032144
0.032144
0.032144
0.032144
0.032144
0.032144
0.032144
0.032144
0.032144
0.032144
0.032144
0.032144
0.032144
0.032144
0.032144
0.032144
0.032144
0.032144
0.032144
0.032144
0.032144
0.032144
0.032144
0.032144
0.032144
0.032144
0.032144
0.032144
0.032144
0.032144
0.032144
0.032144
0.032144
0.032144
0.032144
0.032144
0.032144
0.032144
0.032144
0.032144
0.032144
0.032144
0.032144
0.032144
0.032144
0.032144
0.032144
0.032144
0.032144
0.032144
0.032144
0.032144
0.032144
0.032144
0.032144
0.032144
0.032144
0.032144
0.032144
0.032144
0.0695797
0.0707048
0.0716838
0.0725185
0.032144
0.032144
0.032144
0.0753492
0.0760107
0.0763271
0.0768833
0.032144
0.032144
0.032144
0.032144
0.0777006
0.0777778
0.078106
0.0788701
0.0786968
0.032144
0.032144
0.032144
0.032144
0.0775362
0.0777297
0.0773564
0.0779247
0.077942
0.0777761
0.032144
0.032144
0.032144
0.032144
0.0761723
0.0753516
0.0747697
0.074391
0.032144
0.032144
0.032144
0.032144
0.032144
0.0720459
0.0711152
0.070215
0.069521
0.032144
0.032144
0.032144
0.032144
0.0678182
0.0672858
0.0670694
0.0667509
0.032144
0.032144
0.032144
0.032144
0.032144
0.0660717
0.0663112
0.0664841
0.032144
0.032144
0.032144
0.032144
0.0685171
0.0689459
0.0691227
0.0695316
0.032144
0.032144
0.032144
0.032144
0.032144
0.0706456
0.0703179
0.0698087
0.032144
0.032144
0.032144
0.032144
0.032144
0.0667938
0.0660298
0.0662304
0.0660172
0.066271
0.032144
0.032144
0.032144
0.032144
0.032144
0.032144
0.032144
0.0670844
0.0675041
0.0676413
0.0678862
0.0678098
0.032144
0.032144
0.032144
0.032144
0.0669577
0.0669588
0.066108
0.0658459
0.032144
0.032144
0.032144
0.032144
0.0665368
0.0667588
0.0673869
0.032144
0.032144
0.032144
0.032144
0.032144
0.0679395
0.0677119
0.0673688
0.0669609
0.032144
0.032144
0.032144
0.032144
0.066582
0.0670769
0.0673955
0.0677276
0.0677926
0.032144
0.032144
0.032144
0.032144
0.0672907
0.0673766
0.0671215
0.067252
0.032144
0.032144
0.032144
0.032144
0.0681178
0.0680894
0.0679289
0.0674539
0.0673089
0.032144
0.032144
0.032144
0.032144
0.0669557
0.0672654
0.0673729
0.032144
0.032144
0.032144
0.0676236
0.0673496
0.0668798
0.0665818
0.032144
0.032144
0.032144
0.0644008
0.0644626
0.032144
0.032144
0.032144
0.0645032
0.0640101
0.0629144
0.0615405
0.0598212
0.0576914
0.0550874
0.0518027
0.0477627
0.0417471
0.0349282
0.032144
0.032144
0.032144
)
;

boundaryField
{
    inlet
    {
        type            calculated;
        value           uniform 0;
    }
    outlet
    {
        type            calculated;
        value           uniform 0;
    }
    sideWall
    {
        type            empty;
    }
}


// ************************************************************************* //
