/*--------------------------------*- C++ -*----------------------------------*\
| =========                 |                                                 |
| \\      /  F ield         | foam-extend: Open Source CFD                    |
|  \\    /   O peration     | Version:     3.2                                |
|   \\  /    A nd           | Web:         http://www.foam-extend.org         |
|    \\/     M anipulation  | For copyright notice see file Copyright         |
\*---------------------------------------------------------------------------*/
FoamFile
{
    version     2.0;
    format      ascii;
    class       areaScalarField;
    location    "160";
    object      thetaC2SS1;
}
// * * * * * * * * * * * * * * * * * * * * * * * * * * * * * * * * * * * * * //

dimensions      [0 0 0 0 0 0 0];

internalField   nonuniform List<scalar> 
300
(
0.0551061
0.0551061
0.0551061
0.0551061
0.0551061
0.0551061
0.0551061
0.0551061
0.0551061
0.0551061
0.0551061
0.0551061
0.0551061
0.0551061
0.0551061
0.0551061
0.0551061
0.0551061
0.0551061
0.0551061
0.0551061
0.0551061
0.0551061
0.0551061
0.0551061
0.0551061
0.0551061
0.0551061
0.0551061
0.0551061
0.0551061
0.0551061
0.0551061
0.0551061
0.0551061
0.0551061
0.0551061
0.0551061
0.0551061
0.0551061
0.0551061
0.0551061
0.0551061
0.0551061
0.0551061
0.0551061
0.0551061
0.0551061
0.0551061
0.0551061
0.0551061
0.0551061
0.0551061
0.0551061
0.0551061
0.0551061
0.0551061
0.0551061
0.0551061
0.0551061
0.0551061
0.0551061
0.0551061
0.0551061
0.0551061
0.0551061
0.0551061
0.0551061
0.0551061
0.0551061
0.0551061
0.0551061
0.0551061
0.0551061
0.0551061
0.0551061
0.0551061
0.0551061
0.0551061
0.0551061
0.0551061
0.0551061
0.0551061
0.0551061
0.0551061
0.0551061
0.0551061
0.0551061
0.0551061
0.0551061
0.0551061
0.0551061
0.0551061
0.0551061
0.0551061
0.0551061
0.0551061
0.0551061
0.0551061
0.0551061
0.0551061
0.0551061
0.0551061
0.0551061
0.0551061
0.0551061
0.0551061
0.0551061
0.0551061
0.0551061
0.0551061
0.0551061
0.0551061
0.119284
0.121213
0.122891
0.124322
0.0551061
0.0551061
0.0551061
0.129175
0.130309
0.130852
0.131805
0.0551061
0.0551061
0.0551061
0.0551061
0.133206
0.133339
0.133901
0.135211
0.134914
0.0551061
0.0551061
0.0551061
0.0551061
0.132924
0.133256
0.132616
0.13359
0.13362
0.133336
0.0551061
0.0551061
0.0551061
0.0551061
0.130586
0.129179
0.128182
0.127532
0.0551061
0.0551061
0.0551061
0.0551061
0.0551061
0.123512
0.121916
0.120373
0.119183
0.0551061
0.0551061
0.0551061
0.0551061
0.116264
0.115352
0.114981
0.114435
0.0551061
0.0551061
0.0551061
0.0551061
0.0551061
0.11327
0.113681
0.113977
0.0551061
0.0551061
0.0551061
0.0551061
0.117462
0.118198
0.118501
0.119202
0.0551061
0.0551061
0.0551061
0.0551061
0.0551061
0.121111
0.12055
0.119677
0.0551061
0.0551061
0.0551061
0.0551061
0.0551061
0.114508
0.113198
0.113542
0.113177
0.113612
0.0551061
0.0551061
0.0551061
0.0551061
0.0551061
0.0551061
0.0551061
0.115006
0.115726
0.115961
0.116381
0.11625
0.0551061
0.0551061
0.0551061
0.0551061
0.114789
0.114791
0.113332
0.112883
0.0551061
0.0551061
0.0551061
0.0551061
0.114068
0.114448
0.115525
0.0551061
0.0551061
0.0551061
0.0551061
0.0551061
0.116472
0.116082
0.115494
0.114795
0.0551061
0.0551061
0.0551061
0.0551061
0.114145
0.114993
0.11554
0.116109
0.11622
0.0551061
0.0551061
0.0551061
0.0551061
0.11536
0.115507
0.11507
0.115294
0.0551061
0.0551061
0.0551061
0.0551061
0.116778
0.116729
0.116454
0.11564
0.115391
0.0551061
0.0551061
0.0551061
0.0551061
0.114786
0.115317
0.115501
0.0551061
0.0551061
0.0551061
0.115931
0.115461
0.114656
0.114145
0.0551061
0.0551061
0.0551061
0.110406
0.110512
0.0551061
0.0551061
0.0551061
0.110581
0.109736
0.107857
0.105502
0.102555
0.0989033
0.0944392
0.088808
0.081882
0.0715693
0.0598792
0.0551061
0.0551061
0.0551061
)
;

boundaryField
{
    inlet
    {
        type            calculated;
        value           uniform 0;
    }
    outlet
    {
        type            calculated;
        value           uniform 0;
    }
    sideWall
    {
        type            empty;
    }
}


// ************************************************************************* //
