/*--------------------------------*- C++ -*----------------------------------*\
| =========                 |                                                 |
| \\      /  F ield         | foam-extend: Open Source CFD                    |
|  \\    /   O peration     | Version:     3.2                                |
|   \\  /    A nd           | Web:         http://www.foam-extend.org         |
|    \\/     M anipulation  | For copyright notice see file Copyright         |
\*---------------------------------------------------------------------------*/
FoamFile
{
    version     2.0;
    format      ascii;
    class       areaScalarField;
    location    "160";
    object      thetaCSS1;
}
// * * * * * * * * * * * * * * * * * * * * * * * * * * * * * * * * * * * * * //

dimensions      [0 0 0 0 0 0 0];

internalField   nonuniform List<scalar> 
300
(
0.0551061
0.0551061
0.0551061
0.0551061
0.0551061
0.0551061
0.0551061
0.0551061
0.0551061
0.0551061
0.0551061
0.0551061
0.0551061
0.0551061
0.0551061
0.0551061
0.0551061
0.0551061
0.0551061
0.0551061
0.0551061
0.0551061
0.0551061
0.0551061
0.0551061
0.0551061
0.0551061
0.0551061
0.0551061
0.0551061
0.0551061
0.0551061
0.0551061
0.0551061
0.0551061
0.0551061
0.0551061
0.0551061
0.0551061
0.0551061
0.0551061
0.0551061
0.0551061
0.0551061
0.0551061
0.0551061
0.0551061
0.0551061
0.0551061
0.0551061
0.0551061
0.0551061
0.0551061
0.0551061
0.0551061
0.0551061
0.0551061
0.0551061
0.0551061
0.0551061
0.0551061
0.0551061
0.0551061
0.0551061
0.0551061
0.0551061
0.0551061
0.0551061
0.0551061
0.0551061
0.0551061
0.0551061
0.0551061
0.0551061
0.0551061
0.0551061
0.0551061
0.0551061
0.0551061
0.0551061
0.0551061
0.0551061
0.0551061
0.0551061
0.0551061
0.0551061
0.0551061
0.0551061
0.0551061
0.0551061
0.0551061
0.0551061
0.0551061
0.0551061
0.0551061
0.0551061
0.0551061
0.0551061
0.0551061
0.0466043
0.0434862
0.0479907
0.0485791
0.0496837
0.0502163
0.0510917
0.0512415
0.0521846
0.0520835
0.0518799
0.0542551
0.0526442
0.0530422
0.116462
0.115307
0.121139
0.119429
0.0547776
0.0536479
0.0533189
0.127541
0.12643
0.132079
0.125835
0.0559019
0.0548143
0.0540014
0.0564702
0.12844
0.137391
0.126929
0.135586
0.13603
0.0543202
0.056879
0.0539721
0.0579718
0.128259
0.13624
0.132791
0.128532
0.138455
0.129865
0.0581143
0.0530702
0.0569105
0.0560686
0.129279
0.137123
0.124931
0.133764
0.0528231
0.0570172
0.0552504
0.0553628
0.0576884
0.123913
0.128676
0.12053
0.124258
0.0533725
0.0557417
0.0568513
0.0546349
0.122961
0.112525
0.119335
0.112383
0.0558236
0.0566027
0.0546229
0.0562564
0.0530909
0.116492
0.108645
0.117697
0.0520833
0.0559802
0.0541589
0.0531313
0.119744
0.112605
0.122686
0.111759
0.057652
0.0513486
0.0577334
0.0534067
0.0540822
0.125168
0.118999
0.125047
0.0527957
0.0592475
0.0533695
0.0591756
0.053307
0.120673
0.112547
0.11274
0.115505
0.109393
0.0572537
0.0514664
0.0583071
0.0512817
0.0574751
0.0530985
0.0561077
0.115579
0.112025
0.118616
0.111849
0.12126
0.0525016
0.0578226
0.0525633
0.0583065
0.112315
0.117235
0.117034
0.111051
0.0567773
0.052586
0.0573064
0.0515443
0.119568
0.107159
0.118148
0.0535527
0.0539019
0.0561299
0.0536501
0.0577413
0.111782
0.122329
0.111707
0.121434
0.0537526
0.0566682
0.0549291
0.0538482
0.1152
0.110257
0.1179
0.111226
0.120549
0.0522679
0.0579573
0.0534393
0.0566121
0.114999
0.115235
0.117206
0.112167
0.0563944
0.0530052
0.0563423
0.0528092
0.121174
0.112478
0.121801
0.113775
0.118297
0.0556677
0.0552489
0.0551914
0.053649
0.117197
0.110565
0.1194
0.0525897
0.0566267
0.0540214
0.118719
0.114687
0.118827
0.112121
0.0572244
0.0555753
0.056632
0.111125
0.109353
0.0562518
0.0540356
0.0555834
0.109189
0.11452
0.110636
0.111929
0.10742
0.107428
0.101694
0.100114
0.0919224
0.0887624
0.0700526
0.0551061
0.0551061
0.0551061
)
;

boundaryField
{
    inlet
    {
        type            calculated;
        value           uniform 0;
    }
    outlet
    {
        type            calculated;
        value           uniform 0;
    }
    sideWall
    {
        type            empty;
    }
}


// ************************************************************************* //
