/*--------------------------------*- C++ -*----------------------------------*\
| =========                 |                                                 |
| \\      /  F ield         | foam-extend: Open Source CFD                    |
|  \\    /   O peration     | Version:     3.2                                |
|   \\  /    A nd           | Web:         http://www.foam-extend.org         |
|    \\/     M anipulation  | For copyright notice see file Copyright         |
\*---------------------------------------------------------------------------*/
FoamFile
{
    version     2.0;
    format      ascii;
    class       areaScalarField;
    location    "160";
    object      thetaC2B;
}
// * * * * * * * * * * * * * * * * * * * * * * * * * * * * * * * * * * * * * //

dimensions      [0 0 0 0 0 0 0];

internalField   nonuniform List<scalar> 
300
(
0.0497301
0.0497301
0.0497301
0.0497301
0.0497301
0.0497301
0.0497301
0.0497301
0.0497301
0.0497301
0.0497301
0.0497301
0.0497301
0.0497301
0.0497301
0.0497301
0.0497301
0.0497301
0.0497301
0.0497301
0.0497301
0.0497301
0.0497301
0.0497301
0.0497301
0.0497301
0.0497301
0.0497301
0.0497301
0.0497301
0.0497301
0.0497301
0.0497301
0.0497301
0.0497301
0.0497301
0.0497301
0.0497301
0.0497301
0.0497301
0.0497301
0.0497301
0.0497301
0.0497301
0.0497301
0.0497301
0.0497301
0.0497301
0.0497301
0.0497301
0.0497301
0.0497301
0.0497301
0.0497301
0.0497301
0.0497301
0.0497301
0.0497301
0.0497301
0.0497301
0.0497301
0.0497301
0.0497301
0.0497301
0.0497301
0.0497301
0.0497301
0.0497301
0.0497301
0.0497301
0.0497301
0.0497301
0.0497301
0.0497301
0.0497301
0.0497301
0.0497301
0.0497301
0.0497301
0.0497301
0.0497301
0.0497301
0.0497301
0.0497301
0.0497301
0.0497301
0.0497301
0.0497301
0.0497301
0.0497301
0.0497301
0.0497301
0.0497301
0.0497301
0.0497301
0.0497301
0.0497301
0.0497301
0.0497301
0.0497301
0.0497301
0.0497301
0.0497301
0.0497301
0.0497301
0.0497301
0.0497301
0.0497301
0.0497301
0.0497301
0.0497301
0.0497301
0.0497301
0.107647
0.109388
0.110902
0.112194
0.0497301
0.0497301
0.0497301
0.116573
0.117597
0.118086
0.118947
0.0497301
0.0497301
0.0497301
0.0497301
0.120211
0.120331
0.120838
0.12202
0.121752
0.0497301
0.0497301
0.0497301
0.0497301
0.119957
0.120256
0.119679
0.120558
0.120585
0.120328
0.0497301
0.0497301
0.0497301
0.0497301
0.117847
0.116577
0.115677
0.115091
0.0497301
0.0497301
0.0497301
0.0497301
0.0497301
0.111463
0.110023
0.10863
0.107556
0.0497301
0.0497301
0.0497301
0.0497301
0.104922
0.104098
0.103763
0.103271
0.0497301
0.0497301
0.0497301
0.0497301
0.0497301
0.10222
0.10259
0.102858
0.0497301
0.0497301
0.0497301
0.0497301
0.106003
0.106667
0.10694
0.107573
0.0497301
0.0497301
0.0497301
0.0497301
0.0497301
0.109296
0.108789
0.108001
0.0497301
0.0497301
0.0497301
0.0497301
0.0497301
0.103337
0.102155
0.102466
0.102136
0.102528
0.0497301
0.0497301
0.0497301
0.0497301
0.0497301
0.0497301
0.0497301
0.103787
0.104436
0.104648
0.105027
0.104909
0.0497301
0.0497301
0.0497301
0.0497301
0.103591
0.103592
0.102276
0.101871
0.0497301
0.0497301
0.0497301
0.0497301
0.10294
0.103283
0.104255
0.0497301
0.0497301
0.0497301
0.0497301
0.0497301
0.10511
0.104758
0.104227
0.103596
0.0497301
0.0497301
0.0497301
0.0497301
0.103009
0.103775
0.104268
0.104782
0.104882
0.0497301
0.0497301
0.0497301
0.0497301
0.104106
0.104239
0.103844
0.104046
0.0497301
0.0497301
0.0497301
0.0497301
0.105385
0.105341
0.105093
0.104358
0.104134
0.0497301
0.0497301
0.0497301
0.0497301
0.103588
0.104067
0.104233
0.0497301
0.0497301
0.0497301
0.104621
0.104197
0.10347
0.103009
0.0497301
0.0497301
0.0497301
0.0996349
0.0997305
0.0497301
0.0497301
0.0497301
0.0997932
0.0990304
0.0973352
0.0952097
0.0925497
0.0892547
0.0852261
0.0801442
0.0738939
0.0645873
0.0540376
0.0497301
0.0497301
0.0497301
)
;

boundaryField
{
    inlet
    {
        type            calculated;
        value           uniform 0;
    }
    outlet
    {
        type            calculated;
        value           uniform 0;
    }
    sideWall
    {
        type            empty;
    }
}


// ************************************************************************* //
