/*--------------------------------*- C++ -*----------------------------------*\
| =========                 |                                                 |
| \\      /  F ield         | foam-extend: Open Source CFD                    |
|  \\    /   O peration     | Version:     3.2                                |
|   \\  /    A nd           | Web:         http://www.foam-extend.org         |
|    \\/     M anipulation  | For copyright notice see file Copyright         |
\*---------------------------------------------------------------------------*/
FoamFile
{
    version     2.0;
    format      ascii;
    class       areaScalarField;
    location    "160";
    object      thetaSS1;
}
// * * * * * * * * * * * * * * * * * * * * * * * * * * * * * * * * * * * * * //

dimensions      [0 0 0 0 0 0 0];

internalField   nonuniform List<scalar> 
300
(
27.0486
21.5408
14.9436
12.2709
11.2634
10.735
10.3524
10.0176
9.70933
9.42963
9.17997
8.95678
8.75487
8.57472
8.41261
8.26524
8.13046
8.00604
7.89212
7.78821
7.69175
7.60111
7.516
7.43608
7.36115
7.2902
7.22316
7.15941
7.09903
7.04179
6.98716
6.93511
6.88518
6.83752
6.79185
6.74822
6.70613
6.66576
6.6268
6.58929
6.55324
6.51836
6.48473
6.45214
6.42061
6.39014
6.36061
6.33207
6.30421
6.27736
6.25106
6.22571
6.20093
6.17699
6.15354
6.13085
6.10859
6.08709
6.06569
6.0452
6.02484
6.00545
5.98611
5.96776
5.94939
5.93209
5.91465
5.89834
5.88181
5.8665
5.85095
5.83673
5.82219
5.80915
5.79568
5.78398
5.77183
5.76164
5.75109
5.74282
5.73425
5.72834
5.72252
5.71955
5.71777
5.71834
5.72123
5.72811
5.73837
5.75332
5.775
5.80219
5.84374
5.88998
5.97079
6.05444
6.24167
6.31864
7.35951
6.68865
3.31192
3.1996
3.39068
3.43011
3.51447
3.6036
3.63801
3.72804
3.87695
3.61371
3.94331
4.101
3.82596
4.21254
3.87714
3.98778
3.99659
3.98911
4.2306
3.85497
4.15485
3.82712
4.28945
4.00415
3.84612
4.43314
3.72197
4.51064
4.01538
4.29979
4.23885
3.66697
4.3498
3.6723
4.4547
3.98957
4.42788
4.43144
3.94794
4.74117
3.47295
4.28903
3.96276
4.30691
4.30439
3.80069
4.7257
3.56664
4.71468
4.26942
4.46743
4.30851
3.89934
4.44939
3.76015
4.64619
4.26166
4.66801
4.65362
4.70241
4.63365
3.89793
4.87962
3.99861
4.84058
4.63196
4.46867
4.67945
4.07602
4.95615
4.34414
4.98234
4.17649
4.66028
4.26394
4.41509
4.38097
3.93588
4.61518
3.58298
4.61998
3.73637
4.4715
3.82159
4.2075
3.98173
3.70886
4.34326
3.25085
4.34539
3.69611
4.67534
3.62765
4.33132
4.10356
4.33099
4.42113
4.03998
4.72119
3.81475
4.83619
3.62976
4.72471
3.73514
4.22876
4.0367
3.77572
4.19592
3.67371
4.53364
3.50997
4.34482
3.55373
4.27647
3.84589
4.09693
3.90254
3.88824
4.36436
3.73234
4.70035
3.86285
4.73258
3.75162
4.44688
3.85354
4.03024
4.08347
3.62517
4.17152
3.30936
4.23933
3.5008
4.36453
3.7753
4.15814
4.02846
4.05139
4.33354
3.9642
4.57014
3.6998
4.45835
3.6524
4.19032
3.63651
4.20154
3.78916
3.8997
4.1555
3.83354
4.29818
3.73336
4.50648
3.81225
4.34321
3.83776
4.17317
3.76182
4.03229
3.89455
3.93183
4.21633
3.92482
4.39022
4.09617
4.45193
3.67073
4.38802
3.74027
4.15617
3.89545
3.80892
3.93999
3.91108
3.89711
4.17382
4.01982
3.95732
4.24674
4.12951
4.48483
3.77633
4.17127
3.92369
3.86386
3.6016
3.72428
3.82883
3.96174
3.97531
4.21678
4.13576
4.59592
4.38679
5.8681
8.57075
6.99204
4.74858
4.30275
)
;

boundaryField
{
    inlet
    {
        type            calculated;
        value           uniform 0;
    }
    outlet
    {
        type            calculated;
        value           uniform 0;
    }
    sideWall
    {
        type            empty;
    }
}


// ************************************************************************* //
