/*--------------------------------*- C++ -*----------------------------------*\
| =========                 |                                                 |
| \\      /  F ield         | foam-extend: Open Source CFD                    |
|  \\    /   O peration     | Version:     3.2                                |
|   \\  /    A nd           | Web:         http://www.foam-extend.org         |
|    \\/     M anipulation  | For copyright notice see file Copyright         |
\*---------------------------------------------------------------------------*/
FoamFile
{
    version     2.0;
    format      ascii;
    class       areaScalarField;
    location    "160";
    object      thetaCB;
}
// * * * * * * * * * * * * * * * * * * * * * * * * * * * * * * * * * * * * * //

dimensions      [0 0 0 0 0 0 0];

internalField   nonuniform List<scalar> 
300
(
0.0497301
0.0497301
0.0497301
0.0497301
0.0497301
0.0497301
0.0497301
0.0497301
0.0497301
0.0497301
0.0497301
0.0497301
0.0497301
0.0497301
0.0497301
0.0497301
0.0497301
0.0497301
0.0497301
0.0497301
0.0497301
0.0497301
0.0497301
0.0497301
0.0497301
0.0497301
0.0497301
0.0497301
0.0497301
0.0497301
0.0497301
0.0497301
0.0497301
0.0497301
0.0497301
0.0497301
0.0497301
0.0497301
0.0497301
0.0497301
0.0497301
0.0497301
0.0497301
0.0497301
0.0497301
0.0497301
0.0497301
0.0497301
0.0497301
0.0497301
0.0497301
0.0497301
0.0497301
0.0497301
0.0497301
0.0497301
0.0497301
0.0497301
0.0497301
0.0497301
0.0497301
0.0497301
0.0497301
0.0497301
0.0497301
0.0497301
0.0497301
0.0497301
0.0497301
0.0497301
0.0497301
0.0497301
0.0497301
0.0497301
0.0497301
0.0497301
0.0497301
0.0497301
0.0497301
0.0497301
0.0497301
0.0497301
0.0497301
0.0497301
0.0497301
0.0497301
0.0497301
0.0497301
0.0497301
0.0497301
0.0497301
0.0497301
0.0497301
0.0497301
0.0497301
0.0497301
0.0497301
0.0497301
0.0497301
0.0420578
0.0392439
0.0433089
0.0438399
0.0448367
0.0453174
0.0461074
0.0462426
0.0470937
0.0470025
0.0468187
0.0489622
0.0475084
0.0478676
0.105101
0.104058
0.109321
0.107778
0.0494337
0.0484142
0.0481173
0.115098
0.114096
0.119193
0.113559
0.0504483
0.0494668
0.0487332
0.0509612
0.11591
0.123987
0.114547
0.122358
0.12276
0.049021
0.0513301
0.0487068
0.0523163
0.115747
0.122949
0.119836
0.115992
0.124948
0.117196
0.0524448
0.0478929
0.0513586
0.0505988
0.116667
0.123745
0.112743
0.120714
0.0476699
0.0514549
0.0498603
0.0499618
0.0520605
0.111824
0.116123
0.108772
0.112136
0.0481656
0.0503038
0.0513051
0.049305
0.110965
0.101548
0.107693
0.101419
0.0503776
0.0510807
0.0492941
0.0507682
0.0479115
0.105127
0.0980463
0.106215
0.0470022
0.0505189
0.0488754
0.047948
0.108062
0.10162
0.110717
0.100856
0.0520277
0.0463392
0.0521012
0.0481966
0.0488061
0.112957
0.10739
0.112848
0.0476451
0.0534675
0.0481629
0.0534026
0.0481066
0.1089
0.101567
0.101742
0.104236
0.0987214
0.0516682
0.0464455
0.0526189
0.0462789
0.0518681
0.0479184
0.0506341
0.104304
0.101097
0.107044
0.100937
0.109431
0.0473798
0.0521817
0.0474354
0.0526183
0.101358
0.105798
0.105617
0.100217
0.0512383
0.0474559
0.0517158
0.0465159
0.107903
0.0967049
0.106622
0.0483283
0.0486434
0.0506541
0.0484162
0.0521083
0.100877
0.110395
0.100809
0.109587
0.0485087
0.0511399
0.0495704
0.048595
0.103961
0.0995011
0.106398
0.100375
0.108789
0.0471688
0.0523032
0.048226
0.0510892
0.10378
0.103993
0.105772
0.101224
0.0508928
0.0478342
0.0508458
0.0476573
0.109353
0.101505
0.109918
0.102675
0.106756
0.0502369
0.049859
0.0498071
0.0484152
0.105764
0.0997783
0.107752
0.0474592
0.0511024
0.0487513
0.107138
0.103498
0.107235
0.101183
0.0516418
0.0501536
0.0511072
0.100284
0.0986845
0.0507641
0.0487641
0.0501609
0.0985371
0.103347
0.0998424
0.10101
0.0969401
0.0969477
0.0917729
0.090347
0.0829548
0.080103
0.0632186
0.0497301
0.0497301
0.0497301
)
;

boundaryField
{
    inlet
    {
        type            calculated;
        value           uniform 0;
    }
    outlet
    {
        type            calculated;
        value           uniform 0;
    }
    sideWall
    {
        type            empty;
    }
}


// ************************************************************************* //
