/*--------------------------------*- C++ -*----------------------------------*\
| =========                 |                                                 |
| \\      /  F ield         | foam-extend: Open Source CFD                    |
|  \\    /   O peration     | Version:     3.2                                |
|   \\  /    A nd           | Web:         http://www.foam-extend.org         |
|    \\/     M anipulation  | For copyright notice see file Copyright         |
\*---------------------------------------------------------------------------*/
FoamFile
{
    version     2.0;
    format      ascii;
    class       areaScalarField;
    location    "160";
    object      thetaSS1init;
}
// * * * * * * * * * * * * * * * * * * * * * * * * * * * * * * * * * * * * * //

dimensions      [0 0 0 0 0 0 0];

internalField   nonuniform List<scalar> 
300
(
27.0486
21.5408
14.9436
12.271
11.2634
10.7351
10.3524
10.0176
9.70933
9.42962
9.17996
8.95678
8.75486
8.57472
8.41259
8.26524
8.13045
8.00603
7.89212
7.7882
7.69175
7.6011
7.51599
7.43607
7.36112
7.29017
7.22314
7.15939
7.09901
7.04177
6.98716
6.93508
6.88516
6.83749
6.79183
6.74818
6.70611
6.66571
6.62677
6.58924
6.55321
6.5183
6.48469
6.45205
6.42056
6.39003
6.36053
6.33192
6.3041
6.27716
6.2509
6.22544
6.2007
6.17662
6.15319
6.13032
6.10808
6.08629
6.06495
6.04412
6.02377
6.00395
5.98458
5.96566
5.9472
5.92918
5.91156
5.89432
5.87745
5.86096
5.84482
5.82904
5.8136
5.79848
5.78368
5.76924
5.75507
5.74124
5.72772
5.7145
5.70164
5.68904
5.67683
5.66493
5.65345
5.6423
5.6317
5.62143
5.61188
5.60285
5.59469
5.58758
5.58154
5.57777
5.57567
5.57717
5.59025
5.59355
5.72407
5.59612
5.11325
5.13504
5.32237
5.34057
5.34941
5.34523
5.34138
5.33343
5.32397
5.31784
5.31175
5.30097
5.29078
5.28174
5.27251
5.26366
5.25475
5.24601
5.23732
5.22869
5.22016
5.21169
5.20332
5.19503
5.18679
5.17858
5.17049
5.16247
5.15449
5.14659
5.13877
5.13104
5.12331
5.11566
5.10805
5.1005
5.09299
5.08555
5.0782
5.0709
5.06369
5.05656
5.04952
5.04255
5.03571
5.02895
5.02229
5.01571
5.0092
5.00274
4.99631
4.98989
4.98351
4.97716
4.97085
4.96458
4.95837
4.95218
4.94606
4.93998
4.93392
4.92793
4.92198
4.91608
4.91021
4.90441
4.89864
4.89291
4.88723
4.8816
4.876
4.87046
4.86494
4.85947
4.85404
4.84862
4.84327
4.83794
4.83264
4.82737
4.82215
4.81696
4.81181
4.8067
4.80161
4.79656
4.79155
4.78659
4.78163
4.77671
4.77183
4.76698
4.76215
4.75736
4.7526
4.74789
4.7432
4.73853
4.73389
4.72928
4.72468
4.72011
4.71556
4.71105
4.70656
4.7021
4.69767
4.69326
4.68887
4.68452
4.68017
4.67586
4.67158
4.66733
4.66312
4.65892
4.65474
4.65058
4.64644
4.6423
4.63818
4.63408
4.62999
4.62595
4.62191
4.6179
4.6139
4.60996
4.60602
4.60213
4.59824
4.59436
4.59048
4.58662
4.58278
4.57896
4.57515
4.57138
4.56761
4.56387
4.56012
4.55642
4.5527
4.54903
4.54536
4.54172
4.53808
4.53447
4.53087
4.5273
4.52372
4.52019
4.51666
4.51317
4.50966
4.50619
4.50272
4.49926
4.4958
4.49236
4.48894
4.48552
4.48216
4.47876
4.47543
4.47207
4.46878
4.46546
4.46222
4.45892
4.45574
4.45245
4.44929
4.44594
4.44275
4.43934
4.43608
4.43258
4.42921
4.42554
4.422
4.41809
4.41421
4.41002
4.40582
4.40076
4.39289
4.38812
4.38107
4.3743
4.36397
4.3534
4.33696
4.32321
4.26652
4.33589
4.5254
4.52386
4.45435
4.44964
)
;

boundaryField
{
    inlet
    {
        type            calculated;
        value           uniform 0;
    }
    outlet
    {
        type            calculated;
        value           uniform 0;
    }
    sideWall
    {
        type            empty;
    }
}


// ************************************************************************* //
