/*--------------------------------*- C++ -*----------------------------------*\
| =========                 |                                                 |
| \\      /  F ield         | foam-extend: Open Source CFD                    |
|  \\    /   O peration     | Version:     3.2                                |
|   \\  /    A nd           | Web:         http://www.foam-extend.org         |
|    \\/     M anipulation  | For copyright notice see file Copyright         |
\*---------------------------------------------------------------------------*/
FoamFile
{
    version     2.0;
    format      ascii;
    class       areaScalarField;
    location    "160";
    object      totH1;
}
// * * * * * * * * * * * * * * * * * * * * * * * * * * * * * * * * * * * * * //

dimensions      [0 0 0 0 0 0 0];

internalField   nonuniform List<scalar> 
300
(
0
0
0
0
0
0
0
0
0
0
0
0
0
0
0
0
0
0
0
0
0
0
0
0
0
0
0
0
0
0
0
0
0
0
0
0
0
0
0
0
0
0
0
0
0
0
0
0
0
0
0
0
0
0
0
0
0
0
0
0
0
0
0
0
0
0
0
0
0
0
0
0
0
0
0
0
0
0
0
0
0
0
0
0
0
0
0
0
0
0
0
0
0
0
0
0
0
0
0
-0.00244207
-0.00819916
-0.0135652
-0.0175007
-0.0209554
-0.023944
-0.0265297
-0.0288217
-0.0307987
-0.0325311
-0.0343526
-0.0355543
-0.0365327
-0.0378475
-0.0388195
-0.039968
-0.0409761
-0.041862
-0.0426206
-0.0431529
-0.044092
-0.0448013
-0.0454627
-0.0457879
-0.0463833
-0.0468894
-0.0467605
-0.0471813
-0.0470853
-0.0472381
-0.047298
-0.0476359
-0.0484416
-0.0482677
-0.0483721
-0.048099
-0.0479136
-0.0473755
-0.0470666
-0.0472443
-0.0468582
-0.0474669
-0.0474861
-0.0473103
-0.0468457
-0.0465685
-0.0466327
-0.045795
-0.0456518
-0.0447748
-0.0441677
-0.0437986
-0.0436771
-0.0437813
-0.0431875
-0.0430735
-0.042211
-0.0413688
-0.0403786
-0.03944
-0.0387566
-0.0386045
-0.0389243
-0.038197
-0.0378059
-0.0369852
-0.0364156
-0.0361904
-0.0358762
-0.0359665
-0.0353287
-0.0350373
-0.034827
-0.0350587
-0.0351622
-0.0354047
-0.035601
-0.0359685
-0.0366081
-0.0366307
-0.0374654
-0.0376985
-0.0381374
-0.0383363
-0.0387701
-0.0390149
-0.0393591
-0.0396848
-0.0394033
-0.0401885
-0.039919
-0.0395586
-0.039034
-0.0389985
-0.0384528
-0.0377217
-0.0369962
-0.0362946
-0.035928
-0.0351158
-0.035318
-0.0351145
-0.0353879
-0.0353574
-0.0357984
-0.0359028
-0.0360447
-0.0364444
-0.0363244
-0.0366144
-0.0362304
-0.03665
-0.0367887
-0.0370537
-0.0369801
-0.0370432
-0.0370132
-0.0369497
-0.0367206
-0.0360955
-0.0360773
-0.0351907
-0.0349347
-0.0347218
-0.0349823
-0.0350666
-0.035428
-0.0356485
-0.0358745
-0.0365378
-0.0366373
-0.0374613
-0.0375128
-0.0376243
-0.0372604
-0.0371174
-0.0368626
-0.0365006
-0.03609
-0.0355504
-0.0355029
-0.0350986
-0.0355083
-0.035712
-0.0362086
-0.0365339
-0.0368888
-0.0369642
-0.0371915
-0.0371841
-0.0368253
-0.0368552
-0.0364425
-0.0365116
-0.0362441
-0.0363957
-0.0364686
-0.0367204
-0.0369732
-0.0372645
-0.0373033
-0.0372549
-0.0370815
-0.0366004
-0.0364643
-0.0359051
-0.0357063
-0.0356295
-0.0360156
-0.0360814
-0.0363971
-0.0365291
-0.0367387
-0.037026
-0.0368787
-0.0367884
-0.0364845
-0.0359946
-0.035701
-0.0353702
-0.0346167
-0.0340252
-0.0334408
-0.0334999
-0.0333584
-0.0333418
-0.033495
-0.0335492
-0.0330403
-0.0319041
-0.0304795
-0.0286967
-0.0264884
-0.0237884
-0.0203826
-0.0161938
-0.00995685
-0.0028868
0
0
0
)
;

boundaryField
{
    inlet
    {
        type            calculated;
        value           uniform 0;
    }
    outlet
    {
        type            calculated;
        value           uniform 0;
    }
    sideWall
    {
        type            empty;
    }
}


// ************************************************************************* //
