/*--------------------------------*- C++ -*----------------------------------*\
| =========                 |                                                 |
| \\      /  F ield         | foam-extend: Open Source CFD                    |
|  \\    /   O peration     | Version:     3.2                                |
|   \\  /    A nd           | Web:         http://www.foam-extend.org         |
|    \\/     M anipulation  | For copyright notice see file Copyright         |
\*---------------------------------------------------------------------------*/
FoamFile
{
    version     2.0;
    format      ascii;
    class       areaScalarField;
    location    "160";
    object      tVolC;
}
// * * * * * * * * * * * * * * * * * * * * * * * * * * * * * * * * * * * * * //

dimensions      [0 3 0 0 0 0 0];

internalField   nonuniform List<scalar> 
300
(
0
0
0
0
0
0
0
0
0
0
0
0
0
0
0
0
0
0
0
0
0
0
0
0
0
0
0
0
0
0
0
0
0
0
0
0
0
0
0
0
0
0
0
0
0
0
0
0
0
0
0
0
0
0
0
0
0
0
0
0
0
0
0
0
0
0
0
0
0
0
0
0
0
0
0
0
0
0
0
0
0
0
0
0
0
0
0
0
0
0
0
0
0
0
0
0
0
0
0
0
4.51034e-05
4.04098e-05
3.6029e-05
3.28767e-05
2.96068e-05
2.72076e-05
2.48304e-05
2.27675e-05
2.1315e-05
1.9237e-05
1.87841e-05
1.76449e-05
1.7366e-05
1.6298e-05
1.617e-05
1.49227e-05
1.4987e-05
1.46505e-05
1.46532e-05
1.38159e-05
1.35143e-05
1.37906e-05
1.31715e-05
1.31914e-05
1.35929e-05
1.26493e-05
1.29749e-05
1.23655e-05
1.37912e-05
1.23288e-05
1.29058e-05
1.38045e-05
1.17533e-05
1.34803e-05
1.24622e-05
1.32905e-05
1.2619e-05
1.30347e-05
1.41811e-05
1.18724e-05
1.41305e-05
1.24136e-05
1.39417e-05
1.39547e-05
1.30185e-05
1.51377e-05
1.19127e-05
1.48887e-05
1.24417e-05
1.47226e-05
1.39509e-05
1.34808e-05
1.53907e-05
1.18593e-05
1.60708e-05
1.28415e-05
1.42551e-05
1.32262e-05
1.32205e-05
1.40938e-05
1.22396e-05
1.48804e-05
1.20474e-05
1.38446e-05
1.27827e-05
1.27164e-05
1.36792e-05
1.24941e-05
1.40858e-05
1.24142e-05
1.37195e-05
1.22838e-05
1.3954e-05
1.31808e-05
1.3957e-05
1.43716e-05
1.40038e-05
1.48037e-05
1.39185e-05
1.4655e-05
1.34067e-05
1.62168e-05
1.31291e-05
1.6196e-05
1.47611e-05
1.51915e-05
1.72761e-05
1.31849e-05
1.77587e-05
1.22295e-05
1.68479e-05
1.34978e-05
1.50099e-05
1.52152e-05
1.45508e-05
1.66004e-05
1.40302e-05
1.72671e-05
1.34705e-05
1.6268e-05
1.30436e-05
1.70073e-05
1.32541e-05
1.74372e-05
1.48106e-05
1.65954e-05
1.77139e-05
1.49763e-05
1.91617e-05
1.37655e-05
1.83074e-05
1.32136e-05
1.76197e-05
1.5442e-05
1.61488e-05
1.71302e-05
1.57414e-05
1.78107e-05
1.47217e-05
1.83461e-05
1.41573e-05
1.70642e-05
1.34392e-05
1.81985e-05
1.39355e-05
1.75958e-05
1.71162e-05
1.6304e-05
1.89206e-05
1.49296e-05
1.91135e-05
1.3955e-05
1.77149e-05
1.50443e-05
1.6748e-05
1.57382e-05
1.6299e-05
1.74758e-05
1.55392e-05
1.79112e-05
1.50181e-05
1.76554e-05
1.31283e-05
1.77098e-05
1.4814e-05
1.71735e-05
1.5924e-05
1.67397e-05
1.76224e-05
1.53983e-05
1.8678e-05
1.45967e-05
1.69114e-05
1.35768e-05
1.75433e-05
1.40856e-05
1.68698e-05
1.5584e-05
1.67842e-05
1.69527e-05
1.58131e-05
1.81248e-05
1.48991e-05
1.81594e-05
1.4265e-05
1.70151e-05
1.33889e-05
1.73368e-05
1.39058e-05
1.67215e-05
1.58001e-05
1.64261e-05
1.75976e-05
1.55614e-05
1.85531e-05
1.49095e-05
1.8416e-05
1.47156e-05
1.78665e-05
1.37985e-05
1.69e-05
1.39535e-05
1.66886e-05
1.45345e-05
1.69579e-05
1.68123e-05
1.69755e-05
2.29613e-05
1.95777e-05
2.48774e-05
2.34625e-05
2.82585e-05
2.90159e-05
3.37831e-05
3.73105e-05
4.3534e-05
0
0
0
0
)
;

boundaryField
{
    inlet
    {
        type            calculated;
        value           uniform 0;
    }
    outlet
    {
        type            calculated;
        value           uniform 0;
    }
    sideWall
    {
        type            empty;
    }
}


// ************************************************************************* //
