/*--------------------------------*- C++ -*----------------------------------*\
| =========                 |                                                 |
| \\      /  F ield         | foam-extend: Open Source CFD                    |
|  \\    /   O peration     | Version:     3.2                                |
|   \\  /    A nd           | Web:         http://www.foam-extend.org         |
|    \\/     M anipulation  | For copyright notice see file Copyright         |
\*---------------------------------------------------------------------------*/
FoamFile
{
    version     2.0;
    format      ascii;
    class       areaScalarField;
    location    "160";
    object      tVol;
}
// * * * * * * * * * * * * * * * * * * * * * * * * * * * * * * * * * * * * * //

dimensions      [0 3 0 0 0 0 0];

internalField   nonuniform List<scalar> 
300
(
0.0001
0.0001
0.0001
0.0001
0.0001
0.0001
0.0001
0.0001
0.0001
0.0001
0.0001
0.0001
0.0001
0.0001
0.0001
0.0001
0.0001
0.0001
0.0001
0.0001
0.0001
0.0001
0.0001
0.0001
0.0001
0.0001
0.0001
0.0001
0.0001
0.0001
0.0001
0.0001
0.0001
0.0001
0.0001
0.0001
0.0001
0.0001
0.0001
0.0001
0.0001
0.0001
0.0001
0.0001
0.0001
0.0001
0.0001
0.0001
0.0001
0.0001
0.0001
0.0001
0.0001
0.0001
0.0001
0.0001
0.0001
0.0001
0.0001
0.0001
0.0001
0.0001
0.0001
0.0001
0.0001
0.0001
0.0001
0.0001
0.0001
0.0001
0.0001
0.0001
0.0001
0.0001
0.0001
0.0001
0.0001
0.0001
0.0001
0.0001
0.0001
0.0001
0.0001
0.0001
0.0001
0.0001
0.0001
0.0001
0.0001
0.0001
0.0001
0.0001
0.0001
0.0001
0.0001
0.0001
0.0001
0.0001
0.0001
9.80225e-05
9.26056e-05
8.67277e-05
8.27366e-05
7.92041e-05
7.61824e-05
7.35548e-05
7.1255e-05
6.92464e-05
6.75138e-05
6.5696e-05
6.44622e-05
6.35156e-05
6.21838e-05
6.11863e-05
6.00419e-05
5.89996e-05
5.81503e-05
5.74008e-05
5.68842e-05
5.59369e-05
5.51979e-05
5.45202e-05
5.4183e-05
5.36281e-05
5.31137e-05
5.32611e-05
5.28549e-05
5.29374e-05
5.27718e-05
5.2688e-05
5.23667e-05
5.1545e-05
5.17253e-05
5.16304e-05
5.19352e-05
5.21219e-05
5.26702e-05
5.29418e-05
5.27332e-05
5.31146e-05
5.2541e-05
5.25221e-05
5.26868e-05
5.31911e-05
5.34742e-05
5.34114e-05
5.42235e-05
5.43437e-05
5.5239e-05
5.58046e-05
5.62188e-05
5.6345e-05
5.62397e-05
5.68358e-05
5.69543e-05
5.78267e-05
5.86217e-05
5.96264e-05
6.05203e-05
6.12639e-05
6.14431e-05
6.11121e-05
6.18299e-05
6.21971e-05
6.3051e-05
6.35659e-05
6.38019e-05
6.41169e-05
6.40368e-05
6.47008e-05
6.49934e-05
6.51969e-05
6.49598e-05
6.48281e-05
6.45948e-05
6.44039e-05
6.40814e-05
6.34218e-05
6.34026e-05
6.2559e-05
6.22861e-05
6.1865e-05
6.16695e-05
6.12782e-05
6.10133e-05
6.07082e-05
6.03694e-05
6.0637e-05
5.98305e-05
6.00881e-05
6.04156e-05
6.09681e-05
6.10248e-05
6.16458e-05
6.23167e-05
6.30909e-05
6.37237e-05
6.41083e-05
6.48607e-05
6.46529e-05
6.48792e-05
6.46287e-05
6.46712e-05
6.4287e-05
6.41731e-05
6.40333e-05
6.35878e-05
6.36978e-05
6.33935e-05
6.3767e-05
6.3345e-05
6.31963e-05
6.29551e-05
6.30397e-05
6.299e-05
6.30431e-05
6.31049e-05
6.33367e-05
6.39043e-05
6.39032e-05
6.4794e-05
6.50546e-05
6.52971e-05
6.50722e-05
6.49845e-05
6.46352e-05
6.43668e-05
6.4158e-05
6.346e-05
6.33789e-05
6.25657e-05
6.25137e-05
6.23943e-05
6.27746e-05
6.29012e-05
6.31555e-05
6.3486e-05
6.39411e-05
6.44581e-05
6.45275e-05
6.49279e-05
6.45135e-05
6.42889e-05
6.37969e-05
6.34497e-05
6.31229e-05
6.30511e-05
6.28486e-05
6.28727e-05
6.32105e-05
6.31668e-05
6.35529e-05
6.34638e-05
6.3733e-05
6.36027e-05
6.3544e-05
6.33228e-05
6.3062e-05
6.27725e-05
6.27142e-05
6.27419e-05
6.29195e-05
6.3387e-05
6.35425e-05
6.41128e-05
6.43196e-05
6.43868e-05
6.3994e-05
6.39062e-05
6.36014e-05
6.3483e-05
6.33122e-05
6.30108e-05
6.31383e-05
6.32153e-05
6.34923e-05
6.39971e-05
6.42921e-05
6.46514e-05
6.54006e-05
6.60017e-05
6.65502e-05
6.64871e-05
6.6661e-05
6.66851e-05
6.65075e-05
6.64457e-05
6.69822e-05
6.81007e-05
6.95718e-05
7.13333e-05
7.36274e-05
7.6306e-05
7.99038e-05
8.40858e-05
9.12938e-05
9.77583e-05
0.0001
0.0001
0.0001
)
;

boundaryField
{
    inlet
    {
        type            calculated;
        value           uniform 0;
    }
    outlet
    {
        type            calculated;
        value           uniform 0;
    }
    sideWall
    {
        type            empty;
    }
}


// ************************************************************************* //
