/*--------------------------------*- C++ -*----------------------------------*\
| =========                 |                                                 |
| \\      /  F ield         | foam-extend: Open Source CFD                    |
|  \\    /   O peration     | Version:     3.2                                |
|   \\  /    A nd           | Web:         http://www.foam-extend.org         |
|    \\/     M anipulation  | For copyright notice see file Copyright         |
\*---------------------------------------------------------------------------*/
FoamFile
{
    version     2.0;
    format      ascii;
    class       areaScalarField;
    location    "160";
    object      tVolA;
}
// * * * * * * * * * * * * * * * * * * * * * * * * * * * * * * * * * * * * * //

dimensions      [0 3 0 0 0 0 0];

internalField   nonuniform List<scalar> 
300
(
0
0
0
0
0
0
0
0
0
0
0
0
0
0
0
0
0
0
0
0
0
0
0
0
0
0
0
0
0
0
0
0
0
0
0
0
0
0
0
0
0
0
0
0
0
0
0
0
0
0
0
0
0
0
0
0
0
0
0
0
0
0
0
0
0
0
0
0
0
0
0
0
0
0
0
0
0
0
0
0
0
0
0
0
0
0
0
0
0
0
0
0
0
0
0
0
0
0
0
0
4.75039e-05
4.63206e-05
4.67108e-05
4.63312e-05
4.65799e-05
4.63516e-05
4.64293e-05
4.64837e-05
4.62038e-05
4.6456e-05
4.56879e-05
4.59069e-05
4.48236e-05
4.48934e-05
4.38505e-05
4.40362e-05
4.31591e-05
4.27735e-05
4.22725e-05
4.21301e-05
4.16908e-05
4.06955e-05
4.09638e-05
4.04457e-05
3.95048e-05
4.06376e-05
3.99296e-05
4.05735e-05
3.89905e-05
4.03208e-05
3.94305e-05
3.77326e-05
3.99643e-05
3.81428e-05
3.94968e-05
3.88818e-05
4.00501e-05
3.99184e-05
3.85096e-05
4.12031e-05
3.84225e-05
4.00925e-05
3.87388e-05
3.92238e-05
4.04971e-05
3.83138e-05
4.23167e-05
3.94632e-05
4.2753e-05
4.10362e-05
4.22626e-05
4.2874e-05
4.08428e-05
4.50047e-05
4.09258e-05
4.49827e-05
4.43706e-05
4.63563e-05
4.7245e-05
4.71651e-05
4.92546e-05
4.62744e-05
4.97849e-05
4.83592e-05
5.02606e-05
5.08219e-05
5.00794e-05
5.16276e-05
4.99396e-05
5.23084e-05
5.13189e-05
5.29197e-05
5.10193e-05
5.16159e-05
5.06035e-05
5.0025e-05
5.00873e-05
4.86461e-05
4.95243e-05
4.7913e-05
4.88517e-05
4.56124e-05
4.85344e-05
4.50871e-05
4.62448e-05
4.5527e-05
4.31176e-05
4.7492e-05
4.2081e-05
4.78592e-05
4.35285e-05
4.74367e-05
4.60237e-05
4.64508e-05
4.78071e-05
4.64897e-05
4.97019e-05
4.6842e-05
5.13649e-05
4.83391e-05
5.18338e-05
4.76225e-05
5.14095e-05
4.68943e-05
4.9392e-05
4.74502e-05
4.58785e-05
4.87275e-05
4.42333e-05
5.00064e-05
4.50145e-05
4.99501e-05
4.53351e-05
4.75865e-05
4.68425e-05
4.59377e-05
4.74053e-05
4.55245e-05
4.91878e-05
4.55226e-05
5.05976e-05
4.79828e-05
5.18549e-05
4.69116e-05
5.10811e-05
4.70528e-05
4.72225e-05
4.78289e-05
4.45332e-05
4.84499e-05
4.34795e-05
4.85865e-05
4.46837e-05
4.77316e-05
4.61621e-05
4.73877e-05
4.71514e-05
4.64557e-05
4.89128e-05
4.66394e-05
4.99469e-05
4.68663e-05
5.11662e-05
4.60668e-05
4.86032e-05
4.59469e-05
4.71188e-05
4.6114e-05
4.52709e-05
4.78479e-05
4.44923e-05
4.89614e-05
4.65196e-05
5.01178e-05
4.60587e-05
4.94526e-05
4.6486e-05
4.7514e-05
4.5997e-05
4.57656e-05
4.69054e-05
4.4755e-05
4.84805e-05
4.53734e-05
4.98674e-05
4.73411e-05
5.10082e-05
4.66653e-05
4.9975e-05
4.68492e-05
4.76744e-05
4.69201e-05
4.54478e-05
4.75803e-05
4.46684e-05
4.85508e-05
4.55435e-05
4.95774e-05
4.67762e-05
5.16232e-05
4.91335e-05
5.25765e-05
4.97688e-05
5.21477e-05
4.97673e-05
4.96805e-05
4.94653e-05
4.40162e-05
4.85177e-05
4.46899e-05
4.78659e-05
4.53649e-05
4.72858e-05
4.61175e-05
4.67721e-05
4.77581e-05
0
0
0
0
)
;

boundaryField
{
    inlet
    {
        type            calculated;
        value           uniform 0;
    }
    outlet
    {
        type            calculated;
        value           uniform 0;
    }
    sideWall
    {
        type            empty;
    }
}


// ************************************************************************* //
