/*--------------------------------*- C++ -*----------------------------------*\
| =========                 |                                                 |
| \\      /  F ield         | foam-extend: Open Source CFD                    |
|  \\    /   O peration     | Version:     3.2                                |
|   \\  /    A nd           | Web:         http://www.foam-extend.org         |
|    \\/     M anipulation  | For copyright notice see file Copyright         |
\*---------------------------------------------------------------------------*/
FoamFile
{
    version     2.0;
    format      ascii;
    class       volVectorField;
    location    "160";
    object      U;
}
// * * * * * * * * * * * * * * * * * * * * * * * * * * * * * * * * * * * * * //

dimensions      [0 1 -1 0 0 0 0];

internalField   nonuniform List<vector> 
96000
(
(1.32717 0 0.0321533)
(0.866773 0 0.0115996)
(0.682511 0 0.00215824)
(0.62946 0 -0.000474677)
(0.610066 0 -0.000492652)
(0.597607 0 -0.000216269)
(0.587444 0 -0.000121825)
(0.577914 0 -5.61309e-05)
(0.568828 0 -1.26467e-05)
(0.560457 0 4.19128e-06)
(0.552983 0 9.43214e-06)
(0.546238 0 1.89462e-05)
(0.540038 0 2.37606e-05)
(0.534484 0 2.67532e-05)
(0.529438 0 2.74761e-05)
(0.52482 0 2.73528e-05)
(0.520558 0 2.82998e-05)
(0.516578 0 2.81137e-05)
(0.512919 0 2.9171e-05)
(0.509602 0 2.94478e-05)
(0.506499 0 2.91009e-05)
(0.503553 0 2.85233e-05)
(0.500767 0 2.77726e-05)
(0.498135 0 2.64725e-05)
(0.495661 0 2.54893e-05)
(0.4933 0 2.46353e-05)
(0.491063 0 2.38858e-05)
(0.488916 0 2.32181e-05)
(0.486878 0 2.20969e-05)
(0.48494 0 2.14627e-05)
(0.48308 0 2.06409e-05)
(0.481302 0 2.01872e-05)
(0.479586 0 1.94896e-05)
(0.477945 7.82073e-40 1.89228e-05)
(0.476364 1.49191e-39 1.81636e-05)
(0.474853 0 1.77039e-05)
(0.473385 0 1.7204e-05)
(0.471977 0 1.66907e-05)
(0.470609 2.5305e-39 1.63672e-05)
(0.46929 2.42374e-39 1.56934e-05)
(0.46802 0 1.53706e-05)
(0.466785 0 1.48815e-05)
(0.465594 4.336e-39 1.4556e-05)
(0.464434 8.3983e-39 1.42108e-05)
(0.463309 0 1.37997e-05)
(0.46222 0 1.34549e-05)
(0.461161 0 1.30333e-05)
(0.460137 0 1.28467e-05)
(0.459132 -2.83722e-38 1.24433e-05)
(0.458165 -2.75488e-38 1.22335e-05)
(0.45721 0 1.19313e-05)
(0.456293 0 1.15905e-05)
(0.455391 0 1.13513e-05)
(0.454522 0 1.10579e-05)
(0.453665 0 1.08676e-05)
(0.452837 0 1.06056e-05)
(0.45202 0 1.03662e-05)
(0.451234 0 1.05542e-05)
(0.450441 1.65389e-37 1.04746e-05)
(0.449691 0 1.02684e-05)
(0.448934 -3.12859e-37 9.99469e-06)
(0.448224 0 9.73745e-06)
(0.447502 0 9.5103e-06)
(0.446829 -5.76688e-37 9.24811e-06)
(0.446142 -5.59157e-37 8.98783e-06)
(0.445509 0 8.74189e-06)
(0.444854 0 8.51439e-06)
(0.444259 -1.02502e-36 8.22075e-06)
(0.443636 0 8.01517e-06)
(0.44308 0 7.62698e-06)
(0.442494 1.85685e-36 7.41313e-06)
(0.441981 0 6.98833e-06)
(0.441433 -3.42741e-36 6.74235e-06)
(0.440971 6.53252e-36 6.25904e-06)
(0.440463 0 5.97758e-06)
(0.440059 0 5.27951e-06)
(0.439604 0 5.06376e-06)
(0.439266 0 4.07219e-06)
(0.438879 0 3.80434e-06)
(0.438627 0 2.52118e-06)
(0.438325 -1.41657e-35 2.22466e-06)
(0.43818 0 2.86906e-07)
(0.438003 0 5.93687e-07)
(0.437988 -6.22369e-36 -2.04584e-06)
(0.438009 0 -2.09423e-06)
(0.438137 -2.28834e-35 -6.01535e-06)
(0.438372 0 -7.58357e-06)
(0.43882 0 -1.2494e-05)
(0.4394 -4.27891e-34 -1.38e-05)
(0.440222 -8.07657e-34 -2.03201e-05)
(0.441347 0 -2.30294e-05)
(0.442733 0 -3.50187e-05)
(0.444848 0 -3.84327e-05)
(0.447061 -1.92949e-32 -6.20669e-05)
(0.451211 -4.39763e-32 -7.85149e-05)
(0.455035 0 -0.00013305)
(0.464983 0 -0.000121113)
(0.465972 0 -0.000608838)
(0.525128 0 0.000221798)
(0.473796 0 -0.0409202)
(0.222327 -1.07058e-23 -0.0277807)
(0.274017 0 -0.0248489)
(0.307271 0 -0.0239842)
(0.314406 -1.11915e-24 -0.0203582)
(0.325613 -2.58198e-24 -0.018947)
(0.33456 -7.96807e-25 -0.0160739)
(0.337631 -8.81077e-29 -0.0155261)
(0.345283 8.7701e-25 -0.0123598)
(0.358304 -2.2298e-24 -0.0125917)
(0.330351 -1.25655e-24 -0.0127994)
(0.359873 0 -0.00505002)
(0.370776 -2.71326e-24 -0.00969821)
(0.345871 -1.17749e-24 -0.00728143)
(0.386777 2.17123e-24 -0.00492053)
(0.355054 4.02013e-24 -0.00976816)
(0.367606 6.3176e-25 -0.00427163)
(0.363633 -3.93488e-24 -0.0102453)
(0.356042 7.4679e-25 -0.00329439)
(0.377996 1.90335e-24 -0.00571824)
(0.346276 0 -0.00540012)
(0.383217 -1.30581e-24 -0.00190862)
(0.349385 2.57374e-24 -0.00607526)
(0.391322 0 0.000877412)
(0.362786 0 -0.010475)
(0.345479 0 0.00050827)
(0.393336 6.44529e-25 -0.00146012)
(0.324732 0 -0.0035603)
(0.405966 2.49309e-27 0.00672264)
(0.360235 -2.63748e-24 -0.00548484)
(0.388392 0 0.00741858)
(0.383146 0 -0.0110831)
(0.334467 -8.28129e-26 -0.000495549)
(0.397041 -4.09286e-25 0.000859153)
(0.324605 0 -0.00436306)
(0.395739 2.51187e-24 0.00642168)
(0.34782 0 -0.00320588)
(0.393508 0 0.013847)
(0.396004 1.81103e-24 -0.00596405)
(0.353189 3.62867e-24 0.00442148)
(0.424441 -1.07222e-25 0.00161542)
(0.309073 1.83201e-24 -0.00584971)
(0.394374 -1.52365e-25 0.00728283)
(0.352373 0 -0.00657193)
(0.381329 0 0.0106566)
(0.38056 3.66684e-24 -0.00752509)
(0.336445 -1.17135e-24 0.00655225)
(0.420528 0 0.00719449)
(0.313102 -1.5355e-24 -0.000343027)
(0.425808 0 0.0150121)
(0.376816 0 -0.0048581)
(0.392537 -2.67922e-24 0.00991866)
(0.376892 6.29384e-24 -0.00903781)
(0.343628 0 0.00613167)
(0.394412 2.64109e-25 0.00114746)
(0.328167 2.78788e-25 0.00107297)
(0.41147 3.31493e-27 0.0126812)
(0.3748 -3.44055e-25 0.00252447)
(0.410259 -5.7239e-24 0.0137842)
(0.400831 -6.66412e-26 -0.000103146)
(0.401227 7.38864e-27 0.00917273)
(0.395658 0 -0.00664973)
(0.32813 0 0.00106358)
(0.424147 0 0.00875968)
(0.34404 5.09842e-25 5.379e-05)
(0.423042 5.10656e-24 0.0152687)
(0.399711 0 -0.00401403)
(0.386995 -4.58895e-24 0.00795967)
(0.403837 -1.15128e-24 -0.0046816)
(0.347114 2.34345e-24 0.000440303)
(0.421898 2.4827e-24 0.00629699)
(0.361903 5.57376e-25 -0.00153744)
(0.42221 1.88699e-25 0.00582522)
(0.356695 0 -0.00525539)
(0.409721 0 0.00760597)
(0.37278 2.91614e-24 -0.00907691)
(0.386048 0 0.00574723)
(0.381523 0 -0.0125294)
(0.341725 0 0.00198774)
(0.40762 0 -0.0027755)
(0.310614 0 -0.0054103)
(0.417905 -1.57165e-24 0.00511463)
(0.332261 -4.41526e-24 -0.00822692)
(0.407006 4.32538e-25 0.00768555)
(0.341541 4.26265e-24 -0.0123741)
(0.377429 0 0.00846189)
(0.357187 0 -0.013319)
(0.335719 6.90161e-27 0.00884406)
(0.395565 0 -0.00517213)
(0.292787 0 -0.00257587)
(0.406035 -2.32882e-24 0.00889132)
(0.333791 -6.75576e-25 -0.00266274)
(0.421198 8.88192e-25 0.00982476)
(0.319539 0 -0.00772056)
(0.389641 -7.93491e-24 0.01648)
(0.363705 0 -0.00531224)
(0.381392 0 0.0166722)
(0.390749 -6.94411e-26 -0.00481051)
(0.361188 -7.07595e-24 0.0124676)
(0.419793 3.06082e-25 1.89049e-05)
(0.333925 0 -0.0022486)
(0.431306 0 0.00518374)
(0.314473 -1.87388e-24 -0.0070418)
(0.417655 -3.91549e-24 0.0081005)
(0.325682 0 -0.0112466)
(0.382407 0 0.0126502)
(0.363838 6.61688e-27 -0.0131357)
(0.340407 1.94833e-24 0.00778773)
(0.380072 0 -0.00743428)
(0.331824 1.09478e-24 0.00366499)
(0.414143 0 0.00341303)
(0.31376 0 -0.00531832)
(0.402087 -1.79071e-24 0.00463545)
(0.325607 0 -0.00703107)
(0.393064 0 0.0084546)
(0.342028 4.49173e-24 -0.00966183)
(0.370228 -3.33307e-24 0.00999555)
(0.356594 0 -0.00787889)
(0.355181 -1.1695e-26 0.0128537)
(0.397417 2.3543e-28 -0.00307475)
(0.338555 -2.64869e-24 0.00389886)
(0.42301 0 0.00810213)
(0.335659 -4.88913e-28 -0.00427465)
(0.415897 0 0.00610819)
(0.325757 0 -0.00792865)
(0.397934 0 0.00951169)
(0.34562 0 -0.0104993)
(0.372201 2.41889e-27 0.0107811)
(0.377432 -6.83953e-25 -0.0129149)
(0.331898 0 0.00272941)
(0.382879 0 -0.00664414)
(0.298546 0 -0.00500515)
(0.392166 -7.87128e-25 0.00400194)
(0.312212 0 -0.00465182)
(0.400657 3.45889e-24 0.0118479)
(0.346889 -5.7469e-27 -0.00568581)
(0.384048 0 0.012234)
(0.368595 -5.82306e-25 -0.00710366)
(0.368149 0 0.0109414)
(0.386606 -3.50848e-24 -0.0060215)
(0.347781 0 0.00467481)
(0.405922 0 0.000674005)
(0.324935 1.03912e-24 -0.00323085)
(0.405736 0 0.00302425)
(0.330085 0 -0.00686833)
(0.389305 0 0.00411699)
(0.334019 0 -0.00794535)
(0.386147 0 0.00696551)
(0.342623 8.98217e-24 -0.0104496)
(0.355201 -4.18841e-27 0.00976411)
(0.376845 0 -0.00537074)
(0.346491 1.89291e-24 0.00625631)
(0.393303 -2.29839e-25 0.000780818)
(0.34051 2.77548e-25 -0.000857654)
(0.411686 -5.23837e-25 0.0038897)
(0.338613 -1.21468e-24 -0.00590605)
(0.389099 0 0.00384245)
(0.341728 -2.276e-24 -0.00712993)
(0.37741 8.17926e-25 0.00525604)
(0.341765 1.69338e-24 -0.0064052)
(0.374928 -2.30669e-24 0.008902)
(0.362032 0 -0.00683306)
(0.363077 -2.7734e-27 0.0093207)
(0.3867 0 -0.00337072)
(0.354068 -1.37544e-24 0.00367571)
(0.389176 0 0.001083)
(0.360311 3.07886e-25 -3.1906e-06)
(0.395448 -4.96731e-26 0.00134257)
(0.3254 -1.96524e-24 -0.00369109)
(0.402338 0 0.00551369)
(0.340616 0 -0.00746426)
(0.379448 0 0.00601487)
(0.352468 0 -0.00926149)
(0.346828 0 0.00522213)
(0.363148 -2.63408e-25 -0.00266229)
(0.36198 0 0.00578099)
(0.361775 0 -0.000937902)
(0.383648 0 0.00765263)
(0.365382 -8.04073e-25 -0.00409014)
(0.35563 -2.43531e-24 0.00650113)
(0.37909 8.34325e-25 0.00221536)
(0.369339 1.99612e-24 0.00725989)
(0.404437 0 0.00337762)
(0.337416 -4.2064e-30 -0.00263824)
(0.37725 2.21137e-24 0.00342163)
(0.353639 0 -0.00302775)
(0.353928 0 0.00262824)
(0.334662 5.93651e-25 -0.00164559)
(0.34969 -2.22213e-24 0.00932465)
(0.357889 -6.4907e-25 0.00656315)
(0.365752 0 0.0144331)
(0.364857 1.48018e-24 0.0117486)
(0.382331 -3.81421e-24 0.0215533)
(0.371583 -1.43891e-27 0.0192751)
(0.404401 3.85478e-24 0.0339901)
(0.381404 0 0.0308884)
(0.47753 2.04676e-23 0.0760866)
(0.597636 -2.73586e-23 0.0703712)
(0.482817 -4.34265e-26 0.00597745)
(0.354735 0 0.000354573)
(0.358235 2.73208e-29 -0.000108903)
(1.70578 0 0.0462011)
(1.46484 0 0.0262865)
(1.26354 0 0.0112044)
(1.15627 0 0.00443932)
(1.09376 0 0.00223491)
(1.05073 0 0.00149982)
(1.01871 0 0.00123663)
(0.992301 0 0.00111526)
(0.969883 0 0.00100515)
(0.95112 0 0.000888222)
(0.934836 0 0.000786346)
(0.920591 0 0.000708098)
(0.907864 0 0.000635317)
(0.896693 0 0.000568573)
(0.886715 0 0.000515449)
(0.877621 0 0.000471219)
(0.869357 0 0.000435562)
(0.861719 0 0.000401411)
(0.854786 0 0.000366651)
(0.848307 0 0.000337356)
(0.842261 0 0.000317213)
(0.836581 0 0.000299211)
(0.831268 0 0.00028212)
(0.826282 0 0.000265201)
(0.82161 0 0.00025079)
(0.817176 0 0.000238067)
(0.812993 0 0.000226363)
(0.809012 0 0.000215862)
(0.805241 0 0.000204596)
(0.801669 0 0.000195513)
(0.798246 0 0.000186746)
(0.794993 0 0.000179325)
(0.791861 0 0.000171925)
(0.78888 1.89702e-39 0.000164955)
(0.786014 3.62141e-39 0.000158047)
(0.783278 0 0.000152209)
(0.780631 0 0.000146825)
(0.778093 0 0.000141468)
(0.775643 6.13908e-39 0.000136964)
(0.77328 5.89282e-39 0.00013173)
(0.771009 0 0.000127501)
(0.768807 8.74723e-38 0.00012331)
(0.766683 1.79035e-37 0.000119475)
(0.764625 1.83539e-37 0.000116028)
(0.762627 0 0.0001123)
(0.760702 0 0.000109003)
(0.758824 2.93807e-37 0.000105501)
(0.757021 5.7042e-37 0.000102888)
(0.755244 -6.90243e-38 9.98068e-05)
(0.753546 4.68743e-37 9.72825e-05)
(0.751864 0 9.46614e-05)
(0.750259 1.00928e-36 9.19711e-05)
(0.748671 0 8.95701e-05)
(0.747153 -1.90327e-36 8.72261e-05)
(0.745646 0 8.50952e-05)
(0.744207 0 8.30205e-05)
(0.742773 3.49356e-36 8.08998e-05)
(0.741409 0 7.92906e-05)
(0.740046 4.07968e-37 7.72368e-05)
(0.738763 6.35826e-36 7.54084e-05)
(0.737466 -7.72985e-37 7.34217e-05)
(0.736251 1.20414e-35 7.15854e-05)
(0.735015 1.17087e-35 6.97507e-05)
(0.733865 9.99033e-36 6.80054e-05)
(0.732688 -1.38528e-36 6.60822e-05)
(0.731605 0 6.43958e-05)
(0.730483 0 6.25967e-05)
(0.729464 3.82077e-35 6.08299e-05)
(0.728397 0 5.90734e-05)
(0.727444 0 5.706e-05)
(0.726435 4.63522e-36 5.5134e-05)
(0.725554 0 5.29875e-05)
(0.724607 -8.60663e-36 5.08406e-05)
(0.723806 -1.15624e-34 4.84598e-05)
(0.722925 0 4.60807e-05)
(0.722214 -2.38673e-34 4.2915e-05)
(0.721417 0 4.0383e-05)
(0.720809 2.09377e-34 3.62558e-05)
(0.720115 -3.89478e-34 3.30664e-05)
(0.719638 3.43472e-34 2.77317e-05)
(0.719077 -3.91241e-35 2.39621e-05)
(0.718757 0 1.62504e-05)
(0.718388 0 1.16764e-05)
(0.718254 4.40842e-34 -2.96431e-07)
(0.718191 0 -4.85102e-06)
(0.718298 -4.23927e-36 -1.75678e-05)
(0.718551 0 -2.94237e-05)
(0.719083 0 -5.07584e-05)
(0.719879 -7.66755e-34 -6.30304e-05)
(0.720918 -1.3138e-32 -9.7456e-05)
(0.722676 2.54708e-32 -0.000116278)
(0.724431 0 -0.000174112)
(0.727781 -9.41825e-32 -0.000205127)
(0.730737 -3.62705e-32 -0.000309834)
(0.736968 -6.96948e-31 -0.000385259)
(0.742204 0 -0.000635011)
(0.755637 -1.30466e-29 -0.000655143)
(0.762351 0 -0.00233429)
(0.823976 0 -0.00112985)
(0.807831 0 -0.0640604)
(0.505408 -2.29076e-23 -0.0581831)
(0.499867 9.43671e-25 -0.0444745)
(0.519799 0 -0.0410135)
(0.524234 0 -0.0341625)
(0.534268 -2.4989e-24 -0.0314682)
(0.545592 -1.53773e-24 -0.026588)
(0.550218 1.76844e-24 -0.0255433)
(0.558822 1.69738e-24 -0.0205743)
(0.577399 -5.23033e-30 -0.0203139)
(0.54983 0 -0.0213013)
(0.581711 0 -0.00918053)
(0.59646 -5.40909e-24 -0.0157402)
(0.576857 0 -0.0123528)
(0.610521 0 -0.0075062)
(0.58494 7.55281e-24 -0.0158654)
(0.596387 2.80395e-24 -0.00738345)
(0.594213 3.39761e-27 -0.0164324)
(0.588698 1.27111e-24 -0.00627002)
(0.609046 3.7702e-28 -0.00952517)
(0.582548 -1.89072e-24 -0.00929066)
(0.609743 0 -0.00278966)
(0.580624 4.76087e-24 -0.00981394)
(0.623984 0 0.00145736)
(0.599477 0 -0.0170448)
(0.582019 0 8.42097e-05)
(0.624207 1.16238e-24 -0.00253426)
(0.568828 0 -0.00675858)
(0.640427 -2.21113e-24 0.010727)
(0.597312 4.83614e-27 -0.00845018)
(0.624836 0 0.0106942)
(0.622981 0 -0.0160793)
(0.574858 0 -0.000841731)
(0.624745 -6.14722e-25 0.000887652)
(0.570858 -2.4909e-24 -0.00785301)
(0.63329 -8.16138e-28 0.00968125)
(0.584837 -1.52933e-24 -0.00522253)
(0.631447 -6.96745e-24 0.0200919)
(0.637452 4.68762e-24 -0.00742744)
(0.59907 6.83088e-24 0.00768612)
(0.658432 0 0.00313641)
(0.562317 0 -0.0105951)
(0.631407 3.0454e-25 0.0109)
(0.590032 -3.07185e-24 -0.0104212)
(0.621495 5.02039e-24 0.0156009)
(0.622635 0 -0.0114451)
(0.580681 5.29231e-27 0.0102038)
(0.647723 0 0.0110137)
(0.566572 -2.37635e-24 -2.60751e-05)
(0.665712 1.1319e-23 0.0235056)
(0.624203 0 -0.00826402)
(0.640069 -5.61677e-24 0.0159741)
(0.624556 2.37971e-23 -0.0147744)
(0.590908 1.51231e-25 0.00965504)
(0.634995 1.03397e-24 0.00208286)
(0.575926 0 0.00139794)
(0.647078 -5.22587e-24 0.0194112)
(0.617651 -1.14405e-24 0.00530592)
(0.657088 -1.12741e-23 0.0216778)
(0.653267 -1.17804e-25 0.0011983)
(0.657229 -3.49805e-24 0.0143667)
(0.651704 9.2972e-24 -0.0106971)
(0.593335 0 0.00213634)
(0.657892 -1.71544e-25 0.0132)
(0.594138 -1.554e-27 0.000512722)
(0.669872 0 0.0236405)
(0.653088 -2.48192e-24 -0.0060874)
(0.642536 0 0.0131015)
(0.657474 -4.00946e-24 -0.00722371)
(0.611192 3.83331e-24 0.000800392)
(0.665722 0 0.00906005)
(0.622445 7.09588e-28 -0.00305823)
(0.67725 9.68639e-25 0.00944002)
(0.605221 0 -0.00857232)
(0.658127 0 0.0119559)
(0.619876 8.75535e-27 -0.0143901)
(0.63282 0 0.00842804)
(0.628522 -1.41032e-23 -0.0199297)
(0.589343 1.06547e-24 0.00270221)
(0.64314 -1.22607e-24 -0.00416812)
(0.563857 -2.67873e-24 -0.0100234)
(0.651443 -3.10346e-24 0.00832672)
(0.566094 -8.57297e-24 -0.0135137)
(0.646599 0 0.0111096)
(0.577312 1.40639e-23 -0.0208426)
(0.612796 0 0.0127962)
(0.592979 8.82459e-24 -0.0217231)
(0.571883 -8.28959e-25 0.0133607)
(0.628065 0 -0.00783396)
(0.53979 -9.68564e-25 -0.00435988)
(0.621781 -4.44061e-24 0.0125357)
(0.569962 -1.12914e-24 -0.00421488)
(0.660858 0 0.0154415)
(0.553146 0 -0.0129705)
(0.625315 -2.18973e-23 0.0246734)
(0.601956 4.78966e-24 -0.00967353)
(0.62144 0 0.0263743)
(0.631994 0 -0.00670822)
(0.608078 0 0.0203078)
(0.663184 4.41157e-28 0.00065314)
(0.597702 -9.0042e-25 -0.00268587)
(0.665693 -1.10274e-24 0.00818694)
(0.557711 -3.4234e-24 -0.0131889)
(0.66279 -6.94867e-24 0.0117873)
(0.561367 0 -0.0190521)
(0.617484 0 0.0187494)
(0.600652 -9.38903e-24 -0.02157)
(0.578257 -4.10509e-24 0.012036)
(0.613064 0 -0.0111881)
(0.569788 -3.91e-24 0.00605199)
(0.637984 0 0.00494484)
(0.564006 3.16817e-24 -0.00909896)
(0.63738 3.36326e-27 0.00813311)
(0.553475 -5.643e-25 -0.0116769)
(0.62606 -4.21085e-24 0.0120002)
(0.576538 8.56052e-24 -0.0162502)
(0.60358 -5.72188e-24 0.0156248)
(0.589892 -8.6034e-24 -0.0131038)
(0.588815 9.23784e-24 0.020026)
(0.630263 -1.43085e-24 -0.00403583)
(0.579956 4.9996e-24 0.0067028)
(0.655456 2.30143e-24 0.0123447)
(0.588091 -1.34151e-24 -0.00735568)
(0.662104 -3.48104e-24 0.00969164)
(0.562439 0 -0.0135651)
(0.638224 0 0.0139329)
(0.581528 2.97348e-24 -0.0173448)
(0.604516 -2.93775e-23 0.0169034)
(0.610947 0 -0.0199858)
(0.569194 0 0.00395162)
(0.614522 4.73757e-24 -0.0105064)
(0.542781 3.71063e-24 -0.00871359)
(0.609087 0 0.00519554)
(0.542707 0 -0.0076864)
(0.630307 0 0.018214)
(0.577429 -6.30967e-24 -0.00911322)
(0.61507 0 0.0189078)
(0.603796 -6.36962e-25 -0.0102246)
(0.606706 0 0.0166353)
(0.625925 6.34434e-24 -0.00953874)
(0.592299 0 0.00746918)
(0.638319 0 0.000712241)
(0.583823 1.05504e-24 -0.00547388)
(0.640011 9.81649e-25 0.00540307)
(0.564101 0 -0.0114145)
(0.625043 3.6468e-24 0.00659144)
(0.560371 -1.44614e-24 -0.0130624)
(0.618533 0 0.0099897)
(0.57588 8.93989e-24 -0.0175894)
(0.586646 -3.64135e-24 0.0148789)
(0.608643 0 -0.00857565)
(0.582874 3.23943e-24 0.0102399)
(0.625853 6.20478e-30 0.00185967)
(0.588478 9.51696e-25 -0.000765286)
(0.641819 0 0.00629138)
(0.577356 2.05168e-24 -0.0103387)
(0.629619 0 0.00553965)
(0.576983 -2.37234e-27 -0.0122033)
(0.614208 0 0.00777435)
(0.571553 0 -0.0102321)
(0.604096 4.21724e-24 0.0141039)
(0.593347 0 -0.0101699)
(0.595659 -1.16457e-23 0.014389)
(0.62005 0 -0.00517589)
(0.594283 -2.17099e-24 0.00569969)
(0.626891 0 0.00145233)
(0.604104 5.95082e-25 -0.000222933)
(0.633637 -4.87252e-26 0.00256947)
(0.568751 4.56913e-27 -0.00639174)
(0.637869 5.44142e-24 0.00884504)
(0.572932 -5.01961e-24 -0.012089)
(0.61399 0 0.00875524)
(0.587752 -1.34646e-23 -0.0153149)
(0.58039 -1.05042e-24 0.00788101)
(0.592326 1.43441e-26 -0.00408397)
(0.59312 0 0.00985557)
(0.58912 -9.55053e-25 -0.00135864)
(0.616913 0 0.0121392)
(0.601857 -1.38518e-24 -0.00651308)
(0.593309 3.61687e-24 0.0102808)
(0.614825 0 0.00346522)
(0.607922 1.53243e-24 0.011589)
(0.6381 0 0.00567836)
(0.587102 -2.12718e-25 -0.00383726)
(0.616328 0 0.00508958)
(0.589229 0 -0.00484322)
(0.589894 5.06498e-25 0.00458335)
(0.560456 0 -0.00261886)
(0.57303 4.86219e-24 0.0149599)
(0.580464 -1.37626e-24 0.010533)
(0.593556 0 0.022936)
(0.592643 0 0.0190776)
(0.614547 -7.39307e-24 0.0342424)
(0.604509 1.39543e-23 0.0310339)
(0.646497 0 0.0539766)
(0.617126 1.30346e-23 0.0489399)
(0.734889 3.70213e-23 0.1117)
(0.890876 -8.39374e-23 0.103346)
(0.815824 3.42082e-25 0.0103027)
(0.670032 0 0.00433383)
(0.625059 7.51064e-29 0.00149019)
(1.79256 0 0.0536381)
(1.73299 0 0.0366391)
(1.59333 0 0.0192324)
(1.46852 0 0.00965788)
(1.37904 0 0.00580162)
(1.31285 0 0.00415539)
(1.26267 0 0.00326436)
(1.22332 0 0.00273858)
(1.19139 0 0.00234263)
(1.16526 0 0.00201869)
(1.14267 0 0.00177253)
(1.12312 0 0.00157726)
(1.10589 0 0.00140066)
(1.09088 0 0.00124402)
(1.07751 0 0.00112342)
(1.06537 0 0.0010235)
(1.0544 0 0.000940647)
(1.04434 0 0.000863069)
(1.03523 0 0.000793031)
(1.02677 0 0.000736821)
(1.01892 0 0.000691069)
(1.01157 0 0.000648902)
(1.00473 0 0.000609322)
(0.998334 0 0.000571707)
(0.992339 0 0.000539659)
(0.986664 -2.71065e-38 0.000511186)
(0.98132 1.27707e-38 0.000484783)
(0.976251 0 0.000461083)
(0.971456 1.14352e-38 0.00043662)
(0.966917 -4.33295e-38 0.000416596)
(0.962575 0 0.000397466)
(0.958454 0 0.000380837)
(0.954495 0 0.000364591)
(0.950732 0 0.000349245)
(0.947118 1.36337e-37 0.000334495)
(0.943669 0 0.000321699)
(0.94034 2.50096e-37 0.000309976)
(0.937148 0 0.000298317)
(0.934074 0 0.00028831)
(0.931111 -4.43624e-37 0.000277278)
(0.928265 0 0.000268042)
(0.925509 5.13855e-37 0.000259122)
(0.922851 1.97909e-37 0.000250756)
(0.92028 -5.74518e-37 0.000243293)
(0.917785 0 0.000235302)
(0.915385 0 0.000228261)
(0.913043 1.72631e-36 0.000220875)
(0.910796 6.69145e-37 0.00021513)
(0.908584 0 0.000208654)
(0.90647 -1.88539e-36 0.000203149)
(0.904381 -2.443e-36 0.000197558)
(0.902386 1.18512e-36 0.000191923)
(0.900415 0 0.000186792)
(0.898529 -2.23395e-36 0.000181869)
(0.89666 8.67817e-36 0.000177258)
(0.894876 -8.45534e-36 0.000172893)
(0.893098 2.05229e-35 0.000168398)
(0.89141 0 0.000164583)
(0.889723 0 0.000160048)
(0.888132 7.56471e-36 0.00015616)
(0.886526 0 0.000152027)
(0.885021 1.43439e-35 0.000148236)
(0.883492 1.39517e-35 0.000144374)
(0.882068 1.36147e-35 0.000140795)
(0.880612 0 0.000136818)
(0.87927 0 0.00013336)
(0.877882 -1.00283e-34 0.000129619)
(0.876619 1.46474e-34 0.000126053)
(0.8753 0 0.000122387)
(0.874116 0 0.000118429)
(0.872868 3.57987e-34 0.000114426)
(0.871771 3.47512e-34 0.000110236)
(0.870597 0 0.000105821)
(0.869595 -8.09498e-34 0.000101184)
(0.868501 6.24538e-34 9.63532e-05)
(0.867604 -2.98054e-34 9.02971e-05)
(0.866609 0 8.50666e-05)
(0.865831 -8.0868e-34 7.7315e-05)
(0.864957 -5.08543e-34 7.07995e-05)
(0.864329 2.33483e-33 6.07678e-05)
(0.863608 -1.74562e-33 5.31332e-05)
(0.86316 -3.02277e-33 3.86356e-05)
(0.862658 -2.75512e-33 2.99831e-05)
(0.862426 1.04956e-33 7.8362e-06)
(0.862253 1.4687e-33 -3.06848e-06)
(0.862322 0 -2.71283e-05)
(0.862533 0 -4.90592e-05)
(0.863024 0 -8.92061e-05)
(0.863854 1.04487e-32 -0.000113322)
(0.864923 -7.01028e-33 -0.00018009)
(0.866842 1.52827e-32 -0.000215318)
(0.868692 0 -0.000324973)
(0.872377 -5.92816e-32 -0.000386224)
(0.875564 0 -0.000578605)
(0.882362 -3.17815e-31 -0.000720207)
(0.888021 0 -0.00116175)
(0.902385 9.78627e-29 -0.00131088)
(0.910473 8.55751e-28 -0.00398795)
(0.969203 -2.44714e-26 -0.00481792)
(0.961024 -3.47061e-23 -0.0689564)
(0.704507 -2.62716e-23 -0.0754758)
(0.646356 1.86705e-24 -0.0560579)
(0.646512 0 -0.0505343)
(0.644145 0 -0.0422902)
(0.649155 0 -0.0384786)
(0.658585 -1.47397e-24 -0.0324318)
(0.662707 0 -0.0309307)
(0.670321 0 -0.0252872)
(0.689929 1.78329e-24 -0.0241729)
(0.665793 0 -0.0256906)
(0.693705 0 -0.0120253)
(0.710532 0 -0.0188231)
(0.695077 0 -0.015499)
(0.721037 0 -0.00992768)
(0.705751 5.79305e-24 -0.0184917)
(0.712494 1.54043e-24 -0.00917658)
(0.711942 5.72055e-24 -0.0188982)
(0.707047 -1.05447e-24 -0.00760338)
(0.726965 -3.4908e-24 -0.0113346)
(0.705258 -1.07543e-24 -0.011523)
(0.723702 0 -0.00411124)
(0.703315 4.00088e-24 -0.0117412)
(0.736664 0 0.000774176)
(0.721423 0 -0.0185927)
(0.70298 0 8.47239e-05)
(0.742034 -5.81132e-30 -0.00280163)
(0.701033 0 -0.00832306)
(0.748515 0 0.0101494)
(0.724483 2.78584e-24 -0.00954133)
(0.743238 0 0.0114995)
(0.745263 2.75789e-24 -0.017553)
(0.699765 -9.1823e-26 -0.00105219)
(0.74267 0 0.00146674)
(0.702886 -4.54212e-24 -0.00867555)
(0.743552 8.54248e-28 0.0100844)
(0.713594 -3.28351e-24 -0.005776)
(0.750246 -1.62305e-26 0.0218407)
(0.760194 1.22324e-24 -0.00848406)
(0.724585 0 0.00865544)
(0.774641 0 0.00407451)
(0.706051 -8.42328e-25 -0.01219)
(0.744802 1.3275e-24 0.0112173)
(0.718393 -3.14528e-24 -0.0110416)
(0.741526 3.34701e-24 0.0180613)
(0.746413 0 -0.0123959)
(0.70661 8.10589e-25 0.0115542)
(0.766403 -6.76741e-25 0.0126929)
(0.708142 0 -0.000542525)
(0.775333 2.40807e-23 0.024352)
(0.754646 -5.16785e-25 -0.00645961)
(0.761474 1.54704e-24 0.0169539)
(0.753057 1.73443e-23 -0.0146948)
(0.719 -2.32913e-27 0.0113895)
(0.758682 5.028e-25 0.00283482)
(0.71278 -7.05276e-25 0.00202957)
(0.761255 0 0.0208538)
(0.744517 -4.27406e-25 0.00613296)
(0.779545 1.0837e-23 0.0240099)
(0.780517 -1.47381e-25 0.00254388)
(0.784217 0 0.0166299)
(0.782233 8.74514e-24 -0.0110015)
(0.728152 2.01902e-24 0.00261375)
(0.778277 6.52731e-26 0.0152351)
(0.733604 -4.80267e-25 0.000425226)
(0.789649 0 0.0246014)
(0.783228 -1.34747e-24 -0.00520942)
(0.771799 0 0.0152346)
(0.786944 -1.76084e-24 -0.00717708)
(0.744899 -4.72918e-29 0.00145866)
(0.788517 0 0.0102704)
(0.761371 -1.24473e-24 -0.0033559)
(0.796754 -4.32955e-27 0.0103218)
(0.747094 -2.32759e-24 -0.009711)
(0.780602 0 0.0126447)
(0.752607 -3.65464e-24 -0.0153105)
(0.758303 0 0.00895671)
(0.756702 -1.30452e-23 -0.0221349)
(0.718559 8.1526e-25 0.00269887)
(0.766457 -2.58078e-24 -0.00484484)
(0.705585 -1.30897e-24 -0.0122935)
(0.758604 0 0.00807722)
(0.703248 -6.31882e-24 -0.0157887)
(0.758776 0 0.0115886)
(0.708939 7.34935e-24 -0.0229591)
(0.728974 0 0.0130247)
(0.717847 -3.22824e-27 -0.023197)
(0.694262 0 0.0147156)
(0.747506 0 -0.00865136)
(0.674304 -5.24059e-25 -0.00559053)
(0.732829 0 0.0135433)
(0.699195 0 -0.00504346)
(0.761494 2.62788e-24 0.0165476)
(0.693038 4.06578e-24 -0.0137568)
(0.740018 -3.89459e-24 0.0261305)
(0.728792 6.00722e-24 -0.00846207)
(0.740731 0 0.0289052)
(0.755454 -1.2157e-24 -0.00722454)
(0.732997 -1.24727e-23 0.0224927)
(0.786031 -8.97723e-25 0.00123179)
(0.729251 -8.10164e-25 -0.0030873)
(0.778174 -2.03476e-24 0.00953114)
(0.707996 0 -0.0147993)
(0.771419 -4.0698e-24 0.0123032)
(0.700781 0 -0.0215994)
(0.734687 0 0.0190479)
(0.725742 1.13531e-23 -0.0228256)
(0.701253 -4.60407e-24 0.0134928)
(0.733905 0 -0.0123921)
(0.693571 -1.78106e-24 0.00627155)
(0.753598 3.73934e-25 0.00538814)
(0.701005 2.0324e-24 -0.0106715)
(0.743559 4.30302e-24 0.0084498)
(0.687123 -4.08085e-27 -0.013137)
(0.736881 -1.65748e-24 0.0124435)
(0.704732 0 -0.0169047)
(0.719092 0 0.0159925)
(0.712269 -1.38923e-26 -0.0138844)
(0.707979 0 0.0219874)
(0.749016 0 -0.00434284)
(0.703921 9.42958e-24 0.00753457)
(0.768637 2.75137e-24 0.0138774)
(0.726077 0 -0.0076348)
(0.770711 -1.91838e-24 0.0107453)
(0.703951 0 -0.0154423)
(0.753314 0 0.0146472)
(0.711801 -8.26846e-25 -0.0186158)
(0.722936 -2.95524e-23 0.0171906)
(0.732144 0 -0.0221027)
(0.692326 1.60454e-24 0.00449282)
(0.733783 4.19897e-24 -0.0114569)
(0.672564 1.25708e-27 -0.0103281)
(0.719219 0 0.00568799)
(0.671534 1.59879e-24 -0.00933864)
(0.735484 0 0.0184189)
(0.703892 0 -0.00986647)
(0.729175 0 0.0201131)
(0.724914 0 -0.0101273)
(0.725971 0 0.0190298)
(0.74698 5.73557e-24 -0.00985414)
(0.716203 0 0.00847251)
(0.758356 1.83102e-25 0.000802225)
(0.714841 0 -0.00703464)
(0.751065 9.5171e-25 0.00550578)
(0.701361 0 -0.012993)
(0.737584 5.8839e-24 0.00690444)
(0.68885 -1.03933e-24 -0.0148008)
(0.730552 -9.67164e-25 0.0105225)
(0.701383 -9.95688e-24 -0.0180424)
(0.704463 0 0.0155641)
(0.727616 4.68433e-24 -0.00962898)
(0.703846 0 0.0109683)
(0.744442 2.6874e-25 0.00182931)
(0.712894 4.08961e-25 -0.00111154)
(0.752514 0 0.0071061)
(0.712068 2.13764e-24 -0.0110402)
(0.743872 0 0.00605201)
(0.705551 8.50376e-24 -0.013796)
(0.730408 -1.679e-24 0.00835427)
(0.696729 0 -0.0119027)
(0.718868 0 0.014289)
(0.714132 0 -0.0106214)
(0.714059 0 0.0161788)
(0.738801 0 -0.00535169)
(0.71584 -1.54576e-24 0.00673369)
(0.746713 0 0.00204108)
(0.727315 0 -0.000248634)
(0.750203 0 0.00291856)
(0.707054 3.5983e-24 -0.00754981)
(0.748652 5.28642e-24 0.00902531)
(0.703394 -3.67321e-24 -0.0133978)
(0.729408 0 0.00925484)
(0.711349 -1.28344e-23 -0.0164436)
(0.700959 5.99602e-27 0.00865259)
(0.711538 -5.38358e-25 -0.00479536)
(0.711315 0 0.0106781)
(0.708874 -8.04695e-25 -0.00123766)
(0.732129 0 0.0132128)
(0.723548 -1.27294e-24 -0.00601022)
(0.714057 2.20256e-24 0.0122004)
(0.734785 1.50266e-24 0.0042669)
(0.7288 0 0.0127176)
(0.755486 0 0.00657142)
(0.71814 0 -0.00364559)
(0.734809 0 0.00609743)
(0.712238 1.4084e-24 -0.00517398)
(0.711427 8.87655e-25 0.00543264)
(0.682034 -7.32612e-25 -0.00172299)
(0.688694 5.61753e-24 0.0168231)
(0.696283 -1.4887e-24 0.0125411)
(0.709386 3.77892e-24 0.0267155)
(0.709853 -3.13903e-24 0.0227159)
(0.731215 0 0.0400516)
(0.723806 7.69602e-24 0.03683)
(0.76576 0 0.0631518)
(0.740311 1.34721e-23 0.0575821)
(0.845424 0 0.121644)
(1.01133 -1.6922e-23 0.110823)
(0.973696 6.39998e-25 0.0201677)
(0.856687 0 0.00915732)
(0.778666 0 0.00396289)
(1.81929 0 0.0517659)
(1.81904 0 0.0393095)
(1.77529 0 0.0256073)
(1.68193 0 0.0157438)
(1.59188 0 0.0106345)
(1.51468 0 0.00790674)
(1.45128 0 0.00619255)
(1.39989 0 0.00506981)
(1.35846 0 0.00423186)
(1.32433 0 0.00358883)
(1.29547 0 0.00310829)
(1.27103 0 0.00273339)
(1.24967 0 0.0024123)
(1.23111 0 0.00213675)
(1.21458 0 0.00192899)
(1.19959 0 0.00175306)
(1.18614 0 0.00160231)
(1.17387 0 0.00146433)
(1.16278 0 0.00134293)
(1.15251 0 0.00124618)
(1.143 0 0.00116453)
(1.13417 0 0.00108961)
(1.12597 -3.35311e-38 0.00102023)
(1.11832 1.56873e-38 0.00095604)
(1.11115 0 0.000901232)
(1.10438 -1.38277e-38 0.00085225)
(1.09802 1.30224e-38 0.00080671)
(1.09201 -4.9323e-38 0.00076579)
(1.08633 1.16591e-38 0.000724716)
(1.08096 -4.4149e-38 0.000690717)
(1.07582 0 0.000658383)
(1.07096 0 0.000629834)
(1.0663 0 0.000602267)
(1.06188 2.90621e-37 0.000576257)
(1.05763 1.3878e-37 0.000551747)
(1.05358 0 0.000530116)
(1.04968 7.62944e-37 0.000510322)
(1.04594 0 0.000490698)
(1.04235 0 0.000473619)
(1.03889 -1.35212e-36 0.000455438)
(1.03557 -8.65548e-37 0.000439885)
(1.03236 1.25167e-36 0.000425057)
(1.02926 -1.60606e-36 0.000410985)
(1.02627 -7.76466e-37 0.00039843)
(1.02337 -2.9987e-36 0.000385131)
(1.02059 -2.90117e-36 0.000373417)
(1.01787 1.39937e-36 0.000361273)
(1.01526 0 0.000351539)
(1.0127 0 0.00034089)
(1.01025 -7.62758e-36 0.00033162)
(1.00784 -1.23516e-35 0.000322335)
(1.00553 9.58789e-36 0.000313093)
(1.00325 0 0.000304584)
(1.00107 0 0.000296486)
(0.998917 8.76757e-36 0.000288783)
(0.996857 -8.54036e-36 0.000281591)
(0.99481 4.97765e-35 0.000274137)
(0.992863 0 0.00026755)
(0.990918 0 0.000260051)
(0.989082 0 0.000253672)
(0.987232 0 0.000246944)
(0.985494 1.16509e-34 0.000240776)
(0.983734 1.13353e-34 0.000234434)
(0.982092 0 0.000228629)
(0.980415 2.15367e-34 0.000222182)
(0.978867 0 0.000216583)
(0.97727 -1.02205e-34 0.000210495)
(0.975812 4.98142e-34 0.000204785)
(0.974294 -3.88365e-34 0.000198803)
(0.972926 3.78914e-34 0.000192579)
(0.97149 1.10412e-33 0.00018608)
(0.970219 1.07554e-33 0.000179533)
(0.968866 0 0.000172422)
(0.967701 -6.7462e-34 0.000165201)
(0.966438 6.56009e-34 0.000157469)
(0.965387 0 0.000148182)
(0.964233 0 0.000139723)
(0.963313 1.17252e-33 0.000128007)
(0.962291 0 0.000117545)
(0.961531 2.12211e-33 0.000102417)
(0.960675 -2.04468e-33 9.01631e-05)
(0.960107 -1.11837e-32 6.84946e-05)
(0.959482 -3.60743e-33 5.42841e-05)
(0.959148 1.2739e-32 2.18272e-05)
(0.958852 -3.91025e-33 2.14737e-06)
(0.958856 1.49867e-32 -3.38498e-05)