/*--------------------------------*- C++ -*----------------------------------*\
| =========                 |                                                 |
| \\      /  F ield         | foam-extend: Open Source CFD                    |
|  \\    /   O peration     | Version:     3.2                                |
|   \\  /    A nd           | Web:         http://www.foam-extend.org         |
|    \\/     M anipulation  | For copyright notice see file Copyright         |
\*---------------------------------------------------------------------------*/
FoamFile
{
    version     2.0;
    format      ascii;
    class       areaVectorField;
    location    "160";
    object      Ub2;
}
// * * * * * * * * * * * * * * * * * * * * * * * * * * * * * * * * * * * * * //

dimensions      [0 1 -1 0 0 0 0];

internalField   nonuniform List<vector> 
300
(
(1.94961 0 0)
(1.70115 0 0)
(1.35641 0 0)
(1.19512 0 0)
(1.12979 0 0)
(1.09436 0 0)
(1.06816 0 0)
(1.04483 0 0)
(1.023 0 0)
(1.0029 0 0)
(0.984699 0 0)
(0.968219 0 0)
(0.953132 0 0)
(0.939523 0 0)
(0.927154 0 0)
(0.915806 0 0)
(0.905339 0 0)
(0.895599 0 0)
(0.886614 0 0)
(0.878363 0 0)
(0.870653 0 0)
(0.863364 0 0)
(0.856481 0 0)
(0.849981 0 0)
(0.843855 0 0)
(0.838026 0 0)
(0.832493 0 0)
(0.827206 0 0)
(0.822178 0 0)
(0.817392 0 0)
(0.812806 0 0)
(0.808418 0 0)
(0.804195 0 0)
(0.800149 1.3093e-39 0)
(0.796259 2.49376e-39 0)
(0.79253 0 0)
(0.788922 0 0)
(0.78545 0 0)
(0.78209 4.20531e-39 0)
(0.778845 4.02245e-39 0)
(0.775718 0 0)
(0.772684 0 0)
(0.769752 7.16842e-39 0)
(0.766902 1.38675e-38 0)
(0.764139 0 0)
(0.761462 0 0)
(0.758861 0 0)
(0.756342 0 0)
(0.753878 -4.6583e-38 0)
(0.751497 -4.51827e-38 0)
(0.74916 0 0)
(0.746904 0 0)
(0.744693 0 0)
(0.742553 0 0)
(0.740453 0 0)
(0.738417 0 0)
(0.736417 0 0)
(0.73448 0 0)
(0.73255 2.68841e-37 0)
(0.730699 0 0)
(0.728856 -5.0757e-37 0)
(0.727098 0 0)
(0.725342 0 0)
(0.723673 0 0)
(0.722 -9.03474e-37 0)
(0.720421 0 0)
(0.718827 0 0)
(0.717335 -1.65037e-36 0)
(0.715821 -3.20102e-36 0)
(0.714417 -3.08623e-36 0)
(0.712988 0 0)
(0.71168 0 0)
(0.71034 5.47255e-36 0)
(0.709138 1.04041e-35 0)
(0.707895 -9.92526e-36 0)
(0.706814 0 0)
(0.705689 -1.74127e-35 0)
(0.704746 0 0)
(0.703768 0 0)
(0.703001 2.38358e-35 0)
(0.702205 -2.14116e-35 0)
(0.701656 0 0)
(0.701115 0 0)
(0.700839 -5.87454e-36 0)
(0.700673 -1.5558e-35 0)
(0.700726 0 0)
(0.700995 0 0)
(0.701633 0 0)
(0.702586 7.74054e-34 0)
(0.703972 -1.40399e-33 0)
(0.70598 0 0)
(0.708491 0 0)
(0.712319 -1.09123e-32 0)
(0.716563 0 0)
(0.723939 0 0)
(0.731522 -2.52281e-31 0)
(0.748309 -8.85607e-30 0)
(0.75513 0 0)
(0.843683 0 0)
(0.812601 -2.25243e-23 -0.0793634)
(0.482822 -1.62335e-23 -0.0640091)
(0.455425 0 -0.0373573)
(0.476963 -5.44942e-21 -0.0359456)
(0.478285 0 -0.0300386)
(0.486678 0 -0.0276064)
(0.494433 2.63468e-22 -0.0230872)
(0.497999 0 -0.0223963)
(0.505428 0 -0.0172361)
(0.522762 -1.00974e-24 -0.0184378)
(0.492998 0 -0.0185469)
(0.523142 0 -0.00523416)
(0.546274 0 -0.0157228)
(0.514349 0 -0.0124273)
(0.385679 0 -0.00590171)
(0.350931 3.32388e-24 -0.0110078)
(0.350053 -1.38093e-21 -0.00323516)
(0.354704 1.12871e-21 -0.00900263)
(0.526469 0 -0.00203687)
(0.557232 0 -0.00953269)
(0.516841 2.19058e-21 -0.0108241)
(0.355008 -5.73745e-25 -0.00291166)
(0.32054 0 -0.00616537)
(0.359184 1.92463e-21 0.00219362)
(0.341481 0 -0.00996291)
(0.506427 9.37348e-22 0.00476895)
(0.574436 0 -0.00197489)
(0.499136 0 -0.00647684)
(0.577953 0 0.0093499)
(0.337701 1.31128e-21 -0.00779693)
(0.349384 8.49134e-25 0.00694779)
(0.364809 0 -0.0122204)
(0.282437 0 0.000508694)
(0.35735 0 0.00192496)
(0.491805 -1.12814e-24 -0.00454506)
(0.569923 -1.84241e-24 0.0120035)
(0.529554 5.73599e-21 -0.00705296)
(0.564122 9.4868e-24 0.0192943)
(0.383245 -1.48483e-21 -0.00868088)
(0.313291 0 0.00458215)
(0.405105 -1.80847e-25 0.000346883)
(0.27468 3.27377e-21 -0.00670977)
(0.345667 0 0.00819542)
(0.328008 1.22571e-24 -0.00551984)
(0.549669 -6.09061e-21 0.019747)
(0.566709 0 -0.0135077)
(0.498678 -1.11319e-21 0.0106911)
(0.60151 0 0.00685532)
(0.284544 3.12459e-22 -0.00184782)
(0.393113 0 0.0159354)
(0.372527 -3.13584e-24 -0.00610958)
(0.374306 4.73741e-24 0.0120192)
(0.567432 0 -0.015154)
(0.508778 -1.78299e-21 0.0115579)
(0.574871 2.45182e-25 0.000979003)
(0.499178 3.57616e-22 0.00151308)
(0.587662 0 0.0180892)
(0.37445 1.4863e-25 0.000789734)
(0.406229 -9.84784e-21 0.0148258)
(0.422342 0 0.000357739)
(0.419101 -2.54141e-21 0.0117091)
(0.600337 1.00179e-20 -0.012198)
(0.513148 -2.54801e-24 0.00385715)
(0.614545 0 0.0127394)
(0.528779 -3.44198e-22 -0.00293326)
(0.43653 -8.80616e-21 0.0165582)
(0.438824 0 -0.00695364)
(0.405886 -9.00865e-21 0.0100748)
(0.443613 -1.75014e-24 -0.00515055)
(0.532341 5.93849e-22 0.00451793)
(0.622211 0 0.0110495)
(0.566065 0 -0.00322008)
(0.626869 0 0.00854442)
(0.553343 0 -0.0130565)
(0.432643 0 0.00804817)
(0.408541 0 -0.0116592)
(0.403905 2.71986e-21 0.00863007)
(0.577645 6.64408e-24 -0.0203753)
(0.516692 1.96567e-24 0.00534555)
(0.596541 -1.8635e-24 -0.00664103)
(0.485958 0 -0.0112378)
(0.421169 3.99602e-21 0.00533915)
(0.340787 5.22909e-24 -0.0103829)
(0.398881 -3.07099e-21 0.00922834)
(0.352374 4.57093e-24 -0.0141284)
(0.540531 0 0.0164014)
(0.536392 0 -0.0234626)
(0.48492 -1.02393e-23 0.0151901)
(0.570129 7.64802e-21 -0.0113566)
(0.443061 -1.93579e-24 -0.00533046)
(0.380429 2.25917e-21 0.00834299)
(0.321809 0 -0.00268295)
(0.414693 0 0.0122172)
(0.491499 1.29147e-20 -0.0132825)
(0.548672 0 0.0272762)
(0.544132 -8.37177e-21 -0.011075)
(0.549334 1.80329e-20 0.0268261)
(0.578642 9.15509e-26 -0.0121984)
(0.357185 6.41132e-21 0.0126524)
(0.448058 -2.57008e-23 -0.00167387)
(0.349505 0 -0.00160241)
(0.452471 0 0.00607612)
(0.335888 0 -0.00804618)
(0.596373 5.3467e-21 0.0152387)
(0.508445 -5.46221e-24 -0.0215511)
(0.541324 0 0.0207116)
(0.543502 5.42862e-25 -0.0241915)
(0.49374 0 0.0139304)
(0.555004 0 -0.0130464)
(0.486699 0 0.00577311)
(0.421928 0 0.00136834)
(0.316035 -1.51677e-24 -0.00652612)
(0.394593 -4.33805e-21 0.00590192)
(0.32141 3.36369e-21 -0.00807264)
(0.381235 0 0.0107842)
(0.517317 0 -0.0157437)
(0.528294 0 0.0171173)
(0.52466 0 -0.0155925)
(0.503899 7.14397e-21 0.0192758)
(0.411405 0 -0.00573808)
(0.330095 -3.83551e-21 0.00458968)
(0.435177 -2.59412e-21 0.00930662)
(0.358717 1.37715e-22 -0.00377189)
(0.598846 0 0.0118841)
(0.506967 -1.52177e-20 -0.014933)
(0.568254 -2.27066e-21 0.0148801)
(0.522316 1.38221e-20 -0.0216704)
(0.358436 -1.70426e-25 0.0113567)
(0.392414 5.56641e-21 -0.0160455)
(0.315327 0 0.00467705)
(0.550312 0 -0.0100252)
(0.450304 -1.7424e-24 -0.00636733)
(0.54982 1.49847e-24 0.00666692)
(0.474302 0 -0.00810162)
(0.557917 -8.7019e-21 0.0175296)
(0.347791 -6.28829e-21 -0.00903093)
(0.366177 8.7076e-21 0.012965)
(0.375808 1.85796e-22 -0.00795661)
(0.356174 7.22369e-21 0.0135671)
(0.567104 0 -0.00900807)
(0.517337 6.03044e-22 0.00959208)
(0.589154 -6.8944e-22 -0.00122879)
(0.497262 1.85961e-21 -0.00734327)
(0.414812 0 0.002497)
(0.336865 1.60953e-21 -0.00894413)
(0.379699 0 0.00506342)
(0.332404 0 -0.00901088)
(0.374696 2.3808e-21 0.00914676)
(0.511837 -1.20043e-20 -0.0169619)
(0.505929 -6.25317e-24 0.0172152)
(0.54962 0 -0.0107395)
(0.503399 4.17101e-24 0.00899616)
(0.398295 1.08848e-23 -0.000808782)
(0.334871 -3.94334e-22 -0.000513096)
(0.414852 1.53393e-21 0.00502647)
(0.350429 2.23206e-24 -0.00614314)
(0.559422 0 0.00854481)
(0.515422 0 -0.0126748)
(0.542096 0 0.00794385)
(0.50774 0 -0.0136419)
(0.355364 0 0.00876937)
(0.359488 0 -0.00844706)
(0.342195 0 0.010318)
(0.391593 4.32634e-22 -0.00409077)
(0.34924 5.49653e-25 0.00574837)
(0.566974 9.94387e-22 0.00376415)
(0.537312 -3.5274e-22 0.000905637)
(0.576081 1.58131e-25 0.000580217)
(0.494495 0 -0.00845302)
(0.402577 0 0.00552236)
(0.346001 2.12216e-21 -0.00919179)
(0.372276 0 0.0082293)
(0.523184 0 -0.0153886)
(0.50049 0 0.00903128)
(0.524025 0 -0.00667741)
(0.347352 -1.40118e-24 0.00545962)
(0.354664 0 -0.00154331)
(0.375645 3.46945e-21 0.00895504)
(0.374024 0 -0.00429347)
(0.514579 0 0.0129677)
(0.552156 0 0.00306153)
(0.53627 -2.35116e-22 0.00971119)
(0.426836 1.12492e-22 0.00180966)
(0.353105 -2.76072e-22 -0.00240194)
(0.541824 8.59847e-25 0.00735546)
(0.522098 0 -0.00656615)
(0.510151 1.06768e-25 0.00287792)
(0.333417 2.59279e-22 -0.00272091)
(0.335214 3.68031e-21 0.00959146)
(0.356201 0 0.00599735)
(0.367917 -2.31015e-21 0.0147727)
(0.380049 1.85357e-22 0.0118445)
(0.406069 -9.11079e-25 0.0232182)
(0.411073 -1.03565e-24 0.0208968)
(0.462731 -6.71603e-21 0.039525)
(0.461337 0 0.0379046)
(0.60836 -1.34378e-19 0.101816)
(0.886975 0 0.102436)
(0.813067 0 0)
(0.606311 0 0)
(0.559706 -4.29947e-29 0)
)
;

boundaryField
{
    inlet
    {
        type            calculated;
        value           uniform (0 0 0);
    }
    outlet
    {
        type            calculated;
        value           uniform (0 0 0);
    }
    sideWall
    {
        type            empty;
    }
}


// ************************************************************************* //
