/*--------------------------------*- C++ -*----------------------------------*\
| =========                 |                                                 |
| \\      /  F ield         | foam-extend: Open Source CFD                    |
|  \\    /   O peration     | Version:     3.2                                |
|   \\  /    A nd           | Web:         http://www.foam-extend.org         |
|    \\/     M anipulation  | For copyright notice see file Copyright         |
\*---------------------------------------------------------------------------*/
FoamFile
{
    version     2.0;
    format      ascii;
    class       areaScalarField;
    location    "160";
    object      Uf;
}
// * * * * * * * * * * * * * * * * * * * * * * * * * * * * * * * * * * * * * //

dimensions      [0 1 -1 0 0 0 0];

internalField   nonuniform List<scalar> 
300
(
0.231291
0.206404
0.171915
0.155785
0.149252
0.14571
0.143089
0.140756
0.138574
0.136563
0.134743
0.133095
0.131587
0.130226
0.128989
0.127854
0.126807
0.125833
0.124935
0.12411
0.123339
0.12261
0.121921
0.121272
0.120659
0.120076
0.119523
0.118994
0.118491
0.118013
0.117554
0.117115
0.116693
0.116288
0.115899
0.115526
0.115166
0.114818
0.114482
0.114158
0.113845
0.113542
0.113249
0.112964
0.112687
0.11242
0.112159
0.111908
0.111661
0.111423
0.111189
0.110964
0.110743
0.110529
0.110319
0.110115
0.109915
0.109721
0.109528
0.109343
0.109159
0.108983
0.108808
0.108641
0.108473
0.108315
0.108156
0.108007
0.107855
0.107715
0.107572
0.107441
0.107307
0.107187
0.107063
0.106955
0.106842
0.106748
0.10665
0.106573
0.106494
0.106439
0.106385
0.106357
0.106341
0.106346
0.106373
0.106437
0.106532
0.10667
0.106871
0.107122
0.107505
0.107929
0.108667
0.109425
0.111104
0.111785
0.12064
0.115008
0.0809264
0.0795463
0.0818887
0.0823657
0.0833738
0.0844261
0.0848318
0.0858736
0.0875788
0.0845231
0.0883075
0.0901332
0.0870723
0.0913447
0.0876011
0.0887581
0.0888461
0.0888054
0.0915547
0.0874169
0.0907433
0.0870074
0.0920316
0.0889548
0.0871529
0.0936126
0.0858473
0.0945682
0.0892273
0.0922281
0.0915406
0.0851034
0.0926865
0.0851774
0.0938533
0.0888807
0.0936959
0.0937542
0.0883772
0.0967971
0.0828681
0.0920268
0.0884241
0.0922257
0.0922981
0.0867729
0.0967853
0.0840642
0.0965666
0.0918499
0.0939147
0.0922594
0.0877666
0.0938093
0.0863052
0.0959382
0.0918842
0.0960742
0.0958096
0.0963409
0.0957575
0.0877959
0.0983548
0.0890434
0.0979
0.0957328
0.0939427
0.0961228
0.0897172
0.0989867
0.092742
0.0993872
0.0909986
0.0960209
0.0917676
0.0933677
0.0930559
0.0882345
0.0956673
0.0842604
0.095595
0.0859219
0.0939987
0.0869031
0.091152
0.0886856
0.0856425
0.0927695
0.0802934
0.0927432
0.0854656
0.0960899
0.0846533
0.0925419
0.0901476
0.0926142
0.0935822
0.0894665
0.0966621
0.0867977
0.0977284
0.0846739
0.0966084
0.0859484
0.0915065
0.0894295
0.0864575
0.0911395
0.0853024
0.0947684
0.0833467
0.0926616
0.0838184
0.09192
0.0871276
0.090013
0.0879616
0.0877734
0.0929594
0.0859277
0.0963579
0.0873109
0.0966969
0.0861666
0.093871
0.0873995
0.0893155
0.0898446
0.0846083
0.0907789
0.0809163
0.091614
0.083243
0.0929783
0.0865189
0.0906877
0.0891991
0.0894556
0.0925214
0.0885133
0.0951684
0.085623
0.093962
0.0850313
0.0910251
0.0847553
0.0910939
0.0865206
0.0878227
0.0907194
0.0871431
0.0922704
0.0859628
0.094367
0.0867525
0.0926191
0.0871435
0.0909236
0.0863356
0.0893889
0.0878076
0.0881341
0.0912356
0.0880317
0.0931404
0.0900823
0.0939575
0.0852784
0.0931645
0.0859701
0.0905833
0.0877817
0.0868525
0.0883543
0.0880293
0.0878013
0.0908202
0.0891204
0.0884171
0.0916429
0.0904324
0.0942112
0.0863915
0.0908412
0.0881637
0.0874665
0.0844088
0.0858307
0.0870246
0.088518
0.0886657
0.0913158
0.0904311
0.095327
0.093131
0.107714
0.13018
0.117582
0.0969012
0.092241
)
;

boundaryField
{
    inlet
    {
        type            calculated;
        value           uniform 0;
    }
    outlet
    {
        type            calculated;
        value           uniform 0;
    }
    sideWall
    {
        type            empty;
    }
}


// ************************************************************************* //
