/*--------------------------------*- C++ -*----------------------------------*\
| =========                 |                                                 |
| \\      /  F ield         | foam-extend: Open Source CFD                    |
|  \\    /   O peration     | Version:     3.2                                |
|   \\  /    A nd           | Web:         http://www.foam-extend.org         |
|    \\/     M anipulation  | For copyright notice see file Copyright         |
\*---------------------------------------------------------------------------*/
FoamFile
{
    version     2.0;
    format      ascii;
    class       areaScalarField;
    location    "160";
    object      Uf2;
}
// * * * * * * * * * * * * * * * * * * * * * * * * * * * * * * * * * * * * * //

dimensions      [0 1 -1 0 0 0 0];

internalField   nonuniform List<scalar> 
300
(
0.132756
0.0866851
0.0682514
0.0629461
0.0610066
0.0597607
0.0587444
0.0577914
0.0568828
0.0560457
0.0552983
0.0546238
0.0540038
0.0534484
0.0529438
0.052482
0.0520558
0.0516578
0.0512919
0.0509602
0.0506499
0.0503553
0.0500767
0.0498135
0.0495661
0.04933
0.0491063
0.0488916
0.0486878
0.048494
0.048308
0.0481302
0.0479586
0.0477945
0.0476364
0.0474853
0.0473385
0.0471977
0.0470609
0.046929
0.046802
0.0466785
0.0465594
0.0464434
0.0463309
0.046222
0.0461161
0.0460137
0.0459131
0.0458165
0.045721
0.0456293
0.0455391
0.0454522
0.0453665
0.0452837
0.045202
0.0451234
0.0450441
0.0449691
0.0448933
0.0448223
0.0447502
0.0446829
0.0446141
0.0445508
0.0444853
0.0444258
0.0443635
0.0443078
0.0442492
0.044198
0.0441431
0.0440968
0.044046
0.0440055
0.04396
0.0439261
0.0438873
0.043862
0.0438317
0.0438171
0.0437992
0.0437975
0.0437994
0.0438119
0.043835
0.0438795
0.0439369
0.0440185
0.0441302
0.0442678
0.0444779
0.0446974
0.0451098
0.0454886
0.046478
0.0465665
0.0524648
0.0474966
0.0223475
0.0274805
0.0308144
0.0315243
0.0326595
0.0335636
0.0338932
0.0346771
0.0359381
0.0331658
0.036389
0.0377628
0.0351322
0.0387845
0.0351838
0.0361143
0.0360354
0.0360941
0.0387031
0.0352721
0.0384211
0.0345967
0.0384375
0.0358349
0.0346377
0.0398828
0.0333776
0.0413306
0.036199
0.0385692
0.0377319
0.0327589
0.0392826
0.0325472
0.040256
0.0357434
0.0401053
0.0397521
0.0350629
0.041829
0.0302035
0.0388116
0.0349315
0.0382482
0.0385197
0.0344838
0.0427448
0.0314312
0.0420896
0.0369011
0.0387963
0.0376631
0.0344602
0.0398152
0.0335798
0.0418135
0.0375079
0.040439
0.0391312
0.0395644
0.0398396
0.0337162
0.0433255
0.0348756
0.0422719
0.0394912
0.0379483
0.0398279
0.0347008
0.0426676
0.0370337
0.0431664
0.0360885
0.0405282
0.0364913
0.0381276
0.038224
0.0347449
0.0416198
0.0316039
0.0415621
0.0326052
0.0399971
0.0338589
0.0378155
0.0358159
0.0339106
0.0401852
0.0296958
0.0405392
0.0329524
0.041651
0.0318363
0.0393959
0.0371109
0.0390262
0.0395801
0.0362117
0.0417106
0.0327955
0.0423336
0.0310226
0.0418429
0.0328283
0.0387633
0.036966
0.0346798
0.0386866
0.0336356
0.0415068
0.0312046
0.0396623
0.031937
0.0390169
0.0343231
0.0375051
0.0363703
0.0361148
0.0398532
0.0335257
0.0416783
0.0331925
0.0417089
0.0330487
0.0405866
0.0350525
0.0369695
0.0371462
0.0327718
0.0382602
0.030138
0.0399022
0.0320263
0.0405865
0.0347596
0.0380912
0.0362752
0.0364161
0.0387176
0.0352933
0.0413879
0.0331293
0.0407396
0.0328466
0.0384126
0.0328103
0.038297
0.0343369
0.0360022
0.0384381
0.0352587
0.0394701
0.0337483
0.0405435
0.0334545
0.0389896
0.034645
0.0385016
0.0347679
0.0376472
0.0360098
0.0357641
0.0379226
0.0350232
0.039287
0.0368657
0.0404626
0.0330401
0.0399217
0.0333739
0.0375969
0.0356075
0.0354644
0.0369401
0.0363703
0.0359143
0.0378113
0.0362122
0.035735
0.0384296
0.0372927
0.0401955
0.0334406
0.038104
0.0360513
0.0357873
0.0336129
0.0350649
0.0358324
0.0365894
0.0364516
0.0382033
0.0370913
0.040434
0.0381039
0.048181
0.0600296
0.0481796
0.0353895
0.0357487
)
;

boundaryField
{
    inlet
    {
        type            calculated;
        value           uniform 0;
    }
    outlet
    {
        type            calculated;
        value           uniform 0;
    }
    sideWall
    {
        type            empty;
    }
}


// ************************************************************************* //
