/*--------------------------------*- C++ -*----------------------------------*\
| =========                 |                                                 |
| \\      /  F ield         | foam-extend: Open Source CFD                    |
|  \\    /   O peration     | Version:     3.2                                |
|   \\  /    A nd           | Web:         http://www.foam-extend.org         |
|    \\/     M anipulation  | For copyright notice see file Copyright         |
\*---------------------------------------------------------------------------*/
FoamFile
{
    version     2.0;
    format      ascii;
    class       areaVectorField;
    location    "160";
    object      uNormal;
}
// * * * * * * * * * * * * * * * * * * * * * * * * * * * * * * * * * * * * * //

dimensions      [0 0 0 0 0 0 0];

internalField   nonuniform List<vector> 
300
(
(-0 -0 1)
(-0 -0 1)
(-0 -0 1)
(-0 -0 1)
(-0 -0 1)
(-0 -0 1)
(-0 -0 1)
(-0 -0 1)
(-0 -0 1)
(-0 -0 1)
(-0 -0 1)
(-0 -0 1)
(-0 -0 1)
(-0 -0 1)
(-0 -0 1)
(-0 -0 1)
(-0 -0 1)
(-0 -0 1)
(-0 -0 1)
(-0 -0 1)
(-0 -0 1)
(-0 -0 1)
(-0 -0 1)
(-0 -0 1)
(-0 -0 1)
(-0 -0 1)
(-0 -0 1)
(-0 -0 1)
(-0 -0 1)
(-0 -0 1)
(-0 -0 1)
(-0 -0 1)
(-0 -0 1)
(-0 -0 1)
(-0 -0 1)
(-0 -0 1)
(-0 -0 1)
(-0 -0 1)
(-0 -0 1)
(-0 -0 1)
(-0 -0 1)
(-0 -0 1)
(-0 -0 1)
(-0 -0 1)
(-0 -0 1)
(-0 -0 1)
(-0 -0 1)
(-0 -0 1)
(-0 -0 1)
(-0 -0 1)
(-0 -0 1)
(-0 -0 1)
(-0 -0 1)
(-0 -0 1)
(-0 -0 1)
(-0 -0 1)
(-0 -0 1)
(-0 -0 1)
(-0 -0 1)
(-0 -0 1)
(-0 -0 1)
(-0 -0 1)
(-0 -0 1)
(-0 -0 1)
(-0 -0 1)
(-0 -0 1)
(-0 -0 1)
(-0 -0 1)
(-0 -0 1)
(-0 -0 1)
(-0 -0 1)
(-0 -0 1)
(-0 -0 1)
(-0 -0 1)
(-0 -0 1)
(-0 -0 1)
(-0 -0 1)
(-0 -0 1)
(-0 -0 1)
(-0 -0 1)
(-0 -0 1)
(-0 -0 1)
(-0 -0 1)
(-0 -0 1)
(-0 -0 1)
(-0 -0 1)
(-0 -0 1)
(-0 -0 1)
(-0 -0 1)
(-0 -0 1)
(-0 -0 1)
(-0 -0 1)
(-0 -0 1)
(-0 -0 1)
(-0 -0 1)
(-0 -0 1)
(-0 -0 1)
(-0 -0 1)
(-0 -0 1)
(0.0972034 -0 0.995265)
(0.131423 -0 0.991326)
(0.0817529 -0 0.996653)
(0.0751504 -6.7571e-18 0.997172)
(0.0626813 -0 0.998034)
(0.0566331 -0 0.998395)
(0.0466435 3.38444e-18 0.998912)
(0.0449272 -0 0.99899)
(0.0340822 -0 0.999419)
(0.0352481 -0 0.999379)
(0.0375941 -0 0.999293)
(0.0100047 -0 0.99995)
(0.02877 -0 0.999586)
(0.0241541 -0 0.999708)
(0.0153003 -0 0.999883)
(0.0313521 -0 0.999508)
(0.00924151 -8.46997e-19 0.999957)
(0.0253725 -3.38704e-18 0.999678)
(0.0038689 -0 0.999993)
(0.0171047 -0 0.999854)
(0.0209382 -1.69369e-18 0.999781)
(0.0082014 -0 0.999966)
(0.0192308 -0 0.999815)
(-0.00610712 8.47017e-19 0.999981)
(0.0291632 -0 0.999575)
(-0.00941643 8.46995e-19 0.999956)
(0.00343794 -0 0.999994)
(0.012975 -0 0.999916)
(-0.0161755 -0 0.999869)
(0.0230821 -1.69361e-18 0.999734)
(-0.0198819 -0 0.999802)
(0.0334793 -0 0.999439)
(-0.00180109 -0 0.999998)
(-0.00538669 -0 0.999985)
(0.00924118 -0 0.999957)
(-0.021057 -0 0.999778)
(0.0133175 -1.69392e-18 0.999911)
(-0.0341824 -0 0.999416)
(0.0226452 1.69363e-18 0.999744)
(-0.0146243 -0 0.999893)
(-0.000856278 -0 1)
(0.0244203 -3.38712e-18 0.999702)
(-0.0237024 -0 0.999719)
(0.016826 -0 0.999858)
(-0.0359021 -3.38595e-18 0.999355)
(0.0238287 -0 0.999716)
(-0.0214339 1.69368e-18 0.99977)
(-0.0113961 -0 0.999935)
(0.00649384 8.47015e-19 0.999979)
(-0.0405031 -0 0.999179)
(0.0163982 -0 0.999866)
(-0.032094 -0 0.999485)
(0.0266968 -0 0.999644)
(-0.0227111 -1.69363e-18 0.999742)
(-0.00170299 -0 0.999999)
(-0.00303113 -2.11757e-19 0.999995)
(-0.030767 -0 0.999527)
(-0.00210904 -0 0.999998)
(-0.0364718 -3.38588e-18 0.999335)
(-0.000847037 -0 1)
(-0.0279277 -3.38681e-18 0.99961)
(0.0203144 -1.69372e-18 0.999794)
(-0.00751643 -0 0.999972)
(-0.0207253 -0 0.999785)
(0.00554715 4.2351e-19 0.999985)
(-0.0379041 -3.3857e-18 0.999281)
(0.0158441 -0 0.999874)
(-0.0248142 -3.38709e-18 0.999692)
(0.0116097 -0 0.999933)
(-0.00848661 8.47002e-19 0.999964)
(-0.0177556 -0 0.999842)
(0.00568844 -0 0.999984)
(-0.0136291 -0 0.999907)
(0.023589 -0 0.999722)
(-0.0185991 -0 0.999827)
(0.028527 -0 0.999593)
(-0.0213617 1.69368e-18 0.999772)
(0.0352511 -0 0.999378)
(-0.0103452 -0 0.999946)
(0.0111319 -0 0.999938)
(0.0231189 -0 0.999733)
(-0.012676 1.69393e-18 0.99992)
(0.0304533 -0 0.999536)
(-0.0231294 -1.69361e-18 0.999732)
(0.0400628 -0 0.999197)
(-0.0303291 -0 0.99954)
(0.0436997 -0 0.999045)
(-0.0313097 -0 0.99951)
(0.0199154 -1.69373e-18 0.999802)
(0.0120301 -0 0.999928)
(-0.0219252 1.69366e-18 0.99976)
(0.00833679 -0 0.999965)
(-0.029448 -0 0.999566)
(0.0270145 -3.3869e-18 0.999635)
(-0.0496519 -0 0.998767)
(0.0203492 1.69372e-18 0.999793)
(-0.0487757 6.7682e-18 0.99881)
(0.0210763 -0 0.999778)
(-0.0354003 3.38601e-18 0.999373)
(0.00373582 4.23514e-19 0.999993)
(0.00458476 -0 0.999989)
(-0.0134275 -0 0.99991)
(0.0239481 -0 0.999713)
(-0.0255439 3.38703e-18 0.999674)
(0.0423482 -0 0.999103)
(-0.0382329 -0 0.999269)
(0.0444664 -0 0.999011)
(-0.0282027 -0 0.999602)
(0.0235003 -0 0.999724)
(-0.0118609 -0 0.99993)
(-0.00324305 -0 0.999995)
(0.0206456 -0 0.999787)
(-0.0149553 -1.69388e-18 0.999888)
(0.0251084 -3.38706e-18 0.999685)
(-0.0282764 -0 0.9996)
(0.0304194 -0 0.999537)
(-0.0323841 -0 0.999475)
(0.0297062 -0 0.999559)
(-0.0382253 3.38566e-18 0.999269)
(0.0139462 -0 0.999903)
(-0.0139028 -1.6939e-18 0.999903)
(-0.021381 -1.69368e-18 0.999771)
(0.0105144 -8.46986e-19 0.999945)
(-0.0198412 -0 0.999803)
(0.0294429 3.38666e-18 0.999566)
(-0.0261766 -3.38697e-18 0.999657)
(0.0414534 -3.38522e-18 0.99914)
(-0.0316681 -0 0.999498)
(0.0408551 -3.3853e-18 0.999165)
(-0.0148308 -0 0.99989)
(0.0182142 -0 0.999834)
(0.0141386 -0 0.9999)
(-0.0121247 -0 0.999926)
(0.0170787 -0 0.999854)
(-0.0314042 -3.38646e-18 0.999507)
(0.0259578 3.38699e-18 0.999663)
(-0.0353841 3.38601e-18 0.999374)
(0.0211672 1.69369e-18 0.999776)
(-0.0380635 3.38568e-18 0.999275)
(0.0158823 -0 0.999874)
(-0.0185381 1.69377e-18 0.999828)
(0.00208568 2.11758e-19 0.999998)
(0.0147658 -1.69388e-18 0.999891)
(-0.00601949 -0 0.999982)
(0.0265417 -3.38694e-18 0.999648)
(-0.0133342 -0 0.999911)
(0.0270982 -0 0.999633)
(-0.0244039 1.69356e-18 0.999702)
(0.0331211 3.38627e-18 0.999451)
(-0.0340072 -0 0.999422)
(0.0195362 -0 0.999809)
(-0.017868 -0 0.99984)
(0.0020306 2.11758e-19 0.999998)
(0.00153222 -2.11758e-19 0.999999)
(-0.0121154 8.46971e-19 0.999927)
(0.0175277 -0 0.999846)
(-0.0152726 -0 0.999883)
(0.0245837 -0 0.999698)
(-0.0146524 -0 0.999893)
(0.0268582 -0 0.999639)
(-0.0246696 -0 0.999696)
(0.023491 -0 0.999724)
(-0.0301386 -0 0.999546)
(0.0104459 -8.46987e-19 0.999945)
(-0.0164574 -0 0.999865)
(-0.00663887 -8.47014e-19 0.999978)
(-0.00168549 2.11758e-19 0.999999)
(-0.00100718 -0 0.999999)
(0.0170917 -0 0.999854)
(-0.0137162 -0 0.999906)
(0.0265564 -3.38694e-18 0.999647)
(-0.0221 -0 0.999756)
(0.0294005 -0 0.999568)
(-0.018042 -0 0.999837)
(0.0127415 -0 0.999919)
(-0.0157159 -0 0.999876)
(0.00435142 -0 0.999991)
(-0.0238324 1.69358e-18 0.999716)
(0.0114784 -0 0.999934)
(-0.0251926 -0 0.999683)
(-0.00554459 -0 0.999985)
(-0.0181058 1.69379e-18 0.999836)
(-0.00423967 -4.23513e-19 0.999991)
(0.00680219 -8.47013e-19 0.999977)
(-0.0135741 -0 0.999908)
(0.0125755 -0 0.999921)
(-0.00564123 -0 0.999984)
(0.00816041 -8.47005e-19 0.999967)
(-0.0286012 3.38675e-18 0.999591)
(-0.0168346 -0 0.999858)
(-0.0401198 -3.3854e-18 0.999195)
(-0.0311507 3.38649e-18 0.999515)
(-0.0570848 -0 0.998369)
(-0.0507693 -0 0.99871)
(-0.085107 -6.75168e-18 0.996372)
(-0.0818865 -0 0.996642)
(-0.165066 -2.67332e-17 0.986283)
(-0.114727 -0 0.993397)
(-0 -0 1)
(-0 -0 1)
(-0 -0 1)
)
;

boundaryField
{
    inlet
    {
        type            calculated;
        value           uniform (0 0 0);
    }
    outlet
    {
        type            calculated;
        value           uniform (0 0 0);
    }
    sideWall
    {
        type            empty;
    }
}


// ************************************************************************* //
