/*--------------------------------*- C++ -*----------------------------------*\
| =========                 |                                                 |
| \\      /  F ield         | foam-extend: Open Source CFD                    |
|  \\    /   O peration     | Version:     3.2                                |
|   \\  /    A nd           | Web:         http://www.foam-extend.org         |
|    \\/     M anipulation  | For copyright notice see file Copyright         |
\*---------------------------------------------------------------------------*/
FoamFile
{
    version     2.0;
    format      ascii;
    class       areaVectorField;
    location    "160";
    object      Utau;
}
// * * * * * * * * * * * * * * * * * * * * * * * * * * * * * * * * * * * * * //

dimensions      [0 1 -1 0 0 0 0];

internalField   nonuniform List<vector> 
300
(
(2.31224 0 0)
(2.06385 0 0)
(1.71914 0 0)
(1.55785 0 0)
(1.49252 0 0)
(1.4571 0 0)
(1.43089 0 0)
(1.40756 0 0)
(1.38574 0 0)
(1.36563 0 0)
(1.34743 0 0)
(1.33095 0 0)
(1.31587 0 0)
(1.30226 0 0)
(1.28989 0 0)
(1.27854 0 0)
(1.26807 0 0)
(1.25833 0 0)
(1.24935 0 0)
(1.2411 0 0)
(1.23339 0 0)
(1.2261 0 0)
(1.21921 0 0)
(1.21272 0 0)
(1.20659 0 0)
(1.20076 0 0)
(1.19523 0 0)
(1.18994 0 0)
(1.18491 0 0)
(1.18013 0 0)
(1.17554 0 0)
(1.17115 0 0)
(1.16693 0 0)
(1.16288 1.90285e-39 0)
(1.15899 3.62979e-39 0)
(1.15526 0 0)
(1.15166 0 0)
(1.14818 0 0)
(1.14482 6.15574e-39 0)
(1.14158 5.89584e-39 0)
(1.13845 0 0)
(1.13542 0 0)
(1.13249 1.05464e-38 0)
(1.12964 2.04266e-38 0)
(1.12687 0 0)
(1.1242 0 0)
(1.12159 0 0)
(1.11908 0 0)
(1.11661 -6.89968e-38 0)
(1.11423 -6.69916e-38 0)
(1.11189 0 0)
(1.10964 0 0)
(1.10743 0 0)
(1.10529 0 0)
(1.10319 0 0)
(1.10115 0 0)
(1.09915 0 0)
(1.09721 0 0)
(1.09528 4.01961e-37 0)
(1.09343 0 0)
(1.09159 -7.60176e-37 0)
(1.08983 0 0)
(1.08808 0 0)
(1.08641 0 0)
(1.08473 -1.35738e-36 0)
(1.08315 0 0)
(1.08156 0 0)
(1.08007 -2.48491e-36 0)
(1.07855 -4.8231e-36 0)
(1.07715 -4.65322e-36 0)
(1.07572 0 0)
(1.07441 0 0)
(1.07307 8.2671e-36 0)
(1.07187 1.5726e-35 0)
(1.07063 -1.50111e-35 0)
(1.06955 0 0)
(1.06842 -2.63631e-35 0)
(1.06748 0 0)
(1.0665 0 0)
(1.06573 3.61345e-35 0)
(1.06494 -3.2472e-35 0)
(1.06439 0 0)
(1.06385 0 0)
(1.06357 -8.91503e-36 0)
(1.06341 -2.36123e-35 0)
(1.06346 0 0)
(1.06373 0 0)
(1.06437 0 0)
(1.06532 1.17368e-33 0)
(1.0667 -2.12742e-33 0)
(1.06871 0 0)
(1.07122 0 0)
(1.07505 -1.64691e-32 0)
(1.07929 0 0)
(1.08667 0 0)
(1.09425 -3.77376e-31 0)
(1.11104 -1.31489e-29 0)
(1.11785 0 0)
(1.2064 0 0)
(1.14456 -3.17258e-23 -0.111784)
(0.802218 -2.69723e-23 -0.106353)
(0.792777 0 -0.0650295)
(0.81657 -9.3295e-21 -0.0615396)
(0.822038 0 -0.0516279)
(0.8324 0 -0.0472172)
(0.843342 4.49391e-22 -0.0393793)
(0.847462 0 -0.0381126)
(0.858237 0 -0.0292676)
(0.875243 -1.69057e-24 -0.0308698)
(0.844633 0 -0.0317757)
(0.88303 0 -0.00883492)
(0.900951 0 -0.025931)
(0.870468 0 -0.0210315)
(0.913339 0 -0.013976)
(0.87558 8.29316e-24 -0.0274648)
(0.887534 -3.50124e-21 -0.00820251)
(0.888175 2.82627e-21 -0.0225425)
(0.888046 0 -0.00343579)
(0.915402 0 -0.01566)
(0.873975 3.70426e-21 -0.0183035)
(0.907401 -1.46649e-24 -0.00744221)
(0.869909 0 -0.0167321)
(0.92028 4.93116e-21 0.00562036)
(0.889165 0 -0.0259419)
(0.871488 1.61304e-21 0.00820667)
(0.936113 0 -0.00321832)
(0.858391 0 -0.0111386)
(0.945557 0 0.0152969)
(0.892033 3.46374e-21 -0.0205955)
(0.922086 2.24101e-24 0.0183364)
(0.914893 0 -0.0306472)
(0.851023 0 0.00153277)
(0.926851 0 0.00499273)
(0.851735 -1.95378e-24 -0.00787138)
(0.938324 -3.03336e-24 0.0197627)
(0.888711 9.62627e-21 -0.0118365)
(0.936409 1.57475e-23 0.0320274)
(0.9373 -3.63143e-21 -0.0212307)
(0.883652 0 0.0129242)
(0.967971 -4.32121e-25 0.000828852)
(0.828428 9.87361e-21 -0.0202365)
(0.92 0 0.0218123)
(0.884114 3.30378e-24 -0.0148782)
(0.921658 -1.02124e-20 0.0331108)
(0.92269 0 -0.0219927)
(0.867529 -1.93656e-21 0.0185988)
(0.967785 0 0.0110297)
(0.840624 9.23094e-22 -0.00545899)
(0.964829 0 0.0391107)
(0.918375 -7.73064e-24 -0.0150617)
(0.938655 1.18801e-23 0.0301407)
(0.922241 0 -0.0246297)
(0.877438 -3.07495e-21 0.0199327)
(0.938082 4.00091e-25 0.00159755)
(0.863044 6.18292e-22 0.00261601)
(0.958925 0 0.0295173)
(0.91884 3.64714e-25 0.00193788)
(0.960078 -2.32743e-20 0.0350391)
(0.95809 0 0.000811537)
(0.963032 -5.83979e-21 0.0269057)
(0.957331 1.59752e-20 -0.0194517)
(0.877933 -4.35932e-24 0.00659911)
(0.983337 0 0.0203843)
(0.890419 -5.79601e-22 -0.00493936)
(0.97828 -1.97349e-20 0.0371074)
(0.957206 0 -0.015168)
(0.939117 -2.08437e-20 0.0233107)
(0.96116 -3.79198e-24 -0.0111595)
(0.897139 1.0008e-21 0.00761394)
(0.98971 0 0.0175756)
(0.927392 0 -0.0052755)
(0.99378 0 0.0135455)
(0.909725 0 -0.0214655)
(0.960026 0 0.0178587)
(0.917302 0 -0.0261786)
(0.933457 6.28583e-21 0.0199448)
(0.929958 1.06964e-23 -0.0328025)
(0.882298 3.35655e-24 0.00912801)
(0.956599 -2.98827e-24 -0.0106494)
(0.842378 0 -0.0194801)
(0.955858 9.0691e-21 0.0121174)
(0.858821 1.31779e-23 -0.0261661)
(0.939726 -7.23497e-21 0.0217411)
(0.868308 1.12635e-23 -0.0348148)
(0.91109 0 0.0276453)
(0.885977 0 -0.038754)
(0.856003 -1.80749e-23 0.0268143)
(0.927482 1.24418e-20 -0.0184748)
(0.802876 -3.50787e-24 -0.00965938)
(0.927204 5.50618e-21 0.020334)
(0.854623 0 -0.00712506)
(0.960469 0 0.0282962)
(0.846198 2.22348e-20 -0.022868)
(0.924272 0 0.0459486)
(0.901252 -1.38662e-20 -0.0183436)
(0.925029 3.03658e-20 0.0451727)
(0.935601 1.48028e-25 -0.0197234)
(0.894091 1.60486e-20 0.031671)
(0.966614 -5.54454e-23 -0.00361112)
(0.86795 0 -0.00397938)
(0.977194 0 0.0131225)
(0.846483 0 -0.0202774)
(0.965765 8.65843e-21 0.0246775)
(0.858656 -9.22452e-24 -0.0363952)
(0.914393 0 0.0349855)
(0.893366 8.92314e-25 -0.0397641)
(0.864223 0 0.0243832)
(0.911137 0 -0.021418)
(0.852958 0 0.0101176)
(0.947678 0 0.00307338)
(0.833289 -3.99926e-24 -0.0172074)
(0.926493 -1.01856e-20 0.0138575)
(0.837915 8.76914e-21 -0.0210454)
(0.918825 0 0.0259914)
(0.870854 0 -0.0265031)
(0.899656 0 0.0291498)
(0.879189 0 -0.0261289)
(0.877084 1.24348e-20 0.0335514)
(0.929501 0 -0.0129642)
(0.859174 -9.98311e-21 0.0119461)
(0.963353 -5.74261e-21 0.0206021)
(0.87306 3.35175e-22 -0.00918018)
(0.966777 0 0.0191858)
(0.861258 -2.58526e-20 -0.025369)
(0.938387 -3.74966e-21 0.0245722)
(0.873217 2.31081e-20 -0.0362289)
(0.892679 -4.24444e-25 0.0282836)
(0.897688 1.27337e-20 -0.0367058)
(0.845981 0 0.0125479)
(0.907629 0 -0.0165345)
(0.809081 -3.13065e-24 -0.0114404)
(0.916072 2.49665e-24 0.0111079)
(0.832305 0 -0.0142167)
(0.929314 -1.44946e-20 0.0291988)
(0.864885 -1.56377e-20 -0.0224581)
(0.906287 2.15513e-20 0.0320882)
(0.891791 4.40893e-22 -0.018881)
(0.893891 1.81293e-20 0.0340493)
(0.925087 0 -0.0146944)
(0.884981 1.0316e-21 0.0164087)
(0.951667 -1.11366e-21 -0.00198488)
(0.856135 3.20168e-21 -0.0126429)
(0.9396 0 0.00565602)
(0.850013 4.06134e-21 -0.0225687)
(0.910156 0 0.0121372)
(0.847238 0 -0.0229671)
(0.910662 5.7863e-21 0.0222303)
(0.86471 -2.02803e-20 -0.0286559)
(0.877716 -1.08484e-23 0.0298659)
(0.906997 0 -0.0177227)
(0.87129 7.21925e-24 0.0155707)
(0.922702 2.52161e-23 -0.00187365)
(0.859613 -1.01226e-21 -0.00131712)
(0.943592 3.48896e-21 0.0114329)
(0.867389 5.52484e-24 -0.0152056)
(0.926082 0 0.0141453)
(0.871145 0 -0.0214225)
(0.909138 0 0.0133225)
(0.863031 0 -0.0231878)
(0.893606 0 0.0220516)
(0.877833 0 -0.0206269)
(0.880917 0 0.0265617)
(0.912305 1.00792e-21 -0.00953038)
(0.880196 1.3853e-24 0.0144877)
(0.931382 1.6335e-21 0.00618346)
(0.900817 -5.91378e-22 0.00151832)
(0.939571 2.57908e-25 0.000946318)
(0.852659 0 -0.0145755)
(0.931546 0 0.0127785)
(0.859396 5.27101e-21 -0.0228305)
(0.905605 0 0.0200188)
(0.877404 0 -0.0258073)
(0.868384 0 0.0156699)
(0.883466 0 -0.0112576)
(0.880177 -3.55052e-24 0.0138345)
(0.878003 0 -0.0038206)
(0.90793 8.38563e-21 0.0216443)
(0.891142 0 -0.0102295)
(0.883887 0 0.0222745)
(0.916411 0 0.0050812)
(0.904175 -3.96416e-22 0.0163735)
(0.942104 2.4829e-22 0.00399424)
(0.863895 -6.75429e-22 -0.00587651)
(0.908328 1.44147e-24 0.0123309)
(0.881551 0 -0.0110868)
(0.874652 1.83053e-25 0.00493419)
(0.844059 6.56375e-22 -0.0068881)
(0.857951 9.41943e-21 0.0245485)
(0.870123 0 0.0146502)
(0.884465 -5.55355e-21 0.0355132)
(0.886227 4.32228e-22 0.02762)
(0.911668 -2.04547e-24 0.0521273)
(0.903145 -2.27537e-24 0.0459112)
(0.949809 -1.37854e-20 0.0811298)
(0.92818 0 0.0762616)
(1.06233 -2.34654e-19 0.177793)
(1.2932 0 0.149351)
(1.17573 0 0)
(0.969012 0 0)
(0.92241 -7.08563e-29 0)
)
;

boundaryField
{
    inlet
    {
        type            calculated;
        value           uniform (0 0 0);
    }
    outlet
    {
        type            calculated;
        value           uniform (0 0 0);
    }
    sideWall
    {
        type            empty;
    }
}


// ************************************************************************* //
