/*--------------------------------*- C++ -*----------------------------------*\
| =========                 |                                                 |
| \\      /  F ield         | foam-extend: Open Source CFD                    |
|  \\    /   O peration     | Version:     3.2                                |
|   \\  /    A nd           | Web:         http://www.foam-extend.org         |
|    \\/     M anipulation  | For copyright notice see file Copyright         |
\*---------------------------------------------------------------------------*/
FoamFile
{
    version     2.0;
    format      ascii;
    class       areaScalarField;
    location    "160";
    object      volA;
}
// * * * * * * * * * * * * * * * * * * * * * * * * * * * * * * * * * * * * * //

dimensions      [0 3 0 0 0 0 0];

internalField   nonuniform List<scalar> 
300
(
4.63285e-05
4.63285e-05
4.63285e-05
4.63285e-05
4.63285e-05
4.63285e-05
4.63285e-05
4.63285e-05
4.63285e-05
4.63285e-05
4.63285e-05
4.63285e-05
4.63285e-05
4.63285e-05
4.63285e-05
4.63285e-05
4.63285e-05
4.63285e-05
4.63285e-05
4.63285e-05
4.63285e-05
4.63285e-05
4.63285e-05
4.63285e-05
4.63285e-05
4.63285e-05
4.63285e-05
4.63285e-05
4.63285e-05
4.63285e-05
4.63285e-05
4.63285e-05
4.63285e-05
4.63285e-05
4.63285e-05
4.63285e-05
4.63285e-05
4.63285e-05
4.63285e-05
4.63285e-05
4.63285e-05
4.63285e-05
4.63285e-05
4.63285e-05
4.63285e-05
4.63285e-05
4.63285e-05
4.63285e-05
4.63285e-05
4.63285e-05
4.63285e-05
4.63285e-05
4.63285e-05
4.63285e-05
4.63285e-05
4.63285e-05
4.63285e-05
4.63285e-05
4.63285e-05
4.63285e-05
4.63285e-05
4.63285e-05
4.63285e-05
4.63285e-05
4.63285e-05
4.63285e-05
4.63285e-05
4.63285e-05
4.63285e-05
4.63285e-05
4.63285e-05
4.63285e-05
4.63285e-05
4.63285e-05
4.63285e-05
4.63285e-05
4.63285e-05
4.63285e-05
4.63285e-05
4.63285e-05
4.63285e-05
4.63285e-05
4.63285e-05
4.63285e-05
4.63285e-05
4.63285e-05
4.63285e-05
4.63285e-05
4.63285e-05
4.63285e-05
4.63285e-05
4.63285e-05
4.63285e-05
4.63285e-05
4.63285e-05
4.63285e-05
4.63285e-05
4.63285e-05
4.63285e-05
4.54123e-05
4.75039e-05
4.63206e-05
4.67108e-05
4.63312e-05
4.65799e-05
4.63516e-05
4.64293e-05
4.64837e-05
4.62038e-05
4.6456e-05
4.56691e-05
4.58759e-05
4.48232e-05
4.48935e-05
4.38779e-05
4.40703e-05
4.31587e-05
4.27419e-05
4.22368e-05
4.21274e-05
4.16898e-05
4.07362e-05
4.10033e-05
4.04334e-05
3.95148e-05
4.06017e-05
3.98865e-05
4.0578e-05
3.89871e-05
4.03659e-05
3.94566e-05
3.77331e-05
3.99648e-05
3.81445e-05
3.94674e-05
3.88375e-05
4.00581e-05
3.99133e-05
3.85585e-05
4.1231e-05
3.84082e-05
4.01045e-05
3.87385e-05
3.92333e-05
4.045e-05
3.82798e-05
4.23162e-05
3.94616e-05
4.28043e-05
4.1074e-05
4.22641e-05
4.28589e-05
4.08449e-05
4.49684e-05
4.0889e-05
4.49915e-05
4.4372e-05
4.64066e-05
4.72894e-05
4.71655e-05
4.91987e-05
4.62372e-05
4.97882e-05
4.83582e-05
5.02747e-05
5.08545e-05
5.01195e-05
5.16168e-05
4.9946e-05
5.22812e-05
5.12785e-05
5.29179e-05
5.10117e-05
5.16527e-05
5.06345e-05
5.00285e-05
5.00743e-05
4.86134e-05
4.9489e-05
4.79105e-05
4.88847e-05
4.56452e-05
4.8537e-05
4.50794e-05
4.62493e-05
4.55143e-05
4.3091e-05
4.74576e-05
4.2078e-05
4.78649e-05
4.35728e-05
4.74665e-05
4.60125e-05
4.64297e-05
4.77712e-05
4.64965e-05
4.96988e-05
4.68472e-05
5.13946e-05
4.83785e-05
5.18298e-05
4.76181e-05
5.14134e-05
4.68475e-05
4.93687e-05
4.74437e-05
4.58796e-05
4.87271e-05
4.42373e-05
5.0006e-05
4.50432e-05
4.99788e-05
4.53322e-05
4.75941e-05
4.68375e-05
4.59097e-05
4.73694e-05
4.55319e-05
4.91874e-05
4.55623e-05
5.06316e-05
4.79836e-05
5.18529e-05
4.68698e-05
5.10547e-05
4.70453e-05
4.72566e-05
4.78507e-05
4.45339e-05
4.84438e-05
4.34475e-05
4.8564e-05
4.46848e-05
4.77363e-05
4.61588e-05
4.74232e-05
4.71814e-05
4.64633e-05
4.89115e-05
4.66105e-05
4.99139e-05
4.68633e-05
5.11659e-05
4.60932e-05
4.86306e-05
4.59464e-05
4.71228e-05
4.61058e-05
4.52479e-05
4.78172e-05
4.44939e-05
4.89614e-05
4.6558e-05
5.01506e-05
4.60538e-05
4.94535e-05
4.64487e-05
4.74832e-05
4.59942e-05
4.57674e-05
4.69348e-05
4.47913e-05
4.84809e-05
4.53769e-05
4.98401e-05
4.73087e-05
5.10025e-05
4.6663e-05
5.00058e-05
4.68766e-05
4.76784e-05
4.68823e-05
4.54186e-05
4.75821e-05
4.46675e-05
4.85884e-05
4.55754e-05
4.95713e-05
4.67811e-05
5.15957e-05
4.91067e-05
5.26011e-05
4.97933e-05
5.21224e-05
4.97319e-05
4.97006e-05
4.94653e-05
4.40162e-05
4.85177e-05
4.46899e-05
4.78659e-05
4.53649e-05
4.72858e-05
4.61175e-05
4.67721e-05
4.77581e-05
4.52899e-05
4.63285e-05
4.63285e-05
4.63285e-05
)
;

boundaryField
{
    inlet
    {
        type            calculated;
        value           uniform 0;
    }
    outlet
    {
        type            calculated;
        value           uniform 0;
    }
    sideWall
    {
        type            empty;
    }
}


// ************************************************************************* //
