/*--------------------------------*- C++ -*----------------------------------*\
| =========                 |                                                 |
| \\      /  F ield         | foam-extend: Open Source CFD                    |
|  \\    /   O peration     | Version:     3.2                                |
|   \\  /    A nd           | Web:         http://www.foam-extend.org         |
|    \\/     M anipulation  | For copyright notice see file Copyright         |
\*---------------------------------------------------------------------------*/
FoamFile
{
    version     2.0;
    format      ascii;
    class       areaScalarField;
    location    "160";
    object      volC;
}
// * * * * * * * * * * * * * * * * * * * * * * * * * * * * * * * * * * * * * //

dimensions      [0 3 0 0 0 0 0];

internalField   nonuniform List<scalar> 
300
(
5.36715e-05
5.36715e-05
5.36715e-05
5.36715e-05
5.36715e-05
5.36715e-05
5.36715e-05
5.36715e-05
5.36715e-05
5.36715e-05
5.36715e-05
5.36715e-05
5.36715e-05
5.36715e-05
5.36715e-05
5.36715e-05
5.36715e-05
5.36715e-05
5.36715e-05
5.36715e-05
5.36715e-05
5.36715e-05
5.36715e-05
5.36715e-05
5.36715e-05
5.36715e-05
5.36715e-05
5.36715e-05
5.36715e-05
5.36715e-05
5.36715e-05
5.36715e-05
5.36715e-05
5.36715e-05
5.36715e-05
5.36715e-05
5.36715e-05
5.36715e-05
5.36715e-05
5.36715e-05
5.36715e-05
5.36715e-05
5.36715e-05
5.36715e-05
5.36715e-05
5.36715e-05
5.36715e-05
5.36715e-05
5.36715e-05
5.36715e-05
5.36715e-05
5.36715e-05
5.36715e-05
5.36715e-05
5.36715e-05
5.36715e-05
5.36715e-05
5.36715e-05
5.36715e-05
5.36715e-05
5.36715e-05
5.36715e-05
5.36715e-05
5.36715e-05
5.36715e-05
5.36715e-05
5.36715e-05
5.36715e-05
5.36715e-05
5.36715e-05
5.36715e-05
5.36715e-05
5.36715e-05
5.36715e-05
5.36715e-05
5.36715e-05
5.36715e-05
5.36715e-05
5.36715e-05
5.36715e-05
5.36715e-05
5.36715e-05
5.36715e-05
5.36715e-05
5.36715e-05
5.36715e-05
5.36715e-05
5.36715e-05
5.36715e-05
5.36715e-05
5.36715e-05
5.36715e-05
5.36715e-05
5.36715e-05
5.36715e-05
5.36715e-05
5.36715e-05
5.36715e-05
5.36715e-05
5.26102e-05
4.51017e-05
4.04071e-05
3.60258e-05
3.28729e-05
2.96026e-05
2.72032e-05
2.48256e-05
2.27627e-05
2.131e-05
1.924e-05
1.87931e-05
1.76397e-05
1.73606e-05
1.62928e-05
1.61639e-05
1.49293e-05
1.49916e-05
1.46588e-05
1.46475e-05
1.38095e-05
1.35081e-05
1.37841e-05
1.31797e-05
1.31947e-05
1.35988e-05
1.26594e-05
1.29684e-05
1.23593e-05
1.37847e-05
1.23222e-05
1.29101e-05
1.38119e-05
1.17606e-05
1.34859e-05
1.24678e-05
1.32844e-05
1.26121e-05
1.30284e-05
1.41747e-05
1.18837e-05
1.41328e-05
1.24177e-05
1.39483e-05
1.39578e-05
1.30242e-05
1.51316e-05
1.19074e-05
1.48822e-05
1.24347e-05
1.47306e-05
1.39547e-05
1.34861e-05
1.53948e-05
1.18673e-05
1.60653e-05
1.28353e-05
1.42497e-05
1.32198e-05
1.32309e-05
1.40984e-05
1.22444e-05
1.4875e-05
1.20417e-05
1.38389e-05
1.27763e-05
1.27113e-05
1.36825e-05
1.25001e-05
1.40908e-05
1.24196e-05
1.37149e-05
1.2279e-05
1.39482e-05
1.31755e-05
1.39603e-05
1.43754e-05
1.4007e-05
1.48084e-05
1.39136e-05
1.46485e-05
1.34013e-05
1.62197e-05
1.31324e-05
1.61988e-05
1.4764e-05
1.5194e-05
1.72784e-05
1.31794e-05
1.77526e-05
1.22233e-05
1.68428e-05
1.35016e-05
1.50123e-05
1.52161e-05
1.45455e-05
1.65943e-05
1.4025e-05
1.72611e-05
1.34662e-05
1.62745e-05
1.30495e-05
1.70106e-05
1.32578e-05
1.74395e-05
1.48044e-05
1.65895e-05
1.77082e-05
1.49707e-05
1.91563e-05
1.3761e-05
1.83018e-05
1.32175e-05
1.76228e-05
1.54456e-05
1.61525e-05
1.71334e-05
1.57356e-05
1.78048e-05
1.47168e-05
1.83409e-05
1.41624e-05
1.7071e-05
1.34442e-05
1.82024e-05
1.39298e-05
1.75899e-05
1.71102e-05
1.63072e-05
1.8926e-05
1.49351e-05
1.91181e-05
1.39497e-05
1.77095e-05
1.50383e-05
1.67424e-05
1.57323e-05
1.63046e-05
1.74778e-05
1.55466e-05
1.7917e-05
1.5014e-05
1.76501e-05
1.3123e-05
1.77038e-05
1.48191e-05
1.71766e-05
1.59283e-05
1.67428e-05
1.76248e-05
1.53933e-05
1.8673e-05
1.45915e-05
1.69058e-05
1.35824e-05
1.75489e-05
1.40905e-05
1.6874e-05
1.55787e-05
1.67783e-05
1.69467e-05
1.58071e-05
1.81283e-05
1.49061e-05
1.81656e-05
1.42727e-05
1.70109e-05
1.33843e-05
1.7331e-05
1.39004e-05
1.67248e-05
1.58046e-05
1.64299e-05
1.75923e-05
1.55561e-05
1.85478e-05
1.49039e-05
1.84217e-05
1.47208e-05
1.78703e-05
1.38048e-05
1.6895e-05
1.39491e-05
1.66938e-05
1.45386e-05
1.69532e-05
1.6807e-05
1.69804e-05
2.2966e-05
1.9583e-05
2.48818e-05
2.34674e-05
2.82624e-05
2.90202e-05
3.37863e-05
3.73137e-05
4.35357e-05
5.24684e-05
5.36715e-05
5.36715e-05
5.36715e-05
)
;

boundaryField
{
    inlet
    {
        type            calculated;
        value           uniform 0;
    }
    outlet
    {
        type            calculated;
        value           uniform 0;
    }
    sideWall
    {
        type            empty;
    }
}


// ************************************************************************* //
