/*--------------------------------*- C++ -*----------------------------------*\
| =========                 |                                                 |
| \\      /  F ield         | foam-extend: Open Source CFD                    |
|  \\    /   O peration     | Version:     3.2                                |
|   \\  /    A nd           | Web:         http://www.foam-extend.org         |
|    \\/     M anipulation  | For copyright notice see file Copyright         |
\*---------------------------------------------------------------------------*/
FoamFile
{
    version     2.0;
    format      ascii;
    class       volVectorField;
    location    "160";
    object      WsSS1;
}
// * * * * * * * * * * * * * * * * * * * * * * * * * * * * * * * * * * * * * //

dimensions      [0 1 -1 0 0 0 0];

internalField   uniform (0 0 -0.0153895);

boundaryField
{
    inlet
    {
        type            calculated;
        value           uniform (0 0 -0.0153895);
    }
    outlet
    {
        type            calculated;
        value           uniform (0 0 -0.0153895);
    }
    sideWall
    {
        type            empty;
    }
    bed
    {
        type            calculated;
        value           uniform (0 0 -0.0153895);
    }
    topWall
    {
        type            calculated;
        value           uniform (0 0 -0.0153895);
    }
}


// ************************************************************************* //
