/*--------------------------------*- C++ -*----------------------------------*\
| =========                 |                                                 |
| \\      /  F ield         | foam-extend: Open Source CFD                    |
|  \\    /   O peration     | Version:     3.2                                |
|   \\  /    A nd           | Web:         http://www.foam-extend.org         |
|    \\/     M anipulation  | For copyright notice see file Copyright         |
\*---------------------------------------------------------------------------*/
FoamFile
{
    version     2.0;
    format      ascii;
    class       areaVectorField;
    location    "160";
    object      Wt;
}
// * * * * * * * * * * * * * * * * * * * * * * * * * * * * * * * * * * * * * //

dimensions      [1 1 -2 0 0 0 0];

internalField   nonuniform List<vector> 
300
(
(-0 0 0)
(-0 0 0)
(-0 0 0)
(-0 0 0)
(-0 0 0)
(-0 0 0)
(-0 0 0)
(-0 0 0)
(-0 0 0)
(-0 0 0)
(-0 0 0)
(-0 0 0)
(-0 0 0)
(-0 0 0)
(-0 0 0)
(-0 0 0)
(-0 0 0)
(-0 0 0)
(-0 0 0)
(-0 0 0)
(-0 0 0)
(-0 0 0)
(-0 0 0)
(-0 0 0)
(-0 0 0)
(-0 0 0)
(-0 0 0)
(-0 0 0)
(-0 0 0)
(-0 0 0)
(-0 0 0)
(-0 0 0)
(-0 0 0)
(-0 0 0)
(-0 0 0)
(-0 0 0)
(-0 0 0)
(-0 0 0)
(-0 0 0)
(-0 0 0)
(-0 0 0)
(-0 0 0)
(-0 0 0)
(-0 0 0)
(-0 0 0)
(-0 0 0)
(-0 0 0)
(-0 0 0)
(-0 0 0)
(-0 0 0)
(-0 0 0)
(-0 0 0)
(-0 0 0)
(-0 0 0)
(-0 0 0)
(-0 0 0)
(-0 0 0)
(-0 0 0)
(-0 0 0)
(-0 0 0)
(-0 0 0)
(-0 0 0)
(-0 0 0)
(-0 0 0)
(-0 0 0)
(-0 0 0)
(-0 0 0)
(-0 0 0)
(-0 0 0)
(-0 0 0)
(-0 0 0)
(-0 0 0)
(-0 0 0)
(-0 0 0)
(-0 0 0)
(-0 0 0)
(-0 0 0)
(-0 0 0)
(-0 0 0)
(-0 0 0)
(-0 0 0)
(-0 0 0)
(-0 0 0)
(-0 0 0)
(-0 0 0)
(-0 0 0)
(-0 0 0)
(-0 0 0)
(-0 0 0)
(-0 0 0)
(-0 0 0)
(-0 0 0)
(-0 0 0)
(-0 0 0)
(-0 0 0)
(-0 0 0)
(-0 0 0)
(-0 0 0)
(-0 0 0)
(4.69175e-05 0 -4.58224e-06)
(6.31834e-05 0 -8.37642e-06)
(3.9515e-05 0 -3.24131e-06)
(3.63426e-05 -3.26772e-21 -2.73891e-06)
(3.03388e-05 0 -1.90542e-06)
(2.74213e-05 0 -1.55545e-06)
(2.25961e-05 1.63957e-21 -1.05511e-06)
(2.17664e-05 0 -9.78891e-07)
(1.65192e-05 0 -5.63338e-07)
(1.70837e-05 0 -6.02541e-07)
(1.82191e-05 0 -6.85414e-07)
(4.85175e-06 0 -4.85429e-08)
(1.39468e-05 0 -4.01415e-07)
(1.17106e-05 0 -2.82941e-07)
(7.41933e-06 0 -1.13532e-07)
(1.51974e-05 0 -4.76704e-07)
(4.48166e-06 -4.1075e-22 -4.14191e-08)
(1.23009e-05 -1.64208e-21 -3.12206e-07)
(1.87629e-06 0 -7.25923e-09)
(8.29406e-06 0 -1.41888e-07)
(1.01522e-05 -8.21211e-22 -2.12615e-07)
(3.9773e-06 0 -3.26205e-08)
(9.32461e-06 0 -1.79352e-07)
(-2.96171e-06 4.1077e-22 -1.80879e-08)
(1.41373e-05 0 -4.12463e-07)
(-4.56648e-06 4.10749e-22 -4.30019e-08)
(1.66729e-06 0 -5.73206e-09)
(6.29196e-06 0 -8.16453e-08)
(-7.8436e-06 0 -1.26891e-07)
(1.11912e-05 -8.21133e-22 -2.58385e-07)
(-9.6402e-06 0 -1.91703e-07)
(1.62273e-05 0 -5.43585e-07)
(-8.73471e-07 0 -1.5732e-09)
(-2.61234e-06 0 -1.40721e-08)
(4.4815e-06 0 -4.14162e-08)
(-1.02098e-05 0 -2.15035e-07)
(6.45801e-06 -8.21425e-22 -8.60122e-08)
(-1.65678e-05 0 -5.66657e-07)
(1.09794e-05 8.2115e-22 -2.48694e-07)
(-7.09158e-06 0 -1.0372e-07)
(-4.15269e-07 0 -3.55586e-10)
(1.18396e-05 -1.64216e-21 -2.89212e-07)
(-1.14917e-05 0 -2.72457e-07)
(8.15894e-06 0 -1.37301e-07)
(-1.74002e-05 -1.64102e-21 -6.25106e-07)
(1.15529e-05 0 -2.75368e-07)
(-1.03924e-05 8.21193e-22 -2.22801e-07)
(-5.52641e-06 0 -6.29837e-08)
(3.14925e-06 4.10768e-22 -2.04512e-08)
(-1.96267e-05 0 -7.95594e-07)
(7.95154e-06 0 -1.30408e-07)
(-1.55566e-05 0 -4.99531e-07)
(1.29425e-05 0 -3.45647e-07)
(-1.10113e-05 -8.21147e-22 -2.50144e-07)
(-8.25899e-07 0 -1.4065e-09)
(-1.47e-06 -1.02695e-22 -4.45578e-09)
(-1.4914e-05 0 -4.59078e-07)
(-1.02282e-06 0 -2.15718e-09)
(-1.7676e-05 -1.64096e-21 -6.45103e-07)
(-4.10787e-07 0 -3.47952e-10)
(-1.35388e-05 -1.64186e-21 -3.78255e-07)
(9.84986e-06 -8.21232e-22 -2.00136e-07)
(-3.64514e-06 0 -2.73992e-08)
(-1.0049e-05 0 -2.08313e-07)
(2.69016e-06 2.05386e-22 -1.49229e-08)
(-1.83691e-05 -1.64078e-21 -6.96765e-07)
(7.68294e-06 0 -1.21744e-07)
(-1.20305e-05 -1.64213e-21 -2.98618e-07)
(5.62996e-06 0 -6.53665e-08)
(-4.1156e-06 4.10756e-22 -3.49287e-08)
(-8.60956e-06 0 -1.52892e-07)
(2.75868e-06 0 -1.56928e-08)
(-6.60907e-06 0 -9.00837e-08)
(1.14368e-05 0 -2.69858e-07)
(-9.01844e-06 0 -1.67764e-07)
(1.38291e-05 0 -3.94664e-07)
(-1.03574e-05 8.21196e-22 -2.21303e-07)
(1.70851e-05 0 -6.02644e-07)
(-5.01683e-06 0 -5.19027e-08)
(5.39829e-06 0 -6.00968e-08)
(1.1209e-05 0 -2.59209e-07)
(-6.14696e-06 8.21439e-22 -7.79248e-08)
(1.47621e-05 0 -4.49763e-07)
(-1.12141e-05 -8.21131e-22 -2.59444e-07)
(1.94137e-05 0 -7.78392e-07)
(-1.47019e-05 0 -4.46102e-07)
(2.11728e-05 0 -9.26131e-07)
(-1.51768e-05 0 -4.75413e-07)
(9.65646e-06 -8.21245e-22 -1.9235e-07)
(5.83382e-06 0 -7.01866e-08)
(-1.06305e-05 8.21176e-22 -2.33132e-07)
(4.04295e-06 0 -3.37064e-08)
(-1.42752e-05 0 -4.20558e-07)
(1.30964e-05 -1.64194e-21 -3.53923e-07)
(-2.405e-05 0 -1.1956e-06)
(9.86672e-06 8.21231e-22 -2.00822e-07)
(-2.36266e-05 3.27847e-21 -1.15378e-06)
(1.02191e-05 0 -2.1543e-07)
(-1.71573e-05 1.64108e-21 -6.07756e-07)
(1.81175e-06 2.0539e-22 -6.76841e-09)
(2.22345e-06 0 -1.01941e-08)
(-6.51137e-06 0 -8.74395e-08)
(1.16108e-05 0 -2.78135e-07)
(-1.2384e-05 1.64207e-21 -3.16439e-07)
(2.05192e-05 0 -8.69731e-07)
(-1.85283e-05 0 -7.08909e-07)
(2.15435e-05 0 -9.58912e-07)
(-1.3672e-05 0 -3.85742e-07)
(1.13938e-05 0 -2.67832e-07)
(-5.75178e-06 0 -6.82262e-08)
(-1.57277e-06 0 -5.10061e-09)
(1.00104e-05 0 -2.06714e-07)
(-7.25206e-06 -8.21387e-22 -1.08469e-07)
(1.2173e-05 -1.64211e-21 -3.05741e-07)
(-1.37077e-05 0 -3.87759e-07)
(1.47456e-05 0 -4.48761e-07)
(-1.56971e-05 0 -5.08601e-07)
(1.44003e-05 0 -4.27966e-07)
(-1.85246e-05 1.64074e-21 -7.08626e-07)
(6.76282e-06 0 -9.43246e-08)
(-6.74178e-06 -8.21412e-22 -9.37387e-08)
(-1.03667e-05 -8.21195e-22 -2.21702e-07)
(5.09887e-06 -4.1074e-22 -5.36143e-08)
(-9.62048e-06 0 -1.90919e-07)
(1.42727e-05 1.64172e-21 -4.20413e-07)
(-1.26905e-05 -1.64202e-21 -3.32309e-07)
(2.00864e-05 -1.64032e-21 -8.33364e-07)
(-1.53503e-05 0 -4.86359e-07)
(1.97969e-05 -1.6404e-21 -8.09482e-07)
(-7.19168e-06 0 -1.0667e-07)
(8.83189e-06 0 -1.60893e-07)
(6.85613e-06 0 -9.6946e-08)
(-5.8797e-06 0 -7.1295e-08)
(8.28142e-06 0 -1.41456e-07)
(-1.52226e-05 -1.64152e-21 -4.7829e-07)
(1.25845e-05 1.64203e-21 -3.26776e-07)
(-1.71495e-05 1.64108e-21 -6.07199e-07)
(1.02632e-05 8.21203e-22 -2.17292e-07)
(-1.84463e-05 1.64076e-21 -7.0264e-07)
(7.70148e-06 0 -1.22333e-07)
(-8.98886e-06 8.21289e-22 -1.66665e-07)
(1.01149e-06 1.02696e-22 -2.10965e-09)
(7.16018e-06 -8.21392e-22 -1.05737e-07)
(-2.91922e-06 0 -1.75725e-08)
(1.28674e-05 -1.64198e-21 -3.41643e-07)
(-6.4661e-06 0 -8.62277e-08)
(1.3137e-05 0 -3.5612e-07)
(-1.18316e-05 8.21082e-22 -2.88823e-07)
(1.60539e-05 1.64134e-21 -5.32017e-07)
(-1.64829e-05 0 -5.60862e-07)
(9.47266e-06 0 -1.85095e-07)
(-8.66405e-06 0 -1.54834e-07)
(9.8478e-07 1.02696e-22 -1.9997e-09)
(7.4308e-07 -1.02696e-22 -1.13856e-09)
(-5.87518e-06 4.10725e-22 -7.11856e-08)
(8.49908e-06 0 -1.48992e-07)
(-7.40588e-06 0 -1.1312e-07)
(1.19188e-05 0 -2.93096e-07)
(-7.10521e-06 0 -1.04119e-07)
(1.30207e-05 0 -3.49839e-07)
(-1.19604e-05 0 -2.95148e-07)
(1.13893e-05 0 -2.6762e-07)
(-1.46097e-05 0 -4.40515e-07)
(5.06568e-06 -4.10741e-22 -5.29185e-08)
(-7.98028e-06 0 -1.31353e-07)
(-3.21958e-06 -4.10767e-22 -2.13749e-08)
(-8.17413e-07 1.02696e-22 -1.37775e-09)
(-4.88452e-07 0 -4.91959e-10)
(8.28777e-06 0 -1.41673e-07)
(-6.65132e-06 0 -9.12395e-08)
(1.28745e-05 -1.64198e-21 -3.42022e-07)
(-1.07152e-05 0 -2.36864e-07)
(1.42522e-05 0 -4.19204e-07)
(-8.74838e-06 0 -1.57864e-07)
(6.17874e-06 0 -7.87328e-08)
(-7.62079e-06 0 -1.19782e-07)
(2.11029e-06 0 -9.18285e-09)
(-1.15547e-05 8.21104e-22 -2.75454e-07)
(5.56631e-06 0 -6.38964e-08)
(-1.22138e-05 0 -3.07794e-07)
(-2.68892e-06 0 -1.49092e-08)
(-8.77932e-06 8.21302e-22 -1.58983e-07)
(-2.05609e-06 -2.05389e-22 -8.71723e-09)
(3.29878e-06 -4.10766e-22 -2.24394e-08)
(-6.58242e-06 0 -8.93587e-08)
(6.09824e-06 0 -7.66942e-08)
(-2.73578e-06 0 -1.54334e-08)
(3.95742e-06 -4.10758e-22 -3.22952e-08)
(-1.38651e-05 1.6418e-21 -3.9672e-07)
(-8.1631e-06 0 -1.37442e-07)
(-1.94412e-05 -1.6405e-21 -7.80607e-07)
(-1.50998e-05 1.64155e-21 -4.70598e-07)
(-2.76392e-05 0 -1.58036e-06)
(-2.45898e-05 0 -1.25002e-06)
(-4.11246e-05 -3.26248e-21 -3.51273e-06)
(-3.95791e-05 0 -3.25192e-06)
(-7.89538e-05 -1.2787e-20 -1.32138e-05)
(-5.52717e-05 0 -6.38329e-06)
(-0 0 0)
(-0 0 0)
(-0 0 0)
)
;

boundaryField
{
    inlet
    {
        type            calculated;
        value           uniform (0 0 0);
    }
    outlet
    {
        type            calculated;
        value           uniform (0 0 0);
    }
    sideWall
    {
        type            empty;
    }
}


// ************************************************************************* //
