/*--------------------------------*- C++ -*----------------------------------*\
| =========                 |                                                 |
| \\      /  F ield         | foam-extend: Open Source CFD                    |
|  \\    /   O peration     | Version:     3.2                                |
|   \\  /    A nd           | Web:         http://www.foam-extend.org         |
|    \\/     M anipulation  | For copyright notice see file Copyright         |
\*---------------------------------------------------------------------------*/
FoamFile
{
    version     2.0;
    format      ascii;
    class       areaScalarField;
    location    "160";
    object      zCo;
}
// * * * * * * * * * * * * * * * * * * * * * * * * * * * * * * * * * * * * * //

dimensions      [0 1 0 0 0 0 0];

internalField   nonuniform List<scalar> 
300
(
0
0
0
0
0
0
0
0
0
0
0
0
0
0
0
0
0
0
0
0
0
0
0
0
0
0
0
0
0
0
0
0
0
0
0
0
0
0
0
0
0
0
0
0
0
0
0
0
0
0
0
0
0
0
0
0
0
0
0
0
0
0
0
0
0
0
0
0
0
0
0
0
0
0
0
0
0
0
0
0
0
0
0
0
0
0
0
0
0
0
0
0
0
0
0
0
0
0
0
-0.00244165
-0.00819762
-0.0135626
-0.0174974
-0.0209516
-0.0239398
-0.0265253
-0.028817
-0.0307938
-0.0325281
-0.0343504
-0.0355411
-0.0365107
-0.0378343
-0.0388209
-0.0399876
-0.0410029
-0.0418684
-0.0425997
-0.0431241
-0.0440753
-0.0448039
-0.0454898
-0.045818
-0.0463947
-0.0468887
-0.0467392
-0.0471496
-0.0470695
-0.0472423
-0.0473224
-0.0476627
-0.0484551
-0.0482754
-0.0483718
-0.0480763
-0.0478827
-0.0473606
-0.0470718
-0.0472724
-0.0468854
-0.0474747
-0.0474926
-0.0473206
-0.0468432
-0.046541
-0.0466009
-0.04578
-0.0456574
-0.0448063
-0.0442029
-0.0438102
-0.0436751
-0.0437748
-0.0431643
-0.043046
-0.0422006
-0.0413784
-0.0404133
-0.0394797
-0.03876
-0.0385695
-0.0388896
-0.0381834
-0.0378039
-0.0369943
-0.0364421
-0.0362177
-0.0358874
-0.0359655
-0.0353094
-0.0350077
-0.0348091
-0.0350582
-0.0351831
-0.0354315
-0.0356108
-0.0359584
-0.0365816
-0.0366013
-0.0374577
-0.0377189
-0.0381637
-0.038347
-0.038771
-0.0390148
-0.0393498
-0.0396602
-0.039375
-0.0401738
-0.0399263
-0.0395865
-0.0390584
-0.0389975
-0.0384302
-0.0376962
-0.0369842
-0.0362904
-0.0359319
-0.0351397
-0.0353477
-0.0351266
-0.0353898
-0.0353499
-0.0357707
-0.0358738
-0.0360301
-0.0364375
-0.0363198
-0.0366109
-0.0362333
-0.0366685
-0.0368108
-0.0370648
-0.0369855
-0.0370392
-0.03699
-0.0369229
-0.0367096
-0.0361019
-0.036103
-0.0352208
-0.034949
-0.0347157
-0.034956
-0.0350378
-0.0354203
-0.0356655
-0.0358956
-0.036547
-0.0366316
-0.0374406
-0.0374909
-0.0376148
-0.0372564
-0.03712
-0.036884
-0.0365282
-0.0361052
-0.03555
-0.0354836
-0.0350722
-0.0354936
-0.0357122
-0.0362255
-0.0365559
-0.0369002
-0.0369677
-0.0371859
-0.0371637
-0.0368015
-0.0368432
-0.0364472
-0.0365363
-0.0362717
-0.0364071
-0.0364635
-0.0366964
-0.0369448
-0.0372502
-0.0373049
-0.0372754
-0.0371091
-0.0366164
-0.0364661
-0.0358886
-0.0356805
-0.0356132
-0.0360154
-0.0360998
-0.036421
-0.0365325
-0.0367152
-0.0369994
-0.0368669
-0.0367925
-0.0365083
-0.0360211
-0.0357121
-0.0353691
-0.0346004
-0.0340091
-0.0334504
-0.0335145
-0.0333451
-0.0333202
-0.0334935
-0.0335565
-0.0330452
-0.031909
-0.0304843
-0.0287013
-0.0264927
-0.0237924
-0.0203861
-0.0161966
-0.00995851
-0.00288724
0
0
0
)
;

boundaryField
{
    inlet
    {
        type            calculated;
        value           uniform 0;
    }
    outlet
    {
        type            calculated;
        value           uniform 0;
    }
    sideWall
    {
        type            empty;
    }
}


// ************************************************************************* //
