/*--------------------------------*- C++ -*----------------------------------*\
| =========                 |                                                 |
| \\      /  F ield         | foam-extend: Open Source CFD                    |
|  \\    /   O peration     | Version:     3.2                                |
|   \\  /    A nd           | Web:         http://www.foam-extend.org         |
|    \\/     M anipulation  | For copyright notice see file Copyright         |
\*---------------------------------------------------------------------------*/
FoamFile
{
    version     2.0;
    format      ascii;
    class       volScalarField;
    location    "160";
    object      zDim;
}
// * * * * * * * * * * * * * * * * * * * * * * * * * * * * * * * * * * * * * //

dimensions      [0 1 0 0 0 0 0];

internalField   nonuniform List<scalar> 
96000
(
0.0028125
0.0028125
0.0028125
0.0028125
0.0028125
0.0028125
0.0028125
0.0028125
0.0028125
0.0028125
0.0028125
0.0028125
0.0028125
0.0028125
0.0028125
0.0028125
0.0028125
0.0028125
0.0028125
0.0028125
0.0028125
0.0028125
0.0028125
0.0028125
0.0028125
0.0028125
0.0028125
0.0028125
0.0028125
0.0028125
0.0028125
0.0028125
0.0028125
0.0028125
0.0028125
0.0028125
0.0028125
0.0028125
0.0028125
0.0028125
0.0028125
0.0028125
0.0028125
0.0028125
0.0028125
0.0028125
0.0028125
0.0028125
0.0028125
0.0028125
0.0028125
0.0028125
0.0028125
0.0028125
0.0028125
0.0028125
0.0028125
0.0028125
0.0028125
0.0028125
0.0028125
0.0028125
0.0028125
0.0028125
0.0028125
0.0028125
0.0028125
0.0028125
0.0028125
0.0028125
0.0028125
0.0028125
0.0028125
0.0028125
0.0028125
0.0028125
0.0028125
0.0028125
0.0028125
0.0028125
0.0028125
0.0028125
0.0028125
0.0028125
0.0028125
0.0028125
0.0028125
0.0028125
0.0028125
0.0028125
0.0028125
0.0028125
0.0028125
0.0028125
0.0028125
0.0028125
0.0028125
0.00281333
0.00281333
0.00768425
0.00945538
0.00694111
0.00658915
0.00596177
0.00565452
0.00515277
0.00506411
0.00452186
0.00457729
0.00469427
0.00331838
0.00424684
0.00402068
0.00357766
0.00437572
0.0032771
0.00407524
0.00300748
0.00366171
0.0038557
0.00322154
0.00376773
0.00310654
0.00425996
0.00327591
0.00297697
0.00345469
0.00360863
0.00395416
0.00379186
0.00447247
0.00289779
0.00307366
0.0032664
0.00385341
0.00346626
0.004507
0.00392943
0.00353621
0.00284564
0.00402421
0.00398468
0.00364064
0.00459282
0.00398833
0.003878
0.00337391
0.00312876
0.00482423
0.00361743
0.00440259
0.00413238
0.00393987
0.00289358
0.00296617
0.00434171
0.00292206
0.00462658
0.00285756
0.00419656
0.00381556
0.00318729
0.00383977
0.00308064
0.00469527
0.00359101
0.00404266
0.00338209
0.00323511
0.00369214
0.00308864
0.00348294
0.0039812
0.00372952
0.00422634
0.00386645
0.00456178
0.0033218
0.00336114
0.00396332
0.00343418
0.0043237
0.00395353
0.0048015
0.00431211
0.00498203
0.00436535
0.00379507
0.00341264
0.0038991
0.00321943
0.00427076
0.00414894
0.00528145
0.00381346
0.00523788
0.00385024
0.00457302
0.00298868
0.0030385
0.00347318
0.00399949
0.00407399
0.00491569
0.00470696
0.00501944
0.00420942
0.00397407
0.00340054
0.00296677
0.00383712
0.00354887
0.00405684
0.00421222
0.0043195
0.00441721
0.00428312
0.00471219
0.0034969
0.00350664
0.00387282
0.00332927
0.00379231
0.00427284
0.00410612
0.0048713
0.00438038
0.00484064
0.0035447
0.00371394
0.00351821
0.00340991
0.00365769
0.00436973
0.00409707
0.0045691
0.00385739
0.00470435
0.00359401
0.00373313
0.00291035
0.0035462
0.00310461
0.00413119
0.00346853
0.00415717
0.0040193
0.00445571
0.00450094
0.00377659
0.00369961
0.0029076
0.00288693
0.0034101
0.0036808
0.00356595
0.00403179
0.00353449
0.00414518
0.0040345
0.00397551
0.00430996
0.00332467
0.00363145
0.00314161
0.00289492
0.00285717
0.00366152
0.00348834
0.00413075
0.00390586
0.00427126
0.00370643
0.00344131
0.00359232
0.003024
0.00399587
0.00337787
0.00406721
0.00309156
0.00371448
0.0030214
0.00314953
0.00348554
0.00343559
0.00309107
0.00321704
0.00424081
0.00366042
0.00481947
0.00437893
0.00567332
0.00536799
0.00708988
0.0069623
0.0112021
0.00857463
0.00281338
0.00281338
0.0028125
0.0028125
0.0028125
0.0028125
0.0028125
0.0028125
0.0028125
0.0028125
0.0028125
0.0028125
0.0028125
0.0028125
0.0028125
0.0028125
0.0028125
0.0028125
0.0028125
0.0028125
0.0028125
0.0028125
0.0028125
0.0028125
0.0028125
0.0028125
0.0028125
0.0028125
0.0028125
0.0028125
0.0028125
0.0028125
0.0028125
0.0028125
0.0028125
0.0028125
0.0028125
0.0028125
0.0028125
0.0028125
0.0028125
0.0028125
0.0028125
0.0028125
0.0028125
0.0028125
0.0028125
0.0028125
0.0028125
0.0028125
0.0028125
0.0028125
0.0028125
0.0028125
0.0028125
0.0028125
0.0028125
0.0028125
0.0028125
0.0028125
0.0028125
0.0028125
0.0028125
0.0028125
0.0028125
0.0028125
0.0028125
0.0028125
0.0028125
0.0028125
0.0028125
0.0028125
0.0028125
0.0028125
0.0028125
0.0028125
0.0028125
0.0028125
0.0028125
0.0028125
0.0028125
0.0028125
0.0028125
0.0028125
0.0028125
0.0028125
0.0028125
0.0028125
0.0028125
0.0028125
0.0028125
0.0028125
0.0028125
0.0028125
0.0028125
0.00281249
0.00281249
0.00281248
0.00281247
0.00281254
0.00281502
0.00282648
0.00764302
0.0094373
0.00696819
0.00658908
0.00596708
0.00565566
0.00515703
0.00506303
0.00452668
0.00457772
0.00468879
0.00333338
0.00423882
0.00402194
0.00358476
0.0043655
0.00329017
0.00406474
0.00301925
0.00365753
0.00385256
0.00322961
0.00375817
0.00308808
0.00423879
0.00326241
0.00297412
0.0034452
0.00358778
0.0039298
0.003763
0.00444563
0.00289075
0.00306808
0.0032543
0.00383353
0.00344194
0.00447562
0.00390081
0.00352345
0.00283981
0.00400482
0.00395834
0.00361252
0.00455898
0.00395672
0.00386464
0.00336926
0.00311109
0.00479285
0.00358546
0.00437003
0.00409988
0.0039209
0.0028986
0.00297744
0.0043249
0.00294282
0.00460588
0.00287673
0.00417317
0.00379275
0.00318663
0.00382718
0.00306036
0.00466579
0.00356245
0.00401991
0.00336465
0.00323485
0.00368203
0.0030759
0.00346474
0.00395785
0.00370214
0.00419698
0.00383434
0.00453071
0.00330343
0.0033552
0.00395194
0.00341026
0.00429515
0.00391759
0.00476119
0.00426813
0.00493705
0.00432895
0.00377447
0.00340973
0.00388052
0.00319884
0.00424057
0.00410916
0.00523732
0.00377092
0.00519604
0.00381194
0.0045459
0.00297473
0.00303498
0.00345532
0.00397402
0.00403749
0.00487128
0.00465755
0.00497209
0.00417233
0.00394655
0.00338973
0.00296021
0.00382081
0.00352568
0.00402913
0.00417815
0.00428281
0.00437892
0.00424367
0.00467714
0.00347179
0.00350416
0.00385987
0.00331098
0.00376695
0.00424136
0.00406811
0.00482881
0.00433642
0.00480095
0.00351901
0.00370016
0.00351512
0.00339308
0.003635
0.00433714
0.00406119
0.00453324
0.00382198
0.00467078
0.00356654
0.00371783
0.00290519
0.00353739
0.00308794
0.00411001
0.00344387
0.00412965
0.00398568
0.00441825
0.00446504
0.00374799
0.00368378
0.00290011
0.00288457
0.00339621
0.00366244
0.00354344
0.0040076
0.0035095
0.00411727
0.00400424
0.00394477
0.00428239
0.00330346
0.00362186
0.00314234
0.00289625
0.00285031
0.00364788
0.00346626
0.00410418
0.00387544
0.00424107
0.00368335
0.00342267
0.00357791
0.00300938
0.00397619
0.0033564
0.00405154
0.00310118
0.00370706
0.00302005
0.00314098
0.00347155
0.00342147
0.00308105
0.00320299
0.00422814
0.00367295
0.00481091
0.00439223
0.00566556
0.00538576
0.0070809
0.00701159
0.0111741
0.0085226
0.00282753
0.00281528
0.00281258
0.0028125
0.0028125
0.0028125
0.0028125
0.0028125
0.0028125
0.0028125
0.0028125
0.0028125
0.0028125
0.0028125
0.0028125
0.0028125
0.0028125
0.0028125
0.0028125
0.0028125
0.0028125
0.0028125
0.0028125
0.0028125
0.0028125
0.0028125
0.0028125
0.0028125
0.0028125
0.0028125
0.0028125
0.0028125
0.0028125
0.0028125
0.0028125
0.0028125
0.0028125
0.0028125
0.0028125
0.0028125
0.0028125
0.0028125
0.0028125
0.0028125
0.0028125
0.0028125
0.0028125
0.0028125
0.0028125
0.0028125
0.0028125
0.0028125
0.0028125
0.0028125
0.0028125
0.0028125
0.0028125
0.0028125
0.0028125
0.0028125
0.0028125
0.0028125
0.0028125
0.0028125
0.0028125
0.0028125
0.0028125
0.0028125
0.0028125
0.0028125
0.0028125
0.0028125
0.0028125
0.0028125
0.0028125
0.0028125
0.0028125
0.0028125
0.0028125
0.0028125
0.0028125
0.0028125
0.0028125
0.0028125
0.0028125
0.0028125
0.0028125
0.0028125
0.0028125
0.0028125
0.0028125
0.0028125
0.00281249
0.00281249
0.00281249
0.00281248
0.00281248
0.00281247
0.00281242
0.00281269
0.00281696
0.00285513
0.0075936
0.00940612
0.00700157
0.00658779
0.00597345
0.00565611
0.00516268
0.00506047
0.00453332
0.00457878
0.00467837
0.00335538
0.00422734
0.00402242
0.00359612
0.00434931
0.00330961
0.00404836
0.0030364
0.00365213
0.00384677
0.00324177
0.00374259
0.00306022
0.00420621
0.0032405
0.00297121
0.00342925
0.00355639
0.00389211
0.00371907
0.00440553
0.00287813
0.00306028
0.00323495
0.00380345
0.00340427
0.00442791
0.00385767
0.00350245
0.00283307
0.00397383
0.00391792
0.00356934
0.00450731
0.00390883
0.00384214
0.00336441
0.00308288
0.00474521
0.00353674
0.0043204
0.00405043
0.00389048
0.0029079
0.00299249
0.00429949
0.00297398
0.00457413
0.0029064
0.00413807
0.00375873
0.00318318
0.00380894
0.00302868
0.00462111
0.00351901
0.00398471
0.00333881
0.00323262
0.00366752
0.00305638
0.00343755
0.00392174
0.00366043
0.00415185
0.00378536
0.00448378
0.00327419
0.00334842
0.00393293
0.00337412
0.00425098
0.00386286
0.00469908
0.00420114
0.00486843
0.0042723
0.00374542
0.00340261
0.00385205
0.00316707
0.00419538
0.00404772
0.00516986
0.00370609
0.00513197
0.00375389
0.00450313
0.00295519
0.00302822
0.00342902
0.00393443
0.00398242
0.00480275
0.00458202
0.00490008
0.00411486
0.00390545
0.00337161
0.00295199
0.00379501
0.00349057
0.00398613
0.00412636
0.00422673
0.0043204
0.00418343
0.00462274
0.00343432
0.00349802
0.00384157
0.00328294
0.00372893
0.00419273
0.00401038
0.00476361
0.00426897
0.00474098
0.00347884
0.00368111
0.00350831
0.00336783
0.00359966
0.00428775
0.00400623
0.00447835
0.00376782
0.00461914
0.00352544
0.00369325
0.00289923
0.00352298
0.00306308
0.0040772
0.00340635
0.00408717
0.00393458
0.00436085
0.00440961
0.00370493
0.00365865
0.00288985
0.00288012
0.00337574
0.00363416
0.00350925
0.00397051
0.0034716
0.00407425
0.00395798
0.00389782
0.00423966
0.00327175
0.00360602
0.00314433
0.00289836
0.00284088
0.00362624
0.00343294
0.00406316
0.00382898
0.00419515
0.00364745
0.00339451
0.00355563
0.00298687
0.00394637
0.00332361
0.00402658
0.00311634
0.00369548
0.00301954
0.00312738
0.0034503
0.00340035
0.00306574
0.00318078
0.00420754
0.0036914
0.00479708
0.00441123
0.00565251
0.00541013
0.00706541
0.00707416
0.0111247
0.00846285
0.00285996
0.00281749
0.00281287
0.0028125
0.0028125
0.0028125
0.0028125
0.0028125
0.0028125
0.0028125
0.0028125
0.0028125
0.0028125
0.0028125
0.0028125
0.0028125
0.0028125
0.0028125
0.0028125
0.0028125
0.0028125
0.0028125
0.0028125
0.0028125
0.0028125
0.0028125
0.0028125
0.0028125
0.0028125
0.0028125
0.0028125
0.0028125
0.0028125
0.0028125
0.0028125
0.0028125
0.0028125
0.0028125
0.0028125
0.0028125
0.0028125
0.0028125
0.0028125
0.0028125
0.0028125
0.0028125
0.0028125
0.0028125
0.0028125
0.0028125
0.0028125
0.0028125
0.0028125
0.0028125
0.0028125
0.0028125
0.0028125
0.0028125
0.0028125
0.0028125
0.0028125
0.0028125
0.0028125
0.0028125
0.0028125
0.0028125
0.0028125
0.0028125
0.0028125
0.0028125
0.0028125
0.0028125
0.0028125
0.0028125
0.0028125
0.0028125
0.0028125
0.0028125
0.0028125
0.0028125
0.0028125
0.0028125
0.0028125
0.0028125
0.0028125
0.0028125
0.0028125
0.0028125
0.0028125
0.0028125
0.00281249
0.00281249
0.00281249
0.00281249
0.00281248
0.00281247
0.00281246
0.00281245
0.0028124
0.00281297
0.00281841
0.00289631
0.00753826
0.00936371
0.00703902
0.00658592
0.00598057
0.00565607
0.00516936
0.00505684
0.00454136
0.00458039
0.00466411
0.00338264
0.00421353
0.0040224
0.00361095
0.00432885
0.00333409
0.00402816
0.00305802
0.0036463
0.0038392
0.0032574
0.00372303
0.00302598
0.00416558
0.00321265
0.00296903
0.00340878
0.00351814
0.00384526
0.00366434
0.00435609
0.00286188
0.00305147
0.00321079
0.00376648
0.00335723
0.00436862
0.00380434
0.00347579
0.00282656
0.0039345
0.00386758
0.00351571
0.00444291
0.00384937
0.00381328
0.00336032
0.0030472
0.00468573
0.00347627
0.00425899
0.00398883
0.0038518
0.00292076
0.00301046
0.00426823
0.00301342
0.00453479
0.0029442
0.00409475
0.00371654
0.00317767
0.00378696
0.00298906
0.00456577
0.00346511
0.00394063
0.00330714
0.0032292
0.00365013
0.00303232
0.00340412
0.00387657
0.00360875
0.00409555
0.00372433
0.00442556
0.00323711
0.00334154
0.00390831
0.00332936
0.00419581
0.00379478
0.00462122
0.00411767
0.00478269
0.00420076
0.00371077
0.00339221
0.00381649
0.0031276
0.00413997
0.00397052
0.00508558
0.00362531
0.00505176
0.00368174
0.00444883
0.00293216
0.00301931
0.00339699
0.00388467
0.00391425
0.00471666
0.00448743
0.00481024
0.0040426
0.00385486
0.0033483
0.00294297
0.00376228
0.0034473
0.00393221
0.00406195
0.00415679
0.00424715
0.00410817
0.00455443
0.00338824
0.00348938
0.00381955
0.00324797
0.003682
0.00413172
0.00393852
0.00468197
0.0041844
0.0046664
0.00342824
0.00365869
0.00349871
0.00333662
0.00355525
0.00422624
0.0039375
0.00440992
0.00370019
0.00455436
0.00347473
0.00366166
0.00289317
0.0035044
0.0030327
0.00403599
0.00335969
0.00403396
0.00387093
0.004289
0.00433994
0.00365161
0.0036269
0.00287788
0.00287421
0.00335066
0.00359885
0.00346677
0.00392422
0.00342468
0.00402028
0.00390009
0.00383908
0.00418592
0.00323276
0.00358571
0.00314744
0.00290123
0.00282998
0.0035988
0.00339168
0.00401172
0.00377097
0.00413787
0.00360224
0.00335961
0.00352786
0.00295884
0.0039093
0.00328268
0.0039948
0.00313567
0.00368084
0.00302002
0.00311006
0.00342368
0.00337409
0.00304679
0.00315244
0.00418101
0.00371412
0.00477941
0.00443441
0.00563566
0.00543929
0.00704559
0.00714573
0.0110575
0.00839776
0.00290718
0.00281914
0.00281341
0.0028125
0.0028125
0.0028125
0.0028125
0.0028125
0.0028125
0.0028125
0.0028125
0.0028125
0.0028125
0.0028125
0.0028125
0.0028125
0.0028125
0.0028125
0.0028125
0.0028125
0.0028125
0.0028125
0.0028125
0.0028125
0.0028125
0.0028125
0.0028125
0.0028125
0.0028125
0.0028125
0.0028125
0.0028125
0.0028125
0.0028125
0.0028125
0.0028125
0.0028125
0.0028125
0.0028125
0.0028125
0.0028125
0.0028125
0.0028125
0.0028125
0.0028125
0.0028125
0.0028125
0.0028125
0.0028125
0.0028125
0.0028125
0.0028125
0.0028125
0.0028125
0.0028125
0.0028125
0.0028125
0.0028125
0.0028125
0.0028125
0.0028125
0.0028125
0.0028125
0.0028125
0.0028125
0.0028125
0.0028125
0.0028125
0.0028125
0.0028125
0.0028125
0.0028125
0.0028125
0.0028125
0.0028125
0.0028125
0.0028125
0.0028125
0.0028125
0.0028125
0.0028125
0.0028125
0.0028125
0.0028125
0.0028125
0.0028125
0.0028125
0.0028125
0.0028125
0.00281249
0.00281249
0.00281249
0.00281249
0.00281248
0.00281247
0.00281247
0.00281246
0.00281246
0.00281241
0.00281338
0.00281872
0.0029467
0.00747879
0.0093122
0.00707853
0.00658397
0.00598808
0.00565573
0.0051767
0.00505247
0.00455037
0.0045823
0.00464717
0.00341322
0.00419796
0.00402166
0.0036279
0.00430521
0.00336145
0.00400523
0.00308239
0.00363993
0.00382971
0.00327483
0.00370067
0.00298707
0.00411914
0.00318006
0.0029668
0.00338471
0.00347433
0.00379177
0.0036024
0.00430009
0.00284274
0.00304137
0.00318301
0.00372468
0.00330386
0.00430119
0.0037436
0.00344475
0.00281987
0.00388907
0.00381048
0.00345529
0.00436953
0.00378159
0.00377968
0.00335656
0.00300633
0.00461805
0.00340796
0.00418937
0.00391844
0.00380733
0.00293581
0.00303009
0.00423269
0.00305777
0.00449003
0.00298661
0.00404558
0.00366846
0.00317049
0.00376214
0.00294376
0.0045031
0.00340425
0.0038904
0.00327123
0.00322435
0.00363028
0.00300495
0.00336678
0.00382565
0.00355022
0.00403141
0.0036549
0.00435941
0.00319449
0.00333438
0.00387951
0.00327881
0.00413354
0.0037177
0.00453269
0.0040231
0.00468511
0.00411899
0.00367234
0.00337925
0.003776
0.00308324
0.00407753
0.00388223
0.00498997
0.00353401
0.00496096
0.00360049
0.00438654
0.00290651
0.00300811
0.00336094
0.00382819
0.00383729
0.00461851
0.00438026
0.00470884
0.0039605
0.00379773
0.00332111
0.00293319
0.00372474
0.00339836
0.00387057
0.00398911
0.00407785
0.00416425
0.00402311
0.00447656
0.00333587
0.00347871
0.0037947
0.00320849
0.00362899
0.00406205
0.00385746
0.00458972
0.0040884
0.00458196
0.00337029
0.00363354
0.00348658
0.00330152
0.00350507
0.00415665
0.00385969
0.0043324
0.00362327
0.00448059
0.00341769
0.00362516
0.00288706
0.0034824
0.00299856
0.00398903
0.00330697
0.00397368
0.00379893
0.00420757
0.00426056
0.00359122
0.00359068
0.00286479
0.00286716
0.00332223
0.00355881
0.00341855
0.00387151
0.00337187
0.00395899
0.00383457
0.00377259
0.00412454
0.00318872
0.0035621
0.00315091
0.00290435
0.00281815
0.00356734
0.00334501
0.0039531
0.00370509
0.00407301
0.00355087
0.0033201
0.00349645
0.00292717
0.00386724
0.00323628
0.0039582
0.00315726
0.00366384
0.003021
0.0030898
0.00339328
0.00334442
0.00302563
0.00311975
0.00415035
0.00373933
0.00475916
0.00446012
0.00561635
0.00547138
0.00702343
0.00722221
0.0109762
0.00832875
0.00296531
0.00281945
0.00281423
0.0028125
0.0028125
0.0028125
0.0028125
0.0028125
0.0028125
0.0028125
0.0028125
0.0028125
0.0028125
0.0028125
0.0028125
0.0028125
0.0028125
0.0028125
0.0028125
0.0028125
0.0028125
0.0028125
0.0028125
0.0028125
0.0028125
0.0028125
0.0028125
0.0028125
0.0028125
0.0028125
0.0028125
0.0028125
0.0028125
0.0028125
0.0028125
0.0028125
0.0028125
0.0028125
0.0028125
0.0028125
0.0028125
0.0028125
0.0028125
0.0028125
0.0028125
0.0028125
0.0028125
0.0028125
0.0028125
0.0028125
0.0028125
0.0028125
0.0028125
0.0028125
0.0028125
0.0028125
0.0028125
0.0028125
0.0028125
0.0028125
0.0028125
0.0028125
0.0028125
0.0028125
0.0028125
0.0028125
0.0028125
0.0028125
0.0028125
0.0028125
0.0028125
0.0028125
0.0028125
0.0028125
0.0028125
0.0028125
0.0028125
0.0028125
0.0028125
0.0028125
0.0028125
0.0028125
0.0028125
0.0028125
0.0028125
0.0028125
0.0028125
0.0028125
0.00281249
0.00281249
0.00281249
0.00281249
0.00281248
0.00281248
0.00281247
0.00281247
0.00281246
0.00281249
0.00281249
0.00281393
0.00281734
0.0030036
0.00741647
0.00925342
0.00711875
0.00658269
0.00599604
0.00565552
0.00518467
0.00504793
0.00456024
0.00458454
0.00462884
0.00344622
0.00418161
0.0040206
0.00364642
0.00428
0.00339081
0.00398127
0.00310888
0.00363376
0.00381932
0.00329342
0.00367737
0.00294609
0.00406992
0.00314522
0.00296499
0.00335908
0.00342862
0.00373528
0.00353639
0.00424035
0.00283945
0.00303101
0.00315376
0.00368069
0.00324742
0.00422946
0.00367891
0.00341164
0.00281375
0.00384006
0.00374974
0.00339175
0.00429145
0.00370952
0.003744
0.00335374
0.00296236
0.00454548
0.00333619
0.00411614
0.00384336
0.00375983
0.00295238
0.00305086
0.00419511
0.00310557
0.00444274
0.0030318
0.00399339
0.0036169
0.0031626
0.00373613
0.00289577
0.00443652
0.00333957
0.00383694
0.00323351
0.00321945
0.00360951
0.00297593
0.00332718
0.00377139
0.00348827
0.00396372
0.00358149
0.0042893
0.00314903
0.00332741
0.00384815
0.0032251
0.00406771
0.00363602
0.00443881
0.00392315
0.00458142
0.00403152
0.00363179
0.00336417
0.00373252
0.00303692
0.00401222
0.00378842
0.00488859
0.00343722
0.00486415
0.00351415
0.00431971
0.00288014
0.00299601
0.00332314
0.00376844
0.00375606
0.00451395
0.0042661
0.00460091
0.0038731
0.00373749
0.00329206
0.00292322
0.00368463
0.00334704
0.00380526
0.00391195
0.0039941
0.00407601
0.00393292
0.00439379
0.00328035
0.00346728
0.00376824
0.00316696
0.00357319
0.00398797
0.00377153
0.00449143
0.00398602
0.0044926
0.00330905
0.00360759
0.00347299
0.00326428
0.00345182
0.00408259
0.0037771
0.00425053
0.00354193
0.00440217
0.00335746
0.00358572
0.00288145
0.00345865
0.00296299
0.003939
0.0032512
0.00390997
0.00372271
0.00412117
0.00417601
0.00352729
0.0035523
0.00285128
0.00285971
0.00329221
0.00351662
0.00336762
0.00381566
0.00331639
0.00389371
0.00376501
0.00370226
0.00405944
0.0031425
0.00353694
0.00315469
0.00290773
0.00281228
0.00353374
0.00329578
0.00389108
0.00363528
0.00400414
0.00349641
0.0032785
0.00346362
0.00289407
0.00382272
0.00318708
0.00391916
0.00318047
0.00364584
0.00302294
0.00306826
0.00336097
0.003313
0.00300387
0.00308481
0.00411777
0.00376626
0.00473799
0.00448769
0.00559628
0.00550553
0.00700108
0.00730095
0.0108842
0.00825732
0.00303135
0.00281781
0.00281539
0.0028125
0.0028125
0.0028125
0.0028125
0.0028125
0.0028125
0.0028125
0.0028125
0.0028125
0.0028125
0.0028125
0.0028125
0.0028125
0.0028125
0.0028125
0.0028125
0.0028125
0.0028125
0.0028125
0.0028125
0.0028125
0.0028125
0.0028125
0.0028125
0.0028125
0.0028125
0.0028125
0.0028125
0.0028125
0.0028125
0.0028125
0.0028125
0.0028125
0.0028125
0.0028125
0.0028125
0.0028125
0.0028125
0.0028125
0.0028125
0.0028125
0.0028125
0.0028125
0.0028125
0.0028125
0.0028125
0.0028125
0.0028125
0.0028125
0.0028125
0.0028125
0.0028125
0.0028125
0.0028125
0.0028125
0.0028125
0.0028125
0.0028125
0.0028125
0.0028125
0.0028125
0.0028125
0.0028125
0.0028125
0.0028125
0.0028125
0.0028125
0.0028125
0.0028125
0.0028125
0.0028125
0.0028125
0.0028125
0.0028125
0.0028125
0.0028125
0.0028125
0.0028125
0.0028125
0.0028125
0.0028125
0.0028125
0.0028125
0.0028125
0.00281249
0.00281249
0.00281249
0.00281249
0.00281249
0.00281248
0.00281248
0.00281248
0.00281248
0.00281249
0.00281255
0.00281266
0.00281464
0.0028139
0.00306499
0.00735228
0.00918851
0.00715816
0.00658207
0.00600404
0.00565534
0.00519284
0.00504326
0.00457056
0.00458671
0.00460946
0.0034804
0.00416492
0.00401918
0.00366568
0.00425398
0.00342103
0.00395707
0.00313653
0.00362761
0.0038082
0.00331254
0.00365378
0.00290412
0.004019
0.00310921
0.00296393
0.00333213
0.00338177
0.00367775
0.00346874
0.00417879
0.00285928
0.00302033
0.00312394
0.00363599
0.00319002
0.00415599
0.00361243
0.00337757
0.00280808
0.00378927
0.00368763
0.00332742
0.00421116
0.00363521
0.00370756
0.00335192
0.00291746
0.00447045
0.00326298
0.00404153
0.00376595
0.00371115
0.00296978
0.00307217
0.00415672
0.00315485
0.00439432
0.00307773
0.00393984
0.00356346
0.00315454
0.00370967
0.00284836
0.00436819
0.00327338
0.0037821
0.00319471
0.00321448
0.00358814
0.00294674
0.00328697
0.00371584
0.00342512
0.00389444
0.00350625
0.00421738
0.00310226
0.00332083
0.00381558
0.00317014
0.00400067
0.00355242
0.00434253
0.00382119
0.00447517
0.00394148
0.00359078
0.00334783
0.00368752
0.00298996
0.00394599
0.00369203
0.00478493
0.0033388
0.00476507
0.00342598
0.00425066
0.00285333
0.00298309
0.00328446
0.00370731
0.00367342
0.00440691
0.00414916
0.00449051
0.00378367
0.00367597
0.00326216
0.00291306
0.00364303
0.00329494
0.00373847
0.00383313
0.00390885
0.00398566
0.00384058
0.00430897
0.00322331
0.00345547
0.00374068
0.00312466
0.00351646
0.00391215
0.0036839
0.00439095
0.00388085
0.0044008
0.00324636
0.00358138
0.00345857
0.00322626
0.00339764
0.0040067
0.00369248
0.00416702
0.00345869
0.00432158
0.00329626
0.00354469
0.00287614
0.00343362
0.0029271
0.00388769
0.00319428
0.00384502
0.00364482
0.0040327
0.00408912
0.00346196
0.00351321
0.00283785
0.00285204
0.0032613
0.00347349
0.00331549
0.00375848
0.00326024
0.00382697
0.00369387
0.00363018
0.00399255
0.00309542
0.00351091
0.00315828
0.0029112
0.00281868
0.00349918
0.00324547
0.00382744
0.00356368
0.00393361
0.00344082
0.00323611
0.00343042
0.0028606
0.00377703
0.0031365
0.00387878
0.00320393
0.00362709
0.00302539
0.00304585
0.0033275
0.00328072
0.00298227
0.00304851
0.00408411
0.00379349
0.0047164
0.00451582
0.00557596
0.00554032
0.00697936
0.00737913
0.0107837
0.00818419
0.00310279
0.00281376
0.00281692
0.0028125
0.0028125
0.0028125
0.0028125
0.0028125
0.0028125
0.0028125
0.0028125
0.0028125
0.0028125
0.0028125
0.0028125
0.0028125
0.0028125
0.0028125
0.0028125
0.0028125
0.0028125
0.0028125
0.0028125
0.0028125
0.0028125
0.0028125
0.0028125
0.0028125
0.0028125
0.0028125
0.0028125
0.0028125
0.0028125
0.0028125
0.0028125
0.0028125
0.0028125
0.0028125
0.0028125
0.0028125
0.0028125
0.0028125
0.0028125
0.0028125
0.0028125
0.0028125
0.0028125
0.0028125
0.0028125
0.0028125
0.0028125
0.0028125
0.0028125
0.0028125
0.0028125
0.0028125
0.0028125
0.0028125
0.0028125
0.0028125
0.0028125
0.0028125
0.0028125
0.0028125
0.0028125
0.0028125
0.0028125
0.0028125
0.0028125
0.0028125
0.0028125
0.0028125
0.0028125
0.0028125
0.0028125
0.0028125
0.0028125
0.0028125
0.0028125
0.0028125
0.0028125
0.0028125
0.0028125
0.0028125
0.0028125
0.0028125
0.0028125
0.00281249
0.00281249
0.00281249
0.00281249
0.00281249
0.00281248
0.00281248
0.00281249
0.0028125
0.00281254
0.00281266
0.00281293
0.00281557
0.0028096
0.00312928
0.00728723
0.00911875
0.00719578
0.00658213
0.00601182
0.00565516
0.00520095
0.00503851
0.00458103
0.00458871
0.00458949
0.00351452
0.00414809
0.00401729
0.00368488
0.00422755
0.003451
0.0039331
0.00316457
0.00362147
0.00379609
0.0033313
0.00363055
0.00286194
0.00396764
0.00307255
0.00296283
0.00330481
0.00333427
0.00362
0.00340146
0.00411688
0.00288501
0.0030092
0.00309404
0.00359142
0.00313294
0.00408223
0.00354541
0.00334307
0.00280887
0.0037377
0.00362572
0.00326413
0.00413035
0.00356022
0.00367102
0.00335059
0.00287252
0.00439485
0.00319054
0.0039671
0.00368752
0.00366242
0.00298725
0.00309346
0.00411818
0.00320388
0.00434584
0.00312283
0.00388602
0.00350907
0.00314643
0.00368302
0.00285148
0.00429975
0.00320751
0.00372726
0.00315563
0.0032091
0.00356616
0.00291763
0.00324736
0.00366096
0.00336225
0.00382507
0.00343079
0.00414509
0.00305518
0.00331427
0.00378235
0.00311523
0.00393454
0.00346907
0.00424623
0.00371956
0.00436847
0.0038509
0.00354996
0.00333074
0.00364214
0.00294404
0.00388023
0.00359491
0.00468137
0.00324099
0.00466621
0.00333844
0.00418111
0.00282663
0.00296924
0.00324575
0.00364648
0.00359123
0.00429955
0.00403235
0.0043807
0.00369448
0.00361442
0.00323192
0.00290278
0.0036012
0.00324311
0.00367142
0.00375449
0.00382422
0.00389563
0.00374868
0.00422402
0.0031657
0.00344342
0.00371241
0.00308285
0.00345996
0.00383598
0.00359685
0.00429117
0.00377566
0.00430892
0.00318347
0.00355478
0.00344318
0.00318839
0.00334411
0.00393086
0.00360819
0.00408388
0.00337532
0.00424067
0.0032355
0.00350315
0.00287126
0.00340759
0.00289157
0.00383626
0.00313764
0.00378049
0.00356719
0.00394444
0.00400197
0.0033965
0.00347429
0.00282468
0.00284435
0.0032301
0.00343059
0.00326334
0.00370109
0.00320477
0.00376029
0.003623
0.0035583
0.0039253
0.00304843
0.00348459
0.0031613
0.00291452
0.00283084
0.00346451
0.00319524
0.00376372
0.00349195
0.00386312
0.0033855
0.00319375
0.00339755
0.0028365
0.0037312
0.00308592
0.00383804
0.00322668
0.00360786
0.003028
0.00302283
0.00329357
0.0032484
0.00296141
0.00301163
0.00405017
0.00382015
0.00469487
0.00454369
0.00555591
0.00557485
0.00695892
0.00745472
0.0106766
0.00811002
0.00317777
0.00281
0.0028189
0.0028125
0.0028125
0.0028125
0.0028125
0.0028125
0.0028125
0.0028125
0.0028125
0.0028125
0.0028125
0.0028125
0.0028125
0.0028125
0.0028125
0.0028125
0.0028125
0.0028125
0.0028125
0.0028125
0.0028125
0.0028125
0.0028125
0.0028125
0.0028125
0.0028125
0.0028125
0.0028125
0.0028125
0.0028125
0.0028125
0.0028125
0.0028125
0.0028125
0.0028125
0.0028125
0.0028125
0.0028125
0.0028125
0.0028125
0.0028125
0.0028125
0.0028125
0.0028125
0.0028125
0.0028125
0.0028125
0.0028125
0.0028125
0.0028125
0.0028125
0.0028125
0.0028125
0.0028125
0.0028125
0.0028125
0.0028125
0.0028125
0.0028125
0.0028125
0.0028125
0.0028125
0.0028125
0.0028125
0.0028125
0.0028125
0.0028125
0.0028125
0.0028125
0.0028125
0.0028125
0.0028125
0.0028125
0.0028125
0.0028125
0.0028125
0.0028125
0.0028125
0.0028125
0.0028125
0.0028125
0.0028125
0.0028125
0.0028125
0.0028125
0.00281249
0.00281249
0.00281249
0.00281249
0.00281249
0.00281249
0.0028125
0.00281251
0.00281254
0.00281261
0.00281283
0.00281334
0.00281675
0.00281028
0.00319512
0.00722195
0.00904542
0.0072314
0.00658351
0.00601984
0.00565553
0.00520934
0.00503429
0.00459187
0.00459082
0.00457003
0.00354843
0.00413164
0.00401537
0.00370406
0.00420167
0.00348054
0.00391038
0.00319306
0.00361616
0.00378391
0.0033496
0.00360881
0.00283813
0.0039179
0.00303673
0.00296199
0.00327848
0.00328861
0.0035644
0.00333598
0.00405602
0.00291034
0.00299863
0.00306556
0.00354847
0.00307791
0.0040101
0.00347967
0.00330959
0.00281798
0.00368672
0.00356553
0.00320359
0.00405138
0.00348699
0.00363594
0.00335016
0.0028579
0.00432037
0.00312132
0.00389553
0.00361053
0.00361492
0.00300458
0.00311472
0.00408069
0.0032526
0.00429903
0.00316669
0.00383342
0.00345498
0.00313877
0.00365716
0.00290351
0.00423298
0.00314349
0.00367395
0.00311793
0.00320432
0.00354457
0.00288922
0.00320901
0.00360759
0.00330135
0.0037582
0.00335771
0.00407469
0.00300919
0.00330806
0.00374907
0.00306164
0.00387094
0.00338829
0.00415294
0.00362112
0.00426426
0.00376191
0.00350979
0.00331288
0.00359748
0.00290083
0.0038173
0.00350038
0.00458057
0.00314584
0.00456948
0.00325302
0.00411287
0.0028163
0.00295574
0.00320857
0.0035879
0.00351154
0.00419456
0.00391824
0.00427342
0.00360763
0.0035548
0.00320257
0.00289301
0.00356051
0.0031934
0.00360646
0.0036781
0.00374193
0.00380786
0.00365947
0.00414138
0.00310943
0.00343203
0.00368432
0.00304286
0.00340533
0.00376162
0.00351234
0.00419379
0.00367289
0.00421985
0.00312274
0.00352916
0.00342749
0.00315145
0.00329225
0.00385674
0.00352632
0.00400358
0.00329463
0.00416175
0.00317661
0.00346218
0.00286736
0.00338189
0.00285777
0.00378601
0.00308277
0.00371824
0.0034919
0.00385865
0.00391682
0.00333286
0.0034367
0.00281936
0.00283709
0.00319972
0.00338938
0.00321285
0.00364541
0.00315152
0.00369515
0.00355413
0.00348869
0.00385991
0.00300328
0.00345909
0.00316404
0.00291789
0.0028425
0.00343064
0.00314671
0.00370211
0.00342231
0.00379449
0.00333196
0.00315282
0.00336631
0.00284607
0.00368671
0.00303684
0.00379837
0.00324892
0.00358921
0.00303135
0.00300047
0.00326045
0.00321693
0.00294218
0.00297549
0.00401741
0.00384641
0.00467456
0.00457147
0.00553728
0.00560922
0.006941
0.00752702
0.010565
0.00803583
0.00325496
0.00281241
0.0028214
0.0028125
0.0028125
0.0028125
0.0028125
0.0028125
0.0028125
0.0028125
0.0028125
0.0028125
0.0028125
0.0028125
0.0028125
0.0028125
0.0028125
0.0028125
0.0028125
0.0028125
0.0028125
0.0028125
0.0028125
0.0028125
0.0028125
0.0028125
0.0028125
0.0028125
0.0028125
0.0028125
0.0028125
0.0028125
0.0028125
0.0028125
0.0028125
0.0028125
0.0028125
0.0028125
0.0028125
0.0028125
0.0028125
0.0028125
0.0028125
0.0028125
0.0028125
0.0028125
0.0028125
0.0028125