/*--------------------------------*- C++ -*----------------------------------*\
| =========                 |                                                 |
| \\      /  F ield         | foam-extend: Open Source CFD                    |
|  \\    /   O peration     | Version:     3.2                                |
|   \\  /    A nd           | Web:         http://www.foam-extend.org         |
|    \\/     M anipulation  | For copyright notice see file Copyright         |
\*---------------------------------------------------------------------------*/
FoamFile
{
    version     2.0;
    format      ascii;
    class       areaScalarField;
    location    "160";
    object      zDimA;
}
// * * * * * * * * * * * * * * * * * * * * * * * * * * * * * * * * * * * * * //

dimensions      [0 1 0 0 0 0 0];

internalField   nonuniform List<scalar> 
300
(
0.0028125
0.0028125
0.0028125
0.0028125
0.0028125
0.0028125
0.0028125
0.0028125
0.0028125
0.0028125
0.0028125
0.0028125
0.0028125
0.0028125
0.0028125
0.0028125
0.0028125
0.0028125
0.0028125
0.0028125
0.0028125
0.0028125
0.0028125
0.0028125
0.0028125
0.0028125
0.0028125
0.0028125
0.0028125
0.0028125
0.0028125
0.0028125
0.0028125
0.0028125
0.0028125
0.0028125
0.0028125
0.0028125
0.0028125
0.0028125
0.0028125
0.0028125
0.0028125
0.0028125
0.0028125
0.0028125
0.0028125
0.0028125
0.0028125
0.0028125
0.0028125
0.0028125
0.0028125
0.0028125
0.0028125
0.0028125
0.0028125
0.0028125
0.0028125
0.0028125
0.0028125
0.0028125
0.0028125
0.0028125
0.0028125
0.0028125
0.0028125
0.0028125
0.0028125
0.0028125
0.0028125
0.0028125
0.0028125
0.0028125
0.0028125
0.0028125
0.0028125
0.0028125
0.0028125
0.0028125
0.0028125
0.0028125
0.0028125
0.0028125
0.0028125
0.0028125
0.0028125
0.0028125
0.0028125
0.0028125
0.0028125
0.0028125
0.0028125
0.0028125
0.0028125
0.0028125
0.0028125
0.00281333
0.00281333
0.00768425
0.00945538
0.00694111
0.00658915
0.00596177
0.00565452
0.00515277
0.00506411
0.00452186
0.00457729
0.00469427
0.00331838
0.00424684
0.00402068
0.00357766
0.00437572
0.0032771
0.00407524
0.00300748
0.00366171
0.0038557
0.00322154
0.00376773
0.00310654
0.00425996
0.00327591
0.00297697
0.00345469
0.00360863
0.00395416
0.00379186
0.00447247
0.00289779
0.00307366
0.0032664
0.00385341
0.00346626
0.004507
0.00392943
0.00353621
0.00284564
0.00402421
0.00398468
0.00364064
0.00459282
0.00398833
0.003878
0.00337391
0.00312876
0.00482423
0.00361743
0.00440259
0.00413238
0.00393987
0.00289358
0.00296617
0.00434171
0.00292206
0.00462658
0.00285756
0.00419656
0.00381556
0.00318729
0.00383977
0.00308064
0.00469527
0.00359101
0.00404266
0.00338209
0.00323511
0.00369214
0.00308864
0.00348294
0.0039812
0.00372952
0.00422634
0.00386645
0.00456178
0.0033218
0.00336114
0.00396332
0.00343418
0.0043237
0.00395353
0.0048015
0.00431211
0.00498203
0.00436535
0.00379507
0.00341264
0.0038991
0.00321943
0.00427076
0.00414894
0.00528145
0.00381346
0.00523788
0.00385024
0.00457302
0.00298868
0.0030385
0.00347318
0.00399949
0.00407399
0.00491569
0.00470696
0.00501944
0.00420942
0.00397407
0.00340054
0.00296677
0.00383712
0.00354887
0.00405684
0.00421222
0.0043195
0.00441721
0.00428312
0.00471219
0.0034969
0.00350664
0.00387282
0.00332927
0.00379231
0.00427284
0.00410612
0.0048713
0.00438038
0.00484064
0.0035447
0.00371394
0.00351821
0.00340991
0.00365769
0.00436973
0.00409707
0.0045691
0.00385739
0.00470435
0.00359401
0.00373313
0.00291035
0.0035462
0.00310461
0.00413119
0.00346853
0.00415717
0.0040193
0.00445571
0.00450094
0.00377659
0.00369961
0.0029076
0.00288693
0.0034101
0.0036808
0.00356595
0.00403179
0.00353449
0.00414518
0.0040345
0.00397551
0.00430996
0.00332467
0.00363145
0.00314161
0.00289492
0.00285717
0.00366152
0.00348834
0.00413075
0.00390586
0.00427126
0.00370643
0.00344131
0.00359232
0.003024
0.00399587
0.00337787
0.00406721
0.00309156
0.00371448
0.0030214
0.00314953
0.00348554
0.00343559
0.00309107
0.00321704
0.00424081
0.00366042
0.00481947
0.00437893
0.00567332
0.00536799
0.00708988
0.0069623
0.0112021
0.00857463
0.00281338
0.00281338
0.0028125
)
;

boundaryField
{
    inlet
    {
        type            calculated;
        value           uniform 0;
    }
    outlet
    {
        type            calculated;
        value           uniform 0;
    }
    sideWall
    {
        type            empty;
    }
}


// ************************************************************************* //
