/*--------------------------------*- C++ -*----------------------------------*\
| =========                 |                                                 |
| \\      /  F ield         | foam-extend: Open Source CFD                    |
|  \\    /   O peration     | Version:     3.2                                |
|   \\  /    A nd           | Web:         http://www.foam-extend.org         |
|    \\/     M anipulation  | For copyright notice see file Copyright         |
\*---------------------------------------------------------------------------*/
FoamFile
{
    version     2.0;
    format      ascii;
    class       areaScalarField;
    location    "37";
    object      Fi;
}
// * * * * * * * * * * * * * * * * * * * * * * * * * * * * * * * * * * * * * //

dimensions      [0 1 -1 0 0 0 0];

internalField   nonuniform List<scalar> 
300
(
-0.000743899
-0.000525236
-0.000298561
-0.000219212
-0.000191395
-0.000177293
-0.000167295
-0.000158697
-0.000150909
-0.000143949
-0.000137823
-0.000132417
-0.000127584
-0.00012332
-0.00011952
-0.000116098
-0.000112995
-0.000110153
-0.000107571
-0.000105232
-0.000103074
-0.000101059
-9.91785e-05
-9.74221e-05
-9.57838e-05
-9.42403e-05
-9.27891e-05
-9.14149e-05
-9.01193e-05
-8.88961e-05
-8.77336e-05
-8.66296e-05
-8.5575e-05
-8.45717e-05
-8.3614e-05
-8.27013e-05
-8.18245e-05
-8.09854e-05
-8.01788e-05
-7.94036e-05
-7.86616e-05
-7.79446e-05
-7.72563e-05
-7.65896e-05
-7.59476e-05
-7.5327e-05
-7.47287e-05
-7.41497e-05
-7.35881e-05
-7.30452e-05
-7.25172e-05
-7.20064e-05
-7.15109e-05
-7.10297e-05
-7.05625e-05
-7.01073e-05
-6.96654e-05
-6.92329e-05
-6.881e-05
-6.83982e-05
-6.79965e-05
-6.76057e-05
-6.72246e-05
-6.68529e-05
-6.64905e-05
-6.61371e-05
-6.57919e-05
-6.54546e-05
-6.51249e-05
-6.48027e-05
-6.44878e-05
-6.41798e-05
-6.38787e-05
-6.35838e-05
-6.32949e-05
-6.30124e-05
-6.27353e-05
-6.24642e-05
-6.21985e-05
-6.19379e-05
-6.16826e-05
-6.14319e-05
-6.11862e-05
-6.09452e-05
-6.07083e-05
-6.04764e-05
-6.02484e-05
-6.00244e-05
-5.98047e-05
-5.95886e-05
-5.93764e-05
-5.9168e-05
-5.89629e-05
-5.87617e-05
-5.85635e-05
-5.83687e-05
-5.81773e-05
-5.79887e-05
-5.78034e-05
-5.76211e-05
-5.74415e-05
-5.72649e-05
-5.7091e-05
-5.69197e-05
-5.67512e-05
-5.65851e-05
-5.64216e-05
-5.62607e-05
-5.6102e-05
-5.59457e-05
-5.5461e-05
-5.53141e-05
-5.51693e-05
-5.50265e-05
-5.48857e-05
-5.47469e-05
-5.46098e-05
-5.44748e-05
-5.43416e-05
-5.421e-05
-5.40804e-05
-5.39525e-05
-5.3826e-05
-5.37014e-05
-5.35781e-05
-5.34563e-05
-5.33361e-05
-5.32169e-05
-5.30992e-05
-5.29829e-05
-5.28677e-05
-5.2754e-05
-5.2642e-05
-5.25312e-05
-5.24222e-05
-5.23149e-05
-5.2209e-05
-5.21048e-05
-5.20021e-05
-5.19007e-05
-5.18007e-05
-5.17019e-05
-5.16041e-05
-5.15076e-05
-5.14119e-05
-5.1317e-05
-5.12231e-05
-5.11301e-05
-5.10378e-05
-5.09465e-05
-5.0856e-05
-5.07664e-05
-5.06779e-05
-5.05903e-05
-5.05036e-05
-5.0418e-05
-5.03334e-05
-5.02497e-05
-5.01671e-05
-5.00854e-05
-5.00046e-05
-4.99248e-05
-4.98457e-05
-4.97675e-05
-4.96902e-05
-4.96136e-05
-4.95378e-05
-4.94628e-05
-4.93885e-05
-4.93149e-05
-4.92422e-05
-4.91701e-05
-4.90987e-05
-4.90281e-05
-4.89582e-05
-4.88889e-05
-4.88204e-05
-4.87525e-05
-4.86853e-05
-4.86188e-05
-4.8553e-05
-4.84877e-05
-4.84231e-05
-4.83592e-05
-4.82958e-05
-4.82331e-05
-4.81709e-05
-4.81094e-05
-4.80484e-05
-4.7988e-05
-4.79282e-05
-4.7869e-05
-4.78103e-05
-4.77521e-05
-4.76945e-05
-4.76374e-05
-4.75808e-05
-4.75248e-05
-4.74692e-05
-4.74143e-05
-4.73597e-05
-4.73057e-05
-4.72522e-05
-4.71991e-05
-4.71465e-05
-4.70945e-05
-4.70428e-05
-4.69916e-05
-4.69409e-05
-4.68907e-05
-4.68408e-05
-4.67915e-05
-4.67425e-05
-4.6694e-05
-4.66459e-05
-4.65982e-05
-4.65509e-05
-4.65041e-05
-4.64576e-05
-4.64116e-05
-4.63659e-05
-4.63208e-05
-4.62758e-05
-4.62314e-05
-4.61872e-05
-4.61436e-05
-4.61002e-05
-4.60573e-05
-4.60146e-05
-4.59724e-05
-4.59304e-05
-4.58889e-05
-4.58476e-05
-4.58069e-05
-4.57663e-05
-4.57262e-05
-4.56863e-05
-4.56469e-05
-4.56076e-05
-4.55689e-05
-4.55302e-05
-4.54921e-05
-4.54541e-05
-4.54167e-05
-4.53792e-05
-4.53424e-05
-4.53055e-05
-4.52693e-05
-4.52331e-05
-4.51975e-05
-4.51618e-05
-4.51268e-05
-4.50916e-05
-4.50572e-05
-4.50226e-05
-4.49887e-05
-4.49547e-05
-4.49214e-05
-4.48879e-05
-4.48551e-05
-4.48222e-05
-4.47898e-05
-4.47575e-05
-4.47256e-05
-4.46939e-05
-4.46624e-05
-4.46313e-05
-4.46002e-05
-4.45697e-05
-4.45389e-05
-4.4509e-05
-4.44785e-05
-4.44493e-05
-4.44191e-05
-4.43906e-05
-4.43605e-05
-4.43328e-05
-4.43028e-05
-4.42758e-05
-4.42458e-05
-4.42197e-05
-4.41896e-05
-4.41644e-05
-4.41341e-05
-4.41097e-05
-4.40791e-05
-4.41139e-05
-4.40823e-05
-4.40595e-05
-4.40278e-05
-4.40053e-05
-4.39736e-05
-4.39512e-05
-4.39187e-05
-4.39002e-05
-4.3862e-05
-4.38585e-05
-4.38041e-05
-4.3824e-05
-4.3718e-05
)
;

boundaryField
{
    inlet
    {
        type            calculated;
        value           uniform 0;
    }
    outlet
    {
        type            calculated;
        value           uniform 0;
    }
    sideWall
    {
        type            empty;
    }
}


// ************************************************************************* //
