/*--------------------------------*- C++ -*----------------------------------*\
| =========                 |                                                 |
| \\      /  F ield         | foam-extend: Open Source CFD                    |
|  \\    /   O peration     | Version:     3.2                                |
|   \\  /    A nd           | Web:         http://www.foam-extend.org         |
|    \\/     M anipulation  | For copyright notice see file Copyright         |
\*---------------------------------------------------------------------------*/
FoamFile
{
    version     2.0;
    format      ascii;
    class       volScalarField;
    location    "37";
    object      pd;
}
// * * * * * * * * * * * * * * * * * * * * * * * * * * * * * * * * * * * * * //

dimensions      [1 -1 -2 0 0 0 0];

internalField   nonuniform List<scalar> 
96000
(
384.698
246.849
233.229
231.947
230.64
228.798
226.684
224.572
222.267
220.259
218.493
216.744
215.203
213.711
212.326
211.011
209.7
208.471
207.257
206.107
204.945
203.814
202.687
201.596
200.509
199.436
198.373
197.316
196.285
195.247
194.232
193.208
192.205
191.201
190.212
189.223
188.241
187.269
186.292
185.337
184.372
183.424
182.473
181.53
180.593
179.658
178.733
177.804
176.888
175.968
175.058
174.151
173.247
172.349
171.451
170.559
169.671
168.785
167.905
167.026
166.152
165.282
164.414
163.551
162.691
161.833
160.979
160.128
159.28
158.435
157.592
156.753
155.916
155.081
154.251
153.421
152.595
151.772
150.95
150.133
149.316
148.502
147.691
146.882
146.075
145.271
144.468
143.669
142.87
142.074
141.281
140.489
139.699
138.912
138.126
137.343
136.56
135.781
135.003
134.227
133.453
132.68
131.909
131.141
130.374
129.608
128.845
128.083
127.323
126.564
125.807
125.052
124.298
123.546
122.795
122.046
121.299
120.553
119.808
119.065
118.323
117.583
116.844
116.106
115.369
114.634
113.9
113.167
112.435
111.704
110.974
110.245
109.516
108.789
108.063
107.339
106.617
105.896
105.178
104.462
103.747
103.035
102.324
101.615
100.907
100.199
99.4932
98.7875
98.0823
97.3776
96.6731
95.9691
95.2657
94.5629
93.8609
93.1599
92.4598
91.761
91.0634
90.367
89.6719
88.9781
88.2854
87.594
86.9036
86.2143
85.526
84.8387
84.1521
83.4665
82.7817
82.0978
81.4146
80.7323
80.0508
79.3702
78.6904
78.0114
77.3332
76.656
75.9795
75.304
74.6293
73.9554
73.2822
72.61
71.9385
71.2679
70.598
69.929
69.2606
68.5932
67.9264
67.2604
66.5951
65.9307
65.2668
64.6039
63.9415
63.2801
62.6191
61.9591
61.2996
60.641
59.9829
59.3258
58.669
58.0133
57.3579
56.7036
56.0495
55.3966
54.7438
54.0922
53.4409
52.7905
52.1405
51.4916
50.8428
50.1952
49.5477
48.9013
48.2551
47.6101
46.9651
46.3214
45.6776
45.0351
44.3925
43.7513
43.1099
42.47
41.8297
41.191
40.5519
39.9144
39.2765
38.6402
38.0034
37.3683
36.7325
36.0987
35.4639
34.8313
34.1976
33.5662
32.9335
32.3032
31.6715
31.0425
30.4117
29.7839
29.1541
28.5275
27.8986
27.2732
26.6452
26.021
25.3939
24.7709
24.1446
23.5229
22.8975
22.2769
21.6523
21.033
20.4093
19.7911
19.1683
18.5513
17.9294
17.3134
16.6926
16.0776
15.4579
14.8439
14.2255
13.6123
12.9953
12.3828
11.7677
11.1557
10.5427
9.93105
9.32056
8.70914
8.10164
7.49042
6.88637
6.27562
5.67526
5.06598
4.46876
3.86155
3.26915
2.62432
2.10974
1.26745
1.07767
-0.264332
381.705
248.041
233.967
232.276
230.836
228.955
226.798
224.663
222.34
220.317
218.542
216.787
215.241
213.745
212.355
211.038
209.724
208.493
207.279
206.129
204.966
203.833
202.705
201.613
200.524
199.45
198.387
197.329
196.298
195.258
194.243
193.219
192.215
191.21
190.221
189.232
188.249
187.277
186.3
185.344
184.379
183.431
182.48
181.537
180.599
179.664
178.739
177.809
176.893
175.974
175.063
174.156
173.251
172.353
171.455
170.564
169.675
168.79
167.908
167.029
166.156
165.285
164.418
163.554
162.694
161.837
160.982
160.131
159.283
158.438
157.595
156.756
155.919
155.084
154.254
153.424
152.598
151.775
150.953
150.135
149.318
148.505
147.693
146.884
146.077
145.273
144.47
143.671
142.872
142.076
141.283
140.491
139.701
138.913
138.128
137.345
136.562
135.783
135.005
134.228
133.454
132.682
131.911
131.143
130.375
129.61
128.847
128.084
127.324
126.566
125.808
125.053
124.3
123.547
122.797
122.048
121.3
120.554
119.809
119.066
118.325
117.584
116.845
116.107
115.37
114.636
113.901
113.168
112.437
111.705
110.975
110.246
109.517
108.79
108.065
107.34
106.618
105.897
105.179
104.463
103.748
103.036
102.325
101.616
100.907
100.2
99.4941
98.7884
98.0832
97.3784
96.674
95.97
95.2666
94.5638
93.8618
93.1608
92.4607
91.7619
91.0643
90.3679
89.6727
88.9789
88.2862
87.5948
86.9044
86.2151
85.5268
84.8394
84.1528
83.4672
82.7825
82.0985
81.4153
80.7331
80.0515
79.3709
78.6911
78.0121
77.3339
76.6567
75.9802
75.3046
74.6299
73.956
73.2829
72.6107
71.9392
71.2685
70.5986
69.9296
69.2612
68.5938
67.927
67.261
66.5957
65.9313
65.2674
64.6045
63.9421
63.2806
62.6197
61.9597
61.3002
60.6416
59.9835
59.3263
58.6695
58.0138
57.3584
56.7041
56.05
55.3971
54.7443
54.0927
53.4413
52.791
52.141
51.492
50.8433
50.1956
49.5481
48.9018
48.2556
47.6106
46.9655
46.3218
45.678
45.0356
44.393
43.7518
43.1104
42.4704
41.8302
41.1914
40.5524
39.9149
39.2769
38.6406
38.0038
37.3687
36.7329
36.099
35.4643
34.8317
34.198
33.5666
32.9338
32.3036
31.6719
31.0429
30.4121
29.7843
29.1544
28.5279
27.8989
27.2736
26.6455
26.0214
25.3942
24.7713
24.145
23.5232
22.8978
22.2773
21.6527
21.0333
20.4096
19.7914
19.1686
18.5516
17.9297
17.3137
16.6929
16.0779
15.4582
14.8442
14.2258
13.6126
12.9956
12.3831
11.768
11.156
10.543
9.93134
9.32085
8.70942
8.10193
7.4907
6.88665
6.27591
5.67553
5.06627
4.46906
3.86183
3.26944
2.62463
2.10986
1.26785
1.07777
-0.238448
376.008
249.534
235.133
233.055
231.305
229.269
227.03
224.839
222.483
220.44
218.65
216.881
215.324
213.817
212.42
211.096
209.777
208.542
207.323
206.169
205.002
203.867
202.737
201.642
200.552
199.476
198.412
197.352
196.32
195.279
194.262
193.237
192.233
191.227
190.237
189.247
188.264
187.291
186.314
185.358
184.392
183.443
182.491
181.548
180.61
179.675
178.749
177.819
176.903
175.983
175.072
174.165
173.26
172.361
171.463
170.572
169.682
168.797
167.916
167.036
166.163
165.292
164.424
163.561
162.7
161.843
160.988
160.137
159.288
158.443
157.6
156.761
155.924
155.089
154.259
153.429
152.603
151.779
150.958
150.14
149.323
148.509
147.698
146.888
146.082
145.277
144.474
143.675
142.876
142.08
141.286
140.494
139.705
138.917
138.131
137.348
136.566
135.786
135.008
134.231
133.458
132.685
131.914
131.146
130.378
129.613
128.85
128.087
127.327
126.568
125.811
125.056
124.302
123.55
122.799
122.05
121.303
120.557
119.812
119.069
118.327
117.586
116.847
116.11
115.373
114.638
113.904
113.171
112.439
111.707
110.977
110.248
109.519
108.792
108.067
107.342
106.62
105.899
105.181
104.464
103.75
103.038
102.327
101.617
100.909
100.202
99.4958
98.7901
98.0848
97.3801
96.6756
95.9717
95.2682
94.5654
93.8634
93.1624
92.4623
91.7634
91.0658
90.3694
89.6742
88.9804
88.2877
87.5962
86.9058
86.2165
85.5282
84.8408
84.1542
83.4686
82.7838
82.0998
81.4166
80.7344
80.0528
79.3722
78.6923
78.0134
77.3352
76.6579
75.9814
75.3059
74.6311
73.9572
73.284
72.6118
71.9403
71.2697
70.5998
69.9307
69.2624
68.5949
67.9281
67.2621
66.5968
65.9323
65.2685
64.6055
63.9431
63.2817
62.6207
61.9607
61.3012
60.6426
59.9844
59.3273
58.6705
58.0148
57.3594
56.705
56.051
55.398
54.7453
54.0936
53.4422
52.7919
52.1419
51.4929
50.8441
50.1965
49.549
48.9027
48.2564
47.6114
46.9664
46.3226
45.6788
45.0364
44.3938
43.7526
43.1112
42.4712
41.8309
41.1922
40.5531
39.9156
39.2777
38.6414
38.0045
37.3694
36.7336
36.0998
35.465
34.8324
34.1987
33.5673
32.9345
32.3043
31.6726
31.0435
30.4128
29.7849
29.1551
28.5285
27.8996
27.2742
26.6462
26.022
25.3948
24.7719
24.1456
23.5238
22.8984
22.2779
21.6533
21.0339
20.4102
19.792
19.1692
18.5521
17.9303
17.3143
16.6935
16.0785
15.4588
14.8447
14.2263
13.6131
12.9962
12.3837
11.7685
11.1565
10.5435
9.93186
9.32137
8.70994
8.10244
7.49122
6.88716
6.27642
5.67604
5.06677
4.46959
3.86232
3.26998
2.62515
2.11033
1.26813
1.07831
-0.247792
370.554
251.364
236.451
233.598
231.633
229.523
227.24
225.012
222.634
220.571
218.759
216.976
215.41
213.895
212.491
211.16
209.836
208.595
207.372
206.214
205.044
203.906
202.773
201.676
200.584
199.507
198.44
197.379
196.345
195.303
194.285
193.259
192.254
191.247
190.256
189.265
188.282
187.308
186.33
185.373
184.407
183.458
182.505
181.561
180.623
179.687
178.761
177.831
176.914
175.994
175.082
174.175
173.27
172.371
171.472
170.581
169.691
168.806
167.924
167.045
166.171
165.3
164.432
163.568
162.708
161.85
160.995
160.143
159.295
158.45
157.607
156.767
155.93
155.095
154.264
153.435
152.608
151.785
150.963
150.145
149.328
148.514
147.703
146.893
146.086
145.282
144.478
143.679
142.88
142.085
141.291
140.498
139.709
138.921
138.135
137.352
136.569
135.79
135.012
134.235
133.461
132.688
131.918
131.149
130.382
129.616
128.853
128.09
127.33
126.572
125.814
125.059
124.305
123.553
122.802
122.053
121.305
120.56
119.815
119.071
118.33
117.589
116.85
116.112
115.375
114.64
113.906
113.173
112.441
111.71
110.979
110.25
109.522
108.795
108.069
107.345
106.622
105.902
105.183
104.467
103.752
103.04
102.329
101.619
100.911
100.204
99.4978
98.792
98.0868
97.382
96.6775
95.9735
95.2701
94.5672
93.8652
93.1642
92.4641
91.7652
91.0676
90.3711
89.676
88.9821
88.2894
87.5979
86.9075
86.2181
85.5298
84.8424
84.1558
83.4702
82.7853
82.1013
81.4181
80.7359
80.0543
79.3737
78.6938
78.0148
77.3366
76.6594
75.9828
75.3073
74.6325
73.9586
73.2854
72.6132
71.9416
71.271
70.6011
69.932
69.2636
68.5962
67.9293
67.2633
66.598
65.9336
65.2697
64.6067
63.9443
63.2829
62.6219
61.9619
61.3023
60.6437
59.9856
59.3284
58.6716
58.0159
57.3605
56.7061
56.052
55.399
54.7463
54.0947
53.4433
52.793
52.1429
51.4939
50.8451
50.1975
49.55
48.9036
48.2574
47.6123
46.9673
46.3236
45.6798
45.0373
44.3947
43.7535
43.1121
42.4721
41.8318
41.1931
40.554
39.9165
39.2785
38.6422
38.0053
37.3703
36.7345
36.1006
35.4658
34.8332
34.1995
33.5681
32.9353
32.3051
31.6733
31.0443
30.4135
29.7857
29.1559
28.5293
27.9003
27.275
26.6469
26.0227
25.3956
24.7726
24.1463
23.5245
22.8991
22.2786
21.654
21.0346
20.4109
19.7927
19.1699
18.5528
17.9309
17.3149
16.6941
16.0791
15.4594
14.8454
14.227
13.6137
12.9968
12.3843
11.7692
11.1571
10.5441
9.93245
9.32197
8.71053
8.10304
7.4918
6.88775
6.277
5.67662
5.06734
4.4702
3.86289
3.2706
2.62584
2.11087
1.26847
1.07895
-0.247992
365.725
252.076
237.988
234.156
231.883
229.686
227.392
225.168
222.782
220.705
218.872
217.079
215.506
213.981
212.566
211.228
209.898
208.654
207.427
206.265
205.091
203.95
202.815
201.715
200.62
199.541
198.472
197.41
196.374
195.331
194.311
193.284
192.278
191.27
190.278
189.286
188.302
187.327
186.348
185.391
184.424
183.474
182.521
181.577
180.638
179.702
178.775
177.844
176.927
176.006
175.095
174.187
173.281
172.382
171.483
170.591
169.702
168.816
167.934
167.054
166.18
165.309
164.441
163.577
162.716
161.858
161.003
160.151
159.302
158.457
157.614
156.774
155.937
155.102
154.271
153.441
152.615
151.791
150.969
150.151
149.334
148.52
147.708
146.898
146.092
145.287
144.484
143.684
142.885
142.09
141.296
140.503
139.714
138.926
138.14
137.356
136.574
135.794
135.016
134.239
133.465
132.693
131.922
131.153
130.386
129.62
128.857
128.094
127.334
126.575
125.818
125.063
124.309
123.556
122.806
122.056
121.309
120.563
119.818
119.075
118.333
117.592
116.853
116.115
115.378
114.643
113.909
113.176
112.444
111.713
110.982
110.253
109.525
108.797
108.072
107.347
106.625
105.904
105.186
104.469
103.755
103.042
102.331
101.622
100.913
100.206
99.5
98.7942
98.089
97.3842
96.6797
95.9757
95.2722
94.5693
93.8673
93.1663
92.4661
91.7673
91.0696
90.3731
89.6779
88.9841
88.2913
87.5998
86.9094
86.22
85.5316
84.8442
84.1576
83.472
82.7871
82.1031
81.4199
80.7376
80.056
79.3754
78.6955
78.0165
77.3382
76.661
75.9844
75.3088
74.6341
73.9602
73.287
72.6147
71.9432
71.2725
70.6026
69.9335
69.2651
68.5976
67.9308
67.2647
66.5994
65.935
65.271
64.6081
63.9457
63.2842
62.6232
61.9632
61.3036
60.645
59.9869
59.3297
58.6729
58.0171
57.3617
56.7073
56.0533
55.4003
54.7475
54.0958
53.4445
52.7941
52.1441
51.4951
50.8463
50.1986
49.5511
48.9047
48.2585
47.6134
46.9684
46.3247
45.6808
45.0384
44.3957
43.7545
43.1131
42.4731
41.8329
41.1941
40.555
39.9175
39.2795
38.6432
38.0063
37.3712
36.7354
36.1015
35.4668
34.8341
34.2004
33.569
32.9362
32.306
31.6742
31.0452
30.4144
29.7866
29.1567
28.5301
27.9012
27.2758
26.6477
26.0236
25.3964
24.7734
24.1471
23.5254
22.8999
22.2794
21.6548
21.0354
20.4117
19.7935
19.1706
18.5536
17.9317
17.3157
16.6949
16.0799
15.4602
14.8461
14.2277
13.6144
12.9975
12.385
11.7699
11.1578
10.5448
9.93314
9.32266
8.7112
8.10371
7.49247
6.88842
6.27766
5.67729
5.06798
4.47089
3.86353
3.2713
2.62665
2.11152
1.26882
1.07986
-0.24987
361.438
252.966
238.903
234.75
232.099
229.82
227.501
225.263
222.895
220.819
218.982
217.184
215.603
214.07
212.645
211.3
209.966
208.718
207.484
206.316
205.139
203.996
202.858
201.757
200.659
199.578
198.508
197.443
196.406
195.361
194.34
193.311
192.304
191.295
190.302
189.309
188.324
187.348
186.369
185.41
184.443
183.492
182.538
181.593
180.654
179.717
178.79
177.859
176.941
176.02
175.108
174.2
173.294
172.395
171.495
170.603
169.713
168.827
167.945
167.065
166.19
165.319
164.45
163.586
162.725
161.867
161.012
160.16
159.311
158.465
157.622
156.782
155.945
155.109
154.278
153.448
152.622
151.798
150.976
150.158
149.34
148.526
147.715
146.905
146.098
145.293
144.49
143.69
142.891
142.095
141.301
140.509
139.719
138.931
138.145
137.361
136.579
135.799
135.021
134.244
133.47
132.697
131.926
131.157
130.39
129.624
128.861
128.098
127.338
126.579
125.822
125.067
124.313
123.56
122.81
122.06
121.312
120.566
119.821
119.078
118.336
117.596
116.856
116.118
115.382
114.647
113.912
113.179
112.447
111.716
110.985
110.256
109.528
108.8
108.075
107.35
106.628
105.907
105.188
104.472
103.757
103.045
102.334
101.624
100.916
100.209
99.5025
98.7967
98.0914
97.3866
96.682
95.9781
95.2746
94.5717
93.8696
93.1686
92.4684
91.7695
91.0718
90.3753
89.6801
88.9862
88.2934
87.6019
86.9115
86.2221
85.5337
84.8462
84.1596
83.4739
82.7891
82.105
81.4218
80.7395
80.0579
79.3772
78.6973
78.0183
77.34
76.6628
75.9862
75.3106
74.6358
73.9619
73.2887
72.6164
71.9448
71.2741
70.6042
69.9351
69.2667
68.5992
67.9323
67.2663
66.601
65.9365
65.2726
64.6096
63.9472
63.2857
62.6247
61.9646
61.3051
60.6464
59.9883
59.3311
58.6743
58.0185
57.3631
56.7087
56.0546
55.4016
54.7488
54.0972
53.4458
52.7954
52.1453
51.4964
50.8475
50.1999
49.5523
48.906
48.2597
47.6146
46.9696
46.3258
45.682
45.0395
44.3969
43.7557
43.1142
42.4742
41.834
41.1952
40.5561
39.9186
39.2806
38.6443
38.0074
37.3723
36.7365
36.1026
35.4678
34.8352
34.2014
33.57
32.9372
32.307
31.6752
31.0462
30.4154
29.7875
29.1577
28.5311
27.9021
27.2767
26.6487
26.0245
25.3973
24.7743
24.148
23.5262
22.9008
22.2802
21.6556
21.0363
20.4125
19.7943
19.1715
18.5544
17.9325
17.3165
16.6957
16.0807
15.461
14.8469
14.2285
13.6152
12.9983
12.3857
11.7706
11.1586
10.5456
9.93389
9.32341
8.71195
8.10445
7.49321
6.88915
6.27839
5.67801
5.06868
4.47164
3.86422
3.27207
2.62756
2.11224
1.26913
1.08102
-0.252751
357.037
254.352
239.624
235.129
232.368
229.942
227.589
225.348
222.977
220.892
219.07
217.273
215.688
214.153
212.722
211.373
210.036
208.783
207.543
206.37
205.19
204.045
202.905
201.799
200.699
199.616
198.543
197.477
196.439
195.392
194.37
193.34
192.331
191.321
190.328
189.334
188.347
187.37
186.39
185.431
184.463
183.512
182.557
181.612
180.672
179.734
178.806
177.875
176.956
176.035
175.123
174.214
173.308
172.408
171.508
170.615
169.725
168.838
167.956
167.076
166.201
165.329
164.461
163.596
162.735
161.877
161.021
160.169
159.32
158.474
157.631
156.791
155.953
155.118
154.286
153.456
152.629
151.806
150.983
150.165
149.347
148.533
147.721
146.911
146.104
145.299
144.496
143.696
142.897
142.101
141.307
140.514
139.725
138.936
138.15
137.367
136.584
135.804
135.026
134.249
133.475
132.702
131.931
131.162
130.395
129.629
128.865
128.103
127.342
126.584
125.826
125.071
124.317
123.564
122.814
122.064
121.316
120.57
119.825
119.082
118.34
117.599
116.86
116.122
115.385
114.65
113.916
113.182
112.45
111.719
110.989
110.259
109.531
108.804
108.078
107.353
106.631
105.91
105.191
104.475
103.76
103.047
102.336
101.627
100.919
100.212
99.5052
98.7993
98.094
97.3892
96.6846
95.9806
95.2771
94.5742
93.8721
93.1711
92.4709
91.772
91.0742
90.3777
89.6824
88.9885
88.2957
87.6041
86.9137
86.2243
85.5358
84.8484
84.1617
83.476
82.7912
82.1071
81.4238
80.7415
80.0599
79.3792
78.6993
78.0202
77.342
76.6647
75.9881
75.3125
74.6377
73.9637
73.2905
72.6182
71.9466
71.2759
70.606
69.9369
69.2684
68.6009
67.934
67.268
66.6026
65.9382
65.2742
64.6112
63.9488
63.2873
62.6263
61.9662
61.3066
60.648
59.9898
59.3326
58.6758
58.02
57.3646
56.7101
56.0561
55.403
54.7503
54.0986
53.4472
52.7968
52.1467
51.4977
50.8489
50.2012
49.5537
48.9073
48.261
47.6159
46.9709
46.3271
45.6833
45.0408
44.3981
43.7569
43.1155
42.4754
41.8352
41.1964
40.5573
39.9197
39.2818
38.6454
38.0085
37.3734
36.7376
36.1037
35.4689
34.8363
34.2025
33.5711
32.9383
32.308
31.6763
31.0472
30.4164
29.7886
29.1587
28.5321
27.9031
27.2777
26.6497
26.0255
25.3983
24.7753
24.149
23.5272
22.9018
22.2812
21.6566
21.0372
20.4135
19.7952
19.1724
18.5553
17.9334
17.3174
16.6966
16.0815
15.4618
14.8478
14.2293
13.6161
12.9992
12.3866
11.7715
11.1594
10.5464
9.9347
9.32422
8.71274
8.10525
7.494
6.88993
6.27916
5.67879
5.06943
4.47245
3.86496
3.27288
2.62855
2.113
1.26972
1.08216
-0.256277
352.89
255.411
240.45
235.501
232.533
230.1
227.675
225.42
223.048
220.961
219.137
217.33
215.758
214.224
212.789
211.44
210.099
208.844
207.601
206.425
205.243
204.095
202.952
201.843
200.739
199.655
198.581
197.514
196.473
195.424
194.401
193.369
192.36
191.349
190.354
189.359
188.371
187.394
186.413
185.453
184.484
183.532
182.577
181.631
180.69
179.752
178.824
177.891
176.973
176.051
175.138
174.229
173.322
172.422
171.522
170.629
169.738
168.851
167.968
167.088
166.213
165.341
164.472
163.607
162.746
161.887
161.031
160.179
159.33
158.484
157.64
156.8
155.962
155.126
154.295
153.464
152.638
151.814
150.991
150.172
149.355
148.541
147.729
146.918
146.111
145.306
144.503
143.703
142.903
142.107
141.313
140.521
139.731
138.942
138.156
137.373
136.59
135.81
135.032
134.255
133.48
132.707
131.936
131.167
130.4
129.634
128.87
128.107
127.347
126.588
125.831
125.075
124.321
123.569
122.818
122.068
121.321
120.574
119.829
119.086
118.344
117.603
116.864
116.126
115.389
114.654
113.919
113.186
112.454
111.723
110.992
110.263
109.534
108.807
108.081
107.357
106.634
105.913
105.195
104.478
103.763
103.051
102.339
101.63
100.922
100.214
99.508
98.8021
98.0968
97.392
96.6874
95.9834
95.2798
94.5769
93.8748
93.1737
92.4735
91.7745
91.0768
90.3802
89.6849
88.991
88.2981
87.6066
86.9161
86.2266
85.5382
84.8507
84.164
83.4783
82.7934
82.1093
81.426
80.7437
80.0621
79.3813
78.7014
78.0223
77.3441
76.6667
75.9901
75.3145
74.6397
73.9657
73.2924
72.6202
71.9486
71.2778
70.6078
69.9387
69.2703
68.6028
67.9359
67.2698
66.6044
65.9399
65.276
64.613
63.9505
63.289
62.628
61.9679
61.3083
60.6496
59.9914
59.3342
58.6774
58.0216
57.3661
56.7117
56.0576
55.4046
54.7518
54.1001
53.4487
52.7983
52.1482
51.4992
50.8503
50.2026
49.5551
48.9087
48.2624
47.6173
46.9723
46.3285
45.6846
45.0421
44.3995
43.7582
43.1168
42.4767
41.8365
41.1977
40.5585
39.921
39.283
38.6467
38.0097
37.3746
36.7388
36.1049
35.4701
34.8374
34.2037
33.5722
32.9395
32.3092
31.6774
31.0483
30.4175
29.7897
29.1598
28.5332
27.9042
27.2788
26.6507
26.0265
25.3993
24.7763
24.15
23.5282
22.9028
22.2822
21.6576
21.0382
20.4144
19.7962
19.1734
18.5563
17.9344
17.3183
16.6975
16.0825
15.4628
14.8487
14.2303
13.617
13.0001
12.3875
11.7724
11.1603
10.5473
9.93556
9.32508
8.7136
8.1061
7.49483
6.89077
6.27999
5.67962
5.07021
4.47331
3.86574
3.27375
2.62963
2.11379
1.27061
1.08322
-0.260398
348.917
256.383
241.174
235.927
232.69
230.184
227.774
225.494
223.098
221.03
219.196
217.388
215.816
214.27
212.842
211.498
210.155
208.898
207.655
206.476
205.292
204.142
202.998
201.887
200.782
199.696
198.62
197.551
196.507
195.456
194.432
193.4
192.389
191.377
190.38
189.384
188.396
187.418
186.436
185.476
184.506
183.553
182.597
181.65
180.709
179.771
178.841
177.909
176.99
176.067
175.154
174.245
173.337
172.436
171.536
170.643
169.751
168.864
167.981
167.1
166.225
165.353
164.483
163.619
162.757
161.898
161.042
160.189
159.34
158.493
157.65
156.809
155.971
155.135
154.304
153.473
152.646
151.822
150.999
150.181
149.363
148.548
147.736
146.926
146.119
145.313
144.51
143.71
142.91
142.114
141.32
140.527
139.737
138.949
138.162
137.379
136.596
135.816
135.037
134.26
133.486
132.713
131.942
131.173
130.405
129.639
128.875
128.112
127.352
126.593
125.836
125.08
124.326
123.573
122.822
122.073
121.325
120.579
119.834
119.09
118.348
117.607
116.868
116.13
115.393
114.658
113.923
113.19
112.458
111.726
110.996
110.266
109.538
108.81
108.085
107.36
106.637
105.917
105.198
104.481
103.767
103.054
102.343
101.633
100.925
100.217
99.511
98.8051
98.0998
97.3949
96.6903
95.9862
95.2827
94.5797
93.8776
93.1765
92.4762
91.7772
91.0795
90.3829
89.6876
88.9936
88.3007
87.6091
86.9186
86.2291
85.5406
84.8531
84.1664
83.4807
82.7958
82.1117
81.4284
80.746
80.0643
79.3836
78.7036
78.0245
77.3462
76.6689
75.9923
75.3166
74.6418
73.9678
73.2945
72.6222
71.9506
71.2798
70.6098
69.9407
69.2722
68.6047
67.9378
67.2717
66.6063
65.9418
65.2778
64.6148
63.9523
63.2908
62.6297
61.9696
61.31
60.6514
59.9931
59.3359
58.6791
58.0233
57.3678
56.7133
56.0592
55.4062
54.7534
54.1017
53.4502
52.7998
52.1497
51.5007
50.8519
50.2042
49.5566
48.9102
48.2639
47.6188
46.9737
46.3299
45.6861
45.0435
44.4009
43.7596
43.1181
42.4781
41.8378
41.199
40.5599
39.9223
39.2843
38.648
38.011
37.3759
36.7401
36.1062
35.4714
34.8387
34.2049
33.5734
32.9407
32.3104
31.6786
31.0495
30.4187
29.7908
29.161
28.5343
27.9054
27.2799
26.6519
26.0276
25.4004
24.7774
24.1511
23.5293
22.9039
22.2832
21.6586
21.0392
20.4155
19.7972
19.1744
18.5573
17.9354
17.3193
16.6985
16.0835
15.4638
14.8496
14.2312
13.6179
13.001
12.3884
11.7733
11.1612
10.5482
9.93647
9.32599
8.7145
8.10699
7.49572
6.89165
6.28085
5.68049
5.07104
4.47421
3.86655
3.27466
2.63078
2.1146
1.27152
1.08439
-0.264959
345.12
257.25
241.865
236.301
232.905
230.267
227.85
225.529
223.173
221.086
219.24
217.446
215.865
214.318
212.89
211.536
210.196
208.945
207.702
206.52
205.337
204.186
203.039
201.928
200.822
199.734
198.658
197.587
196.542
195.49
194.465
193.432
192.42
191.405
190.407
189.41
188.422
187.442
186.46
185.498
184.527
183.574
182.617
181.67
180.729
179.79
178.86
177.927
177.007
176.084
175.17
174.261
173.353
172.452
171.551
170.657
169.765
168.878
167.995
167.113
166.238
165.365
164.496
163.631
162.768
161.909
161.053
160.2
159.35
158.504
157.66
156.819
155.981
155.145
154.313
153.482
152.655
151.831
151.008
150.189
149.371
148.556
147.744
146.934
146.126
145.321
144.517
143.717
142.917
142.121
141.327
140.534
139.744
138.955
138.169
137.385
136.602
135.822
135.043
134.266
133.492
132.719
131.947
131.178
130.41
129.644
128.881
128.118
127.357
126.598
125.841
125.085
124.331
123.578
122.827
122.078
121.33
120.583
119.838
119.095
118.353
117.612
116.872
116.134
115.397
114.662
113.927
113.194
112.462
111.73
111
110.27
109.542
108.814
108.088
107.364
106.641
105.92
105.201
104.485
103.77
103.057
102.346
101.636
100.928
100.221
99.5142
98.8083
98.1029
97.398
96.6933
95.9893
95.2857
94.5827
93.8805
93.1794
92.4791
91.7801
91.0823
90.3856
89.6903
88.9963
88.3034
87.6117
86.9212
86.2317
85.5432
84.8557
84.1689
83.4832
82.7983
82.1141
81.4308
80.7484
80.0667
79.386
78.706
78.0269
77.3485
76.6712
75.9945
75.3188
74.644
73.97
73.2967
72.6243
71.9527
71.2819
70.6119
69.9428
69.2743
68.6067
67.9398
67.2737
66.6083
65.9437
65.2797
64.6167
63.9542
63.2927
62.6316
61.9715
61.3119
60.6532
59.9949
59.3377
58.6808
58.025
57.3695
56.7151
56.061
55.4079
54.7551
54.1033
53.4519
52.8015
52.1514
51.5023
50.8535
50.2057
49.5582
48.9117
48.2654
47.6203
46.9752
46.3314
45.6876
45.045
44.4023
43.7611
43.1196
42.4795
41.8392
41.2004
40.5613
39.9237
39.2857
38.6493
38.0124
37.3773
36.7414
36.1075
35.4727
34.84
34.2062
33.5747
32.9419
32.3117
31.6799
31.0508
30.4199
29.7921
29.1622
28.5355
27.9066
27.2811
26.653
26.0288
25.4016
24.7786
24.1523
23.5304
22.905
22.2844
21.6597
21.0403
20.4166
19.7983
19.1755
18.5583
17.9365
17.3204
16.6996
16.0845
15.4648
14.8507
14.2322
13.6189
13.002
12.3894
11.7743
11.1622
10.5492
9.93743
9.32694
8.71544
8.10793
7.49665
6.89257
6.28176
5.68141
5.07191
4.47515
3.86739
3.27561
2.632
2.11543
1.27248
1.08559
-0.269885
341.475
258.032
242.506
236.675
233.089
230.387
227.924
225.566
223.202
221.146
219.3
217.485
215.908
214.367
212.931
211.574
210.236
208.981
207.733
206.557
205.377
204.225
203.077
201.966
200.859
199.77
198.693
197.621
196.576
195.523
194.497
193.462
192.449
191.434
190.435
189.437
188.448
187.468
186.484
185.521
184.549
183.596
182.639
181.691
180.749
179.808
178.878
177.944
177.024
176.101
175.187
174.277
173.369
172.467
171.566
170.672
169.78
168.892
168.008
167.127
166.251
165.378
164.508
163.643
162.78
161.921
161.064
160.211
159.361
158.515
157.67
156.829
155.991
155.155
154.323
153.492
152.664
151.84
151.017
150.198
149.38
148.565
147.752
146.942
146.134
145.329
144.525
143.725
142.925
142.129
141.334
140.541
139.751
138.962
138.175
137.392
136.608
135.828
135.05
134.272
133.498
132.725
131.953
131.184
130.416
129.65
128.886
128.123
127.363
126.604
125.846
125.09
124.336
123.583
122.832
122.082
121.334
120.588
119.843
119.099
118.357
117.616
116.877
116.139
115.401
114.666
113.932
113.198
112.466
111.735
111.004
110.274
109.546
108.818
108.092
107.368
106.645
105.924
105.205
104.488
103.774
103.061
102.349
101.64
100.931
100.224
99.5175
98.8115
98.1061
97.4012
96.6965
95.9924
95.2888
94.5858
93.8836
93.1824
92.4821
91.783
91.0852
90.3885
89.6932
88.9991
88.3062
87.6145
86.924
86.2344
85.5459
84.8584
84.1716
83.4858
82.8008
82.1167
81.4333
80.7509
80.0692
79.3884
78.7084
78.0293
77.3509
76.6736
75.9969
75.3212
74.6463
73.9723
73.2989
72.6266
71.9549
71.2841
70.6141
69.9449
69.2764
68.6088
67.9419
67.2758
66.6103
65.9458
65.2818
64.6187
63.9562
63.2946
62.6336
61.9734
61.3138
60.6551
59.9968
59.3396
58.6827
58.0269
57.3714
56.7169
56.0627
55.4097
54.7568
54.1051
53.4536
52.8032
52.1531
51.504
50.8551
50.2074
49.5598
48.9134
48.267
47.6219
46.9768
46.333
45.6891
45.0466
44.4039
43.7626
43.1211
42.481
41.8407
41.2019
40.5628
39.9252
39.2871
38.6508
38.0138
37.3787
36.7428
36.1089
35.4741
34.8414
34.2076
33.5761
32.9433
32.313
31.6812
31.0521
30.4212
29.7934
29.1635
28.5368
27.9078
27.2824
26.6543
26.03
25.4028
24.7798
24.1534
23.5316
22.9062
22.2855
21.6609
21.0415
20.4177
19.7994
19.1766
18.5595
17.9376
17.3215
16.7007
16.0856
15.4659
14.8517
14.2333
13.62
13.0031
12.3904
11.7753
11.1632
10.5502
9.93844
9.32794
8.71643
8.10891
7.49763
6.89354
6.28272
5.68237
5.07281
4.47613
3.86826
3.27661
2.63328
2.11627
1.2735
1.0868
-0.275149
337.978
258.714
243.111
237.024
233.278
230.495
227.99
225.628
223.242
221.195
219.326
217.538
215.957
214.395
212.967
211.614
210.274
209.014
207.768
206.591
205.403
204.253
203.111
202
200.891
199.803
198.726
197.653
196.607
195.554
194.527
193.491
192.478
191.462
190.462
189.464
188.474
187.493
186.509
185.545
184.572
183.618
182.661
181.712
180.769
179.828
178.897
177.963
177.043
176.119
175.204
174.293
173.384
172.483
171.581
170.687
169.794
168.906
168.022
167.14
166.264
165.391
164.521
163.655
162.793
161.933
161.076
160.223
159.372
158.526
157.681
156.84
156.001
155.165
154.333
153.502
152.674
151.849
151.026
150.207
149.388
148.574
147.761
146.95
146.143
145.337
144.533
143.732
142.933
142.136
141.341
140.548
139.758
138.969
138.182
137.399
136.615
135.835
135.056
134.279
133.504
132.731
131.959
131.19
130.422
129.656
128.892
128.129
127.368
126.609
125.851
125.096
124.341
123.588
122.837
122.088
121.339
120.593
119.848
119.104
118.362
117.621
116.881
116.143
115.406
114.671
113.936
113.203
112.47
111.739
111.008
110.279
109.55
108.822
108.096
107.372
106.649
105.928
105.209
104.492
103.777
103.064
102.353
101.643
100.935
100.227
99.521
98.815
98.1095
97.4046
96.6999
95.9957
95.2921
94.589
93.8868
93.1856
92.4852
91.7861
91.0883
90.3916
89.6962
89.0021
88.3091
87.6174
86.9268
86.2373
85.5487
84.8612
84.1743
83.4885
82.8035
82.1194
81.436
80.7535
80.0718
79.391
78.711
78.0318
77.3534
76.676
75.9993
75.3236
74.6487
73.9746
73.3013
72.6289
71.9572
71.2864
70.6164
69.9472
69.2786
68.611
67.9441
67.2779
66.6125
65.9479
65.2839
64.6208
63.9583
63.2967
62.6356
61.9755
61.3158
60.6571
59.9988
59.3415
58.6846
58.0288
57.3733
56.7188
56.0646
55.4115
54.7586
54.1069
53.4554
52.805
52.1548
51.5058
50.8569
50.2091
49.5615
48.9151
48.2687
47.6236
46.9785
46.3346
45.6908
45.0482
44.4055
43.7642
43.1227
42.4826
41.8423
41.2035
40.5643
39.9267
39.2886
38.6523
38.0153
37.3801
36.7443
36.1103
35.4755
34.8428
34.209
33.5775
32.9447
32.3144
31.6825
31.0534
30.4226
29.7947
29.1648
28.5381
27.9091
27.2837
26.6556
26.0313
25.4041
24.781
24.1547
23.5329
22.9074
22.2867
21.6621
21.0427
20.4189
19.8006
19.1778
18.5606
17.9387
17.3226
16.7018
16.0867
15.467
14.8528
14.2344
13.6211
13.0042
12.3915
11.7764
11.1643
10.5513
9.93949
9.32899
8.71747
8.10994
7.49864
6.89454
6.28371
5.68336
5.07375
4.47715
3.86916
3.27764
2.63463
2.11712
1.27458
1.08804
-0.280722
334.621
259.312
243.673
237.36
233.46
230.602
228.062
225.679
223.3
221.245
219.353
217.578
215.982
214.44
213.005
211.638
210.304
209.046
207.803
206.62
205.43
204.283
203.137
202.023
200.917
199.833
198.754
197.681
196.636
195.582
194.554
193.519
192.505
191.489
190.488
189.489
188.499
187.517
186.532
185.568
184.595
183.64
182.682
181.733
180.79
179.848
178.916
177.982
177.061
176.137
175.221
174.31
173.401
172.499
171.597
170.702
169.809
168.921
168.036
167.154
166.278
165.404
164.534
163.668
162.805
161.945
161.088
160.234
159.384
158.537
157.692
156.851
156.012
155.175
154.343
153.511
152.684
151.859
151.035
150.216
149.398
148.583
147.77
146.959
146.151
145.345
144.541
143.741
142.94
142.144
141.349