/*--------------------------------*- C++ -*----------------------------------*\
| =========                 |                                                 |
| \\      /  F ield         | foam-extend: Open Source CFD                    |
|  \\    /   O peration     | Version:     3.2                                |
|   \\  /    A nd           | Web:         http://www.foam-extend.org         |
|    \\/     M anipulation  | For copyright notice see file Copyright         |
\*---------------------------------------------------------------------------*/
FoamFile
{
    version     2.0;
    format      ascii;
    class       areaScalarField;
    location    "37";
    object      Pef;
}
// * * * * * * * * * * * * * * * * * * * * * * * * * * * * * * * * * * * * * //

dimensions      [0 0 0 0 0 0 0];

internalField   nonuniform List<scalar> 
300
(
0.996918
0.992009
0.963813
0.922379
0.894485
0.875778
0.860155
0.844907
0.829479
0.814262
0.799664
0.785782
0.772535
0.76016
0.748572
0.73767
0.727392
0.717647
0.708509
0.699998
0.691946
0.684252
0.676915
0.669928
0.663291
0.656934
0.650862
0.645028
0.639453
0.634122
0.628994
0.624069
0.619314
0.614744
0.610341
0.606107
0.602004
0.598045
0.594209
0.590496
0.586916
0.583434
0.580069
0.576789
0.573612
0.570523
0.567529
0.564615
0.561775
0.559015
0.556319
0.553698
0.551145
0.548654
0.546226
0.54385
0.541535
0.539261
0.537028
0.534846
0.532711
0.530626
0.528586
0.52659
0.524638
0.522728
0.520857
0.519025
0.517227
0.515466
0.51374
0.512048
0.510389
0.508761
0.507161
0.505594
0.504052
0.502541
0.501056
0.499596
0.498163
0.496754
0.495369
0.494008
0.492668
0.491353
0.490058
0.488783
0.48753
0.486296
0.485082
0.483887
0.48271
0.481553
0.480411
0.479287
0.478181
0.477089
0.476016
0.474957
0.473913
0.472885
0.471871
0.470871
0.469886
0.468913
0.467954
0.46701
0.466077
0.465157
0.464249
0.463353
0.46247
0.461598
0.460737
0.459888
0.459049
0.458221
0.457404
0.456597
0.455799
0.455013
0.454235
0.453467
0.452709
0.451958
0.451217
0.450483
0.449757
0.449038
0.448328
0.447624
0.446929
0.446241
0.445562
0.444892
0.44423
0.443578
0.442934
0.442299
0.441672
0.441054
0.440442
0.439838
0.43924
0.438648
0.438062
0.437481
0.436904
0.436333
0.435767
0.435206
0.434651
0.4341
0.433555
0.433016
0.432482
0.431954
0.431432
0.430916
0.430405
0.429899
0.429399
0.428904
0.428414
0.427929
0.427448
0.426973
0.426502
0.426035
0.425573
0.425116
0.424662
0.424213
0.423768
0.423328
0.422891
0.422459
0.422031
0.421606
0.421186
0.42077
0.420357
0.419949
0.419544
0.419143
0.418745
0.418351
0.417961
0.417574
0.417191
0.416811
0.416435
0.416062
0.415692
0.415325
0.414962
0.414602
0.414245
0.413891
0.41354
0.413193
0.412848
0.412507
0.412168
0.411832
0.411499
0.411169
0.410842
0.410518
0.410196
0.409877
0.409561
0.409247
0.408936
0.408628
0.408322
0.408019
0.407718
0.40742
0.407124
0.406831
0.40654
0.406252
0.405966
0.405682
0.405401
0.405122
0.404845
0.404571
0.404298
0.404028
0.40376
0.403495
0.40323
0.40297
0.40271
0.402453
0.402197
0.401945
0.401693
0.401445
0.401197
0.400953
0.400708
0.400468
0.400227
0.399991
0.399754
0.399522
0.399288
0.399059
0.39883
0.398604
0.398379
0.398157
0.397934
0.397715
0.397497
0.397281
0.397066
0.396854
0.396643
0.396433
0.396226
0.396018
0.395815
0.39561
0.395411
0.395207
0.395013
0.394811
0.394621
0.39442
0.394235
0.394035
0.393855
0.393655
0.393481
0.393281
0.393113
0.392912
0.392749
0.392547
0.39239
0.392187
0.392035
0.39183
0.391683
0.391477
0.391331
0.391126
0.390981
0.390769
0.390649
0.390402
0.390379
0.390026
0.390155
0.389466
)
;

boundaryField
{
    inlet
    {
        type            calculated;
        value           uniform 0;
    }
    outlet
    {
        type            calculated;
        value           uniform 0;
    }
    sideWall
    {
        type            empty;
    }
}


// ************************************************************************* //
