/*--------------------------------*- C++ -*----------------------------------*\
| =========                 |                                                 |
| \\      /  F ield         | foam-extend: Open Source CFD                    |
|  \\    /   O peration     | Version:     3.2                                |
|   \\  /    A nd           | Web:         http://www.foam-extend.org         |
|    \\/     M anipulation  | For copyright notice see file Copyright         |
\*---------------------------------------------------------------------------*/
FoamFile
{
    version     2.0;
    format      ascii;
    class       areaScalarField;
    location    "37";
    object      Uf2;
}
// * * * * * * * * * * * * * * * * * * * * * * * * * * * * * * * * * * * * * //

dimensions      [0 1 -1 0 0 0 0];

internalField   nonuniform List<scalar> 
300
(
0.132756
0.0866851
0.0682515
0.062946
0.0610066
0.0597607
0.0587443
0.0577914
0.0568828
0.0560457
0.0552982
0.0546238
0.0540038
0.0534484
0.0529437
0.0524819
0.0520558
0.0516578
0.0512919
0.0509601
0.0506499
0.0503553
0.0500767
0.0498134
0.049566
0.0493299
0.0491062
0.0488915
0.0486878
0.0484939
0.048308
0.0481301
0.0479586
0.0477943
0.0476363
0.0474852
0.0473384
0.0471975
0.0470608
0.0469287
0.0468019
0.0466782
0.0465593
0.046443
0.0463307
0.0462214
0.0461158
0.046013
0.0459127
0.0458155
0.0457203
0.045628
0.0455381
0.0454503
0.0453649
0.0452811
0.0451997
0.0451194
0.0450406
0.0449636
0.0448882
0.0448148
0.0447428
0.0446724
0.0446036
0.0445363
0.0444703
0.0444056
0.0443422
0.04428
0.0442191
0.0441594
0.0441009
0.0440433
0.0439868
0.0439314
0.0438769
0.0438235
0.043771
0.0437194
0.0436687
0.0436188
0.0435698
0.0435216
0.0434741
0.0434276
0.0433817
0.0433364
0.0432921
0.0432482
0.0432052
0.0431628
0.043121
0.0430799
0.0430393
0.0429994
0.0429601
0.0429212
0.0428831
0.0428454
0.0428082
0.0427716
0.0427355
0.0426999
0.0426648
0.0426301
0.0425959
0.0425622
0.0425289
0.0424961
0.0424636
0.0424316
0.0424001
0.0423689
0.0423381
0.0423077
0.0422777
0.0422481
0.0422188
0.0421899
0.0421614
0.0421332
0.0421054
0.0420779
0.0420507
0.0420239
0.0419975
0.0419713
0.0419455
0.0419199
0.0418945
0.0418693
0.0418443
0.0418195
0.0417949
0.0417705
0.0417464
0.0417225
0.041699
0.0416758
0.041653
0.0416305
0.0416084
0.0415866
0.0415651
0.0415439
0.041523
0.0415023
0.0414817
0.0414614
0.0414412
0.0414211
0.0414011
0.0413813
0.0413616
0.0413421
0.0413227
0.0413035
0.0412845
0.0412657
0.0412471
0.0412287
0.0412105
0.0411925
0.0411747
0.0411571
0.0411397
0.0411224
0.0411053
0.0410884
0.0410717
0.0410551
0.0410386
0.0410223
0.0410061
0.0409901
0.0409743
0.0409585
0.0409429
0.0409275
0.0409122
0.040897
0.040882
0.0408671
0.0408524
0.0408377
0.0408233
0.0408089
0.0407947
0.0407806
0.0407666
0.0407527
0.040739
0.0407254
0.0407119
0.0406985
0.0406852
0.0406721
0.040659
0.0406461
0.0406333
0.0406206
0.040608
0.0405955
0.0405831
0.0405708
0.0405586
0.0405465
0.0405346
0.0405227
0.0405109
0.0404992
0.0404876
0.0404761
0.0404647
0.0404534
0.0404422
0.0404311
0.0404201
0.0404091
0.0403983
0.0403875
0.0403768
0.0403663
0.0403557
0.0403453
0.040335
0.0403247
0.0403145
0.0403045
0.0402944
0.0402845
0.0402747
0.0402649
0.0402552
0.0402456
0.040236
0.0402266
0.0402172
0.0402079
0.0401986
0.0401895
0.0401803
0.0401713
0.0401623
0.0401535
0.0401446
0.0401359
0.0401272
0.0401186
0.04011
0.0401016
0.0400931
0.0400848
0.0400764
0.0400682
0.04006
0.040052
0.0400439
0.0400359
0.040028
0.0400201
0.0400123
0.0400046
0.0399969
0.0399892
0.0399818
0.0399741
0.0399668
0.0399592
0.0399521
0.0399445
0.0399376
0.03993
0.0399234
0.0399157
0.0399094
0.0399016
0.0398955
0.0398877
0.0398819
0.039874
0.0398685
0.0398604
0.0398552
0.0398469
0.039842
0.0398336
0.0398289
0.0398204
0.0398158
0.0398073
0.0398026
0.0397937
0.0397909
0.0397793
0.0397833
0.0397634
0.0397789
0.039736
)
;

boundaryField
{
    inlet
    {
        type            calculated;
        value           uniform 0;
    }
    outlet
    {
        type            calculated;
        value           uniform 0;
    }
    sideWall
    {
        type            empty;
    }
}


// ************************************************************************* //
