/*--------------------------------*- C++ -*----------------------------------*\
| =========                 |                                                 |
| \\      /  F ield         | foam-extend: Open Source CFD                    |
|  \\    /   O peration     | Version:     3.2                                |
|   \\  /    A nd           | Web:         http://www.foam-extend.org         |
|    \\/     M anipulation  | For copyright notice see file Copyright         |
\*---------------------------------------------------------------------------*/
FoamFile
{
    version     2.0;
    format      ascii;
    class       areaScalarField;
    location    "1440";
    object      a;
}
// * * * * * * * * * * * * * * * * * * * * * * * * * * * * * * * * * * * * * //

dimensions      [1 -1 0 0 0 0 0];

internalField   nonuniform List<scalar> 
550
(
2.78678e-05
2.78443e-05
2.78678e-05
2.78678e-05
2.78678e-05
2.78678e-05
2.76967e-05
2.78678e-05
2.78678e-05
2.76304e-05
2.78678e-05
2.78678e-05
2.78678e-05
2.78678e-05
2.78678e-05
2.78678e-05
2.78678e-05
2.78678e-05
2.78678e-05
2.78678e-05
2.78678e-05
2.78678e-05
2.78678e-05
2.78678e-05
2.78678e-05
2.78678e-05
2.78678e-05
2.78678e-05
2.78678e-05
2.78678e-05
2.78678e-05
2.78678e-05
2.78678e-05
2.78678e-05
2.78678e-05
2.78678e-05
2.78678e-05
2.78678e-05
2.78678e-05
2.78678e-05
2.78678e-05
2.78678e-05
2.78678e-05
2.78678e-05
2.78678e-05
2.78678e-05
2.78678e-05
2.78678e-05
2.78678e-05
2.78678e-05
2.78678e-05
2.78678e-05
2.78678e-05
2.78678e-05
2.78678e-05
2.78678e-05
2.78678e-05
2.78678e-05
2.78678e-05
2.78678e-05
2.78678e-05
2.77015e-05
2.78678e-05
2.52257e-05
2.49247e-05
2.77027e-05
2.77018e-05
2.77057e-05
2.35544e-05
2.77071e-05
2.77071e-05
2.77116e-05
2.12625e-05
2.02065e-05
2.77176e-05
2.77172e-05
2.77124e-05
2.77175e-05
2.77157e-05
2.78678e-05
1.43311e-05
2.77093e-05
2.77056e-05
2.77038e-05
2.77013e-05
2.77037e-05
2.77023e-05
2.76961e-05
2.76949e-05
2.76976e-05
2.78678e-05
2.76941e-05
2.76827e-05
2.7679e-05
2.76718e-05
2.76698e-05
2.76721e-05
2.76673e-05
2.76593e-05
2.76588e-05
2.76594e-05
2.76569e-05
2.76552e-05
2.76544e-05
2.76486e-05
2.76479e-05
2.76535e-05
4.45805e-06
2.76441e-05
2.76512e-05
2.76472e-05
2.76454e-05
2.76544e-05
2.76683e-05
2.76526e-05
2.76555e-05
2.76437e-05
2.76491e-05
2.76538e-05
2.76848e-05
2.76688e-05
2.77407e-05
2.78193e-05
2.77252e-05
2.76268e-05
2.75045e-05
2.73848e-05
2.72642e-05
2.71493e-05
2.70394e-05
2.6937e-05
2.6842e-05
2.67567e-05
2.66796e-05
2.66189e-05
2.65966e-05
2.65226e-05
2.65943e-05
2.68823e-05
2.68461e-05
2.68415e-05
2.71597e-05
2.71261e-05
2.70932e-05
2.70645e-05
2.70331e-05
2.69983e-05
2.69624e-05
2.69272e-05
2.6899e-05
2.68777e-05
2.68636e-05
2.68546e-05
2.68501e-05
2.68521e-05
2.68631e-05
2.68799e-05
2.6897e-05
2.69077e-05
2.69166e-05
2.69459e-05
2.69916e-05
2.70561e-05
2.71379e-05
2.72194e-05
2.7284e-05
2.7315e-05
2.73349e-05
2.73832e-05
2.74935e-05
2.9404e-05
2.93797e-05
2.93571e-05
2.93347e-05
2.93142e-05
2.92939e-05
2.92737e-05
2.92555e-05
2.92375e-05
2.92205e-05
2.92046e-05
2.9189e-05
2.91744e-05
2.91608e-05
2.91474e-05
2.91349e-05
2.91225e-05
2.91112e-05
2.91006e-05
2.90901e-05
2.90795e-05
2.90699e-05
2.9061e-05
2.90512e-05
2.90431e-05
2.90339e-05
2.90265e-05
2.9018e-05
2.90102e-05
2.90023e-05
2.89952e-05
2.89879e-05
2.89805e-05
2.89729e-05
2.89661e-05
2.89592e-05
2.89519e-05
2.89455e-05
2.89388e-05
2.89318e-05
2.89246e-05
2.89169e-05
2.891e-05
2.89018e-05
2.88943e-05
2.88867e-05
2.88778e-05
2.887e-05
2.8862e-05
2.88541e-05
2.88461e-05
2.88383e-05
2.88295e-05
2.88219e-05
2.88145e-05
2.88059e-05
2.87984e-05
2.87897e-05
2.8782e-05
2.87732e-05
2.87642e-05
2.87552e-05
2.87461e-05
2.87359e-05
2.87268e-05
2.87177e-05
2.87075e-05
2.86984e-05
2.86883e-05
2.86792e-05
2.8669e-05
2.86588e-05
2.86496e-05
2.86394e-05
2.8629e-05
2.86188e-05
2.86085e-05
2.85983e-05
2.8588e-05
2.85779e-05
2.85679e-05
2.85579e-05
2.85481e-05
2.85385e-05
2.85291e-05
2.85201e-05
2.85112e-05
2.85018e-05
2.84936e-05
2.84858e-05
2.84794e-05
2.84723e-05
2.84657e-05
2.84594e-05
2.84535e-05
2.84489e-05
2.84438e-05
2.8439e-05
2.84354e-05
2.84311e-05
2.84282e-05
2.84253e-05
2.84218e-05
2.84195e-05
2.84175e-05
2.84157e-05
2.84143e-05
2.84133e-05
2.84136e-05
2.84133e-05
2.84135e-05
2.84148e-05
2.84157e-05
2.84179e-05
2.84203e-05
2.84231e-05
2.84263e-05
2.84297e-05
2.84335e-05
2.84385e-05
2.84428e-05
2.84484e-05
2.84533e-05
2.84593e-05
2.84657e-05
2.84722e-05
2.84789e-05
2.84857e-05
2.84927e-05
2.84998e-05
2.85069e-05
2.85141e-05
2.85221e-05
2.85292e-05
2.8537e-05
2.85438e-05
2.85513e-05
2.85577e-05
2.85645e-05
2.8571e-05
2.85763e-05
2.8582e-05
2.85862e-05
2.85908e-05
2.85947e-05
2.85973e-05
2.86e-05
2.86013e-05
2.86027e-05
2.86028e-05
2.86029e-05
2.86025e-05
2.86016e-05
2.85996e-05
2.85978e-05
2.85954e-05
2.85926e-05
2.85898e-05
2.85861e-05
2.8582e-05
2.85776e-05
2.85731e-05
2.85678e-05
2.85621e-05
2.85562e-05
2.85495e-05
2.85423e-05
2.85348e-05
2.85263e-05
2.85174e-05
2.85077e-05
2.84972e-05
2.84861e-05
2.84742e-05
2.84616e-05
2.84483e-05
2.84344e-05
2.842e-05
2.8405e-05
2.83895e-05
2.83736e-05
2.83572e-05
2.83407e-05
2.83239e-05
2.83066e-05
2.82894e-05
2.82724e-05
2.82549e-05
2.82373e-05
2.82198e-05
2.8202e-05
2.81843e-05
2.81665e-05
2.81485e-05
2.81305e-05
2.81124e-05
2.80942e-05
2.80759e-05
2.80579e-05
2.80395e-05
2.80214e-05
2.80029e-05
2.79847e-05
2.79663e-05
2.79484e-05
2.79306e-05
2.7913e-05
2.78958e-05
2.78787e-05
2.78616e-05
2.78449e-05
2.78288e-05
2.78128e-05
2.77974e-05
2.77825e-05
2.77677e-05
2.77539e-05
2.77402e-05
2.77275e-05
2.7715e-05
2.7703e-05
2.76916e-05
2.76807e-05
2.76703e-05
2.76604e-05
2.76509e-05
2.76414e-05
2.76328e-05
2.76241e-05
2.76164e-05
2.76085e-05
2.76018e-05
2.75947e-05
2.7588e-05
2.75824e-05
2.75763e-05
2.75707e-05
2.75654e-05
2.75603e-05
2.75554e-05
2.75509e-05
2.75466e-05
2.75427e-05
2.75381e-05
2.75345e-05
2.75313e-05
2.75282e-05
2.75246e-05
2.7522e-05
2.75188e-05
2.75167e-05
2.75139e-05
2.75113e-05
2.75099e-05
2.75076e-05
2.75056e-05
2.75037e-05
2.75019e-05
2.75003e-05
2.74989e-05
2.74976e-05
2.74965e-05
2.74954e-05
2.74944e-05
2.74934e-05
2.74925e-05
2.74915e-05
2.74904e-05
2.74893e-05
2.7488e-05
2.74855e-05
2.7484e-05
2.74822e-05
2.74802e-05
2.74772e-05
2.74748e-05
2.74721e-05
2.74691e-05
2.74656e-05
2.74617e-05
2.74574e-05
2.74525e-05
2.74462e-05
2.74404e-05
2.74341e-05
2.74274e-05
2.74204e-05
2.7413e-05
2.74053e-05
2.73972e-05
2.73888e-05
2.73801e-05
2.7371e-05
2.73617e-05
2.73522e-05
2.73425e-05
2.73326e-05
2.73225e-05
2.73121e-05
2.73015e-05
2.72907e-05
2.72794e-05
2.72678e-05
2.72559e-05
2.72436e-05
2.72308e-05
2.72189e-05
2.72053e-05
2.71913e-05
2.71782e-05
2.71635e-05
2.71486e-05
2.71346e-05
2.71192e-05
2.71049e-05
2.70892e-05
2.70746e-05
2.70585e-05
2.70436e-05
2.70273e-05
2.70122e-05
2.69958e-05
2.69806e-05
2.6964e-05
2.69485e-05
2.69317e-05
2.69158e-05
2.68996e-05
2.6882e-05
2.68652e-05
2.68482e-05
2.68308e-05
2.68132e-05
2.67953e-05
2.67773e-05
2.67579e-05
2.67398e-05
2.67217e-05
2.67037e-05
2.6686e-05
2.66683e-05
2.66494e-05
2.66319e-05
2.66143e-05
2.65968e-05
2.65783e-05
2.65609e-05
2.65439e-05
2.65255e-05
2.65087e-05
2.64918e-05
2.64739e-05
2.6457e-05
2.64413e-05
2.64244e-05
2.64086e-05
2.63928e-05
2.63764e-05
2.63621e-05
2.63474e-05
2.63338e-05
2.63139e-05
2.63004e-05
2.62617e-05
2.62333e-05
2.61346e-05
2.60142e-05
2.5741e-05
2.51048e-05
2.55133e-05
2.78678e-05
2.78678e-05
2.78678e-05
2.78678e-05
2.78678e-05
2.78678e-05
2.78678e-05
2.78678e-05
1.63929e-05
1.78219e-05
)
;

boundaryField
{
    inlet
    {
        type            calculated;
        value           uniform 0;
    }
    endWall
    {
        type            calculated;
        value           uniform 0;
    }
    sideWall
    {
        type            empty;
    }
}


// ************************************************************************* //
