/*--------------------------------*- C++ -*----------------------------------*\
| =========                 |                                                 |
| \\      /  F ield         | foam-extend: Open Source CFD                    |
|  \\    /   O peration     | Version:     3.2                                |
|   \\  /    A nd           | Web:         http://www.foam-extend.org         |
|    \\/     M anipulation  | For copyright notice see file Copyright         |
\*---------------------------------------------------------------------------*/
FoamFile
{
    version     2.0;
    format      ascii;
    class       surfaceScalarField;
    location    "1440";
    object      AdSS2;
}
// * * * * * * * * * * * * * * * * * * * * * * * * * * * * * * * * * * * * * //

dimensions      [0 3 -1 0 0 0 0];

internalField   nonuniform List<scalar> 
65390
(
3.74908e-05
3.69778e-07
3.6965e-05
3.86281e-07
3.62834e-05
5.42144e-07
3.55943e-05
5.49576e-07
3.48691e-05
5.8579e-07
3.41883e-05
5.41338e-07
3.35147e-05
5.34055e-07
3.28869e-05
4.88386e-07
3.22748e-05
4.72635e-07
3.16836e-05
4.51742e-07
3.11139e-05
4.30243e-07
3.05868e-05
3.87622e-07
3.00703e-05
3.7698e-07
2.95753e-05
3.55578e-07
2.91044e-05
3.31428e-07
2.86507e-05
3.14166e-07
2.82131e-05
2.98121e-07
2.77962e-05
2.77502e-07
2.73987e-05
2.58029e-07
2.70217e-05
2.37468e-07
2.66577e-05
2.24546e-07
2.63072e-05
2.11086e-07
2.59735e-05
1.94162e-07
2.56552e-05
1.78878e-07
2.53537e-05
1.62028e-07
2.5066e-05
1.48176e-07
2.47958e-05
1.30758e-07
2.45431e-05
1.13242e-07
2.43041e-05
9.95697e-08
2.40775e-05
8.70655e-08
2.38611e-05
7.69887e-08
2.36556e-05
6.59627e-08
2.34625e-05
5.3618e-08
2.32805e-05
4.25404e-08
2.31102e-05
3.08903e-08
2.29488e-05
2.18929e-08
2.27945e-05
1.48199e-08
2.2651e-05
4.02454e-09
2.25157e-05
-4.18774e-09
2.23859e-05
-9.68458e-09
2.22662e-05
-1.96793e-08
2.21538e-05
-2.71292e-08
2.20458e-05
-3.14562e-08
2.19447e-05
-3.83485e-08
2.18501e-05
-4.49293e-08
2.17611e-05
-5.04196e-08
2.16772e-05
-5.55927e-08
2.15977e-05
-5.99928e-08
2.15241e-05
-6.5838e-08
2.14556e-05
-7.10152e-08
2.13889e-05
-7.26795e-08
2.13252e-05
-7.58442e-08
2.12656e-05
-7.98752e-08
2.12092e-05
-8.30391e-08
2.1156e-05
-8.62262e-08
2.11051e-05
-8.86121e-08
2.10555e-05
-8.98717e-08
2.10139e-05
-9.7924e-08
2.09635e-05
-8.90018e-08
2.09263e-05
-1.0229e-07
2.08786e-05
-7.50942e-08
2.08507e-05
-3.89707e-08
2.08245e-05
-1.82402e-08
2.07791e-05
-1.31529e-07
2.06725e-05
-2.17866e-07
2.06016e-05
-1.47495e-07
2.06008e-05
5.8067e-08
2.06261e-05
1.08294e-07
2.05594e-05
-8.14952e-08
2.04679e-05
-1.95024e-07
2.04778e-05
6.69976e-08
2.05437e-05
2.10452e-07
2.04745e-05
-7.20164e-08
2.03326e-05
-3.59712e-07
2.02437e-05
-2.93912e-07
2.01845e-05
-1.79797e-07
2.00666e-05
-1.23531e-07
2.00095e-05
1.34284e-07
2.00854e-05
4.41777e-07
2.00407e-05
3.92312e-08
1.98073e-05
-5.32365e-07
1.9688e-05
-4.42324e-07
1.96686e-05
-2.19022e-07
1.95888e-05
-1.59425e-07
1.95731e-05
1.27322e-07
1.9743e-05
4.43913e-07
1.97321e-05
6.70034e-08
1.95193e-05
-2.31628e-07
1.96475e-05
4.90939e-07
1.99582e-05
8.39757e-07
1.99078e-05
2.47939e-08
1.96889e-05
-6.77394e-07
1.96354e-05
-5.15854e-07
1.96286e-05
-2.10694e-07
1.9651e-05
1.01698e-07
1.98408e-05
4.32359e-07
1.98941e-05
5.44161e-08
1.9738e-05
-5.70088e-07
1.9673e-05
-4.81363e-07
1.96881e-05
-2.19251e-07
1.96856e-05
-1.97596e-07
1.96965e-05
-2.09953e-07
1.96818e-05
-1.83328e-07
1.96519e-05
-1.67617e-07
1.969e-05
8.73759e-08
1.98589e-05
4.42599e-07
1.98926e-05
9.73359e-08
1.97483e-05
-5.29159e-07
1.96832e-05
-4.44867e-07
1.97129e-05
-2.1354e-07
1.97223e-05
-1.9216e-07
1.97129e-05
-1.71045e-07
1.96872e-05
-1.47212e-07
1.97187e-05
-2.02501e-07
1.97127e-05
-1.6902e-07
1.97159e-05
-1.77409e-07
1.9697e-05
-1.52401e-07
1.96876e-05
-1.58508e-07
1.96476e-05
-1.20974e-07
1.96868e-05
-1.95359e-07
1.9619e-05
-8.05985e-08
1.9609e-05
-1.10117e-07
1.97417e-05
-2.36073e-07
1.99191e-05
-3.00667e-07
2.00109e-05
-2.31232e-07
2.00694e-05
-1.98053e-07
2.01164e-05
-1.8652e-07
2.01503e-05
-1.7338e-07
2.0182e-05
-1.71138e-07
2.02016e-05
-1.59217e-07
2.02204e-05
-1.58302e-07
2.02262e-05
-1.45252e-07
2.02322e-05
-1.45595e-07
2.0219e-05
-1.26694e-07
2.02164e-05
-1.37805e-07
2.01838e-05
-1.08047e-07
2.01118e-05
-6.84149e-08
2.0074e-05
-1.02317e-07
2.00816e-05
-1.47583e-07
2.00602e-05
-1.18644e-07
2.00397e-05
-1.19582e-07
2.00704e-05
-1.70636e-07
2.01165e-05
-1.86185e-07
2.01288e-05
-1.52304e-07
2.01421e-05
-1.53371e-07
2.015e-05
-1.48088e-07
2.0157e-05
-1.47218e-07
2.01563e-05
-1.39604e-07
2.01547e-05
-1.38799e-07
2.01464e-05
-1.32091e-07
2.0136e-05
-1.30099e-07
2.01307e-05
-1.3516e-07
2.01135e-05
-1.23291e-07
2.01086e-05
-1.3568e-07
2.00827e-05
-1.14566e-07
2.00864e-05
-1.44177e-07
2.00575e-05
-1.11667e-07
2.00675e-05
-1.50528e-07
2.00265e-05
-9.95155e-08
2.00251e-05
-1.39198e-07
1.99607e-05
-7.61189e-08
1.99488e-05
-1.28749e-07
1.98746e-05
-6.64782e-08
1.9867e-05
-1.32972e-07
1.98018e-05
-7.54355e-08
1.98068e-05
-1.4567e-07
1.97219e-05
-5.56924e-08
1.9698e-05
-1.16803e-07
1.9411e-05
1.46296e-07
1.90693e-05
2.01035e-07
1.89917e-05
-6.30028e-08
1.91046e-05
-2.53544e-07
1.91236e-05
-1.59628e-07
1.91119e-05
-1.28921e-07
1.91152e-05
-1.43962e-07
1.90958e-05
-1.2113e-07
1.90967e-05
-1.41535e-07
1.90797e-05
-1.23542e-07
1.90808e-05
-1.41796e-07
1.90673e-05
-1.27072e-07
1.90692e-05
-1.42342e-07
1.90589e-05
-1.30276e-07
1.90612e-05
-1.42776e-07
1.90537e-05
-1.32969e-07
1.90562e-05
-1.43068e-07
1.90506e-05
-1.34729e-07
1.90531e-05
-1.42936e-07
1.90486e-05
-1.35914e-07
1.90514e-05
-1.43133e-07
1.90488e-05
-1.37821e-07
1.90512e-05
-1.42679e-07
1.90504e-05
-1.39506e-07
1.90532e-05
-1.43107e-07
1.9054e-05
-1.41068e-07
1.90573e-05
-1.43505e-07
1.90583e-05
-1.41276e-07
1.90615e-05
-1.43359e-07
1.90626e-05
-1.41238e-07
1.90655e-05
-1.42962e-07
1.90662e-05
-1.40762e-07
1.90688e-05
-1.42753e-07
1.90693e-05
-1.40525e-07
1.90716e-05
-1.42207e-07
1.90716e-05
-1.40011e-07
1.90737e-05
-1.41984e-07
1.90734e-05
-1.39662e-07
1.90751e-05
-1.41668e-07
1.90748e-05
-1.39589e-07
1.90766e-05
-1.41662e-07
1.90764e-05
-1.39632e-07
1.90779e-05
-1.41463e-07
1.90777e-05
-1.39716e-07
1.90791e-05
-1.41297e-07
1.90785e-05
-1.39346e-07
1.90799e-05
-1.4131e-07
1.90794e-05
-1.39355e-07
1.90803e-05
-1.40924e-07
1.90795e-05
-1.39161e-07
1.90805e-05
-1.40923e-07
1.90796e-05
-1.391e-07
1.90807e-05
-1.41052e-07
1.90797e-05
-1.38999e-07
1.90808e-05
-1.41061e-07
1.90797e-05
-1.38871e-07
1.90812e-05
-1.41451e-07
1.90803e-05
-1.39003e-07
1.90822e-05
-1.41716e-07
1.90813e-05
-1.39064e-07
1.90836e-05
-1.42171e-07
1.90828e-05
-1.39078e-07
1.90852e-05
-1.42184e-07
1.90841e-05
-1.38717e-07
1.90867e-05
-1.42347e-07
1.90851e-05
-1.3821e-07
1.90877e-05
-1.42392e-07
1.90858e-05
-1.37833e-07
1.90886e-05
-1.42456e-07
1.90862e-05
-1.37311e-07
1.90889e-05
-1.42434e-07
1.90863e-05
-1.37198e-07
1.90893e-05
-1.42678e-07
1.90864e-05
-1.36803e-07
1.90899e-05
-1.43138e-07
1.90869e-05
-1.36763e-07
1.90907e-05
-1.43505e-07
1.90873e-05
-1.36393e-07
1.90913e-05
-1.4368e-07
1.90874e-05
-1.35915e-07
1.90919e-05
-1.44217e-07
1.90875e-05
-1.35428e-07
1.90925e-05
-1.44799e-07
1.90875e-05
-1.34807e-07
1.9093e-05
-1.45346e-07
1.90872e-05
-1.33938e-07
1.90933e-05
-1.45973e-07
1.90867e-05
-1.33259e-07
1.90934e-05
-1.46423e-07
1.90856e-05
-1.31946e-07
1.90924e-05
-1.46588e-07
1.90833e-05
-1.30651e-07
1.9091e-05
-1.47398e-07
1.90812e-05
-1.29932e-07
1.90894e-05
-1.47914e-07
1.90783e-05
-1.28469e-07
1.9087e-05
-1.48361e-07
1.90746e-05
-1.27161e-07
1.90841e-05
-1.49097e-07
1.90704e-05
-1.25866e-07
1.90807e-05
-1.49783e-07
1.90657e-05
-1.24505e-07
1.90767e-05
-1.50464e-07
1.90606e-05
-1.23317e-07
1.9072e-05
-1.50914e-07
1.90543e-05
-1.21774e-07
1.90657e-05
-1.50833e-07
1.9047e-05
-1.20742e-07
1.90577e-05
-1.50105e-07
1.90381e-05
-1.19947e-07
1.90476e-05
-1.48924e-07
1.90282e-05
-1.20001e-07
1.90366e-05
-1.47791e-07
1.90179e-05
-1.20722e-07
1.90242e-05
-1.45789e-07
1.90066e-05
-1.21968e-07
1.90121e-05
-1.449e-07
1.89966e-05
-1.23968e-07
1.90003e-05
-1.43269e-07
1.8986e-05
-1.25119e-07
1.8988e-05
-1.41595e-07
1.89749e-05
-1.26466e-07
1.8976e-05
-1.40577e-07
1.89634e-05
-1.26962e-07
1.89636e-05
-1.39673e-07
1.8952e-05
-1.27973e-07
1.89509e-05
-1.38502e-07
1.89404e-05
-1.2909e-07
1.89386e-05
-1.37745e-07
1.89288e-05
-1.29764e-07
1.89269e-05
-1.37697e-07
1.89174e-05
-1.30121e-07
1.89151e-05
-1.37235e-07
1.8906e-05
-1.30521e-07
1.89035e-05
-1.37073e-07
1.88954e-05
-1.31467e-07
1.8893e-05
-1.37207e-07
1.88853e-05
-1.32023e-07
1.88828e-05
-1.37129e-07
1.88755e-05
-1.32367e-07
1.88735e-05
-1.37662e-07
1.88672e-05
-1.33292e-07
1.88653e-05
-1.37908e-07
1.886e-05
-1.34423e-07
1.88581e-05
-1.37899e-07
1.88533e-05
-1.3495e-07
1.88521e-05
-1.38527e-07
1.88486e-05
-1.36385e-07
1.88476e-05
-1.38906e-07
1.8845e-05
-1.37271e-07
1.88447e-05
-1.39573e-07
1.88427e-05
-1.3792e-07
1.88424e-05
-1.39696e-07
1.8841e-05
-1.38561e-07
1.88414e-05
-1.40413e-07
1.88403e-05
-1.38866e-07
1.88407e-05
-1.40435e-07
1.88399e-05
-1.39087e-07
1.88405e-05
-1.40593e-07
1.88404e-05
-1.3993e-07
1.88411e-05
-1.40678e-07
1.88409e-05
-1.39695e-07
1.88418e-05
-1.40707e-07
1.88422e-05
-1.40337e-07
1.88433e-05
-1.40963e-07
1.88437e-05
-1.40221e-07
1.88452e-05
-1.41266e-07
1.88465e-05
-1.41158e-07
1.88482e-05
-1.4146e-07
1.88499e-05
-1.41441e-07
1.88524e-05
-1.42222e-07
1.88546e-05
-1.41939e-07
1.88575e-05
-1.42569e-07
1.88604e-05
-1.42562e-07
1.8864e-05
-1.43183e-07
1.88679e-05
-1.43621e-07
1.88722e-05
-1.43877e-07
1.88764e-05
-1.43828e-07
1.88807e-05
-1.43908e-07
1.88855e-05
-1.44395e-07
1.88909e-05
-1.4487e-07
1.8896e-05
-1.44766e-07
1.89024e-05
-1.45939e-07
1.89099e-05
-1.46981e-07
1.89183e-05
-1.47928e-07
1.89267e-05
-1.47845e-07
1.89352e-05
-1.48037e-07
1.89435e-05
-1.47816e-07
1.89518e-05
-1.47661e-07
1.89601e-05
-1.47702e-07
1.89683e-05
-1.47579e-07
1.89766e-05
-1.47632e-07
1.89848e-05
-1.47657e-07
1.8993e-05
-1.47498e-07
1.90013e-05
-1.47548e-07
1.90096e-05
-1.47533e-07
1.90174e-05
-1.47148e-07
1.90257e-05
-1.47587e-07
1.90335e-05
-1.47066e-07
1.90418e-05
-1.47438e-07
1.90495e-05
-1.46967e-07
1.90577e-05
-1.47379e-07
1.90656e-05
-1.47103e-07
1.90732e-05
-1.4689e-07
1.90808e-05
-1.468e-07
1.90881e-05
-1.46443e-07
1.90954e-05
-1.46429e-07
1.91026e-05
-1.46339e-07
1.91095e-05
-1.45988e-07
1.9116e-05
-1.45504e-07
1.91223e-05
-1.45358e-07
1.91286e-05
-1.45281e-07
1.91346e-05
-1.45005e-07
1.91407e-05
-1.45056e-07
1.91462e-05
-1.44541e-07
1.91514e-05
-1.44199e-07
1.91566e-05
-1.44123e-07
1.91616e-05
-1.43903e-07
1.91658e-05
-1.43165e-07
1.91702e-05
-1.43469e-07
1.91743e-05
-1.43121e-07
1.91785e-05
-1.43238e-07
1.91821e-05
-1.42671e-07
1.91854e-05
-1.42481e-07
1.91889e-05
-1.42604e-07
1.91922e-05
-1.42565e-07
1.91952e-05
-1.42364e-07
1.91978e-05
-1.41926e-07
1.92006e-05
-1.42191e-07
1.92031e-05
-1.41986e-07
1.92055e-05
-1.42128e-07
1.92079e-05
-1.42015e-07
1.92101e-05
-1.41769e-07
1.92119e-05
-1.41461e-07
1.92134e-05
-1.4127e-07
1.92152e-05
-1.41431e-07
1.92165e-05
-1.41002e-07
1.92178e-05
-1.40967e-07
1.92187e-05
-1.40487e-07
1.92196e-05
-1.40499e-07
1.92204e-05
-1.4044e-07
1.9221e-05
-1.40125e-07
1.92212e-05
-1.39681e-07
1.92215e-05
-1.39759e-07
1.92216e-05
-1.39593e-07
1.92214e-05
-1.39223e-07
1.92211e-05
-1.39082e-07
1.92208e-05
-1.39216e-07
1.92206e-05
-1.39336e-07
1.92201e-05
-1.38958e-07
1.92196e-05
-1.39108e-07
1.92189e-05
-1.38958e-07
1.92183e-05
-1.39085e-07
1.92174e-05
-1.38936e-07
1.92168e-05
-1.39164e-07
1.92161e-05
-1.39242e-07
1.92156e-05
-1.39459e-07
1.92148e-05
-1.39318e-07
1.92141e-05
-1.3951e-07
1.92133e-05
-1.39417e-07
1.92125e-05
-1.39497e-07
1.92117e-05
-1.3951e-07
1.9211e-05
-1.39673e-07
1.92103e-05
-1.39742e-07
1.92096e-05
-1.39728e-07
1.92089e-05
-1.3977e-07
1.92081e-05
-1.39706e-07
1.92073e-05
-1.397e-07
1.92065e-05
-1.39661e-07
1.92057e-05
-1.39813e-07
1.9205e-05
-1.39824e-07
1.92042e-05
-1.3971e-07
1.92034e-05
-1.39716e-07
1.92027e-05
-1.39752e-07
1.92022e-05
-1.40111e-07
1.92016e-05
-1.39816e-07
1.9201e-05
-1.39833e-07
1.92004e-05
-1.39844e-07
1.92001e-05
-1.40071e-07
1.91999e-05
-1.40111e-07
1.91999e-05
-1.40424e-07
1.92002e-05
-1.40527e-07
1.92008e-05
-1.40848e-07
1.92013e-05
-1.4065e-07
1.92019e-05
-1.40782e-07
1.92025e-05
-1.40844e-07
1.92034e-05
-1.40971e-07
1.92044e-05
-1.41063e-07
1.92056e-05
-1.41273e-07
1.92068e-05
-1.4124e-07
1.92082e-05
-1.41424e-07
1.92097e-05
-1.41525e-07
1.92113e-05
-1.41483e-07
1.9213e-05
-1.41622e-07
1.92148e-05
-1.41585e-07
1.92166e-05
-1.41619e-07
1.92185e-05
-1.41728e-07
1.92205e-05
-1.41686e-07
1.92226e-05
-1.41693e-07
1.92248e-05
-1.41775e-07
1.9227e-05
-1.41812e-07
1.92295e-05
-1.41999e-07
1.92322e-05
-1.42157e-07
1.92348e-05
-1.42107e-07
1.92376e-05
-1.42168e-07
1.92405e-05
-1.42332e-07
1.92433e-05
-1.42155e-07
1.92466e-05
-1.42879e-07
1.92499e-05
-1.42712e-07
1.92534e-05
-1.43033e-07
1.92571e-05
-1.43277e-07
1.92611e-05
-1.43622e-07
1.9265e-05
-1.43665e-07
1.92693e-05
-1.4404e-07
1.92735e-05
-1.44059e-07
1.92781e-05
-1.44458e-07
1.92826e-05
-1.44413e-07
1.92874e-05
-1.44771e-07
1.92921e-05
-1.44817e-07
1.92971e-05
-1.45057e-07
1.93021e-05
-1.45067e-07
1.93074e-05
-1.45408e-07
1.93127e-05
-1.45347e-07
1.93182e-05
-1.45685e-07
1.93236e-05
-1.45578e-07
1.93293e-05
-1.45756e-07
1.93347e-05
-1.45582e-07
1.93405e-05
-1.45884e-07
1.93464e-05
-1.46059e-07
1.93525e-05
-1.46383e-07
1.93587e-05
-1.46436e-07
1.9365e-05
-1.46607e-07
1.93715e-05
-1.46891e-07
1.93781e-05
-1.4699e-07
1.93848e-05
-1.47146e-07
1.93917e-05
-1.4742e-07
1.93983e-05
-1.47146e-07
1.94049e-05
-1.47186e-07
1.94114e-05
-1.47121e-07
1.94181e-05
-1.47268e-07
1.9425e-05
-1.47447e-07
1.94321e-05
-1.47617e-07
1.94388e-05
-1.47253e-07
1.94457e-05
-1.47313e-07
1.9452e-05
-1.46667e-07
1.94578e-05
-1.46114e-07
1.9466e-05
-1.48549e-07
1.947e-05
-1.44061e-07
1.948e-05
-1.50067e-07
1.94825e-05
-1.42526e-07
1.94983e-05
-1.55587e-07
1.94936e-05
-1.35202e-07
1.95234e-05
-1.69499e-07
1.95075e-05
-1.23763e-07
1.95601e-05
-1.92173e-07
1.95286e-05
-1.08233e-07
1.96055e-05
-2.16679e-07
1.9544e-05
-7.83599e-08
1.96377e-05
-2.33778e-07
1.95353e-05
-3.79107e-08
1.96289e-05
-2.34126e-07
1.94834e-05
4.62878e-09
1.95513e-05
-2.0913e-07
1.93722e-05
3.76142e-08
1.94185e-05
-1.87987e-07
1.92095e-05
6.69601e-08
1.91681e-05
-1.00826e-07
1.87726e-05
2.53186e-07
1.82919e-05
3.38364e-07
1.68445e-05
1.30531e-06
1.29435e-05
3.75954e-06
8.20693e-06
4.59642e-06
7.10205e-06
9.65424e-07
7.09063e-06
-1.28114e-07
5.75614e-06
1.19504e-06
3.82957e-06
1.78711e-06
1.42578e-06
2.26433e-06
6.11977e-08
1.22513e-06
-1.30372e-06
1.22547e-06
-2.64016e-06
1.1969e-06
-3.77132e-06
9.91699e-07
-3.91077e-06
3.78663e-05
5.03513e-07
3.76387e-05
6.13887e-07
3.72179e-05
9.62854e-07
3.67859e-05
9.81626e-07
3.63416e-05
1.03012e-06
3.59346e-05
9.48319e-07
3.55463e-05
9.22338e-07
3.5193e-05
8.41694e-07
3.48738e-05
7.91794e-07
3.46078e-05
7.17741e-07
3.43697e-05
6.68353e-07
3.41492e-05
6.08166e-07
3.39207e-05
6.05481e-07
3.3715e-05
5.61302e-07
3.35057e-05
5.4072e-07
3.32884e-05
5.31429e-07
3.30694e-05
5.17153e-07
3.28425e-05
5.04355e-07
3.26137e-05
4.86807e-07
3.23906e-05
4.60631e-07
3.2169e-05
4.46137e-07
3.19495e-05
4.30565e-07
3.17302e-05
4.13436e-07
3.15125e-05
3.966e-07
3.12987e-05
3.75841e-07
3.10843e-05
3.62541e-07
3.08734e-05
3.41672e-07
3.06667e-05
3.19935e-07
3.04664e-05
2.99925e-07
3.02717e-05
2.81744e-07
3.00806e-05
2.68119e-07
2.98947e-05
2.51798e-07
2.97142e-05
2.34122e-07
2.95398e-05
2.16986e-07
2.93714e-05
1.99242e-07
2.92081e-05
1.85249e-07
2.90496e-05
1.73326e-07
2.88957e-05
1.57837e-07
2.8747e-05
1.44594e-07
2.86035e-05
1.33816e-07
2.84645e-05
1.19236e-07
2.83306e-05
1.06812e-07
2.82018e-05
9.73357e-08
2.80769e-05
8.65924e-08
2.79562e-05
7.57101e-08
2.78404e-05
6.54586e-08
2.7728e-05
5.67868e-08
2.7619e-05
4.89956e-08
2.75135e-05
3.96317e-08
2.74118e-05
3.07358e-08
2.73126e-05
2.64616e-08
2.72164e-05
2.03839e-08
2.71222e-05
1.42743e-08
2.70315e-05
7.66393e-09
2.69428e-05
2.48555e-09
2.68576e-05
-3.33036e-09
2.67723e-05
-4.63619e-09
2.66932e-05
-1.88171e-08
2.66081e-05
-3.90868e-09
2.65331e-05
-2.72331e-08
2.64465e-05
1.14194e-08
2.63796e-05
2.80162e-08
2.63082e-05
5.30743e-08
2.62289e-05
-5.22345e-08
2.60971e-05
-8.60071e-08
2.60038e-05
-5.42531e-08
2.59605e-05
1.01463e-07
2.59507e-05
1.18056e-07
2.58667e-05
2.54281e-09
2.57703e-05
-9.8636e-08
2.57386e-05
9.86596e-08
2.57615e-05
1.87552e-07
2.5688e-05
1.45279e-09
2.55649e-05
-2.36569e-07
2.54704e-05
-1.99425e-07
2.54089e-05
-1.18311e-07
2.53065e-05
-2.10987e-08
2.52477e-05
1.9303e-07
2.52724e-05
4.17086e-07
2.52048e-05
1.06847e-07
2.49788e-05
-3.0635e-07
2.48234e-05
-2.869e-07
2.47508e-05
-1.46491e-07
2.46681e-05
-7.66469e-08
2.46372e-05
1.5817e-07
2.47519e-05
3.29242e-07
2.47389e-05
8.00237e-08
2.45873e-05
-8.00978e-08
2.46628e-05
4.15529e-07
2.48838e-05
6.18742e-07
2.48683e-05
4.0258e-08
2.46879e-05
-4.97028e-07
2.46029e-05
-4.30797e-07
2.45738e-05
-1.81569e-07
2.45688e-05
1.06647e-07
2.4704e-05
2.97185e-07
2.47522e-05
6.20327e-09
2.46382e-05
-4.56147e-07
2.45567e-05
-3.9984e-07
2.45429e-05
-2.05451e-07
2.45241e-05
-1.78735e-07
2.45164e-05
-2.02317e-07
2.44911e-05
-1.58006e-07
2.44524e-05
-1.28959e-07
2.44485e-05
9.13127e-08
2.45626e-05
3.28536e-07
2.45905e-05
6.93938e-08
2.44737e-05
-4.1236e-07
2.43981e-05
-3.69284e-07
2.44055e-05
-2.20861e-07
2.43801e-05
-1.66788e-07
2.43449e-05
-1.35911e-07
2.42976e-05
-9.98635e-08
2.42842e-05
-1.89151e-07
2.42453e-05
-1.30037e-07
2.42335e-05
-1.65668e-07
2.41792e-05
-9.80681e-08
2.41603e-05
-1.39634e-07
2.41057e-05
-6.63136e-08
2.41084e-05
-1.98077e-07
2.4055e-05
-2.71861e-08
2.41512e-05
-2.0631e-07
2.4211e-05
-2.95917e-07
2.4315e-05
-4.0465e-07
2.43855e-05
-3.01737e-07
2.4426e-05
-2.38604e-07
2.44588e-05
-2.19271e-07
2.44792e-05
-1.93792e-07
2.45028e-05
-1.94726e-07
2.45163e-05
-1.72742e-07
2.45286e-05
-1.70547e-07
2.45283e-05
-1.45e-07
2.45288e-05
-1.46098e-07
2.45123e-05
-1.10201e-07
2.45012e-05
-1.26641e-07
2.44648e-05
-7.1731e-08
2.44199e-05
-2.34941e-08
2.43947e-05
-7.70892e-08
2.43696e-05
-1.22466e-07
2.43507e-05
-9.97802e-08
2.43545e-05
-1.23342e-07
2.43526e-05
-1.68794e-07
2.43789e-05
-2.12428e-07
2.43872e-05
-1.60672e-07
2.43966e-05
-1.62782e-07
2.43971e-05
-1.48509e-07
2.44004e-05
-1.50596e-07
2.43962e-05
-1.35373e-07
2.43933e-05
-1.35889e-07
2.43835e-05
-1.22331e-07
2.43736e-05
-1.20149e-07
2.43629e-05
-1.24456e-07
2.43459e-05
-1.06347e-07
2.43397e-05
-1.29412e-07
2.43124e-05
-8.72395e-08
2.43178e-05
-1.49673e-07
2.42768e-05
-7.06668e-08
2.42965e-05
-1.70143e-07
2.42329e-05
-3.59524e-08
2.42527e-05
-1.58979e-07
2.41671e-05
9.41372e-09
2.41801e-05
-1.41723e-07
2.40872e-05
2.64034e-08
2.40976e-05
-1.43333e-07
2.40061e-05
1.606e-08
2.40076e-05
-1.47199e-07
2.3891e-05
6.09874e-08
2.38325e-05
-5.83936e-08
2.35842e-05
3.94613e-07
2.34841e-05
3.01146e-07
2.33588e-05
6.22778e-08
2.33591e-05
-2.53819e-07
2.33798e-05
-1.80318e-07
2.33476e-05
-9.67161e-08
2.33505e-05
-1.46852e-07
2.3315e-05
-8.56404e-08
2.33134e-05
-1.39941e-07
2.32818e-05
-9.19799e-08
2.32791e-05
-1.39062e-07
2.32523e-05
-1.00303e-07
2.32492e-05
-1.39204e-07
2.32267e-05
-1.07754e-07
2.32235e-05
-1.39602e-07
2.32047e-05
-1.14132e-07
2.32013e-05
-1.39682e-07
2.31854e-05
-1.18847e-07
2.3182e-05
-1.39501e-07
2.31686e-05
-1.22556e-07
2.31651e-05
-1.39668e-07
2.31547e-05
-1.27347e-07
2.31521e-05
-1.40064e-07
2.31442e-05
-1.31639e-07
2.31401e-05
-1.39014e-07
2.31339e-05
-1.34885e-07
2.31302e-05
-1.39814e-07
2.31244e-05
-1.35463e-07
2.31213e-05
-1.40255e-07
2.31157e-05
-1.3559e-07
2.31129e-05
-1.40236e-07
2.31075e-05
-1.35361e-07
2.3105e-05
-1.40214e-07
2.30998e-05
-1.35375e-07
2.30975e-05
-1.39877e-07
2.30924e-05
-1.34916e-07
2.30899e-05
-1.3951e-07
2.30849e-05
-1.34598e-07
2.30826e-05
-1.39441e-07
2.30779e-05
-1.3485e-07
2.3076e-05
-1.39729e-07
2.30715e-05
-1.35195e-07
2.30699e-05
-1.39805e-07
2.30657e-05
-1.35517e-07
2.30641e-05
-1.39671e-07
2.306e-05
-1.3529e-07
2.30583e-05
-1.39646e-07
2.30543e-05
-1.3528e-07
2.30528e-05
-1.39461e-07
2.30489e-05
-1.35214e-07
2.30473e-05
-1.39413e-07
2.30436e-05
-1.35349e-07
2.30423e-05
-1.39798e-07
2.30385e-05
-1.35178e-07
2.30374e-05
-1.3992e-07
2.30336e-05
-1.35093e-07
2.3033e-05
-1.40841e-07
2.30293e-05
-1.353e-07
2.30292e-05
-1.41629e-07
2.30255e-05
-1.3535e-07
2.3026e-05
-1.42668e-07
2.30221e-05
-1.35158e-07
2.30232e-05
-1.4329e-07
2.30189e-05
-1.34438e-07
2.30203e-05
-1.4374e-07
2.30155e-05
-1.33416e-07
2.30174e-05
-1.44295e-07
2.3012e-05
-1.32403e-07
2.3014e-05
-1.44542e-07
2.30083e-05
-1.31523e-07
2.30106e-05
-1.44775e-07
2.30046e-05
-1.31252e-07
2.30072e-05
-1.45197e-07
2.30011e-05
-1.30765e-07
2.30043e-05
-1.46324e-07
2.29981e-05
-1.30555e-07
2.30019e-05
-1.47314e-07
2.29951e-05
-1.29616e-07
2.29996e-05
-1.4815e-07
2.29923e-05
-1.28557e-07
2.29975e-05
-1.49454e-07
2.29894e-05
-1.27324e-07
2.29956e-05
-1.51052e-07
2.29866e-05
-1.25819e-07
2.29938e-05
-1.52486e-07
2.29838e-05
-1.23994e-07
2.2992e-05
-1.54088e-07
2.29807e-05
-1.21978e-07
2.29899e-05
-1.55642e-07
2.2977e-05
-1.19065e-07
2.29871e-05
-1.56623e-07
2.29727e-05
-1.16335e-07
2.29839e-05
-1.58553e-07
2.29681e-05
-1.14172e-07
2.29805e-05
-1.60258e-07
2.2963e-05
-1.10945e-07
2.29763e-05
-1.61712e-07
2.2957e-05
-1.07906e-07
2.29717e-05
-1.63716e-07
2.29506e-05
-1.04834e-07
2.29664e-05
-1.65554e-07
2.29435e-05
-1.01642e-07
2.29607e-05
-1.67588e-07
2.29357e-05
-9.83276e-08
2.29539e-05
-1.69167e-07
2.2927e-05
-9.48274e-08
2.29459e-05
-1.69713e-07
2.29172e-05
-9.20833e-08
2.29359e-05
-1.68792e-07
2.29064e-05
-9.04412e-08
2.29238e-05
-1.66372e-07
2.28947e-05
-9.08333e-08
2.29101e-05
-1.63262e-07
2.28825e-05
-9.30378e-08
2.28951e-05
-1.58472e-07
2.28698e-05
-9.66706e-08
2.28797e-05
-1.54776e-07
2.28571e-05
-1.01316e-07
2.28645e-05
-1.50666e-07
2.28438e-05
-1.04448e-07
2.28489e-05
-1.46737e-07
2.283e-05
-1.07581e-07
2.2833e-05
-1.4355e-07
2.28158e-05
-1.09694e-07
2.2817e-05
-1.40886e-07
2.28009e-05
-1.11877e-07
2.28009e-05
-1.38533e-07
2.27859e-05
-1.14114e-07
2.27849e-05
-1.36675e-07
2.2771e-05
-1.15943e-07
2.2769e-05
-1.35708e-07
2.27562e-05
-1.17259e-07
2.27534e-05
-1.34495e-07
2.27412e-05
-1.18326e-07
2.27382e-05
-1.34034e-07
2.27269e-05
-1.2013e-07
2.27236e-05
-1.33887e-07
2.2713e-05
-1.2148e-07
2.27097e-05
-1.33774e-07
2.26998e-05
-1.22516e-07
2.26965e-05
-1.34384e-07
2.26877e-05
-1.2443e-07
2.26846e-05
-1.34888e-07
2.26766e-05
-1.26389e-07
2.2674e-05
-1.35277e-07
2.26668e-05
-1.27771e-07
2.26642e-05
-1.35909e-07
2.26579e-05
-1.3007e-07
2.26553e-05
-1.36316e-07
2.265e-05
-1.31993e-07
2.26476e-05
-1.37211e-07
2.26432e-05
-1.33443e-07
2.26411e-05
-1.37668e-07
2.26374e-05
-1.34848e-07
2.26356e-05
-1.38557e-07
2.26324e-05
-1.35663e-07
2.26309e-05
-1.3897e-07
2.26282e-05
-1.36375e-07
2.26269e-05
-1.39262e-07
2.26247e-05
-1.37801e-07
2.26237e-05
-1.39616e-07
2.26219e-05
-1.37942e-07
2.2621e-05
-1.39777e-07
2.26197e-05
-1.39053e-07
2.26192e-05
-1.40414e-07
2.26184e-05
-1.3948e-07
2.26182e-05
-1.41033e-07
2.2618e-05
-1.40997e-07
2.26183e-05
-1.41737e-07
2.26187e-05
-1.4186e-07
2.26197e-05
-1.43204e-07
2.26206e-05
-1.42825e-07
2.26222e-05
-1.44207e-07
2.26238e-05
-1.44163e-07
2.26262e-05
-1.45597e-07
2.26287e-05
-1.46041e-07
2.26316e-05
-1.46838e-07
2.26347e-05
-1.46939e-07
2.26384e-05
-1.47595e-07
2.26422e-05
-1.48166e-07
2.26465e-05
-1.49153e-07
2.26511e-05
-1.49353e-07
2.26562e-05
-1.51134e-07
2.26622e-05
-1.52922e-07
2.26688e-05
-1.5452e-07
2.26762e-05
-1.55293e-07
2.26838e-05
-1.55615e-07
2.26916e-05
-1.55648e-07
2.26994e-05
-1.55411e-07
2.27075e-05
-1.55792e-07
2.27155e-05
-1.5564e-07
2.27237e-05
-1.558e-07
2.27317e-05
-1.55629e-07
2.274e-05
-1.55784e-07
2.2748e-05
-1.55551e-07
2.27562e-05
-1.55718e-07
2.27644e-05
-1.55389e-07
2.27727e-05
-1.55859e-07
2.27809e-05
-1.553e-07
2.27892e-05
-1.55701e-07
2.27974e-05
-1.55204e-07
2.28058e-05
-1.5576e-07
2.28139e-05
-1.55211e-07
2.28223e-05
-1.55319e-07
2.28303e-05
-1.54811e-07
2.28384e-05
-1.5452e-07
2.28462e-05
-1.54256e-07
2.28539e-05
-1.54016e-07
2.28614e-05
-1.5344e-07
2.28688e-05
-1.52936e-07
2.2876e-05
-1.52533e-07
2.2883e-05
-1.52346e-07
2.28898e-05
-1.51784e-07
2.28965e-05
-1.51734e-07
2.29029e-05
-1.50986e-07
2.29092e-05
-1.50486e-07
2.29152e-05
-1.50088e-07
2.2921e-05
-1.49722e-07
2.29265e-05
-1.48679e-07
2.2932e-05
-1.48937e-07
2.29372e-05
-1.483e-07
2.29422e-05
-1.48254e-07
2.29469e-05
-1.47434e-07
2.29515e-05
-1.47081e-07
2.29559e-05
-1.46954e-07
2.29601e-05
-1.46782e-07
2.29642e-05
-1.46438e-07
2.29681e-05
-1.45811e-07
2.29719e-05
-1.46025e-07
2.29754e-05
-1.45515e-07
2.29791e-05
-1.45787e-07
2.29824e-05
-1.4535e-07
2.29858e-05
-1.45101e-07
2.29888e-05
-1.44499e-07
2.29917e-05
-1.44171e-07
2.29943e-05
-1.44001e-07
2.29967e-05
-1.4347e-07
2.29989e-05
-1.43147e-07
2.3001e-05
-1.42547e-07
2.30028e-05
-1.42299e-07
2.30044e-05
-1.4209e-07
2.30059e-05
-1.41586e-07
2.30073e-05
-1.41082e-07
2.30084e-05
-1.40868e-07
2.30095e-05
-1.40643e-07
2.30102e-05
-1.4e-07
2.30109e-05
-1.3973e-07
2.30114e-05
-1.39786e-07
2.30118e-05
-1.39717e-07
2.30122e-05
-1.39359e-07
2.30124e-05
-1.39288e-07
2.30126e-05
-1.39107e-07
2.3013e-05
-1.39523e-07
2.30127e-05
-1.38686e-07
2.30129e-05
-1.3931e-07
2.3013e-05
-1.39305e-07
2.30131e-05
-1.3965e-07
2.30131e-05
-1.39295e-07
2.30132e-05
-1.39604e-07
2.30132e-05
-1.39427e-07
2.30133e-05
-1.39618e-07
2.30134e-05
-1.39516e-07
2.30134e-05
-1.39752e-07
2.30135e-05
-1.39789e-07
2.30136e-05
-1.39847e-07
2.30136e-05
-1.39821e-07
2.30137e-05
-1.39738e-07
2.30136e-05
-1.3961e-07
2.30134e-05
-1.39452e-07
2.30132e-05
-1.39611e-07
2.3013e-05
-1.39627e-07
2.30127e-05
-1.39475e-07
2.30127e-05
-1.39624e-07
2.30125e-05
-1.39592e-07
2.30123e-05
-1.39956e-07
2.3012e-05
-1.39498e-07
2.30118e-05
-1.39613e-07
2.30116e-05
-1.39606e-07
2.30115e-05
-1.40009e-07
2.3012e-05
-1.40576e-07
2.30123e-05
-1.40776e-07
2.30128e-05
-1.4097e-07
2.30134e-05
-1.41507e-07
2.3014e-05
-1.41251e-07
2.30149e-05
-1.41611e-07
2.3016e-05
-1.42019e-07
2.3017e-05
-1.41964e-07
2.30181e-05
-1.42136e-07
2.30193e-05
-1.42472e-07
2.3021e-05
-1.42965e-07
2.30224e-05
-1.42797e-07
2.30244e-05
-1.4351e-07
2.30263e-05
-1.43375e-07
2.3028e-05
-1.4335e-07
2.303e-05
-1.43591e-07
2.30321e-05
-1.43772e-07
2.30343e-05
-1.43869e-07
2.30365e-05
-1.43865e-07
2.30387e-05
-1.4396e-07
2.30411e-05
-1.44095e-07
2.30435e-05
-1.44303e-07
2.30462e-05
-1.44615e-07
2.3049e-05
-1.44962e-07
2.30518e-05
-1.44937e-07
2.30548e-05
-1.45156e-07
2.30575e-05
-1.45078e-07
2.30605e-05
-1.45172e-07
2.30635e-05
-1.4585e-07
2.3067e-05
-1.4617e-07
2.30704e-05
-1.46429e-07
2.30744e-05
-1.47271e-07
2.30782e-05
-1.47471e-07
2.30824e-05
-1.47802e-07
2.30868e-05
-1.48471e-07
2.3091e-05
-1.48274e-07
2.30956e-05
-1.49065e-07
2.31003e-05
-1.49136e-07
2.31049e-05
-1.49363e-07
2.31098e-05
-1.49728e-07
2.31152e-05
-1.50393e-07
2.31204e-05
-1.50313e-07
2.31261e-05
-1.51051e-07
2.31316e-05
-1.50903e-07
2.3137e-05
-1.51116e-07
2.31428e-05
-1.51286e-07
2.31488e-05
-1.51766e-07
2.31547e-05
-1.51478e-07
2.31605e-05
-1.51698e-07
2.31668e-05
-1.52382e-07
2.3173e-05
-1.52567e-07
2.31795e-05
-1.52997e-07
2.3186e-05
-1.53112e-07
2.31929e-05
-1.53775e-07
2.31999e-05
-1.53923e-07
2.3207e-05
-1.5427e-07
2.32142e-05
-1.54664e-07
2.32215e-05
-1.54382e-07
2.32283e-05
-1.5404e-07
2.32355e-05
-1.54341e-07
2.32429e-05
-1.5459e-07
2.32503e-05
-1.54894e-07
2.32579e-05
-1.55244e-07
2.32654e-05
-1.54742e-07
2.32735e-05
-1.55344e-07
2.32812e-05
-1.54435e-07
2.32887e-05
-1.53601e-07
2.32969e-05
-1.56698e-07
2.33037e-05
-1.5086e-07
2.33132e-05
-1.59592e-07
2.33172e-05
-1.46559e-07
2.33328e-05
-1.71163e-07
2.33304e-05
-1.32801e-07
2.33603e-05
-1.99418e-07
2.33423e-05
-1.05717e-07
2.34011e-05
-2.50987e-07
2.33523e-05
-5.94927e-08
2.34502e-05
-3.14523e-07
2.33524e-05
1.94093e-08
2.34877e-05
-3.69073e-07
2.33267e-05
1.23073e-07
2.34862e-05
-3.93603e-07
2.32601e-05
2.30704e-07
2.34171e-05
-3.66139e-07
2.31471e-05
3.07685e-07
2.3265e-05
-3.05882e-07
2.29503e-05
3.81631e-07
2.29304e-05
-8.09556e-08
2.24268e-05
7.56786e-07
2.17802e-05
9.84955e-07
2.05017e-05
2.58383e-06
1.75339e-05
6.72731e-06
1.4627e-05
7.50336e-06
1.27388e-05
2.85365e-06
1.21051e-05
5.05564e-07
1.09216e-05
2.37855e-06
9.19495e-06
3.51373e-06
6.41475e-06
5.04454e-06
3.05078e-06
4.58909e-06
2.09123e-07
4.06712e-06
-1.45517e-06
2.8612e-06
-2.46034e-06
1.99687e-06
-6.37112e-06
3.78626e-05
6.40889e-07
3.76504e-05
8.26143e-07
3.7236e-05
1.37726e-06
3.68322e-05
1.38542e-06
3.64216e-05
1.44075e-06
3.60647e-05
1.30512e-06
3.57534e-05
1.23372e-06
3.54903e-05
1.1048e-06
3.52728e-05
1.00928e-06
3.50829e-05
9.0759e-07
3.49276e-05
8.2364e-07
3.47896e-05
7.46171e-07
3.46573e-05
7.37841e-07
3.45514e-05
6.67144e-07
3.44577e-05
6.34406e-07
3.43703e-05
6.18894e-07
3.42916e-05
5.95802e-07
3.42153e-05
5.80717e-07
3.41368e-05
5.65258e-07
3.40614e-05
5.36063e-07
3.39827e-05
5.24857e-07
3.39037e-05
5.09518e-07
3.38221e-05
4.9509e-07
3.37361e-05
4.82584e-07
3.36481e-05
4.63862e-07
3.35542e-05
4.56415e-07
3.34583e-05
4.37553e-07
3.33549e-05
4.23286e-07
3.32464e-05
4.08496e-07
3.31344e-05
3.93715e-07
3.30184e-05
3.8409e-07
3.29006e-05
3.69642e-07
3.27789e-05
3.55809e-07
3.26552e-05
3.4072e-07
3.25312e-05
3.2319e-07
3.24039e-05
3.126e-07
3.22763e-05
3.00882e-07
3.21477e-05
2.86483e-07
3.20175e-05
2.74735e-07
3.18885e-05
2.62873e-07
3.17595e-05
2.48253e-07
3.16296e-05
2.36692e-07
3.15024e-05
2.24471e-07
3.13752e-05
2.13822e-07
3.12492e-05
2.01733e-07
3.11253e-05
1.89363e-07
3.10027e-05
1.79326e-07
3.08829e-05
1.68872e-07
3.07657e-05
1.56824e-07
3.06496e-05
1.46774e-07
3.05369e-05
1.39176e-07
3.04261e-05
1.31177e-07
3.03167e-05
1.23688e-07
3.02106e-05
1.13743e-07
3.01057e-05
1.07399e-07
3.00037e-05
9.86881e-08
2.99033e-05
9.57918e-08
2.98031e-05
8.13716e-08
2.97022e-05
9.69567e-08
2.96035e-05
7.15071e-08
2.94956e-05
1.19297e-07
2.93998e-05
1.23792e-07
2.9297e-05
1.55888e-07
2.91878e-05
5.70238e-08
2.90554e-05
4.63165e-08
2.89571e-05
4.41215e-08
2.88961e-05
1.62436e-07
2.88659e-05
1.48223e-07
2.87851e-05
8.33611e-08
2.86874e-05
-9.22054e-10
2.86317e-05
1.54388e-07
2.86322e-05
1.87017e-07
2.85758e-05
5.78699e-08
2.84897e-05
-1.5045e-07
2.84463e-05
-1.56053e-07
2.84363e-05
-1.08302e-07
2.84049e-05
1.03029e-08
2.83983e-05
1.9959e-07
2.84139e-05
4.01532e-07
2.83443e-05
1.76427e-07
2.8103e-05
-6.50388e-08
2.79109e-05
-9.48193e-08
2.77908e-05
-2.64387e-08
2.76804e-05
3.37477e-08
2.76561e-05
1.82477e-07
2.77391e-05
2.46275e-07
2.77333e-05
8.58259e-08