/*--------------------------------*- C++ -*----------------------------------*\
| =========                 |                                                 |
| \\      /  F ield         | foam-extend: Open Source CFD                    |
|  \\    /   O peration     | Version:     3.2                                |
|   \\  /    A nd           | Web:         http://www.foam-extend.org         |
|    \\/     M anipulation  | For copyright notice see file Copyright         |
\*---------------------------------------------------------------------------*/
FoamFile
{
    version     2.0;
    format      ascii;
    class       areaVectorField;
    location    "1440";
    object      aUf;
}
// * * * * * * * * * * * * * * * * * * * * * * * * * * * * * * * * * * * * * //

dimensions      [0 1 -1 0 0 0 0];

internalField   nonuniform List<vector> 
550
(
(0.0700384 0 7.6615e-05)
(0.0823044 1.15031e-29 9.33924e-05)
(0.0951074 -2.26777e-29 0.00014874)
(0.108164 -1.42216e-29 0.000182555)
(0.121128 -5.03554e-30 0.000230915)
(0.133645 4.69432e-29 0.000247745)
(0.145415 3.83421e-29 0.000273212)
(0.156172 3.04655e-34 0.00027027)
(0.165752 0 0.000289855)
(0.17404 -3.32715e-29 0.000315887)
(0.180998 -1.16505e-28 0.000260146)
(0.186649 0 0.000298249)
(0.191112 5.77566e-30 0.000354251)
(0.19445 0 0.000232913)
(0.196778 -1.7145e-34 0.000252359)
(0.198259 0 0.000248081)
(0.198996 0 0.000135455)
(0.199097 0 9.80167e-05)
(0.198704 1.51712e-29 8.92788e-05)
(0.197948 0 6.12011e-05)
(0.196907 0 5.04331e-05)
(0.195642 1.24448e-33 8.69725e-06)
(0.194199 1.63463e-29 -1.99713e-05)
(0.192637 0 -2.33261e-05)
(0.190995 2.9173e-29 -6.17241e-05)
(0.189308 1.9449e-29 -8.47876e-05)
(0.187607 -1.5177e-33 -0.000118971)
(0.185923 0 -0.0001219)
(0.184287 1.87686e-30 -0.000114383)
(0.182698 0 -0.000133195)
(0.181158 1.20306e-29 -0.000140488)
(0.179672 -3.99301e-29 -0.000157675)
(0.178243 -1.20702e-29 -0.000164316)
(0.176879 -5.03245e-30 -0.000161959)
(0.175582 1.24993e-29 -0.000167913)
(0.174354 -6.09877e-30 -0.000166457)
(0.173192 1.94791e-29 -0.000181389)
(0.172091 2.07511e-29 -0.000195746)
(0.171056 0 -0.000188051)
(0.170082 0 -0.000201154)
(0.169163 0 -0.000215125)
(0.168303 8.48091e-30 -0.00021206)
(0.167498 0 -0.00022285)
(0.166739 2.21341e-29 -0.000236578)
(0.166029 0 -0.000237896)
(0.165365 0 -0.000244232)
(0.164742 -1.73022e-29 -0.000250795)
(0.164159 1.77912e-29 -0.00025778)
(0.163613 0 -0.000265334)
(0.163103 -2.63151e-29 -0.00026547)
(0.162629 0 -0.000270235)
(0.16218 2.2519e-29 -0.000283878)
(0.161757 0 -0.000285443)
(0.161361 1.36796e-29 -0.00028882)
(0.160987 1.33901e-29 -0.000293009)
(0.160636 0 -0.000294197)
(0.160303 -9.94952e-30 -0.000299827)
(0.159987 2.29573e-30 -0.000303323)
(0.159698 2.30906e-32 -0.000286113)
(0.159409 0 -0.000331196)
(0.159154 -1.90264e-28 -0.000231276)
(0.158894 0 -0.000263011)
(0.158658 0 -0.000221794)
(0.158415 3.70946e-29 -0.000387194)
(0.158196 -5.40409e-27 -0.000374009)
(0.157971 -1.00256e-30 -0.000349084)
(0.157771 -3.38514e-27 -0.000104714)
(0.157563 -1.46711e-26 -0.000172919)
(0.157371 -3.90712e-27 -0.000303376)
(0.157176 -2.71115e-27 -0.000464871)
(0.157001 -6.71044e-27 -7.70706e-05)
(0.156821 3.83022e-31 -3.71574e-05)
(0.156643 0 -0.000306818)
(0.15647 0 -0.000646568)
(0.156303 -3.1663e-27 -0.000536915)
(0.156147 2.6072e-27 -0.000402783)
(0.156003 6.09525e-27 -0.000268437)
(0.155839 0 -4.96349e-05)
(0.155705 1.37838e-26 0.000174349)
(0.155543 1.93977e-26 -0.000472001)
(0.155402 5.95661e-27 -0.000768336)
(0.155276 -6.5804e-27 -0.000666086)
(0.155149 4.43195e-31 -0.000370784)
(0.15501 0 -0.000256669)
(0.154882 3.75574e-30 0.000101257)
(0.154752 -1.45752e-26 0.000183105)
(0.154617 0 -0.000192289)
(0.154489 3.58307e-30 -0.000320378)
(0.154374 0 0.000396346)
(0.154251 -3.49385e-26 0.000447229)
(0.154107 2.05791e-26 -0.000313766)
(0.153986 -5.9462e-27 -0.000772492)
(0.153894 0 -0.000604771)
(0.153777 -9.15033e-27 -0.00032609)
(0.153673 1.53678e-27 0.000132806)
(0.153566 -4.50521e-30 0.000197196)
(0.153435 0 -0.000287985)
(0.153314 1.21892e-30 -0.000782134)
(0.153215 0 -0.00058889)
(0.153099 -8.12728e-27 -0.000404402)
(0.152975 0 -0.000400203)
(0.152861 -2.21742e-27 -0.000491141)
(0.152746 -1.52125e-27 -0.000374744)
(0.152626 0 -0.000300914)
(0.152523 -3.2482e-27 6.60727e-05)
(0.152414 2.69349e-26 0.000268109)
(0.152277 0 -0.000146904)
(0.152149 0 -0.000723499)
(0.152048 -9.05486e-33 -0.000611605)
(0.151906 0 -0.000474429)
(0.151791 0 -0.000175439)
(0.151669 0 -0.000342443)
(0.151516 0 -0.000346071)
(0.151348 0 -0.000362419)
(0.151261 1.9303e-28 -0.000140926)
(0.15112 7.41711e-28 -0.000455707)
(0.15102 0 -7.73998e-05)
(0.150871 0 -0.000428302)
(0.150722 0 -0.000171239)
(0.1505 -5.23381e-29 -0.000328516)
(0.150406 -4.58454e-28 0.000283642)
(0.150072 7.22801e-28 -0.000425776)
(0.149716 0 0.00133149)
(0.149829 0 0.00121429)
(0.149953 0 0.00112986)
(0.150142 3.82474e-29 0.00111422)
(0.150325 0 0.00102923)
(0.150511 3.4931e-29 0.00100592)
(0.150682 0 0.000884417)
(0.150839 -7.3244e-29 0.000849269)
(0.150976 -3.81567e-28 0.000705411)
(0.151092 -5.57912e-29 0.000658114)
(0.151181 2.60316e-28 0.000503725)
(0.151247 0 0.000437986)
(0.151267 0 0.000243476)
(0.151278 -3.80498e-29 0.000288203)
(0.151227 0 -5.14037e-05)
(0.151034 0 -0.00013214)
(0.150874 0 0.000367378)
(0.150824 0 0.000257817)
(0.150644 0 0.000133578)
(0.150513 1.50133e-27 0.000746421)
(0.150513 0 0.0006171)
(0.150517 0 0.000634629)
(0.150534 0 0.000551262)
(0.150554 0 0.000570002)
(0.150578 0 0.000490616)
(0.150595 0 0.000489517)
(0.150608 -1.17084e-32 0.000396485)
(0.150602 1.66355e-29 0.000383969)
(0.150593 5.68142e-29 0.000303336)
(0.150554 0 0.000263096)
(0.150536 0 0.000248867)
(0.150462 -4.08008e-29 0.000137463)
(0.15044 -3.79014e-29 0.000253261)
(0.15033 -2.53205e-29 -4.28491e-05)
(0.150312 -3.18658e-31 0.000348737)
(0.150199 0 -0.000291312)
(0.150171 -8.65829e-28 0.00035609)
(0.150064 0 -0.000640829)
(0.14997 0 0.000191337)
(0.149831 2.9888e-27 -0.000913236)
(0.149664 0 -2.54699e-05)
(0.149485 -2.81199e-27 -0.00106779)
(0.149291 0 -0.000225948)
(0.149101 0 -0.00127561)
(0.148933 0 -0.000564406)
(0.148674 6.66255e-27 -0.00197548)
(0.148459 6.10745e-28 -0.00136152)
(0.147662 0 -0.0033156)
(0.146502 -3.25972e-27 -0.000803941)
(0.146094 -8.62172e-29 -0.000244533)
(0.145684 0 -0.000654325)
(0.145401 -1.49932e-28 -0.000190791)
(0.145163 0 -0.000541241)
(0.144956 0 -0.000157021)
(0.144795 0 -0.000436809)
(0.144641 -5.10314e-29 -0.000120375)
(0.144526 -1.49849e-28 -0.000345851)
(0.14441 0 -8.87863e-05)
(0.144327 -1.20563e-28 -0.0002699)
(0.144241 0 -6.32585e-05)
(0.144181 0 -0.000208034)
(0.144115 0 -4.40824e-05)
(0.144072 -3.74224e-29 -0.00015577)
(0.144022 0 -3.11197e-05)
(0.143991 0 -0.000113432)
(0.143954 -3.66141e-30 -2.03468e-05)
(0.143931 9.88917e-30 -7.8473e-05)
(0.143904 0 -1.23621e-05)
(0.143887 3.09218e-30 -4.79767e-05)
(0.143869 0 -8.4049e-06)
(0.143857 2.73299e-31 -1.97116e-05)
(0.143847 0 7.27136e-06)
(0.14384 0 -1.65575e-06)
(0.143836 0 2.27092e-05)
(0.143833 -3.99437e-31 8.10256e-06)
(0.143832 0 3.27715e-05)
(0.143832 0 1.58086e-05)
(0.143833 -2.6104e-34 3.8878e-05)
(0.143833 -1.53812e-30 2.09759e-05)
(0.143835 1.57257e-30 4.35581e-05)
(0.143836 -1.7464e-30 2.43665e-05)
(0.143838 0 4.39242e-05)
(0.143839 -1.73814e-30 2.50487e-05)
(0.143841 -2.67329e-34 4.51457e-05)
(0.143843 -1.84424e-30 2.48645e-05)
(0.143844 0 4.54532e-05)
(0.143846 1.78303e-30 2.58177e-05)
(0.143849 -2.95092e-30 4.53231e-05)
(0.143852 1.84334e-30 2.47935e-05)
(0.143854 1.29685e-30 4.22008e-05)
(0.143858 -1.73066e-30 2.32495e-05)
(0.143861 1.15338e-30 3.90902e-05)
(0.143864 -8.84096e-31 1.95484e-05)
(0.143868 2.65146e-30 3.73313e-05)
(0.143872 9.70136e-31 1.51817e-05)
(0.143876 1.19367e-30 3.13787e-05)
(0.14388 8.82413e-31 1.11464e-05)
(0.143884 1.18058e-30 2.70923e-05)
(0.143888 0 7.00843e-06)
(0.143892 -6.45229e-31 2.42249e-05)
(0.143896 0 1.64502e-06)
(0.1439 0 2.08934e-05)
(0.143903 1.40346e-31 -9.69807e-07)
(0.143909 -2.41582e-30 2.07425e-05)
(0.143912 2.78724e-31 -6.18575e-06)
(0.14392 0 2.32922e-05)
(0.143924 3.53501e-31 -1.12788e-05)
(0.143933 0 2.68013e-05)
(0.143938 1.85698e-30 -1.87934e-05)
(0.143948 0 2.85085e-05)
(0.143954 -2.24837e-30 -2.68495e-05)
(0.143965 4.37287e-30 2.85502e-05)
(0.143972 5.30302e-30 -3.66493e-05)
(0.143982 0 2.89674e-05)
(0.143991 -6.01896e-30 -4.50384e-05)
(0.144001 8.54967e-30 2.72137e-05)
(0.14401 1.26953e-29 -5.08683e-05)
(0.144021 0 2.64334e-05)
(0.144031 0 -5.45373e-05)
(0.144043 0 2.57793e-05)
(0.144053 0 -5.82207e-05)
(0.144066 0 2.924e-05)
(0.144077 -1.52812e-29 -6.53918e-05)
(0.144091 -7.70079e-30 3.13649e-05)
(0.144102 1.70026e-29 -7.41665e-05)
(0.144117 0 3.37466e-05)
(0.144128 0 -8.50675e-05)
(0.144144 0 3.65347e-05)
(0.144155 0 -9.83125e-05)
(0.144171 0 3.94544e-05)
(0.144182 9.86679e-29 -0.000113993)
(0.144198 0 4.26694e-05)
(0.144208 0 -0.000131655)
(0.144224 0 4.63e-05)
(0.144233 6.34901e-29 -0.000151003)
(0.144248 1.59241e-29 4.83359e-05)
(0.144255 0 -0.000173633)
(0.144268 0 4.92863e-05)
(0.144273 0 -0.000193968)
(0.144285 -3.95268e-29 5.37448e-05)
(0.144288 1.74155e-28 -0.000216728)
(0.144298 -4.35743e-29 5.6385e-05)
(0.144299 -1.91234e-28 -0.000240579)
(0.144307 -2.39949e-29 6.01569e-05)
(0.144307 2.08404e-28 -0.000263772)
(0.144313 1.30491e-28 6.33719e-05)
(0.14431 2.2178e-32 -0.000288643)
(0.144315 0 6.82325e-05)
(0.144311 2.2373e-32 -0.000315999)
(0.144314 -1.86462e-28 7.34385e-05)
(0.144309 2.69517e-28 -0.000346041)
(0.144309 -3.33478e-29 7.1857e-05)
(0.144303 -8.60351e-28 -0.000374363)
(0.144298 3.50637e-29 6.52622e-05)
(0.144292 0 -0.000399393)
(0.14428 -1.78348e-29 4.86086e-05)
(0.144273 5.93825e-28 -0.000413364)
(0.144254 0 2.3159e-05)
(0.144247 2.80435e-28 -0.000413094)
(0.144222 3.21986e-29 -1.02453e-05)
(0.144214 -5.05019e-28 -0.000402864)
(0.144185 5.70191e-29 -4.78025e-05)
(0.144175 0 -0.00038282)
(0.144146 -2.44174e-29 -8.08462e-05)
(0.144134 0 -0.000367375)
(0.144106 -8.35647e-29 -0.000111121)
(0.144092 -1.58432e-28 -0.000356333)
(0.144064 1.43591e-28 -0.000138227)
(0.144048 0 -0.000346017)
(0.14402 1.2268e-28 -0.000161954)
(0.144002 0 -0.000338264)
(0.143973 5.23725e-29 -0.000183406)
(0.143953 9.68451e-29 -0.000331768)
(0.143923 0 -0.000200843)
(0.143901 0 -0.000326173)
(0.143871 0 -0.000215953)
(0.143848 0 -0.000321554)
(0.143817 0 -0.000227669)
(0.143793 0 -0.000317466)
(0.143762 7.65482e-34 -0.00023778)
(0.143736 0 -0.000313679)
(0.143705 4.50749e-29 -0.000244794)
(0.143678 -4.35608e-29 -0.000309823)
(0.143648 0 -0.000249959)
(0.143622 3.74799e-29 -0.000305782)
(0.143592 0 -0.000253481)
(0.143566 -3.25589e-29 -0.000301845)
(0.143538 -2.87556e-29 -0.000254495)
(0.143514 0 -0.000295403)
(0.143488 -2.45023e-29 -0.000253977)
(0.143465 0 -0.000287007)
(0.143441 -1.94393e-29 -0.000252877)
(0.14342 -1.65854e-29 -0.000276746)
(0.143399 -1.68051e-29 -0.000247396)
(0.14338 0 -0.000265957)
(0.143362 0 -0.000240519)
(0.143345 -2.03825e-29 -0.000254713)
(0.143329 -1.28419e-29 -0.000232555)
(0.143315 -1.69423e-29 -0.000244127)
(0.143301 0 -0.000224245)
(0.143289 0 -0.000232196)
(0.143278 0 -0.00021567)
(0.143267 0 -0.00022236)
(0.143258 0 -0.000206983)
(0.143249 0 -0.000212)
(0.14324 4.15206e-30 -0.000197735)
(0.143233 1.10471e-30 -0.000199987)
(0.143227 -3.28133e-30 -0.000188491)
(0.143221 0 -0.000189547)
(0.143216 3.34406e-30 -0.000178151)
(0.143212 2.19512e-31 -0.000177205)
(0.143209 2.9869e-30 -0.000166992)
(0.143207 1.04168e-30 -0.000165325)
(0.143206 -2.77533e-30 -0.000154135)
(0.143207 0 -0.000151632)
(0.143208 5.36911e-30 -0.00014079)
(0.143211 2.16345e-30 -0.000136122)
(0.143216 -1.63275e-34 -0.000126385)
(0.143221 -1.35885e-34 -0.000120438)
(0.143229 -5.83639e-30 -0.000110195)
(0.143238 0 -0.000103568)
(0.143249 1.59161e-30 -9.31434e-05)
(0.143261 -1.46933e-30 -8.52678e-05)
(0.143276 1.68314e-30 -7.48156e-05)
(0.143291 0 -6.62273e-05)
(0.143308 9.20266e-31 -5.53522e-05)
(0.143327 0 -4.5313e-05)
(0.143348 -5.3036e-31 -3.30605e-05)
(0.143369 0 -2.30351e-05)
(0.143394 -1.68898e-31 -5.64297e-06)
(0.143423 0 1.11818e-05)
(0.143455 -9.83541e-31 2.4446e-05)
(0.14349 0 3.62527e-05)
(0.143526 -3.27458e-30 4.55579e-05)
(0.143564 1.81381e-30 5.52145e-05)
(0.143602 1.49337e-30 6.262e-05)
(0.143642 0 7.05429e-05)
(0.143683 0 7.75456e-05)
(0.143724 0 8.44509e-05)
(0.143766 1.49468e-30 9.04667e-05)
(0.143808 3.29605e-30 9.71221e-05)
(0.143851 0 0.000102326)
(0.143894 -3.07251e-30 0.000108108)
(0.143937 2.85425e-30 0.000113054)
(0.143981 2.84295e-30 0.000117999)
(0.144024 -2.631e-30 0.000122193)
(0.144068 -2.72779e-30 0.000126759)
(0.144112 0 0.000130358)
(0.144155 0 0.000133766)
(0.144198 -2.14286e-30 0.000136274)
(0.144241 -2.15359e-30 0.00013894)
(0.144283 0 0.000140151)
(0.144324 -1.84093e-30 0.000142014)
(0.144364 -1.57673e-30 0.000143056)
(0.144403 0 0.000143991)
(0.144441 1.31925e-30 0.000144342)
(0.144478 -1.3272e-30 0.000144841)
(0.144514 -8.39904e-31 0.000143787)
(0.144548 9.28402e-31 0.000143042)
(0.144582 -1.35324e-30 0.000141657)
(0.144615 -1.02383e-30 0.000139949)
(0.144646 -4.88262e-31 0.000138276)
(0.144676 -4.43837e-31 0.000136636)
(0.144705 0 0.000133905)
(0.144733 0 0.000132102)
(0.144759 5.02259e-33 0.000129233)
(0.144785 3.64989e-31 0.000127634)
(0.144809 0 0.000125088)
(0.144832 -1.18457e-31 0.000122367)
(0.144855 1.96579e-32 0.000120054)
(0.144876 0 0.000117755)
(0.144897 4.31305e-32 0.000115539)
(0.144917 -2.44076e-32 0.000113292)
(0.144937 -3.88142e-32 0.00011118)
(0.144956 3.5132e-31 0.000108098)
(0.144974 3.80054e-32 0.000106197)
(0.144992 0 0.000103036)
(0.145008 7.20524e-32 0.00010121)
(0.145023 0 9.78859e-05)
(0.145038 4.62692e-32 9.66759e-05)
(0.145051 -2.7497e-31 9.34387e-05)
(0.145062 1.87333e-31 9.0815e-05)
(0.145072 0 8.92337e-05)
(0.145081 1.87009e-31 8.68596e-05)
(0.145088 -3.01166e-31 8.37622e-05)
(0.145094 1.50188e-31 8.17752e-05)
(0.145098 0 7.86803e-05)
(0.145102 2.47655e-31 7.62823e-05)
(0.145104 -3.51438e-31 7.32005e-05)
(0.145105 0 7.14974e-05)
(0.145106 0 6.86708e-05)
(0.145105 -5.37644e-31 6.54772e-05)
(0.145104 0 6.2434e-05)
(0.145103 -1.15803e-31 6.09716e-05)
(0.145101 4.98643e-31 5.80519e-05)
(0.1451 4.19421e-31 5.54627e-05)
(0.145098 2.04582e-31 5.26053e-05)
(0.145096 2.34827e-31 4.94683e-05)
(0.145095 1.37265e-31 4.79318e-05)
(0.145093 1.12312e-35 4.4487e-05)
(0.145091 0 4.07624e-05)
(0.14509 0 4.02192e-05)
(0.145089 2.83101e-31 3.63403e-05)
(0.145088 -2.09963e-31 3.41612e-05)
(0.145086 -4.67443e-31 3.0951e-05)
(0.145085 -1.19455e-36 2.85806e-05)
(0.145083 0 2.57134e-05)
(0.145081 0 2.36393e-05)
(0.145079 8.40195e-32 2.11571e-05)
(0.145077 -5.40611e-32 1.96427e-05)
(0.145074 0 1.75095e-05)
(0.145071 0 1.6443e-05)
(0.145068 4.73755e-32 1.52483e-05)
(0.145065 -2.45956e-32 1.46659e-05)
(0.145061 1.41497e-36 1.41199e-05)
(0.145058 -1.38772e-32 1.37928e-05)
(0.145055 0 1.39104e-05)
(0.145053 8.28661e-36 1.43447e-05)
(0.145051 1.07123e-31 1.28161e-05)
(0.145049 3.13224e-32 1.35677e-05)
(0.145047 0 1.44758e-05)
(0.145046 9.09625e-32 1.57985e-05)
(0.145045 1.7438e-32 1.53829e-05)
(0.145044 0 1.72068e-05)
(0.145044 5.59998e-32 1.86172e-05)
(0.145044 7.99234e-32 2.05566e-05)
(0.145046 0 2.25964e-05)
(0.145048 0 2.43085e-05)
(0.145052 0 2.6858e-05)
(0.145056 -1.78687e-35 2.89699e-05)
(0.145061 2.31638e-32 2.86663e-05)
(0.145067 -1.42566e-31 3.03692e-05)
(0.145075 -1.55094e-31 3.20153e-05)
(0.145083 1.39425e-31 3.33656e-05)
(0.145091 0 3.47933e-05)
(0.145101 -3.10012e-31 3.62242e-05)
(0.145112 0 3.73733e-05)
(0.145123 0 3.85621e-05)
(0.145135 -1.65049e-31 3.99108e-05)
(0.145147 -1.46121e-31 4.09642e-05)
(0.145161 0 4.2214e-05)
(0.145174 0 4.33759e-05)
(0.145189 1.98797e-31 4.51078e-05)
(0.145204 1.77615e-31 4.64862e-05)
(0.145219 2.41793e-31 4.86244e-05)
(0.145236 -1.49717e-35 5.03672e-05)
(0.145253 -1.11494e-30 5.2755e-05)
(0.145271 5.28995e-31 5.49443e-05)
(0.14529 6.04896e-31 5.76402e-05)
(0.14531 0 5.99906e-05)
(0.145331 0 6.26318e-05)
(0.145353 -1.22058e-30 6.52385e-05)
(0.145377 5.07977e-31 6.7345e-05)
(0.145401 0 6.94039e-05)
(0.145428 0 7.40916e-05)
(0.145456 -4.88996e-31 7.55523e-05)
(0.145486 5.53083e-31 7.7256e-05)
(0.145517 0 8.11919e-05)
(0.14555 4.48342e-31 8.22264e-05)
(0.145584 0 8.3693e-05)
(0.145618 0 8.66313e-05)
(0.145654 1.03636e-30 8.80034e-05)
(0.145691 3.40363e-35 9.10255e-05)
(0.145728 0 9.27138e-05)
(0.145766 0 9.56127e-05)
(0.145805 0 9.71594e-05)
(0.145844 1.66754e-30 9.99746e-05)
(0.145883 -1.3589e-30 0.000101615)
(0.145922 0 0.000104686)
(0.145962 0 0.000106712)
(0.146002 0 0.00011015)
(0.146042 0 0.000112374)
(0.146082 0 0.000116345)
(0.146123 -1.40216e-30 0.000118161)
(0.146164 -2.27987e-30 0.000122456)
(0.146207 0 0.000126615)
(0.14625 -2.85967e-30 0.000128071)
(0.146294 2.07388e-30 0.000131716)
(0.146338 1.997e-30 0.000135028)
(0.146384 4.04057e-30 0.00013856)
(0.14643 0 0.000141284)
(0.146478 0 0.000144745)
(0.146525 0 0.000147274)
(0.146573 -1.27804e-30 0.000147753)
(0.146621 0 0.000149834)
(0.146668 -4.14718e-30 0.000152863)
(0.146715 0 0.000155762)
(0.146762 -4.76879e-30 0.000159568)
(0.146808 -2.61107e-30 0.000164401)
(0.146855 1.51147e-30 0.000165428)
(0.1469 0 0.00017309)
(0.146945 2.01033e-30 0.000174223)
(0.146987 0 0.000178195)
(0.147037 4.62452e-34 0.000187405)
(0.14707 3.05613e-30 0.000176897)
(0.147131 -2.69269e-29 0.000214999)
(0.147149 0 0.000158663)
(0.147233 8.85629e-29 0.000290828)
(0.147224 -3.49728e-29 7.95493e-05)
(0.147353 0 0.000479734)
(0.147313 0 -0.000140801)
(0.147498 -1.23272e-27 0.000801224)
(0.147448 0 -0.000566545)
(0.147665 0 0.0011242)
(0.147609 0 -0.00123237)
(0.147807 -6.6778e-27 0.00131167)
(0.147742 0 -0.0021355)
(0.147838 0 0.00115456)
(0.147759 0 -0.00319942)
(0.147662 0 0.000378696)
(0.147541 0 -0.00426407)
(0.147255 -8.24849e-27 -0.00120975)
(0.14701 4.97447e-26 -0.00603854)
(0.146366 1.39926e-28 -0.00429589)
(0.145485 1.32063e-25 -0.0105842)
(0.143309 0 -0.0109772)
(0.138696 0 -0.0212517)
(0.122985 2.41931e-24 -0.0283322)
(0.107698 1.71808e-25 0.00210117)
(0.0997453 -3.43571e-30 -0.000313632)
(0.0907358 0 0.00313357)
(0.0832816 -1.53669e-28 0.00441373)
(0.0710564 0 0.00871721)
(0.0610833 5.5892e-32 -0.00213102)
(-0.0529174 2.34747e-35 0.00718937)
(-0.0547839 0 0.00677052)
(-0.0689576 0 0.00296446)
(-0.0865821 3.13812e-27 -0.0139547)
)
;

boundaryField
{
    inlet
    {
        type            calculated;
        value           uniform (0 0 0);
    }
    endWall
    {
        type            calculated;
        value           uniform (0 0 0);
    }
    sideWall
    {
        type            empty;
    }
}


// ************************************************************************* //
