/*--------------------------------*- C++ -*----------------------------------*\
| =========                 |                                                 |
| \\      /  F ield         | foam-extend: Open Source CFD                    |
|  \\    /   O peration     | Version:     3.2                                |
|   \\  /    A nd           | Web:         http://www.foam-extend.org         |
|    \\/     M anipulation  | For copyright notice see file Copyright         |
\*---------------------------------------------------------------------------*/
FoamFile
{
    version     2.0;
    format      ascii;
    class       volScalarField;
    location    "1440";
    object      C;
}
// * * * * * * * * * * * * * * * * * * * * * * * * * * * * * * * * * * * * * //

dimensions      [1 -3 0 0 0 0 0];

internalField   nonuniform List<scalar> 
33000
(
0.0235
0.0235
0.0235
0.0235
0.0235
0.0235
0.0235
0.0235
0.0235
0.0235
0.0235
0.0235
0.0235
0.0235
0.0235
0.0235
0.0235
0.0235
0.0235
0.0235
0.0235
0.0235
0.0235
0.0235
0.0235
0.0235
0.0235
0.0235
0.0235
0.0235
0.0235
0.0235
0.0235
0.0235
0.0235
0.0235
0.0235
0.0235
0.0235
0.0235
0.0235
0.0235
0.0235
0.0235
0.0235
0.0235
0.0235
0.0235
0.0235
0.0235
0.0235
0.0235
0.0235
0.0235
0.0235
0.0235
0.0235
0.0235
0.0235
0.0234998
0.023508
0.0235305
0.0235503
0.0235677
0.0235823
0.0235984
0.0236129
0.0236226
0.0236345
0.0236444
0.023654
0.0236613
0.0236615
0.0236732
0.0236771
0.0236828
0.023684
0.0236892
0.0236935
0.0236899
0.0236963
0.0237008
0.0237013
0.0236951
0.0236983
0.0236899
0.0236797
0.023685
0.0236788
0.0236846
0.0236766
0.0236726
0.02368
0.0236594
0.0236579
0.0236527
0.023648
0.0236541
0.0236503
0.0236396
0.0236336
0.0236378
0.0236333
0.02363
0.0236307
0.0236245
0.0236083
0.023619
0.0236196
0.023609
0.0236094
0.0236117
0.0236012
0.0236038
0.0236094
0.0236044
0.0235948
0.0235912
0.0235865
0.0235815
0.0235803
0.0235813
0.0235688
0.023555
0.023546
0.023541
0.0235364
0.0235304
0.0235243
0.0235177
0.023512
0.0235064
0.0235017
0.0234969
0.0234929
0.0234884
0.0234846
0.0234804
0.0234756
0.0234717
0.0234679
0.0234615
0.0234562
0.0234508
0.0234458
0.0234404
0.0234355
0.0234302
0.0234254
0.0234203
0.0234156
0.0234107
0.0234059
0.0234014
0.0233961
0.023392
0.0233857
0.0233812
0.0233745
0.0233695
0.0233638
0.0233584
0.0233537
0.0233482
0.0233438
0.0233381
0.0233329
0.0233258
0.023319
0.0233098
0.0233157
0.0233188
0.0233196
0.0233192
0.0233171
0.0233143
0.0233103
0.023306
0.0233008
0.0232955
0.0232896
0.0232836
0.0232772
0.0232708
0.0232641
0.0232575
0.0232507
0.0232439
0.0232371
0.0232303
0.0232234
0.0232166
0.0232098
0.0232029
0.0231961
0.0231892
0.0231825
0.0231756
0.0231689
0.0231621
0.0231555
0.0231488
0.0231423
0.0231357
0.0231292
0.0231226
0.0231162
0.0231097
0.0231033
0.0230969
0.0230905
0.0230841
0.0230778
0.0230714
0.0230651
0.0230587
0.0230524
0.023046
0.0230398
0.0230333
0.0230271
0.0230206
0.0230143
0.0230079
0.0230016
0.022995
0.0229887
0.0229821
0.0229757
0.022969
0.0229626
0.0229559
0.0229493
0.0229426
0.022936
0.0229292
0.0229226
0.0229158
0.0229092
0.0229023
0.0228956
0.0228888
0.0228821
0.0228752
0.0228684
0.0228615
0.0228547
0.0228478
0.022841
0.022834
0.0228272
0.0228202
0.0228133
0.0228063
0.0227995
0.0227924
0.0227856
0.0227785
0.0227717
0.0227646
0.0227578
0.0227507
0.0227439
0.0227369
0.0227301
0.022723
0.0227162
0.0227092
0.0227024
0.0226954
0.0226887
0.0226817
0.0226749
0.022668
0.0226613
0.0226544
0.0226477
0.022641
0.0226343
0.0226278
0.0226211
0.0226147
0.0226081
0.0226018
0.0225951
0.0225888
0.0225821
0.0225758
0.0225692
0.0225629
0.0225563
0.02255
0.0225435
0.0225372
0.0225307
0.0225245
0.0225181
0.0225118
0.0225054
0.0224992
0.0224929
0.0224867
0.0224804
0.0224742
0.022468
0.0224619
0.0224557
0.0224496
0.0224434
0.0224373
0.0224312
0.0224251
0.0224191
0.022413
0.022407
0.022401
0.022395
0.0223891
0.0223831
0.0223772
0.0223713
0.0223654
0.0223595
0.0223537
0.0223478
0.022342
0.0223362
0.0223305
0.0223247
0.022319
0.0223133
0.0223076
0.022302
0.0222964
0.0222908
0.0222852
0.0222797
0.0222741
0.0222687
0.0222632
0.0222578
0.0222524
0.022247
0.0222416
0.0222363
0.022231
0.0222258
0.0222205
0.0222153
0.0222102
0.022205
0.0221999
0.0221947
0.0221895
0.0221843
0.0221791
0.0221739
0.0221688
0.0221637
0.0221586
0.0221536
0.0221486
0.0221437
0.0221388
0.022134
0.0221292
0.0221245
0.0221198
0.0221152
0.0221106
0.0221061
0.0221016
0.0220972
0.0220929
0.0220886
0.0220844
0.0220802
0.022076
0.0220719
0.0220679
0.0220639
0.02206
0.0220561
0.0220523
0.0220485
0.0220447
0.022041
0.0220373
0.0220337
0.0220301
0.0220265
0.022023
0.0220195
0.022016
0.0220126
0.0220092
0.0220058
0.0220024
0.021999
0.0219957
0.0219924
0.0219891
0.0219858
0.0219825
0.0219792
0.0219759
0.0219726
0.0219693
0.021966
0.0219627
0.0219594
0.021956
0.0219527
0.0219494
0.021946
0.0219427
0.0219393
0.021936
0.0219327
0.0219293
0.021926
0.0219227
0.0219194
0.0219161
0.0219128
0.0219096
0.0219063
0.021903
0.0218998
0.0218965
0.0218933
0.02189
0.0218868
0.0218835
0.0218803
0.021877
0.0218737
0.0218704
0.021867
0.0218637
0.0218603
0.021857
0.0218535
0.0218501
0.0218467
0.0218432
0.0218397
0.0218362
0.0218327
0.0218291
0.0218256
0.021822
0.0218183
0.0218147
0.021811
0.0218073
0.0218036
0.0217998
0.0217961
0.0217923
0.0217885
0.0217847
0.0217808
0.0217769
0.021773
0.0217691
0.0217652
0.0217612
0.0217572
0.0217532
0.0217492
0.0217452
0.0217411
0.021737
0.0217329
0.0217288
0.0217247
0.0217206
0.0217165
0.0217124
0.0217083
0.0217042
0.0217001
0.021696
0.0216919
0.0216878
0.0216837
0.0216796
0.0216755
0.0216714
0.0216673
0.0216632
0.0216591
0.0216549
0.0216508
0.0216466
0.0216424
0.0216382
0.021634
0.0216297
0.0216255
0.0216213
0.021617
0.0216128
0.0216085
0.0216042
0.0216
0.0215957
0.0215914
0.0215871
0.0215828
0.0215785
0.0215741
0.0215698
0.0215654
0.021561
0.0215566
0.0215521
0.0215478
0.0215429
0.021539
0.0215331
0.0215298
0.021522
0.0215189
0.0215095
0.0215065
0.0214964
0.0214934
0.0214842
0.0214807
0.0214754
0.0214703
0.0214653
0.021458
0.021448
0.0214373
0.0214201
0.0214064
0.0214078
0.0214084
0.0214084
0.0214082
0.0214077
0.0214067
0.021404
0.0213807
0.0213704
0.0213692
0.0213692
0.0235
0.0235
0.0235
0.0235
0.0235
0.0235
0.0235
0.0235
0.0235
0.0235
0.0235
0.0235
0.0235
0.0235
0.0235
0.0235
0.0235
0.0235
0.0235
0.0235
0.0235
0.0235
0.0235
0.0235
0.0235
0.0235
0.0235
0.0235
0.0235
0.0235
0.0235
0.0235
0.0235
0.0235
0.0235
0.0235
0.0235
0.0235
0.0235
0.0235
0.0235
0.0235
0.0235
0.0235
0.0235
0.0235
0.0235
0.0235
0.0235
0.0235
0.0235
0.0235
0.0235
0.0235
0.0235
0.0235
0.0235
0.0235
0.0235
0.0234997
0.0235005
0.0235027
0.0235044
0.023507
0.0235108
0.0235146
0.02352
0.0235245
0.0235269
0.0235319
0.0235392
0.0235447
0.0235447
0.0235478
0.0235557
0.0235595
0.0235625
0.0235684
0.0235717
0.0235698
0.0235711
0.023581
0.0235856
0.0235822
0.0235857
0.0235895
0.0235845
0.0235853
0.0235901
0.0235902
0.0235849
0.0235828
0.0235922
0.0235902
0.0235823
0.0235841
0.0235795
0.0235776
0.0235843
0.0235792
0.0235692
0.0235696
0.0235706
0.0235669
0.0235697
0.0235706
0.0235568
0.0235511
0.0235591
0.0235547
0.0235488
0.023553
0.0235444
0.0235317
0.023537
0.0235408
0.0235343
0.0235296
0.0235254
0.0235175
0.0235126
0.0235137
0.0235125
0.0235039
0.0234946
0.0234885
0.0234839
0.0234793
0.0234741
0.0234685
0.0234628
0.0234571
0.0234516
0.0234463
0.0234411
0.023436
0.0234311
0.0234262
0.023421
0.023416
0.0234109
0.0234056
0.0234
0.0233946
0.0233892
0.0233837
0.0233783
0.0233728
0.0233674
0.023362
0.0233566
0.0233512
0.0233458
0.0233404
0.023335
0.0233295
0.0233242
0.0233185
0.0233132
0.0233074
0.0233021
0.0232963
0.0232911
0.0232853
0.02328
0.0232743
0.023269
0.0232635
0.0232585
0.0232534
0.0232485
0.0232433
0.0232385
0.0232341
0.0232296
0.0232253
0.0232207
0.0232162
0.0232113
0.0232065
0.0232015
0.0231964
0.0231911
0.0231858
0.0231803
0.0231748
0.0231691
0.0231635
0.0231577
0.0231519
0.0231461
0.0231402
0.0231343
0.0231283
0.0231224
0.0231164
0.0231104
0.0231044
0.0230983
0.0230923
0.0230863
0.0230802
0.0230742
0.0230681
0.023062
0.023056
0.0230499
0.0230438
0.0230376
0.0230315
0.0230253
0.0230192
0.023013
0.0230068
0.0230005
0.0229943
0.022988
0.0229817
0.0229754
0.0229691
0.0229627
0.0229564
0.02295
0.0229435
0.0229371
0.0229306
0.0229241
0.0229176
0.0229111
0.0229045
0.022898
0.0228914
0.0228847
0.0228781
0.0228714
0.0228648
0.022858
0.0228513
0.0228446
0.0228378
0.022831
0.0228242
0.0228174
0.0228106
0.0228037
0.0227969
0.02279
0.0227831
0.0227762
0.0227693
0.0227623
0.0227554
0.0227485
0.0227416
0.0227346
0.0227277
0.0227207
0.0227138
0.0227068
0.0226999
0.0226929
0.0226861
0.0226791
0.0226722
0.0226653
0.0226585
0.0226515
0.0226447
0.0226378
0.0226311
0.0226241
0.0226175
0.0226106
0.0226039
0.0225971
0.0225905
0.0225837
0.0225771
0.0225704
0.0225639
0.0225572
0.0225508
0.0225442
0.0225378
0.0225312
0.0225249
0.0225184
0.022512
0.0225056
0.0224993
0.0224929
0.0224866
0.0224803
0.0224741
0.0224678
0.0224616
0.0224553
0.0224492
0.022443
0.0224369
0.0224307
0.0224246
0.0224185
0.0224125
0.0224065
0.0224005
0.0223944
0.0223885
0.0223825
0.0223766
0.0223707
0.0223649
0.022359
0.0223532
0.0223474
0.0223416
0.0223359
0.0223302
0.0223245
0.0223188
0.0223132
0.0223075
0.022302
0.0222964
0.0222909
0.0222854
0.0222799
0.0222745
0.0222691
0.0222637
0.0222584
0.0222531
0.0222478
0.0222426
0.0222374
0.0222322
0.0222271
0.022222
0.0222169
0.0222119
0.0222068
0.0222019
0.0221969
0.022192
0.0221871
0.0221823
0.0221775
0.0221727
0.022168
0.0221633
0.0221586
0.0221539
0.0221493
0.0221447
0.0221401
0.0221356
0.022131
0.0221265
0.022122
0.0221176
0.0221132
0.0221088
0.0221044
0.0221001
0.0220958
0.0220915
0.0220873
0.0220831
0.022079
0.0220749
0.0220708
0.0220667
0.0220627
0.0220588
0.0220548
0.0220509
0.0220471
0.0220433
0.0220395
0.0220358
0.0220321
0.0220284
0.0220248
0.0220211
0.0220176
0.022014
0.0220105
0.022007
0.0220036
0.0220001
0.0219967
0.0219933
0.0219899
0.0219865
0.0219831
0.0219798
0.0219764
0.021973
0.0219697
0.0219663
0.021963
0.0219597
0.0219563
0.021953
0.0219496
0.0219463
0.0219429
0.0219395
0.0219362
0.0219328
0.0219294
0.021926
0.0219226
0.0219192
0.0219158
0.0219124
0.021909
0.0219055
0.0219021
0.0218987
0.0218952
0.0218918
0.0218883
0.0218849
0.0218814
0.0218779
0.0218745
0.021871
0.0218675
0.021864
0.0218606
0.0218571
0.0218536
0.0218501
0.0218466
0.0218431
0.0218396
0.0218361
0.0218326
0.021829
0.0218255
0.0218219
0.0218184
0.0218148
0.0218113
0.0218077
0.0218041
0.0218005
0.0217968
0.0217932
0.0217896
0.0217859
0.0217822
0.0217785
0.0217748
0.0217711
0.0217673
0.0217636
0.0217598
0.021756
0.0217522
0.0217484
0.0217445
0.0217407
0.0217368
0.0217329
0.021729
0.021725
0.0217211
0.0217171
0.0217131
0.0217091
0.0217051
0.0217011
0.0216971
0.021693
0.021689
0.0216849
0.0216808
0.0216767
0.0216726
0.0216685
0.0216644
0.0216603
0.0216561
0.021652
0.0216478
0.0216437
0.0216395
0.0216353
0.0216311
0.0216269
0.0216227
0.0216185
0.0216143
0.0216101
0.0216058
0.0216016
0.0215973
0.021593
0.0215887
0.0215844
0.0215801
0.0215758
0.0215715
0.0215671
0.0215628
0.0215584
0.0215541
0.0215497
0.0215453
0.0215409
0.0215365
0.0215321
0.0215277
0.0215233
0.0215188
0.0215144
0.0215099
0.0215055
0.021501
0.0214965
0.0214919
0.0214874
0.0214826
0.021478
0.0214729
0.0214682
0.0214629
0.0214581
0.0214528
0.0214483
0.0214432
0.0214389
0.0214341
0.0214295
0.0214248
0.0214198
0.0214146
0.0214116
0.0214098
0.0214074
0.0214058
0.0214046
0.0214039
0.0214025
0.0213931
0.0213752
0.0213701
0.0213694
0.0235
0.0235
0.0235
0.0235
0.0235
0.0235
0.0235
0.0235
0.0235
0.0235
0.0235
0.0235
0.0235
0.0235
0.0235
0.0235
0.0235
0.0235
0.0235
0.0235
0.0235
0.0235
0.0235
0.0235
0.0235
0.0235
0.0235
0.0235
0.0235
0.0235
0.0235
0.0235
0.0235
0.0235
0.0235
0.0235
0.0235
0.0235
0.0235
0.0235
0.0235
0.0235
0.0235
0.0235
0.0235
0.0235
0.0235
0.0235
0.0235
0.0235
0.0235
0.0235
0.0235
0.0235
0.0234999
0.0234999
0.0234999
0.0234999
0.0234999
0.0234996
0.0234999
0.0235006
0.0235003
0.0235003
0.0235012
0.0235019
0.0235041
0.0235052
0.0235045
0.0235065
0.0235111
0.0235135
0.0235114
0.023512
0.0235177
0.0235199
0.0235214
0.0235254
0.0235268
0.0235233
0.0235235
0.0235322
0.0235365
0.023533
0.0235354
0.0235389
0.0235343
0.0235346
0.023539
0.0235385
0.0235337
0.0235322
0.0235405
0.0235393
0.0235316
0.0235319
0.0235278
0.0235263
0.0235325
0.0235277
0.0235174
0.0235167
0.0235178
0.023515
0.023517
0.0235162
0.023502
0.0234954
0.0235021
0.0234987
0.0234925
0.0234944
0.0234854
0.0234723
0.0234756
0.0234799
0.0234747
0.0234684
0.0234624
0.0234538
0.0234486
0.023449
0.0234483
0.0234403
0.0234305
0.0234234
0.0234182
0.0234137
0.0234089
0.0234037
0.023398
0.0233923
0.0233866
0.0233811
0.0233755
0.0233702
0.023365
0.0233597
0.0233543
0.0233489
0.0233434
0.0233378
0.023332
0.0233263
0.0233206
0.0233149
0.0233092
0.0233035
0.0232978
0.0232922
0.0232865
0.0232809
0.0232753
0.0232695
0.023264
0.0232581
0.0232526
0.0232466
0.0232412
0.0232352
0.0232298
0.0232239
0.0232185
0.0232126
0.0232072
0.0232014
0.0231962
0.0231907
0.0231865
0.0231818
0.0231766
0.0231707
0.0231649
0.0231596
0.0231541
0.0231489
0.0231436
0.0231384
0.0231331
0.0231279
0.0231226
0.0231173
0.0231119
0.0231066
0.0231012
0.0230958
0.0230903
0.0230849
0.0230793
0.0230738
0.0230682
0.0230626
0.023057
0.0230514
0.0230457
0.0230401
0.0230344
0.0230287
0.023023
0.0230173
0.0230115
0.0230057
0.0229999
0.0229941
0.0229883
0.0229824
0.0229765
0.0229705
0.0229646
0.0229586
0.0229525
0.0229464
0.0229403
0.0229342
0.022928
0.0229218
0.0229155
0.0229092
0.0229029
0.0228965
0.0228901
0.0228837
0.0228772
0.0228708
0.0228643
0.0228578
0.0228512
0.0228447
0.022838
0.0228314
0.0228248
0.0228182
0.0228115
0.0228048
0.0227981
0.0227914
0.0227846
0.0227779
0.0227711
0.0227644
0.0227576
0.0227508
0.0227439
0.0227371
0.0227302
0.0227234
0.0227165
0.0227096
0.0227027
0.0226958
0.0226889
0.022682
0.0226751
0.0226682
0.0226613
0.0226544
0.0226474
0.0226406
0.0226337
0.0226269
0.0226199
0.0226132
0.0226062
0.0225995
0.0225926
0.0225859
0.0225791
0.0225724
0.0225656
0.022559
0.0225522
0.0225457
0.0225389
0.0225325
0.0225258
0.0225194
0.0225127
0.0225064
0.0224998
0.0224935
0.022487
0.0224807
0.0224743
0.0224681
0.0224617
0.0224555
0.0224492
0.0224431
0.0224369
0.0224308
0.0224246
0.0224186
0.0224125
0.0224065
0.0224005
0.0223945
0.0223885
0.0223826
0.0223767
0.0223708
0.022365
0.0223592
0.0223533
0.0223476
0.0223418
0.0223361
0.0223304
0.0223247
0.0223191
0.0223135
0.0223079
0.0223023
0.0222968
0.0222913
0.0222858
0.0222803
0.0222749
0.0222695
0.0222642
0.0222588
0.0222535
0.0222483
0.022243
0.0222378
0.0222327
0.0222275
0.0222224
0.0222174
0.0222123
0.0222073
0.0222024
0.0221975
0.0221926
0.0221877
0.0221829
0.0221781
0.0221733
0.0221686
0.0221639
0.0221593
0.0221547
0.0221501
0.0221456
0.0221411
0.0221366
0.0221322
0.0221278
0.0221234
0.0221191
0.0221148
0.0221105
0.0221063
0.0221021
0.0220979
0.0220937
0.0220896
0.0220855
0.0220815
0.0220774
0.0220734
0.0220695
0.0220655
0.0220616
0.0220577
0.0220539
0.02205
0.0220462
0.0220425
0.0220387
0.022035
0.0220313
0.0220277
0.022024
0.0220204
0.0220169
0.0220133
0.0220098
0.0220063
0.0220028
0.0219994
0.021996
0.0219926
0.0219892
0.0219859
0.0219825
0.0219792
0.0219759
0.0219726
0.0219694
0.0219661
0.0219628
0.0219596
0.0219563
0.0219531
0.0219498
0.0219465
0.0219433
0.02194
0.0219367
0.0219334
0.0219301
0.0219267
0.0219234
0.0219201
0.0219167
0.0219133
0.0219099
0.0219065
0.0219031
0.0218997
0.0218963
0.0218928
0.0218894
0.0218859
0.0218825
0.021879
0.0218755
0.0218719
0.0218684
0.0218649
0.0218613
0.0218578
0.0218542
0.0218506
0.021847
0.0218434
0.0218398
0.0218361
0.0218325
0.0218288
0.0218252
0.0218215
0.0218178
0.0218141
0.0218105
0.0218068
0.0218031
0.0217994
0.0217957
0.021792
0.0217883
0.0217846
0.0217808
0.0217771
0.0217734
0.0217696
0.0217659
0.0217621
0.0217584
0.0217546
0.0217508
0.0217471
0.0217433
0.0217395
0.0217356
0.0217318
0.021728
0.0217241
0.0217202
0.0217164
0.0217125
0.0217086
0.0217046
0.0217007
0.0216967
0.0216928
0.0216888
0.0216848
0.0216808
0.0216768
0.0216728
0.0216688
0.0216647
0.0216607
0.0216566
0.0216525
0.0216485
0.0216444
0.0216403
0.0216361
0.021632
0.0216279
0.0216237
0.0216195
0.0216153
0.0216111
0.0216069
0.0216027
0.0215985
0.0215942
0.02159
0.0215857
0.0215815
0.0215772
0.0215729
0.0215686
0.0215643
0.02156
0.0215557
0.0215514
0.021547
0.0215427
0.0215383
0.0215339
0.0215295
0.0215251
0.0215207
0.0215163
0.0215119
0.0215074
0.021503
0.0214985
0.021494
0.0214896
0.0214851
0.0214806
0.0214761
0.0214716
0.0214671
0.0214626
0.021458
0.0214536
0.0214489
0.0214446
0.0214397
0.0214355
0.0214304
0.0214263
0.0214211
0.0214171
0.0214119
0.021408
0.021403
0.0213992
0.0213948
0.0213916
0.0213887
0.021388
0.0213913
0.0213951
0.0213954
0.0213935
0.0213932
0.0213938
0.0213954
0.0213965
0.0213939
0.021383
0.0213725
0.0213696
0.0235
0.0235
0.0235
0.0235
0.0235
0.0235
0.0235
0.0235
0.0235
0.0235
0.0235
0.0235
0.0235
0.0235
0.0235
0.0235
0.0235
0.0235
0.0235
0.0235
0.0235
0.0235
0.0235
0.0235
0.0235
0.0235
0.0235
0.0235
0.0235
0.0235
0.0235
0.0235
0.0235
0.0235
0.0235
0.0235
0.0235
0.0235
0.0235
0.0235
0.0235
0.0235
0.0235
0.0234999
0.0234999
0.0234999
0.0234999
0.0234999
0.0234999
0.0234999
0.0234999
0.0234999
0.0234998
0.0234998
0.0234998
0.0234997
0.0234997
0.0234997
0.0234996
0.0234994
0.0234996
0.0234999
0.0234993
0.0234989
0.023499
0.0234991
0.0235
0.0234998
0.0234981
0.0234987
0.0235015
0.0235022
0.0234988
0.0234978
0.0235011
0.0235021
0.0235021
0.0235038
0.023503
0.0234982
0.023497
0.0235032
0.023506
0.0235021
0.0235022
0.0235033
0.0234983
0.0234967
0.0234987
0.0234967
0.0234911
0.0234889
0.0234943
0.0234921
0.0234838
0.0234811
0.0234765
0.0234745
0.0234783
0.0234729
0.0234623
0.0234596
0.0234597
0.0234571
0.0234575
0.0234545
0.0234406
0.0234331
0.023437
0.0234337
0.0234276
0.0234267
0.0234173
0.0234049
0.0234059
0.0234093
0.0234048
0.0233979
0.0233904
0.0233812
0.0233757
0.023375
0.0233736
0.0233657
0.0233556
0.0233476
0.0233419
0.0233371
0.0233324
0.0233272
0.0233216
0.0233158
0.02331
0.0233043
0.0232986
0.0232931
0.0232877
0.0232823
0.0232768
0.0232713
0.0232657
0.0232599
0.0232539
0.0232481
0.0232422
0.0232364
0.0232306
0.0232248
0.023219
0.0232132
0.0232075
0.0232017
0.023196
0.0231902
0.0231846
0.0231786
0.023173
0.023167
0.0231615
0.0231554
0.02315
0.0231441
0.0231388
0.0231329
0.0231276
0.0231218
0.0231168
0.0231114
0.0231076
0.0231032
0.0230983
0.0230925
0.0230866
0.0230812
0.0230755
0.0230702
0.0230646
0.0230593
0.0230538
0.0230485
0.0230431
0.0230378
0.0230323
0.023027
0.0230216
0.0230163
0.0230109
0.0230056
0.0230002
0.0229948
0.0229894
0.0229841
0.0229786
0.0229732
0.0229678
0.0229623
0.0229568
0.0229513
0.0229458
0.0229402
0.0229346
0.022929
0.0229233
0.0229176
0.0229119
0.0229061
0.0229003
0.0228944
0.0228885
0.0228825
0.0228765
0.0228704
0.0228643
0.0228582
0.022852
0.0228457
0.0228394
0.0228331
0.0228268
0.0228204
0.022814
0.0228075
0.022801
0.0227945
0.022788
0.0227815
0.0227749
0.0227683
0.0227617
0.0227551
0.0227484
0.0227418
0.0227351
0.0227284
0.0227217
0.022715
0.0227083
0.0227016
0.0226948
0.0226881
0.0226813
0.0226746
0.0226678
0.0226611
0.0226542
0.0226475
0.0226406
0.0226339
0.022627
0.0226202
0.0226134
0.0226066
0.0225998
0.022593
0.0225862
0.0225794
0.0225726
0.0225659
0.0225591
0.0225524
0.0225456
0.022539
0.0225322
0.0225257
0.022519
0.0225125
0.0225058
0.0224993
0.0224927
0.0224863
0.0224797
0.0224734
0.0224669
0.0224606
0.0224541
0.022448
0.0224416
0.0224355
0.0224291
0.0224231
0.0224168
0.0224109
0.0224047
0.0223987
0.0223926
0.0223868
0.0223807
0.0223749
0.0223689
0.0223632
0.0223573
0.0223516
0.0223457
0.0223401
0.0223343
0.0223287
0.022323
0.0223174
0.0223118
0.0223063
0.0223008
0.0222953
0.0222898
0.0222844
0.022279
0.0222736
0.0222683
0.022263
0.0222577
0.0222524
0.0222472
0.022242
0.0222368
0.0222317
0.0222266
0.0222215
0.0222165
0.0222115
0.0222065
0.0222015
0.0221966
0.0221917
0.0221869
0.0221821
0.0221773
0.0221725
0.0221678
0.0221631
0.0221585
0.0221539
0.0221493
0.0221447
0.0221402
0.0221358
0.0221313
0.0221269
0.0221226
0.0221183
0.022114
0.0221097
0.0221055
0.0221013
0.0220972
0.0220931
0.022089
0.022085
0.022081
0.022077
0.0220731
0.0220692
0.0220653
0.0220614
0.0220576
0.0220538
0.0220501
0.0220463
0.0220426
0.022039
0.0220353
0.0220317
0.0220281
0.0220246
0.022021
0.0220175
0.022014
0.0220106
0.0220071
0.0220037
0.0220003
0.0219969
0.0219936
0.0219902
0.0219869
0.0219836
0.0219804
0.0219771
0.0219739
0.0219707
0.0219675
0.0219643
0.0219611
0.0219579
0.0219548
0.0219516
0.0219485
0.0219454
0.0219422
0.0219391
0.021936
0.0219328
0.0219297
0.0219265
0.0219234
0.0219202
0.021917
0.0219138
0.0219106
0.0219073
0.0219041
0.0219008
0.0218975
0.0218941
0.0218908
0.0218874
0.021884
0.0218806
0.0218772
0.0218737
0.0218703
0.0218668
0.0218633
0.0218598
0.0218562
0.0218527
0.0218491
0.0218455
0.0218419
0.0218383
0.0218347
0.021831
0.0218273
0.0218236
0.0218199
0.0218162
0.0218125
0.0218087
0.0218049
0.0218011
0.0217973
0.0217935
0.0217897
0.0217859
0.021782
0.0217782
0.0217743
0.0217705
0.0217666
0.0217627
0.0217589
0.021755
0.0217511
0.0217472
0.0217433
0.0217395
0.0217356
0.0217317
0.0217278
0.0217239
0.02172
0.0217161
0.0217122
0.0217083
0.0217044
0.0217005
0.0216965
0.0216926
0.0216887
0.0216847
0.0216807
0.0216768
0.0216728
0.0216688
0.0216648
0.0216608
0.0216567
0.0216527
0.0216486
0.0216446
0.0216405
0.0216365
0.0216324
0.0216283
0.0216242
0.0216202
0.0216161
0.0216119
0.0216078
0.0216037
0.0215995
0.0215954
0.0215912
0.021587
0.0215828
0.0215786
0.0215744
0.0215701
0.0215659
0.0215616
0.0215574
0.0215531
0.0215488
0.0215445
0.0215402
0.0215359
0.0215315
0.0215272
0.0215229
0.0215185
0.0215141
0.0215098
0.0215054
0.021501
0.0214965
0.0214921
0.0214877
0.0214832
0.0214787
0.0214742
0.0214697
0.0214652
0.0214607
0.0214562
0.0214517
0.0214471
0.0214426
0.021438
0.0214335
0.0214289
0.0214243
0.0214198
0.0214152
0.0214107
0.0214059
0.0214016
0.0213967
0.0213925
0.0213874
0.0213834
0.0213783
0.0213745
0.0213694
0.0213658
0.0213609
0.0213575
0.0213532
0.0213508
0.021349
0.0213506
0.0213586
0.0213675
0.0213712
0.0213706
0.0213722
0.0213755
0.0213805
0.0213855
0.0213882
0.0213844
0.0213761
0.0213697
0.0235
0.0235
0.0235
0.0235
0.0235
0.0235
0.0235
0.0235
0.0235
0.0235
0.0235
0.0235
0.0235
0.0235
0.0235
0.0235
0.0235
0.0235
0.0235
0.0235
0.0235
0.0235
0.0235
0.0235
0.0235
0.0235
0.0235
0.0235
0.0235
0.0235
0.0235
0.0235
0.0235
0.0234999
0.0234999
0.0234999
0.0234999
0.0234999
0.0234999
0.0234999
0.0234998
0.0234998
0.0234998
0.0234998
0.0234997
0.0234997
0.0234997
0.0234996
0.0234996
0.0234995
0.0234994
0.0234994
0.0234993
0.0234992
0.0234991
0.0234989
0.0234988
0.0234986
0.0234984
0.0234981
0.0234981
0.023498
0.0234972
0.0234964
0.0234961
0.0234958
0.0234958
0.0234947
0.0234925
0.0234921
0.0234934
0.0234925
0.0234882
0.0234857
0.0234866
0.0234857
0.0234838
0.0234828
0.0234794
0.0234728
0.0234698
0.0234729
0.0234736
0.0234686
0.0234659
0.0234638
0.0234573
0.0234532
0.023452
0.0234477
0.0234406
0.0234368
0.0234386
0.0234347
0.0234254
0.0234196
0.0234135
0.0234103
0.0234113
0.0234051
0.0233943
0.0233895
0.0233879
0.023385
0.0233839
0.023379
0.0233657
0.0233575
0.0233587
0.0233553
0.0233493
0.0233462
0.0233369
0.0233254
0.0233248
0.0233271
0.0233236
0.0233165
0.0233084
0.023299
0.0232934
0.0232918
0.0232897
0.0232818
0.0232717
0.0232636
0.0232576
0.0232527
0.0232479
0.0232428
0.0232374
0.0232317
0.0232259
0.0232203
0.0232146
0.0232091
0.0232037
0.0231983
0.0231929
0.0231874
0.0231818
0.0231761
0.0231701
0.0231643
0.0231585
0.0231526
0.0231468
0.023141
0.0231353
0.0231295
0.0231238
0.0231181
0.0231125
0.0231067
0.0231011
0.0230953
0.0230897
0.0230838
0.0230783
0.0230724
0.0230672
0.0230614
0.0230562
0.0230505
0.0230454
0.0230398
0.0230351
0.0230299
0.0230265
0.0230222
0.0230176
0.0230121
0.0230064
0.0230011
0.0229955
0.0229903
0.0229848
0.0229796
0.0229742
0.022969
0.0229637
0.0229585
0.0229532
0.0229481
0.0229428
0.0229377
0.0229324
0.0229273
0.0229221
0.0229169
0.0229117
0.0229066
0.0229013
0.0228961
0.0228908
0.0228855
0.0228801
0.0228748
0.0228693
0.0228639
0.0228583
0.0228528
0.0228472
0.0228415
0.0228358
0.02283
0.0228241
0.0228183
0.0228123
0.0228063
0.0228003
0.0227942
0.022788
0.0227818
0.0227756
0.0227693
0.022763
0.0227567
0.0227503
0.0227439
0.0227375
0.022731
0.0227245
0.022718
0.0227115
0.022705
0.0226984
0.0226919
0.0226853
0.0226787
0.0226721
0.0226655
0.0226589
0.0226523
0.0226457
0.0226391
0.0226324
0.0226258
0.0226191
0.0226125
0.0226058
0.0225992
0.0225925
0.0225858
0.0225791
0.0225725
0.0225658
0.0225592
0.0225524
0.0225458
0.0225391
0.0225325
0.0225258
0.0225192
0.0225126
0.022506
0.0224994
0.0224929
0.0224862
0.0224798
0.0224732
0.0224668
0.0224602
0.0224539
0.0224474
0.0224411
0.0224347
0.0224285
0.0224221
0.022416
0.0224096
0.0224036
0.0223973
0.0223913
0.0223851
0.0223792
0.0223731
0.0223673
0.0223612
0.0223555
0.0223495
0.0223438
0.0223379
0.0223323
0.0223265
0.0223209
0.0223152
0.0223097
0.0223041
0.0222986
0.0222931
0.0222877
0.0222822
0.0222769
0.0222715
0.0222662
0.0222609
0.0222556
0.0222504
0.0222452
0.02224
0.0222349
0.0222298
0.0222248
0.0222197
0.0222148
0.0222098
0.0222049
0.0221999
0.0221951
0.0221902
0.0221854
0.0221806
0.0221759
0.0221712
0.0221665
0.0221618
0.0221572
0.0221526
0.0221481
0.0221435
0.0221391
0.0221346
0.0221302
0.0221258
0.0221214
0.0221171
0.0221128
0.0221085
0.0221043
0.0221001
0.022096
0.0220918
0.0220878
0.0220837
0.0220797
0.0220757
0.0220718
0.0220679
0.022064
0.0220602
0.0220564
0.0220526
0.0220489
0.0220452
0.0220415
0.0220379
0.0220343
0.0220307
0.0220272
0.0220237
0.0220202
0.0220168
0.0220133
0.0220099
0.0220065
0.0220032
0.0219999
0.0219966
0.0219933
0.02199
0.0219868
0.0219836
0.0219804
0.0219772
0.0219741
0.021971
0.0219678
0.0219647
0.0219616
0.0219586
0.0219555
0.0219525
0.0219494
0.0219464
0.0219434
0.0219404
0.0219374
0.0219344
0.0219314
0.0219284
0.0219254
0.0219224
0.0219194
0.0219164
0.0219134
0.0219104
0.0219073
0.0219043
0.0219012
0.0218981
0.021895
0.0218919
0.0218888
0.0218856
0.0218824
0.0218792
0.0218759
0.0218727
0.0218693
0.021866
0.0218626
0.0218592
0.0218558
0.0218523
0.0218489
0.0218453
0.0218418
0.0218383
0.0218347
0.0218311
0.0218275
0.0218238
0.0218202
0.0218165
0.0218128
0.0218091
0.0218054
0.0218016
0.0217978
0.021794
0.0217902
0.0217863
0.0217824
0.0217786
0.0217746
0.0217707
0.0217668
0.0217628
0.0217588
0.0217548
0.0217508
0.0217468
0.0217428
0.0217388
0.0217348
0.0217308
0.0217267
0.0217227
0.0217187
0.0217147
0.0217106
0.0217066
0.0217026
0.0216986
0.0216945
0.0216905
0.0216865
0.0216825
0.0216785
0.0216745
0.0216704
0.0216664
0.0216624
0.0216584
0.0216543
0.0216503
0.0216463
0.0216422
0.0216381
0.0216341
0.02163
0.0216259
0.0216218
0.0216177
0.0216136
0.0216095
0.0216054
0.0216013
0.0215972
0.0215931
0.021589
0.0215848
0.0215807
0.0215766
0.0215724
0.0215683
0.0215641
0.0215599
0.0215557
0.0215515
0.0215473
0.0215431
0.0215388
0.0215345
0.0215303
0.021526
0.0215217
0.0215174
0.021513
0.0215087
0.0215044
0.0215
0.0214957
0.0214913
0.021487
0.0214826
0.0214782
0.0214738
0.0214694
0.0214649
0.0214605
0.021456
0.0214515
0.021447
0.0214425
0.021438
0.0214335
0.0214289
0.0214243
0.0214198
0.0214152
0.0214106
0.021406
0.0214013
0.0213967
0.0213921
0.0213875
0.0213828
0.0213783
0.0213736
0.021369
0.0213642
0.0213598
0.0213549
0.0213507
0.0213456
0.0213416
0.0213365
0.0213328
0.0213278
0.0213243
0.0213195
0.0213163
0.0213123
0.0213104
0.0213094
0.0213125
0.0213226
0.021334
0.0213407
0.021342
0.0213455
0.0213514
0.02136
0.0213694
0.0213775
0.0213801
0.0213766
0.0213696
0.0235
0.0235
0.0235
0.0235
0.0235
0.0235
0.0235
0.0235
0.0235
0.0235
0.0235
0.0235
0.0235
0.0235
0.0235
0.0235
0.0235
0.0235
0.0235
0.0235
0.0235
0.0235
0.0235
0.0235
0.0235
0.0235
0.0235
0.0235
0.0234999
0.0234999
0.0234999
0.0234999
0.0234999
0.0234998
0.0234998
0.0234998
0.0234997
0.0234997
0.0234996
0.0234996
0.0234995
0.0234995
0.0234994
0.0234993
0.0234992
0.0234991
0.0234989
0.0234988
0.0234986
0.0234984
0.0234982
0.0234979
0.0234976
0.0234973
0.0234969
0.0234964
0.0234959
0.0234952
0.0234945
0.0234937
0.023493
0.0234921
0.0234906
0.0234889
0.0234875
0.0234861
0.0234847
0.0234822
0.0234786
0.0234765
0.0234755
0.0234725
0.0234665
0.0234615
0.0234588
0.0234547
0.0234495
0.0234447
0.0234386
0.0234303
0.0234251
0.0234251
0.0234234
0.0234173
0.0234121
0.0234068
0.0233984
0.0233919
0.0233878
0.0233814
0.023373
0.0233676
0.0233663
0.0233608
0.0233509
0.023343
0.0233357
0.0233313
0.0233298
0.023323
0.0233126
0.0233067
0.0233039
0.0233007
0.0232983
0.0232924
0.0232801
0.0232718
0.0232708
0.0232673
0.0232618
0.0232577
0.023249
0.0232392
0.0232379
0.0232395
0.0232368
0.0232302
0.0232222
0.0232133
0.0232076
0.0232051
0.0232022
0.0231945
0.023185
0.0231771
0.0231711
0.0231662
0.0231615
0.0231567
0.0231514
0.023146
0.0231403
0.0231348
0.0231293
0.0231239
0.0231187
0.0231133
0.023108
0.0231027
0.0230971
0.0230915
0.0230857
0.02308
0.0230742
0.0230685
0.0230628
0.0230571
0.0230515
0.0230459
0.0230403
0.0230347
0.0230292
0.0230236
0.0230181
0.0230125
0.023007
0.0230013
0.022996
0.0229903
0.0229853
0.0229797
0.0229748
0.0229693
0.0229644
0.0229591
0.0229546
0.0229499
0.0229467
0.0229425
0.0229383
0.0229331
0.0229277
0.0229226
0.0229173
0.0229122
0.022907
0.022902
0.0228969
0.0228919
0.0228868
0.0228819
0.0228768
0.0228719
0.0228669
0.022862
0.022857
0.0228521
0.0228471
0.0228422
0.0228371
0.0228321
0.022827
0.0228219
0.0228167
0.0228115
0.0228062
0.0228009
0.0227954
0.02279
0.0227844
0.0227788
0.0227731
0.0227674
0.0227616
0.0227557
0.0227498
0.0227438
0.0227378
0.0227317
0.0227255
0.0227194
0.0227131
0.0227069
0.0227006
0.0226943
0.0226879
0.0226816
0.0226752
0.0226688
0.0226623
0.0226559
0.0226494
0.022643
0.0226365
0.02263
0.0226235
0.022617
0.0226105
0.022604
0.0225975
0.022591
0.0225845
0.022578
0.0225715
0.022565
0.0225584
0.0225519
0.0225454
0.0225389
0.0225324
0.0225259
0.0225193
0.0225129
0.0225063
0.0224998
0.0224933
0.0224869
0.0224803
0.0224739
0.0224674
0.022461
0.0224545
0.0224481
0.0224416
0.0224353
0.0224289
0.0224226
0.0224162
0.02241
0.0224036
0.0223974
0.0223912
0.0223851
0.0223788
0.0223728
0.0223666
0.0223607
0.0223546
0.0223487
0.0223427
0.0223369
0.0223309
0.0223252
0.0223193
0.0223137
0.0223079