/*--------------------------------*- C++ -*----------------------------------*\
| =========                 |                                                 |
| \\      /  F ield         | foam-extend: Open Source CFD                    |
|  \\    /   O peration     | Version:     3.2                                |
|   \\  /    A nd           | Web:         http://www.foam-extend.org         |
|    \\/     M anipulation  | For copyright notice see file Copyright         |
\*---------------------------------------------------------------------------*/
FoamFile
{
    version     2.0;
    format      ascii;
    class       areaScalarField;
    location    "910";
    object      Cpre;
}
// * * * * * * * * * * * * * * * * * * * * * * * * * * * * * * * * * * * * * //

dimensions      [1 -3 0 0 0 0 0];

internalField   nonuniform List<scalar> 
550
(
0.0197
0.0197
0.0197
0.0197
0.0197
0.0197
0.0197
0.0197
0.0197
0.0197
0.0197
0.0197
0.0197
0.0197
0.0197
0.0197
0.0197
0.0197
0.0197
0.0197
0.0197
0.0197
0.0197
0.0197
0.0197
0.0197
0.0197
0.0197
0.0197
0.0197
0.0197
0.0197
0.0197
0.0197
0.0197
0.0197
0.0197
0.0197
0.0197
0.0197
0.0197
0.0197
0.0197
0.0197
0.0197
0.0197
0.0197
0.0197
0.0197
0.0197
0.0197
0.0197
0.0197
0.0197
0.0197
0.0197
0.0197
0.0197
0.0197
0.0197
0.0197
0.0197
0.0197
0.0197
0.0197
0.0197
0.0197
0.0197
0.0196999
0.0196999
0.0196999
0.0196999
0.0196999
0.0196999
0.0196999
0.0196999
0.0196998
0.0196998
0.0196998
0.0196997
0.0196997
0.0196996
0.0196996
0.0196995
0.0196994
0.0196994
0.0196993
0.0196991
0.019699
0.0196989
0.0196987
0.0196985
0.0196983
0.019698
0.0196978
0.0196974
0.0196971
0.0196967
0.0196963
0.0196959
0.0196954
0.0196948
0.0196942
0.0196936
0.0196928
0.0196921
0.0196912
0.0196903
0.0196893
0.0196887
0.0196994
0.0197256
0.0197384
0.0197528
0.0197672
0.0197772
0.0197885
0.0197955
0.0198064
0.0198182
0.0198163
0.0198275
0.0198292
0.0198308
0.0198275
0.0198297
0.0198356
0.0198434
0.019836
0.0198278
0.0198316
0.0198291
0.0198251
0.019827
0.019822
0.0198168
0.0198055
0.0198049
0.0197947
0.0197925
0.0197979
0.0197809
0.0197766
0.0197736
0.0197739
0.0197729
0.0197665
0.0197623
0.0197594
0.0197523
0.0197488
0.0197438
0.0197376
0.0197405
0.0197232
0.0197207
0.0197161
0.0197102
0.0196968
0.0196969
0.0196971
0.0196875
0.0196823
0.0196668
0.0196629
0.0196717
0.0196538
0.01965
0.0196422
0.0196374
0.019625
0.0196229
0.0196175
0.0196117
0.0196056
0.0195981
0.019596
0.0195817
0.0195802
0.0195801
0.0195697
0.019566
0.019554
0.0195406
0.0195454
0.0195406
0.0195334
0.0195299
0.0195236
0.019518
0.0195137
0.0195043
0.0194999
0.0194978
0.0194875
0.0194737
0.0194698
0.0194591
0.0194616
0.0194625
0.0194527
0.0194488
0.0194472
0.0194455
0.0194417
0.0194377
0.0194338
0.0194299
0.0194257
0.019421
0.0194159
0.01941
0.0194031
0.0193955
0.0193877
0.0193766
0.0193635
0.0193511
0.0193386
0.0193267
0.0193153
0.0193049
0.019296
0.0192885
0.0192827
0.0192781
0.0192746
0.0192714
0.0192687
0.0192657
0.0192627
0.0192593
0.0192559
0.019252
0.0192482
0.0192439
0.0192398
0.019235
0.0192303
0.0192254
0.0192205
0.0192152
0.0192094
0.0192048
0.0191999
0.0191957
0.0191912
0.0191861
0.0191817
0.0191777
0.0191735
0.0191697
0.0191656
0.0191619
0.0191587
0.0191554
0.0191519
0.0191482
0.0191444
0.0191408
0.0191372
0.0191332
0.0191293
0.0191255
0.019122
0.0191185
0.0191151
0.0191117
0.0191082
0.0191048
0.0191014
0.0190979
0.0190944
0.0190909
0.0190872
0.0190835
0.0190797
0.0190759
0.0190719
0.0190679
0.0190638
0.0190598
0.0190557
0.0190516
0.0190474
0.0190431
0.0190388
0.0190346
0.0190302
0.0190259
0.0190216
0.0190173
0.0190131
0.0190088
0.0190045
0.0190002
0.018996
0.0189918
0.0189877
0.0189836
0.0189794
0.0189753
0.0189712
0.0189671
0.018963
0.018959
0.0189549
0.0189509
0.018947
0.0189431
0.0189392
0.0189353
0.0189315
0.0189276
0.0189239
0.0189201
0.0189164
0.0189127
0.0189091
0.0189055
0.0189019
0.0188983
0.0188947
0.0188912
0.0188876
0.0188841
0.0188806
0.018877
0.0188735
0.01887
0.0188665
0.018863
0.0188595
0.018856
0.0188524
0.0188488
0.0188452
0.0188416
0.018838
0.0188344
0.0188308
0.0188272
0.0188236
0.0188201
0.0188165
0.0188129
0.0188094
0.0188059
0.0188024
0.018799
0.0187956
0.0187921
0.0187886
0.018785
0.0187815
0.0187779
0.0187744
0.0187709
0.0187675
0.018764
0.0187607
0.0187573
0.018754
0.0187507
0.0187474
0.0187442
0.0187411
0.018738
0.0187349
0.0187317
0.0187285
0.0187253
0.0187221
0.0187188
0.0187155
0.0187123
0.018709
0.0187058
0.0187026
0.0186993
0.0186961
0.0186929
0.0186896
0.0186864
0.0186831
0.0186797
0.0186764
0.018673
0.0186696
0.0186662
0.0186628
0.0186593
0.0186559
0.0186525
0.0186492
0.0186458
0.0186425
0.0186392
0.0186359
0.0186327
0.0186295
0.0186264
0.0186232
0.0186201
0.0186171
0.0186141
0.0186111
0.0186081
0.0186052
0.0186023
0.0185994
0.0185966
0.0185938
0.018591
0.0185883
0.0185856
0.018583
0.0185803
0.0185777
0.0185752
0.0185726
0.0185701
0.0185677
0.0185652
0.0185627
0.0185603
0.0185578
0.0185554
0.0185529
0.0185504
0.018548
0.0185454
0.0185429
0.0185403
0.0185377
0.018535
0.0185323
0.0185295
0.0185267
0.0185238
0.0185209
0.018518
0.018515
0.0185119
0.0185088
0.0185057
0.0185025
0.0184993
0.0184961
0.0184927
0.0184894
0.0184859
0.0184824
0.0184789
0.0184752
0.0184715
0.0184677
0.0184638
0.0184598
0.0184556
0.0184514
0.0184471
0.0184426
0.0184381
0.0184334
0.0184287
0.0184238
0.0184189
0.018414
0.018409
0.0184039
0.0183989
0.0183938
0.0183888
0.0183837
0.0183787
0.0183738
0.0183687
0.0183637
0.0183587
0.0183537
0.0183488
0.0183439
0.0183391
0.0183343
0.0183295
0.0183249
0.0183202
0.0183157
0.0183112
0.0183067
0.0183022
0.0182978
0.0182934
0.018289
0.0182846
0.0182803
0.0182759
0.0182715
0.0182671
0.0182627
0.0182583
0.0182538
0.0182493
0.0182448
0.0182403
0.0182357
0.018231
0.0182264
0.0182217
0.0182169
0.0182122
0.0182074
0.0182026
0.0181977
0.0181929
0.018188
0.0181831
0.0181782
0.0181731
0.0181685
0.0181628
0.0181585
0.0181519
0.0181476
0.01814
0.0181357
0.0181275
0.0181233
0.0181151
0.0181107
0.018104
0.0180989
0.0180943
0.0180874
0.0180792
0.0180692
0.018055
0.0180401
0.018039
0.0180376
0.0180356
0.0180338
0.0180321
0.0180307
0.0180293
0.0180177
0.017994
0.0179889
0.0179874
)
;

boundaryField
{
    inlet
    {
        type            calculated;
        value           uniform 0;
    }
    endWall
    {
        type            calculated;
        value           uniform 0;
    }
    sideWall
    {
        type            empty;
    }
}


// ************************************************************************* //
