/*--------------------------------*- C++ -*----------------------------------*\
| =========                 |                                                 |
| \\      /  F ield         | foam-extend: Open Source CFD                    |
|  \\    /   O peration     | Version:     3.2                                |
|   \\  /    A nd           | Web:         http://www.foam-extend.org         |
|    \\/     M anipulation  | For copyright notice see file Copyright         |
\*---------------------------------------------------------------------------*/
FoamFile
{
    version     2.0;
    format      ascii;
    class       areaScalarField;
    location    "910";
    object      dd;
}
// * * * * * * * * * * * * * * * * * * * * * * * * * * * * * * * * * * * * * //

dimensions      [0 1 0 0 0 0 0];

internalField   nonuniform List<scalar> 
550
(
0.00041
0.00041
0.00041
0.00041
0.000409999
0.00041
0.00041
0.00041
0.00041
0.00041
0.00041
0.00041
0.000409999
0.00041
0.00041
0.000409999
0.00041
0.00041
0.00041
0.00041
0.000410001
0.00041
0.00041
0.000409999
0.00041
0.00041
0.000409999
0.000410001
0.000409995
0.00041
0.00041
0.000409995
0.00041
0.00041
0.000410005
0.00041
0.00041
0.000410005
0.00041
0.000409995
0.00041
0.00041
0.000409995
0.00041
0.00041
0.000410005
0.00041
0.00041
0.000410005
0.00041
0.000409995
0.00041
0.00041
0.000409995
0.00041
0.00041
0.000410005
0.00041
0.00041
0.000410005
0.00041
0.000409995
0.00041
0.00041
0.000409995
0.00041
0.00041
0.000410005
0.00041
0.00041
0.000410005
0.00041
0.000409995
0.00041
0.00041
0.000409995
0.00041
0.00041
0.000410005
0.00041
0.00041
0.000410005
0.00041
0.000409995
0.00041
0.00041
0.000409995
0.00041
0.00041
0.000410005
0.00041
0.00041
0.000410005
0.00041
0.000409995
0.00041
0.00041
0.000409995
0.00041
0.00041
0.000410005
0.00041
0.00041
0.000410005
0.00041
0.000409995
0.00041
0.00041
0.000409995
0.000409612
0.000408767
0.000408845
0.000410649
0.000411661
0.000408909
0.000407388
0.000411709
0.000409452
0.000409649
0.000414057
0.00041064
0.000408859
0.000412148
0.000415612
0.000409231
0.000405799
0.00041585
0.000427079
0.000425406
0.000412848
0.000405409
0.000407856
0.000415971
0.000417886
0.000417669
0.000421158
0.000419462
0.000410971
0.000404462
0.000410212
0.000428507
0.000428626
0.000418714
0.000421418
0.00041748
0.000410349
0.000408507
0.000412398
0.000417688
0.000417471
0.000414798
0.000408492
0.000411437
0.000424698
0.000418741
0.000406938
0.000413155
0.000417311
0.000410316
0.000409894
0.000417207
0.000422075
0.000423522
0.000418038
0.00041367
0.000420188
0.000417609
0.000407831
0.000413396
0.000423274
0.000418748
0.000412252
0.000413038
0.000414616
0.000417319
0.000419988
0.000418724
0.000410722
0.000409799
0.000419266
0.000423741
0.00042798
0.000428299
0.000422223
0.000417965
0.000411008
0.000413377
0.000423626
0.000418795
0.000412203
0.000415566
0.000416848
0.000426081
0.000442427
0.000443729
0.000432286
0.000424752
0.000424637
0.00043466
0.000442775
0.000438441
0.000447128
0.000468861
0.000489062
0.000510208
0.000528686
0.00054459
0.000553089
0.000563813
0.00057562
0.000583066
0.000595401
0.000606538
0.000615107
0.000625695
0.000680828
0.00078515
0.000883882
0.00097487
0.00106839
0.00116002
0.00125312
0.00134517
0.00143716
0.0015273
0.0016161
0.00170242
0.00178624
0.00186704
0.00194421
0.00201782
0.00208702
0.00215204
0.00221248
0.00226818
0.00232015
0.00236668
0.00241251
0.0024498
0.00247991
0.00250867
0.0025439
0.00255995
0.00256461
0.00258372
0.00260648
0.00264614
0.00266505
0.00266737
0.00268414
0.00269888
0.00271209
0.00272223
0.00272488
0.00273993
0.00276416
0.00278576
0.00280159
0.00281065
0.00281886
0.00283042
0.00283243
0.00282344
0.00281132
0.00280117
0.00279442
0.00278798
0.00278473
0.00278121
0.00277688
0.00277732
0.00278144
0.00278744
0.00279851
0.00281249
0.00282744
0.00284514
0.00286741
0.00289106
0.00291406
0.00293907
0.0029679
0.00300012
0.00303416
0.00306832
0.00310261
0.0031382
0.00317458
0.00321066
0.00324588
0.00328064
0.0033159
0.0033514
0.00338614
0.00341984
0.00345282
0.00348553
0.0035188
0.00355255
0.00358659
0.00362043
0.00365362
0.00368602
0.00371761
0.00374848
0.00377891
0.00380881
0.00383813
0.00386708
0.00389549
0.00392358
0.00395135
0.00397869
0.00400586
0.00403277
0.00405941
0.00408612
0.00411298
0.00414002
0.00416761
0.00419558
0.00422417
0.00425328
0.00428286
0.00431308
0.00434391
0.00437524
0.00440726
0.00443989
0.00447305
0.00450696
0.00454147
0.00457694
0.00461355
0.00465116
0.0046898
0.00472928
0.00476939
0.00481027
0.00485173
0.00489365
0.00493614
0.0049788
0.00502167
0.00506449
0.00510695
0.00514895
0.00519019
0.0052303
0.00526901
0.0053062
0.00534182
0.00537548
0.00540657
0.00543529
0.00546146
0.00548488
0.00550612
0.00552522
0.00554202
0.00555726
0.00557085
0.00558243
0.00559289
0.00560276
0.00561232
0.00562251
0.0056345
0.00564847
0.00566323
0.00567745
0.00569096
0.00570396
0.00571667
0.00572956
0.00574254
0.005756
0.00577014
0.00578507
0.00580116
0.00581863
0.00583765
0.00585829
0.00588043
0.00590369
0.00592778
0.00595222
0.00597694
0.0060016
0.0060259
0.00604999
0.0060738
0.00609713
0.00612013
0.00614274
0.00616495
0.00618699
0.00620879
0.00623058
0.00625233
0.00627401
0.0062958
0.00631761
0.00633935
0.00636122
0.00638313
0.00640495
0.00642684
0.00644858
0.0064703
0.00649189
0.00651322
0.00653451
0.00655573
0.00657665
0.00659751
0.00661824
0.00663873
0.00665918
0.00667935
0.00669951
0.00671959
0.00673952
0.00675951
0.00677942
0.00679916
0.00681901
0.00683887
0.00685861
0.00687842
0.00689811
0.00691796
0.00693787
0.0069577
0.00697768
0.00699773
0.00701776
0.00703802
0.0070584
0.00707876
0.00709931
0.00711989
0.00714066
0.00716162
0.00718272
0.00720407
0.00722572
0.00724757
0.00726977
0.00729227
0.00731497
0.00733811
0.00736146
0.00738519
0.00740929
0.00743354
0.00745806
0.00748288
0.00750785
0.0075331
0.00755853
0.00758405
0.00760987
0.00763578
0.00766198
0.00768848
0.00771511
0.00774218
0.00776969
0.00779761
0.00782632
0.00785583
0.00788608
0.00791746
0.00795002
0.00798412
0.00802013
0.00805816
0.00809821
0.00813987
0.00818284
0.00822719
0.00827261
0.00831892
0.00836619
0.00841402
0.00846249
0.00851139
0.00856051
0.00860999
0.00865963
0.0087093
0.00875913
0.00880896
0.00885864
0.00890839
0.00895796
0.00900744
0.00905669
0.00910563
0.00915441
0.0092029
0.00925109
0.0092991
0.00934685
0.00939428
0.00944161
0.0094887
0.00953575
0.00958267
0.00962953
0.00967657
0.00972379
0.00977105
0.00981872
0.0098669
0.00991507
0.00996467
0.0100137
0.0100663
0.0101157
0.010174
0.010223
0.0102884
0.010334
0.0103988
0.0104319
0.0104816
0.0104875
0.010499
0.0104573
0.0103957
0.0102804
0.0101006
0.00985447
0.0094653
0.0088641
0.00787252
0.00609901
0.00262874
0.00040995
0.00041
0.00041
0.00040995
0.00041
0.00041005
0.00041
0.00041
0.00041005
0.00041
)
;

boundaryField
{
    inlet
    {
        type            calculated;
        value           uniform 0;
    }
    endWall
    {
        type            calculated;
        value           uniform 0;
    }
    sideWall
    {
        type            empty;
    }
}


// ************************************************************************* //
