/*--------------------------------*- C++ -*----------------------------------*\
| =========                 |                                                 |
| \\      /  F ield         | foam-extend: Open Source CFD                    |
|  \\    /   O peration     | Version:     3.2                                |
|   \\  /    A nd           | Web:         http://www.foam-extend.org         |
|    \\/     M anipulation  | For copyright notice see file Copyright         |
\*---------------------------------------------------------------------------*/
FoamFile
{
    version     2.0;
    format      ascii;
    class       areaScalarField;
    location    "1440";
    object      dd;
}
// * * * * * * * * * * * * * * * * * * * * * * * * * * * * * * * * * * * * * //

dimensions      [0 1 0 0 0 0 0];

internalField   nonuniform List<scalar> 
550
(
0.000405
0.000405
0.000405
0.000405
0.000404999
0.000405
0.000405
0.000405
0.000405
0.000405
0.000400702
0.000396405
0.000400702
0.000401548
0.000398096
0.000401548
0.000402595
0.00039807
0.000396531
0.000397563
0.000399832
0.00040199
0.000402328
0.000403663
0.000405
0.000405
0.000404127
0.000403259
0.000404125
0.000405
0.000405
0.00040432
0.000403
0.0004024
0.000402505
0.000403175
0.000403835
0.00040333
0.000403345
0.00040393
0.000403455
0.00040347
0.00040401
0.00040357
0.000403125
0.000403175
0.00040321
0.00040325
0.00040329
0.00040373
0.000404575
0.000404605
0.00040421
0.000404215
0.00040423
0.000404245
0.000404265
0.00040394
0.000404965
0.000403591
0.000404967
0.000405943
0.000404902
0.000404102
0.000404505
0.000405259
0.000406822
0.000406623
0.000404733
0.000405065
0.000408909
0.000409245
0.000402791
0.000402303
0.000405557
0.000409
0.000410707
0.000409984
0.000409262
0.000401219
0.000401284
0.000414513
0.000418474
0.000415751
0.000415373
0.000412684
0.000407151
0.000408766
0.0004152
0.000414333
0.000404386
0.000409153
0.000423091
0.000417376
0.000412475
0.000413597
0.000407336
0.000411238
0.000419837
0.000414199
0.000406343
0.000407106
0.000410816
0.00041583
0.000424296
0.000421932
0.000405159
0.000404204
0.000416691
0.000414633
0.000417819
0.000420351
0.000405588
0.000407744
0.000437664
0.000450735
0.000461163
0.000470558
0.000469536
0.000477795
0.000516178
0.000529836
0.000622409
0.000844873
0.001043
0.00122722
0.00140116
0.00156595
0.00172045
0.001864
0.00199564
0.00211436
0.00221944
0.00231002
0.00238446
0.00244896
0.00248989
0.00250222
0.0025537
0.0026321
0.00268603
0.00277941
0.00290979
0.0030265
0.00313629
0.00324199
0.00334344
0.00343922
0.00352858
0.00361076
0.00368685
0.00375575
0.00382155
0.00387874
0.00393709
0.00398297
0.00403758
0.00407418
0.00411393
0.0041279
0.00413167
0.0041171
0.00408886
0.00405239
0.00400455
0.00394627
0.0038631
0.00373581
0.00354297
0.0032222
0.00296593
0.00297469
0.00297495
0.00296233
0.00295568
0.00294892
0.00294901
0.00295069
0.00295858
0.00296803
0.00298276
0.00299876
0.00301906
0.00304026
0.0030651
0.00309049
0.00311886
0.00314751
0.00317864
0.00321011
0.00324368
0.00327749
0.0033133
0.00335003
0.00338794
0.0034268
0.00346629
0.00350639
0.00354683
0.00358757
0.00362856
0.00366981
0.00371121
0.00375255
0.00379391
0.00383532
0.00387666
0.00391798
0.00395937
0.00400073
0.00404199
0.00408304
0.00412399
0.00416471
0.00420517
0.00424551
0.00428553
0.00432514
0.00436451
0.0044036
0.00444244
0.0044811
0.00451935
0.00455742
0.00459533
0.00463333
0.00467097
0.00470883
0.00474629
0.00478407
0.00482126
0.00485862
0.00489538
0.00493218
0.00496825
0.00500443
0.00503999
0.00507546
0.00511052
0.00514556
0.00518034
0.00521509
0.00524959
0.00528441
0.00531866
0.0053531
0.0053869
0.00542094
0.00545418
0.00548773
0.00552029
0.00555316
0.0055849
0.00561699
0.00564778
0.00567897
0.00570873
0.00573878
0.00576713
0.00579568
0.00582279
0.0058504
0.00587632
0.00590258
0.00592706
0.005952
0.00597521
0.00599883
0.00602063
0.00604298
0.00606329
0.00608424
0.00610291
0.00612169
0.00613842
0.0061549
0.0061695
0.00618314
0.00619587
0.00620673
0.00621795
0.00622675
0.00623648
0.0062435
0.00625237
0.00625866
0.00626644
0.00627185
0.00627837
0.00628287
0.00628825
0.00629195
0.0062964
0.00629916
0.00630265
0.00630486
0.00630754
0.00630921
0.00631125
0.00631246
0.00631404
0.0063147
0.00631581
0.00631639
0.00631721
0.00631769
0.0063185
0.00631889
0.00631972
0.00632039
0.00632166
0.00632293
0.00632472
0.00632671
0.00632947
0.00633248
0.00633635
0.00634066
0.00634568
0.00635132
0.00635757
0.00636446
0.00637217
0.00638034
0.00638925
0.0063987
0.00640873
0.00641946
0.00643097
0.00644297
0.00645574
0.00646905
0.00648328
0.00649821
0.00651386
0.00653046
0.00654795
0.00656621
0.00658556
0.00660587
0.00662713
0.00664955
0.00667299
0.00669766
0.00672354
0.00675052
0.00677883
0.00680841
0.00683925
0.00687164
0.00690553
0.00694129
0.0069795
0.0070195
0.0070611
0.00710398
0.00714793
0.00719304
0.00723909
0.00728597
0.00733382
0.00738247
0.00743181
0.00748199
0.00753274
0.00758426
0.00763639
0.00768896
0.00774217
0.00779588
0.00784991
0.00790437
0.00795912
0.00801397
0.00806906
0.00812419
0.0081795
0.00823483
0.00829008
0.00834534
0.00840042
0.00845523
0.00850991
0.00856433
0.0086184
0.00867224
0.00872565
0.00877884
0.00883172
0.00888422
0.00893646
0.00898836
0.00903985
0.00909116
0.00914217
0.00919281
0.00924321
0.0092932
0.00934296
0.0093924
0.0094414
0.00949021
0.00953872
0.00958672
0.00963455
0.00968213
0.00972921
0.00977604
0.00982244
0.00986855
0.00991428
0.00995961
0.0100047
0.0100494
0.0100936
0.0101376
0.0101813
0.0102246
0.0102675
0.0103102
0.0103526
0.0103946
0.0104362
0.0104775
0.0105187
0.0105594
0.0105999
0.01064
0.0106797
0.0107192
0.0107584
0.0107974
0.0108362
0.0108747
0.0109132
0.0109515
0.0109897
0.011028
0.0110663
0.0111045
0.0111427
0.0111808
0.0112191
0.0112576
0.011296
0.0113346
0.0113734
0.0114124
0.0114517
0.0114913
0.0115311
0.0115713
0.0116115
0.0116519
0.0116925
0.0117332
0.0117742
0.0118154
0.0118566
0.0118981
0.0119398
0.0119815
0.0120235
0.0120655
0.0121077
0.0121502
0.0121928
0.0122358
0.012279
0.0123224
0.0123662
0.0124104
0.0124548
0.0124996
0.0125446
0.01259
0.0126359
0.0126821
0.0127286
0.0127755
0.0128226
0.01287
0.0129178
0.0129657
0.0130141
0.0130626
0.0131116
0.0131609
0.0132103
0.0132602
0.0133103
0.0133607
0.0134116
0.0134628
0.0135143
0.0135662
0.0136185
0.0136715
0.0137248
0.0137783
0.0138324
0.013887
0.0139418
0.0139972
0.014053
0.0141088
0.0141648
0.014221
0.0142777
0.0143349
0.0143925
0.0144505
0.0145089
0.0145677
0.0146271
0.0146871
0.0147468
0.0148086
0.0148689
0.0149344
0.0149942
0.0150679
0.0151251
0.0152077
0.0152573
0.0153337
0.0153597
0.0154041
0.0153818
0.0153553
0.0152531
0.0151037
0.0148869
0.0145675
0.0141352
0.0134905
0.0125316
0.0109993
0.00840572
0.0035174
0.00040495
0.000405
0.000405
0.00040495
0.000405
0.00040505
0.000405
0.000405
0.00040505
0.000405
)
;

boundaryField
{
    inlet
    {
        type            calculated;
        value           uniform 0;
    }
    endWall
    {
        type            calculated;
        value           uniform 0;
    }
    sideWall
    {
        type            empty;
    }
}


// ************************************************************************* //
