/*--------------------------------*- C++ -*----------------------------------*\
| =========                 |                                                 |
| \\      /  F ield         | foam-extend: Open Source CFD                    |
|  \\    /   O peration     | Version:     3.2                                |
|   \\  /    A nd           | Web:         http://www.foam-extend.org         |
|    \\/     M anipulation  | For copyright notice see file Copyright         |
\*---------------------------------------------------------------------------*/
FoamFile
{
    version     2.0;
    format      ascii;
    class       areaScalarField;
    location    "1440";
    object      ddmax;
}
// * * * * * * * * * * * * * * * * * * * * * * * * * * * * * * * * * * * * * //

dimensions      [0 1 0 0 0 0 0];

internalField   nonuniform List<scalar> 
550
(
0.000405
0.000405
0.000405
0.000405
0.000405
0.000405
0.000405
0.000405
0.000405
0.000405
0.000405
0.000405
0.000405
0.000405
0.000405
0.000405
0.000405
0.000405
0.000405
0.000405
0.000405001
0.000405
0.000405
0.000405
0.000405
0.000405
0.000405
0.000405001
0.000405
0.000405
0.000405
0.000405
0.000405
0.000405
0.000405005
0.000405
0.000405
0.000405005
0.000405
0.000405
0.000405
0.000405
0.000405
0.000405
0.000405
0.000405005
0.000405
0.000405
0.000405005
0.000405
0.000405
0.000405
0.000405
0.000405
0.000405
0.000405
0.000405005
0.000405
0.000405003
0.000405068
0.00040572
0.000407018
0.000407934
0.000408861
0.000409883
0.000410021
0.000411146
0.000412229
0.000413139
0.000413975
0.00041467
0.000415208
0.000417192
0.000419996
0.000420733
0.000422578
0.000428116
0.000431457
0.000434635
0.000442399
0.000448338
0.000470855
0.000456707
0.00047182
0.000459174
0.000489985
0.000497535
0.000519719
0.000546014
0.000570995
0.000581824
0.000583619
0.000595322
0.000608825
0.000638679
0.000653148
0.000670108
0.000691807
0.000724625
0.000747063
0.000764387
0.000791114
0.000818166
0.000845853
0.000875198
0.000906857
0.000936274
0.000970376
0.00100309
0.00103485
0.00107559
0.00112219
0.00117134
0.00121532
0.00125771
0.00129797
0.00132979
0.00135596
0.00138786
0.00143064
0.00151163
0.00155735
0.00159058
0.00164291
0.00169653
0.00178437
0.00180407
0.00180028
0.00190527
0.00202265
0.00213664
0.00224208
0.0023437
0.00248905
0.00265947
0.00277422
0.00284867
0.00294137
0.00301799
0.00306655
0.00309964
0.00317264
0.00328623
0.00338622
0.00348066
0.00357027
0.00365616
0.00373521
0.00380833
0.00387362
0.00393341
0.00398677
0.00403578
0.00407893
0.00411752
0.00415244
0.00418137
0.00420864
0.00422904
0.00424007
0.00423988
0.00422796
0.00420518
0.00416888
0.00412583
0.00406633
0.00398761
0.00386048
0.00366894
0.00354723
0.00357292
0.00359768
0.00362147
0.00364452
0.00366681
0.003688
0.00370867
0.00373083
0.00375383
0.00377646
0.00379909
0.00382118
0.00384249
0.0038634
0.0038838
0.00390363
0.00392304
0.00394182
0.00396009
0.00397788
0.00399502
0.00401153
0.00402747
0.00404274
0.00405738
0.00407129
0.00408452
0.00409724
0.00411991
0.00416222
0.00420387
0.00424498
0.00428546
0.00432521
0.0043643
0.00440284
0.0044407
0.00447797
0.00451486
0.00455129
0.00458721
0.00462241
0.00465695
0.00469084
0.00472387
0.00475628
0.00478796
0.0048187
0.00484865
0.00487783
0.00490623
0.00493399
0.00496097
0.00498708
0.00501264
0.00503761
0.00506195
0.00508578
0.00510907
0.00513199
0.00515446
0.00517646
0.00519816
0.00521944
0.00524023
0.0052608
0.00528104
0.00530089
0.00532048
0.00533976
0.005367
0.00539545
0.0054235
0.00545136
0.00547885
0.005506
0.0055328
0.00555919
0.00558516
0.0056107
0.00563582
0.00566055
0.00568487
0.00570867
0.00573195
0.00575467
0.00577692
0.00580031
0.00582784
0.0058553
0.00588081
0.00590593
0.00592938
0.00595141
0.00597271
0.00599173
0.00601167
0.00602878
0.00604765
0.00606824
0.00608737
0.00610694
0.00612477
0.00614176
0.00615747
0.00617164
0.00618544
0.00619831
0.00621099
0.00622179
0.00623298
0.00624173
0.00625146
0.00625847
0.00626733
0.0062736
0.00628136
0.00628674
0.00629321
0.00629779
0.00630305
0.00630727
0.00631205
0.00631538
0.00631922
0.006322
0.00632506
0.00632728
0.00632969
0.00633139
0.00633328
0.00633431
0.0063356
0.0063364
0.00633729
0.00635087
0.00636482
0.00637891
0.00639329
0.00640799
0.00642316
0.00643869
0.00645455
0.00647086
0.00648771
0.00650495
0.00652278
0.00654111
0.00655981
0.0065791
0.00659866
0.00661878
0.00663941
0.00666037
0.00668173
0.00670349
0.00672551
0.00674805
0.0067711
0.00679444
0.00681826
0.00684244
0.00686723
0.00689246
0.00691808
0.00694435
0.00697114
0.0069984
0.00702638
0.00705502
0.00708426
0.00711435
0.00714511
0.00717675
0.00720915
0.00724221
0.00727612
0.0073108
0.00734618
0.00738239
0.00741931
0.00745678
0.00749488
0.00753336
0.00757235
0.0076117
0.00765141
0.00769176
0.00773261
0.00777385
0.00781558
0.00785762
0.00789992
0.00794271
0.0079859
0.00802968
0.00807383
0.00811813
0.00816274
0.00820755
0.00825238
0.00829739
0.00834245
0.00838743
0.00843253
0.00847773
0.00852405
0.00857405
0.00862695
0.00867992
0.00873247
0.00878443
0.00883593
0.00888684
0.0089371
0.0089869
0.00903633
0.00908533
0.00913378
0.00918163
0.00922907
0.00927652
0.00932353
0.00937014
0.00941623
0.00946175
0.00950693
0.00955178
0.00959642
0.00964055
0.00968403
0.00972711
0.00976966
0.00981144
0.00985284
0.00989377
0.00993409
0.00997407
0.0100136
0.0100527
0.0100915
0.0101297
0.0101678
0.0102054
0.0102424
0.0102792
0.0103158
0.0103519
0.0103877
0.0104229
0.0104579
0.0104928
0.0105271
0.010561
0.0105946
0.0106276
0.0106604
0.0106928
0.0107247
0.0107585
0.010798
0.0108374
0.0108765
0.0109154
0.0109542
0.0109928
0.0110314
0.0110699
0.0111085
0.011147
0.0111855
0.0112238
0.0112623
0.011301
0.0113396
0.0113782
0.0114171
0.0114561
0.0114956
0.0115361
0.0115767
0.0116178
0.0116588
0.0117001
0.0117415
0.0117831
0.0118251
0.0118673
0.0119096
0.0119521
0.0119947
0.0120374
0.0120804
0.0121233
0.0121665
0.0122099
0.0122534
0.0122972
0.0123412
0.0123854
0.0124299
0.0124748
0.0125197
0.0125651
0.0126106
0.0126563
0.0127025
0.0127488
0.0127954
0.0128423
0.0128893
0.0129364
0.0129838
0.0130313
0.0130791
0.0131271
0.0131754
0.013224
0.0132727
0.0133218
0.0133712
0.0134209
0.013471
0.0135215
0.0135723
0.0136236
0.0136752
0.0137274
0.01378
0.0138328
0.0138861
0.0139399
0.0139939
0.0140485
0.0141038
0.014159
0.0142144
0.0142699
0.0143259
0.0143823
0.014439
0.0144961
0.0145537
0.0146117
0.0146702
0.0147295
0.0147885
0.0148496
0.0149092
0.0149743
0.0150334
0.0151071
0.0151638
0.0152457
0.0152945
0.0153701
0.0153954
0.0154388
0.0154155
0.0153875
0.0152843
0.0151337
0.0149162
0.0145963
0.0141631
0.0135173
0.0125558
0.0110201
0.00841976
0.00352186
0.000405
0.000405
0.000405
0.000405
0.000405
0.00040505
0.000405
0.000405
0.00040505
0.000405
)
;

boundaryField
{
    inlet
    {
        type            calculated;
        value           uniform 0;
    }
    endWall
    {
        type            calculated;
        value           uniform 0;
    }
    sideWall
    {
        type            empty;
    }
}


// ************************************************************************* //
