/*--------------------------------*- C++ -*----------------------------------*\
| =========                 |                                                 |
| \\      /  F ield         | foam-extend: Open Source CFD                    |
|  \\    /   O peration     | Version:     3.2                                |
|   \\  /    A nd           | Web:         http://www.foam-extend.org         |
|    \\/     M anipulation  | For copyright notice see file Copyright         |
\*---------------------------------------------------------------------------*/
FoamFile
{
    version     2.0;
    format      ascii;
    class       areaScalarField;
    location    "910";
    object      ddmax;
}
// * * * * * * * * * * * * * * * * * * * * * * * * * * * * * * * * * * * * * //

dimensions      [0 1 0 0 0 0 0];

internalField   nonuniform List<scalar> 
550
(
0.00041
0.00041
0.00041
0.00041
0.00041
0.00041
0.00041
0.00041
0.00041
0.00041
0.00041
0.00041
0.00041
0.00041
0.00041
0.00041
0.00041
0.00041
0.00041
0.00041
0.000410001
0.00041
0.00041
0.00041
0.00041
0.00041
0.00041
0.000410001
0.00041
0.00041
0.00041
0.00041
0.00041
0.00041
0.000410005
0.00041
0.00041
0.000410005
0.00041
0.00041
0.00041
0.00041
0.00041
0.00041
0.00041
0.000410005
0.00041
0.00041
0.000410005
0.00041
0.00041
0.00041
0.00041
0.00041
0.00041
0.00041
0.000410005
0.00041
0.00041
0.000410005
0.00041
0.00041
0.00041
0.00041
0.00041
0.00041
0.00041
0.000410005
0.00041
0.00041
0.000410005
0.00041
0.00041
0.00041
0.00041
0.00041
0.00041
0.00041
0.000410005
0.00041
0.00041
0.000410005
0.00041
0.00041
0.00041
0.00041
0.00041
0.00041
0.00041
0.000410005
0.00041
0.00041
0.000410005
0.00041
0.00041
0.00041
0.00041
0.00041
0.00041
0.00041
0.000410005
0.00041
0.00041
0.000410005
0.00041
0.00041
0.00041
0.00041
0.00041
0.000411764
0.000412573
0.000413486
0.000415377
0.000415306
0.000420276
0.00041706
0.000421859
0.00042475
0.000420955
0.000433373
0.000427852
0.000429751
0.000428205
0.000432608
0.00043709
0.000437051
0.000461125
0.000456616
0.000471782
0.000454605
0.000464445
0.00044148
0.000455562
0.000476748
0.000475437
0.000500374
0.000522694
0.000505107
0.00047399
0.000487687
0.000469967
0.000490019
0.000500298
0.000470525
0.000490576
0.000466584
0.000480507
0.000489237
0.000482244
0.000499139
0.00047759
0.000494421
0.00048619
0.000488615
0.000498906
0.000496997
0.000507836
0.00050391
0.00051652
0.000507724
0.000523279
0.000526679
0.000533316
0.000538436
0.000543672
0.000546266
0.00055033
0.000555569
0.000559046
0.000571618
0.000582947
0.000591853
0.00059668
0.000609222
0.000617486
0.000628022
0.000638457
0.0006531
0.000667959
0.000691337
0.000701205
0.000703044
0.000715245
0.000723875
0.000727409
0.00072695
0.000745392
0.000753315
0.000740365
0.000742421
0.000760509
0.000764072
0.000770215
0.000781194
0.000802142
0.000800439
0.000803257
0.000822465
0.000837983
0.000879399
0.000910424
0.000896565
0.000899706
0.000912213
0.000906222
0.000882252
0.000895212
0.000943364
0.000903523
0.000906655
0.000905891
0.000912155
0.000928066
0.000955641
0.000959226
0.000919162
0.000939149
0.000941554
0.000984096
0.00107235
0.00116231
0.00125429
0.00134717
0.00144168
0.00153484
0.00162573
0.00171387
0.00179877
0.00187995
0.00195713
0.00202979
0.002098
0.00216125
0.00222284
0.00227894
0.00233218
0.00238312
0.00243314
0.00247238
0.0025006
0.00252885
0.00256372
0.00258084
0.00258704
0.0026074
0.00263173
0.00267332
0.00269331
0.0026969
0.002715
0.00273037
0.00274459
0.00275574
0.00275923
0.0027748
0.00279997
0.00282242
0.00283925
0.00284932
0.00285883
0.0028717
0.00287512
0.00286761
0.00285716
0.00284855
0.00284335
0.00283832
0.0028365
0.00283422
0.00283108
0.00283259
0.0028378
0.00284479
0.00285687
0.00287207
0.00289553
0.00292168
0.00295214
0.00298404
0.00301522
0.00304871
0.00308717
0.00312845
0.00316993
0.00321033
0.00325029
0.00329091
0.00333106
0.00336982
0.00340739
0.00344453
0.003482
0.00351932
0.00355565
0.00359091
0.00362523
0.00365912
0.00369335
0.00372789
0.0037625
0.00379703
0.00383068
0.00386333
0.00389495
0.00392563
0.00395562
0.00398485
0.00401328
0.00404115
0.00406833
0.00409548
0.00412214
0.00414814
0.00417372
0.00419892
0.00422458
0.00425031
0.004276
0.00430172
0.00432837
0.00435526
0.00438258
0.00441025
0.00443866
0.00446815
0.00449809
0.00452837
0.00455917
0.00459039
0.00462194
0.00465401
0.00468641
0.00471941
0.00475296
0.00478701
0.00482183
0.00485742
0.00489389
0.00493146
0.0049699
0.00500908
0.00504907
0.00508974
0.0051308
0.00517196
0.0052129
0.00525355
0.0052938
0.00533316
0.00537127
0.00540802
0.00544317
0.0054763
0.00550679
0.00553487
0.00556031
0.00558294
0.00560332
0.0056215
0.00563736
0.0056516
0.00566415
0.00567467
0.00568404
0.00569279
0.00570124
0.00571055
0.00572178
0.00573531
0.00574965
0.00576347
0.00577659
0.00578915
0.0058014
0.00581376
0.00582615
0.00583896
0.0058524
0.00586656
0.00588181
0.00589875
0.00591724
0.0059373
0.00595879
0.00598136
0.0060047
0.00602834
0.0060522
0.00607595
0.0060993
0.00612239
0.00614515
0.00616738
0.00618923
0.00621065
0.00623163
0.00625239
0.00627287
0.00629329
0.00631361
0.00633381
0.00635407
0.00637429
0.00639438
0.00641476
0.00643578
0.00645664
0.0064775
0.00649814
0.0065187
0.00653902
0.00655902
0.00657919
0.00659963
0.00661974
0.00663976
0.00665962
0.00667922
0.00669878
0.00671807
0.00673735
0.00675659
0.00677572
0.00679495
0.00681416
0.00683326
0.00685259
0.00687262
0.00689261
0.00691275
0.00693283
0.00695314
0.00697354
0.00699391
0.00701446
0.00703509
0.00705571
0.00707656
0.00709761
0.0071191
0.00714082
0.00716264
0.00718468
0.0072069
0.00722928
0.00725188
0.00727476
0.00729782
0.00732119
0.00734483
0.00736864
0.00739284
0.00741723
0.00744195
0.007467
0.00749218
0.00751761
0.00754333
0.00756924
0.00759545
0.00762182
0.00764826
0.00767499
0.0077018
0.00772891
0.00775633
0.00778388
0.00781184
0.00784024
0.007869
0.00789858
0.00792893
0.00795999
0.00799208
0.00802521
0.00805979
0.00809601
0.00813412
0.00817408
0.00821562
0.00825843
0.00830262
0.00834791
0.00839406
0.00844116
0.00848877
0.008537
0.00858559
0.00863437
0.00868345
0.00873266
0.00878184
0.00883116
0.00888045
0.00892957
0.00897873
0.00902769
0.00907655
0.00912515
0.00917342
0.00922177
0.00926988
0.00931762
0.00936513
0.00941231
0.00945906
0.00950564
0.00955186
0.00959794
0.00964379
0.00968947
0.0097352
0.00978102
0.00982685
0.00987301
0.00991958
0.00996639
0.0100148
0.0100627
0.0101142
0.0101623
0.0102198
0.0102677
0.0103316
0.010376
0.0104398
0.010472
0.0105208
0.0105256
0.010536
0.0104933
0.0104307
0.0103145
0.0101337
0.00988626
0.00949549
0.00889146
0.00789626
0.00611564
0.00263443
0.00041
0.00041
0.00041
0.00041
0.00041
0.00041005
0.00041
0.00041
0.00041005
0.00041
)
;

boundaryField
{
    inlet
    {
        type            calculated;
        value           uniform 0;
    }
    endWall
    {
        type            calculated;
        value           uniform 0;
    }
    sideWall
    {
        type            empty;
    }
}


// ************************************************************************* //
