/*--------------------------------*- C++ -*----------------------------------*\
| =========                 |                                                 |
| \\      /  F ield         | foam-extend: Open Source CFD                    |
|  \\    /   O peration     | Version:     3.2                                |
|   \\  /    A nd           | Web:         http://www.foam-extend.org         |
|    \\/     M anipulation  | For copyright notice see file Copyright         |
\*---------------------------------------------------------------------------*/
FoamFile
{
    version     2.0;
    format      ascii;
    class       volScalarField;
    location    "910";
    object      DiSSt;
}
// * * * * * * * * * * * * * * * * * * * * * * * * * * * * * * * * * * * * * //

dimensions      [0 2 -1 0 0 0 0];

internalField   nonuniform List<scalar> 
33000
(
7.25836e-06
8.61066e-06
1.00076e-05
1.14185e-05
1.2808e-05
1.41411e-05
1.53883e-05
1.65239e-05
1.75326e-05
1.84029e-05
1.91339e-05
1.97283e-05
2.01952e-05
2.05452e-05
2.07914e-05
2.09466e-05
2.10244e-05
2.10378e-05
2.0904e-05
2.01512e-05
1.94254e-05
1.87482e-05
1.81111e-05
1.75256e-05
1.6986e-05
1.64968e-05
1.60548e-05
1.56595e-05
1.52989e-05
1.49696e-05
1.46701e-05
1.43981e-05
1.41532e-05
1.39325e-05
1.37347e-05
1.35575e-05
1.33986e-05
1.32565e-05
1.31293e-05
1.30167e-05
1.29174e-05
1.28306e-05
1.27559e-05
1.26927e-05
1.2641e-05
1.25988e-05
1.25668e-05
1.25439e-05
1.25287e-05
1.25198e-05
1.25164e-05
1.25173e-05
1.2523e-05
1.25322e-05
1.25448e-05
1.25608e-05
1.25803e-05
1.26033e-05
1.26293e-05
1.26586e-05
1.26895e-05
1.2723e-05
1.27575e-05
1.27939e-05
1.28309e-05
1.28694e-05
1.29084e-05
1.29488e-05
1.29901e-05
1.30321e-05
1.3075e-05
1.31171e-05
1.31591e-05
1.3199e-05
1.32375e-05
1.32732e-05
1.33069e-05
1.33378e-05
1.3367e-05
1.33943e-05
1.34203e-05
1.34456e-05
1.34697e-05
1.34947e-05
1.3519e-05
1.35452e-05
1.35711e-05
1.35988e-05
1.36262e-05
1.36547e-05
1.36811e-05
1.37075e-05
1.37306e-05
1.37525e-05
1.3772e-05
1.37913e-05
1.38088e-05
1.38298e-05
1.38471e-05
1.38694e-05
1.38882e-05
1.39094e-05
1.3928e-05
1.39476e-05
1.39634e-05
1.39837e-05
1.39945e-05
1.40169e-05
1.4024e-05
1.40405e-05
1.40721e-05
1.40838e-05
1.40745e-05
1.41145e-05
1.41549e-05
1.40978e-05
1.40709e-05
1.41005e-05
1.41122e-05
1.41136e-05
1.41188e-05
1.4092e-05
1.40991e-05
1.4161e-05
1.42241e-05
1.41148e-05
1.4028e-05
1.40223e-05
1.40656e-05
1.42148e-05
1.42421e-05
1.40918e-05
1.39895e-05
1.40482e-05
1.40033e-05
1.40346e-05
1.41623e-05
1.42336e-05
1.40225e-05
1.39441e-05
1.39798e-05
1.39771e-05
1.39404e-05
1.40901e-05
1.41963e-05
1.41866e-05
1.39961e-05
1.38896e-05
1.38902e-05
1.39285e-05
1.4059e-05
1.40616e-05
1.38537e-05
1.38231e-05
1.39964e-05
1.40511e-05
1.39167e-05
1.38425e-05
1.3869e-05
1.38861e-05
1.3865e-05
1.38762e-05
1.38853e-05
1.38698e-05
1.38308e-05
1.38318e-05
1.39615e-05
1.39962e-05
1.38376e-05
1.37476e-05
1.38926e-05
1.39906e-05
1.38638e-05
1.37762e-05
1.38054e-05
1.38424e-05
1.38373e-05
1.3833e-05
1.38228e-05
1.38172e-05
1.38203e-05
1.37862e-05
1.37865e-05
1.3816e-05
1.39331e-05
1.39467e-05
1.38427e-05
1.37713e-05
1.37882e-05
1.38148e-05
1.38159e-05
1.38073e-05
1.37594e-05
1.37616e-05
1.39329e-05
1.40134e-05
1.39002e-05
1.37875e-05
1.38281e-05
1.38589e-05
1.38655e-05
1.39014e-05
1.38995e-05
1.38861e-05
1.38979e-05
1.38968e-05
1.39251e-05
1.39037e-05
1.39092e-05
1.39189e-05
1.38912e-05
1.38926e-05
1.38869e-05
1.38785e-05
1.38107e-05
1.38605e-05
1.39684e-05
1.39931e-05
1.40584e-05
1.40803e-05
1.41394e-05
1.41583e-05
1.42098e-05
1.42392e-05
1.42856e-05
1.43133e-05
1.43545e-05
1.43657e-05
1.44075e-05
1.44162e-05
1.44556e-05
1.44618e-05
1.44868e-05
1.44962e-05
1.45041e-05
1.45203e-05
1.4513e-05
1.45382e-05
1.4534e-05
1.45361e-05
1.45022e-05
1.45557e-05
1.45401e-05
1.44685e-05
1.44956e-05
1.44428e-05
1.45282e-05
1.45175e-05
1.44528e-05
1.44855e-05
1.44722e-05
1.44742e-05
1.44596e-05
1.44291e-05
1.44286e-05
1.44524e-05
1.44681e-05
1.44456e-05
1.44269e-05
1.44497e-05
1.4489e-05
1.44459e-05
1.44263e-05
1.44096e-05
1.44109e-05
1.43931e-05
1.43905e-05
1.43879e-05
1.43691e-05
1.43814e-05
1.43697e-05
1.43714e-05
1.4365e-05
1.43697e-05
1.43714e-05
1.43767e-05
1.43784e-05
1.43891e-05
1.43971e-05
1.43993e-05
1.43977e-05
1.44101e-05
1.44258e-05
1.44363e-05
1.44424e-05
1.44462e-05
1.44593e-05
1.44679e-05
1.44743e-05
1.44771e-05
1.44834e-05
1.44905e-05
1.44945e-05
1.44983e-05
1.45014e-05
1.4503e-05
1.45036e-05
1.45048e-05
1.45081e-05
1.45112e-05
1.45144e-05
1.45167e-05
1.45183e-05
1.45163e-05
1.45193e-05
1.45164e-05
1.45186e-05
1.4516e-05
1.45174e-05
1.45148e-05
1.45154e-05
1.45132e-05
1.45131e-05
1.45111e-05
1.45104e-05
1.45082e-05
1.45075e-05
1.45054e-05
1.45054e-05
1.45038e-05
1.45044e-05
1.45031e-05
1.45042e-05
1.45034e-05
1.45048e-05
1.45048e-05
1.45064e-05
1.45073e-05
1.4509e-05
1.45104e-05
1.45116e-05
1.45136e-05
1.4514e-05
1.45173e-05
1.4521e-05
1.4527e-05
1.4531e-05
1.45358e-05
1.45395e-05
1.45437e-05
1.45482e-05
1.45521e-05
1.45568e-05
1.45608e-05
1.45656e-05
1.45694e-05
1.45735e-05
1.45771e-05
1.45802e-05
1.45813e-05
1.45842e-05
1.45851e-05
1.45874e-05
1.45844e-05
1.45839e-05
1.45792e-05
1.45729e-05
1.45681e-05
1.45594e-05
1.45523e-05
1.45457e-05
1.45357e-05
1.45261e-05
1.45178e-05
1.45085e-05
1.44994e-05
1.44936e-05
1.44897e-05
1.44878e-05
1.44838e-05
1.44795e-05
1.44746e-05
1.44704e-05
1.44663e-05
1.44625e-05
1.44585e-05
1.44549e-05
1.4452e-05
1.44489e-05
1.4447e-05
1.44462e-05
1.44461e-05
1.44467e-05
1.4448e-05
1.44494e-05
1.44522e-05
1.44542e-05
1.44562e-05
1.44577e-05
1.44591e-05
1.44605e-05
1.44617e-05
1.44623e-05
1.44619e-05
1.44619e-05
1.44613e-05
1.44612e-05
1.44606e-05
1.44598e-05
1.4459e-05
1.44584e-05
1.44573e-05
1.44566e-05
1.44557e-05
1.4455e-05
1.44539e-05
1.44533e-05
1.44523e-05
1.44519e-05
1.44505e-05
1.44497e-05
1.44479e-05
1.44469e-05
1.44453e-05
1.44437e-05
1.44425e-05
1.44406e-05
1.44393e-05
1.44371e-05
1.44353e-05
1.44331e-05
1.44311e-05
1.44289e-05
1.44269e-05
1.44242e-05
1.4422e-05
1.44194e-05
1.44173e-05
1.4415e-05
1.44125e-05
1.44106e-05
1.44083e-05
1.44064e-05
1.44042e-05
1.44024e-05
1.44003e-05
1.43987e-05
1.43971e-05
1.43957e-05
1.43941e-05
1.43928e-05
1.43912e-05
1.43897e-05
1.43892e-05
1.43879e-05
1.43876e-05
1.4387e-05
1.43863e-05
1.4386e-05
1.43856e-05
1.43856e-05
1.43855e-05
1.43854e-05
1.43854e-05
1.43857e-05
1.43851e-05
1.43852e-05
1.43848e-05
1.43849e-05
1.43845e-05
1.43844e-05
1.43837e-05
1.43834e-05
1.43821e-05
1.43817e-05
1.43806e-05
1.43799e-05
1.43794e-05
1.43786e-05
1.43782e-05
1.43779e-05
1.43784e-05
1.43789e-05
1.43797e-05
1.43808e-05
1.43815e-05
1.43869e-05
1.43936e-05
1.4402e-05
1.44092e-05
1.44181e-05
1.4425e-05
1.44336e-05
1.44406e-05
1.44495e-05
1.44562e-05
1.44652e-05
1.44715e-05
1.44804e-05
1.4486e-05
1.44944e-05
1.44992e-05
1.45067e-05
1.45103e-05
1.45169e-05
1.45197e-05
1.45256e-05
1.45271e-05
1.4533e-05
1.45342e-05
1.45401e-05
1.45408e-05
1.45471e-05
1.45468e-05
1.45536e-05
1.45527e-05
1.456e-05
1.45597e-05
1.45673e-05
1.4567e-05
1.45753e-05
1.45747e-05
1.45834e-05
1.45784e-05
1.45873e-05
1.45893e-05
1.45854e-05
1.46043e-05
1.45877e-05
1.46295e-05
1.45813e-05
1.4668e-05
1.45733e-05
1.47196e-05
1.45807e-05
1.47655e-05
1.45976e-05
1.47768e-05
1.46264e-05
1.47832e-05
1.46696e-05
1.47409e-05
1.47217e-05
1.46662e-05
1.47326e-05
1.46853e-05
1.46164e-05
1.44484e-05
1.245e-05
8.97058e-06
7.65399e-06
8.14329e-06
6.75057e-06
5.85145e-06
5.70135e-06
7.14899e-06
5.34338e-06
5.11433e-06
6.6597e-06
2.66332e-05
5.32107e-05
3.2289e-05
2.34135e-05
1.8811e-05
1.61136e-05
1.44975e-05
1.34837e-05
1.28445e-05
1.24596e-05
1.22504e-05
1.21775e-05
1.21908e-05
1.22704e-05
1.23949e-05
1.25589e-05
1.27609e-05
1.30013e-05
1.32909e-05
1.3635e-05
1.40344e-05
1.45022e-05
1.50434e-05
1.56226e-05
1.62537e-05
1.69502e-05
1.77235e-05
1.85765e-05
1.93133e-05
1.9755e-05
2.01985e-05
2.06391e-05
2.10745e-05
2.15044e-05
2.19277e-05
2.23438e-05
2.27526e-05
2.31526e-05
2.35439e-05
2.39248e-05
2.42968e-05
2.46576e-05
2.50097e-05
2.53519e-05
2.56872e-05
2.60147e-05
2.63373e-05
2.66558e-05
2.6971e-05
2.72817e-05
2.75875e-05
2.78877e-05
2.81808e-05
2.84674e-05
2.87455e-05
2.90149e-05
2.92762e-05
2.95288e-05
2.97752e-05
3.00139e-05
3.02471e-05
3.04724e-05
3.06941e-05
3.09098e-05
3.11214e-05
3.13266e-05
3.15272e-05
3.17219e-05
3.19121e-05
3.20974e-05
3.22786e-05
3.24558e-05
3.26282e-05
3.27967e-05
3.29589e-05
3.31162e-05
3.32658e-05
3.34089e-05
3.35438e-05
3.36715e-05
3.37919e-05
3.39053e-05
3.40123e-05
3.41121e-05
3.42083e-05
3.42985e-05
3.43874e-05
3.44719e-05
3.45562e-05
3.4638e-05
3.47201e-05
3.4798e-05
3.48763e-05
3.49481e-05
3.50197e-05
3.50879e-05
3.51563e-05
3.52205e-05
3.5287e-05
3.5345e-05
3.54078e-05
3.54623e-05
3.55181e-05
3.55681e-05
3.56165e-05
3.56588e-05
3.57016e-05
3.57338e-05
3.57732e-05
3.57852e-05
3.58043e-05
3.5909e-05
3.59196e-05
3.58617e-05
3.59525e-05
3.61341e-05
3.59153e-05
3.57705e-05
3.57809e-05
3.59004e-05
3.58561e-05
3.58695e-05
3.57778e-05
3.56174e-05
3.58927e-05
3.62227e-05
3.58042e-05
3.54924e-05
3.53541e-05
3.53517e-05
3.58349e-05
3.63302e-05
3.56426e-05
3.52706e-05
3.5298e-05
3.51705e-05
3.51698e-05
3.56313e-05
3.60696e-05
3.53778e-05
3.49988e-05
3.51376e-05
3.50859e-05
3.47115e-05
3.52935e-05
3.57438e-05
3.58308e-05
3.52431e-05
3.48147e-05
3.47384e-05
3.48566e-05
3.5322e-05
3.57088e-05
3.49895e-05
3.45999e-05
3.51866e-05
3.56672e-05
3.51336e-05
3.48556e-05
3.48515e-05
3.49835e-05
3.50473e-05
3.50567e-05
3.50443e-05
3.49857e-05
3.47573e-05
3.47714e-05
3.52195e-05
3.55958e-05
3.50482e-05
3.45861e-05
3.51162e-05
3.56043e-05
3.51544e-05
3.48874e-05
3.49548e-05
3.51044e-05
3.51185e-05
3.51104e-05
3.51191e-05
3.5148e-05
3.51779e-05
3.50558e-05
3.49453e-05
3.50047e-05
3.53956e-05
3.57059e-05
3.53582e-05
3.51077e-05
3.51118e-05
3.52413e-05
3.53067e-05
3.53135e-05
3.50902e-05
3.50863e-05
3.56225e-05
3.58658e-05
3.55895e-05
3.52231e-05
3.54777e-05
3.55977e-05
3.55937e-05
3.57093e-05
3.57337e-05
3.57476e-05
3.5802e-05
3.58178e-05
3.58953e-05
3.58742e-05
3.59166e-05
3.5949e-05
3.59216e-05
3.59637e-05
3.59824e-05
3.59625e-05
3.58646e-05
3.59402e-05
3.6306e-05
3.63237e-05
3.64251e-05
3.64685e-05
3.65436e-05
3.65907e-05
3.66645e-05
3.67153e-05
3.67864e-05
3.68326e-05
3.68978e-05
3.69217e-05
3.69502e-05
3.69708e-05
3.6988e-05
3.70038e-05
3.70191e-05
3.70309e-05
3.70476e-05
3.70504e-05
3.70704e-05
3.70692e-05
3.70743e-05
3.70505e-05
3.70864e-05
3.70733e-05
3.70461e-05
3.70292e-05
3.70546e-05
3.71137e-05
3.71344e-05
3.71104e-05
3.71196e-05
3.71389e-05
3.71637e-05
3.71684e-05
3.71622e-05
3.71812e-05
3.72238e-05
3.72587e-05
3.72709e-05
3.72725e-05
3.72805e-05
3.73098e-05
3.73053e-05
3.72913e-05
3.72577e-05
3.72614e-05
3.72575e-05
3.72673e-05
3.72778e-05
3.72878e-05
3.72917e-05
3.7307e-05
3.73197e-05
3.73371e-05
3.73577e-05
3.73811e-05
3.73964e-05
3.74128e-05
3.74306e-05
3.74443e-05
3.74545e-05
3.74636e-05
3.74764e-05
3.74904e-05
3.74994e-05
3.75067e-05
3.75118e-05
3.75179e-05
3.75219e-05
3.75247e-05
3.75254e-05
3.7527e-05
3.75275e-05
3.75285e-05
3.75282e-05
3.75274e-05
3.7525e-05
3.7523e-05
3.75215e-05
3.75212e-05
3.75199e-05
3.75188e-05
3.75167e-05
3.75147e-05
3.75105e-05
3.75093e-05
3.75054e-05
3.75037e-05
3.75006e-05
3.74994e-05
3.74962e-05
3.74949e-05
3.74922e-05
3.7491e-05
3.74893e-05
3.74891e-05
3.74877e-05
3.74882e-05
3.74888e-05
3.74895e-05
3.74915e-05
3.74951e-05
3.7498e-05
3.75016e-05
3.75058e-05
3.75097e-05
3.75142e-05
3.75189e-05
3.75233e-05
3.75277e-05
3.75319e-05
3.75359e-05
3.75399e-05
3.75439e-05
3.75486e-05
3.7553e-05
3.75576e-05
3.75617e-05
3.75657e-05
3.75692e-05
3.75727e-05
3.75763e-05
3.758e-05
3.75837e-05
3.75871e-05
3.75907e-05
3.75937e-05
3.75964e-05
3.75985e-05
3.76003e-05
3.76011e-05
3.76018e-05
3.76021e-05
3.76017e-05
3.75989e-05
3.75952e-05
3.75899e-05
3.75809e-05
3.75723e-05
3.75632e-05
3.75526e-05
3.75445e-05
3.75363e-05
3.75271e-05
3.75193e-05
3.75129e-05
3.75071e-05
3.75044e-05
3.75057e-05
3.7511e-05
3.75174e-05
3.75209e-05
3.75216e-05
3.75225e-05
3.7523e-05
3.75234e-05
3.75237e-05
3.75248e-05
3.75266e-05
3.75294e-05
3.75332e-05
3.75377e-05
3.75443e-05
3.75508e-05
3.7559e-05
3.75656e-05
3.75708e-05
3.7575e-05
3.75783e-05
3.75807e-05
3.7582e-05
3.75826e-05
3.75825e-05
3.75813e-05
3.75787e-05
3.75751e-05
3.75718e-05
3.75683e-05
3.75647e-05
3.75603e-05
3.75568e-05
3.75531e-05
3.75504e-05
3.75479e-05
3.7545e-05
3.75431e-05
3.75415e-05
3.75392e-05
3.75379e-05
3.75369e-05
3.75356e-05
3.75338e-05
3.75325e-05
3.75313e-05
3.75299e-05
3.7528e-05
3.75263e-05
3.75244e-05
3.75225e-05
3.75201e-05
3.75176e-05
3.75147e-05
3.75114e-05
3.75084e-05
3.75048e-05
3.75014e-05
3.74976e-05
3.74941e-05
3.74905e-05
3.7487e-05
3.74834e-05
3.748e-05
3.74767e-05
3.74737e-05
3.7471e-05
3.74685e-05
3.74663e-05
3.74645e-05
3.7463e-05
3.74618e-05
3.74604e-05
3.74591e-05
3.74579e-05
3.74566e-05
3.74561e-05
3.74556e-05
3.74555e-05
3.74559e-05
3.74566e-05
3.74575e-05
3.74587e-05
3.74599e-05
3.74612e-05
3.74627e-05
3.7464e-05
3.74654e-05
3.74662e-05
3.74665e-05
3.74663e-05
3.74658e-05
3.74645e-05
3.74627e-05
3.746e-05
3.74568e-05
3.7453e-05
3.74487e-05
3.74443e-05
3.74394e-05
3.74346e-05
3.74295e-05
3.74249e-05
3.74204e-05
3.74167e-05
3.74135e-05
3.74116e-05
3.74112e-05
3.74125e-05
3.7416e-05
3.74213e-05
3.74275e-05
3.74338e-05
3.74405e-05
3.74473e-05
3.74554e-05
3.7464e-05
3.74737e-05
3.74836e-05
3.74942e-05
3.75043e-05
3.75146e-05
3.75243e-05
3.75342e-05
3.75432e-05
3.75522e-05
3.75604e-05
3.75684e-05
3.75755e-05
3.7582e-05
3.75875e-05
3.75927e-05
3.75968e-05
3.76013e-05
3.76051e-05
3.76096e-05
3.76136e-05
3.76188e-05
3.76231e-05
3.76289e-05
3.76339e-05
3.76404e-05
3.76464e-05
3.76542e-05
3.76616e-05
3.76711e-05
3.768e-05
3.76916e-05
3.77039e-05
3.77148e-05
3.7732e-05
3.77402e-05
3.77639e-05
3.7761e-05
3.78013e-05
3.77739e-05
3.78423e-05
3.77786e-05
3.78792e-05
3.77579e-05
3.78892e-05
3.76992e-05
3.78503e-05
3.75966e-05
3.77414e-05
3.74517e-05
3.75513e-05
3.72337e-05
3.72247e-05
3.66292e-05
3.60494e-05
3.35942e-05
2.89553e-05
2.53971e-05
2.41579e-05
2.73541e-05
2.47184e-05
2.30517e-05
1.9844e-05
1.67403e-05
1.91414e-05
1.6489e-05
1.68173e-05
2.24157e-05
0.000150328
0.000114837
7.90809e-05
6.87902e-05
5.55259e-05
4.55151e-05
3.76099e-05
3.17903e-05
2.74884e-05
2.43137e-05
2.18771e-05
1.99902e-05
1.84863e-05
1.72852e-05
1.63131e-05
1.55271e-05
1.48911e-05
1.43804e-05
1.39781e-05
1.36705e-05
1.34462e-05
1.32982e-05
1.32214e-05
1.32133e-05
1.32725e-05
1.33998e-05
1.35969e-05
1.38614e-05
1.41869e-05
1.45712e-05
1.50118e-05
1.55092e-05
1.60651e-05
1.66456e-05
1.724e-05
1.78483e-05
1.8471e-05
1.9109e-05
1.97628e-05
2.04329e-05
2.11195e-05
2.1822e-05
2.25408e-05
2.32765e-05
2.40304e-05
2.47978e-05
2.54077e-05
2.60178e-05
2.66297e-05
2.72456e-05
2.78667e-05
2.84918e-05
2.91214e-05
2.9751e-05
3.03794e-05
3.10023e-05
3.16186e-05
3.22251e-05
3.28227e-05
3.34088e-05
3.3987e-05
3.4557e-05
3.51188e-05
3.56733e-05
3.62185e-05
3.67553e-05
3.72836e-05
3.78029e-05
3.83132e-05
3.88158e-05
3.93089e-05
3.97954e-05
4.02749e-05
4.07481e-05
4.12162e-05
4.16778e-05
4.21316e-05
4.2579e-05
4.30176e-05
4.34474e-05
4.38674e-05
4.42753e-05
4.4673e-05
4.50584e-05
4.54324e-05
4.57949e-05
4.61475e-05
4.64896e-05
4.68278e-05
4.71576e-05
4.74886e-05
4.78172e-05
4.81488e-05
4.84847e-05
4.88247e-05
4.91545e-05
4.93981e-05
4.96326e-05
4.98589e-05
5.00779e-05
5.02909e-05
5.04983e-05
5.07e-05
5.0896e-05
5.10856e-05
5.127e-05
5.14462e-05
5.16183e-05
5.17775e-05
5.19364e-05
5.20841e-05
5.22267e-05
5.23621e-05
5.24889e-05
5.26029e-05
5.27179e-05
5.27956e-05
5.29021e-05
5.29683e-05
5.30419e-05
5.31105e-05
5.31785e-05
5.32465e-05
5.32878e-05
5.33443e-05
5.33839e-05
5.3435e-05
5.34635e-05
5.34958e-05
5.35132e-05
5.35353e-05
5.35641e-05
5.35794e-05
5.36236e-05
5.36479e-05
5.36755e-05
5.36843e-05
5.3694e-05
5.37048e-05
5.37571e-05
5.37704e-05
5.38169e-05
5.38487e-05
5.38667e-05
5.38812e-05
5.39189e-05
5.3953e-05
5.39834e-05
5.4011e-05
5.40565e-05
5.40774e-05
5.41177e-05
5.41529e-05
5.41901e-05
5.42406e-05
5.42903e-05
5.43217e-05
5.43551e-05
5.43987e-05
5.44525e-05
5.44974e-05
5.45532e-05
5.46034e-05
5.46433e-05
5.46978e-05
5.47521e-05
5.48121e-05
5.48855e-05
5.49386e-05
5.49899e-05
5.50742e-05
5.51369e-05
5.51897e-05
5.52568e-05
5.53294e-05
5.54032e-05
5.54633e-05
5.55381e-05
5.56167e-05
5.56871e-05
5.57472e-05
5.58133e-05
5.59028e-05
5.59724e-05
5.60386e-05
5.61321e-05
5.62065e-05
5.62769e-05
5.63684e-05
5.64497e-05
5.65372e-05
5.66538e-05
5.67484e-05
5.68361e-05
5.692e-05
5.70104e-05
5.71029e-05
5.7217e-05
5.73169e-05
5.74278e-05
5.75524e-05
5.76612e-05
5.77886e-05
5.79181e-05
5.80469e-05
5.81811e-05
5.82644e-05
5.83778e-05
5.84641e-05
5.85644e-05
5.86577e-05
5.8751e-05
5.88338e-05
5.88746e-05
5.90219e-05
5.92425e-05
5.94331e-05
5.96167e-05
5.97704e-05
5.99161e-05
6.00579e-05
6.01904e-05
6.03277e-05
6.04551e-05
6.05895e-05
6.07107e-05
6.0836e-05
6.09466e-05
6.10579e-05
6.11551e-05
6.12502e-05
6.13337e-05
6.14161e-05
6.14878e-05
6.15637e-05
6.16201e-05
6.16946e-05
6.17343e-05
6.17898e-05
6.1799e-05
6.18788e-05
6.18782e-05
6.18967e-05
6.18869e-05
6.19488e-05
6.20431e-05
6.21006e-05
6.21163e-05
6.21447e-05
6.21829e-05
6.22413e-05
6.2265e-05
6.22793e-05
6.2325e-05
6.23933e-05
6.2466e-05
6.25115e-05
6.25416e-05
6.25632e-05
6.2621e-05
6.2644e-05
6.26501e-05
6.26129e-05
6.26235e-05
6.26238e-05
6.26462e-05
6.26677e-05
6.26959e-05
6.27091e-05
6.27479e-05
6.278e-05
6.28252e-05
6.28734e-05
6.29284e-05
6.29735e-05
6.30242e-05
6.30802e-05
6.31306e-05
6.31756e-05
6.32191e-05
6.32656e-05
6.33157e-05
6.3361e-05
6.3404e-05
6.34416e-05
6.34787e-05
6.35138e-05
6.35471e-05
6.35757e-05
6.36027e-05
6.36272e-05
6.36524e-05
6.36734e-05
6.36919e-05
6.37065e-05
6.37207e-05
6.37339e-05
6.37478e-05
6.376e-05
6.37728e-05
6.37836e-05
6.37944e-05
6.38012e-05
6.3809e-05
6.38141e-05
6.38202e-05
6.38245e-05
6.383e-05
6.38337e-05
6.38388e-05
6.38426e-05
6.38477e-05
6.38521e-05
6.38577e-05
6.38624e-05
6.38692e-05
6.38763e-05
6.38843e-05
6.38938e-05
6.39054e-05
6.3917e-05
6.393e-05
6.3944e-05
6.39583e-05
6.39734e-05
6.39888e-05
6.40042e-05
6.40197e-05
6.40352e-05
6.40509e-05
6.40664e-05
6.40819e-05
6.40983e-05
6.41151e-05
6.41328e-05
6.41504e-05
6.4168e-05
6.4185e-05
6.42019e-05
6.42189e-05
6.42363e-05
6.42534e-05
6.42705e-05
6.42872e-05
6.43031e-05
6.43178e-05
6.43313e-05
6.43434e-05
6.43533e-05
6.43618e-05
6.43692e-05
6.43743e-05
6.43759e-05
6.43741e-05
6.43691e-05
6.43582e-05
6.43454e-05
6.43296e-05
6.43106e-05
6.42924e-05
6.42734e-05
6.42521e-05
6.42317e-05
6.42129e-05
6.41953e-05
6.41822e-05
6.41757e-05
6.41768e-05
6.41813e-05
6.41839e-05
6.41841e-05
6.4184e-05
6.41838e-05
6.41841e-05
6.41847e-05
6.41869e-05
6.41905e-05
6.41963e-05
6.42039e-05
6.42142e-05
6.42277e-05
6.42428e-05
6.42606e-05
6.42782e-05
6.42955e-05
6.43112e-05
6.43252e-05
6.43377e-05
6.43485e-05
6.43574e-05
6.43636e-05
6.43679e-05
6.43701e-05
6.43709e-05
6.43712e-05
6.43708e-05
6.43698e-05
6.43679e-05
6.43666e-05
6.43653e-05
6.43649e-05
6.4365e-05
6.43651e-05
6.43663e-05
6.43681e-05
6.43698e-05
6.43725e-05
6.43758e-05
6.43792e-05
6.43825e-05
6.43859e-05
6.43893e-05
6.43922e-05
6.43943e-05
6.43961e-05
6.43975e-05
6.43985e-05
6.43991e-05
6.43981e-05
6.4396e-05
6.43933e-05
6.43897e-05
6.43855e-05
6.43808e-05
6.43756e-05
6.43707e-05
6.43655e-05
6.43604e-05
6.43552e-05
6.43503e-05
6.43461e-05
6.4343e-05
6.43401e-05
6.43384e-05
6.43373e-05
6.43371e-05
6.43376e-05
6.43385e-05
6.43396e-05
6.4341e-05
6.43434e-05
6.43457e-05
6.43492e-05
6.43533e-05
6.43582e-05
6.43644e-05
6.43718e-05
6.43799e-05
6.43877e-05
6.43963e-05
6.44057e-05
6.44147e-05
6.44233e-05
6.44325e-05
6.44397e-05
6.44463e-05
6.44517e-05
6.44556e-05
6.44577e-05
6.44583e-05
6.44568e-05
6.44543e-05
6.44494e-05
6.44435e-05
6.44368e-05
6.44282e-05
6.44199e-05
6.4411e-05
6.44027e-05
6.43948e-05
6.43883e-05
6.43833e-05
6.43812e-05
6.43827e-05
6.43887e-05
6.43999e-05
6.44166e-05
6.44378e-05
6.44623e-05
6.44898e-05
6.45198e-05
6.45526e-05
6.45876e-05
6.46248e-05
6.46636e-05
6.47034e-05
6.47434e-05
6.47826e-05
6.48211e-05
6.48583e-05
6.48939e-05
6.49277e-05
6.496e-05
6.49901e-05
6.50181e-05
6.50435e-05
6.50667e-05
6.50877e-05
6.5107e-05
6.5125e-05
6.51422e-05
6.51591e-05
6.51757e-05
6.51922e-05
6.52083e-05
6.52246e-05
6.52405e-05
6.5257e-05
6.52737e-05
6.52919e-05
6.53113e-05
6.53328e-05
6.53563e-05
6.53812e-05
6.54106e-05
6.5437e-05
6.5473e-05
6.54987e-05
6.55483e-05
6.55618e-05
6.56374e-05
6.56104e-05
6.57332e-05
6.56374e-05
6.58177e-05
6.561e-05
6.58426e-05
6.54933e-05
6.5757e-05
6.52614e-05
6.55084e-05
6.49079e-05
6.50602e-05
6.43735e-05
6.43243e-05
6.31801e-05
6.18326e-05
5.81056e-05
4.90886e-05
3.5746e-05
3.79477e-05
4.05593e-05
3.74598e-05
3.51186e-05
3.08315e-05
2.54312e-05
2.19337e-05
2.38962e-05
2.64122e-05
3.688e-05
0.000184047
0.000142315
7.59963e-05
7.4323e-05
7.64236e-05
8.39023e-05
9.28734e-05
8.08423e-05
7.13288e-05
6.36889e-05
5.73467e-05
5.20859e-05
4.76349e-05
4.38756e-05
4.06698e-05
3.79332e-05
3.55389e-05
3.34218e-05
3.15146e-05
2.97738e-05
2.81767e-05
2.67126e-05
2.53819e-05
2.41843e-05
2.31144e-05
2.21646e-05
2.13259e-05
2.0587e-05
1.99389e-05
1.93729e-05
1.88816e-05
1.84593e-05
1.81007e-05
1.78038e-05
1.75667e-05
1.73882e-05
1.72676e-05
1.72061e-05
1.72137e-05
1.72927e-05
1.7435e-05
1.76347e-05
1.78882e-05
1.81953e-05
1.85561e-05
1.89732e-05
1.9436e-05
1.99267e-05
2.04466e-05
2.0998e-05
2.15819e-05
2.21998e-05
2.28513e-05
2.35345e-05
2.42474e-05
2.49859e-05
2.57456e-05
2.65233e-05
2.7314e-05
2.81151e-05
2.8925e-05
2.95735e-05
3.02188e-05
3.08689e-05
3.15249e-05
3.21888e-05
3.28617e-05
3.35433e-05
3.42342e-05
3.49338e-05
3.56411e-05
3.63596e-05
3.70901e-05
3.7837e-05
3.86024e-05
3.93887e-05
4.01944e-05
4.10209e-05
4.18671e-05
4.27325e-05
4.36113e-05
4.44956e-05
4.53862e-05
4.62741e-05
4.71596e-05
4.80329e-05
4.88972e-05
4.97449e-05
5.05838e-05
5.14078e-05
5.22416e-05
5.30705e-05
5.39216e-05
5.45608e-05
5.51701e-05
5.57713e-05
5.63651e-05
5.6952e-05
5.75313e-05
5.81035e-05
5.8669e-05
5.92262e-05
5.97745e-05
6.03136e-05
6.08429e-05
6.13625e-05
6.18702e-05
6.2368e-05
6.28491e-05
6.33204e-05
6.37756e-05
6.42144e-05
6.46408e-05
6.50513e-05
6.54421e-05
6.58267e-05
6.61657e-05
6.65193e-05
6.68238e-05
6.71257e-05
6.74192e-05
6.77014e-05
6.79826e-05
6.82294e-05
6.84893e-05
6.87235e-05
6.89541e-05
6.91658e-05
6.93747e-05
6.95591e-05
6.9749e-05
6.99399e-05
7.0113e-05
7.03212e-05
7.04991e-05
7.06778e-05
7.0818e-05
7.09621e-05
7.10986e-05
7.12788e-05
7.14165e-05
7.1602e-05
7.17672e-05
7.19148e-05
7.20436e-05
7.219e-05
7.23359e-05
7.247e-05
7.26053e-05
7.27647e-05
7.28876e-05
7.30414e-05
7.31783e-05
7.33227e-05
7.3477e-05
7.36355e-05
7.37654e-05
7.38955e-05
7.40412e-05
7.41962e-05
7.43426e-05
7.44974e-05
7.46504e-05
7.47848e-05
7.49325e-05
7.50882e-05
7.52511e-05
7.54333e-05
7.55941e-05
7.57455e-05
7.59354e-05
7.60928e-05
7.62376e-05
7.63961e-05
7.6563e-05
7.67376e-05
7.68986e-05
7.70835e-05
7.72642e-05
7.74365e-05
7.76014e-05
7.77648e-05
7.79609e-05
7.81394e-05
7.83104e-05
7.85111e-05
7.86916e-05
7.88691e-05
7.90704e-05
7.92593e-05
7.9461e-05
7.96964e-05
7.99015e-05
8.01033e-05
8.02984e-05
8.05022e-05
8.07202e-05
8.09617e-05
8.11798e-05
8.14132e-05
8.16639e-05
8.18926e-05
8.21441e-05
8.23922e-05
8.26406e-05
8.29019e-05
8.311e-05
8.33536e-05
8.3554e-05
8.37713e-05
8.39712e-05
8.41694e-05
8.43621e-05
8.45154e-05
8.47926e-05
8.51567e-05
8.55033e-05
8.58478e-05
8.61545e-05
8.6446e-05
8.67262e-05
8.69912e-05
8.72633e-05
8.75229e-05
8.77969e-05
8.80531e-05
8.83141e-05
8.85512e-05
8.87904e-05
8.90058e-05
8.92177e-05
8.94062e-05
8.95922e-05
8.97577e-05
8.99275e-05
9.00685e-05
9.02291e-05
9.03409e-05
9.04769e-05
9.05494e-05
9.06996e-05
9.07436e-05
9.08282e-05
9.08576e-05
9.09735e-05
9.11242e-05
9.12204e-05
9.12872e-05
9.13509e-05
9.14176e-05
9.15119e-05
9.15604e-05
9.16038e-05
9.16819e-05
9.17733e-05
9.18845e-05
9.19593e-05
9.20185e-05
9.20581e-05
9.21337e-05
9.21741e-05
9.22025e-05
9.21743e-05
9.21936e-05
9.21998e-05
9.22346e-05
9.22665e-05
9.23088e-05
9.23338e-05
9.23877e-05
9.24336e-05
9.25001e-05
9.25708e-05
9.26508e-05
9.27219e-05
9.28003e-05
9.28863e-05
9.2972e-05
9.30475e-05
9.3125e-05
9.3206e-05
9.32915e-05
9.33722e-05
9.34519e-05
9.35256e-05
9.35985e-05
9.36684e-05
9.37369e-05
9.37987e-05
9.38581e-05
9.39136e-05
9.39687e-05
9.40177e-05
9.40626e-05
9.4102e-05
9.41401e-05
9.4175e-05
9.42106e-05
9.42442e-05
9.42776e-05
9.43086e-05
9.43379e-05
9.43616e-05
9.43853e-05
9.4405e-05
9.44253e-05
9.44428e-05
9.44608e-05
9.44766e-05
9.44933e-05
9.45085e-05
9.45245e-05
9.45396e-05
9.45556e-05
9.45709e-05
9.45881e-05
9.46059e-05
9.46251e-05
9.46457e-05
9.46688e-05
9.46927e-05
9.47184e-05
9.47453e-05
9.47729e-05
9.48015e-05
9.48305e-05
9.48595e-05
9.48889e-05
9.49181e-05
9.49479e-05
9.49776e-05
9.50078e-05
9.50389e-05
9.50711e-05
9.51047e-05
9.51389e-05
9.51734e-05
9.52076e-05
9.52423e-05
9.52772e-05
9.53133e-05
9.53496e-05
9.53861e-05
9.54224e-05
9.54578e-05
9.54914e-05
9.55231e-05
9.55527e-05
9.55788e-05
9.56027e-05
9.56241e-05
9.56419e-05
9.56545e-05
9.56614e-05
9.56629e-05
9.56567e-05
9.5646e-05
9.56297e-05
9.56081e-05
9.55843e-05
9.55581e-05
9.55279e-05
9.54972e-05
9.5467e-05
9.54377e-05
9.54132e-05
9.53962e-05
9.5388e-05
9.53845e-05
9.53804e-05
9.53745e-05
9.53684e-05
9.5363e-05
9.53588e-05
9.53557e-05
9.5355e-05
9.53566e-05
9.53615e-05
9.53693e-05
9.53812e-05
9.53973e-05
9.54165e-05
9.54393e-05
9.54628e-05
9.5487e-05
9.55102e-05
9.55318e-05
9.55513e-05
9.55677e-05
9.55811e-05
9.55912e-05
9.55989e-05
9.56041e-05
9.56077e-05
9.56104e-05
9.56122e-05
9.56132e-05
9.56132e-05
9.56139e-05
9.56148e-05
9.5617e-05
9.56202e-05
9.56239e-05
9.56293e-05
9.56358e-05
9.5643e-05
9.56515e-05
9.56611e-05
9.56713e-05
9.56819e-05
9.56925e-05
9.57031e-05
9.57128e-05
9.57213e-05
9.57289e-05
9.57354e-05
9.57408e-05
9.57447e-05
9.5746e-05
9.57451e-05
9.57424e-05
9.57382e-05
9.57326e-05
9.57261e-05
9.57188e-05
9.57119e-05
9.57046e-05
9.56977e-05
9.5691e-05
9.56852e-05
9.56807e-05
9.56782e-05
9.56768e-05
9.56771e-05
9.56789e-05
9.5682e-05
9.56863e-05
9.56915e-05
9.56972e-05
9.57037e-05
9.57117e-05
9.57202e-05
9.57306e-05
9.57423e-05
9.57556e-05
9.5771e-05
9.57883e-05
9.58068e-05
9.58255e-05
9.5845e-05
9.58653e-05
9.58852e-05
9.59044e-05
9.59233e-05
9.59398e-05
9.59544e-05
9.59665e-05
9.59761e-05
9.59825e-05
9.59859e-05
9.59857e-05
9.59829e-05
9.59767e-05
9.59682e-05
9.5958e-05
9.59453e-05
9.59322e-05
9.59182e-05
9.59047e-05
9.58921e-05
9.58817e-05
9.58742e-05
9.58717e-05
9.58758e-05
9.58881e-05
9.59099e-05
9.59415e-05
9.59827e-05
9.60318e-05
9.60883e-05
9.61515e-05
9.62209e-05
9.62959e-05
9.63758e-05
9.64598e-05
9.65463e-05
9.66343e-05
9.67215e-05
9.68075e-05
9.68911e-05
9.6972e-05
9.70494e-05
9.71238e-05
9.71942e-05
9.72608e-05
9.73227e-05
9.73809e-05
9.74352e-05
9.74866e-05
9.75355e-05
9.75831e-05
9.76292e-05
9.76745e-05
9.77183e-05
9.77606e-05
9.7801e-05
9.78399e-05
9.78778e-05
9.7915e-05
9.79532e-05
9.79926e-05
9.80349e-05
9.80808e-05
9.81288e-05
9.81843e-05
9.82366e-05
9.83024e-05
9.83572e-05
9.84438e-05
9.84886e-05
9.86092e-05
9.86043e-05
9.87826e-05
9.86874e-05
9.8936e-05
9.8689e-05
9.89999e-05
9.85496e-05
9.88853e-05
9.82132e-05
9.85077e-05
9.76506e-05
9.77939e-05
9.67646e-05
9.65999e-05
9.48263e-05
9.26663e-05
8.73409e-05
7.51845e-05
5.44394e-05
5.21379e-05
5.51062e-05
5.09934e-05
4.65764e-05
4.06594e-05
3.42616e-05
2.72774e-05
2.7169e-05
3.41651e-05
3.9809e-05
0.000189761
0.000127431
7.26056e-05
7.0048e-05
7.2307e-05
7.78649e-05
9.11109e-05
0.000101192
0.000120256
0.000116776
0.000108483
0.000101249
9.46945e-05
8.88076e-05
8.35192e-05
7.87848e-05
7.44812e-05
7.0544e-05
6.68978e-05
6.34922e-05
6.02964e-05
5.73043e-05
5.452e-05
5.19437e-05
4.9566e-05
4.73792e-05
4.53718e-05
4.35246e-05
4.18249e-05
4.02576e-05
3.88122e-05
3.74784e-05
3.62455e-05
3.5107e-05
3.40579e-05
3.30923e-05
3.22067e-05
3.13859e-05
3.05589e-05
2.96932e-05
2.8824e-05
2.79907e-05
2.72161e-05
2.65095e-05
2.58754e-05
2.5315e-05
2.48285e-05
2.44169e-05
2.40799e-05
2.38164e-05
2.36252e-05
2.35045e-05
2.34526e-05
2.34662e-05
2.35426e-05
2.36791e-05
2.38736e-05
2.41249e-05
2.44321e-05
2.47953e-05
2.52139e-05
2.56851e-05
2.62077e-05
2.67819e-05
2.74065e-05
2.80825e-05
2.881e-05
2.95863e-05
3.0402e-05
3.12572e-05
3.21525e-05
3.30889e-05
3.40664e-05
3.50857e-05
3.61472e-05
3.72492e-05
3.83914e-05
3.95716e-05
4.07874e-05
4.20367e-05
4.33148e-05
4.4619e-05
4.59452e-05
4.72893e-05
4.86462e-05
5.00114e-05
5.13768e-05
5.2737e-05
5.40854e-05
5.54159e-05
5.67241e-05
5.80054e-05
5.92591e-05
6.04845e-05
6.16824e-05
6.28534e-05
6.3999e-05
6.51197e-05
6.6216e-05
6.72894e-05
6.83413e-05
6.93703e-05
7.03776e-05
7.13639e-05
7.23294e-05
7.32736e-05
7.41955e-05
7.50937e-05
7.59631e-05
7.68063e-05
7.76204e-05
7.84029e-05
7.91614e-05
7.989e-05
8.05941e-05
8.12771e-05
8.19053e-05
8.25401e-05
8.31179e-05
8.36796e-05
8.4223e-05
8.4753e-05
8.52789e-05
8.57741e-05
8.6275e-05
8.67434e-05
8.71884e-05
8.76165e-05
8.80427e-05
8.84247e-05
8.88024e-05
8.91983e-05
8.95779e-05
8.99792e-05
9.03432e-05
9.0696e-05
9.09993e-05
9.12885e-05
9.15638e-05
9.18905e-05
9.21767e-05
9.25136e-05
9.28293e-05
9.31297e-05
9.34029e-05
9.36738e-05
9.39443e-05
9.42048e-05
9.44682e-05
9.47562e-05
9.50114e-05
9.52955e-05
9.55667e-05
9.58433e-05
9.61187e-05
9.63995e-05
9.66592e-05
9.69027e-05
9.71503e-05
9.74264e-05
9.76992e-05
9.7968e-05
9.82339e-05
9.84722e-05
9.87247e-05
9.90021e-05
9.92864e-05
9.95978e-05
9.98943e-05
0.000100167
0.000100472
0.000100742
0.000100992
0.000101249
0.000101525
0.000101821
0.000102114
0.000102428
0.000102723
0.00010301
0.000103296
0.000103577
0.000103898
0.000104204
0.000104508
0.000104835
0.000105135
0.000105438
0.000105766
0.000106077
0.000106411
0.000106783
0.000107115
0.000107447
0.000107771
0.000108105
0.000108463
0.000108849
0.000109203
0.000109573
0.000109952
0.000110313
0.000110703
0.000111083
0.000111467
0.000111862
0.000112202
0.000112582
0.0001129
0.000113233
0.000113541
0.000113838
0.000114139
0.000114408
0.000114817
0.00011532
0.000115827
0.00011634
0.000116807
0.000117253
0.000117678
0.000118079
0.000118482
0.000118867
0.000119274
0.000119659
0.000120053
0.000120416
0.000120778
0.000121111
0.000121436
0.000121729
0.000122014
0.000122274
0.000122535
0.000122762
0.000123004
0.000123189
0.0001234
0.000123538
0.000123758
0.00012385
0.000123998
0.000124072
0.000124238
0.000124431
0.000124565
0.000124677
0.000124774