/*--------------------------------*- C++ -*----------------------------------*\
| =========                 |                                                 |
| \\      /  F ield         | foam-extend: Open Source CFD                    |
|  \\    /   O peration     | Version:     3.2                                |
|   \\  /    A nd           | Web:         http://www.foam-extend.org         |
|    \\/     M anipulation  | For copyright notice see file Copyright         |
\*---------------------------------------------------------------------------*/
FoamFile
{
    version     2.0;
    format      ascii;
    class       areaScalarField;
    location    "1440";
    object      Fi1;
}
// * * * * * * * * * * * * * * * * * * * * * * * * * * * * * * * * * * * * * //

dimensions      [0 1 -1 0 0 0 0];

internalField   nonuniform List<scalar> 
550
(
6.05357e-08
5.62963e-08
5.00586e-08
1.95584e-08
-2.75421e-08
-6.66567e-08
-1.05054e-07
-1.38752e-07
-1.58539e-07
-1.73928e-07
-1.82551e-07
-1.77069e-07
-1.69793e-07
-1.57238e-07
-1.42229e-07
-1.28119e-07
-1.13299e-07
-9.88897e-08
-8.73182e-08
-7.76247e-08
-6.9184e-08
-6.17459e-08
-5.50693e-08
-4.97665e-08
-4.53013e-08
-4.14752e-08
-3.83624e-08
-3.5961e-08
-3.41847e-08
-3.24357e-08
-3.07919e-08
-2.93322e-08
-2.79984e-08
-2.69339e-08
-2.59977e-08
-2.51881e-08
-2.44205e-08
-2.35849e-08
-2.2954e-08
-2.23804e-08
-2.17098e-08
-2.12187e-08
-2.07605e-08
-2.02036e-08
-1.97416e-08
-1.93435e-08
-1.89403e-08
-1.85533e-08
-1.8181e-08
-1.78741e-08
-1.75924e-08
-1.72135e-08
-1.68636e-08
-1.65794e-08
-1.6288e-08
-1.60052e-08
-1.57306e-08
-1.54491e-08
-1.53363e-08
-1.48617e-08
-1.33532e-08
7.34055e-09
1.72464e-08
-2.2219e-08
-3.36963e-08
-1.40221e-08
2.69914e-08
4.65928e-08
-3.40742e-08
-5.04042e-08
3.60925e-08
7.34324e-08
-3.14611e-08
-7.41942e-08
-1.09529e-08
-1.09099e-08
-1.10094e-08
-1.1975e-08
1.30302e-07
4.05457e-08
-1.52432e-07
-1.12495e-08
-1.08549e-08
-1.06016e-08
-1.18533e-08
1.44835e-07
5.3532e-08
-1.65822e-07
1.43903e-07
2.11846e-07
-9.38606e-08
-1.61747e-07
-9.52738e-09
-8.37553e-09
-8.06986e-09
1.40479e-07
6.22435e-08
-1.56208e-07
-7.95872e-09
-6.96868e-09
-6.56252e-09
-6.58411e-09
-6.44196e-09
-6.29747e-09
-6.53787e-09
1.35957e-07
6.50854e-08
-1.47106e-07
-5.74058e-09
-4.49802e-09
-4.79762e-09
-4.94685e-09
-3.35058e-09
-3.02396e-09
-4.48255e-09
-3.65398e-09
-3.4975e-09
-3.36312e-09
-2.30527e-09
-1.46068e-09
-2.12914e-09
1.80672e-09
7.00949e-09
7.34008e-11
-4.46532e-11
3.55424e-11
-6.25089e-11
6.67123e-11
-7.98319e-11
8.13781e-11
-8.75342e-11
7.78789e-11
-9.52604e-11
5.70521e-11
-1.97133e-10
-7.79046e-11
-1.5885e-10
5.12078e-12
-1.47015e-10
2.17031e-11
-1.3892e-10
2.31415e-11
-1.39472e-10
1.6165e-11
-1.44641e-10
-3.13647e-12
-1.56549e-10
-2.32965e-11
-1.64718e-10
-4.17042e-11
-1.69695e-10
-5.52768e-11
-1.68624e-10
-6.17949e-11
-1.64145e-10
-6.45436e-11
-1.63451e-10
-6.73335e-11
-1.67056e-10
-7.12861e-11
-1.72626e-10
-7.64164e-11
-1.75887e-10
-8.11511e-11
-1.75706e-10
-8.49314e-11
-1.73148e-10
-8.78009e-11
-1.7169e-10
-9.01474e-11
-1.67477e-10
-9.18201e-11
-1.63341e-10
-9.31617e-11
-1.60129e-10
-9.37774e-11
-1.5573e-10
-9.22461e-11
-1.51717e-10
-9.06475e-11
-1.48005e-10
-8.72292e-11
-1.43232e-10
-8.28922e-11
-1.37464e-10
-7.67777e-11
-1.31392e-10
-7.24274e-11
-1.26409e-10
-7.01048e-11
-1.2089e-10
-6.62374e-11
-1.15894e-10
-6.18965e-11
-1.12973e-10
-5.40314e-11
-1.07323e-10
-4.56401e-11
-1.00258e-10
-3.7528e-11
-9.33952e-11
-2.98596e-11
-8.63466e-11
-2.37072e-11
-8.05948e-11
-1.95233e-11
-7.70857e-11
-1.83751e-11
-7.61221e-11
-1.88199e-11
-7.6218e-11
-2.00861e-11
-7.63791e-11
-2.13252e-11
-7.7464e-11
-2.38647e-11
-7.96093e-11
-2.68797e-11
-8.14741e-11
-2.84624e-11
-8.15149e-11
-2.80782e-11
-8.02001e-11
-2.64439e-11
-7.83186e-11
-2.3292e-11
-7.61343e-11
-1.93016e-11
-7.269e-11
-1.37e-11
-6.827e-11
-7.73661e-12
-6.43265e-11
-2.7711e-12
-6.10041e-11
1.09535e-12
-5.78476e-11
3.23592e-12
-5.55855e-11
3.42915e-12
-5.46094e-11
2.12376e-12
-5.43743e-11
-1.28338e-13
-5.46854e-11
-3.36348e-12
-5.61069e-11
-7.95472e-12
-5.81762e-11
-1.21788e-11
-5.93066e-11
-1.49453e-11
-5.94083e-11
-1.63878e-11
-5.82689e-11
-1.58489e-11
-5.56114e-11
-1.38977e-11
-5.21448e-11
-1.10603e-11
-4.76844e-11
-6.56312e-12
-4.13654e-11
-4.73697e-13
-3.44436e-11
5.62837e-12
-2.84751e-11
1.10384e-11
-2.37844e-11
1.5799e-11
-2.04204e-11
1.96093e-11
-1.86577e-11
2.23071e-11
-1.81343e-11
2.39966e-11
-1.80752e-11
2.48773e-11
-1.79389e-11
2.43356e-11
-1.80515e-11
2.24562e-11
-1.81439e-11
1.91926e-11
-1.88879e-11
1.49596e-11
-1.97009e-11
1.09567e-11
-2.01247e-11
7.46611e-12
-2.02146e-11
4.09091e-12
-2.047e-11
8.34247e-13
-2.05895e-11
-1.61509e-12
-2.01111e-11
-3.24537e-12
-1.91449e-11
-4.38035e-12
-1.85437e-11
-6.42669e-12
-1.95001e-11
-9.47622e-12
-2.1088e-11
-1.26794e-11
-2.32053e-11
-1.66883e-11
-2.61253e-11
-2.11516e-11
-3.01368e-11
-2.66008e-11
-3.41729e-11
-3.13306e-11
-3.95941e-11
-3.73354e-11
-4.50469e-11
-4.36511e-11
-5.05193e-11
-4.93995e-11
-5.547e-11
-5.38922e-11
-5.82107e-11
-5.61433e-11
-5.90375e-11
-5.60231e-11
-5.7022e-11
-5.31039e-11
-5.26686e-11
-4.85575e-11
-4.77963e-11
-4.38431e-11
-4.26442e-11
-3.88183e-11
-3.79234e-11
-3.51244e-11
-3.35813e-11
-3.05128e-11
-2.84898e-11
-2.57635e-11
-2.36142e-11
-2.14667e-11
-2.00786e-11
-1.84502e-11
-1.69701e-11
-1.54827e-11
-1.37989e-11
-1.2512e-11
-1.0374e-11
-1.05637e-11
-7.17084e-12
-7.35985e-12
-3.51985e-12
-4.30467e-12
-1.61927e-13
-5.30366e-14
4.59041e-12
5.60622e-12
1.08658e-11
1.15859e-11
1.60871e-11
1.62818e-11
1.97725e-11
2.0039e-11
2.27451e-11
2.31081e-11
2.50031e-11
2.51934e-11
2.64384e-11
2.65442e-11
2.77983e-11
2.84735e-11
3.06577e-11
3.27427e-11
3.61835e-11
3.90904e-11
4.29168e-11
4.57478e-11
4.90136e-11
5.07891e-11
5.28862e-11
5.36595e-11
5.5036e-11
5.5053e-11
5.55215e-11
5.45405e-11
5.38277e-11
5.17541e-11
4.97047e-11
4.64299e-11
4.27247e-11
3.81681e-11
3.27627e-11
2.65221e-11
1.88641e-11
1.1343e-11
2.76508e-12
-4.42976e-12
-1.21854e-11
-1.71517e-11
-2.2268e-11
-2.3701e-11
-2.56418e-11
-2.39318e-11
-2.35957e-11
-2.00143e-11
-1.86296e-11
-1.40991e-11
-1.19952e-11
-6.75797e-12
-4.41598e-12
5.99552e-13
1.68744e-12
4.81196e-12
3.80691e-12
2.85991e-12
-2.82899e-12
-6.14037e-12
-1.31086e-11
-1.81943e-11
-2.60513e-11
-3.19524e-11
-4.15344e-11
-4.92959e-11
-5.9417e-11
-6.69595e-11
-7.62704e-11
-8.27757e-11
-9.05801e-11
-9.54896e-11
-1.01472e-10
-1.04646e-10
-1.08583e-10
-1.10045e-10
-1.12284e-10
-1.12733e-10
-1.14632e-10
-1.14945e-10
-1.16448e-10
-1.16227e-10
-1.1631e-10
-1.1454e-10
-1.13301e-10
-1.10445e-10
-1.07996e-10
-1.04389e-10
-1.01249e-10
-9.7131e-11
-9.33111e-11
-8.88955e-11
-8.51883e-11
-8.11979e-11
-7.78294e-11
-7.4828e-11
-7.21059e-11
-6.94213e-11
-6.63239e-11
-6.29886e-11
-5.89369e-11
-5.50728e-11
-5.04533e-11
-4.60748e-11
-4.07553e-11
-3.59246e-11
-3.02347e-11
-2.54054e-11
-1.97675e-11
-1.51985e-11
-9.71499e-12
-5.32887e-12
-3.16047e-13
2.7994e-12
5.68345e-12
5.93967e-12
5.54806e-12
2.43652e-12
-1.21018e-12
-7.0523e-12
-1.267e-11
-1.95894e-11
-2.59242e-11
-3.29274e-11
-3.89608e-11
-4.51865e-11
-5.06492e-11
-5.62924e-11
-6.12202e-11
-6.57564e-11
-6.91458e-11
-7.12801e-11
-7.23189e-11
-7.21969e-11
-7.20832e-11
-7.17214e-11
-7.27593e-11
-7.4336e-11
-7.79117e-11
-8.15368e-11
-8.68975e-11
-9.17158e-11
-9.81198e-11
-1.03285e-10
-1.09729e-10
-1.14022e-10
-1.19087e-10
-1.21152e-10
-1.23495e-10
-1.22384e-10
-1.21629e-10
-1.17427e-10
-1.13814e-10
-1.07096e-10
-1.01736e-10
-9.33347e-11
-8.53143e-11
-7.46279e-11
-6.63113e-11
-5.47528e-11
-4.62214e-11
-3.36257e-11
-2.89985e-11
-2.02065e-11
-1.68242e-11
-2.31552e-11
-3.08951e-11
-4.30482e-11
-6.8875e-11
-8.33598e-11
-1.26337e-10
-1.44216e-10
-1.94656e-10
-2.16343e-10
-2.57555e-10
-2.78778e-10
-3.05015e-10
-3.15483e-10
-3.26747e-10
-2.64648e-10
-3.06573e-10
1.30809e-07
1.56817e-07
4.14424e-08
4.65504e-08
4.99906e-08
5.42432e-08
5.68719e-08
5.81794e-08
5.78813e-08
5.82133e-08
5.46265e-08
)
;

boundaryField
{
    inlet
    {
        type            calculated;
        value           uniform 6.05357e-08;
    }
    endWall
    {
        type            calculated;
        value           uniform 5.44575e-08;
    }
    sideWall
    {
        type            empty;
    }
}


// ************************************************************************* //
