/*--------------------------------*- C++ -*----------------------------------*\
| =========                 |                                                 |
| \\      /  F ield         | foam-extend: Open Source CFD                    |
|  \\    /   O peration     | Version:     3.2                                |
|   \\  /    A nd           | Web:         http://www.foam-extend.org         |
|    \\/     M anipulation  | For copyright notice see file Copyright         |
\*---------------------------------------------------------------------------*/
FoamFile
{
    version     2.0;
    format      ascii;
    class       areaScalarField;
    location    "910";
    object      Fi2;
}
// * * * * * * * * * * * * * * * * * * * * * * * * * * * * * * * * * * * * * //

dimensions      [0 1 -1 0 0 0 0];

internalField   nonuniform List<scalar> 
550
(
4.99359e-08
4.56966e-08
3.06186e-08
-5.34839e-09
-4.91284e-08
-8.82016e-08
-1.26213e-07
-1.59186e-07
-1.77893e-07
-1.91709e-07
-1.96204e-07
-1.90897e-07
-1.86781e-07
-1.66508e-07
-1.52698e-07
-1.43559e-07
-1.20687e-07
-1.04101e-07
-9.61499e-08
-8.61236e-08
-8.10452e-08
-7.22379e-08
-6.30372e-08
-6.34631e-08
-5.52037e-08
-5.13701e-08
-4.51363e-08
-4.38753e-08
-4.70294e-08
-4.20234e-08
-4.03839e-08
-3.62859e-08
-3.35195e-08
-3.53128e-08
-3.44371e-08
-3.60652e-08
-3.43776e-08
-2.98628e-08
-3.39439e-08
-3.24341e-08
-2.82856e-08
-3.22179e-08
-3.08576e-08
-2.70364e-08
-2.87904e-08
-2.84253e-08
-2.80848e-08
-2.77679e-08
-2.74616e-08
-2.92044e-08
-3.00796e-08
-2.57038e-08
-2.62967e-08
-2.71659e-08
-2.56941e-08
-2.65804e-08
-2.51116e-08
-2.79266e-08
-2.37879e-08
-2.25109e-08
-2.60104e-08
-2.67733e-08
-2.47024e-08
-2.44851e-08
-2.25427e-08
-2.31018e-08
-2.38794e-08
-2.2712e-08
-2.34777e-08
-2.06315e-08
-2.38598e-08
-2.46275e-08
-2.09988e-08
-1.98398e-08
-2.31168e-08
-2.38842e-08
-2.19214e-08
-1.99331e-08
-2.04846e-08
-2.12475e-08
-1.83285e-08
-2.15092e-08
-2.21593e-08
-2.02355e-08
-2.00099e-08
-1.97992e-08
-1.82062e-08
-1.72979e-08
-1.858e-08
-1.84248e-08
-1.95698e-08
-1.88293e-08
-1.66643e-08
-1.91084e-08
-1.96715e-08
-1.68712e-08
-1.73133e-08
-1.78462e-08
-1.55758e-08
-1.67521e-08
-1.79577e-08
-1.85345e-08
-1.55858e-08
-1.6021e-08
-1.79542e-08
-1.63682e-08
-1.61599e-08
-1.59505e-08
-1.57466e-08
-1.54932e-08
-1.39311e-08
-1.31345e-08
-1.54198e-08
2.77683e-08
6.8421e-09
-5.57415e-08
-1.45493e-08
3.62698e-08
1.02804e-08
1.29446e-08
8.99825e-08
-5.79984e-08
-8.38015e-08
-1.25796e-08
-1.16407e-08
-1.02266e-08
-1.12939e-08
-1.14461e-08
1.27298e-07
3.5805e-08
-1.48218e-07
-1.04197e-08
-1.01179e-08
-9.79847e-09
-9.56502e-09
1.35763e-07
4.61558e-08
-1.54212e-07
-8.81515e-09
-8.23198e-09
-9.22131e-09
-9.49307e-09
1.31262e-07
3.94966e-08
-1.46865e-07
-7.49546e-09
-7.44302e-09
-7.23504e-09
-7.88521e-09
1.26447e-07
4.21618e-08
-1.39923e-07
-6.51689e-09
1.24281e-07
4.40859e-08
-1.36186e-07
-6.13057e-09
-5.72204e-09
-4.95988e-09
-4.94118e-09
-5.15004e-09
-5.02591e-09
-4.94257e-09
-4.60241e-09
-4.23142e-09
1.1788e-07
4.84137e-08
-1.25936e-07
-4.24451e-09
-4.15402e-09
-3.27561e-09
-3.25898e-09
-3.66836e-09
-3.2648e-09
-3.10814e-09
-3.23809e-09
-3.16685e-09
-2.60339e-09
-2.45005e-09
-2.8216e-09
-2.65623e-09
-2.70925e-09
1.10342e-07
1.64518e-07
-6.06134e-08
-1.14144e-07
-2.10231e-09
-2.34811e-09
-1.73813e-09
-1.46192e-09
-1.77054e-09
-1.49404e-09
-1.64888e-09
1.06404e-07
1.59958e-07
-5.61738e-08
-1.09276e-07
-9.7511e-10
-1.19896e-09
-1.52569e-09
-7.39279e-10
-8.10196e-10
-1.15421e-09
-1.03868e-09
-1.1239e-09
-1.07356e-09
-1.10766e-09
-6.63908e-10
-6.99733e-10
-7.31691e-10
-4.05053e-10
-5.57899e-10
-5.13046e-10
-1.7694e-10
1.09656e-09
1.8087e-09
9.59823e-11
-4.48598e-10
-1.75562e-11
-2.30753e-10
-6.73527e-11
-8.19195e-11
-5.53441e-11
-2.06788e-11
-6.88249e-11
4.00148e-12
-8.73752e-11
1.61286e-11
-9.56556e-11
1.80653e-11
-8.88327e-11
1.71482e-11
-6.55013e-11
2.62606e-11
-2.18559e-11
5.90663e-11
-2.23463e-12
4.87778e-11
8.47629e-11
8.17526e-11
7.84396e-11
6.88352e-11
5.13778e-11
5.50794e-11
3.38534e-11
3.66286e-11
2.48647e-11
2.49068e-11
2.03579e-11
2.44989e-11
2.45242e-11
3.12791e-11
3.11767e-11
2.87567e-11
3.44197e-11
4.07628e-11
4.48942e-11
4.74508e-11
4.25329e-11
4.21846e-11
4.17104e-11
4.16975e-11
3.76562e-11
3.58967e-11
3.37525e-11
3.27622e-11
2.96639e-11
2.54481e-11
2.00589e-11
1.49555e-11
1.06084e-11
7.99425e-12
5.20091e-12
4.74687e-13
-3.22385e-12
-5.72159e-12
-7.55493e-12
-1.00101e-11
-1.42825e-11
-1.63671e-11
-2.13847e-11
-2.66449e-11
-2.94991e-11
-2.78091e-11
-2.72056e-11
-2.447e-11
-2.49473e-11
-2.5513e-11
-2.68734e-11
-2.6338e-11
-2.80938e-11
-2.40922e-11
-1.99168e-11
-1.63749e-11
-1.54883e-11
-1.05445e-11
-4.93172e-12
-2.28638e-12
-1.24196e-13
2.46117e-12
4.61089e-12
5.97944e-12
8.34199e-12
9.34427e-12
1.04171e-11
1.18685e-11
1.328e-11
1.45895e-11
1.55219e-11
1.63303e-11
1.72952e-11
1.7972e-11
1.90329e-11
1.92493e-11
1.95096e-11
1.87614e-11
1.84158e-11
1.77327e-11
1.71954e-11
1.61679e-11
1.53284e-11
1.39419e-11
1.30288e-11
1.14978e-11
1.05525e-11
9.17055e-12
8.14109e-12
7.07036e-12
5.31049e-12
4.70908e-12
2.37363e-12
2.22519e-12
-3.03472e-14
-4.11994e-12
-9.82074e-12
-1.201e-11
-1.64372e-11
-1.75656e-11
-2.09249e-11
-2.30748e-11
-2.67475e-11
-3.10635e-11
-3.51105e-11
-4.0065e-11
-4.34076e-11
-4.80934e-11
-5.12e-11
-5.59764e-11
-5.93145e-11
-6.4825e-11
-6.89343e-11
-7.38623e-11
-7.62919e-11
-7.89583e-11
-8.57892e-11
-8.98549e-11
-9.05663e-11
-8.84539e-11
-8.61647e-11
-8.48596e-11
-8.52671e-11
-8.6516e-11
-8.88896e-11
-9.12517e-11
-9.32078e-11
-9.38035e-11
-9.37517e-11
-9.30581e-11
-9.27053e-11
-9.26933e-11
-9.35418e-11
-9.43835e-11
-9.54794e-11
-9.6097e-11
-9.67255e-11
-9.68182e-11
-9.70754e-11
-9.73721e-11
-9.8241e-11
-9.85646e-11
-9.8686e-11
-9.83481e-11
-9.84898e-11
-9.89093e-11
-1.00451e-10
-1.01356e-10
-1.01992e-10
-1.02203e-10
-1.02753e-10
-1.02666e-10
-1.02898e-10
-1.03086e-10
-1.03764e-10
-1.04565e-10
-1.05885e-10
-1.06602e-10
-1.07306e-10
-1.07417e-10
-1.08104e-10
-1.08655e-10
-1.09812e-10
-1.10737e-10
-1.12075e-10
-1.12896e-10
-1.14106e-10
-1.14926e-10
-1.16205e-10
-1.16957e-10
-1.1809e-10
-1.18577e-10
-1.19088e-10
-1.18532e-10
-1.17829e-10
-1.16268e-10
-1.14894e-10
-1.12565e-10
-1.10053e-10
-1.06171e-10
-1.01923e-10
-9.63516e-11
-9.06528e-11
-8.38524e-11
-7.7122e-11
-6.94412e-11
-6.20624e-11
-5.41076e-11
-4.67712e-11
-3.89525e-11
-3.19101e-11
-2.46417e-11
-1.8518e-11
-1.24679e-11
-7.64126e-12
-2.88622e-12
6.96844e-13
4.40541e-12
7.35251e-12
1.08575e-11
1.38384e-11
1.72422e-11
1.98385e-11
2.24667e-11
2.3963e-11
2.54745e-11
2.62308e-11
2.71941e-11
2.76783e-11
2.87022e-11
2.97299e-11
3.15087e-11
3.34864e-11
3.62526e-11
3.95859e-11
4.4054e-11
4.96029e-11
5.61335e-11
6.36079e-11
7.17615e-11
8.0925e-11
9.07311e-11
1.01412e-10
1.1225e-10
1.23716e-10
1.34588e-10
1.45647e-10
1.55337e-10
1.64489e-10
1.71416e-10
1.77942e-10
1.81214e-10
1.8402e-10
1.8286e-10
1.81733e-10
1.76265e-10
1.68474e-10
1.62618e-10
1.42558e-10
1.3183e-10
1.16042e-10
1.01964e-10
8.9762e-11
7.72731e-11
6.7607e-11
5.45625e-11
4.41761e-11
3.12628e-11
2.21682e-11
1.24578e-11
6.31507e-12
5.58563e-13
-2.37273e-12
-4.32443e-12
-4.09628e-12
-2.48043e-12
1.15972e-12
5.80616e-12
1.18442e-11
1.7731e-11
2.42303e-11
2.87544e-11
3.31781e-11
3.43502e-11
3.5377e-11
3.25959e-11
3.0061e-11
2.35943e-11
1.77268e-11
7.69152e-12
-1.63097e-12
-1.50589e-11
-2.76611e-11
-4.45855e-11
-5.99181e-11
-7.82673e-11
-9.45158e-11
-1.11078e-10
-1.28437e-10
-1.47831e-10
-1.66531e-10
-1.85118e-10
-2.04461e-10
-2.17715e-10
-2.37287e-10
-2.43006e-10
-2.66515e-10
-2.62065e-10
-2.86956e-10
-2.75336e-10
-2.96369e-10
-2.82546e-10
-2.94928e-10
-2.8527e-10
-2.83849e-10
-2.83934e-10
-2.67868e-10
-2.62563e-10
-2.46225e-10
-1.95062e-10
-1.95721e-10
9.42917e-08
1.18086e-07
4.60707e-08
4.03599e-08
3.55661e-08
4.03515e-08
4.55533e-08
4.88559e-08
4.90828e-08
4.87845e-08
4.51935e-08
)
;

boundaryField
{
    inlet
    {
        type            calculated;
        value           uniform 4.99357e-08;
    }
    endWall
    {
        type            calculated;
        value           uniform 4.31006e-08;
    }
    sideWall
    {
        type            empty;
    }
}


// ************************************************************************* //
