/*--------------------------------*- C++ -*----------------------------------*\
| =========                 |                                                 |
| \\      /  F ield         | foam-extend: Open Source CFD                    |
|  \\    /   O peration     | Version:     3.2                                |
|   \\  /    A nd           | Web:         http://www.foam-extend.org         |
|    \\/     M anipulation  | For copyright notice see file Copyright         |
\*---------------------------------------------------------------------------*/
FoamFile
{
    version     2.0;
    format      ascii;
    class       areaScalarField;
    location    "1440";
    object      He;
}
// * * * * * * * * * * * * * * * * * * * * * * * * * * * * * * * * * * * * * //

dimensions      [0 0 0 0 0 0 0];

internalField   nonuniform List<scalar> 
550
(
0
0
0
0
0
0
0
0
0
0
0
0
0
0
0
0
0
0
0
0
0
0
0
0
0
0
0
0
0
0
0
0
0
0
0
0
0
0
0
0
0
0
0
0
0
0
0
0
0
0
0
0
0
0
0
0
0
0
0
0
0
0
0
2.10266e-06
2.03547e-06
8.68727e-07
0
0
3.99156e-06
4.95052e-06
0
0
2.65035e-07
1.09203e-05
6.47142e-06
2.2247e-06
1.12259e-06
0
0
0
1.54396e-05
6.85415e-06
2.21424e-06
1.09778e-06
0
0
0
3.35522e-06
0
0
0
1.01666e-05
5.6877e-06
8.58707e-07
0
0
0
1.17538e-05
5.23954e-06
1.41849e-06
1.33517e-06
1.47575e-05
7.60659e-06
1.91742e-06
0
0
0
2.0874e-05
9.78749e-06
1.95169e-06
9.5078e-07
9.01148e-07
7.34348e-07
3.17093e-05
1.81677e-05
4.923e-06
3.76422e-06
3.04885e-06
2.32819e-06
1.91281e-06
1.86108e-05
0
0
0
0
2.24898e-07
3.57004e-08
9.92688e-09
2.80477e-07
2.42426e-07
2.56739e-07
2.04057e-07
2.01807e-07
4.92338e-07
1.14814e-06
1.44189e-06
1.0499e-06
7.54805e-07
7.35013e-07
9.7722e-07
1.17297e-06
1.35384e-06
1.5654e-06
1.77577e-06
1.96336e-06
2.10045e-06
2.24571e-06
2.36607e-06
2.42389e-06
2.42991e-06
2.43166e-06
2.44743e-06
2.47369e-06
2.53452e-06
2.58592e-06
2.6735e-06
2.74076e-06
2.83052e-06
2.90025e-06
2.96318e-06
3.02939e-06
3.07756e-06
3.14652e-06
3.20119e-06
3.27176e-06
3.35087e-06
3.45305e-06
3.55848e-06
4.04259e-06
4.11257e-06
4.18858e-06
4.26873e-06
4.35465e-06
4.43779e-06
4.489e-06
4.55312e-06
4.61675e-06
4.71027e-06
4.80434e-06
4.9248e-06
5.05541e-06
5.22954e-06
5.41956e-06
5.63858e-06
5.87113e-06
6.12357e-06
6.39351e-06
6.66993e-06
6.99821e-06
1.82923e-05
1.8628e-05
1.89959e-05
1.9333e-05
1.97249e-05
2.00681e-05
2.03412e-05
2.06293e-05
2.0896e-05
2.11782e-05
2.14441e-05
2.17215e-05
2.19869e-05
2.22772e-05
2.25666e-05
2.28642e-05
2.31592e-05
2.3467e-05
2.37799e-05
2.40931e-05
2.44162e-05
2.47486e-05
2.5096e-05
2.54553e-05
2.58352e-05
2.62262e-05
2.66429e-05
3.07128e-05
3.10311e-05
3.13087e-05
3.15656e-05
3.17703e-05
3.19853e-05
3.21351e-05
3.2349e-05
3.25009e-05
3.27076e-05
3.28537e-05
3.29477e-05
3.29995e-05
3.29401e-05
3.28793e-05
3.27e-05
3.26287e-05
3.2542e-05
3.24664e-05
3.22974e-05
3.21179e-05
3.18566e-05
3.15621e-05
3.1179e-05
3.07723e-05
3.02927e-05
2.98051e-05
2.92775e-05
2.87411e-05
2.81979e-05
2.76349e-05
2.7086e-05
2.65075e-05
2.59525e-05
2.53768e-05
2.48744e-05
2.43493e-05
2.38398e-05
2.33044e-05
2.27785e-05
2.22341e-05
2.17005e-05
2.11586e-05
2.06347e-05
2.01133e-05
1.96233e-05
1.91456e-05
1.70812e-05
1.68548e-05
1.66642e-05
1.64739e-05
1.63121e-05
1.61718e-05
1.60525e-05
1.59257e-05
0
0
0
0
0
0
0
0
0
0
0
0
0
1.49609e-05
1.49416e-05
1.47934e-05
1.48037e-05
1.48107e-05
1.48143e-05
1.48076e-05
1.4797e-05
1.47711e-05
1.47395e-05
1.46907e-05
1.46361e-05
1.45633e-05
1.44857e-05
1.43929e-05
1.4297e-05
1.41882e-05
1.40765e-05
1.39517e-05
1.38228e-05
1.36807e-05
1.35345e-05
1.33749e-05
1.32081e-05
1.30306e-05
1.28457e-05
1.2652e-05
1.24572e-05
1.22494e-05
1.20228e-05
1.17738e-05
1.14988e-05
1.11902e-05
1.08505e-05
1.04713e-05
1.00559e-05
9.6014e-06
9.11109e-06
8.58569e-06
8.0332e-06
7.45787e-06
6.86906e-06
6.27282e-06
5.67384e-06
5.08069e-06
4.50114e-06
3.93462e-06
3.3917e-06
2.21502e-06
1.99968e-06
1.79135e-06
1.58026e-06
1.3623e-06
1.13709e-06
9.09324e-07
6.80183e-07
1.59886e-07
1.1821e-07
9.04714e-08
6.96357e-08
5.34705e-08
4.07696e-08
3.091e-08
2.29922e-08
1.75293e-08
1.31163e-08
8.78771e-09
5.31667e-09
2.8617e-09
1.26268e-09
2.20413e-10
0
0
0
0
0
0
0
0
0
0
0
0
0
0
0
0
0
0
0
0
0
0
0
0
0
0
0
0
0
0
0
0
0
0
0
0
0
0
0
0
0
0
3.49062e-07
4.28342e-07
4.79901e-07
5.0474e-07
5.05234e-07
4.85611e-07
4.50415e-07
4.04356e-07
3.51363e-07
2.96056e-07
2.43316e-07
1.99956e-07
1.75645e-07
1.86621e-07
4.6263e-07
0
0
0
0
2.04625e-06
2.35885e-06
2.66118e-06
2.95789e-06
3.30294e-05
3.37798e-05
3.44715e-05
3.51008e-05
3.56467e-05
3.60999e-05
3.64685e-05
3.67615e-05
3.69893e-05
3.7163e-05
3.72912e-05
3.73818e-05
3.74437e-05
3.7487e-05
3.75211e-05
3.75545e-05
3.75959e-05
6.56696e-06
6.49311e-06
6.3964e-06
6.2695e-06
6.11426e-06
5.93266e-06
5.72585e-06
5.49902e-06
5.26018e-06
5.0155e-06
4.76746e-06
4.51876e-06
4.27668e-06
4.04654e-06
3.82411e-06
3.60727e-06
3.39896e-06
3.20652e-06
4.34027e-05
4.32377e-05
4.21702e-05
4.24283e-05
4.26724e-05
4.28998e-05
4.31115e-05
4.33059e-05
4.34878e-05
4.36614e-05
4.38396e-05
4.40343e-05
6.6055e-08
3.02761e-08
9.08478e-09
2.96096e-10
0
0
0
0
0
4.71542e-05
4.73241e-05
4.73946e-05
4.73583e-05
4.72116e-05
4.69594e-05
4.66078e-05
4.61684e-05
4.56571e-05
4.51201e-05
4.46433e-05
4.41761e-05
4.38664e-05
4.3674e-05
4.34908e-05
4.33108e-05
4.31281e-05
4.29371e-05
4.27336e-05
4.25133e-05
4.22743e-05
4.20118e-05
4.17209e-05
4.13921e-05
4.10234e-05
4.06518e-05
4.03038e-05
3.99209e-05
3.94837e-05
3.89915e-05
3.84634e-05
3.794e-05
3.74412e-05
3.69225e-05
3.63741e-05
3.57876e-05
3.51723e-05
3.45607e-05
3.39586e-05
3.33901e-05
3.28628e-05
3.24139e-05
3.19875e-05
3.171e-05
3.13997e-05
3.13694e-05
3.12038e-05
3.098e-05
3.11028e-05
3.10708e-05
3.10587e-05
3.08602e-05
3.06686e-05
3.01972e-05
2.98393e-05
2.93924e-05
2.9212e-05
2.88215e-05
2.79571e-05
2.67716e-05
2.41487e-05
2.08059e-05
1.40357e-05
4.46803e-06
0
0
0
0
0
0
0
0
0
0
)
;

boundaryField
{
    inlet
    {
        type            calculated;
        value           uniform 0;
    }
    endWall
    {
        type            calculated;
        value           uniform 0;
    }
    sideWall
    {
        type            empty;
    }
}


// ************************************************************************* //
