/*--------------------------------*- C++ -*----------------------------------*\
| =========                 |                                                 |
| \\      /  F ield         | foam-extend: Open Source CFD                    |
|  \\    /   O peration     | Version:     3.2                                |
|   \\  /    A nd           | Web:         http://www.foam-extend.org         |
|    \\/     M anipulation  | For copyright notice see file Copyright         |
\*---------------------------------------------------------------------------*/
FoamFile
{
    version     2.0;
    format      ascii;
    class       volVectorField;
    location    "1440";
    object      meshCentreN;
}
// * * * * * * * * * * * * * * * * * * * * * * * * * * * * * * * * * * * * * //

dimensions      [0 1 0 0 0 0 0];

internalField   nonuniform List<vector> 
33000
(
(0.0090909 0.01 0.00248182)
(0.0272727 0.01 0.00244545)
(0.0454546 0.01 0.00240909)
(0.0636364 0.01 0.00237273)
(0.0818182 0.01 0.00233636)
(0.1 0.01 0.0023)
(0.118182 0.01 0.00226364)
(0.136364 0.01 0.00222727)
(0.154546 0.01 0.00219091)
(0.172727 0.01 0.0021544)
(0.190909 0.01 0.00211388)
(0.209091 0.01 0.00207351)
(0.227272 0.01 0.00204104)
(0.245455 0.01 0.00200549)
(0.263636 0.01 0.00196606)
(0.281818 0.01 0.00193283)
(0.3 0.01 0.00189741)
(0.318182 0.01 0.00185681)
(0.336364 0.01 0.00181889)
(0.354546 0.01 0.00178351)
(0.372727 0.01 0.00174937)
(0.390909 0.01 0.00171511)
(0.409091 0.01 0.00167918)
(0.427273 0.01 0.00164412)
(0.445455 0.01 0.00160905)
(0.463636 0.01 0.0015727)
(0.481818 0.01 0.00153549)
(0.5 0.01 0.00149831)
(0.518182 0.01 0.00146276)
(0.536364 0.01 0.00142724)
(0.554545 0.01 0.00139089)
(0.572727 0.01 0.00135385)
(0.590909 0.01 0.0013162)
(0.609091 0.01 0.00127925)
(0.627273 0.01 0.00124297)
(0.645454 0.01 0.00120727)
(0.663636 0.01 0.00117152)
(0.681818 0.01 0.00113471)
(0.7 0.01 0.00109836)
(0.718182 0.01 0.00106253)
(0.736364 0.01 0.00102574)
(0.754545 0.01 0.000989398)
(0.772727 0.01 0.000953525)
(0.790909 0.01 0.00091675)
(0.809091 0.01 0.000879963)
(0.827273 0.01 0.000843625)
(0.845454 0.01 0.0008073)
(0.863636 0.01 0.00077098)
(0.881818 0.01 0.000734665)
(0.9 0.01 0.000698745)
(0.918182 0.01 0.000663187)
(0.936364 0.01 0.00062686)
(0.954545 0.01 0.000590132)
(0.972727 0.01 0.000553765)
(0.990909 0.01 0.000517412)
(1.00909 0.01 0.000481067)
(1.02727 0.01 0.000444702)
(1.04546 0.01 0.000408072)
(1.06364 0.01 0.000372596)
(1.08182 0.01 0.000334978)
(1.1 0.01 0.000299745)
(1.11818 0.01 0.000263954)
(1.13636 0.01 0.000225964)
(1.15454 0.01 0.000187852)
(1.17273 0.01 0.000150562)
(1.19091 0.01 0.000113445)
(1.20909 0.01 7.70096e-05)
(1.22727 0.01 3.91194e-05)
(1.24545 0.01 7.97412e-08)
(1.26364 0.01 -3.66558e-05)
(1.28182 0.01 -7.02326e-05)
(1.3 0.01 -0.000107511)
(1.31818 0.01 -0.000151726)
(1.33636 0.01 -0.00019145)
(1.35454 0.01 -0.000228263)
(1.37273 0.01 -0.000265663)
(1.39091 0.01 -0.000305918)
(1.40909 0.01 -0.00034901)
(1.42727 0.01 -0.000392893)
(1.44545 0.01 -0.000443733)
(1.46364 0.01 -0.000485749)
(1.48182 0.01 -0.000514421)
(1.5 0.01 -0.000549963)
(1.51818 0.01 -0.000590446)
(1.53636 0.01 -0.000628285)
(1.55455 0.01 -0.000667061)
(1.57273 0.01 -0.000707742)
(1.59091 0.01 -0.00074134)
(1.60909 0.01 -0.000769917)
(1.62727 0.01 -0.000805296)
(1.64546 0.01 -0.000848823)
(1.66364 0.01 -0.000878587)
(1.68182 0.01 -0.000899936)
(1.7 0.01 -0.000939328)
(1.71818 0.01 -0.000978585)
(1.73636 0.01 -0.00101262)
(1.75455 0.01 -0.00105302)
(1.77273 0.01 -0.00108392)
(1.79091 0.01 -0.00111053)
(1.80909 0.01 -0.00115052)
(1.82727 0.01 -0.0011929)
(1.84546 0.01 -0.00122714)
(1.86364 0.01 -0.00125831)
(1.88182 0.01 -0.00128811)
(1.9 0.01 -0.0013151)
(1.91818 0.01 -0.00135266)
(1.93636 0.01 -0.00140342)
(1.95455 0.01 -0.00143938)
(1.97273 0.01 -0.00146278)
(1.99091 0.01 -0.00149929)
(2.00909 0.01 -0.00153139)
(2.02727 0.01 -0.00156441)
(2.04546 0.01 -0.00161324)
(2.06364 0.01 -0.00164607)
(2.08182 0.01 -0.00165324)
(2.1 0.01 -0.00167537)
(2.11818 0.01 -0.0017005)
(2.13636 0.01 -0.00172675)
(2.15454 0.01 -0.00176208)
(2.17273 0.01 -0.00178712)
(2.19091 0.01 -0.00178472)
(2.2091 0.01 -0.00180126)
(2.22727 0.01 -0.0017385)
(2.24546 0.01 -0.001554)
(2.26364 0.01 -0.00139031)
(2.28182 0.01 -0.00124172)
(2.3 0.01 -0.00110412)
(2.31818 0.01 -0.000975751)
(2.33636 0.01 -0.000857654)
(2.35454 0.01 -0.0007505)
(2.37273 0.01 -0.000655256)
(2.39091 0.01 -0.000572925)
(2.40909 0.01 -0.00050423)
(2.42727 0.01 -0.00045008)
(2.44546 0.01 -0.000411783)
(2.46364 0.01 -0.000384097)
(2.48182 0.01 -0.000379728)
(2.5 0.01 -0.000401468)
(2.51818 0.01 -0.000386754)
(2.53636 0.01 -0.000346465)
(2.55455 0.01 -0.000326714)
(2.57273 0.01 -0.000269792)
(2.59091 0.01 -0.00017747)
(2.60909 0.01 -9.68888e-05)
(2.62727 0.01 -2.33895e-05)
(2.64545 0.01 4.59355e-05)
(2.66364 0.01 0.000110982)
(2.68182 0.01 0.000170366)
(2.7 0.01 0.000223329)
(2.71818 0.01 0.000269186)
(2.73636 0.01 0.000308866)
(2.75455 0.01 0.000341549)
(2.77273 0.01 0.000370792)
(2.79091 0.01 0.000391952)
(2.80909 0.01 0.000413462)
(2.82727 0.01 0.000423711)
(2.84545 0.01 0.000441037)
(2.86364 0.01 0.00044201)
(2.88181 0.01 0.000444399)
(2.90001 0.01 0.000422533)
(2.91817 0.01 0.000389683)
(2.93637 0.01 0.00033887)
(2.95454 0.01 0.000274507)
(2.97274 0.01 0.000201527)
(2.9909 0.01 0.000117415)
(3.0091 0.01 2.22272e-05)
(3.02726 0.01 -9.78298e-05)
(3.04546 0.01 -0.000262182)
(3.06363 0.01 -0.000493127)
(3.08184 0.01 -0.00084419)
(3.09999 0.01 -0.00112984)
(3.11818 0.01 -0.00116703)
(3.13636 0.01 -0.00120317)
(3.15454 0.01 -0.00125153)
(3.17273 0.01 -0.00129478)
(3.19091 0.01 -0.00133765)
(3.20909 0.01 -0.00137412)
(3.22727 0.01 -0.00140864)
(3.24546 0.01 -0.00143729)
(3.26364 0.01 -0.00146407)
(3.28182 0.01 -0.00148585)
(3.3 0.01 -0.0015061)
(3.31818 0.01 -0.00152228)
(3.33636 0.01 -0.00153735)
(3.35455 0.01 -0.00154898)
(3.37273 0.01 -0.00155986)
(3.39091 0.01 -0.00156795)
(3.40909 0.01 -0.00157559)
(3.42727 0.01 -0.00158091)
(3.44545 0.01 -0.00158574)
(3.46364 0.01 -0.00158859)
(3.48182 0.01 -0.00159109)
(3.5 0.01 -0.00159167)
(3.51818 0.01 -0.00159131)
(3.53636 0.01 -0.00158977)
(3.55454 0.01 -0.00158728)
(3.57273 0.01 -0.00158414)
(3.59091 0.01 -0.00158043)
(3.60909 0.01 -0.00157635)
(3.62727 0.01 -0.00157199)
(3.64546 0.01 -0.00156735)
(3.66364 0.01 -0.00156246)
(3.68182 0.01 -0.00155745)
(3.7 0.01 -0.00155246)
(3.71818 0.01 -0.00154746)
(3.73636 0.01 -0.00154242)
(3.75455 0.01 -0.00153744)
(3.77273 0.01 -0.00153248)
(3.79091 0.01 -0.00152746)
(3.80909 0.01 -0.00152247)
(3.82727 0.01 -0.00151758)
(3.84545 0.01 -0.00151288)
(3.86364 0.01 -0.0015083)
(3.88182 0.01 -0.00150395)
(3.9 0.01 -0.00149985)
(3.91818 0.01 -0.00149587)
(3.93636 0.01 -0.00149222)
(3.95454 0.01 -0.00148897)
(3.97273 0.01 -0.00148596)
(3.99091 0.01 -0.00148324)
(4.00909 0.01 -0.00148076)
(4.02727 0.01 -0.00147848)
(4.04546 0.01 -0.00147657)
(4.06364 0.01 -0.00147487)
(4.08182 0.01 -0.00147331)
(4.1 0.01 -0.00147169)
(4.11818 0.01 -0.0014704)
(4.13636 0.01 -0.00146893)
(4.15455 0.01 -0.00146781)
(4.17273 0.01 -0.00146641)
(4.19091 0.01 -0.00146557)
(4.20909 0.01 -0.0014646)
(4.22727 0.01 -0.00146418)
(4.24545 0.01 -0.00146377)
(4.26364 0.01 -0.00146403)
(4.28182 0.01 -0.00146424)
(4.3 0.01 -0.00146502)
(4.31818 0.01 -0.00146593)
(4.33636 0.01 -0.00146722)
(4.35454 0.01 -0.00146856)
(4.37273 0.01 -0.00147012)
(4.39091 0.01 -0.00147175)
(4.40909 0.01 -0.00147359)
(4.42727 0.01 -0.00147518)
(4.44546 0.01 -0.00147726)
(4.46364 0.01 -0.0014792)
(4.48182 0.01 -0.00148174)
(4.5 0.01 -0.0014841)
(4.51818 0.01 -0.00148718)
(4.53636 0.01 -0.00149005)
(4.55455 0.01 -0.00149381)
(4.57273 0.01 -0.00149734)
(4.59091 0.01 -0.00150192)
(4.60909 0.01 -0.00150625)
(4.62727 0.01 -0.00151177)
(4.64545 0.01 -0.001517)
(4.66364 0.01 -0.00152354)
(4.68182 0.01 -0.00152993)
(4.7 0.01 -0.00153788)
(4.71818 0.01 -0.00154575)
(4.73636 0.01 -0.00155494)
(4.75454 0.01 -0.00156377)
(4.77273 0.01 -0.00157414)
(4.79091 0.01 -0.00158432)
(4.80909 0.01 -0.00159612)
(4.82727 0.01 -0.00160763)
(4.84546 0.01 -0.0016207)
(4.86364 0.01 -0.00163352)
(4.88182 0.01 -0.001648)
(4.9 0.01 -0.0016621)
(4.91818 0.01 -0.00167806)
(4.93636 0.01 -0.00169358)
(4.95455 0.01 -0.00171119)
(4.97273 0.01 -0.00172884)
(4.99091 0.01 -0.00174843)
(5.00909 0.01 -0.00176837)
(5.02727 0.01 -0.00179006)
(5.04545 0.01 -0.0018128)
(5.06364 0.01 -0.00183651)
(5.08182 0.01 -0.00186186)
(5.1 0.01 -0.00188714)
(5.11818 0.01 -0.0019146)
(5.13636 0.01 -0.00194132)
(5.15454 0.01 -0.00197055)
(5.17273 0.01 -0.00199824)
(5.19091 0.01 -0.00202809)
(5.20909 0.01 -0.00205683)
(5.22727 0.01 -0.0020876)
(5.24546 0.01 -0.00211761)
(5.26364 0.01 -0.0021494)
(5.28182 0.01 -0.00218041)
(5.3 0.01 -0.00221303)
(5.31818 0.01 -0.00224506)
(5.33636 0.01 -0.00227851)
(5.35455 0.01 -0.00231151)
(5.37273 0.01 -0.00234563)
(5.39091 0.01 -0.00237931)
(5.40909 0.01 -0.002414)
(5.42727 0.01 -0.00244829)
(5.44545 0.01 -0.00248344)
(5.46364 0.01 -0.00251831)
(5.48182 0.01 -0.00255391)
(5.5 0.01 -0.00258923)
(5.51818 0.01 -0.00262502)
(5.53636 0.01 -0.00266052)
(5.55454 0.01 -0.0026964)
(5.57273 0.01 -0.00273202)
(5.59091 0.01 -0.00276791)
(5.60909 0.01 -0.00280348)
(5.62727 0.01 -0.00283909)
(5.64546 0.01 -0.00287425)
(5.66364 0.01 -0.00290934)
(5.68182 0.01 -0.00294387)
(5.7 0.01 -0.00297827)
(5.71818 0.01 -0.00301194)
(5.73636 0.01 -0.00304521)
(5.75455 0.01 -0.00307775)
(5.77273 0.01 -0.00310983)
(5.79091 0.01 -0.00314111)
(5.80909 0.01 -0.00317186)
(5.82727 0.01 -0.00320192)
(5.84545 0.01 -0.00323144)
(5.86364 0.01 -0.00326013)
(5.88182 0.01 -0.00328825)
(5.9 0.01 -0.00331575)
(5.91818 0.01 -0.00334269)
(5.93636 0.01 -0.00336897)
(5.95454 0.01 -0.00339462)
(5.97273 0.01 -0.0034195)
(5.99091 0.01 -0.00344382)
(6.00909 0.01 -0.00346746)
(6.02727 0.01 -0.00349043)
(6.04546 0.01 -0.0035126)
(6.06364 0.01 -0.00353408)
(6.08182 0.01 -0.00355474)
(6.1 0.01 -0.00357453)
(6.11818 0.01 -0.00359344)
(6.13636 0.01 -0.00361148)
(6.15455 0.01 -0.00362853)
(6.17273 0.01 -0.00364462)
(6.19091 0.01 -0.00365966)
(6.20909 0.01 -0.00367364)
(6.22727 0.01 -0.0036865)
(6.24546 0.01 -0.00369822)
(6.26364 0.01 -0.00370872)
(6.28182 0.01 -0.00371804)
(6.3 0.01 -0.00372614)
(6.31818 0.01 -0.00373297)
(6.33636 0.01 -0.00373842)
(6.35454 0.01 -0.00374242)
(6.37273 0.01 -0.00374491)
(6.39091 0.01 -0.00374545)
(6.40909 0.01 -0.00374365)
(6.42727 0.01 -0.00373997)
(6.44546 0.01 -0.00373477)
(6.46364 0.01 -0.00372829)
(6.48182 0.01 -0.00372065)
(6.5 0.01 -0.00371196)
(6.51818 0.01 -0.00370232)
(6.53636 0.01 -0.00369174)
(6.55455 0.01 -0.00368029)
(6.57273 0.01 -0.00366803)
(6.59091 0.01 -0.00365499)
(6.60909 0.01 -0.00364119)
(6.62727 0.01 -0.00362675)
(6.64546 0.01 -0.00361163)
(6.66364 0.01 -0.00359591)
(6.68182 0.01 -0.00357964)
(6.7 0.01 -0.00356283)
(6.71818 0.01 -0.00354553)
(6.73636 0.01 -0.00352779)
(6.75454 0.01 -0.00350973)
(6.77273 0.01 -0.00349139)
(6.79091 0.01 -0.00347285)
(6.80909 0.01 -0.00345417)
(6.82727 0.01 -0.00343532)
(6.84546 0.01 -0.0034164)
(6.86364 0.01 -0.00339748)
(6.88182 0.01 -0.00337856)
(6.9 0.01 -0.00335971)
(6.91818 0.01 -0.00334102)
(6.93636 0.01 -0.0033225)
(6.95454 0.01 -0.00330421)
(6.97273 0.01 -0.0032862)
(6.99091 0.01 -0.00326844)
(7.00909 0.01 -0.00325098)
(7.02727 0.01 -0.00323388)
(7.04546 0.01 -0.00321711)
(7.06364 0.01 -0.00320063)
(7.08182 0.01 -0.00318441)
(7.1 0.01 -0.00316857)
(7.11818 0.01 -0.00315308)
(7.13636 0.01 -0.00313789)
(7.15455 0.01 -0.00312297)
(7.17273 0.01 -0.00310835)
(7.19091 0.01 -0.00309402)
(7.20909 0.01 -0.00308003)
(7.22727 0.01 -0.00306635)
(7.24546 0.01 -0.00305298)
(7.26364 0.01 -0.00303992)
(7.28182 0.01 -0.00302722)
(7.3 0.01 -0.00301482)
(7.31818 0.01 -0.00300272)
(7.33636 0.01 -0.00299102)
(7.35454 0.01 -0.00297958)
(7.37273 0.01 -0.00296841)
(7.39091 0.01 -0.00295763)
(7.40909 0.01 -0.0029472)
(7.42727 0.01 -0.0029371)
(7.44546 0.01 -0.00292737)
(7.46364 0.01 -0.00291805)
(7.48182 0.01 -0.00290904)
(7.5 0.01 -0.00290031)
(7.51818 0.01 -0.00289202)
(7.53636 0.01 -0.00288417)
(7.55454 0.01 -0.00287659)
(7.57273 0.01 -0.00286923)
(7.59091 0.01 -0.00286225)
(7.60909 0.01 -0.00285563)
(7.62727 0.01 -0.00284936)
(7.64545 0.01 -0.00284339)
(7.66364 0.01 -0.00283772)
(7.68182 0.01 -0.00283248)
(7.7 0.01 -0.00282749)
(7.71818 0.01 -0.00282273)
(7.73636 0.01 -0.00281833)
(7.75455 0.01 -0.00281426)
(7.77273 0.01 -0.00281054)
(7.79091 0.01 -0.00280713)
(7.80909 0.01 -0.00280403)
(7.82727 0.01 -0.00280118)
(7.84545 0.01 -0.00279856)
(7.86364 0.01 -0.00279616)
(7.88182 0.01 -0.00279394)
(7.9 0.01 -0.00279186)
(7.91818 0.01 -0.0027899)
(7.93636 0.01 -0.00278799)
(7.95455 0.01 -0.00278613)
(7.97273 0.01 -0.00278425)
(7.99091 0.01 -0.00278234)
(8.00909 0.01 -0.00278051)
(8.02727 0.01 -0.00277874)
(8.04546 0.01 -0.00277682)
(8.06364 0.01 -0.00277474)
(8.08182 0.01 -0.00277262)
(8.1 0.01 -0.00277043)
(8.11818 0.01 -0.002768)
(8.13636 0.01 -0.00276534)
(8.15455 0.01 -0.00276241)
(8.17273 0.01 -0.0027592)
(8.19091 0.01 -0.0027557)
(8.20909 0.01 -0.0027519)
(8.22727 0.01 -0.00274801)
(8.24545 0.01 -0.00274405)
(8.26364 0.01 -0.00273984)
(8.28182 0.01 -0.00273543)
(8.3 0.01 -0.00273084)
(8.31818 0.01 -0.00272605)
(8.33636 0.01 -0.0027211)
(8.35454 0.01 -0.002716)
(8.37273 0.01 -0.00271074)
(8.39091 0.01 -0.00270533)
(8.40909 0.01 -0.00269977)
(8.42727 0.01 -0.00269406)
(8.44546 0.01 -0.00268817)
(8.46364 0.01 -0.00268209)
(8.48182 0.01 -0.00267579)
(8.5 0.01 -0.00266924)
(8.51818 0.01 -0.00266243)
(8.53636 0.01 -0.00265531)
(8.55455 0.01 -0.00264787)
(8.57273 0.01 -0.00264011)
(8.59091 0.01 -0.00263204)
(8.60909 0.01 -0.00262362)
(8.62727 0.01 -0.00261491)
(8.64546 0.01 -0.00260591)
(8.66364 0.01 -0.00259644)
(8.68182 0.01 -0.00258654)
(8.7 0.01 -0.00257644)
(8.71818 0.01 -0.00256594)
(8.73636 0.01 -0.00255508)
(8.75455 0.01 -0.00254407)
(8.77273 0.01 -0.00253274)
(8.79091 0.01 -0.0025211)
(8.80909 0.01 -0.00250916)
(8.82727 0.01 -0.0024969)
(8.84545 0.01 -0.00248433)
(8.86364 0.01 -0.00247146)
(8.88182 0.01 -0.00245831)
(8.9 0.01 -0.00244485)
(8.91818 0.01 -0.00243109)
(8.93636 0.01 -0.00241699)
(8.95454 0.01 -0.00240254)
(8.97273 0.01 -0.00238773)
(8.99091 0.01 -0.00237253)
(9.00909 0.01 -0.00235697)
(9.02727 0.01 -0.002341)
(9.04545 0.01 -0.00232444)
(9.06364 0.01 -0.00230753)
(9.08182 0.01 -0.00229031)
(9.1 0.01 -0.0022726)
(9.11818 0.01 -0.00225443)
(9.13636 0.01 -0.00223587)
(9.15454 0.01 -0.00221689)
(9.17273 0.01 -0.00219755)
(9.19091 0.01 -0.00217807)
(9.20909 0.01 -0.00215846)
(9.22727 0.01 -0.00213852)
(9.24546 0.01 -0.00211818)
(9.26364 0.01 -0.00209741)
(9.28182 0.01 -0.0020761)
(9.3 0.01 -0.00205451)
(9.31818 0.01 -0.00203248)
(9.33636 0.01 -0.00201)
(9.35454 0.01 -0.00198705)
(9.37273 0.01 -0.00196345)
(9.39091 0.01 -0.00193992)
(9.40909 0.01 -0.00191463)
(9.42727 0.01 -0.00189044)
(9.44545 0.01 -0.00186172)
(9.46364 0.01 -0.00183766)
(9.48182 0.01 -0.00180128)
(9.5 0.01 -0.00177903)
(9.51817 0.01 -0.00173492)
(9.53637 0.01 -0.00171947)
(9.55453 0.01 -0.00168217)
(9.57275 0.01 -0.00169025)
(9.59089 0.01 -0.00168504)
(9.60911 0.01 -0.0017417)
(9.62724 0.01 -0.00180669)
(9.64548 0.01 -0.00194467)
(9.66361 0.01 -0.00213057)
(9.68185 0.01 -0.00238545)
(9.69997 0.01 -0.00274025)
(9.7182 0.01 -0.00321304)
(9.73634 0.01 -0.00389401)
(9.75456 0.01 -0.00489652)
(9.77271 0.01 -0.00646516)
(9.79094 0.01 -0.00909981)
(9.80925 0.01 -0.0139112)
(9.8271 0.01 -0.0170102)
(9.84546 0.01 -0.0171919)
(9.86364 0.01 -0.0172264)
(9.88182 0.01 -0.0172633)
(9.9 0.01 -0.0172998)
(9.91818 0.01 -0.0173363)
(9.93636 0.01 -0.0173726)
(9.95454 0.01 -0.0174091)
(9.97273 0.01 -0.0174454)
(9.99091 0.01 -0.0174818)
(0.0090909 0.01 0.00748182)
(0.0272727 0.01 0.00744546)
(0.0454546 0.01 0.00740909)
(0.0636364 0.01 0.00737273)
(0.0818182 0.01 0.00733636)
(0.1 0.01 0.0073)
(0.118182 0.01 0.00726363)
(0.136364 0.01 0.00722726)
(0.154545 0.01 0.00719089)
(0.172727 0.01 0.00715409)
(0.190909 0.01 0.0071139)
(0.209091 0.01 0.00707415)
(0.227272 0.01 0.00704081)
(0.245455 0.01 0.00700519)
(0.263636 0.01 0.00696654)
(0.281818 0.01 0.00693265)
(0.3 0.01 0.00689699)
(0.318182 0.01 0.00685702)
(0.336364 0.01 0.0068191)
(0.354546 0.01 0.00678362)
(0.372727 0.01 0.00674937)
(0.390909 0.01 0.00671497)
(0.409091 0.01 0.00667924)
(0.427273 0.01 0.00664411)
(0.445455 0.01 0.00660894)
(0.463636 0.01 0.00657263)
(0.481818 0.01 0.00653549)
(0.5 0.01 0.00649844)
(0.518182 0.01 0.00646276)
(0.536364 0.01 0.00642717)
(0.554545 0.01 0.00639083)
(0.572727 0.01 0.0063538)
(0.590909 0.01 0.00631626)
(0.609091 0.01 0.00627931)
(0.627273 0.01 0.00624302)
(0.645454 0.01 0.00620726)
(0.663636 0.01 0.00617144)
(0.681818 0.01 0.00613474)
(0.7 0.01 0.0060984)
(0.718182 0.01 0.00606245)
(0.736364 0.01 0.00602578)
(0.754545 0.01 0.00598944)
(0.772727 0.01 0.00595345)
(0.790909 0.01 0.00591675)
(0.809091 0.01 0.00588)
(0.827273 0.01 0.00584362)
(0.845454 0.01 0.0058073)
(0.863636 0.01 0.00577098)
(0.881818 0.01 0.00573469)
(0.9 0.01 0.00569877)
(0.918182 0.01 0.00566312)
(0.936364 0.01 0.00562682)
(0.954545 0.01 0.00559016)
(0.972727 0.01 0.00555376)
(0.990909 0.01 0.00551741)
(1.00909 0.01 0.00548106)
(1.02727 0.01 0.00544466)
(1.04546 0.01 0.00540812)
(1.06364 0.01 0.00537231)
(1.08182 0.01 0.00533483)
(1.1 0.01 0.00529886)
(1.11818 0.01 0.00526191)
(1.13636 0.01 0.0052224)
(1.15454 0.01 0.00518212)
(1.17273 0.01 0.00514214)
(1.19091 0.01 0.00510236)
(1.20909 0.01 0.00506347)
(1.22727 0.01 0.00502381)
(1.24545 0.01 0.00498358)
(1.26364 0.01 0.00494567)
(1.28182 0.01 0.00491051)
(1.3 0.01 0.00487139)
(1.31818 0.01 0.00482527)
(1.33636 0.01 0.00478162)
(1.35454 0.01 0.00473999)
(1.37273 0.01 0.00469701)
(1.39091 0.01 0.00464968)
(1.40909 0.01 0.0045985)
(1.42727 0.01 0.00454439)
(1.44545 0.01 0.00448258)
(1.46364 0.01 0.00442911)
(1.48182 0.01 0.00438832)
(1.5 0.01 0.00434522)
(1.51818 0.01 0.00430167)
(1.53636 0.01 0.00426203)
(1.55455 0.01 0.00422414)
(1.57273 0.01 0.00418651)
(1.59091 0.01 0.00415545)
(1.60909 0.01 0.00412933)
(1.62727 0.01 0.00409745)
(1.64546 0.01 0.00405902)
(1.66364 0.01 0.00403213)
(1.68182 0.01 0.00401201)
(1.7 0.01 0.00397719)
(1.71818 0.01 0.00394144)
(1.73636 0.01 0.00390944)
(1.75455 0.01 0.00387301)
(1.77273 0.01 0.00384499)
(1.79091 0.01 0.00382045)
(1.80909 0.01 0.00378385)
(1.82727 0.01 0.00374463)
(1.84546 0.01 0.00371273)
(1.86364 0.01 0.00368401)
(1.88182 0.01 0.00365658)
(1.9 0.01 0.00363036)
(1.91818 0.01 0.00359452)
(1.93636 0.01 0.00354847)
(1.95454 0.01 0.00351477)
(1.97273 0.01 0.00349172)
(1.99091 0.01 0.00345891)
(2.00909 0.01 0.00342874)
(2.02727 0.01 0.00339624)
(2.04546 0.01 0.00335021)
(2.06364 0.01 0.00331819)
(2.08182 0.01 0.00330787)
(2.1 0.01 0.00328674)
(2.11818 0.01 0.00326212)
(2.13636 0.01 0.0032363)
(2.15454 0.01 0.0032041)
(2.17273 0.01 0.00318375)
(2.19091 0.01 0.00318693)
(2.2091 0.01 0.00318504)
(2.22727 0.01 0.00326135)
(2.24546 0.01 0.00344116)
(2.26364 0.01 0.00360796)
(2.28182 0.01 0.00375813)
(2.3 0.01 0.0038956)
(2.31818 0.01 0.00402351)
(2.33636 0.01 0.00414133)
(2.35454 0.01 0.00424834)
(2.37273 0.01 0.00434351)
(2.39091 0.01 0.00442577)
(2.40909 0.01 0.00449438)
(2.42727 0.01 0.00454842)
(2.44546 0.01 0.00458713)
(2.46364 0.01 0.00461386)
(2.48182 0.01 0.00461813)
(2.5 0.01 0.00460144)
(2.51818 0.01 0.00461539)
(2.53636 0.01 0.0046521)
(2.55455 0.01 0.0046764)
(2.57273 0.01 0.00473318)
(2.59091 0.01 0.00482171)
(2.60909 0.01 0.00490254)
(2.62727 0.01 0.00497621)
(2.64545 0.01 0.0050455)
(2.66364 0.01 0.00511042)
(2.68182 0.01 0.00516972)
(2.7 0.01 0.00522262)
(2.71818 0.01 0.00526854)
(2.73636 0.01 0.00530815)
(2.75454 0.01 0.00534112)
(2.77273 0.01 0.00537)
(2.79091 0.01 0.00539182)
(2.80909 0.01 0.00541242)
(2.82727 0.01 0.00542409)
(2.84545 0.01 0.00543956)
(2.86364 0.01 0.00544189)
(2.88181 0.01 0.00544223)
(2.90001 0.01 0.00542139)
(2.91817 0.01 0.005388)
(2.93637 0.01 0.00533755)
(2.95454 0.01 0.00527359)
(2.97274 0.01 0.00520039)
(2.9909 0.01 0.00511624)
(3.0091 0.01 0.00501986)
(3.02726 0.01 0.00489825)
(3.04546 0.01 0.00473228)
(3.06363 0.01 0.00449804)
(3.08184 0.01 0.00416238)
(3.09999 0.01 0.00389105)
(3.11818 0.01 0.00383382)
(3.13636 0.01 0.00379628)
(3.15454 0.01 0.00374903)
(3.17273 0.01 0.00370534)
(3.19091 0.01 0.00366292)
(3.20909 0.01 0.00362608)
(3.22727 0.01 0.00359186)
(3.24546 0.01 0.00356289)
(3.26364 0.01 0.00353635)
(3.28182 0.01 0.00351429)
(3.3 0.01 0.00349422)
(3.31818 0.01 0.0034778)
(3.33636 0.01 0.00346291)
(3.35455 0.01 0.00345106)
(3.37273 0.01 0.00344034)
(3.39091 0.01 0.00343207)
(3.40909 0.01 0.00342457)
(3.42727 0.01 0.0034191)
(3.44545 0.01 0.00341438)
(3.46364 0.01 0.0034114)
(3.48182 0.01 0.00340903)
(3.5 0.01 0.00340837)
(3.51818 0.01 0.00340875)
(3.53636 0.01 0.00341026)
(3.55454 0.01 0.00341273)
(3.57273 0.01 0.00341586)
(3.59091 0.01 0.00341955)
(3.60909 0.01 0.00342361)
(3.62727 0.01 0.00342798)
(3.64546 0.01 0.00343261)
(3.66364 0.01 0.00343749)
(3.68182 0.01 0.00344249)
(3.7 0.01 0.00344747)
(3.71818 0.01 0.00345247)
(3.73636 0.01 0.00345751)
(3.75455 0.01 0.00346249)
(3.77273 0.01 0.00346745)
(3.79091 0.01 0.00347247)
(3.80909 0.01 0.00347745)
(3.82727 0.01 0.00348234)
(3.84545 0.01 0.00348704)
(3.86364 0.01 0.00349161)
(3.88182 0.01 0.00349595)
(3.9 0.01 0.00350006)
(3.91818 0.01 0.00350403)
(3.93636 0.01 0.00350767)
(3.95454 0.01 0.00351093)
(3.97273 0.01 0.00351393)
(3.99091 0.01 0.00351666)
(4.00909 0.01 0.00351914)
(4.02727 0.01 0.00352141)
(4.04546 0.01 0.00352333)
(4.06364 0.01 0.00352504)
(4.08182 0.01 0.00352661)
(4.1 0.01 0.0035282)
(4.11818 0.01 0.00352953)
(4.13636 0.01 0.00353096)
(4.15455 0.01 0.00353213)
(4.17273 0.01 0.00353345)
(4.19091 0.01 0.00353436)
(4.20909 0.01 0.00353527)
(4.22727 0.01 0.00353573)
(4.24545 0.01 0.00353608)
(4.26364 0.01 0.00353588)
(4.28182 0.01 0.00353562)
(4.3 0.01 0.00353488)
(4.31818 0.01 0.00353395)
(4.33636 0.01 0.00353268)
(4.35454 0.01 0.00353134)
(4.37273 0.01 0.00352978)
(4.39091 0.01 0.00352814)
(4.40909 0.01 0.00352633)
(4.42727 0.01 0.00352469)
(4.44546 0.01 0.00352265)
(4.46364 0.01 0.00352065)
(4.48182 0.01 0.00351818)
(4.5 0.01 0.00351574)
(4.51818 0.01 0.00351273)
(4.53636 0.01 0.00350978)
(4.55455 0.01 0.00350611)
(4.57273 0.01 0.00350247)
(4.59091 0.01 0.003498)
(4.60909 0.01 0.00349355)
(4.62727 0.01 0.00348814)
(4.64545 0.01 0.00348279)
(4.66364 0.01 0.00347637)
(4.68182 0.01 0.00346984)
(4.7 0.01 0.00346202)
(4.71818 0.01 0.00345404)
(4.73636 0.01 0.00344498)
(4.75454 0.01 0.003436)
(4.77273 0.01 0.00342576)
(4.79091 0.01 0.00341544)
(4.80909 0.01 0.00340379)
(4.82727 0.01 0.00339214)
(4.84546 0.01 0.0033792)
(4.86364 0.01 0.00336624)
(4.88182 0.01 0.00335192)
(4.9 0.01 0.00333764)
(4.91818 0.01 0.00332186)
(4.93636 0.01 0.00330614)
(4.95455 0.01 0.00328869)
(4.97273 0.01 0.00327089)
(4.99091 0.01 0.00325143)
(5.00909 0.01 0.00323138)
(5.02727 0.01 0.00320974)
(5.04545 0.01 0.00318701)
(5.06364 0.01 0.00316324)
(5.08182 0.01 0.00313803)
(5.1 0.01 0.00311259)
(5.11818 0.01 0.00308536)
(5.13636 0.01 0.00305838)
(5.15454 0.01 0.00302946)
(5.17273 0.01 0.00300148)
(5.19091 0.01 0.0029719)
(5.20909 0.01 0.00294292)
(5.22727 0.01 0.00291236)
(5.24546 0.01 0.00288214)
(5.26364 0.01 0.00285055)
(5.28182 0.01 0.00281937)
(5.3 0.01 0.00278691)
(5.31818 0.01 0.00275472)
(5.33636 0.01 0.00272143)
(5.35455 0.01 0.0026883)
(5.37273 0.01 0.0026543)
(5.39091 0.01 0.0026205)
(5.40909 0.01 0.00258592)
(5.42727 0.01 0.00255154)
(5.44545 0.01 0.00251647)
(5.46364 0.01 0.00248152)
(5.48182 0.01 0.002446)
(5.5 0.01 0.00241062)
(5.51818 0.01 0.00237489)
(5.53636 0.01 0.00233935)
(5.55454 0.01 0.00230353)
(5.57273 0.01 0.00226787)
(5.59091 0.01 0.00223202)
(5.60909 0.01 0.00219642)
(5.62727 0.01 0.00216087)
(5.64546 0.01 0.00212567)
(5.66364 0.01 0.00209062)
(5.68182 0.01 0.00205606)
(5.7 0.01 0.00202169)
(5.71818 0.01 0.00198798)
(5.73636 0.01 0.00195475)
(5.75455 0.01 0.00192219)
(5.77273 0.01 0.00189013)
(5.79091 0.01 0.00185883)
(5.80909 0.01 0.0018281)
(5.82727 0.01 0.00179802)
(5.84545 0.01 0.00176852)
(5.86364 0.01 0.00173982)
(5.88182 0.01 0.0017117)
(5.9 0.01 0.00168421)
(5.91818 0.01 0.00165727)
(5.93636 0.01 0.00163098)
(5.95454 0.01 0.00160535)
(5.97273 0.01 0.00158046)
(5.99091 0.01 0.00155614)
(6.00909 0.01 0.00153248)
(6.02727 0.01 0.00150953)
(6.04546 0.01 0.00148737)
(6.06364 0.01 0.00146589)
(6.08182 0.01 0.00144522)
(6.1 0.01 0.00142545)
(6.11818 0.01 0.00140654)
(6.13636 0.01 0.00138849)
(6.15455 0.01 0.00137144)
(6.17273 0.01 0.00135536)
(6.19091 0.01 0.00134031)
(6.20909 0.01 0.00132633)
(6.22727 0.01 0.00131347)
(6.24545 0.01 0.00130178)
(6.26364 0.01 0.0012913)
(6.28182 0.01 0.00128198)
(6.3 0.01 0.00127386)
(6.31818 0.01 0.00126703)
(6.33636 0.01 0.0012616)
(6.35455 0.01 0.00125761)
(6.37273 0.01 0.00125516)
(6.39091 0.01 0.00125465)
(6.40909 0.01 0.0012564)
(6.42727 0.01 0.00126006)
(6.44545 0.01 0.00126524)
(6.46364 0.01 0.00127171)
(6.48182 0.01 0.00127932)
(6.5 0.01 0.00128799)
(6.51818 0.01 0.00129763)
(6.53636 0.01 0.0013082)
(6.55454 0.01 0.00131965)
(6.57273 0.01 0.00133191)
(6.59091 0.01 0.00134496)
(6.60909 0.01 0.00135875)
(6.62727 0.01 0.00137319)
(6.64545 0.01 0.00138829)
(6.66364 0.01 0.001404)
(6.68182 0.01 0.00142027)
(6.7 0.01 0.00143706)
(6.71818 0.01 0.00145436)
(6.73636 0.01 0.00147211)
(6.75455 0.01 0.00149017)
(6.77273 0.01 0.0015085)
(6.79091 0.01 0.00152702)
(6.80909 0.01 0.0015457)
(6.82727 0.01 0.00156455)
(6.84545 0.01 0.00158347)
(6.86364 0.01 0.00160238)
(6.88182 0.01 0.00162127)
(6.9 0.01 0.00164011)
(6.91818 0.01 0.0016588)
(6.93636 0.01 0.00167733)
(6.95455 0.01 0.00169562)
(6.97273 0.01 0.00171362)
(6.99091 0.01 0.00173138)
(7.00909 0.01 0.00174884)
(7.02727 0.01 0.00176593)
(7.04546 0.01 0.00178269)
(7.06364 0.01 0.00179917)
(7.08182 0.01 0.00181539)
(7.1 0.01 0.00183125)
(7.11818 0.01 0.00184672)
(7.13636 0.01 0.00186191)
(7.15454 0.01 0.00187684)
(7.17273 0.01 0.00189148)
(7.19091 0.01 0.00190579)
(7.20909 0.01 0.00191976)
(7.22727 0.01 0.00193345)
(7.24546 0.01 0.00194681)
(7.26364 0.01 0.00195988)
(7.28182 0.01 0.0019726)
(7.3 0.01 0.00198499)
(7.31818 0.01 0.00199706)
(7.33636 0.01 0.00200878)
(7.35454 0.01 0.00202022)
(7.37273 0.01 0.00203138)
(7.39091 0.01 0.00204216)
(7.40909 0.01 0.00205258)
(7.42727 0.01 0.0020627)
(7.44545 0.01 0.00207243)
(7.46364 0.01 0.00208175)
(7.48182 0.01 0.00209074)
(7.5 0.01 0.00209945)
(7.51818 0.01 0.00210775)
(7.53636 0.01 0.00211561)
(7.55454 0.01 0.00212319)
(7.57273 0.01 0.00213055)
(7.59091 0.01 0.00213754)
(7.60909 0.01 0.00214416)
(7.62727 0.01 0.00215044)
(7.64546 0.01 0.0021564)
(7.66364 0.01 0.00216205)
(7.68182 0.01 0.00216729)
(7.7 0.01 0.00217228)
(7.71818 0.01 0.00217704)
(7.73636 0.01 0.00218145)
(7.75455 0.01 0.00218551)
(7.77273 0.01 0.00218924)
(7.79091 0.01 0.00219265)
(7.80909 0.01 0.00219576)
(7.82727 0.01 0.00219861)
(7.84545 0.01 0.00220123)
(7.86364 0.01 0.00220363)
(7.88182 0.01 0.00220585)
(7.9 0.01 0.00220794)
(7.91818 0.01 0.00220991)
(7.93636 0.01 0.00221182)
(7.95455 0.01 0.00221368)
(7.97273 0.01 0.00221556)
(7.99091 0.01 0.00221746)
(8.00909 0.01 0.0022193)
(8.02727 0.01 0.00222109)
(8.04545 0.01 0.00222301)
(8.06364 0.01 0.00222507)
(8.08182 0.01 0.00222718)
(8.1 0.01 0.00222938)
(8.11818 0.01 0.0022318)
(8.13636 0.01 0.00223448)
(8.15454 0.01 0.00223743)
(8.17273 0.01 0.00224063)
(8.19091 0.01 0.00224413)
(8.20909 0.01 0.0022479)
(8.22727 0.01 0.00225178)
(8.24546 0.01 0.00225577)
(8.26364 0.01 0.00225999)
(8.28182 0.01 0.00226439)
(8.3 0.01 0.00226897)
(8.31818 0.01 0.00227376)
(8.33636 0.01 0.0022787)
(8.35455 0.01 0.0022838)
(8.37273 0.01 0.00228907)
(8.39091 0.01 0.00229448)
(8.40909 0.01 0.00230003)
(8.42727 0.01 0.00230573)
(8.44545 0.01 0.00231162)
(8.46364 0.01 0.00231771)
(8.48182 0.01 0.00232401)
(8.5 0.01 0.00233055)
(8.51818 0.01 0.00233736)
(8.53636 0.01 0.00234448)
(8.55455 0.01 0.00235193)
(8.57273 0.01 0.0023597)
(8.59091 0.01 0.00236777)
(8.60909 0.01 0.00237618)
(8.62727 0.01 0.00238489)
(8.64545 0.01 0.0023939)
(8.66364 0.01 0.00240338)
(8.68182 0.01 0.00241326)
(8.7 0.01 0.00242337)
(8.71818 0.01 0.00243388)
(8.73636 0.01 0.00244472)
(8.75455 0.01 0.00245574)
(8.77273 0.01 0.00246707)
(8.79091 0.01 0.00247869)
(8.80909 0.01 0.00249064)
(8.82727 0.01 0.0025029)
(8.84546 0.01 0.00251547)
(8.86364 0.01 0.00252835)
(8.88182 0.01 0.0025415)
(8.9 0.01 0.00255496)
(8.91818 0.01 0.00256872)
(8.93636 0.01 0.0025828)
(8.95454 0.01 0.00259724)
(8.97273 0.01 0.00261206)
(8.99091 0.01 0.00262726)
(9.00909 0.01 0.00264283)
(9.02727 0.01 0.00265881)
(9.04545 0.01 0.00267536)
(9.06364 0.01 0.00269226)
(9.08182 0.01 0.00270948)
(9.1 0.01 0.00272719)
(9.11818 0.01 0.00274535)
(9.13636 0.01 0.00276391)
(9.15455 0.01 0.00278289)
(9.17273 0.01 0.00280223)
(9.19091 0.01 0.00282169)
(9.20909 0.01 0.0028413)
(9.22727 0.01 0.00286125)
(9.24546 0.01 0.0028816)
(9.26364 0.01 0.00290237)
(9.28182 0.01 0.00292366)
(9.3 0.01 0.00294527)
(9.31818 0.01 0.00296731)
(9.33636 0.01 0.00298979)
(9.35454 0.01 0.00301274)
(9.37273 0.01 0.00303629)
(9.39091 0.01 0.00305997)
(9.40909 0.01 0.00308502)
(9.42727 0.01 0.00310965)
(9.44545 0.01 0.00313765)
(9.46364 0.01 0.00316304)
(9.48182 0.01 0.00319732)
(9.5 0.01 0.00322238)
(9.51817 0.01 0.00326246)
(9.53637 0.01 0.00328183)
(9.55453 0.01 0.00331381)
(9.57274 0.01 0.00331027)
(9.59089 0.01 0.00330957)
(9.60911 0.01 0.00325701)
(9.62725 0.01 0.00318701)
(9.64548 0.01 0.00305077)
(9.66361 0.01 0.00286321)
(9.68184 0.01 0.00260549)
(9.69997 0.01 0.00224936)
(9.7182 0.01 0.00176915)
(9.73633 0.01 0.00108135)
(9.75456 0.01 6.46514e-05)
(9.7727 0.01 -0.00151792)
(9.79094 0.01 -0.00414906)
(9.80927 0.01 -0.00861743)
(9.82712 0.01 -0.0116906)
(9.84544 0.01 -0.012168)
(9.86364 0.01 -0.0122196)
(9.88182 0.01 -0.0122605)
(9.9 0.01 -0.0122984)
(9.91818 0.01 -0.0123355)
(9.93636 0.01 -0.0123722)
(9.95454 0.01 -0.0124088)
(9.97273 0.01 -0.0124453)
(9.99091 0.01 -0.0124818)
(0.00909089 0.01 0.0124818)
(0.0272727 0.01 0.0124455)
(0.0454545 0.01 0.0124091)
(0.0636364 0.01 0.0123727)
(0.0818182 0.01 0.0123364)
(0.1 0.01 0.0123)
(0.118182 0.01 0.0122636)
(0.136364 0.01 0.0122273)
(0.154545 0.01 0.0121908)
(0.172727 0.01 0.0121538)
(0.190909 0.01 0.012114)
(0.209091 0.01 0.0120748)
(0.227273 0.01 0.0120406)
(0.245455 0.01 0.0120049)
(0.263636 0.01 0.011967)