/*--------------------------------*- C++ -*----------------------------------*\
| =========                 |                                                 |
| \\      /  F ield         | foam-extend: Open Source CFD                    |
|  \\    /   O peration     | Version:     3.2                                |
|   \\  /    A nd           | Web:         http://www.foam-extend.org         |
|    \\/     M anipulation  | For copyright notice see file Copyright         |
\*---------------------------------------------------------------------------*/
FoamFile
{
    version     2.0;
    format      ascii;
    class       volScalarField;
    location    "1440";
    object      nut;
}
// * * * * * * * * * * * * * * * * * * * * * * * * * * * * * * * * * * * * * //

dimensions      [0 2 -1 0 0 0 0];

internalField   nonuniform List<scalar> 
33000
(
6.25837e-06
7.61068e-06
9.0076e-06
1.04185e-05
1.18079e-05
1.31406e-05
1.43873e-05
1.55222e-05
1.653e-05
1.73986e-05
1.81285e-05
1.8722e-05
1.91854e-05
1.95337e-05
1.97799e-05
1.99318e-05
2.00078e-05
2.00208e-05
1.98702e-05
1.91153e-05
1.8408e-05
1.77141e-05
1.70836e-05
1.65003e-05
1.59574e-05
1.54694e-05
1.50232e-05
1.4634e-05
1.42791e-05
1.39508e-05
1.36573e-05
1.33825e-05
1.31399e-05
1.2918e-05
1.27195e-05
1.25435e-05
1.2382e-05
1.22367e-05
1.21202e-05
1.20028e-05
1.19057e-05
1.18274e-05
1.17528e-05
1.16868e-05
1.16386e-05
1.15929e-05
1.15601e-05
1.15325e-05
1.15143e-05
1.15064e-05
1.1503e-05
1.15001e-05
1.15078e-05
1.15188e-05
1.15329e-05
1.15554e-05
1.15721e-05
1.16062e-05
1.16362e-05
1.16603e-05
1.17135e-05
1.17075e-05
1.17759e-05
1.17979e-05
1.18604e-05
1.1838e-05
1.18652e-05
1.19285e-05
1.19823e-05
1.19606e-05
1.19491e-05
1.20308e-05
1.21382e-05
1.21612e-05
1.20779e-05
1.20746e-05
1.20699e-05
1.2065e-05
1.20749e-05
1.21878e-05
1.22402e-05
1.21283e-05
1.20442e-05
1.21016e-05
1.2115e-05
1.21828e-05
1.21935e-05
1.22085e-05
1.21932e-05
1.22761e-05
1.22905e-05
1.2299e-05
1.23281e-05
1.23284e-05
1.23806e-05
1.24509e-05
1.24401e-05
1.24496e-05
1.24587e-05
1.25036e-05
1.25047e-05
1.25554e-05
1.25584e-05
1.25814e-05
1.25637e-05
1.26372e-05
1.27747e-05
1.2877e-05
1.27526e-05
1.26917e-05
1.27551e-05
1.28498e-05
1.28433e-05
1.28645e-05
1.29394e-05
1.29203e-05
1.29869e-05
1.29914e-05
1.29929e-05
1.29819e-05
1.31374e-05
1.2899e-05
1.28008e-05
1.31408e-05
1.32541e-05
1.33521e-05
1.34383e-05
1.34854e-05
1.35613e-05
1.35945e-05
1.36455e-05
1.3687e-05
1.37131e-05
1.37553e-05
1.37466e-05
1.38216e-05
1.37409e-05
1.36668e-05
1.36522e-05
1.37609e-05
1.36045e-05
1.36183e-05
1.37193e-05
1.37328e-05
1.37433e-05
1.37721e-05
1.37908e-05
1.38058e-05
1.38132e-05
1.38212e-05
1.3815e-05
1.38152e-05
1.38384e-05
1.37938e-05
1.38424e-05
1.37596e-05
1.38429e-05
1.3747e-05
1.38288e-05
1.37572e-05
1.37766e-05
1.37244e-05
1.36955e-05
1.36558e-05
1.36333e-05
1.36218e-05
1.36902e-05
1.35995e-05
1.39158e-05
1.31345e-05
1.24914e-05
1.29543e-05
1.28734e-05
1.28694e-05
1.28576e-05
1.28394e-05
1.28481e-05
1.28362e-05
1.28539e-05
1.28496e-05
1.2872e-05
1.28738e-05
1.28989e-05
1.29047e-05
1.29315e-05
1.29401e-05
1.29667e-05
1.29766e-05
1.30023e-05
1.30143e-05
1.30382e-05
1.30444e-05
1.30746e-05
1.30874e-05
1.31135e-05
1.31319e-05
1.31533e-05
1.31737e-05
1.31951e-05
1.32121e-05
1.32328e-05
1.32484e-05
1.32681e-05
1.32812e-05
1.33004e-05
1.33135e-05
1.33311e-05
1.3343e-05
1.33588e-05
1.33707e-05
1.33852e-05
1.33958e-05
1.341e-05
1.34199e-05
1.34329e-05
1.34438e-05
1.34554e-05
1.34641e-05
1.34755e-05
1.34843e-05
1.34946e-05
1.35045e-05
1.35132e-05
1.35227e-05
1.35307e-05
1.35421e-05
1.35485e-05
1.35608e-05
1.35667e-05
1.35798e-05
1.35853e-05
1.35978e-05
1.36035e-05
1.3616e-05
1.36214e-05
1.36335e-05
1.36398e-05
1.36509e-05
1.36575e-05
1.3668e-05
1.36749e-05
1.36852e-05
1.36906e-05
1.37023e-05
1.37067e-05
1.37185e-05
1.37218e-05
1.37341e-05
1.37364e-05
1.37494e-05
1.37506e-05
1.37641e-05
1.37641e-05
1.37781e-05
1.37772e-05
1.37917e-05
1.37899e-05
1.38046e-05
1.38016e-05
1.38154e-05
1.38115e-05
1.38266e-05
1.38219e-05
1.38367e-05
1.38309e-05
1.38455e-05
1.38391e-05
1.38541e-05
1.38465e-05
1.38624e-05
1.38536e-05
1.38699e-05
1.38619e-05
1.38759e-05
1.38692e-05
1.38801e-05
1.38768e-05
1.38814e-05
1.38829e-05
1.38806e-05
1.38878e-05
1.38801e-05
1.38915e-05
1.38797e-05
1.3893e-05
1.38831e-05
1.38954e-05
1.38871e-05
1.38977e-05
1.38904e-05
1.39005e-05
1.38943e-05
1.39032e-05
1.38981e-05
1.39056e-05
1.39014e-05
1.39082e-05
1.39046e-05
1.3911e-05
1.39083e-05
1.39138e-05
1.39114e-05
1.39157e-05
1.39142e-05
1.39183e-05
1.39173e-05
1.39209e-05
1.39202e-05
1.39233e-05
1.39233e-05
1.39269e-05
1.39271e-05
1.39314e-05
1.39295e-05
1.3937e-05
1.39359e-05
1.39449e-05
1.39446e-05
1.39543e-05
1.39552e-05
1.39645e-05
1.39658e-05
1.3975e-05
1.39776e-05
1.39857e-05
1.39884e-05
1.39962e-05
1.3999e-05
1.40069e-05
1.40101e-05
1.40172e-05
1.40209e-05
1.40273e-05
1.40317e-05
1.40366e-05
1.40434e-05
1.40471e-05
1.40552e-05
1.40578e-05
1.40675e-05
1.40702e-05
1.40794e-05
1.40833e-05
1.40924e-05
1.40977e-05
1.41065e-05
1.4112e-05
1.41204e-05
1.41265e-05
1.41345e-05
1.414e-05
1.4152e-05
1.41638e-05
1.4175e-05
1.4184e-05
1.41878e-05
1.41917e-05
1.41957e-05
1.41999e-05
1.42041e-05
1.42085e-05
1.4213e-05
1.42175e-05
1.42221e-05
1.42266e-05
1.42312e-05
1.42357e-05
1.42403e-05
1.42449e-05
1.42495e-05
1.42542e-05
1.42587e-05
1.42632e-05
1.42675e-05
1.42718e-05
1.42762e-05
1.42803e-05
1.42843e-05
1.4288e-05
1.42918e-05
1.42955e-05
1.42991e-05
1.43026e-05
1.43058e-05
1.4309e-05
1.43121e-05
1.4315e-05
1.43177e-05
1.43204e-05
1.4323e-05
1.43256e-05
1.43279e-05
1.43301e-05
1.43324e-05
1.43346e-05
1.43366e-05
1.43385e-05
1.43404e-05
1.43423e-05
1.43441e-05
1.43458e-05
1.43472e-05
1.43485e-05
1.43498e-05
1.43508e-05
1.43517e-05
1.43525e-05
1.43531e-05
1.43537e-05
1.43541e-05
1.43543e-05
1.43543e-05
1.43543e-05
1.43534e-05
1.4349e-05
1.43456e-05
1.4342e-05
1.43391e-05
1.43351e-05
1.43322e-05
1.43287e-05
1.43244e-05
1.43213e-05
1.43182e-05
1.43156e-05
1.43124e-05
1.43096e-05
1.4306e-05
1.43029e-05
1.42991e-05
1.42957e-05
1.42924e-05
1.42886e-05
1.42855e-05
1.42819e-05
1.42787e-05
1.42754e-05
1.42725e-05
1.42699e-05
1.42677e-05
1.4265e-05
1.42623e-05
1.42602e-05
1.42587e-05
1.42569e-05
1.42549e-05
1.42538e-05
1.42526e-05
1.4252e-05
1.42505e-05
1.42515e-05
1.42508e-05
1.42513e-05
1.42512e-05
1.42528e-05
1.42527e-05
1.42548e-05
1.4255e-05
1.42569e-05
1.42575e-05
1.42593e-05
1.42603e-05
1.42625e-05
1.42637e-05
1.42665e-05
1.42675e-05
1.4271e-05
1.42719e-05
1.42763e-05
1.42775e-05
1.42826e-05
1.42841e-05
1.42895e-05
1.42922e-05
1.42975e-05
1.43015e-05
1.43083e-05
1.43127e-05
1.43191e-05
1.43251e-05
1.43311e-05
1.4337e-05
1.43439e-05
1.435e-05
1.43577e-05
1.4364e-05
1.43723e-05
1.43782e-05
1.43862e-05
1.43917e-05
1.43996e-05
1.44049e-05
1.44133e-05
1.44184e-05
1.44275e-05
1.4432e-05
1.44422e-05
1.4447e-05
1.44568e-05
1.44612e-05
1.44723e-05
1.44761e-05
1.44881e-05
1.44916e-05
1.45045e-05
1.45061e-05
1.45146e-05
1.45196e-05
1.45246e-05
1.45296e-05
1.45344e-05
1.45394e-05
1.45441e-05
1.45489e-05
1.45534e-05
1.45586e-05
1.45613e-05
1.45681e-05
1.45591e-05
1.4578e-05
1.45377e-05
1.45883e-05
1.45131e-05
1.46002e-05
1.45194e-05
1.46143e-05
1.45435e-05
1.46263e-05
1.4584e-05
1.4629e-05
1.46259e-05
1.46134e-05
1.45918e-05
1.45576e-05
1.45167e-05
1.44413e-05
1.43085e-05
1.40479e-05
1.13659e-05
7.18131e-06
7.19089e-06
5.55123e-06
4.89866e-06
4.44812e-06
6.02623e-06
5.26738e-06
4.40651e-06
4.60695e-06
6.14565e-06
2.70764e-05
5.22353e-05
3.12886e-05
2.24125e-05
1.78103e-05
1.51135e-05
1.34989e-05
1.24867e-05
1.18492e-05
1.14631e-05
1.12595e-05
1.11901e-05
1.11983e-05
1.12773e-05
1.14035e-05
1.15668e-05
1.1769e-05
1.20114e-05
1.23044e-05
1.26511e-05
1.30499e-05
1.35211e-05
1.40623e-05
1.46432e-05
1.52765e-05
1.5975e-05
1.67511e-05
1.76061e-05
1.83182e-05
1.87666e-05
1.92048e-05
1.96474e-05
2.00767e-05
2.05057e-05
2.09277e-05
2.13422e-05
2.17513e-05
2.21495e-05
2.25292e-05
2.29187e-05
2.32835e-05
2.36407e-05
2.39976e-05
2.43439e-05
2.46703e-05
2.50066e-05
2.53235e-05
2.56479e-05
2.59541e-05
2.6267e-05
2.65677e-05
2.68747e-05
2.71524e-05
2.74429e-05
2.77155e-05
2.79894e-05
2.82501e-05
2.85083e-05
2.87493e-05
2.90255e-05
2.92119e-05
2.95104e-05
2.96149e-05
2.99003e-05
3.01139e-05
3.0436e-05
3.04009e-05
3.05879e-05
3.08262e-05
3.1179e-05
3.11076e-05
3.10961e-05
3.13867e-05
3.18165e-05
3.21074e-05
3.18981e-05
3.18492e-05
3.19381e-05
3.19106e-05
3.20322e-05
3.23834e-05
3.28543e-05
3.24002e-05
3.21598e-05
3.22311e-05
3.2396e-05
3.26257e-05
3.27163e-05
3.27158e-05
3.2734e-05
3.29081e-05
3.30568e-05
3.30966e-05
3.3197e-05
3.31847e-05
3.3252e-05
3.34629e-05
3.35736e-05
3.35654e-05
3.36199e-05
3.36932e-05
3.3707e-05
3.38309e-05
3.38787e-05
3.39375e-05
3.37702e-05
3.38135e-05
3.42621e-05
3.48545e-05
3.43078e-05
3.40915e-05
3.4153e-05
3.43508e-05
3.42812e-05
3.42931e-05
3.45471e-05
3.44665e-05
3.45467e-05
3.45282e-05
3.44621e-05
3.44543e-05
3.47257e-05
3.42348e-05
3.42445e-05
3.4911e-05
3.49292e-05
3.50255e-05
3.50652e-05
3.50772e-05
3.50812e-05
3.50828e-05
3.50699e-05
3.50898e-05
3.50411e-05
3.50789e-05
3.49501e-05
3.50758e-05
3.49026e-05
3.46439e-05
3.47134e-05
3.49377e-05
3.45559e-05
3.46849e-05
3.48861e-05
3.4856e-05
3.48538e-05
3.48739e-05
3.48829e-05
3.48869e-05
3.48768e-05
3.48702e-05
3.48541e-05
3.48369e-05
3.48897e-05
3.47816e-05
3.49015e-05
3.47303e-05
3.48957e-05
3.47302e-05
3.48878e-05
3.47604e-05
3.48056e-05
3.47349e-05
3.47028e-05
3.46769e-05
3.46651e-05
3.46842e-05
3.48841e-05
3.46797e-05
3.45287e-05
3.37358e-05
3.27258e-05
3.40694e-05
3.39782e-05
3.41014e-05
3.41595e-05
3.42012e-05
3.42807e-05
3.4315e-05
3.43972e-05
3.44326e-05
3.45128e-05
3.45497e-05
3.46263e-05
3.46629e-05
3.47358e-05
3.47687e-05
3.48399e-05
3.48571e-05
3.49371e-05
3.49538e-05
3.50236e-05
3.50572e-05
3.51097e-05
3.51623e-05
3.52028e-05
3.52588e-05
3.52928e-05
3.53463e-05
3.53792e-05
3.5425e-05
3.54576e-05
3.54991e-05
3.55316e-05
3.5569e-05
3.5601e-05
3.56379e-05
3.56697e-05
3.57037e-05
3.57363e-05
3.57697e-05
3.58026e-05
3.58351e-05
3.58686e-05
3.59012e-05
3.59342e-05
3.59699e-05
3.60033e-05
3.60349e-05
3.607e-05
3.61035e-05
3.61388e-05
3.61744e-05
3.6209e-05
3.62425e-05
3.62786e-05
3.63173e-05
3.63471e-05
3.63897e-05
3.64176e-05
3.64619e-05
3.64896e-05
3.6532e-05
3.65616e-05
3.66043e-05
3.66342e-05
3.66771e-05
3.67094e-05
3.6751e-05
3.67852e-05
3.68218e-05
3.68549e-05
3.6877e-05
3.69109e-05
3.69326e-05
3.69672e-05
3.69882e-05
3.70238e-05
3.70439e-05
3.70808e-05
3.70997e-05
3.71378e-05
3.7155e-05
3.71942e-05
3.72092e-05
3.72497e-05
3.72627e-05
3.73043e-05
3.73143e-05
3.73568e-05
3.73639e-05
3.74081e-05
3.7413e-05
3.74583e-05
3.74598e-05
3.75063e-05
3.75049e-05
3.7553e-05
3.75485e-05
3.75983e-05
3.75906e-05
3.76422e-05
3.76317e-05
3.76844e-05
3.76705e-05
3.77236e-05
3.77078e-05
3.77601e-05
3.77435e-05
3.77942e-05
3.77797e-05
3.78283e-05
3.78169e-05
3.78625e-05
3.7855e-05
3.78986e-05
3.78959e-05
3.79366e-05
3.79361e-05
3.79739e-05
3.79761e-05
3.80113e-05
3.8014e-05
3.80471e-05
3.80515e-05
3.80807e-05
3.80871e-05
3.81139e-05
3.81211e-05
3.8147e-05
3.81539e-05
3.81778e-05
3.81851e-05
3.82079e-05
3.82166e-05
3.82387e-05
3.82476e-05
3.82688e-05
3.82784e-05
3.83002e-05
3.8311e-05
3.83316e-05
3.83435e-05
3.83622e-05
3.83736e-05
3.83921e-05
3.84047e-05
3.84217e-05
3.84337e-05
3.84498e-05
3.84604e-05
3.84744e-05
3.84844e-05
3.84975e-05
3.85068e-05
3.85185e-05
3.85271e-05
3.85375e-05
3.85471e-05
3.85564e-05
3.85645e-05
3.85732e-05
3.85814e-05
3.85898e-05
3.85976e-05
3.86062e-05
3.86142e-05
3.86227e-05
3.86306e-05
3.86396e-05
3.86474e-05
3.86565e-05
3.86645e-05
3.86736e-05
3.86821e-05
3.86911e-05
3.86993e-05
3.87078e-05
3.87159e-05
3.87245e-05
3.87323e-05
3.87413e-05
3.875e-05
3.8758e-05
3.87653e-05
3.87716e-05
3.87776e-05
3.87824e-05
3.8787e-05
3.87906e-05
3.87938e-05
3.8796e-05
3.87978e-05
3.87986e-05
3.8799e-05
3.87982e-05
3.87968e-05
3.87942e-05
3.87912e-05
3.8787e-05
3.87825e-05
3.87769e-05
3.87706e-05
3.87631e-05
3.87546e-05
3.87452e-05
3.87349e-05
3.87237e-05
3.87117e-05
3.86991e-05
3.8686e-05
3.86724e-05
3.86588e-05
3.86448e-05
3.86308e-05
3.86168e-05
3.8603e-05
3.8589e-05
3.85755e-05
3.85621e-05
3.8549e-05
3.85361e-05
3.85235e-05
3.85117e-05
3.85005e-05
3.849e-05
3.84799e-05
3.84707e-05
3.84619e-05
3.84536e-05
3.84456e-05
3.84375e-05
3.84288e-05
3.84196e-05
3.84099e-05
3.83993e-05
3.8388e-05
3.8376e-05
3.83634e-05
3.83504e-05
3.83368e-05
3.83229e-05
3.83087e-05
3.82946e-05
3.82798e-05
3.82659e-05
3.82531e-05
3.82423e-05
3.82315e-05
3.82227e-05
3.82147e-05
3.82078e-05
3.82018e-05
3.81974e-05
3.8194e-05
3.81917e-05
3.81898e-05
3.81886e-05
3.8188e-05
3.81879e-05
3.81881e-05
3.81887e-05
3.81892e-05
3.81898e-05
3.81903e-05
3.81908e-05
3.81914e-05
3.81923e-05
3.81937e-05
3.81958e-05
3.81976e-05
3.81998e-05
3.82024e-05
3.82058e-05
3.82087e-05
3.82121e-05
3.82161e-05
3.82209e-05
3.82264e-05
3.82325e-05
3.82389e-05
3.82454e-05
3.82519e-05
3.8259e-05
3.82669e-05
3.82752e-05
3.82842e-05
3.82935e-05
3.83035e-05
3.83135e-05
3.83241e-05
3.83345e-05
3.8345e-05
3.83554e-05
3.83662e-05
3.83768e-05
3.83877e-05
3.83984e-05
3.84094e-05
3.84201e-05
3.84311e-05
3.84418e-05
3.84527e-05
3.84635e-05
3.84748e-05
3.84863e-05
3.84993e-05
3.85128e-05
3.85273e-05
3.85431e-05
3.85593e-05
3.85763e-05
3.85941e-05
3.86117e-05
3.86303e-05
3.86488e-05
3.86677e-05
3.86864e-05
3.87056e-05
3.87238e-05
3.87422e-05
3.87592e-05
3.8776e-05
3.87918e-05
3.88079e-05
3.8823e-05
3.88387e-05
3.88541e-05
3.88696e-05
3.88849e-05
3.89008e-05
3.89163e-05
3.89326e-05
3.89483e-05
3.89649e-05
3.89798e-05
3.89955e-05
3.90097e-05
3.90246e-05
3.90378e-05
3.90516e-05
3.90627e-05
3.90753e-05
3.90849e-05
3.90955e-05
3.9106e-05
3.91107e-05
3.9124e-05
3.91204e-05
3.91427e-05
3.91153e-05
3.91647e-05
3.9097e-05
3.91951e-05
3.90737e-05
3.92229e-05
3.90149e-05
3.92084e-05
3.89014e-05
3.91171e-05
3.87285e-05
3.89247e-05
3.85019e-05
3.86509e-05
3.81671e-05
3.80851e-05
3.71397e-05
3.60486e-05
3.30677e-05
2.75736e-05
2.33267e-05
2.09594e-05
2.56463e-05
2.21874e-05
2.1695e-05
1.8127e-05
1.89793e-05
2.1239e-05
1.64635e-05
1.84543e-05
2.29304e-05
0.000149369
0.00011379
7.79567e-05
6.77707e-05
5.44968e-05
4.44772e-05
3.65793e-05
3.07637e-05
2.64737e-05
2.32861e-05
2.08565e-05
1.89856e-05
1.74786e-05
1.62819e-05
1.53141e-05
1.45284e-05
1.38937e-05
1.33841e-05
1.29836e-05
1.26777e-05
1.24552e-05
1.23094e-05
1.22355e-05
1.2231e-05
1.2293e-05
1.24241e-05
1.26235e-05
1.28881e-05
1.32133e-05
1.35946e-05
1.40353e-05
1.45317e-05
1.50898e-05
1.56702e-05
1.62653e-05
1.68755e-05
1.75005e-05
1.81393e-05
1.87931e-05
1.94603e-05
2.01427e-05
2.08398e-05
2.15527e-05
2.22843e-05
2.30355e-05
2.3798e-05
2.44263e-05
2.50304e-05
2.56615e-05
2.62632e-05
2.69096e-05
2.75103e-05
2.81513e-05
2.87537e-05
2.93975e-05
2.99848e-05
3.0637e-05
3.11792e-05
3.18698e-05
3.23551e-05
3.30458e-05
3.34482e-05
3.41167e-05
3.47003e-05
3.54589e-05
3.56626e-05
3.62297e-05
3.67397e-05
3.75891e-05
3.7705e-05
3.80656e-05
3.85647e-05
3.97358e-05
4.03264e-05
4.06182e-05
4.05954e-05
4.11536e-05
4.12462e-05
4.16882e-05
4.25032e-05
4.32598e-05
4.34322e-05
4.335e-05
4.33404e-05
4.39488e-05
4.43272e-05
4.48067e-05
4.48854e-05
4.53242e-05
4.56504e-05
4.60865e-05
4.63941e-05
4.67827e-05
4.69887e-05
4.72516e-05
4.75734e-05
4.78155e-05
4.80712e-05
4.8294e-05
4.85174e-05
4.87336e-05
4.89478e-05
4.91379e-05
4.93416e-05
4.95171e-05
4.96957e-05
4.98746e-05
5.0046e-05
5.01857e-05
5.03566e-05
5.04972e-05
5.0624e-05
5.07355e-05
5.08959e-05
5.0988e-05
5.11183e-05
5.11824e-05
5.13082e-05
5.13692e-05
5.15322e-05
5.15185e-05
5.17695e-05
5.20453e-05
5.22844e-05
5.24857e-05
5.26293e-05
5.27501e-05
5.28476e-05
5.29485e-05
5.30275e-05
5.31079e-05
5.31665e-05
5.32266e-05
5.32467e-05
5.32953e-05
5.327e-05
5.3185e-05
5.32176e-05
5.32896e-05
5.33073e-05
5.33995e-05
5.35058e-05
5.36147e-05
5.37023e-05
5.37894e-05
5.38665e-05
5.39452e-05
5.40124e-05
5.40808e-05
5.4133e-05
5.41816e-05
5.42403e-05
5.42701e-05
5.43427e-05
5.43476e-05
5.44474e-05
5.44341e-05
5.45477e-05
5.44877e-05
5.45915e-05
5.4484e-05
5.45792e-05
5.44637e-05
5.45682e-05
5.44721e-05
5.45788e-05
5.44189e-05
5.44155e-05
5.37927e-05
5.3406e-05
5.31841e-05
5.37029e-05
5.39359e-05
5.40885e-05
5.42962e-05
5.44327e-05
5.46324e-05
5.47686e-05
5.49577e-05
5.50937e-05
5.5272e-05
5.54057e-05
5.55728e-05
5.57032e-05
5.58593e-05
5.59864e-05
5.61325e-05
5.62555e-05
5.63941e-05
5.65133e-05
5.66447e-05
5.67581e-05
5.68814e-05
5.69921e-05
5.71098e-05
5.72155e-05
5.73281e-05
5.74291e-05
5.75369e-05
5.76335e-05
5.77376e-05
5.78314e-05
5.79326e-05
5.80239e-05
5.81235e-05
5.82137e-05
5.83129e-05
5.84035e-05
5.8503e-05
5.85944e-05
5.86944e-05
5.87869e-05
5.88873e-05
5.89803e-05
5.90817e-05
5.91759e-05
5.92779e-05
5.93729e-05
5.94754e-05
5.9571e-05
5.96736e-05
5.97683e-05
5.98704e-05
5.99642e-05
6.00657e-05
6.01586e-05
6.02594e-05
6.03513e-05
6.04526e-05
6.05433e-05
6.06441e-05
6.07332e-05
6.08348e-05
6.09222e-05
6.1025e-05
6.11118e-05
6.1216e-05
6.13031e-05
6.14093e-05
6.14981e-05
6.1607e-05
6.1697e-05
6.18089e-05
6.18993e-05
6.20136e-05
6.21029e-05
6.2219e-05
6.23068e-05
6.2425e-05
6.25103e-05
6.26298e-05
6.27117e-05
6.28324e-05
6.29099e-05
6.30322e-05
6.31047e-05
6.3228e-05
6.32939e-05
6.34175e-05
6.34772e-05
6.36018e-05
6.36558e-05
6.37811e-05
6.38277e-05
6.39536e-05
6.39933e-05
6.41214e-05
6.41542e-05
6.42834e-05
6.43092e-05
6.44405e-05
6.44594e-05
6.45916e-05
6.46034e-05
6.47355e-05
6.47417e-05
6.48719e-05
6.48753e-05
6.50014e-05
6.50068e-05
6.51291e-05
6.51394e-05
6.52558e-05
6.52737e-05
6.53853e-05
6.54118e-05
6.55184e-05
6.55498e-05
6.56513e-05
6.56879e-05
6.57853e-05
6.5825e-05
6.59197e-05
6.59622e-05
6.60536e-05
6.60986e-05
6.61852e-05
6.62316e-05
6.63149e-05
6.63616e-05
6.64409e-05
6.64882e-05
6.65653e-05
6.66145e-05
6.66895e-05
6.67396e-05
6.68128e-05
6.68633e-05
6.69359e-05
6.69879e-05
6.70585e-05
6.71108e-05
6.71786e-05
6.72295e-05
6.72958e-05
6.73478e-05
6.74123e-05
6.74651e-05
6.75284e-05
6.75805e-05
6.76411e-05
6.76928e-05
6.77521e-05
6.78029e-05
6.78603e-05
6.79101e-05
6.79657e-05
6.8016e-05
6.80699e-05
6.81182e-05
6.81702e-05
6.82191e-05
6.82697e-05
6.8318e-05
6.8367e-05
6.84147e-05
6.84627e-05
6.85098e-05
6.85571e-05
6.86036e-05
6.86505e-05
6.86965e-05
6.8743e-05
6.87888e-05
6.88344e-05
6.88788e-05
6.89225e-05
6.89654e-05
6.90078e-05
6.90487e-05
6.90899e-05
6.91314e-05
6.91718e-05
6.92104e-05
6.92464e-05
6.92798e-05
6.93101e-05
6.93378e-05
6.93622e-05
6.93839e-05
6.94025e-05
6.94186e-05
6.94314e-05
6.94414e-05
6.9448e-05
6.94517e-05
6.94518e-05
6.94491e-05
6.9443e-05
6.94346e-05
6.94226e-05
6.9408e-05
6.93897e-05
6.93684e-05
6.93437e-05
6.93162e-05
6.92856e-05
6.92525e-05
6.92171e-05
6.91802e-05
6.91419e-05
6.91028e-05
6.90627e-05
6.90223e-05
6.89817e-05
6.89412e-05
6.89003e-05
6.88604e-05
6.88208e-05
6.87821e-05
6.87436e-05
6.87062e-05
6.867e-05
6.86353e-05
6.8602e-05
6.85698e-05
6.85395e-05
6.85101e-05
6.8482e-05
6.84539e-05
6.84257e-05
6.83962e-05
6.83651e-05
6.83321e-05
6.82966e-05
6.82583e-05
6.82178e-05
6.81749e-05
6.81304e-05
6.80839e-05
6.80362e-05
6.79878e-05
6.79392e-05
6.78909e-05
6.78444e-05
6.78003e-05
6.77598e-05
6.7722e-05
6.7688e-05
6.76572e-05
6.76307e-05
6.76056e-05
6.75854e-05
6.75682e-05
6.75542e-05
6.75415e-05
6.75313e-05
6.75223e-05
6.75148e-05
6.75078e-05
6.75019e-05
6.74959e-05
6.74903e-05
6.74844e-05
6.74784e-05
6.74727e-05
6.74675e-05
6.74635e-05
6.7461e-05
6.74589e-05
6.74581e-05
6.74577e-05
6.74588e-05
6.74597e-05
6.74621e-05
6.74658e-05
6.74719e-05
6.748e-05
6.74894e-05
6.75001e-05
6.75126e-05
6.75259e-05
6.75414e-05
6.75591e-05
6.75788e-05
6.76003e-05
6.76237e-05
6.76485e-05
6.76742e-05
6.7701e-05
6.77283e-05
6.77557e-05
6.77834e-05
6.78113e-05
6.78393e-05
6.78674e-05
6.78955e-05
6.79235e-05
6.79514e-05
6.79791e-05
6.80066e-05
6.8034e-05
6.80618e-05
6.80907e-05
6.81209e-05
6.81545e-05
6.81907e-05
6.82299e-05
6.82727e-05
6.83179e-05
6.83655e-05
6.84158e-05
6.84667e-05
6.85196e-05
6.85734e-05
6.86278e-05
6.86822e-05
6.87365e-05
6.87896e-05
6.88415e-05
6.8891e-05
6.89387e-05
6.8985e-05
6.90298e-05
6.90737e-05
6.91171e-05
6.91612e-05
6.92043e-05
6.92484e-05
6.9292e-05
6.93368e-05
6.93814e-05
6.94267e-05
6.94718e-05
6.9516e-05
6.95586e-05
6.96001e-05
6.96388e-05
6.96766e-05
6.97117e-05
6.97431e-05
6.97739e-05
6.98006e-05
6.98226e-05
6.98457e-05
6.9856e-05
6.98769e-05
6.98715e-05
6.99027e-05
6.98586e-05
6.99306e-05
6.98129e-05
6.99699e-05
6.97383e-05
6.99929e-05
6.95871e-05
6.99282e-05
6.93145e-05
6.96972e-05
6.8893e-05
6.92388e-05
6.83306e-05
6.85526e-05
6.751e-05
6.73826e-05
6.55683e-05
6.31981e-05
5.8194e-05
4.67467e-05
3.32588e-05
3.34914e-05
3.68372e-05
3.36542e-05
3.2612e-05
2.90649e-05
2.53943e-05
2.48213e-05
2.70059e-05
2.99146e-05
3.81885e-05
0.000183068
0.000137552
7.51198e-05
7.29373e-05
7.52135e-05
8.2348e-05
9.18179e-05
7.97598e-05
7.0262e-05
6.2572e-05
5.62369e-05
5.10138e-05
4.65259e-05
4.28032e-05
3.96237e-05
3.68644e-05
3.44676e-05
3.23448e-05
3.04335e-05
2.87072e-05
2.7117e-05
2.56606e-05
2.43371e-05
2.31428e-05
2.20787e-05
2.11284e-05
2.02913e-05
1.95544e-05
1.89089e-05
1.83461e-05
1.78574e-05
1.74387e-05
1.70851e-05
1.67941e-05
1.65635e-05
1.63919e-05
1.62773e-05
1.62201e-05
1.62302e-05
1.63087e-05
1.64474e-05
1.66426e-05
1.68923e-05
1.71951e-05
1.7557e-05
1.79745e-05
1.84432e-05
1.89425e-05
1.94743e-05
2.0037e-05
2.06328e-05
2.12584e-05
2.19152e-05
2.25976e-05
2.33064e-05
2.4036e-05
2.47867e-05
2.55516e-05
2.63385e-05
2.71297e-05
2.79053e-05
2.85627e-05
2.91806e-05
3.00115e-05
3.07235e-05
3.12806e-05
3.18379e-05
3.26535e-05
3.35197e-05
3.39813e-05
3.44283e-05
3.54052e-05
3.66621e-05
3.76612e-05
3.82022e-05
3.8599e-05
3.95668e-05
3.99602e-05
4.10606e-05
4.23711e-05
4.39614e-05
4.41021e-05
4.45782e-05
4.5151e-05
4.62284e-05
4.71672e-05
4.8277e-05
4.88536e-05
4.99126e-05
5.07606e-05
5.14274e-05
5.20744e-05
5.27045e-05
5.33297e-05
5.39497e-05
5.45677e-05
5.51634e-05
5.5765e-05
5.63341e-05
5.69013e-05
5.74541e-05
5.80005e-05
5.85141e-05
5.90329e-05
5.95193e-05
6.00084e-05
6.04876e-05
6.09621e-05
6.1399e-05
6.18572e-05
6.22699e-05
6.2664e-05
6.30251e-05
6.34291e-05
6.37607e-05
6.41288e-05
6.4418e-05
6.4782e-05
6.50712e-05
6.54667e-05
6.57117e-05
6.62221e-05
6.67502e-05
6.72851e-05
6.77587e-05
6.81405e-05
6.84779e-05
6.87902e-05
6.91016e-05
6.93862e-05
6.96655e-05
6.99243e-05
7.01778e-05
7.03793e-05
7.05971e-05
7.07342e-05
7.08176e-05
7.10147e-05
7.12181e-05
7.13901e-05
7.16454e-05
7.1897e-05
7.21699e-05
7.2413e-05
7.26529e-05
7.2878e-05
7.3103e-05
7.33107e-05
7.35176e-05
7.37024e-05
7.38803e-05
7.40637e-05
7.42164e-05
7.44107e-05
7.45286e-05
7.47505e-05
7.4836e-05
7.50668e-05
7.50887e-05
7.52992e-05
7.52541e-05
7.54542e-05
7.53867e-05
7.55852e-05
7.55242e-05
7.57081e-05
7.55437e-05
7.5549e-05
7.48772e-05
7.4577e-05
7.46128e-05
7.48581e-05
7.51496e-05
7.53246e-05
7.55951e-05
7.57675e-05
7.60334e-05
7.62231e-05
7.64913e-05
7.66978e-05
7.69663e-05
7.71832e-05
7.74494e-05
7.76741e-05
7.79363e-05
7.81638e-05
7.84215e-05
7.86475e-05
7.89016e-05
7.9129e-05
7.93759e-05
7.96052e-05
7.9845e-05
8.00752e-05
8.03119e-05
8.05375e-05
8.07711e-05
8.09933e-05
8.12233e-05
8.14407e-05
8.16673e-05
8.18828e-05
8.21064e-05
8.23187e-05
8.25405e-05
8.27519e-05
8.29736e-05
8.31855e-05
8.34086e-05
8.36227e-05
8.38465e-05
8.40617e-05
8.42871e-05
8.45025e-05
8.47283e-05
8.49442e-05
8.51704e-05
8.53869e-05
8.56121e-05
8.58271e-05
8.60498e-05
8.62624e-05
8.64835e-05
8.6692e-05
8.69113e-05
8.71158e-05
8.73331e-05
8.75345e-05
8.77495e-05
8.79478e-05
8.81601e-05
8.83549e-05
8.85663e-05
8.87587e-05
8.89708e-05
8.9161e-05
8.93748e-05
8.95658e-05
8.97823e-05
8.99753e-05
9.01946e-05
9.03889e-05
9.06123e-05
9.0807e-05
9.10332e-05
9.12265e-05
9.14545e-05
9.16457e-05
9.18756e-05
9.20622e-05
9.22944e-05
9.24769e-05
9.27094e-05
9.28837e-05
9.31166e-05
9.32828e-05
9.35149e-05
9.36707e-05
9.39019e-05
9.40475e-05
9.42779e-05
9.44141e-05
9.46429e-05
9.47668e-05
9.49948e-05
9.51072e-05
9.53344e-05
9.54352e-05
9.56636e-05
9.57537e-05
9.59817e-05
9.60601e-05
9.62879e-05
9.6354e-05
9.65789e-05
9.66352e-05
9.68547e-05
9.69043e-05
9.7117e-05
9.71673e-05
9.73712e-05
9.74254e-05
9.7621e-05
9.7685e-05
9.78739e-05
9.7949e-05
9.81308e-05
9.8213e-05
9.83882e-05
9.8477e-05
9.86495e-05
9.87425e-05
9.8911e-05
9.90076e-05
9.91691e-05
9.92692e-05
9.94259e-05
9.9528e-05
9.96792e-05
9.97824e-05
9.99288e-05
0.000100033
0.000100177
0.000100283
0.000100423
0.000100528
0.000100665
0.00010077
0.000100906
0.000101011
0.000101144
0.00010125
0.000101379
0.000101483
0.00010161
0.000101716
0.000101839
0.000101948
0.00010207
0.000102178
0.000102297
0.000102406
0.000102523
0.000102631
0.000102747
0.000102855
0.000102969
0.000103078
0.000103191
0.000103298
0.000103408
0.000103516
0.000103626
0.000103733
0.000103842
0.000103949
0.000104054
0.000104158
0.000104261
0.000104362
0.000104464
0.000104564
0.000104664
0.000104762
0.00010486
0.000104955
0.000105049
0.00010514
0.000105229
0.000105316
0.000105403
0.000105487
0.000105571
0.000105651
0.000105725
0.000105795
0.00010586
0.00010592
0.000105973
0.000106021
0.000106062
0.000106099
0.000106129
0.000106152
0.000106169
0.00010618
0.000106183
0.000106181
0.000106172
0.000106157
0.000106136
0.000106109
0.000106076
0.000106036
0.00010599
0.000105939
0.000105882
0.000105821
0.000105756
0.000105688
0.000105618
0.000105548
0.000105476
0.000105405
0.000105333
0.000105263
0.000105192
0.000105123
0.000105056
0.000104991
0.000104926
0.000104864
0.000104803
0.000104745
0.000104691
0.000104638
0.000104587
0.000104539
0.000104491
0.000104444
0.000104396
0.000104346
0.000104291
0.000104233
0.000104169
0.000104099
0.000104023
0.000103943
0.000103858
0.000103769
0.000103677
0.000103582
0.000103488
0.000103396
0.000103306
0.000103221
0.000103143
0.000103072
0.000103009
0.000102953
0.000102905
0.000102862
0.000102826
0.000102797
0.000102773
0.000102753
0.000102738
0.000102726
0.000102715
0.000102706
0.000102697
0.000102688
0.000102681
0.000102671
0.000102662
0.000102652
0.000102643
0.000102636
0.000102632
0.000102627
0.000102625
0.000102623
0.000102624
0.000102625
0.000102628
0.000102633
0.000102642
0.000102654
0.000102669
0.000102687
0.000102709
0.000102733
0.000102762
0.000102796
0.000102833
0.000102875
0.00010292
0.000102968
0.000103018
0.00010307
0.000103122
0.000103176
0.000103229
0.000103283
0.000103336
0.000103389
0.000103441
0.000103493
0.000103543
0.000103592
0.000103641
0.000103688
0.000103737
0.000103787
0.000103841
0.000103901
0.000103967
0.000104039
0.000104119
0.000104204
0.000104296
0.000104392
0.000104492
0.000104595
0.000104699
0.000104805
0.000104911
0.000105015
0.000105118
0.000105217
0.000105312
0.000105403
0.000105492
0.000105577
0.000105661
0.000105743
0.000105826
0.000105909
0.000105993
0.000106076
0.000106162
0.000106247
0.000106334
0.00010642
0.000106506
0.000106588
0.000106668
0.000106744
0.000106816
0.000106884
0.000106946
0.000107003
0.000107055
0.000107097
0.000107137
0.000107157
0.000107187
0.000107178
0.000107214
0.000107155
0.000107239
0.000107087
0.000107273
0.000106969
0.000107288
0.000106748
0.000107178
0.000106342
0.000106816
0.000105688
0.000106099
0.000104773
0.000104981
0.000103405
0.000103043
0.000100253
9.66296e-05
8.90598e-05
7.24938e-05
5.02278e-05
4.64009e-05
5.0032e-05
4.62686e-05
4.35092e-05
3.85025e-05
3.35433e-05
2.86618e-05
3.11078e-05
3.83064e-05
4.12094e-05
0.000188772
0.00012288
7.16849e-05
6.87775e-05
7.11223e-05
7.64559e-05
8.98115e-05
9.95227e-05
0.000119065
0.000115639
0.000107315
0.000100109
9.35007e-05
8.76519e-05
8.23903e-05
7.76192e-05
7.33044e-05
6.93504e-05
6.5689e-05
6.23027e-05
5.91132e-05
5.61331e-05
5.33642e-05
5.07903e-05
4.84201e-05
4.6227e-05
4.42196e-05
4.2375e-05
4.06793e-05
3.91237e-05
3.7687e-05
3.63645e-05
3.51452e-05
3.4021e-05
3.29883e-05
3.20333e-05
3.11538e-05
3.03359e-05
2.95062e-05
2.86402e-05
2.77767e-05
2.69507e-05
2.6187e-05
2.54922e-05
2.4872e-05
2.43257e-05
2.38536e-05
2.34546e-05
2.31292e-05
2.28741e-05
2.26882e-05
2.25691e-05
2.25156e-05
2.25253e-05
2.25965e-05
2.27276e-05
2.29173e-05
2.31651e-05
2.34718e-05
2.38355e-05
2.42671e-05
2.47467e-05
2.53037e-05
2.58959e-05
2.65601e-05
2.72438e-05
2.80018e-05
2.8774e-05
2.96036e-05
3.04577e-05
3.13657e-05
3.22956e-05
3.32756e-05
3.42768e-05
3.53338e-05
3.64629e-05
3.76616e-05
3.88598e-05
4.00995e-05
4.13809e-05
4.2692e-05
4.40085e-05
4.5341e-05
4.66807e-05
4.8051e-05
4.94381e-05
5.08372e-05
5.22309e-05
5.36047e-05
5.49483e-05
5.62846e-05
5.75853e-05
5.88487e-05
6.00769e-05
6.12719e-05
6.24568e-05
6.36049e-05
6.4719e-05
6.57864e-05
6.68361e-05
6.78585e-05
6.88419e-05
6.9779e-05
7.07101e-05
7.15935e-05
7.2465e-05
7.33237e-05
7.41786e-05
7.49836e-05
7.58021e-05
7.65215e-05
7.72077e-05
7.78295e-05
7.84899e-05
7.90691e-05
7.96827e-05
8.01687e-05
8.07582e-05
8.12943e-05
8.19833e-05
8.24907e-05
8.33363e-05
8.42091e-05
8.51682e-05
8.6009e-05
8.66625e-05
8.72452e-05
8.78102e-05
8.83762e-05
8.891e-05
8.94287e-05
8.99184e-05
9.03943e-05
9.08066e-05
9.12261e-05
9.15438e-05
9.18107e-05
9.21845e-05
9.25605e-05
9.29177e-05
9.33676e-05
9.38135e-05
9.42858e-05
9.47203e-05
9.51487e-05
9.5558e-05
9.59616e-05
9.63382e-05
9.67098e-05
9.70524e-05
9.73825e-05
9.77164e-05
9.80119e-05
9.83505e-05
9.86018e-05
9.8972e-05
9.91747e-05
9.9544e-05
9.96608e-05
0.000100009
0.000100034
0.000100351
0.000100337
0.000100635
0.00010061
0.000100861
0.000100692
0.000100695
9.99673e-05
9.97138e-05
9.96986e-05
0.000100041
0.000100403
0.000100623
0.000100953
0.000101162
0.000101481
0.000101713
0.000102039
0.000102294
0.000102629
0.000102907
0.000103247
0.000103543
0.000103888
0.000104192
0.000104542
0.000104855
0.000105206
0.000105531
0.000105881
0.000106218
0.000106568
0.000106911
0.000107264
0.000107608
0.000107962
0.000108307
0.000108661
0.000109005
0.00010936
0.000109704
0.000110057
0.000110401
0.000110756
0.0001111
0.000111458
0.000111806
0.000112168
0.00011252
0.000112886
0.000113241
0.000113608
0.000113964
0.000114332
0.000114688
0.000115055
0.000115411
0.000115774
0.000116126
0.000116485
0.000116832
0.000117185
0.000117523
0.000117872
0.000118204
0.000118549
0.000118875
0.000119218
0.000119537
0.000119876
0.00012019
0.000120527
0.000120837
0.000121173
0.000121481
0.000121818
0.000122126
0.000122466
0.000122776
0.000123119
0.000123431
0.000123778
0.000124091
0.00012444
0.000124751
0.000125102
0.000125409
0.000125762