/*--------------------------------*- C++ -*----------------------------------*\
| =========                 |                                                 |
| \\      /  F ield         | foam-extend: Open Source CFD                    |
|  \\    /   O peration     | Version:     3.2                                |
|   \\  /    A nd           | Web:         http://www.foam-extend.org         |
|    \\/     M anipulation  | For copyright notice see file Copyright         |
\*---------------------------------------------------------------------------*/
FoamFile
{
    version     2.0;
    format      ascii;
    class       volScalarField;
    location    "1440";
    object      omega;
}
// * * * * * * * * * * * * * * * * * * * * * * * * * * * * * * * * * * * * * //

dimensions      [0 0 -1 0 0 0 0];

internalField   nonuniform List<scalar> 
33000
(
26.127
29.6689
33.4734
37.432
41.4189
45.3078
48.9914
52.376
55.4023
58.0315
60.2371
62.0263
63.4581
64.5224
65.2542
65.735
65.9731
65.9975
65.8726
65.6326
65.3017
64.9001
64.4376
63.9404
63.4187
62.8811
62.3388
61.8017
61.2827
60.7781
60.2883
59.8161
59.3611
58.9282
58.5167
58.1274
57.7599
57.4094
57.0813
56.7741
56.4815
56.2094
55.9556
55.7147
55.4895
55.2796
55.0827
54.8984
54.7252
54.5642
54.415
54.2729
54.1389
54.0139
53.8957
53.7846
53.6799
53.579
53.491
53.3971
53.3217
53.248
53.1879
53.1344
53.0932
53.0534
53.0285
52.9961
52.951
52.9012
52.8703
52.8466
52.8244
52.8283
52.855
52.9114
52.9941
53.0745
53.1889
53.2954
53.3762
53.4536
53.4928
53.4846
53.4657
53.4173
53.3455
53.2773
53.2087
53.1261
53.0155
52.9347
52.8795
52.7804
52.7009
52.6389
52.5463
52.4724
52.4143
52.3313
52.2499
52.1829
52.1128
52.0394
51.9833
51.924
51.8362
51.7606
51.7071
51.6261
51.569
51.5094
51.4103
51.3265
51.3146
51.2447
51.1951
51.1321
51.0398
50.9028
50.8645
50.6251
50.3762
50.4458
50.4427
50.486
50.5427
50.6021
50.6562
50.7063
50.7496
50.7865
50.8148
50.8367
50.8379
50.8513
50.8393
50.729
50.6878
50.7094
50.6058
50.5675
50.6039
50.5999
50.6034
50.6099
50.6184
50.6243
50.629
50.6263
50.624
50.6087
50.6073
50.5765
50.5802
50.5293
50.544
50.4923
50.5049
50.4603
50.4356
50.3907
50.3318
50.2806
50.216
50.1704
50.127
50.0672
50.0361
49.6727
49.1406
49.2118
49.0844
48.9819
48.9128
48.8422
48.7959
48.7437
48.7113
48.6721
48.6492
48.6196
48.6034
48.5807
48.5694
48.552
48.5442
48.531
48.5253
48.5157
48.5119
48.5047
48.5019
48.4985
48.4966
48.4954
48.4945
48.4945
48.4944
48.4946
48.4949
48.4954
48.496
48.4965
48.4969
48.4974
48.4979
48.4984
48.4991
48.4999
48.5009
48.5016
48.5028
48.5039
48.5049
48.5062
48.5075
48.5086
48.5098
48.511
48.5122
48.5137
48.5147
48.5159
48.5168
48.5189
48.5197
48.5224
48.5233
48.5267
48.5278
48.5314
48.533
48.5368
48.5386
48.5422
48.5444
48.5478
48.5505
48.5541
48.5572
48.5609
48.5637
48.5685
48.5714
48.5763
48.5791
48.5846
48.5874
48.5932
48.5958
48.602
48.6042
48.6105
48.6124
48.6186
48.6202
48.6263
48.6273
48.6324
48.6327
48.6379
48.6377
48.6421
48.6411
48.6449
48.6435
48.6468
48.6445
48.6476
48.6447
48.6474
48.6446
48.6456
48.643
48.6421
48.6401
48.6358
48.6348
48.6268
48.6267
48.6158
48.6167
48.6041
48.6044
48.592
48.5911
48.5796
48.578
48.5667
48.5637
48.553
48.5493
48.5381
48.5336
48.5228
48.5175
48.5069
48.5004
48.4899
48.4833
48.4726
48.4653
48.4548
48.4469
48.4366
48.4289
48.4193
48.4113
48.4019
48.3948
48.386
48.3793
48.3717
48.3657
48.3586
48.3528
48.3469
48.3418
48.3366
48.3324
48.3281
48.3243
48.3205
48.3173
48.3142
48.3116
48.3085
48.3062
48.3044
48.3029
48.3009
48.2997
48.2988
48.2984
48.2979
48.298
48.2986
48.2995
48.3009
48.3028
48.3051
48.308
48.3111
48.3146
48.3189
48.3242
48.3299
48.3354
48.3417
48.3481
48.3558
48.3652
48.3755
48.3865
48.3978
48.4099
48.4224
48.435
48.4478
48.4606
48.4736
48.4868
48.5
48.5136
48.5273
48.5411
48.5548
48.5686
48.5824
48.5957
48.6093
48.6228
48.6361
48.6492
48.6615
48.6735
48.6857
48.6978
48.7092
48.7201
48.7304
48.7404
48.7504
48.76
48.7688
48.7777
48.7863
48.7943
48.8017
48.8088
48.8161
48.823
48.8292
48.8353
48.8418
48.848
48.8537
48.8592
48.864
48.8686
48.8733
48.8777
48.881
48.8841
48.8869
48.8892
48.8912
48.8924
48.8932
48.8941
48.8949
48.8952
48.895
48.8945
48.8941
48.8935
48.8928
48.8922
48.8916
48.8913
48.8909
48.8902
48.8897
48.8894
48.8891
48.8887
48.8882
48.8876
48.8871
48.8864
48.8856
48.8847
48.8838
48.8828
48.8817
48.8807
48.8796
48.8787
48.8781
48.8774
48.8765
48.8759
48.8756
48.8753
48.875
48.875
48.8752
48.8756
48.8763
48.8773
48.8789
48.8805
48.8823
48.8847
48.8872
48.8899
48.893
48.8964
48.8998
48.9036
48.9075
48.9117
48.916
48.9205
48.9252
48.9301
48.9352
48.9406
48.9463
48.9522
48.9584
48.965
48.9721
48.9795
48.987
48.9953
49.0045
49.0136
49.0235
49.0339
49.0444
49.0554
49.0665
49.078
49.0897
49.1016
49.1138
49.126
49.1384
49.1508
49.1633
49.1757
49.1883
49.201
49.2137
49.2266
49.2401
49.2536
49.2673
49.2813
49.2957
49.3103
49.3252
49.3404
49.3554
49.3701
49.385
49.3996
49.4143
49.4291
49.4436
49.4579
49.4721
49.4849
49.5014
49.51
49.5316
49.5325
49.5673
49.5494
49.6132
49.5691
49.6712
49.6106
49.7375
49.6687
49.7928
49.7322
49.8035
49.781
49.7355
49.7687
49.6326
49.7092
49.4909
49.5688
49.018
48.659
42.8975
35.0436
34.8882
32.167
29.986
26.5659
23.6406
21.5738
22.0473
25.8392
7.90335
2.16826
3.73555
5.48341
7.33553
9.3357
11.3595
13.3675
15.3154
17.1834
18.9348
20.5391
21.9483
23.1901
24.2522
25.1426
25.8912
26.5163
27.0427
27.4852
27.8517
28.1631
28.4013
28.5164
28.528
28.4523
28.3105
28.1245
27.9296
27.761
27.6438
27.5799
27.5545
27.5521
27.5636
27.5803
27.5978
27.6131
27.6217
27.6191
27.6096
27.5878
27.5542
27.5118
27.4611
27.3994
27.3315
27.2567
27.1792
27.0952
27.0076
26.9161
26.8237
26.7251
26.6232
26.5157
26.4048
26.2898
26.1691
26.0493
25.9282
25.8067
25.6935
25.5778
25.472
25.3654
25.2646
25.1573
25.0515
24.942
24.8394
24.7376
24.6423
24.5515
24.4769
24.4116
24.3443
24.297
24.2483
24.2082
24.1667
24.119
24.0745
24.0152
23.9448
23.8735
23.7945
23.7137
23.634
23.5559
23.4796
23.3917
23.3152
23.2336
23.1491
23.0656
22.9927
22.9226
22.8462
22.7752
22.6986
22.6237
22.5505
22.4812
22.4021
22.3358
22.2619
22.1873
22.1157
22.0637
21.986
21.9125
21.8464
21.7847
21.71
21.65
21.58
21.5227
21.4594
21.4252
21.336
21.3206
21.2551
21.1398
20.9609
20.8417
20.7559
20.6861
20.6312
20.5818
20.5432
20.5092
20.4832
20.4605
20.4496
20.4336
20.4376
20.4821
20.4924
20.4549
20.4291
20.4236
20.3788
20.3164
20.2797
20.2467
20.2206
20.1959
20.1771
20.1611
20.1528
20.1464
20.1351
20.1322
20.1213
20.1246
20.1057
20.1114
20.085
20.103
20.0768
20.1182
20.0993
20.1439
20.1113
20.1397
20.0924
20.1245
20.0983
20.2869
20.5527
20.5681
20.3833
20.2619
20.1779
20.0924
20.0399
19.9724
19.9308
19.8742
19.838
19.7896
19.7568
19.7146
19.6845
19.6474
19.6199
19.587
19.5629
19.5333
19.5102
19.4842
19.461
19.4379
19.4153
19.3942
19.3732
19.3537
19.3343
19.3162
19.2984
19.2817
19.2653
19.2497
19.2346
19.2202
19.2065
19.1932
19.1806
19.1682
19.1564
19.1449
19.1341
19.1234
19.1138
19.1038
19.0947
19.0853
19.0772
19.0684
19.0609
19.0526
19.0456
19.0378
19.0314
19.0236
19.0172
19.0097
19.0036
18.9962
18.9904
18.9833
18.9784
18.9714
18.9674
18.9605
18.957
18.9502
18.9474
18.9406
18.938
18.931
18.9286
18.9212
18.9189
18.9114
18.9096
18.902
18.9008
18.893
18.8925
18.8845
18.8848
18.8765
18.8778
18.8691
18.8713
18.8621
18.8654
18.8558
18.8603
18.8498
18.8548
18.8436
18.8499
18.8379
18.8452
18.8323
18.8405
18.8265
18.8357
18.8207
18.8307
18.8147
18.826
18.8091
18.8212
18.8038
18.8166
18.7988
18.8111
18.7933
18.8044
18.7871
18.7965
18.7798
18.7864
18.7708
18.7759
18.7614
18.7648
18.7512
18.7537
18.7406
18.7417
18.73
18.7295
18.7185
18.7171
18.7061
18.7042
18.6936
18.6911
18.6807
18.6772
18.6669
18.6631
18.6531
18.6493
18.639
18.6345
18.6244
18.6193
18.6096
18.6044
18.5945
18.588
18.5784
18.5711
18.5613
18.5539
18.5447
18.5373
18.5284
18.5211
18.5128
18.5057
18.4979
18.4904
18.4832
18.4763
18.4696
18.4629
18.4564
18.4502
18.444
18.4379
18.4319
18.4261
18.4203
18.4147
18.4092
18.4038
18.3985
18.3932
18.3881
18.3832
18.3786
18.3741
18.3698
18.3657
18.3616
18.3571
18.3523
18.3477
18.3434
18.3395
18.3361
18.3331
18.3304
18.3282
18.3263
18.3246
18.3232
18.3221
18.3212
18.3206
18.3203
18.3202
18.3204
18.3206
18.3211
18.3219
18.3229
18.3242
18.3258
18.3275
18.3295
18.3316
18.3338
18.3361
18.3386
18.3411
18.3439
18.3468
18.3498
18.3529
18.3563
18.3597
18.3632
18.3667
18.3705
18.3743
18.378
18.3818
18.3855
18.3894
18.3932
18.3972
18.4011
18.4051
18.4091
18.4134
18.4176
18.4218
18.426
18.4301
18.4342
18.4381
18.4419
18.4457
18.4495
18.4532
18.4568
18.4607
18.4647
18.4682
18.4713
18.4747
18.4779
18.4811
18.4843
18.4875
18.4903
18.4931
18.4955
18.4982
18.5008
18.5034
18.506
18.5086
18.5111
18.5136
18.5161
18.5186
18.5212
18.5237
18.5262
18.5284
18.5304
18.5324
18.5344
18.5363
18.5378
18.5395
18.5412
18.5428
18.5441
18.5453
18.5462
18.5473
18.5483
18.5494
18.5504
18.5515
18.5525
18.5535
18.5545
18.5554
18.5565
18.5576
18.5587
18.56
18.5612
18.5624
18.5636
18.5649
18.5661
18.5673
18.5684
18.5697
18.5708
18.5721
18.5732
18.5745
18.5756
18.5766
18.5774
18.5783
18.5791
18.5801
18.5812
18.5824
18.5838
18.5851
18.5864
18.5878
18.5891
18.5905
18.5919
18.5936
18.5954
18.5974
18.5993
18.6012
18.6031
18.6052
18.6069
18.6089
18.6108
18.6132
18.6152
18.6175
18.6195
18.6219
18.624
18.6269
18.6293
18.6325
18.635
18.6382
18.6407
18.644
18.6466
18.6511
18.654
18.6587
18.6626
18.6671
18.6687
18.6777
18.6731
18.6898
18.6739
18.7035
18.6722
18.7324
18.685
18.7884
18.7261
18.8757
18.803
18.9873
18.9034
19.0942
19.059
19.3656
19.7079
20.7938
23.9743
26.8714
27.0531
25.228
25.4873
25.3749
26.1286
25.3221
20.167
14.517
11.8062
8.56361
0.744324
0.981496
1.30075
1.68534
2.12422
2.63932
3.25626
3.92883
4.63614
5.35037
6.06641
6.76243
7.44614
8.09325
8.70512
9.28422
9.82651
10.3314
10.7981
11.2245
11.6201
11.9874
12.3244
12.6327
12.9124
13.1702
13.4086
13.6338
13.8556
14.0815
14.3211
14.5726
14.8391
15.0923
15.328
15.547
15.7494
15.9339
16.1005
16.2479
16.3757
16.4825
16.5684
16.6335
16.6764
16.6982
16.699
16.6827
16.6495
16.6044
16.5494
16.49
16.4269
16.3648
16.3037
16.2477
16.1952
16.1458
16.0993
16.0528
16.0098
15.9673
15.9287
15.889
15.8534
15.813
15.7704
15.7244
15.6752
15.6259
15.5779
15.5265
15.4765
15.4306
15.3847
15.3377
15.2897
15.2474
15.207
15.1681
15.1242
15.0808
15.022
14.9556
14.8795
14.8028
14.7225
14.6459
14.5658
14.49
14.4086
14.3335
14.2616
14.1837
14.1043
14.0308
13.9551
13.8792
13.8096
13.7385
13.6632
13.5941
13.5261
13.4555
13.3926
13.3272
13.2577
13.1907
13.1358
13.0718
13.0117
12.9575
12.906
12.8418
12.7934
12.7372
12.6947
12.6391
12.606
12.5436
12.5189
12.4528
12.3764
12.2557
12.1621
12.0854
12.0199
11.9598
11.9037
11.8518
11.8044
11.7631
11.7251
11.6977
11.6688
11.6575
11.6597
11.656
11.6334
11.6125
11.594
11.5651
11.5223
11.4907
11.4595
11.4333
11.4078
11.3862
11.3659
11.3511
11.3375
11.324
11.3155
11.3025
11.3002
11.2847
11.2879
11.2674
11.28
11.2591
11.2869
11.2681
11.302
11.2817
11.3099
11.2861
11.3257
11.3221
11.4568
11.5819
11.6404
11.5835
11.5348
11.5072
11.4665
11.4455
11.4081
11.3884
11.3544
11.335
11.304
11.285
11.2567
11.2384
11.2127
11.1956
11.1721
11.156
11.1347
11.1185
11.0989
11.082
11.0644
11.0478
11.0312
11.0158
11.0003
10.9861
10.9717
10.9587
10.9452
10.9331
10.9205
10.9092
10.8975
10.8872
10.8762
10.8665
10.8561
10.847
10.8371
10.8286
10.8195
10.8117
10.8032
10.796
10.7879
10.7813
10.7737
10.7675
10.7603
10.7547
10.748
10.7428
10.7364
10.7314
10.7252
10.7204
10.7143
10.7098
10.704
10.7
10.6943
10.6909
10.6853
10.6825
10.6771
10.6747
10.6694
10.6673
10.6618
10.6598
10.6543
10.6522
10.6465
10.6448
10.639
10.6376
10.6315
10.6305
10.6243
10.6238
10.6174
10.6175
10.6108
10.6116
10.6046
10.6062
10.5991
10.6014
10.5939
10.5968
10.5889
10.5926
10.5843
10.5889
10.58
10.5853
10.576
10.582
10.5721
10.5788
10.5682
10.5759
10.5648
10.5731
10.5618
10.5706
10.5592
10.5679
10.5565
10.5644
10.5535
10.5602
10.5499
10.5548
10.5452
10.5489
10.5401
10.5427
10.5344
10.5362
10.5282
10.5292
10.5216
10.522
10.515
10.5147
10.5081
10.5075
10.5012
10.5002
10.4941
10.4925
10.4865
10.4847
10.4788
10.4767
10.4707
10.468
10.462
10.4589
10.4528
10.4492
10.4431
10.4387
10.4325
10.4275
10.4212
10.416
10.4098
10.4045
10.3983
10.3928
10.3867
10.3812
10.3753
10.3696
10.3638
10.3585
10.3529
10.3474
10.342
10.3367
10.3315
10.3263
10.3211
10.3161
10.311
10.306
10.3009
10.296
10.2909
10.286
10.281
10.2761
10.2713
10.2666
10.2618
10.2571
10.2524
10.2476
10.2425
10.2374
10.2323
10.2272
10.2224
10.2177
10.2132
10.2088
10.2047
10.2007
10.1969
10.1931
10.1897
10.1863
10.1831
10.18
10.1771
10.1744
10.1718
10.1693
10.1671
10.165
10.1632
10.1616
10.1601
10.1588
10.1577
10.1566
10.1557
10.1548
10.1542
10.1538
10.1535
10.1534
10.1535
10.1537
10.154
10.1545
10.1552
10.156
10.1569
10.1579
10.159
10.1602
10.1615
10.1628
10.1642
10.1657
10.1674
10.1692
10.1711
10.1731
10.1752
10.1774
10.1796
10.1818
10.184
10.1863
10.1886
10.1909
10.1933
10.1958
10.1983
10.2008
10.2032
10.2056
10.2081
10.2106
10.213
10.2156
10.2179
10.2203
10.2224
10.2246
10.2267
10.2289
10.231
10.2332
10.2352
10.2374
10.2395
10.2417
10.2441
10.2464
10.2488
10.251
10.2531
10.2552
10.2572
10.2591
10.2609
10.2628
10.2646
10.2663
10.2679
10.2693
10.2706
10.272
10.2732
10.2745
10.2757
10.2769
10.278
10.279
10.28
10.2809
10.2818
10.2827
10.2837
10.2846
10.2855
10.2864
10.2873
10.2881
10.2889
10.2896
10.2904
10.2911
10.2918
10.2925
10.2932
10.2938
10.2944
10.2948
10.295
10.2951
10.2952
10.2953
10.2953
10.2954
10.2956
10.2957
10.2958
10.2957
10.2957
10.2956
10.2956
10.2955
10.2956
10.2957
10.2958
10.296
10.2962
10.2963
10.2964
10.2965
10.2966
10.2968
10.297
10.2971
10.2972
10.2973
10.2974
10.2976
10.2979
10.2984
10.2988
10.2993
10.2998
10.3002
10.3008
10.3014
10.302
10.3032
10.3039
10.3057
10.3053
10.3097
10.3061
10.3155
10.3055
10.3248
10.3044
10.3444
10.3126
10.3819
10.3402
10.4418
10.394
10.5203
10.4706
10.6099
10.5902
10.8355
11.0969
11.9839
14.3356
17.6983
18.7097
18.3876
19.0928
19.9426
21.3505
22.706
21.7064
16.9091
10.5098
9.26548
0.606419
0.649144
0.713864
0.804357
0.92022
1.06528
1.24654
1.43967
1.63714
1.84037
2.04828
2.25722
2.47271
2.68372
2.8932
3.10218
3.30882
3.51565
3.72514
3.93625
4.15372
4.37591
4.60069
4.82595
5.04848
5.26977
5.4871
5.70162
5.91434
6.12669
6.34195
6.5608
6.78518
7.01334
7.2433
7.47566
7.70903
7.94038
8.16363
8.37613
8.58112
8.78328
8.98425
9.1839
9.38325
9.57923
9.76867
9.94296
10.1025
10.2473
10.3791
10.498
10.606
10.7031
10.7912
10.8704
10.9424
11.0053
11.0631
11.109
11.1529
11.1845
11.2146
11.2312
11.2442
11.2407
11.2323
11.2098
11.1829
11.1472
11.1116
11.0646
11.0183
10.9668
10.9137
10.8547
10.7959
10.7453
10.7025
10.6643
10.6328
10.6024
10.5608
10.5093
10.4481
10.3804
10.3081
10.2372
10.1686
10.099
10.0266
9.95592
9.88688
9.81316
9.73821
9.6654
9.59373
9.52181
9.45353
9.38432
9.31642
9.25339
9.19226
9.13099
9.07393
9.01661
8.95735
8.89966
8.8485
8.79368
8.74561
8.70099
8.66264
8.61676
8.58329
8.54376
8.51339
8.47208
8.4449
8.39788
8.37046
8.3139
8.25138
8.16646
8.09758
8.04209
7.99427
7.94872
7.90398
7.86198
7.82195
7.78586
7.75168
7.72487
7.69823
7.68271
7.67364
7.66389
7.64616
7.62763
7.60912
7.587
7.55707
7.53305
7.50934
7.48849
7.46839
7.45083
7.43392
7.42061
7.40817
7.39677
7.38801
7.37723
7.3728
7.36099
7.36163
7.34799
7.35595
7.34229
7.35973
7.34692
7.3688
7.35679
7.37737
7.36592
7.39443
7.4011
7.48351
7.54782
7.59877
7.57997
7.56243
7.55523
7.5382
7.53347
7.51796
7.51254
7.49754
7.49092
7.4764
7.46903
7.45516
7.44736
7.43425
7.42626
7.41388
7.40552
7.39402
7.38485
7.37404
7.36472
7.35467
7.34541
7.33567
7.32697
7.31765
7.30939
7.30059
7.29297
7.28472
7.27745
7.26971
7.26301
7.25578
7.2495
7.24269
7.23678
7.23028
7.22462
7.21851
7.21328
7.20748
7.2027
7.19732
7.19295
7.18789
7.18378
7.17904
7.17528
7.1709
7.16748
7.16339
7.16034
7.15654
7.15373
7.15002
7.14739
7.14375
7.14126
7.1378
7.13566
7.13236
7.13056
7.12743
7.12605
7.12302
7.1219
7.11898
7.11805
7.1152
7.1144
7.11152
7.11084
7.10792
7.10746
7.10447
7.10418
7.10109
7.10109
7.09781
7.09798
7.09462
7.09525
7.09177
7.09278
7.08918
7.09067
7.08691
7.08885
7.08491
7.08715
7.083
7.08575
7.08139
7.08464
7.08006
7.08379
7.0789
7.08302
7.07787
7.08246
7.07693
7.08206
7.07632
7.08185
7.07599
7.08186
7.07599
7.08174
7.07604
7.08143
7.07597
7.08059
7.07543
7.07901
7.07419
7.07702
7.07258
7.07477
7.07046
7.07217
7.06808
7.06936
7.06567
7.06651
7.06304
7.06357
7.06036
7.06064
7.05762
7.05769
7.05475
7.05452
7.0516
7.05113
7.0482
7.04738
7.04437
7.04319
7.0401
7.03855
7.03539
7.03343
7.03021
7.02781
7.02452
7.0218
7.01837
7.01545
7.01197
7.00889
7.00524
7.00201
6.99831
6.99501
6.99132
6.9879
6.98422
6.98082
6.97719
6.97372
6.9701
6.96661
6.96298
6.9594
6.95589
6.95241
6.94892
6.94549
6.94193
6.93845
6.93486
6.93133
6.92774
6.92418
6.92063
6.9171
6.91353
6.90997
6.9063
6.90263
6.89874
6.8948
6.89086
6.88689
6.88297
6.87907
6.87526
6.87153
6.86786
6.86423
6.8607
6.85722
6.85384
6.85049
6.84726
6.84408
6.84101
6.83798
6.83507
6.83223
6.82951
6.82689
6.82442
6.82203
6.81978
6.81764
6.81557
6.81357
6.8117
6.80985
6.80818
6.80661
6.80515
6.80379
6.80259
6.80147
6.80046
6.79956
6.79882
6.7982
6.79771
6.79731
6.79697
6.79674
6.79658
6.79648
6.79648
6.79655
6.79674
6.79705
6.79749
6.79803
6.79868
6.79943
6.80024
6.80107
6.80197
6.8029
6.80388
6.80497
6.80607
6.80719
6.80845
6.8097
6.81095
6.81225
6.81354
6.81492
6.81625
6.8177
6.81911
6.82052
6.82189
6.82326
6.82459
6.82593
6.8273
6.82865
6.83004
6.83147
6.83288
6.83443
6.83603
6.83771
6.83942
6.84108
6.84268
6.84427
6.84579
6.84736
6.84885
6.85039
6.85187
6.85332
6.85462
6.85593
6.85719
6.85844
6.85964
6.86083
6.86199
6.86313
6.86422
6.86524
6.86622
6.86716
6.86809
6.86899
6.86991
6.87081
6.87175
6.87262
6.87351
6.87432
6.87516
6.87592
6.87667
6.87742
6.87817
6.87891
6.87966
6.88037
6.88103
6.88153
6.88199
6.88231
6.88257
6.88285
6.88307
6.8833
6.88353
6.88376
6.88397
6.88409
6.88419
6.88419
6.88422
6.88421
6.88429
6.88436
6.88447
6.88455
6.88465
6.88473
6.88478
6.88478
6.88484
6.88489
6.88493
6.88493
6.88493
6.88485
6.8848
6.88476
6.88483
6.8849
6.88505
6.88514
6.88529
6.88537
6.88546
6.88554
6.88564
6.88598
6.88614
6.88681
6.88632
6.88829
6.88575
6.89109
6.88451
6.89649
6.88418
6.90832
6.89011
6.93132
6.90773
6.96833
6.94375
7.01984
6.99987
7.09028
7.09257
7.25555
7.44768
8.02899
9.58245
11.9938
13.299
13.5347
14.3364
15.4757
17.1648
19.0724
20.4432
18.3193
12.5576
9.98287
0.588267
0.596519
0.612896
0.637075
0.67071
0.714761
0.772977
0.839375
0.913984
0.991099
1.06762
1.14316
1.22181
1.30061
1.38001
1.46045
1.54128
1.62315
1.70679
1.7919
1.88003
1.97042
2.06238
2.15583
2.24957
2.3439
2.43747
2.5305
2.62294
2.71455
2.80612
2.89723
2.98829
3.0794
3.1703
3.26193
3.35424
3.44851
3.55383
3.67492
3.8085
3.95061
4.0981
4.24964
4.40444
4.56185
4.72166
4.88231
5.04267
5.20191
5.36006
5.51614
5.67003
5.82072
5.96839
6.11252
6.25313
6.38896
6.5234
6.65116
6.78086
6.90178
7.02547
7.13484
7.24184
7.32797
7.41102
7.47354
7.52985
7.57133
7.60963
7.63038
7.64396
7.64027
7.62403
7.57952
7.53452
7.49993
7.47503
7.45114
7.43615
7.41836
7.39334
7.34714
7.28817
7.21664
7.14276
7.07191
7.01026
6.95092
6.89428
6.83729
6.7847
6.7352
6.68623
6.63478
6.58682
6.54081
6.49879
6.45447
6.41349
6.37627
6.34254
6.30648
6.27433
6.24172
6.20762
6.17339
6.14272
6.11036
6.08726
6.06634
6.05094
6.03063
6.01763
6.00017
5.99139
5.97196
5.95676
5.92699
5.91017
5.87251
5.83135
5.77383
5.72735
5.69263
5.66345
5.63448
5.60541
5.57845
5.55216
5.52865
5.50576
5.48802
5.47012
5.45947
5.45209
5.44385
5.43338
5.42153
5.40806
5.39311
5.37454
5.35895
5.34355
5.32973
5.31645
5.30516
5.29433
5.28576
5.27784
5.27075
5.26529
5.25879
5.25624
5.24888
5.24978
5.24209
5.24784
5.24025
5.25201
5.24583
5.26052
5.25537
5.27023
5.26649
5.28766
5.29729
5.34977
5.38587
5.42107
5.41497
5.40915
5.41053
5.40519
5.40734
5.4025
5.40353
5.3986
5.39856
5.39353
5.3927
5.38773
5.3862
5.38135
5.37931
5.37459
5.37197
5.36745
5.3643
5.36003
5.35673
5.35274
5.34932
5.34537
5.34204
5.33821
5.33506
5.33141
5.32844
5.325
5.32221
5.31907
5.31655
5.31357
5.31127
5.30847
5.30634
5.30368
5.30168
5.29918
5.29737
5.29514
5.29354
5.29152
5.29013
5.28831
5.28707
5.28548
5.28443
5.28298
5.28214
5.2809
5.28037
5.27929
5.27885
5.27793
5.27758
5.27659
5.27636
5.27541
5.27536
5.27447
5.27464
5.27388
5.27426
5.27359
5.27416
5.27356
5.27425
5.2737
5.27442
5.2739
5.27469
5.27416
5.27507
5.27452
5.27555
5.27493
5.27609
5.2754
5.27672
5.27596
5.27747
5.27661
5.27833
5.27741
5.27939
5.27835
5.28055
5.27941
5.2818
5.28052
5.28318
5.28178
5.28468
5.28312
5.2863
5.28459
5.28799
5.28609
5.28977
5.28766
5.29162
5.28937
5.29354
5.29123
5.29558
5.29325
5.29753
5.29529
5.29932
5.29722
5.30082
5.29884
5.30184
5.30001
5.30258
5.30075
5.30297
5.30131
5.30323
5.30181
5.30341
5.30214
5.30345
5.30231
5.30341
5.30237
5.30331
5.30237
5.30318
5.3022
5.30279
5.30178
5.30215
5.30105
5.30122
5.30004
5.29992
5.29867
5.29824
5.29691
5.29625
5.2949
5.29402
5.29259
5.29143
5.28981
5.2885
5.28679
5.28531
5.28348
5.28191
5.27996
5.27826
5.27629
5.27445
5.27242
5.27054
5.26849
5.2665
5.26439
5.26235
5.26017
5.25803
5.25581
5.25362
5.25142
5.24923
5.24699
5.24474
5.24242
5.2401
5.2377
5.23533
5.2329
5.23045
5.22798
5.22547
5.22288
5.22023
5.21747
5.21461
5.21173
5.2088
5.20588
5.20296
5.20003
5.19711
5.19423
5.19133
5.18848
5.18562
5.1828
5.18
5.17724
5.17448
5.17178
5.1691
5.16648
5.16384
5.16132
5.15885
5.15644
5.15408
5.15181
5.14959
5.14742
5.14531
5.14322
5.1412
5.13926
5.13739
5.13559
5.13389
5.13225
5.13069
5.1292
5.12781
5.12653
5.12534
5.12425
5.12324
5.12231
5.12146
5.12065
5.11995
5.11927
5.1187
5.11819
5.11781
5.11752
5.11731
5.11722
5.11719
5.11723
5.11732
5.11746
5.11763
5.11787
5.11814
5.11846
5.11883
5.11927
5.11974
5.12024
5.12079
5.12136
5.12199
5.12264
5.12337
5.12414
5.12494
5.12574
5.12655
5.12736
5.1282
5.12907
5.12995
5.13088
5.13185
5.13284
5.1339
5.13502
5.13619
5.1374
5.13863
5.13982
5.14104
5.14225
5.14351
5.14473
5.14598
5.14719
5.1484
5.14957
5.15072
5.15185
5.15299
5.1541
5.15523
5.15632
5.15741
5.15849
5.15951
5.16052
5.16151
5.16248
5.16346
5.16442
5.1654
5.16639
5.16735
5.16832
5.16926
5.17018
5.1711
5.17198
5.17285
5.17373
5.17459
5.17548
5.17631
5.17712
5.17783
5.17852
5.17911
5.17965
5.1802
5.18071
5.18124
5.18178
5.18228
5.18278
5.18323
5.18368
5.18403
5.1844
5.18475
5.18513
5.1855
5.18591
5.18627
5.18663
5.18695
5.18726
5.18754
5.18784
5.18812
5.18842
5.18867
5.18893
5.1891
5.1893
5.18948
5.18971
5.18995
5.19023
5.19047
5.19074
5.19091
5.19112
5.19126
5.1914
5.19169
5.19186
5.19227
5.19208
5.19276
5.19152
5.1941
5.19087
5.197
5.1908
5.20375
5.19429
5.21711
5.20507
5.23937
5.22683
5.27163
5.26258
5.32129
5.33203
5.44358
5.58353
5.97275
6.96577
8.59113
9.73092
10.1562
10.9131
12.0436
13.7409
15.8087
18.1192
18.1589
14.2669
10.8137
0.585739
0.588309
0.596414
0.607025
0.619854
0.635233
0.654184
0.677569
0.706766
0.739535
0.774612
0.811131
0.847979
0.884807
0.921106
0.958251
0.996048
1.03445
1.07346
1.11292
1.15326
1.19439
1.23627
1.27912
1.32272
1.36735
1.41255
1.45836
1.50475
1.55155
1.59888
1.64657
1.69469
1.74329
1.79233
1.84216
1.89278
1.94453
2.00029
2.0613
2.12667
2.19542
2.26652
2.33957
2.4142
2.49009
2.5672
2.64552
2.72459
2.80455
2.88533
2.96675
3.04876
3.13102
3.21369
3.29637
3.37933
3.46172
3.54638
3.62981
3.71806
3.805
3.89636
3.98112
4.06304
4.13303
4.20199
4.26339
4.32565
4.38233
4.44177
4.49016
4.53136
4.55771
4.57228
4.5764
4.57821
4.58707
4.623
4.6662
4.71496
4.75971
4.79531
4.81022
4.8048
4.78287
4.76033
4.74149
4.72879
4.71792
4.70743
4.69371
4.67947
4.66738
4.65618
4.64086
4.62462
4.60827
4.5965
4.58306
4.56949
4.558
4.54965
4.53986
4.5321
4.52223
4.5122
4.4998
4.48842
4.47703
4.47332
4.47233
4.47494
4.47385
4.47526
4.47299
4.47686
4.47369
4.46852
4.45107
4.43899
4.41409
4.38668
4.35171
4.32431
4.30539
4.28878
4.27254
4.25569
4.2401
4.22478
4.21121
4.19801
4.18786
4.1776
4.17174
4.16732
4.16217
4.15684
4.15015
4.14187
4.13302
4.12226
4.11301
4.10397
4.09594
4.08816
4.08184
4.07587
4.07135
4.06733
4.06391
4.06147
4.0586
4.05804
4.05475
4.05638
4.05267
4.05755
4.05445
4.06293
4.06139
4.07168
4.07106
4.0819
4.08281
4.09808
4.10795
4.14084
4.16324
4.18703
4.18769
4.1867
4.18999
4.18972
4.19362
4.19365
4.19695
4.19684
4.19947
4.19914
4.20111
4.20066
4.20209
4.20163
4.20268
4.2022
4.2029
4.20243
4.20282
4.20246
4.20266
4.20235
4.20243
4.20211
4.20217
4.20187
4.20198
4.20172
4.20189
4.20174
4.20201
4.20197
4.20234
4.20244
4.20291
4.20304
4.20359
4.20381
4.20439
4.2047
4.20538
4.20586
4.20667
4.20724
4.20816
4.20884
4.20987
4.21061
4.21175
4.21261
4.21383
4.21479
4.21615
4.21721
4.21864
4.21973
4.22121
4.22232
4.22382
4.22487
4.22645
4.22751
4.22917
4.23026
4.23202
4.23313
4.23499
4.23609
4.238
4.2391
4.24104
4.24213
4.24409
4.24519
4.24717
4.24827
4.2503
4.25136
4.25345
4.25443
4.25656
4.25751
4.25974
4.26061
4.26295
4.26374
4.26616
4.26689
4.26943
4.27005
4.27267
4.27319
4.2759
4.27634
4.27917
4.27948
4.28244
4.28264
4.28569
4.28577
4.28894
4.28889
4.29219
4.29204
4.29545
4.29522
4.29871
4.29845
4.30192
4.30168
4.30495
4.30472
4.30773
4.30748
4.31016
4.3099
4.31233
4.31222
4.31439
4.31438
4.31633
4.31638
4.31812
4.31821
4.31979
4.31995
4.32137
4.32156
4.32288
4.32305
4.32422
4.32436
4.32536
4.32544
4.32629
4.32631
4.327
4.32692
4.3274
4.32723
4.32751
4.32728
4.32745
4.32718
4.32717
4.32678
4.32658
4.32606
4.32573
4.32511
4.32466
4.32394
4.32336
4.32253
4.32184
4.32095
4.32013
4.31917
4.31827
4.31722
4.31622
4.3151
4.314
4.31277
4.31156
4.31025
4.30893
4.30754
4.30613
4.30469
4.30322
4.30167
4.3001
4.29846
4.29681
4.29509
4.29333
4.29151
4.28966
4.28774
4.28574
4.28367
4.28149
4.27929
4.27702
4.27472
4.27239
4.27007
4.26771
4.26534
4.26296
4.26059
4.2582
4.25581
4.25342
4.25104
4.24865
4.24629
4.24391
4.24158
4.23923
4.23695
4.23468
4.23245
4.23026
4.22811
4.226
4.22393
4.22188
4.21987
4.21788
4.21595
4.21408
4.21225
4.21049
4.2088
4.20714
4.20558
4.20406
4.20265
4.2013
4.20003
4.19883
4.1977
4.19665
4.19564
4.19472
4.19385
4.19305
4.19231
4.19168
4.19112
4.19064
4.19025
4.18991
4.18963
4.1894
4.18919
4.18904
4.18892
4.18884
4.18879
4.18879
4.18886
4.18895
4.18909
4.18928
4.18951
4.18981
4.19014
4.19055
4.19101
4.19153
4.19207
4.19266
4.19327
4.1939
4.19458
4.19531
4.19606
4.19687
4.19772
4.19862
4.19956
4.20055
4.20157
4.20263
4.20368
4.20477
4.20587
4.20698
4.2081
4.20925
4.21038
4.21152
4.21263
4.21374
4.21485
4.21597
4.2171
4.21823
4.21935
4.22047
4.22158
4.22269
4.22378
4.22486
4.22595
4.22703
4.22813
4.22923
4.23034
4.23143
4.23253
4.23361
4.23467
4.23572
4.23675
4.23777
4.23877
4.23977
4.24077
4.24173
4.24265
4.24352
4.24437
4.24515
4.24592
4.24666
4.24741
4.24816
4.24892
4.24967
4.25043
4.25115
4.25185
4.25252
4.25319
4.25384
4.25452
4.25517
4.25584
4.25648
4.2571
4.25768
4.25825
4.25879
4.25934
4.25988
4.26043
4.26093
4.26142
4.26186
4.2623
4.26272
4.26317
4.26363
4.26409
4.26453
4.26498
4.26535
4.26573
4.26606
4.26637
4.26674
4.26707
4.26746
4.26758
4.26799
4.26745
4.26875
4.26716
4.27038
4.26739
4.27438
4.26972
4.28241
4.27653
4.29622
4.29048
4.31731
4.31367
4.35196
4.36665
4.4416
4.54355
4.80328
5.42726
6.4428
7.37484
7.83539
8.50585
9.51077
11.0641
13.0731
15.6471
17.1496
15.1059
11.6453
0.585631
0.587832
0.59509
0.603954
0.612806
0.621922
0.630597
0.640197
0.651125
0.664061
0.679185
0.696492
0.715042
0.734485
0.754822
0.775558
0.796577
0.817923
0.839795
0.86229
0.885802
0.910652
0.936941
0.965199
0.995467
1.02779
1.06189
1.09763
1.13487
1.17346
1.21332
1.2546
1.29815
1.34459
1.39379
1.4455
1.49935
1.55505
1.61258
1.67203
1.7333
1.79643
1.86118
1.92747
1.99507
2.06383
2.13344
2.20387
2.27461
2.34573
2.41668
2.48755
2.55765
2.62712
2.69511
2.76192
2.82664
2.88954
2.95024
3.00829
3.06439
3.11737
3.16817
3.21439
3.25749
3.29547
3.33199
3.36605
3.40113
3.4349
3.46935
3.4984
3.52394
3.54565
3.56594
3.58396
3.6002
3.61513
3.63603
3.66534
3.70202
3.73864
3.7698
3.7878
3.79178
3.78779
3.78359
3.7817
3.78287
3.78343
3.78282
3.78035
3.77728
3.77369
3.76897
3.76178
3.7532
3.74328
3.73539
3.72745
3.71956
3.71191
3.70554
3.69921
3.694
3.687
3.67893
3.66868
3.65889
3.64984
3.64578
3.64498
3.64873
3.65126
3.65377
3.65349
3.65605
3.65466
3.65139
3.6398
3.6284
3.60967
3.58944
3.56681
3.54947
3.53742
3.5271
3.51653
3.5058
3.4957
3.48578
3.47702
3.46861
3.46192
3.45536
3.45138
3.44803
3.44438
3.44098
3.43672
3.43147
3.42614
3.41985
3.41436
3.40909
3.40457
3.40029
3.39695
3.39393
3.39184
3.39016
3.38895
3.38838
3.38769
3.38835
3.38764
3.38965
3.38883
3.39282
3.39269
3.39881
3.39981
3.40714
3.4089
3.41684
3.4199
3.43083
3.43937
3.4598
3.47422
3.48982
3.49346
3.49506
3.49885
3.50072
3.50476
3.50673
3.51045
3.51232
3.51564
3.51733
3.52025
3.52184
3.52444
3.52598
3.52837
3.5299
3.53211
3.53364
3.53567
3.53722
3.53913
3.54075
3.54258
3.54418
3.54602
3.54764
3.5495
3.55116
3.55308
3.55481
3.5568
3.55859
3.56066
3.56255
3.56467
3.56662
3.56878
3.57079
3.573
3.57508
3.57736
3.5795
3.58188
3.5841
3.58652
3.58881
3.59127
3.5936
3.59611
3.59848
3.60103
3.60343
3.60602
3.60845
3.61105
3.61347
3.61608
3.61847
3.62107
3.62343
3.62603
3.62834
3.63094
3.63323
3.63586
3.63811
3.64075
3.64296
3.64559
3.64777
3.65037
3.65249
3.65508
3.65717
3.65975
3.66178
3.66436
3.66636
3.66894
3.67089
3.67348
3.67539
3.67799
3.67983
3.68245
3.68421
3.68686
3.68856
3.69122
3.69284
3.69551
3.69703
3.69971
3.70114
3.70386
3.7052
3.70794
3.70918
3.71195
3.7131
3.71592
3.71696
3.7198
3.72076
3.72363
3.72451
3.72741
3.72823
3.7311
3.73186
3.7346
3.73529
3.73788
3.73857
3.74094
3.74166
3.74383
3.7446
3.74659
3.74738
3.74922
3.75001
3.75171
3.75251
3.75412
3.75491
3.75642
3.7572
3.7586
3.75935
3.76064
3.76133
3.76251
3.76313
3.76421
3.76479
3.76572
3.76623
3.767
3.76742
3.76809
3.76847
3.76905
3.76936
3.76983
3.77003
3.77036
3.77046
3.77068
3.7707
3.77081
3.77073
3.77071
3.77052
3.77041
3.77013
3.76987
3.7695
3.76913
3.76866
3.76818
3.76759
3.76698
3.76627
3.76553
3.76468
3.7638
3.76284
3.76181
3.76072
3.7596
3.7584
3.75716
3.75585
3.75449
3.75307
3.75159
3.75005
3.74846
3.7468
3.74508
3.74328
3.74141
3.73948
3.7375
3.73548
3.73343
3.73135
3.72925
3.72714
3.725
3.72284
3.72067
3.7185
3.71631
3.71414
3.71196
3.70979
3.70762
3.70546
3.7033
3.70118
3.69908
3.69703
3.69498
3.69297
3.69098
3.68903
3.6871
3.6852
3.68334
3.68151