/*--------------------------------*- C++ -*----------------------------------*\
| =========                 |                                                 |
| \\      /  F ield         | foam-extend: Open Source CFD                    |
|  \\    /   O peration     | Version:     3.2                                |
|   \\  /    A nd           | Web:         http://www.foam-extend.org         |
|    \\/     M anipulation  | For copyright notice see file Copyright         |
\*---------------------------------------------------------------------------*/
FoamFile
{
    version     2.0;
    format      ascii;
    class       volScalarField;
    location    "1440";
    object      pd;
}
// * * * * * * * * * * * * * * * * * * * * * * * * * * * * * * * * * * * * * //

dimensions      [1 -1 -2 0 0 0 0];

internalField   nonuniform List<scalar> 
33000
(
1201.54
1202.25
1203.03
1205.12
1206.03
1207.9
1208.63
1209.93
1210.43
1211.25
1211.6
1212.24
1212.44
1212.67
1212.97
1213.14
1213.22
1213.43
1213.53
1213.62
1213.7
1213.74
1213.82
1213.88
1213.91
1213.96
1214
1214.06
1214.09
1214.11
1214.14
1214.17
1214.2
1214.23
1214.24
1214.27
1214.27
1214.3
1214.32
1214.32
1214.34
1214.35
1214.35
1214.36
1214.37
1214.36
1214.36
1214.34
1214.32
1214.3
1214.26
1214.21
1214.15
1214.06
1213.95
1213.81
1213.62
1213.38
1213.03
1212.47
1211.42
1210.87
1212.89
1214.65
1212.12
1207.23
1205.56
1206.85
1208.04
1207.92
1210.12
1216.64
1222.46
1218.97
1211.68
1208.86
1207.03
1203.56
1208.03
1218.93
1215.79
1201.51
1194.58
1189.65
1181.03
1175.63
1177.95
1177.43
1169.69
1170.43
1186.08
1201.49
1204.29
1198.52
1192.12
1190.93
1200.95
1213.1
1215.88
1213.63
1213.16
1213.17
1212.4
1210.92
1208.6
1212.06
1224.35
1225.83
1215.55
1212.19
1214.07
1213.84
1214.39
1215.14
1214.95
1214.17
1214.87
1214.32
1214.93
1214.38
1215.19
1213.99
1215.69
1214.1
1214.29
1214
1213.85
1213.74
1213.56
1213.51
1213.33
1213.3
1213.14
1213.14
1213.01
1213.07
1212.89
1213.02
1213.22
1212.9
1212.8
1213.2
1212.61
1212.7
1212.46
1212.47
1212.3
1212.28
1212.15
1212.12
1212.03
1211.97
1211.97
1211.75
1212.02
1211.45
1212.18
1211.04
1212.35
1210.67
1212.48
1210.52
1212.52
1210.55
1212.52
1210.57
1212.49
1210.52
1212.68
1210.69
1213.86
1212.46
1212.23
1212.71
1212.07
1212.72
1212.09
1212.67
1212.14
1212.62
1212.19
1212.56
1212.22
1212.51
1212.25
1212.45
1212.27
1212.4
1212.28
1212.35
1212.27
1212.31
1212.26
1212.27
1212.23
1212.24
1212.2
1212.2
1212.16
1212.17
1212.13
1212.13
1212.09
1212.09
1212.05
1212.05
1212.01
1212.02
1211.98
1211.98
1211.94
1211.94
1211.9
1211.9
1211.85
1211.85
1211.81
1211.81
1211.76
1211.76
1211.72
1211.72
1211.67
1211.67
1211.62
1211.62
1211.56
1211.58
1211.5
1211.54
1211.43
1211.5
1211.37
1211.46
1211.31
1211.42
1211.25
1211.38
1211.2
1211.33
1211.15
1211.29
1211.1
1211.25
1211.04
1211.21
1210.98
1211.18
1210.92
1211.15
1210.86
1211.12
1210.8
1211.1
1210.74
1211.08
1210.68
1211.06
1210.61
1211.05
1210.55
1211.03
1210.49
1211.02
1210.43
1211.01
1210.36
1211
1210.3
1211
1210.23
1210.99
1210.17
1210.99
1210.11
1210.98
1210.07
1210.96
1210.06
1210.93
1210.07
1210.89
1210.1
1210.83
1210.15
1210.78
1210.2
1210.74
1210.24
1210.7
1210.28
1210.67
1210.32
1210.65
1210.36
1210.64
1210.4
1210.63
1210.43
1210.62
1210.46
1210.62
1210.49
1210.62
1210.52
1210.62
1210.54
1210.62
1210.56
1210.62
1210.57
1210.63
1210.58
1210.63
1210.59
1210.63
1210.6
1210.63
1210.6
1210.62
1210.61
1210.62
1210.61
1210.62
1210.6
1210.61
1210.6
1210.61
1210.59
1210.6
1210.58
1210.58
1210.57
1210.57
1210.55
1210.55
1210.54
1210.53
1210.52
1210.51
1210.49
1210.48
1210.46
1210.45
1210.43
1210.42
1210.4
1210.38
1210.36
1210.34
1210.32
1210.3
1210.27
1210.24
1210.21
1210.19
1210.15
1210.12
1210.09
1210.06
1210.03
1209.99
1209.96
1209.92
1209.89
1209.86
1209.82
1209.79
1209.75
1209.72
1209.68
1209.65
1209.61
1209.57
1209.54
1209.5
1209.47
1209.43
1209.4
1209.36
1209.33
1209.29
1209.26
1209.22
1209.19
1209.15
1209.12
1209.08
1209.05
1209.01
1208.98
1208.95
1208.91
1208.88
1208.85
1208.81
1208.78
1208.75
1208.72
1208.69
1208.66
1208.63
1208.6
1208.57
1208.54
1208.51
1208.48
1208.46
1208.43
1208.4
1208.38
1208.35
1208.32
1208.3
1208.27
1208.25
1208.22
1208.19
1208.17
1208.14
1208.12
1208.09
1208.06
1208.04
1208.01
1207.98
1207.96
1207.93
1207.9
1207.88
1207.85
1207.82
1207.8
1207.77
1207.75
1207.72
1207.7
1207.67
1207.65
1207.63
1207.6
1207.58
1207.56
1207.54
1207.51
1207.49
1207.47
1207.45
1207.43
1207.4
1207.38
1207.36
1207.33
1207.31
1207.29
1207.26
1207.24
1207.21
1207.19
1207.17
1207.14
1207.11
1207.09
1207.06
1207.04
1207.01
1206.99
1206.96
1206.93
1206.9
1206.88
1206.85
1206.82
1206.8
1206.77
1206.74
1206.71
1206.68
1206.65
1206.63
1206.6
1206.57
1206.54
1206.51
1206.48
1206.45
1206.42
1206.39
1206.36
1206.32
1206.29
1206.26
1206.23
1206.2
1206.16
1206.13
1206.09
1206.06
1206.02
1205.99
1205.96
1205.92
1205.88
1205.85
1205.81
1205.77
1205.74
1205.7
1205.66
1205.63
1205.59
1205.55
1205.51
1205.47
1205.43
1205.41
1205.32
1205.39
1205.15
1205.45
1204.85
1205.68
1204.31
1206.13
1203.48
1206.77
1202.46
1207.48
1201.42
1208.08
1200.69
1208.3
1200.66
1208
1201.24
1207.34
1202.6
1206.88
1208.17
1209.31
1220.93
1213.94
1217.78
1217.64
1218.17
1219.73
1218.9
1219.97
1218.28
1219.74
1201.42
1202.26
1203.02
1205.13
1206.03
1207.92
1208.64
1209.95
1210.45
1211.26
1211.64
1212.24
1212.44
1212.71
1212.98
1213.15
1213.25
1213.44
1213.54
1213.63
1213.7
1213.75
1213.82
1213.87
1213.91
1213.97
1214.01
1214.06
1214.09
1214.12
1214.15
1214.17
1214.2
1214.23
1214.25
1214.27
1214.28
1214.3
1214.32
1214.32
1214.34
1214.36
1214.36
1214.36
1214.37
1214.36
1214.36
1214.35
1214.33
1214.3
1214.26
1214.21
1214.15
1214.07
1213.96
1213.82
1213.63
1213.39
1213.04
1212.52
1211.66
1211.3
1212.77
1213.93
1211.92
1208.09
1206.49
1207.21
1208.23
1208.59
1210.72
1215.85
1220.2
1217.87
1212.47
1209.67
1207.61
1205.04
1208.44
1215.96
1213.52
1202.83
1196.13
1190.61
1183.04
1178.3
1179.15
1178.15
1172.72
1174.07
1186.85
1199.87
1203.29
1199.07
1194
1193.46
1201.66
1211.7
1214.94
1213.72
1213.18
1213
1212.35
1211.15
1209.76
1212.91
1221.92
1223.31
1216.36
1213.4
1214.31
1214.17
1214.53
1214.96
1214.81
1214.22
1214.83
1214.38
1214.9
1214.41
1215.09
1214.07
1215.44
1214.13
1214.3
1214
1213.86
1213.74
1213.58
1213.51
1213.35
1213.31
1213.17
1213.16
1213.03
1213.08
1212.92
1213.04
1213.15
1212.91
1212.81
1213.11
1212.63
1212.69
1212.48
1212.47
1212.31
1212.28
1212.16
1212.12
1212.05
1211.97
1211.98
1211.77
1212
1211.49
1212.13
1211.14
1212.26
1210.81
1212.36
1210.68
1212.39
1210.7
1212.4
1210.73
1212.41
1210.7
1212.64
1210.91
1213.51
1212.39
1212.29
1212.65
1212.12
1212.66
1212.13
1212.63
1212.17
1212.58
1212.21
1212.53
1212.24
1212.48
1212.26
1212.43
1212.28
1212.39
1212.28
1212.34
1212.28
1212.31
1212.26
1212.27
1212.24
1212.23
1212.2
1212.2
1212.17
1212.16
1212.13
1212.13
1212.09
1212.09
1212.05
1212.05
1212.02
1212.01
1211.98
1211.97
1211.94
1211.93
1211.9
1211.89
1211.86
1211.85
1211.81
1211.81
1211.77
1211.76
1211.72
1211.71
1211.67
1211.67
1211.62
1211.62
1211.56
1211.58
1211.5
1211.53
1211.44
1211.49
1211.38
1211.45
1211.32
1211.41
1211.27
1211.37
1211.21
1211.32
1211.16
1211.28
1211.11
1211.24
1211.05
1211.2
1211
1211.16
1210.94
1211.13
1210.88
1211.1
1210.82
1211.08
1210.76
1211.05
1210.7
1211.03
1210.64
1211.02
1210.59
1211
1210.53
1210.99
1210.47
1210.97
1210.41
1210.96
1210.35
1210.95
1210.28
1210.94
1210.22
1210.93
1210.17
1210.92
1210.14
1210.9
1210.12
1210.87
1210.13
1210.83
1210.16
1210.79
1210.2
1210.74
1210.24
1210.7
1210.27
1210.67
1210.31
1210.65
1210.35
1210.63
1210.38
1210.62
1210.42
1210.61
1210.45
1210.61
1210.48
1210.61
1210.5
1210.61
1210.53
1210.61
1210.55
1210.61
1210.56
1210.62
1210.58
1210.62
1210.59
1210.62
1210.6
1210.62
1210.6
1210.62
1210.61
1210.62
1210.61
1210.62
1210.61
1210.62
1210.6
1210.61
1210.6
1210.6
1210.59
1210.59
1210.58
1210.58
1210.57
1210.57
1210.55
1210.55
1210.54
1210.53
1210.51
1210.51
1210.49
1210.48
1210.46
1210.45
1210.43
1210.42
1210.4
1210.38
1210.36
1210.34
1210.32
1210.3
1210.27
1210.24
1210.21
1210.18
1210.15
1210.12
1210.09
1210.06
1210.02
1209.99
1209.96
1209.92
1209.89
1209.85
1209.82
1209.78
1209.75
1209.71
1209.68
1209.64
1209.61
1209.57
1209.54
1209.5
1209.47
1209.43
1209.4
1209.36
1209.33
1209.29
1209.26
1209.22
1209.19
1209.15
1209.12
1209.08
1209.05
1209.01
1208.98
1208.95
1208.91
1208.88
1208.85
1208.81
1208.78
1208.75
1208.72
1208.69
1208.66
1208.63
1208.6
1208.57
1208.54
1208.51
1208.48
1208.46
1208.43
1208.4
1208.38
1208.35
1208.32
1208.3
1208.27
1208.25
1208.22
1208.19
1208.17
1208.14
1208.12
1208.09
1208.06
1208.04
1208.01
1207.98
1207.96
1207.93
1207.9
1207.88
1207.85
1207.82
1207.8
1207.77
1207.75
1207.72
1207.7
1207.67
1207.65
1207.63
1207.6
1207.58
1207.56
1207.54
1207.51
1207.49
1207.47
1207.45
1207.43
1207.4
1207.38
1207.36
1207.33
1207.31
1207.29
1207.26
1207.24
1207.21
1207.19
1207.16
1207.14
1207.11
1207.09
1207.06
1207.04
1207.01
1206.98
1206.96
1206.93
1206.9
1206.88
1206.85
1206.82
1206.8
1206.77
1206.74
1206.71
1206.68
1206.65
1206.63
1206.6
1206.57
1206.54
1206.51
1206.48
1206.45
1206.42
1206.39
1206.35
1206.32
1206.29
1206.26
1206.23
1206.2
1206.16
1206.13
1206.09
1206.06
1206.02
1205.99
1205.95
1205.92
1205.88
1205.85
1205.81
1205.77
1205.74
1205.7
1205.66
1205.63
1205.59
1205.55
1205.51
1205.47
1205.42
1205.41
1205.32
1205.39
1205.16
1205.43
1204.88
1205.62
1204.4
1206
1203.68
1206.53
1202.79
1207.12
1201.92
1207.6
1201.31
1207.79
1201.31
1207.55
1201.92
1207.06
1203.48
1207.4
1208.88
1209.94
1219.91
1213.98
1217.69
1217.65
1218.21
1219.76
1218.94
1219.98
1218.12
1219.5
1201.27
1202.19
1202.97
1205.12
1206.04
1207.92
1208.64
1209.95
1210.44
1211.28
1211.64
1212.23
1212.43
1212.71
1212.96
1213.14
1213.24
1213.43
1213.53
1213.62
1213.7
1213.75
1213.82
1213.88
1213.92
1213.97
1214.01
1214.07
1214.1
1214.12
1214.15
1214.18
1214.21
1214.23
1214.25
1214.27
1214.28
1214.3
1214.33
1214.33
1214.35
1214.36
1214.36
1214.37
1214.37
1214.37
1214.36
1214.35
1214.33
1214.31
1214.27
1214.22
1214.16
1214.07
1213.97
1213.82
1213.64
1213.4
1213.08
1212.57
1211.92
1211.69
1212.79
1213.38
1211.66
1208.69
1207.48
1207.87
1208.57
1209.09
1211.34
1215.52
1218.6
1216.76
1212.73
1210.11
1208.09
1206.47
1209.3
1214.03
1211.51
1203.28
1197.07
1191.49
1185.27
1181.36
1180.8
1179.34
1176.32
1178.45
1188.12
1198.34
1201.97
1199.29
1195.96
1196.33
1202.7
1210.39
1213.67
1213.4
1213.14
1212.97
1212.4
1211.4
1210.83
1213.91
1220.38
1221.22
1216.48
1214.09
1214.4
1214.22
1214.53
1214.94
1214.83
1214.27
1214.78
1214.39
1214.86
1214.42
1215.05
1214.12
1215.33
1214.16
1214.3
1214.01
1213.86
1213.76
1213.58
1213.52
1213.36
1213.31
1213.18
1213.16
1213.04
1213.08
1212.94
1213.04
1213.12
1212.92
1212.82
1213.07
1212.64
1212.69
1212.48
1212.47
1212.32
1212.28
1212.17
1212.12
1212.05
1211.98
1211.98
1211.78
1211.99
1211.51
1212.09
1211.19
1212.21
1210.89
1212.29
1210.77
1212.32
1210.78
1212.33
1210.81
1212.34
1210.81
1212.56
1211.04
1213.36
1212.39
1212.32
1212.62
1212.15
1212.63
1212.16
1212.6
1212.19
1212.56
1212.23
1212.52
1212.25
1212.47
1212.27
1212.43
1212.29
1212.38
1212.29
1212.34
1212.28
1212.3
1212.26
1212.27
1212.24
1212.23
1212.2
1212.2
1212.17
1212.16
1212.13
1212.13
1212.09
1212.09
1212.06
1212.05
1212.02
1212.01
1211.98
1211.97
1211.94
1211.93
1211.9
1211.89
1211.86
1211.85
1211.81
1211.81
1211.77
1211.76
1211.72
1211.71
1211.67
1211.66
1211.62
1211.62
1211.56
1211.57
1211.5
1211.53
1211.44
1211.49
1211.38
1211.45
1211.33
1211.4
1211.27
1211.36
1211.22
1211.32
1211.17
1211.27
1211.12
1211.23
1211.06
1211.19
1211
1211.15
1210.95
1211.12
1210.89
1211.09
1210.83
1211.06
1210.78
1211.04
1210.72
1211.02
1210.66
1211
1210.61
1210.98
1210.55
1210.97
1210.49
1210.95
1210.43
1210.93
1210.37
1210.92
1210.31
1210.91
1210.25
1210.9
1210.21
1210.89
1210.17
1210.87
1210.16
1210.84
1210.16
1210.8
1210.19
1210.76
1210.22
1210.72
1210.26
1210.68
1210.29
1210.65
1210.33
1210.63
1210.36
1210.62
1210.39
1210.61
1210.43
1210.61
1210.46
1210.6
1210.48
1210.6
1210.51
1210.61
1210.53
1210.61
1210.55
1210.61
1210.57
1210.61
1210.58
1210.62
1210.59
1210.62
1210.6
1210.62
1210.6
1210.62
1210.61
1210.62
1210.61
1210.62
1210.61
1210.61
1210.6
1210.61
1210.6
1210.6
1210.59
1210.59
1210.58
1210.58
1210.57
1210.57
1210.55
1210.55
1210.54
1210.53
1210.51
1210.51
1210.49
1210.48
1210.46
1210.45
1210.43
1210.42
1210.4
1210.38
1210.36
1210.34
1210.32
1210.3
1210.27
1210.24
1210.21
1210.18
1210.15
1210.12
1210.09
1210.06
1210.02
1209.99
1209.96
1209.92
1209.89
1209.85
1209.82
1209.78
1209.75
1209.71
1209.68
1209.64
1209.61
1209.57
1209.54
1209.5
1209.47
1209.43
1209.4
1209.36
1209.33
1209.29
1209.26
1209.22
1209.19
1209.15
1209.12
1209.08
1209.05
1209.01
1208.98
1208.95
1208.91
1208.88
1208.85
1208.81
1208.78
1208.75
1208.72
1208.69
1208.66
1208.63
1208.6
1208.57
1208.54
1208.51
1208.48
1208.46
1208.43
1208.4
1208.38
1208.35
1208.32
1208.3
1208.27
1208.25
1208.22
1208.19
1208.17
1208.14
1208.12
1208.09
1208.06
1208.04
1208.01
1207.98
1207.96
1207.93
1207.9
1207.88
1207.85
1207.82
1207.8
1207.77
1207.75
1207.72
1207.7
1207.67
1207.65
1207.63
1207.6
1207.58
1207.56
1207.54
1207.51
1207.49
1207.47
1207.45
1207.43
1207.4
1207.38
1207.36
1207.33
1207.31
1207.29
1207.26
1207.24
1207.21
1207.19
1207.16
1207.14
1207.11
1207.09
1207.06
1207.04
1207.01
1206.98
1206.96
1206.93
1206.9
1206.88
1206.85
1206.82
1206.8
1206.77
1206.74
1206.71
1206.68
1206.65
1206.63
1206.6
1206.57
1206.54
1206.51
1206.48
1206.45
1206.42
1206.39
1206.35
1206.32
1206.29
1206.26
1206.23
1206.19
1206.16
1206.13
1206.09
1206.06
1206.02
1205.99
1205.95
1205.92
1205.88
1205.85
1205.81
1205.77
1205.74
1205.7
1205.66
1205.63
1205.59
1205.55
1205.51
1205.47
1205.42
1205.41
1205.32
1205.38
1205.16
1205.42
1204.9
1205.59
1204.45
1205.93
1203.78
1206.4
1202.97
1206.92
1202.17
1207.36
1201.63
1207.52
1201.65
1207.33
1202.26
1206.93
1203.81
1207.46
1208.74
1209.5
1219
1213.88
1217.38
1217.49
1218.02
1219.7
1218.84
1219.96
1217.99
1219.53
1201.01
1202.1
1202.89
1205.12
1206.06
1207.97
1208.7
1210.01
1210.5
1211.32
1211.67
1212.24
1212.45
1212.75
1212.98
1213.15
1213.28
1213.45
1213.54
1213.63
1213.71
1213.76
1213.83
1213.88
1213.93
1213.98
1214.02
1214.06
1214.09
1214.12
1214.15
1214.18
1214.21
1214.23
1214.25
1214.27
1214.28
1214.3
1214.33
1214.33
1214.35
1214.36
1214.36
1214.37
1214.37
1214.37
1214.37
1214.35
1214.34
1214.31
1214.27
1214.22
1214.17
1214.08
1213.98
1213.84
1213.66
1213.42
1213.11
1212.66
1212.13
1211.99
1212.78
1213.02
1211.51
1209.18
1208.26
1208.49
1209.01
1209.63
1211.77
1215.17
1217.4
1215.99
1212.89
1210.45
1208.52
1207.47
1209.8
1212.72
1210.24
1203.64
1197.89
1192.4
1187.17
1183.91
1182.61
1180.96
1179.47
1182.02
1189.53
1197.57
1201.07
1199.51
1197.47
1198.51
1203.69
1209.69
1212.74
1213.04
1213.06
1213
1212.53
1211.74
1211.66
1214.43
1219.17
1219.75
1216.51
1214.57
1214.5
1214.24
1214.54
1214.91
1214.84
1214.34
1214.75
1214.43
1214.84
1214.43
1214.96
1214.18
1215.14
1214.17
1214.29
1214.01
1213.87
1213.76
1213.6
1213.52
1213.38
1213.32
1213.2
1213.17
1213.06
1213.09
1212.96
1213.05
1213.08
1212.92
1212.83
1213.01
1212.65
1212.68
1212.49
1212.47
1212.33
1212.29
1212.18
1212.13
1212.06
1211.98
1211.98
1211.79
1211.98
1211.55
1212.05
1211.27
1212.14
1211.01
1212.2
1210.9
1212.23
1210.91
1212.24
1210.94
1212.28
1210.97
1212.5
1211.23
1213.12
1212.32
1212.33
1212.56
1212.18
1212.59
1212.19
1212.57
1212.22
1212.53
1212.25
1212.49
1212.27
1212.45
1212.29
1212.41
1212.3
1212.37
1212.29
1212.34
1212.28
1212.3
1212.26
1212.27
1212.23
1212.23
1212.2
1212.2
1212.17
1212.16
1212.13
1212.13
1212.09
1212.09
1212.06
1212.05
1212.02
1212.01
1211.98
1211.97
1211.94
1211.93
1211.9
1211.89
1211.86
1211.85
1211.81
1211.81
1211.77
1211.76
1211.72
1211.71
1211.67
1211.66
1211.62
1211.62
1211.57
1211.57
1211.51
1211.53
1211.45
1211.48
1211.39
1211.44
1211.33
1211.4
1211.28
1211.35
1211.23
1211.31
1211.18
1211.26
1211.12
1211.22
1211.07
1211.18
1211.02
1211.14
1210.96
1211.11
1210.91
1211.08
1210.85
1211.05
1210.8
1211.02
1210.74
1211
1210.69
1210.98
1210.63
1210.96
1210.58
1210.94
1210.52
1210.92
1210.47
1210.9
1210.41
1210.88
1210.35
1210.87
1210.3
1210.86
1210.26
1210.84
1210.22
1210.82
1210.21
1210.79
1210.21
1210.76
1210.23
1210.72
1210.26
1210.68
1210.29
1210.65
1210.32
1210.63
1210.35
1210.61
1210.38
1210.6
1210.41
1210.59
1210.44
1210.59
1210.47
1210.59
1210.49
1210.59
1210.52
1210.6
1210.54
1210.6
1210.56
1210.61
1210.57
1210.61
1210.58
1210.62
1210.59
1210.62
1210.6
1210.62
1210.6
1210.62
1210.61
1210.62
1210.61
1210.62
1210.61
1210.61
1210.6
1210.61
1210.6
1210.6
1210.59
1210.59
1210.58
1210.58
1210.57
1210.57
1210.55
1210.55
1210.53
1210.53
1210.51
1210.5
1210.49
1210.48
1210.46
1210.45
1210.43
1210.42
1210.4
1210.38
1210.36
1210.34
1210.31
1210.29
1210.27
1210.24
1210.21
1210.18
1210.15
1210.12
1210.09
1210.06
1210.02
1209.99
1209.96
1209.92
1209.89
1209.85
1209.82
1209.78
1209.75
1209.71
1209.68
1209.64
1209.61
1209.57
1209.54
1209.5
1209.47
1209.43
1209.4
1209.36
1209.33
1209.29
1209.26
1209.22
1209.19
1209.15
1209.12
1209.08
1209.05
1209.01
1208.98
1208.95
1208.91
1208.88
1208.85
1208.81
1208.78
1208.75
1208.72
1208.69
1208.66
1208.63
1208.6
1208.57
1208.54
1208.51
1208.48
1208.46
1208.43
1208.4
1208.38
1208.35
1208.32
1208.3
1208.27
1208.25
1208.22
1208.19
1208.17
1208.14
1208.12
1208.09
1208.06
1208.04
1208.01
1207.98
1207.96
1207.93
1207.9
1207.88
1207.85
1207.82
1207.8
1207.77
1207.75
1207.72
1207.7
1207.67
1207.65
1207.63
1207.6
1207.58
1207.56
1207.54
1207.51
1207.49
1207.47
1207.45
1207.43
1207.4
1207.38
1207.36
1207.33
1207.31
1207.29
1207.26
1207.24
1207.21
1207.19
1207.16
1207.14
1207.11
1207.09
1207.06
1207.04
1207.01
1206.98
1206.96
1206.93
1206.9
1206.88
1206.85
1206.82
1206.79
1206.77
1206.74
1206.71
1206.68
1206.65
1206.63
1206.6
1206.57
1206.54
1206.51
1206.48
1206.45
1206.42
1206.39
1206.35
1206.32
1206.29
1206.26
1206.23
1206.19
1206.16
1206.13
1206.09
1206.06
1206.02
1205.99
1205.95
1205.92
1205.88
1205.85
1205.81
1205.77
1205.73
1205.7
1205.66
1205.62
1205.58
1205.55
1205.51
1205.47
1205.42
1205.41
1205.32
1205.38
1205.17
1205.41
1204.93
1205.54
1204.52
1205.82
1203.93
1206.21
1203.23
1206.65
1202.55
1207.01
1202.11
1207.16
1202.17
1207.03
1202.8
1206.77
1204.44
1207.75
1209.1
1209.87
1217.84
1213.83
1216.96
1217.27
1217.74
1219.47
1218.69
1219.91
1217.93
1219.43
1200.69
1201.95
1202.78
1205.1
1206.07
1208
1208.73
1210.04
1210.53
1211.36
1211.7
1212.25
1212.47
1212.76
1212.97
1213.16
1213.27
1213.43
1213.53
1213.63
1213.71
1213.76
1213.83
1213.88
1213.93
1213.98
1214.02
1214.07
1214.1
1214.13
1214.16
1214.19
1214.22
1214.24
1214.26
1214.28
1214.29
1214.31
1214.33
1214.34
1214.35
1214.36
1214.37
1214.37
1214.38
1214.37
1214.37
1214.35
1214.34
1214.31
1214.28
1214.23
1214.17
1214.09
1213.99
1213.85
1213.68
1213.45
1213.16
1212.73
1212.33
1212.21
1212.78
1212.76
1211.48
1209.61
1208.9
1209.02
1209.47
1210.11
1212.11
1214.84
1216.5
1215.38
1212.97
1210.77
1209.01
1208.27
1210.06
1211.74
1209.4
1203.97
1198.71
1193.52
1188.97
1186.06
1184.42
1182.85
1182.31
1184.93
1190.89
1197.33
1200.58
1199.88
1198.84
1200.19
1204.48
1209.3
1212.12
1212.77
1212.97
1212.96
1212.64
1212.1
1212.37
1214.77
1218.23
1218.64
1216.43
1214.89
1214.65
1214.35
1214.58
1214.85
1214.83
1214.38
1214.73
1214.44
1214.82
1214.44
1214.9
1214.22
1215.03
1214.2
1214.28
1214.01
1213.88
1213.76
1213.61
1213.53
1213.39
1213.33
1213.21
1213.18
1213.07
1213.1
1212.97
1213.03
1213.07
1212.92
1212.83
1212.98
1212.67
1212.68
1212.5
1212.47
1212.34
1212.29
1212.19
1212.13
1212.06
1211.99
1211.98
1211.81
1211.97
1211.58
1212.02
1211.32
1212.08
1211.09
1212.13
1210.99
1212.16
1211
1212.17
1211.03
1212.22
1211.08
1212.43
1211.35
1212.97
1212.32
1212.35
1212.53
1212.21
1212.56
1212.21
1212.54
1212.24
1212.51
1212.26
1212.48
1212.28
1212.44
1212.3
1212.4
1212.3
1212.37
1212.3
1212.33
1212.28
1212.3
1212.26
1212.27
1212.24
1212.23
1212.2
1212.2
1212.17
1212.16
1212.13
1212.13
1212.09
1212.09
1212.06
1212.05
1212.02
1212.01
1211.98
1211.98
1211.94
1211.94
1211.9
1211.89
1211.86
1211.85
1211.82
1211.81
1211.77
1211.76
1211.72
1211.71
1211.67
1211.67
1211.62
1211.62
1211.57
1211.57
1211.51
1211.52
1211.45
1211.48
1211.39
1211.44
1211.34
1211.39
1211.29
1211.35
1211.23
1211.3
1211.18
1211.26
1211.13
1211.21
1211.08
1211.17
1211.02
1211.13
1210.97
1211.1
1210.92
1211.06
1210.86
1211.04
1210.81
1211.01
1210.76
1210.98
1210.7
1210.96
1210.65
1210.94
1210.6
1210.91
1210.55
1210.89
1210.49
1210.87
1210.44
1210.86
1210.39
1210.84
1210.33
1210.82
1210.29
1210.81
1210.26
1210.79
1210.24
1210.76
1210.25
1210.73
1210.26
1210.69
1210.28
1210.66
1210.31
1210.63
1210.34
1210.61
1210.37
1210.6
1210.4
1210.59
1210.42
1210.59
1210.45
1210.58
1210.48
1210.59
1210.5
1210.59
1210.53
1210.59
1210.55
1210.6
1210.56
1210.6
1210.58
1210.61
1210.59
1210.61
1210.59
1210.62
1210.6
1210.62
1210.61
1210.62
1210.61
1210.62
1210.61
1210.62
1210.61
1210.61
1210.6
1210.61
1210.6
1210.6
1210.59
1210.59
1210.58
1210.58
1210.57
1210.57
1210.55
1210.55
1210.53
1210.53
1210.51
1210.5
1210.49
1210.48
1210.46
1210.45
1210.43
1210.41
1210.4
1210.38
1210.36
1210.34
1210.31
1210.29
1210.27
1210.24
1210.21
1210.18
1210.15
1210.12
1210.09
1210.06
1210.02
1209.99
1209.95
1209.92
1209.89
1209.85
1209.82
1209.78
1209.75
1209.71
1209.68
1209.64
1209.61
1209.57
1209.54
1209.5
1209.47
1209.43
1209.4
1209.36
1209.33
1209.29
1209.26
1209.22
1209.19
1209.15
1209.12
1209.08
1209.05
1209.01
1208.98
1208.95
1208.91
1208.88
1208.85
1208.81
1208.78
1208.75
1208.72
1208.69
1208.66
1208.63
1208.6
1208.57
1208.54
1208.51
1208.48
1208.46
1208.43
1208.4
1208.38
1208.35
1208.32
1208.3
1208.27
1208.25
1208.22
1208.19
1208.17
1208.14
1208.12
1208.09
1208.06
1208.04
1208.01
1207.98
1207.96
1207.93
1207.9
1207.88
1207.85
1207.82
1207.8
1207.77
1207.75
1207.72
1207.7
1207.67
1207.65
1207.63
1207.6
1207.58
1207.56
1207.54
1207.51
1207.49
1207.47
1207.45
1207.43
1207.4
1207.38
1207.36
1207.33
1207.31
1207.29
1207.26
1207.24
1207.21
1207.19
1207.16
1207.14
1207.11
1207.09
1207.06
1207.04
1207.01
1206.98
1206.96
1206.93
1206.9
1206.88
1206.85
1206.82
1206.8
1206.77
1206.74
1206.71
1206.68
1206.65
1206.63
1206.6
1206.57
1206.54
1206.51
1206.48
1206.45
1206.42
1206.39
1206.35
1206.32
1206.29
1206.26
1206.23
1206.19
1206.16
1206.13
1206.09
1206.06
1206.02
1205.99
1205.95
1205.92
1205.88
1205.85
1205.81
1205.77
1205.73
1205.7
1205.66
1205.62
1205.58
1205.55
1205.51
1205.47
1205.42
1205.41
1205.32
1205.37
1205.18
1205.39
1204.95
1205.5
1204.58
1205.74
1204.05
1206.08
1203.42
1206.45
1202.82
1206.76
1202.45
1206.9
1202.54
1206.81
1203.17
1206.65
1204.79
1207.73
1208.94
1209.64
1216.69
1213.66
1216.35
1216.88
1217.22
1219.08
1218.32
1219.79
1217.89
1219.64
1200.26
1201.76
1202.62
1205.08
1206.08
1208.05
1208.77
1210.1
1210.58
1211.41
1211.74
1212.28
1212.49
1212.79
1212.99
1213.17
1213.3
1213.45
1213.55
1213.64
1213.72
1213.77
1213.84
1213.89
1213.94
1213.99
1214.03
1214.07
1214.1
1214.13
1214.16
1214.19
1214.21
1214.24
1214.26
1214.28
1214.29
1214.31
1214.33
1214.34
1214.35
1214.36
1214.37
1214.38
1214.38
1214.38
1214.37
1214.36
1214.35
1214.32
1214.29
1214.24
1214.18
1214.1
1214
1213.87
1213.7
1213.48
1213.21
1212.83
1212.5
1212.4
1212.77
1212.61
1211.5
1210.01
1209.43
1209.5
1209.9
1210.56
1212.34
1214.55
1215.8
1214.91
1212.99
1211.04
1209.49
1208.94
1210.2
1211.02
1208.84
1204.25
1199.46
1194.69
1190.71
1188.03
1186.25
1184.89
1184.89
1187.41
1192.26
1197.45
1200.39
1200.35
1200.07
1201.58
1205.17
1209.12
1211.66
1212.55
1212.9
1212.96
1212.75
1212.42
1212.89
1214.94
1217.53
1217.82
1216.29
1215.06
1214.74
1214.44
1214.62
1214.81
1214.83
1214.41
1214.72
1214.44
1214.8
1214.45
1214.84
1214.26
1214.9
1214.2
1214.27
1214.01
1213.89
1213.76
1213.63
1213.54
1213.41
1213.35
1213.23
1213.2
1213.08
1213.11
1212.99
1213.03
1213.05
1212.92
1212.84
1212.94
1212.67
1212.67
1212.51
1212.47
1212.35
1212.3
1212.19
1212.14
1212.07
1211.99
1211.98
1211.82
1211.96
1211.61
1211.99
1211.38
1212.03
1211.18
1212.07
1211.09
1212.09
1211.09
1212.11
1211.13
1212.17
1211.19
1212.37
1211.48
1212.82
1212.28
1212.35
1212.49
1212.23
1212.53
1212.23
1212.52
1212.25
1212.49
1212.28
1212.46
1212.29
1212.43
1212.3
1212.4
1212.3
1212.36
1212.3
1212.33
1212.28
1212.3
1212.26
1212.27
1212.24
1212.23
1212.2
1212.2
1212.17
1212.16
1212.13
1212.13
1212.09
1212.09
1212.06
1212.05
1212.02
1212.01
1211.98
1211.98
1211.94
1211.94
1211.9
1211.9
1211.86
1211.85
1211.82
1211.81
1211.77
1211.76
1211.72
1211.71
1211.67
1211.67
1211.62
1211.62
1211.57
1211.57
1211.51
1211.52
1211.46
1211.48
1211.4
1211.43
1211.35
1211.39
1211.29
1211.34
1211.24
1211.3
1211.19
1211.25
1211.14
1211.21
1211.09
1211.17
1211.03
1211.13
1210.98
1211.09
1210.93
1211.05
1210.88
1211.02
1210.83
1210.99
1210.77
1210.97
1210.72
1210.94
1210.67
1210.92
1210.62
1210.89
1210.57
1210.87
1210.52
1210.85
1210.47
1210.83
1210.42
1210.81
1210.37
1210.79
1210.33
1210.77
1210.3
1210.75
1210.28
1210.73
1210.28
1210.7
1210.29
1210.67
1210.31
1210.64
1210.34
1210.61
1210.36
1210.6
1210.38
1210.58
1210.41
1210.58
1210.44
1210.58
1210.46
1210.58
1210.49
1210.58
1210.51
1210.58
1210.53
1210.59
1210.55
1210.6
1210.57
1210.6
1210.58
1210.61
1210.59
1210.61
1210.6
1210.62
1210.6
1210.62
1210.61
1210.62
1210.61
1210.62
1210.61
1210.62
1210.61
1210.61
1210.6
1210.61
1210.6
1210.6
1210.59
1210.59
1210.58
1210.58
1210.57
1210.57
1210.55
1210.55
1210.53
1210.53
1210.51
1210.5
1210.49
1210.48
1210.46
1210.45
1210.43
1210.41
1210.39
1210.38
1210.36
1210.34
1210.31
1210.29
1210.26
1210.24
1210.21
1210.18
1210.15
1210.12
1210.09
1210.05
1210.02
1209.99
1209.95
1209.92
1209.89
1209.85
1209.82
1209.78
1209.75
1209.71
1209.68
1209.64
1209.61
1209.57
1209.54
1209.5
1209.47
1209.43
1209.4
1209.36
1209.33
1209.29
1209.26
1209.22
1209.19
1209.15
1209.12
1209.08
1209.05
1209.01
1208.98
1208.94
1208.91
1208.88
1208.85
1208.81
1208.78
1208.75
1208.72
1208.69
1208.66
1208.63
1208.6
1208.57
1208.54
1208.51
1208.48
1208.46
1208.43
1208.4
1208.38
1208.35
1208.32
1208.3
1208.27
1208.25
1208.22
1208.2
1208.17
1208.14
1208.12
1208.09
1208.06
1208.04
1208.01
1207.98
1207.96
1207.93
1207.9
1207.88
1207.85
1207.82
1207.8
1207.77
1207.75
1207.72
1207.7
1207.67
1207.65
1207.63
1207.6
1207.58
1207.56
1207.54
1207.51
1207.49
1207.47
1207.45
1207.42
1207.4
1207.38
1207.36
1207.33
1207.31
1207.29
1207.26
1207.24
1207.21
1207.19
1207.16
1207.14
1207.11
1207.09
1207.06
1207.04
1207.01
1206.98
1206.96
1206.93
1206.9
1206.88
1206.85
1206.82
1206.79
1206.77
1206.74
1206.71
1206.68
1206.65
1206.62
1206.59
1206.57
1206.54
1206.51
1206.48
1206.45
1206.42
1206.38
1206.35
1206.32
1206.29
1206.26
1206.23
1206.19
1206.16
1206.13
1206.09
1206.06
1206.02
1205.99
1205.95
1205.92
1205.88
1205.85
1205.81
1205.77
1205.73
1205.7
1205.66
1205.62
1205.58
1205.55
1205.5
1205.47
1205.42
1205.4
1205.33
1205.37
1205.18
1205.38
1204.97
1205.46
1204.64
1205.66
1204.17
1205.94
1203.62
1206.25
1203.11
1206.51
1202.81
1206.64
1202.93
1206.61
1203.58
1206.56
1205.22
1207.81
1209.09
1209.64
1215.79
1213.48
1215.73
1216.43
1216.6
1218.5
1217.85
1219.5
1217.94
1219.87
1199.74
1201.56
1202.48
1205.09
1206.12
1208.12
1208.84
1210.16
1210.63
1211.45
1211.77
1212.3
1212.52
1212.81
1213
1213.19
1213.31
1213.45
1213.55
1213.64
1213.72
1213.78
1213.84
1213.9
1213.94
1213.99
1214.03
1214.07
1214.11
1214.14
1214.17
1214.19
1214.22
1214.24
1214.26
1214.28
1214.3
1214.32
1214.33
1214.34
1214.36
1214.37
1214.37
1214.38
1214.38
1214.38
1214.38
1214.36
1214.35
1214.32
1214.29
1214.24
1214.19
1214.11
1214.01
1213.89
1213.73
1213.52
1213.26
1212.93
1212.65
1212.56
1212.77
1212.53
1211.58
1210.38
1209.9
1209.94
1210.3
1210.97
1212.52
1214.31
1215.26
1214.56
1212.99
1211.28
1209.94
1209.49
1210.3
1210.54
1208.52
1204.57
1200.23
1195.88
1192.36
1189.89
1188.12
1186.97
1187.25
1189.59
1193.61
1197.84
1200.48
1200.9
1201.16
1202.74
1205.8
1209.09
1211.37
1212.37
1212.84
1212.97
1212.88
1212.72
1213.28
1215
1216.98
1217.21
1216.15
1215.16
1214.82
1214.52
1214.66
1214.77
1214.82
1214.44
1214.72
1214.45
1214.78
1214.45
1214.79
1214.28
1214.81
1214.21
1214.26
1214.01
1213.89
1213.77
1213.64
1213.55
1213.42
1213.36
1213.24
1213.21
1213.09
1213.11
1213
1213.02
1213.04
1212.92
1212.84
1212.91
1212.68
1212.67
1212.51
1212.47
1212.35
1212.3
1212.2
1212.14
1212.07
1212
1211.98
1211.83
1211.95
1211.64
1211.96
1211.43
1211.99
1211.25
1212.02
1211.17
1212.04
1211.17
1212.06
1211.21
1212.12
1211.29
1212.32
1211.57
1212.7
1212.26
1212.36
1212.46
1212.25
1212.5
1212.25
1212.49
1212.27
1212.47
1212.29
1212.45
1212.3
1212.42
1212.31
1212.39
1212.31
1212.36
1212.3
1212.33
1212.28
1212.3
1212.26
1212.27
1212.24
1212.23
1212.2
1212.2
1212.17
1212.16
1212.13
1212.13
1212.09
1212.09
1212.06
1212.05
1212.02
1212.02
1211.98
1211.98
1211.94
1211.94
1211.9
1211.9
1211.86
1211.85
1211.82
1211.81
1211.77
1211.76
1211.72
1211.72
1211.68
1211.67
1211.62
1211.62
1211.57
1211.57
1211.52
1211.52
1211.46
1211.47
1211.4
1211.43
1211.35
1211.38
1211.3
1211.34
1211.25
1211.29
1211.2
1211.25
1211.15
1211.2
1211.09
1211.16
1211.04
1211.12
1210.99
1211.08
1210.94
1211.05
1210.89
1211.01
1210.84
1210.98
1210.79
1210.95
1210.74
1210.93
1210.69
1210.9
1210.64
1210.88
1210.59
1210.85
1210.54
1210.83
1210.49
1210.8
1210.44
1210.78
1210.4
1210.76
1210.36
1210.74
1210.33
1210.72
1210.31
1210.7
1210.31
1210.67
1210.32
1210.64
1210.33
1210.62
1210.36
1210.6
1210.38
1210.58
1210.4
1210.57
1210.42
1210.57
1210.45
1210.57
1210.47
1210.57
1210.5
1210.57
1210.52
1210.58
1210.54
1210.59
1210.56
1210.59
1210.57
1210.6
1210.58
1210.61
1210.59
1210.61
1210.6
1210.62
1210.6
1210.62
1210.61
1210.62
1210.61
1210.62
1210.61
1210.62
1210.61
1210.61
1210.6
1210.61
1210.6
1210.6
1210.59
1210.59
1210.58
1210.58
1210.57
1210.57
1210.55
1210.55
1210.53
1210.53
1210.51
1210.5
1210.49
1210.48
1210.46
1210.45
1210.43
1210.41
1210.39
1210.38
1210.35
1210.34
1210.31
1210.29
1210.26
1210.24
1210.21
1210.18
1210.15
1210.12
1210.09
1210.05
1210.02
1209.99
1209.95
1209.92
1209.88
1209.85
1209.81
1209.78
1209.75
1209.71
1209.68
1209.64
1209.61
1209.57
1209.54
1209.5
1209.47
1209.43
1209.4
1209.36
1209.33
1209.29
1209.26
1209.22
1209.19
1209.15
1209.12
1209.08
1209.05
1209.01
1208.98
1208.94
1208.91
1208.88
1208.85