/*--------------------------------*- C++ -*----------------------------------*\
| =========                 |                                                 |
| \\      /  F ield         | foam-extend: Open Source CFD                    |
|  \\    /   O peration     | Version:     3.2                                |
|   \\  /    A nd           | Web:         http://www.foam-extend.org         |
|    \\/     M anipulation  | For copyright notice see file Copyright         |
\*---------------------------------------------------------------------------*/
FoamFile
{
    version     2.0;
    format      ascii;
    class       areaVectorField;
    location    "1440";
    object      PointNormalVector;
}
// * * * * * * * * * * * * * * * * * * * * * * * * * * * * * * * * * * * * * //

dimensions      [0 0 0 0 0 0 0];

internalField   nonuniform List<vector> 
550
(
(7.27272e-07 0 0.000363636)
(7.27274e-07 0 0.000363636)
(7.27274e-07 2.64698e-23 0.000363638)
(7.2728e-07 -2.64698e-23 0.000363636)
(7.2726e-07 -2.64698e-23 0.000363636)
(7.2728e-07 0 0.000363638)
(7.2726e-07 2.64698e-23 0.00036364)
(7.2728e-07 2.64698e-23 0.00036364)
(7.2728e-07 0 0.00036362)
(7.2726e-07 0 0.00036364)
(8.9918e-07 0 0.00036364)
(7.2728e-07 0 0.00036364)
(5.5536e-07 0 0.00036364)
(8.6536e-07 0 0.00036362)
(7.2728e-07 2.64698e-23 0.00036364)
(5.8918e-07 0 0.00036364)
(8.2346e-07 0 0.00036364)
(8.1212e-07 0 0.00036364)
(7.0394e-07 2.64698e-23 0.00036364)
(7.0938e-07 0 0.00036362)
(6.5442e-07 0 0.00036364)
(7.1376e-07 2.64698e-23 0.00036364)
(7.2728e-07 2.64698e-23 0.00036364)
(6.7382e-07 0 0.00036364)
(7.2728e-07 2.64698e-23 0.00036362)
(7.2728e-07 2.64698e-23 0.00036364)
(7.6214e-07 -2.64698e-23 0.00036364)
(7.2716e-07 0 0.00036364)
(6.926e-07 0 0.00036364)
(7.272e-07 0 0.00036364)
(7.272e-07 0 0.00036362)
(7.544e-07 -2.64698e-23 0.00036364)
(7.532e-07 0 0.00036364)
(7.252e-07 -2.64698e-23 0.00036364)
(7.254e-07 0 0.00036364)
(7.022e-07 0 0.00036362)
(7.258e-07 0 0.00036364)
(7.492e-07 2.64698e-23 0.00036364)
(7.046e-07 0 0.00036364)
(7.264e-07 0 0.00036364)
(7.474e-07 0 0.00036364)
(7.064e-07 2.64698e-23 0.00036362)
(7.264e-07 0 0.00036364)
(7.46e-07 2.64698e-23 0.00036364)
(7.262e-07 0 0.00036364)
(7.266e-07 0 0.00036364)
(7.264e-07 -2.64698e-23 0.00036362)
(7.264e-07 0 0.00036364)
(7.268e-07 0 0.00036364)
(7.1e-07 -2.64698e-23 0.00036364)
(7.106e-07 0 0.00036364)
(7.43e-07 2.64698e-23 0.00036364)
(7.272e-07 0 0.00036362)
(7.27e-07 0 0.00036364)
(7.272e-07 2.64698e-23 0.00036364)
(7.266e-07 0 0.0003636)
(7.274e-07 0 0.0003636)
(7.40009e-07 2.64698e-23 0.0003638)
(6.73379e-07 -2.64698e-23 0.0003636)
(8.36404e-07 0 0.0003636)
(5.62965e-07 2.64698e-23 0.0003636)
(8.52373e-07 0 0.0003636)
(6.44068e-07 0 0.0003636)
(8.42301e-07 0 0.0003638)
(5.95998e-07 -2.64698e-23 0.0003636)
(8.28652e-07 2.64698e-23 0.0003636)
(5.63221e-07 0 0.0003636)
(8.9951e-07 2.64698e-23 0.0003636)
(6.30533e-07 0 0.0003638)
(8.10589e-07 2.64698e-23 0.0003636)
(4.90445e-07 0 0.0003636)
(9.50535e-07 2.64698e-23 0.0003636)
(7.61983e-07 0 0.0003636)
(7.12371e-07 0 0.0003636)
(6.1181e-07 0 0.0003638)
(7.04888e-07 0 0.0003636)
(6.81678e-07 2.64698e-23 0.0003636)
(8.01607e-07 0 0.0003636)
(6.82063e-07 0 0.0003636)
(1.0941e-06 -5.29396e-23 0.0003638)
(3.57638e-07 0 0.0003636)
(5.6801e-07 0 0.0003636)
(7.27979e-07 2.64698e-23 0.0003636)
(8.35322e-07 0 0.0003636)
(6.34623e-07 -2.64698e-23 0.0003636)
(9.27359e-07 2.64698e-23 0.0003638)
(7.48309e-07 0 0.0003636)
(6.41937e-07 2.64698e-23 0.0003636)
(5.55095e-07 0 0.0003636)
(9.34408e-07 2.64698e-23 0.0003636)
(9.17825e-07 -2.64698e-23 0.0003638)
(3.45888e-07 0 0.0003636)
(5.51408e-07 0 0.0003636)
(1.13155e-06 0 0.0003636)
(5.18918e-07 0 0.0003636)
(8.91027e-07 -2.64698e-23 0.0003636)
(8.13811e-07 0 0.0003638)
(4.84474e-07 -1.32349e-23 0.0003636)
(6.26395e-07 0 0.0003636)
(1.05357e-06 -5.29396e-23 0.0003636)
(7.1542e-07 0 0.0003636)
(7.08472e-07 0 0.0003638)
(5.97557e-07 0 0.0003636)
(6.56643e-07 0 0.0003636)
(4.59152e-07 1.32349e-23 0.0003636)
(1.08976e-06 -5.29396e-23 0.0003636)
(1.03601e-06 0 0.0003636)
(4.56581e-07 0 0.0003638)
(4.9832e-07 -1.32349e-23 0.0003636)
(1.0388e-06 0 0.0003636)
(2.88147e-07 0 0.0003636)
(1.06538e-06 0 0.0003636)
(9.79533e-07 0 0.0003638)
(3.88632e-07 0 0.0003636)
(-1.3061e-07 -3.30872e-24 0.0003636)
(1.06216e-06 5.29396e-23 0.0003636)
(-2.4898e-08 0 0.0003636)
(1.10392e-06 0 0.0003636)
(3.91356e-07 0 0.0003638)
(7.32692e-07 0 0.0003636)
(-8.13244e-07 2.64698e-23 0.0003636)
(1.72134e-06 5.29396e-23 0.0003636)
(-3.96948e-06 0 0.0003636)
(-3.47465e-06 0 0.0003638)
(-2.99609e-06 0 0.0003636)
(-2.91776e-06 1.05879e-22 0.0003636)
(-2.58543e-06 0 0.0003636)
(-2.55152e-06 0 0.0003636)
(-2.17391e-06 0 0.0003636)
(-2.11401e-06 -1.05879e-22 0.0003638)
(-1.69684e-06 -5.29396e-23 0.0003636)
(-1.59734e-06 0 0.0003636)
(-1.15149e-06 5.29396e-23 0.0003636)
(-1.01699e-06 0 0.0003636)
(-5.06207e-07 0 0.0003638)
(-6.19405e-07 0 0.0003636)
(4.37033e-07 0 0.0003636)
(5.24212e-07 0 0.0003636)
(-1.1291e-06 0 0.0003636)
(-5.52139e-07 0 0.0003636)
(-1.50655e-07 0 0.0003638)
(-2.12999e-06 -1.05879e-22 0.0003636)
(-1.6305e-06 0 0.0003636)
(-1.58345e-06 0 0.0003636)
(-1.35338e-06 0 0.0003636)
(-1.42007e-06 0 0.0003638)
(-1.18351e-06 0 0.0003636)
(-1.19318e-06 0 0.0003636)
(-9.26538e-07 2.64698e-23 0.0003636)
(-9.06275e-07 2.64698e-23 0.0003636)
(-6.82547e-07 2.64698e-23 0.0003636)
(-6.19218e-07 0 0.0003638)
(-5.58194e-07 0 0.0003636)
(-2.74667e-07 -1.32349e-23 0.0003636)
(-6.05075e-07 0 0.0003636)
(2.2479e-07 0 0.0003636)
(-9.54991e-07 -2.64698e-23 0.0003638)
(9.45737e-07 0 0.0003636)
(-1.08127e-06 5.29396e-23 0.0003636)
(1.97717e-06 0 0.0003636)
(-6.7365e-07 0 0.0003636)
(2.71137e-06 1.05879e-22 0.0003636)
(-1.27484e-07 0 0.0003638)
(3.04054e-06 0 0.0003636)
(3.27848e-07 0 0.0003636)
(3.45801e-06 0 0.0003636)
(1.32341e-06 0 0.0003636)
(5.2227e-06 2.11758e-22 0.0003638)
(3.94501e-06 1.05879e-22 0.0003636)
(1.03408e-05 0 0.0003636)
(1.36428e-06 0 0.0003636)
(-2.59902e-07 6.61744e-24 0.0003636)
(1.70413e-06 0 0.0003636)
(2.54914e-07 0 0.0003638)
(1.46579e-06 0 0.0003636)
(2.59133e-07 0 0.0003636)
(1.19177e-06 0 0.0003636)
(1.95883e-07 6.61744e-24 0.0003636)
(9.43057e-07 -2.64698e-23 0.0003638)
(1.33378e-07 0 0.0003636)
(7.321e-07 -2.64698e-23 0.0003636)
(8.23957e-08 0 0.0003636)
(5.59934e-07 0 0.0003636)
(4.67438e-08 0 0.0003636)
(4.14137e-07 0 0.0003638)
(2.45229e-08 0 0.0003636)
(2.95373e-07 0 0.0003636)
(1.30885e-08 0 0.0003636)
(1.966e-07 6.61744e-24 0.0003636)
(-8.78477e-10 0 0.0003638)
(1.12472e-07 3.30872e-24 0.0003636)
(-1.01297e-08 0 0.0003636)
(3.19052e-08 8.27181e-25 0.0003636)
(-4.63566e-08 0 0.0003636)
(-1.53761e-08 0 0.0003636)
(-8.46242e-08 0 0.0003638)
(-4.07797e-08 0 0.0003636)
(-1.08247e-07 0 0.0003636)
(-5.48126e-08 0 0.0003636)
(-1.19936e-07 -3.30872e-24 0.0003636)
(-6.5499e-08 0 0.0003638)
(-1.30151e-07 0 0.0003636)
(-7.07596e-08 -3.30872e-24 0.0003636)
(-1.28504e-07 0 0.0003636)
(-7.14358e-08 -3.30872e-24 0.0003636)
(-1.30158e-07 -3.30872e-24 0.0003636)
(-6.91008e-08 0 0.0003638)
(-1.29374e-07 0 0.0003636)
(-7.14776e-08 0 0.0003636)
(-1.28369e-07 3.30872e-24 0.0003636)
(-6.75035e-08 3.30872e-24 0.0003636)
(-1.19909e-07 0 0.0003638)
(-6.36265e-08 0 0.0003636)
(-1.10352e-07 0 0.0003636)
(-5.37268e-08 -1.65436e-24 0.0003636)
(-1.05691e-07 -3.30872e-24 0.0003636)
(-4.0172e-08 1.65436e-24 0.0003636)
(-8.96743e-08 0 0.0003638)
(-3.07479e-08 0 0.0003636)
(-7.83362e-08 -3.30872e-24 0.0003636)
(-2.05743e-08 0 0.0003636)
(-7.09737e-08 0 0.0003636)
(-4.93059e-09 0 0.0003638)
(-6.31594e-08 0 0.0003636)
(1.24459e-09 5.16988e-26 0.0003636)
(-6.66244e-08 3.30872e-24 0.0003636)
(1.54709e-08 4.1359e-25 0.0003636)
(-7.52656e-08 0 0.0003636)
(3.15076e-08 0 0.0003638)
(-8.85204e-08 0 0.0003636)
(5.56687e-08 1.65436e-24 0.0003636)
(-9.54232e-08 0 0.0003636)
(7.97759e-08 0 0.0003636)
(-9.75347e-08 -3.30872e-24 0.0003638)
(1.09216e-07 0 0.0003636)
(-1.01811e-07 0 0.0003636)
(1.33985e-07 0 0.0003636)
(-9.82453e-08 -3.30872e-24 0.0003636)
(1.50477e-07 6.61744e-24 0.0003636)
(-9.75821e-08 0 0.0003638)
(1.60513e-07 0 0.0003636)
(-9.57243e-08 0 0.0003636)
(1.70298e-07 0 0.0003636)
(-1.08173e-07 0 0.0003636)
(1.92572e-07 -6.61744e-24 0.0003638)
(-1.15967e-07 0 0.0003636)
(2.18662e-07 0 0.0003636)
(-1.25765e-07 0 0.0003636)
(2.5053e-07 0 0.0003636)
(-1.3753e-07 0 0.0003636)
(2.89576e-07 0 0.0003638)
(-1.50275e-07 0 0.0003636)
(3.35643e-07 1.32349e-23 0.0003636)
(-1.64658e-07 0 0.0003636)
(3.87656e-07 0 0.0003636)
(-1.80892e-07 0 0.0003638)
(4.44835e-07 1.32349e-23 0.0003636)
(-1.91959e-07 0 0.0003636)
(5.12573e-07 0 0.0003636)
(-2.00215e-07 0 0.0003636)
(5.70615e-07 0 0.0003636)
(-2.20629e-07 6.61744e-24 0.0003638)
(6.38267e-07 2.64698e-23 0.0003636)
(-2.33954e-07 6.61744e-24 0.0003636)
(7.0911e-07 -2.64698e-23 0.0003636)
(-2.51737e-07 0 0.0003636)
(7.77349e-07 0 0.0003638)
(-2.67474e-07 -1.32349e-23 0.0003636)
(8.50052e-07 -2.64698e-23 0.0003636)
(-2.89326e-07 0 0.0003636)
(9.31082e-07 -2.64698e-23 0.0003636)
(-3.14039e-07 1.32349e-23 0.0003636)
(1.02128e-06 2.64698e-23 0.0003638)
(-3.17787e-07 0 0.0003636)
(1.10338e-06 -5.29396e-23 0.0003636)
(-3.0766e-07 0 0.0003636)
(1.17588e-06 0 0.0003636)
(-2.65498e-07 0 0.0003638)
(1.21243e-06 5.29396e-23 0.0003636)
(-1.95162e-07 0 0.0003636)
(1.20247e-06 0 0.0003636)
(-9.85737e-08 0 0.0003636)
(1.16149e-06 -5.29396e-23 0.0003636)
(1.36983e-08 0 0.0003638)
(1.08775e-06 0 0.0003636)
(1.12514e-07 -3.30872e-24 0.0003636)
(1.03207e-06 0 0.0003636)
(2.03507e-07 0 0.0003636)
(9.91795e-07 0 0.0003638)
(2.8431e-07 -1.32349e-23 0.0003636)
(9.52635e-07 0 0.0003636)
(3.55091e-07 -1.32349e-23 0.0003636)
(9.22856e-07 0 0.0003636)
(4.18942e-07 -1.32349e-23 0.0003636)
(8.97561e-07 0 0.0003638)
(4.6994e-07 0 0.0003636)
(8.74764e-07 0 0.0003636)
(5.14625e-07 0 0.0003636)
(8.5581e-07 0 0.0003636)
(5.51816e-07 0 0.0003638)
(8.40934e-07 0 0.0003636)
(5.84724e-07 2.64698e-23 0.0003636)
(8.26517e-07 0 0.0003636)
(6.06622e-07 -2.64698e-23 0.0003636)
(8.125e-07 -2.64698e-23 0.0003636)
(6.24274e-07 0 0.0003638)
(7.99411e-07 2.64698e-23 0.0003636)
(6.36806e-07 0 0.0003636)
(7.86017e-07 -2.64698e-23 0.0003636)
(6.39377e-07 2.64698e-23 0.0003636)
(7.65732e-07 0 0.0003638)
(6.39453e-07 2.64698e-23 0.0003636)
(7.40882e-07 0 0.0003636)
(6.35394e-07 2.64698e-23 0.0003636)
(7.10144e-07 0 0.0003636)
(6.21497e-07 0 0.0003636)
(6.79921e-07 0 0.0003638)
(6.03512e-07 0 0.0003636)
(6.47754e-07 -2.64698e-23 0.0003636)
(5.82482e-07 2.64698e-23 0.0003636)
(6.19489e-07 -2.64698e-23 0.0003636)
(5.60925e-07 0 0.0003638)
(5.86687e-07 0 0.0003636)
(5.38699e-07 0 0.0003636)
(5.61074e-07 0 0.0003636)
(5.1664e-07 0 0.0003636)
(5.34111e-07 0 0.0003636)
(4.92911e-07 -1.32349e-23 0.0003638)
(5.02494e-07 1.32349e-23 0.0003636)
(4.69597e-07 0 0.0003636)
(4.75805e-07 0 0.0003636)
(4.43446e-07 -1.32349e-23 0.0003636)
(4.43347e-07 -1.32349e-23 0.0003638)
(4.15609e-07 0 0.0003636)
(4.10394e-07 0 0.0003636)
(3.81805e-07 1.32349e-23 0.0003636)
(3.74617e-07 0 0.0003636)
(3.4665e-07 -1.32349e-23 0.0003636)
(3.35611e-07 -1.32349e-23 0.0003638)
(3.07796e-07 -1.32349e-23 0.0003636)
(2.93817e-07 1.32349e-23 0.0003636)
(2.65411e-07 1.32349e-23 0.0003636)
(2.49028e-07 0 0.0003636)
(2.20177e-07 -6.61744e-24 0.0003638)
(2.00546e-07 0 0.0003636)
(1.72402e-07 0 0.0003636)
(1.51064e-07 0 0.0003636)
(1.21807e-07 -3.30872e-24 0.0003636)
(9.65089e-08 0 0.0003636)
(6.38837e-08 1.65436e-24 0.0003638)
(3.64112e-08 0 0.0003636)
(-1.44451e-08 4.1359e-25 0.0003636)
(-5.83036e-08 0 0.0003636)
(-8.94983e-08 3.30872e-24 0.0003636)
(-1.18638e-07 0 0.0003638)
(-1.40411e-07 6.61744e-24 0.0003636)
(-1.65682e-07 -6.61744e-24 0.0003636)
(-1.828e-07 0 0.0003636)
(-2.03093e-07 0 0.0003636)
(-2.20101e-07 0 0.0003636)
(-2.3784e-07 0 0.0003638)
(-2.52092e-07 -6.61744e-24 0.0003636)
(-2.69561e-07 0 0.0003636)
(-2.81702e-07 0 0.0003636)
(-2.96381e-07 1.32349e-23 0.0003636)
(-3.08398e-07 -1.32349e-23 0.0003638)
(-3.20599e-07 -1.32349e-23 0.0003636)
(-3.30375e-07 0 0.0003636)
(-3.42128e-07 0 0.0003636)
(-3.50336e-07 0 0.0003636)
(-3.58476e-07 0 0.0003636)
(-3.6405e-07 1.32349e-23 0.0003638)
(-3.70039e-07 0 0.0003636)
(-3.71784e-07 0 0.0003636)
(-3.75847e-07 0 0.0003636)
(-3.7745e-07 1.32349e-23 0.0003636)
(-3.78849e-07 0 0.0003638)
(-3.78675e-07 -1.32349e-23 0.0003636)
(-3.79163e-07 0 0.0003636)
(-3.75035e-07 1.32349e-23 0.0003636)
(-3.72402e-07 -1.32349e-23 0.0003636)
(-3.68038e-07 1.32349e-23 0.0003636)
(-3.62925e-07 1.32349e-23 0.0003638)
(-3.57907e-07 1.32349e-23 0.0003636)
(-3.52975e-07 0 0.0003636)
(-3.44637e-07 0 0.0003636)
(-3.39834e-07 0 0.0003636)
(-3.31685e-07 -1.32349e-23 0.0003638)
(-3.27627e-07 0 0.0003636)
(-3.20396e-07 0 0.0003636)
(-3.12918e-07 -1.32349e-23 0.0003636)
(-3.0706e-07 -1.32349e-23 0.0003636)
(-3.00815e-07 0 0.0003636)
(-2.95338e-07 1.32349e-23 0.0003638)
(-2.89256e-07 -1.32349e-23 0.0003636)
(-2.84375e-07 -1.32349e-23 0.0003636)
(-2.75712e-07 0 0.0003636)
(-2.71665e-07 0 0.0003636)
(-2.62929e-07 0 0.0003638)
(-2.58713e-07 6.61744e-24 0.0003636)
(-2.49146e-07 0 0.0003636)
(-2.47046e-07 -6.61744e-24 0.0003636)
(-2.3747e-07 -6.61744e-24 0.0003636)
(-2.30423e-07 6.61744e-24 0.0003636)
(-2.26957e-07 0 0.0003638)
(-2.20111e-07 0 0.0003636)
(-2.1112e-07 0 0.0003636)
(-2.06373e-07 6.61744e-24 0.0003636)
(-1.97269e-07 0 0.0003636)
(-1.91147e-07 0 0.0003638)
(-1.82336e-07 0 0.0003636)
(-1.7869e-07 0 0.0003636)
(-1.70619e-07 0 0.0003636)
(-1.60896e-07 -6.61744e-24 0.0003636)
(-1.52733e-07 0 0.0003636)
(-1.50951e-07 0 0.0003638)
(-1.42989e-07 6.61744e-24 0.0003636)
(-1.3557e-07 6.61744e-24 0.0003636)
(-1.29364e-07 0 0.0003636)
(-1.21175e-07 0 0.0003636)
(-1.18103e-07 0 0.0003638)
(-1.08973e-07 -3.30872e-24 0.0003636)
(-1.00005e-07 0 0.0003636)
(-9.98204e-08 0 0.0003636)
(-9.06903e-08 0 0.0003636)
(-8.53662e-08 -3.30872e-24 0.0003636)
(-7.72727e-08 -3.30872e-24 0.0003638)
(-7.16453e-08 3.30872e-24 0.0003636)
(-6.45176e-08 0 0.0003636)
(-5.98735e-08 0 0.0003636)
(-5.38686e-08 1.65436e-24 0.0003636)
(-5.07589e-08 -1.65436e-24 0.0003638)
(-4.53366e-08 0 0.0003636)
(-4.32032e-08 0 0.0003636)
(-3.99429e-08 0 0.0003636)
(-3.87993e-08 -1.65436e-24 0.0003636)
(-3.75046e-08 1.65436e-24 0.0003636)
(-3.68869e-08 0 0.0003638)
(-3.79681e-08 0 0.0003636)
(-3.9013e-08 1.65436e-24 0.0003636)
(-3.39973e-08 1.65436e-24 0.0003636)
(-3.66111e-08 -1.65436e-24 0.0003636)
(-3.98941e-08 0 0.0003638)
(-4.34434e-08 -1.65436e-24 0.0003636)
(-4.13312e-08 0 0.0003636)
(-4.63409e-08 0 0.0003636)
(-5.05712e-08 0 0.0003636)
(-5.58352e-08 -1.65436e-24 0.0003636)
(-6.16664e-08 0 0.0003638)
(-6.64233e-08 0 0.0003636)
(-7.35006e-08 0 0.0003636)
(-7.87665e-08 -3.30872e-24 0.0003636)
(-7.66612e-08 -3.30872e-24 0.0003636)
(-8.19136e-08 3.30872e-24 0.0003638)
(-8.64647e-08 3.30872e-24 0.0003636)
(-8.99083e-08 0 0.0003636)
(-9.38696e-08 0 0.0003636)
(-9.7595e-08 3.30872e-24 0.0003636)
(-1.00382e-07 0 0.0003636)
(-1.03465e-07 0 0.0003638)
(-1.07058e-07 3.30872e-24 0.0003636)
(-1.09623e-07 3.30872e-24 0.0003636)
(-1.12734e-07 0 0.0003636)
(-1.15483e-07 0 0.0003636)
(-1.20065e-07 0 0.0003638)
(-1.23122e-07 -3.30872e-24 0.0003636)
(-1.2885e-07 -3.30872e-24 0.0003636)
(-1.33023e-07 6.61744e-24 0.0003636)
(-1.39573e-07 6.61744e-24 0.0003636)
(-1.45095e-07 -6.61744e-24 0.0003636)
(-1.52385e-07 0 0.0003638)
(-1.57978e-07 0 0.0003636)
(-1.65065e-07 0 0.0003636)
(-1.71641e-07 6.61744e-24 0.0003636)
(-1.76994e-07 0 0.0003636)
(-1.82368e-07 0 0.0003638)
(-1.96738e-07 0 0.0003636)
(-1.99565e-07 0 0.0003636)
(-2.03972e-07 -6.61744e-24 0.0003636)
(-2.16514e-07 0 0.0003636)
(-2.1794e-07 0 0.0003636)
(-2.2226e-07 0 0.0003638)
(-2.31065e-07 0 0.0003636)
(-2.34318e-07 -6.61744e-24 0.0003636)
(-2.43208e-07 6.61744e-24 0.0003636)
(-2.47323e-07 0 0.0003636)
(-2.55659e-07 0 0.0003638)
(-2.59035e-07 0 0.0003636)
(-2.67077e-07 0 0.0003636)
(-2.70949e-07 0 0.0003636)
(-2.79617e-07 0 0.0003636)
(-2.84228e-07 0 0.0003636)
(-2.93857e-07 0 0.0003638)
(-2.98583e-07 0 0.0003636)
(-3.09402e-07 0 0.0003636)
(-3.13023e-07 0 0.0003636)
(-3.25489e-07 1.32349e-23 0.0003636)
(-3.37317e-07 0 0.0003638)
(-3.38929e-07 1.32349e-23 0.0003636)
(-3.49915e-07 -1.32349e-23 0.0003636)
(-3.58493e-07 -1.32349e-23 0.0003636)
(-3.68109e-07 -1.32349e-23 0.0003636)
(-3.74594e-07 0 0.0003636)
(-3.84497e-07 0 0.0003638)
(-3.89662e-07 0 0.0003636)
(-3.89349e-07 1.32349e-23 0.0003636)
(-3.94666e-07 0 0.0003636)
(-4.03128e-07 1.32349e-23 0.0003636)
(-4.10294e-07 0 0.0003638)
(-4.20362e-07 1.32349e-23 0.0003636)
(-4.32331e-07 0 0.0003636)
(-4.30891e-07 0 0.0003636)
(-4.50771e-07 0 0.0003636)
(-4.48248e-07 -1.32349e-23 0.0003636)
(-4.69202e-07 0 0.0003638)
(-4.76013e-07 1.32349e-23 0.0003636)
(-4.62469e-07 0 0.0003636)
(-5.53595e-07 2.64698e-23 0.0003636)
(-4.04683e-07 0 0.0003636)
(-7.59735e-07 -2.64698e-23 0.0003638)
(-1.74808e-07 -6.61744e-24 0.0003636)
(-1.32365e-06 0 0.0003636)
(4.92677e-07 0 0.0003636)
(-2.33885e-06 1.05879e-22 0.0003636)
(1.80436e-06 0 0.0003636)
(-3.40486e-06 0 0.0003638)
(3.82431e-06 0 0.0003636)
(-4.15078e-06 0 0.0003636)
(6.50137e-06 0 0.0003636)
(-3.99106e-06 0 0.0003636)
(9.53554e-06 0 0.0003638)
(-2.10261e-06 0 0.0003636)
(1.22261e-05 0 0.0003636)
(2.00503e-06 0 0.0003636)
(1.67447e-05 4.23516e-22 0.0003636)
(1.04924e-05 -4.23516e-22 0.0003636)
(2.93205e-05 0 0.0003638)
(3.34288e-05 0 0.0003636)
(7.17652e-05 0 0.0003636)
(0.000125224 3.38813e-21 0.0003636)
(7.26e-07 0 0.0003636)
(7.28e-07 2.64698e-23 0.0003638)
(7.28e-07 0 0.0003636)
(7.26e-07 -2.64698e-23 0.0003636)
(7.28e-07 0 0.0003636)
(7.26e-07 -2.64698e-23 0.0003636)
(7.28e-07 -2.64698e-23 0.0003636)
(7.28e-07 0 0.0003638)
(7.26e-07 0 0.0003636)
(7.28e-07 -2.64698e-23 0.0003636)
)
;

boundaryField
{
    inlet
    {
        type            calculated;
        value           uniform (0 0 0);
    }
    endWall
    {
        type            calculated;
        value           uniform (0 0 0);
    }
    sideWall
    {
        type            empty;
    }
}


// ************************************************************************* //
