/*--------------------------------*- C++ -*----------------------------------*\
| =========                 |                                                 |
| \\      /  F ield         | foam-extend: Open Source CFD                    |
|  \\    /   O peration     | Version:     3.2                                |
|   \\  /    A nd           | Web:         http://www.foam-extend.org         |
|    \\/     M anipulation  | For copyright notice see file Copyright         |
\*---------------------------------------------------------------------------*/
FoamFile
{
    version     2.0;
    format      ascii;
    class       areaScalarField;
    location    "1440";
    object      SSe1;
}
// * * * * * * * * * * * * * * * * * * * * * * * * * * * * * * * * * * * * * //

dimensions      [0 1 -2 -1 0 0 0];

internalField   nonuniform List<scalar> 
550
(
6.89621e-07
1.27253e-06
2.13021e-06
3.29996e-06
4.79814e-06
6.60072e-06
8.56308e-06
1.08421e-05
1.30767e-05
1.50331e-05
1.72098e-05
1.89438e-05
2.03982e-05
2.1508e-05
2.23193e-05
2.2854e-05
2.31056e-05
2.3139e-05
2.30049e-05
2.27364e-05
2.23712e-05
2.19265e-05
2.14276e-05
2.09003e-05
2.03505e-05
1.97971e-05
1.92479e-05
1.87175e-05
1.82121e-05
1.77266e-05
1.72648e-05
1.68261e-05
1.64122e-05
1.60249e-05
1.56611e-05
1.53224e-05
1.50048e-05
1.47073e-05
1.44338e-05
1.41778e-05
1.39381e-05
1.37188e-05
1.35137e-05
1.33219e-05
1.31451e-05
1.29808e-05
1.2828e-05
1.26861e-05
1.25538e-05
1.24319e-05
1.23186e-05
1.2211e-05
1.21115e-05
1.20185e-05
1.19311e-05
1.18493e-05
1.17721e-05
1.1699e-05
1.16345e-05
1.15642e-05
1.15131e-05
1.13409e-05
1.14006e-05
9.69317e-06
9.47823e-06
1.11538e-05
1.11206e-05
1.10757e-05
8.53867e-06
1.10025e-05
1.0974e-05
1.0929e-05
7.15133e-06
6.5742e-06
1.08589e-05
1.08394e-05
1.08271e-05
1.08174e-05
1.08134e-05
1.0892e-05
3.72619e-06
1.08073e-05
1.07902e-05
1.07636e-05
1.07456e-05
1.07101e-05
1.06802e-05
1.06523e-05
1.06199e-05
1.05732e-05
1.06355e-05
1.05156e-05
1.04777e-05
1.04239e-05
1.04023e-05
1.03623e-05
1.03286e-05
1.03055e-05
1.02703e-05
1.02246e-05
1.01993e-05
1.01703e-05
1.01417e-05
1.01096e-05
1.00833e-05
1.00374e-05
1.00041e-05
3.86676e-07
9.95998e-06
9.91407e-06
9.89987e-06
9.85262e-06
9.81808e-06
9.80352e-06
9.77363e-06
9.73374e-06
9.72072e-06
9.67181e-06
9.64906e-06
9.61241e-06
9.47503e-06
9.52337e-06
8.8975e-06
8.93622e-06
8.97186e-06
8.95777e-06
8.97704e-06
8.9565e-06
8.98213e-06
8.96505e-06
8.99633e-06
8.9847e-06
9.02041e-06
9.01398e-06
9.0577e-06
9.03794e-06
9.06889e-06
9.06253e-06
9.03525e-06
9.092e-06
9.10122e-06
8.96467e-06
9.01792e-06
9.00955e-06
9.03002e-06
9.00918e-06
9.02899e-06
9.01337e-06
9.03549e-06
9.02368e-06
9.04305e-06
9.03755e-06
9.03996e-06
9.06228e-06
9.01677e-06
9.08619e-06
8.96163e-06
9.06507e-06
8.93779e-06
9.02798e-06
8.98243e-06
9.00602e-06
9.03711e-06
9.00738e-06
9.05084e-06
8.99987e-06
9.00754e-06
8.9075e-06
8.88943e-06
8.71223e-06
9.56342e-06
9.5381e-06
9.43205e-06
9.38345e-06
9.30624e-06
9.27374e-06
9.21732e-06
9.1939e-06
9.15091e-06
9.13314e-06
9.10009e-06
9.08598e-06
9.05994e-06
9.0489e-06
9.02846e-06
9.01914e-06
9.00307e-06
8.9949e-06
8.98268e-06
8.97552e-06
8.96579e-06
8.95855e-06
8.95261e-06
8.93966e-06
8.93845e-06
8.92345e-06
8.92516e-06
8.91153e-06
8.91488e-06
8.90223e-06
8.90622e-06
8.89407e-06
8.89889e-06
8.88756e-06
8.8923e-06
8.88123e-06
8.88641e-06
8.87536e-06
8.88044e-06
8.86976e-06
8.87506e-06
8.86481e-06
8.86978e-06
8.86015e-06
8.86496e-06
8.85502e-06
8.86043e-06
8.85068e-06
8.85563e-06
8.84609e-06
8.85089e-06
8.84107e-06
8.84649e-06
8.8358e-06
8.84141e-06
8.82939e-06
8.83582e-06
8.82252e-06
8.82968e-06
8.81524e-06
8.82335e-06
8.80848e-06
8.81713e-06
8.8023e-06
8.81052e-06
8.79637e-06
8.80422e-06
8.79121e-06
8.79821e-06
8.78594e-06
8.79272e-06
8.78056e-06
8.78719e-06
8.77391e-06
8.7814e-06
8.76775e-06
8.77569e-06
8.76168e-06
8.77017e-06
8.7556e-06
8.76472e-06
8.74961e-06
8.7594e-06
8.74367e-06
8.75408e-06
8.73763e-06
8.74891e-06
8.73219e-06
8.74316e-06
8.72749e-06
8.73853e-06
8.72177e-06
8.73337e-06
8.71652e-06
8.72818e-06
8.7111e-06
8.72344e-06
8.70556e-06
8.7186e-06
8.69969e-06
8.71357e-06
8.69376e-06
8.7084e-06
8.68984e-06
8.70343e-06
8.68785e-06
8.69821e-06
8.68936e-06
8.69319e-06
8.69407e-06
8.68782e-06
8.69487e-06
8.68288e-06
8.69557e-06
8.67861e-06
8.689e-06
8.67422e-06
8.68278e-06
8.66998e-06
8.67755e-06
8.66643e-06
8.67246e-06
8.66296e-06
8.66762e-06
8.65963e-06
8.66343e-06
8.65632e-06
8.6593e-06
8.65295e-06
8.65493e-06
8.64942e-06
8.65063e-06
8.64596e-06
8.64661e-06
8.64227e-06
8.64242e-06
8.63843e-06
8.63834e-06
8.63449e-06
8.63438e-06
8.63047e-06
8.63014e-06
8.62629e-06
8.62568e-06
8.62257e-06
8.62132e-06
8.61815e-06
8.61664e-06
8.61361e-06
8.61167e-06
8.60868e-06
8.60691e-06
8.604e-06
8.6016e-06
8.59859e-06
8.59636e-06
8.59334e-06
8.59103e-06
8.58794e-06
8.58531e-06
8.58229e-06
8.57982e-06
8.57676e-06
8.57403e-06
8.57119e-06
8.56844e-06
8.56529e-06
8.56271e-06
8.55974e-06
8.55685e-06
8.55388e-06
8.55095e-06
8.5479e-06
8.54507e-06
8.54185e-06
8.53896e-06
8.53594e-06
8.53318e-06
8.53024e-06
8.5274e-06
8.52478e-06
8.5206e-06
8.51184e-06
8.50552e-06
8.49964e-06
8.4951e-06
8.49054e-06
8.48708e-06
8.48326e-06
8.48018e-06
8.47681e-06
8.47412e-06
8.47111e-06
8.46871e-06
8.46619e-06
8.4639e-06
8.46171e-06
8.45959e-06
8.45756e-06
8.45565e-06
8.45387e-06
8.45237e-06
8.45073e-06
8.4495e-06
8.44796e-06
8.44655e-06
8.44518e-06
8.44403e-06
8.44272e-06
8.4417e-06
8.44049e-06
8.43943e-06
8.43858e-06
8.43764e-06
8.43676e-06
8.43609e-06
8.43532e-06
8.43471e-06
8.43394e-06
8.4333e-06
8.43284e-06
8.43245e-06
8.43205e-06
8.43155e-06
8.43123e-06
8.43116e-06
8.43118e-06
8.43106e-06
8.43118e-06
8.43109e-06
8.43137e-06
8.43115e-06
8.43146e-06
8.43113e-06
8.4309e-06
8.43039e-06
8.43031e-06
8.42955e-06
8.42902e-06
8.42821e-06
8.42776e-06
8.42638e-06
8.42566e-06
8.42471e-06
8.42388e-06
8.42231e-06
8.42165e-06
8.42069e-06
8.41995e-06
8.41922e-06
8.41843e-06
8.41803e-06
8.41769e-06
8.4168e-06
8.41669e-06
8.41624e-06
8.41622e-06
8.4159e-06
8.41581e-06
8.41542e-06
8.41521e-06
8.41467e-06
8.41436e-06
8.41371e-06
8.41302e-06
8.41216e-06
8.41126e-06
8.41018e-06
8.40895e-06
8.40777e-06
8.40686e-06
8.40529e-06
8.40363e-06
8.40201e-06
8.40057e-06
8.39859e-06
8.39658e-06
8.39451e-06
8.39234e-06
8.39016e-06
8.38773e-06
8.38545e-06
8.38353e-06
8.3812e-06
8.37881e-06
8.37653e-06
8.37423e-06
8.37188e-06
8.36958e-06
8.36732e-06
8.3649e-06
8.36264e-06
8.3602e-06
8.35785e-06
8.35527e-06
8.35277e-06
8.35003e-06
8.34748e-06
8.34476e-06
8.34208e-06
8.33924e-06
8.3366e-06
8.33387e-06
8.3312e-06
8.32872e-06
8.32621e-06
8.32337e-06
8.32146e-06
8.3194e-06
8.31702e-06
8.31563e-06
8.31386e-06
8.31214e-06
8.31068e-06
8.30917e-06
8.30765e-06
8.30624e-06
8.30496e-06
8.3036e-06
8.30222e-06
8.30085e-06
8.29938e-06
8.29776e-06
8.29617e-06
8.29444e-06
8.29301e-06
8.29098e-06
8.28918e-06
8.28796e-06
8.28616e-06
8.28466e-06
8.28305e-06
8.2818e-06
8.2802e-06
8.27922e-06
8.27827e-06
8.27705e-06
8.27558e-06
8.27404e-06
8.2723e-06
8.27034e-06
8.26944e-06
8.26626e-06
8.26594e-06
8.26189e-06
8.26091e-06
8.25938e-06
8.25071e-06
8.26244e-06
8.22583e-06
8.28621e-06
8.1602e-06
8.31315e-06
8.04688e-06
8.30059e-06
7.93739e-06
8.2827e-06
7.86807e-06
8.25334e-06
7.89424e-06
8.20331e-06
8.09876e-06
8.11519e-06
8.09897e-06
7.94825e-06
7.75285e-06
7.59222e-06
7.07195e-06
7.03941e-06
7.66844e-06
2.92251e-06
2.51276e-06
1.81032e-06
1.33709e-06
7.51976e-07
3.89491e-07
2.00752e-07
2.37817e-07
1.91683e-07
6.84866e-07
)
;

boundaryField
{
    inlet
    {
        type            calculated;
        value           uniform 0;
    }
    endWall
    {
        type            calculated;
        value           uniform 0;
    }
    sideWall
    {
        type            empty;
    }
}


// ************************************************************************* //
