/*--------------------------------*- C++ -*----------------------------------*\
| =========                 |                                                 |
| \\      /  F ield         | foam-extend: Open Source CFD                    |
|  \\    /   O peration     | Version:     3.2                                |
|   \\  /    A nd           | Web:         http://www.foam-extend.org         |
|    \\/     M anipulation  | For copyright notice see file Copyright         |
\*---------------------------------------------------------------------------*/
FoamFile
{
    version     2.0;
    format      ascii;
    class       areaScalarField;
    location    "1440";
    object      Te;
}
// * * * * * * * * * * * * * * * * * * * * * * * * * * * * * * * * * * * * * //

dimensions      [0 0 1 0 0 0 0];

internalField   nonuniform List<scalar> 
550
(
0
0
0
0
0
0
0
0
0
0
0
0
0
0
0
0
0
0
0
0
0
0
0
0
0
0
0
0
0
0
0
0
0
0
0
0
0
0
0
0
0
0
0
0
0
0
0
0
0
0
0
0
0
0
0
0
0
0
0
0
0
0
0
0.012
0.004
0.004
0
0
0.012
0.012
0
0
0.008
0.016
0.012
0.008
0.004
0
0
0
0.024
0.012
0.008
0.004
0
0
0
0.004
0
0
0
0.012
0.008
0.004
0
0
0
0.012
0.008
0.008
0.008
0.032
0.024
0.012
0
0
0
0.024
0.02
0.016
0.008
0.008
0.008
0.112
0.076
0.052
0.044
0.04
0.04
0.04
0.2
0
0
0
0
0.212
0.396
0.304
1.732
1.376
1.248
1.064
0.868
0.876
1.008
1.032
0.908
0.844
1.2
1.968
1.868
1.76
1.66
1.584
1.54
1.508
1.496
1.484
1.484
1.496
1.524
1.564
1.6
1.636
1.652
1.672
1.68
1.688
1.696
1.708
1.736
1.768
1.824
1.884
1.956
2.016
2.076
2.148
3.76
3.952
3.976
3.924
3.88
3.856
3.84
3.908
4.16
4.268
4.368
4.492
4.724
4.852
4.964
5.084
5.18
5.24
5.288
5.332
5.396
11.252
11.288
11.324
11.348
11.372
11.388
11.404
11.42
11.44
11.464
11.488
11.512
11.54
11.572
11.6
11.628
11.676
11.732
11.796
11.868
11.948
12.028
12.124
12.232
12.328
12.444
12.644
16.352
16.308
16.256
16.192
16.112
16.016
15.884
15.712
15.48
15.26
14.972
14.856
14.772
14.684
14.576
14.372
13.32
13.212
13.152
13.108
13.076
13.044
13.016
12.988
12.956
12.924
12.892
12.86
12.824
12.792
12.752
12.716
12.664
12.592
11.776
11.584
11.492
11.444
11.412
11.396
11.392
11.392
11.4
11.412
11.432
11.456
11.484
8.72
8.488
8.368
8.264
8.116
7.58
7.548
7.532
0
0
0
0
0
0
0
0
0
0
0
0
0
7.712
7.728
6.788
6.68
6.636
6.604
6.58
6.556
6.532
6.508
6.484
6.456
6.424
6.392
6.352
6.308
6.26
6.208
6.156
6.108
6.064
6.028
5.996
5.964
5.94
5.916
5.896
5.876
5.856
5.828
5.8
5.772
5.74
5.704
5.668
5.628
5.584
5.54
5.5
5.46
5.424
5.392
5.36
5.34
5.328
5.328
5.34
5.364
2.76
2.608
2.524
2.46
2.404
2.348
2.296
2.24
0.76
0.476
0.376
0.308
0.256
0.212
0.18
0.148
0.128
0.108
0.084
0.064
0.048
0.032
0.012
0
0
0
0
0
0
0
0
0
0
0
0
0
0
0
0
0
0
0
0
0
0
0
0
0
0
0
0
0
0
0
0
0
0
0
0
0
0
0
0
0
0
1.124
1.128
1.12
1.1
1.076
1.04
1.004
0.968
0.936
0.912
0.912
0.944
1.028
1.204
2.328
0
0
0
0
2.48
2.5
2.528
2.576
19.74
19.532
19.308
19.196
19.128
19.08
19.044
19.016
18.992
18.976
18.964
18.96
18.956
18.96
18.972
18.992
19.02
3.76
3.576
3.476
3.408
3.36
3.32
3.292
3.264
3.244
3.228
3.22
3.228
3.24
3.26
3.28
3.32
3.392
3.548
22.364
22.236
20.204
20.14
20.088
20.036
19.984
19.92
19.844
19.744
19.62
19.476
0.404
0.252
0.14
0.028
0
0
0
0
0
18.208
18.132
18.06
17.996
17.928
17.856
17.78
17.68
17.524
17.12
16.76
16.376
15.648
15.408
15.212
15.048
14.912
14.788
14.668
14.54
14.404
14.264
14.12
13.976
13.792
13.424
13.188
13.024
12.88
12.736
12.552
12.276
12.068
11.936
11.836
11.74
11.648
11.552
11.452
11.344
11.232
11.108
10.98
10.844
10.708
10.568
10.42
9.236
8.968
8.744
8.512
8.256
8.04
7.828
7.152
6.804
6.628
6.444
6.26
6.12
6.04
5.976
5.876
5.784
0
0
0
0
0
0
0
0
0
0
)
;

boundaryField
{
    inlet
    {
        type            calculated;
        value           uniform 0;
    }
    endWall
    {
        type            calculated;
        value           uniform 0;
    }
    sideWall
    {
        type            empty;
    }
}


// ************************************************************************* //
