/*--------------------------------*- C++ -*----------------------------------*\
| =========                 |                                                 |
| \\      /  F ield         | foam-extend: Open Source CFD                    |
|  \\    /   O peration     | Version:     3.2                                |
|   \\  /    A nd           | Web:         http://www.foam-extend.org         |
|    \\/     M anipulation  | For copyright notice see file Copyright         |
\*---------------------------------------------------------------------------*/
FoamFile
{
    version     2.0;
    format      ascii;
    class       volScalarField;
    location    "1440";
    object      testS;
}
// * * * * * * * * * * * * * * * * * * * * * * * * * * * * * * * * * * * * * //

dimensions      [0 0 0 0 0 0 0];

internalField   uniform 0;

boundaryField
{
    inlet
    {
        type            calculated;
        value           uniform 0;
    }
    outlet
    {
        type            calculated;
        value           uniform 0;
    }
    sideWall
    {
        type            empty;
    }
    bed
    {
        type            calculated;
        value           nonuniform List<scalar> 
550
(
0.00292492
0.00539723
0.00903497
0.0139963
0.0203506
0.027996
0.036319
0.0459851
0.0554627
0.0637604
0.0729926
0.0803471
0.0865156
0.091223
0.094664
0.0969317
0.0979989
0.0981405
0.0975716
0.0964328
0.0948841
0.0929977
0.0908821
0.0886453
0.0863137
0.0839664
0.0816371
0.0793875
0.0772438
0.0751845
0.0732262
0.0713654
0.06961
0.067967
0.0664243
0.0649874
0.0636405
0.062379
0.0612187
0.0601331
0.0591165
0.0581861
0.0573163
0.0565026
0.055753
0.0550561
0.0544081
0.053806
0.0532451
0.0527282
0.0522475
0.0517912
0.0513692
0.0509745
0.0506037
0.0502568
0.0499297
0.0496194
0.049346
0.0490476
0.0488311
0.0481008
0.048354
0.0411121
0.0402004
0.047307
0.0471662
0.0469757
0.0362154
0.0466653
0.0465445
0.0463539
0.0303313
0.0278834
0.0460565
0.0459736
0.0459214
0.0458803
0.0458632
0.0461968
0.0158041
0.0458373
0.0457649
0.045652
0.0455756
0.0454253
0.0452984
0.0451799
0.0450429
0.0448448
0.0451088
0.0446002
0.0444395
0.0442115
0.0441196
0.0439503
0.0438074
0.0437092
0.0435597
0.0433659
0.0432588
0.0431359
0.0430144
0.0428784
0.0427666
0.042572
0.0424307
0.00164002
0.0422437
0.042049
0.0419888
0.0417884
0.0416419
0.0415801
0.0414534
0.0412842
0.0412289
0.0410215
0.040925
0.0407696
0.0401869
0.0403919
0.0377374
0.0379016
0.0380528
0.037993
0.0380748
0.0379876
0.0380963
0.0380239
0.0381565
0.0381072
0.0382587
0.0382314
0.0384168
0.038333
0.0384643
0.0384373
0.0383216
0.0385623
0.0386014
0.0380223
0.0382481
0.0382126
0.0382994
0.0382111
0.0382951
0.0382288
0.0383226
0.0382726
0.0383547
0.0383314
0.0383416
0.0384363
0.0382432
0.0385377
0.0380094
0.0384481
0.0379083
0.0382908
0.0380976
0.0381977
0.0383295
0.0382034
0.0383878
0.0381716
0.0382041
0.0377798
0.0377032
0.0369516
0.0405618
0.0404544
0.0400046
0.0397985
0.039471
0.0393331
0.0390938
0.0389945
0.0388122
0.0387368
0.0385966
0.0385368
0.0384264
0.0383795
0.0382928
0.0382533
0.0381851
0.0381505
0.0380986
0.0380683
0.038027
0.0379963
0.0379711
0.0379162
0.0379111
0.0378474
0.0378547
0.0377969
0.0378111
0.0377574
0.0377744
0.0377228
0.0377433
0.0376952
0.0377153
0.0376684
0.0376903
0.0376435
0.037665
0.0376197
0.0376422
0.0375987
0.0376198
0.0375789
0.0375993
0.0375572
0.0375802
0.0375388
0.0375598
0.0375193
0.0375397
0.037498
0.037521
0.0374757
0.0374995
0.0374485
0.0374758
0.0374193
0.0374498
0.0373885
0.0374229
0.0373598
0.0373965
0.0373336
0.0373685
0.0373085
0.0373417
0.0372866
0.0373162
0.0372642
0.037293
0.0372414
0.0372695
0.0372132
0.0372449
0.0371871
0.0372207
0.0371613
0.0371973
0.0371355
0.0371742
0.0371101
0.0371517
0.0370849
0.0371291
0.0370593
0.0371072
0.0370363
0.0370828
0.0370163
0.0370631
0.036992
0.0370413
0.0369698
0.0370192
0.0369468
0.0369991
0.0369233
0.0369786
0.0368984
0.0369573
0.0368732
0.0369353
0.0368566
0.0369142
0.0368482
0.0368921
0.0368546
0.0368708
0.0368745
0.036848
0.0368779
0.0368271
0.0368809
0.036809
0.036853
0.0367904
0.0368267
0.0367724
0.0368045
0.0367573
0.0367829
0.0367426
0.0367624
0.0367285
0.0367446
0.0367145
0.0367271
0.0367002
0.0367085
0.0366852
0.0366903
0.0366705
0.0366733
0.0366548
0.0366555
0.0366386
0.0366382
0.0366219
0.0366214
0.0366048
0.0366034
0.0365871
0.0365845
0.0365713
0.036566
0.0365525
0.0365462
0.0365333
0.0365251
0.0365124
0.0365049
0.0364925
0.0364824
0.0364696
0.0364602
0.0364473
0.0364375
0.0364244
0.0364133
0.0364005
0.03639
0.036377
0.0363654
0.0363534
0.0363417
0.0363284
0.0363174
0.0363048
0.0362926
0.03628
0.0362676
0.0362546
0.0362426
0.0362289
0.0362167
0.0362039
0.0361922
0.0361797
0.0361677
0.0361566
0.0361388
0.0361017
0.0360749
0.0360499
0.0360306
0.0360113
0.0359966
0.0359805
0.0359674
0.0359531
0.0359417
0.0359289
0.0359187
0.035908
0.0358983
0.035889
0.03588
0.0358715
0.0358633
0.0358558
0.0358494
0.0358425
0.0358373
0.0358307
0.0358248
0.0358189
0.0358141
0.0358085
0.0358042
0.035799
0.0357945
0.0357909
0.035787
0.0357832
0.0357804
0.0357771
0.0357745
0.0357712
0.0357685
0.0357666
0.0357649
0.0357632
0.0357611
0.0357598
0.0357595
0.0357596
0.0357591
0.0357596
0.0357592
0.0357604
0.0357594
0.0357607
0.0357593
0.0357583
0.0357562
0.0357559
0.0357526
0.0357504
0.035747
0.0357451
0.0357392
0.0357361
0.0357321
0.0357286
0.0357219
0.0357191
0.0357151
0.0357119
0.0357088
0.0357055
0.0357038
0.0357024
0.0356986
0.0356981
0.0356962
0.0356961
0.0356947
0.0356944
0.0356927
0.0356918
0.0356895
0.0356882
0.0356854
0.0356825
0.0356789
0.0356751
0.0356705
0.0356653
0.0356603
0.0356564
0.0356498
0.0356427
0.0356358
0.0356297
0.0356213
0.0356128
0.035604
0.0355948
0.0355856
0.0355753
0.0355656
0.0355575
0.0355476
0.0355375
0.0355278
0.035518
0.0355081
0.0354983
0.0354887
0.0354784
0.0354689
0.0354585
0.0354485
0.0354376
0.035427
0.0354154
0.0354046
0.035393
0.0353816
0.0353696
0.0353584
0.0353468
0.0353355
0.035325
0.0353143
0.0353023
0.0352942
0.0352854
0.0352754
0.0352695
0.035262
0.0352547
0.0352485
0.035242
0.0352356
0.0352297
0.0352242
0.0352185
0.0352126
0.0352068
0.0352005
0.0351937
0.0351869
0.0351796
0.0351735
0.0351649
0.0351573
0.0351521
0.0351445
0.0351381
0.0351313
0.035126
0.0351192
0.035115
0.035111
0.0351058
0.0350996
0.0350931
0.0350857
0.0350774
0.0350736
0.0350601
0.0350587
0.0350416
0.0350374
0.0350309
0.0349941
0.0350439
0.0348886
0.0351447
0.0346102
0.0352589
0.0341296
0.0352057
0.0336652
0.0351298
0.0333712
0.0350053
0.0334822
0.0347931
0.0343496
0.0344193
0.0343506
0.0337113
0.0328825
0.0322012
0.0299946
0.0298566
0.0325245
0.0123954
0.0106575
0.00767818
0.00567105
0.00318939
0.00165197
0.000851461
0.00100866
0.000812992
0.00290476
)
;
    }
    endWall
    {
        type            calculated;
        value           uniform 0;
    }
    topWall
    {
        type            calculated;
        value           uniform 0;
    }
}


// ************************************************************************* //
