/*--------------------------------*- C++ -*----------------------------------*\
| =========                 |                                                 |
| \\      /  F ield         | foam-extend: Open Source CFD                    |
|  \\    /   O peration     | Version:     3.2                                |
|   \\  /    A nd           | Web:         http://www.foam-extend.org         |
|    \\/     M anipulation  | For copyright notice see file Copyright         |
\*---------------------------------------------------------------------------*/
FoamFile
{
    version     2.0;
    format      ascii;
    class       areaScalarField;
    location    "1440";
    object      thetaSS2;
}
// * * * * * * * * * * * * * * * * * * * * * * * * * * * * * * * * * * * * * //

dimensions      [0 0 0 0 0 0 0];

internalField   nonuniform List<scalar> 
550
(
0.514768
0.710863
0.949225
1.22775
1.53968
1.87434
2.21902
2.55945
2.88311
3.17863
3.43785
3.65586
3.83282
3.96786
4.06343
4.12481
4.15553
4.15976
4.14336
4.11189
4.06875
4.01664
3.95762
3.89418
3.82809
3.76078
3.69348
3.6275
3.56394
3.50273
3.44392
3.38764
3.33399
3.28317
3.23519
3.19009
3.14771
3.10781
3.07054
3.03569
3.00295
2.97252
2.94414
2.91754
2.89274
2.86962
2.84806
2.82795
2.80915
2.79168
2.77545
2.76015
2.7458
2.73235
2.7197
2.70784
2.69663
2.68603
2.67634
2.66666
2.65815
2.64944
2.64154
2.63349
2.6263
2.61885
2.6121
2.60516
2.59889
2.59258
2.58668
2.58056
2.57481
2.56928
2.56379
2.55868
2.55406
2.54862
2.5439
2.53871
2.53447
2.53031
2.52608
2.52173
2.51751
2.51291
2.5087
2.50498
2.50085
2.49641
2.49199
2.48846
2.4854
2.48167
2.47829
2.47447
2.47028
2.46676
2.46354
2.45969
2.45575
2.45211
2.44843
2.44465
2.44131
2.43751
2.43313
2.4294
2.42612
2.42153
2.41787
2.41397
2.40911
2.40378
2.401
2.39656
2.39336
2.38864
2.38394
2.37694
2.37396
2.36342
2.35236
2.35589
2.35979
2.36574
2.37149
2.37735
2.38273
2.38768
2.39201
2.39568
2.3985
2.40058
2.40119
2.40155
2.39993
2.3938
2.38875
2.38716
2.38146
2.37736
2.37736
2.37747
2.37801
2.37864
2.3794
2.37993
2.38034
2.38015
2.37984
2.37861
2.37806
2.37569
2.37503
2.37152
2.37099
2.36741
2.36653
2.36318
2.36018
2.35591
2.35057
2.34505
2.33888
2.33307
2.3277
2.31999
2.31308
2.28926
2.25238
2.23977
2.22727
2.21857
2.21136
2.20503
2.20015
2.19545
2.19197
2.18845
2.18594
2.18331
2.1815
2.17951
2.17821
2.17671
2.17577
2.17464
2.17394
2.17314
2.17264
2.17207
2.17172
2.17141
2.17121
2.17109
2.171
2.17098
2.17097
2.17098
2.17101
2.17105
2.1711
2.17114
2.17118
2.17123
2.17128
2.17133
2.17139
2.17147
2.17155
2.17164
2.17174
2.17184
2.17194
2.17206
2.17218
2.17229
2.17241
2.17253
2.17264
2.17277
2.17288
2.17301
2.17311
2.17328
2.17338
2.1736
2.17373
2.17399
2.17416
2.17445
2.17465
2.17496
2.17518
2.17549
2.17575
2.17605
2.17634
2.17666
2.17697
2.17731
2.17762
2.17802
2.17835
2.17877
2.17911
2.17956
2.17991
2.18038
2.18072
2.18121
2.18154
2.18202
2.18232
2.1828
2.18307
2.18352
2.18375
2.18413
2.18429
2.18464
2.18475
2.18504
2.18509
2.18531
2.18531
2.18549
2.18543
2.18556
2.18545
2.18553
2.1854
2.18537
2.18522
2.18505
2.18488
2.1845
2.18432
2.18372
2.18352
2.18275
2.18252
2.18163
2.18134
2.18046
2.18011
2.17925
2.17884
2.17797
2.1775
2.17663
2.1761
2.17522
2.17462
2.17372
2.17307
2.17215
2.17145
2.17052
2.16978
2.16885
2.16806
2.16713
2.16634
2.16542
2.16463
2.16374
2.16295
2.16211
2.16137
2.16059
2.1599
2.15918
2.15855
2.15791
2.15734
2.15679
2.1563
2.15582
2.15539
2.15497
2.15461
2.15426
2.15395
2.15365
2.15339
2.15314
2.15292
2.15272
2.15255
2.1524
2.15229
2.15219
2.15213
2.15211
2.15212
2.15217
2.15225
2.15239
2.15256
2.15279
2.15306
2.15338
2.15376
2.15419
2.15465
2.15517
2.15574
2.15635
2.157
2.15775
2.15863
2.15959
2.16063
2.16172
2.16285
2.16402
2.16521
2.16644
2.16768
2.16894
2.17022
2.17151
2.17281
2.17412
2.17544
2.17676
2.17807
2.17939
2.18071
2.18202
2.18331
2.18458
2.18582
2.18703
2.18822
2.18937
2.19049
2.19158
2.19263
2.19366
2.19464
2.19559
2.19651
2.19739
2.19823
2.19903
2.19981
2.20055
2.20126
2.20194
2.2026
2.20323
2.20385
2.20444
2.20502
2.20558
2.20611
2.20661
2.20707
2.20751
2.2079
2.20824
2.20855
2.20881
2.20903
2.20921
2.20935
2.20946
2.20952
2.20956
2.20958
2.20957
2.20953
2.20948
2.20944
2.20939
2.20935
2.20929
2.20925
2.2092
2.20914
2.2091
2.20906
2.20902
2.20899
2.20894
2.20889
2.20884
2.20877
2.2087
2.20861
2.20852
2.20843
2.20833
2.20823
2.20813
2.20804
2.20797
2.2079
2.20783
2.20778
2.20774
2.20771
2.20769
2.20769
2.20771
2.20775
2.20782
2.20792
2.20806
2.20822
2.20841
2.20862
2.20887
2.20914
2.20943
2.20975
2.21009
2.21046
2.21084
2.21124
2.21166
2.2121
2.21256
2.21303
2.21354
2.21406
2.21461
2.21519
2.21579
2.21643
2.21711
2.21783
2.21859
2.2194
2.22026
2.22117
2.22212
2.22312
2.22415
2.22522
2.22631
2.22742
2.22857
2.22973
2.23091
2.23211
2.23331
2.23452
2.23574
2.23696
2.23819
2.23942
2.24067
2.24193
2.24324
2.24456
2.24591
2.24728
2.24869
2.25011
2.25156
2.25303
2.2545
2.25595
2.25741
2.25885
2.2603
2.26173
2.26316
2.26456
2.26596
2.26724
2.2688
2.26979
2.27167
2.27224
2.27484
2.27454
2.27856
2.27732
2.28308
2.28151
2.28835
2.28664
2.29277
2.29108
2.2937
2.29218
2.28813
2.28628
2.27567
2.2718
2.25006
2.23289
2.16785
2.06608
1.67147
1.21765
1.04407
0.864994
0.729884
0.537813
0.392022
0.29928
0.319761
0.499924
0.807106
)
;

boundaryField
{
    inlet
    {
        type            calculated;
        value           uniform 0;
    }
    endWall
    {
        type            calculated;
        value           uniform 0;
    }
    sideWall
    {
        type            empty;
    }
}


// ************************************************************************* //
