/*--------------------------------*- C++ -*----------------------------------*\
| =========                 |                                                 |
| \\      /  F ield         | foam-extend: Open Source CFD                    |
|  \\    /   O peration     | Version:     3.2                                |
|   \\  /    A nd           | Web:         http://www.foam-extend.org         |
|    \\/     M anipulation  | For copyright notice see file Copyright         |
\*---------------------------------------------------------------------------*/
FoamFile
{
    version     2.0;
    format      ascii;
    class       areaScalarField;
    location    "1440";
    object      thetaC2SS1;
}
// * * * * * * * * * * * * * * * * * * * * * * * * * * * * * * * * * * * * * //

dimensions      [0 0 0 0 0 0 0];

internalField   nonuniform List<scalar> 
550
(
0.127601
0.127709
0.127601
0.127601
0.127601
0.127601
0.128389
0.127601
0.127601
0.128697
0.127601
0.127601
0.127601
0.127601
0.127601
0.127601
0.127601
0.127601
0.127601
0.127601
0.127601
0.127601
0.127601
0.127601
0.127601
0.127601
0.127601
0.127601
0.127601
0.127601
0.127601
0.127601
0.127601
0.127601
0.127601
0.127601
0.127601
0.127601
0.127601
0.127601
0.127601
0.127601
0.127601
0.127601
0.127601
0.127601
0.127601
0.127601
0.127601
0.127601
0.127601
0.127601
0.127601
0.127601
0.127601
0.127601
0.127601
0.127601
0.127601
0.127601
0.127601
0.128367
0.127601
0.140966
0.142668
0.128361
0.128366
0.128348
0.150968
0.128341
0.128341
0.12832
0.167241
0.175981
0.128292
0.128294
0.128316
0.128293
0.128301
0.127601
0.248129
0.128331
0.128348
0.128357
0.128368
0.128357
0.128363
0.128392
0.128398
0.128385
0.127601
0.128401
0.128454
0.128471
0.128505
0.128514
0.128504
0.128526
0.128563
0.128565
0.128562
0.128574
0.128582
0.128586
0.128613
0.128616
0.128589
0.797648
0.128634
0.128601
0.128619
0.128628
0.128586
0.128521
0.128594
0.128581
0.128636
0.12861
0.128588
0.128444
0.128519
0.128185
0.127824
0.128257
0.128714
0.129286
0.129851
0.130426
0.130978
0.13151
0.13201
0.132477
0.1329
0.133284
0.133588
0.1337
0.134072
0.133711
0.132279
0.132458
0.132479
0.130927
0.13109
0.131249
0.131388
0.131541
0.13171
0.131886
0.132059
0.132197
0.132301
0.132371
0.132416
0.132437
0.132428
0.132373
0.13229
0.132206
0.132154
0.132111
0.131967
0.131743
0.131429
0.131033
0.13064
0.130331
0.130183
0.130089
0.129859
0.129338
0.120934
0.121034
0.121128
0.12122
0.121305
0.121389
0.121473
0.121548
0.121624
0.121694
0.121759
0.121825
0.121886
0.121943
0.121999
0.122051
0.122103
0.122151
0.122195
0.12224
0.122284
0.122324
0.122362
0.122403
0.122437
0.122476
0.122507
0.122543
0.122576
0.122609
0.12264
0.12267
0.122702
0.122734
0.122763
0.122792
0.122823
0.12285
0.122878
0.122908
0.122939
0.122971
0.123001
0.123036
0.123067
0.1231
0.123138
0.123171
0.123205
0.12324
0.123273
0.123307
0.123345
0.123377
0.123409
0.123445
0.123477
0.123514
0.123548
0.123585
0.123624
0.123664
0.123703
0.123746
0.123786
0.123825
0.123869
0.123908
0.123952
0.123991
0.124035
0.124079
0.124119
0.124164
0.124208
0.124253
0.124297
0.124342
0.124386
0.12443
0.124474
0.124517
0.12456
0.124602
0.124643
0.124683
0.124722
0.124763
0.124799
0.124833
0.124861
0.124891
0.124921
0.124949
0.124974
0.124994
0.125017
0.125039
0.125054
0.125073
0.125086
0.125098
0.125114
0.125125
0.125133
0.125141
0.125146
0.125151
0.12515
0.125151
0.125151
0.125144
0.12514
0.125131
0.12512
0.125108
0.125094
0.125079
0.125062
0.12504
0.125021
0.124997
0.124975
0.124948
0.12492
0.124892
0.124863
0.124832
0.124802
0.124771
0.12474
0.124709
0.124673
0.124643
0.124609
0.124579
0.124546
0.124518
0.124488
0.12446
0.124437
0.124412
0.124394
0.124374
0.124357
0.124346
0.124334
0.124328
0.124322
0.124323
0.124321
0.124323
0.124327
0.124336
0.124344
0.124354
0.124366
0.124379
0.124395
0.124413
0.124432
0.124451
0.124474
0.124499
0.124525
0.124554
0.124586
0.124619
0.124655
0.124695
0.124737
0.124783
0.124831
0.124883
0.124939
0.124997
0.125057
0.125121
0.125187
0.125257
0.125326
0.125398
0.125472
0.125546
0.125622
0.125699
0.125775
0.125853
0.125931
0.126009
0.126089
0.126169
0.126248
0.126329
0.126409
0.126491
0.126572
0.126655
0.126736
0.12682
0.126902
0.126985
0.127068
0.127151
0.127233
0.127314
0.127394
0.127473
0.127551
0.127629
0.127706
0.12778
0.127853
0.127924
0.127993
0.128061
0.128125
0.128188
0.128246
0.128305
0.128361
0.128413
0.128463
0.128512
0.128558
0.128602
0.128646
0.128686
0.128727
0.128762
0.128799
0.12883
0.128864
0.128895
0.128921
0.12895
0.128976
0.129
0.129025
0.129048
0.129068
0.129089
0.129108
0.129129
0.129146
0.129161
0.129175
0.129192
0.129204
0.129219
0.129229
0.129242
0.129254
0.129261
0.129272
0.129281
0.12929
0.129298
0.129306
0.129313
0.129319
0.129324
0.129329
0.129333
0.129339
0.129343
0.129347
0.129353
0.129358
0.129364
0.129375
0.129383
0.129391
0.1294
0.129415
0.129426
0.12944
0.129454
0.129469
0.129488
0.129508
0.129531
0.129562
0.129588
0.129618
0.12965
0.129682
0.129718
0.129755
0.129793
0.129833
0.129874
0.129917
0.129961
0.130006
0.130052
0.1301
0.130148
0.130197
0.130248
0.130299
0.130353
0.130408
0.130465
0.130525
0.130586
0.130643
0.130708
0.130776
0.130839
0.130909
0.130981
0.131049
0.131123
0.131192
0.131268
0.131339
0.131417
0.13149
0.131569
0.131642
0.131722
0.131797
0.131878
0.131954
0.132036
0.132114
0.132193
0.13228
0.132362
0.132446
0.132532
0.132619
0.132708
0.132797
0.132894
0.132984
0.133073
0.133163
0.133252
0.13334
0.133435
0.133523
0.133611
0.133699
0.133792
0.133879
0.133965
0.134058
0.134143
0.134228
0.134319
0.134406
0.134485
0.13457
0.134652
0.134733
0.134816
0.134889
0.134964
0.135033
0.135136
0.135206
0.135405
0.135551
0.136063
0.136693
0.138144
0.141644
0.139377
0.127601
0.127601
0.127601
0.127601
0.127601
0.127601
0.127601
0.127601
0.216921
0.199528
)
;

boundaryField
{
    inlet
    {
        type            calculated;
        value           uniform 0;
    }
    endWall
    {
        type            calculated;
        value           uniform 0;
    }
    sideWall
    {
        type            empty;
    }
}


// ************************************************************************* //
