/*--------------------------------*- C++ -*----------------------------------*\
| =========                 |                                                 |
| \\      /  F ield         | foam-extend: Open Source CFD                    |
|  \\    /   O peration     | Version:     3.2                                |
|   \\  /    A nd           | Web:         http://www.foam-extend.org         |
|    \\/     M anipulation  | For copyright notice see file Copyright         |
\*---------------------------------------------------------------------------*/
FoamFile
{
    version     2.0;
    format      ascii;
    class       areaScalarField;
    location    "1440";
    object      thetaHMaxB;
}
// * * * * * * * * * * * * * * * * * * * * * * * * * * * * * * * * * * * * * //

dimensions      [0 0 0 0 0 0 0];

internalField   nonuniform List<scalar> 
550
(
0
0
0
0
0
0
0
0
0
0
0
0
0
0
0
0
0
0
0
0
0
0
0
0
0
0
0
0
0
0
0
0
0
0
0
0
0
0
0
0
0
0
0
0
0
0
0
0
0
0
0
0
0
0
0
0
0
0
0
0
0
0
0
0
0
0
0
0
0
0
0
0
0
0
0
0
0
0
0
0
0
0
0
0
0
0
0
0
0
0
0
0
0
0
0
0
0
0
0
0
0
0
0
0
0
0
0
0
0
0
0
0
0
0
0
0
0
0
0
0
0
0
0
0
0
0
0
0
0
0
0
0.0719379
0.0717114
0.0717737
0.0717918
0.0717062
0.07176
0.0714206
0.0705114
0.0704622
0.0703302
0.0693643
0.0693086
0.069251
0.0691836
0.069123
0.069072
0.0690242
0.0689753
0.0689089
0.0688256
0.0687249
0.068612
0.0684883
0.0683494
0.0681889
0.0680151
0.0678422
0.0676868
0.0675379
0.067339
0.0671018
0.0668201
0.0664991
0.0661825
0.06591
0.0657215
0.0655614
0.0653358
0.0649655
0.0606453
0.0605976
0.060548
0.0604996
0.060449
0.0603995
0.0603512
0.0603005
0.060251
0.0602009
0.0601502
0.0601007
0.0600506
0.06
0.0599507
0.059901
0.0598527
0.0598039
0.0597548
0.0597072
0.0596611
0.0596145
0.0595676
0.0595242
0.0594784
0.0594361
0.0593913
0.0593501
0.0593084
0.0592682
0.0592274
0.0591881
0.0591502
0.0591138
0.0590767
0.059041
0.0590068
0.058972
0.0589387
0.0589069
0.0588766
0.0588479
0.0588186
0.0587927
0.0587659
0.0587401
0.0587176
0.0586935
0.0586701
0.0586472
0.0586247
0.0586024
0.0585824
0.0585602
0.0585378
0.0585176
0.058495
0.0584744
0.0584514
0.0584304
0.0584093
0.058388
0.0583666
0.058347
0.0583253
0.0583033
0.0582833
0.058261
0.0582407
0.0582183
0.058198
0.0581778
0.0581555
0.0581354
0.0581154
0.0580954
0.0580755
0.0580556
0.0580358
0.058016
0.0579961
0.0579763
0.0579563
0.0579361
0.0579158
0.0578951
0.0578742
0.0578548
0.0578331
0.057811
0.0577864
0.0577634
0.0577399
0.0577159
0.0576915
0.0576648
0.0576395
0.0576139
0.0575862
0.0575601
0.0575318
0.0575035
0.0574768
0.057448
0.057419
0.0573898
0.0573602
0.0573303
0.0572983
0.0572679
0.0572372
0.0572045
0.0571734
0.0571402
0.0571069
0.0570735
0.05704
0.0570064
0.0569727
0.0569372
0.0569036
0.0568681
0.0568346
0.0567995
0.0567644
0.0567296
0.056695
0.0566607
0.0566266
0.0565928
0.0565593
0.0565262
0.0564918
0.0564596
0.0564263
0.0563953
0.0563633
0.0563336
0.0563031
0.0562734
0.056246
0.0562179
0.0561923
0.0561659
0.0561405
0.0561175
0.0560939
0.0560726
0.0560509
0.0560314
0.0560114
0.0559921
0.0559735
0.0559566
0.0559391
0.0559222
0.0559058
0.055889
0.0558737
0.0558589
0.0558446
0.05583
0.0558167
0.0558038
0.0557909
0.0557791
0.0557677
0.0557564
0.0557462
0.0557364
0.0557272
0.0557187
0.0557107
0.0557034
0.0556966
0.0556903
0.0556843
0.0556786
0.0556731
0.0556679
0.0556625
0.0556573
0.0556518
0.0556461
0.0556406
0.0556344
0.0556275
0.0556208
0.0556138
0.0556061
0.0555986
0.0555904
0.055582
0.0555734
0.0555646
0.0555555
0.0555463
0.055537
0.0555267
0.0555172
0.0555068
0.0554969
0.0554861
0.0554758
0.0554645
0.0554528
0.0554407
0.0554279
0.0554149
0.0554019
0.0553882
0.0553737
0.0553589
0.0553432
0.0553267
0.0553104
0.0552924
0.0552745
0.0552549
0.0552354
0.0552152
0.0551942
0.0551727
0.0551506
0.0551279
0.0551046
0.0550819
0.0550575
0.0550338
0.0550082
0.0549833
0.0549565
0.0549305
0.054904
0.0548755
0.054848
0.0548201
0.0547918
0.0547631
0.0547342
0.0547048
0.054675
0.0546448
0.054616
0.0545853
0.0545542
0.0545229
0.0544931
0.0544614
0.0544312
0.054399
0.0543685
0.0543379
0.0543053
0.0542746
0.0542437
0.0542128
0.0541819
0.0541509
0.0541198
0.0540886
0.0540574
0.0540262
0.053995
0.0539637
0.0539326
0.0539017
0.053871
0.0538406
0.0538105
0.0537827
0.0537532
0.0537242
0.0536956
0.0536692
0.0536414
0.0536141
0.0535873
0.053561
0.0535354
0.0535103
0.0534859
0.053464
0.0534408
0.0534181
0.053396
0.0533743
0.053353
0.0533322
0.0533119
0.0532919
0.0532725
0.0532536
0.0532351
0.053217
0.0531994
0.053182
0.0531651
0.0531484
0.0531321
0.0531161
0.0531005
0.0530852
0.0530702
0.0530555
0.0530411
0.0530248
0.0530111
0.0529977
0.0529823
0.0529694
0.0529567
0.0529418
0.0529293
0.0529145
0.052902
0.0528873
0.052875
0.0528604
0.0528482
0.0528336
0.0528215
0.0528069
0.0527947
0.0527801
0.0527679
0.0527533
0.0527387
0.0527265
0.052712
0.0526976
0.0526833
0.0526689
0.0526545
0.0526399
0.0526274
0.0526122
0.0525967
0.0525807
0.0525645
0.052548
0.052534
0.0525174
0.0525009
0.0524843
0.0524699
0.0524531
0.0524361
0.0524212
0.0524037
0.0523858
0.05237
0.0523512
0.0523297
0.0523092
0.0522858
0.0522597
0.0522333
0.052197
0.052158
0.0521045
0.0520548
0.0519666
0.0519079
0.0517753
0.051736
0.0516272
0.0517212
0.0523251
0.0505547
0
0
0
0
0
0
0
0
0
0
)
;

boundaryField
{
    inlet
    {
        type            calculated;
        value           uniform 0;
    }
    endWall
    {
        type            calculated;
        value           uniform 0;
    }
    sideWall
    {
        type            empty;
    }
}


// ************************************************************************* //
