/*--------------------------------*- C++ -*----------------------------------*\
| =========                 |                                                 |
| \\      /  F ield         | foam-extend: Open Source CFD                    |
|  \\    /   O peration     | Version:     3.2                                |
|   \\  /    A nd           | Web:         http://www.foam-extend.org         |
|    \\/     M anipulation  | For copyright notice see file Copyright         |
\*---------------------------------------------------------------------------*/
FoamFile
{
    version     2.0;
    format      ascii;
    class       areaScalarField;
    location    "1440";
    object      thetaCB;
}
// * * * * * * * * * * * * * * * * * * * * * * * * * * * * * * * * * * * * * //

dimensions      [0 0 0 0 0 0 0];

internalField   nonuniform List<scalar> 
550
(
0.0367204
0.0367514
0.0367204
0.0367204
0.0367204
0.0367204
0.0369472
0.0367204
0.0367204
0.0370359
0.0366936
0.0367204
0.0367472
0.0366989
0.0367204
0.036742
0.0367054
0.0367072
0.0367241
0.0367232
0.0367318
0.0367225
0.0367204
0.0367288
0.0367204
0.0367204
0.036715
0.0367204
0.0367258
0.0367204
0.0367204
0.0367162
0.0367164
0.0367208
0.0367207
0.0367243
0.0367207
0.036717
0.036724
0.0367206
0.0367173
0.0367237
0.0367206
0.0367175
0.0367206
0.0367205
0.0367206
0.0367206
0.0367205
0.0367231
0.036723
0.036718
0.0367204
0.0367205
0.0367204
0.0367205
0.0367204
0.0367185
0.0367288
0.0367034
0.0367461
0.0369211
0.0367334
0.0405467
0.0410792
0.0369233
0.0369662
0.0369082
0.0434627
0.0369202
0.0369705
0.0368924
0.0481207
0.0506462
0.0369375
0.0369234
0.0369334
0.0369078
0.0369289
0.0366632
0.0715175
0.0369554
0.0369352
0.0369208
0.0369556
0.0369066
0.0369365
0.0369615
0.0369767
0.0369135
0.0366908
0.0370106
0.0369936
0.0369073
0.0370132
0.0369575
0.0369666
0.0370247
0.0370131
0.0369466
0.036999
0.0370034
0.0370231
0.0370149
0.0370537
0.0369554
0.0369563
0.229808
0.0370536
0.0369591
0.0370825
0.0369626
0.0369641
0.0370383
0.037141
0.0369496
0.0371363
0.0369516
0.0370574
0.0369622
0.0372263
0.0367326
0.0375155
0.0375655
0.0376248
0.0377798
0.0378925
0.0380549
0.0381558
0.038301
0.0383798
0.0384996
0.0385501
0.0386397
0.0386445
0.0386954
0.0386304
0.0385119
0.0383664
0.0383249
0.0382665
0.0381341
0.0381017
0.0381403
0.0381441
0.0381988
0.0382103
0.0382627
0.0382698
0.0383066
0.0383009
0.0383108
0.0383138
0.0382743
0.0383248
0.038175
0.0383416
0.0380104
0.0383224
0.0378159
0.0382025
0.0375922
0.0379592
0.0373365
0.0376589
0.0370698
0.0373686
0.0367187
0.0368578
0.0356872
0.0347077
0.0349767
0.0347127
0.0349541
0.0347989
0.0350022
0.0348878
0.0350575
0.0349681
0.0351088
0.0350388
0.0351543
0.0351008
0.0351936
0.0351551
0.0352282
0.0352028
0.0352586
0.035244
0.0352863
0.0352822
0.0353122
0.0353167
0.0353403
0.0353455
0.0353671
0.0353695
0.03539
0.0353915
0.0354109
0.0354114
0.03543
0.0354302
0.0354481
0.0354479
0.0354652
0.0354649
0.0354818
0.0354813
0.0354984
0.0354982
0.0355154
0.0355155
0.0355327
0.0355333
0.0355504
0.0355515
0.0355686
0.0355696
0.0355866
0.0355877
0.035605
0.0356059
0.035624
0.0356235
0.0356443
0.0356412
0.0356656
0.0356591
0.0356881
0.0356775
0.0357115
0.0356964
0.0357357
0.0357159
0.0357591
0.0357361
0.0357826
0.0357575
0.0358064
0.0357801
0.0358317
0.0358028
0.0358579
0.0358252
0.0358849
0.035847
0.0359121
0.0358677
0.0359394
0.0358871
0.0359666
0.035905
0.0359932
0.035921
0.0360189
0.0359348
0.0360438
0.0359466
0.0360652
0.0359558
0.0360854
0.0359627
0.0361038
0.0359673
0.0361198
0.0359692
0.0361348
0.0359687
0.0361482
0.0359654
0.0361594
0.0359598
0.0361673
0.0359525
0.0361706
0.0359454
0.0361672
0.0359407
0.0361564
0.0359424
0.0361398
0.0359459
0.0361187
0.0359513
0.0360969
0.0359523
0.0360747
0.0359494
0.0360512
0.0359435
0.0360279
0.0359349
0.0360042
0.0359232
0.0359802
0.0359099
0.0359563
0.0358954
0.0359329
0.0358798
0.0359099
0.0358629
0.0358875
0.0358463
0.0358665
0.0358304
0.0358471
0.0358158
0.0358299
0.0358041
0.0358162
0.0357954
0.0358058
0.0357895
0.0357998
0.0357876
0.0357975
0.035789
0.0357988
0.035793
0.0358024
0.0357996
0.0358094
0.0358084
0.0358181
0.035819
0.0358287
0.0358318
0.035842
0.0358466
0.0358572
0.0358639
0.0358752
0.0358834
0.0358962
0.0359063
0.0359201
0.0359324
0.0359479
0.0359623
0.0359798
0.0359963
0.0360158
0.0360347
0.0360559
0.0360767
0.0360995
0.0361224
0.0361472
0.0361716
0.0362003
0.0362281
0.0362544
0.036281
0.0363064
0.0363322
0.0363573
0.0363831
0.0364082
0.0364339
0.036459
0.0364847
0.0365099
0.0365356
0.0365609
0.0365865
0.0366119
0.0366371
0.0366625
0.0366875
0.0367126
0.0367373
0.0367617
0.036786
0.0368097
0.036833
0.0368558
0.0368785
0.0369004
0.0369221
0.0369429
0.0369633
0.036983
0.037002
0.0370205
0.0370381
0.0370552
0.0370715
0.0370871
0.037102
0.0371163
0.03713
0.0371431
0.0371554
0.0371674
0.0371788
0.0371897
0.0372
0.0372098
0.0372189
0.0372277
0.0372357
0.0372437
0.0372507
0.0372578
0.037264
0.0372705
0.0372759
0.0372815
0.0372863
0.0372914
0.0372955
0.0373002
0.0373038
0.0373078
0.0373107
0.0373145
0.0373171
0.0373201
0.0373224
0.0373248
0.0373268
0.0373288
0.0373305
0.0373323
0.0373336
0.0373352
0.0373362
0.0373374
0.0373382
0.0373392
0.0373398
0.0373409
0.0373417
0.0373428
0.0373439
0.0373453
0.037347
0.037349
0.0373515
0.037354
0.0373569
0.0373601
0.037364
0.037368
0.0373724
0.0373773
0.0373829
0.0373889
0.037396
0.0374035
0.0374117
0.0374205
0.0374297
0.0374394
0.0374496
0.0374603
0.0374714
0.0374829
0.0374949
0.0375073
0.0375202
0.0375334
0.0375471
0.037561
0.0375755
0.0375901
0.0376054
0.0376209
0.037637
0.0376534
0.0376705
0.0376881
0.037706
0.0377245
0.0377434
0.0377626
0.0377828
0.037803
0.0378236
0.0378452
0.037866
0.037888
0.0379095
0.0379321
0.0379539
0.037977
0.0379993
0.0380227
0.0380454
0.0380692
0.0380923
0.0381165
0.0381401
0.0381646
0.0381891
0.038214
0.0382393
0.0382649
0.0382906
0.0383169
0.0383432
0.0383703
0.0383971
0.0384248
0.0384517
0.0384791
0.0385061
0.0385334
0.038561
0.038588
0.0386167
0.0386417
0.0386706
0.0386986
0.0387217
0.0387615
0.038764
0.0388466
0.0387757
0.0389901
0.0387171
0.0392043
0.0385487
0.039427
0.0382608
0.0395974
0.0378605
0.0396149
0.0373948
0.0393554
0.0369891
0.0387542
0.036318
0.0375172
0.034454
0.034093
0.0279332
0.0178848
0.0367206
0.0367204
0.0367203
0.0367206
0.0367203
0.0367206
0.0369472
0.0369472
0.0628095
0.0577738
)
;

boundaryField
{
    inlet
    {
        type            calculated;
        value           uniform 0;
    }
    endWall
    {
        type            calculated;
        value           uniform 0;
    }
    sideWall
    {
        type            empty;
    }
}


// ************************************************************************* //
