/*--------------------------------*- C++ -*----------------------------------*\
| =========                 |                                                 |
| \\      /  F ield         | foam-extend: Open Source CFD                    |
|  \\    /   O peration     | Version:     3.2                                |
|   \\  /    A nd           | Web:         http://www.foam-extend.org         |
|    \\/     M anipulation  | For copyright notice see file Copyright         |
\*---------------------------------------------------------------------------*/
FoamFile
{
    version     2.0;
    format      ascii;
    class       areaScalarField;
    location    "910";
    object      thetaC2B;
}
// * * * * * * * * * * * * * * * * * * * * * * * * * * * * * * * * * * * * * //

dimensions      [0 0 0 0 0 0 0];

internalField   nonuniform List<scalar> 
550
(
0.0466484
0.0466876
0.0466484
0.0466484
0.0466484
0.0466484
0.0469424
0.0466484
0.0466484
0.0470659
0.0466484
0.047111
0.0466484
0.0466484
0.0471383
0.0466484
0.0466484
0.0471395
0.0471369
0.0471332
0.0471284
0.0466484
0.047118
0.0466484
0.0466484
0.0466484
0.0466484
0.047095
0.0466484
0.0466484
0.0466484
0.0466484
0.0470638
0.0470572
0.0470516
0.0470476
0.0466484
0.0470422
0.04704
0.0466484
0.0470347
0.0470315
0.0466484
0.0470252
0.0470229
0.0470214
0.0470215
0.0470232
0.0470258
0.0470299
0.0466484
0.0466484
0.0470409
0.0466484
0.0470425
0.0466484
0.0470372
0.0466484
0.0466484
0.0470209
0.0470156
0.0466484
0.0466484
0.0466484
0.0466484
0.0469985
0.0466484
0.0469967
0.0466484
0.0469973
0.0469989
0.0466484
0.0466484
0.0470069
0.0470099
0.0466484
0.0466484
0.0466484
0.0470169
0.0466484
0.047011
0.0470046
0.0466484
0.0466484
0.0466484
0.0466484
0.0466484
0.0469476
0.0469397
0.046934
0.0469299
0.0466484
0.0469282
0.0469299
0.0466484
0.0466484
0.0469401
0.0466484
0.0469473
0.0469496
0.0469517
0.0466484
0.0466484
0.0469532
0.0466484
0.0466484
0.0466484
0.0466484
0.0466484
0.0466484
0.0466484
0.0513607
0.04692
0.0469159
0.0580035
0.0563848
0.0469067
0.0617691
0.0579246
0.0468882
0.0468786
0.0670577
0.0468677
0.0468661
0.0466484
0.0766694
0.046849
0.046859
0.0468648
0.0468523
0.0466484
0.0786238
0.046854
0.0468499
0.046852
0.0468533
0.0468487
0.0468438
0.108233
0.0468368
0.0468474
0.0468561
0.0468517
0.0468501
0.0468414
0.046839
0.109558
0.046836
0.0468374
0.0468357
0.046833
0.0466484
0.0468248
0.0468339
0.0468278
0.0466484
0.0468241
0.0468251
0.0468155
0.127544
0.0468087
0.0468099
0.0468109
0.0468075
0.0468011
0.0468029
0.0467944
0.0466484
0.0467833
0.0467851
0.0467713
0.0467623
0.0467618
0.0467537
0.0467481
0.0467476
0.0467498
0.0467445
0.208911
0.0467314
0.0467242
0.0467199
0.0467213
0.0467186
0.0467079
0.0466929
0.0466919
0.0466928
0.046679
0.046666
0.0466604
0.0466495
0.234232
0.0466569
0.0466543
0.0466492
0.0466549
0.04665
0.0466512
0.0466552
0.0466506
0.0466626
0.0466735
0.0466796
0.0466968
0.0467133
0.0467373
0.04674
0.046743
0.046749
0.0467385
0.0467369
0.046729
0.0467162
0.0466603
0.0466484
0.0467267
0.0468253
0.046937
0.0470566
0.0471728
0.0472894
0.0473998
0.0475113
0.0476188
0.0477289
0.0478363
0.0479442
0.0480493
0.0481517
0.0482503
0.0483437
0.0484306
0.0485129
0.0485844
0.0486557
0.0487105
0.0487547
0.0488206
0.0488627
0.0488178
0.0488223
0.0489703
0.0487291
0.0487466
0.0485831
0.0486334
0.0488177
0.0486336
0.0486029
0.048609
0.0485403
0.0485945
0.048472
0.0483818
0.0483939
0.0484383
0.0484534
0.048464
0.0483923
0.0484201
0.0484505
0.0483952
0.0483113
0.0482049
0.0481452
0.0480684
0.0480111
0.0479812
0.0479149
0.0478542
0.0478318
0.0477891
0.0477675
0.0477685
0.0477657
0.0477521
0.0477594
0.0477875
0.0477975
0.0477955
0.0478011
0.0478225
0.0478548
0.0478855
0.0479081
0.047928
0.0479562
0.0479845
0.048006
0.0480205
0.0480328
0.0480496
0.0480675
0.0480797
0.048086
0.0480884
0.0480899
0.0480957
0.0481043
0.0481143
0.0481251
0.0481335
0.0481384
0.0481413
0.0481429
0.0481435
0.048143
0.0481416
0.0481394
0.0481362
0.0481325
0.0481284
0.0481238
0.0481186
0.0481127
0.0481062
0.0480996
0.0480935
0.0480883
0.0480845
0.0480821
0.0480809
0.0480811
0.0480823
0.0480847
0.0480882
0.0480926
0.0480978
0.0481038
0.0481106
0.0481176
0.0481252
0.0481333
0.0481422
0.0481516
0.0481618
0.0481725
0.048184
0.0481962
0.0482091
0.0482232
0.048239
0.0482562
0.0482744
0.0482946
0.0483161
0.0483385
0.0483624
0.0483873
0.0484106
0.0484321
0.04845
0.0484613
0.0484659
0.0484646
0.0484552
0.0484392
0.0484201
0.0483951
0.0483666
0.0483382
0.0483055
0.0482664
0.0482285
0.0481889
0.0481459
0.0481092
0.0480846
0.048071
0.0480605
0.0480473
0.0480313
0.0480131
0.0479944
0.0479756
0.047956
0.0479373
0.04792
0.0479042
0.0478898
0.0478801
0.0478748
0.0478731
0.0478771
0.0478832
0.0478911
0.0478992
0.0479069
0.0479132
0.0479172
0.0479199
0.0479209
0.0479202
0.047917
0.0479131
0.0479072
0.0479004
0.0478934
0.0478856
0.0478782
0.0478711
0.0478637
0.0478568
0.0478499
0.0478435
0.0478371
0.0478313
0.0478252
0.0478194
0.047813
0.0478069
0.0477995
0.0477929
0.0477858
0.0477779
0.0477704
0.0477621
0.0477542
0.0477458
0.0477368
0.0477281
0.0477192
0.0477108
0.0477023
0.0476939
0.0476853
0.0476777
0.0476699
0.0476629
0.0476553
0.0476484
0.0476416
0.0476357
0.0476293
0.0476238
0.0476179
0.0476129
0.047608
0.0476041
0.0475995
0.0475958
0.0475922
0.047588
0.0475854
0.0475823
0.0475795
0.0475778
0.0475765
0.0475756
0.0475753
0.0475754
0.0475768
0.047578
0.0475803
0.0475837
0.0475868
0.0475902
0.0475946
0.0475993
0.0476041
0.0476091
0.0476142
0.04762
0.0476251
0.047631
0.0476371
0.0476425
0.0476491
0.0476553
0.0476621
0.0476705
0.0476791
0.0476888
0.047699
0.0477114
0.0477245
0.0477391
0.0477544
0.0477721
0.0477907
0.0478108
0.0478326
0.0478551
0.0478797
0.0479058
0.047933
0.0479613
0.0479902
0.0480198
0.0480499
0.0480803
0.048111
0.0481419
0.0481729
0.0482036
0.0482351
0.0482665
0.0482982
0.048329
0.0483606
0.0483912
0.0484216
0.0484522
0.0484817
0.0485114
0.0485398
0.0485682
0.0485959
0.0486228
0.0486489
0.048674
0.0486991
0.0487224
0.048746
0.0487689
0.0487915
0.0488128
0.0488349
0.0488567
0.0488786
0.0488992
0.0489201
0.048941
0.0489604
0.048981
0.0489992
0.0490198
0.049036
0.04906
0.0490756
0.0491167
0.0491469
0.0492508
0.0493235
0.0495566
0.0498115
0.0502699
0.0512239
0.0493939
0.0466484
0.0466484
0.0466484
0.0466484
0.0466484
0.0466484
0.0466484
0.0466484
0.0695666
0.0645166
)
;

boundaryField
{
    inlet
    {
        type            calculated;
        value           uniform 0;
    }
    endWall
    {
        type            calculated;
        value           uniform 0;
    }
    sideWall
    {
        type            empty;
    }
}


// ************************************************************************* //
