/*--------------------------------*- C++ -*----------------------------------*\
| =========                 |                                                 |
| \\      /  F ield         | foam-extend: Open Source CFD                    |
|  \\    /   O peration     | Version:     3.2                                |
|   \\  /    A nd           | Web:         http://www.foam-extend.org         |
|    \\/     M anipulation  | For copyright notice see file Copyright         |
\*---------------------------------------------------------------------------*/
FoamFile
{
    version     2.0;
    format      ascii;
    class       areaScalarField;
    location    "910";
    object      thetaB;
}
// * * * * * * * * * * * * * * * * * * * * * * * * * * * * * * * * * * * * * //

dimensions      [0 0 0 0 0 0 0];

internalField   nonuniform List<scalar> 
550
(
0.0222616
0.0307419
0.0410502
0.0530951
0.0665866
0.081063
0.0959758
0.110709
0.12472
0.137512
0.148759
0.158241
0.165903
0.171768
0.175958
0.178626
0.179973
0.180204
0.179532
0.178201
0.176351
0.174106
0.171571
0.168836
0.165984
0.16308
0.16018
0.157336
0.154585
0.15193
0.149375
0.14693
0.144602
0.142397
0.140315
0.138356
0.136515
0.134787
0.133167
0.131649
0.130228
0.128897
0.127652
0.126489
0.125405
0.124394
0.123454
0.12258
0.121768
0.121014
0.120311
0.119654
0.119038
0.118459
0.117912
0.117393
0.1169
0.116431
0.115986
0.115562
0.11516
0.114778
0.114416
0.114071
0.113742
0.113429
0.11313
0.112843
0.112569
0.112307
0.112055
0.111812
0.111579
0.111352
0.111131
0.110915
0.110702
0.110489
0.110277
0.110064
0.10985
0.109635
0.109419
0.109202
0.108986
0.108772
0.10856
0.108354
0.108152
0.107957
0.107768
0.107586
0.10741
0.107239
0.107072
0.106907
0.106743
0.106581
0.106418
0.106256
0.106092
0.105928
0.105764
0.105598
0.105429
0.105259
0.105086
0.10491
0.104731
0.104547
0.104361
0.104174
0.103989
0.103802
0.103608
0.103411
0.10324
0.103029
0.102833
0.102643
0.102434
0.102229
0.10203
0.101835
0.101615
0.101408
0.101213
0.101038
0.100853
0.100627
0.100406
0.100212
0.100029
0.0998185
0.099621
0.0994216
0.0992096
0.0989971
0.0987972
0.0985785
0.0983994
0.0982167
0.0980069
0.0978037
0.0975865
0.0973833
0.0971832
0.0969832
0.0967909
0.096593
0.0963945
0.0961829
0.0959955
0.0958254
0.0956259
0.0954211
0.095249
0.0950692
0.0948701
0.0946789
0.0945027
0.0943317
0.0941624
0.0939866
0.0938071
0.0936463
0.0934672
0.09328
0.0931286
0.0929777
0.0927983
0.0926309
0.0924832
0.0923227
0.0921698
0.0920295
0.091897
0.0917523
0.0916039
0.0914656
0.0913248
0.0911922
0.0910734
0.0909492
0.0908118
0.0906686
0.090555
0.0904475
0.0903139
0.090184
0.0900709
0.0899497
0.0898486
0.0897699
0.0896709
0.0895689
0.0894896
0.0893919
0.0893075
0.0892302
0.0891383
0.0890796
0.0890205
0.0889539
0.08891
0.0888663
0.0888384
0.0887715
0.0887064
0.0886487
0.0885609
0.0884913
0.0884111
0.0883228
0.0881543
0.0880577
0.0881567
0.0882825
0.0884336
0.0885997
0.08876
0.0889214
0.0890713
0.0892236
0.0893683
0.0895173
0.0896607
0.0898042
0.0899416
0.0900734
0.090197
0.0903104
0.0904108
0.0905022
0.0905729
0.0906429
0.0906817
0.0907349
0.0907598
0.0907711
0.0907462
0.0907726
0.0907651
0.090669
0.0906299
0.0905448
0.0905702
0.090563
0.0904784
0.0904403
0.0903881
0.0903385
0.0902904
0.0901986
0.0901332
0.0901006
0.0900801
0.0900501
0.0900075
0.0899596
0.0899417
0.089902
0.0898289
0.0897344
0.089639
0.0895441
0.0894475
0.0893609
0.0892741
0.0891822
0.0891009
0.0890263
0.0889547
0.0888982
0.088851
0.0888067
0.0887678
0.0887435
0.0887253
0.0887049
0.0886852
0.088675
0.0886764
0.0886826
0.0886907
0.0886974
0.0887082
0.088722
0.0887357
0.0887467
0.0887562
0.0887655
0.0887752
0.0887835
0.0887886
0.0887904
0.0887893
0.0887878
0.0887876
0.0887884
0.0887893
0.0887904
0.0887894
0.0887864
0.0887821
0.0887761
0.0887689
0.0887602
0.0887504
0.0887393
0.088727
0.0887137
0.0886994
0.0886844
0.0886683
0.0886516
0.0886343
0.088617
0.0885998
0.0885834
0.0885679
0.0885537
0.0885406
0.088529
0.0885185
0.0885097
0.0885022
0.0884961
0.0884912
0.0884878
0.0884855
0.0884845
0.0884846
0.0884876
0.0884937
0.0885029
0.0885144
0.0885278
0.0885429
0.0885596
0.088578
0.0885981
0.0886196
0.0886424
0.0886661
0.0886903
0.0887145
0.0887383
0.0887611
0.0887817
0.0888002
0.0888167
0.0888305
0.0888389
0.0888431
0.0888411
0.0888316
0.0888157
0.0887929
0.0887636
0.08873
0.0886915
0.0886476
0.0885997
0.0885489
0.0884949
0.0884403
0.0883893
0.0883437
0.0883025
0.0882627
0.0882227
0.0881822
0.0881412
0.0881
0.0880586
0.0880173
0.0879768
0.0879377
0.0879003
0.0878657
0.0878346
0.0878074
0.0877845
0.0877658
0.0877505
0.0877377
0.0877264
0.0877161
0.0877057
0.0876949
0.0876835
0.0876713
0.0876578
0.0876431
0.0876274
0.0876104
0.0875926
0.087574
0.0875548
0.0875355
0.087516
0.0874963
0.0874767
0.0874572
0.0874378
0.0874186
0.0873995
0.0873805
0.0873614
0.0873421
0.0873224
0.0873024
0.0872821
0.0872612
0.0872399
0.087218
0.0871956
0.0871725
0.0871486
0.0871239
0.0870987
0.0870729
0.0870468
0.0870201
0.086993
0.0869658
0.0869386
0.0869115
0.0868843
0.0868573
0.0868306
0.0868045
0.0867788
0.0867537
0.0867292
0.0867053
0.0866822
0.0866597
0.0866378
0.0866164
0.0865955
0.0865751
0.0865554
0.0865366
0.0865183
0.086501
0.0864845
0.0864688
0.0864538
0.0864395
0.0864259
0.086413
0.0864005
0.0863886
0.086377
0.0863653
0.0863538
0.0863423
0.0863307
0.0863189
0.0863067
0.0862943
0.0862817
0.0862688
0.086256
0.0862432
0.0862307
0.0862189
0.0862079
0.0861984
0.0861908
0.0861852
0.0861817
0.0861816
0.0861844
0.0861924
0.0862069
0.086228
0.0862544
0.0862855
0.0863204
0.0863584
0.0863995
0.0864434
0.0864897
0.0865377
0.0865872
0.0866372
0.0866876
0.0867378
0.0867877
0.0868368
0.0868851
0.086932
0.0869778
0.0870222
0.0870654
0.0871069
0.0871474
0.0871866
0.0872252
0.087263
0.0873008
0.0873381
0.0873757
0.0874131
0.0874512
0.0874894
0.0875282
0.0875675
0.0876081
0.0876491
0.0876915
0.0877326
0.0877814
0.0878181
0.0878778
0.0879072
0.0879886
0.087999
0.0881172
0.0881046
0.0882704
0.0882445
0.0884461
0.0884102
0.08861
0.0885701
0.0887017
0.0886696
0.0886429
0.0886299
0.0883842
0.0883566
0.0878491
0.0875591
0.0860648
0.0832446
0.0721816
0.0595527
0.0535059
0.046867
0.0405017
0.0319536
0.0216378
0.0126702
0.0117042
0.0189656
0.0308718
)
;

boundaryField
{
    inlet
    {
        type            calculated;
        value           uniform 0;
    }
    endWall
    {
        type            calculated;
        value           uniform 0;
    }
    sideWall
    {
        type            empty;
    }
}


// ************************************************************************* //
