/*--------------------------------*- C++ -*----------------------------------*\
| =========                 |                                                 |
| \\      /  F ield         | foam-extend: Open Source CFD                    |
|  \\    /   O peration     | Version:     3.2                                |
|   \\  /    A nd           | Web:         http://www.foam-extend.org         |
|    \\/     M anipulation  | For copyright notice see file Copyright         |
\*---------------------------------------------------------------------------*/
FoamFile
{
    version     2.0;
    format      ascii;
    class       areaScalarField;
    location    "910";
    object      thetaHMaxSS2;
}
// * * * * * * * * * * * * * * * * * * * * * * * * * * * * * * * * * * * * * //

dimensions      [0 0 0 0 0 0 0];

internalField   nonuniform List<scalar> 
550
(
0
0
0
0
0
0
0
0
0
0
0
0
0
0
0
0
0
0
0
0
0
0
0
0
0
0
0
0
0
0
0
0
0
0
0
0
0
0
0
0
0
0
0
0
0
0
0
0
0
0
0
0
0
0
0
0
0
0
0
0
0
0
0
0
0
0
0
0
0
0
0
0
0
0
0
0
0
0
0
0
0
0
0
0
0
0
0
0
0
0
0
0
0
0
0
0
0
0
0
0
0
0
0
0
0
0
0
0
0
0
0
0
0
0
0
0
0
0
0
0
0
0
0
0
0
0
0
0
0
0
0
0
0
0
0
0
0
0
0
0
0
0
0
0
0
0
0
0
0
0
0
0
0
0
0
0
0
0
0
0
0
0
0
0
0
0
0
0
0
0
0
0
0
0
0
0
0
0
0
0
0
0
0
0
0
0
0
0
0
0
0
0
0
0
0
0
0
0
0
0
0
0
0
0
0
0
0
0
0
0
0
0
0
0
0
0
0
0
0
0
0
0
0
0
0
0
0
0
0
0
0
0
0
2.09273
2.09436
2.09598
2.09688
2.09732
2.09868
2.09902
2.09561
2.09433
2.0992
2.08739
2.08667
2.07821
2.0789
2.08532
2.07601
2.07325
2.07207
2.06772
2.0686
2.06197
2.05674
2.05586
2.05637
2.05564
2.05473
2.05034
2.05019
2.05015
2.0465
2.04165
2.03587
2.03208
2.02758
2.02393
2.02144
2.01743
2.01367
2.01153
2.00856
2.00648
2.00537
2.00411
2.00241
2.0016
2.00168
2.00101
1.99987
1.99906
1.99893
1.99926
1.99955
1.99953
1.99941
1.99964
1.99991
1.99991
1.99963
1.99929
1.99915
1.99909
1.9988
1.9983
1.99765
1.99699
1.99651
1.99617
1.99591
1.99569
1.99538
1.99494
1.99443
1.99388
1.99329
1.99267
1.99201
1.99132
1.99059
1.98983
1.98905
1.98825
1.98741
1.98652
1.98561
1.98467
1.98375
1.98286
1.982
1.98119
1.98042
1.97969
1.97899
1.97833
1.9777
1.97709
1.97651
1.97596
1.97542
1.97488
1.97436
1.97384
1.97334
1.97284
1.97236
1.97188
1.97141
1.97093
1.97047
1.97002
1.96961
1.96923
1.96887
1.96855
1.96826
1.96796
1.9677
1.96745
1.96711
1.96666
1.96605
1.96514
1.96394
1.96247
1.96067
1.95857
1.95633
1.95384
1.9512
1.94854
1.9457
1.94258
1.93951
1.93635
1.93305
1.92999
1.92742
1.92527
1.92325
1.92111
1.91885
1.91651
1.91414
1.91177
1.90937
1.90701
1.9047
1.90246
1.90028
1.8983
1.89649
1.89484
1.89342
1.89209
1.89085
1.88962
1.88839
1.88712
1.88577
1.88438
1.88295
1.88145
1.87988
1.87829
1.87664
1.87496
1.87329
1.87159
1.86992
1.86827
1.86662
1.865
1.86338
1.8618
1.86022
1.85867
1.85712
1.85559
1.85404
1.8525
1.85093
1.84939
1.84783
1.84626
1.84471
1.84314
1.84159
1.84002
1.83845
1.8369
1.83535
1.83383
1.83232
1.83081
1.82932
1.82786
1.82641
1.825
1.82357
1.82218
1.8208
1.81945
1.81809
1.81677
1.81544
1.81415
1.81286
1.81161
1.81034
1.80911
1.80788
1.80663
1.80544
1.80423
1.80303
1.80186
1.8007
1.79955
1.79841
1.79728
1.79618
1.79507
1.79398
1.79293
1.79186
1.79079
1.78975
1.78871
1.78768
1.78665
1.78561
1.78461
1.78357
1.78257
1.78157
1.78054
1.77956
1.77855
1.77756
1.77662
1.77567
1.77476
1.77384
1.77299
1.77215
1.77135
1.77057
1.76985
1.76915
1.7685
1.7679
1.76731
1.76679
1.76632
1.76587
1.76545
1.76506
1.76468
1.76431
1.76395
1.76359
1.76323
1.76287
1.76248
1.7621
1.76171
1.7613
1.76084
1.76039
1.75989
1.75936
1.75882
1.75821
1.7576
1.75692
1.75625
1.75554
1.7548
1.75402
1.75322
1.75242
1.75155
1.75069
1.74981
1.74892
1.74799
1.74708
1.74617
1.74524
1.74427
1.74327
1.74227
1.74117
1.74008
1.73882
1.73759
1.73601
1.73459
1.73247
1.73096
1.7282
1.72735
1.72362
1.72394
1.7212
1.72192
1.73121
1.63913
0
0
0
0
0
0
0
0
0
0
)
;

boundaryField
{
    inlet
    {
        type            calculated;
        value           uniform 0;
    }
    endWall
    {
        type            calculated;
        value           uniform 0;
    }
    sideWall
    {
        type            empty;
    }
}


// ************************************************************************* //
