/*--------------------------------*- C++ -*----------------------------------*\
| =========                 |                                                 |
| \\      /  F ield         | foam-extend: Open Source CFD                    |
|  \\    /   O peration     | Version:     3.2                                |
|   \\  /    A nd           | Web:         http://www.foam-extend.org         |
|    \\/     M anipulation  | For copyright notice see file Copyright         |
\*---------------------------------------------------------------------------*/
FoamFile
{
    version     2.0;
    format      ascii;
    class       areaVectorField;
    location    "1440";
    object      Ub2;
}
// * * * * * * * * * * * * * * * * * * * * * * * * * * * * * * * * * * * * * //

dimensions      [0 1 -1 0 0 0 0];

internalField   nonuniform List<vector> 
550
(
(0 0 0)
(0 0 0)
(0 0 0)
(0.0324547 8.72561e-24 -6.491e-05)
(0.0453997 1.29095e-23 -9.0798e-05)
(0.0579169 2.03436e-29 -0.000115834)
(0.0694532 -1.96096e-23 -0.000138903)
(0.0804433 -2.18448e-23 -0.000160887)
(0.0900237 0 -0.000180057)
(0.0979867 -1.87324e-29 -0.000195968)
(0.105296 -6.77779e-29 -0.000260369)
(0.11092 0 -0.000221839)
(0.115356 3.48623e-30 -0.000176175)
(0.118743 0 -0.00028259)
(0.121049 -2.89228e-23 -0.000242098)
(0.122508 0 -0.00019849)
(0.123282 0 -0.000279171)
(0.123382 0 -0.000275549)
(0.122971 -2.13498e-23 -0.00023805)
(0.122216 0 -0.00023843)
(0.121166 0 -0.000218056)
(0.119911 -1.75204e-23 -0.000235364)
(0.118471 -1.63604e-23 -0.000236941)
(0.116899 0 -0.000216613)
(0.115266 -1.40709e-23 -0.000230545)
(0.11358 -1.28323e-23 -0.000227159)
(0.111884 1.19044e-23 -0.000234493)
(0.110195 0 -0.000220353)
(0.108553 1.10556e-30 -0.000206754)
(0.10697 0 -0.000213916)
(0.105429 7.00152e-30 -0.000210847)
(0.103947 9.05703e-24 -0.000215647)
(0.102519 -6.94235e-30 -0.000212345)
(0.101151 7.94183e-24 -0.000201723)
(0.0998535 7.10837e-30 -0.000199191)
(0.0986215 -3.44971e-30 -0.000190452)
(0.0974634 1.09618e-29 -0.00019453)
(0.096366 -6.47319e-24 -0.000198541)
(0.0953238 0 -0.000184702)
(0.0943538 0 -0.000188479)
(0.0934375 0 -0.000192045)
(0.0925717 -4.60055e-24 -0.000179838)
(0.0917696 0 -0.000183317)
(0.0910142 -4.19119e-24 -0.000186714)
(0.0903008 0 -0.000180333)
(0.0896362 0 -0.000179105)
(0.0890136 3.08006e-24 -0.000177822)
(0.0884309 9.58395e-30 -0.000176648)
(0.0878845 0 -0.000175653)
(0.0873725 2.06607e-24 -0.000170593)
(0.0868976 0 -0.000169809)
(0.0864541 -1.84286e-24 -0.000176646)
(0.0860292 0 -0.000172049)
(0.0856326 7.25961e-30 -0.000171199)
(0.0852588 -1.11522e-24 -0.000170499)
(0.0849072 0 -0.000169674)
(0.0845746 -5.2493e-30 -0.000169196)
(0.0842611 -8.47188e-25 -0.000171396)
(0.0839617 3.69167e-25 -0.000155495)
(0.0836987 0 -0.000192536)
(0.0833999 -5.77802e-25 -0.000129129)
(0.082959 0 -0.000194478)
(0.082916 0 -0.000146874)
(0.0788393 1.84611e-29 -0.000182536)
(0.0781006 -4.12507e-24 -0.000128019)
(0.0820354 -4.13398e-25 -0.00018696)
(0.0817891 -1.75488e-27 -0.000126692)
(0.08164 -8.18824e-24 -0.000201969)
(0.0749833 -1.86164e-27 -0.00012996)
(0.0812438 4.30616e-24 -0.00018112)
(0.0810152 -3.46271e-27 -0.000109278)
(0.0809121 -1.4003e-23 -0.000211523)
(0.0699512 0 -0.000146594)
(0.0675352 0 -0.000132316)
(0.0803524 -1.62773e-27 -0.00013513)
(0.0802108 1.33928e-27 -0.0001555)
(0.0800577 -8.94899e-25 -0.000150092)
(0.0799185 0 -0.000176192)
(0.0797575 7.0606e-27 -0.000149614)
(0.0798717 -3.05095e-25 -0.000240208)
(0.0497222 1.90586e-27 -4.8907e-05)
(0.0793086 -3.36098e-27 -0.000123895)
(0.0792002 2.23547e-24 -0.00015857)
(0.079079 0 -0.000181673)
(0.0789142 1.37829e-23 -0.000137736)
(0.0788284 -2.14141e-23 -0.000200941)
(0.0786658 0 -0.000161899)
(0.078519 1.76218e-24 -0.000138626)
(0.0783817 0 -0.000119663)
(0.0783161 -3.11999e-23 -0.000201263)
(0.0784059 2.7878e-24 -0.000197809)
(0.0779619 -3.01051e-27 -7.41641e-05)
(0.077886 0 -0.000118116)
(0.0778581 -4.63287e-27 -0.0002423)
(0.0776447 7.76475e-28 -0.000110812)
(0.077589 2.10951e-23 -0.000190137)
(0.0774499 0 -0.000173253)
(0.077275 -1.06015e-23 -0.000102964)
(0.0771877 0 -0.000132976)
(0.0771373 2.8727e-24 -0.000223513)
(0.0769605 0 -0.000151428)
(0.0768423 -1.11468e-27 -0.000149644)
(0.0767071 -7.63951e-28 -0.000126064)
(0.0765965 0 -0.000138329)
(0.0764528 -4.72133e-24 -9.65442e-05)
(0.076439 5.29476e-23 -0.000229098)
(0.0763018 0 -0.000217408)
(0.0760738 0 -8.0663e-05)
(0.0759782 -7.33408e-24 -0.000104129)
(0.0759323 0 -0.000216937)
(0.0756904 0 -5.99833e-05)
(0.0756912 0 -0.000221782)
(0.0755367 0 -0.000203383)
(0.0752928 0 -8.04763e-05)
(0.0751001 -8.82104e-25 2.6977e-05)
(0.0751564 1.0321e-24 -0.00021955)
(0.0748641 0 5.12642e-06)
(0.0749045 0 -0.000227416)
(0.0746473 0 -8.03015e-05)
(0.0745236 -2.59164e-29 -0.000150173)
(0.0741583 1.89362e-24 0.000165866)
(0.074331 -2.05299e-23 -0.000351895)
(0.0731729 0 0.000798841)
(0.0732353 0 0.00069947)
(0.0732997 0 0.000603994)
(0.073331 1.28865e-23 0.000588455)
(0.0733994 0 0.000521917)
(0.0734205 1.70397e-29 0.000515219)
(0.073489 0 0.00043938)
(0.0734989 -3.86293e-24 0.000427095)
(0.0735563 5.94545e-26 0.00034327)
(0.0735515 -2.71591e-29 0.000323122)
(0.0735897 -1.76788e-24 0.000233052)
(0.0735655 0 0.000205763)
(0.0735799 0 0.000102382)
(0.0735403 -1.8497e-29 0.000125278)
(0.0735545 0 -8.84097e-05)
(0.0734804 0 -0.000105939)
(0.0734675 0 0.000228142)
(0.0734592 0 0.00011155)
(0.0733384 0 3.03704e-05)
(0.0733411 -1.91955e-23 0.000429636)
(0.0733743 0 0.000329034)
(0.0733389 0 0.000319384)
(0.0733522 0 0.000273029)
(0.0733167 0 0.000286186)
(0.0733294 0 0.000238685)
(0.0732931 0 0.000240516)
(0.0732991 -4.49953e-25 0.000186783)
(0.0732561 -3.04228e-25 0.000182591)
(0.073252 -7.31009e-25 0.000137508)
(0.0732032 0 0.000124598)
(0.0731827 0 0.000112349)
(0.0731478 4.2118e-25 5.52566e-05)
(0.0730756 -1.84104e-29 0.000121607)
(0.073116 -1.23152e-29 -4.52028e-05)
(0.0729307 -1.61824e-24 0.000191446)
(0.0731521 0 -0.000190271)
(0.0728083 6.38715e-24 0.000216517)
(0.0732143 0 -0.000398122)
(0.0727282 0 0.000134745)
(0.0732097 -2.9031e-23 -0.000545926)
(0.0726689 0 2.54649e-05)
(0.0731248 -1.37558e-27 -0.000611494)
(0.0726016 0 -6.54629e-05)
(0.073015 0 -0.000694407)
(0.0725399 0 -0.000264027)
(0.0729531 -4.5368e-23 -0.00104731)
(0.0725915 -3.54855e-23 -0.000787608)
(0.0730131 0 -0.00207649)
(0.0728803 -1.6216e-27 -0.000273457)
(0.0721854 3.13802e-24 5.15983e-05)
(0.072056 0 -0.000337714)
(0.0715165 -7.37451e-29 -5.01115e-05)
(0.0714435 0 -0.000288012)
(0.0710213 0 -5.0616e-05)
(0.0709812 0 -0.000232654)
(0.0706474 3.77349e-25 -3.80599e-05)
(0.070627 1.02377e-24 -0.000183082)
(0.0703628 0 -2.58108e-05)
(0.0703537 7.34501e-25 -0.000141655)
(0.0701449 0 -1.58956e-05)
(0.0701415 0 -0.000108016)
(0.069978 0 -8.99624e-06)
(0.0699755 -1.8176e-29 -7.96576e-05)
(0.0698488 0 -4.71094e-06)
(0.0698444 0 -5.67387e-05)
(0.0697484 -1.77402e-30 -2.51073e-06)
(0.0697406 5.72717e-27 -3.77091e-05)
(0.0696696 0 1.68233e-07)
(0.0696573 1.52802e-26 -2.1547e-05)
(0.069607 0 1.93921e-06)
(0.0695907 7.80106e-27 -6.10645e-06)
(0.0695555 0 8.86787e-06)
(0.0695435 0 2.9409e-06)
(0.0695168 0 1.61704e-05)
(0.0695111 -1.93038e-31 7.79604e-06)
(0.0694889 0 2.06875e-05)
(0.069487 0 1.04752e-05)
(0.0694672 -3.7649e-26 2.29143e-05)
(0.0694674 -7.42869e-31 1.2507e-05)
(0.0694493 7.59299e-31 2.48594e-05)
(0.0694508 -1.59297e-26 1.35157e-05)
(0.0694333 0 2.45391e-05)
(0.069435 -1.41067e-26 1.36418e-05)
(0.0694184 -2.7865e-26 2.48497e-05)
(0.0694204 -8.90056e-31 1.31858e-05)
(0.0694042 0 2.4695e-05)
(0.0694069 8.60327e-31 1.36442e-05)
(0.0693913 2.39773e-26 2.44985e-05)
(0.0693945 8.39852e-27 1.28833e-05)
(0.0693792 6.25453e-31 2.28675e-05)
(0.0693825 -8.34695e-31 1.21413e-05)
(0.0693677 5.56144e-31 2.1053e-05)
(0.0693704 -3.75102e-27 1.02504e-05)
(0.0693565 -1.96876e-26 2.01604e-05)
(0.0693593 1.56646e-27 7.6631e-06)
(0.0693451 5.75322e-31 1.70931e-05)
(0.0693481 4.2531e-31 5.86444e-06)
(0.0693341 -1.71312e-26 1.49378e-05)
(0.0693368 0 3.92342e-06)
(0.0693229 -3.10853e-31 1.35316e-05)
(0.0693256 0 9.39571e-07)
(0.0693108 0 1.20397e-05)
(0.0693147 3.27522e-29 -2.37261e-07)
(0.0692986 2.46551e-26 1.2698e-05)
(0.0693053 3.43176e-29 -2.94889e-06)
(0.069287 0 1.43425e-05)
(0.0692981 1.70208e-31 -6.0017e-06)
(0.0692765 0 1.68657e-05)
(0.0692932 -7.10512e-27 -1.06091e-05)
(0.0692671 0 1.81785e-05)
(0.0692896 -1.08221e-30 -1.52025e-05)
(0.0692586 -4.39559e-26 1.85682e-05)
(0.0692868 2.55209e-30 -2.0812e-05)
(0.0692518 0 1.93911e-05)
(0.0692843 -2.89616e-30 -2.5531e-05)
(0.069246 -5.11743e-26 1.87104e-05)
(0.0692815 -7.64367e-26 -2.86723e-05)
(0.069241 0 1.85725e-05)
(0.0692788 0 -3.05834e-05)
(0.0692364 0 1.82278e-05)
(0.0692767 0 -3.24469e-05)
(0.0692323 0 2.0597e-05)
(0.0692772 9.50912e-26 -3.66709e-05)
(0.0692291 -3.69988e-30 2.20799e-05)
(0.0692797 8.17433e-30 -4.16634e-05)
(0.0692269 0 2.39448e-05)
(0.0692844 0 -4.77388e-05)
(0.0692255 0 2.61842e-05)
(0.0692911 0 -5.5154e-05)
(0.0692245 0 2.86103e-05)
(0.0692994 -3.34159e-25 -6.39709e-05)
(0.0692237 0 3.13482e-05)
(0.0693088 0 -7.38944e-05)
(0.0692225 0 3.44194e-05)
(0.0693192 -4.45263e-25 -8.48063e-05)
(0.0692205 7.64156e-30 3.65443e-05)
(0.0693292 0 -9.77345e-05)
(0.0692183 0 3.81148e-05)
(0.0693375 0 -0.000108815)
(0.069214 2.9454e-25 4.19753e-05)
(0.0693454 -1.27895e-24 -0.00012173)
(0.0692082 3.18254e-25 4.45312e-05)
(0.0693519 1.42883e-24 -0.000135253)
(0.0692006 -1.15065e-29 4.79108e-05)
(0.0693572 1.00164e-28 -0.000148199)
(0.0691908 -7.46673e-25 5.08986e-05)
(0.0693615 1.7053e-24 -0.000162159)
(0.0691793 0 5.50478e-05)
(0.0693656 1.87358e-24 -0.000177627)
(0.0691666 8.93203e-25 5.97388e-05)
(0.0693698 -2.06594e-24 -0.000194739)
(0.0691532 -1.59803e-29 6.04401e-05)
(0.0693713 4.44701e-24 -0.000210515)
(0.0691391 1.68004e-29 5.8502e-05)
(0.0693676 0 -0.000224334)
(0.0691246 -8.54463e-30 5.04465e-05)
(0.0693538 -4.73934e-24 -0.000231262)
(0.0691097 0 3.70946e-05)
(0.0693255 1.34778e-28 -0.000229268)
(0.069095 1.5426e-29 1.8732e-05)
(0.0692888 4.04405e-24 -0.000221337)
(0.0690799 2.73182e-29 -2.60109e-06)
(0.0692443 0 -0.000207151)
(0.0690639 -1.58021e-25 -2.13715e-05)
(0.0692027 0 -0.00019643)
(0.0690471 -4.00392e-29 -3.86457e-05)
(0.0691637 -7.60468e-29 -0.000188555)
(0.0690292 -4.4606e-25 -5.39761e-05)
(0.0691256 0 -0.00018111)
(0.0690092 -3.71522e-25 -6.73943e-05)
(0.0690883 0 -0.000175354)
(0.068987 -3.05537e-25 -7.94872e-05)
(0.0690515 4.64548e-29 -0.000170363)
(0.0689624 0 -8.91315e-05)
(0.0690139 0 -0.000166036)
(0.0689353 0 -9.75684e-05)
(0.0689755 0 -0.000162349)
(0.0689058 0 -0.000104517)
(0.0689366 0 -0.000159436)
(0.0688742 2.29831e-25 -0.00011076)
(0.0688972 0 -0.000156614)
(0.0688407 -1.75758e-25 -0.000114852)
(0.0688573 3.92142e-25 -0.000153868)
(0.068806 0 -0.00011807)
(0.0688171 -3.48276e-25 -0.000151301)
(0.0687704 0 -0.000120444)
(0.0687769 2.96816e-25 -0.000148679)
(0.0687343 7.27598e-26 -0.000120867)
(0.0687366 0 -0.000144678)
(0.0686982 5.67704e-26 -0.000120817)
(0.0686969 0 -0.000139979)
(0.0686623 7.70842e-26 -0.000119988)
(0.068658 -7.93978e-30 -0.000134095)
(0.0686263 -8.04241e-30 -0.000117302)
(0.0686202 0 -0.000128247)
(0.0685914 0 -0.00011385)
(0.0685839 2.28546e-26 -0.000122182)
(0.0685578 1.02478e-25 -0.000109829)
(0.0685496 1.68794e-27 -0.000116793)
(0.0685259 0 -0.000105657)
(0.0685168 0 -0.000110555)
(0.068495 0 -0.00010148)
(0.0684858 0 -0.000105681)
(0.0684657 0 -9.72831e-05)
(0.068456 0 -0.000100558)
(0.0684374 -6.36028e-26 -9.27255e-05)
(0.0684271 3.54658e-26 -9.4566e-05)
(0.0684098 -1.56727e-30 -8.83526e-05)
(0.0683993 0 -8.95069e-05)
(0.0683832 -6.05732e-26 -8.34e-05)
(0.0683725 -4.65327e-26 -8.33225e-05)
(0.0683575 1.42573e-30 -7.81352e-05)
(0.0683469 4.97152e-31 -7.71429e-05)
(0.0683328 6.52727e-26 -7.17542e-05)
(0.0683227 0 -7.03928e-05)
(0.0683099 -7.39115e-26 -6.51256e-05)
(0.0683 -6.95247e-26 -6.30077e-05)
(0.0682882 -8.93705e-26 -5.78077e-05)
(0.0682791 8.16276e-26 -5.51747e-05)
(0.0682683 9.79344e-26 -4.98327e-05)
(0.0682601 0 -4.6751e-05)
(0.0682507 -5.58738e-26 -4.13063e-05)
(0.0682435 -6.99925e-31 -3.76401e-05)
(0.0682357 8.01602e-31 -3.23542e-05)
(0.0682296 0 -2.83472e-05)
(0.0682231 -3.18129e-26 -2.28549e-05)
(0.0682181 0 -1.81069e-05)
(0.0682127 1.70699e-26 -1.19782e-05)
(0.0682091 0 -6.83052e-06)
(0.0682042 6.13512e-27 2.70962e-06)
(0.0682043 0 1.09366e-05)
(0.068209 4.70085e-26 1.67893e-05)
(0.0682159 0 2.22458e-05)
(0.0682258 8.53632e-26 2.63466e-05)
(0.0682366 -8.82628e-26 3.10935e-05)
(0.0682494 7.09747e-31 3.43124e-05)
(0.0682624 0 3.81288e-05)
(0.0682769 0 4.13307e-05)
(0.0682915 0 4.46467e-05)
(0.0683073 -7.96332e-26 4.7359e-05)
(0.068323 1.56595e-30 5.06525e-05)
(0.0683398 0 5.29468e-05)
(0.0683563 1.58796e-25 5.57191e-05)
(0.0683735 -1.54896e-25 5.79612e-05)
(0.0683906 -1.54815e-25 6.03024e-05)
(0.068408 -1.24966e-30 6.21571e-05)
(0.0684255 -1.29557e-30 6.43846e-05)
(0.068443 0 6.59462e-05)
(0.0684607 0 6.74959e-05)
(0.0684779 1.38607e-25 6.85249e-05)
(0.0684951 -1.02267e-30 6.97081e-05)
(0.0685118 0 7.00538e-05)
(0.0685278 -8.7411e-31 7.0836e-05)
(0.0685436 1.17631e-25 7.11544e-05)
(0.0685586 0 7.13946e-05)
(0.0685731 -1.05202e-25 7.14163e-05)
(0.0685868 -6.30051e-31 7.15225e-05)
(0.0686001 9.10885e-26 7.07576e-05)
(0.0686126 -8.6489e-26 7.02736e-05)
(0.0686249 8.10286e-26 6.94626e-05)
(0.0686364 7.4547e-26 6.84713e-05)
(0.0686475 7.0923e-26 6.75727e-05)
(0.0686581 -2.10629e-31 6.66517e-05)
(0.068668 0 6.50867e-05)
(0.0686776 0 6.41885e-05)
(0.0686866 -4.74161e-26 6.26231e-05)
(0.0686953 1.73175e-31 6.18989e-05)
(0.0687037 0 6.05401e-05)
(0.0687119 -3.93284e-26 5.91342e-05)
(0.0687196 -3.92967e-26 5.80337e-05)
(0.0687272 0 5.68596e-05)
(0.0687346 3.60792e-26 5.57996e-05)
(0.0687421 -3.44435e-26 5.46867e-05)
(0.0687495 -3.75858e-26 5.37696e-05)
(0.0687567 1.66641e-31 5.2137e-05)
(0.0687637 1.80266e-32 5.13771e-05)
(0.0687706 0 4.97025e-05)
(0.0687771 1.69907e-26 4.89371e-05)
(0.0687831 0 4.71316e-05)
(0.0687883 -1.61355e-26 4.67379e-05)
(0.068793 -1.11783e-26 4.49293e-05)
(0.0687961 9.62171e-27 4.3598e-05)
(0.0687989 0 4.29203e-05)
(0.0688004 8.86836e-32 4.16493e-05)
(0.0688013 -1.42814e-31 3.99486e-05)
(0.0688006 4.98539e-27 3.90501e-05)
(0.0687997 0 3.73268e-05)
(0.0687974 1.17421e-31 3.61473e-05)
(0.0687946 -1.66619e-31 3.44987e-05)
(0.0687906 0 3.38069e-05)
(0.0687869 0 3.22782e-05)
(0.0687817 1.0928e-26 3.04365e-05)
(0.0687768 0 2.88903e-05)
(0.0687711 -5.48844e-32 2.8535e-05)
(0.0687668 -8.53343e-27 2.70432e-05)
(0.0687613 -1.1742e-26 2.56381e-05)
(0.0687572 9.69445e-32 2.44628e-05)
(0.0687523 1.1127e-31 2.29128e-05)
(0.0687485 6.50384e-32 2.23182e-05)
(0.0687445 4.31852e-27 2.06032e-05)
(0.0687405 0 1.89065e-05)
(0.068737 0 1.88706e-05)
(0.0687341 1.34116e-31 1.71439e-05)
(0.068731 4.20095e-28 1.61367e-05)
(0.0687284 5.7745e-28 1.45982e-05)
(0.0687255 3.23819e-29 1.3542e-05)
(0.0687228 0 1.21942e-05)
(0.0687197 0 1.1316e-05)
(0.0687167 7.26073e-28 1.01806e-05)
(0.0687133 -1.29017e-27 9.58716e-06)
(0.0687099 0 8.56731e-06)
(0.0687059 0 8.16369e-06)
(0.0687019 2.24363e-32 7.54718e-06)
(0.0686975 -1.75345e-27 7.33063e-06)
(0.0686931 1.81612e-27 7.08556e-06)
(0.0686885 -6.57119e-33 6.96455e-06)
(0.0686838 0 7.17216e-06)
(0.0686795 2.626e-27 7.36907e-06)
(0.0686747 1.60794e-27 6.42121e-06)
(0.0686698 -2.23434e-27 6.9144e-06)
(0.0686651 0 7.52977e-06)
(0.0686605 -3.29904e-27 8.20365e-06)
(0.0686557 8.25414e-33 7.80425e-06)
(0.0686509 0 8.74956e-06)
(0.0686463 2.65036e-32 9.54765e-06)
(0.0686419 -3.69655e-27 1.05408e-05)
(0.0686377 0 1.16345e-05)
(0.0686337 0 1.25382e-05)
(0.0686299 0 1.38733e-05)
(0.0686269 -1.05631e-26 1.48666e-05)
(0.0686237 -8.25821e-27 1.44686e-05)
(0.0686208 9.87053e-27 1.54507e-05)
(0.0686184 1.069e-26 1.63176e-05)
(0.0686165 6.59408e-32 1.6967e-05)
(0.068615 0 1.77141e-05)
(0.0686138 1.17165e-26 1.84169e-05)
(0.068613 0 1.89426e-05)
(0.0686124 0 1.95134e-05)
(0.0686121 1.21429e-26 2.02021e-05)
(0.068612 1.20301e-26 2.0686e-05)
(0.068612 0 2.12731e-05)
(0.0686124 0 2.17919e-05)
(0.0686128 9.39469e-32 2.26444e-05)
(0.0686136 -1.1535e-26 2.32339e-05)
(0.0686145 -1.22005e-26 2.43152e-05)
(0.0686161 2.37928e-26 2.51031e-05)
(0.0686177 2.58133e-26 2.63399e-05)
(0.06862 -2.60169e-26 2.73829e-05)
(0.0686224 2.857e-31 2.87438e-05)
(0.0686257 0 2.98168e-05)
(0.0686292 0 3.11559e-05)
(0.0686337 2.90214e-26 3.23993e-05)
(0.0686388 2.39839e-31 3.34121e-05)
(0.0686449 0 3.44107e-05)
(0.0686522 0 3.71466e-05)
(0.0686609 -2.30825e-31 3.76852e-05)
(0.06867 -3.74402e-26 3.85224e-05)
(0.0686807 0 4.08975e-05)
(0.0686925 2.11596e-31 4.1174e-05)
(0.0687044 0 4.19743e-05)
(0.068718 0 4.36697e-05)
(0.0687313 -5.03418e-26 4.42932e-05)
(0.0687461 5.51784e-26 4.59834e-05)
(0.0687605 0 4.67713e-05)
(0.0687764 0 4.83324e-05)
(0.0687916 0 4.90083e-05)
(0.068808 7.86735e-31 5.0542e-05)
(0.0688237 -6.41092e-31 5.12862e-05)
(0.0688403 0 5.29398e-05)
(0.0688558 0 5.38249e-05)
(0.0688722 0 5.5631e-05)
(0.0688878 0 5.65697e-05)
(0.0689042 0 5.86333e-05)
(0.0689202 -6.61342e-31 5.93333e-05)
(0.0689366 1.44e-25 6.17109e-05)
(0.068954 0 6.39344e-05)
(0.0689715 1.4171e-25 6.42916e-05)
(0.0689895 -1.55712e-25 6.63928e-05)
(0.0690082 -1.58856e-25 6.8039e-05)
(0.0690273 -1.65455e-25 6.98834e-05)
(0.0690471 0 7.11349e-05)
(0.0690671 0 7.29963e-05)
(0.0690877 0 7.40399e-05)
(0.0691078 1.57898e-25 7.40018e-05)
(0.0691278 0 7.5034e-05)
(0.0691477 1.67314e-25 7.6665e-05)
(0.0691672 0 7.80068e-05)
(0.0691867 1.734e-25 7.99876e-05)
(0.0692056 -1.23086e-30 8.22873e-05)
(0.0692248 7.12481e-31 8.20362e-05)
(0.0692411 0 8.58413e-05)
(0.0692614 -1.18935e-25 8.53858e-05)
(0.069274 0 8.93444e-05)
(0.0692963 8.73498e-26 9.07203e-05)
(0.0693053 1.44017e-30 8.81506e-05)
(0.0693262 3.09137e-25 0.000105552)
(0.0693421 0 7.71771e-05)
(0.0693435 -5.70291e-25 0.000144812)
(0.069405 7.52171e-26 3.33678e-05)
(0.0693195 0 0.00025235)
(0.0695535 0 -9.42447e-05)
(0.0692507 2.01718e-23 0.000445454)
(0.0698576 0 -0.000346667)
(0.0691971 0 0.000647627)
(0.0703102 0 -0.000739516)
(0.0691688 -3.12509e-27 0.000789616)
(0.0708511 0 -0.00126686)
(0.0691815 0 0.000759371)
(0.0713476 0 -0.00187009)
(0.0692627 0 0.000400529)
(0.0715567 0 -0.00240611)
(0.0694616 -3.89084e-27 -0.000383038)
(0.0717455 -4.151e-22 -0.00330406)
(0.0698544 -4.01127e-23 -0.00201578)
(0.0722786 6.56517e-26 -0.00582529)
(0.0704552 0 -0.00647754)
(0.0727938 0 -0.0143676)
(0.0689739 -6.78992e-20 -0.0237546)
(0.0324486 0 -6.479e-05)
(0.0324541 -4.61578e-24 -6.49438e-05)
(0.0324473 0 -6.49661e-05)
(0.0324458 5.48509e-23 -6.47846e-05)
(0 0 0)
(0 0 0)
(0 0 0)
(0 0 0)
(0 0 0)
(0 0 0)
)
;

boundaryField
{
    inlet
    {
        type            calculated;
        value           uniform (0 0 0);
    }
    endWall
    {
        type            calculated;
        value           uniform (0 0 0);
    }
    sideWall
    {
        type            empty;
    }
}


// ************************************************************************* //
