/*--------------------------------*- C++ -*----------------------------------*\
| =========                 |                                                 |
| \\      /  F ield         | foam-extend: Open Source CFD                    |
|  \\    /   O peration     | Version:     3.2                                |
|   \\  /    A nd           | Web:         http://www.foam-extend.org         |
|    \\/     M anipulation  | For copyright notice see file Copyright         |
\*---------------------------------------------------------------------------*/
FoamFile
{
    version     2.0;
    format      ascii;
    class       areaScalarField;
    location    "1440";
    object      Uf;
}
// * * * * * * * * * * * * * * * * * * * * * * * * * * * * * * * * * * * * * //

dimensions      [0 1 -1 0 0 0 0];

internalField   nonuniform List<scalar> 
550
(
0.00700384
0.00823045
0.00951075
0.0108164
0.0121128
0.0133646
0.0145416
0.0156172
0.0165753
0.017404
0.0180998
0.0186649
0.0191113
0.019445
0.0196778
0.0198259
0.0198996
0.0199097
0.0198704
0.0197948
0.0196907
0.0195642
0.0194199
0.0192637
0.0190995
0.0189308
0.0187607
0.0185923
0.0184287
0.0182698
0.0181158
0.0179672
0.0178243
0.0176879
0.0175582
0.0174354
0.0173192
0.0172091
0.0171056
0.0170082
0.0169163
0.0168304
0.0167498
0.016674
0.0166029
0.0165365
0.0164742
0.016416
0.0163613
0.0163104
0.0162629
0.016218
0.0161758
0.0161361
0.0160987
0.0160636
0.0160303
0.0159988
0.0159699
0.0159409
0.0159154
0.0158894
0.0158659
0.0158416
0.0158197
0.0157972
0.0157771
0.0157563
0.0157371
0.0157176
0.0157001
0.0156821
0.0156643
0.0156471
0.0156304
0.0156148
0.0156003
0.0155839
0.0155705
0.0155544
0.0155404
0.0155278
0.0155149
0.0155011
0.0154883
0.0154752
0.0154617
0.015449
0.0154375
0.0154252
0.0154107
0.0153988
0.0153895
0.0153777
0.0153673
0.0153566
0.0153436
0.0153316
0.0153217
0.0153099
0.0152975
0.0152862
0.0152746
0.0152626
0.0152523
0.0152414
0.0152277
0.0152151
0.0152049
0.0151907
0.0151791
0.0151669
0.0151516
0.0151348
0.0151261
0.0151121
0.015102
0.0150871
0.0150722
0.0150501
0.0150406
0.0150073
0.0149722
0.0149834
0.0149957
0.0150146
0.0150329
0.0150514
0.0150685
0.0150841
0.0150978
0.0151094
0.0151182
0.0151248
0.0151267
0.0151279
0.0151227
0.0151034
0.0150875
0.0150824
0.0150644
0.0150515
0.0150515
0.0150518
0.0150535
0.0150555
0.0150579
0.0150596
0.0150609
0.0150603
0.0150593
0.0150554
0.0150537
0.0150462
0.0150441
0.015033
0.0150313
0.0150199
0.0150171
0.0150065
0.014997
0.0149834
0.0149664
0.0149488
0.0149292
0.0149106
0.0148934
0.0148687
0.0148466
0.0147699
0.0146505
0.0146094
0.0145686
0.0145401
0.0145164
0.0144957
0.0144796
0.0144641
0.0144526
0.014441
0.0144328
0.0144241
0.0144181
0.0144115
0.0144072
0.0144022
0.0143991
0.0143954
0.0143931
0.0143904
0.0143887
0.0143869
0.0143857
0.0143847
0.014384
0.0143836
0.0143833
0.0143832
0.0143832
0.0143833
0.0143833
0.0143835
0.0143836
0.0143838
0.0143839
0.0143841
0.0143843
0.0143844
0.0143846
0.0143849
0.0143852
0.0143854
0.0143858
0.0143861
0.0143864
0.0143868
0.0143872
0.0143876
0.014388
0.0143884
0.0143888
0.0143892
0.0143896
0.01439
0.0143903
0.0143909
0.0143912
0.014392
0.0143924
0.0143933
0.0143938
0.0143948
0.0143954
0.0143965
0.0143972
0.0143982
0.0143991
0.0144001
0.014401
0.0144021
0.0144031
0.0144043
0.0144053
0.0144066
0.0144077
0.0144091
0.0144102
0.0144117
0.0144128
0.0144144
0.0144155
0.0144171
0.0144182
0.0144198
0.0144208
0.0144224
0.0144233
0.0144248
0.0144255
0.0144268
0.0144273
0.0144285
0.0144288
0.0144298
0.01443
0.0144307
0.0144307
0.0144313
0.0144311
0.0144315
0.0144311
0.0144314
0.014431
0.0144309
0.0144304
0.0144298
0.0144293
0.014428
0.0144274
0.0144254
0.0144248
0.0144222
0.0144214
0.0144185
0.0144175
0.0144146
0.0144135
0.0144106
0.0144093
0.0144064
0.0144049
0.014402
0.0144002
0.0143973
0.0143953
0.0143923
0.0143902
0.0143871
0.0143848
0.0143817
0.0143793
0.0143762
0.0143736
0.0143705
0.0143679
0.0143648
0.0143622
0.0143593
0.0143566
0.0143539
0.0143514
0.0143488
0.0143465
0.0143441
0.014342
0.0143399
0.014338
0.0143362
0.0143345
0.014333
0.0143315
0.0143301
0.0143289
0.0143278
0.0143268
0.0143258
0.0143249
0.014324
0.0143233
0.0143227
0.0143221
0.0143216
0.0143212
0.0143209
0.0143207
0.0143206
0.0143207
0.0143208
0.0143211
0.0143216
0.0143221
0.0143229
0.0143238
0.0143249
0.0143261
0.0143276
0.0143291
0.0143308
0.0143327
0.0143348
0.0143369
0.0143394
0.0143423
0.0143455
0.014349
0.0143526
0.0143564
0.0143602
0.0143642
0.0143683
0.0143724
0.0143766
0.0143808
0.0143851
0.0143894
0.0143937
0.0143981
0.0144024
0.0144068
0.0144112
0.0144155
0.0144198
0.0144241
0.0144283
0.0144324
0.0144364
0.0144403
0.0144441
0.0144478
0.0144514
0.0144549
0.0144582
0.0144615
0.0144646
0.0144676
0.0144705
0.0144733
0.0144759
0.0144785
0.0144809
0.0144833
0.0144855
0.0144877
0.0144897
0.0144918
0.0144937
0.0144956
0.0144974
0.0144992
0.0145008
0.0145024
0.0145038
0.0145051
0.0145062
0.0145072
0.0145081
0.0145088
0.0145094
0.0145098
0.0145102
0.0145104
0.0145105
0.0145106
0.0145105
0.0145104
0.0145103
0.0145101
0.01451
0.0145098
0.0145096
0.0145095
0.0145093
0.0145091
0.014509
0.0145089
0.0145088
0.0145086
0.0145085
0.0145083
0.0145081
0.0145079
0.0145077
0.0145074
0.0145071
0.0145068
0.0145065
0.0145061
0.0145058
0.0145055
0.0145053
0.0145051
0.0145049
0.0145047
0.0145046
0.0145045
0.0145044
0.0145044
0.0145044
0.0145046
0.0145048
0.0145052
0.0145056
0.0145061
0.0145067
0.0145075
0.0145083
0.0145091
0.0145101
0.0145112
0.0145123
0.0145135
0.0145147
0.0145161
0.0145174
0.0145189
0.0145204
0.0145219
0.0145236
0.0145253
0.0145271
0.014529
0.014531
0.0145331
0.0145353
0.0145377
0.0145401
0.0145428
0.0145456
0.0145486
0.0145517
0.014555
0.0145584
0.0145618
0.0145654
0.0145691
0.0145728
0.0145766
0.0145805
0.0145844
0.0145883
0.0145923
0.0145962
0.0146002
0.0146042
0.0146082
0.0146123
0.0146164
0.0146207
0.014625
0.0146294
0.0146338
0.0146384
0.0146431
0.0146478
0.0146526
0.0146573
0.0146621
0.0146668
0.0146715
0.0146762
0.0146808
0.0146855
0.01469
0.0146946
0.0146987
0.0147038
0.014707
0.0147131
0.0147149
0.0147233
0.0147224
0.0147354
0.0147313
0.01475
0.0147449
0.014767
0.0147614
0.0147812
0.0147758
0.0147842
0.0147793
0.0147662
0.0147603
0.014726
0.0147134
0.0146429
0.0145869
0.0143729
0.0140315
0.0126206
0.0107719
0.00997458
0.00907899
0.00833984
0.00715891
0.00611204
0.00534036
0.00552006
0.00690213
0.00876994
)
;

boundaryField
{
    inlet
    {
        type            calculated;
        value           uniform 0;
    }
    endWall
    {
        type            calculated;
        value           uniform 0;
    }
    sideWall
    {
        type            empty;
    }
}


// ************************************************************************* //
