/*--------------------------------*- C++ -*----------------------------------*\
| =========                 |                                                 |
| \\      /  F ield         | foam-extend: Open Source CFD                    |
|  \\    /   O peration     | Version:     3.2                                |
|   \\  /    A nd           | Web:         http://www.foam-extend.org         |
|    \\/     M anipulation  | For copyright notice see file Copyright         |
\*---------------------------------------------------------------------------*/
FoamFile
{
    version     2.0;
    format      ascii;
    class       areaVectorField;
    location    "1440";
    object      Wt;
}
// * * * * * * * * * * * * * * * * * * * * * * * * * * * * * * * * * * * * * //

dimensions      [1 1 -2 0 0 0 0];

internalField   nonuniform List<vector> 
550
(
(5.45265e-10 0 -1.09053e-12)
(5.45267e-10 0 -1.09054e-12)
(5.45264e-10 1.98454e-26 -1.09052e-12)
(5.45271e-10 -1.98455e-26 -1.09055e-12)
(5.45256e-10 -1.98455e-26 -1.09049e-12)
(5.45268e-10 0 -1.09054e-12)
(5.4525e-10 1.98452e-26 -1.09047e-12)
(5.45265e-10 1.98452e-26 -1.09053e-12)
(5.45295e-10 0 -1.09065e-12)
(5.4525e-10 0 -1.09047e-12)
(6.74143e-10 0 -1.66697e-12)
(5.45265e-10 0 -1.09053e-12)
(4.16372e-10 0 -6.35893e-13)
(6.48823e-10 0 -1.5441e-12)
(5.45265e-10 1.98452e-26 -1.09053e-12)
(4.41728e-10 0 -7.157e-13)
(6.17374e-10 0 -1.39804e-12)
(6.08872e-10 0 -1.3598e-12)
(5.27767e-10 1.98452e-26 -1.02166e-12)
(5.31874e-10 0 -1.03762e-12)
(4.9064e-10 0 -8.82974e-13)
(5.35129e-10 1.98452e-26 -1.05036e-12)
(5.45265e-10 1.98452e-26 -1.09053e-12)
(5.05185e-10 0 -9.36101e-13)
(5.45295e-10 1.98463e-26 -1.09065e-12)
(5.45265e-10 1.98452e-26 -1.09053e-12)
(5.71401e-10 -1.98452e-26 -1.19758e-12)
(5.45175e-10 0 -1.09017e-12)
(5.19265e-10 0 -9.89007e-13)
(5.45205e-10 0 -1.09029e-12)
(5.45235e-10 0 -1.09041e-12)
(5.65598e-10 -1.98452e-26 -1.17338e-12)
(5.64698e-10 0 -1.16965e-12)
(5.43706e-10 -1.98452e-26 -1.0843e-12)
(5.43856e-10 0 -1.0849e-12)
(5.26491e-10 0 -1.01673e-12)
(5.44156e-10 0 -1.0861e-12)
(5.61699e-10 1.98452e-26 -1.15726e-12)
(5.28261e-10 0 -1.02358e-12)
(5.44605e-10 0 -1.08789e-12)
(5.6035e-10 0 -1.1517e-12)
(5.2964e-10 1.98463e-26 -1.02892e-12)
(5.44605e-10 0 -1.08789e-12)
(5.593e-10 1.98452e-26 -1.14739e-12)
(5.44455e-10 0 -1.08729e-12)
(5.44755e-10 0 -1.08849e-12)
(5.44635e-10 -1.98463e-26 -1.08801e-12)
(5.44605e-10 0 -1.08789e-12)
(5.44905e-10 0 -1.08909e-12)
(5.3231e-10 -1.98452e-26 -1.03932e-12)
(5.3276e-10 0 -1.04108e-12)
(5.57051e-10 1.98452e-26 -1.13818e-12)
(5.45235e-10 0 -1.09041e-12)
(5.45055e-10 0 -1.08969e-12)
(5.45205e-10 1.98452e-26 -1.09029e-12)
(5.44815e-10 0 -1.08873e-12)
(5.45415e-10 0 -1.09113e-12)
(5.54564e-10 1.98365e-26 -1.12804e-12)
(5.0491e-10 -1.98474e-26 -9.35082e-13)
(6.27147e-10 0 -1.44265e-12)
(4.2212e-10 1.98475e-26 -6.53571e-13)
(6.39121e-10 0 -1.49827e-12)
(4.82932e-10 0 -8.55449e-13)
(6.31222e-10 0 -1.46146e-12)
(4.46889e-10 -1.98475e-26 -7.32522e-13)
(6.21334e-10 1.98474e-26 -1.41603e-12)
(4.22312e-10 0 -6.54167e-13)
(6.74465e-10 1.98474e-26 -1.66856e-12)
(4.72523e-10 0 -8.18971e-13)
(6.07791e-10 1.98474e-26 -1.35498e-12)
(3.67743e-10 0 -4.96034e-13)
(7.12723e-10 1.98474e-26 -1.86322e-12)
(5.71346e-10 0 -1.19735e-12)
(5.34146e-10 0 -1.04651e-12)
(4.58493e-10 0 -7.71057e-13)
(5.28536e-10 0 -1.02464e-12)
(5.11132e-10 1.98474e-26 -9.58271e-13)
(6.01056e-10 0 -1.32511e-12)
(5.11421e-10 0 -9.59354e-13)
(8.19918e-10 -3.96728e-26 -2.46584e-12)
(2.68163e-10 0 -2.63766e-13)
(4.25903e-10 0 -6.65339e-13)
(5.4585e-10 1.98474e-26 -1.09287e-12)
(6.26335e-10 0 -1.43892e-12)
(4.7585e-10 -1.98474e-26 -8.30544e-13)
(6.94963e-10 1.98365e-26 -1.77152e-12)
(5.61093e-10 0 -1.15476e-12)
(4.81334e-10 1.98474e-26 -8.49798e-13)
(4.16219e-10 0 -6.35426e-13)
(7.00631e-10 1.98474e-26 -1.80054e-12)
(6.87818e-10 -1.98365e-26 -1.73528e-12)
(2.59352e-10 0 -2.46718e-13)
(4.13455e-10 0 -6.27014e-13)
(8.48446e-10 0 -2.64042e-12)
(3.89093e-10 0 -5.553e-13)
(6.68104e-10 -1.98474e-26 -1.63724e-12)
(6.09871e-10 0 -1.36427e-12)
(3.63267e-10 -9.92374e-27 -4.8403e-13)
(4.69681e-10 0 -8.09146e-13)
(7.89976e-10 -3.96947e-26 -2.28903e-12)
(5.36432e-10 0 -1.05548e-12)
(5.3093e-10 0 -1.03394e-12)
(4.48058e-10 0 -7.36359e-13)
(4.92361e-10 0 -8.89178e-13)
(3.4428e-10 9.92374e-27 -4.34755e-13)
(8.17113e-10 -3.96947e-26 -2.449e-12)
(7.76815e-10 0 -2.21339e-12)
(3.42164e-10 0 -4.29428e-13)
(3.73648e-10 -9.92373e-27 -5.12091e-13)
(7.78903e-10 0 -2.22531e-12)
(2.16057e-10 0 -1.71222e-13)
(7.98835e-10 0 -2.34066e-12)
(7.34062e-10 0 -1.97646e-12)
(2.91403e-10 0 -3.11464e-13)
(-9.79337e-11 -2.48094e-27 -3.51791e-14)
(7.96421e-10 3.96947e-26 -2.32654e-12)
(-1.8669e-11 0 -1.27838e-15)
(8.27731e-10 0 -2.51306e-12)
(2.93284e-10 0 -3.15499e-13)
(5.49383e-10 0 -1.10706e-12)
(-6.09781e-10 1.98474e-26 -1.36386e-12)
(1.29066e-09 3.96941e-26 -6.11022e-12)
(-2.97603e-09 0 -3.24898e-11)
(-2.60369e-09 0 -2.48678e-11)
(-2.24637e-09 0 -1.85102e-11)
(-2.18764e-09 7.93849e-26 -1.75551e-11)
(-1.9385e-09 0 -1.3784e-11)
(-1.91308e-09 0 -1.34248e-11)
(-1.62998e-09 0 -9.7454e-12)
(-1.58419e-09 -7.93437e-26 -9.20559e-12)
(-1.27229e-09 -3.96941e-26 -5.93749e-12)
(-1.19769e-09 0 -5.26163e-12)
(-8.63398e-10 3.96946e-26 -2.73431e-12)
(-7.62551e-10 0 -2.13286e-12)
(-3.79353e-10 0 -5.27848e-13)
(-4.64439e-10 0 -7.91187e-13)
(3.27695e-10 0 -3.93877e-13)
(3.93063e-10 0 -5.6669e-13)
(-8.46612e-10 0 -2.62901e-12)
(-4.14002e-10 0 -6.28676e-13)
(-1.12901e-10 0 -4.6754e-14)
(-1.59705e-09 -7.93873e-26 -9.35558e-12)
(-1.22255e-09 0 -5.48232e-12)
(-1.18727e-09 0 -5.17047e-12)
(-1.01477e-09 0 -3.77714e-12)
(-1.06419e-09 0 -4.15398e-12)
(-8.87406e-10 0 -2.88849e-12)
(-8.94655e-10 0 -2.93587e-12)
(-6.9473e-10 1.98474e-26 -1.77034e-12)
(-6.79537e-10 1.98474e-26 -1.69375e-12)
(-5.11784e-10 1.98474e-26 -9.60718e-13)
(-4.64044e-10 0 -7.89842e-13)
(-4.18542e-10 0 -6.4254e-13)
(-2.0595e-10 -9.92375e-27 -1.55577e-13)
(-4.53695e-10 0 -7.55004e-13)
(1.68551e-10 0 -1.04204e-13)
(-7.15671e-10 -1.98365e-26 -1.87867e-12)
(7.09125e-10 0 -1.84446e-12)
(-8.10749e-10 3.96947e-26 -2.411e-12)
(1.48247e-09 0 -8.06133e-12)
(-5.05113e-10 0 -9.35835e-13)
(2.03292e-09 7.93856e-26 -1.51595e-11)
(-9.55372e-11 0 -3.34784e-14)
(2.27969e-09 0 -1.90636e-11)
(2.45826e-10 0 -2.21655e-13)
(2.59264e-09 0 -2.46573e-11)
(9.92304e-10 0 -3.61174e-12)
(3.91312e-09 1.5866e-25 -5.61766e-11)
(2.95769e-09 7.93807e-26 -3.20906e-11)
(7.74741e-09 0 -2.20336e-10)
(1.02294e-09 0 -3.83822e-12)
(-1.94879e-10 4.96187e-27 -1.393e-13)
(1.27776e-09 0 -5.98862e-12)
(1.91034e-10 0 -1.33857e-13)
(1.09906e-09 0 -4.43066e-12)
(1.94302e-10 0 -1.38477e-13)
(8.93599e-10 0 -2.92894e-12)
(1.46876e-10 4.96187e-27 -7.91267e-14)
(7.06727e-10 -1.98365e-26 -1.83201e-12)
(1.00009e-10 0 -3.66858e-14)
(5.48939e-10 -1.98474e-26 -1.10528e-12)
(6.17818e-11 0 -1.40004e-14)
(4.19847e-10 0 -6.46554e-13)
(3.50493e-11 0 -4.50587e-15)
(3.10356e-10 0 -3.53299e-13)
(1.83877e-11 0 -1.24016e-15)
(2.21476e-10 0 -1.79918e-13)
(9.814e-12 0 -3.53275e-16)
(1.47414e-10 4.96187e-27 -7.97078e-14)
(-6.58335e-13 0 -1.5897e-18)
(8.43333e-11 2.48094e-27 -2.60867e-14)
(-7.59541e-12 0 -2.11603e-16)
(2.39231e-11 6.20235e-28 -2.09921e-15)
(-3.4759e-11 0 -4.43154e-15)
(-1.15293e-11 0 -4.87557e-16)
(-6.34178e-11 0 -1.47517e-14)
(-3.05773e-11 0 -3.42941e-15)
(-8.11655e-11 0 -2.41637e-14)
(-4.10995e-11 0 -6.19573e-15)
(-8.99303e-11 -2.48094e-27 -2.96642e-14)
(-4.90853e-11 0 -8.83737e-15)
(-9.75893e-11 0 -3.49321e-14)
(-5.30568e-11 -2.48094e-27 -1.03253e-14)
(-9.63542e-11 0 -3.40535e-14)
(-5.35638e-11 -2.48094e-27 -1.05236e-14)
(-9.75946e-11 -2.48094e-27 -3.49359e-14)
(-5.17845e-11 0 -9.83603e-15)
(-9.7007e-11 0 -3.45165e-14)
(-5.35952e-11 0 -1.05359e-14)
(-9.62529e-11 2.48094e-27 -3.3982e-14)
(-5.06153e-11 2.48094e-27 -9.39689e-15)
(-8.98607e-11 0 -2.96183e-14)
(-4.77083e-11 0 -8.3485e-15)
(-8.27438e-11 0 -2.51126e-14)
(-4.02853e-11 -1.24047e-27 -5.9527e-15)
(-7.92487e-11 -2.48094e-27 -2.30359e-14)
(-3.01217e-11 1.24047e-27 -3.32796e-15)
(-6.72024e-11 0 -1.6565e-14)
(-2.30553e-11 0 -1.94968e-15)
(-5.87379e-11 -2.48094e-27 -1.26548e-14)
(-1.5427e-11 0 -8.72934e-16)
(-5.32173e-11 0 -1.03879e-14)
(-3.69501e-12 0 -5.00785e-17)
(-4.7358e-11 0 -8.22637e-15)
(9.33212e-13 3.87647e-29 -3.19434e-18)
(-4.99562e-11 2.48094e-27 -9.15375e-15)
(1.16003e-11 3.10117e-28 -4.93585e-16)
(-5.64355e-11 0 -1.16822e-14)
(2.3612e-11 0 -2.04496e-15)
(-6.63741e-11 0 -1.61591e-14)
(4.17414e-11 1.24047e-27 -6.39078e-15)
(-7.155e-11 0 -1.87776e-14)
(5.98174e-11 0 -1.31243e-14)
(-7.3093e-11 -2.47957e-27 -1.95962e-14)
(8.18923e-11 0 -2.45984e-14)
(-7.63398e-11 0 -2.13758e-14)
(1.00464e-10 0 -3.70208e-14)
(-7.3666e-11 -2.48094e-27 -1.99047e-14)
(1.1283e-10 4.96188e-27 -4.6695e-14)
(-7.31286e-11 0 -1.96153e-14)
(1.20355e-10 0 -5.31314e-14)
(-7.17758e-11 0 -1.88963e-14)
(1.27692e-10 0 -5.98069e-14)
(-8.11099e-11 0 -2.41306e-14)
(1.44315e-10 -4.95915e-27 -7.63908e-14)
(-8.69538e-11 0 -2.7733e-14)
(1.63956e-10 0 -9.86e-14)
(-9.43007e-11 0 -3.26175e-14)
(1.87852e-10 0 -1.29435e-13)
(-1.03122e-10 0 -3.90056e-14)
(2.17009e-10 0 -1.72734e-13)
(-1.12679e-10 0 -4.65699e-14)
(2.51671e-10 9.92374e-27 -2.3232e-13)
(-1.23463e-10 0 -5.59108e-14)
(2.90671e-10 0 -3.09903e-13)
(-1.35561e-10 0 -6.74051e-14)
(3.33545e-10 9.92374e-27 -4.08064e-13)
(-1.43934e-10 0 -7.59888e-14)
(3.84336e-10 0 -5.41805e-13)
(-1.50125e-10 0 -8.26657e-14)
(4.27856e-10 0 -6.71454e-13)
(-1.6534e-10 4.95915e-27 -1.00272e-13)
(4.78583e-10 1.98474e-26 -8.40109e-13)
(-1.75423e-10 4.96187e-27 -1.12874e-13)
(5.31701e-10 -1.98474e-26 -1.03695e-12)
(-1.88757e-10 0 -1.30685e-13)
(5.82546e-10 0 -1.24475e-12)
(-2.00557e-10 -9.92375e-27 -1.47535e-13)
(6.37381e-10 -1.98474e-26 -1.49012e-12)
(-2.16942e-10 0 -1.72626e-13)
(6.98137e-10 -1.98474e-26 -1.78774e-12)
(-2.35472e-10 9.92375e-27 -2.03376e-13)
(7.65347e-10 1.98364e-26 -2.14852e-12)
(-2.38282e-10 0 -2.08259e-13)
(8.27328e-10 -3.96946e-26 -2.51062e-12)
(-2.30689e-10 0 -1.95197e-13)
(8.81686e-10 0 -2.85136e-12)
(-1.98965e-10 0 -1.45203e-13)
(9.09093e-10 3.96946e-26 -3.03139e-12)
(-1.46336e-10 0 -7.85456e-14)
(9.01625e-10 0 -2.98179e-12)
(-7.39122e-11 0 -2.0038e-14)
(8.70895e-10 -3.96946e-26 -2.782e-12)
(1.02656e-11 0 -3.86534e-16)
(8.15604e-10 0 -2.43996e-12)
(8.43651e-11 -2.48094e-27 -2.61064e-14)
(7.73856e-10 0 -2.19657e-12)
(1.52593e-10 0 -8.54064e-14)
(7.43251e-10 0 -2.02626e-12)
(2.13181e-10 -9.92375e-27 -1.66692e-13)
(7.14298e-10 0 -1.87147e-12)
(2.66253e-10 -9.92374e-27 -2.60022e-13)
(6.91969e-10 0 -1.75629e-12)
(3.14129e-10 -9.92374e-27 -3.61941e-13)
(6.72633e-10 0 -1.65951e-12)
(3.52369e-10 0 -4.55424e-13)
(6.5591e-10 0 -1.57801e-12)
(3.85874e-10 0 -5.46151e-13)
(6.41698e-10 0 -1.51037e-12)
(4.13533e-10 0 -6.27252e-13)
(6.30544e-10 0 -1.45832e-12)
(4.38435e-10 1.98475e-26 -7.0507e-13)
(6.19734e-10 0 -1.40875e-12)
(4.54855e-10 -1.98475e-26 -7.58869e-13)
(6.09224e-10 -1.98474e-26 -1.36137e-12)
(4.67833e-10 0 -8.02793e-13)
(5.9941e-10 1.98474e-26 -1.31786e-12)
(4.77487e-10 0 -8.36268e-13)
(5.89366e-10 -1.98474e-26 -1.27407e-12)
(4.79415e-10 1.98474e-26 -8.43034e-13)
(5.73841e-10 0 -1.20783e-12)
(4.79471e-10 1.98474e-26 -8.43233e-13)
(5.55524e-10 0 -1.13195e-12)
(4.76428e-10 1.98474e-26 -8.32563e-13)
(5.32477e-10 0 -1.03998e-12)
(4.66008e-10 0 -7.96542e-13)
(5.09535e-10 0 -9.52291e-13)
(4.52523e-10 0 -7.51108e-13)
(4.85695e-10 -1.98474e-26 -8.65267e-13)
(4.36754e-10 1.98475e-26 -6.99674e-13)
(4.64502e-10 -1.98474e-26 -7.91403e-13)
(4.20359e-10 0 -6.48131e-13)
(4.39907e-10 0 -7.09812e-13)
(4.03925e-10 0 -5.98443e-13)
(4.20702e-10 0 -6.4919e-13)
(3.87385e-10 0 -5.50436e-13)
(4.00485e-10 0 -5.88293e-13)
(3.69389e-10 -9.91828e-27 -5.00484e-13)
(3.76778e-10 9.92373e-27 -5.20706e-13)
(3.52111e-10 0 -4.54759e-13)
(3.56766e-10 0 -4.66862e-13)
(3.32503e-10 -9.92374e-27 -4.0552e-13)
(3.32246e-10 -9.91828e-27 -4.04893e-13)
(3.1163e-10 0 -3.56205e-13)
(3.0772e-10 0 -3.47323e-13)
(2.86284e-10 9.92374e-27 -3.00618e-13)
(2.80894e-10 0 -2.89405e-13)
(2.59924e-10 -9.92374e-27 -2.47808e-13)
(2.51508e-10 -9.91829e-27 -2.3202e-13)
(2.30791e-10 -9.92375e-27 -1.9537e-13)
(2.20309e-10 9.92375e-27 -1.78027e-13)
(1.9901e-10 9.92375e-27 -1.45268e-13)
(1.86725e-10 0 -1.27887e-13)
(1.65002e-10 -4.95915e-27 -9.98614e-14)
(1.50373e-10 0 -8.2939e-14)
(1.2927e-10 0 -6.12938e-14)
(1.13271e-10 0 -4.70603e-14)
(9.13327e-11 -2.48094e-27 -3.05966e-14)
(7.2364e-11 0 -1.92073e-14)
(4.78748e-11 1.23979e-27 -8.40687e-15)
(2.73018e-11 0 -2.73402e-15)
(-1.08312e-11 3.10117e-28 -4.30303e-16)
(-4.37171e-11 0 -7.01008e-15)
(-6.71074e-11 2.48094e-27 -1.65181e-14)
(-8.89083e-11 0 -2.89938e-14)
(-1.05282e-10 4.96188e-27 -4.06567e-14)
(-1.24231e-10 -4.96188e-27 -5.66087e-14)
(-1.37067e-10 0 -6.89102e-14)
(-1.52283e-10 0 -8.50593e-14)
(-1.65036e-10 0 -9.99024e-14)
(-1.78239e-10 0 -1.16527e-13)
(-1.89023e-10 -4.96187e-27 -1.31054e-13)
(-2.02122e-10 0 -1.49847e-13)
(-2.11225e-10 0 -1.63648e-13)
(-2.22231e-10 9.92375e-27 -1.81147e-13)
(-2.31115e-10 -9.91829e-27 -1.9592e-13)
(-2.40391e-10 -9.92374e-27 -2.11961e-13)
(-2.47721e-10 0 -2.25085e-13)
(-2.56533e-10 0 -2.41383e-13)
(-2.62688e-10 0 -2.53105e-13)
(-2.68791e-10 0 -2.65003e-13)
(-2.7282e-10 9.91829e-27 -2.73008e-13)
(-2.77461e-10 0 -2.82375e-13)
(-2.7877e-10 0 -2.85044e-13)
(-2.81816e-10 0 -2.91308e-13)
(-2.83018e-10 9.92374e-27 -2.93798e-13)
(-2.83911e-10 0 -2.95655e-13)
(-2.83937e-10 -9.92374e-27 -2.9571e-13)
(-2.84303e-10 0 -2.96472e-13)
(-2.81208e-10 9.92374e-27 -2.90052e-13)
(-2.79233e-10 -9.92374e-27 -2.85993e-13)
(-2.75961e-10 9.92374e-27 -2.7933e-13)
(-2.71977e-10 9.91829e-27 -2.71323e-13)
(-2.68365e-10 9.92374e-27 -2.64163e-13)
(-2.64666e-10 0 -2.56932e-13)
(-2.58415e-10 0 -2.44937e-13)
(-2.54813e-10 0 -2.38157e-13)
(-2.48566e-10 -9.91829e-27 -2.26623e-13)
(-2.45661e-10 0 -2.21356e-13)
(-2.40238e-10 0 -2.11692e-13)
(-2.34631e-10 -9.92375e-27 -2.01927e-13)
(-2.30239e-10 -9.92375e-27 -1.94437e-13)
(-2.25556e-10 0 -1.86608e-13)
(-2.21328e-10 9.91829e-27 -1.79677e-13)
(-2.16889e-10 -9.92375e-27 -1.72543e-13)
(-2.13229e-10 -9.92375e-27 -1.66769e-13)
(-2.06733e-10 0 -1.56762e-13)
(-2.03699e-10 0 -1.52194e-13)
(-1.9704e-10 0 -1.42407e-13)
(-1.93987e-10 4.96187e-27 -1.38028e-13)
(-1.86814e-10 0 -1.28009e-13)
(-1.8524e-10 -4.96187e-27 -1.2586e-13)
(-1.78059e-10 -4.96187e-27 -1.16292e-13)
(-1.72775e-10 4.96187e-27 -1.09493e-13)
(-1.70083e-10 0 -1.06106e-13)
(-1.65043e-10 0 -9.9911e-14)
(-1.58301e-10 0 -9.19157e-14)
(-1.54742e-10 4.96187e-27 -8.78293e-14)
(-1.47916e-10 0 -8.02507e-14)
(-1.43246e-10 0 -7.52641e-14)
(-1.36719e-10 0 -6.85609e-14)
(-1.33985e-10 0 -6.58465e-14)
(-1.27933e-10 0 -6.00326e-14)
(-1.20643e-10 -4.96188e-27 -5.33856e-14)
(-1.14522e-10 0 -4.81059e-14)
(-1.13123e-10 0 -4.69379e-14)
(-1.07216e-10 4.96188e-27 -4.21637e-14)
(-1.01653e-10 4.96188e-27 -3.79019e-14)
(-9.69992e-11 0 -3.45109e-14)
(-9.08593e-11 0 -3.02803e-14)
(-8.85066e-11 0 -2.87324e-14)
(-8.17101e-11 -2.48094e-27 -2.4489e-14)
(-7.49857e-11 0 -2.06242e-14)
(-7.48471e-11 0 -2.0548e-14)
(-6.80012e-11 0 -1.69611e-14)
(-6.40091e-11 -2.48094e-27 -1.50281e-14)
(-5.79086e-11 -2.47957e-27 -1.23e-14)
(-5.37209e-11 2.48094e-27 -1.05854e-14)
(-4.83764e-11 0 -8.58396e-15)
(-4.48942e-11 0 -7.39266e-15)
(-4.03916e-11 1.24047e-27 -5.98415e-15)
(-3.8039e-11 -1.23979e-27 -5.30736e-15)
(-3.39942e-11 0 -4.23867e-15)
(-3.23945e-11 0 -3.84914e-15)
(-2.99499e-11 0 -3.29011e-15)
(-2.90924e-11 -1.24047e-27 -3.10442e-15)
(-2.81216e-11 1.24047e-27 -2.90069e-15)
(-2.76432e-11 0 -2.80284e-15)
(-2.84692e-11 0 -2.97283e-15)
(-2.92527e-11 1.24047e-27 -3.13871e-15)
(-2.54917e-11 1.24047e-27 -2.38352e-15)
(-2.74516e-11 -1.24047e-27 -2.76412e-15)
(-2.98968e-11 0 -3.27847e-15)
(-3.25746e-11 -1.24047e-27 -3.89205e-15)
(-3.09909e-11 0 -3.52281e-15)
(-3.47472e-11 0 -4.42853e-15)
(-3.79192e-11 0 -5.27397e-15)
(-4.18662e-11 -1.24047e-27 -6.42906e-15)
(-4.62131e-11 0 -7.83342e-15)
(-4.98054e-11 0 -9.09857e-15)
(-5.5112e-11 0 -1.11407e-14)
(-5.90605e-11 -2.48094e-27 -1.27942e-14)
(-5.74819e-11 -2.48094e-27 -1.21195e-14)
(-6.13864e-11 2.47957e-27 -1.38218e-14)
(-6.48327e-11 2.48094e-27 -1.54173e-14)
(-6.74148e-11 0 -1.66698e-14)
(-7.0385e-11 0 -1.81711e-14)
(-7.31785e-11 2.48094e-27 -1.96421e-14)
(-7.52684e-11 0 -2.078e-14)
(-7.75373e-11 0 -2.20517e-14)
(-8.02742e-11 2.48094e-27 -2.36359e-14)
(-8.2197e-11 2.48094e-27 -2.47818e-14)
(-8.45298e-11 0 -2.62084e-14)
(-8.65908e-11 0 -2.7502e-14)
(-8.99776e-11 0 -2.96954e-14)
(-9.2319e-11 -2.48094e-27 -3.1261e-14)
(-9.66143e-11 -2.48094e-27 -3.42376e-14)
(-9.97426e-11 4.96188e-27 -3.64907e-14)
(-1.04654e-10 4.96188e-27 -4.0173e-14)
(-1.08795e-10 -4.96188e-27 -4.34148e-14)
(-1.14198e-10 0 -4.7834e-14)
(-1.18455e-10 0 -5.14668e-14)
(-1.23769e-10 0 -5.61879e-14)
(-1.287e-10 4.96188e-27 -6.07541e-14)
(-1.32713e-10 0 -6.46022e-14)
(-1.36667e-10 0 -6.85094e-14)
(-1.47518e-10 0 -7.98196e-14)
(-1.49638e-10 0 -8.21301e-14)
(-1.52942e-10 -4.96187e-27 -8.57969e-14)
(-1.62346e-10 0 -9.66723e-14)
(-1.63415e-10 0 -9.79504e-14)
(-1.66563e-10 0 -1.0176e-13)
(-1.73257e-10 0 -1.10103e-13)
(-1.75696e-10 -4.96187e-27 -1.13226e-13)
(-1.82361e-10 4.96187e-27 -1.21979e-13)
(-1.85447e-10 0 -1.26142e-13)
(-1.91592e-10 0 -1.34641e-13)
(-1.94229e-10 0 -1.38372e-13)
(-2.00259e-10 0 -1.47098e-13)
(-2.03162e-10 0 -1.51393e-13)
(-2.09662e-10 0 -1.61235e-13)
(-2.13119e-10 0 -1.66596e-13)
(-2.20218e-10 0 -1.77879e-13)
(-2.23882e-10 0 -1.83849e-13)
(-2.31995e-10 0 -1.97413e-13)
(-2.3471e-10 0 -2.02062e-13)
(-2.44057e-10 9.92374e-27 -2.18476e-13)
(-2.52787e-10 0 -2.34385e-13)
(-2.54135e-10 9.92374e-27 -2.36891e-13)
(-2.62372e-10 -9.92374e-27 -2.52497e-13)
(-2.68804e-10 -9.92374e-27 -2.65029e-13)
(-2.76014e-10 -9.92374e-27 -2.79437e-13)
(-2.80877e-10 0 -2.89369e-13)
(-2.88143e-10 0 -3.04536e-13)
(-2.92175e-10 0 -3.13118e-13)
(-2.9194e-10 9.92374e-27 -3.12615e-13)
(-2.95927e-10 0 -3.21211e-13)
(-3.02272e-10 9.92374e-27 -3.35134e-13)
(-3.07476e-10 0 -3.46771e-13)
(-3.15195e-10 9.92374e-27 -3.644e-13)
(-3.24169e-10 0 -3.85445e-13)
(-3.23089e-10 0 -3.82883e-13)
(-3.37995e-10 0 -4.19028e-13)
(-3.36104e-10 -9.92374e-27 -4.1435e-13)
(-3.51622e-10 0 -4.53496e-13)
(-3.56922e-10 9.92374e-27 -4.67271e-13)
(-3.46767e-10 0 -4.41059e-13)
(-4.15094e-10 1.98475e-26 -6.31997e-13)
(-3.03438e-10 0 -3.37723e-13)
(-5.69347e-10 -1.98365e-26 -1.18898e-12)
(-1.31074e-10 -4.96188e-27 -6.30164e-14)
(-9.9248e-10 0 -3.61302e-12)
(3.69417e-10 0 -5.00559e-13)
(-1.75364e-09 7.93867e-26 -1.12803e-11)
(1.3529e-09 0 -6.71375e-12)
(-2.5514e-09 0 -2.38789e-11)
(2.86722e-09 0 -3.01571e-11)
(-3.11192e-09 0 -3.5525e-11)
(4.87328e-09 0 -8.7137e-11)
(-2.99221e-09 0 -3.2844e-11)
(7.14108e-09 0 -1.87174e-10)
(-1.57652e-09 0 -9.11661e-12)
(9.15699e-09 0 -3.07905e-10)
(1.50336e-09 0 -8.29012e-12)
(1.25289e-08 3.16888e-25 -5.76986e-10)
(7.86083e-09 -3.17296e-25 -2.26839e-10)
(2.18311e-08 0 -1.75948e-09)
(2.48554e-08 0 -2.28517e-09)
(5.17931e-08 0 -1.02226e-08)
(8.39389e-08 2.2711e-24 -2.89086e-08)
(5.44365e-10 0 -1.08693e-12)
(5.45565e-10 1.98365e-26 -1.09173e-12)
(5.45865e-10 0 -1.09293e-12)
(5.44365e-10 -1.98474e-26 -1.08693e-12)
(5.45865e-10 0 -1.09293e-12)
(5.44365e-10 -1.98474e-26 -1.08693e-12)
(5.45865e-10 -1.98474e-26 -1.09293e-12)
(5.45565e-10 0 -1.09173e-12)
(5.44365e-10 0 -1.08693e-12)
(5.45865e-10 -1.98474e-26 -1.09293e-12)
)
;

boundaryField
{
    inlet
    {
        type            calculated;
        value           uniform (0 0 0);
    }
    endWall
    {
        type            calculated;
        value           uniform (0 0 0);
    }
    sideWall
    {
        type            empty;
    }
}


// ************************************************************************* //
