/*--------------------------------*- C++ -*----------------------------------*\
| =========                 |                                                 |
| \\      /  F ield         | foam-extend: Open Source CFD                    |
|  \\    /   O peration     | Version:     3.2                                |
|   \\  /    A nd           | Web:         http://www.foam-extend.org         |
|    \\/     M anipulation  | For copyright notice see file Copyright         |
\*---------------------------------------------------------------------------*/
FoamFile
{
    version     2.0;
    format      ascii;
    class       areaScalarField;
    location    "1440";
    object      zCo;
}
// * * * * * * * * * * * * * * * * * * * * * * * * * * * * * * * * * * * * * //

dimensions      [0 1 0 0 0 0 0];

internalField   nonuniform List<scalar> 
550
(
-1.81818e-05
-5.45454e-05
-9.09091e-05
-0.000127273
-0.000163636
-0.0002
-0.000236364
-0.000272727
-0.000309091
-0.000345454
-0.000386115
-0.000426777
-0.000458843
-0.000494361
-0.000534177
-0.000567089
-0.000602404
-0.000643294
-0.000681196
-0.000716528
-0.000750623
-0.000784828
-0.000820854
-0.000855882
-0.000890909
-0.000927273
-0.000964509
-0.00100174
-0.00103724
-0.00107273
-0.00110909
-0.00114613
-0.00118382
-0.00122078
-0.00125705
-0.00129274
-0.00132843
-0.00136531
-0.00140165
-0.00143743
-0.00147427
-0.00151062
-0.00154644
-0.00158325
-0.00162005
-0.00165637
-0.0016927
-0.00172902
-0.00176535
-0.00180127
-0.00183678
-0.00187312
-0.00190988
-0.00194623
-0.00198259
-0.00201893
-0.00205529
-0.00209197
-0.0021273
-0.00216505
-0.00220003
-0.00223542
-0.00227283
-0.00230999
-0.00234594
-0.00238156
-0.00241636
-0.00245293
-0.00249118
-0.00252721
-0.00255973
-0.00259576
-0.00263857
-0.00267543
-0.00270853
-0.00274145
-0.00277611
-0.0028132
-0.00285029
-0.00289469
-0.00293099
-0.00295413
-0.00298653
-0.00302561
-0.00306236
-0.00310141
-0.0031433
-0.00317805
-0.00320798
-0.00324522
-0.00329152
-0.00332312
-0.00334555
-0.00338762
-0.00342888
-0.00346413
-0.00350675
-0.00353921
-0.00356698
-0.00360898
-0.00365321
-0.0036888
-0.00372145
-0.00375281
-0.0037807
-0.00381943
-0.00387257
-0.00390989
-0.00393376
-0.00397219
-0.00400536
-0.0040392
-0.00409032
-0.00412453
-0.00413098
-0.00415427
-0.0041802
-0.00420717
-0.00424455
-0.00427266
-0.00427064
-0.00429334
-0.00423714
-0.00405104
-0.00388927
-0.00374142
-0.00360384
-0.00347542
-0.00335728
-0.00325009
-0.00315481
-0.00307246
-0.00300374
-0.00294953
-0.00291145
-0.00288331
-0.00287875
-0.00290278
-0.00288766
-0.00284563
-0.00282806
-0.00277104
-0.00267703
-0.00259668
-0.00252326
-0.00245392
-0.00238883
-0.00232942
-0.00227642
-0.0022306
-0.00219088
-0.00215834
-0.0021289
-0.00210808
-0.00208609
-0.00207658
-0.00205833
-0.00205809
-0.00205471
-0.0020771
-0.00210969
-0.00216063
-0.00222523
-0.00229806
-0.00238227
-0.00247691
-0.00259645
-0.0027601
-0.0029893
-0.00334644
-0.00363907
-0.00366667
-0.00370278
-0.00375176
-0.00379477
-0.0038379
-0.00387417
-0.00390886
-0.00393733
-0.00396424
-0.00398588
-0.00400624
-0.0040223
-0.00403747
-0.00404899
-0.00405996
-0.00406796
-0.00407567
-0.00408091
-0.0040858
-0.00408859
-0.00409115
-0.0040917
-0.00409133
-0.00408979
-0.00408729
-0.00408416
-0.00408043
-0.00407635
-0.00407198
-0.00406735
-0.00406246
-0.00405743
-0.00405245
-0.00404745
-0.00404241
-0.00403743
-0.00403247
-0.00402745
-0.00402245
-0.00401756
-0.00401287
-0.00400828
-0.00400393
-0.00399983
-0.00399585
-0.0039922
-0.00398895
-0.00398594
-0.00398322
-0.00398074
-0.00397845
-0.00397656
-0.00397485
-0.00397331
-0.00397167
-0.00397039
-0.0039689
-0.0039678
-0.00396638
-0.00396556
-0.00396456
-0.00396417
-0.00396373
-0.00396402
-0.00396421
-0.00396501
-0.0039659
-0.00396721
-0.00396853
-0.00397011
-0.00397173
-0.00397359
-0.00397514
-0.00397725
-0.00397917
-0.00398174
-0.00398406
-0.00398718
-0.00399
-0.0039938
-0.00399729
-0.00400192
-0.00400619
-0.00401177
-0.00401694
-0.00402354
-0.00402986
-0.00403787
-0.00404568
-0.00405494
-0.00406369
-0.00407413
-0.00408424
-0.00409612
-0.00410755
-0.0041207
-0.00413344
-0.00414801
-0.00416202
-0.00417807
-0.00419349
-0.00421118
-0.00422876
-0.0042484
-0.0042683
-0.00429
-0.00431276
-0.00433643
-0.00436187
-0.00438705
-0.00441465
-0.00444122
-0.0044706
-0.00449813
-0.00452814
-0.00455676
-0.00458765
-0.00461753
-0.00464943
-0.00468035
-0.00471305
-0.004745
-0.00477854
-0.00481145
-0.00484564
-0.00487926
-0.00491399
-0.00494825
-0.00498344
-0.00501826
-0.0050539
-0.00508919
-0.00512501
-0.00516049
-0.00519641
-0.005232
-0.00526791
-0.00530348
-0.00533911
-0.00537424
-0.00540937
-0.00544388
-0.00547829
-0.00551193
-0.00554522
-0.00557775
-0.00560984
-0.00564112
-0.00567188
-0.00570193
-0.00573144
-0.00576013
-0.00578826
-0.00581575
-0.0058427
-0.00586897
-0.00589464
-0.00591953
-0.00594383
-0.00596746
-0.00599045
-0.00601262
-0.00603409
-0.00605474
-0.00607454
-0.00609345
-0.00611149
-0.00612854
-0.00614463
-0.00615967
-0.00617365
-0.00618651
-0.00619824
-0.00620876
-0.00621808
-0.00622617
-0.00623299
-0.00623845
-0.00624246
-0.00624497
-0.00624551
-0.0062437
-0.00624
-0.0062348
-0.00622832
-0.00622067
-0.00621196
-0.00620231
-0.00619173
-0.00618028
-0.00616803
-0.00615499
-0.00614121
-0.00612676
-0.00611164
-0.00609591
-0.00607964
-0.00606283
-0.00604552
-0.00602779
-0.00600973
-0.00599138
-0.00597283
-0.00595414
-0.00593531
-0.0059164
-0.00589747
-0.00587852
-0.00585966
-0.00584098
-0.00582247
-0.00580419
-0.00578617
-0.0057684
-0.00575096
-0.00573385
-0.00571706
-0.00570058
-0.00568438
-0.00566854
-0.00565304
-0.00563785
-0.00562294
-0.00560833
-0.00559399
-0.00557999
-0.0055663
-0.00555294
-0.0055399
-0.0055272
-0.00551479
-0.00550268
-0.00549098
-0.00547955
-0.00546837
-0.00545759
-0.00544716
-0.00543706
-0.00542735
-0.00541802
-0.00540899
-0.00540026
-0.00539197
-0.00538413
-0.00537654
-0.00536919
-0.00536222
-0.0053556
-0.00534934
-0.00534336
-0.00533768
-0.00533245
-0.00532746
-0.0053227
-0.0053183
-0.00531423
-0.00531051
-0.0053071
-0.00530399
-0.00530115
-0.00529853
-0.00529613
-0.00529392
-0.00529184
-0.00528987
-0.00528796
-0.0052861
-0.00528423
-0.00528231
-0.00528048
-0.00527872
-0.0052768
-0.00527472
-0.0052726
-0.00527041
-0.00526799
-0.00526533
-0.00526239
-0.00525919
-0.00525569
-0.00525188
-0.005248
-0.00524403
-0.00523982
-0.00523541
-0.00523082
-0.00522603
-0.00522108
-0.00521599
-0.00521072
-0.00520531
-0.00519975
-0.00519404
-0.00518815
-0.00518207
-0.00517577
-0.00516923
-0.00516241
-0.0051553
-0.00514786
-0.0051401
-0.00513202
-0.00512361
-0.00511489
-0.00510591
-0.00509643
-0.00508652
-0.00507643
-0.00506592
-0.00505506
-0.00504405
-0.00503272
-0.00502109
-0.00500915
-0.00499688
-0.00498431
-0.00497144
-0.00495829
-0.00494484
-0.00493107
-0.00491698
-0.00490253
-0.00488772
-0.00487252
-0.00485696
-0.00484099
-0.00482442
-0.00480752
-0.0047903
-0.00477259
-0.00475442
-0.00473585
-0.00471688
-0.00469752
-0.00467805
-0.00465845
-0.0046385
-0.00461817
-0.0045974
-0.00457608
-0.0045545
-0.00453246
-0.00450998
-0.00448705
-0.00446342
-0.00443996
-0.00441455
-0.0043906
-0.00436149
-0.00433812
-0.00430066
-0.00427989
-0.00423373
-0.00422037
-0.00418036
-0.00419084
-0.00418268
-0.00424145
-0.0043042
-0.00444282
-0.00462864
-0.00488173
-0.00523751
-0.00570625
-0.00638717
-0.0073825
-0.00895123
-0.0115811
-0.0165058
-0.0196545
-0.0196909
-0.0197273
-0.0197636
-0.0198
-0.0198363
-0.0198727
-0.0199091
-0.0199454
-0.0199818
)
;

boundaryField
{
    inlet
    {
        type            calculated;
        value           uniform 0;
    }
    endWall
    {
        type            calculated;
        value           uniform 0;
    }
    sideWall
    {
        type            empty;
    }
}


// ************************************************************************* //
