/*--------------------------------*- C++ -*----------------------------------*\
| =========                 |                                                 |
| \\      /  F ield         | foam-extend: Open Source CFD                    |
|  \\    /   O peration     | Version:     3.2                                |
|   \\  /    A nd           | Web:         http://www.foam-extend.org         |
|    \\/     M anipulation  | For copyright notice see file Copyright         |
\*---------------------------------------------------------------------------*/
FoamFile
{
    version     2.0;
    format      ascii;
    class       areaScalarField;
    location    "910";
    object      zDimA;
}
// * * * * * * * * * * * * * * * * * * * * * * * * * * * * * * * * * * * * * //

dimensions      [0 1 0 0 0 0 0];

internalField   nonuniform List<scalar> 
550
(
0.00503636
0.00503637
0.00503636
0.00503637
0.00503637
0.00503636
0.00503637
0.00503636
0.00503636
0.00503637
0.00503636
0.00503636
0.00503637
0.00503636
0.00503637
0.00503637
0.00503636
0.00503637
0.00503636
0.00503636
0.00503637
0.00503636
0.00503636
0.00503637
0.00503636
0.00503636
0.00503637
0.00503636
0.00503637
0.00503636
0.00503636
0.00503637
0.00503636
0.00503636
0.00503637
0.00503636
0.00503636
0.00503637
0.00503636
0.00503637
0.00503636
0.00503636
0.00503637
0.00503636
0.00503636
0.00503637
0.00503636
0.00503636
0.00503637
0.00503636
0.00503637
0.00503636
0.00503636
0.00503637
0.00503636
0.00503636
0.00503637
0.00503636
0.00503636
0.00503637
0.00503636
0.00503637
0.00503636
0.00503636
0.00503637
0.00503636
0.00503636
0.00503637
0.00503636
0.00503636
0.00503637
0.00503636
0.00503637
0.00503636
0.00503636
0.00503637
0.00503636
0.00503636
0.00503637
0.00503636
0.00503636
0.00503637
0.00503636
0.00503637
0.00503636
0.00503636
0.00503637
0.00503636
0.00503636
0.00503637
0.00503636
0.00503636
0.00503637
0.00503636
0.00503637
0.00503636
0.00503636
0.00503637
0.00503636
0.00503636
0.00503637
0.00503636
0.00503636
0.00503637
0.00503636
0.00503637
0.00503636
0.00503636
0.00503637
0.00503708
0.00503724
0.00503539
0.00503379
0.00503646
0.00504063
0.00503414
0.00502895
0.00504478
0.00502429
0.00503558
0.00503734
0.00503268
0.0050267
0.00503024
0.00504317
0.00502431
0.00501538
0.0050179
0.00503613
0.00503675
0.0050249
0.00501403
0.0050102
0.00502156
0.00501253
0.0050124
0.00501854
0.00502329
0.0050128
0.0049976
0.00498665
0.0050296
0.00500823
0.00500786
0.00501804
0.00501393
0.00500814
0.005002
0.00500438
0.00501097
0.00500916
0.00501808
0.0049926
0.00499829
0.00502747
0.00501213
0.0049954
0.00501462
0.00501766
0.00500474
0.00500266
0.00500883
0.00501049
0.0050234
0.00501041
0.00500402
0.00502744
0.00502035
0.00500106
0.00501113
0.00502827
0.0050181
0.0050165
0.00501705
0.00501562
0.005018
0.0050239
0.00503214
0.00501222
0.00501246
0.00502135
0.00501503
0.00502979
0.00502819
0.00502793
0.00503374
0.00501178
0.00501857
0.00503966
0.00502472
0.00502212
0.00502795
0.00500808
0.0050143
0.00503607
0.00504077
0.00503114
0.00502723
0.00501189
0.00502992
0.00503588
0.00500791
0.0050104
0.00500979
0.00500966
0.00501512
0.0050153
0.00502993
0.00501277
0.00502805
0.00502115
0.00501987
0.00502327
0.00502557
0.00502048
0.00505943
0.00507232
0.00504901
0.00505903
0.00505394
0.00505603
0.00505666
0.00505421
0.00505647
0.00505067
0.00505371
0.00504573
0.00504866
0.00503967
0.00504145
0.00503242
0.00503267
0.00502398
0.0050235
0.00501465
0.00501576
0.00500445
0.00501331
0.00501147
0.00500099
0.00501492
0.00500917
0.00504978
0.00501208
0.00502438
0.00500321
0.00500468
0.00503958
0.00502624
0.0050149
0.005028
0.00501807
0.00503397
0.0050324
0.0050119
0.00501355
0.00501557
0.00502471
0.00502896
0.00502718
0.00502286
0.00504453
0.00504469
0.00505188
0.0050414
0.00504528
0.00504034
0.00503931
0.00504042
0.00504086
0.00503161
0.00503334
0.00502761
0.00502362
0.00502153
0.00502143
0.00501612
0.00501275
0.00501293
0.00501354
0.00500946
0.0050062
0.00500241
0.00500252
0.00500193
0.0050021
0.00500045
0.00500029
0.00500028
0.00500189
0.00500108
0.00500121
0.00500055
0.00500244
0.00500279
0.00500392
0.00500324
0.00500309
0.00500207
0.00500258
0.00500242
0.00500367
0.00500416
0.00500526
0.00500546
0.00500632
0.00500648
0.0050073
0.0050075
0.00500821
0.00500832
0.00500886
0.0050089
0.0050094
0.00500947
0.00500978
0.00500956
0.00500956
0.00500896
0.00500863
0.00500804
0.00500764
0.00500695
0.00500652
0.00500584
0.00500528
0.00500469
0.00500412
0.00500348
0.00500288
0.00500217
0.00500147
0.00500045
0.00500085
0.00500177
0.00500279
0.00500351
0.00500422
0.00500475
0.00500533
0.0050059
0.00500627
0.00500642
0.00500645
0.00500633
0.00500583
0.00500518
0.00500426
0.00500307
0.00500127
0.00500002
0.00500138
0.00500377
0.00500624
0.00500874
0.00501138
0.00501398
0.00501594
0.00501834
0.0050203
0.0050217
0.00502366
0.0050255
0.00502614
0.00502657
0.00502697
0.00502551
0.00502332
0.00502168
0.00502166
0.00502247
0.00502315
0.0050235
0.00502363
0.0050234
0.00502321
0.00502263
0.00502188
0.00502091
0.00501982
0.00501815
0.00501654
0.00501508
0.00501357
0.00501263
0.00501199
0.00501165
0.0050116
0.00501172
0.0050121
0.00501234
0.00501271
0.0050131
0.0050136
0.00501384
0.00501418
0.00501444
0.00501454
0.00501462
0.00501461
0.00501453
0.00501458
0.00501455
0.00501451
0.00501445
0.00501449
0.00501442
0.00501449
0.00501458
0.00501475
0.00501481
0.00501499
0.00501509
0.00501519
0.00501547
0.00501552
0.00501573
0.00501583
0.00501599
0.00501618
0.00501624
0.00501633
0.00501634
0.00501643
0.00501648
0.00501657
0.00501648
0.00501654
0.00501651
0.00501661
0.00501655
0.0050165
0.00501644
0.00501644
0.00501636
0.0050163
0.00501619
0.00501604
0.00501594
0.00501588
0.00501579
0.00501561
0.00501561
0.00501524
0.00501512
0.00501494
0.00501455
0.00501433
0.00501403
0.00501376
0.00501343
0.00501307
0.0050128
0.00501252
0.00501207
0.005012
0.00501172
0.00501143
0.0050112
0.00501106
0.00501084
0.0050107
0.00501042
0.00501032
0.00501005
0.00500971
0.00500959
0.00500905
0.00500871
0.00500806
0.00500736
0.00500646
0.00500568
0.00500442
0.00500317
0.00500155
0.00500081
0.00500283
0.00500462
0.00500601
0.00500745
0.00500852
0.00500959
0.00501048
0.00501127
0.00501179
0.00501233
0.00501264
0.00501296
0.00501314
0.00501329
0.00501336
0.00501343
0.00501336
0.00501332
0.00501329
0.00501315
0.0050129
0.0050127
0.00501246
0.00501217
0.00501192
0.00501173
0.00501137
0.00501124
0.0050109
0.00501087
0.0050106
0.00501058
0.0050104
0.00501065
0.00501056
0.00501103
0.00501085
0.00501166
0.00501183
0.00501202
0.00501423
0.0050117
0.00502011
0.00500706
0.00503554
0.00501032
0.0050633
0.00504464
0.00509435
0.00510101
0.00511959
0.00518068
0.00512316
0.00527941
0.00507901
0.00538222
0.00504232
0.00551512
0.00531847
0.0059328
0.00608193
0.00747041
0.00944392
0.00541455
0.0050317
0.00503835
0.0050369
0.00503665
0.00503643
0.00503648
0.00503645
0.00503633
0.00503641
)
;

boundaryField
{
    inlet
    {
        type            calculated;
        value           uniform 0;
    }
    endWall
    {
        type            calculated;
        value           uniform 0;
    }
    sideWall
    {
        type            empty;
    }
}


// ************************************************************************* //
