/*--------------------------------*- C++ -*----------------------------------*\
| =========                 |                                                 |
| \\      /  F ield         | foam-extend: Open Source CFD                    |
|  \\    /   O peration     | Version:     3.2                                |
|   \\  /    A nd           | Web:         http://www.foam-extend.org         |
|    \\/     M anipulation  | For copyright notice see file Copyright         |
\*---------------------------------------------------------------------------*/
FoamFile
{
    version     2.0;
    format      ascii;
    class       volScalarField;
    location    "1440";
    object      zDim;
}
// * * * * * * * * * * * * * * * * * * * * * * * * * * * * * * * * * * * * * //

dimensions      [0 1 0 0 0 0 0];

internalField   nonuniform List<scalar> 
33000
(
0.00503636
0.00503637
0.00503636
0.00503637
0.00503637
0.00503636
0.00503637
0.00503636
0.00503636
0.00503638
0.00504438
0.00503694
0.00502836
0.0050422
0.00503684
0.00502993
0.00504037
0.00504066
0.00503555
0.00503544
0.00503291
0.00503548
0.00503632
0.00503388
0.00503618
0.00503636
0.00503799
0.00503647
0.00503474
0.00503624
0.00503636
0.00503763
0.00503766
0.00503636
0.00503627
0.00503519
0.00503621
0.00503738
0.00503538
0.00503624
0.0050373
0.00503546
0.00503625
0.00503723
0.00503638
0.00503633
0.00503632
0.00503632
0.00503634
0.00503556
0.00503553
0.00503704
0.00503641
0.00503635
0.00503636
0.00503634
0.00503637
0.00503695
0.00503389
0.0050412
0.00502888
0.00504099
0.00503131
0.00503817
0.0050251
0.00503215
0.00501746
0.00502913
0.00501555
0.00502153
0.00500573
0.00502431
0.00501429
0.00500678
0.00499532
0.00499157
0.00498088
0.00497404
0.00495686
0.00496148
0.0049149
0.0049123
0.0049113
0.00491311
0.00490103
0.00491335
0.00490782
0.00490392
0.0049028
0.00492393
0.00492838
0.00490562
0.00491736
0.00494924
0.00492649
0.00494521
0.00494611
0.00493377
0.00494295
0.00496686
0.00495545
0.00495698
0.00495497
0.0049603
0.00495429
0.0049856
0.00498779
0.00496347
0.00496629
0.0049945
0.00496344
0.0050001
0.00500133
0.00497542
0.00495964
0.00500622
0.00496251
0.00501148
0.004985
0.00500111
0.00500668
0.00505208
0.00519071
0.00516962
0.00514972
0.0051448
0.00512924
0.00512629
0.00510849
0.00510426
0.00508451
0.00507834
0.00505713
0.00504908
0.00502573
0.0050274
0.00501828
0.00502586
0.00505449
0.00502621
0.00501429
0.00510479
0.00508146
0.0050784
0.00506791
0.0050702
0.00505923
0.00505873
0.00504626
0.00504454
0.00503389
0.00503074
0.00502691
0.00501487
0.00502733
0.00500831
0.00504113
0.00504067
0.00504347
0.00508826
0.00502195
0.00512384
0.00500993
0.00514105
0.0050259
0.00516208
0.00507376
0.00524792
0.00520245
0.00549614
0.00509982
0.00500639
0.00507861
0.00501787
0.00506908
0.00501718
0.00505633
0.00501327
0.00504454
0.00500949
0.0050345
0.00500638
0.00502631
0.0050041
0.00501941
0.00500257
0.00501382
0.00500163
0.00500917
0.00500067
0.00500521
0.00500041
0.00500143
0.00500219
0.00500099
0.00500407
0.00500226
0.0050052
0.00500295
0.00500579
0.00500348
0.00500628
0.00500372
0.0050062
0.00500376
0.00500628
0.00500364
0.00500624
0.00500375
0.00500618
0.00500353
0.00500579
0.00500332
0.00500529
0.00500284
0.00500504
0.00500216
0.00500426
0.00500168
0.00500369
0.00500118
0.00500329
0.00500043
0.00500292
0.00500021
0.00500303
0.00500047
0.00500336
0.00500118
0.0050039
0.00500226
0.00500414
0.00500336
0.00500412
0.00500471
0.00500425
0.00500586
0.00500403
0.00500664
0.00500395
0.0050071
0.00500383
0.00500756
0.00500432
0.00500854
0.00500461
0.00500975
0.00500495
0.00501119
0.00500537
0.00501297
0.0050058
0.00501507
0.00500627
0.00501742
0.00500684
0.00502004
0.00500712
0.00502315
0.0050073
0.00502582
0.00500801
0.0050289
0.00500839
0.00503215
0.00500898
0.00503526
0.00500946
0.00503859
0.0050102
0.00504229
0.00501103
0.0050464
0.00501092
0.0050502
0.0050102
0.00505361
0.00500811
0.00505545
0.00500489
0.00505524
0.00500456
0.00505369
0.00500468
0.0050506
0.00500901
0.00504841
0.00501308
0.00504685
0.00501664
0.0050453
0.00501986
0.00504411
0.00502272
0.00504321
0.00502495
0.00504233
0.00502693
0.00504157
0.00502865
0.00504099
0.0050301
0.00504043
0.00503105
0.00503988
0.00503187
0.00503936
0.0050324
0.00503875
0.00503251
0.00503784
0.00503241
0.00503672
0.00503212
0.0050352
0.00503131
0.00503378
0.00503039
0.0050322
0.00502933
0.00503082
0.0050282
0.00502918
0.00502709
0.00502794
0.00502598
0.00502658
0.00502477
0.00502509
0.00502361
0.00502371
0.00502225
0.00502215
0.00502088
0.00502047
0.00501915
0.00501874
0.00501739
0.00501676
0.00501545
0.00501467
0.00501331
0.00501244
0.00501105
0.00501008
0.00500873
0.00500763
0.00500613
0.00500485
0.00500329
0.00500188
0.00500082
0.00500301
0.00500452
0.005006
0.00500708
0.00500829
0.00500914
0.00501013
0.00501098
0.00501189
0.0050126
0.0050135
0.00501413
0.00501481
0.00501545
0.005016
0.00501654
0.00501706
0.00501751
0.00501794
0.00501818
0.00501849
0.00501854
0.00501876
0.00501887
0.00501894
0.00501887
0.00501887
0.00501867
0.00501853
0.00501837
0.0050181
0.00501781
0.00501759
0.00501721
0.00501688
0.0050165
0.00501628
0.00501598
0.00501559
0.00501526
0.00501498
0.00501473
0.00501444
0.00501412
0.00501371
0.00501349
0.00501307
0.0050129
0.00501243
0.00501227
0.00501178
0.00501149
0.00501126
0.00501095
0.00501047
0.00501023
0.00500983
0.00500952
0.00500903
0.00500883
0.00500843
0.00500795
0.00500755
0.00500744
0.0050071
0.00500671
0.00500643
0.00500601
0.00500582
0.00500538
0.00500495
0.00500491
0.00500447
0.00500419
0.0050038
0.00500352
0.00500316
0.00500293
0.00500264
0.00500248
0.00500221
0.00500211
0.00500195
0.00500189
0.00500182
0.0050018
0.00500185
0.00500188
0.00500166
0.00500179
0.00500196
0.00500212
0.00500203
0.00500228
0.0050025
0.00500275
0.00500305
0.0050033
0.00500365
0.00500389
0.00500381
0.00500406
0.00500428
0.00500445
0.00500466
0.00500483
0.00500498
0.00500514
0.00500531
0.00500544
0.0050056
0.00500573
0.00500596
0.00500612
0.00500641
0.00500662
0.00500694
0.00500723
0.00500759
0.00500787
0.00500822
0.00500856
0.0050088
0.00500913
0.00500979
0.00500995
0.00501018
0.00501078
0.00501086
0.00501108
0.0050115
0.00501169
0.00501212
0.00501234
0.00501274
0.00501293
0.00501331
0.00501352
0.00501393
0.0050142
0.00501466
0.00501491
0.00501543
0.00501565
0.00501625
0.00501682
0.00501693
0.00501747
0.0050179
0.00501838
0.0050187
0.00501919
0.00501942
0.00501944
0.0050197
0.00502012
0.0050205
0.005021
0.00502156
0.00502154
0.00502247
0.00502243
0.00502344
0.00502369
0.00502339
0.0050271
0.00502141
0.00503586
0.00501271
0.00505977
0.00501822
0.00510249
0.00507576
0.00514521
0.00516618
0.0051709
0.00528843
0.00515345
0.00543068
0.00505657
0.00556275
0.00513715
0.00578852
0.00555013
0.00641009
0.00667721
0.00851805
0.0112769
0.00560872
0.00502947
0.00503921
0.0050371
0.0050368
0.0050365
0.0050365
0.0050365
0.0050363
0.0050364
0.00503636
0.00503637
0.00503636
0.00503636
0.00503637
0.00503636
0.00503637
0.00503635
0.00503633
0.00503688
0.00504318
0.00503706
0.00503007
0.00504062
0.00503686
0.00503124
0.00503943
0.00504029
0.00503603
0.00503531
0.00503333
0.00503531
0.00503607
0.00503424
0.00503597
0.00503644
0.00503775
0.0050365
0.005035
0.00503611
0.00503642
0.00503751
0.00503757
0.00503647
0.00503622
0.00503535
0.00503619
0.00503714
0.00503562
0.00503623
0.00503708
0.00503568
0.00503625
0.00503708
0.00503645
0.00503633
0.00503632
0.00503632
0.00503628
0.00503562
0.00503563
0.00503686
0.00503646
0.00503635
0.00503634
0.00503632
0.00503639
0.00503666
0.00503461
0.00503963
0.00503063
0.0050391
0.00503239
0.00503631
0.00502667
0.00503085
0.00502095
0.00502985
0.00502039
0.00502346
0.00501289
0.00502915
0.00502472
0.00502108
0.00501634
0.00501941
0.00501988
0.00501998
0.00501472
0.00501943
0.00497749
0.00496941
0.00496009
0.00495817
0.00494751
0.00495443
0.00495193
0.00494774
0.004947
0.00496476
0.00496801
0.00494843
0.00495686
0.00498186
0.00496552
0.00497898
0.00497953
0.00496831
0.00497703
0.00499702
0.00498768
0.00498698
0.00498524
0.00498798
0.00498413
0.00500805
0.0050103
0.00498987
0.00499058
0.00501269
0.00499061
0.0050184
0.00501806
0.00499032
0.00497044
0.00500673
0.00497475
0.00500795
0.0049891
0.00498965
0.00499682
0.00501743
0.00518412
0.00517403
0.00515446
0.00514482
0.0051304
0.00512462
0.00510889
0.00510237
0.00508488
0.0050764
0.00505734
0.00504704
0.00502697
0.0050225
0.00501414
0.00502011
0.0050473
0.00502737
0.00502358
0.00509697
0.00508275
0.00507745
0.00506861
0.00506886
0.00505965
0.00505735
0.00504666
0.0050434
0.00503403
0.00503034
0.00502581
0.00501654
0.00502314
0.00500341
0.00503022
0.00502678
0.00502537
0.00506798
0.00500776
0.00510187
0.00502304
0.00512039
0.00504475
0.00514305
0.00509213
0.00522747
0.00522439
0.00544386
0.00513082
0.00501057
0.00506776
0.00502707
0.00506116
0.00502461
0.00505001
0.00501932
0.00503943
0.00501438
0.0050304
0.00501028
0.00502305
0.00500714
0.00501691
0.00500482
0.00501197
0.00500322
0.00500789
0.00500166
0.00500441
0.00500044
0.00500104
0.0050018
0.00500128
0.00500364
0.00500257
0.00500473
0.00500329
0.00500531
0.0050038
0.00500578
0.00500402
0.00500573
0.00500405
0.00500577
0.00500396
0.00500576
0.00500404
0.00500568
0.00500382
0.00500531
0.00500355
0.00500485
0.0050031
0.00500453
0.00500242
0.00500377
0.0050019
0.00500321
0.00500142
0.00500279
0.00500072
0.00500238
0.00500046
0.00500239
0.00500015
0.00500258
0.00500029
0.00500288
0.00500112
0.00500291
0.00500203
0.00500269
0.00500316
0.00500261
0.00500413
0.00500226
0.00500483
0.00500212
0.00500523
0.00500193
0.00500558
0.00500223
0.00500635
0.00500229
0.0050073
0.00500236
0.00500845
0.00500245
0.00500987
0.00500251
0.00501155
0.00500255
0.00501347
0.00500263
0.00501559
0.0050024
0.00501816
0.00500212
0.00502036
0.00500238
0.00502286
0.00500265
0.00502552
0.00500293
0.00502806
0.00500321
0.00503075
0.00500351
0.00503375
0.00500385
0.00503713
0.00500414
0.0050404
0.00500438
0.00504349
0.00500448
0.00504548
0.00500439
0.00504587
0.00500805
0.00504535
0.00501201
0.0050435
0.00501518
0.00504229
0.00501832
0.00504162
0.00502109
0.0050408
0.00502364
0.00504029
0.00502583
0.00503998
0.00502757
0.0050396
0.00502913
0.0050392
0.00503051
0.00503899
0.00503165
0.00503874
0.00503234
0.00503837
0.0050329
0.00503805
0.00503331
0.00503756
0.00503325
0.00503684
0.00503298
0.00503586
0.00503261
0.00503457
0.00503168
0.00503323
0.00503067
0.0050317
0.00502954
0.00503039
0.0050284
0.00502881
0.00502721
0.00502757
0.0050261
0.00502627
0.00502479
0.00502478
0.00502364
0.00502347
0.00502222
0.0050219
0.00502087
0.00502029
0.00501909
0.00501857
0.00501736
0.0050166
0.00501543
0.00501454
0.00501328
0.00501231
0.00501096
0.0050099
0.00500861
0.00500752
0.00500608
0.00500472
0.0050032
0.0050017
0.0050007
0.00500288
0.00500441
0.00500589
0.00500696
0.00500812
0.00500903
0.00501003
0.0050109
0.00501178
0.0050125
0.00501336
0.00501396
0.00501461
0.00501529
0.0050158
0.00501638
0.00501685
0.00501737
0.00501773
0.00501797
0.00501829
0.00501833
0.00501858
0.00501866
0.00501868
0.00501862
0.00501866
0.0050185
0.00501833
0.00501816
0.00501784
0.00501757
0.00501736
0.00501696
0.00501659
0.00501631
0.00501605
0.00501576
0.00501531
0.005015
0.00501476
0.00501447
0.00501416
0.00501381
0.00501349
0.00501322
0.00501285
0.00501264
0.00501215
0.00501196
0.00501152
0.00501125
0.00501095
0.00501067
0.00501019
0.00500997
0.00500956
0.0050092
0.00500874
0.00500854
0.00500816
0.00500769
0.00500731
0.00500717
0.00500684
0.0050064
0.00500613
0.00500568
0.00500552
0.00500505
0.00500464
0.00500457
0.00500417
0.00500387
0.00500349
0.00500321
0.00500287
0.00500262
0.00500234
0.00500216
0.00500192
0.00500181
0.00500167
0.00500161
0.00500153
0.00500153
0.00500155
0.00500158
0.00500142
0.00500153
0.00500169
0.0050018
0.00500174
0.00500195
0.00500217
0.00500249
0.00500278
0.00500303
0.00500333
0.00500353
0.0050035
0.00500379
0.00500401
0.00500416
0.00500434
0.00500454
0.00500466
0.00500484
0.00500502
0.00500511
0.00500525
0.00500541
0.00500564
0.0050058
0.00500606
0.00500628
0.00500659
0.00500689
0.00500726
0.00500754
0.00500791
0.0050082
0.00500848
0.00500881
0.00500943
0.00500961
0.00500991
0.00501043
0.00501055
0.0050108
0.00501116
0.00501138
0.0050118
0.005012
0.00501238
0.00501263
0.00501298
0.00501324
0.00501361
0.00501383
0.00501425
0.00501457
0.00501507
0.00501532
0.00501592
0.00501644
0.00501659
0.00501708
0.00501751
0.00501798
0.00501833
0.00501881
0.00501905
0.00501905
0.0050193
0.00501972
0.00502012
0.00502059
0.00502111
0.00502126
0.00502204
0.00502212
0.00502297
0.00502326
0.00502334
0.00502591
0.0050227
0.00503242
0.00501806
0.00504943
0.00500853
0.00507817
0.00504311
0.00510179
0.00511298
0.00510554
0.005214
0.00506838
0.00534147
0.00503409
0.00547372
0.00521274
0.00570593
0.00561433
0.00632728
0.0067178
0.0083832
0.0106836
0.00622871
0.00510946
0.00505516
0.00504356
0.00503982
0.0050382
0.0050374
0.00503707
0.00503671
0.00503654
0.00503636
0.00503633
0.00503639
0.00503635
0.00503632
0.00503638
0.00503636
0.00503643
0.00503634
0.00503734
0.00504201
0.00503712
0.0050317
0.00503923
0.00503668
0.00503251
0.00503865
0.00503979
0.00503646
0.00503526
0.00503371
0.00503518
0.00503587
0.00503452
0.00503583
0.0050365
0.00503741
0.00503647
0.0050352
0.00503604
0.00503648
0.00503738
0.00503754
0.00503658
0.00503612
0.00503557
0.00503615
0.00503683
0.00503583
0.00503624
0.00503687
0.00503592
0.00503625
0.00503696
0.00503651
0.00503634
0.00503636
0.00503628
0.0050362
0.00503573
0.00503569
0.0050367
0.00503645
0.0050363
0.00503636
0.00503629
0.00503641
0.00503656
0.00503524
0.00503833
0.00503231
0.00503751
0.00503276
0.00503328
0.00502554
0.00502688
0.00502048
0.00502759
0.00502383
0.00502653
0.00501997
0.00503304
0.00503446
0.00503585
0.00503852
0.00505175
0.00506673
0.00508013
0.00509097
0.00510227
0.00507165
0.00505747
0.00503839
0.00502708
0.0050126
0.00501561
0.00501709
0.00501657
0.00501738
0.00502914
0.00502998
0.00501421
0.00501998
0.00503662
0.00502415
0.00503352
0.00503362
0.00502225
0.00502875
0.00504693
0.00504088
0.00503614
0.00503275
0.00503389
0.0050318
0.00504811
0.00504729
0.0050297
0.0050299
0.00504558
0.00503111
0.00505029
0.00504936
0.00502043
0.00499677
0.00501596
0.00499068
0.00500632
0.00499199
0.00498023
0.00499346
0.00500515
0.00517216
0.00517749
0.00516127
0.00514692
0.00513096
0.00512271
0.00510894
0.00510051
0.00508495
0.00507464
0.00505729
0.00504534
0.00502762
0.00501835
0.00500963
0.00501362
0.00504016
0.00502921
0.00503188
0.00508906
0.00508321
0.00507667
0.00506915
0.00506748
0.00505977
0.00505598
0.00504687
0.00504232
0.00503415
0.00502975
0.00502484
0.00501762
0.00501972
0.00500394
0.00502091
0.00501503
0.00501008
0.00505079
0.00501107
0.00508309
0.00503894
0.00510306
0.00506038
0.00512768
0.00510813
0.00521155
0.00524117
0.00539234
0.00515397
0.00502995
0.00506014
0.00503491
0.00505478
0.00503075
0.00504492
0.00502438
0.00503521
0.00501839
0.00502705
0.00501356
0.00502032
0.0050096
0.00501477
0.00500664
0.0050104
0.00500444
0.00500674
0.00500241
0.00500368
0.0050008
0.00500065
0.00500143
0.00500147
0.00500315
0.00500269
0.00500423
0.00500351
0.00500476
0.0050039
0.00500525
0.00500416
0.00500522
0.00500417
0.00500529
0.0050041
0.00500521
0.00500411
0.00500518
0.00500389
0.00500473
0.00500366
0.00500433
0.00500321
0.00500393
0.00500251
0.00500323
0.00500203
0.00500274
0.00500145
0.00500224
0.00500088
0.0050019
0.00500067
0.00500176
0.00500018
0.00500175
0.0049999
0.00500193
0.00500008
0.00500167
0.00500073
0.00500138
0.00500173
0.00500105
0.00500251
0.0050007
0.0050032
0.00500046
0.00500356
0.00500024
0.00500381
0.00500029
0.00500432
0.00500024
0.00500509
0.00500034
0.00500606
0.00500051
0.00500714
0.00500048
0.00500856
0.00500068
0.00501
0.00500083
0.00501168
0.005001
0.00501381
0.00500118
0.0050156
0.00500141
0.00501764
0.00500206
0.00501982
0.00500254
0.00502182
0.00500322
0.00502405
0.00500356
0.00502647
0.00500408
0.00502929
0.00500528
0.00503206
0.00500683
0.00503488
0.00500919
0.00503697
0.0050118
0.00503789
0.00501491
0.00503818
0.0050179
0.0050374
0.00502009
0.00503701
0.00502247
0.00503711
0.00502456
0.00503694
0.00502648
0.00503699
0.00502819
0.00503714
0.00502951
0.00503711
0.00503081
0.00503712
0.00503184
0.00503714
0.00503268
0.00503711
0.00503319
0.00503696
0.0050336
0.00503677
0.00503384
0.00503641
0.00503369
0.00503581
0.00503333
0.00503498
0.00503282
0.0050338
0.00503181
0.00503255
0.00503074
0.00503112
0.00502956
0.00502984
0.00502834
0.00502833
0.0050271
0.0050271
0.00502596
0.00502583
0.00502465
0.00502438
0.00502344
0.00502308
0.00502203
0.00502153
0.00502062
0.00501995
0.00501887
0.00501822
0.00501714
0.00501628
0.00501518
0.00501423
0.00501306
0.00501201
0.00501071
0.00500961
0.00500836
0.00500722
0.00500581
0.00500446
0.00500295
0.00500139
0.00500045
0.00500256
0.00500412
0.00500555
0.00500664
0.00500778
0.00500874
0.0050097
0.00501056
0.00501141
0.00501218
0.00501297
0.00501362
0.00501427
0.00501493
0.00501545
0.00501601
0.0050165
0.00501698
0.00501732
0.00501759
0.00501785
0.00501793
0.00501814
0.00501822
0.00501826
0.00501821
0.0050182
0.00501804
0.00501787
0.00501769
0.00501739
0.00501709
0.00501686
0.00501648
0.00501612
0.00501584
0.00501556
0.00501526
0.00501483
0.00501451
0.00501426
0.00501397
0.00501364
0.0050133
0.00501298
0.0050127
0.00501236
0.00501209
0.00501164
0.00501141
0.005011
0.0050107
0.00501044
0.00501012
0.00500968
0.0050094
0.00500901
0.00500865
0.00500822
0.00500797
0.0050076
0.00500714
0.00500676
0.00500659
0.00500627
0.00500584
0.00500554
0.00500513
0.00500493
0.00500445
0.00500413
0.00500399
0.00500361
0.00500328
0.00500293
0.00500262
0.00500228
0.00500202
0.00500176
0.00500156
0.00500134
0.00500122
0.00500106
0.00500099
0.00500092
0.00500092
0.00500093
0.00500095
0.00500083
0.0050009
0.00500106
0.00500116
0.00500115
0.00500136
0.00500161
0.00500192
0.00500214
0.00500238
0.00500268
0.00500289
0.00500292
0.00500318
0.00500333
0.0050035
0.0050037
0.0050039
0.005004
0.00500421
0.00500434
0.00500443
0.00500462
0.00500477
0.00500498
0.00500516
0.00500542
0.00500566
0.00500596
0.00500627
0.00500662
0.00500689
0.00500724
0.00500752
0.00500784
0.00500816
0.00500875
0.00500893
0.00500926
0.00500966
0.00500984
0.00501015
0.00501038
0.00501065
0.00501104
0.00501126
0.00501167
0.00501188
0.00501219
0.00501249
0.00501282
0.00501308
0.0050136
0.00501389
0.00501434
0.00501459
0.0050152
0.00501558
0.00501586
0.00501632
0.00501681
0.00501724
0.00501761
0.00501805
0.00501823
0.0050183
0.00501866
0.00501893
0.00501946
0.00501986
0.00502023
0.00502061
0.00502115
0.00502134
0.00502212
0.00502242
0.00502277
0.00502451
0.00502312
0.00502918
0.00502146
0.00504054
0.00501127
0.00505754
0.00501517
0.00506492
0.00506777
0.00504994
0.00515119
0.00501698
0.00526592
0.00508749
0.00539937
0.00527644
0.00563943
0.0056731
0.00626714
0.00676885
0.00826382
0.0100546
0.0067052
0.00526778
0.0050927
0.00505835
0.00504684
0.00504204
0.00503966
0.00503835
0.00503753
0.00503697
0.0050364
0.0050363
0.0050364
0.0050364
0.0050363
0.0050364
0.0050363
0.0050365
0.0050365
0.0050376
0.0050409
0.0050372
0.0050331
0.0050382
0.0050366
0.0050336
0.0050381
0.0050392
0.0050367
0.0050353
0.0050341
0.0050351
0.0050357
0.0050348
0.0050358
0.0050365
0.0050372
0.0050366
0.0050355
0.005036
0.0050365
0.0050372
0.0050374
0.0050367
0.0050361
0.0050358
0.0050363
0.0050367
0.005036
0.0050362
0.0050367
0.005036
0.0050362
0.0050368
0.0050365
0.0050363
0.0050364
0.0050363
0.0050361
0.0050358
0.0050358
0.00503659
0.00503649
0.00503629
0.00503638
0.00503628
0.00503613
0.00503644
0.00503594
0.00503778
0.00503396
0.00503717
0.00503341
0.00503047
0.00502226
0.00502135
0.00501736
0.00502271
0.00502354
0.00502907
0.00502835
0.00503705
0.00503908
0.00504401
0.00505072
0.00507217
0.005107
0.00514186
0.00517193
0.00519434
0.00518363
0.00517266
0.00514248
0.00511352
0.00508923
0.00508549
0.0050897
0.00509825
0.0051063
0.00511589
0.00511149
0.00509468
0.00510151
0.00511381
0.00509717
0.005097
0.00510034
0.00509376
0.00509396
0.00510516
0.0051048
0.00510194
0.00509432
0.00509011
0.0050886
0.00509932
0.00509522
0.00507886
0.00507669
0.0050891
0.00508378
0.0050923
0.00508509
0.00505618
0.00503129
0.00503686
0.0050141
0.00500849
0.00499007
0.00497385
0.00499031
0.00502068
0.00516534
0.00518411
0.00517051
0.00514941
0.00512937
0.00512026
0.00510851
0.00509904
0.00508463
0.00507296
0.00505692
0.00504386
0.00502784
0.0050157
0.00500512
0.00500752
0.00503456
0.00503105
0.00503822
0.00508234
0.00508243
0.0050758
0.00506918
0.00506635
0.00505967
0.00505492
0.00504679
0.00504123
0.00503385
0.0050291
0.00502408
0.00501804
0.00501715
0.00500648
0.00501407
0.00500695
0.00500005
0.00503864
0.00502172
0.00506975
0.00504917
0.00509093
0.00507106
0.00511756
0.00511948
0.00520112
0.00524905
0.0053488
0.0051686
0.00504998
0.0050569
0.00504061
0.00505055
0.00503501
0.0050414
0.00502775
0.00503247
0.0050212
0.00502466
0.00501576
0.00501849
0.00501127
0.00501346
0.00500783
0.00500929
0.00500527
0.00500599
0.00500288
0.0050031
0.00500092
0.00500036
0.00500104
0.00500138
0.00500277
0.00500278
0.00500379
0.00500344
0.00500429
0.00500398
0.00500492
0.00500405
0.00500468
0.00500417
0.00500478
0.00500408
0.0050047
0.00500414
0.00500464
0.0050039
0.00500429
0.00500357
0.00500377
0.00500306
0.00500335
0.00500244
0.00500282
0.00500182
0.00500208
0.00500128
0.00500178
0.00500076
0.00500114
0.00500037
0.00500106
0.00500009
0.00500109
0.00499999
0.00500107
0.00499945
0.00500072
0.00499972
0.00500028
0.0050005
0.00499983
0.00500129
0.00499952
0.00500187
0.00499962
0.00500218
0.00499951
0.00500242
0.0049996
0.00500286
0.00499965
0.00500343
0.00499983
0.00500402
0.00500012
0.00500503
0.00500057
0.00500606
0.00500116
0.00500736
0.00500176
0.0050088
0.00500256
0.00501051
0.00500349
0.00501214
0.00500409
0.00501385
0.00500501
0.00501563
0.00500595
0.00501735
0.00500673
0.00501915
0.00500759
0.00502123
0.00500842
0.0050235
0.00501004
0.00502608
0.00501187
0.00502876
0.00501424
0.00503099
0.00501675
0.00503228
0.00501919
0.00503309
0.00502154
0.00503309
0.00502325
0.00503327
0.00502503
0.00503375
0.00502664
0.00503407
0.00502821
0.00503453
0.00502951
0.00503494
0.00503061
0.00503511
0.00503151
0.00503531
0.0050324
0.00503564
0.00503313
0.00503572
0.00503354
0.00503571
0.00503383
0.00503564
0.00503402
0.00503533
0.00503373
0.00503483
0.00503328
0.00503411
0.00503275
0.0050331
0.00503172
0.0050319
0.00503044
0.00503042
0.00502928
0.00502916
0.00502803
0.00502782
0.00502685
0.00502645
0.00502561
0.00502524
0.00502421
0.0050238
0.00502302
0.00502252
0.00502156
0.00502101
0.00502018
0.00501945
0.0050185
0.00501772
0.00501671
0.00501584
0.00501476
0.00501368
0.00501261
0.00501152
0.00501032
0.00500914
0.0050079
0.00500681
0.00500539
0.00500399
0.00500245
0.00500086
0.00499996
0.00500211
0.00500371
0.00500503
0.00500614
0.00500727
0.00500825
0.00500921
0.00501
0.00501088
0.00501168
0.00501248
0.00501309
0.00501372
0.00501439
0.00501489
0.00501545
0.00501594
0.00501643
0.00501672
0.00501696
0.0050172
0.00501729
0.00501746
0.00501754
0.0050176
0.0050175
0.00501754
0.00501738
0.00501713
0.00501701
0.00501666
0.00501636
0.00501614
0.00501581
0.00501543
0.0050151
0.00501483
0.00501454
0.00501411
0.0050138
0.00501349
0.00501315
0.00501289
0.00501259
0.00501222
0.00501201
0.00501158
0.00501133
0.00501086
0.00501065
0.00501017
0.00500991
0.00500965
0.00500928
0.00500884
0.00500863
0.00500821
0.00500787
0.00500749
0.00500705
0.00500667
0.00500638
0.00500594
0.00500573
0.00500542
0.00500497
0.00500474
0.00500425
0.00500406
0.00500363
0.00500324
0.00500311
0.00500265
0.00500237
0.00500204
0.00500177
0.00500133
0.00500115
0.00500083
0.00500058
0.00500053
0.00500029
0.00500018
0.0050001
0.00499998
0.00500001
0.00500003
0.00500001
0.00499996
0.00499998
0.00500015
0.00500023
0.0050002
0.00500043
0.00500074
0.00500097
0.00500118
0.0050014
0.00500174
0.00500194
0.00500198
0.00500221
0.00500235
0.00500256
0.00500274
0.00500293
0.00500305
0.00500324
0.00500337
0.00500352
0.00500361
0.0050038
0.00500397
0.00500423
0.00500437
0.00500467
0.005005
0.00500529
0.00500565
0.00500593
0.00500625
0.00500645
0.00500672
0.00500716
0.00500768
0.00500786
0.00500828
0.00500853
0.00500878
0.00500897
0.00500934
0.0050096
0.00500999
0.00501023
0.0050106
0.00501082
0.00501116
0.00501145
0.00501175
0.00501203
0.00501252
0.00501278
0.00501327
0.00501344
0.00501402
0.0050145
0.00501479
0.00501518
0.00501569
0.00501609
0.0050164
0.00501682
0.00501703
0.00501715
0.00501735
0.00501774
0.00501821
0.00501856
0.00501909
0.00501941
0.00501988
0.00502026
0.00502081
0.00502124
0.00502174
0.00502291
0.00502264
0.00502629
0.00502291
0.00503382
0.00501731
0.00504229
0.00500201
0.00503827
0.00503646
0.00500963
0.00510752
0.0050242
0.00521325
0.00513412
0.00534882
0.00532101
0.00559731
0.00571907
0.00623462
0.00681012
0.00813535
0.00949539
0.00701327
0.00546435
0.00515328
0.00508259
0.00505857
0.00504841
0.0050434
0.00504063
0.00503895
0.00503782
0.0050364
0.0050363
0.0050364
0.0050364
0.0050363
0.0050364
0.0050363
0.0050364
0.0050366
0.0050377
0.00504
0.0050372
0.0050342
0.0050375
0.0050365
0.0050344
0.0050377
0.0050387
0.0050368
0.0050354
0.0050343
0.005035
0.0050355
0.0050349
0.0050358
0.0050365
0.0050369
0.0050364
0.0050357
0.0050361
0.0050365
0.0050371
0.0050373
0.0050367
0.0050361
0.0050358
0.0050362
0.0050365
0.0050362
0.0050362
0.0050367
0.0050362
0.0050363
0.0050368
0.0050366
0.0050363
0.0050364
0.0050364
0.0050361
0.0050359
0.00503589
0.00503649
0.00503649
0.00503629
0.00503639
0.00503639
0.00503631
0.00503663
0.00503694
0.00503848
0.00503616
0.00503762
0.0050337
0.00502707
0.00501573
0.0050118
0.00501116
0.0050166
0.00501839
0.00502534
0.00503128
0.00503984
0.00504283
0.00505211
0.00507948
0.00511976
0.00516466
0.00519623
0.00524814
0.00527245
0.00526241
0.00525497
0.00523011
0.00519138
0.00515298
0.00514026
0.00514663
0.00516102
0.00517277
0.00518405
0.00517914
0.00515713
0.00515821
0.00517451
0.00516625
0.00515345
0.00514723
0.00514888
0.00515611
0.00515844
0.00515307
0.00515516
0.00515219
0.00514414
0.00513849
0.00514298
0.00513667
0.00512015
0.00511593
0.00512847
0.0051353
0.00514363
0.0051287
0.005093
0.00506128
0.00505584
0.00504018
0.00502167
0.00498314
0.00496604
0.00500083
0.00504787
0.0051612
0.0051906
0.00518167
0.00514988
0.00512497
0.00511705
0.00510762
0.00509753
0.00508388
0.00507155
0.00505647
0.00504281
0.00502774
0.00501414
0.0050008
0.00500428
0.00503057
0.00503247
0.00504267
0.00507706
0.0050807
0.0050749
0.00506902
0.00506525
0.0050591
0.00505378
0.00504631
0.00504046
0.00503364
0.00502858
0.00502319
0.00501786
0.00501522
0.00500772
0.00500934
0.00500194
0.00499882
0.00503075
0.00502775
0.00506105
0.00505505
0.00508319
0.0050778
0.00511209
0.00512708
0.00519469
0.00524935
0.00531373
0.00517644
0.00506758
0.00505738
0.00504508
0.00504829
0.00503778
0.00503951
0.00502986
0.00503074
0.00502286
0.00502317
0.00501687
0.00501725
0.00501204
0.00501246
0.00500844
0.00500855
0.0050056
0.00500533
0.00500313
0.00500273
0.00500088
0.00499998
0.00500059
0.00500122
0.00500226
0.00500247
0.0050032
0.00500333
0.0050039
0.00500376
0.00500424
0.00500382
0.00500441
0.00500393
0.00500411
0.00500385
0.00500403
0.0050037
0.00500397
0.00500355
0.00500373
0.00500313
0.00500321
0.00500272
0.00500279
0.00500209
0.00500207
0.00500157
0.00500162
0.00500102
0.00500114
0.00500039
0.00500061
0.0050002
0.00500043
0.00499992
0.00500046
0.00499962
0.00500014
0.00499919
0.0049999
0.0049989
0.00499936
0.0049996
0.00499886
0.0050002
0.00499899
0.0050006
0.00499932
0.00500101
0.00499958
0.00500115
0.00499964
0.0050015
0.0049998
0.00500207
0.00500028
0.00500276
0.00500078
0.00500338
0.00500122
0.00500441
0.00500178
0.00500543
0.00500256
0.0050067
0.00500351
0.00500837
0.00500478
0.00500978
0.00500549
0.00501118
0.00500665
0.00501282
0.00500756
0.00501434
0.00500881
0.00501583
0.0050097
0.00501764
0.00501106
0.00501979
0.00501273
0.00502214
0.00501463
0.0050246
0.00501699
0.00502682
0.00501935
0.0050284
0.00502146
0.00502963
0.00502342
0.00503
0.00502484
0.00503048
0.00502623
0.00503132
0.00502758
0.00503191
0.0050288
0.00503252
0.00502996
0.00503316
0.00503105
0.00503364
0.00503175
0.00503402
0.00503242
0.00503425
0.00503306
0.00503455
0.00503336
0.00503461
0.00503358
0.00503461
0.00503372
0.00503441
0.00503342
0.00503386
0.00503291
0.00503319
0.00503225
0.00503219
0.00503108
0.00503108
0.00502999
0.00502978
0.00502892
0.00502854
0.00502754
0.00502703
0.00502629
0.00502576
0.00502507
0.00502462
0.00502379
0.00502324
0.00502246
0.0050219
0.00502107
0.00502042
0.00501963
0.00501879
0.00501792
0.00501709
0.00501607
0.00501517
0.0050142
0.00501322
0.00501208
0.0050109
0.00500967
0.00500848
0.00500727
0.00500598
0.00500468
0.00500339
0.00500181
0.00500008
0.0049993
0.00500136
0.00500291
0.00500428
0.00500555
0.00500662
0.0050074
0.00500839
0.00500927
0.00501015
0.00501094
0.00501163
0.00501222
0.00501292
0.00501351
0.00501401
0.00501461
0.0050151
0.00501551
0.00501571
0.00501622
0.00501642
0.00501642
0.00501663
0.00501673
0.00501672
0.00501662
0.00501661
0.0050163
0.00501628
0.00501617
0.00501575
0.00501553
0.0050153
0.0050148
0.00501447
0.00501406
0.00501394
0.00501354
0.00501311
0.00501282
0.0050125
0.00501223
0.00501192
0.00501146
0.00501117
0.00501081
0.00501051
0.00501025
0.00500986
0.00500959
0.00500908
0.00500891
0.00500851
0.00500824
0.00500783
0.00500757
0.00500706
0.00500677
0.00500616
0.00500588
0.00500569
0.00500532
0.00500474
0.00500458
0.0050043
0.00500384
0.00500355
0.00500308
0.005003
0.00500252
0.00500213
0.00500195
0.00500147
0.00500129
0.00500091
0.00500063
0.00500014
0.00500006
0.00499967
0.00499947
0.00499937
0.00499906
0.00499905
0.00499893
0.00499882
0.0049988
0.00499888
0.00499886
0.00499884
0.00499872
0.00499891
0.00499898
0.00499905
0.00499933
0.0049995
0.00499967
0.00499994
0.00500019
0.00500056
0.00500061
0.00500077
0.00500101
0.00500106
0.00500129
0.00500143
0.00500154
0.00500177
0.00500187
0.00500209
0.00500218
0.0050023
0.0050026
0.00500274
0.00500295
0.00500309
0.00500332
0.00500359
0.00500385
0.00500424
0.00500452
0.00500475
0.00500508
0.00500545
0.00500593
0.00500626
0.00500648
0.00500695
0.00500711
0.0050075
0.00500767
0.00500795
0.00500812
0.0050086