/*--------------------------------*- C++ -*----------------------------------*\
| =========                 |                                                 |
| \\      /  F ield         | foam-extend: Open Source CFD                    |
|  \\    /   O peration     | Version:     3.2                                |
|   \\  /    A nd           | Web:         http://www.foam-extend.org         |
|    \\/     M anipulation  | For copyright notice see file Copyright         |
\*---------------------------------------------------------------------------*/
FoamFile
{
    version     2.0;
    format      ascii;
    class       volScalarField;
    location    "200";
    object      k;
}
// * * * * * * * * * * * * * * * * * * * * * * * * * * * * * * * * * * * * * //

dimensions      [0 2 -2 0 0 0 0];

internalField   nonuniform List<scalar> 
2400
(
0.00364463
0.00446807
0.00379389
0.00318158
0.00285443
0.00270857
0.00265679
0.00265004
0.0026593
0.00267774
0.00270042
0.00272287
0.00274506
0.00276803
0.00279034
0.00281294
0.00283666
0.00286053
0.00288478
0.00290927
0.00293376
0.00295835
0.00298367
0.00300969
0.00303485
0.00305801
0.00307889
0.00309728
0.00311325
0.00312693
0.00313865
0.00314866
0.00315701
0.00316384
0.00316934
0.00317386
0.00317763
0.00318079
0.00318346
0.00318573
0.00318766
0.0031893
0.0031907
0.00319189
0.0031929
0.00319377
0.00319451
0.00319514
0.00319567
0.00319613
0.00319652
0.00319686
0.00319714
0.00319739
0.0031976
0.00319778
0.00319793
0.00319806
0.00319818
0.00319827
0.00319836
0.00319843
0.00319849
0.00319854
0.00319859
0.00319862
0.00319866
0.00319869
0.00319871
0.00319873
0.00319875
0.00319876
0.00319878
0.00319879
0.0031988
0.00319881
0.00319881
0.00319882
0.00319882
0.00319883
0.00319883
0.00319883
0.00319884
0.00319884
0.00319884
0.00319884
0.00319884
0.00319884
0.00319885
0.00319885
0.00319885
0.00319885
0.00319885
0.00319885
0.00319885
0.00319885
0.00319885
0.00319885
0.00319885
0.00319885
0.00319885
0.00319885
0.00319885
0.00319885
0.00319885
0.00319885
0.00319885
0.00319885
0.00319885
0.00319885
0.00319885
0.00319885
0.00319885
0.00319885
0.00319885
0.00319885
0.00319885
0.00319885
0.00319885
0.00319885
0.00319885
0.00319885
0.00319885
0.00319885
0.00319885
0.00319885
0.00319885
0.00319885
0.00319885
0.00319885
0.00319885
0.00319885
0.00319885
0.00319885
0.00319885
0.00319885
0.00319885
0.00319885
0.00319885
0.00319885
0.00319885
0.00319885
0.00319885
0.00319885
0.00319885
0.00319885
0.00319885
0.00319885
0.00319885
0.00319885
0.00319885
0.00319885
0.00319885
0.00319885
0.00319885
0.00319885
0.00319885
0.00319885
0.00319885
0.00319885
0.00319885
0.00319885
0.00319885
0.00319885
0.00319885
0.00319885
0.00319885
0.00319885
0.00319885
0.00319885
0.00319885
0.00319885
0.00319885
0.00319885
0.00319885
0.00319885
0.00319885
0.00319885
0.00319885
0.00319885
0.00319885
0.00319885
0.00319885
0.00319885
0.00319885
0.00319885
0.00319885
0.00319885
0.00319885
0.00319885
0.00319885
0.00319885
0.00319885
0.00319885
0.00319885
0.00319885
0.00319885
0.00319885
0.00319885
0.00319885
0.00319885
0.00319885
0.00319885
0.00319885
0.00319885
0.00319885
0.00319885
0.00319885
0.00319885
0.00319885
0.00319885
0.00319885
0.00319885
0.00319885
0.00319885
0.00319885
0.00319885
0.00319885
0.00319885
0.00319885
0.00319885
0.00319885
0.00319885
0.00319885
0.00319885
0.00319885
0.00319885
0.00319885
0.00319885
0.00319885
0.00319885
0.00319885
0.00319885
0.00319885
0.00319885
0.00319885
0.00319885
0.00319885
0.00319885
0.00319885
0.00319885
0.00319885
0.00319885
0.00319885
0.00319885
0.00319885
0.00319885
0.00319885
0.00319885
0.00319885
0.00319885
0.00319885
0.00319885
0.00319885
0.00319885
0.00319885
0.00319885
0.00319885
0.00319885
0.00319885
0.00319885
0.00319885
0.00319885
0.00319885
0.00319885
0.00319885
0.00319885
0.00319885
0.00319885
0.00319885
0.00319885
0.00319885
0.00319885
0.00319885
0.00319885
0.00319885
0.00319885
0.00319885
0.00319885
0.00319885
0.00319885
0.00319885
0.00319885
0.00319885
0.00319885
0.00319885
0.00319885
0.00319885
0.00319885
0.00319885
0.00319885
0.00319885
0.00319885
0.00319885
0.00319885
0.00319885
0.00319885
0.00319886
0.00319909
0.00319881
0.000819486
0.00130652
0.001718
0.00200333
0.00216394
0.00226359
0.00233108
0.00237846
0.00241415
0.00244334
0.00247004
0.00249446
0.00251829
0.00254163
0.00256611
0.00259003
0.00261419
0.0026387
0.00266368
0.00268872
0.00271371
0.00273775
0.00275981
0.00277941
0.00279647
0.00281098
0.00282309
0.00283307
0.0028412
0.00284777
0.00285309
0.00285738
0.00286085
0.0028636
0.00286578
0.00286751
0.00286893
0.00287012
0.00287112
0.00287196
0.00287268
0.00287329
0.00287381
0.00287424
0.00287462
0.00287493
0.0028752
0.00287543
0.00287563
0.00287579
0.00287594
0.00287606
0.00287616
0.00287625
0.00287633
0.0028764
0.00287645
0.0028765
0.00287655
0.00287658
0.00287661
0.00287664
0.00287666
0.00287668
0.0028767
0.00287671
0.00287673
0.00287674
0.00287675
0.00287675
0.00287676
0.00287677
0.00287677
0.00287678
0.00287678
0.00287678
0.00287679
0.00287679
0.00287679
0.00287679
0.00287679
0.00287679
0.00287679
0.0028768
0.0028768
0.0028768
0.0028768
0.0028768
0.0028768
0.0028768
0.0028768
0.0028768
0.0028768
0.0028768
0.0028768
0.0028768
0.0028768
0.0028768
0.0028768
0.0028768
0.0028768
0.0028768
0.0028768
0.0028768
0.0028768
0.0028768
0.0028768
0.0028768
0.0028768
0.0028768
0.0028768
0.0028768
0.0028768
0.0028768
0.0028768
0.0028768
0.0028768
0.0028768
0.0028768
0.0028768
0.0028768
0.0028768
0.0028768
0.0028768
0.0028768
0.0028768
0.0028768
0.0028768
0.0028768
0.0028768
0.0028768
0.0028768
0.0028768
0.0028768
0.0028768
0.0028768
0.0028768
0.0028768
0.0028768
0.0028768
0.0028768
0.0028768
0.0028768
0.0028768
0.0028768
0.0028768
0.0028768
0.0028768
0.0028768
0.0028768
0.0028768
0.0028768
0.0028768
0.0028768
0.0028768
0.0028768
0.0028768
0.0028768
0.0028768
0.0028768
0.0028768
0.0028768
0.0028768
0.0028768
0.0028768
0.0028768
0.0028768
0.0028768
0.0028768
0.0028768
0.0028768
0.0028768
0.0028768
0.0028768
0.0028768
0.0028768
0.0028768
0.0028768
0.0028768
0.0028768
0.0028768
0.0028768
0.0028768
0.0028768
0.0028768
0.0028768
0.0028768
0.0028768
0.0028768
0.0028768
0.0028768
0.0028768
0.0028768
0.0028768
0.0028768
0.0028768
0.0028768
0.0028768
0.0028768
0.0028768
0.0028768
0.0028768
0.0028768
0.0028768
0.0028768
0.0028768
0.0028768
0.0028768
0.0028768
0.0028768
0.0028768
0.0028768
0.0028768
0.0028768
0.0028768
0.0028768
0.0028768
0.0028768
0.0028768
0.0028768
0.0028768
0.0028768
0.0028768
0.0028768
0.0028768
0.0028768
0.0028768
0.0028768
0.0028768
0.0028768
0.0028768
0.0028768
0.0028768
0.0028768
0.0028768
0.0028768
0.0028768
0.0028768
0.0028768
0.0028768
0.0028768
0.0028768
0.0028768
0.0028768
0.0028768
0.0028768
0.0028768
0.0028768
0.0028768
0.0028768
0.0028768
0.0028768
0.0028768
0.0028768
0.0028768
0.0028768
0.0028768
0.0028768
0.0028768
0.0028768
0.0028768
0.0028768
0.0028768
0.0028768
0.0028768
0.0028768
0.0028768
0.0028768
0.0028768
0.0028768
0.0028768
0.0028768
0.0028768
0.0028768
0.0028768
0.0028768
0.0028768
0.0028768
0.0028768
0.0028768
0.0028768
0.0028768
0.0028768
0.0028768
0.0028768
0.0028768
0.0028768
0.0028768
0.0028768
0.0028768
0.0028768
0.0028768
0.0028768
0.0028768
0.0028768
0.0028768
0.0028768
0.00287679
0.0028767
0.00287674
0.000294727
0.000431064
0.00061594
0.000837976
0.00105845
0.00127386
0.00145143
0.00159213
0.0017064
0.00179982
0.00187517
0.00193681
0.00198913
0.00203538
0.00207593
0.00211206
0.0021459
0.00217721
0.00220717
0.00223529
0.00226164
0.00228525
0.00230497
0.0023205
0.00233231
0.00234092
0.00234685
0.00235067
0.00235287
0.0023539
0.0023541
0.00235374
0.00235301
0.00235209
0.00235113
0.00235021
0.00234937
0.00234863
0.00234798
0.0023474
0.0023469
0.00234645
0.00234607
0.00234574
0.00234545
0.0023452
0.00234498
0.0023448
0.00234464
0.00234451
0.00234439
0.00234429
0.00234421
0.00234414
0.00234408
0.00234403
0.00234399
0.00234395
0.00234392
0.0023439
0.00234387
0.00234385
0.00234384
0.00234382
0.00234381
0.0023438
0.0023438
0.00234379
0.00234378
0.00234378
0.00234377
0.00234377
0.00234377
0.00234376
0.00234376
0.00234376
0.00234376
0.00234375
0.00234375
0.00234375
0.00234375
0.00234375
0.00234375
0.00234375
0.00234375
0.00234375
0.00234375
0.00234375
0.00234375
0.00234375
0.00234374
0.00234374
0.00234374
0.00234374
0.00234374
0.00234374
0.00234374
0.00234374
0.00234374
0.00234374
0.00234374
0.00234374
0.00234374
0.00234374
0.00234374
0.00234374
0.00234374
0.00234374
0.00234374
0.00234374
0.00234374
0.00234374
0.00234374
0.00234374
0.00234374
0.00234374
0.00234374
0.00234374
0.00234374
0.00234374
0.00234374
0.00234374
0.00234374
0.00234374
0.00234374
0.00234374
0.00234374
0.00234374
0.00234374
0.00234374
0.00234374
0.00234374
0.00234374
0.00234374
0.00234374
0.00234374
0.00234374
0.00234374
0.00234374
0.00234374
0.00234374
0.00234374
0.00234374
0.00234374
0.00234374
0.00234374
0.00234374
0.00234374
0.00234374
0.00234374
0.00234374
0.00234374
0.00234374
0.00234374
0.00234374
0.00234374
0.00234374
0.00234374
0.00234374
0.00234374
0.00234374
0.00234374
0.00234374
0.00234374
0.00234374
0.00234374
0.00234374
0.00234374
0.00234374
0.00234374
0.00234374
0.00234374
0.00234374
0.00234374
0.00234374
0.00234374
0.00234374
0.00234374
0.00234374
0.00234374
0.00234374
0.00234374
0.00234374
0.00234374
0.00234374
0.00234374
0.00234374
0.00234374
0.00234374
0.00234374
0.00234374
0.00234374
0.00234374
0.00234374
0.00234374
0.00234374
0.00234374
0.00234374
0.00234374
0.00234374
0.00234374
0.00234374
0.00234374
0.00234374
0.00234374
0.00234374
0.00234374
0.00234374
0.00234374
0.00234374
0.00234374
0.00234374
0.00234374
0.00234374
0.00234374
0.00234374
0.00234374
0.00234374
0.00234374
0.00234374
0.00234374
0.00234374
0.00234374
0.00234374
0.00234374
0.00234374
0.00234374
0.00234374
0.00234374
0.00234374
0.00234374
0.00234374
0.00234374
0.00234374
0.00234374
0.00234374
0.00234374
0.00234374
0.00234374
0.00234374
0.00234374
0.00234374
0.00234374
0.00234374
0.00234374
0.00234374
0.00234374
0.00234374
0.00234374
0.00234374
0.00234374
0.00234374
0.00234374
0.00234374
0.00234374
0.00234374
0.00234374
0.00234374
0.00234374
0.00234374
0.00234374
0.00234374
0.00234374
0.00234374
0.00234374
0.00234374
0.00234374
0.00234374
0.00234374
0.00234374
0.00234374
0.00234374
0.00234374
0.00234374
0.00234374
0.00234374
0.00234374
0.00234374
0.00234374
0.00234374
0.00234374
0.00234374
0.00234374
0.00234374
0.00234374
0.00234374
0.00234374
0.00234374
0.00234374
0.00234374
0.00234374
0.00234374
0.00234374
0.00234374
0.00234374
0.00234374
0.00234374
0.00234373
0.00234372
0.00234372
0.000182644
0.000216437
0.00026748
0.000332876
0.000438252
0.000573665
0.000727803
0.00088861
0.00103814
0.00117194
0.0012894
0.00139174
0.00148057
0.00155842
0.00162482
0.00168146
0.00173099
0.00177454
0.00181312
0.00184682
0.00187607
0.00189959
0.00191812
0.00193189
0.00194127
0.00194695
0.00194969
0.00195027
0.00194931
0.00194742
0.00194492
0.00194209
0.00193916
0.00193631
0.00193373
0.00193146
0.00192948
0.00192775
0.00192626
0.00192496
0.00192384
0.00192287
0.00192203
0.00192131
0.00192069
0.00192015
0.0019197
0.0019193
0.00191897
0.00191869
0.00191844
0.00191824
0.00191806
0.00191791
0.00191778
0.00191768
0.00191758
0.00191751
0.00191744
0.00191738
0.00191733
0.00191729
0.00191726
0.00191723
0.0019172
0.00191718
0.00191716
0.00191715
0.00191714
0.00191712
0.00191711
0.00191711
0.0019171
0.00191709
0.00191709
0.00191708
0.00191708
0.00191707
0.00191707
0.00191707
0.00191707
0.00191706
0.00191706
0.00191706
0.00191706
0.00191706
0.00191706
0.00191706
0.00191706
0.00191706
0.00191706
0.00191705
0.00191705
0.00191705
0.00191705
0.00191705
0.00191705
0.00191705
0.00191705
0.00191705
0.00191705
0.00191705
0.00191705
0.00191705
0.00191705
0.00191705
0.00191705
0.00191705
0.00191705
0.00191705
0.00191705
0.00191705
0.00191705
0.00191705
0.00191705
0.00191705
0.00191705
0.00191705
0.00191705
0.00191705
0.00191705
0.00191705
0.00191705
0.00191705
0.00191705
0.00191705
0.00191705
0.00191705
0.00191705
0.00191705
0.00191705
0.00191705
0.00191705
0.00191705
0.00191705
0.00191705
0.00191705
0.00191705
0.00191705
0.00191705
0.00191705
0.00191705
0.00191705
0.00191705
0.00191705
0.00191705
0.00191705
0.00191705
0.00191705
0.00191705
0.00191705
0.00191705
0.00191705
0.00191705
0.00191705
0.00191705
0.00191705
0.00191705
0.00191705
0.00191705
0.00191705
0.00191705
0.00191705
0.00191705
0.00191705
0.00191705
0.00191705
0.00191705
0.00191705
0.00191705
0.00191705
0.00191705
0.00191705
0.00191705
0.00191705
0.00191705
0.00191705
0.00191705
0.00191705
0.00191705
0.00191705
0.00191705
0.00191705
0.00191705
0.00191705
0.00191705
0.00191705
0.00191705
0.00191705
0.00191705
0.00191705
0.00191705
0.00191705
0.00191705
0.00191705
0.00191705
0.00191705
0.00191705
0.00191705
0.00191705
0.00191705
0.00191705
0.00191705
0.00191705
0.00191705
0.00191705
0.00191705
0.00191705
0.00191705
0.00191705
0.00191705
0.00191705
0.00191705
0.00191705
0.00191705
0.00191705
0.00191705
0.00191705
0.00191705
0.00191705
0.00191705
0.00191705
0.00191705
0.00191705
0.00191705
0.00191705
0.00191705
0.00191705
0.00191705
0.00191705
0.00191705
0.00191705
0.00191705
0.00191705
0.00191705
0.00191705
0.00191705
0.00191705
0.00191705
0.00191705
0.00191705
0.00191705
0.00191705
0.00191705
0.00191705
0.00191705
0.00191705
0.00191705
0.00191705
0.00191705
0.00191705
0.00191705
0.00191705
0.00191705
0.00191705
0.00191705
0.00191705
0.00191705
0.00191705
0.00191705
0.00191705
0.00191705
0.00191705
0.00191705
0.00191705
0.00191705
0.00191705
0.00191705
0.00191705
0.00191705
0.00191705
0.00191705
0.00191705
0.00191705
0.00191705
0.00191705
0.00191705
0.00191705
0.00191705
0.00191705
0.00191705
0.00191705
0.00191705
0.00191705
0.00191705
0.00191705
0.00191705
0.00191705
0.00191705
0.00191705
0.00191705
0.00191705
0.00191705
0.00191705
0.00191705
0.00191705
0.00191705
0.00191704
0.00191704
0.00191704
0.000160967
0.000169414
0.000179656
0.000193163
0.000218497
0.000257608
0.000325673
0.000417714
0.00052603
0.000644299
0.000761989
0.000875744
0.000981869
0.00107943
0.00116817
0.00124682
0.00131568
0.00137557
0.00142692
0.00147042
0.00150663
0.00153662
0.00155972
0.00157618
0.00158728
0.00159413
0.00159774
0.00159908
0.00159885
0.00159764
0.00159579
0.00159354
0.00159114
0.00158881
0.00158673
0.00158491
0.00158333
0.00158195
0.00158075
0.00157971
0.0015788
0.00157801
0.00157733
0.00157675
0.00157624
0.00157581
0.00157544
0.00157513
0.00157486
0.00157463
0.00157444
0.00157427
0.00157414
0.00157402
0.00157392
0.00157383
0.00157376
0.0015737
0.00157365
0.0015736
0.00157357
0.00157354
0.00157351
0.00157349
0.00157347
0.00157345
0.00157344
0.00157343
0.00157342
0.00157341
0.0015734
0.00157339
0.00157339
0.00157338
0.00157338
0.00157338
0.00157337
0.00157337
0.00157337
0.00157337
0.00157336
0.00157336
0.00157336
0.00157336
0.00157336
0.00157336
0.00157336
0.00157336
0.00157336
0.00157336
0.00157336
0.00157335
0.00157335
0.00157335
0.00157335
0.00157335
0.00157335
0.00157335
0.00157335
0.00157335
0.00157335
0.00157335
0.00157335
0.00157335
0.00157335
0.00157335
0.00157335
0.00157335
0.00157335
0.00157335
0.00157335
0.00157335
0.00157335
0.00157335
0.00157335
0.00157335
0.00157335
0.00157335
0.00157335
0.00157335
0.00157335
0.00157335
0.00157335
0.00157335
0.00157335
0.00157335
0.00157335
0.00157335
0.00157335
0.00157335
0.00157335
0.00157335
0.00157335
0.00157335
0.00157335
0.00157335
0.00157335
0.00157335
0.00157335
0.00157335
0.00157335
0.00157335
0.00157335
0.00157335
0.00157335
0.00157335
0.00157335
0.00157335
0.00157335
0.00157335
0.00157335
0.00157335
0.00157335
0.00157335
0.00157335
0.00157335
0.00157335
0.00157335
0.00157335
0.00157335
0.00157335
0.00157335
0.00157335
0.00157335
0.00157335
0.00157335
0.00157335
0.00157335
0.00157335
0.00157335
0.00157335
0.00157335
0.00157335
0.00157335
0.00157335
0.00157335
0.00157335
0.00157335
0.00157335
0.00157335
0.00157335
0.00157335
0.00157335
0.00157335
0.00157335
0.00157335
0.00157335
0.00157335
0.00157335
0.00157335
0.00157335
0.00157335
0.00157335
0.00157335
0.00157335
0.00157335
0.00157335
0.00157335
0.00157335
0.00157335
0.00157335
0.00157335
0.00157335
0.00157335
0.00157335
0.00157335
0.00157335
0.00157335
0.00157335
0.00157335
0.00157335
0.00157335
0.00157335
0.00157335
0.00157335
0.00157335
0.00157335
0.00157335
0.00157335
0.00157335
0.00157335
0.00157335
0.00157335
0.00157335
0.00157335
0.00157335
0.00157335
0.00157335
0.00157335
0.00157335
0.00157335
0.00157335
0.00157335
0.00157335
0.00157335
0.00157335
0.00157335
0.00157335
0.00157335
0.00157335
0.00157335
0.00157335
0.00157335
0.00157335
0.00157335
0.00157335
0.00157335
0.00157335
0.00157335
0.00157335
0.00157335
0.00157335
0.00157335
0.00157335
0.00157335
0.00157335
0.00157335
0.00157335
0.00157335
0.00157335
0.00157335
0.00157335
0.00157335
0.00157335
0.00157335
0.00157335
0.00157335
0.00157335
0.00157335
0.00157335
0.00157335
0.00157335
0.00157335
0.00157335
0.00157335
0.00157335
0.00157335
0.00157335
0.00157335
0.00157335
0.00157335
0.00157335
0.00157335
0.00157335
0.00157335
0.00157335
0.00157335
0.00157335
0.00157335
0.00157335
0.00157335
0.00157335
0.00157335
0.00157335
0.00157335
0.00157335
0.00157335
0.00157334
0.00157335
0.00157335
0.000155625
0.000160057
0.00016244
0.000164371
0.000167973
0.000174911
0.000190207
0.000215616
0.0002578
0.000317791
0.000391863
0.00047639
0.000567051
0.000657981
0.000745989
0.000830022
0.000907799
0.000977895
0.00104006
0.00109485
0.00114294
0.00118325
0.00121591
0.00124093
0.00125971
0.00127357
0.0012837
0.00129107
0.00129639
0.00130021
0.00130281
0.00130449
0.00130553
0.00130622
0.00130676
0.00130717
0.00130748
0.0013077
0.00130787
0.00130799
0.00130807
0.00130814
0.00130818
0.00130822
0.00130825
0.00130827
0.00130829
0.00130831
0.00130832
0.00130834
0.00130835
0.00130836
0.00130838
0.00130839
0.0013084
0.00130841
0.00130842
0.00130843
0.00130844
0.00130845
0.00130845
0.00130846
0.00130847
0.00130847
0.00130848
0.00130848
0.00130848
0.00130849
0.00130849
0.00130849
0.00130849
0.0013085
0.0013085
0.0013085
0.0013085
0.0013085
0.0013085
0.0013085
0.0013085
0.0013085
0.0013085
0.0013085
0.0013085
0.0013085
0.0013085
0.0013085
0.0013085
0.0013085
0.0013085
0.0013085
0.0013085
0.0013085
0.0013085
0.0013085
0.0013085
0.0013085
0.0013085
0.0013085
0.0013085
0.0013085
0.0013085
0.0013085
0.0013085
0.0013085
0.0013085
0.0013085
0.0013085
0.0013085
0.0013085
0.0013085
0.0013085
0.0013085
0.0013085
0.0013085
0.0013085
0.0013085
0.0013085
0.0013085
0.0013085
0.0013085
0.0013085
0.0013085
0.0013085
0.0013085
0.0013085
0.0013085
0.0013085
0.0013085
0.0013085
0.0013085
0.0013085
0.0013085
0.0013085
0.0013085
0.0013085
0.0013085
0.0013085
0.0013085
0.0013085
0.0013085
0.0013085
0.0013085
0.0013085
0.0013085
0.0013085
0.0013085
0.0013085
0.0013085
0.0013085
0.0013085
0.0013085
0.0013085
0.0013085
0.0013085
0.0013085
0.0013085
0.0013085
0.0013085
0.0013085
0.0013085
0.0013085
0.0013085
0.0013085
0.0013085
0.0013085
0.0013085
0.0013085
0.0013085
0.0013085
0.0013085
0.0013085
0.0013085
0.0013085
0.0013085
0.0013085
0.0013085
0.0013085
0.0013085
0.0013085
0.0013085
0.0013085
0.0013085
0.0013085
0.0013085
0.0013085
0.0013085
0.0013085
0.0013085
0.0013085
0.0013085
0.0013085
0.0013085
0.0013085
0.0013085
0.0013085
0.0013085
0.0013085
0.0013085
0.0013085
0.0013085
0.0013085
0.0013085
0.0013085
0.0013085
0.0013085
0.0013085
0.0013085
0.0013085
0.0013085
0.0013085
0.0013085
0.0013085
0.0013085
0.0013085
0.0013085
0.0013085
0.0013085
0.0013085
0.0013085
0.0013085
0.0013085
0.0013085
0.0013085
0.0013085
0.0013085
0.0013085
0.0013085
0.0013085
0.0013085
0.0013085
0.0013085
0.0013085
0.0013085
0.0013085
0.0013085
0.0013085
0.0013085
0.0013085
0.0013085
0.0013085
0.0013085
0.0013085
0.0013085
0.0013085
0.0013085
0.0013085
0.0013085
0.0013085
0.0013085
0.0013085
0.0013085
0.0013085
0.0013085
0.0013085
0.0013085
0.0013085
0.0013085
0.0013085
0.0013085
0.0013085
0.0013085
0.0013085
0.0013085
0.0013085
0.0013085
0.0013085
0.0013085
0.0013085
0.0013085
0.0013085
0.0013085
0.0013085
0.0013085
0.0013085
0.0013085
0.0013085
0.0013085
0.0013085
0.0013085
0.0013085
0.0013085
0.0013085
0.0013085
0.0013085
0.0013085
0.0013085
0.0013085
0.0013085
0.0013085
0.0013085
0.0013085
0.0013085
0.0013085
0.0013085
0.0013085
0.0013085
0.0013085
0.0013085
0.0013085
0.0013085
0.000153847
0.000157521
0.000159313
0.000159305
0.000158775
0.000158604
0.000160288
0.000164661
0.000174054
0.000190712
0.000215772
0.000252919
0.000302188
0.000360883
0.000426574
0.000495488
0.00056485
0.000632666
0.000697281
0.000758116
0.000815366
0.000866828
0.000911649
0.000949438
0.000981108
0.00100748
0.00102924
0.00104707
0.0010616
0.00107339
0.00108285
0.00109041
0.00109648
0.00110143
0.00110554
0.00110896
0.0011118
0.00111417
0.00111615
0.00111781
0.00111921
0.00112039
0.00112139
0.00112223
0.00112295
0.00112357
0.00112409
0.00112453
0.00112492
0.00112524
0.00112552
0.00112577
0.00112597
0.00112615
0.00112631
0.00112644
0.00112655
0.00112665
0.00112674
0.00112681
0.00112687
0.00112693
0.00112698
0.00112702
0.00112705
0.00112708
0.00112711
0.00112713
0.00112715
0.00112717
0.00112718
0.00112719
0.0011272
0.00112721
0.00112722
0.00112722
0.00112723
0.00112723
0.00112724
0.00112724
0.00112724
0.00112725
0.00112725
0.00112725
0.00112725
0.00112725
0.00112725
0.00112725
0.00112725
0.00112726
0.00112726
0.00112726
0.00112726
0.00112726
0.00112726
0.00112726
0.00112726
0.00112726
0.00112726
0.00112726
0.00112726
0.00112726
0.00112726
0.00112726
0.00112726
0.00112726
0.00112726
0.00112726
0.00112726
0.00112726
0.00112726
0.00112726
0.00112726
0.00112726
0.00112726
0.00112726
0.00112726
0.00112726
0.00112726
0.00112726
0.00112726
0.00112726
0.00112726
0.00112726
0.00112726
0.00112726
0.00112726
0.00112726
0.00112726
0.00112726
0.00112726
0.00112726
0.00112726
0.00112726
0.00112726
0.00112726
0.00112726
0.00112726
0.00112726
0.00112726
0.00112726
0.00112726
0.00112726
0.00112726
0.00112726
0.00112726
0.00112726
0.00112726
0.00112726
0.00112726
0.00112726
0.00112726
0.00112726
0.00112726
0.00112726
0.00112726
0.00112726
0.00112726
0.00112726
0.00112726
0.00112726
0.00112726
0.00112726
0.00112726
0.00112726
0.00112726
0.00112726
0.00112726
0.00112726
0.00112726
0.00112726
0.00112726
0.00112726
0.00112726
0.00112726
0.00112726
0.00112726
0.00112726
0.00112726
0.00112726
0.00112726
0.00112726
0.00112726
0.00112726
0.00112726
0.00112726
0.00112726
0.00112726
0.00112726
0.00112726
0.00112726
0.00112726
0.00112726
0.00112726
0.00112726
0.00112726
0.00112726
0.00112726
0.00112726
0.00112726
0.00112726
0.00112726
0.00112726
0.00112726
0.00112725
0.00112725
0.00112725
0.00112725
0.00112725
0.00112725
0.00112725
0.00112725
0.00112725
0.00112725
0.00112725
0.00112725
0.00112725
0.00112725
0.00112725
0.00112725
0.00112725
0.00112725
0.00112725
0.00112725
0.00112725
0.00112725
0.00112725
0.00112725
0.00112725
0.00112725
0.00112725
0.00112725
0.00112725
0.00112725
0.00112725
0.00112725
0.00112725
0.00112725
0.00112725
0.00112725
0.00112725
0.00112725
0.00112725
0.00112725
0.00112725
0.00112725
0.00112725
0.00112725
0.00112725
0.00112725
0.00112725
0.00112725
0.00112725
0.00112725
0.00112725
0.00112725
0.00112725
0.00112725
0.00112725
0.00112725
0.00112725
0.00112725
0.00112725
0.00112725
0.00112725
0.00112725
0.00112725
0.00112725
0.00112725
0.00112725
0.00112725
0.00112725
0.00112725
0.00112725
0.00112725
0.00112725
0.00112725
0.00112725
0.00112725
0.00112725
0.00112725
0.00112725
0.00112725
0.00112725
0.00112725
0.00112725
0.00112725
0.00112725
0.00112725
0.00112725
0.00112725
0.00112725
0.00112725
0.00112725
0.00112725
0.00112725
0.00112725
0.00112725
0.00112725
0.00112725
0.000153377
0.000156737
0.00015858
0.000158474
0.000157233
0.000155685
0.000154466
0.000153985
0.000155061
0.000158751
0.000166213
0.000178956
0.000198808
0.000226927
0.000261486
0.000303951
0.00035398
0.000409897
0.000470217
0.000533084
0.000596008
0.000656708
0.000713497
0.000765015
0.000809592
0.000847769
0.000879894
0.000906589
0.000928632
0.000946696
0.000961544
0.000973603
0.000983383
0.000991368
0.00099799
0.00100355
0.0010082
0.00101211
0.00101539
0.00101816
0.0010205
0.00102247
0.00102415
0.00102557
0.00102678
0.00102781
0.00102869
0.00102944
0.00103008
0.00103063
0.0010311
0.0010315
0.00103185
0.00103214
0.0010324
0.00103262
0.0010328
0.00103297
0.00103311
0.00103322
0.00103333
0.00103342
0.00103349
0.00103356
0.00103361
0.00103366
0.0010337
0.00103374
0.00103377
0.0010338
0.00103382
0.00103384
0.00103386
0.00103387
0.00103388
0.00103389
0.0010339
0.00103391
0.00103391
0.00103392
0.00103392
0.00103393
0.00103393
0.00103393
0.00103394
0.00103394
0.00103394
0.00103394
0.00103394
0.00103394
0.00103394
0.00103394
0.00103395
0.00103395
0.00103395
0.00103395
0.00103395
0.00103395
0.00103395
0.00103395
0.00103395
0.00103395
0.00103395
0.00103395
0.00103395
0.00103395
0.00103395
0.00103395
0.00103395
0.00103395
0.00103395
0.00103395
0.00103395
0.00103395
0.00103395
0.00103395
0.00103395
0.00103395
0.00103395
0.00103395
0.00103395
0.00103395
0.00103395
0.00103395
0.00103395
0.00103395
0.00103395
0.00103395
0.00103395
0.00103395
0.00103395
0.00103395
0.00103395
0.00103395
0.00103395
0.00103395
0.00103395
0.00103395
0.00103395
0.00103395
0.00103395
0.00103395
0.00103395
0.00103395
0.00103395
0.00103395
0.00103395
0.00103395
0.00103395
0.00103395
0.00103395
0.00103395
0.00103395
0.00103395
0.00103395
0.00103395
0.00103395
0.00103395
0.00103395
0.00103395
0.00103395
0.00103395
0.00103395
0.00103395
0.00103395
0.00103395
0.00103395
0.00103395
0.00103395
0.00103395
0.00103395
0.00103395
0.00103395
0.00103395
0.00103395
0.00103395
0.00103395
0.00103395
0.00103395
0.00103395
0.00103395
0.00103395
0.00103395
0.00103395
0.00103395
0.00103395
0.00103395
0.00103395
0.00103395
0.00103395
0.00103395
0.00103395
0.00103395
0.00103395
0.00103395
0.00103395
0.00103395
0.00103395
0.00103395
0.00103395
0.00103395
0.00103395
0.00103395
0.00103395
0.00103395
0.00103395
0.00103395
0.00103395
0.00103395
0.00103395
0.00103395
0.00103394
0.00103394
0.00103394
0.00103394
0.00103394
0.00103394
0.00103394
0.00103394
0.00103394
0.00103394
0.00103394
0.00103394
0.00103394
0.00103394
0.00103394
0.00103394
0.00103394
0.00103394
0.00103394
0.00103394
0.00103394
0.00103394
0.00103394
0.00103394
0.00103394
0.00103394
0.00103394
0.00103394
0.00103394
0.00103394
0.00103394
0.00103394
0.00103394
0.00103394
0.00103394
0.00103394
0.00103394
0.00103394
0.00103394
0.00103394
0.00103394
0.00103394
0.00103394
0.00103394
0.00103394
0.00103394
0.00103394
0.00103394
0.00103394
0.00103394
0.00103394
0.00103394
0.00103394
0.00103394
0.00103394
0.00103394
0.00103394
0.00103394
0.00103394
0.00103394
0.00103394
0.00103394
0.00103394
0.00103394
0.00103394
0.00103394
0.00103394
0.00103394
0.00103394
0.00103394
0.00103394
0.00103394
0.00103394
0.00103394
0.00103394
0.00103394
0.00103394
0.00103394
0.00103394
0.00103394
0.00103394
0.00103394
0.00103394
0.00103394
0.00103394
0.00103394
0.00103394
0.00103394
0.00103394
)
;

boundaryField
{
    inlet
    {
        type            fixedValue;
        value           uniform 0.00014968;
    }
    outlet
    {
        type            zeroGradient;
    }
    sideWall
    {
        type            empty;
    }
    bed
    {
        type            kqRWallFunction;
        value           nonuniform List<scalar> 
300
(
0.00364463
0.00446807
0.00379389
0.00318158
0.00285443
0.00270857
0.00265679
0.00265004
0.0026593
0.00267774
0.00270042
0.00272287
0.00274506
0.00276803
0.00279034
0.00281294
0.00283666
0.00286053
0.00288478
0.00290927
0.00293376
0.00295835
0.00298367
0.00300969
0.00303485
0.00305801
0.00307889
0.00309728
0.00311325
0.00312693
0.00313865
0.00314866
0.00315701
0.00316384
0.00316934
0.00317386
0.00317763
0.00318079
0.00318346
0.00318573
0.00318766
0.0031893
0.0031907
0.00319189
0.0031929
0.00319377
0.00319451
0.00319514
0.00319567
0.00319613
0.00319652
0.00319686
0.00319714
0.00319739
0.0031976
0.00319778
0.00319793
0.00319806
0.00319818
0.00319827
0.00319836
0.00319843
0.00319849
0.00319854
0.00319859
0.00319862
0.00319866
0.00319869
0.00319871
0.00319873
0.00319875
0.00319876
0.00319878
0.00319879
0.0031988
0.00319881
0.00319881
0.00319882
0.00319882
0.00319883
0.00319883
0.00319883
0.00319884
0.00319884
0.00319884
0.00319884
0.00319884
0.00319884
0.00319885
0.00319885
0.00319885
0.00319885
0.00319885
0.00319885
0.00319885
0.00319885
0.00319885
0.00319885
0.00319885
0.00319885
0.00319885
0.00319885
0.00319885
0.00319885
0.00319885
0.00319885
0.00319885
0.00319885
0.00319885
0.00319885
0.00319885
0.00319885
0.00319885
0.00319885
0.00319885
0.00319885
0.00319885
0.00319885
0.00319885
0.00319885
0.00319885
0.00319885
0.00319885
0.00319885
0.00319885
0.00319885
0.00319885
0.00319885
0.00319885
0.00319885
0.00319885
0.00319885
0.00319885
0.00319885
0.00319885
0.00319885
0.00319885
0.00319885
0.00319885
0.00319885
0.00319885
0.00319885
0.00319885
0.00319885
0.00319885
0.00319885
0.00319885
0.00319885
0.00319885
0.00319885
0.00319885
0.00319885
0.00319885
0.00319885
0.00319885
0.00319885
0.00319885
0.00319885
0.00319885
0.00319885
0.00319885
0.00319885
0.00319885
0.00319885
0.00319885
0.00319885
0.00319885
0.00319885
0.00319885
0.00319885
0.00319885
0.00319885
0.00319885
0.00319885
0.00319885
0.00319885
0.00319885
0.00319885
0.00319885
0.00319885
0.00319885
0.00319885
0.00319885
0.00319885
0.00319885
0.00319885
0.00319885
0.00319885
0.00319885
0.00319885
0.00319885
0.00319885
0.00319885
0.00319885
0.00319885
0.00319885
0.00319885
0.00319885
0.00319885
0.00319885
0.00319885
0.00319885
0.00319885
0.00319885
0.00319885
0.00319885
0.00319885
0.00319885
0.00319885
0.00319885
0.00319885
0.00319885
0.00319885
0.00319885
0.00319885
0.00319885
0.00319885
0.00319885
0.00319885
0.00319885
0.00319885
0.00319885
0.00319885
0.00319885
0.00319885
0.00319885
0.00319885
0.00319885
0.00319885
0.00319885
0.00319885
0.00319885
0.00319885
0.00319885
0.00319885
0.00319885
0.00319885
0.00319885
0.00319885
0.00319885
0.00319885
0.00319885
0.00319885
0.00319885
0.00319885
0.00319885
0.00319885
0.00319885
0.00319885
0.00319885
0.00319885
0.00319885
0.00319885
0.00319885