/*--------------------------------*- C++ -*----------------------------------*\
| =========                 |                                                 |
| \\      /  F ield         | foam-extend: Open Source CFD                    |
|  \\    /   O peration     | Version:     3.2                                |
|   \\  /    A nd           | Web:         http://www.foam-extend.org         |
|    \\/     M anipulation  | For copyright notice see file Copyright         |
\*---------------------------------------------------------------------------*/
FoamFile
{
    version     2.0;
    format      ascii;
    class       volScalarField;
    location    "200";
    object      omega;
}
// * * * * * * * * * * * * * * * * * * * * * * * * * * * * * * * * * * * * * //

dimensions      [0 0 -1 0 0 0 0];

internalField   nonuniform List<scalar> 
2400
(
145.174
160.375
148.045
135.881
128.912
125.681
124.513
124.36
124.57
124.987
125.497
126.001
126.497
127.008
127.502
128.001
128.523
129.045
129.574
130.106
130.636
131.166
131.709
132.265
132.801
133.291
133.733
134.12
134.455
134.742
134.987
135.196
135.37
135.512
135.627
135.72
135.799
135.865
135.92
135.967
136.007
136.041
136.07
136.095
136.116
136.134
136.149
136.162
136.173
136.183
136.191
136.198
136.204
136.209
136.213
136.217
136.22
136.223
136.225
136.227
136.229
136.23
136.231
136.232
136.233
136.234
136.235
136.235
136.236
136.236
136.237
136.237
136.237
136.238
136.238
136.238
136.238
136.238
136.238
136.238
136.238
136.239
136.239
136.239
136.239
136.239
136.239
136.239
136.239
136.239
136.239
136.239
136.239
136.239
136.239
136.239
136.239
136.239
136.239
136.239
136.239
136.239
136.239
136.239
136.239
136.239
136.239
136.239
136.239
136.239
136.239
136.239
136.239
136.239
136.239
136.239
136.239
136.239
136.239
136.239
136.239
136.239
136.239
136.239
136.239
136.239
136.239
136.239
136.239
136.239
136.239
136.239
136.239
136.239
136.239
136.239
136.239
136.239
136.239
136.239
136.239
136.239
136.239
136.239
136.239
136.239
136.239
136.239
136.239
136.239
136.239
136.239
136.239
136.239
136.239
136.239
136.239
136.239
136.239
136.239
136.239
136.239
136.239
136.239
136.239
136.239
136.239
136.239
136.239
136.239
136.239
136.239
136.239
136.239
136.239
136.239
136.239
136.239
136.239
136.239
136.239
136.239
136.239
136.239
136.239
136.239
136.239
136.239
136.239
136.239
136.239
136.239
136.239
136.239
136.239
136.239
136.239
136.239
136.239
136.239
136.239
136.239
136.239
136.239
136.239
136.239
136.239
136.239
136.239
136.239
136.239
136.239
136.239
136.239
136.239
136.239
136.239
136.239
136.239
136.239
136.239
136.239
136.239
136.239
136.239
136.239
136.239
136.239
136.239
136.239
136.239
136.239
136.239
136.239
136.239
136.239
136.239
136.239
136.239
136.239
136.239
136.239
136.239
136.239
136.239
136.239
136.239
136.239
136.239
136.239
136.239
136.239
136.239
136.239
136.239
136.239
136.239
136.239
136.239
136.239
136.239
136.239
136.239
136.239
136.239
136.239
136.239
136.239
136.239
136.239
136.239
136.239
136.239
136.239
136.239
136.239
136.239
136.239
136.239
136.239
136.239
136.239
136.239
136.239
136.239
136.239
136.239
136.239
136.239
136.239
136.239
136.239
136.239
136.239
136.239
136.239
136.239
136.239
136.244
136.238
48.1028
65.7684
64.3241
62.7883
61.1175
59.5113
58.0553
56.8035
55.7993
55.009
54.417
53.9613
53.6247
53.3795
53.2403
53.1559
53.124
53.1373
53.1874
53.2646
53.3644
53.4741
53.5834
53.6911
53.7972
53.8977
53.9904
54.0744
54.1494
54.2153
54.2729
54.3235
54.3678
54.4057
54.4373
54.4633
54.4853
54.5039
54.5198
54.5334
54.545
54.5549
54.5633
54.5705
54.5767
54.5819
54.5864
54.5903
54.5935
54.5963
54.5987
54.6007
54.6025
54.604
54.6052
54.6063
54.6072
54.608
54.6087
54.6093
54.6098
54.6102
54.6106
54.6109
54.6112
54.6114
54.6116
54.6117
54.6119
54.612
54.6121
54.6122
54.6123
54.6124
54.6124
54.6125
54.6125
54.6125
54.6126
54.6126
54.6126
54.6126
54.6126
54.6127
54.6127
54.6127
54.6127
54.6127
54.6127
54.6127
54.6127
54.6127
54.6127
54.6127
54.6127
54.6127
54.6127
54.6127
54.6127
54.6128
54.6128
54.6128
54.6128
54.6128
54.6128
54.6128
54.6128
54.6128
54.6128
54.6128
54.6128
54.6128
54.6128
54.6128
54.6128
54.6128
54.6128
54.6128
54.6128
54.6128
54.6128
54.6128
54.6128
54.6128
54.6128
54.6128
54.6128
54.6128
54.6128
54.6128
54.6128
54.6128
54.6128
54.6128
54.6128
54.6128
54.6128
54.6128
54.6128
54.6128
54.6128
54.6128
54.6128
54.6128
54.6128
54.6128
54.6128
54.6128
54.6128
54.6128
54.6128
54.6128
54.6128
54.6128
54.6128
54.6128
54.6128
54.6128
54.6128
54.6128
54.6128
54.6128
54.6128
54.6128
54.6128
54.6128
54.6128
54.6128
54.6128
54.6128
54.6128
54.6128
54.6128
54.6128
54.6128
54.6128
54.6128
54.6128
54.6128
54.6128
54.6128
54.6128
54.6128
54.6128
54.6128
54.6128
54.6128
54.6128
54.6128
54.6128
54.6128
54.6128
54.6128
54.6128
54.6128
54.6128
54.6128
54.6128
54.6128
54.6128
54.6128
54.6128
54.6128
54.6128
54.6128
54.6128
54.6128
54.6128
54.6128
54.6128
54.6128
54.6128
54.6128
54.6128
54.6128
54.6128
54.6128
54.6128
54.6128
54.6128
54.6128
54.6128
54.6128
54.6128
54.6128
54.6128
54.6128
54.6128
54.6128
54.6128
54.6128
54.6128
54.6128
54.6128
54.6128
54.6128
54.6128
54.6128
54.6128
54.6128
54.6128
54.6128
54.6128
54.6128
54.6128
54.6128
54.6128
54.6128
54.6128
54.6128
54.6128
54.6128
54.6128
54.6128
54.6128
54.6128
54.6128
54.6128
54.6128
54.6128
54.6128
54.6128
54.6128
54.6128
54.6128
54.6128
54.6128
54.6128
54.6128
54.6128
54.6128
54.6128
54.6128
54.6128
54.6128
54.6128
54.6128
54.6128
54.6128
54.6128
54.6128
54.6128
54.6128
54.6128
54.6128
54.6128
54.6128
54.6128
54.6128
54.6128
54.6128
54.6128
54.6128
54.6128
54.6128
54.6128
54.6127
54.6126
54.6113
54.614
16.2758
27.6662
33.1366
36.0469
36.9019
36.4167
35.5367
34.8733
34.3744
33.9687
33.5748
33.1869
32.8378
32.5452
32.3094
32.1149
31.9636
31.8416
31.7518
31.6829
31.631
31.588
31.5428
31.4932
31.4433
31.394
31.3456
31.2992
31.2549
31.2135
31.1749
31.1399
31.1087
31.0811
31.0568
31.0354
31.0168
31.0006
30.9865
30.9744
30.9639
30.9549
30.9471
30.9404
30.9347
30.9297
30.9255
30.9218
30.9187
30.9161
30.9138
30.9118
30.9101
30.9087
30.9075
30.9064
30.9055
30.9047
30.9041
30.9035
30.903
30.9026
30.9023
30.902
30.9017
30.9015
30.9013
30.9011
30.901
30.9008
30.9007
30.9007
30.9006
30.9005
30.9005
30.9004
30.9004
30.9003
30.9003
30.9003
30.9003
30.9002
30.9002
30.9002
30.9002
30.9002
30.9002
30.9002
30.9002
30.9002
30.9002
30.9001
30.9001
30.9001
30.9001
30.9001
30.9001
30.9001
30.9001
30.9001
30.9001
30.9001
30.9001
30.9001
30.9001
30.9001
30.9001
30.9001
30.9001
30.9001
30.9001
30.9001
30.9001
30.9001
30.9001
30.9001
30.9001
30.9001
30.9001
30.9001
30.9001
30.9001
30.9001
30.9001
30.9001
30.9001
30.9001
30.9001
30.9001
30.9001
30.9001
30.9001
30.9001
30.9001
30.9001
30.9001
30.9001
30.9001
30.9001
30.9001
30.9001
30.9001
30.9001
30.9001
30.9001
30.9001
30.9001
30.9001
30.9001
30.9001
30.9001
30.9001
30.9001
30.9001
30.9001
30.9001
30.9001
30.9001
30.9001
30.9001
30.9001
30.9001
30.9001
30.9001
30.9001
30.9001
30.9001
30.9001
30.9001
30.9001
30.9001
30.9001
30.9001
30.9001
30.9001
30.9001
30.9001
30.9001
30.9001
30.9001
30.9001
30.9001
30.9001
30.9001
30.9001
30.9001
30.9001
30.9001
30.9001
30.9001
30.9001
30.9001
30.9001
30.9001
30.9001
30.9001
30.9001
30.9001
30.9001
30.9001
30.9001
30.9001
30.9001
30.9001
30.9001
30.9001
30.9001
30.9001
30.9001
30.9001
30.9001
30.9001
30.9001
30.9001
30.9001
30.9001
30.9001
30.9001
30.9001
30.9001
30.9001
30.9001
30.9001
30.9001
30.9001
30.9001
30.9001
30.9001
30.9001
30.9001
30.9001
30.9001
30.9001
30.9001
30.9001
30.9001
30.9001
30.9001
30.9001
30.9001
30.9001
30.9001
30.9001
30.9001
30.9001
30.9001
30.9001
30.9001
30.9001
30.9001
30.9001
30.9001
30.9001
30.9001
30.9001
30.9001
30.9001
30.9001
30.9001
30.9001
30.9001
30.9001
30.9001
30.9001
30.9001
30.9001
30.9001
30.9001
30.9001
30.9001
30.9001
30.9001
30.9001
30.9001
30.9001
30.9001
30.9001
30.9001
30.9001
30.9001
30.9001
30.9001
30.9001
30.9001
30.9001
30.9001
30.9001
30.9001
30.9001
30.9001
30.9001
30.9001
30.9001
30.9001
30.9001
30.9001
30.9001
30.9
30.9
30.9007
5.33274
10.6875
15.2455
18.6971
21.5068
23.3707
24.3936
24.8555
24.8666
24.5727
24.2614
24.051
23.885
23.7447
23.5867
23.4089
23.2322
23.0629
22.9038
22.7467
22.5899
22.4247
22.2593
22.0971
21.9385
21.7846
21.6368
21.4971
21.367
21.2477
21.1393
21.042
20.9557
20.88
20.8143
20.7576
20.7087
20.6666
20.6303
20.5992
20.5724
20.5494
20.5297
20.5127
20.4982
20.4858
20.4751
20.466
20.4582
20.4515
20.4458
20.4409
20.4367
20.4331
20.4301
20.4275
20.4252
20.4233
20.4217
20.4203
20.4191
20.418
20.4172
20.4164
20.4158
20.4152
20.4147
20.4143
20.414
20.4137
20.4134
20.4132
20.413
20.4129
20.4127
20.4126
20.4125
20.4124
20.4123
20.4123
20.4122
20.4122
20.4121
20.4121
20.4121
20.4121
20.412
20.412
20.412
20.412
20.412
20.4119
20.4119
20.4119
20.4119
20.4119
20.4119
20.4119
20.4119
20.4119
20.4119
20.4119
20.4119
20.4119
20.4119
20.4119
20.4119
20.4119
20.4119
20.4119
20.4119
20.4119
20.4119
20.4119
20.4119
20.4119
20.4119
20.4119
20.4119
20.4119
20.4119
20.4119
20.4119
20.4119
20.4119
20.4119
20.4119
20.4119
20.4119
20.4119
20.4119
20.4119
20.4119
20.4119
20.4119
20.4119
20.4119
20.4119
20.4119
20.4119
20.4119
20.4119
20.4119
20.4119
20.4119
20.4119
20.4119
20.4119
20.4119
20.4119
20.4119
20.4119
20.4119
20.4119
20.4119
20.4119
20.4119
20.4119
20.4119
20.4119
20.4119
20.4119
20.4119
20.4119
20.4119
20.4119
20.4119
20.4119
20.4119
20.4119
20.4119
20.4119
20.4119
20.4119
20.4119
20.4119
20.4119
20.4119
20.4119
20.4119
20.4119
20.4119
20.4119
20.4119
20.4119
20.4119
20.4119
20.4119
20.4119
20.4119
20.4119
20.4119
20.4119
20.4119
20.4119
20.4119
20.4119
20.4119
20.4119
20.4119
20.4119
20.4119
20.4119
20.4119
20.4119
20.4119
20.4119
20.4119
20.4119
20.4119
20.4119
20.4119
20.4119
20.4119
20.4119
20.4119
20.4119
20.4119
20.4119
20.4119
20.4119
20.4119
20.4119
20.4119
20.4119
20.4119
20.4119
20.4119
20.4119
20.4119
20.4119
20.4119
20.4119
20.4119
20.4119
20.4119
20.4119
20.4119
20.4119
20.4119
20.4119
20.4119
20.4119
20.4119
20.4119
20.4119
20.4119
20.4119
20.4119
20.4119
20.4119
20.4119
20.4119
20.4119
20.4119
20.4119
20.4119
20.4119
20.4119
20.4119
20.4119
20.4119
20.4119
20.4119
20.4119
20.4119
20.4119
20.4119
20.4119
20.4119
20.4119
20.4119
20.4119
20.4119
20.4119
20.4119
20.4119
20.4119
20.4119
20.4119
20.4119
20.4119
20.4119
20.4119
20.4119
20.4119
20.4119
20.4119
20.4119
20.4119
20.4119
20.4119
20.4119
20.4119
20.4119
20.4119
20.4119
20.4118
20.4118
20.4121
1.8758
4.05911
6.31923
8.34861
10.4632
12.5357
14.5806
16.3095
17.5336
18.26
18.6383
18.8124
18.8064
18.6872
18.5382
18.4043
18.281
18.1493
17.9947
17.812
17.6003
17.3724
17.1396
16.9066
16.6769
16.4537
16.2401
16.0398
15.8553
15.6881
15.5381
15.4047
15.2872
15.1849
15.0967
15.0208
14.9557
14.8997
14.8517
14.8105
14.7752
14.7448
14.7189
14.6966
14.6776
14.6613
14.6473
14.6354
14.6251
14.6164
14.6089
14.6025
14.5971
14.5924
14.5884
14.585
14.5821
14.5796
14.5775
14.5756
14.5741
14.5727
14.5716
14.5706
14.5698
14.5691
14.5684
14.5679
14.5675
14.5671
14.5667
14.5665
14.5662
14.566
14.5658
14.5657
14.5656
14.5654
14.5654
14.5653
14.5652
14.5651
14.5651
14.565
14.565
14.565
14.5649
14.5649
14.5649
14.5649
14.5649
14.5648
14.5648
14.5648
14.5648
14.5648
14.5648
14.5648
14.5648
14.5648
14.5648
14.5647
14.5647
14.5647
14.5647
14.5647
14.5647
14.5647
14.5647
14.5647
14.5647
14.5647
14.5647
14.5647
14.5647
14.5647
14.5647
14.5647
14.5647
14.5647
14.5647
14.5647
14.5647
14.5647
14.5647
14.5647
14.5647
14.5647
14.5647
14.5647
14.5647
14.5647
14.5647
14.5647
14.5647
14.5647
14.5647
14.5647
14.5647
14.5647
14.5647
14.5647
14.5647
14.5647
14.5647
14.5647
14.5647
14.5647
14.5647
14.5647
14.5647
14.5647
14.5647
14.5647
14.5647
14.5647
14.5647
14.5647
14.5647
14.5647
14.5647
14.5647
14.5647
14.5647
14.5647
14.5647
14.5647
14.5647
14.5647
14.5647
14.5647
14.5647
14.5647
14.5647
14.5647
14.5647
14.5647
14.5647
14.5647
14.5647
14.5647
14.5647
14.5647
14.5647
14.5647
14.5647
14.5647
14.5647
14.5647
14.5647
14.5647
14.5647
14.5647
14.5647
14.5647
14.5647
14.5647
14.5647
14.5647
14.5647
14.5647
14.5647
14.5647
14.5647
14.5647
14.5647
14.5647
14.5647
14.5647
14.5647
14.5647
14.5647
14.5647
14.5647
14.5647
14.5647
14.5647
14.5647
14.5647
14.5647
14.5647
14.5647
14.5647
14.5647
14.5647
14.5647
14.5647
14.5647
14.5647
14.5647
14.5647
14.5647
14.5647
14.5647
14.5647
14.5647
14.5647
14.5647
14.5647
14.5647
14.5647
14.5647
14.5647
14.5647
14.5647
14.5647
14.5647
14.5647
14.5647
14.5647
14.5647
14.5647
14.5647
14.5647
14.5647
14.5647
14.5647
14.5647
14.5647
14.5647
14.5647
14.5647
14.5647
14.5647
14.5647
14.5647
14.5647
14.5647
14.5647
14.5647
14.5647
14.5647
14.5647
14.5647
14.5647
14.5647
14.5647
14.5647
14.5647
14.5647
14.5647
14.5647
14.5647
14.5647
14.5647
14.5647
14.5647
14.5647
14.5647
14.5647
14.5647
14.5647
14.5647
14.5647
14.5647
14.5647
14.5647
14.5647
14.5647
14.5648
0.785622
1.67051
2.53889
3.58136
4.7168
5.92442
7.24407
8.73042
10.2999
11.7668
12.9797
13.8928
14.5017
14.8496
15.0215
15.0803
15.0456
14.9269
14.7419
14.5133
14.2579
13.9993
13.7428
13.485
13.2284
12.9772
12.7383
12.5177
12.3186
12.1415
11.985
11.8474
11.7274
11.6237
11.5348
11.4584
11.3929
11.3367
11.2885
11.2472
11.2118
11.1814
11.1554
11.1332
11.1141
11.0978
11.0839
11.0719
11.0617
11.053
11.0456
11.0392
11.0338
11.0291
11.0251
11.0217
11.0188
11.0163
11.0142
11.0124
11.0108
11.0095
11.0084
11.0074
11.0066
11.0059
11.0053
11.0047
11.0043
11.0039
11.0036
11.0033
11.0031
11.0029
11.0027
11.0025
11.0024
11.0023
11.0022
11.0021
11.0021
11.002
11.0019
11.0019
11.0019
11.0018
11.0018
11.0018
11.0017
11.0017
11.0017
11.0017
11.0017
11.0017
11.0017
11.0016
11.0016
11.0016
11.0016
11.0016
11.0016
11.0016
11.0016
11.0016
11.0016
11.0016
11.0016
11.0016
11.0016
11.0016
11.0016
11.0016
11.0016
11.0016
11.0016
11.0016
11.0016
11.0016
11.0016
11.0016
11.0016
11.0016
11.0016
11.0016
11.0016
11.0016
11.0016
11.0016
11.0016
11.0016
11.0016
11.0016
11.0016
11.0016
11.0016
11.0016
11.0016
11.0016
11.0016
11.0016
11.0016
11.0016
11.0016
11.0016
11.0016
11.0016
11.0016
11.0016
11.0016
11.0016
11.0016
11.0016
11.0016
11.0016
11.0016
11.0016
11.0016
11.0016
11.0016
11.0016
11.0016
11.0016
11.0016
11.0016
11.0016
11.0016
11.0016
11.0016
11.0016
11.0016
11.0016
11.0016
11.0016
11.0016
11.0016
11.0016
11.0016
11.0016
11.0016
11.0016
11.0016
11.0016
11.0016
11.0016
11.0016
11.0016
11.0016
11.0016
11.0016
11.0016
11.0016
11.0016
11.0016
11.0016
11.0016
11.0016
11.0016
11.0016
11.0016
11.0016
11.0016
11.0016
11.0016
11.0016
11.0016
11.0016
11.0016
11.0016
11.0016
11.0016
11.0016
11.0016
11.0016
11.0016
11.0016
11.0016
11.0016
11.0016
11.0016
11.0016
11.0016
11.0016
11.0016
11.0016
11.0016
11.0016
11.0016
11.0016
11.0016
11.0016
11.0016
11.0016
11.0016
11.0016
11.0016
11.0016
11.0016
11.0016
11.0016
11.0016
11.0016
11.0016
11.0016
11.0016
11.0016
11.0016
11.0016
11.0016
11.0016
11.0016
11.0016
11.0016
11.0016
11.0016
11.0016
11.0016
11.0016
11.0016
11.0016
11.0016
11.0016
11.0016
11.0016
11.0016
11.0016
11.0016
11.0016
11.0016
11.0016
11.0016
11.0016
11.0016
11.0016
11.0016
11.0016
11.0016
11.0016
11.0016
11.0016
11.0016
11.0016
11.0016
11.0016
11.0016
11.0016
11.0016
11.0016
11.0016
11.0016
11.0016
11.0016
11.0016
11.0016
11.0016
11.0016
11.0016
11.0016
11.0016
11.0016
11.0016
0.40616
0.805011
1.26366
1.76741
2.29439
2.84906
3.61587
4.47891
5.46609
6.55253
7.65153
8.76355
9.79357
10.6475
11.3069
11.7663
12.0448
12.1745
12.1741
12.0693
11.8921
11.6594
11.3879
11.0979
10.8192
10.5685
10.3491
10.1576
9.98981
9.84257
9.71305
9.59939
9.50019
9.41428
9.34024
9.27638
9.22136
9.17399
9.13327
9.09828
9.06823
9.04246
9.02036
9.00141
8.98518
8.97128
8.95939
8.94921
8.9405
8.93305
8.92669
8.92124
8.91659
8.91261
8.90922
8.90631
8.90383
8.90171
8.8999
8.89836
8.89703
8.8959
8.89494
8.89411
8.89341
8.8928
8.89229
8.89185
8.89147
8.89115
8.89087
8.89063
8.89043
8.89026
8.89011
8.88998
8.88987
8.88978
8.8897
8.88963
8.88957
8.88952
8.88947
8.88943
8.8894
8.88937
8.88935
8.88932
8.8893
8.88929
8.88927
8.88926
8.88925
8.88924
8.88923
8.88922
8.88921
8.88921
8.8892
8.88919
8.88919
8.88919
8.88918
8.88918
8.88918
8.88917
8.88917
8.88917
8.88917
8.88917
8.88917
8.88916
8.88916
8.88916
8.88916
8.88916
8.88916
8.88916
8.88916
8.88916
8.88916
8.88916
8.88916
8.88916
8.88916
8.88916
8.88916
8.88915
8.88915
8.88915
8.88915
8.88915
8.88915
8.88915
8.88915
8.88915
8.88915
8.88915
8.88915
8.88915
8.88915
8.88915
8.88915
8.88915
8.88915
8.88915
8.88915
8.88915
8.88915
8.88915
8.88915
8.88915
8.88915
8.88915
8.88915
8.88915
8.88915
8.88915
8.88915
8.88915
8.88915
8.88915
8.88915
8.88915
8.88915
8.88915
8.88915
8.88915
8.88915
8.88915
8.88915
8.88915
8.88915
8.88915
8.88915
8.88915
8.88915
8.88915
8.88915
8.88915
8.88915
8.88915
8.88915
8.88915
8.88915
8.88915
8.88915
8.88915
8.88915
8.88915
8.88915
8.88915
8.88915
8.88915
8.88915
8.88915
8.88915
8.88915
8.88915
8.88915
8.88915
8.88915
8.88915
8.88915
8.88915
8.88915
8.88915
8.88915
8.88915
8.88915
8.88915
8.88915
8.88915
8.88915
8.88915
8.88915
8.88915
8.88915
8.88915
8.88915
8.88915
8.88915
8.88915
8.88915
8.88915
8.88915
8.88915
8.88915
8.88915
8.88915
8.88915
8.88915
8.88915
8.88915
8.88915
8.88915
8.88915
8.88915
8.88915
8.88915
8.88915
8.88915
8.88915
8.88915
8.88915
8.88915
8.88915
8.88915
8.88915
8.88915
8.88915
8.88915
8.88915
8.88915
8.88915
8.88915
8.88915
8.88915
8.88915
8.88915
8.88915
8.88915
8.88915
8.88915
8.88915
8.88915
8.88915
8.88915
8.88915
8.88915
8.88915
8.88915
8.88915
8.88915
8.88915
8.88915
8.88915
8.88915
8.88915
8.88915
8.88915
8.88915
8.88915
8.88915
8.88915
8.88915
8.88915
8.88915
8.88915
8.88915
8.88915
8.88915
8.88915
8.88915
8.88915
8.88915
8.88915
8.88914
8.88914
8.88917
0.286492
0.501417
0.834055
1.19056
1.53396
1.88033
2.31444
2.77821
3.2723
3.84856
4.57249
5.36408
6.18584
6.9947
7.72187
8.35112
8.85781
9.21541
9.45832
9.61566
9.68369
9.67015
9.59139
9.46829
9.31787
9.16379
9.01716
8.88224
8.76018
8.65032
8.55258
8.46531
8.38771
8.31922
8.25942
8.20763
8.16278
8.124
8.09052
8.06164
8.03677
8.01538
7.99699
7.9812
7.96764
7.95602
7.94606
7.93753
7.93023
7.92398
7.91863
7.91406
7.91015
7.90681
7.90396
7.90152
7.89944
7.89766
7.89614
7.89484
7.89373
7.89278
7.89198
7.89129
7.8907
7.89019
7.88976
7.88939
7.88908
7.88881
7.88858
7.88838
7.88821
7.88806
7.88794
7.88783
7.88774
7.88766
7.88759
7.88754
7.88749
7.88744
7.88741
7.88737
7.88735
7.88732
7.8873
7.88728
7.88726
7.88725
7.88724
7.88723
7.88722
7.88721
7.8872
7.88719
7.88719
7.88718
7.88718
7.88717
7.88717
7.88717
7.88716
7.88716
7.88716
7.88716
7.88716
7.88715
7.88715
7.88715
7.88715
7.88715
7.88715
7.88715
7.88714
7.88714
7.88714
7.88714
7.88714
7.88714
7.88714
7.88714
7.88714
7.88714
7.88714
7.88714
7.88714
7.88714
7.88714
7.88714
7.88714
7.88714
7.88714
7.88714
7.88714
7.88714
7.88714
7.88714
7.88714
7.88714
7.88713
7.88713
7.88713
7.88713
7.88713
7.88713
7.88713
7.88713
7.88713
7.88713
7.88713
7.88713
7.88713
7.88713
7.88713
7.88713
7.88713
7.88713
7.88713
7.88713
7.88713
7.88713
7.88713
7.88713
7.88713
7.88713
7.88713
7.88713
7.88713
7.88713
7.88713
7.88713
7.88713
7.88713
7.88713
7.88713
7.88713
7.88713
7.88713
7.88713
7.88713
7.88713
7.88713
7.88713
7.88713
7.88713
7.88713
7.88713
7.88713
7.88713
7.88713
7.88713
7.88713
7.88713
7.88713
7.88713
7.88713
7.88713
7.88713
7.88713
7.88713
7.88713
7.88713
7.88713
7.88713
7.88713
7.88713
7.88713
7.88713
7.88713
7.88713
7.88713
7.88713
7.88713
7.88713
7.88713
7.88713
7.88713
7.88713
7.88713
7.88713
7.88713
7.88713
7.88713
7.88713
7.88713
7.88713
7.88713
7.88713
7.88713
7.88713
7.88713
7.88713
7.88713
7.88713
7.88713
7.88713
7.88713
7.88713
7.88713
7.88713
7.88713
7.88713
7.88713
7.88713
7.88713
7.88713
7.88713
7.88713
7.88713
7.88713
7.88713
7.88713
7.88713
7.88713
7.88713
7.88713
7.88713
7.88713
7.88713
7.88713
7.88713
7.88713
7.88713
7.88713
7.88713
7.88713
7.88713
7.88713
7.88713
7.88713
7.88713
7.88713
7.88713
7.88713
7.88713
7.88713
7.88713
7.88713
7.88713
7.88713
7.88713
7.88713
7.88713
7.88713
7.88713
7.88713
7.88713
7.88713
7.88713
7.88713
7.88713
7.88713
7.88713
7.88713
7.88713
7.88713
7.88713
7.88713
7.88714
)
;

boundaryField
{
    inlet
    {
        type            fixedValue;
        value           uniform 0.18449;
    }
    outlet
    {
        type            zeroGradient;
    }
    sideWall
    {
        type            empty;
    }
    bed
    {
        type            omegaWallFunction;
        refValue        nonuniform List<scalar> 
300
(
145.174
160.375
148.045
135.881
128.912
125.681
124.513
124.36
124.57
124.987
125.497
126.001
126.497
127.008
127.502
128.001
128.523
129.045
129.574
130.106
130.636
131.166
131.709
132.265
132.801
133.291
133.733
134.12
134.455
134.742
134.987
135.196
135.37
135.512
135.627
135.72
135.799
135.865
135.92
135.967
136.007
136.041
136.07
136.095
136.116
136.134
136.149
136.162
136.173
136.183
136.191
136.198
136.204
136.209
136.213
136.217
136.22
136.223
136.225
136.227
136.229
136.23
136.231
136.232
136.233
136.234
136.235
136.235
136.236
136.236
136.237
136.237
136.237
136.238
136.238
136.238
136.238
136.238
136.238
136.238
136.238
136.239
136.239
136.239
136.239
136.239
136.239
136.239
136.239
136.239
136.239
136.239
136.239
136.239
136.239
136.239
136.239
136.239
136.239
136.239
136.239
136.239
136.239
136.239
136.239
136.239
136.239
136.239
136.239
136.239
136.239
136.239
136.239
136.239
136.239
136.239
136.239
136.239
136.239
136.239
136.239
136.239
136.239
136.239
136.239
136.239
136.239
136.239
136.239
136.239
136.239
136.239
136.239
136.239
136.239
136.239
136.239
136.239
136.239
136.239
136.239
136.239
136.239
136.239
136.239
136.239
136.239
136.239
136.239
136.239
136.239
136.239
136.239
136.239
136.239
136.239
136.239
136.239
136.239
136.239
136.239
136.239
136.239
136.239
136.239
136.239
136.239
136.239
136.239
136.239
136.239
136.239
136.239
136.239
136.239
136.239
136.239
136.239
136.239
136.239
136.239
136.239
136.239
136.239
136.239
136.239
136.239
136.239
136.239
136.239
136.239
136.239
136.239
136.239
136.239
136.239
136.239
136.239
136.239
136.239
136.239
136.239
136.239
136.239
136.239
136.239
136.239
136.239
136.239
136.239
136.239
136.239
136.239
136.239
136.239
136.239
136.239
136.239
136.239
136.239
136.239
136.239
136.239
136.239
136.239
136.239
136.239
136.239
136.239
136.239
136.239
136.239
136.239
136.239
136.239
136.239
136.239
136.239
136.239
136.239
136.239
136.239
136.239
136.239
136.239
136.239
136.239
136.239
136.239
136.239
136.239
136.239
136.239
136.239
136.239
136.239
136.239
136.239
136.239
136.239
136.239
136.239
136.239
136.239
136.239
136.239
136.239
136.239
136.239
136.239
136.239
136.239
136.239
136.239
136.239
136.239
136.239
136.239
136.239
136.239
136.239
136.239
136.239
136.239
136.239
136.239
136.239
136.239
136.239
136.239
136.239
136.239
136.239
136.239
136.239
136.239
136.239
136.239
136.244
136.238
)
;
        value           nonuniform List<scalar> 
300
(
145.174
160.375
148.045
135.881
128.912
125.681
124.513
124.36
124.57
124.987
125.497
126.001
126.497
127.008
127.502
128.001
128.523
129.045
129.574
130.106
130.636
131.166
131.709
132.265
132.801
133.291
133.733
134.12
134.455
134.742
134.987
135.196
135.37
135.512
135.627
135.72
135.799
135.865
135.92
135.967
136.007
136.041
136.07
136.095
136.116
136.134
136.149
136.162
136.173
136.183
136.191
136.198
136.204
136.209
136.213
136.217
136.22
136.223
136.225
136.227
136.229
136.23
136.231
136.232
136.233
136.234
136.235
136.235
136.236
136.236
136.237
136.237
136.237
136.238
136.238
136.238
136.238
136.238
136.238
136.238
136.238
136.239
136.239
136.239
136.239
136.239
136.239
136.239
136.239
136.239
136.239
136.239
136.239
136.239
136.239
136.239
136.239
136.239
136.239
136.239
136.239
136.239
136.239
136.239
136.239
136.239
136.239
136.239
136.239
136.239
136.239
136.239
136.239
136.239
136.239
136.239
136.239
136.239
136.239
136.239
136.239
136.239
136.239
136.239
136.239
136.239
136.239
136.239
136.239
136.239
136.239
136.239
136.239
136.239
136.239
136.239
136.239
136.239
136.239
136.239
136.239
136.239
136.239
136.239
136.239
136.239
136.239
136.239
136.239
136.239
136.239
136.239
136.239
136.239
136.239
136.239
136.239
136.239
136.239
136.239
136.239
136.239
136.239
136.239
136.239
136.239
136.239
136.239
136.239
136.239
136.239
136.239
136.239
136.239
136.239
136.239
136.239
136.239
136.239
136.239
136.239
136.239
136.239
136.239
136.239
136.239
136.239
136.239
136.239
136.239
136.239
136.239
136.239
136.239
136.239
136.239
136.239
136.239
136.239
136.239
136.239
136.239
136.239
136.239
136.239
136.239
136.239
136.239
136.239
136.239
136.239
136.239
136.239
136.239
136.239
136.239
136.239
136.239
136.239
136.239
136.239
136.239
136.239
136.239
136.239
136.239
136.239
136.239
136.239
136.239
136.239
136.239
136.239
136.239
136.239
136.239
136.239
136.239
136.239
136.239
136.239
136.239
136.239
136.239
136.239
136.239
136.239
136.239
136.239
136.239
136.239
136.239
136.239
136.239
136.239
136.239
136.239
136.239
136.239
136.239
136.239
136.239
136.239
136.239
136.239
136.239
136.239
136.239
136.239
136.239
136.239
136.239
136.239
136.239
136.239
136.239
136.239
136.239
136.239
136.239
136.239
136.239
136.239
136.239
136.239
136.239
136.239
136.239
136.239
136.239
136.239
136.239
136.239
136.239
136.239
136.239
136.239
136.239
136.244
136.238
)
;
        Cmu             0.09;
        kappa           0.41;
        E               9.8;
        beta1           0.075;
    }
    topWall
    {
        type            slip;
        value           nonuniform List<scalar> 
300
(
0.286492
0.501417
0.834055
1.19056
1.53396
1.88033
2.31444
2.77821
3.2723
3.84856
4.57249
5.36408
6.18584
6.9947
7.72187
8.35112
8.85781
9.21541
9.45832
9.61566
9.68369
9.67015
9.59139
9.46829
9.31787
9.16379
9.01716
8.88224
8.76018
8.65032
8.55258
8.46531
8.38771
8.31922
8.25942
8.20763
8.16278
8.124
8.09052
8.06164
8.03677
8.01538
7.99699
7.9812
7.96764
7.95602
7.94606
7.93753
7.93023
7.92398
7.91863
7.91406
7.91015
7.90681
7.90396
7.90152
7.89944
7.89766
7.89614
7.89484
7.89373
7.89278
7.89198
7.89129
7.8907
7.89019
7.88976
7.88939
7.88908
7.88881
7.88858
7.88838
7.88821
7.88806
7.88794
7.88783
7.88774
7.88766
7.88759
7.88754
7.88749
7.88744
7.88741
7.88737
7.88735
7.88732
7.8873
7.88728
7.88726
7.88725
7.88724
7.88723
7.88722
7.88721
7.8872
7.88719
7.88719
7.88718
7.88718
7.88717
7.88717
7.88717
7.88716
7.88716
7.88716
7.88716
7.88716
7.88715
7.88715
7.88715
7.88715
7.88715
7.88715
7.88715
7.88714
7.88714
7.88714
7.88714
7.88714
7.88714
7.88714
7.88714
7.88714
7.88714
7.88714
7.88714
7.88714
7.88714
7.88714
7.88714
7.88714
7.88714
7.88714
7.88714
7.88714
7.88714
7.88714
7.88714
7.88714
7.88714
7.88713
7.88713
7.88713
7.88713
7.88713
7.88713
7.88713
7.88713
7.88713
7.88713
7.88713
7.88713
7.88713
7.88713
7.88713
7.88713
7.88713
7.88713
7.88713
7.88713
7.88713
7.88713
7.88713
7.88713
7.88713
7.88713
7.88713
7.88713
7.88713
7.88713
7.88713
7.88713
7.88713
7.88713
7.88713
7.88713
7.88713
7.88713
7.88713
7.88713
7.88713
7.88713
7.88713
7.88713
7.88713
7.88713
7.88713
7.88713
7.88713
7.88713
7.88713
7.88713
7.88713
7.88713
7.88713
7.88713
7.88713
7.88713
7.88713
7.88713
7.88713
7.88713
7.88713
7.88713
7.88713
7.88713
7.88713
7.88713
7.88713
7.88713
7.88713
7.88713
7.88713
7.88713
7.88713
7.88713
7.88713
7.88713
7.88713
7.88713
7.88713
7.88713
7.88713
7.88713
7.88713
7.88713
7.88713
7.88713
7.88713
7.88713
7.88713
7.88713
7.88713
7.88713
7.88713
7.88713
7.88713
7.88713
7.88713
7.88713
7.88713
7.88713
7.88713
7.88713
7.88713
7.88713
7.88713
7.88713
7.88713
7.88713
7.88713
7.88713
7.88713
7.88713
7.88713
7.88713
7.88713
7.88713
7.88713
7.88713
7.88713
7.88713
7.88713
7.88713
7.88713
7.88713
7.88713
7.88713
7.88713
7.88713
7.88713
7.88713
7.88713
7.88713
7.88713
7.88713
7.88713
7.88713
7.88713
7.88713
7.88713
7.88713
7.88713
7.88713
7.88713
7.88713
7.88713
7.88713
7.88713
7.88713
7.88713
7.88713
7.88713
7.88713
7.88713
7.88713
7.88713
7.88713
7.88713
7.88714
)
;
    }
}


// ************************************************************************* //
