/*--------------------------------*- C++ -*----------------------------------*\
| =========                 |                                                 |
| \\      /  F ield         | foam-extend: Open Source CFD                    |
|  \\    /   O peration     | Version:     3.2                                |
|   \\  /    A nd           | Web:         http://www.foam-extend.org         |
|    \\/     M anipulation  | For copyright notice see file Copyright         |
\*---------------------------------------------------------------------------*/
FoamFile
{
    version     2.0;
    format      ascii;
    class       volScalarField;
    location    "200";
    object      p;
}
// * * * * * * * * * * * * * * * * * * * * * * * * * * * * * * * * * * * * * //

dimensions      [1 -1 -2 0 0 0 0];

internalField   nonuniform List<scalar> 
2400
(
478.643
474.773
474.134
473.874
474.218
474.914
475.779
476.678
477.641
478.618
479.613
480.61
481.629
482.653
483.68
484.717
485.747
486.779
487.809
488.84
489.87
490.901
491.92
492.917
493.89
494.844
495.776
496.69
497.587
498.469
499.337
500.192
501.037
501.875
502.708
503.535
504.358
505.177
505.992
506.805
507.615
508.424
509.231
510.036
510.84
511.643
512.445
513.246
514.047
514.847
515.647
516.446
517.245
518.044
518.842
519.64
520.438
521.236
522.034
522.831
523.629
524.426
525.224
526.021
526.818
527.615
528.412
529.209
530.007
530.804
531.601
532.398
533.195
533.992
534.788
535.585
536.382
537.179
537.976
538.773
539.57
540.367
541.164
541.961
542.758
543.555
544.351
545.148
545.945
546.742
547.539
548.336
549.133
549.93
550.727
551.523
552.32
553.117
553.914
554.711
555.508
556.305
557.102
557.899
558.695
559.492
560.289
561.086
561.883
562.68
563.477
564.274
565.071
565.867
566.664
567.461
568.258
569.055
569.852
570.649
571.446
572.243
573.039
573.836
574.633
575.43
576.227
577.024
577.821
578.618
579.415
580.211
581.008
581.805
582.602
583.399
584.196
584.993
585.79
586.587
587.383
588.18
588.977
589.774
590.571
591.368
592.165
592.962
593.759
594.555
595.352
596.149
596.946
597.743
598.54
599.337
600.134
600.931
601.727
602.524
603.321
604.118
604.915
605.712
606.509
607.306
608.103
608.899
609.696
610.493
611.29
612.087
612.884
613.681
614.478
615.274
616.071
616.868
617.665
618.462
619.259
620.056
620.853
621.65
622.446
623.243
624.04
624.837
625.634
626.431
627.228
628.025
628.822
629.618
630.415
631.212
632.009
632.806
633.603
634.4
635.197
635.994
636.79
637.587
638.384
639.181
639.978
640.775
641.572
642.369
643.166
643.962
644.759
645.556
646.353
647.15
647.947
648.744
649.541
650.338
651.134
651.931
652.728
653.525
654.322
655.119
655.916
656.713
657.51
658.306
659.103
659.9
660.697
661.494
662.291
663.088
663.885
664.682
665.478
666.275
667.072
667.869
668.666
669.463
670.26
671.057
671.854
672.65
673.447
674.244
675.041
675.838
676.635
677.432
678.229
679.026
679.822
680.619
681.416
682.213
683.01
683.807
684.604
685.401
686.198
686.994
687.791
688.588
689.385
690.182
690.979
691.776
692.573
693.37
694.166
694.963
695.76
696.557
697.354
698.151
698.948
699.745
700.542
701.338
702.135
702.932
703.729
704.526
705.323
706.12
706.917
707.714
708.51
709.307
710.104
710.901
711.698
712.495
713.292
714.082
441.93
438.179
437.509
437.245
437.589
438.283
439.145
440.043
441.005
441.981
442.974
443.971
444.99
446.013
447.04
448.077
449.107
450.138
451.168
452.199
453.229
454.259
455.278
456.275
457.248
458.202
459.135
460.049
460.946
461.828
462.696
463.551
464.397
465.235
466.067
466.895
467.717
468.536
469.352
470.164
470.975
471.783
472.59
473.395
474.2
475.003
475.805
476.606
477.407
478.207
479.007
479.806
480.605
481.403
482.202
483
483.798
484.596
485.394
486.191
486.989
487.786
488.583
489.381
490.178
490.975
491.772
492.569
493.366
494.163
494.96
495.757
496.554
497.351
498.148
498.945
499.742
500.539
501.336
502.133
502.93
503.727
504.524
505.32
506.117
506.914
507.711
508.508
509.305
510.102
510.899
511.696
512.492
513.289
514.086
514.883
515.68
516.477
517.274
518.071
518.868
519.664
520.461
521.258
522.055
522.852
523.649
524.446
525.243
526.04
526.836
527.633
528.43
529.227
530.024
530.821
531.618
532.415
533.212
534.008
534.805
535.602
536.399
537.196
537.993
538.79
539.587
540.384
541.18
541.977
542.774
543.571
544.368
545.165
545.962
546.759
547.556
548.352
549.149
549.946
550.743
551.54
552.337
553.134
553.931
554.728
555.524
556.321
557.118
557.915
558.712
559.509
560.306
561.103
561.9
562.696
563.493
564.29
565.087
565.884
566.681
567.478
568.275
569.071
569.868
570.665
571.462
572.259
573.056
573.853
574.65
575.447
576.243
577.04
577.837
578.634
579.431
580.228
581.025
581.822
582.619
583.415
584.212
585.009
585.806
586.603
587.4
588.197
588.994
589.791
590.587
591.384
592.181
592.978
593.775
594.572
595.369
596.166
596.963
597.759
598.556
599.353
600.15
600.947
601.744
602.541
603.338
604.135
604.931
605.728
606.525
607.322
608.119
608.916
609.713
610.51
611.307
612.103
612.9
613.697
614.494
615.291
616.088
616.885
617.682
618.479
619.275
620.072
620.869
621.666
622.463
623.26
624.057
624.854
625.651
626.447
627.244
628.041
628.838
629.635
630.432
631.229
632.026
632.823
633.619
634.416
635.213
636.01
636.807
637.604
638.401
639.198
639.995
640.791
641.588
642.385
643.182
643.979
644.776
645.573
646.37
647.167
647.963
648.76
649.557
650.354
651.151
651.948
652.745
653.542
654.339
655.135
655.932
656.729
657.526
658.323
659.12
659.917
660.714
661.511
662.307
663.104
663.901
664.698
665.495
666.292
667.089
667.886
668.683
669.479
670.276
671.073
671.87
672.667
673.464
674.261
675.058
675.855
676.652
677.451
405.191
401.55
400.898
400.638
400.969
401.655
402.514
403.41
404.371
405.346
406.338
407.334
408.352
409.374
410.4
411.438
412.467
413.498
414.528
415.558
416.589
417.619
418.638
419.635
420.607
421.561
422.494
423.408
424.305
425.187
426.055
426.91
427.756
428.594
429.427
430.254
431.077
431.895
432.711
433.524
434.334
435.143
435.95
436.755
437.559
438.362
439.164
439.966
440.766
441.567
442.366
443.166
443.964
444.763
445.561
446.36
447.158
447.955
448.753
449.551
450.348
451.146
451.943
452.74
453.537
454.335
455.132
455.929
456.726
457.523
458.32
459.117
459.914
460.711
461.508
462.305
463.102
463.899
464.696
465.492
466.289
467.086
467.883
468.68
469.477
470.274
471.071
471.868
472.665
473.461
474.258
475.055
475.852
476.649
477.446
478.243
479.04
479.837
480.633
481.43
482.227
483.024
483.821
484.618
485.415
486.212
487.009
487.805
488.602
489.399
490.196
490.993
491.79
492.587
493.384
494.181
494.977
495.774
496.571
497.368
498.165
498.962
499.759
500.556
501.353
502.149
502.946
503.743
504.54
505.337
506.134
506.931
507.728
508.525
509.321
510.118
510.915
511.712
512.509
513.306
514.103
514.9
515.697
516.493
517.29
518.087
518.884
519.681
520.478
521.275
522.072
522.868
523.665
524.462
525.259
526.056
526.853
527.65
528.447
529.244
530.04
530.837
531.634
532.431
533.228
534.025
534.822
535.619
536.416
537.212
538.009
538.806
539.603
540.4
541.197
541.994
542.791
543.588
544.384
545.181
545.978
546.775
547.572
548.369
549.166
549.963
550.76
551.556
552.353
553.15
553.947
554.744
555.541
556.338
557.135
557.932
558.728
559.525
560.322
561.119
561.916
562.713
563.51
564.307
565.104
565.9
566.697
567.494
568.291
569.088
569.885
570.682
571.479
572.276
573.072
573.869
574.666
575.463
576.26
577.057
577.854
578.651
579.448
580.244
581.041
581.838
582.635
583.432
584.229
585.026
585.823
586.62
587.416
588.213
589.01
589.807
590.604
591.401
592.198
592.995
593.792
594.588
595.385
596.182
596.979
597.776
598.573
599.37
600.167
600.964
601.76
602.557
603.354
604.151
604.948
605.745
606.542
607.339
608.136
608.932
609.729
610.526
611.323
612.12
612.917
613.714
614.511
615.308
616.104
616.901
617.698
618.495
619.292
620.089
620.886
621.683
622.479
623.276
624.073
624.87
625.667
626.464
627.261
628.058
628.855
629.651
630.448
631.245
632.042
632.839
633.636
634.433
635.23
636.027
636.823
637.62
638.417
639.214
640.011
640.809
368.478
364.926
364.279
364.014
364.343
365.027
365.883
366.776
367.736
368.711
369.702
370.698
371.716
372.738
373.763
374.8
375.829
376.859
377.889
378.919
379.949
380.979
381.998
382.994
383.967
384.921
385.854
386.768
387.665
388.546
389.414
390.27
391.115
391.953
392.786
393.614
394.436
395.255
396.071
396.884
397.694
398.503
399.309
400.115
400.919
401.722
402.524
403.325
404.126
404.926
405.726
406.525
407.324
408.123
408.921
409.719
410.517
411.315
412.113
412.91
413.708
414.505
415.303
416.1
416.897
417.694
418.491
419.288
420.085
420.883
421.68
422.477
423.274
424.07
424.867
425.664
426.461
427.258
428.055
428.852
429.649
430.446
431.243
432.04
432.837
433.634
434.43
435.227
436.024
436.821
437.618
438.415
439.212
440.009
440.806
441.602
442.399
443.196
443.993
444.79
445.587
446.384
447.181
447.978
448.774
449.571
450.368
451.165
451.962
452.759
453.556
454.353
455.15
455.946
456.743
457.54
458.337
459.134
459.931
460.728
461.525
462.322
463.118
463.915
464.712
465.509
466.306
467.103
467.9
468.697
469.494
470.29
471.087
471.884
472.681
473.478
474.275
475.072
475.869
476.665
477.462
478.259
479.056
479.853
480.65
481.447
482.244
483.041
483.837
484.634
485.431
486.228
487.025
487.822
488.619
489.416
490.213
491.009
491.806
492.603
493.4
494.197
494.994
495.791
496.588
497.385
498.181
498.978
499.775
500.572
501.369
502.166
502.963
503.76
504.557
505.353
506.15
506.947
507.744
508.541
509.338
510.135
510.932
511.729
512.525
513.322
514.119
514.916
515.713
516.51
517.307
518.104
518.901
519.697
520.494
521.291
522.088
522.885
523.682
524.479
525.276
526.073
526.869
527.666
528.463
529.26
530.057
530.854
531.651
532.448
533.245
534.041
534.838
535.635
536.432
537.229
538.026
538.823
539.62
540.417
541.213
542.01
542.807
543.604
544.401
545.198
545.995
546.792
547.589
548.385
549.182
549.979
550.776
551.573
552.37
553.167
553.964
554.761
555.557
556.354
557.151
557.948
558.745
559.542
560.339
561.136
561.932
562.729
563.526
564.323
565.12
565.917
566.714
567.511
568.308
569.104
569.901
570.698
571.495
572.292
573.089
573.886
574.683
575.48
576.276
577.073
577.87
578.667
579.464
580.261
581.058
581.855
582.652
583.448
584.245
585.042
585.839
586.636
587.433
588.23
589.027
589.824
590.62
591.417
592.214
593.011
593.808
594.605
595.402
596.199
596.996
597.792
598.589
599.386
600.183
600.98
601.777
602.574
603.371
604.169
331.769
328.292
327.65
327.381
327.714
328.394
329.246
330.141
331.101
332.076
333.067
334.062
335.079
336.101
337.127
338.163
339.192
340.222
341.251
342.281
343.311
344.341
345.359
346.355
347.328
348.281
349.214
350.128
351.025
351.906
352.774
353.629
354.475
355.313
356.146
356.973
357.796
358.615
359.43
360.243
361.054
361.862
362.669
363.474
364.278
365.081
365.884
366.685
367.486
368.286
369.086
369.885
370.684
371.482
372.281
373.079
373.877
374.675
375.472
376.27
377.068
377.865
378.662
379.46
380.257
381.054
381.851
382.648
383.445
384.242
385.039
385.836
386.633
387.43
388.227
389.024
389.821
390.618
391.415
392.212
393.009
393.806
394.602
395.399
396.196
396.993
397.79
398.587
399.384
400.181
400.978
401.775
402.571
403.368
404.165
404.962
405.759
406.556
407.353
408.15
408.947
409.743
410.54
411.337
412.134
412.931
413.728
414.525
415.322
416.119
416.915
417.712
418.509
419.306
420.103
420.9
421.697
422.494
423.291
424.087
424.884
425.681
426.478
427.275
428.072
428.869
429.666
430.462
431.259
432.056
432.853
433.65
434.447
435.244
436.041
436.838
437.634
438.431
439.228
440.025
440.822
441.619
442.416
443.213
444.01
444.806
445.603
446.4
447.197
447.994
448.791
449.588
450.385
451.182
451.978
452.775
453.572
454.369
455.166
455.963
456.76
457.557
458.354
459.15
459.947
460.744
461.541
462.338
463.135
463.932
464.729
465.526
466.322
467.119
467.916
468.713
469.51
470.307
471.104
471.901
472.698
473.494
474.291
475.088
475.885
476.682
477.479
478.276
479.073
479.87
480.666
481.463
482.26
483.057
483.854
484.651
485.448
486.245
487.042
487.838
488.635
489.432
490.229
491.026
491.823
492.62
493.417
494.214
495.01
495.807
496.604
497.401
498.198
498.995
499.792
500.589
501.385
502.182
502.979
503.776
504.573
505.37
506.167
506.964
507.761
508.557
509.354
510.151
510.948
511.745
512.542
513.339
514.136
514.933
515.729
516.526
517.323
518.12
518.917
519.714
520.511
521.308
522.105
522.901
523.698
524.495
525.292
526.089
526.886
527.683
528.48
529.277
530.073
530.87
531.667
532.464
533.261
534.058
534.855
535.652
536.449
537.245
538.042
538.839
539.636
540.433
541.23
542.027
542.824
543.621
544.417
545.214
546.011
546.808
547.605
548.402
549.199
549.996
550.793
551.589
552.386
553.183
553.98
554.777
555.574
556.371
557.168
557.965
558.761
559.558
560.355
561.152
561.949
562.746
563.543
564.34
565.137
565.934
566.73
567.528
295.089
291.647
291.006
290.746
291.077
291.756
292.606
293.503
294.463
295.438
296.428
297.425
298.443
299.464
300.49
301.526
302.555
303.585
304.615
305.645
306.674
307.703
308.721
309.716
310.689
311.642
312.574
313.488
314.385
315.267
316.134
316.99
317.835
318.673
319.506
320.333
321.156
321.975
322.79
323.603
324.413
325.222
326.029
326.834
327.638
328.441
329.243
330.045
330.845
331.646
332.445
333.245
334.043
334.842
335.64
336.439
337.237
338.034
338.832
339.63
340.427
341.225
342.022
342.819
343.616
344.414
345.211
346.008
346.805
347.602
348.399
349.196
349.993
350.79
351.587
352.384
353.181
353.978
354.774
355.571
356.368
357.165
357.962
358.759
359.556
360.353
361.15
361.947
362.744
363.54
364.337
365.134
365.931
366.728
367.525
368.322
369.119
369.916
370.712
371.509
372.306
373.103
373.9
374.697
375.494
376.291
377.088
377.884
378.681
379.478
380.275
381.072
381.869
382.666
383.463
384.26
385.056
385.853
386.65
387.447
388.244
389.041
389.838
390.635
391.431
392.228
393.025
393.822
394.619
395.416
396.213
397.01
397.807
398.603
399.4
400.197
400.994
401.791
402.588
403.385
404.182
404.979
405.775
406.572
407.369
408.166
408.963
409.76
410.557
411.354
412.151
412.947
413.744
414.541
415.338
416.135
416.932
417.729
418.526
419.323
420.119
420.916
421.713
422.51
423.307
424.104
424.901
425.698
426.495
427.291
428.088
428.885
429.682
430.479
431.276
432.073
432.87
433.667
434.463
435.26
436.057
436.854
437.651
438.448
439.245
440.042
440.839
441.635
442.432
443.229
444.026
444.823
445.62
446.417
447.214
448.01
448.807
449.604
450.401
451.198
451.995
452.792
453.589
454.386
455.182
455.979
456.776
457.573
458.37
459.167
459.964
460.761
461.558
462.354
463.151
463.948
464.745
465.542
466.339
467.136
467.933
468.73
469.526
470.323
471.12
471.917
472.714
473.511
474.308
475.105
475.902
476.698
477.495
478.292
479.089
479.886
480.683
481.48
482.277
483.074
483.87
484.667
485.464
486.261
487.058
487.855
488.652
489.449
490.246
491.042
491.839
492.636
493.433
494.23
495.027
495.824
496.621
497.418
498.214
499.011
499.808
500.605
501.402
502.199
502.996
503.793
504.59
505.386
506.183
506.98
507.777
508.574
509.371
510.168
510.965
511.762
512.558
513.355
514.152
514.949
515.746
516.543
517.34
518.137
518.934
519.73
520.527
521.324
522.121
522.918
523.715
524.512
525.309
526.106
526.902
527.699
528.496
529.293
530.09
530.888
258.443
255.007
254.355
254.099
254.433
255.112
255.964
256.861
257.822
258.797
259.788
260.787
261.804
262.826
263.852
264.889
265.918
266.948
267.978
269.008
270.037
271.065
272.083
273.078
274.05
275.003
275.935
276.849
277.746
278.627
279.495
280.35
281.195
282.033
282.866
283.693
284.516
285.335
286.15
286.963
287.773
288.582
289.388
290.194
290.998
291.801
292.603
293.404
294.205
295.005
295.805
296.604
297.403
298.202
299
299.798
300.596
301.394
302.192
302.989
303.787
304.584
305.382
306.179
306.976
307.773
308.57
309.367
310.164
310.961
311.758
312.555
313.352
314.149
314.946
315.743
316.54
317.337
318.134
318.931
319.728
320.525
321.322
322.119
322.916
323.712
324.509
325.306
326.103
326.9
327.697
328.494
329.291
330.088
330.885
331.681
332.478
333.275
334.072
334.869
335.666
336.463
337.26
338.057
338.853
339.65
340.447
341.244
342.041
342.838
343.635
344.432
345.228
346.025
346.822
347.619
348.416
349.213
350.01
350.807
351.604
352.4
353.197
353.994
354.791
355.588
356.385
357.182
357.979
358.776
359.572
360.369
361.166
361.963
362.76
363.557
364.354
365.151
365.948
366.744
367.541
368.338
369.135
369.932
370.729
371.526
372.323
373.12
373.916
374.713
375.51
376.307
377.104
377.901
378.698
379.495
380.292
381.088
381.885
382.682
383.479
384.276
385.073
385.87
386.667
387.464
388.26
389.057
389.854
390.651
391.448
392.245
393.042
393.839
394.636
395.432
396.229
397.026
397.823
398.62
399.417
400.214
401.011
401.807
402.604
403.401
404.198
404.995
405.792
406.589
407.386
408.183
408.979
409.776
410.573
411.37
412.167
412.964
413.761
414.558
415.355
416.151
416.948
417.745
418.542
419.339
420.136
420.933
421.73
422.527
423.323
424.12
424.917
425.714
426.511
427.308
428.105
428.902
429.699
430.495
431.292
432.089
432.886
433.683
434.48
435.277
436.074
436.871
437.667
438.464
439.261
440.058
440.855
441.652
442.449
443.246
444.043
444.839
445.636
446.433
447.23
448.027
448.824
449.621
450.418
451.215
452.011
452.808
453.605
454.402
455.199
455.996
456.793
457.59
458.387
459.183
459.98
460.777
461.574
462.371
463.168
463.965
464.762
465.559
466.355
467.152
467.949
468.746
469.543
470.34
471.137
471.934
472.731
473.527
474.324
475.121
475.918
476.715
477.512
478.309
479.106
479.903
480.699
481.496
482.293
483.09
483.887
484.684
485.481
486.278
487.075
487.871
488.668
489.465
490.262
491.059
491.856
492.653
493.45
494.248
221.827
218.375
217.712
217.452
217.789
218.469
219.321
220.218
221.18
222.156
223.147
224.146
225.164
226.186
227.211
228.251
229.279
230.309
231.339
232.368
233.397
234.427
235.445
236.44
237.411
238.364
239.296
240.209
241.106
241.987
242.855
243.71
244.555
245.393
246.226
247.053
247.876
248.694
249.51
250.323
251.133
251.941
252.748
253.554
254.358
255.161
255.963
256.764
257.565
258.365
259.165
259.964
260.763
261.561
262.36
263.158
263.956
264.754
265.551
266.349
267.147
267.944
268.741
269.538
270.336
271.133
271.93
272.727
273.524
274.321
275.118
275.915
276.712
277.509
278.306
279.103
279.9
280.697
281.494
282.291
283.088
283.885
284.681
285.478
286.275
287.072
287.869
288.666
289.463
290.26
291.057
291.853
292.65
293.447
294.244
295.041
295.838
296.635
297.432
298.229
299.025
299.822
300.619
301.416
302.213
303.01
303.807
304.604
305.401
306.197
306.994
307.791
308.588
309.385
310.182
310.979
311.776
312.573
313.369
314.166
314.963
315.76
316.557
317.354
318.151
318.948
319.745
320.541
321.338
322.135
322.932
323.729
324.526
325.323
326.12
326.917
327.713
328.51
329.307
330.104
330.901
331.698
332.495
333.292
334.089
334.885
335.682
336.479
337.276
338.073
338.87
339.667
340.464
341.261
342.057
342.854
343.651
344.448
345.245
346.042
346.839
347.636
348.433
349.229
350.026
350.823
351.62
352.417
353.214
354.011
354.808
355.604
356.401
357.198
357.995
358.792
359.589
360.386
361.183
361.98
362.776
363.573
364.37
365.167
365.964
366.761
367.558
368.355
369.152
369.948
370.745
371.542
372.339
373.136
373.933
374.73
375.527
376.324
377.12
377.917
378.714
379.511
380.308
381.105
381.902
382.699
383.496
384.292
385.089
385.886
386.683
387.48
388.277
389.074
389.871
390.668
391.464
392.261
393.058
393.855
394.652
395.449
396.246
397.043
397.84
398.636
399.433
400.23
401.027
401.824
402.621
403.418
404.215
405.012
405.808
406.605
407.402
408.199
408.996
409.793
410.59
411.387
412.184
412.98
413.777
414.574
415.371
416.168
416.965
417.762
418.559
419.356
420.152
420.949
421.746
422.543
423.34
424.137
424.934
425.731
426.528
427.324
428.121
428.918
429.715
430.512
431.309
432.106
432.903
433.7
434.496
435.293
436.09
436.887
437.684
438.481
439.278
440.075
440.872
441.668
442.465
443.262
444.059
444.856
445.653
446.45
447.247
448.044
448.84
449.637
450.434
451.231
452.028
452.825
453.622
454.419
455.216
456.012
456.809
457.607
)
;

boundaryField
{
    inlet
    {
        type            calculated;
        value           nonuniform List<scalar> 8(477.422 440.708 403.969 367.257 330.548 293.868 257.221 220.605);
    }
    outlet
    {
        type            calculated;
        value           nonuniform List<scalar> 8(714.487 677.846 641.206 604.566 567.925 531.285 494.645 458.004);
    }
    sideWall
    {
        type            empty;
    }
    bed
    {
        type            calculated;
        value           nonuniform List<scalar> 
300
(
496.964
493.093
492.454
492.194
492.538
493.234
494.099
494.998
495.961
496.938
497.933
498.93
499.949
500.973
502
503.038
504.067
505.099
506.129
507.16
508.19
509.221
510.24
511.237
512.21
513.164
514.096
515.011
515.907
516.789
517.657
518.512
519.358
520.196
521.028
521.855
522.678
523.497
524.312
525.125
525.936
526.744
527.551
528.356
529.16
529.963
530.765
531.567
532.367
533.168
533.967
534.766
535.565
536.364
537.162
537.961
538.759
539.556
540.354
541.152
541.949
542.747
543.544
544.341
545.138
545.935
546.733
547.53
548.327
549.124
549.921
550.718
551.515
552.312
553.109
553.906
554.703
555.499
556.296
557.093
557.89
558.687
559.484
560.281
561.078
561.875
562.672
563.469
564.265
565.062
565.859
566.656
567.453
568.25
569.047
569.844
570.641
571.437
572.234
573.031
573.828
574.625
575.422
576.219
577.016
577.813
578.609
579.406
580.203
581
581.797
582.594
583.391
584.188
584.985
585.781
586.578
587.375
588.172
588.969
589.766
590.563
591.36
592.157
592.953
593.75
594.547
595.344
596.141
596.938
597.735
598.532
599.329
600.125
600.922
601.719
602.516
603.313
604.11
604.907
605.704
606.5
607.297
608.094
608.891
609.688
610.485
611.282
612.079
612.876
613.672
614.469
615.266
616.063
616.86
617.657
618.454
619.251
620.048
620.844
621.641
622.438
623.235
624.032
624.829
625.626
626.423
627.22
628.016
628.813
629.61
630.407
631.204
632.001
632.798
633.595
634.392
635.188
635.985
636.782
637.579
638.376
639.173
639.97
640.767
641.564
642.36
643.157
643.954
644.751
645.548
646.345
647.142
647.939
648.736
649.532
650.329
651.126
651.923
652.72
653.517
654.314
655.111
655.908
656.704
657.501
658.298
659.095
659.892
660.689
661.486
662.283
663.08
663.876
664.673
665.47
666.267
667.064
667.861
668.658
669.455
670.252
671.048
671.845
672.642
673.439
674.236
675.033
675.83
676.627
677.424
678.22
679.017
679.814
680.611
681.408
682.205
683.002
683.799
684.596
685.392
686.189
686.986
687.783
688.58
689.377
690.174
690.971
691.767
692.564
693.361
694.158
694.955
695.752
696.549
697.346
698.143
698.939
699.736
700.533
701.33
702.127
702.924
703.721
704.518
705.315
706.111
706.908
707.705
708.502
709.299
710.096
710.893
711.69
712.487
713.283
714.08
714.877
715.674
716.471
717.268
718.065
718.862
719.659
720.455
721.252
722.049
722.846
723.643
724.44
725.237
726.034
726.831
727.627
728.424
729.221
730.018
730.815
731.612
732.402
)
;
    }
    topWall
    {
        type            calculated;
        value           nonuniform List<scalar> 
300
(
203.506
200.054
199.392
199.132
199.468
200.148
201.001
201.898
202.859
203.835
204.827
205.826
206.844
207.866
208.891
209.931
210.959
211.989
213.019
214.048
215.077
216.107
217.124
218.119
219.091
220.044
220.976
221.889
222.786
223.667
224.535
225.39
226.235
227.073
227.905
228.733
229.555
230.374
231.19
232.002
232.813
233.621
234.428
235.233
236.037
236.84
237.643
238.444
239.245
240.045
240.844
241.644
242.443
243.241
244.04
244.838
245.636
246.434
247.231
248.029
248.826
249.624
250.421
251.218
252.016
252.813
253.61
254.407
255.204
256.001
256.798
257.595
258.392
259.189
259.986
260.783
261.58
262.377
263.174
263.971
264.767
265.564
266.361
267.158
267.955
268.752
269.549
270.346
271.143
271.94
272.736
273.533
274.33
275.127
275.924
276.721
277.518
278.315
279.112
279.908
280.705
281.502
282.299
283.096
283.893
284.69
285.487
286.284
287.08
287.877
288.674
289.471
290.268
291.065
291.862
292.659
293.456
294.252
295.049
295.846
296.643
297.44
298.237
299.034
299.831
300.627
301.424
302.221
303.018
303.815
304.612
305.409
306.206
307.003
307.799
308.596
309.393
310.19
310.987
311.784
312.581
313.378
314.175
314.971
315.768
316.565
317.362
318.159
318.956
319.753
320.55
321.347
322.143
322.94
323.737
324.534
325.331
326.128
326.925
327.722
328.519
329.315
330.112
330.909
331.706
332.503
333.3
334.097
334.894
335.691
336.487
337.284
338.081
338.878
339.675
340.472
341.269
342.066
342.863
343.659
344.456
345.253
346.05
346.847
347.644
348.441
349.238
350.035
350.831
351.628
352.425
353.222
354.019
354.816
355.613
356.41
357.207
358.003
358.8
359.597
360.394
361.191
361.988
362.785
363.582
364.379
365.175
365.972
366.769
367.566
368.363
369.16
369.957
370.754
371.55
372.347
373.144
373.941
374.738
375.535
376.332
377.129
377.926
378.722
379.519
380.316
381.113
381.91
382.707
383.504
384.301
385.098
385.894
386.691
387.488
388.285
389.082
389.879
390.676
391.473
392.27
393.066
393.863
394.66
395.457
396.254
397.051
397.848
398.645
399.442
400.238
401.035
401.832
402.629
403.426
404.223
405.02
405.817
406.614
407.41
408.207
409.004
409.801
410.598
411.395
412.192
412.989
413.786
414.582
415.379
416.176
416.973
417.77
418.567
419.364
420.161
420.958
421.754
422.551
423.348
424.145
424.942
425.739
426.536
427.333
428.13
428.926
429.723
430.52
431.317
432.114
432.911
433.708
434.505
435.302
436.098
436.895
437.692
438.489
439.287
)
;
    }
}


// ************************************************************************* //
