/*--------------------------------*- C++ -*----------------------------------*\
| =========                 |                                                 |
| \\      /  F ield         | foam-extend: Open Source CFD                    |
|  \\    /   O peration     | Version:     3.2                                |
|   \\  /    A nd           | Web:         http://www.foam-extend.org         |
|    \\/     M anipulation  | For copyright notice see file Copyright         |
\*---------------------------------------------------------------------------*/
FoamFile
{
    version     2.0;
    format      ascii;
    class       surfaceScalarField;
    location    "200";
    object      phi;
}
// * * * * * * * * * * * * * * * * * * * * * * * * * * * * * * * * * * * * * //

dimensions      [0 3 -1 0 0 0 0];

internalField   nonuniform List<scalar> 
4492
(
1.70433e-05
5.17543e-06
1.39001e-05
3.14326e-06
1.19491e-05
1.95098e-06
1.10611e-05
8.87999e-07
1.07071e-05
3.54012e-07
1.05733e-05
1.33728e-07
1.05489e-05
2.44404e-08
1.05619e-05
-1.29652e-08
1.05943e-05
-3.24321e-08
1.06382e-05
-4.38807e-08
1.06834e-05
-4.52709e-08
1.0725e-05
-4.15881e-08
1.07684e-05
-4.33294e-08
1.08108e-05
-4.24586e-08
1.08514e-05
-4.05413e-08
1.08952e-05
-4.38481e-08
1.09393e-05
-4.40939e-08
1.09834e-05
-4.40639e-08
1.10276e-05
-4.42761e-08
1.10718e-05
-4.42018e-08
1.1116e-05
-4.4137e-08
1.11625e-05
-4.65095e-08
1.12124e-05
-4.99141e-08
1.12628e-05
-5.03594e-08
1.13096e-05
-4.68274e-08
1.13522e-05
-4.25895e-08
1.139e-05
-3.78236e-08
1.1423e-05
-3.30289e-08
1.14515e-05
-2.84426e-08
1.14759e-05
-2.44192e-08
1.14969e-05
-2.10192e-08
1.15146e-05
-1.7651e-08
1.1529e-05
-1.44535e-08
1.15406e-05
-1.15822e-08
1.15501e-05
-9.44476e-09
1.1558e-05
-7.92953e-09
1.15646e-05
-6.65873e-09
1.15703e-05
-5.62209e-09
1.1575e-05
-4.76673e-09
1.15791e-05
-4.0538e-09
1.15825e-05
-3.45294e-09
1.15855e-05
-2.94304e-09
1.1588e-05
-2.50868e-09
1.15901e-05
-2.1383e-09
1.15919e-05
-1.82256e-09
1.15935e-05
-1.55361e-09
1.15948e-05
-1.32467e-09
1.1596e-05
-1.12989e-09
1.15969e-05
-9.64187e-10
1.15977e-05
-8.23212e-10
1.15984e-05
-7.03227e-10
1.1599e-05
-6.01054e-10
1.15996e-05
-5.13993e-10
1.16e-05
-4.39757e-10
1.16004e-05
-3.76413e-10
1.16007e-05
-3.22327e-10
1.1601e-05
-2.76113e-10
1.16012e-05
-2.36603e-10
1.16014e-05
-2.02804e-10
1.16016e-05
-1.73877e-10
1.16017e-05
-1.49105e-10
1.16019e-05
-1.27884e-10
1.1602e-05
-1.09695e-10
1.16021e-05
-9.41014e-11
1.16022e-05
-8.07248e-11
1.16022e-05
-6.92483e-11
1.16023e-05
-5.93954e-11
1.16023e-05
-5.09374e-11
1.16024e-05
-4.36693e-11
1.16024e-05
-3.74293e-11
1.16024e-05
-3.20605e-11
1.16025e-05
-2.74552e-11
1.16025e-05
-2.34886e-11
1.16025e-05
-2.00463e-11
1.16025e-05
-1.71115e-11
1.16025e-05
-1.46464e-11
1.16026e-05
-1.25592e-11
1.16026e-05
-1.07155e-11
1.16026e-05
-9.11358e-12
1.16026e-05
-7.74922e-12
1.16026e-05
-6.59235e-12
1.16026e-05
-5.62332e-12
1.16026e-05
-4.86999e-12
1.16026e-05
-4.21918e-12
1.16026e-05
-3.59229e-12
1.16026e-05
-2.94945e-12
1.16026e-05
-2.39063e-12
1.16026e-05
-2.0247e-12
1.16026e-05
-1.80996e-12
1.16026e-05
-1.67628e-12
1.16026e-05
-1.51128e-12
1.16026e-05
-1.32479e-12
1.16026e-05
-1.08405e-12
1.16026e-05
-8.69461e-13
1.16026e-05
-7.41927e-13
1.16026e-05
-6.39518e-13
1.16026e-05
-5.51967e-13
1.16026e-05
-4.74708e-13
1.16026e-05
-4.055e-13
1.16026e-05
-3.43431e-13
1.16026e-05
-2.88027e-13
1.16026e-05
-2.38918e-13
1.16026e-05
-1.95708e-13
1.16026e-05
-1.57917e-13
1.16026e-05
-1.24978e-13
1.16026e-05
-9.62527e-14
1.16026e-05
-7.09876e-14
1.16026e-05
-4.82515e-14
1.16026e-05
-2.75321e-14
1.16026e-05
-8.98147e-15
1.16026e-05
7.28216e-15
1.16026e-05
2.12915e-14
1.16026e-05
3.30999e-14
1.16026e-05
4.27108e-14
1.16026e-05
5.00312e-14
1.16026e-05
5.51298e-14
1.16026e-05
5.82643e-14
1.16026e-05
5.97729e-14
1.16026e-05
5.99832e-14
1.16026e-05
5.91763e-14
1.16026e-05
5.75748e-14
1.16026e-05
5.53613e-14
1.16026e-05
5.27417e-14
1.16026e-05
4.99297e-14
1.16026e-05
4.70537e-14
1.16026e-05
4.41759e-14
1.16026e-05
4.13728e-14
1.16026e-05
3.87046e-14
1.16026e-05
3.619e-14
1.16026e-05
3.38233e-14
1.16026e-05
3.15871e-14
1.16026e-05
2.94627e-14
1.16026e-05
2.743e-14
1.16026e-05
2.54714e-14
1.16026e-05
2.3571e-14
1.16026e-05
2.17186e-14
1.16026e-05
1.99058e-14
1.16026e-05
1.81305e-14
1.16026e-05
1.64018e-14
1.16026e-05
1.47504e-14
1.16026e-05
1.32075e-14
1.16026e-05
1.17819e-14
1.16026e-05
1.04544e-14
1.16026e-05
9.19599e-15
1.16026e-05
7.99206e-15
1.16026e-05
6.83841e-15
1.16026e-05
5.73887e-15
1.16026e-05
4.72699e-15
1.16026e-05
3.84064e-15
1.16026e-05
3.09589e-15
1.16026e-05
2.48247e-15
1.16026e-05
1.98174e-15
1.16026e-05
1.57974e-15
1.16026e-05
1.26075e-15
1.16026e-05
1.00325e-15
1.16026e-05
7.94537e-16
1.16026e-05
6.30305e-16
1.16026e-05
5.05738e-16
1.16026e-05
4.14261e-16
1.16026e-05
3.56548e-16
1.16026e-05
3.33905e-16
1.16026e-05
3.44104e-16
1.16026e-05
3.80998e-16
1.16026e-05
4.35692e-16
1.16026e-05
4.9662e-16
1.16026e-05
5.53913e-16
1.16026e-05
5.99144e-16
1.16026e-05
6.23368e-16
1.16026e-05
6.28546e-16
1.16026e-05
6.29073e-16
1.16026e-05
6.52203e-16
1.16026e-05
7.31337e-16
1.16026e-05
9.10218e-16
1.16026e-05
1.25411e-15
1.16026e-05
1.89442e-15
1.16026e-05
2.95725e-15
1.16026e-05
4.49054e-15
1.16026e-05
6.53616e-15
1.16026e-05
9.12102e-15
1.16026e-05
1.22377e-14
1.16026e-05
1.58497e-14
1.16026e-05
1.98877e-14
1.16026e-05
2.4246e-14
1.16026e-05
2.87938e-14
1.16026e-05
3.33818e-14
1.16026e-05
3.78583e-14
1.16026e-05
4.20806e-14
1.16026e-05
4.59281e-14
1.16026e-05
4.93122e-14
1.16026e-05
5.21666e-14
1.16026e-05
5.44611e-14
1.16026e-05
5.61737e-14
1.16026e-05
5.73017e-14
1.16026e-05
5.80062e-14
1.16026e-05
5.85577e-14
1.16026e-05
5.90696e-14
1.16026e-05
5.94911e-14
1.16026e-05
5.98087e-14
1.16026e-05
5.99994e-14
1.16026e-05
5.99331e-14
1.16026e-05
5.94735e-14
1.16026e-05
5.85349e-14
1.16026e-05
5.71954e-14
1.16026e-05
5.56042e-14
1.16026e-05
5.36619e-14
1.16026e-05
5.147e-14
1.16026e-05
4.95837e-14
1.16026e-05
4.81503e-14
1.16026e-05
4.7036e-14
1.16026e-05
4.63144e-14
1.16026e-05
4.56982e-14
1.16026e-05
4.46606e-14
1.16026e-05
4.24798e-14
1.16026e-05
3.87991e-14
1.16026e-05
3.4215e-14
1.16026e-05
2.92857e-14
1.16026e-05
2.43184e-14
1.16026e-05
2.00548e-14
1.16026e-05
1.68946e-14
1.16026e-05
1.44169e-14
1.16026e-05
1.23705e-14
1.16026e-05
1.08175e-14
1.16026e-05
9.65533e-15
1.16026e-05
8.73964e-15
1.16026e-05
8.12383e-15
1.16026e-05
7.87914e-15
1.16026e-05
7.90516e-15
1.16026e-05
8.02524e-15
1.16026e-05
7.90837e-15
1.16026e-05
7.54506e-15
1.16026e-05
7.28301e-15
1.16026e-05
7.1577e-15
1.16026e-05
7.18723e-15
1.16026e-05
7.44966e-15
1.16026e-05
7.5622e-15
1.16026e-05
7.01832e-15
1.16026e-05
5.83024e-15
1.16026e-05
4.21783e-15
1.16026e-05
2.39375e-15
1.16026e-05
4.71794e-16
1.16026e-05
-1.54031e-15
1.16026e-05
-3.45206e-15
1.16026e-05
-4.90568e-15
1.16026e-05
-5.6163e-15
1.16026e-05
-5.44737e-15
1.16026e-05
-4.44693e-15
1.16026e-05
-2.89225e-15
1.16026e-05
-1.22965e-15
1.16026e-05
1.2702e-16
1.16026e-05
9.08013e-16
1.16026e-05
9.53665e-16
1.16026e-05
2.14233e-16
1.16026e-05
-1.23789e-15
1.16026e-05
-3.19385e-15
1.16026e-05
-5.34018e-15
1.16026e-05
-7.33724e-15
1.16026e-05
-8.89846e-15
1.16026e-05
-9.84327e-15
1.16026e-05
-1.01088e-14
1.16026e-05
-9.72342e-15
1.16026e-05
-8.74956e-15
1.16026e-05
-7.23226e-15
1.16026e-05
-5.23483e-15
1.16026e-05
-2.9415e-15
1.16026e-05
-6.02031e-16
1.16026e-05
1.53198e-15
1.16026e-05
3.22184e-15
1.16026e-05
4.30834e-15
1.16026e-05
4.72722e-15
1.16026e-05
4.53629e-15
1.16026e-05
3.88628e-15
1.16026e-05
2.97625e-15
1.16026e-05
1.99777e-15
1.16026e-05
1.08725e-15
1.16026e-05
3.1028e-16
1.16026e-05
-3.25543e-16
1.16026e-05
-8.9062e-16
1.16026e-05
-1.50464e-15
1.16026e-05
-2.2693e-15
1.16026e-05
-3.25507e-15
1.16026e-05
-4.46918e-15
1.16026e-05
-5.85944e-15
1.16026e-05
-7.32711e-15
1.16026e-05
-8.76488e-15
1.16026e-05
-9.99515e-15
1.16026e-05
-1.09276e-14
1.16026e-05
-1.11503e-14
1.16026e-05
-1.09421e-14
1.16026e-05
-8.76267e-15
1.16026e-05
-7.81875e-15
1.16026e-05
-7.19041e-17
1.16026e-05
-6.73531e-15
1.16026e-05
2.26522e-14
1.16026e-05
-5.33825e-14
1.16026e-05
-6.04819e-14
1.16026e-05
-1.7485e-12
1.16026e-05
-1.62359e-11
1.1603e-05
-3.49552e-10
1.16032e-05
-2.36855e-10
1.16655e-09
2.17584e-05
5.6358e-06
2.07062e-05
4.19545e-06
1.95828e-05
3.07437e-06
1.87075e-05
1.76331e-06
1.81438e-05
9.17753e-07
1.77749e-05
5.02582e-07
1.75392e-05
2.60183e-07
1.73806e-05
1.45597e-07
1.72718e-05
7.63296e-08
1.72051e-05
2.2887e-08
1.71696e-05
-9.83376e-09
1.71545e-05
-2.64824e-08
1.71572e-05
-4.60555e-08
1.71694e-05
-5.46397e-08
1.71918e-05
-6.29172e-08
1.72244e-05
-7.64724e-08
1.72644e-05
-8.40665e-08
1.73112e-05
-9.08643e-08
1.73633e-05
-9.6331e-08
1.74192e-05
-1.00182e-07
1.7478e-05
-1.02904e-07
1.75394e-05
-1.07867e-07
1.7603e-05
-1.13554e-07
1.76661e-05
-1.13499e-07
1.77251e-05
-1.05835e-07
1.77792e-05
-9.66714e-08
1.78279e-05
-8.65264e-08
1.78713e-05
-7.63469e-08
1.79093e-05
-6.65226e-08
1.79427e-05
-5.78013e-08
1.7972e-05
-5.03525e-08
1.79974e-05
-4.29847e-08
1.80188e-05
-3.5866e-08
1.80365e-05
-2.93128e-08
1.80513e-05
-2.42398e-08
1.80639e-05
-2.05358e-08
1.80747e-05
-1.7438e-08
1.80839e-05
-1.48576e-08
1.80919e-05
-1.26827e-08
1.80986e-05
-1.0836e-08
1.81044e-05
-9.25975e-09
1.81094e-05
-7.91122e-09
1.81137e-05
-6.75681e-09
1.81173e-05
-5.76914e-09
1.81204e-05
-4.92496e-09
1.8123e-05
-4.20411e-09
1.81253e-05
-3.58904e-09
1.81272e-05
-3.06449e-09
1.81289e-05
-2.61725e-09
1.81303e-05
-2.23593e-09
1.81315e-05
-1.91078e-09
1.81325e-05
-1.63345e-09
1.81334e-05
-1.39683e-09
1.81342e-05
-1.19487e-09
1.81348e-05
-1.02241e-09
1.81354e-05
-8.75097e-10
1.81359e-05
-7.49207e-10
1.81363e-05
-6.41583e-10
1.81366e-05
-5.49542e-10
1.81369e-05
-4.708e-10
1.81372e-05
-4.03413e-10
1.81374e-05
-3.45725e-10
1.81376e-05
-2.96325e-10
1.81377e-05
-2.5401e-10
1.81379e-05
-2.17751e-10
1.8138e-05
-1.86674e-10
1.81381e-05
-1.60027e-10
1.81382e-05
-1.37176e-10
1.81382e-05
-1.17567e-10
1.81383e-05
-1.00745e-10
1.81384e-05
-8.62945e-11
1.81384e-05
-7.39054e-11
1.81384e-05
-6.3246e-11
1.81385e-05
-5.4039e-11
1.81385e-05
-4.61782e-11
1.81385e-05
-3.95319e-11
1.81386e-05
-3.38691e-11
1.81386e-05
-2.89233e-11
1.81386e-05
-2.46549e-11
1.81386e-05
-2.10218e-11
1.81386e-05
-1.79359e-11
1.81386e-05
-1.53323e-11
1.81386e-05
-1.31832e-11
1.81386e-05
-1.13641e-11
1.81386e-05
-9.75269e-12
1.81386e-05
-8.28197e-12
1.81387e-05
-6.97413e-12
1.81387e-05
-6.01971e-12
1.81387e-05
-5.39004e-12
1.81387e-05
-4.82003e-12
1.81387e-05
-4.18996e-12
1.81387e-05
-3.52883e-12
1.81387e-05
-2.93029e-12
1.81387e-05
-2.50039e-12
1.81387e-05
-2.19393e-12
1.81387e-05
-1.92531e-12
1.81387e-05
-1.68536e-12
1.81387e-05
-1.46882e-12
1.81387e-05
-1.27319e-12
1.81387e-05
-1.09729e-12
1.81387e-05
-9.40142e-13
1.81387e-05
-8.00715e-13
1.81387e-05
-6.77782e-13
1.81387e-05
-5.69922e-13
1.81387e-05
-4.75547e-13
1.81387e-05
-3.92962e-13
1.81387e-05
-3.20355e-13
1.81387e-05
-2.5583e-13
1.81387e-05
-1.98076e-13
1.81387e-05
-1.46451e-13
1.81387e-05
-1.00515e-13
1.81387e-05
-6.01625e-14
1.81387e-05
-2.54071e-14
1.81387e-05
3.9356e-15
1.81387e-05
2.80193e-14
1.81387e-05
4.71043e-14
1.81387e-05
6.1584e-14
1.81387e-05
7.20063e-14
1.81387e-05
7.89515e-14
1.81387e-05
8.29821e-14
1.81387e-05
8.46026e-14
1.81387e-05
8.42808e-14
1.81387e-05
8.2499e-14
1.81387e-05
7.97241e-14
1.81387e-05
7.62964e-14
1.81387e-05
7.24504e-14
1.81387e-05
6.83989e-14
1.81387e-05
6.43041e-14
1.81387e-05
6.02524e-14
1.81387e-05
5.62784e-14
1.81387e-05
5.23884e-14
1.81387e-05
4.8572e-14
1.81387e-05
4.48115e-14
1.81387e-05
4.10856e-14
1.81387e-05
3.73753e-14
1.81387e-05
3.36672e-14
1.81387e-05
2.99544e-14
1.81387e-05
2.62355e-14
1.81387e-05
2.25343e-14
1.81387e-05
1.89084e-14
1.81387e-05
1.54086e-14
1.81387e-05
1.20376e-14
1.81387e-05
8.78614e-15
1.81387e-05
5.65144e-15
1.81387e-05
2.63865e-15
1.81387e-05
-2.24505e-16
1.81387e-05
-2.8923e-15
1.81387e-05
-5.28973e-15
1.81387e-05
-7.34829e-15
1.81387e-05
-9.04151e-15
1.81387e-05
-1.03912e-14
1.81387e-05
-1.14352e-14
1.81387e-05
-1.22083e-14
1.81387e-05
-1.27514e-14
1.81387e-05
-1.31117e-14
1.81387e-05
-1.33252e-14
1.81387e-05
-1.34135e-14
1.81387e-05
-1.34001e-14
1.81387e-05
-1.33039e-14
1.81387e-05
-1.31323e-14
1.81387e-05
-1.28944e-14
1.81387e-05
-1.2609e-14
1.81387e-05
-1.22999e-14
1.81387e-05
-1.19915e-14
1.81387e-05
-1.17065e-14
1.81387e-05
-1.14645e-14
1.81387e-05
-1.12855e-14
1.81387e-05
-1.11873e-14
1.81387e-05
-1.11688e-14
1.81387e-05
-1.11955e-14
1.81387e-05
-1.12034e-14
1.81387e-05
-1.11082e-14
1.81387e-05
-1.08044e-14
1.81387e-05
-1.01459e-14
1.81387e-05
-8.90364e-15
1.81387e-05
-6.82488e-15
1.81387e-05
-3.69482e-15
1.81387e-05
5.96078e-16
1.81387e-05
6.09165e-15
1.81387e-05
1.28634e-14
1.81387e-05
2.0903e-14
1.81387e-05
3.00919e-14
1.81387e-05
4.02221e-14
1.81387e-05
5.10144e-14
1.81387e-05
6.21394e-14
1.81387e-05
7.32492e-14
1.81387e-05
8.40081e-14
1.81387e-05
9.41189e-14
1.81387e-05
1.03345e-13
1.81387e-05
1.11495e-13
1.81387e-05
1.18456e-13
1.81387e-05
1.24114e-13
1.81387e-05
1.28399e-13
1.81387e-05
1.31689e-13
1.81387e-05
1.34594e-13
1.81387e-05
1.37204e-13
1.81387e-05
1.39304e-13
1.81387e-05
1.40957e-13
1.81387e-05
1.42173e-13
1.81387e-05
1.42622e-13
1.81387e-05
1.41986e-13
1.81387e-05
1.40125e-13
1.81387e-05
1.37173e-13
1.81387e-05
1.3331e-13
1.81387e-05
1.28323e-13
1.81387e-05
1.22926e-13
1.81387e-05
1.19161e-13
1.81387e-05
1.1747e-13
1.81387e-05
1.17016e-13
1.81387e-05
1.17407e-13
1.81387e-05
1.1725e-13
1.81387e-05
1.14559e-13
1.81387e-05
1.07906e-13
1.81387e-05
9.78421e-14
1.81387e-05
8.69238e-14
1.81387e-05
7.66737e-14
1.81387e-05
6.7313e-14
1.81387e-05
5.99996e-14
1.81387e-05
5.47786e-14
1.81387e-05
4.97839e-14
1.81387e-05
4.45256e-14
1.81387e-05
3.96777e-14
1.81387e-05
3.52667e-14
1.81387e-05
3.11757e-14
1.81387e-05
2.77061e-14
1.81387e-05
2.52148e-14
1.81387e-05
2.36554e-14
1.81387e-05
2.25132e-14
1.81387e-05
2.12244e-14
1.81387e-05
1.99341e-14
1.81387e-05
1.91544e-14
1.81387e-05
1.88171e-14
1.81387e-05
1.89002e-14
1.81387e-05
1.93864e-14
1.81387e-05
1.94737e-14
1.81387e-05
1.82284e-14
1.81387e-05
1.55579e-14
1.81387e-05
1.18042e-14
1.81387e-05
7.35021e-15
1.81387e-05
2.47716e-15
1.81387e-05
-2.62147e-15
1.81387e-05
-7.47088e-15
1.81387e-05
-1.13311e-14
1.81387e-05
-1.35779e-14
1.81387e-05
-1.38821e-14
1.81387e-05
-1.22989e-14
1.81387e-05
-9.33458e-15
1.81387e-05
-5.83994e-15
1.81387e-05
-2.68802e-15
1.81387e-05
-5.49761e-16
1.81387e-05
1.21047e-16
1.81387e-05
-9.05731e-16
1.81387e-05
-3.57166e-15
1.81387e-05
-7.49594e-15
1.81387e-05
-1.20569e-14
1.81387e-05
-1.65475e-14
1.81387e-05
-2.03315e-14
1.81387e-05
-2.29578e-14
1.81387e-05
-2.42002e-14
1.81387e-05
-2.40244e-14
1.81387e-05
-2.24959e-14
1.81387e-05
-1.96884e-14
1.81387e-05
-1.57206e-14
1.81387e-05
-1.08978e-14
1.81387e-05
-5.67372e-15
1.81387e-05
-5.52055e-16
1.81387e-05
3.98189e-15
1.81387e-05
7.54713e-15
1.81387e-05
9.89614e-15
1.81387e-05
1.09863e-14
1.81387e-05
1.09671e-14
1.81387e-05
1.01201e-14
1.81387e-05
8.76451e-15
1.81387e-05
7.16544e-15
1.81387e-05
5.48569e-15
1.81387e-05
3.78949e-15
1.81387e-05
2.01736e-15
1.81387e-05
6.66159e-18
1.81387e-05
-2.40337e-15
1.81387e-05
-5.29408e-15
1.81387e-05
-8.62263e-15
1.81387e-05
-1.22491e-14
1.81387e-05
-1.59488e-14
1.81387e-05
-1.94722e-14
1.81387e-05
-2.24634e-14
1.81387e-05
-2.46781e-14
1.81387e-05
-2.54196e-14
1.81387e-05
-2.49409e-14
1.81387e-05
-2.10034e-14
1.81387e-05
-1.79892e-14
1.81387e-05
-4.89239e-15
1.81387e-05
-1.13113e-14
1.81387e-05
3.08469e-14
1.81387e-05
-8.62646e-14
1.81387e-05
-2.24607e-13
1.81387e-05
-3.08506e-12
1.81387e-05
-3.23338e-11
1.81387e-05
-3.13909e-10
1.81385e-05
-8.84636e-11
9.06552e-10
2.30156e-05
4.83894e-06
2.32706e-05
3.9405e-06
2.31035e-05
3.24147e-06
2.26656e-05
2.20117e-06
2.21319e-05
1.45143e-06
2.16753e-05
9.59155e-07
2.13241e-05
6.11458e-07
2.10527e-05
4.16982e-07
2.08441e-05
2.84899e-07
2.06962e-05
1.70832e-07
2.05949e-05
9.13977e-08
2.05257e-05
4.27562e-08
2.04852e-05
-5.54852e-09
2.04694e-05
-3.8859e-08
2.04729e-05
-6.63799e-08
2.04899e-05
-9.3506e-08
2.0521e-05
-1.15206e-07
2.05633e-05
-1.33148e-07
2.06136e-05
-1.46578e-07
2.06701e-05
-1.56746e-07
2.07305e-05
-1.63321e-07
2.07925e-05
-1.69791e-07
2.0855e-05
-1.76035e-07
2.0916e-05
-1.74542e-07
2.09729e-05
-1.62712e-07
2.1025e-05
-1.48759e-07
2.10719e-05
-1.33505e-07
2.11138e-05
-1.18229e-07
2.11507e-05
-1.03435e-07
2.11832e-05
-9.02564e-08
2.12118e-05
-7.89492e-08
2.12366e-05
-6.77778e-08
2.12576e-05
-5.68957e-08
2.12751e-05
-4.67923e-08
2.12897e-05
-3.88742e-08
2.13022e-05
-3.30388e-08
2.13129e-05
-2.81598e-08
2.13221e-05
-2.40572e-08
2.133e-05
-2.05723e-08
2.13368e-05
-1.75955e-08
2.13426e-05
-1.50459e-08
2.13475e-05
-1.28607e-08
2.13518e-05
-1.09883e-08
2.13554e-05
-9.38551e-09
2.13585e-05
-8.01498e-09
2.13611e-05
-6.84412e-09
2.13634e-05
-5.84452e-09
2.13653e-05
-4.99152e-09
2.13669e-05
-4.26381e-09
2.13683e-05
-3.64301e-09
2.13695e-05
-3.11338e-09
2.13706e-05
-2.66146e-09
2.13715e-05
-2.27575e-09
2.13722e-05
-1.94645e-09
2.13728e-05
-1.66523e-09
2.13734e-05
-1.42499e-09
2.13739e-05
-1.21969e-09
2.13743e-05
-1.0442e-09
2.13746e-05
-8.94143e-10
2.13749e-05
-7.65795e-10
2.13752e-05
-6.55984e-10
2.13754e-05
-5.62008e-10
2.13756e-05
-4.81561e-10
2.13757e-05
-4.12677e-10
2.13759e-05
-3.53677e-10
2.1376e-05
-3.03128e-10
2.13761e-05
-2.59805e-10
2.13762e-05
-2.22667e-10
2.13762e-05
-1.90815e-10
2.13763e-05
-1.63498e-10
2.13764e-05
-1.40046e-10
2.13764e-05
-1.1994e-10
2.13764e-05
-1.0265e-10
2.13765e-05
-8.77481e-11
2.13765e-05
-7.50153e-11
2.13765e-05
-6.42109e-11
2.13765e-05
-5.49794e-11
2.13766e-05
-4.69602e-11
2.13766e-05
-4.00617e-11
2.13766e-05
-3.41902e-11
2.13766e-05
-2.91978e-11
2.13766e-05
-2.49766e-11
2.13766e-05
-2.14402e-11
2.13766e-05
-1.84534e-11
2.13766e-05
-1.58797e-11
2.13766e-05
-1.3625e-11
2.13766e-05
-1.1605e-11
2.13766e-05
-1.00515e-11
2.13767e-05
-8.96043e-12
2.13767e-05
-7.93302e-12
2.13767e-05
-6.86229e-12
2.13767e-05
-5.76747e-12
2.13767e-05
-4.83604e-12
2.13767e-05
-4.19723e-12
2.13767e-05
-3.70851e-12
2.13767e-05
-3.26974e-12
2.13767e-05
-2.87348e-12
2.13767e-05
-2.51409e-12
2.13767e-05
-2.18878e-12
2.13767e-05
-1.89596e-12
2.13767e-05
-1.63417e-12
2.13767e-05
-1.4017e-12
2.13767e-05
-1.19651e-12
2.13767e-05
-1.01627e-12
2.13767e-05
-8.58369e-13
2.13767e-05
-7.20079e-13
2.13767e-05
-5.98579e-13
2.13767e-05
-4.91115e-13
2.13767e-05
-3.95527e-13
2.13767e-05
-3.1027e-13
2.13767e-05
-2.34178e-13
2.13767e-05
-1.66722e-13
2.13767e-05
-1.07813e-13
2.13767e-05
-5.73175e-14
2.13767e-05
-1.49645e-14
2.13767e-05
1.96732e-14
2.13767e-05
4.71066e-14
2.13767e-05
6.8007e-14
2.13767e-05
8.31453e-14
2.13767e-05
9.33288e-14
2.13767e-05
9.93474e-14
2.13767e-05
1.0197e-13
2.13767e-05
1.01957e-13
2.13767e-05
1.00025e-13
2.13767e-05
9.6742e-14
2.13767e-05
9.25436e-14
2.13767e-05
8.77912e-14
2.13767e-05
8.27529e-14
2.13767e-05
7.75928e-14
2.13767e-05
7.23972e-14
2.13767e-05
6.72048e-14
2.13767e-05
6.20193e-14
2.13767e-05
5.68264e-14
2.13767e-05
5.16053e-14
2.13767e-05
4.63334e-14
2.13767e-05
4.09948e-14
2.13767e-05
3.55798e-14
2.13767e-05
3.00908e-14
2.13767e-05
2.45565e-14
2.13767e-05
1.90416e-14
2.13767e-05
1.3601e-14
2.13767e-05
8.24884e-15
2.13767e-05
3.00249e-15
2.13767e-05
-2.10237e-15
2.13767e-05
-7.00745e-15
2.13767e-05
-1.16352e-14
2.13767e-05
-1.58965e-14
2.13767e-05
-1.96875e-14
2.13767e-05
-2.29213e-14
2.13767e-05
-2.55631e-14
2.13767e-05
-2.76374e-14
2.13767e-05
-2.91965e-14
2.13767e-05
-3.0298e-14
2.13767e-05
-3.10093e-14
2.13767e-05
-3.1402e-14
2.13767e-05
-3.15347e-14
2.13767e-05
-3.14545e-14
2.13767e-05
-3.12059e-14
2.13767e-05
-3.08227e-14
2.13767e-05
-3.03235e-14
2.13767e-05
-2.97334e-14
2.13767e-05
-2.90887e-14
2.13767e-05
-2.84325e-14
2.13767e-05
-2.78062e-14
2.13767e-05
-2.72454e-14
2.13767e-05
-2.67812e-14
2.13767e-05
-2.6441e-14
2.13767e-05
-2.62517e-14
2.13767e-05
-2.62126e-14
2.13767e-05
-2.62723e-14
2.13767e-05
-2.63343e-14
2.13767e-05
-2.62682e-14
2.13767e-05
-2.59072e-14
2.13767e-05
-2.50331e-14
2.13767e-05
-2.33502e-14
2.13767e-05
-2.05135e-14
2.13767e-05
-1.61551e-14
2.13767e-05
-1.00116e-14
2.13767e-05
-1.95367e-15
2.13767e-05
8.14029e-15
2.13767e-05
2.02982e-14
2.13767e-05
3.43803e-14
2.13767e-05
5.01e-14
2.13767e-05
6.70484e-14
2.13767e-05
8.47316e-14
2.13767e-05
1.02614e-13
2.13767e-05
1.20169e-13
2.13767e-05
1.36921e-13
2.13767e-05
1.52475e-13
2.13767e-05
1.66512e-13
2.13767e-05
1.78822e-13
2.13767e-05
1.89203e-13
2.13767e-05
1.97512e-13
2.13767e-05
2.04154e-13
2.13767e-05
2.09841e-13
2.13767e-05
2.14641e-13
2.13767e-05
2.18271e-13
2.13767e-05
2.20892e-13
2.13767e-05
2.22663e-13
2.13767e-05
2.23283e-13
2.13767e-05
2.22425e-13
2.13767e-05
2.19953e-13
2.13767e-05
2.15995e-13
2.13767e-05
2.10668e-13
2.13767e-05
2.03562e-13
2.13767e-05
1.95672e-13
2.13767e-05
1.90224e-13
2.13767e-05
1.88269e-13
2.13767e-05
1.88381e-13
2.13767e-05
1.89568e-13
2.13767e-05
1.8979e-13
2.13767e-05
1.85929e-13
2.13767e-05
1.75843e-13
2.13767e-05
1.6064e-13
2.13767e-05
1.44293e-13
2.13767e-05
1.29354e-13
2.13767e-05
1.16125e-13
2.13767e-05
1.05613e-13
2.13767e-05
9.75818e-14
2.13767e-05
8.94311e-14
2.13767e-05
8.03361e-14
2.13767e-05
7.14367e-14
2.13767e-05
6.31491e-14
2.13767e-05
5.54809e-14
2.13767e-05
4.89126e-14
2.13767e-05
4.39245e-14
2.13767e-05
4.03961e-14
2.13767e-05
3.76055e-14
2.13767e-05
3.49503e-14
2.13767e-05
3.26695e-14
2.13767e-05
3.12891e-14
2.13767e-05
3.06676e-14
2.13767e-05
3.06936e-14
2.13767e-05
3.12363e-14
2.13767e-05
3.12807e-14
2.13767e-05
2.95674e-14
2.13767e-05
2.573e-14
2.13767e-05
2.00685e-14
2.13767e-05
1.3056e-14
2.13767e-05
5.13785e-15
2.13767e-05
-3.22234e-15
2.13767e-05
-1.12184e-14
2.13767e-05
-1.7762e-14
2.13767e-05
-2.18963e-14
2.13767e-05
-2.306e-14
2.13767e-05
-2.12484e-14
2.13767e-05
-1.71015e-14
2.13767e-05
-1.17881e-14
2.13767e-05
-6.63923e-15
2.13767e-05
-2.80086e-15
2.13767e-05
-1.10854e-15
2.13767e-05
-2.03541e-15
2.13767e-05
-5.58605e-15
2.13767e-05
-1.12556e-14
2.13767e-05
-1.81473e-14
2.13767e-05
-2.51933e-14
2.13767e-05
-3.13887e-14
2.13767e-05
-3.59713e-14
2.13767e-05
-3.85027e-14
2.13767e-05
-3.88444e-14
2.13767e-05
-3.70461e-14
2.13767e-05
-3.32206e-14
2.13767e-05
-2.75434e-14
2.13767e-05
-2.03833e-14
2.13767e-05
-1.23287e-14
2.13767e-05
-4.0976e-15
2.13767e-05
3.57291e-15
2.13767e-05
1.00331e-14
2.13767e-05
1.47985e-14
2.13767e-05
1.76581e-14
2.13767e-05
1.8698e-14
2.13767e-05
1.82423e-14
2.13767e-05
1.67279e-14
2.13767e-05
1.45635e-14
2.13767e-05
1.20318e-14
2.13767e-05
9.26477e-15
2.13767e-05
6.23145e-15
2.13767e-05
2.75737e-15
2.13767e-05
-1.36367e-15
2.13767e-05
-6.22835e-15
2.13767e-05
-1.17579e-14
2.13767e-05
-1.77299e-14
2.13767e-05
-2.37987e-14
2.13767e-05
-2.95651e-14
2.13767e-05
-3.45085e-14
2.13767e-05
-3.81969e-14
2.13767e-05
-3.9755e-14
2.13767e-05
-3.92072e-14
2.13767e-05
-3.42425e-14
2.13767e-05
-2.89099e-14
2.13767e-05
-1.28274e-14
2.13767e-05
-1.44874e-14
2.13767e-05
2.88447e-14
2.13767e-05
-9.20639e-14
2.13767e-05
-3.7134e-13
2.13767e-05
-3.58999e-12
2.13767e-05
-3.69288e-11
2.13766e-05
-2.53449e-10
2.13766e-05
-4.67091e-11
7.60857e-10
2.31862e-05
3.87144e-06
2.38754e-05
3.2514e-06
2.4386e-05
2.73079e-06
2.45373e-05
2.04995e-06
2.44618e-05
1.52687e-06
2.42548e-05
1.16622e-06
2.39645e-05
9.01736e-07
2.36824e-05
6.99099e-07
2.34418e-05
5.25463e-07
2.32458e-05
3.66822e-07
2.30873e-05
2.49884e-07
2.29627e-05
1.67402e-07
2.28739e-05
8.3195e-08
2.28168e-05
1.82674e-08
2.27854e-05
-3.50207e-08
2.27774e-05
-8.54231e-08
2.27857e-05
-1.23514e-07
2.28084e-05
-1.55845e-07
2.2844e-05
-1.82184e-07
2.28878e-05
-2.00614e-07
2.29371e-05
-2.12579e-07
2.2987e-05
-2.197e-07
2.30351e-05
-2.2413e-07
2.30807e-05
-2.20149e-07
2.31226e-05
-2.04554e-07
2.31604e-05
-1.86621e-07
2.31942e-05
-1.67305e-07
2.32241e-05
-1.48076e-07
2.32501e-05
-1.29506e-07
2.32729e-05
-1.13063e-07
2.3293e-05
-9.89664e-08
2.33102e-05
-8.50126e-08
2.33247e-05
-7.13593e-08
2.33366e-05
-5.86985e-08
2.33465e-05
-4.88362e-08
2.33551e-05
-4.15911e-08
2.33624e-05
-3.55139e-08
2.33687e-05
-3.0368e-08
2.33741e-05
-2.59779e-08
2.33788e-05
-2.22185e-08
2.33827e-05
-1.89959e-08
2.33861e-05
-1.62339e-08
2.3389e-05
-1.38682e-08
2.33914e-05
-1.18441e-08
2.33935e-05
-1.01138e-08
2.33953e-05
-8.63598e-09
2.33969e-05
-7.37444e-09
2.33982e-05
-6.29796e-09
2.33993e-05
-5.37955e-09
2.34002e-05
-4.59604e-09
2.3401e-05
-3.92755e-09
2.34017e-05
-3.35712e-09
2.34023e-05
-2.87025e-09
2.34028e-05
-2.4546e-09
2.34033e-05
-2.09964e-09
2.34036e-05
-1.79643e-09
2.3404e-05
-1.53735e-09
2.34042e-05
-1.31591e-09
2.34045e-05
-1.12659e-09
2.34047e-05
-9.64691e-10
2.34048e-05
-8.26199e-10
2.3405e-05
-7.07702e-10
2.34051e-05
-6.06288e-10
2.34052e-05
-5.1947e-10
2.34053e-05
-4.45128e-10
2.34054e-05
-3.81452e-10
2.34055e-05
-3.26894e-10
2.34055e-05
-2.80137e-10
2.34056e-05
-2.40047e-10
2.34056e-05
-2.05671e-10
2.34056e-05
-1.76172e-10
2.34057e-05
-1.50878e-10
2.34057e-05
-1.29142e-10
2.34057e-05
-1.10441e-10
2.34057e-05
-9.4443e-11
2.34058e-05
-8.08167e-11
2.34058e-05
-6.91556e-11
2.34058e-05
-5.90756e-11
2.34058e-05
-5.04254e-11
2.34058e-05
-4.30573e-11
2.34058e-05
-3.67857e-11
2.34058e-05
-3.14738e-11
2.34058e-05
-2.69996e-11
2.34058e-05
-2.32174e-11
2.34058e-05
-2.00305e-11
2.34058e-05
-1.72876e-11
2.34058e-05
-1.47828e-11
2.34058e-05
-1.27251e-11
2.34058e-05
-1.12171e-11
2.34058e-05
-9.93663e-12
2.34058e-05
-8.66935e-12
2.34058e-05
-7.34927e-12
2.34058e-05
-6.19516e-12
2.34058e-05
-5.37975e-12
2.34058e-05
-4.76036e-12
2.34058e-05
-4.20401e-12
2.34058e-05
-3.70102e-12
2.34059e-05
-3.24464e-12
2.34059e-05
-2.8314e-12
2.34059e-05
-2.4592e-12
2.34059e-05
-2.12614e-12
2.34059e-05
-1.83006e-12
2.34059e-05
-1.56845e-12
2.34059e-05
-1.33844e-12
2.34059e-05
-1.13683e-12
2.34059e-05
-9.60246e-13
2.34059e-05
-8.05242e-13
2.34059e-05
-6.68518e-13
2.34059e-05
-5.4731e-13
2.34059e-05
-4.39439e-13
2.34059e-05
-3.43192e-13
2.34059e-05
-2.57512e-13
2.34059e-05
-1.81995e-13
2.34059e-05
-1.16527e-13
2.34059e-05
-6.09211e-14
2.34059e-05
-1.47338e-14
2.34059e-05
2.25965e-14
2.34059e-05
5.17733e-14
2.34059e-05
7.36322e-14
2.34059e-05
8.9098e-14
2.34059e-05
9.9124e-14
2.34059e-05
1.04667e-13
2.34059e-05
1.06674e-13
2.34059e-05
1.06027e-13
2.34059e-05
1.03461e-13
2.34059e-05
9.9562e-14
2.34059e-05
9.48096e-14
2.34059e-05
8.95564e-14
2.34059e-05
8.40328e-14
2.34059e-05
7.83713e-14
2.34059e-05
7.26388e-14
2.34059e-05
6.68546e-14
2.34059e-05
6.10122e-14
2.34059e-05
5.50908e-14
2.34059e-05
4.90663e-14
2.34059e-05
4.29185e-14
2.34059e-05
3.66352e-14
2.34059e-05
3.02163e-14
2.34059e-05
2.36865e-14
2.34059e-05
1.70996e-14
2.34059e-05
1.05036e-14
2.34059e-05
3.92874e-15
2.34059e-05
-2.58295e-15
2.34059e-05
-8.95974e-15
2.34059e-05
-1.50991e-14
2.34059e-05
-2.0886e-14
2.34059e-05
-2.62029e-14
2.34059e-05
-3.09301e-14
2.34059e-05
-3.49701e-14
2.34059e-05
-3.82795e-14
2.34059e-05
-4.08763e-14
2.34059e-05
-4.28151e-14
2.34059e-05
-4.41652e-14
2.34059e-05
-4.50106e-14
2.34059e-05
-4.5436e-14
2.34059e-05
-4.55167e-14
2.34059e-05
-4.53188e-14
2.34059e-05
-4.4902e-14
2.34059e-05
-4.43122e-14
2.34059e-05
-4.35791e-14
2.34059e-05
-4.27383e-14
2.34059e-05
-4.18362e-14
2.34059e-05
-4.09267e-14
2.34059e-05
-4.00621e-14
2.34059e-05
-3.92899e-14
2.34059e-05
-3.86496e-14
2.34059e-05
-3.81752e-14
2.34059e-05
-3.78975e-14
2.34059e-05
-3.78199e-14
2.34059e-05
-3.7888e-14
2.34059e-05
-3.79939e-14
2.34059e-05
-3.79853e-14
2.34059e-05
-3.76654e-14
2.34059e-05
-3.67804e-14
2.34059e-05
-3.50098e-14
2.34059e-05
-3.19786e-14
2.34059e-05
-2.72553e-14
2.34059e-05
-2.04421e-14
2.34059e-05
-1.12824e-14
2.34059e-05
3.84235e-16
2.34059e-05
1.46169e-14
2.34059e-05
3.12966e-14
2.34059e-05
5.01182e-14
2.34059e-05
7.06232e-14
2.34059e-05
9.22367e-14
2.34059e-05
1.14323e-13
2.34059e-05
1.36245e-13
2.34059e-05
1.57413e-13
2.34059e-05
1.77329e-13
2.34059e-05
1.95585e-13
2.34059e-05
2.11889e-13
2.34059e-05
2.25985e-13
2.34059e-05
2.3768e-13
2.34059e-05
2.47236e-13
2.34059e-05
2.55196e-13
2.34059e-05
2.61602e-13
2.34059e-05
2.66225e-13
2.34059e-05
2.69276e-13
2.34059e-05
2.7106e-13
2.34059e-05
2.71506e-13
2.34059e-05
2.70465e-13
2.34059e-05
2.67857e-13
2.34059e-05
2.63756e-13
2.34059e-05
2.58188e-13
2.34059e-05
2.50591e-13
2.34059e-05
2.41799e-13
2.34059e-05
2.35408e-13
2.34059e-05
2.33099e-13
2.34059e-05
2.33308e-13
2.34059e-05
2.34674e-13
2.34059e-05
2.35134e-13
2.34059e-05
2.3115e-13
2.34059e-05
2.19948e-13
2.34059e-05
2.02514e-13
2.34059e-05
1.83484e-13
2.34059e-05
1.66339e-13
2.34059e-05
1.51402e-13
2.34059e-05
1.39075e-13
2.34059e-05
1.29042e-13
2.34059e-05
1.18595e-13
2.34059e-05
1.06508e-13
2.34059e-05
9.42416e-14
2.34059e-05
8.28087e-14
2.34059e-05
7.24061e-14
2.34059e-05
6.359e-14
2.34059e-05
5.68106e-14
2.34059e-05
5.18091e-14
2.34059e-05
4.78065e-14
2.34059e-05
4.41377e-14
2.34059e-05
4.10239e-14
2.34059e-05
3.90746e-14
2.34059e-05
3.80958e-14
2.34059e-05
3.79201e-14
2.34059e-05
3.84873e-14
2.34059e-05
3.87033e-14
2.34059e-05
3.70138e-14
2.34059e-05
3.27978e-14
2.34059e-05
2.62947e-14
2.34059e-05
1.79825e-14
2.34059e-05
8.35023e-15
2.34059e-05
-2.0317e-15
2.34059e-05
-1.21986e-14
2.34059e-05
-2.08396e-14
2.34059e-05
-2.67389e-14
2.34059e-05
-2.91062e-14
2.34059e-05
-2.77855e-14
2.34059e-05
-2.33663e-14
2.34059e-05
-1.70989e-14
2.34059e-05
-1.05611e-14
2.34059e-05
-5.24909e-15
2.34059e-05
-2.33855e-15
2.34059e-05
-2.56268e-15
2.34059e-05
-6.07656e-15
2.34059e-05
-1.24011e-14
2.34059e-05
-2.05383e-14
2.34059e-05
-2.92164e-14
2.34059e-05
-3.71709e-14
2.34059e-05
-4.3382e-14
2.34059e-05
-4.72019e-14
2.34059e-05
-4.83596e-14
2.34059e-05
-4.68553e-14
2.34059e-05
-4.28191e-14
2.34059e-05
-3.64596e-14
2.34059e-05
-2.81482e-14
2.34059e-05
-1.84924e-14
2.34059e-05
-8.29235e-15
2.34059e-05
1.56479e-15
2.34059e-05
1.02333e-14
2.34059e-05
1.7025e-14
2.34059e-05
2.15423e-14
2.34059e-05
2.37472e-14
2.34059e-05
2.39284e-14
2.34059e-05
2.25736e-14
2.34059e-05
2.01989e-14
2.34059e-05
1.72036e-14
2.34059e-05
1.38045e-14
2.34059e-05
1.00215e-14
2.34059e-05
5.69957e-15
2.34059e-05
6.1168e-16
2.34059e-05
-5.37561e-15
2.34059e-05
-1.21988e-14
2.34059e-05
-1.96121e-14
2.34059e-05
-2.72144e-14
2.34059e-05
-3.45219e-14
2.34059e-05
-4.09258e-14
2.34059e-05
-4.58682e-14
2.34059e-05
-4.8414e-14
2.34059e-05
-4.83529e-14
2.34059e-05
-4.35865e-14
2.34059e-05
-3.7252e-14
2.34059e-05
-2.08537e-14
2.34059e-05
-1.79416e-14
2.34059e-05
2.09369e-14