/*--------------------------------*- C++ -*----------------------------------*\
| =========                 |                                                 |
| \\      /  F ield         | foam-extend: Open Source CFD                    |
|  \\    /   O peration     | Version:     3.2                                |
|   \\  /    A nd           | Web:         http://www.foam-extend.org         |
|    \\/     M anipulation  | For copyright notice see file Copyright         |
\*---------------------------------------------------------------------------*/
FoamFile
{
    version     2.0;
    format      ascii;
    class       areaScalarField;
    location    "120";
    object      a;
}
// * * * * * * * * * * * * * * * * * * * * * * * * * * * * * * * * * * * * * //

dimensions      [1 -1 0 0 0 0 0];

internalField   nonuniform List<scalar> 
550
(
2.78678e-05
2.78678e-05
2.78678e-05
2.78678e-05
2.78678e-05
2.78678e-05
2.78678e-05
2.78678e-05
2.78678e-05
2.78678e-05
2.78678e-05
2.78678e-05
2.78678e-05
2.78678e-05
2.78678e-05
2.78678e-05
2.78678e-05
2.78678e-05
2.78678e-05
2.78678e-05
2.78678e-05
2.78678e-05
2.78678e-05
2.78678e-05
2.78678e-05
2.78678e-05
2.78678e-05
2.78678e-05
2.78678e-05
2.78678e-05
2.78678e-05
2.78678e-05
2.78678e-05
2.78678e-05
2.78678e-05
2.78678e-05
2.78678e-05
2.78678e-05
2.78678e-05
2.78678e-05
2.78678e-05
2.78678e-05
2.78678e-05
2.78678e-05
2.78678e-05
2.78678e-05
2.78678e-05
2.78678e-05
2.78678e-05
2.78678e-05
2.78678e-05
2.78678e-05
2.78678e-05
2.78678e-05
2.78678e-05
2.78678e-05
2.78678e-05
2.78678e-05
2.78678e-05
2.78516e-05
2.78604e-05
2.7864e-05
2.78655e-05
2.78657e-05
2.7865e-05
2.78637e-05
2.78619e-05
2.786e-05
2.78579e-05
2.78558e-05
2.78537e-05
2.78516e-05
2.78496e-05
2.78475e-05
2.78454e-05
2.78433e-05
2.78411e-05
2.78389e-05
2.78367e-05
2.78344e-05
2.78319e-05
2.78293e-05
2.78267e-05
2.78239e-05
2.78212e-05
2.78184e-05
2.78158e-05
2.78132e-05
2.78107e-05
2.78083e-05
2.7806e-05
2.78038e-05
2.78017e-05
2.77997e-05
2.77978e-05
2.7796e-05
2.77943e-05
2.77928e-05
2.77914e-05
2.77901e-05
2.77889e-05
2.77877e-05
2.77866e-05
2.77856e-05
2.77846e-05
2.77837e-05
2.7783e-05
2.77823e-05
2.77818e-05
2.77814e-05
2.7781e-05
2.77808e-05
2.77805e-05
2.77803e-05
2.778e-05
2.77797e-05
2.77794e-05
2.7779e-05
2.77785e-05
2.77781e-05
2.77775e-05
2.77769e-05
2.77763e-05
2.77756e-05
2.77748e-05
2.7774e-05
2.77732e-05
2.77723e-05
2.77713e-05
2.77702e-05
2.7769e-05
2.77677e-05
2.77663e-05
2.77648e-05
2.77633e-05
2.77617e-05
2.77601e-05
2.77585e-05
2.7757e-05
2.77554e-05
2.77539e-05
2.77524e-05
2.7751e-05
2.77497e-05
2.77484e-05
2.77472e-05
2.7746e-05
2.77449e-05
2.77439e-05
2.77428e-05
2.77419e-05
2.77409e-05
2.77399e-05
2.7739e-05
2.7738e-05
2.7737e-05
2.7736e-05
2.7735e-05
2.77338e-05
2.77326e-05
2.77313e-05
2.77299e-05
2.77283e-05
2.77266e-05
2.77247e-05
2.77226e-05
2.77204e-05
2.7718e-05
2.77154e-05
2.77127e-05
2.77098e-05
2.77067e-05
2.77034e-05
2.77e-05
2.76965e-05
2.76929e-05
2.76891e-05
2.76853e-05
2.76814e-05
2.76776e-05
2.76738e-05
2.767e-05
2.76664e-05
2.76629e-05
2.76596e-05
2.76564e-05
2.76535e-05
2.76507e-05
2.76482e-05
2.7646e-05
2.76441e-05
2.76425e-05
2.76412e-05
2.76402e-05
2.76397e-05
2.76395e-05
2.76396e-05
2.76402e-05
2.76411e-05
2.76423e-05
2.76437e-05
2.76455e-05
2.76475e-05
2.76497e-05
2.76521e-05
2.76546e-05
2.76574e-05
2.76602e-05
2.76631e-05
2.76661e-05
2.76692e-05
2.76725e-05
2.76759e-05
2.76795e-05
2.76833e-05
2.76872e-05
2.76913e-05
2.76956e-05
2.76999e-05
2.77044e-05
2.7709e-05
2.77136e-05
2.77184e-05
2.77233e-05
2.77281e-05
2.7733e-05
2.77376e-05
2.77422e-05
2.77466e-05
2.77509e-05
2.77551e-05
2.77591e-05
2.7763e-05
2.77668e-05
2.77705e-05
2.7774e-05
2.77774e-05
2.77807e-05
2.77837e-05
2.77866e-05
2.77893e-05
2.77917e-05
2.77938e-05
2.77956e-05
2.77971e-05
2.77982e-05
2.77989e-05
2.77992e-05
2.77991e-05
2.77985e-05
2.77975e-05
2.7796e-05
2.7794e-05
2.77915e-05
2.77885e-05
2.7785e-05
2.7781e-05
2.77765e-05
2.77715e-05
2.77661e-05
2.77602e-05
2.77539e-05
2.77472e-05
2.77401e-05
2.77327e-05
2.77249e-05
2.77168e-05
2.77085e-05
2.77001e-05
2.76914e-05
2.76827e-05
2.76738e-05
2.76649e-05
2.7656e-05
2.7647e-05
2.7638e-05
2.76291e-05
2.76201e-05
2.76113e-05
2.76025e-05
2.75938e-05
2.75852e-05
2.75769e-05
2.75686e-05
2.75606e-05
2.75529e-05
2.75453e-05
2.75381e-05
2.75311e-05
2.75244e-05
2.7518e-05
2.75119e-05
2.75061e-05
2.75006e-05
2.74955e-05
2.74907e-05
2.74862e-05
2.7482e-05
2.74781e-05
2.74745e-05
2.74713e-05
2.74683e-05
2.74656e-05
2.74633e-05
2.74611e-05
2.74593e-05
2.74577e-05
2.74563e-05
2.74552e-05
2.74543e-05
2.74535e-05
2.7453e-05
2.74528e-05
2.74528e-05
2.7453e-05
2.74536e-05
2.74544e-05
2.74556e-05
2.74572e-05
2.74591e-05
2.74614e-05
2.74641e-05
2.74671e-05
2.74703e-05
2.74739e-05
2.74777e-05
2.74818e-05
2.7486e-05
2.74905e-05
2.74953e-05
2.75002e-05
2.75053e-05
2.75108e-05
2.75164e-05
2.75224e-05
2.75286e-05
2.75351e-05
2.75419e-05
2.7549e-05
2.75563e-05
2.75639e-05
2.75716e-05
2.75795e-05
2.75875e-05
2.75955e-05
2.76036e-05
2.76117e-05
2.76198e-05
2.76279e-05
2.76358e-05
2.76435e-05
2.76511e-05
2.76583e-05
2.76654e-05
2.76721e-05
2.76786e-05
2.76849e-05
2.76909e-05
2.76967e-05
2.77023e-05
2.77077e-05
2.77129e-05
2.77179e-05
2.77229e-05
2.77277e-05
2.77325e-05
2.77371e-05
2.77417e-05
2.77461e-05
2.77504e-05
2.77545e-05
2.77584e-05
2.77619e-05
2.77651e-05
2.7768e-05
2.77703e-05
2.77722e-05
2.77736e-05
2.77744e-05
2.77746e-05
2.77742e-05
2.77732e-05
2.77715e-05
2.77691e-05
2.7766e-05
2.77622e-05
2.77577e-05
2.77525e-05
2.77467e-05
2.77402e-05
2.77331e-05
2.77256e-05
2.77175e-05
2.7709e-05
2.77002e-05
2.76911e-05
2.76819e-05
2.76724e-05
2.76629e-05
2.76533e-05
2.76437e-05
2.76342e-05
2.76249e-05
2.76156e-05
2.76066e-05
2.75977e-05
2.75891e-05
2.75806e-05
2.75722e-05
2.75638e-05
2.75555e-05
2.75472e-05
2.75387e-05
2.75302e-05
2.75216e-05
2.75128e-05
2.75038e-05
2.74948e-05
2.74856e-05
2.74763e-05
2.7467e-05
2.74575e-05
2.7448e-05
2.74385e-05
2.7429e-05
2.74195e-05
2.741e-05
2.74008e-05
2.73917e-05
2.7383e-05
2.73745e-05
2.73665e-05
2.73589e-05
2.73517e-05
2.73449e-05
2.73387e-05
2.73329e-05
2.73276e-05
2.73227e-05
2.73183e-05
2.73143e-05
2.73108e-05
2.73076e-05
2.73049e-05
2.73025e-05
2.73004e-05
2.72988e-05
2.72976e-05
2.72968e-05
2.72964e-05
2.72966e-05
2.72974e-05
2.72987e-05
2.73007e-05
2.73033e-05
2.73066e-05
2.73104e-05
2.73148e-05
2.73198e-05
2.73252e-05
2.73311e-05
2.73374e-05
2.7344e-05
2.7351e-05
2.73582e-05
2.73656e-05
2.73732e-05
2.7381e-05
2.7389e-05
2.73972e-05
2.74057e-05
2.74143e-05
2.74231e-05
2.7432e-05
2.7441e-05
2.745e-05
2.7459e-05
2.74679e-05
2.74767e-05
2.74853e-05
2.74936e-05
2.75016e-05
2.75093e-05
2.75167e-05
2.75238e-05
2.75306e-05
2.7537e-05
2.75431e-05
2.75487e-05
2.7554e-05
2.7559e-05
2.75636e-05
2.75679e-05
2.75719e-05
2.75756e-05
2.7579e-05
2.75819e-05
2.75843e-05
2.75862e-05
2.75876e-05
2.75885e-05
2.75891e-05
2.75894e-05
2.75895e-05
2.75893e-05
2.75889e-05
2.75884e-05
2.75877e-05
2.75868e-05
2.75857e-05
2.75842e-05
2.75822e-05
2.75798e-05
2.75767e-05
2.75732e-05
2.75691e-05
2.75646e-05
2.75599e-05
2.75549e-05
2.75498e-05
2.75445e-05
2.75391e-05
2.75335e-05
2.75278e-05
2.75218e-05
2.75156e-05
2.75092e-05
2.75025e-05
2.74954e-05
2.74876e-05
2.74789e-05
2.74686e-05
2.74564e-05
2.74409e-05
2.74209e-05
2.73916e-05
2.73542e-05
2.7276e-05
2.72928e-05
2.74632e-05
2.78678e-05
2.78678e-05
2.78678e-05
2.78678e-05
2.78678e-05
2.78678e-05
2.78678e-05
2.78678e-05
2.78678e-05
2.78678e-05
)
;

boundaryField
{
    inlet
    {
        type            calculated;
        value           uniform 0;
    }
    endWall
    {
        type            calculated;
        value           uniform 0;
    }
    sideWall
    {
        type            empty;
    }
}


// ************************************************************************* //
