/*--------------------------------*- C++ -*----------------------------------*\
| =========                 |                                                 |
| \\      /  F ield         | foam-extend: Open Source CFD                    |
|  \\    /   O peration     | Version:     3.2                                |
|   \\  /    A nd           | Web:         http://www.foam-extend.org         |
|    \\/     M anipulation  | For copyright notice see file Copyright         |
\*---------------------------------------------------------------------------*/
FoamFile
{
    version     2.0;
    format      ascii;
    class       areaVectorField;
    location    "120";
    object      aUf;
}
// * * * * * * * * * * * * * * * * * * * * * * * * * * * * * * * * * * * * * //

dimensions      [0 1 -1 0 0 0 0];

internalField   nonuniform List<vector> 
550
(
(0.0697939 0 0.000108708)
(0.081638 0 0.00010455)
(0.0939009 -1.4837e-29 0.000156484)
(0.106291 0 0.000176383)
(0.118496 5.30477e-30 0.000221877)
(0.130187 0 0.000228315)
(0.141103 -4.21732e-29 0.000243804)
(0.151011 5.25743e-29 0.000248384)
(0.159779 5.92238e-29 0.000273215)
(0.167313 -4.15466e-29 0.000284625)
(0.173615 4.63293e-29 0.000288994)
(0.178709 0 0.000276321)
(0.182687 -1.72337e-38 0.000266509)
(0.18564 5.90483e-29 0.000245857)
(0.187686 0 0.000218219)
(0.18894 6.20411e-29 0.000186605)
(0.189523 -6.73558e-29 0.000144312)
(0.189547 5.92862e-29 0.000103887)
(0.189123 3.56524e-29 6.95595e-05)
(0.18837 0 3.74442e-05)
(0.187357 1.21426e-29 1.19695e-05)
(0.186142 -1.02365e-29 -1.00447e-05)
(0.184774 0 -2.94779e-05)
(0.183296 1.14552e-29 -4.9235e-05)
(0.181748 0 -6.88521e-05)
(0.180164 0 -8.87e-05)
(0.178572 1.63937e-29 -0.000107168)
(0.177 0 -0.000119019)
(0.175469 0 -0.000124736)
(0.173981 0 -0.000131134)
(0.172539 -1.00541e-29 -0.000137507)
(0.171149 -1.02313e-29 -0.000143333)
(0.169815 0 -0.000149312)
(0.168541 0 -0.000155448)
(0.167327 1.15494e-29 -0.000161821)
(0.166174 0 -0.000168201)
(0.165082 0 -0.00017433)
(0.164049 0 -0.000180286)
(0.163075 1.32437e-29 -0.000186307)
(0.162158 0 -0.000192529)
(0.161294 0 -0.000199648)
(0.160483 1.55324e-29 -0.000206944)
(0.159721 0 -0.00021325)
(0.159005 -1.55389e-29 -0.000219439)
(0.158333 0 -0.000225409)
(0.157703 0 -0.000231541)
(0.15711 0 -0.000238248)
(0.156555 0 -0.000244713)
(0.156034 -1.75239e-29 -0.000250745)
(0.155545 1.76576e-29 -0.000256378)
(0.155085 -1.77693e-29 -0.00026165)
(0.154655 1.77994e-29 -0.000266478)
(0.15425 0 -0.000270741)
(0.153868 0 -0.000274312)
(0.153509 0 -0.000277317)
(0.15317 -3.40107e-29 -0.000279907)
(0.152849 1.66356e-29 -0.00028188)
(0.152545 0 -0.000283169)
(0.152256 3.00314e-29 -0.000283127)
(0.15198 0 -0.000285052)
(0.151716 0 -0.00028203)
(0.151467 0 -0.000267221)
(0.151234 0 -0.000256578)
(0.151015 1.14045e-29 -0.000253758)
(0.150807 1.20474e-29 -0.00025215)
(0.150609 0 -0.000252017)
(0.15042 1.29622e-29 -0.00025233)
(0.150238 0 -0.00025288)
(0.150062 -1.27001e-29 -0.000253416)
(0.149893 -1.24739e-29 -0.000253905)
(0.149729 -1.22824e-29 -0.000254366)
(0.149569 -1.20392e-29 -0.000254727)
(0.149414 0 -0.000255072)
(0.149263 -1.18083e-29 -0.000255529)
(0.149115 1.16553e-29 -0.000256078)
(0.148971 -1.14355e-29 -0.000256654)
(0.148829 0 -0.00025731)
(0.14869 -1.10573e-29 -0.000258088)
(0.148554 1.08921e-36 -0.000258701)
(0.148421 1.00487e-29 -0.000259076)
(0.14829 0 -0.000259548)
(0.148163 9.62145e-30 -0.000260035)
(0.148037 -1.88449e-29 -0.00026053)
(0.147914 -1.84392e-29 -0.000261008)
(0.147793 9.00165e-30 -0.000261437)
(0.147674 8.7615e-30 -0.000261785)
(0.147557 -8.51586e-30 -0.000262043)
(0.147441 0 -0.000262175)
(0.147326 -7.93942e-30 -0.000262151)
(0.147212 7.47302e-30 -0.000261753)
(0.1471 -7.08638e-30 -0.000261139)
(0.146987 0 -0.000260716)
(0.146876 -7.05464e-30 -0.000260636)
(0.146764 7.0534e-30 -0.000260734)
(0.146653 0 -0.000260756)
(0.146542 -1.35381e-29 -0.000260936)
(0.146431 0 -0.00026157)
(0.146321 7.45724e-30 -0.000262701)
(0.146212 0 -0.000263483)
(0.146103 0 -0.000263538)
(0.145995 0 -0.000263325)
(0.145887 -6.48041e-30 -0.000262965)
(0.145779 0 -0.000262568)
(0.145671 6.33215e-30 -0.00026213)
(0.145562 0 -0.000261698)
(0.145453 0 -0.00026126)
(0.145344 0 -0.000260828)
(0.145233 6.21771e-30 -0.00026036)
(0.145122 6.21806e-30 -0.000259897)
(0.14501 1.23905e-29 -0.000259407)
(0.144897 0 -0.000258912)
(0.144783 1.24284e-29 -0.000258464)
(0.144668 6.13795e-30 -0.000257974)
(0.144552 -5.94184e-30 -0.000257282)
(0.144435 -6.00449e-30 -0.000256603)
(0.144317 1.26565e-29 -0.000256224)
(0.144198 1.25725e-29 -0.000255837)
(0.144077 0 -0.000255299)
(0.143956 0 -0.000254826)
(0.143834 6.09794e-30 -0.000254388)
(0.143712 2.99261e-37 -0.000253961)
(0.143589 -2.67214e-37 -0.000253554)
(0.143464 -3.73582e-37 -0.000253154)
(0.14334 6.04494e-30 -0.00025278)
(0.143214 -6.02735e-30 -0.000252421)
(0.143088 6.01639e-30 -0.000252089)
(0.142962 -5.99879e-30 -0.000251777)
(0.142835 -5.98214e-30 -0.00025149)
(0.142708 0 -0.000251232)
(0.142581 -5.94147e-30 -0.000251007)
(0.142454 0 -0.000250815)
(0.142326 -1.17984e-29 -0.000250654)
(0.142199 0 -0.000250524)
(0.142072 -5.84896e-30 -0.000250419)
(0.141945 0 -0.000250342)
(0.141818 0 -0.000250285)
(0.141691 0 -0.000250249)
(0.141565 -5.7237e-30 -0.00025023)
(0.14144 0 -0.000250227)
(0.141315 -5.65762e-30 -0.000250237)
(0.14119 2.77384e-40 -0.000250257)
(0.141066 5.59159e-30 -0.000250287)
(0.140943 0 -0.000250326)
(0.14082 -5.52988e-30 -0.000250373)
(0.140698 -2.30295e-37 -0.000250419)
(0.140577 -5.45902e-30 -0.000250462)
(0.140457 5.42341e-30 -0.000250497)
(0.140337 0 -0.000250527)
(0.140218 0 -0.000250554)
(0.1401 -1.07163e-29 -0.000250582)
(0.139982 -1.0416e-37 -0.000250616)
(0.139866 1.06761e-29 -0.000250656)
(0.13975 0 -0.000250708)
(0.139635 0 -0.000250768)
(0.139522 -5.31576e-30 -0.000250833)
(0.139409 5.30692e-30 -0.000250906)
(0.139297 0 -0.000250978)
(0.139186 0 -0.000251049)
(0.139076 5.26386e-30 -0.00025112)
(0.138967 0 -0.000251197)
(0.13886 0 -0.000251287)
(0.138753 5.23404e-30 -0.000251398)
(0.138648 0 -0.000251529)
(0.138544 5.21043e-30 -0.000251677)
(0.138441 3.56137e-38 -0.00025184)
(0.138339 2.23905e-38 -0.000252018)
(0.138238 5.15392e-30 -0.000252208)
(0.138139 -5.12866e-30 -0.000252406)
(0.138041 0 -0.000252606)
(0.137944 0 -0.00025281)
(0.137849 0 -0.000253024)
(0.137755 0 -0.000253249)
(0.137662 0 -0.000253481)
(0.137571 -4.93352e-30 -0.000253711)
(0.137481 0 -0.000253938)
(0.137392 4.85622e-30 -0.00025417)
(0.137304 0 -0.000254407)
(0.137217 0 -0.000254642)
(0.137132 0 -0.00025488)
(0.137047 -7.78713e-38 -0.000255122)
(0.136964 9.33183e-30 -0.000255367)
(0.136881 -3.124e-38 -0.000255612)
(0.1368 4.60527e-30 -0.000255856)
(0.136719 0 -0.0002561)
(0.136639 -4.53658e-30 -0.000256338)
(0.13656 -9.00592e-30 -0.00025657)
(0.136481 8.94817e-30 -0.000256805)
(0.136404 0 -0.000257036)
(0.136327 -4.39817e-30 -0.000257254)
(0.13625 0 -0.000257462)
(0.136175 -8.64583e-30 -0.000257672)
(0.1361 0 -0.000257888)
(0.136026 0 -0.000258107)
(0.135952 4.23705e-30 -0.000258326)
(0.135879 0 -0.000258547)
(0.135806 0 -0.000258765)
(0.135734 0 -0.000258969)
(0.135662 -8.28893e-30 -0.000259155)
(0.135591 4.1211e-30 -0.000259331)
(0.135521 8.20338e-30 -0.000259507)
(0.135451 0 -0.000259687)
(0.135382 0 -0.000259865)
(0.135314 -4.02701e-30 -0.000260044)
(0.135247 0 -0.000260221)
(0.13518 3.95181e-30 -0.000260382)
(0.135115 7.84773e-30 -0.000260553)
(0.13505 -7.81221e-30 -0.000260753)
(0.134986 7.74136e-30 -0.000260952)
(0.134923 0 -0.000261141)
(0.134861 -3.78519e-30 -0.000261318)
(0.1348 0 -0.000261422)
(0.13474 0 -0.000261472)
(0.134681 0 -0.00026153)
(0.134622 -3.48618e-30 -0.000261598)
(0.134564 0 -0.000261678)
(0.134506 3.3648e-30 -0.000261757)
(0.13445 3.30736e-30 -0.000261856)
(0.134394 3.25998e-30 -0.000261987)
(0.134339 0 -0.00026214)
(0.134286 0 -0.000262318)
(0.134233 0 -0.000262505)
(0.134182 3.07503e-30 -0.000262695)
(0.134131 3.0257e-30 -0.000262874)
(0.134082 -2.95362e-30 -0.000262999)
(0.134034 0 -0.000263089)
(0.133987 0 -0.000263205)
(0.133941 0 -0.000263371)
(0.133896 1.22921e-37 -0.000263551)
(0.133853 -2.82851e-30 -0.000263718)
(0.13381 5.62753e-30 -0.000263899)
(0.133769 0 -0.000264097)
(0.133729 2.78245e-30 -0.000264301)
(0.133689 2.75327e-30 -0.0002645)
(0.133651 -5.43711e-30 -0.000264688)
(0.133614 2.69249e-30 -0.000264888)
(0.133578 4.5482e-38 -0.000265114)
(0.133543 0 -0.000265338)
(0.13351 0 -0.000265556)
(0.133477 0 -0.000265782)
(0.133445 2.46446e-30 -0.000266019)
(0.133414 0 -0.000266251)
(0.133385 -4.63491e-30 -0.000266472)
(0.133356 -2.23967e-30 -0.000266685)
(0.133329 2.15621e-30 -0.000266884)
(0.133303 -2.07049e-30 -0.000267068)
(0.133278 1.98273e-30 -0.000267235)
(0.133254 -1.88243e-30 -0.000267364)
(0.133232 0 -0.000267456)
(0.13321 -1.72273e-30 -0.000267551)
(0.13319 0 -0.00026764)
(0.133171 0 -0.000267695)
(0.133153 -1.50479e-30 -0.000267713)
(0.133137 0 -0.000267714)
(0.133121 0 -0.000267679)
(0.133106 2.63093e-30 -0.000267599)
(0.133093 0 -0.000267502)
(0.13308 2.53149e-37 -0.000267404)
(0.133068 0 -0.000267314)
(0.133057 0 -0.000267196)
(0.133047 0 -0.000267047)
(0.133037 0 -0.000266848)
(0.133028 0 -0.000266552)
(0.133019 0 -0.000266308)
(0.133011 -2.24281e-30 -0.000266166)
(0.133003 0 -0.000266043)
(0.132995 0 -0.000265994)
(0.132987 0 -0.000265958)
(0.132979 0 -0.000265869)
(0.132971 0 -0.000265756)
(0.132963 0 -0.000265622)
(0.132954 0 -0.00026546)
(0.132945 -2.03117e-30 -0.000265279)
(0.132936 0 -0.000265069)
(0.132926 0 -0.000264847)
(0.132916 0 -0.000264605)
(0.132905 0 -0.000264362)
(0.132893 1.29266e-37 -0.000264112)
(0.13288 0 -0.000263858)
(0.132867 9.93475e-31 -0.000263591)
(0.132852 0 -0.000263336)
(0.132837 0 -0.000263076)
(0.132821 0 -0.000262821)
(0.132803 -1.1166e-30 -0.000262568)
(0.132785 0 -0.00026233)
(0.132766 -1.23221e-37 -0.000262105)
(0.132745 0 -0.000261896)
(0.132724 -1.88212e-37 -0.000261691)
(0.132701 0 -0.000261502)
(0.132678 -2.70952e-30 -0.00026132)
(0.132653 0 -0.000261148)
(0.132627 -2.31462e-37 -0.000260978)
(0.132601 0 -0.000260824)
(0.132573 0 -0.00026067)
(0.132544 2.89636e-30 -0.000260531)
(0.132515 0 -0.000260391)
(0.132484 -1.17624e-37 -0.00026026)
(0.132453 0 -0.000260119)
(0.132421 -7.68162e-38 -0.000259972)
(0.132388 0 -0.00025982)
(0.132354 1.40942e-30 -0.000259654)
(0.13232 0 -0.000259482)
(0.132285 1.39152e-30 -0.000259293)
(0.132249 0 -0.000259101)
(0.132212 2.78875e-30 -0.000258908)
(0.132175 0 -0.000258707)
(0.132137 -3.60007e-38 -0.000258503)
(0.132098 0 -0.0002583)
(0.132059 -1.46166e-30 -0.000258097)
(0.132019 0 -0.000257907)
(0.131979 1.52957e-30 -0.000257725)
(0.131938 0 -0.000257564)
(0.131897 -1.61929e-30 -0.000257418)
(0.131855 1.66562e-30 -0.000257289)
(0.131812 1.7112e-30 -0.000257174)
(0.131769 -1.75905e-30 -0.000257075)
(0.131726 0 -0.000256992)
(0.131682 0 -0.000256923)
(0.131637 -1.89001e-30 -0.00025686)
(0.131592 -3.85938e-30 -0.000256807)
(0.131547 -1.96278e-30 -0.000256756)
(0.131501 -3.98308e-30 -0.000256709)
(0.131455 2.01321e-30 -0.00025666)
(0.131408 -2.03788e-30 -0.00025662)
(0.131361 0 -0.00025658)
(0.131313 -4.15902e-30 -0.00025656)
(0.131266 0 -0.000256546)
(0.131218 0 -0.000256552)
(0.131169 0 -0.000256562)
(0.131121 0 -0.000256587)
(0.131072 0 -0.000256622)
(0.131024 0 -0.000256678)
(0.130975 -4.16421e-30 -0.000256742)
(0.130926 0 -0.000256814)
(0.130877 2.02829e-30 -0.000256888)
(0.130828 0 -0.000256965)
(0.130779 0 -0.000257034)
(0.130729 0 -0.000257093)
(0.13068 1.85462e-30 -0.000257129)
(0.130631 0 -0.000257145)
(0.130582 -3.47794e-30 -0.000257132)
(0.130533 0 -0.000257082)
(0.130485 -1.6059e-30 -0.000256978)
(0.130436 0 -0.000256853)
(0.130388 1.52653e-30 -0.000256722)
(0.130339 0 -0.000256563)
(0.130291 1.45334e-30 -0.000256376)
(0.130243 1.4388e-30 -0.000256175)
(0.130195 1.42309e-30 -0.000255949)
(0.130147 -2.81094e-30 -0.000255684)
(0.130099 0 -0.000255363)
(0.130052 0 -0.000254982)
(0.130004 0 -0.000254586)
(0.129957 2.82746e-30 -0.000254242)
(0.12991 0 -0.000254067)
(0.129863 1.62548e-30 -0.000254025)
(0.129817 -1.65503e-30 -0.00025399)
(0.12977 0 -0.000253944)
(0.129724 0 -0.000253888)
(0.129678 0 -0.000253838)
(0.129632 1.75731e-30 -0.000253796)
(0.129587 0 -0.000253748)
(0.129543 0 -0.000253714)
(0.129498 0 -0.000253716)
(0.129454 -3.76271e-30 -0.000253721)
(0.129411 -3.79652e-30 -0.000253716)
(0.129368 0 -0.000253769)
(0.129326 -3.98003e-30 -0.00025386)
(0.129284 -1.99489e-30 -0.000253935)
(0.129243 -4.00457e-30 -0.000254006)
(0.129202 -2.01242e-30 -0.000254089)
(0.129162 0 -0.000254188)
(0.129123 -2.00694e-30 -0.000254283)
(0.129085 0 -0.00025437)
(0.129047 0 -0.00025446)
(0.12901 -1.93767e-30 -0.000254547)
(0.128974 0 -0.000254624)
(0.128938 0 -0.000254687)
(0.128903 0 -0.000254734)
(0.128869 0 -0.00025476)
(0.128835 -1.74345e-30 -0.000254756)
(0.128801 0 -0.000254705)
(0.128768 1.61383e-30 -0.000254578)
(0.128736 0 -0.000254389)
(0.128704 -1.49881e-30 -0.000254183)
(0.128673 0 -0.00025397)
(0.128642 -1.4258e-30 -0.000253758)
(0.128611 0 -0.000253546)
(0.128581 0 -0.000253347)
(0.128552 1.37642e-30 -0.0002532)
(0.128522 1.33587e-30 -0.000253031)
(0.128494 -1.30579e-30 -0.000252857)
(0.128465 -1.33621e-30 -0.000252794)
(0.128437 0 -0.000252747)
(0.128409 1.2621e-30 -0.000252655)
(0.128382 0 -0.000252613)
(0.128355 0 -0.000252617)
(0.128328 -2.48788e-30 -0.000252607)
(0.128301 0 -0.000252573)
(0.128273 0 -0.000252532)
(0.128246 0 -0.000252485)
(0.128219 0 -0.000252421)
(0.128191 1.1178e-30 -0.000252328)
(0.128164 1.09143e-30 -0.000252207)
(0.128136 0 -0.000252069)
(0.128107 0 -0.000251953)
(0.128078 1.08852e-30 -0.000251833)
(0.128049 1.07739e-30 -0.000251682)
(0.128019 -1.07486e-30 -0.000251511)
(0.127988 0 -0.000251323)
(0.127958 -1.10073e-30 -0.00025112)
(0.127926 0 -0.000250909)
(0.127894 5.63275e-39 -0.000250692)
(0.127862 1.15829e-30 -0.000250476)
(0.12783 0 -0.000250265)
(0.127797 -1.18946e-30 -0.000250062)
(0.127764 0 -0.000249868)
(0.127731 0 -0.000249688)
(0.127697 0 -0.000249511)
(0.127663 -1.28331e-30 -0.000249348)
(0.127628 1.30587e-30 -0.000249188)
(0.127593 0 -0.000249038)
(0.127558 2.6782e-30 -0.000248886)
(0.127522 0 -0.000248728)
(0.127486 0 -0.000248571)
(0.12745 2.71312e-30 -0.000248414)
(0.127412 0 -0.000248253)
(0.127375 1.37119e-30 -0.000248091)
(0.127336 -1.38452e-30 -0.00024792)
(0.127296 1.40722e-30 -0.000247753)
(0.127256 0 -0.000247581)
(0.127215 2.90602e-30 -0.000247407)
(0.127172 1.47703e-30 -0.000247228)
(0.127129 0 -0.000247044)
(0.127084 0 -0.000246852)
(0.127039 7.41418e-38 -0.000246646)
(0.126992 0 -0.000246422)
(0.126944 0 -0.000246192)
(0.126895 0 -0.000245952)
(0.126845 0 -0.00024572)
(0.126794 3.34021e-30 -0.000245485)
(0.126742 -1.71173e-30 -0.000245265)
(0.126689 0 -0.000245058)
(0.126635 0 -0.00024487)
(0.12658 -1.85478e-30 -0.000244696)
(0.126524 0 -0.000244548)
(0.126467 0 -0.000244412)
(0.12641 0 -0.000244296)
(0.126352 0 -0.000244202)
(0.126294 0 -0.000244122)
(0.126235 -1.14682e-37 -0.000244067)
(0.126175 0 -0.000244028)
(0.126115 -2.06042e-30 -0.000243993)
(0.126055 4.10842e-30 -0.000243952)
(0.125994 0 -0.0002439)
(0.125933 2.04499e-30 -0.000243832)
(0.125871 2.04142e-30 -0.000243749)
(0.125809 6.68038e-38 -0.000243649)
(0.125746 0 -0.000243532)
(0.125683 0 -0.000243392)
(0.125619 2.07379e-30 -0.000243234)
(0.125556 0 -0.000243057)
(0.125491 -3.21363e-38 -0.000242872)
(0.125427 0 -0.000242678)
(0.125362 0 -0.00024248)
(0.125297 0 -0.000242278)
(0.125232 0 -0.000242083)
(0.125167 -2.28442e-30 -0.000241907)
(0.125101 0 -0.00024177)
(0.125035 4.77122e-30 -0.00024166)
(0.124969 -2.43829e-30 -0.000241583)
(0.124903 0 -0.000241526)
(0.124836 2.51244e-30 -0.000241484)
(0.12477 0 -0.000241443)
(0.124704 -2.53296e-30 -0.00024142)
(0.124638 2.51837e-30 -0.000241393)
(0.124572 2.50829e-30 -0.000241382)
(0.124507 4.93191e-30 -0.000241347)
(0.124442 -1.1155e-37 -0.000241308)
(0.124378 -1.50384e-38 -0.000241242)
(0.124315 0 -0.000241176)
(0.124252 0 -0.000241082)
(0.124189 2.2171e-30 -0.000240984)
(0.124127 -1.0161e-37 -0.000240864)
(0.124066 -4.32898e-30 -0.000240764)
(0.124005 -2.14222e-30 -0.000240656)
(0.123945 -4.31567e-30 -0.000240579)
(0.123885 -4.29645e-30 -0.00024049)
(0.123827 2.17612e-30 -0.000240432)
(0.123768 2.17542e-30 -0.000240366)
(0.123711 3.51961e-38 -0.000240339)
(0.123654 2.21585e-30 -0.0002403)
(0.123598 -2.26017e-30 -0.000240296)
(0.123542 -2.2563e-30 -0.00024026)
(0.123487 -2.30146e-30 -0.000240261)
(0.123433 2.28085e-30 -0.000240225)
(0.123379 -2.31285e-30 -0.000240243)
(0.123325 0 -0.000240237)
(0.123273 0 -0.000240315)
(0.123221 4.4064e-30 -0.00024038)
(0.123169 -2.196e-30 -0.000240535)
(0.123119 2.07365e-30 -0.000240627)
(0.123068 0 -0.00024078)
(0.123019 5.70271e-39 -0.00024082)
(0.12297 -1.13294e-37 -0.00024091)
(0.122921 0 -0.000240878)
(0.122874 3.36781e-30 -0.000240892)
(0.122826 0 -0.000240767)
(0.122779 1.54589e-30 -0.000240696)
(0.122732 1.40914e-30 -0.000240462)
(0.122685 0 -0.000240297)
(0.122639 0 -0.000239968)
(0.122593 -1.43838e-30 -0.000239749)
(0.122547 -1.368e-30 -0.000239387)
(0.122502 1.5073e-30 -0.000239184)
(0.122456 1.47588e-30 -0.000238868)
(0.12241 1.63357e-30 -0.000238748)
(0.122364 3.27696e-30 -0.000238547)
(0.122318 -1.76874e-30 -0.000238519)
(0.122272 0 -0.000238397)
(0.122226 1.15071e-37 -0.000238376)
(0.12218 0 -0.000238188)
(0.122134 -3.68673e-30 -0.000238069)
(0.122088 0 -0.000237633)
(0.122042 3.40855e-30 -0.000237255)
(0.121995 1.5206e-30 -0.000236439)
(0.121949 0 -0.000235439)
(0.1219 0 -0.000233819)
(0.12185 1.0604e-30 -0.000231032)
(0.121795 0 -0.000227054)
(0.121738 0 -0.000221366)
(0.121669 0 -0.000212404)
(0.121594 -1.28744e-30 -0.000201109)
(0.121494 5.52985e-30 -0.000183051)
(0.121378 0 -0.000161913)
(0.121212 6.8805e-34 -0.000127529)
(0.121014 0 -9.19663e-05)
(0.120707 -1.74978e-29 -5.8678e-05)
(0.120371 0 0.000131394)
(0.119553 -3.81678e-27 -0.000716622)
(0.118133 -6.47435e-28 -0.000741429)
(0.116302 0 0.000469112)
(0.113958 0 0.00097152)
(0.110405 0 0.00163945)
(0.105428 1.78809e-29 0.00209645)
(0.0982111 0 0.00308721)
(0.0876444 4.12842e-28 0.00672187)
(0.0683202 -1.82972e-28 0.0117906)
(0.0205493 0 0.0432503)
(-0.0545968 0 0.00582728)
(-0.0707384 0 -0.0108972)
)
;

boundaryField
{
    inlet
    {
        type            calculated;
        value           uniform (0 0 0);
    }
    endWall
    {
        type            calculated;
        value           uniform (0 0 0);
    }
    sideWall
    {
        type            empty;
    }
}


// ************************************************************************* //
