/*--------------------------------*- C++ -*----------------------------------*\
| =========                 |                                                 |
| \\      /  F ield         | foam-extend: Open Source CFD                    |
|  \\    /   O peration     | Version:     3.2                                |
|   \\  /    A nd           | Web:         http://www.foam-extend.org         |
|    \\/     M anipulation  | For copyright notice see file Copyright         |
\*---------------------------------------------------------------------------*/
FoamFile
{
    version     2.0;
    format      ascii;
    class       areaScalarField;
    location    "120";
    object      Cpost;
}
// * * * * * * * * * * * * * * * * * * * * * * * * * * * * * * * * * * * * * //

dimensions      [1 -3 0 0 0 0 0];

internalField   nonuniform List<scalar> 
550
(
0.0247
0.0247
0.0247
0.0247
0.0247
0.0247
0.0247
0.0247
0.0247
0.0247
0.0247
0.0247
0.0247
0.0247
0.0247
0.0247
0.0247
0.0247
0.0247
0.0247
0.0247
0.0247
0.0247
0.0247
0.0247
0.0247
0.0247
0.0247
0.0247
0.0247
0.0247
0.0247
0.0247
0.0247
0.0247
0.0247
0.0247
0.0247
0.0247
0.0247
0.0247
0.0247
0.0247
0.0247
0.0247
0.0247
0.0247
0.0247
0.0247
0.0247
0.0247
0.0247
0.0247
0.0247
0.0247
0.0247
0.0247
0.0247
0.0247
0.0247
0.0247072
0.0247128
0.0247173
0.0247207
0.0247231
0.0247247
0.0247256
0.0247258
0.0247255
0.0247246
0.0247232
0.0247214
0.0247192
0.0247166
0.0247138
0.0247106
0.0247072
0.0247035
0.0246996
0.0246955
0.0246912
0.0246867
0.0246821
0.0246773
0.0246724
0.0246673
0.0246621
0.0246568
0.0246514
0.0246459
0.0246402
0.0246345
0.0246287
0.0246227
0.0246167
0.0246105
0.0246043
0.0245979
0.0245915
0.0245849
0.0245783
0.0245716
0.0245648
0.0245579
0.0245509
0.0245439
0.0245367
0.0245294
0.024522
0.0245146
0.024507
0.0244993
0.0244915
0.0244836
0.0244756
0.0244675
0.0244593
0.024451
0.0244425
0.024434
0.0244253
0.0244165
0.0244076
0.0243986
0.0243895
0.0243803
0.024371
0.0243615
0.024352
0.0243424
0.0243326
0.0243228
0.0243128
0.0243028
0.0242927
0.0242825
0.0242722
0.0242618
0.0242514
0.0242409
0.0242303
0.0242196
0.0242089
0.0241982
0.0241874
0.0241765
0.0241656
0.0241547
0.0241437
0.0241327
0.0241216
0.0241106
0.0240995
0.0240884
0.0240773
0.0240661
0.024055
0.0240438
0.0240327
0.0240215
0.0240103
0.0239991
0.023988
0.0239768
0.0239656
0.0239544
0.0239432
0.023932
0.0239209
0.0239097
0.0238985
0.0238873
0.0238762
0.023865
0.0238538
0.0238426
0.0238314
0.0238202
0.023809
0.0237978
0.0237866
0.0237754
0.0237642
0.0237529
0.0237416
0.0237303
0.023719
0.0237077
0.0236964
0.023685
0.0236737
0.0236623
0.0236509
0.0236394
0.023628
0.0236165
0.0236051
0.0235936
0.0235821
0.0235706
0.0235591
0.0235476
0.0235361
0.0235246
0.0235131
0.0235016
0.0234901
0.0234786
0.0234671
0.0234557
0.0234442
0.0234328
0.0234213
0.0234099
0.0233985
0.0233871
0.0233757
0.0233643
0.023353
0.0233416
0.0233303
0.0233191
0.0233079
0.0232967
0.0232855
0.0232744
0.0232633
0.0232523
0.0232413
0.0232304
0.0232195
0.0232086
0.0231978
0.0231871
0.0231764
0.0231658
0.0231552
0.0231447
0.0231342
0.0231238
0.0231134
0.0231031
0.0230929
0.0230827
0.0230726
0.0230626
0.0230526
0.0230427
0.0230328
0.023023
0.0230132
0.0230035
0.0229939
0.0229843
0.0229747
0.0229652
0.0229558
0.0229464
0.022937
0.0229277
0.0229185
0.0229093
0.0229001
0.022891
0.0228819
0.0228729
0.0228639
0.0228549
0.022846
0.0228371
0.0228282
0.0228194
0.0228106
0.0228019
0.0227932
0.0227845
0.0227759
0.0227673
0.0227587
0.0227501
0.0227416
0.0227331
0.0227247
0.0227163
0.0227079
0.0226995
0.0226911
0.0226828
0.0226745
0.0226663
0.022658
0.0226498
0.0226416
0.0226335
0.0226253
0.0226172
0.0226091
0.0226011
0.0225931
0.0225851
0.0225771
0.0225692
0.0225613
0.0225534
0.0225455
0.0225377
0.0225299
0.0225221
0.0225144
0.0225066
0.0224989
0.0224913
0.0224836
0.022476
0.0224684
0.0224608
0.0224532
0.0224456
0.0224381
0.0224306
0.022423
0.0224155
0.022408
0.0224005
0.022393
0.0223855
0.022378
0.0223705
0.022363
0.0223554
0.0223478
0.0223403
0.0223327
0.022325
0.0223174
0.0223097
0.022302
0.0222942
0.0222865
0.0222787
0.0222709
0.022263
0.0222552
0.0222473
0.0222394
0.0222314
0.0222234
0.0222154
0.0222074
0.0221993
0.0221912
0.0221831
0.0221749
0.0221667
0.0221585
0.0221503
0.022142
0.0221337
0.0221254
0.022117
0.0221086
0.0221002
0.0220918
0.0220834
0.0220749
0.0220664
0.022058
0.0220495
0.022041
0.0220325
0.0220239
0.0220154
0.0220069
0.0219984
0.0219899
0.0219814
0.021973
0.0219645
0.021956
0.0219475
0.0219391
0.0219306
0.0219222
0.0219137
0.0219053
0.0218969
0.0218884
0.02188
0.0218716
0.0218631
0.0218547
0.0218462
0.0218378
0.0218293
0.0218209
0.0218124
0.021804
0.0217955
0.0217871
0.0217786
0.0217702
0.0217617
0.0217532
0.0217448
0.0217363
0.0217278
0.0217194
0.0217109
0.0217025
0.021694
0.0216856
0.0216772
0.0216688
0.0216603
0.0216519
0.0216435
0.0216351
0.0216268
0.0216184
0.02161
0.0216017
0.0215933
0.021585
0.0215766
0.0215683
0.02156
0.0215517
0.0215433
0.021535
0.0215267
0.0215184
0.0215101
0.0215018
0.0214935
0.0214852
0.0214769
0.0214686
0.0214603
0.0214521
0.0214438
0.0214355
0.0214272
0.0214189
0.0214107
0.0214024
0.0213941
0.0213859
0.0213776
0.0213694
0.0213612
0.021353
0.0213448
0.0213367
0.0213285
0.0213204
0.0213123
0.0213042
0.0212962
0.0212881
0.0212802
0.0212722
0.0212642
0.0212563
0.0212484
0.0212406
0.0212327
0.0212249
0.021217
0.0212092
0.0212014
0.0211936
0.0211858
0.021178
0.0211703
0.0211625
0.0211547
0.0211469
0.0211392
0.0211314
0.0211236
0.0211159
0.0211081
0.0211003
0.0210925
0.0210847
0.0210769
0.021069
0.0210612
0.0210533
0.0210454
0.0210375
0.0210295
0.0210216
0.0210136
0.0210056
0.0209975
0.0209894
0.0209814
0.0209732
0.0209651
0.0209569
0.0209487
0.0209405
0.0209322
0.020924
0.0209157
0.0209073
0.020899
0.0208906
0.0208822
0.0208738
0.0208654
0.0208569
0.0208484
0.0208398
0.0208313
0.0208227
0.020814
0.0208054
0.0207967
0.0207879
0.0207792
0.0207704
0.0207616
0.0207527
0.0207439
0.0207349
0.0207259
0.0207168
0.0207075
0.020698
0.0206882
0.0206779
0.020667
0.0206551
0.0206417
0.0206272
0.0206094
0.0205896
0.0206429
0.0206888
0.0207288
0.0207638
0.0207932
0.0208195
0.0208404
0.0208649
0.0210256
0.0211674
0.0211734
)
;

boundaryField
{
    inlet
    {
        type            calculated;
        value           uniform 0;
    }
    endWall
    {
        type            calculated;
        value           uniform 0;
    }
    sideWall
    {
        type            empty;
    }
}


// ************************************************************************* //
