/*--------------------------------*- C++ -*----------------------------------*\
| =========                 |                                                 |
| \\      /  F ield         | foam-extend: Open Source CFD                    |
|  \\    /   O peration     | Version:     3.2                                |
|   \\  /    A nd           | Web:         http://www.foam-extend.org         |
|    \\/     M anipulation  | For copyright notice see file Copyright         |
\*---------------------------------------------------------------------------*/
FoamFile
{
    version     2.0;
    format      ascii;
    class       areaScalarField;
    location    "120";
    object      Cpre;
}
// * * * * * * * * * * * * * * * * * * * * * * * * * * * * * * * * * * * * * //

dimensions      [1 -3 0 0 0 0 0];

internalField   nonuniform List<scalar> 
550
(
0.0247
0.0247
0.0247
0.0247
0.0247
0.0247
0.0247
0.0247
0.0247
0.0247
0.0247
0.0247
0.0247
0.0247
0.0247
0.0247
0.0247
0.0247
0.0247
0.0247
0.0247
0.0247
0.0247
0.0247
0.0247
0.0247
0.0247
0.0247
0.0247
0.0247
0.0247
0.0247
0.0247
0.0247
0.0247
0.0247
0.0247
0.0247
0.0247
0.0247
0.0247
0.0247
0.0247
0.0247
0.0247
0.0247
0.0247
0.0247
0.0247
0.0247
0.0247
0.0247
0.0247
0.0247
0.0247
0.0247
0.0247
0.0247
0.0247
0.0247
0.0247069
0.0247125
0.024717
0.0247204
0.0247229
0.0247246
0.0247255
0.0247258
0.0247254
0.0247246
0.0247232
0.0247214
0.0247192
0.0247167
0.0247139
0.0247107
0.0247073
0.0247037
0.0246998
0.0246957
0.0246914
0.024687
0.0246824
0.0246776
0.0246727
0.0246677
0.0246625
0.0246572
0.0246518
0.0246463
0.0246407
0.0246349
0.0246291
0.0246232
0.0246171
0.024611
0.0246048
0.0245984
0.024592
0.0245855
0.0245789
0.0245722
0.0245654
0.0245585
0.0245516
0.0245445
0.0245373
0.0245301
0.0245227
0.0245152
0.0245077
0.0245
0.0244923
0.0244844
0.0244764
0.0244683
0.0244601
0.0244518
0.0244434
0.0244348
0.0244262
0.0244174
0.0244085
0.0243995
0.0243904
0.0243812
0.0243719
0.0243625
0.024353
0.0243434
0.0243336
0.0243238
0.0243139
0.0243039
0.0242938
0.0242836
0.0242733
0.024263
0.0242525
0.024242
0.0242315
0.0242208
0.0242101
0.0241994
0.0241886
0.0241778
0.0241669
0.0241559
0.024145
0.024134
0.024123
0.0241119
0.0241008
0.0240897
0.0240786
0.0240675
0.0240564
0.0240452
0.0240341
0.0240229
0.0240117
0.0240006
0.0239894
0.0239782
0.0239671
0.0239559
0.0239447
0.0239336
0.0239224
0.0239112
0.0239001
0.0238889
0.0238777
0.0238665
0.0238554
0.0238442
0.023833
0.0238219
0.0238107
0.0237995
0.0237883
0.023777
0.0237658
0.0237546
0.0237433
0.023732
0.0237207
0.0237094
0.0236981
0.0236867
0.0236754
0.023664
0.0236526
0.0236412
0.0236297
0.0236183
0.0236068
0.0235953
0.0235839
0.0235724
0.0235609
0.0235494
0.0235379
0.0235264
0.0235149
0.0235034
0.0234919
0.0234804
0.0234689
0.0234575
0.023446
0.0234346
0.0234231
0.0234117
0.0234003
0.0233889
0.0233775
0.0233661
0.0233548
0.0233435
0.0233322
0.0233209
0.0233097
0.0232985
0.0232874
0.0232762
0.0232652
0.0232541
0.0232432
0.0232322
0.0232213
0.0232105
0.0231997
0.0231889
0.0231782
0.0231676
0.023157
0.0231465
0.023136
0.0231256
0.0231153
0.023105
0.0230948
0.0230846
0.0230745
0.0230644
0.0230545
0.0230445
0.0230346
0.0230248
0.0230151
0.0230054
0.0229957
0.0229861
0.0229766
0.0229671
0.0229576
0.0229482
0.0229389
0.0229296
0.0229203
0.0229111
0.022902
0.0228928
0.0228837
0.0228747
0.0228657
0.0228567
0.0228478
0.0228389
0.0228301
0.0228213
0.0228125
0.0228038
0.0227951
0.0227864
0.0227777
0.0227691
0.0227606
0.022752
0.0227435
0.022735
0.0227266
0.0227181
0.0227097
0.0227014
0.022693
0.0226847
0.0226764
0.0226681
0.0226599
0.0226517
0.0226435
0.0226354
0.0226272
0.0226191
0.0226111
0.022603
0.022595
0.022587
0.022579
0.0225711
0.0225632
0.0225553
0.0225474
0.0225396
0.0225318
0.022524
0.0225163
0.0225086
0.0225009
0.0224932
0.0224856
0.0224779
0.0224703
0.0224627
0.0224552
0.0224476
0.0224401
0.0224325
0.022425
0.0224175
0.02241
0.0224025
0.022395
0.0223875
0.02238
0.0223725
0.0223649
0.0223574
0.0223498
0.0223423
0.0223346
0.022327
0.0223194
0.0223117
0.022304
0.0222963
0.0222885
0.0222807
0.0222729
0.0222651
0.0222572
0.0222493
0.0222414
0.0222334
0.0222254
0.0222174
0.0222094
0.0222013
0.0221932
0.0221851
0.0221769
0.0221688
0.0221605
0.0221523
0.022144
0.0221357
0.0221274
0.022119
0.0221107
0.0221023
0.0220938
0.0220854
0.022077
0.0220685
0.02206
0.0220515
0.022043
0.0220345
0.022026
0.0220175
0.022009
0.0220005
0.021992
0.0219835
0.021975
0.0219665
0.0219581
0.0219496
0.0219411
0.0219327
0.0219242
0.0219158
0.0219074
0.0218989
0.0218905
0.0218821
0.0218736
0.0218652
0.0218568
0.0218483
0.0218399
0.0218314
0.021823
0.0218145
0.0218061
0.0217976
0.0217892
0.0217807
0.0217723
0.0217638
0.0217553
0.0217469
0.0217384
0.02173
0.0217215
0.0217131
0.0217046
0.0216962
0.0216877
0.0216793
0.0216709
0.0216625
0.0216541
0.0216457
0.0216373
0.0216289
0.0216205
0.0216122
0.0216038
0.0215955
0.0215871
0.0215788
0.0215705
0.0215622
0.0215538
0.0215455
0.0215372
0.0215289
0.0215206
0.0215123
0.021504
0.0214957
0.0214874
0.0214792
0.0214709
0.0214626
0.0214543
0.021446
0.0214377
0.0214295
0.0214212
0.0214129
0.0214047
0.0213964
0.0213882
0.0213799
0.0213717
0.0213635
0.0213553
0.0213471
0.021339
0.0213308
0.0213227
0.0213146
0.0213065
0.0212985
0.0212905
0.0212825
0.0212745
0.0212666
0.0212587
0.0212508
0.0212429
0.021235
0.0212272
0.0212194
0.0212116
0.0212038
0.021196
0.0211882
0.0211804
0.0211726
0.0211649
0.0211571
0.0211493
0.0211416
0.0211338
0.021126
0.0211183
0.0211105
0.0211027
0.0210949
0.0210871
0.0210793
0.0210714
0.0210636
0.0210557
0.0210478
0.0210399
0.0210319
0.021024
0.021016
0.021008
0.0209999
0.0209919
0.0209838
0.0209757
0.0209675
0.0209594
0.0209512
0.0209429
0.0209347
0.0209264
0.0209181
0.0209098
0.0209014
0.0208931
0.0208847
0.0208763
0.0208678
0.0208593
0.0208508
0.0208423
0.0208337
0.0208251
0.0208165
0.0208078
0.0207991
0.0207904
0.0207817
0.0207729
0.0207641
0.0207552
0.0207464
0.0207374
0.0207284
0.0207193
0.02071
0.0207005
0.0206907
0.0206805
0.0206695
0.0206577
0.0206443
0.0206298
0.020612
0.0205923
0.0206429
0.0206888
0.0207288
0.0207638
0.0207932
0.0208195
0.0208404
0.0208649
0.0210256
0.0211674
0.0211734
)
;

boundaryField
{
    inlet
    {
        type            calculated;
        value           uniform 0;
    }
    endWall
    {
        type            calculated;
        value           uniform 0;
    }
    sideWall
    {
        type            empty;
    }
}


// ************************************************************************* //
