/*--------------------------------*- C++ -*----------------------------------*\
| =========                 |                                                 |
| \\      /  F ield         | foam-extend: Open Source CFD                    |
|  \\    /   O peration     | Version:     3.2                                |
|   \\  /    A nd           | Web:         http://www.foam-extend.org         |
|    \\/     M anipulation  | For copyright notice see file Copyright         |
\*---------------------------------------------------------------------------*/
FoamFile
{
    version     2.0;
    format      ascii;
    class       areaScalarField;
    location    "120";
    object      Cs;
}
// * * * * * * * * * * * * * * * * * * * * * * * * * * * * * * * * * * * * * //

dimensions      [0 0 0 0 0 0 0];

internalField   nonuniform List<scalar> 
550
(
0.434383
0.434383
0.434383
0.434383
0.434383
0.434383
0.434383
0.434383
0.434383
0.434383
0.434383
0.434383
0.434383
0.434383
0.434383
0.434383
0.434383
0.434383
0.434383
0.434383
0.434383
0.434383
0.434383
0.434383
0.434383
0.434383
0.434383
0.434383
0.434383
0.434383
0.434383
0.434383
0.434383
0.434383
0.434383
0.434383
0.434383
0.434383
0.434383
0.434383
0.434383
0.434383
0.434383
0.434383
0.434383
0.434383
0.434383
0.434383
0.434383
0.434383
0.434383
0.434383
0.434383
0.434383
0.434383
0.434383
0.434383
0.434383
0.434383
0.434131
0.434268
0.434324
0.434348
0.434351
0.43434
0.434319
0.434292
0.434262
0.43423
0.434197
0.434164
0.434132
0.434099
0.434067
0.434034
0.434001
0.433968
0.433934
0.433899
0.433862
0.433824
0.433784
0.433742
0.4337
0.433657
0.433614
0.433573
0.433532
0.433494
0.433456
0.43342
0.433386
0.433353
0.433322
0.433292
0.433265
0.433239
0.433215
0.433193
0.433172
0.433153
0.433135
0.433118
0.433102
0.433087
0.433073
0.433061
0.433051
0.433043
0.433036
0.433031
0.433027
0.433023
0.433019
0.433015
0.43301
0.433005
0.432999
0.432992
0.432985
0.432976
0.432967
0.432957
0.432946
0.432935
0.432922
0.432909
0.432895
0.432879
0.432862
0.432843
0.432823
0.432801
0.432778
0.432754
0.43273
0.432705
0.432681
0.432656
0.432632
0.432608
0.432586
0.432563
0.432542
0.432522
0.432503
0.432485
0.432468
0.432452
0.432436
0.432421
0.432406
0.432391
0.432376
0.432361
0.432345
0.432329
0.432313
0.432296
0.432277
0.432256
0.432234
0.432209
0.432182
0.432153
0.432121
0.432086
0.432049
0.432009
0.431966
0.431921
0.431872
0.431822
0.431769
0.431714
0.431657
0.431598
0.431539
0.431479
0.431419
0.431359
0.431301
0.431245
0.43119
0.431138
0.431089
0.431043
0.431
0.430961
0.430927
0.430896
0.430871
0.430851
0.430836
0.430828
0.430824
0.430827
0.430836
0.43085
0.430868
0.430891
0.430918
0.430949
0.430984
0.431021
0.431061
0.431103
0.431148
0.431193
0.43124
0.431289
0.431339
0.431392
0.431448
0.431507
0.431569
0.431633
0.431699
0.431767
0.431837
0.431908
0.431981
0.432055
0.432131
0.432207
0.432282
0.432355
0.432426
0.432495
0.432562
0.432627
0.432689
0.43275
0.432809
0.432867
0.432922
0.432975
0.433025
0.433073
0.433118
0.433159
0.433197
0.43323
0.433258
0.433281
0.433298
0.43331
0.433314
0.433312
0.433303
0.433287
0.433264
0.433233
0.433194
0.433147
0.433093
0.43303
0.43296
0.432883
0.432798
0.432707
0.432608
0.432504
0.432393
0.432277
0.432156
0.43203
0.431901
0.431769
0.431634
0.431498
0.43136
0.431222
0.431082
0.430942
0.430802
0.430662
0.430523
0.430385
0.430248
0.430112
0.429979
0.429849
0.429721
0.429596
0.429475
0.429357
0.429244
0.429135
0.42903
0.428931
0.428836
0.428746
0.428661
0.428581
0.428505
0.428435
0.42837
0.42831
0.428254
0.428203
0.428157
0.428115
0.428078
0.428045
0.428016
0.427991
0.42797
0.427952
0.427938
0.427927
0.427919
0.427915
0.427914
0.427918
0.427927
0.42794
0.427959
0.427984
0.428014
0.428049
0.428091
0.428137
0.428188
0.428244
0.428303
0.428366
0.428433
0.428503
0.428577
0.428653
0.428734
0.428818
0.428907
0.428999
0.429096
0.429198
0.429304
0.429414
0.429529
0.429646
0.429767
0.429889
0.430014
0.430139
0.430266
0.430392
0.430519
0.430644
0.430767
0.430888
0.431005
0.431119
0.431228
0.431333
0.431435
0.431532
0.431626
0.431717
0.431804
0.431888
0.431969
0.432048
0.432124
0.4322
0.432274
0.432347
0.432418
0.432487
0.432554
0.432618
0.432678
0.432734
0.432783
0.432827
0.432864
0.432894
0.432915
0.432928
0.432931
0.432925
0.432909
0.432883
0.432846
0.432797
0.432738
0.432667
0.432586
0.432495
0.432395
0.432285
0.432166
0.432041
0.431909
0.431772
0.43163
0.431485
0.431338
0.431189
0.43104
0.430891
0.430743
0.430597
0.430453
0.430312
0.430174
0.430039
0.429906
0.429775
0.429645
0.429516
0.429386
0.429254
0.429122
0.428987
0.42885
0.42871
0.428569
0.428426
0.428282
0.428136
0.427989
0.427841
0.427692
0.427543
0.427395
0.427248
0.427104
0.426963
0.426827
0.426695
0.42657
0.426451
0.426338
0.426233
0.426136
0.426046
0.425963
0.425887
0.425819
0.425757
0.425701
0.425652
0.425609
0.425571
0.42554
0.425514
0.425495
0.425483
0.425477
0.42548
0.425492
0.425513
0.425544
0.425585
0.425635
0.425695
0.425764
0.425841
0.425926
0.426018
0.426116
0.426219
0.426327
0.42644
0.426555
0.426674
0.426796
0.426921
0.427049
0.42718
0.427314
0.427451
0.42759
0.427731
0.427872
0.428012
0.428151
0.428287
0.428421
0.42855
0.428675
0.428796
0.428911
0.429022
0.429127
0.429227
0.429322
0.42941
0.429493
0.42957
0.429642
0.429709
0.429772
0.42983
0.429881
0.429927
0.429964
0.429994
0.430016
0.430031
0.43004
0.430045
0.430045
0.430042
0.430036
0.430028
0.430018
0.430004
0.429986
0.429963
0.429932
0.429894
0.429847
0.429791
0.429728
0.429658
0.429584
0.429506
0.429427
0.429344
0.429261
0.429173
0.429083
0.42899
0.428894
0.428793
0.42869
0.428579
0.428458
0.428321
0.428162
0.427971
0.42773
0.427418
0.426962
0.426377
0.42516
0.425421
0.428078
0.434383
0.434383
0.434383
0.434383
0.434383
0.434383
0.434383
0.434383
0.434383
0.434383
)
;

boundaryField
{
    inlet
    {
        type            calculated;
        value           uniform 0;
    }
    endWall
    {
        type            calculated;
        value           uniform 0;
    }
    sideWall
    {
        type            empty;
    }
}


// ************************************************************************* //
