/*--------------------------------*- C++ -*----------------------------------*\
| =========                 |                                                 |
| \\      /  F ield         | foam-extend: Open Source CFD                    |
|  \\    /   O peration     | Version:     3.2                                |
|   \\  /    A nd           | Web:         http://www.foam-extend.org         |
|    \\/     M anipulation  | For copyright notice see file Copyright         |
\*---------------------------------------------------------------------------*/
FoamFile
{
    version     2.0;
    format      ascii;
    class       volScalarField;
    location    "120";
    object      DiSSt;
}
// * * * * * * * * * * * * * * * * * * * * * * * * * * * * * * * * * * * * * //

dimensions      [0 2 -1 0 0 0 0];

internalField   nonuniform List<scalar> 
33000
(
7.23128e-06
8.53757e-06
9.87657e-06
1.12169e-05
1.25266e-05
1.37732e-05
1.49312e-05
1.59782e-05
1.69019e-05
1.76939e-05
1.83551e-05
1.88889e-05
1.93053e-05
1.96142e-05
1.98282e-05
1.99592e-05
2.00202e-05
2.00227e-05
1.98775e-05
1.91651e-05
1.84781e-05
1.78388e-05
1.72383e-05
1.66865e-05
1.61786e-05
1.5719e-05
1.5305e-05
1.49356e-05
1.4599e-05
1.42923e-05
1.40128e-05
1.3759e-05
1.35286e-05
1.332e-05
1.3132e-05
1.29632e-05
1.28125e-05
1.26781e-05
1.25592e-05
1.24542e-05
1.23633e-05
1.22831e-05
1.22141e-05
1.21543e-05
1.21042e-05
1.20615e-05
1.20274e-05
1.20013e-05
1.19826e-05
1.19708e-05
1.19652e-05
1.19652e-05
1.19702e-05
1.19796e-05
1.19927e-05
1.20093e-05
1.20288e-05
1.20509e-05
1.20754e-05
1.21004e-05
1.21284e-05
1.21609e-05
1.21942e-05
1.22284e-05
1.22636e-05
1.22993e-05
1.23357e-05
1.23725e-05
1.24095e-05
1.24466e-05
1.24836e-05
1.25207e-05
1.25574e-05
1.25938e-05
1.263e-05
1.26657e-05
1.2701e-05
1.27357e-05
1.27701e-05
1.28037e-05
1.28367e-05
1.28689e-05
1.29003e-05
1.29308e-05
1.29603e-05
1.29887e-05
1.30159e-05
1.30419e-05
1.30667e-05
1.309e-05
1.3112e-05
1.31329e-05
1.31528e-05
1.31715e-05
1.31894e-05
1.32065e-05
1.32234e-05
1.32411e-05
1.32588e-05
1.32765e-05
1.32945e-05
1.33125e-05
1.33305e-05
1.33484e-05
1.33661e-05
1.33835e-05
1.34006e-05
1.34175e-05
1.34339e-05
1.34499e-05
1.34655e-05
1.34806e-05
1.34954e-05
1.35096e-05
1.35232e-05
1.3536e-05
1.35487e-05
1.35607e-05
1.3572e-05
1.35829e-05
1.3593e-05
1.36025e-05
1.36113e-05
1.36195e-05
1.3627e-05
1.36339e-05
1.36401e-05
1.36458e-05
1.3651e-05
1.36556e-05
1.36597e-05
1.36632e-05
1.36663e-05
1.36689e-05
1.36711e-05
1.36728e-05
1.36741e-05
1.3675e-05
1.36755e-05
1.36757e-05
1.36756e-05
1.36752e-05
1.36746e-05
1.36736e-05
1.36725e-05
1.36711e-05
1.36695e-05
1.36677e-05
1.36658e-05
1.36638e-05
1.36617e-05
1.36595e-05
1.36573e-05
1.3655e-05
1.36526e-05
1.36503e-05
1.36479e-05
1.36455e-05
1.36432e-05
1.36409e-05
1.36386e-05
1.36364e-05
1.36342e-05
1.36322e-05
1.36303e-05
1.36285e-05
1.36268e-05
1.36253e-05
1.3624e-05
1.36228e-05
1.36217e-05
1.36208e-05
1.36201e-05
1.36196e-05
1.36192e-05
1.36189e-05
1.36187e-05
1.36187e-05
1.36186e-05
1.36187e-05
1.36189e-05
1.36191e-05
1.36195e-05
1.36199e-05
1.36205e-05
1.36211e-05
1.36217e-05
1.36224e-05
1.36231e-05
1.36238e-05
1.36244e-05
1.36251e-05
1.36257e-05
1.36263e-05
1.36269e-05
1.36275e-05
1.36282e-05
1.3629e-05
1.36298e-05
1.36307e-05
1.36316e-05
1.36326e-05
1.36336e-05
1.36347e-05
1.36358e-05
1.36371e-05
1.36384e-05
1.36399e-05
1.36415e-05
1.36433e-05
1.36451e-05
1.36467e-05
1.36481e-05
1.36493e-05
1.36502e-05
1.36509e-05
1.36515e-05
1.3652e-05
1.36525e-05
1.36528e-05
1.36532e-05
1.36535e-05
1.36539e-05
1.36543e-05
1.36548e-05
1.36554e-05
1.3656e-05
1.36566e-05
1.36574e-05
1.36582e-05
1.36592e-05
1.36602e-05
1.36613e-05
1.36626e-05
1.36639e-05
1.36654e-05
1.36669e-05
1.36686e-05
1.36704e-05
1.36723e-05
1.36744e-05
1.36767e-05
1.36791e-05
1.36818e-05
1.36846e-05
1.36876e-05
1.36908e-05
1.36943e-05
1.36979e-05
1.37017e-05
1.37058e-05
1.37102e-05
1.37147e-05
1.37195e-05
1.37245e-05
1.37297e-05
1.37351e-05
1.37407e-05
1.37464e-05
1.37523e-05
1.37583e-05
1.37644e-05
1.37706e-05
1.37768e-05
1.37831e-05
1.37894e-05
1.37957e-05
1.3802e-05
1.38082e-05
1.38143e-05
1.38203e-05
1.38262e-05
1.3832e-05
1.38376e-05
1.3843e-05
1.38483e-05
1.38534e-05
1.38582e-05
1.38628e-05
1.38672e-05
1.38713e-05
1.38751e-05
1.38786e-05
1.38819e-05
1.38848e-05
1.38875e-05
1.38899e-05
1.3892e-05
1.38939e-05
1.38954e-05
1.38967e-05
1.38976e-05
1.38983e-05
1.38987e-05
1.38989e-05
1.38989e-05
1.38986e-05
1.38981e-05
1.38973e-05
1.38963e-05
1.38951e-05
1.38937e-05
1.38921e-05
1.38902e-05
1.38882e-05
1.38859e-05
1.38835e-05
1.38809e-05
1.38781e-05
1.38752e-05
1.38721e-05
1.38689e-05
1.38655e-05
1.38619e-05
1.38582e-05
1.38543e-05
1.38503e-05
1.38462e-05
1.38419e-05
1.38374e-05
1.38328e-05
1.38281e-05
1.38233e-05
1.38184e-05
1.38133e-05
1.38081e-05
1.38029e-05
1.37975e-05
1.37921e-05
1.37866e-05
1.3781e-05
1.37754e-05
1.37697e-05
1.37639e-05
1.37581e-05
1.37522e-05
1.37464e-05
1.37405e-05
1.37346e-05
1.37287e-05
1.37228e-05
1.37169e-05
1.37111e-05
1.37052e-05
1.36993e-05
1.36934e-05
1.36875e-05
1.36817e-05
1.36759e-05
1.36701e-05
1.36644e-05
1.36588e-05
1.36533e-05
1.36478e-05
1.36423e-05
1.3637e-05
1.36317e-05
1.36265e-05
1.36214e-05
1.36164e-05
1.36114e-05
1.36066e-05
1.36018e-05
1.35971e-05
1.35925e-05
1.3588e-05
1.35837e-05
1.35794e-05
1.35753e-05
1.35714e-05
1.35676e-05
1.35639e-05
1.35603e-05
1.35569e-05
1.35536e-05
1.35504e-05
1.35474e-05
1.35444e-05
1.35416e-05
1.35389e-05
1.35363e-05
1.35338e-05
1.35315e-05
1.35292e-05
1.35271e-05
1.35251e-05
1.35231e-05
1.35213e-05
1.35196e-05
1.3518e-05
1.35165e-05
1.3515e-05
1.35136e-05
1.35123e-05
1.35111e-05
1.35098e-05
1.35086e-05
1.35073e-05
1.35061e-05
1.35049e-05
1.35036e-05
1.35023e-05
1.35009e-05
1.34995e-05
1.34979e-05
1.34962e-05
1.34944e-05
1.34926e-05
1.34906e-05
1.34887e-05
1.34867e-05
1.34847e-05
1.34827e-05
1.34806e-05
1.34783e-05
1.3476e-05
1.34736e-05
1.34711e-05
1.34685e-05
1.34658e-05
1.34631e-05
1.34603e-05
1.34574e-05
1.34544e-05
1.34512e-05
1.34478e-05
1.34441e-05
1.34402e-05
1.34361e-05
1.34317e-05
1.34271e-05
1.34222e-05
1.34171e-05
1.34117e-05
1.34061e-05
1.34001e-05
1.33939e-05
1.33872e-05
1.33803e-05
1.3373e-05
1.33655e-05
1.33577e-05
1.33498e-05
1.33417e-05
1.33335e-05
1.33252e-05
1.33168e-05
1.33082e-05
1.32995e-05
1.32907e-05
1.32818e-05
1.32727e-05
1.32635e-05
1.32541e-05
1.32446e-05
1.3235e-05
1.32254e-05
1.32157e-05
1.32061e-05
1.31963e-05
1.31866e-05
1.31767e-05
1.3167e-05
1.3157e-05
1.31471e-05
1.3137e-05
1.3127e-05
1.31167e-05
1.31066e-05
1.30963e-05
1.30863e-05
1.30761e-05
1.30662e-05
1.30562e-05
1.30466e-05
1.30368e-05
1.30275e-05
1.30179e-05
1.30089e-05
1.29995e-05
1.29908e-05
1.29816e-05
1.29731e-05
1.29642e-05
1.29562e-05
1.29475e-05
1.294e-05
1.29318e-05
1.29248e-05
1.29168e-05
1.29103e-05
1.29024e-05
1.28963e-05
1.28886e-05
1.28828e-05
1.28752e-05
1.287e-05
1.28624e-05
1.28575e-05
1.28499e-05
1.28456e-05
1.28379e-05
1.28341e-05
1.28263e-05
1.2823e-05
1.28149e-05
1.28122e-05
1.28037e-05
1.28015e-05
1.27926e-05
1.2791e-05
1.27815e-05
1.27805e-05
1.27704e-05
1.277e-05
1.27591e-05
1.2759e-05
1.27476e-05
1.27479e-05
1.27364e-05
1.27372e-05
1.27253e-05
1.27265e-05
1.27137e-05
1.27146e-05
1.27006e-05
1.27007e-05
1.2685e-05
1.26823e-05
1.26627e-05
1.26549e-05
1.2625e-05
1.26063e-05
1.2554e-05
1.25183e-05
1.24261e-05
1.23893e-05
1.22899e-05
1.16148e-05
1.09164e-05
1.0663e-05
9.79108e-06
9.04886e-06
7.73266e-06
7.27074e-06
5.748e-06
7.17989e-06
4.79156e-06
5.57409e-06
2.58306e-05
5.19538e-05
3.17961e-05
2.31928e-05
1.86925e-05
1.60356e-05
1.4411e-05
1.33724e-05
1.27026e-05
1.22904e-05
1.20494e-05
1.1943e-05
1.19236e-05
1.19699e-05
1.20635e-05
1.22002e-05
1.23752e-05
1.25896e-05
1.28529e-05
1.31702e-05
1.35424e-05
1.3981e-05
1.44933e-05
1.50435e-05
1.56446e-05
1.63088e-05
1.70455e-05
1.78563e-05
1.85277e-05
1.8943e-05
1.93603e-05
1.97749e-05
2.01851e-05
2.05895e-05
2.09874e-05
2.1378e-05
2.17611e-05
2.21357e-05
2.25018e-05
2.28592e-05
2.32084e-05
2.35494e-05
2.38823e-05
2.42073e-05
2.45251e-05
2.48356e-05
2.514e-05
2.54395e-05
2.57345e-05
2.60246e-05
2.63099e-05
2.659e-05
2.68644e-05
2.71328e-05
2.73948e-05
2.76497e-05
2.7898e-05
2.81393e-05
2.83733e-05
2.86011e-05
2.88208e-05
2.90339e-05
2.9249e-05
2.94607e-05
2.96647e-05
2.98623e-05
3.00539e-05
3.02403e-05
3.04212e-05
3.05968e-05
3.07668e-05
3.09314e-05
3.10906e-05
3.12443e-05
3.13926e-05
3.15358e-05
3.16735e-05
3.18063e-05
3.19339e-05
3.2057e-05
3.21748e-05
3.22881e-05
3.23968e-05
3.25013e-05
3.26014e-05
3.26975e-05
3.27894e-05
3.28778e-05
3.29619e-05
3.30428e-05
3.31196e-05
3.31931e-05
3.32629e-05
3.33302e-05
3.3394e-05
3.34557e-05
3.35165e-05
3.3576e-05
3.36346e-05
3.36911e-05
3.37452e-05
3.37974e-05
3.38471e-05
3.38946e-05
3.39395e-05
3.39819e-05
3.40218e-05
3.40591e-05
3.40941e-05
3.41266e-05
3.41569e-05
3.41849e-05
3.42108e-05
3.42347e-05
3.42564e-05
3.42755e-05
3.42931e-05
3.43097e-05
3.43241e-05
3.43366e-05
3.43478e-05
3.43575e-05
3.43658e-05
3.43727e-05
3.43785e-05
3.43831e-05
3.43867e-05
3.43895e-05
3.43914e-05
3.43927e-05
3.43933e-05
3.43935e-05
3.43932e-05
3.43926e-05
3.43918e-05
3.43907e-05
3.43895e-05
3.43883e-05
3.43871e-05
3.4386e-05
3.4385e-05
3.43842e-05
3.43836e-05
3.43834e-05
3.43834e-05
3.43838e-05
3.43844e-05
3.43854e-05
3.43867e-05
3.43884e-05
3.43904e-05
3.43928e-05
3.43955e-05
3.43987e-05
3.44023e-05
3.44063e-05
3.44108e-05
3.44156e-05
3.44209e-05
3.44266e-05
3.44328e-05
3.44394e-05
3.44466e-05
3.44542e-05
3.44624e-05
3.44711e-05
3.44803e-05
3.44901e-05
3.45005e-05
3.45115e-05
3.4523e-05
3.4535e-05
3.45477e-05
3.45609e-05
3.45746e-05
3.45889e-05
3.46036e-05
3.46188e-05
3.46343e-05
3.465e-05
3.4666e-05
3.46822e-05
3.46987e-05
3.47153e-05
3.47321e-05
3.47491e-05
3.47663e-05
3.47835e-05
3.48009e-05
3.48182e-05
3.48355e-05
3.48527e-05
3.48698e-05
3.48867e-05
3.49035e-05
3.49201e-05
3.49367e-05
3.49533e-05
3.49698e-05
3.49864e-05
3.50031e-05
3.50198e-05
3.50367e-05
3.50537e-05
3.50708e-05
3.5088e-05
3.51055e-05
3.51232e-05
3.51412e-05
3.51596e-05
3.51782e-05
3.51951e-05
3.52042e-05
3.52131e-05
3.5222e-05
3.52311e-05
3.52405e-05
3.52503e-05
3.52606e-05
3.52715e-05
3.5283e-05
3.5295e-05
3.53077e-05
3.5321e-05
3.5335e-05
3.53497e-05
3.5365e-05
3.53809e-05
3.53973e-05
3.54143e-05
3.54319e-05
3.54499e-05
3.54684e-05
3.54875e-05
3.55069e-05
3.55269e-05
3.55473e-05
3.55681e-05
3.55893e-05
3.56109e-05
3.56329e-05
3.56553e-05
3.56781e-05
3.57013e-05
3.57249e-05
3.57488e-05
3.57731e-05
3.57976e-05
3.58224e-05
3.58474e-05
3.58725e-05
3.58977e-05
3.59229e-05
3.59482e-05
3.59735e-05
3.59988e-05
3.60239e-05
3.60489e-05
3.60735e-05
3.60979e-05
3.61218e-05
3.61453e-05
3.61683e-05
3.61907e-05
3.62125e-05
3.62336e-05
3.62539e-05
3.62734e-05
3.62921e-05
3.63099e-05
3.63268e-05
3.63427e-05
3.63575e-05
3.63713e-05
3.63839e-05
3.63955e-05
3.64059e-05
3.64152e-05
3.64233e-05
3.64303e-05
3.64362e-05
3.6441e-05
3.64446e-05
3.64472e-05
3.64486e-05
3.6449e-05
3.64484e-05
3.64467e-05
3.64441e-05
3.64405e-05
3.64361e-05
3.64307e-05
3.64246e-05
3.64176e-05
3.64099e-05
3.64014e-05
3.63922e-05
3.63823e-05
3.63719e-05
3.63608e-05
3.63491e-05
3.6337e-05
3.63243e-05
3.63111e-05
3.62975e-05
3.62834e-05
3.6269e-05
3.62542e-05
3.6239e-05
3.62235e-05
3.62078e-05
3.61918e-05
3.61756e-05
3.61593e-05
3.61427e-05
3.61259e-05
3.61089e-05
3.60918e-05
3.60745e-05
3.60571e-05
3.60396e-05
3.6022e-05
3.60044e-05
3.59869e-05
3.59693e-05
3.59519e-05
3.59346e-05
3.59174e-05
3.59003e-05
3.58834e-05
3.58666e-05
3.58501e-05
3.58337e-05
3.58175e-05
3.58015e-05
3.57857e-05
3.577e-05
3.57546e-05
3.57394e-05
3.57244e-05
3.57097e-05
3.56952e-05
3.5681e-05
3.5667e-05
3.56533e-05
3.56397e-05
3.56264e-05
3.56131e-05
3.56001e-05
3.55871e-05
3.55744e-05
3.55618e-05
3.55494e-05
3.55372e-05
3.55252e-05
3.55133e-05
3.55016e-05
3.54902e-05
3.54791e-05
3.54684e-05
3.54579e-05
3.54479e-05
3.54382e-05
3.54289e-05
3.54201e-05
3.54117e-05
3.54037e-05
3.53963e-05
3.53894e-05
3.53831e-05
3.53773e-05
3.53722e-05
3.53677e-05
3.53637e-05
3.53604e-05
3.53575e-05
3.53551e-05
3.53531e-05
3.53513e-05
3.53497e-05
3.53482e-05
3.53469e-05
3.53456e-05
3.53444e-05
3.53433e-05
3.53422e-05
3.53411e-05
3.53399e-05
3.53388e-05
3.53376e-05
3.53363e-05
3.5335e-05
3.53336e-05
3.53322e-05
3.53306e-05
3.53289e-05
3.53268e-05
3.53245e-05
3.53217e-05
3.53185e-05
3.53148e-05
3.53105e-05
3.53056e-05
3.53e-05
3.52938e-05
3.52868e-05
3.5279e-05
3.52703e-05
3.52609e-05
3.52506e-05
3.52396e-05
3.5228e-05
3.52158e-05
3.52032e-05
3.51902e-05
3.5177e-05
3.51634e-05
3.51496e-05
3.51354e-05
3.5121e-05
3.51063e-05
3.50913e-05
3.5076e-05
3.50606e-05
3.50448e-05
3.50288e-05
3.50123e-05
3.49953e-05
3.49776e-05
3.49592e-05
3.49401e-05
3.49201e-05
3.48994e-05
3.48779e-05
3.48558e-05
3.48329e-05
3.48095e-05
3.47856e-05
3.47611e-05
3.4736e-05
3.47103e-05
3.46841e-05
3.46573e-05
3.46302e-05
3.46027e-05
3.45749e-05
3.4547e-05
3.45191e-05
3.44911e-05
3.44632e-05
3.44353e-05
3.44074e-05
3.43795e-05
3.43515e-05
3.43235e-05
3.42954e-05
3.42672e-05
3.42389e-05
3.42105e-05
3.4182e-05
3.41536e-05
3.41252e-05
3.4097e-05
3.40688e-05
3.40409e-05
3.40131e-05
3.39855e-05
3.3958e-05
3.39307e-05
3.39035e-05
3.38764e-05
3.38496e-05
3.3823e-05
3.37967e-05
3.3771e-05
3.37458e-05
3.37212e-05
3.36973e-05
3.36742e-05
3.36517e-05
3.36301e-05
3.3609e-05
3.35887e-05
3.35688e-05
3.35497e-05
3.3531e-05
3.35129e-05
3.34953e-05
3.34784e-05
3.3462e-05
3.34464e-05
3.34312e-05
3.34167e-05
3.34024e-05
3.33888e-05
3.33755e-05
3.33628e-05
3.33502e-05
3.33384e-05
3.33266e-05
3.33155e-05
3.33042e-05
3.32935e-05
3.32825e-05
3.32721e-05
3.32613e-05
3.3251e-05
3.32402e-05
3.32301e-05
3.32192e-05
3.32091e-05
3.3198e-05
3.31877e-05
3.31763e-05
3.31658e-05
3.31538e-05
3.31428e-05
3.31301e-05
3.31185e-05
3.3105e-05
3.30929e-05
3.3079e-05
3.30669e-05
3.30531e-05
3.30413e-05
3.30273e-05
3.30145e-05
3.2999e-05
3.2983e-05
3.29632e-05
3.29411e-05
3.29115e-05
3.28763e-05
3.28259e-05
3.27626e-05
3.26722e-05
3.25405e-05
3.2409e-05
3.18395e-05
3.09865e-05
2.96072e-05
2.93929e-05
2.79044e-05
2.63617e-05
2.36014e-05
2.20119e-05
1.83729e-05
1.47193e-05
1.60882e-05
1.34892e-05
2.07577e-05
0.000147162
0.000111682
8.20139e-05
6.70812e-05
5.4662e-05
4.56245e-05
3.80382e-05
3.23128e-05
2.80018e-05
2.4783e-05
2.22929e-05
2.03501e-05
1.87984e-05
1.75521e-05
1.65403e-05
1.57172e-05
1.50455e-05
1.44983e-05
1.40574e-05
1.37085e-05
1.34435e-05
1.3259e-05
1.31524e-05
1.31196e-05
1.31572e-05
1.32636e-05
1.34388e-05
1.36784e-05
1.39762e-05
1.433e-05
1.47376e-05
1.52001e-05
1.57184e-05
1.62637e-05
1.68232e-05
1.73963e-05
1.79827e-05
1.85821e-05
1.9195e-05
1.98214e-05
2.0462e-05
2.11167e-05
2.17873e-05
2.24753e-05
2.3183e-05
2.39125e-05
2.4505e-05
2.5085e-05
2.56654e-05
2.62469e-05
2.68295e-05
2.74131e-05
2.79972e-05
2.85812e-05
2.91638e-05
2.97437e-05
3.03191e-05
3.08884e-05
3.14526e-05
3.20083e-05
3.25506e-05
3.30918e-05
3.36345e-05
3.41672e-05
3.46903e-05
3.52051e-05
3.57112e-05
3.62089e-05
3.6698e-05
3.71785e-05
3.76502e-05
3.81125e-05
3.85654e-05
3.90086e-05
3.9442e-05
3.98653e-05
4.02788e-05
4.06828e-05
4.10771e-05
4.14624e-05
4.18395e-05
4.2209e-05
4.25715e-05
4.29276e-05
4.32781e-05
4.36234e-05
4.39641e-05
4.43007e-05
4.46333e-05
4.49618e-05
4.52881e-05
4.56117e-05
4.59317e-05
4.62473e-05
4.65601e-05
4.68687e-05
4.71255e-05
4.73523e-05
4.75711e-05
4.7782e-05
4.79853e-05
4.81814e-05
4.83704e-05
4.85528e-05
4.87287e-05
4.88985e-05
4.90623e-05
4.92205e-05
4.93732e-05
4.95206e-05
4.9663e-05
4.98006e-05
4.99336e-05
5.00624e-05
5.01869e-05
5.03068e-05
5.04228e-05
5.05353e-05
5.06443e-05
5.07502e-05
5.0853e-05
5.09532e-05
5.10508e-05
5.11461e-05
5.12393e-05
5.13305e-05
5.142e-05
5.15079e-05
5.15943e-05
5.16795e-05
5.17635e-05
5.18465e-05
5.19286e-05
5.20099e-05
5.20904e-05
5.21703e-05
5.22496e-05
5.23283e-05
5.24065e-05
5.24842e-05
5.25615e-05
5.26384e-05
5.2715e-05
5.27912e-05
5.28671e-05
5.29427e-05
5.30179e-05
5.30927e-05
5.31671e-05
5.3241e-05
5.33145e-05
5.33874e-05
5.34599e-05
5.35319e-05
5.36035e-05
5.36747e-05
5.37455e-05
5.38159e-05
5.38859e-05
5.39556e-05
5.4025e-05
5.40941e-05
5.41628e-05
5.42313e-05
5.42996e-05
5.43678e-05
5.44358e-05
5.45039e-05
5.45719e-05
5.46401e-05
5.47083e-05
5.47767e-05
5.48453e-05
5.49141e-05
5.49831e-05
5.50523e-05
5.51218e-05
5.51915e-05
5.52613e-05
5.53311e-05
5.54008e-05
5.54703e-05
5.55395e-05
5.56084e-05
5.56769e-05
5.57451e-05
5.58128e-05
5.58802e-05
5.59472e-05
5.60139e-05
5.608e-05
5.61457e-05
5.62108e-05
5.62752e-05
5.63389e-05
5.64018e-05
5.64639e-05
5.65255e-05
5.65864e-05
5.66469e-05
5.67071e-05
5.67671e-05
5.68271e-05
5.68872e-05
5.69475e-05
5.7008e-05
5.70688e-05
5.713e-05
5.71917e-05
5.7254e-05
5.73169e-05
5.73806e-05
5.74452e-05
5.75106e-05
5.7577e-05
5.76445e-05
5.77131e-05
5.7783e-05
5.78541e-05
5.79265e-05
5.80003e-05
5.80753e-05
5.81518e-05
5.82297e-05
5.83091e-05
5.83897e-05
5.84718e-05
5.85551e-05
5.86396e-05
5.87253e-05
5.88121e-05
5.89001e-05
5.89891e-05
5.90791e-05
5.91702e-05
5.92622e-05
5.93553e-05
5.94492e-05
5.95441e-05
5.96398e-05
5.97364e-05
5.98339e-05
5.99322e-05
6.00312e-05
6.0131e-05
6.02313e-05
6.03321e-05
6.04332e-05
6.05344e-05
6.06356e-05
6.07368e-05
6.08377e-05
6.09382e-05
6.10384e-05
6.11379e-05
6.12368e-05
6.13347e-05
6.14316e-05
6.15273e-05
6.16217e-05
6.17145e-05
6.18057e-05
6.18951e-05
6.19825e-05
6.20679e-05
6.2151e-05
6.22319e-05
6.23103e-05
6.23861e-05
6.24592e-05
6.25295e-05
6.25968e-05
6.26611e-05
6.27223e-05
6.27802e-05
6.28349e-05
6.28864e-05
6.29347e-05
6.29797e-05
6.30214e-05
6.30599e-05
6.30951e-05
6.31272e-05
6.31561e-05
6.31818e-05
6.32044e-05
6.32239e-05
6.32405e-05
6.32542e-05
6.32651e-05
6.32733e-05
6.3279e-05
6.3282e-05
6.32827e-05
6.32811e-05
6.32772e-05
6.32713e-05
6.32634e-05
6.32536e-05
6.3242e-05
6.32288e-05
6.32139e-05
6.31975e-05
6.31796e-05
6.31604e-05
6.31399e-05
6.31182e-05
6.30954e-05
6.30716e-05
6.30468e-05
6.30212e-05
6.29948e-05
6.29677e-05
6.29398e-05
6.29113e-05
6.28821e-05
6.28523e-05
6.2822e-05
6.27912e-05
6.27599e-05
6.27284e-05
6.26966e-05
6.26647e-05
6.26327e-05
6.26008e-05
6.25689e-05
6.25372e-05
6.25057e-05
6.24745e-05
6.24434e-05
6.24127e-05
6.23823e-05
6.23523e-05
6.23226e-05
6.22933e-05
6.22645e-05
6.2236e-05
6.2208e-05
6.21805e-05
6.21535e-05
6.21271e-05
6.21013e-05
6.20761e-05
6.20515e-05
6.20274e-05
6.20037e-05
6.19805e-05
6.19576e-05
6.19351e-05
6.1913e-05
6.18914e-05
6.18702e-05
6.18495e-05
6.18293e-05
6.18095e-05
6.17903e-05
6.17719e-05
6.17542e-05
6.17374e-05
6.17217e-05
6.1707e-05
6.16935e-05
6.16812e-05
6.16701e-05
6.16605e-05
6.16522e-05
6.16454e-05
6.16401e-05
6.16364e-05
6.16343e-05
6.16338e-05
6.1635e-05
6.16378e-05
6.16419e-05
6.16474e-05
6.1654e-05
6.16616e-05
6.16697e-05
6.16783e-05
6.16872e-05
6.16963e-05
6.17054e-05
6.17146e-05
6.17237e-05
6.17327e-05
6.17417e-05
6.17504e-05
6.1759e-05
6.17673e-05
6.17755e-05
6.17834e-05
6.1791e-05
6.17983e-05
6.18052e-05
6.18115e-05
6.18169e-05
6.18214e-05
6.18248e-05
6.18267e-05
6.18271e-05
6.18259e-05
6.18228e-05
6.18177e-05
6.18105e-05
6.18011e-05
6.17894e-05
6.17753e-05
6.17588e-05
6.17401e-05
6.17193e-05
6.16966e-05
6.16723e-05
6.16468e-05
6.16202e-05
6.15927e-05
6.15644e-05
6.15354e-05
6.15057e-05
6.14752e-05
6.14441e-05
6.14122e-05
6.13797e-05
6.13466e-05
6.13126e-05
6.12778e-05
6.12419e-05
6.12046e-05
6.11657e-05
6.11249e-05
6.10821e-05
6.10371e-05
6.09899e-05
6.09407e-05
6.08894e-05
6.08361e-05
6.07811e-05
6.07243e-05
6.0666e-05
6.0606e-05
6.05445e-05
6.04814e-05
6.04169e-05
6.03511e-05
6.02842e-05
6.02165e-05
6.01482e-05
6.00794e-05
6.00103e-05
5.99409e-05
5.98713e-05
5.98014e-05
5.97314e-05
5.9661e-05
5.95902e-05
5.95191e-05
5.94475e-05
5.93756e-05
5.93033e-05
5.92307e-05
5.91581e-05
5.90855e-05
5.90131e-05
5.8941e-05
5.88692e-05
5.87979e-05
5.87271e-05
5.86567e-05
5.85867e-05
5.85171e-05
5.84479e-05
5.83793e-05
5.83113e-05
5.82443e-05
5.81783e-05
5.81137e-05
5.80506e-05
5.79893e-05
5.79298e-05
5.78723e-05
5.78169e-05
5.77635e-05
5.77121e-05
5.76627e-05
5.76151e-05
5.75695e-05
5.75256e-05
5.74836e-05
5.74434e-05
5.74052e-05
5.73688e-05
5.73341e-05
5.73009e-05
5.72693e-05
5.7239e-05
5.72102e-05
5.71825e-05
5.71564e-05
5.71313e-05
5.71075e-05
5.70845e-05
5.70624e-05
5.70408e-05
5.70198e-05
5.6999e-05
5.69787e-05
5.69585e-05
5.69386e-05
5.69187e-05
5.68991e-05
5.68793e-05
5.68597e-05
5.68397e-05
5.68195e-05
5.67988e-05
5.67775e-05
5.67554e-05
5.67325e-05
5.67085e-05
5.66833e-05
5.66574e-05
5.66307e-05
5.66041e-05
5.65772e-05
5.65508e-05
5.65239e-05
5.64962e-05
5.64673e-05
5.6435e-05
5.63994e-05
5.63573e-05
5.63066e-05
5.62421e-05
5.61564e-05
5.60396e-05
5.5882e-05
5.56296e-05
5.53663e-05
5.44901e-05
5.30708e-05
5.16914e-05
4.99506e-05
4.76288e-05
4.41661e-05
3.88714e-05
3.24767e-05
2.73056e-05
2.03493e-05
1.92938e-05
2.13687e-05
3.25367e-05
0.000165716
0.000122372
7.80595e-05
7.98638e-05
8.51573e-05
9.5848e-05
9.22358e-05
8.1026e-05
7.18688e-05
6.43512e-05
5.80714e-05
5.28321e-05
4.8368e-05
4.45995e-05
4.13726e-05
3.86044e-05
3.61873e-05
3.40743e-05
3.22167e-05
3.05705e-05
2.90804e-05
2.76975e-05
2.63994e-05
2.5189e-05
2.40757e-05
2.30662e-05
2.21603e-05
2.13531e-05
2.06388e-05
2.00104e-05
1.94612e-05
1.89845e-05
1.85755e-05
1.82315e-05
1.79507e-05
1.77312e-05
1.75707e-05
1.7467e-05
1.74207e-05
1.74416e-05
1.75327e-05
1.76883e-05
1.79016e-05
1.81707e-05
1.8496e-05
1.88803e-05
1.93094e-05
1.97693e-05
2.02598e-05
2.07807e-05
2.13312e-05
2.19104e-05
2.2517e-05
2.31493e-05
2.38054e-05
2.44831e-05
2.51797e-05
2.58926e-05
2.66205e-05
2.73621e-05
2.8116e-05
2.87754e-05
2.93932e-05
3.00156e-05
3.06411e-05
3.12738e-05
3.19128e-05
3.25592e-05
3.32129e-05
3.38743e-05
3.45436e-05
3.52207e-05
3.59054e-05
3.65989e-05
3.73003e-05
3.80094e-05
3.87253e-05
3.94492e-05
4.01782e-05
4.09126e-05
4.16541e-05
4.24042e-05
4.31613e-05
4.39263e-05
4.46979e-05
4.54772e-05
4.6262e-05
4.7054e-05
4.78495e-05
4.86513e-05
4.94552e-05
5.02576e-05
5.10565e-05
5.18526e-05
5.25248e-05
5.31054e-05
5.36762e-05
5.42378e-05
5.47894e-05
5.53306e-05
5.5861e-05
5.63807e-05
5.68898e-05
5.73884e-05
5.78765e-05
5.83542e-05
5.88215e-05
5.92784e-05
5.9725e-05
6.01613e-05
6.05877e-05
6.10041e-05
6.14111e-05
6.18088e-05
6.21972e-05
6.25761e-05
6.29463e-05
6.33085e-05
6.3663e-05
6.40101e-05
6.43502e-05
6.46837e-05
6.5011e-05
6.53324e-05
6.56483e-05
6.59589e-05
6.62644e-05
6.6565e-05
6.68611e-05
6.71528e-05
6.74402e-05
6.77236e-05
6.8003e-05
6.82785e-05
6.85503e-05
6.88185e-05
6.90831e-05
6.93441e-05
6.96017e-05
6.98557e-05
7.01062e-05
7.03534e-05
7.05971e-05
7.08375e-05
7.10746e-05
7.13084e-05
7.1539e-05
7.17661e-05
7.199e-05
7.22105e-05
7.24277e-05
7.26416e-05
7.28522e-05
7.30598e-05
7.32644e-05
7.34659e-05
7.36647e-05
7.38606e-05
7.40538e-05
7.42443e-05
7.44322e-05
7.46175e-05
7.48004e-05
7.49809e-05
7.51593e-05
7.53356e-05
7.55101e-05
7.5683e-05
7.58545e-05
7.60248e-05
7.6194e-05
7.63624e-05
7.653e-05
7.66971e-05
7.68638e-05
7.70302e-05
7.71964e-05
7.73623e-05
7.7528e-05
7.76932e-05
7.78579e-05
7.80219e-05
7.81849e-05
7.8347e-05
7.85081e-05
7.8668e-05
7.88268e-05
7.89844e-05
7.91409e-05
7.92961e-05
7.94502e-05
7.96029e-05
7.97541e-05
7.99038e-05
8.00517e-05
8.01979e-05
8.03424e-05
8.04853e-05
8.06268e-05
8.0767e-05
8.09063e-05
8.1045e-05
8.11833e-05
8.13216e-05
8.146e-05
8.15987e-05
8.1738e-05
8.1878e-05
8.20189e-05
8.21608e-05
8.23041e-05
8.24489e-05
8.25953e-05
8.27437e-05
8.28941e-05
8.30468e-05
8.32018e-05
8.33594e-05
8.35194e-05
8.36821e-05
8.38473e-05
8.40152e-05
8.41858e-05
8.4359e-05
8.4535e-05
8.47135e-05
8.48946e-05
8.50782e-05
8.52641e-05
8.54522e-05
8.56425e-05
8.58349e-05
8.60293e-05
8.62257e-05
8.64241e-05
8.66243e-05
8.68263e-05
8.70301e-05
8.72356e-05
8.74427e-05
8.76512e-05
8.78612e-05
8.80723e-05
8.82845e-05
8.84975e-05
8.8711e-05
8.89246e-05
8.9138e-05
8.93507e-05
8.95626e-05
8.97732e-05
8.99823e-05
9.01896e-05
9.0395e-05
9.05982e-05
9.0799e-05
9.0997e-05
9.11922e-05
9.13842e-05
9.15728e-05
9.17578e-05
9.1939e-05
9.21163e-05
9.22894e-05
9.24582e-05
9.26224e-05
9.2782e-05
9.29368e-05
9.30864e-05
9.32307e-05
9.33695e-05
9.35027e-05
9.363e-05
9.37515e-05
9.38669e-05
9.39763e-05
9.40797e-05
9.4177e-05
9.42683e-05
9.43536e-05
9.4433e-05
9.45064e-05
9.45739e-05
9.46355e-05
9.46912e-05
9.47412e-05
9.47854e-05
9.48241e-05
9.48575e-05
9.48856e-05
9.49087e-05
9.4927e-05
9.49406e-05
9.49498e-05
9.49547e-05
9.49556e-05
9.49527e-05
9.49461e-05
9.49362e-05
9.4923e-05
9.49067e-05
9.48876e-05
9.48657e-05
9.48413e-05
9.48145e-05
9.47854e-05
9.47541e-05
9.47209e-05
9.46859e-05
9.46493e-05
9.46113e-05
9.45719e-05
9.45312e-05
9.44893e-05
9.44462e-05
9.44022e-05
9.43572e-05
9.43113e-05
9.42647e-05
9.42176e-05
9.41699e-05
9.4122e-05
9.40739e-05
9.40258e-05
9.39777e-05
9.39299e-05
9.38823e-05
9.3835e-05
9.37882e-05
9.37417e-05
9.36958e-05
9.36505e-05
9.36057e-05
9.35616e-05
9.35183e-05
9.34756e-05
9.34338e-05
9.33927e-05
9.33526e-05
9.33134e-05
9.32752e-05
9.3238e-05
9.32019e-05
9.31668e-05
9.31326e-05
9.30992e-05
9.30666e-05
9.30347e-05
9.30034e-05
9.29728e-05
9.2943e-05
9.29138e-05
9.28854e-05
9.28578e-05
9.28311e-05
9.28055e-05
9.27812e-05
9.27585e-05
9.27375e-05
9.27185e-05
9.27017e-05
9.26872e-05
9.26753e-05
9.26661e-05
9.26596e-05
9.2656e-05
9.26552e-05
9.26575e-05
9.26627e-05
9.2671e-05
9.26823e-05
9.26965e-05
9.27134e-05
9.27327e-05
9.27542e-05
9.27774e-05
9.28018e-05
9.28271e-05
9.28528e-05
9.28785e-05
9.2904e-05
9.29292e-05
9.29539e-05
9.2978e-05
9.30015e-05
9.30244e-05
9.30466e-05
9.30681e-05
9.30888e-05
9.31088e-05
9.31281e-05
9.31465e-05
9.31641e-05
9.31804e-05
9.31954e-05
9.32086e-05
9.32196e-05
9.32281e-05
9.32337e-05
9.32361e-05
9.32348e-05
9.32298e-05
9.32205e-05
9.32069e-05
9.31887e-05
9.31659e-05
9.31383e-05
9.31061e-05
9.30695e-05
9.30288e-05
9.29845e-05
9.29373e-05
9.28876e-05
9.2836e-05
9.2783e-05
9.27286e-05
9.26731e-05
9.26165e-05
9.25588e-05
9.25e-05
9.24402e-05
9.23793e-05
9.23173e-05
9.22541e-05
9.21894e-05
9.21229e-05
9.20542e-05
9.19826e-05
9.19079e-05
9.18298e-05
9.17479e-05
9.16623e-05
9.15729e-05
9.14798e-05
9.13834e-05
9.12837e-05
9.11811e-05
9.10758e-05
9.09677e-05
9.08571e-05
9.07438e-05
9.06282e-05
9.05104e-05
9.03907e-05
9.02695e-05
9.0147e-05
9.00235e-05
8.98991e-05
8.97738e-05
8.96478e-05
8.9521e-05
8.93934e-05
8.92649e-05
8.91355e-05
8.90052e-05
8.88737e-05
8.87414e-05
8.86083e-05
8.84746e-05
8.83406e-05
8.82065e-05
8.80726e-05
8.79393e-05
8.78066e-05
8.76748e-05
8.7544e-05
8.74141e-05
8.72851e-05
8.7157e-05
8.70297e-05
8.69035e-05
8.67786e-05
8.66552e-05
8.65337e-05
8.64144e-05
8.62976e-05
8.61838e-05
8.60731e-05
8.59661e-05
8.58628e-05
8.57635e-05
8.5668e-05
8.55766e-05
8.5489e-05
8.54054e-05
8.53255e-05
8.52494e-05
8.51769e-05
8.51083e-05
8.50431e-05
8.49815e-05
8.49227e-05
8.4867e-05
8.48138e-05
8.47635e-05
8.47156e-05
8.46705e-05
8.46276e-05
8.45872e-05
8.45484e-05
8.45114e-05
8.44752e-05
8.44404e-05
8.44059e-05
8.43724e-05
8.43389e-05
8.43063e-05
8.42733e-05
8.42412e-05
8.42086e-05
8.41768e-05
8.4144e-05
8.41115e-05
8.40777e-05
8.40436e-05
8.40074e-05
8.39702e-05
8.39303e-05
8.38885e-05
8.38443e-05
8.37986e-05
8.37518e-05
8.37047e-05
8.36574e-05
8.36099e-05
8.35611e-05
8.35115e-05
8.34575e-05
8.34004e-05
8.33355e-05
8.32609e-05
8.31691e-05
8.30513e-05
8.2891e-05
8.26761e-05
8.23268e-05
8.19166e-05
8.0809e-05
7.9048e-05
7.70803e-05
7.34828e-05
6.85363e-05
6.15101e-05
5.26892e-05
4.20839e-05
3.70532e-05
2.65396e-05
2.30319e-05
2.56904e-05
3.57063e-05
0.000150928
0.000111878
7.49761e-05
7.52301e-05
8.05279e-05
8.85424e-05
0.00010506
0.000117371
0.000125329
0.000116412
0.000108555
0.000101449
9.49917e-05
8.9198e-05
8.39736e-05
7.92732e-05
7.50039e-05
7.11271e-05
6.75996e-05
6.43704e-05
6.13791e-05
5.85713e-05
5.59124e-05
5.33955e-05
5.10271e-05
4.88141e-05
4.67572e-05
4.48506e-05
4.30867e-05
4.14578e-05
3.99538e-05
3.8565e-05
3.72803e-05
3.60912e-05
3.49906e-05
3.39738e-05
3.30365e-05
3.21746e-05
3.13731e-05
3.05638e-05
2.97135e-05
2.88605e-05
2.80456e-05
2.72914e-05
2.66079e-05
2.59988e-05
2.54656e-05
2.50086e-05
2.46261e-05
2.43162e-05
2.40763e-05
2.39037e-05
2.37961e-05
2.37516e-05
2.37683e-05
2.38449e-05
2.39801e-05
2.41741e-05
2.44258e-05
2.47342e-05
2.50988e-05
2.5518e-05
2.59888e-05
2.65105e-05
2.70828e-05
2.77053e-05
2.83646e-05
2.90603e-05
2.97927e-05
3.0562e-05
3.1368e-05
3.22102e-05
3.30876e-05
3.39993e-05
3.4944e-05
3.59203e-05
3.69265e-05
3.79611e-05
3.90225e-05
4.01089e-05
4.1219e-05
4.23515e-05
4.35046e-05
4.46771e-05
4.58672e-05
4.70725e-05
4.82904e-05
4.95171e-05
5.07486e-05
5.19809e-05
5.321e-05
5.4431e-05
5.56383e-05
5.68269e-05
5.79922e-05
5.9131e-05
6.0242e-05
6.13251e-05
6.23797e-05
6.34075e-05
6.44102e-05
6.5389e-05
6.63449e-05
6.72789e-05
6.81907e-05
6.90801e-05
6.99472e-05
7.07928e-05
7.16174e-05
7.2422e-05
7.32073e-05
7.39741e-05
7.47234e-05
7.54557e-05
7.61712e-05
7.68709e-05
7.75568e-05
7.82293e-05
7.88889e-05
7.95363e-05
8.01722e-05
8.07971e-05
8.14116e-05
8.20157e-05
8.26099e-05
8.31942e-05
8.37689e-05
8.43343e-05
8.48905e-05
8.54377e-05
8.59761e-05
8.65058e-05
8.7027e-05
8.75399e-05
8.80445e-05
8.85409e-05
8.90292e-05
8.95093e-05
8.99812e-05
9.04448e-05
9.09001e-05
9.13471e-05
9.17858e-05
9.22165e-05
9.2639e-05
9.30536e-05
9.34604e-05
9.38593e-05
9.42506e-05
9.46343e-05
9.50106e-05
9.53798e-05
9.57421e-05
9.60976e-05
9.64467e-05
9.67894e-05
9.71261e-05
9.74566e-05
9.77813e-05
9.81001e-05
9.84131e-05
9.87205e-05
9.90225e-05
9.93192e-05
9.9611e-05
9.98982e-05
0.000100181
0.00010046
0.000100736
0.000101009
0.00010128
0.000101548
0.000101815
0.000102081
0.000102345
0.000102609
0.000102872
0.000103135
0.000103398
0.00010366
0.000103921
0.000104181
0.00010444
0.000104698
0.000104954
0.000105208
0.00010546
0.000105711
0.000105959
0.000106206
0.00010645
0.000106692
0.000106932
0.000107169
0.000107404
0.000107636
0.000107865
0.000108092
0.000108317
0.000108541
0.000108762
0.000108983
0.000109204
0.000109425
0.000109646
0.000109869
0.000110092
0.000110317
0.000110544
0.000110773
0.000111005
0.000111239
0.000111477
0.000111718
0.000111962
0.00011221
0.000112463
0.00011272
0.000112981
0.000113246
0.000113516
0.00011379
0.000114068
0.000114351
0.000114638
0.000114929
0.000115224
0.000115524
0.000115827
0.000116133
0.000116444
0.000116757
0.000117074
0.000117394
0.000117718
0.000118044
0.000118373
0.000118706
0.000119041
0.000119378
0.000119717
0.000120059
0.000120401
0.000120745
0.000121088
0.000121432
0.000121774
0.000122114
0.000122452
0.000122786