/*--------------------------------*- C++ -*----------------------------------*\
| =========                 |                                                 |
| \\      /  F ield         | foam-extend: Open Source CFD                    |
|  \\    /   O peration     | Version:     3.2                                |
|   \\  /    A nd           | Web:         http://www.foam-extend.org         |
|    \\/     M anipulation  | For copyright notice see file Copyright         |
\*---------------------------------------------------------------------------*/
FoamFile
{
    version     2.0;
    format      ascii;
    class       areaScalarField;
    location    "120";
    object      Hdep;
}
// * * * * * * * * * * * * * * * * * * * * * * * * * * * * * * * * * * * * * //

dimensions      [0 0 0 0 0 0 0];

internalField   nonuniform List<scalar> 
550
(
0
0
0
0
0
0
0
0
0
0
0
0
0
0
0
0
0
0
0
0
0
0
0
0
0
0
0
0
0
0
0
0
0
0
0
0
0
0
0
0
0
0
0
0
0
0
0
0
0
0
0
0
0
0
0
0
0
0
0
0
1.97217e-07
1.99059e-06
5.73544e-06
1.03496e-05
1.50722e-05
1.9795e-05
2.44235e-05
2.89438e-05
3.33543e-05
3.76637e-05
4.18831e-05
4.60267e-05
5.01098e-05
5.41423e-05
5.81252e-05
6.20542e-05
6.59188e-05
6.97044e-05
7.34043e-05
7.70275e-05
8.05836e-05
8.40767e-05
8.75086e-05
9.08799e-05
9.41914e-05
9.74457e-05
0.000100648
0.000103806
0.000106932
0.000110046
0.000113155
0.000116255
0.000119336
0.00012239
0.00012541
0.000128386
0.000131308
0.000134171
0.000136997
0.000139814
0.000142638
0.000145477
0.000148338
0.00015122
0.000154125
0.000157052
0.000159999
0.000162965
0.000165952
0.00016896
0.000171988
0.000175032
0.00017809
0.000181167
0.000184276
0.000187412
0.000190555
0.000193695
0.000196831
0.000199965
0.000203097
0.000206224
0.000209345
0.000212457
0.000215557
0.000218643
0.000221713
0.000224766
0.0002278
0.000230811
0.000233797
0.000236754
0.000239678
0.000242567
0.000245418
0.000248228
0.000250996
0.000253721
0.000256402
0.000259038
0.000261629
0.000264174
0.000266673
0.000269127
0.000271536
0.000273901
0.000276225
0.000278508
0.000280753
0.000282961
0.000285132
0.000287267
0.000289366
0.000291429
0.000293458
0.000295453
0.000297414
0.000299344
0.000301246
0.00030312
0.000304966
0.000306785
0.000308575
0.000310335
0.000312066
0.000313767
0.000315436
0.000317076
0.000318685
0.000320264
0.000321815
0.000323334
0.000324821
0.000326277
0.000327702
0.000329094
0.000330453
0.000331777
0.000333066
0.000334319
0.000335535
0.000336712
0.000337851
0.000338951
0.000340012
0.000341035
0.000342017
0.000342958
0.000343858
0.000344718
0.000345537
0.000346315
0.000347051
0.000347745
0.000348397
0.000349007
0.000349576
0.000350108
0.000350604
0.000351065
0.000351492
0.000351885
0.000352246
0.000352575
0.000352878
0.000353155
0.000353405
0.000353625
0.000353819
0.000353987
0.000354129
0.000354246
0.000354337
0.000354405
0.000354449
0.000354471
0.000354469
0.000354443
0.000354388
0.000354303
0.000354188
0.000354041
0.000353865
0.000353668
0.000353457
0.000353234
0.000352993
0.000352731
0.00035245
0.000352151
0.000351833
0.000351495
0.000351138
0.000350766
0.00035038
0.000349977
0.000349555
0.000349118
0.000348666
0.000348197
0.000347713
0.000347216
0.000346708
0.000346189
0.000345662
0.000345128
0.000344591
0.000344056
0.000343525
0.000342996
0.000342473
0.00034196
0.000341462
0.00034098
0.00034052
0.000340087
0.000339678
0.000339293
0.000338931
0.000338597
0.000338298
0.000338044
0.000337839
0.000337667
0.000337516
0.000337381
0.000337252
0.000337134
0.000337031
0.000336945
0.000336878
0.000336829
0.0003368
0.000336791
0.000336802
0.000336834
0.000336882
0.000336949
0.000337032
0.000337132
0.000337244
0.000337372
0.00033751
0.000337661
0.000337819
0.000337986
0.000338158
0.000338337
0.000338518
0.000338705
0.000338891
0.000339083
0.000339272
0.000339464
0.000339652
0.000339842
0.000340027
0.000340213
0.000340394
0.000340576
0.000340752
0.000340931
0.000341105
0.000341281
0.000341453
0.000341628
0.0003418
0.000341974
0.000342144
0.000342316
0.000342481
0.000342644
0.000342797
0.000342945
0.00034308
0.000343207
0.00034332
0.000343423
0.00034351
0.000343588
0.000343653
0.00034371
0.000343757
0.000343797
0.000343828
0.000343853
0.000343867
0.000343873
0.000343867
0.00034385
0.000343818
0.00034377
0.000343705
0.000343622
0.00034352
0.0003434
0.000343261
0.000343105
0.000342934
0.000342751
0.000342558
0.000342362
0.000342165
0.000341967
0.000341768
0.000341571
0.000341378
0.000341189
0.000341009
0.000340846
0.000340711
0.000340612
0.000340544
0.000340489
0.000340422
0.000340336
0.000340236
0.000340128
0.000340012
0.000339889
0.000339761
0.000339627
0.000339485
0.000339335
0.00033918
0.000339017
0.00033884
0.00033865
0.000338451
0.000338245
0.00033803
0.000337808
0.00033758
0.00033735
0.000337116
0.00033688
0.000336644
0.000336409
0.000336177
0.00033595
0.000335735
0.00033554
0.000335375
0.000335245
0.000335153
0.000335097
0.000335078
0.000335093
0.000335138
0.000335208
0.000335307
0.000335423
0.000335545
0.000335678
0.000335819
0.000335958
0.000336092
0.000336225
0.000336357
0.000336489
0.00033662
0.000336752
0.000336889
0.00033703
0.000337174
0.000337318
0.000337463
0.000337613
0.000337773
0.000337943
0.000338125
0.000338319
0.000338526
0.000338744
0.000338973
0.000339214
0.000339464
0.000339722
0.000339988
0.000340261
0.00034054
0.000340824
0.000341114
0.00034141
0.00034171
0.000342013
0.000342318
0.000342623
0.000342928
0.000343229
0.000343527
0.000343819
0.000344107
0.000344389
0.000344666
0.00034494
0.000345212
0.00034548
0.000345748
0.000346014
0.000346279
0.00034654
0.000346798
0.000347048
0.000347291
0.000347521
0.000347741
0.000347945
0.000348134
0.000348303
0.000348452
0.000348577
0.000348683
0.000348767
0.000348835
0.000348885
0.000348922
0.000348945
0.000348959
0.000348963
0.000348962
0.000348954
0.000348944
0.00034893
0.000348916
0.000348899
0.000348881
0.000348857
0.000348829
0.000348789
0.000348741
0.00034868
0.00034861
0.000348531
0.000348447
0.000348357
0.000348264
0.000348168
0.000348073
0.000347979
0.000347887
0.000347797
0.000347709
0.000347622
0.000347536
0.000347449
0.000347362
0.000347275
0.000347187
0.000347097
0.000347005
0.000346909
0.000346812
0.000346716
0.000346624
0.00034654
0.000346463
0.000346393
0.000346327
0.00034626
0.00034619
0.000346113
0.00034603
0.000345941
0.000345847
0.00034575
0.000345651
0.000345555
0.000345468
0.000345395
0.00034534
0.000345305
0.000345292
0.000345298
0.000345319
0.000345349
0.000345383
0.000345415
0.000345446
0.000345473
0.0003455
0.00034553
0.000345574
0.000345636
0.000345735
0.000345882
0.000346113
0.000346471
0.000347024
0.000347861
0.000349128
0.000351011
0.000353792
0.000357856
0.000363704
0.000372157
0.000381251
0.000393362
0.000304501
0
0
0
0
0
0
0
0
0
0
0
)
;

boundaryField
{
    inlet
    {
        type            calculated;
        value           uniform 0;
    }
    endWall
    {
        type            calculated;
        value           uniform 0;
    }
    sideWall
    {
        type            empty;
    }
}


// ************************************************************************* //
