/*--------------------------------*- C++ -*----------------------------------*\
| =========                 |                                                 |
| \\      /  F ield         | foam-extend: Open Source CFD                    |
|  \\    /   O peration     | Version:     3.2                                |
|   \\  /    A nd           | Web:         http://www.foam-extend.org         |
|    \\/     M anipulation  | For copyright notice see file Copyright         |
\*---------------------------------------------------------------------------*/
FoamFile
{
    version     2.0;
    format      ascii;
    class       areaScalarField;
    location    "120";
    object      kTempA;
}
// * * * * * * * * * * * * * * * * * * * * * * * * * * * * * * * * * * * * * //

dimensions      [0 2 -2 0 0 0 0];

internalField   nonuniform List<scalar> 
550
(
0.000162373
0.000222159
0.000293913
0.000376596
0.000468045
0.000564958
0.000663674
0.000760143
0.000850977
0.000933128
0.00100474
0.00106457
0.00111249
0.00114874
0.00117421
0.00118994
0.0011973
0.0011976
0.00119224
0.00118277
0.00117009
0.00115496
0.00113805
0.00111992
0.00110108
0.00108197
0.00106293
0.0010443
0.00102632
0.00100898
0.000992326
0.0009764
0.00096124
0.000946865
0.000933275
0.000920458
0.000908399
0.000897074
0.000886454
0.000876505
0.000867197
0.000858495
0.000850361
0.000842758
0.000835651
0.000829005
0.000822792
0.000816983
0.000811552
0.000806472
0.000801719
0.00079727
0.0007931
0.000789186
0.000785506
0.000782038
0.000778763
0.000775665
0.000772729
0.000769934
0.000767263
0.000764746
0.000762396
0.000760188
0.000758096
0.000756107
0.000754205
0.00075238
0.000750624
0.00074893
0.000747291
0.000745701
0.000744156
0.00074265
0.000741181
0.000739744
0.000738338
0.000736961
0.000735613
0.000734295
0.000733005
0.000731741
0.000730504
0.000729289
0.000728096
0.000726923
0.000725767
0.000724627
0.000723501
0.000722386
0.00072128
0.00072018
0.000719084
0.000717993
0.000716905
0.000715821
0.000714742
0.000713667
0.000712601
0.000711541
0.000710486
0.000709434
0.000708384
0.000707334
0.000706281
0.000705225
0.000704163
0.000703094
0.000702018
0.000700934
0.00069984
0.000698738
0.000697628
0.000696509
0.000695383
0.000694246
0.0006931
0.000691945
0.000690783
0.000689614
0.000688439
0.000687257
0.00068607
0.000684878
0.000683681
0.000682479
0.000681274
0.000680066
0.000678857
0.000677646
0.000676436
0.000675227
0.000674019
0.000672814
0.000671611
0.000670413
0.000669218
0.000668028
0.000666844
0.000665665
0.000664492
0.000663326
0.000662166
0.000661014
0.00065987
0.000658733
0.000657604
0.000656483
0.00065537
0.000654266
0.00065317
0.000652084
0.000651006
0.000649937
0.000648878
0.000647829
0.000646789
0.00064576
0.000644742
0.000643734
0.000642736
0.00064175
0.000640776
0.000639813
0.000638862
0.000637922
0.000636996
0.000636081
0.00063518
0.00063429
0.000633414
0.00063255
0.000631698
0.000630859
0.000630032
0.000629217
0.000628414
0.000627621
0.000626839
0.000626067
0.000625305
0.000624551
0.000623806
0.000623069
0.000622341
0.00062162
0.000620906
0.0006202
0.000619501
0.000618808
0.000618122
0.000617442
0.000616767
0.000616098
0.000615435
0.000614777
0.000614124
0.000613477
0.000612836
0.0006122
0.000611572
0.000610949
0.000610334
0.000609726
0.000609126
0.000608534
0.000607951
0.000607376
0.00060681
0.000606253
0.000605705
0.000605165
0.000604631
0.000604103
0.000603582
0.000603068
0.000602561
0.000602062
0.000601572
0.000601091
0.00060062
0.000600159
0.000599708
0.000599267
0.000598837
0.000598417
0.000598008
0.000597609
0.00059722
0.000596841
0.000596473
0.000596114
0.000595765
0.000595425
0.000595095
0.000594775
0.000594464
0.000594162
0.00059387
0.000593587
0.000593314
0.00059305
0.000592797
0.000592555
0.000592323
0.000592102
0.000591891
0.000591692
0.000591502
0.000591324
0.000591155
0.000590996
0.000590847
0.000590708
0.000590579
0.000590458
0.000590346
0.000590241
0.000590143
0.000590051
0.000589965
0.000589883
0.000589806
0.000589732
0.00058966
0.00058959
0.00058952
0.000589451
0.000589379
0.000589307
0.000589231
0.000589152
0.00058907
0.000588982
0.000588889
0.00058879
0.000588685
0.000588573
0.000588453
0.000588325
0.00058819
0.000588045
0.000587892
0.00058773
0.000587558
0.000587378
0.000587188
0.000586988
0.00058678
0.000586562
0.000586335
0.0005861
0.000585855
0.000585602
0.000585341
0.000585073
0.000584796
0.000584513
0.000584222
0.000583925
0.000583621
0.000583311
0.000582995
0.000582672
0.000582343
0.000582009
0.000581668
0.000581323
0.000580972
0.000580617
0.000580257
0.000579892
0.000579523
0.00057915
0.000578773
0.000578391
0.000578005
0.000577614
0.00057722
0.000576821
0.000576419
0.000576013
0.000575604
0.000575191
0.000574776
0.000574358
0.000573938
0.000573516
0.000573093
0.000572668
0.000572242
0.000571815
0.000571388
0.00057096
0.000570531
0.000570103
0.000569675
0.000569247
0.00056882
0.000568393
0.000567967
0.000567543
0.00056712
0.000566699
0.000566279
0.000565861
0.000565443
0.000565027
0.000564612
0.000564198
0.000563785
0.000563373
0.000562964
0.000562556
0.000562151
0.000561747
0.000561345
0.000560945
0.000560549
0.000560155
0.000559765
0.000559378
0.000558995
0.000558616
0.000558241
0.000557871
0.000557505
0.000557145
0.00055679
0.000556441
0.000556097
0.00055576
0.000555429
0.000555105
0.000554787
0.000554475
0.000554168
0.000553868
0.000553572
0.000553281
0.000552995
0.000552713
0.000552435
0.000552161
0.000551891
0.000551626
0.000551364
0.000551106
0.000550852
0.000550602
0.000550355
0.000550112
0.000549872
0.000549635
0.000549401
0.000549167
0.000548935
0.000548704
0.000548472
0.000548239
0.000548006
0.00054777
0.000547533
0.000547293
0.000547049
0.000546802
0.000546551
0.000546296
0.000546036
0.000545773
0.000545506
0.000545235
0.000544962
0.000544685
0.000544406
0.000544124
0.000543839
0.000543551
0.000543261
0.000542967
0.00054267
0.00054237
0.000542066
0.00054176
0.000541448
0.000541133
0.000540811
0.000540484
0.000540149
0.000539806
0.000539455
0.000539095
0.000538727
0.00053835
0.000537963
0.000537568
0.000537163
0.000536749
0.000536327
0.000535895
0.000535454
0.000535004
0.000534547
0.000534083
0.000533612
0.000533135
0.000532652
0.000532165
0.000531673
0.000531177
0.000530677
0.000530172
0.000529664
0.000529152
0.000528637
0.000528117
0.000527595
0.000527069
0.00052654
0.000526009
0.000525475
0.000524938
0.0005244
0.00052386
0.000523317
0.000522773
0.000522227
0.000521679
0.000521129
0.000520577
0.000520025
0.000519473
0.000518921
0.000518371
0.000517823
0.000517278
0.000516737
0.0005162
0.000515667
0.00051514
0.000514618
0.0005141
0.000513588
0.00051308
0.000512578
0.000512081
0.000511589
0.000511102
0.000510622
0.000510147
0.000509678
0.000509215
0.000508757
0.000508304
0.000507856
0.000507413
0.000506974
0.000506541
0.000506113
0.000505691
0.000505274
0.000504863
0.000504456
0.000504055
0.000503658
0.000503265
0.000502875
0.00050249
0.000502106
0.000501726
0.000501347
0.000500972
0.000500596
0.000500223
0.000499849
0.000499477
0.000499101
0.000498728
0.00049835
0.000497975
0.000497598
0.000497224
0.000496848
0.000496475
0.000496096
0.000495716
0.00049532
0.000494917
0.000494471
0.000494007
0.000493449
0.000492838
0.000492028
0.000491092
0.000489744
0.000488149
0.000485669
0.000482975
0.000476451
0.000465197
0.000450878
0.000432914
0.000406399
0.000370646
0.000321831
0.000257558
0.000160222
7.64287e-05
0.000100492
0.000170756
)
;

boundaryField
{
    inlet
    {
        type            calculated;
        value           uniform 0;
    }
    endWall
    {
        type            calculated;
        value           uniform 0;
    }
    sideWall
    {
        type            empty;
    }
}


// ************************************************************************* //
