/*--------------------------------*- C++ -*----------------------------------*\
| =========                 |                                                 |
| \\      /  F ield         | foam-extend: Open Source CFD                    |
|  \\    /   O peration     | Version:     3.2                                |
|   \\  /    A nd           | Web:         http://www.foam-extend.org         |
|    \\/     M anipulation  | For copyright notice see file Copyright         |
\*---------------------------------------------------------------------------*/
FoamFile
{
    version     2.0;
    format      ascii;
    class       surfaceScalarField;
    location    "120";
    object      meshPhi;
}
// * * * * * * * * * * * * * * * * * * * * * * * * * * * * * * * * * * * * * //

dimensions      [0 3 -1 0 0 0 0];

internalField   nonuniform List<scalar> 
65390
(
0
0
0
0
0
0
0
0
0
0
0
0
0
0
0
0
0
0
0
0
0
0
0
0
0
0
0
0
0
0
0
0
0
0
0
0
0
0
0
0
0
0
0
0
8.02471e-35
2.62837e-20
8.02471e-35
7.88511e-20
0
7.88511e-20
0
7.88511e-20
-4.62593e-19
1.05135e-19
0
1.31418e-19
0
1.57702e-19
-9.25186e-19
2.36553e-19
0
3.28546e-19
0
4.46823e-19
-1.3642e-33
5.65099e-19
-9.25186e-19
7.75369e-19
0
9.72496e-19
0
1.32733e-18
0
1.73472e-18
1.85037e-18
2.27354e-18
0
3.02262e-18
9.25186e-19
3.98198e-18
-9.25186e-19
5.2436e-18
1.61297e-32
6.95204e-18
0
9.18615e-18
9.25186e-19
1.21101e-17
9.25186e-19
1.61119e-17
-9.25186e-19
2.14212e-17
-9.25186e-19
2.84915e-17
-9.25186e-19
3.80588e-17
-9.25186e-19
5.09772e-17
9.25186e-19
6.86004e-17
0
9.27683e-17
-9.25186e-19
1.2607e-16
0
1.71948e-16
-9.25186e-19
2.34267e-16
0
3.12605e-16
0
3.98198e-16
-1.85037e-18
-1.06436e-16
0
5.57591e-15
0
-2.55871e-13
-1.85039e-18
-3.75754e-12
-1.85043e-18
-5.11081e-12
0
5.20133e-12
6.26658e-28
2.11841e-11
-1.85037e-18
3.7165e-11
-3.72979e-29
5.45559e-11
0
7.24974e-11
0
9.03868e-11
0
1.0806e-10
-1.85037e-18
1.2543e-10
-1.85037e-18
1.42489e-10
0
1.59252e-10
-1.85037e-18
1.75751e-10
0
1.92019e-10
0
2.08067e-10
-1.85037e-18
2.23886e-10
0
2.39457e-10
-1.85037e-18
2.54748e-10
-1.85037e-18
2.69716e-10
0
2.84337e-10
-3.70074e-18
2.98637e-10
9.54106e-29
3.12662e-10
0
3.26447e-10
1.85037e-18
3.40014e-10
0
3.53379e-10
0
3.66558e-10
0
3.79575e-10
-1.85037e-18
3.92456e-10
-4.09458e-29
4.05237e-10
0
4.1796e-10
-1.85037e-18
4.30677e-10
1.85037e-18
4.43411e-10
-4.72139e-29
4.56144e-10
1.85037e-18
4.68842e-10
-1.85037e-18
4.81467e-10
0
4.93976e-10
-1.85037e-18
5.06327e-10
-1.85037e-18
5.18479e-10
0
5.30421e-10
-3.80641e-29
5.42205e-10
3.70074e-18
5.53922e-10
-1.85037e-18
5.65642e-10
0
5.77414e-10
1.85037e-18
5.89269e-10
1.85037e-18
6.01227e-10
1.85037e-18
6.13293e-10
-6.1304e-30
6.25468e-10
1.85037e-18
6.37746e-10
0
6.50125e-10
1.85037e-18
6.62605e-10
0
6.75182e-10
2.82601e-29
6.87853e-10
3.70074e-18
7.00608e-10
0
7.13437e-10
-3.70074e-18
7.26353e-10
2.13464e-29
7.39392e-10
-3.70074e-18
7.52551e-10
-3.70074e-18
7.65768e-10
3.70074e-18
7.78999e-10
0
7.92241e-10
0
8.05496e-10
0
8.18765e-10
0
8.32046e-10
3.70074e-18
8.45333e-10
-3.70074e-18
8.58616e-10
3.70074e-18
8.71883e-10
0
8.85121e-10
-3.70074e-18
8.98319e-10
3.70074e-18
9.11467e-10
-3.70074e-18
9.24554e-10
-3.70074e-18
9.3757e-10
3.70074e-18
9.50502e-10
-3.70074e-18
9.63337e-10
-3.70074e-18
9.76062e-10
-3.70074e-18
9.88666e-10
0
1.00114e-09
-3.70074e-18
1.01347e-09
3.70074e-18
1.02565e-09
0
1.03768e-09
0
1.04955e-09
0
1.06126e-09
1.6887e-28
1.07281e-09
1.68688e-28
1.0842e-09
0
1.09542e-09
3.70074e-18
1.10648e-09
-3.70074e-18
1.11738e-09
-3.70074e-18
1.12813e-09
-3.70074e-18
1.13872e-09
7.40148e-18
1.14918e-09
3.70074e-18
1.15949e-09
0
1.16967e-09
-1.5146e-28
1.17972e-09
0
1.18963e-09
0
1.1994e-09
3.70074e-18
1.20904e-09
-3.70074e-18
1.21853e-09
-3.70074e-18
1.2279e-09
-3.70074e-18
1.23714e-09
3.70074e-18
1.24625e-09
0
1.25526e-09
0
1.26415e-09
7.40148e-18
1.27293e-09
-3.70074e-18
1.28159e-09
-3.70074e-18
1.29015e-09
-7.40148e-18
1.29859e-09
3.70074e-18
1.30692e-09
7.40148e-18
1.31513e-09
1.37385e-28
1.32322e-09
-1.35119e-28
1.33119e-09
-3.70074e-18
1.33904e-09
7.40148e-18
1.34679e-09
3.70074e-18
1.35442e-09
3.70074e-18
1.36194e-09
3.70074e-18
1.36934e-09
0
1.37663e-09
3.70074e-18
1.3838e-09
-3.70074e-18
1.39087e-09
-3.70074e-18
1.39781e-09
3.70074e-18
1.40464e-09
0
1.41134e-09
-3.70074e-18
1.41792e-09
0
1.42437e-09
3.70074e-18
1.43068e-09
-3.70074e-18
1.43685e-09
3.70074e-18
1.44287e-09
0
1.44874e-09
3.70074e-18
1.45446e-09
-3.70074e-18
1.46003e-09
1.53484e-28
1.46544e-09
3.70074e-18
1.47069e-09
-3.70074e-18
1.47578e-09
3.70074e-18
1.48071e-09
-3.70074e-18
1.48548e-09
3.70074e-18
1.49008e-09
-3.70074e-18
1.49452e-09
3.70074e-18
1.49879e-09
-3.70074e-18
1.50288e-09
-3.70074e-18
1.50681e-09
-1.43566e-28
1.51058e-09
7.40148e-18
1.51419e-09
-3.70074e-18
1.51765e-09
3.70074e-18
1.52096e-09
1.11022e-17
1.52412e-09
0
1.52714e-09
-3.70074e-18
1.53001e-09
1.11022e-17
1.53274e-09
-1.25411e-28
1.53532e-09
-3.70074e-18
1.53777e-09
0
1.54009e-09
-3.70074e-18
1.54229e-09
-9.75833e-29
1.54439e-09
3.70074e-18
1.54639e-09
0
1.5483e-09
1.21488e-28
1.55012e-09
3.70074e-18
1.55182e-09
-3.70074e-18
1.55339e-09
-7.40148e-18
1.55481e-09
3.70074e-18
1.55608e-09
-7.40148e-18
1.5572e-09
3.70074e-18
1.55818e-09
0
1.559e-09
7.40148e-18
1.55968e-09
0
1.56022e-09
7.40148e-18
1.56063e-09
0
1.56094e-09
7.40148e-18
1.56118e-09
-7.40148e-18
1.56137e-09
1.47743e-28
1.56152e-09
-7.40148e-18
1.56163e-09
0
1.56168e-09
0
1.56166e-09
0
1.56158e-09
-7.40148e-18
1.56143e-09
0
1.56122e-09
0
1.56095e-09
7.40148e-18
1.56062e-09
7.40148e-18
1.56024e-09
1.34037e-28
1.55982e-09
0
1.55936e-09
0
1.55886e-09
7.40148e-18
1.55833e-09
0
1.55777e-09
-7.40148e-18
1.55718e-09
7.40148e-18
1.55657e-09
1.4803e-17
1.55595e-09
-7.40148e-18
1.55532e-09
0
1.55469e-09
0
1.55407e-09
-7.40149e-18
1.55347e-09
0
1.55289e-09
-7.40149e-18
1.55234e-09
4.03251e-29
1.55183e-09
0
1.55135e-09
-7.40149e-18
1.55092e-09
7.40149e-18
1.55054e-09
0
1.55022e-09
0
1.54995e-09
7.40149e-18
1.54976e-09
-7.40149e-18
1.54965e-09
0
1.54965e-09
-1.54074e-32
1.54973e-09
1.9918e-29
1.54991e-09
7.40149e-18
1.55016e-09
-7.40149e-18
1.55049e-09
-7.40149e-18
1.55092e-09
7.40149e-18
1.55146e-09
0
1.55211e-09
1.4803e-17
1.55287e-09
-7.40149e-18
1.55371e-09
-7.40149e-18
1.55464e-09
0
1.55565e-09
7.40149e-18
1.55675e-09
0
1.55794e-09
7.40149e-18
1.55923e-09
0
1.56062e-09
0
1.56211e-09
0
1.56369e-09
0
1.56537e-09
-7.40149e-18
1.56713e-09
-7.40149e-18
1.56898e-09
7.40149e-18
1.57091e-09
0
1.5729e-09
0
1.57497e-09
0
1.5771e-09
-7.40149e-18
1.57928e-09
1.4803e-17
1.58151e-09
-7.40149e-18
1.58378e-09
0
1.58609e-09
0
1.58842e-09
0
1.59077e-09
-7.40149e-18
1.59315e-09
-7.40148e-18
1.59554e-09
7.40149e-18
1.59794e-09
0
1.60034e-09
7.40148e-18
1.60275e-09
-7.40148e-18
1.60516e-09
0
1.60756e-09
7.40148e-18
1.60996e-09
-1.4803e-17
1.61235e-09
-7.40148e-18
1.61474e-09
-7.40148e-18
1.61712e-09
-1.4803e-17
1.61951e-09
0
1.62189e-09
7.40148e-18
1.62427e-09
0
1.62666e-09
0
1.62905e-09
0
1.63144e-09
0
1.63384e-09
7.40148e-18
1.63625e-09
0
1.63865e-09
7.40148e-18
1.64105e-09
7.40148e-18
1.64344e-09
0
1.64581e-09
1.48805e-28
1.64817e-09
-1.5522e-28
1.65049e-09
-7.40148e-18
1.65279e-09
0
1.65504e-09
0
1.65724e-09
1.69133e-28
1.6594e-09
0
1.66151e-09
-1.62495e-28
1.66356e-09
7.40148e-18
1.66558e-09
-7.40148e-18
1.66755e-09
7.40148e-18
1.66948e-09
1.50405e-28
1.67138e-09
0
1.67324e-09
-7.40148e-18
1.67507e-09
0
1.67686e-09
7.40148e-18
1.6786e-09
1.4803e-17
1.68029e-09
0
1.68193e-09
-1.4803e-17
1.68351e-09
-1.4803e-17
1.68501e-09
-7.40148e-18
1.68643e-09
7.40148e-18
1.68777e-09
-7.40148e-18
1.68903e-09
-7.40148e-18
1.69019e-09
-7.40148e-18
1.69127e-09
0
1.69227e-09
-7.40148e-18
1.6932e-09
1.55995e-28
1.69406e-09
-1.4871e-28
1.69488e-09
-1.4803e-17
1.69564e-09
0
1.69638e-09
0
1.6971e-09
7.40149e-18
1.69781e-09
0
1.69853e-09
0
1.69927e-09
7.40149e-18
1.70004e-09
-7.40149e-18
1.70086e-09
-7.40149e-18
1.70172e-09
0
1.70262e-09
1.4803e-17
1.70354e-09
7.40148e-18
1.70447e-09
0
1.70545e-09
7.40148e-18
1.70647e-09
-7.40148e-18
1.70753e-09
-7.40148e-18
1.7086e-09
0
1.70966e-09
-7.40148e-18
1.7107e-09
-1.55821e-28
1.71171e-09
-7.40148e-18
1.7127e-09
0
1.71364e-09
7.40148e-18
1.71452e-09
-1.81096e-28
1.71535e-09
-1.4803e-17
1.71612e-09
1.40821e-28
1.71682e-09
-1.4803e-17
1.71749e-09
1.30809e-28
1.71812e-09
0
1.71872e-09
-7.40148e-18
1.71931e-09
-7.40148e-18
1.7199e-09
-1.4803e-17
1.72051e-09
0
1.72116e-09
-7.40149e-18
1.72185e-09
-7.40149e-18
1.72261e-09
-9.65533e-30
1.72345e-09
7.40149e-18
1.7244e-09
7.40149e-18
1.72545e-09
-7.40149e-18
1.72662e-09
-7.40149e-18
1.72792e-09
-2.0836e-29
1.72936e-09
-1.61624e-29
1.73091e-09
7.40149e-18
1.73259e-09
1.70869e-29
1.73438e-09
0
1.73629e-09
7.40149e-18
1.73832e-09
0
1.74044e-09
0
1.74265e-09
-6.44878e-29
1.74495e-09
-7.40149e-18
1.7473e-09
-1.4803e-17
1.74971e-09
7.2153e-29
1.75216e-09
-7.40149e-18
1.75466e-09
-1.00207e-28
1.7572e-09
-1.4803e-17
1.75974e-09
7.40148e-18
1.76232e-09
0
1.76492e-09
7.40148e-18
1.76753e-09
0
1.77015e-09
-1.4803e-17
1.77276e-09
7.40149e-18
1.77537e-09
-1.4803e-17
1.77796e-09
1.28216e-28
1.78055e-09
0
1.78312e-09
-7.40148e-18
1.78571e-09
7.40149e-18
1.78832e-09
-7.40149e-18
1.79097e-09
-7.40149e-18
1.79365e-09
-7.40149e-18
1.79638e-09
6.2395e-29
1.79916e-09
-1.4803e-17
1.802e-09
0
1.8049e-09
5.78293e-29
1.80786e-09
-1.4803e-17
1.81088e-09
-7.40149e-18
1.81397e-09
-7.40149e-18
1.81712e-09
7.40149e-18
1.82032e-09
0
1.82358e-09
-7.40149e-18
1.82689e-09
0
1.83025e-09
-7.40149e-18
1.83364e-09
7.40149e-18
1.83708e-09
-7.40149e-18
1.84056e-09
7.40149e-18
1.84409e-09
-2.22045e-17
1.84766e-09
0
1.85127e-09
0
1.85492e-09
7.40148e-18
1.8586e-09
-7.40148e-18
1.86229e-09
-1.47516e-28
1.86599e-09
7.40148e-18
1.86968e-09
0
1.87337e-09
-2.22045e-17
1.87704e-09
0
1.88069e-09
7.40148e-18
1.88434e-09
1.43199e-28
1.88797e-09
1.4803e-17
1.8916e-09
-7.40148e-18
1.89522e-09
1.4803e-17
1.89885e-09
0
1.90247e-09
1.4803e-17
1.90609e-09
0
1.90969e-09
0
1.91327e-09
0
1.91681e-09
0
1.9203e-09
1.4803e-17
1.92373e-09
-1.4803e-17
1.9271e-09
0
1.93039e-09
0
1.93361e-09
1.4803e-17
1.93672e-09
0
1.93973e-09
1.4803e-17
1.94262e-09
0
1.94541e-09
1.4803e-17
1.9481e-09
1.4803e-17
1.95069e-09
0
1.9532e-09
0
1.95565e-09
0
1.95802e-09
-1.4803e-17
1.96035e-09
-1.4803e-17
1.96263e-09
0
1.96489e-09
0
1.96712e-09
1.4803e-17
1.96934e-09
0
1.97155e-09
2.60427e-28
1.97376e-09
0
1.97598e-09
-1.4803e-17
1.97819e-09
0
1.98038e-09
1.4803e-17
1.98254e-09
-1.4803e-17
1.98465e-09
0
1.9867e-09
-1.4803e-17
1.9887e-09
0
1.99063e-09
0
1.99252e-09
0
1.99437e-09
1.4803e-17
1.9962e-09
0
1.998e-09
-1.4803e-17
1.9998e-09
0
2.0016e-09
1.4803e-17
2.00342e-09
-1.4803e-17
2.00525e-09
1.4803e-17
2.00711e-09
1.4803e-17
2.00899e-09
1.4803e-17
2.01089e-09
1.4803e-17
2.01279e-09
0
2.01471e-09
0
2.01662e-09
0
2.01855e-09
0
2.02048e-09
0
2.02241e-09
2.66051e-28
2.02434e-09
1.4803e-17
2.02626e-09
1.4803e-17
2.02819e-09
1.4803e-17
2.03014e-09
0
2.03213e-09
1.56642e-28
2.03416e-09
-1.4803e-17
2.03624e-09
-1.4803e-17
2.03836e-09
-2.85541e-28
2.04051e-09
1.4803e-17
2.04266e-09
1.4803e-17
2.0448e-09
1.4803e-17
2.04692e-09
-2.96059e-17
2.049e-09
-1.4803e-17
2.05107e-09
0
2.05311e-09
0
2.05514e-09
0
2.05717e-09
0
2.05923e-09
0
2.06134e-09
1.4803e-17
2.06354e-09
-1.4803e-17
2.06585e-09
0
2.06828e-09
0
2.07084e-09
0
2.07351e-09
1.4803e-17
2.07628e-09
0
2.07912e-09
-1.4803e-17
2.08197e-09
0
2.08483e-09
0
2.08766e-09
0
2.09047e-09
0
2.09326e-09
1.4803e-17
2.09607e-09
0
2.09894e-09
1.4803e-17
2.10193e-09
-1.4803e-17
2.10513e-09
1.4803e-17
2.10866e-09
0
2.11267e-09
-1.4803e-17
2.11747e-09
0
2.12342e-09
-1.48031e-17
2.13111e-09
0
2.14136e-09
2.96063e-17
2.15535e-09
0
2.17473e-09
0
2.20175e-09
0
2.23889e-09
0
2.28848e-09
1.4805e-17
2.32732e-09
-1.47617e-17
2.32981e-09
0
1.78376e-09
-1.48451e-17
6.66159e-10
3.12953e-26
4.27335e-11
1.48032e-17
-2.37738e-13
-4.41315e-27
3.10501e-13
0
1.01025e-13
1.4803e-17
5.10488e-14
-1.4803e-17
2.80179e-14
0
1.62695e-14
0
9.43543e-15
0
4.9457e-15
1.54164e-15
0
0
0
0
0
0
0
0
0
0
0
0
0
0
0
0
0
0
0
0
0
0
0
0
0
0
0
0
0
0
0
0
4.62593e-19
5.25674e-20
0
1.57702e-19
0
1.57702e-19
4.62593e-19
1.57702e-19
0
2.1027e-19
4.62593e-19
3.15404e-19
4.62593e-19
4.20539e-19
5.6173e-34
4.73106e-19
4.62593e-19
7.35943e-19
0
8.93645e-19
0
1.10391e-18
0
1.47189e-18
-9.25186e-19
1.89243e-18
0
2.62837e-18
-9.25186e-19
3.36431e-18
0
4.46823e-18
9.25186e-19
5.78241e-18
-9.25186e-19
7.67484e-18
0
1.00929e-17
-9.25186e-19
1.32995e-17
-9.25186e-19
1.75575e-17
-9.25186e-19
2.30771e-17
-9.25186e-19
3.02788e-17
0
3.98986e-17
0
5.24622e-17
2.77556e-18
6.92838e-17
-9.25186e-19
9.15265e-17
0
1.21109e-16
9.25186e-19
1.606e-16
9.25186e-19
2.13325e-16
-9.25186e-19
2.83969e-16
1.85037e-18
3.79228e-16
-9.25186e-19
5.08018e-16
0
6.8352e-16
1.94712e-30
9.24082e-16
-2.65144e-30
1.25572e-15
9.25186e-19
1.71307e-15
9.25186e-19
2.33494e-15
0
3.13291e-15
-3.70074e-18
3.87452e-15
-1.85037e-18
2.83401e-15
0
-1.36306e-14
0
-5.16074e-13
-1.8504e-18
-3.47075e-12
0
-3.91903e-12
-1.85043e-18
5.83681e-12
0
2.12607e-11
0
3.73324e-11
0
5.46237e-11
1.85037e-18
7.24958e-11
-1.55017e-28
9.03595e-11
0
1.08018e-10
0
1.25384e-10
-1.85037e-18
1.42443e-10
0
1.59208e-10
-1.85037e-18
1.75709e-10
1.85037e-18
1.91977e-10
0
2.08024e-10
0
2.23841e-10
0
2.39408e-10
1.85037e-18
2.54694e-10
1.85037e-18
2.69658e-10
1.85037e-18
2.84282e-10
0
2.98587e-10
0
3.12615e-10
1.85037e-18
3.26402e-10
3.70073e-18
3.39971e-10
0
3.53338e-10
1.49926e-28
3.6652e-10
0
3.7954e-10
3.70074e-18
3.92425e-10
-1.85037e-18
4.0521e-10
-1.85037e-18
4.17938e-10
-3.70074e-18
4.30657e-10
9.59534e-29
4.43389e-10
0
4.56118e-10
1.85037e-18
4.68811e-10
-1.85037e-18
4.81431e-10
0
4.93935e-10
1.85037e-18
5.06282e-10
0
5.18433e-10
1.85037e-18
5.3038e-10
-1.85037e-18
5.42174e-10
0
5.53899e-10
5.55111e-18
5.65624e-10
-1.85037e-18
5.77399e-10
0
5.89257e-10
-3.70074e-18
6.01215e-10
3.70074e-18
6.13281e-10
-5.55111e-18
6.25455e-10
-1.85037e-18
6.37733e-10
1.85037e-18
6.50111e-10
1.85037e-18
6.6259e-10
3.70074e-18
6.75166e-10
3.70074e-18
6.87835e-10
-1.56709e-28
7.00589e-10
3.70074e-18
7.13419e-10
0
7.26338e-10
0
7.39376e-10
0
7.52528e-10
0
7.6574e-10
-2.39261e-28
7.7897e-10
0
7.92211e-10
-3.70074e-18
8.05465e-10
0
8.18734e-10
-3.70074e-18
8.32014e-10
3.70074e-18
8.45299e-10
3.70074e-18
8.5858e-10
-3.70074e-18
8.71845e-10
-3.70074e-18
8.85081e-10
0
8.98278e-10
0
9.11424e-10
3.70073e-18
9.2451e-10
-3.70073e-18
9.37524e-10
0
9.50454e-10
-4.17085e-28
9.63287e-10
-3.70073e-18
9.7601e-10
-4.44254e-28
9.88612e-10
0
1.00108e-09
0
1.01341e-09
3.70073e-18
1.02559e-09
-3.70073e-18
1.03762e-09
-3.70073e-18
1.04949e-09
3.70073e-18
1.0612e-09
0
1.07275e-09
3.70073e-18
1.08414e-09
0
1.09536e-09
4.90382e-28
1.10642e-09
3.70073e-18
1.11732e-09
-3.70073e-18
1.12807e-09
-4.7841e-28
1.13866e-09
-7.40147e-18
1.14912e-09
-3.70073e-18
1.15943e-09
3.70073e-18
1.16961e-09
3.70073e-18
1.17966e-09
3.70073e-18
1.18957e-09
0
1.19934e-09
4.86434e-28
1.20898e-09
-4.84734e-28
1.21847e-09
0
1.22784e-09
0
1.23708e-09
3.70073e-18
1.2462e-09
7.40147e-18
1.2552e-09
0
1.26409e-09
3.70073e-18
1.27287e-09
0
1.28154e-09
-3.70073e-18
1.29009e-09
-4.87675e-28
1.29853e-09
-3.70073e-18
1.30686e-09
3.70073e-18
1.31507e-09
4.92401e-28
1.32316e-09
-3.70073e-18
1.33113e-09
0
1.33898e-09
0
1.34673e-09
-7.40146e-18
1.35436e-09
3.70073e-18
1.36187e-09
-4.98018e-28
1.36928e-09
3.70073e-18
1.37657e-09
3.70073e-18
1.38374e-09
-5.06795e-28
1.3908e-09
-5.09316e-28
1.39775e-09
-3.70073e-18
1.40458e-09
-3.70073e-18
1.41128e-09
5.28445e-28
1.41786e-09
-5.34731e-28
1.42431e-09
-3.70073e-18
1.43062e-09
5.44117e-28
1.43678e-09
3.70073e-18
1.4428e-09
-5.50038e-28
1.44867e-09
0
1.4544e-09
-3.70073e-18
1.45996e-09
-3.70073e-18
1.46537e-09
-3.70073e-18
1.47062e-09
0
1.47571e-09
5.66674e-28
1.48064e-09
-5.68846e-28
1.48541e-09
-3.70073e-18
1.49001e-09
-5.74492e-28
1.49445e-09
-7.40146e-18
1.49872e-09
-3.70073e-18
1.50281e-09
3.70073e-18
1.50674e-09
3.70073e-18
1.51051e-09
-7.40146e-18
1.51412e-09
5.55715e-28
1.51758e-09
3.70073e-18
1.52089e-09
-3.70073e-18
1.52405e-09
0
1.52707e-09
-3.70073e-18
1.52994e-09
-7.40147e-18
1.53267e-09
-3.70073e-18
1.53525e-09
0
1.53771e-09
3.70073e-18
1.54003e-09
5.07098e-28
1.54223e-09
3.70073e-18
1.54432e-09
-7.40147e-18
1.54633e-09
5.16311e-28
1.54824e-09
3.70073e-18
1.55006e-09
0
1.55175e-09
-7.40147e-18
1.55332e-09
5.55449e-28
1.55474e-09
0
1.55601e-09
-5.51592e-28
1.55713e-09
-7.40146e-18
1.55811e-09
0
1.55893e-09
0
1.55961e-09
7.40147e-18
1.56015e-09
0
1.56057e-09
-7.40147e-18
1.56088e-09
-7.40147e-18
1.56112e-09
-8.90165e-28
1.56132e-09
7.40147e-18
1.56147e-09
0
1.56157e-09
0
1.56162e-09
-7.40147e-18
1.5616e-09
0
1.56152e-09
7.40147e-18
1.56138e-09
7.40147e-18
1.56116e-09
0
1.56089e-09
7.40147e-18
1.56056e-09
0
1.56019e-09
0
1.55977e-09
0
1.55931e-09
-7.40147e-18
1.55881e-09
0
1.55828e-09
-7.40147e-18
1.55772e-09
0
1.55713e-09
-7.40147e-18
1.55652e-09
-7.40147e-18
1.5559e-09
-7.40147e-18
1.55527e-09
0
1.55464e-09
0
1.55403e-09
-7.40147e-18
1.55343e-09
-7.40147e-18
1.55285e-09
0
1.5523e-09
7.05858e-28
1.55178e-09
0
1.55131e-09
0
1.55088e-09
-7.40148e-18
1.5505e-09
7.40148e-18
1.55018e-09
6.27299e-28
1.54991e-09
1.4803e-17
1.54972e-09
0
1.54962e-09
-7.40148e-18
1.54961e-09
-7.40148e-18
1.5497e-09
7.40148e-18
1.54987e-09
0
1.55012e-09
0
1.55045e-09
7.40148e-18
1.55088e-09
-7.40147e-18
1.55143e-09
0
1.55208e-09
-7.40147e-18
1.55283e-09
-7.40147e-18
1.55367e-09
0
1.5546e-09
0
1.55561e-09
7.40147e-18
1.55671e-09
-7.40147e-18
1.5579e-09
0
1.55919e-09
0
1.56058e-09
0
1.56207e-09
-7.40147e-18
1.56365e-09
6.3937e-28
1.56533e-09
0
1.56709e-09
0
1.56894e-09
0
1.57086e-09
7.40147e-18
1.57286e-09
0
1.57493e-09
7.40147e-18
1.57705e-09
7.40229e-28
1.57924e-09
7.40147e-18
1.58147e-09
-7.40147e-18
1.58374e-09
0
1.58604e-09
0
1.58837e-09
7.40147e-18
1.59072e-09
8.06708e-28
1.5931e-09
0
1.59549e-09
0
1.59789e-09
-7.40147e-18
1.60029e-09
7.40147e-18
1.6027e-09
7.40147e-18
1.60511e-09
7.40147e-18
1.60751e-09
-8.51808e-28
1.60991e-09
0
1.6123e-09
-7.40147e-18
1.61469e-09
0
1.61707e-09
0
1.61945e-09
7.40147e-18
1.62184e-09
-7.40147e-18
1.62422e-09
7.40147e-18
1.62661e-09
7.40147e-18
1.629e-09
-7.40147e-18
1.63139e-09
7.40147e-18
1.63379e-09
7.40147e-18
1.63619e-09
7.40147e-18
1.63859e-09
0
1.64099e-09
-1.48029e-17
1.64338e-09
0
1.64576e-09
7.40147e-18
1.64811e-09
7.40147e-18
1.65044e-09
-7.40147e-18
1.65273e-09
1.48029e-17
1.65498e-09
0
1.65718e-09
-7.40147e-18
1.65934e-09
7.40147e-18
1.66145e-09
-7.40147e-18
1.66351e-09
7.40147e-18
1.66552e-09
-7.40147e-18
1.66749e-09
-1.48029e-17
1.66942e-09
0
1.67132e-09
-7.40147e-18
1.67318e-09
9.59516e-28
1.67501e-09
0
1.6768e-09
0
1.67854e-09
7.40147e-18
1.68023e-09
1.01507e-27
1.68187e-09
-7.40147e-18
1.68345e-09
-7.40147e-18
1.68495e-09
-1.0435e-27
1.68637e-09
-7.40147e-18
1.68771e-09
0
1.68896e-09
-1.03946e-27
1.69013e-09
0
1.69121e-09
0
1.69221e-09
-9.86002e-28
1.69314e-09
0
1.694e-09
0
1.69482e-09
-7.40147e-18
1.69559e-09
-7.40147e-18
1.69632e-09
0
1.69704e-09
-7.40147e-18
1.69776e-09
-7.40147e-18
1.69848e-09
7.40147e-18
1.69922e-09
0
1.69999e-09
-7.91607e-28
1.70081e-09
7.40148e-18
1.70167e-09
0
1.70257e-09
-8.35167e-28
1.70349e-09
7.40147e-18
1.70442e-09
7.40147e-18
1.7054e-09
0
1.70642e-09
0
1.70748e-09
-9.10964e-28
1.70855e-09
9.14695e-28
1.7096e-09
7.40147e-18
1.71064e-09
-9.67877e-28
1.71166e-09
7.40147e-18
1.71264e-09
0
1.71357e-09
-7.40147e-18
1.71446e-09
-7.40147e-18
1.71529e-09
7.40147e-18
1.71606e-09
-2.22044e-17
1.71677e-09
9.4861e-28
1.71743e-09
7.40147e-18
1.71806e-09
0
1.71867e-09
-1.48029e-17
1.71926e-09
7.40147e-18
1.71985e-09
0
1.72046e-09
-1.48029e-17
1.72111e-09
-7.40147e-18
1.7218e-09
7.40147e-18
1.72256e-09
6.79862e-28
1.72341e-09
0
1.72436e-09
-7.40147e-18
1.72541e-09
1.48029e-17
1.72658e-09
7.40147e-18
1.72789e-09
7.40148e-18
1.72932e-09
0
1.73087e-09
-6.60069e-28
1.73255e-09
7.40148e-18
1.73434e-09
-7.40148e-18
1.73625e-09
0
1.73828e-09
7.37716e-28
1.7404e-09
0
1.74261e-09
7.40148e-18
1.7449e-09
7.40148e-18
1.74725e-09
-7.40147e-18
1.74966e-09
0
1.75211e-09
0
1.75461e-09
0
1.75714e-09
0
1.75969e-09
7.40147e-18
1.76227e-09
-7.40147e-18
1.76486e-09
-7.40147e-18
1.76747e-09
-7.40147e-18
1.77009e-09
0
1.7727e-09
-7.40147e-18
1.77531e-09
-9.51231e-28
1.77791e-09
0
1.78049e-09
0
1.78307e-09
7.40147e-18
1.78565e-09
1.48029e-17
1.78827e-09
1.48029e-17
1.79091e-09
-7.40147e-18
1.7936e-09
7.40147e-18
1.79633e-09
8.27424e-28
1.79911e-09
0
1.80195e-09
-7.40147e-18
1.80485e-09
7.40147e-18
1.80781e-09
-7.40147e-18
1.81083e-09
7.40147e-18
1.81392e-09
7.40147e-18
1.81706e-09
-8.55216e-28
1.82027e-09
7.40147e-18
1.82353e-09
0
1.82684e-09
-8.80728e-28
1.83019e-09
1.48029e-17
1.83359e-09
-7.40147e-18
1.83703e-09
-7.40147e-18
1.84051e-09
0
1.84404e-09
-8.99739e-28
1.84761e-09
0
1.85122e-09
0
1.85486e-09
-2.22044e-17
1.85854e-09
-7.40147e-18
1.86223e-09
-7.40147e-18
1.86593e-09
7.40147e-18
1.86962e-09
7.40147e-18
1.87331e-09
-7.40147e-18
1.87698e-09
7.40147e-18
1.88063e-09
7.40147e-18
1.88428e-09
7.40147e-18
1.88791e-09
-1.48029e-17
1.89154e-09
-7.40147e-18
1.89516e-09
0
1.89879e-09
0
1.90241e-09
-1.48029e-17
1.90602e-09
0
1.90962e-09
1.48029e-17
1.9132e-09
0
1.91674e-09
1.48029e-17
1.92023e-09
0
1.92366e-09
0
1.92703e-09
0
1.93032e-09
1.48029e-17
1.93353e-09
0
1.93665e-09
1.48029e-17
1.93965e-09
0
1.94255e-09
0
1.94533e-09
1.48029e-17
1.94802e-09
0
1.95062e-09
0
1.95313e-09
0
1.95558e-09
0
1.95796e-09
0
1.96028e-09
0
1.96257e-09
0
1.96482e-09
-1.48029e-17
1.96706e-09
1.48029e-17
1.96928e-09
1.48029e-17
1.97149e-09
0
1.9737e-09
2.96059e-17
1.97591e-09
-1.48029e-17
1.97812e-09
-1.48029e-17
1.98031e-09
0
1.98247e-09
0
1.98458e-09
0
1.98663e-09
0
1.98863e-09
2.23718e-27
1.99056e-09
-1.48029e-17
1.99245e-09
0
1.99431e-09
-1.48029e-17
1.99613e-09
0
1.99794e-09
2.03968e-27
1.99973e-09
-1.48029e-17
2.00154e-09
-1.99836e-27
2.00335e-09
-1.48029e-17
2.00519e-09
1.48029e-17
2.00705e-09
0
2.00893e-09
-1.48029e-17
2.01082e-09
-2.96059e-17
2.01273e-09
-2.96059e-17
2.01464e-09
0
2.01656e-09
0
2.01849e-09
0
2.02042e-09
1.48029e-17
2.02235e-09
1.48029e-17
2.02427e-09
0
2.0262e-09
1.48029e-17
2.02813e-09
1.48029e-17
2.03008e-09
-1.48029e-17
2.03207e-09
1.48029e-17
2.0341e-09
0
2.03618e-09
1.48029e-17
2.0383e-09
-1.48029e-17
2.04044e-09
0
2.0426e-09
-1.48029e-17
2.04474e-09
1.48029e-17
2.04685e-09
0
2.04894e-09
0
2.051e-09
1.48029e-17
2.05304e-09
-1.48029e-17
2.05507e-09
0
2.05711e-09
1.48029e-17
2.05917e-09
-1.48029e-17
2.06128e-09
1.68865e-27
2.06348e-09
1.48029e-17
2.06579e-09
1.48029e-17
2.06823e-09
-1.48029e-17
2.07078e-09
0
2.07346e-09
1.48029e-17
2.07622e-09
1.48029e-17
2.07905e-09
-2.23599e-27
2.08191e-09
2.29109e-27
2.08476e-09
-1.48029e-17
2.08759e-09
2.22332e-27
2.0904e-09
0
2.09319e-09
-1.48029e-17
2.09601e-09
1.48029e-17
2.09888e-09
-1.4803e-17
2.10189e-09
-1.4803e-17
2.1051e-09
0
2.10864e-09
1.4803e-17
2.11269e-09
-1.4803e-17
2.11752e-09
-1.4803e-17
2.12353e-09
1.48031e-17
2.1313e-09
-1.48032e-17
2.14166e-09
-1.6067e-26
2.15577e-09
-1.48033e-17
2.17528e-09
0
2.20232e-09
-1.48032e-17
2.23917e-09
0
2.28531e-09
-1.47979e-17
2.31943e-09
-1.47517e-17
2.27501e-09
0
1.73171e-09
-1.4854e-17
7.16443e-10
0
1.01924e-10
0
8.2231e-12
1.48036e-17
2.43158e-12
-1.48033e-17
1.00492e-12
-2.96063e-17
4.99687e-13
0
2.76459e-13
0
1.60994e-13
0
9.35411e-14
0
4.90836e-14
1.53086e-14
0
0
0
0
0
0
0
0
0
0
0
0
0
0
0
0
0
0
0
0
0
0
0
0
0
5.25674e-20
0
1.05135e-19
4.62593e-19
1.05135e-19
4.62593e-19
1.05135e-19
0
2.1027e-19
0
2.1027e-19
-4.62593e-19
4.73106e-19
-4.62593e-19
4.73106e-19
-4.62593e-19
7.88511e-19
8.02471e-34
1.05135e-18
-4.62593e-19
1.26162e-18
4.62593e-19
1.83986e-18
0
2.31296e-18
4.62593e-19
3.10148e-18
4.62593e-19
3.99512e-18
0
5.41444e-18
0
6.83376e-18
9.25186e-19
8.98902e-18
-9.25186e-19
1.18802e-17
-2.56791e-32
1.55074e-17
-1.85037e-18
2.03961e-17
-4.42964e-32
2.68094e-17
5.80989e-32
3.52201e-17
-9.25186e-19
4.62593e-17
0
6.09256e-17
0
8.02178e-17
0
1.0545e-16
-1.85037e-18
1.38883e-16
3.02692e-31
1.8325e-16
-9.25186e-19
2.41915e-16
-9.25186e-19
3.19557e-16
9.25186e-19
4.22799e-16
9.25186e-19
5.60158e-16
9.25186e-19
7.43894e-16
-1.85037e-18
9.90107e-16
9.25186e-19
1.32175e-15
0
1.77056e-15
0
2.3822e-15
0
3.21979e-15
1.85037e-18
4.3747e-15
0
5.96844e-15
-1.85037e-18
8.14184e-15
-3.70075e-18
1.09549e-14
0
1.37553e-14
1.85037e-18
1.16242e-14
1.85038e-18
-4.34435e-14
0
-6.84644e-13
0
-3.00557e-12
-3.70096e-18
-2.56986e-12
0
6.70018e-12
-1.8504e-18
2.15151e-11
-1.85038e-18
3.75638e-11
0
5.47398e-11
-1.85037e-18
7.25158e-11
0
9.03336e-11
-1.85036e-18
1.07968e-10
0
1.25323e-10
0
1.42378e-10
1.85037e-18
1.59143e-10
0
1.75646e-10
0
1.91913e-10
0
2.07956e-10
-3.06277e-28
2.23768e-10
0
2.39329e-10
-1.85036e-18
2.54608e-10
-1.85036e-18
2.69569e-10
1.85036e-18
2.84195e-10
1.85036e-18
2.98504e-10
0
3.12537e-10
0
3.26327e-10
-1.85036e-18
3.39898e-10
-1.85036e-18
3.53267e-10
1.85036e-18
3.66452e-10
-2.51017e-28
3.79476e-10
-1.85037e-18
3.92366e-10
-2.04151e-28
4.05157e-10
-3.70073e-18
4.17891e-10
0
4.30612e-10
0
4.43341e-10
0
4.56064e-10
-1.85037e-18
4.6875e-10
1.85036e-18
4.81363e-10
-1.85036e-18
4.9386e-10
-3.70073e-18
5.062e-10
-1.85036e-18
5.1835e-10
2.89308e-28
5.30304e-10
-1.85037e-18
5.42109e-10
1.85037e-18
5.53843e-10
1.85037e-18
5.65576e-10
1.85037e-18
5.77356e-10
1.85037e-18
5.89216e-10
1.63637e-28
6.01175e-10
3.70073e-18
6.1324e-10
-1.85037e-18
6.25413e-10
3.70073e-18
6.37689e-10
-1.85037e-18
6.50066e-10
-1.85037e-18
6.62543e-10
0
6.75118e-10
-3.70073e-18
6.87785e-10
-3.70073e-18
7.00536e-10
0
7.13367e-10
0
7.26288e-10
4.57477e-28
7.39323e-10
0
7.52467e-10
0
7.65672e-10
-3.70073e-18
7.78899e-10
5.98304e-28
7.92138e-10
-3.70073e-18
8.05391e-10
0
8.18658e-10
3.70073e-18
8.31935e-10
0
8.45218e-10
-3.70073e-18
8.58495e-10
-3.70073e-18
8.71757e-10
0
8.8499e-10
0
8.98184e-10
-3.70072e-18
9.11327e-10
-3.70072e-18
9.24409e-10
0
9.3742e-10
8.85064e-28
9.50347e-10
0
9.63176e-10
0
9.75896e-10
-3.70072e-18
9.88496e-10
0
1.00096e-09
0
1.01329e-09
0
1.02547e-09
0
1.0375e-09
-3.70072e-18
1.04937e-09
0
1.06108e-09
3.70072e-18
1.07262e-09
0
1.08401e-09
0
1.09523e-09
3.70072e-18
1.10629e-09
0
1.11719e-09
3.70072e-18
1.12794e-09
-3.70072e-18
1.13853e-09
0
1.14899e-09
-3.70072e-18
1.1593e-09
3.70072e-18
1.16948e-09
0
1.17953e-09
-3.70072e-18
1.18944e-09
-3.70072e-18
1.19921e-09
3.70072e-18
1.20884e-09
0
1.21834e-09
0
1.22771e-09
1.09749e-27
1.23694e-09
0
1.24606e-09
0
1.25506e-09
-1.105e-27
1.26395e-09
0
1.27273e-09
-3.70072e-18
1.2814e-09
-1.12745e-27
1.28995e-09
3.70072e-18
1.2984e-09
3.70072e-18
1.30672e-09
0
1.31493e-09
3.70072e-18
1.32302e-09
-3.70072e-18
1.33099e-09
0
1.33884e-09
3.70072e-18
1.34658e-09
-1.16677e-27
1.35421e-09
0
1.36173e-09
-3.70072e-18
1.36913e-09
0
1.37642e-09
3.70072e-18
1.3836e-09
-7.40143e-18
1.39066e-09
3.70072e-18
1.3976e-09
3.70072e-18
1.40443e-09
0
1.41113e-09
-7.40143e-18
1.41771e-09
-3.70072e-18
1.42415e-09
-3.70072e-18
1.43046e-09
3.70072e-18
1.43663e-09
0
1.44265e-09
-1.11021e-17
1.44852e-09
-7.40143e-18
1.45424e-09
3.70072e-18
1.4598e-09
3.70072e-18
1.46521e-09
-1.3059e-27
1.47046e-09
3.70072e-18
1.47555e-09
-7.40143e-18
1.48048e-09
7.40143e-18
1.48525e-09
7.40143e-18
1.48985e-09
-3.70072e-18
1.49429e-09
0
1.49855e-09
-3.70072e-18
1.50265e-09
3.70072e-18
1.50658e-09
-7.40143e-18
1.51034e-09
3.70072e-18
1.51396e-09
-3.70072e-18
1.51742e-09
1.3142e-27
1.52073e-09
-3.70072e-18
1.52389e-09
-3.70072e-18
1.52691e-09
3.70072e-18
1.52978e-09
3.70072e-18
1.53251e-09
3.70072e-18
1.5351e-09
7.40143e-18
1.53755e-09
-7.40143e-18
1.53987e-09
-3.70072e-18
1.54208e-09
1.24497e-27
1.54417e-09
-3.70072e-18
1.54617e-09
-3.70072e-18
1.54809e-09
-3.70072e-18
1.5499e-09
3.70072e-18
1.55159e-09
3.70072e-18
1.55316e-09
7.40143e-18
1.55458e-09
7.40143e-18
1.55585e-09
7.40143e-18
1.55697e-09
3.70072e-18
1.55794e-09
-2.63385e-27
1.55877e-09
0
1.55945e-09
0
1.56e-09
0
1.56041e-09
-7.40144e-18
1.56073e-09
0
1.56098e-09
-7.40144e-18
1.56117e-09
2.38044e-27
1.56132e-09
0
1.56143e-09
7.40144e-18
1.56147e-09
0
1.56145e-09
-2.40576e-27
1.56137e-09
-7.40144e-18
1.56123e-09
0
1.56102e-09
0
1.56075e-09
0
1.56042e-09
7.40144e-18
1.56005e-09
0
1.55963e-09
0
1.55917e-09
-2.29209e-27
1.55867e-09
0
1.55813e-09
7.40144e-18
1.55758e-09
0
1.55699e-09
2.23149e-27
1.55638e-09
-2.20477e-27
1.55576e-09
0
1.55513e-09
-7.40144e-18
1.55451e-09
0
1.5539e-09
-7.40144e-18
1.5533e-09
0
1.55272e-09
7.40145e-18
1.55217e-09
0
1.55166e-09
0
1.55118e-09
0
1.55075e-09
0
1.55037e-09
-1.99921e-27
1.55005e-09
0
1.54979e-09
0
1.5496e-09
0
1.5495e-09
0
1.54949e-09
0
1.54958e-09
0
1.54975e-09
0
1.55e-09
0
1.55033e-09
-7.40145e-18
1.55077e-09
0
1.55131e-09
7.40145e-18
1.55196e-09
0
1.55271e-09
0
1.55355e-09
-7.40145e-18
1.55448e-09
-7.40145e-18
1.55549e-09
0
1.55659e-09
0
1.55778e-09
0
1.55907e-09
0
1.56046e-09
0
1.56195e-09
0
1.56353e-09
7.40145e-18
1.56521e-09
-7.40145e-18
1.56697e-09
7.40145e-18
1.56881e-09
0
1.57074e-09
-2.05842e-27
1.57274e-09
7.40145e-18
1.5748e-09
0
1.57693e-09
0
1.57911e-09
0
1.58134e-09
-7.40144e-18
1.5836e-09
0
1.5859e-09
7.40144e-18
1.58823e-09
-2.22602e-27
1.59059e-09
0
1.59296e-09
0
1.59535e-09
0
1.59775e-09
0
1.60015e-09
0
1.60256e-09
-7.40144e-18
1.60497e-09
0
1.60737e-09
7.40144e-18
1.60977e-09
7.40144e-18
1.61216e-09
7.40144e-18
1.61455e-09
2.31926e-27
1.61693e-09
7.40144e-18
1.61931e-09
-7.40144e-18
1.62169e-09
-7.40144e-18
1.62408e-09
-7.40144e-18
1.62646e-09
7.40144e-18
1.62886e-09
0
1.63125e-09
-2.34151e-27
1.63365e-09
7.40144e-18
1.63605e-09
0
1.63845e-09
-7.40144e-18
1.64085e-09
2.41114e-27
1.64324e-09
7.40144e-18
1.64561e-09
2.45195e-27
1.64796e-09
0
1.65029e-09
-2.49178e-27
1.65258e-09
0
1.65482e-09
0
1.65703e-09
2.51825e-27
1.65919e-09
7.40144e-18
1.66129e-09
-7.40144e-18
1.66335e-09
2.50127e-27
1.66536e-09
0
1.66733e-09
0
1.66927e-09
-7.40144e-18
1.67117e-09
0
1.67303e-09
0
1.67485e-09
0
1.67664e-09
-7.40144e-18
1.67838e-09
0
1.68008e-09
0
1.68171e-09
-7.40144e-18
1.68329e-09
7.40144e-18
1.68479e-09
1.48029e-17
1.68621e-09
-2.65949e-27
1.68755e-09
0
1.6888e-09
7.40144e-18
1.68997e-09
0
1.69105e-09
0
1.69205e-09
-2.57619e-27
1.69298e-09
0
1.69384e-09
-7.40144e-18
1.69466e-09
-2.48994e-27
1.69543e-09
-7.40144e-18
1.69617e-09
-1.48029e-17
1.69689e-09
-7.40144e-18
1.69761e-09
0
1.69833e-09
-2.31509e-27
1.69908e-09
7.40145e-18
1.69985e-09
0
1.70067e-09
0
1.70153e-09
0
1.70242e-09
7.40145e-18
1.70334e-09
0