/*--------------------------------*- C++ -*----------------------------------*\
| =========                 |                                                 |
| \\      /  F ield         | foam-extend: Open Source CFD                    |
|  \\    /   O peration     | Version:     3.2                                |
|   \\  /    A nd           | Web:         http://www.foam-extend.org         |
|    \\/     M anipulation  | For copyright notice see file Copyright         |
\*---------------------------------------------------------------------------*/
FoamFile
{
    version     2.0;
    format      ascii;
    class       volVectorField;
    location    "120";
    object      meshCentreN;
}
// * * * * * * * * * * * * * * * * * * * * * * * * * * * * * * * * * * * * * //

dimensions      [0 1 0 0 0 0 0];

internalField   nonuniform List<vector> 
33000
(
(0.00909091 0.01 0.00248182)
(0.0272727 0.01 0.00244545)
(0.0454545 0.01 0.00240909)
(0.0636364 0.01 0.00237273)
(0.0818182 0.01 0.00233636)
(0.1 0.01 0.0023)
(0.118182 0.01 0.00226364)
(0.136364 0.01 0.00222727)
(0.154545 0.01 0.00219091)
(0.172727 0.01 0.00215455)
(0.190909 0.01 0.00211818)
(0.209091 0.01 0.00208182)
(0.227273 0.01 0.00204545)
(0.245455 0.01 0.00200909)
(0.263636 0.01 0.00197273)
(0.281818 0.01 0.00193636)
(0.3 0.01 0.0019)
(0.318182 0.01 0.00186364)
(0.336364 0.01 0.00182727)
(0.354545 0.01 0.00179091)
(0.372727 0.01 0.00175455)
(0.390909 0.01 0.00171818)
(0.409091 0.01 0.00168182)
(0.427273 0.01 0.00164545)
(0.445455 0.01 0.00160909)
(0.463636 0.01 0.00157273)
(0.481818 0.01 0.00153636)
(0.5 0.01 0.0015)
(0.518182 0.01 0.00146364)
(0.536364 0.01 0.00142727)
(0.554545 0.01 0.00139091)
(0.572727 0.01 0.00135455)
(0.590909 0.01 0.00131818)
(0.609091 0.01 0.00128182)
(0.627273 0.01 0.00124545)
(0.645455 0.01 0.00120909)
(0.663636 0.01 0.00117273)
(0.681818 0.01 0.00113636)
(0.7 0.01 0.0011)
(0.718182 0.01 0.00106364)
(0.736364 0.01 0.00102727)
(0.754545 0.01 0.000990909)
(0.772727 0.01 0.000954545)
(0.790909 0.01 0.000918182)
(0.809091 0.01 0.000881818)
(0.827273 0.01 0.000845455)
(0.845455 0.01 0.000809091)
(0.863636 0.01 0.000772727)
(0.881818 0.01 0.000736364)
(0.9 0.01 0.0007)
(0.918182 0.01 0.000663636)
(0.936364 0.01 0.000627273)
(0.954545 0.01 0.000590909)
(0.972727 0.01 0.000554545)
(0.990909 0.01 0.000518182)
(1.00909 0.01 0.000481817)
(1.02727 0.01 0.000445451)
(1.04545 0.01 0.000409066)
(1.06364 0.01 0.000372727)
(1.08182 0.01 0.000336365)
(1.1 0.01 0.000300244)
(1.11818 0.01 0.000265655)
(1.13636 0.01 0.000233035)
(1.15455 0.01 0.000201261)
(1.17273 0.01 0.000169617)
(1.19091 0.01 0.000137973)
(1.20909 0.01 0.000106237)
(1.22727 0.01 7.43935e-05)
(1.24545 0.01 4.24407e-05)
(1.26364 0.01 1.03869e-05)
(1.28182 0.01 -2.17569e-05)
(1.3 0.01 -5.39764e-05)
(1.31818 0.01 -8.62566e-05)
(1.33636 0.01 -0.000118588)
(1.35455 0.01 -0.000150968)
(1.37273 0.01 -0.000183403)
(1.39091 0.01 -0.000215903)
(1.40909 0.01 -0.000248481)
(1.42727 0.01 -0.000281144)
(1.44545 0.01 -0.000313885)
(1.46364 0.01 -0.000346692)
(1.48182 0.01 -0.000379562)
(1.5 0.01 -0.000412494)
(1.51818 0.01 -0.000445486)
(1.53636 0.01 -0.000478538)
(1.55455 0.01 -0.000511647)
(1.57273 0.01 -0.000544809)
(1.59091 0.01 -0.000578014)
(1.60909 0.01 -0.00061125)
(1.62727 0.01 -0.0006445)
(1.64545 0.01 -0.000677755)
(1.66364 0.01 -0.000711019)
(1.68182 0.01 -0.000744302)
(1.7 0.01 -0.000777611)
(1.71818 0.01 -0.000810955)
(1.73636 0.01 -0.000844343)
(1.75455 0.01 -0.000877786)
(1.77273 0.01 -0.000911285)
(1.79091 0.01 -0.000944822)
(1.80909 0.01 -0.000978368)
(1.82727 0.01 -0.00101191)
(1.84545 0.01 -0.00104543)
(1.86364 0.01 -0.00107893)
(1.88182 0.01 -0.00111242)
(1.9 0.01 -0.00114587)
(1.91818 0.01 -0.00117931)
(1.93636 0.01 -0.00121273)
(1.95455 0.01 -0.00124612)
(1.97273 0.01 -0.0012795)
(1.99091 0.01 -0.00131286)
(2.00909 0.01 -0.00134619)
(2.02727 0.01 -0.00137951)
(2.04545 0.01 -0.00141282)
(2.06364 0.01 -0.0014461)
(2.08182 0.01 -0.00147936)
(2.1 0.01 -0.00151259)
(2.11818 0.01 -0.00154581)
(2.13636 0.01 -0.00157903)
(2.15455 0.01 -0.00161226)
(2.17273 0.01 -0.00164549)
(2.19091 0.01 -0.00167872)
(2.20909 0.01 -0.00171196)
(2.22727 0.01 -0.0017452)
(2.24545 0.01 -0.00177845)
(2.26364 0.01 -0.00181172)
(2.28182 0.01 -0.00184499)
(2.3 0.01 -0.00187829)
(2.31818 0.01 -0.0019116)
(2.33636 0.01 -0.00194493)
(2.35455 0.01 -0.00197828)
(2.37273 0.01 -0.00201166)
(2.39091 0.01 -0.00204507)
(2.40909 0.01 -0.00207851)
(2.42727 0.01 -0.00211198)
(2.44545 0.01 -0.00214549)
(2.46364 0.01 -0.00217905)
(2.48182 0.01 -0.00221264)
(2.5 0.01 -0.00224628)
(2.51818 0.01 -0.00227996)
(2.53636 0.01 -0.00231369)
(2.55455 0.01 -0.00234746)
(2.57273 0.01 -0.00238128)
(2.59091 0.01 -0.00241515)
(2.60909 0.01 -0.00244906)
(2.62727 0.01 -0.00248301)
(2.64545 0.01 -0.00251701)
(2.66364 0.01 -0.00255105)
(2.68182 0.01 -0.00258513)
(2.7 0.01 -0.00261925)
(2.71818 0.01 -0.0026534)
(2.73636 0.01 -0.0026876)
(2.75455 0.01 -0.00272183)
(2.77273 0.01 -0.00275609)
(2.79091 0.01 -0.00279039)
(2.80909 0.01 -0.00282473)
(2.82727 0.01 -0.00285909)
(2.84545 0.01 -0.0028935)
(2.86364 0.01 -0.00292793)
(2.88182 0.01 -0.00296239)
(2.9 0.01 -0.00299688)
(2.91818 0.01 -0.0030314)
(2.93636 0.01 -0.00306594)
(2.95455 0.01 -0.00310052)
(2.97273 0.01 -0.00313512)
(2.99091 0.01 -0.00316975)
(3.00909 0.01 -0.00320442)
(3.02727 0.01 -0.00323911)
(3.04545 0.01 -0.00327383)
(3.06364 0.01 -0.00330859)
(3.08182 0.01 -0.00334337)
(3.1 0.01 -0.00337819)
(3.11818 0.01 -0.00341303)
(3.13636 0.01 -0.00344791)
(3.15455 0.01 -0.00348281)
(3.17273 0.01 -0.00351775)
(3.19091 0.01 -0.00355273)
(3.20909 0.01 -0.00358773)
(3.22727 0.01 -0.00362277)
(3.24545 0.01 -0.00365784)
(3.26364 0.01 -0.00369295)
(3.28182 0.01 -0.0037281)
(3.3 0.01 -0.00376329)
(3.31818 0.01 -0.00379851)
(3.33636 0.01 -0.00383378)
(3.35455 0.01 -0.00386908)
(3.37273 0.01 -0.00390442)
(3.39091 0.01 -0.0039398)
(3.40909 0.01 -0.00397522)
(3.42727 0.01 -0.00401069)
(3.44545 0.01 -0.00404619)
(3.46364 0.01 -0.00408174)
(3.48182 0.01 -0.00411732)
(3.5 0.01 -0.00415295)
(3.51818 0.01 -0.00418862)
(3.53636 0.01 -0.00422433)
(3.55455 0.01 -0.00426009)
(3.57273 0.01 -0.00429588)
(3.59091 0.01 -0.00433171)
(3.60909 0.01 -0.00436758)
(3.62727 0.01 -0.00440348)
(3.64545 0.01 -0.00443942)
(3.66364 0.01 -0.00447539)
(3.68182 0.01 -0.00451139)
(3.7 0.01 -0.00454743)
(3.71818 0.01 -0.00458349)
(3.73636 0.01 -0.00461957)
(3.75455 0.01 -0.00465569)
(3.77273 0.01 -0.00469183)
(3.79091 0.01 -0.004728)
(3.80909 0.01 -0.0047642)
(3.82727 0.01 -0.00480042)
(3.84545 0.01 -0.00483666)
(3.86364 0.01 -0.00487294)
(3.88182 0.01 -0.00490923)
(3.9 0.01 -0.00494555)
(3.91818 0.01 -0.00498189)
(3.93636 0.01 -0.00501826)
(3.95455 0.01 -0.00505465)
(3.97273 0.01 -0.00509107)
(3.99091 0.01 -0.00512752)
(4.00909 0.01 -0.00516399)
(4.02727 0.01 -0.00520051)
(4.04545 0.01 -0.00523704)
(4.06364 0.01 -0.00527361)
(4.08182 0.01 -0.00531018)
(4.1 0.01 -0.00534677)
(4.11818 0.01 -0.00538337)
(4.13636 0.01 -0.00542)
(4.15455 0.01 -0.00545664)
(4.17273 0.01 -0.0054933)
(4.19091 0.01 -0.00552999)
(4.20909 0.01 -0.00556669)
(4.22727 0.01 -0.00560341)
(4.24545 0.01 -0.00564014)
(4.26364 0.01 -0.00567689)
(4.28182 0.01 -0.00571366)
(4.3 0.01 -0.00575044)
(4.31818 0.01 -0.00578725)
(4.33636 0.01 -0.00582406)
(4.35455 0.01 -0.00586089)
(4.37273 0.01 -0.00589774)
(4.39091 0.01 -0.0059346)
(4.40909 0.01 -0.00597147)
(4.42727 0.01 -0.00600836)
(4.44545 0.01 -0.00604525)
(4.46364 0.01 -0.00608214)
(4.48182 0.01 -0.00611904)
(4.5 0.01 -0.00615594)
(4.51818 0.01 -0.00619284)
(4.53636 0.01 -0.00622973)
(4.55455 0.01 -0.00626662)
(4.57273 0.01 -0.00630349)
(4.59091 0.01 -0.00634036)
(4.60909 0.01 -0.0063772)
(4.62727 0.01 -0.00641402)
(4.64545 0.01 -0.00645082)
(4.66364 0.01 -0.00648759)
(4.68182 0.01 -0.00652434)
(4.7 0.01 -0.00656107)
(4.71818 0.01 -0.00659776)
(4.73636 0.01 -0.00663443)
(4.75455 0.01 -0.00667104)
(4.77273 0.01 -0.00670761)
(4.79091 0.01 -0.00674415)
(4.80909 0.01 -0.00678066)
(4.82727 0.01 -0.00681716)
(4.84545 0.01 -0.00685366)
(4.86364 0.01 -0.00689014)
(4.88182 0.01 -0.0069266)
(4.9 0.01 -0.00696305)
(4.91818 0.01 -0.00699948)
(4.93636 0.01 -0.0070359)
(4.95455 0.01 -0.00707229)
(4.97273 0.01 -0.00710866)
(4.99091 0.01 -0.00714501)
(5.00909 0.01 -0.00718135)
(5.02727 0.01 -0.00721766)
(5.04545 0.01 -0.00725396)
(5.06364 0.01 -0.00729024)
(5.08182 0.01 -0.0073265)
(5.1 0.01 -0.00736275)
(5.11818 0.01 -0.00739899)
(5.13636 0.01 -0.00743521)
(5.15455 0.01 -0.00747143)
(5.17273 0.01 -0.00750763)
(5.19091 0.01 -0.00754383)
(5.20909 0.01 -0.00758002)
(5.22727 0.01 -0.00761621)
(5.24545 0.01 -0.00765239)
(5.26364 0.01 -0.00768857)
(5.28182 0.01 -0.00772474)
(5.3 0.01 -0.00776092)
(5.31818 0.01 -0.00779709)
(5.33636 0.01 -0.00783326)
(5.35455 0.01 -0.00786944)
(5.37273 0.01 -0.00790561)
(5.39091 0.01 -0.00794179)
(5.40909 0.01 -0.00797797)
(5.42727 0.01 -0.00801415)
(5.44545 0.01 -0.00805033)
(5.46364 0.01 -0.00808652)
(5.48182 0.01 -0.0081227)
(5.5 0.01 -0.00815889)
(5.51818 0.01 -0.00819508)
(5.53636 0.01 -0.00823127)
(5.55455 0.01 -0.00826746)
(5.57273 0.01 -0.00830365)
(5.59091 0.01 -0.00833984)
(5.60909 0.01 -0.00837604)
(5.62727 0.01 -0.00841223)
(5.64545 0.01 -0.00844843)
(5.66364 0.01 -0.00848463)
(5.68182 0.01 -0.00852084)
(5.7 0.01 -0.00855705)
(5.71818 0.01 -0.00859328)
(5.73636 0.01 -0.00862952)
(5.75455 0.01 -0.00866577)
(5.77273 0.01 -0.00870203)
(5.79091 0.01 -0.00873831)
(5.80909 0.01 -0.00877459)
(5.82727 0.01 -0.00881089)
(5.84545 0.01 -0.0088472)
(5.86364 0.01 -0.00888351)
(5.88182 0.01 -0.00891984)
(5.9 0.01 -0.00895617)
(5.91818 0.01 -0.00899251)
(5.93636 0.01 -0.00902886)
(5.95455 0.01 -0.00906522)
(5.97273 0.01 -0.00910159)
(5.99091 0.01 -0.00913797)
(6.00909 0.01 -0.00917436)
(6.02727 0.01 -0.00921078)
(6.04545 0.01 -0.0092472)
(6.06364 0.01 -0.00928365)
(6.08182 0.01 -0.00932012)
(6.1 0.01 -0.0093566)
(6.11818 0.01 -0.0093931)
(6.13636 0.01 -0.00942962)
(6.15455 0.01 -0.00946616)
(6.17273 0.01 -0.0095027)
(6.19091 0.01 -0.00953926)
(6.20909 0.01 -0.00957582)
(6.22727 0.01 -0.00961238)
(6.24545 0.01 -0.00964894)
(6.26364 0.01 -0.0096855)
(6.28182 0.01 -0.00972206)
(6.3 0.01 -0.00975862)
(6.31818 0.01 -0.00979517)
(6.33636 0.01 -0.00983172)
(6.35455 0.01 -0.00986824)
(6.37273 0.01 -0.00990474)
(6.39091 0.01 -0.00994121)
(6.40909 0.01 -0.00997764)
(6.42727 0.01 -0.0100141)
(6.44545 0.01 -0.0100505)
(6.46364 0.01 -0.0100869)
(6.48182 0.01 -0.0101234)
(6.5 0.01 -0.0101599)
(6.51818 0.01 -0.0101964)
(6.53636 0.01 -0.0102328)
(6.55455 0.01 -0.0102693)
(6.57273 0.01 -0.0103058)
(6.59091 0.01 -0.0103423)
(6.60909 0.01 -0.0103788)
(6.62727 0.01 -0.0104154)
(6.64545 0.01 -0.0104519)
(6.66364 0.01 -0.0104884)
(6.68182 0.01 -0.010525)
(6.7 0.01 -0.0105615)
(6.71818 0.01 -0.0105981)
(6.73636 0.01 -0.0106347)
(6.75455 0.01 -0.0106713)
(6.77273 0.01 -0.0107079)
(6.79091 0.01 -0.0107445)
(6.80909 0.01 -0.0107811)
(6.82727 0.01 -0.0108177)
(6.84545 0.01 -0.0108543)
(6.86364 0.01 -0.0108909)
(6.88182 0.01 -0.0109275)
(6.9 0.01 -0.010964)
(6.91818 0.01 -0.0110006)
(6.93636 0.01 -0.0110372)
(6.95455 0.01 -0.0110737)
(6.97273 0.01 -0.0111102)
(6.99091 0.01 -0.0111467)
(7.00909 0.01 -0.0111831)
(7.02727 0.01 -0.0112195)
(7.04545 0.01 -0.0112558)
(7.06364 0.01 -0.0112921)
(7.08182 0.01 -0.0113284)
(7.1 0.01 -0.0113647)
(7.11818 0.01 -0.0114009)
(7.13636 0.01 -0.0114372)
(7.15455 0.01 -0.0114734)
(7.17273 0.01 -0.0115096)
(7.19091 0.01 -0.0115459)
(7.20909 0.01 -0.0115821)
(7.22727 0.01 -0.0116183)
(7.24545 0.01 -0.0116546)
(7.26364 0.01 -0.0116908)
(7.28182 0.01 -0.011727)
(7.3 0.01 -0.0117632)
(7.31818 0.01 -0.0117995)
(7.33636 0.01 -0.0118357)
(7.35455 0.01 -0.0118719)
(7.37273 0.01 -0.0119081)
(7.39091 0.01 -0.0119444)
(7.40909 0.01 -0.0119806)
(7.42727 0.01 -0.0120168)
(7.44545 0.01 -0.012053)
(7.46364 0.01 -0.0120891)
(7.48182 0.01 -0.0121253)
(7.5 0.01 -0.0121615)
(7.51818 0.01 -0.0121976)
(7.53636 0.01 -0.0122338)
(7.55455 0.01 -0.0122699)
(7.57273 0.01 -0.012306)
(7.59091 0.01 -0.0123421)
(7.60909 0.01 -0.0123782)
(7.62727 0.01 -0.0124143)
(7.64545 0.01 -0.0124504)
(7.66364 0.01 -0.0124864)
(7.68182 0.01 -0.0125225)
(7.7 0.01 -0.0125586)
(7.71818 0.01 -0.0125947)
(7.73636 0.01 -0.0126307)
(7.75455 0.01 -0.0126668)
(7.77273 0.01 -0.0127028)
(7.79091 0.01 -0.0127389)
(7.80909 0.01 -0.012775)
(7.82727 0.01 -0.012811)
(7.84545 0.01 -0.0128471)
(7.86364 0.01 -0.0128832)
(7.88182 0.01 -0.0129192)
(7.9 0.01 -0.0129553)
(7.91818 0.01 -0.0129914)
(7.93636 0.01 -0.0130275)
(7.95455 0.01 -0.0130636)
(7.97273 0.01 -0.0130997)
(7.99091 0.01 -0.0131358)
(8.00909 0.01 -0.0131719)
(8.02727 0.01 -0.013208)
(8.04545 0.01 -0.0132441)
(8.06364 0.01 -0.0132802)
(8.08182 0.01 -0.0133163)
(8.1 0.01 -0.0133525)
(8.11818 0.01 -0.0133886)
(8.13636 0.01 -0.0134248)
(8.15455 0.01 -0.013461)
(8.17273 0.01 -0.0134971)
(8.19091 0.01 -0.0135334)
(8.20909 0.01 -0.0135696)
(8.22727 0.01 -0.0136059)
(8.24545 0.01 -0.0136421)
(8.26364 0.01 -0.0136784)
(8.28182 0.01 -0.0137147)
(8.3 0.01 -0.0137511)
(8.31818 0.01 -0.0137874)
(8.33636 0.01 -0.0138238)
(8.35455 0.01 -0.0138601)
(8.37273 0.01 -0.0138965)
(8.39091 0.01 -0.0139329)
(8.40909 0.01 -0.0139692)
(8.42727 0.01 -0.0140056)
(8.44545 0.01 -0.014042)
(8.46364 0.01 -0.0140784)
(8.48182 0.01 -0.0141148)
(8.5 0.01 -0.0141511)
(8.51818 0.01 -0.0141875)
(8.53636 0.01 -0.0142239)
(8.55455 0.01 -0.0142603)
(8.57273 0.01 -0.0142968)
(8.59091 0.01 -0.0143332)
(8.60909 0.01 -0.0143696)
(8.62727 0.01 -0.0144061)
(8.64545 0.01 -0.0144426)
(8.66364 0.01 -0.014479)
(8.68182 0.01 -0.0145155)
(8.7 0.01 -0.0145519)
(8.71818 0.01 -0.0145884)
(8.73636 0.01 -0.0146248)
(8.75455 0.01 -0.0146613)
(8.77273 0.01 -0.0146977)
(8.79091 0.01 -0.0147342)
(8.80909 0.01 -0.0147706)
(8.82727 0.01 -0.0148071)
(8.84545 0.01 -0.0148435)
(8.86364 0.01 -0.01488)
(8.88182 0.01 -0.0149164)
(8.9 0.01 -0.0149529)
(8.91818 0.01 -0.0149894)
(8.93636 0.01 -0.0150258)
(8.95455 0.01 -0.0150623)
(8.97273 0.01 -0.0150987)
(8.99091 0.01 -0.0151352)
(9.00909 0.01 -0.0151716)
(9.02727 0.01 -0.0152081)
(9.04545 0.01 -0.0152445)
(9.06364 0.01 -0.0152809)
(9.08182 0.01 -0.0153174)
(9.1 0.01 -0.0153538)
(9.11818 0.01 -0.0153902)
(9.13636 0.01 -0.0154267)
(9.15455 0.01 -0.0154631)
(9.17273 0.01 -0.0154996)
(9.19091 0.01 -0.0155361)
(9.20909 0.01 -0.0155725)
(9.22727 0.01 -0.015609)
(9.24545 0.01 -0.0156454)
(9.26364 0.01 -0.0156819)
(9.28182 0.01 -0.0157183)
(9.3 0.01 -0.0157547)
(9.31818 0.01 -0.0157911)
(9.33636 0.01 -0.0158274)
(9.35455 0.01 -0.0158638)
(9.37273 0.01 -0.0159001)
(9.39091 0.01 -0.0159364)
(9.40909 0.01 -0.0159728)
(9.42727 0.01 -0.0160091)
(9.44545 0.01 -0.0160454)
(9.46364 0.01 -0.0160818)
(9.48182 0.01 -0.0161181)
(9.5 0.01 -0.0161544)
(9.51818 0.01 -0.0161907)
(9.53636 0.01 -0.016227)
(9.55455 0.01 -0.0162632)
(9.57273 0.01 -0.0162993)
(9.59091 0.01 -0.0163353)
(9.60909 0.01 -0.0163711)
(9.62727 0.01 -0.0164067)
(9.64545 0.01 -0.0164418)
(9.66364 0.01 -0.0164762)
(9.68182 0.01 -0.0165098)
(9.7 0.01 -0.0165421)
(9.71818 0.01 -0.0165726)
(9.73636 0.01 -0.0166006)
(9.75455 0.01 -0.0166277)
(9.77272 0.01 -0.0166554)
(9.79091 0.01 -0.016781)
(9.8091 0.01 -0.017011)
(9.82727 0.01 -0.017151)
(9.84545 0.01 -0.0171909)
(9.86364 0.01 -0.0172272)
(9.88182 0.01 -0.0172636)
(9.9 0.01 -0.0173)
(9.91818 0.01 -0.0173364)
(9.93636 0.01 -0.0173727)
(9.95455 0.01 -0.0174091)
(9.97273 0.01 -0.0174455)
(9.99091 0.01 -0.0174818)
(0.00909091 0.01 0.00748182)
(0.0272727 0.01 0.00744545)
(0.0454545 0.01 0.00740909)
(0.0636364 0.01 0.00737273)
(0.0818182 0.01 0.00733636)
(0.1 0.01 0.0073)
(0.118182 0.01 0.00726364)
(0.136364 0.01 0.00722727)
(0.154545 0.01 0.00719091)
(0.172727 0.01 0.00715455)
(0.190909 0.01 0.00711818)
(0.209091 0.01 0.00708182)
(0.227273 0.01 0.00704545)
(0.245455 0.01 0.00700909)
(0.263636 0.01 0.00697273)
(0.281818 0.01 0.00693636)
(0.3 0.01 0.0069)
(0.318182 0.01 0.00686364)
(0.336364 0.01 0.00682727)
(0.354545 0.01 0.00679091)
(0.372727 0.01 0.00675455)
(0.390909 0.01 0.00671818)
(0.409091 0.01 0.00668182)
(0.427273 0.01 0.00664545)
(0.445455 0.01 0.00660909)
(0.463636 0.01 0.00657273)
(0.481818 0.01 0.00653636)
(0.5 0.01 0.0065)
(0.518182 0.01 0.00646364)
(0.536364 0.01 0.00642727)
(0.554545 0.01 0.00639091)
(0.572727 0.01 0.00635455)
(0.590909 0.01 0.00631818)
(0.609091 0.01 0.00628182)
(0.627273 0.01 0.00624545)
(0.645455 0.01 0.00620909)
(0.663636 0.01 0.00617273)
(0.681818 0.01 0.00613636)
(0.7 0.01 0.0061)
(0.718182 0.01 0.00606364)
(0.736364 0.01 0.00602727)
(0.754545 0.01 0.00599091)
(0.772727 0.01 0.00595455)
(0.790909 0.01 0.00591818)
(0.809091 0.01 0.00588182)
(0.827273 0.01 0.00584545)
(0.845455 0.01 0.00580909)
(0.863636 0.01 0.00577273)
(0.881818 0.01 0.00573636)
(0.9 0.01 0.0057)
(0.918182 0.01 0.00566364)
(0.936364 0.01 0.00562727)
(0.954545 0.01 0.00559091)
(0.972727 0.01 0.00555455)
(0.990909 0.01 0.00551818)
(1.00909 0.01 0.00548182)
(1.02727 0.01 0.00544545)
(1.04545 0.01 0.00540907)
(1.06364 0.01 0.00537273)
(1.08182 0.01 0.00533639)
(1.1 0.01 0.00530038)
(1.11818 0.01 0.00526582)
(1.13636 0.01 0.00523311)
(1.15455 0.01 0.00520128)
(1.17273 0.01 0.00516962)
(1.19091 0.01 0.00513796)
(1.20909 0.01 0.00510623)
(1.22727 0.01 0.00507438)
(1.24545 0.01 0.00504243)
(1.26364 0.01 0.00501038)
(1.28182 0.01 0.00497823)
(1.3 0.01 0.00494601)
(1.31818 0.01 0.00491374)
(1.33636 0.01 0.0048814)
(1.35455 0.01 0.00484902)
(1.37273 0.01 0.00481659)
(1.39091 0.01 0.00478409)
(1.40909 0.01 0.00475151)
(1.42727 0.01 0.00471885)
(1.44545 0.01 0.00468611)
(1.46364 0.01 0.0046533)
(1.48182 0.01 0.00462043)
(1.5 0.01 0.0045875)
(1.51818 0.01 0.0045545)
(1.53636 0.01 0.00452145)
(1.55455 0.01 0.00448834)
(1.57273 0.01 0.00445518)
(1.59091 0.01 0.00442198)
(1.60909 0.01 0.00438874)
(1.62727 0.01 0.0043555)
(1.64545 0.01 0.00432224)
(1.66364 0.01 0.00428898)
(1.68182 0.01 0.00425569)
(1.7 0.01 0.00422238)
(1.71818 0.01 0.00418904)
(1.73636 0.01 0.00415565)
(1.75455 0.01 0.00412221)
(1.77273 0.01 0.00408871)
(1.79091 0.01 0.00405517)
(1.80909 0.01 0.00402163)
(1.82727 0.01 0.00398809)
(1.84545 0.01 0.00395457)
(1.86364 0.01 0.00392106)
(1.88182 0.01 0.00388758)
(1.9 0.01 0.00385412)
(1.91818 0.01 0.00382069)
(1.93636 0.01 0.00378727)
(1.95455 0.01 0.00375387)
(1.97273 0.01 0.0037205)
(1.99091 0.01 0.00368714)
(2.00909 0.01 0.0036538)
(2.02727 0.01 0.00362048)
(2.04545 0.01 0.00358718)
(2.06364 0.01 0.00355389)
(2.08182 0.01 0.00352064)
(2.1 0.01 0.00348741)
(2.11818 0.01 0.00345419)
(2.13636 0.01 0.00342096)
(2.15455 0.01 0.00338773)
(2.17273 0.01 0.0033545)
(2.19091 0.01 0.00332127)
(2.20909 0.01 0.00328804)
(2.22727 0.01 0.00325479)
(2.24545 0.01 0.00322154)
(2.26364 0.01 0.00318828)
(2.28182 0.01 0.003155)
(2.3 0.01 0.00312171)
(2.31818 0.01 0.00308839)
(2.33636 0.01 0.00305506)
(2.35455 0.01 0.00302171)
(2.37273 0.01 0.00298833)
(2.39091 0.01 0.00295493)
(2.40909 0.01 0.00292149)
(2.42727 0.01 0.00288801)
(2.44545 0.01 0.0028545)
(2.46364 0.01 0.00282094)
(2.48182 0.01 0.00278735)
(2.5 0.01 0.00275371)
(2.51818 0.01 0.00272003)
(2.53636 0.01 0.0026863)
(2.55455 0.01 0.00265253)
(2.57273 0.01 0.00261871)
(2.59091 0.01 0.00258484)
(2.60909 0.01 0.00255093)
(2.62727 0.01 0.00251698)
(2.64545 0.01 0.00248298)
(2.66364 0.01 0.00244894)
(2.68182 0.01 0.00241486)
(2.7 0.01 0.00238074)
(2.71818 0.01 0.00234659)
(2.73636 0.01 0.00231239)
(2.75455 0.01 0.00227816)
(2.77273 0.01 0.0022439)
(2.79091 0.01 0.0022096)
(2.80909 0.01 0.00217527)
(2.82727 0.01 0.0021409)
(2.84545 0.01 0.00210649)
(2.86364 0.01 0.00207206)
(2.88182 0.01 0.0020376)
(2.9 0.01 0.00200311)
(2.91818 0.01 0.00196859)
(2.93636 0.01 0.00193405)
(2.95455 0.01 0.00189947)
(2.97273 0.01 0.00186487)
(2.99091 0.01 0.00183024)
(3.00909 0.01 0.00179557)
(3.02727 0.01 0.00176088)
(3.04545 0.01 0.00172616)
(3.06364 0.01 0.0016914)
(3.08182 0.01 0.00165662)
(3.1 0.01 0.0016218)
(3.11818 0.01 0.00158696)
(3.13636 0.01 0.00155208)
(3.15455 0.01 0.00151718)
(3.17273 0.01 0.00148224)
(3.19091 0.01 0.00144726)
(3.20909 0.01 0.00141226)
(3.22727 0.01 0.00137722)
(3.24545 0.01 0.00134215)
(3.26364 0.01 0.00130703)
(3.28182 0.01 0.00127189)
(3.3 0.01 0.0012367)
(3.31818 0.01 0.00120148)
(3.33636 0.01 0.00116621)
(3.35455 0.01 0.00113091)
(3.37273 0.01 0.00109557)
(3.39091 0.01 0.00106019)
(3.40909 0.01 0.00102476)
(3.42727 0.01 0.000989301)
(3.44545 0.01 0.000953797)
(3.46364 0.01 0.000918253)
(3.48182 0.01 0.000882667)
(3.5 0.01 0.000847039)
(3.51818 0.01 0.00081137)
(3.53636 0.01 0.000775658)
(3.55455 0.01 0.000739904)
(3.57273 0.01 0.00070411)
(3.59091 0.01 0.000668279)
(3.60909 0.01 0.000632411)
(3.62727 0.01 0.000596509)
(3.64545 0.01 0.000560572)
(3.66364 0.01 0.000524602)
(3.68182 0.01 0.000488599)
(3.7 0.01 0.000452566)
(3.71818 0.01 0.000416505)
(3.73636 0.01 0.000380418)
(3.75455 0.01 0.000344304)
(3.77273 0.01 0.000308161)
(3.79091 0.01 0.000271991)
(3.80909 0.01 0.000235796)
(3.82727 0.01 0.000199574)
(3.84545 0.01 0.000163327)
(3.86364 0.01 0.000127056)
(3.88182 0.01 9.07599e-05)
(3.9 0.01 5.44403e-05)
(3.91818 0.01 1.80981e-05)
(3.93636 0.01 -1.8267e-05)
(3.95455 0.01 -5.46577e-05)
(3.97273 0.01 -9.10762e-05)
(3.99091 0.01 -0.000127525)
(4.00909 0.01 -0.000164004)
(4.02727 0.01 -0.000200514)
(4.04545 0.01 -0.000237052)
(4.06364 0.01 -0.000273613)
(4.08182 0.01 -0.000310187)
(4.1 0.01 -0.000346774)
(4.11818 0.01 -0.000383379)
(4.13636 0.01 -0.000420004)
(4.15455 0.01 -0.000456649)
(4.17273 0.01 -0.000493312)
(4.19091 0.01 -0.000529994)
(4.20909 0.01 -0.000566695)
(4.22727 0.01 -0.000603415)
(4.24545 0.01 -0.00064015)
(4.26364 0.01 -0.000676901)
(4.28182 0.01 -0.000713668)
(4.3 0.01 -0.000750452)
(4.31818 0.01 -0.000787253)
(4.33636 0.01 -0.000824069)
(4.35455 0.01 -0.000860901)
(4.37273 0.01 -0.000897748)
(4.39091 0.01 -0.000934609)
(4.40909 0.01 -0.000971481)
(4.42727 0.01 -0.00100836)
(4.44545 0.01 -0.00104525)
(4.46364 0.01 -0.00108215)
(4.48182 0.01 -0.00111905)
(4.5 0.01 -0.00115595)
(4.51818 0.01 -0.00119284)
(4.53636 0.01 -0.00122974)
(4.55455 0.01 -0.00126662)
(4.57273 0.01 -0.0013035)
(4.59091 0.01 -0.00134036)
(4.60909 0.01 -0.0013772)
(4.62727 0.01 -0.00141403)
(4.64545 0.01 -0.00145082)
(4.66364 0.01 -0.0014876)
(4.68182 0.01 -0.00152435)
(4.7 0.01 -0.00156107)
(4.71818 0.01 -0.00159777)
(4.73636 0.01 -0.00163443)
(4.75455 0.01 -0.00167105)
(4.77273 0.01 -0.00170762)
(4.79091 0.01 -0.00174415)
(4.80909 0.01 -0.00178067)
(4.82727 0.01 -0.00181717)
(4.84545 0.01 -0.00185366)
(4.86364 0.01 -0.00189014)
(4.88182 0.01 -0.00192661)
(4.9 0.01 -0.00196306)
(4.91818 0.01 -0.00199949)
(4.93636 0.01 -0.0020359)
(4.95455 0.01 -0.00207229)
(4.97273 0.01 -0.00210866)
(4.99091 0.01 -0.00214502)
(5.00909 0.01 -0.00218135)
(5.02727 0.01 -0.00221766)
(5.04545 0.01 -0.00225396)
(5.06364 0.01 -0.00229024)
(5.08182 0.01 -0.00232651)
(5.1 0.01 -0.00236276)
(5.11818 0.01 -0.00239899)
(5.13636 0.01 -0.00243522)
(5.15455 0.01 -0.00247143)
(5.17273 0.01 -0.00250764)
(5.19091 0.01 -0.00254384)
(5.20909 0.01 -0.00258003)
(5.22727 0.01 -0.00261621)
(5.24545 0.01 -0.00265239)
(5.26364 0.01 -0.00268857)
(5.28182 0.01 -0.00272475)
(5.3 0.01 -0.00276092)
(5.31818 0.01 -0.0027971)
(5.33636 0.01 -0.00283327)
(5.35455 0.01 -0.00286944)
(5.37273 0.01 -0.00290562)
(5.39091 0.01 -0.0029418)
(5.40909 0.01 -0.00297797)
(5.42727 0.01 -0.00301416)
(5.44545 0.01 -0.00305034)
(5.46364 0.01 -0.00308652)
(5.48182 0.01 -0.00312271)
(5.5 0.01 -0.0031589)
(5.51818 0.01 -0.00319509)
(5.53636 0.01 -0.00323128)
(5.55455 0.01 -0.00326747)
(5.57273 0.01 -0.00330366)
(5.59091 0.01 -0.00333985)
(5.60909 0.01 -0.00337604)
(5.62727 0.01 -0.00341224)
(5.64545 0.01 -0.00344843)
(5.66364 0.01 -0.00348463)
(5.68182 0.01 -0.00352084)
(5.7 0.01 -0.00355706)
(5.71818 0.01 -0.00359329)
(5.73636 0.01 -0.00362953)
(5.75455 0.01 -0.00366578)
(5.77273 0.01 -0.00370204)
(5.79091 0.01 -0.00373831)
(5.80909 0.01 -0.0037746)
(5.82727 0.01 -0.0038109)
(5.84545 0.01 -0.00384721)
(5.86364 0.01 -0.00388352)
(5.88182 0.01 -0.00391985)
(5.9 0.01 -0.00395618)
(5.91818 0.01 -0.00399252)
(5.93636 0.01 -0.00402887)
(5.95455 0.01 -0.00406522)
(5.97273 0.01 -0.00410159)
(5.99091 0.01 -0.00413798)
(6.00909 0.01 -0.00417437)
(6.02727 0.01 -0.00421078)
(6.04545 0.01 -0.00424721)
(6.06364 0.01 -0.00428366)
(6.08182 0.01 -0.00432012)
(6.1 0.01 -0.00435661)
(6.11818 0.01 -0.00439311)
(6.13636 0.01 -0.00442963)
(6.15455 0.01 -0.00446616)
(6.17273 0.01 -0.00450271)
(6.19091 0.01 -0.00453927)
(6.20909 0.01 -0.00457583)
(6.22727 0.01 -0.00461239)
(6.24545 0.01 -0.00464895)
(6.26364 0.01 -0.00468551)
(6.28182 0.01 -0.00472207)
(6.3 0.01 -0.00475863)
(6.31818 0.01 -0.00479518)
(6.33636 0.01 -0.00483172)
(6.35455 0.01 -0.00486825)
(6.37273 0.01 -0.00490474)
(6.39091 0.01 -0.00494121)
(6.40909 0.01 -0.00497764)
(6.42727 0.01 -0.00501406)
(6.44545 0.01 -0.0050505)
(6.46364 0.01 -0.00508694)
(6.48182 0.01 -0.00512341)
(6.5 0.01 -0.00515988)
(6.51818 0.01 -0.00519636)
(6.53636 0.01 -0.00523284)
(6.55455 0.01 -0.00526934)
(6.57273 0.01 -0.00530583)
(6.59091 0.01 -0.00534234)
(6.60909 0.01 -0.00537885)
(6.62727 0.01 -0.00541537)
(6.64545 0.01 -0.0054519)
(6.66364 0.01 -0.00548844)
(6.68182 0.01 -0.00552499)
(6.7 0.01 -0.00556156)
(6.71818 0.01 -0.00559813)
(6.73636 0.01 -0.0056347)
(6.75455 0.01 -0.00567129)
(6.77273 0.01 -0.00570788)
(6.79091 0.01 -0.00574447)
(6.80909 0.01 -0.00578107)
(6.82727 0.01 -0.00581767)
(6.84545 0.01 -0.00585427)
(6.86364 0.01 -0.00589087)
(6.88182 0.01 -0.00592746)
(6.9 0.01 -0.00596405)
(6.91818 0.01 -0.00600063)
(6.93636 0.01 -0.00603719)
(6.95455 0.01 -0.00607372)
(6.97273 0.01 -0.00611021)
(6.99091 0.01 -0.00614667)
(7.00909 0.01 -0.00618309)
(7.02727 0.01 -0.00621947)
(7.04545 0.01 -0.00625582)
(7.06364 0.01 -0.00629214)
(7.08182 0.01 -0.00632843)
(7.1 0.01 -0.0063647)
(7.11818 0.01 -0.00640095)
(7.13636 0.01 -0.00643719)
(7.15455 0.01 -0.00647342)
(7.17273 0.01 -0.00650964)
(7.19091 0.01 -0.00654587)
(7.20909 0.01 -0.0065821)
(7.22727 0.01 -0.00661833)
(7.24545 0.01 -0.00665456)
(7.26364 0.01 -0.00669079)
(7.28182 0.01 -0.00672702)
(7.3 0.01 -0.00676325)
(7.31818 0.01 -0.00679948)
(7.33636 0.01 -0.0068357)
(7.35455 0.01 -0.00687192)
(7.37273 0.01 -0.00690814)
(7.39091 0.01 -0.00694436)
(7.40909 0.01 -0.00698057)
(7.42727 0.01 -0.00701678)
(7.44545 0.01 -0.00705297)
(7.46364 0.01 -0.00708915)
(7.48182 0.01 -0.00712532)
(7.5 0.01 -0.00716148)
(7.51818 0.01 -0.00719762)
(7.53636 0.01 -0.00723376)
(7.55455 0.01 -0.00726988)
(7.57273 0.01 -0.00730599)
(7.59091 0.01 -0.0073421)
(7.60909 0.01 -0.0073782)
(7.62727 0.01 -0.00741429)
(7.64545 0.01 -0.00745037)
(7.66364 0.01 -0.00748645)
(7.68182 0.01 -0.00752253)
(7.7 0.01 -0.00755859)
(7.71818 0.01 -0.00759466)
(7.73636 0.01 -0.00763072)
(7.75455 0.01 -0.00766678)
(7.77273 0.01 -0.00770284)
(7.79091 0.01 -0.00773889)
(7.80909 0.01 -0.00777496)
(7.82727 0.01 -0.00781102)
(7.84545 0.01 -0.00784709)
(7.86364 0.01 -0.00788317)
(7.88182 0.01 -0.00791925)
(7.9 0.01 -0.00795534)
(7.91818 0.01 -0.00799143)
(7.93636 0.01 -0.00802752)
(7.95455 0.01 -0.00806361)
(7.97273 0.01 -0.00809971)
(7.99091 0.01 -0.00813581)
(8.00909 0.01 -0.00817191)
(8.02727 0.01 -0.00820801)
(8.04545 0.01 -0.00824412)
(8.06364 0.01 -0.00828023)
(8.08182 0.01 -0.00831635)
(8.1 0.01 -0.00835248)
(8.11818 0.01 -0.00838863)
(8.13636 0.01 -0.00842479)
(8.15455 0.01 -0.00846096)
(8.17273 0.01 -0.00849716)
(8.19091 0.01 -0.00853337)
(8.20909 0.01 -0.00856961)
(8.22727 0.01 -0.00860587)
(8.24545 0.01 -0.00864215)
(8.26364 0.01 -0.00867844)
(8.28182 0.01 -0.00871476)
(8.3 0.01 -0.00875108)
(8.31818 0.01 -0.00878742)
(8.33636 0.01 -0.00882377)
(8.35455 0.01 -0.00886013)
(8.37273 0.01 -0.0088965)
(8.39091 0.01 -0.00893287)
(8.40909 0.01 -0.00896924)
(8.42727 0.01 -0.00900562)
(8.44545 0.01 -0.009042)
(8.46364 0.01 -0.00907838)
(8.48182 0.01 -0.00911476)
(8.5 0.01 -0.00915115)
(8.51818 0.01 -0.00918754)
(8.53636 0.01 -0.00922394)
(8.55455 0.01 -0.00926036)
(8.57273 0.01 -0.00929678)
(8.59091 0.01 -0.00933321)
(8.60909 0.01 -0.00936966)
(8.62727 0.01 -0.0094061)
(8.64545 0.01 -0.00944256)
(8.66364 0.01 -0.00947901)
(8.68182 0.01 -0.00951547)
(8.7 0.01 -0.00955193)
(8.71818 0.01 -0.00958839)
(8.73636 0.01 -0.00962485)
(8.75455 0.01 -0.0096613)
(8.77273 0.01 -0.00969775)
(8.79091 0.01 -0.0097342)
(8.80909 0.01 -0.00977065)
(8.82727 0.01 -0.0098071)
(8.84545 0.01 -0.00984355)
(8.86364 0.01 -0.00988)
(8.88182 0.01 -0.00991645)
(8.9 0.01 -0.00995291)
(8.91818 0.01 -0.00998936)
(8.93636 0.01 -0.0100258)
(8.95455 0.01 -0.0100623)
(8.97273 0.01 -0.0100987)
(8.99091 0.01 -0.0101352)
(9.00909 0.01 -0.0101716)
(9.02727 0.01 -0.0102081)
(9.04545 0.01 -0.0102445)
(9.06364 0.01 -0.010281)
(9.08182 0.01 -0.0103174)
(9.1 0.01 -0.0103538)
(9.11818 0.01 -0.0103903)
(9.13636 0.01 -0.0104267)
(9.15455 0.01 -0.0104632)
(9.17273 0.01 -0.0104996)
(9.19091 0.01 -0.0105361)
(9.20909 0.01 -0.0105725)
(9.22727 0.01 -0.010609)
(9.24545 0.01 -0.0106454)
(9.26364 0.01 -0.0106819)
(9.28182 0.01 -0.0107183)
(9.3 0.01 -0.0107547)
(9.31818 0.01 -0.0107911)
(9.33636 0.01 -0.0108274)
(9.35455 0.01 -0.0108638)
(9.37273 0.01 -0.0109001)
(9.39091 0.01 -0.0109364)
(9.40909 0.01 -0.0109728)
(9.42727 0.01 -0.0110091)
(9.44545 0.01 -0.0110454)
(9.46364 0.01 -0.0110818)
(9.48182 0.01 -0.0111181)
(9.5 0.01 -0.0111544)
(9.51818 0.01 -0.0111907)
(9.53636 0.01 -0.011227)
(9.55455 0.01 -0.0112632)
(9.57273 0.01 -0.0112993)
(9.59091 0.01 -0.0113353)
(9.60909 0.01 -0.0113711)
(9.62727 0.01 -0.0114066)
(9.64545 0.01 -0.0114417)
(9.66364 0.01 -0.0114762)
(9.68182 0.01 -0.0115097)
(9.7 0.01 -0.011542)
(9.71818 0.01 -0.0115725)
(9.73636 0.01 -0.0116007)
(9.75455 0.01 -0.0116282)
(9.77272 0.01 -0.0116635)
(9.79091 0.01 -0.0117891)
(9.8091 0.01 -0.0120035)
(9.82727 0.01 -0.0121426)
(9.84545 0.01 -0.0121902)
(9.86364 0.01 -0.012227)
(9.88182 0.01 -0.0122635)
(9.9 0.01 -0.0123)
(9.91818 0.01 -0.0123363)
(9.93636 0.01 -0.0123727)
(9.95455 0.01 -0.0124091)
(9.97273 0.01 -0.0124455)
(9.99091 0.01 -0.0124818)
(0.00909091 0.01 0.0124818)
(0.0272727 0.01 0.0124455)
(0.0454545 0.01 0.0124091)
(0.0636364 0.01 0.0123727)
(0.0818182 0.01 0.0123364)
(0.1 0.01 0.0123)
(0.118182 0.01 0.0122636)
(0.136364 0.01 0.0122273)
(0.154545 0.01 0.0121909)
(0.172727 0.01 0.0121545)
(0.190909 0.01 0.0121182)