/*--------------------------------*- C++ -*----------------------------------*\
| =========                 |                                                 |
| \\      /  F ield         | foam-extend: Open Source CFD                    |
|  \\    /   O peration     | Version:     3.2                                |
|   \\  /    A nd           | Web:         http://www.foam-extend.org         |
|    \\/     M anipulation  | For copyright notice see file Copyright         |
\*---------------------------------------------------------------------------*/
FoamFile
{
    version     2.0;
    format      ascii;
    class       pointVectorField;
    location    "120";
    object      newMeshPoints;
}
// * * * * * * * * * * * * * * * * * * * * * * * * * * * * * * * * * * * * * //

dimensions      [0 1 0 0 0 0 0];

internalField   nonuniform List<vector> 
67222
(
(0 0 0)
(0.0181818 0 -3.63636e-05)
(0.0363636 0 -7.27273e-05)
(0.0545455 0 -0.000109091)
(0.0727273 0 -0.000145455)
(0.0909091 0 -0.000181818)
(0.109091 0 -0.000218182)
(0.127273 0 -0.000254545)
(0.145455 0 -0.000290909)
(0.163636 0 -0.000327273)
(0.181818 0 -0.000363636)
(0.2 0 -0.0004)
(0.218182 0 -0.000436364)
(0.236364 0 -0.000472727)
(0.254545 0 -0.000509091)
(0.272727 0 -0.000545455)
(0.290909 0 -0.000581818)
(0.309091 0 -0.000618182)
(0.327273 0 -0.000654545)
(0.345455 0 -0.000690909)
(0.363636 0 -0.000727273)
(0.381818 0 -0.000763636)
(0.4 0 -0.0008)
(0.418182 0 -0.000836364)
(0.436364 0 -0.000872727)
(0.454545 0 -0.000909091)
(0.472727 0 -0.000945455)
(0.490909 0 -0.000981818)
(0.509091 0 -0.00101818)
(0.527273 0 -0.00105455)
(0.545455 0 -0.00109091)
(0.563636 0 -0.00112727)
(0.581818 0 -0.00116364)
(0.6 0 -0.0012)
(0.618182 0 -0.00123636)
(0.636364 0 -0.00127273)
(0.654545 0 -0.00130909)
(0.672727 0 -0.00134545)
(0.690909 0 -0.00138182)
(0.709091 0 -0.00141818)
(0.727273 0 -0.00145455)
(0.745455 0 -0.00149091)
(0.763636 0 -0.00152727)
(0.781818 0 -0.00156364)
(0.8 0 -0.0016)
(0.818182 0 -0.00163636)
(0.836364 0 -0.00167273)
(0.854545 0 -0.00170909)
(0.872727 0 -0.00174545)
(0.890909 0 -0.00178182)
(0.909091 0 -0.00181818)
(0.927273 0 -0.00185455)
(0.945455 0 -0.00189091)
(0.963636 0 -0.00192727)
(0.981818 0 -0.00196364)
(1 0 -0.002)
(1.01818 0 -0.00203637)
(1.03636 0 -0.00207273)
(1.05455 0 -0.00210914)
(1.07273 0 -0.00214541)
(1.09091 0 -0.00218188)
(1.10909 0 -0.00221774)
(1.12727 0 -0.00225108)
(1.14545 0 -0.0022829)
(1.16364 0 -0.00231458)
(1.18182 0 -0.00234618)
(1.2 0 -0.00237787)
(1.21818 0 -0.00240965)
(1.23636 0 -0.00244155)
(1.25455 0 -0.00247356)
(1.27273 0 -0.00250566)
(1.29091 0 -0.00253785)
(1.30909 0 -0.0025701)
(1.32727 0 -0.00260241)
(1.34545 0 -0.00263476)
(1.36364 0 -0.00266717)
(1.38182 0 -0.00269963)
(1.4 0 -0.00273217)
(1.41818 0 -0.00276479)
(1.43636 0 -0.00279749)
(1.45455 0 -0.00283027)
(1.47273 0 -0.00286311)
(1.49091 0 -0.00289601)
(1.50909 0 -0.00292897)
(1.52727 0 -0.00296199)
(1.54545 0 -0.00299508)
(1.56364 0 -0.00302821)
(1.58182 0 -0.0030614)
(1.6 0 -0.00309462)
(1.61818 0 -0.00312787)
(1.63636 0 -0.00316113)
(1.65455 0 -0.00319438)
(1.67273 0 -0.00322765)
(1.69091 0 -0.00326095)
(1.70909 0 -0.00329427)
(1.72727 0 -0.00332763)
(1.74545 0 -0.00336105)
(1.76364 0 -0.00339452)
(1.78182 0 -0.00342805)
(1.8 0 -0.00346159)
(1.81818 0 -0.00349514)
(1.83636 0 -0.00352867)
(1.85455 0 -0.00356219)
(1.87273 0 -0.00359568)
(1.89091 0 -0.00362915)
(1.90909 0 -0.0036626)
(1.92727 0 -0.00369602)
(1.94545 0 -0.00372943)
(1.96364 0 -0.00376282)
(1.98182 0 -0.00379618)
(2 0 -0.00382953)
(2.01818 0 -0.00386286)
(2.03636 0 -0.00389617)
(2.05455 0 -0.00392947)
(2.07273 0 -0.00396274)
(2.09091 0 -0.00399598)
(2.10909 0 -0.0040292)
(2.12727 0 -0.00406242)
(2.14545 0 -0.00409565)
(2.16364 0 -0.00412887)
(2.18182 0 -0.0041621)
(2.2 0 -0.00419534)
(2.21818 0 -0.00422858)
(2.23636 0 -0.00426182)
(2.25455 0 -0.00429508)
(2.27273 0 -0.00432835)
(2.29091 0 -0.00436164)
(2.30909 0 -0.00439494)
(2.32727 0 -0.00442826)
(2.34545 0 -0.0044616)
(2.36364 0 -0.00449496)
(2.38182 0 -0.00452835)
(2.4 0 -0.00456177)
(2.41818 0 -0.00459523)
(2.43636 0 -0.00462872)
(2.45455 0 -0.00466226)
(2.47273 0 -0.00469583)
(2.49091 0 -0.00472945)
(2.50909 0 -0.00476311)
(2.52727 0 -0.00479681)
(2.54545 0 -0.00483056)
(2.56364 0 -0.00486436)
(2.58182 0 -0.0048982)
(2.6 0 -0.00493209)
(2.61818 0 -0.00496602)
(2.63636 0 -0.005)
(2.65455 0 -0.00503402)
(2.67273 0 -0.00506808)
(2.69091 0 -0.00510218)
(2.70909 0 -0.00513631)
(2.72727 0 -0.00517049)
(2.74545 0 -0.0052047)
(2.76364 0 -0.00523895)
(2.78182 0 -0.00527323)
(2.8 0 -0.00530755)
(2.81818 0 -0.0053419)
(2.83636 0 -0.00537629)
(2.85455 0 -0.0054107)
(2.87273 0 -0.00544515)
(2.89091 0 -0.00547963)
(2.90909 0 -0.00551413)
(2.92727 0 -0.00554866)
(2.94545 0 -0.00558322)
(2.96364 0 -0.00561781)
(2.98182 0 -0.00565243)
(3 0 -0.00568708)
(3.01818 0 -0.00572175)
(3.03636 0 -0.00575646)
(3.05455 0 -0.0057912)
(3.07273 0 -0.00582597)
(3.09091 0 -0.00586077)
(3.10909 0 -0.0058956)
(3.12727 0 -0.00593046)
(3.14545 0 -0.00596535)
(3.16364 0 -0.00600027)
(3.18182 0 -0.00603523)
(3.2 0 -0.00607022)
(3.21818 0 -0.00610524)
(3.23636 0 -0.0061403)
(3.25455 0 -0.00617539)
(3.27273 0 -0.00621052)
(3.29091 0 -0.00624568)
(3.30909 0 -0.00628089)
(3.32727 0 -0.00631613)
(3.34545 0 -0.00635142)
(3.36364 0 -0.00638674)
(3.38182 0 -0.0064221)
(3.4 0 -0.0064575)
(3.41818 0 -0.00649294)
(3.43636 0 -0.00652843)
(3.45455 0 -0.00656395)
(3.47273 0 -0.00659952)
(3.49091 0 -0.00663512)
(3.50909 0 -0.00667077)
(3.52727 0 -0.00670646)
(3.54545 0 -0.0067422)
(3.56364 0 -0.00677797)
(3.58182 0 -0.00681378)
(3.6 0 -0.00684963)
(3.61818 0 -0.00688552)
(3.63636 0 -0.00692144)
(3.65455 0 -0.00695739)
(3.67273 0 -0.00699338)
(3.69091 0 -0.0070294)
(3.70909 0 -0.00706545)
(3.72727 0 -0.00710152)
(3.74545 0 -0.00713762)
(3.76364 0 -0.00717375)
(3.78182 0 -0.00720991)
(3.8 0 -0.00724609)
(3.81818 0 -0.0072823)
(3.83636 0 -0.00731853)
(3.85455 0 -0.00735479)
(3.87273 0 -0.00739108)
(3.89091 0 -0.00742738)
(3.90909 0 -0.00746372)
(3.92727 0 -0.00750007)
(3.94545 0 -0.00753645)
(3.96364 0 -0.00757285)
(3.98182 0 -0.00760928)
(4 0 -0.00764575)
(4.01818 0 -0.00768224)
(4.03636 0 -0.00771877)
(4.05455 0 -0.00775532)
(4.07273 0 -0.00779189)
(4.09091 0 -0.00782847)
(4.10909 0 -0.00786506)
(4.12727 0 -0.00790168)
(4.14545 0 -0.00793831)
(4.16364 0 -0.00797497)
(4.18182 0 -0.00801164)
(4.2 0 -0.00804833)
(4.21818 0 -0.00808504)
(4.23636 0 -0.00812177)
(4.25455 0 -0.00815851)
(4.27273 0 -0.00819527)
(4.29091 0 -0.00823205)
(4.30909 0 -0.00826884)
(4.32727 0 -0.00830565)
(4.34545 0 -0.00834247)
(4.36364 0 -0.00837931)
(4.38182 0 -0.00841617)
(4.4 0 -0.00845303)
(4.41818 0 -0.00848991)
(4.43636 0 -0.0085268)
(4.45455 0 -0.00856369)
(4.47273 0 -0.00860059)
(4.49091 0 -0.00863749)
(4.50909 0 -0.00867439)
(4.52727 0 -0.00871129)
(4.54545 0 -0.00874818)
(4.56364 0 -0.00878506)
(4.58182 0 -0.00882193)
(4.6 0 -0.00885878)
(4.61818 0 -0.00889562)
(4.63636 0 -0.00893243)
(4.65455 0 -0.00896921)
(4.67273 0 -0.00900597)
(4.69091 0 -0.00904271)
(4.70909 0 -0.00907942)
(4.72727 0 -0.00911611)
(4.74545 0 -0.00915275)
(4.76364 0 -0.00918934)
(4.78182 0 -0.00922589)
(4.8 0 -0.00926241)
(4.81818 0 -0.00929892)
(4.83636 0 -0.00933541)
(4.85455 0 -0.0093719)
(4.87273 0 -0.00940837)
(4.89091 0 -0.00944483)
(4.90909 0 -0.00948127)
(4.92727 0 -0.00951769)
(4.94545 0 -0.0095541)
(4.96364 0 -0.00959048)
(4.98182 0 -0.00962684)
(5 0 -0.00966318)
(5.01818 0 -0.00969951)
(5.03636 0 -0.00973581)
(5.05455 0 -0.0097721)
(5.07273 0 -0.00980837)
(5.09091 0 -0.00984463)
(5.10909 0 -0.00988087)
(5.12727 0 -0.0099171)
(5.14545 0 -0.00995332)
(5.16364 0 -0.00998953)
(5.18182 0 -0.0100257)
(5.2 0 -0.0100619)
(5.21818 0 -0.0100981)
(5.23636 0 -0.0101343)
(5.25455 0 -0.0101705)
(5.27273 0 -0.0102067)
(5.29091 0 -0.0102428)
(5.30909 0 -0.010279)
(5.32727 0 -0.0103152)
(5.34545 0 -0.0103513)
(5.36364 0 -0.0103875)
(5.38182 0 -0.0104237)
(5.4 0 -0.0104599)
(5.41818 0 -0.0104961)
(5.43636 0 -0.0105322)
(5.45455 0 -0.0105684)
(5.47273 0 -0.0106046)
(5.49091 0 -0.0106408)
(5.50909 0 -0.010677)
(5.52727 0 -0.0107132)
(5.54545 0 -0.0107494)
(5.56364 0 -0.0107856)
(5.58182 0 -0.0108217)
(5.6 0 -0.0108579)
(5.61818 0 -0.0108941)
(5.63636 0 -0.0109303)
(5.65455 0 -0.0109665)
(5.67273 0 -0.0110027)
(5.69091 0 -0.0110389)
(5.70909 0 -0.0110752)
(5.72727 0 -0.0111114)
(5.74545 0 -0.0111476)
(5.76364 0 -0.0111839)
(5.78182 0 -0.0112202)
(5.8 0 -0.0112564)
(5.81818 0 -0.0112927)
(5.83636 0 -0.011329)
(5.85455 0 -0.0113654)
(5.87273 0 -0.0114017)
(5.89091 0 -0.011438)
(5.90909 0 -0.0114743)
(5.92727 0 -0.0115107)
(5.94545 0 -0.011547)
(5.96364 0 -0.0115834)
(5.98182 0 -0.0116198)
(6 0 -0.0116562)
(6.01818 0 -0.0116926)
(6.03636 0 -0.011729)
(6.05455 0 -0.0117654)
(6.07273 0 -0.0118019)
(6.09091 0 -0.0118384)
(6.10909 0 -0.0118748)
(6.12727 0 -0.0119114)
(6.14545 0 -0.0119479)
(6.16364 0 -0.0119844)
(6.18182 0 -0.012021)
(6.2 0 -0.0120575)
(6.21818 0 -0.0120941)
(6.23636 0 -0.0121307)
(6.25455 0 -0.0121672)
(6.27273 0 -0.0122038)
(6.29091 0 -0.0122403)
(6.30909 0 -0.0122769)
(6.32727 0 -0.0123134)
(6.34545 0 -0.01235)
(6.36364 0 -0.0123865)
(6.38182 0 -0.012423)
(6.4 0 -0.0124594)
(6.41818 0 -0.0124958)
(6.43636 0 -0.0125323)
(6.45455 0 -0.0125687)
(6.47273 0 -0.0126052)
(6.49091 0 -0.0126416)
(6.50909 0 -0.0126781)
(6.52727 0 -0.0127146)
(6.54545 0 -0.0127511)
(6.56364 0 -0.0127876)
(6.58182 0 -0.0128241)
(6.6 0 -0.0128606)
(6.61818 0 -0.0128971)
(6.63636 0 -0.0129336)
(6.65455 0 -0.0129702)
(6.67273 0 -0.0130067)
(6.69091 0 -0.0130433)
(6.70909 0 -0.0130798)
(6.72727 0 -0.0131164)
(6.74545 0 -0.013153)
(6.76364 0 -0.0131896)
(6.78182 0 -0.0132262)
(6.8 0 -0.0132628)
(6.81818 0 -0.0132994)
(6.83636 0 -0.013336)
(6.85455 0 -0.0133726)
(6.87273 0 -0.0134092)
(6.89091 0 -0.0134458)
(6.90909 0 -0.0134823)
(6.92727 0 -0.0135189)
(6.94545 0 -0.0135555)
(6.96364 0 -0.013592)
(6.98182 0 -0.0136284)
(7 0 -0.0136649)
(7.01818 0 -0.0137013)
(7.03636 0 -0.0137376)
(7.05455 0 -0.013774)
(7.07273 0 -0.0138103)
(7.09091 0 -0.0138466)
(7.10909 0 -0.0138828)
(7.12727 0 -0.0139191)
(7.14545 0 -0.0139553)
(7.16364 0 -0.0139915)
(7.18182 0 -0.0140277)
(7.2 0 -0.014064)
(7.21818 0 -0.0141002)
(7.23636 0 -0.0141364)
(7.25455 0 -0.0141727)
(7.27273 0 -0.0142089)
(7.29091 0 -0.0142451)
(7.30909 0 -0.0142814)
(7.32727 0 -0.0143176)
(7.34545 0 -0.0143538)
(7.36364 0 -0.01439)
(7.38182 0 -0.0144262)
(7.4 0 -0.0144625)
(7.41818 0 -0.0144987)
(7.43636 0 -0.0145349)
(7.45455 0 -0.0145711)
(7.47273 0 -0.0146072)
(7.49091 0 -0.0146434)
(7.50909 0 -0.0146795)
(7.52727 0 -0.0147157)
(7.54545 0 -0.0147518)
(7.56364 0 -0.0147879)
(7.58182 0 -0.014824)
(7.6 0 -0.0148601)
(7.61818 0 -0.0148962)
(7.63636 0 -0.0149323)
(7.65455 0 -0.0149684)
(7.67273 0 -0.0150045)
(7.69091 0 -0.0150406)
(7.70909 0 -0.0150766)
(7.72727 0 -0.0151127)
(7.74545 0 -0.0151487)
(7.76364 0 -0.0151848)
(7.78182 0 -0.0152209)
(7.8 0 -0.0152569)
(7.81818 0 -0.015293)
(7.83636 0 -0.0153291)
(7.85455 0 -0.0153651)
(7.87273 0 -0.0154012)
(7.89091 0 -0.0154373)
(7.90909 0 -0.0154734)
(7.92727 0 -0.0155095)
(7.94545 0 -0.0155456)
(7.96364 0 -0.0155817)
(7.98182 0 -0.0156178)
(8 0 -0.0156538)
(8.01818 0 -0.01569)
(8.03636 0 -0.0157261)
(8.05455 0 -0.0157622)
(8.07273 0 -0.0157983)
(8.09091 0 -0.0158344)
(8.10909 0 -0.0158705)
(8.12727 0 -0.0159067)
(8.14545 0 -0.0159429)
(8.16364 0 -0.015979)
(8.18182 0 -0.0160152)
(8.2 0 -0.0160515)
(8.21818 0 -0.0160877)
(8.23636 0 -0.016124)
(8.25455 0 -0.0161603)
(8.27273 0 -0.0161966)
(8.29091 0 -0.0162329)
(8.30909 0 -0.0162692)
(8.32727 0 -0.0163056)
(8.34545 0 -0.0163419)
(8.36364 0 -0.0163783)
(8.38182 0 -0.0164147)
(8.4 0 -0.016451)
(8.41818 0 -0.0164874)
(8.43636 0 -0.0165238)
(8.45455 0 -0.0165602)
(8.47273 0 -0.0165966)
(8.49091 0 -0.0166329)
(8.50909 0 -0.0166693)
(8.52727 0 -0.0167057)
(8.54545 0 -0.0167421)
(8.56364 0 -0.0167786)
(8.58182 0 -0.016815)
(8.6 0 -0.0168514)
(8.61818 0 -0.0168879)
(8.63636 0 -0.0169243)
(8.65455 0 -0.0169608)
(8.67273 0 -0.0169972)
(8.69091 0 -0.0170337)
(8.70909 0 -0.0170702)
(8.72727 0 -0.0171066)
(8.74545 0 -0.0171431)
(8.76364 0 -0.0171795)
(8.78182 0 -0.017216)
(8.8 0 -0.0172524)
(8.81818 0 -0.0172889)
(8.83636 0 -0.0173253)
(8.85455 0 -0.0173618)
(8.87273 0 -0.0173982)
(8.89091 0 -0.0174347)
(8.90909 0 -0.0174711)
(8.92727 0 -0.0175076)
(8.94545 0 -0.017544)
(8.96364 0 -0.0175805)
(8.98182 0 -0.017617)
(9 0 -0.0176534)
(9.01818 0 -0.0176899)
(9.03636 0 -0.0177263)
(9.05455 0 -0.0177627)
(9.07273 0 -0.0177992)
(9.09091 0 -0.0178356)
(9.10909 0 -0.017872)
(9.12727 0 -0.0179085)
(9.14545 0 -0.0179449)
(9.16364 0 -0.0179814)
(9.18182 0 -0.0180178)
(9.2 0 -0.0180543)
(9.21818 0 -0.0180908)
(9.23636 0 -0.0181272)
(9.25455 0 -0.0181637)
(9.27273 0 -0.0182001)
(9.29091 0 -0.0182365)
(9.30909 0 -0.0182729)
(9.32727 0 -0.0183093)
(9.34545 0 -0.0183456)
(9.36364 0 -0.0183819)
(9.38182 0 -0.0184183)
(9.4 0 -0.0184546)
(9.41818 0 -0.0184909)
(9.43636 0 -0.0185273)
(9.45455 0 -0.0185636)
(9.47273 0 -0.0185999)
(9.49091 0 -0.0186363)
(9.50909 0 -0.0186726)
(9.52727 0 -0.0187089)
(9.54545 0 -0.0187451)
(9.56364 0 -0.0187813)
(9.58182 0 -0.0188174)
(9.6 0 -0.0188533)
(9.61818 0 -0.018889)
(9.63636 0 -0.0189244)
(9.65455 0 -0.0189592)
(9.67273 0 -0.0189933)
(9.69091 0 -0.0190264)
(9.70909 0 -0.0190579)
(9.72727 0 -0.0190874)
(9.74545 0 -0.0191137)
(9.76364 0 -0.0191419)
(9.78182 0 -0.0191622)
(9.8 0 -0.0193924)
(9.81818 0 -0.0196364)
(9.83636 0 -0.0196727)
(9.85455 0 -0.0197091)
(9.87273 0 -0.0197455)
(9.89091 0 -0.0197818)
(9.90909 0 -0.0198182)
(9.92727 0 -0.0198545)
(9.94545 0 -0.0198909)
(9.96364 0 -0.0199273)
(9.98182 0 -0.0199636)
(10 0 -0.02)
(0 0.02 0)
(0.0181818 0.02 -3.63636e-05)
(0.0363636 0.02 -7.27273e-05)
(0.0545455 0.02 -0.000109091)
(0.0727273 0.02 -0.000145455)
(0.0909091 0.02 -0.000181818)
(0.109091 0.02 -0.000218182)
(0.127273 0.02 -0.000254545)
(0.145455 0.02 -0.000290909)
(0.163636 0.02 -0.000327273)
(0.181818 0.02 -0.000363636)
(0.2 0.02 -0.0004)
(0.218182 0.02 -0.000436364)
(0.236364 0.02 -0.000472727)
(0.254545 0.02 -0.000509091)
(0.272727 0.02 -0.000545455)
(0.290909 0.02 -0.000581818)
(0.309091 0.02 -0.000618182)
(0.327273 0.02 -0.000654545)
(0.345455 0.02 -0.000690909)
(0.363636 0.02 -0.000727273)
(0.381818 0.02 -0.000763636)
(0.4 0.02 -0.0008)
(0.418182 0.02 -0.000836364)
(0.436364 0.02 -0.000872727)
(0.454545 0.02 -0.000909091)
(0.472727 0.02 -0.000945455)
(0.490909 0.02 -0.000981818)
(0.509091 0.02 -0.00101818)
(0.527273 0.02 -0.00105455)
(0.545455 0.02 -0.00109091)
(0.563636 0.02 -0.00112727)
(0.581818 0.02 -0.00116364)
(0.6 0.02 -0.0012)
(0.618182 0.02 -0.00123636)
(0.636364 0.02 -0.00127273)
(0.654545 0.02 -0.00130909)
(0.672727 0.02 -0.00134545)
(0.690909 0.02 -0.00138182)
(0.709091 0.02 -0.00141818)
(0.727273 0.02 -0.00145455)
(0.745455 0.02 -0.00149091)
(0.763636 0.02 -0.00152727)
(0.781818 0.02 -0.00156364)
(0.8 0.02 -0.0016)
(0.818182 0.02 -0.00163636)
(0.836364 0.02 -0.00167273)
(0.854545 0.02 -0.00170909)
(0.872727 0.02 -0.00174545)
(0.890909 0.02 -0.00178182)
(0.909091 0.02 -0.00181818)
(0.927273 0.02 -0.00185455)
(0.945455 0.02 -0.00189091)
(0.963636 0.02 -0.00192727)
(0.981818 0.02 -0.00196364)
(1 0.02 -0.002)
(1.01818 0.02 -0.00203637)
(1.03636 0.02 -0.00207273)
(1.05455 0.02 -0.00210914)
(1.07273 0.02 -0.00214541)
(1.09091 0.02 -0.00218188)
(1.10909 0.02 -0.00221774)
(1.12727 0.02 -0.00225108)
(1.14545 0.02 -0.0022829)
(1.16364 0.02 -0.00231458)
(1.18182 0.02 -0.00234618)
(1.2 0.02 -0.00237787)
(1.21818 0.02 -0.00240965)
(1.23636 0.02 -0.00244155)
(1.25455 0.02 -0.00247356)
(1.27273 0.02 -0.00250566)
(1.29091 0.02 -0.00253785)
(1.30909 0.02 -0.0025701)
(1.32727 0.02 -0.00260241)
(1.34545 0.02 -0.00263476)
(1.36364 0.02 -0.00266717)
(1.38182 0.02 -0.00269963)
(1.4 0.02 -0.00273217)
(1.41818 0.02 -0.00276479)
(1.43636 0.02 -0.00279749)
(1.45455 0.02 -0.00283027)
(1.47273 0.02 -0.00286311)
(1.49091 0.02 -0.00289601)
(1.50909 0.02 -0.00292897)
(1.52727 0.02 -0.00296199)
(1.54545 0.02 -0.00299508)
(1.56364 0.02 -0.00302821)
(1.58182 0.02 -0.0030614)
(1.6 0.02 -0.00309462)
(1.61818 0.02 -0.00312787)
(1.63636 0.02 -0.00316113)
(1.65455 0.02 -0.00319438)
(1.67273 0.02 -0.00322765)
(1.69091 0.02 -0.00326095)
(1.70909 0.02 -0.00329427)
(1.72727 0.02 -0.00332763)
(1.74545 0.02 -0.00336105)
(1.76364 0.02 -0.00339452)
(1.78182 0.02 -0.00342805)
(1.8 0.02 -0.00346159)
(1.81818 0.02 -0.00349514)
(1.83636 0.02 -0.00352867)
(1.85455 0.02 -0.00356219)
(1.87273 0.02 -0.00359568)
(1.89091 0.02 -0.00362915)
(1.90909 0.02 -0.0036626)
(1.92727 0.02 -0.00369602)
(1.94545 0.02 -0.00372943)
(1.96364 0.02 -0.00376282)
(1.98182 0.02 -0.00379618)
(2 0.02 -0.00382953)
(2.01818 0.02 -0.00386286)
(2.03636 0.02 -0.00389617)
(2.05455 0.02 -0.00392947)
(2.07273 0.02 -0.00396274)
(2.09091 0.02 -0.00399598)
(2.10909 0.02 -0.0040292)
(2.12727 0.02 -0.00406242)
(2.14545 0.02 -0.00409565)
(2.16364 0.02 -0.00412887)
(2.18182 0.02 -0.0041621)
(2.2 0.02 -0.00419534)
(2.21818 0.02 -0.00422858)
(2.23636 0.02 -0.00426182)
(2.25455 0.02 -0.00429508)
(2.27273 0.02 -0.00432835)
(2.29091 0.02 -0.00436164)
(2.30909 0.02 -0.00439494)
(2.32727 0.02 -0.00442826)
(2.34545 0.02 -0.0044616)
(2.36364 0.02 -0.00449496)
(2.38182 0.02 -0.00452835)
(2.4 0.02 -0.00456177)
(2.41818 0.02 -0.00459523)
(2.43636 0.02 -0.00462872)
(2.45455 0.02 -0.00466226)
(2.47273 0.02 -0.00469583)
(2.49091 0.02 -0.00472945)
(2.50909 0.02 -0.00476311)
(2.52727 0.02 -0.00479681)
(2.54545 0.02 -0.00483056)
(2.56364 0.02 -0.00486436)
(2.58182 0.02 -0.0048982)
(2.6 0.02 -0.00493209)
(2.61818 0.02 -0.00496602)
(2.63636 0.02 -0.005)
(2.65455 0.02 -0.00503402)
(2.67273 0.02 -0.00506808)
(2.69091 0.02 -0.00510218)
(2.70909 0.02 -0.00513631)
(2.72727 0.02 -0.00517049)
(2.74545 0.02 -0.0052047)
(2.76364 0.02 -0.00523895)
(2.78182 0.02 -0.00527323)
(2.8 0.02 -0.00530755)
(2.81818 0.02 -0.0053419)
(2.83636 0.02 -0.00537629)
(2.85455 0.02 -0.0054107)
(2.87273 0.02 -0.00544515)
(2.89091 0.02 -0.00547963)
(2.90909 0.02 -0.00551413)
(2.92727 0.02 -0.00554866)
(2.94545 0.02 -0.00558322)
(2.96364 0.02 -0.00561781)
(2.98182 0.02 -0.00565243)
(3 0.02 -0.00568708)
(3.01818 0.02 -0.00572175)
(3.03636 0.02 -0.00575646)
(3.05455 0.02 -0.0057912)
(3.07273 0.02 -0.00582597)
(3.09091 0.02 -0.00586077)
(3.10909 0.02 -0.0058956)
(3.12727 0.02 -0.00593046)
(3.14545 0.02 -0.00596535)
(3.16364 0.02 -0.00600027)
(3.18182 0.02 -0.00603523)
(3.2 0.02 -0.00607022)
(3.21818 0.02 -0.00610524)
(3.23636 0.02 -0.0061403)
(3.25455 0.02 -0.00617539)
(3.27273 0.02 -0.00621052)
(3.29091 0.02 -0.00624568)
(3.30909 0.02 -0.00628089)
(3.32727 0.02 -0.00631613)
(3.34545 0.02 -0.00635142)
(3.36364 0.02 -0.00638674)
(3.38182 0.02 -0.0064221)
(3.4 0.02 -0.0064575)
(3.41818 0.02 -0.00649294)
(3.43636 0.02 -0.00652843)
(3.45455 0.02 -0.00656395)
(3.47273 0.02 -0.00659952)
(3.49091 0.02 -0.00663512)
(3.50909 0.02 -0.00667077)
(3.52727 0.02 -0.00670646)
(3.54545 0.02 -0.0067422)
(3.56364 0.02 -0.00677797)
(3.58182 0.02 -0.00681378)
(3.6 0.02 -0.00684963)
(3.61818 0.02 -0.00688552)
(3.63636 0.02 -0.00692144)
(3.65455 0.02 -0.00695739)
(3.67273 0.02 -0.00699338)
(3.69091 0.02 -0.0070294)
(3.70909 0.02 -0.00706545)
(3.72727 0.02 -0.00710152)
(3.74545 0.02 -0.00713762)
(3.76364 0.02 -0.00717375)
(3.78182 0.02 -0.00720991)
(3.8 0.02 -0.00724609)
(3.81818 0.02 -0.0072823)
(3.83636 0.02 -0.00731853)
(3.85455 0.02 -0.00735479)
(3.87273 0.02 -0.00739108)
(3.89091 0.02 -0.00742738)
(3.90909 0.02 -0.00746372)
(3.92727 0.02 -0.00750007)
(3.94545 0.02 -0.00753645)
(3.96364 0.02 -0.00757285)
(3.98182 0.02 -0.00760928)
(4 0.02 -0.00764575)
(4.01818 0.02 -0.00768224)
(4.03636 0.02 -0.00771877)
(4.05455 0.02 -0.00775532)
(4.07273 0.02 -0.00779189)
(4.09091 0.02 -0.00782847)
(4.10909 0.02 -0.00786506)
(4.12727 0.02 -0.00790168)
(4.14545 0.02 -0.00793831)
(4.16364 0.02 -0.00797497)
(4.18182 0.02 -0.00801164)
(4.2 0.02 -0.00804833)
(4.21818 0.02 -0.00808504)
(4.23636 0.02 -0.00812177)
(4.25455 0.02 -0.00815851)
(4.27273 0.02 -0.00819527)
(4.29091 0.02 -0.00823205)
(4.30909 0.02 -0.00826884)
(4.32727 0.02 -0.00830565)
(4.34545 0.02 -0.00834247)
(4.36364 0.02 -0.00837931)
(4.38182 0.02 -0.00841617)
(4.4 0.02 -0.00845303)
(4.41818 0.02 -0.00848991)
(4.43636 0.02 -0.0085268)
(4.45455 0.02 -0.00856369)
(4.47273 0.02 -0.00860059)
(4.49091 0.02 -0.00863749)
(4.50909 0.02 -0.00867439)
(4.52727 0.02 -0.00871129)
(4.54545 0.02 -0.00874818)
(4.56364 0.02 -0.00878506)
(4.58182 0.02 -0.00882193)
(4.6 0.02 -0.00885878)
(4.61818 0.02 -0.00889562)
(4.63636 0.02 -0.00893243)
(4.65455 0.02 -0.00896921)
(4.67273 0.02 -0.00900597)
(4.69091 0.02 -0.00904271)
(4.70909 0.02 -0.00907942)
(4.72727 0.02 -0.00911611)
(4.74545 0.02 -0.00915275)
(4.76364 0.02 -0.00918934)
(4.78182 0.02 -0.00922589)
(4.8 0.02 -0.00926241)
(4.81818 0.02 -0.00929892)
(4.83636 0.02 -0.00933541)
(4.85455 0.02 -0.0093719)
(4.87273 0.02 -0.00940837)
(4.89091 0.02 -0.00944483)
(4.90909 0.02 -0.00948127)
(4.92727 0.02 -0.00951769)
(4.94545 0.02 -0.0095541)
(4.96364 0.02 -0.00959048)
(4.98182 0.02 -0.00962684)
(5 0.02 -0.00966318)
(5.01818 0.02 -0.00969951)
(5.03636 0.02 -0.00973581)
(5.05455 0.02 -0.0097721)
(5.07273 0.02 -0.00980837)
(5.09091 0.02 -0.00984463)
(5.10909 0.02 -0.00988087)
(5.12727 0.02 -0.0099171)
(5.14545 0.02 -0.00995332)
(5.16364 0.02 -0.00998953)
(5.18182 0.02 -0.0100257)
(5.2 0.02 -0.0100619)
(5.21818 0.02 -0.0100981)
(5.23636 0.02 -0.0101343)
(5.25455 0.02 -0.0101705)
(5.27273 0.02 -0.0102067)
(5.29091 0.02 -0.0102428)
(5.30909 0.02 -0.010279)
(5.32727 0.02 -0.0103152)
(5.34545 0.02 -0.0103513)
(5.36364 0.02 -0.0103875)
(5.38182 0.02 -0.0104237)
(5.4 0.02 -0.0104599)
(5.41818 0.02 -0.0104961)
(5.43636 0.02 -0.0105322)
(5.45455 0.02 -0.0105684)
(5.47273 0.02 -0.0106046)
(5.49091 0.02 -0.0106408)
(5.50909 0.02 -0.010677)
(5.52727 0.02 -0.0107132)
(5.54545 0.02 -0.0107494)
(5.56364 0.02 -0.0107856)
(5.58182 0.02 -0.0108217)
(5.6 0.02 -0.0108579)
(5.61818 0.02 -0.0108941)
(5.63636 0.02 -0.0109303)
(5.65455 0.02 -0.0109665)
(5.67273 0.02 -0.0110027)
(5.69091 0.02 -0.0110389)
(5.70909 0.02 -0.0110752)
(5.72727 0.02 -0.0111114)
(5.74545 0.02 -0.0111476)
(5.76364 0.02 -0.0111839)
(5.78182 0.02 -0.0112202)
(5.8 0.02 -0.0112564)
(5.81818 0.02 -0.0112927)
(5.83636 0.02 -0.011329)
(5.85455 0.02 -0.0113654)
(5.87273 0.02 -0.0114017)
(5.89091 0.02 -0.011438)
(5.90909 0.02 -0.0114743)
(5.92727 0.02 -0.0115107)
(5.94545 0.02 -0.011547)
(5.96364 0.02 -0.0115834)
(5.98182 0.02 -0.0116198)
(6 0.02 -0.0116562)
(6.01818 0.02 -0.0116926)
(6.03636 0.02 -0.011729)
(6.05455 0.02 -0.0117654)
(6.07273 0.02 -0.0118019)
(6.09091 0.02 -0.0118384)
(6.10909 0.02 -0.0118748)
(6.12727 0.02 -0.0119114)
(6.14545 0.02 -0.0119479)
(6.16364 0.02 -0.0119844)
(6.18182 0.02 -0.012021)
(6.2 0.02 -0.0120575)
(6.21818 0.02 -0.0120941)
(6.23636 0.02 -0.0121307)
(6.25455 0.02 -0.0121672)
(6.27273 0.02 -0.0122038)
(6.29091 0.02 -0.0122403)
(6.30909 0.02 -0.0122769)
(6.32727 0.02 -0.0123134)
(6.34545 0.02 -0.01235)
(6.36364 0.02 -0.0123865)
(6.38182 0.02 -0.012423)
(6.4 0.02 -0.0124594)
(6.41818 0.02 -0.0124958)
(6.43636 0.02 -0.0125323)
(6.45455 0.02 -0.0125687)
(6.47273 0.02 -0.0126052)
(6.49091 0.02 -0.0126416)
(6.50909 0.02 -0.0126781)
(6.52727 0.02 -0.0127146)
(6.54545 0.02 -0.0127511)
(6.56364 0.02 -0.0127876)
(6.58182 0.02 -0.0128241)
(6.6 0.02 -0.0128606)
(6.61818 0.02 -0.0128971)
(6.63636 0.02 -0.0129336)
(6.65455 0.02 -0.0129702)
(6.67273 0.02 -0.0130067)
(6.69091 0.02 -0.0130433)
(6.70909 0.02 -0.0130798)
(6.72727 0.02 -0.0131164)
(6.74545 0.02 -0.013153)
(6.76364 0.02 -0.0131896)
(6.78182 0.02 -0.0132262)
(6.8 0.02 -0.0132628)
(6.81818 0.02 -0.0132994)
(6.83636 0.02 -0.013336)
(6.85455 0.02 -0.0133726)
(6.87273 0.02 -0.0134092)
(6.89091 0.02 -0.0134458)
(6.90909 0.02 -0.0134823)
(6.92727 0.02 -0.0135189)
(6.94545 0.02 -0.0135555)
(6.96364 0.02 -0.013592)
(6.98182 0.02 -0.0136284)
(7 0.02 -0.0136649)
(7.01818 0.02 -0.0137013)
(7.03636 0.02 -0.0137376)
(7.05455 0.02 -0.013774)
(7.07273 0.02 -0.0138103)
(7.09091 0.02 -0.0138466)
(7.10909 0.02 -0.0138828)
(7.12727 0.02 -0.0139191)
(7.14545 0.02 -0.0139553)
(7.16364 0.02 -0.0139915)
(7.18182 0.02 -0.0140277)
(7.2 0.02 -0.014064)
(7.21818 0.02 -0.0141002)
(7.23636 0.02 -0.0141364)
(7.25455 0.02 -0.0141727)
(7.27273 0.02 -0.0142089)
(7.29091 0.02 -0.0142451)
(7.30909 0.02 -0.0142814)
(7.32727 0.02 -0.0143176)
(7.34545 0.02 -0.0143538)
(7.36364 0.02 -0.01439)
(7.38182 0.02 -0.0144262)
(7.4 0.02 -0.0144625)
(7.41818 0.02 -0.0144987)
(7.43636 0.02 -0.0145349)
(7.45455 0.02 -0.0145711)
(7.47273 0.02 -0.0146072)
(7.49091 0.02 -0.0146434)
(7.50909 0.02 -0.0146795)
(7.52727 0.02 -0.0147157)
(7.54545 0.02 -0.0147518)
(7.56364 0.02 -0.0147879)
(7.58182 0.02 -0.014824)
(7.6 0.02 -0.0148601)
(7.61818 0.02 -0.0148962)
(7.63636 0.02 -0.0149323)
(7.65455 0.02 -0.0149684)
(7.67273 0.02 -0.0150045)
(7.69091 0.02 -0.0150406)
(7.70909 0.02 -0.0150766)
(7.72727 0.02 -0.0151127)
(7.74545 0.02 -0.0151487)
(7.76364 0.02 -0.0151848)
(7.78182 0.02 -0.0152209)
(7.8 0.02 -0.0152569)
(7.81818 0.02 -0.015293)
(7.83636 0.02 -0.0153291)
(7.85455 0.02 -0.0153651)
(7.87273 0.02 -0.0154012)
(7.89091 0.02 -0.0154373)
(7.90909 0.02 -0.0154734)
(7.92727 0.02 -0.0155095)
(7.94545 0.02 -0.0155456)
(7.96364 0.02 -0.0155817)
(7.98182 0.02 -0.0156178)
(8 0.02 -0.0156538)
(8.01818 0.02 -0.01569)
(8.03636 0.02 -0.0157261)
(8.05455 0.02 -0.0157622)
(8.07273 0.02 -0.0157983)
(8.09091 0.02 -0.0158344)
(8.10909 0.02 -0.0158705)
(8.12727 0.02 -0.0159067)
(8.14545 0.02 -0.0159429)
(8.16364 0.02 -0.015979)
(8.18182 0.02 -0.0160152)
(8.2 0.02 -0.0160515)
(8.21818 0.02 -0.0160877)
(8.23636 0.02 -0.016124)
(8.25455 0.02 -0.0161603)
(8.27273 0.02 -0.0161966)
(8.29091 0.02 -0.0162329)
(8.30909 0.02 -0.0162692)
(8.32727 0.02 -0.0163056)
(8.34545 0.02 -0.0163419)
(8.36364 0.02 -0.0163783)
(8.38182 0.02 -0.0164147)
(8.4 0.02 -0.016451)
(8.41818 0.02 -0.0164874)
(8.43636 0.02 -0.0165238)
(8.45455 0.02 -0.0165602)
(8.47273 0.02 -0.0165966)
(8.49091 0.02 -0.0166329)
(8.50909 0.02 -0.0166693)
(8.52727 0.02 -0.0167057)
(8.54545 0.02 -0.0167421)
(8.56364 0.02 -0.0167786)
(8.58182 0.02 -0.016815)
(8.6 0.02 -0.0168514)
(8.61818 0.02 -0.0168879)
(8.63636 0.02 -0.0169243)
(8.65455 0.02 -0.0169608)
(8.67273 0.02 -0.0169972)
(8.69091 0.02 -0.0170337)
(8.70909 0.02 -0.0170702)
(8.72727 0.02 -0.0171066)
(8.74545 0.02 -0.0171431)
(8.76364 0.02 -0.0171795)
(8.78182 0.02 -0.017216)
(8.8 0.02 -0.0172524)
(8.81818 0.02 -0.0172889)
(8.83636 0.02 -0.0173253)
(8.85455 0.02 -0.0173618)
(8.87273 0.02 -0.0173982)
(8.89091 0.02 -0.0174347)
(8.90909 0.02 -0.0174711)
(8.92727 0.02 -0.0175076)
(8.94545 0.02 -0.017544)
(8.96364 0.02 -0.0175805)
(8.98182 0.02 -0.017617)
(9 0.02 -0.0176534)
(9.01818 0.02 -0.0176899)
(9.03636 0.02 -0.0177263)
(9.05455 0.02 -0.0177627)
(9.07273 0.02 -0.0177992)
(9.09091 0.02 -0.0178356)
(9.10909 0.02 -0.017872)
(9.12727 0.02 -0.0179085)
(9.14545 0.02 -0.0179449)
(9.16364 0.02 -0.0179814)
(9.18182 0.02 -0.0180178)
(9.2 0.02 -0.0180543)
(9.21818 0.02 -0.0180908)
(9.23636 0.02 -0.0181272)
(9.25455 0.02 -0.0181637)
(9.27273 0.02 -0.0182001)
(9.29091 0.02 -0.0182365)
(9.30909 0.02 -0.0182729)
(9.32727 0.02 -0.0183093)
(9.34545 0.02 -0.0183456)
(9.36364 0.02 -0.0183819)
(9.38182 0.02 -0.0184183)
(9.4 0.02 -0.0184546)
(9.41818 0.02 -0.0184909)
(9.43636 0.02 -0.0185273)
(9.45455 0.02 -0.0185636)
(9.47273 0.02 -0.0185999)
(9.49091 0.02 -0.0186363)
(9.50909 0.02 -0.0186726)
(9.52727 0.02 -0.0187089)
(9.54545 0.02 -0.0187451)
(9.56364 0.02 -0.0187813)
(9.58182 0.02 -0.0188174)
(9.6 0.02 -0.0188533)
(9.61818 0.02 -0.018889)
(9.63636 0.02 -0.0189244)
(9.65455 0.02 -0.0189592)
(9.67273 0.02 -0.0189933)
(9.69091 0.02 -0.0190264)
(9.70909 0.02 -0.0190579)
(9.72727 0.02 -0.0190874)
(9.74545 0.02 -0.0191137)
(9.76364 0.02 -0.0191419)
(9.78182 0.02 -0.0191622)
(9.8 0.02 -0.0193924)
(9.81818 0.02 -0.0196364)
(9.83636 0.02 -0.0196727)
(9.85455 0.02 -0.0197091)
(9.87273 0.02 -0.0197455)
(9.89091 0.02 -0.0197818)
(9.90909 0.02 -0.0198182)
(9.92727 0.02 -0.0198545)
(9.94545 0.02 -0.0198909)
(9.96364 0.02 -0.0199273)
(9.98182 0.02 -0.0199636)
(10 0.02 -0.02)
(0 0 0.005)
(0.0181818 0 0.00496364)
(0.0363636 0 0.00492727)
(0.0545455 0 0.00489091)
(0.0727273 0 0.00485455)
(0.0909091 0 0.00481818)
(0.109091 0 0.00478182)
(0.127273 0 0.00474545)
(0.145455 0 0.00470909)
(0.163636 0 0.00467273)
(0.181818 0 0.00463636)
(0.2 0 0.0046)
(0.218182 0 0.00456364)
(0.236364 0 0.00452727)
(0.254545 0 0.00449091)
(0.272727 0 0.00445455)
(0.290909 0 0.00441818)
(0.309091 0 0.00438182)
(0.327273 0 0.00434545)
(0.345455 0 0.00430909)
(0.363636 0 0.00427273)
(0.381818 0 0.00423636)
(0.4 0 0.0042)
(0.418182 0 0.00416364)
(0.436364 0 0.00412727)
(0.454545 0 0.00409091)
(0.472727 0 0.00405455)
(0.490909 0 0.00401818)
(0.509091 0 0.00398182)
(0.527273 0 0.00394545)
(0.545455 0 0.00390909)
(0.563636 0 0.00387273)
(0.581818 0 0.00383636)
(0.6 0 0.0038)
(0.618182 0 0.00376364)
(0.636364 0 0.00372727)
(0.654545 0 0.00369091)
(0.672727 0 0.00365455)
(0.690909 0 0.00361818)
(0.709091 0 0.00358182)
(0.727273 0 0.00354545)
(0.745455 0 0.00350909)
(0.763636 0 0.00347273)
(0.781818 0 0.00343636)
(0.8 0 0.0034)
(0.818182 0 0.00336364)
(0.836364 0 0.00332727)
(0.854545 0 0.00329091)
(0.872727 0 0.00325455)
(0.890909 0 0.00321818)
(0.909091 0 0.00318182)
(0.927273 0 0.00314545)
(0.945455 0 0.00310909)
(0.963636 0 0.00307273)
(0.981818 0 0.00303636)
(1 0 0.003)
(1.01818 0 0.00296363)
(1.03636 0 0.00292727)
(1.05455 0 0.00289087)
(1.07273 0 0.00285458)
(1.09091 0 0.00281816)
(1.10909 0 0.00278243)
(1.12727 0 0.00274902)
(1.14545 0 0.00271711)
(1.16364 0 0.00268542)
(1.18182 0 0.00265381)
(1.2 0 0.00262213)
(1.21818 0 0.00259034)
(1.23636 0 0.00255844)
(1.25455 0 0.00252643)
(1.27273 0 0.00249433)
(1.29091 0 0.00246215)
(1.30909 0 0.00242989)
(1.32727 0 0.00239759)
(1.34545 0 0.00236523)
(1.36364 0 0.00233283)
(1.38182 0 0.00230036)
(1.4 0 0.00226783)
(1.41818 0 0.0022352)
(1.43636 0 0.0022025)
(1.45455 0 0.00216972)
(1.47273 0 0.00213689)
(1.49091 0 0.00210398)
(1.50909 0 0.00207102)
(1.52727 0 0.002038)
(1.54545 0 0.00200492)
(1.56364 0 0.00197178)
(1.58182 0 0.0019386)
(1.6 0 0.00190537)