/*--------------------------------*- C++ -*----------------------------------*\
| =========                 |                                                 |
| \\      /  F ield         | foam-extend: Open Source CFD                    |
|  \\    /   O peration     | Version:     3.2                                |
|   \\  /    A nd           | Web:         http://www.foam-extend.org         |
|    \\/     M anipulation  | For copyright notice see file Copyright         |
\*---------------------------------------------------------------------------*/
FoamFile
{
    version     2.0;
    format      ascii;
    class       volScalarField;
    location    "120";
    object      nut;
}
// * * * * * * * * * * * * * * * * * * * * * * * * * * * * * * * * * * * * * //

dimensions      [0 2 -1 0 0 0 0];

internalField   nonuniform List<scalar> 
33000
(
6.23128e-06
7.53757e-06
8.87657e-06
1.02169e-05
1.15266e-05
1.27732e-05
1.39312e-05
1.49782e-05
1.59019e-05
1.66939e-05
1.73551e-05
1.78889e-05
1.83053e-05
1.86142e-05
1.88282e-05
1.89592e-05
1.90202e-05
1.90227e-05
1.88775e-05
1.8165e-05
1.74781e-05
1.68388e-05
1.62382e-05
1.56865e-05
1.51786e-05
1.4719e-05
1.4305e-05
1.39356e-05
1.3599e-05
1.32923e-05
1.30127e-05
1.2759e-05
1.25286e-05
1.232e-05
1.2132e-05
1.19632e-05
1.18125e-05
1.16781e-05
1.15592e-05
1.14542e-05
1.13633e-05
1.1283e-05
1.1214e-05
1.11543e-05
1.11042e-05
1.10615e-05
1.10274e-05
1.10013e-05
1.09826e-05
1.09708e-05
1.09652e-05
1.09652e-05
1.09702e-05
1.09796e-05
1.09927e-05
1.10093e-05
1.10288e-05
1.10509e-05
1.10754e-05
1.11004e-05
1.11284e-05
1.11609e-05
1.11942e-05
1.12284e-05
1.12636e-05
1.12993e-05
1.13357e-05
1.13725e-05
1.14095e-05
1.14466e-05
1.14837e-05
1.15207e-05
1.15574e-05
1.15939e-05
1.163e-05
1.16657e-05
1.1701e-05
1.17357e-05
1.17701e-05
1.18037e-05
1.18367e-05
1.18689e-05
1.19003e-05
1.19308e-05
1.19603e-05
1.19887e-05
1.20159e-05
1.20419e-05
1.20667e-05
1.209e-05
1.21121e-05
1.2133e-05
1.21529e-05
1.21716e-05
1.21894e-05
1.22065e-05
1.22234e-05
1.22411e-05
1.22588e-05
1.22765e-05
1.22945e-05
1.23125e-05
1.23306e-05
1.23484e-05
1.23661e-05
1.23836e-05
1.24007e-05
1.24175e-05
1.24339e-05
1.24499e-05
1.24655e-05
1.24807e-05
1.24954e-05
1.25097e-05
1.25232e-05
1.2536e-05
1.25487e-05
1.25607e-05
1.2572e-05
1.25829e-05
1.2593e-05
1.26025e-05
1.26113e-05
1.26195e-05
1.2627e-05
1.26339e-05
1.26401e-05
1.26459e-05
1.2651e-05
1.26556e-05
1.26597e-05
1.26632e-05
1.26663e-05
1.26689e-05
1.26711e-05
1.26728e-05
1.26741e-05
1.2675e-05
1.26755e-05
1.26757e-05
1.26756e-05
1.26752e-05
1.26746e-05
1.26736e-05
1.26725e-05
1.26711e-05
1.26695e-05
1.26677e-05
1.26658e-05
1.26638e-05
1.26617e-05
1.26595e-05
1.26573e-05
1.2655e-05
1.26527e-05
1.26503e-05
1.26479e-05
1.26456e-05
1.26432e-05
1.26409e-05
1.26386e-05
1.26364e-05
1.26342e-05
1.26322e-05
1.26303e-05
1.26285e-05
1.26268e-05
1.26253e-05
1.2624e-05
1.26228e-05
1.26217e-05
1.26208e-05
1.26201e-05
1.26196e-05
1.26192e-05
1.26189e-05
1.26187e-05
1.26186e-05
1.26186e-05
1.26187e-05
1.26189e-05
1.26191e-05
1.26195e-05
1.26199e-05
1.26205e-05
1.26211e-05
1.26217e-05
1.26224e-05
1.26231e-05
1.26238e-05
1.26245e-05
1.26251e-05
1.26257e-05
1.26263e-05
1.26269e-05
1.26275e-05
1.26282e-05
1.2629e-05
1.26298e-05
1.26307e-05
1.26316e-05
1.26326e-05
1.26336e-05
1.26347e-05
1.26358e-05
1.26371e-05
1.26384e-05
1.26399e-05
1.26416e-05
1.26433e-05
1.26451e-05
1.26467e-05
1.26481e-05
1.26493e-05
1.26502e-05
1.26509e-05
1.26515e-05
1.2652e-05
1.26524e-05
1.26528e-05
1.26532e-05
1.26535e-05
1.26539e-05
1.26543e-05
1.26548e-05
1.26553e-05
1.26559e-05
1.26566e-05
1.26574e-05
1.26582e-05
1.26591e-05
1.26602e-05
1.26613e-05
1.26625e-05
1.26639e-05
1.26653e-05
1.26669e-05
1.26686e-05
1.26704e-05
1.26723e-05
1.26744e-05
1.26767e-05
1.26791e-05
1.26818e-05
1.26846e-05
1.26876e-05
1.26908e-05
1.26943e-05
1.26979e-05
1.27017e-05
1.27058e-05
1.27102e-05
1.27147e-05
1.27195e-05
1.27245e-05
1.27297e-05
1.27351e-05
1.27407e-05
1.27464e-05
1.27523e-05
1.27583e-05
1.27644e-05
1.27706e-05
1.27768e-05
1.27831e-05
1.27894e-05
1.27957e-05
1.2802e-05
1.28082e-05
1.28143e-05
1.28203e-05
1.28262e-05
1.2832e-05
1.28376e-05
1.2843e-05
1.28483e-05
1.28534e-05
1.28582e-05
1.28629e-05
1.28672e-05
1.28713e-05
1.28751e-05
1.28786e-05
1.28819e-05
1.28849e-05
1.28875e-05
1.28899e-05
1.28921e-05
1.28939e-05
1.28954e-05
1.28967e-05
1.28976e-05
1.28983e-05
1.28988e-05
1.28989e-05
1.28989e-05
1.28986e-05
1.28981e-05
1.28973e-05
1.28964e-05
1.28952e-05
1.28937e-05
1.28921e-05
1.28902e-05
1.28882e-05
1.28859e-05
1.28835e-05
1.28809e-05
1.28781e-05
1.28752e-05
1.28721e-05
1.28689e-05
1.28655e-05
1.28619e-05
1.28582e-05
1.28543e-05
1.28503e-05
1.28462e-05
1.28418e-05
1.28374e-05
1.28328e-05
1.28281e-05
1.28233e-05
1.28183e-05
1.28133e-05
1.28081e-05
1.28029e-05
1.27975e-05
1.27921e-05
1.27866e-05
1.2781e-05
1.27754e-05
1.27697e-05
1.27639e-05
1.27581e-05
1.27522e-05
1.27464e-05
1.27405e-05
1.27346e-05
1.27287e-05
1.27228e-05
1.2717e-05
1.27111e-05
1.27052e-05
1.26993e-05
1.26934e-05
1.26876e-05
1.26817e-05
1.26759e-05
1.26701e-05
1.26644e-05
1.26588e-05
1.26533e-05
1.26478e-05
1.26424e-05
1.2637e-05
1.26317e-05
1.26265e-05
1.26214e-05
1.26164e-05
1.26114e-05
1.26066e-05
1.26018e-05
1.25971e-05
1.25925e-05
1.2588e-05
1.25837e-05
1.25794e-05
1.25753e-05
1.25714e-05
1.25676e-05
1.25639e-05
1.25603e-05
1.25569e-05
1.25536e-05
1.25504e-05
1.25474e-05
1.25444e-05
1.25416e-05
1.25389e-05
1.25363e-05
1.25338e-05
1.25315e-05
1.25292e-05
1.25271e-05
1.2525e-05
1.25231e-05
1.25213e-05
1.25196e-05
1.2518e-05
1.25164e-05
1.2515e-05
1.25136e-05
1.25123e-05
1.25111e-05
1.25098e-05
1.25086e-05
1.25073e-05
1.25061e-05
1.25049e-05
1.25036e-05
1.25023e-05
1.25009e-05
1.24995e-05
1.24979e-05
1.24962e-05
1.24944e-05
1.24926e-05
1.24906e-05
1.24887e-05
1.24867e-05
1.24847e-05
1.24827e-05
1.24806e-05
1.24783e-05
1.2476e-05
1.24736e-05
1.24711e-05
1.24685e-05
1.24658e-05
1.24631e-05
1.24603e-05
1.24574e-05
1.24544e-05
1.24512e-05
1.24477e-05
1.24441e-05
1.24402e-05
1.24361e-05
1.24317e-05
1.24271e-05
1.24222e-05
1.24171e-05
1.24117e-05
1.24061e-05
1.24001e-05
1.23939e-05
1.23872e-05
1.23803e-05
1.2373e-05
1.23655e-05
1.23577e-05
1.23498e-05
1.23417e-05
1.23335e-05
1.23252e-05
1.23168e-05
1.23082e-05
1.22995e-05
1.22907e-05
1.22818e-05
1.22727e-05
1.22635e-05
1.22541e-05
1.22446e-05
1.2235e-05
1.22255e-05
1.22158e-05
1.22061e-05
1.21963e-05
1.21866e-05
1.21767e-05
1.2167e-05
1.2157e-05
1.21472e-05
1.21371e-05
1.2127e-05
1.21167e-05
1.21066e-05
1.20963e-05
1.20863e-05
1.20761e-05
1.20662e-05
1.20562e-05
1.20466e-05
1.20368e-05
1.20275e-05
1.20179e-05
1.20089e-05
1.19995e-05
1.19907e-05
1.19816e-05
1.19731e-05
1.19642e-05
1.19561e-05
1.19475e-05
1.194e-05
1.19318e-05
1.19248e-05
1.19168e-05
1.19102e-05
1.19024e-05
1.18962e-05
1.18885e-05
1.18828e-05
1.18752e-05
1.18699e-05
1.18623e-05
1.18575e-05
1.18499e-05
1.18456e-05
1.18379e-05
1.18341e-05
1.18263e-05
1.1823e-05
1.18149e-05
1.18121e-05
1.18037e-05
1.18015e-05
1.17926e-05
1.1791e-05
1.17815e-05
1.17805e-05
1.17704e-05
1.177e-05
1.17591e-05
1.1759e-05
1.17476e-05
1.17479e-05
1.17364e-05
1.17372e-05
1.17253e-05
1.17265e-05
1.17137e-05
1.17146e-05
1.17006e-05
1.17007e-05
1.1685e-05
1.16823e-05
1.16627e-05
1.16549e-05
1.1625e-05
1.16063e-05
1.1554e-05
1.15183e-05
1.14261e-05
1.13893e-05
1.129e-05
1.06148e-05
9.91637e-06
9.66306e-06
8.7911e-06
8.04887e-06
6.73267e-06
6.27074e-06
4.748e-06
6.17991e-06
3.79157e-06
4.57408e-06
2.48305e-05
5.09538e-05
3.07961e-05
2.21928e-05
1.76925e-05
1.50356e-05
1.3411e-05
1.23724e-05
1.17026e-05
1.12904e-05
1.10494e-05
1.09431e-05
1.09236e-05
1.09699e-05
1.10635e-05
1.12002e-05
1.13753e-05
1.15896e-05
1.18529e-05
1.21702e-05
1.25424e-05
1.2981e-05
1.34933e-05
1.40435e-05
1.46446e-05
1.53088e-05
1.60455e-05
1.68563e-05
1.75277e-05
1.7943e-05
1.83603e-05
1.87749e-05
1.91851e-05
1.95895e-05
1.99874e-05
2.0378e-05
2.07611e-05
2.11357e-05
2.15018e-05
2.18592e-05
2.22084e-05
2.25494e-05
2.28823e-05
2.32073e-05
2.35251e-05
2.38356e-05
2.414e-05
2.44395e-05
2.47345e-05
2.50246e-05
2.531e-05
2.559e-05
2.58644e-05
2.61328e-05
2.63948e-05
2.66497e-05
2.6898e-05
2.71393e-05
2.73733e-05
2.76012e-05
2.78208e-05
2.80339e-05
2.8249e-05
2.84607e-05
2.86647e-05
2.88623e-05
2.90538e-05
2.92403e-05
2.94211e-05
2.95968e-05
2.97668e-05
2.99314e-05
3.00906e-05
3.02443e-05
3.03926e-05
3.05358e-05
3.06735e-05
3.08063e-05
3.09339e-05
3.1057e-05
3.11748e-05
3.12881e-05
3.13968e-05
3.15013e-05
3.16013e-05
3.16975e-05
3.17894e-05
3.18777e-05
3.19619e-05
3.20428e-05
3.21195e-05
3.2193e-05
3.22629e-05
3.23302e-05
3.2394e-05
3.24557e-05
3.25165e-05
3.2576e-05
3.26346e-05
3.26911e-05
3.27452e-05
3.27974e-05
3.28471e-05
3.28945e-05
3.29394e-05
3.29818e-05
3.30218e-05
3.30591e-05
3.30941e-05
3.31266e-05
3.31569e-05
3.31849e-05
3.32108e-05
3.32347e-05
3.32564e-05
3.32755e-05
3.32931e-05
3.33097e-05
3.33241e-05
3.33366e-05
3.33478e-05
3.33575e-05
3.33658e-05
3.33727e-05
3.33785e-05
3.33831e-05
3.33867e-05
3.33895e-05
3.33914e-05
3.33927e-05
3.33933e-05
3.33935e-05
3.33932e-05
3.33926e-05
3.33918e-05
3.33907e-05
3.33895e-05
3.33883e-05
3.33871e-05
3.3386e-05
3.3385e-05
3.33842e-05
3.33836e-05
3.33834e-05
3.33834e-05
3.33838e-05
3.33844e-05
3.33854e-05
3.33867e-05
3.33884e-05
3.33904e-05
3.33928e-05
3.33956e-05
3.33987e-05
3.34023e-05
3.34063e-05
3.34108e-05
3.34156e-05
3.34209e-05
3.34266e-05
3.34328e-05
3.34395e-05
3.34466e-05
3.34542e-05
3.34624e-05
3.34711e-05
3.34803e-05
3.34901e-05
3.35005e-05
3.35115e-05
3.35229e-05
3.3535e-05
3.35476e-05
3.35608e-05
3.35746e-05
3.35888e-05
3.36036e-05
3.36187e-05
3.36342e-05
3.365e-05
3.3666e-05
3.36822e-05
3.36986e-05
3.37152e-05
3.37321e-05
3.37491e-05
3.37662e-05
3.37835e-05
3.38008e-05
3.38181e-05
3.38354e-05
3.38526e-05
3.38697e-05
3.38867e-05
3.39035e-05
3.39201e-05
3.39367e-05
3.39533e-05
3.39698e-05
3.39864e-05
3.40031e-05
3.40198e-05
3.40367e-05
3.40537e-05
3.40708e-05
3.40881e-05
3.41055e-05
3.41232e-05
3.41412e-05
3.41596e-05
3.41782e-05
3.41951e-05
3.42042e-05
3.42131e-05
3.4222e-05
3.42311e-05
3.42405e-05
3.42503e-05
3.42606e-05
3.42715e-05
3.42829e-05
3.4295e-05
3.43076e-05
3.4321e-05
3.4335e-05
3.43496e-05
3.43649e-05
3.43808e-05
3.43973e-05
3.44143e-05
3.44318e-05
3.44498e-05
3.44684e-05
3.44874e-05
3.45069e-05
3.45268e-05
3.45472e-05
3.45681e-05
3.45893e-05
3.46109e-05
3.46329e-05
3.46553e-05
3.46782e-05
3.47014e-05
3.47249e-05
3.47489e-05
3.47731e-05
3.47977e-05
3.48225e-05
3.48474e-05
3.48725e-05
3.48977e-05
3.4923e-05
3.49483e-05
3.49736e-05
3.49988e-05
3.5024e-05
3.50489e-05
3.50736e-05
3.50979e-05
3.51219e-05
3.51454e-05
3.51684e-05
3.51908e-05
3.52125e-05
3.52336e-05
3.52539e-05
3.52734e-05
3.52921e-05
3.53099e-05
3.53268e-05
3.53427e-05
3.53575e-05
3.53713e-05
3.5384e-05
3.53955e-05
3.54059e-05
3.54152e-05
3.54233e-05
3.54303e-05
3.54362e-05
3.5441e-05
3.54446e-05
3.54472e-05
3.54486e-05
3.5449e-05
3.54484e-05
3.54467e-05
3.54441e-05
3.54405e-05
3.54361e-05
3.54308e-05
3.54246e-05
3.54176e-05
3.54099e-05
3.54014e-05
3.53922e-05
3.53824e-05
3.53719e-05
3.53608e-05
3.53492e-05
3.5337e-05
3.53243e-05
3.53111e-05
3.52975e-05
3.52835e-05
3.5269e-05
3.52541e-05
3.5239e-05
3.52235e-05
3.52078e-05
3.51918e-05
3.51756e-05
3.51592e-05
3.51426e-05
3.51258e-05
3.51089e-05
3.50917e-05
3.50744e-05
3.5057e-05
3.50395e-05
3.5022e-05
3.50044e-05
3.49869e-05
3.49693e-05
3.49519e-05
3.49346e-05
3.49174e-05
3.49003e-05
3.48834e-05
3.48667e-05
3.48501e-05
3.48337e-05
3.48175e-05
3.48015e-05
3.47857e-05
3.47701e-05
3.47547e-05
3.47395e-05
3.47245e-05
3.47097e-05
3.46953e-05
3.4681e-05
3.46671e-05
3.46533e-05
3.46398e-05
3.46264e-05
3.46132e-05
3.46001e-05
3.45872e-05
3.45744e-05
3.45618e-05
3.45494e-05
3.45372e-05
3.45252e-05
3.45133e-05
3.45016e-05
3.44902e-05
3.44791e-05
3.44683e-05
3.44579e-05
3.44478e-05
3.44381e-05
3.44289e-05
3.442e-05
3.44116e-05
3.44037e-05
3.43963e-05
3.43894e-05
3.4383e-05
3.43773e-05
3.43721e-05
3.43676e-05
3.43637e-05
3.43604e-05
3.43575e-05
3.43551e-05
3.4353e-05
3.43513e-05
3.43497e-05
3.43482e-05
3.43469e-05
3.43456e-05
3.43444e-05
3.43433e-05
3.43422e-05
3.43411e-05
3.434e-05
3.43388e-05
3.43376e-05
3.43364e-05
3.43351e-05
3.43337e-05
3.43322e-05
3.43307e-05
3.43289e-05
3.43269e-05
3.43245e-05
3.43217e-05
3.43185e-05
3.43148e-05
3.43105e-05
3.43056e-05
3.43001e-05
3.42938e-05
3.42868e-05
3.4279e-05
3.42704e-05
3.42609e-05
3.42507e-05
3.42397e-05
3.4228e-05
3.42158e-05
3.42032e-05
3.41902e-05
3.4177e-05
3.41634e-05
3.41495e-05
3.41354e-05
3.41209e-05
3.41062e-05
3.40912e-05
3.4076e-05
3.40605e-05
3.40448e-05
3.40287e-05
3.40122e-05
3.39952e-05
3.39775e-05
3.39591e-05
3.394e-05
3.392e-05
3.38993e-05
3.38779e-05
3.38557e-05
3.38329e-05
3.38095e-05
3.37855e-05
3.3761e-05
3.3736e-05
3.37103e-05
3.36841e-05
3.36574e-05
3.36302e-05
3.36027e-05
3.3575e-05
3.35471e-05
3.35191e-05
3.34912e-05
3.34633e-05
3.34353e-05
3.34074e-05
3.33795e-05
3.33516e-05
3.33236e-05
3.32955e-05
3.32673e-05
3.3239e-05
3.32106e-05
3.31821e-05
3.31537e-05
3.31253e-05
3.3097e-05
3.30689e-05
3.30409e-05
3.30131e-05
3.29855e-05
3.29581e-05
3.29308e-05
3.29036e-05
3.28765e-05
3.28496e-05
3.28231e-05
3.27968e-05
3.27711e-05
3.27459e-05
3.27213e-05
3.26974e-05
3.26742e-05
3.26518e-05
3.26301e-05
3.2609e-05
3.25887e-05
3.25689e-05
3.25497e-05
3.2531e-05
3.25129e-05
3.24953e-05
3.24784e-05
3.2462e-05
3.24464e-05
3.24311e-05
3.24166e-05
3.24024e-05
3.23888e-05
3.23754e-05
3.23627e-05
3.23502e-05
3.23384e-05
3.23266e-05
3.23155e-05
3.23042e-05
3.22935e-05
3.22825e-05
3.22721e-05
3.22613e-05
3.2251e-05
3.22402e-05
3.22301e-05
3.22192e-05
3.22091e-05
3.2198e-05
3.21878e-05
3.21763e-05
3.21658e-05
3.21538e-05
3.21429e-05
3.21301e-05
3.21186e-05
3.21051e-05
3.20929e-05
3.2079e-05
3.2067e-05
3.20531e-05
3.20413e-05
3.20273e-05
3.20146e-05
3.19991e-05
3.1983e-05
3.19632e-05
3.19411e-05
3.19115e-05
3.18762e-05
3.18258e-05
3.17625e-05
3.16721e-05
3.15404e-05
3.14089e-05
3.08394e-05
2.99864e-05
2.86071e-05
2.83928e-05
2.69044e-05
2.53616e-05
2.26014e-05
2.10119e-05
1.73729e-05
1.37192e-05
1.50882e-05
1.24892e-05
1.97577e-05
0.000146162
0.000110682
8.1014e-05
6.60812e-05
5.3662e-05
4.46244e-05
3.70382e-05
3.13128e-05
2.70018e-05
2.3783e-05
2.12928e-05
1.93501e-05
1.77983e-05
1.6552e-05
1.55403e-05
1.47172e-05
1.40455e-05
1.34983e-05
1.30574e-05
1.27085e-05
1.24435e-05
1.2259e-05
1.21524e-05
1.21196e-05
1.21572e-05
1.22636e-05
1.24388e-05
1.26784e-05
1.29762e-05
1.333e-05
1.37376e-05
1.42001e-05
1.47184e-05
1.52637e-05
1.58232e-05
1.63963e-05
1.69827e-05
1.75822e-05
1.8195e-05
1.88215e-05
1.94621e-05
2.01168e-05
2.07873e-05
2.14753e-05
2.2183e-05
2.29125e-05
2.3505e-05
2.4085e-05
2.46654e-05
2.52469e-05
2.58295e-05
2.64131e-05
2.69972e-05
2.75812e-05
2.81638e-05
2.87437e-05
2.93192e-05
2.98884e-05
3.04527e-05
3.10084e-05
3.15507e-05
3.20918e-05
3.26346e-05
3.31672e-05
3.36903e-05
3.42052e-05
3.47112e-05
3.52089e-05
3.5698e-05
3.61785e-05
3.66502e-05
3.71125e-05
3.75654e-05
3.80086e-05
3.8442e-05
3.88653e-05
3.92789e-05
3.96828e-05
4.00772e-05
4.04625e-05
4.08395e-05
4.12091e-05
4.15716e-05
4.19277e-05
4.22781e-05
4.26234e-05
4.29641e-05
4.33006e-05
4.36332e-05
4.39617e-05
4.4288e-05
4.46116e-05
4.49316e-05
4.52472e-05
4.556e-05
4.58686e-05
4.61254e-05
4.63522e-05
4.6571e-05
4.6782e-05
4.69853e-05
4.71813e-05
4.73704e-05
4.75527e-05
4.77287e-05
4.78985e-05
4.80623e-05
4.82205e-05
4.83731e-05
4.85206e-05
4.8663e-05
4.88005e-05
4.89336e-05
4.90624e-05
4.91868e-05
4.93068e-05
4.94228e-05
4.95353e-05
4.96443e-05
4.97502e-05
4.9853e-05
4.99532e-05
5.00508e-05
5.01461e-05
5.02393e-05
5.03306e-05
5.042e-05
5.05079e-05
5.05943e-05
5.06795e-05
5.07635e-05
5.08465e-05
5.09286e-05
5.10099e-05
5.10904e-05
5.11703e-05
5.12496e-05
5.13283e-05
5.14065e-05
5.14843e-05
5.15616e-05
5.16385e-05
5.1715e-05
5.17912e-05
5.18671e-05
5.19427e-05
5.20179e-05
5.20928e-05
5.21671e-05
5.22411e-05
5.23145e-05
5.23874e-05
5.24599e-05
5.25319e-05
5.26035e-05
5.26747e-05
5.27455e-05
5.28159e-05
5.2886e-05
5.29557e-05
5.3025e-05
5.30941e-05
5.31628e-05
5.32314e-05
5.32997e-05
5.33678e-05
5.34359e-05
5.35039e-05
5.35719e-05
5.36401e-05
5.37083e-05
5.37767e-05
5.38452e-05
5.3914e-05
5.3983e-05
5.40523e-05
5.41218e-05
5.41914e-05
5.42612e-05
5.4331e-05
5.44007e-05
5.44702e-05
5.45394e-05
5.46083e-05
5.46768e-05
5.4745e-05
5.48127e-05
5.48801e-05
5.49471e-05
5.50138e-05
5.50799e-05
5.51456e-05
5.52107e-05
5.52751e-05
5.53388e-05
5.54017e-05
5.54639e-05
5.55255e-05
5.55864e-05
5.56469e-05
5.57071e-05
5.57671e-05
5.58271e-05
5.58872e-05
5.59475e-05
5.6008e-05
5.60688e-05
5.613e-05
5.61917e-05
5.6254e-05
5.63169e-05
5.63806e-05
5.64452e-05
5.65106e-05
5.6577e-05
5.66445e-05
5.67131e-05
5.67829e-05
5.6854e-05
5.69264e-05
5.70001e-05
5.70752e-05
5.71517e-05
5.72296e-05
5.73089e-05
5.73896e-05
5.74716e-05
5.75549e-05
5.76394e-05
5.77251e-05
5.7812e-05
5.78999e-05
5.79889e-05
5.80789e-05
5.817e-05
5.82621e-05
5.83551e-05
5.84491e-05
5.8544e-05
5.86398e-05
5.87364e-05
5.88339e-05
5.89322e-05
5.90312e-05
5.9131e-05
5.92313e-05
5.93321e-05
5.94332e-05
5.95345e-05
5.96358e-05
5.97369e-05
5.98378e-05
5.99384e-05
6.00385e-05
6.0138e-05
6.02369e-05
6.03348e-05
6.04318e-05
6.05274e-05
6.06218e-05
6.07146e-05
6.08058e-05
6.08951e-05
6.09826e-05
6.10679e-05
6.11511e-05
6.12319e-05
6.13103e-05
6.13861e-05
6.14593e-05
6.15295e-05
6.15969e-05
6.16612e-05
6.17223e-05
6.17803e-05
6.1835e-05
6.18865e-05
6.19347e-05
6.19797e-05
6.20214e-05
6.20599e-05
6.20952e-05
6.21272e-05
6.21561e-05
6.21818e-05
6.22044e-05
6.2224e-05
6.22405e-05
6.22542e-05
6.22652e-05
6.22734e-05
6.2279e-05
6.22821e-05
6.22828e-05
6.22812e-05
6.22773e-05
6.22714e-05
6.22635e-05
6.22537e-05
6.22421e-05
6.22288e-05
6.22139e-05
6.21975e-05
6.21797e-05
6.21605e-05
6.21399e-05
6.21182e-05
6.20954e-05
6.20715e-05
6.20468e-05
6.20212e-05
6.19948e-05
6.19676e-05
6.19397e-05
6.19112e-05
6.1882e-05
6.18522e-05
6.18219e-05
6.17911e-05
6.17599e-05
6.17283e-05
6.16966e-05
6.16646e-05
6.16327e-05
6.16008e-05
6.15689e-05
6.15372e-05
6.15057e-05
6.14745e-05
6.14435e-05
6.14128e-05
6.13824e-05
6.13524e-05
6.13227e-05
6.12934e-05
6.12646e-05
6.12361e-05
6.12081e-05
6.11806e-05
6.11536e-05
6.11272e-05
6.11015e-05
6.10762e-05
6.10516e-05
6.10275e-05
6.10038e-05
6.09805e-05
6.09577e-05
6.09352e-05
6.09131e-05
6.08915e-05
6.08703e-05
6.08496e-05
6.08293e-05
6.08095e-05
6.07903e-05
6.07719e-05
6.07542e-05
6.07374e-05
6.07216e-05
6.07069e-05
6.06934e-05
6.06811e-05
6.06701e-05
6.06604e-05
6.06521e-05
6.06453e-05
6.064e-05
6.06363e-05
6.06342e-05
6.06337e-05
6.06349e-05
6.06376e-05
6.06418e-05
6.06473e-05
6.06539e-05
6.06615e-05
6.06696e-05
6.06783e-05
6.06872e-05
6.06963e-05
6.07054e-05
6.07146e-05
6.07237e-05
6.07328e-05
6.07417e-05
6.07505e-05
6.0759e-05
6.07674e-05
6.07755e-05
6.07834e-05
6.0791e-05
6.07983e-05
6.08052e-05
6.08115e-05
6.0817e-05
6.08215e-05
6.08248e-05
6.08268e-05
6.08272e-05
6.08259e-05
6.08228e-05
6.08178e-05
6.08106e-05
6.08012e-05
6.07895e-05
6.07754e-05
6.07589e-05
6.07402e-05
6.07194e-05
6.06967e-05
6.06724e-05
6.06468e-05
6.06202e-05
6.05927e-05
6.05644e-05
6.05354e-05
6.05056e-05
6.04751e-05
6.04439e-05
6.04121e-05
6.03795e-05
6.03463e-05
6.03124e-05
6.02776e-05
6.02417e-05
6.02044e-05
6.01655e-05
6.01247e-05
6.00818e-05
6.00369e-05
5.99897e-05
5.99405e-05
5.98892e-05
5.9836e-05
5.9781e-05
5.97242e-05
5.96659e-05
5.9606e-05
5.95445e-05
5.94814e-05
5.94169e-05
5.93511e-05
5.92843e-05
5.92166e-05
5.91483e-05
5.90795e-05
5.90104e-05
5.8941e-05
5.88714e-05
5.88016e-05
5.87315e-05
5.86611e-05
5.85904e-05
5.85193e-05
5.84477e-05
5.83758e-05
5.83035e-05
5.8231e-05
5.81584e-05
5.80858e-05
5.80133e-05
5.79412e-05
5.78694e-05
5.77981e-05
5.77273e-05
5.76569e-05
5.75869e-05
5.75173e-05
5.74481e-05
5.73795e-05
5.73115e-05
5.72445e-05
5.71786e-05
5.7114e-05
5.70509e-05
5.69895e-05
5.693e-05
5.68725e-05
5.6817e-05
5.67636e-05
5.67122e-05
5.66627e-05
5.66151e-05
5.65695e-05
5.65256e-05
5.64836e-05
5.64434e-05
5.64051e-05
5.63686e-05
5.63339e-05
5.63008e-05
5.62691e-05
5.62388e-05
5.621e-05
5.61823e-05
5.61562e-05
5.61311e-05
5.61074e-05
5.60844e-05
5.60623e-05
5.60407e-05
5.60197e-05
5.59989e-05
5.59787e-05
5.59584e-05
5.59386e-05
5.59187e-05
5.58991e-05
5.58793e-05
5.58597e-05
5.58397e-05
5.58195e-05
5.57988e-05
5.57776e-05
5.57555e-05
5.57326e-05
5.57086e-05
5.56835e-05
5.56576e-05
5.56309e-05
5.56043e-05
5.55774e-05
5.5551e-05
5.5524e-05
5.54964e-05
5.54675e-05
5.54352e-05
5.53996e-05
5.53574e-05
5.53066e-05
5.5242e-05
5.51563e-05
5.50394e-05
5.48818e-05
5.46293e-05
5.43659e-05
5.34897e-05
5.20704e-05
5.0691e-05
4.89504e-05
4.66286e-05
4.3166e-05
3.78714e-05
3.14766e-05
2.63057e-05
1.93493e-05
1.82938e-05
2.03687e-05
3.15366e-05
0.000164717
0.000121372
7.70597e-05
7.88639e-05
8.41573e-05
9.48479e-05
9.12357e-05
8.00259e-05
7.08686e-05
6.3351e-05
5.70713e-05
5.1832e-05
4.73679e-05
4.35993e-05
4.03725e-05
3.76043e-05
3.51872e-05
3.30742e-05
3.12167e-05
2.95705e-05
2.80804e-05
2.66975e-05
2.53994e-05
2.4189e-05
2.30757e-05
2.20662e-05
2.11602e-05
2.03531e-05
1.96388e-05
1.90103e-05
1.84611e-05
1.79845e-05
1.75755e-05
1.72315e-05
1.69507e-05
1.67312e-05
1.65707e-05
1.6467e-05
1.64207e-05
1.64416e-05
1.65328e-05
1.66883e-05
1.69016e-05
1.71707e-05
1.7496e-05
1.78803e-05
1.83094e-05
1.87693e-05
1.92598e-05
1.97807e-05
2.03312e-05
2.09104e-05
2.1517e-05
2.21494e-05
2.28054e-05
2.34832e-05
2.41797e-05
2.48926e-05
2.56205e-05
2.63621e-05
2.71161e-05
2.77755e-05
2.83933e-05
2.90157e-05
2.96412e-05
3.02739e-05
3.09128e-05
3.15592e-05
3.22129e-05
3.28743e-05
3.35436e-05
3.42206e-05
3.49054e-05
3.55989e-05
3.63003e-05
3.70094e-05
3.77253e-05
3.84492e-05
3.91783e-05
3.99127e-05
4.06542e-05
4.14043e-05
4.21614e-05
4.29264e-05
4.3698e-05
4.44772e-05
4.52621e-05
4.60539e-05
4.68495e-05
4.76512e-05
4.84551e-05
4.92575e-05
5.00563e-05
5.08524e-05
5.15247e-05
5.21052e-05
5.2676e-05
5.32376e-05
5.37893e-05
5.43304e-05
5.48609e-05
5.53806e-05
5.58897e-05
5.63883e-05
5.68765e-05
5.73542e-05
5.78215e-05
5.82784e-05
5.8725e-05
5.91614e-05
5.95877e-05
6.00041e-05
6.04111e-05
6.08088e-05
6.11973e-05
6.15761e-05
6.19463e-05
6.23086e-05
6.26631e-05
6.30102e-05
6.33503e-05
6.36838e-05
6.40111e-05
6.43325e-05
6.46484e-05
6.49589e-05
6.52644e-05
6.55651e-05
6.58612e-05
6.61528e-05
6.64403e-05
6.67236e-05
6.7003e-05
6.72786e-05
6.75504e-05
6.78186e-05
6.80831e-05
6.83442e-05
6.86017e-05
6.88557e-05
6.91063e-05
6.93534e-05
6.95971e-05
6.98375e-05
7.00746e-05
7.03085e-05
7.0539e-05
7.07662e-05
7.099e-05
7.12105e-05
7.14277e-05
7.16416e-05
7.18523e-05
7.20598e-05
7.22644e-05
7.2466e-05
7.26647e-05
7.28607e-05
7.30539e-05
7.32444e-05
7.34322e-05
7.36176e-05
7.38005e-05
7.3981e-05
7.41594e-05
7.43357e-05
7.45102e-05
7.46831e-05
7.48546e-05
7.50249e-05
7.51941e-05
7.53624e-05
7.553e-05
7.56971e-05
7.58637e-05
7.60301e-05
7.61962e-05
7.63621e-05
7.65278e-05
7.6693e-05
7.68577e-05
7.70216e-05
7.71847e-05
7.73468e-05
7.75078e-05
7.76677e-05
7.78265e-05
7.79841e-05
7.81406e-05
7.82959e-05
7.84499e-05
7.86026e-05
7.87539e-05
7.89036e-05
7.90516e-05
7.91978e-05
7.93424e-05
7.94853e-05
7.96268e-05
7.9767e-05
7.99064e-05
8.00451e-05
8.01834e-05
8.03216e-05
8.04601e-05
8.05988e-05
8.07381e-05
8.08781e-05
8.1019e-05
8.11609e-05
8.13042e-05
8.1449e-05
8.15954e-05
8.17437e-05
8.18941e-05
8.20468e-05
8.22018e-05
8.23593e-05
8.25193e-05
8.2682e-05
8.28472e-05
8.3015e-05
8.31856e-05
8.33588e-05
8.35347e-05
8.37133e-05
8.38944e-05
8.40779e-05
8.42638e-05
8.44519e-05
8.46422e-05
8.48346e-05
8.5029e-05
8.52254e-05
8.54238e-05
8.5624e-05
8.58261e-05
8.60299e-05
8.62354e-05
8.64425e-05
8.66511e-05
8.68611e-05
8.70723e-05
8.72845e-05
8.74975e-05
8.7711e-05
8.79246e-05
8.8138e-05
8.83509e-05
8.85627e-05
8.87734e-05
8.89825e-05
8.91898e-05
8.93952e-05
8.95984e-05
8.97992e-05
8.99973e-05
9.01924e-05
9.03844e-05
9.0573e-05
9.07579e-05
9.09392e-05
9.11164e-05
9.12895e-05
9.14583e-05
9.16226e-05
9.17822e-05
9.19369e-05
9.20865e-05
9.22308e-05
9.23696e-05
9.25028e-05
9.26301e-05
9.27516e-05
9.2867e-05
9.29764e-05
9.30797e-05
9.31771e-05
9.32684e-05
9.33537e-05
9.3433e-05
9.35064e-05
9.3574e-05
9.36356e-05
9.36913e-05
9.37413e-05
9.37855e-05
9.38243e-05
9.38576e-05
9.38858e-05
9.39089e-05
9.39272e-05
9.39408e-05
9.395e-05
9.39549e-05
9.39558e-05
9.39528e-05
9.39463e-05
9.39363e-05
9.39231e-05
9.39069e-05
9.38877e-05
9.38659e-05
9.38414e-05
9.38146e-05
9.37854e-05
9.37541e-05
9.37209e-05
9.36859e-05
9.36493e-05
9.36112e-05
9.35718e-05
9.35311e-05
9.34892e-05
9.34461e-05
9.34021e-05
9.3357e-05
9.33112e-05
9.32646e-05
9.32174e-05
9.31698e-05
9.31219e-05
9.30738e-05
9.30257e-05
9.29777e-05
9.29298e-05
9.28823e-05
9.2835e-05
9.27882e-05
9.27417e-05
9.26958e-05
9.26505e-05
9.26058e-05
9.25617e-05
9.25184e-05
9.24757e-05
9.24339e-05
9.23929e-05
9.23527e-05
9.23135e-05
9.22753e-05
9.22382e-05
9.2202e-05
9.21669e-05
9.21327e-05
9.20994e-05
9.20667e-05
9.20348e-05
9.20035e-05
9.1973e-05
9.19431e-05
9.19139e-05
9.18855e-05
9.18579e-05
9.18312e-05
9.18056e-05
9.17813e-05
9.17585e-05
9.17375e-05
9.17185e-05
9.17016e-05
9.16872e-05
9.16752e-05
9.1666e-05
9.16595e-05
9.16558e-05
9.16551e-05
9.16573e-05
9.16626e-05
9.16709e-05
9.16822e-05
9.16963e-05
9.17132e-05
9.17326e-05
9.1754e-05
9.17772e-05
9.18017e-05
9.18269e-05
9.18527e-05
9.18784e-05
9.1904e-05
9.19292e-05
9.19539e-05
9.1978e-05
9.20016e-05
9.20244e-05
9.20466e-05
9.20681e-05
9.20889e-05
9.21089e-05
9.21281e-05
9.21466e-05
9.21641e-05
9.21805e-05
9.21954e-05
9.22086e-05
9.22196e-05
9.22281e-05
9.22338e-05
9.22361e-05
9.22349e-05
9.22298e-05
9.22206e-05
9.22071e-05
9.21889e-05
9.2166e-05
9.21385e-05
9.21063e-05
9.20697e-05
9.2029e-05
9.19847e-05
9.19374e-05
9.18877e-05
9.18361e-05
9.17829e-05
9.17285e-05
9.1673e-05
9.16163e-05
9.15585e-05
9.14997e-05
9.14398e-05
9.13789e-05
9.13169e-05
9.12536e-05
9.11889e-05
9.11224e-05
9.10536e-05
9.09821e-05
9.09074e-05
9.08293e-05
9.07475e-05
9.06619e-05
9.05725e-05
9.04795e-05
9.03831e-05
9.02835e-05
9.01809e-05
9.00756e-05
8.99676e-05
8.9857e-05
8.97438e-05
8.96282e-05
8.95104e-05
8.93908e-05
8.92696e-05
8.91472e-05
8.90237e-05
8.88993e-05
8.87741e-05
8.86481e-05
8.85213e-05
8.83937e-05
8.82653e-05
8.81359e-05
8.80055e-05
8.78742e-05
8.77418e-05
8.76087e-05
8.7475e-05
8.7341e-05
8.7207e-05
8.70731e-05
8.69397e-05
8.6807e-05
8.66752e-05
8.65444e-05
8.64145e-05
8.62855e-05
8.61574e-05
8.60302e-05
8.5904e-05
8.5779e-05
8.56557e-05
8.55342e-05
8.54149e-05
8.52981e-05
8.51842e-05
8.50735e-05
8.49664e-05
8.48631e-05
8.47637e-05
8.46682e-05
8.45767e-05
8.44891e-05
8.44054e-05
8.43254e-05
8.42492e-05
8.41767e-05
8.4108e-05
8.40428e-05
8.39811e-05
8.39224e-05
8.38667e-05
8.38134e-05
8.37631e-05
8.37151e-05
8.36701e-05
8.36272e-05
8.35868e-05
8.3548e-05
8.35111e-05
8.34749e-05
8.34402e-05
8.34056e-05
8.33722e-05
8.33387e-05
8.33061e-05
8.32732e-05
8.32411e-05
8.32085e-05
8.31767e-05
8.31439e-05
8.31115e-05
8.30776e-05
8.30436e-05
8.30075e-05
8.29703e-05
8.29304e-05
8.28888e-05
8.28446e-05
8.2799e-05
8.27522e-05
8.27051e-05
8.26578e-05
8.26103e-05
8.25615e-05
8.25118e-05
8.24578e-05
8.24007e-05
8.23357e-05
8.2261e-05
8.2169e-05
8.2051e-05
8.18906e-05
8.16755e-05
8.13262e-05
8.09158e-05
7.98082e-05
7.80472e-05
7.60796e-05
7.24821e-05
6.75359e-05
6.05098e-05
5.16891e-05
4.10838e-05
3.60531e-05
2.55396e-05
2.20319e-05
2.46904e-05
3.47063e-05
0.000149928
0.000110878
7.39762e-05
7.42302e-05
7.95279e-05
8.75423e-05
0.00010406
0.000116371
0.000124329
0.000115412
0.000107555
0.000100449
9.39915e-05
8.81977e-05
8.29734e-05
7.82729e-05
7.40037e-05
7.01269e-05
6.65995e-05
6.33704e-05
6.03791e-05
5.75713e-05
5.49124e-05
5.23955e-05
5.00271e-05
4.7814e-05
4.57571e-05
4.38505e-05
4.20866e-05
4.04577e-05
3.89537e-05
3.75649e-05
3.62803e-05
3.50911e-05
3.39906e-05
3.29737e-05
3.20365e-05
3.11746e-05
3.0373e-05
2.95637e-05
2.87135e-05
2.78605e-05
2.70455e-05
2.62913e-05
2.56078e-05
2.49988e-05
2.44656e-05
2.40086e-05
2.36261e-05
2.33162e-05
2.30762e-05
2.29036e-05
2.27961e-05
2.27515e-05
2.27683e-05
2.28449e-05
2.29801e-05
2.31741e-05
2.34258e-05
2.37342e-05
2.40988e-05
2.45181e-05
2.49888e-05
2.55105e-05
2.60829e-05
2.67053e-05
2.73646e-05
2.80603e-05
2.87927e-05
2.9562e-05
3.0368e-05
3.12101e-05
3.20875e-05
3.29993e-05
3.3944e-05
3.49203e-05
3.59265e-05
3.69611e-05
3.80225e-05
3.91089e-05
4.02191e-05
4.13515e-05
4.25047e-05
4.36772e-05
4.48672e-05
4.60726e-05
4.72904e-05
4.85171e-05
4.97485e-05
5.09808e-05
5.22099e-05
5.34309e-05
5.46381e-05
5.58267e-05
5.6992e-05
5.81308e-05
5.92417e-05
6.03249e-05
6.13795e-05
6.24074e-05
6.34101e-05
6.43889e-05
6.53448e-05
6.62788e-05
6.71907e-05
6.80801e-05
6.89472e-05
6.97928e-05
7.06175e-05
7.14221e-05
7.22073e-05
7.29741e-05
7.37234e-05
7.44558e-05
7.51713e-05
7.5871e-05
7.65569e-05
7.72294e-05
7.78891e-05
7.85365e-05
7.91723e-05
7.97973e-05
8.04117e-05
8.10159e-05
8.16101e-05
8.21944e-05
8.27691e-05
8.33345e-05
8.38907e-05
8.44379e-05
8.49763e-05
8.5506e-05
8.60272e-05
8.654e-05
8.70446e-05
8.7541e-05
8.80293e-05
8.85094e-05
8.89813e-05
8.94449e-05
8.99001e-05
9.03471e-05
9.07859e-05
9.12165e-05
9.16391e-05
9.20537e-05
9.24604e-05
9.28593e-05
9.32506e-05
9.36343e-05
9.40106e-05
9.43798e-05
9.47421e-05
9.50976e-05
9.54467e-05
9.57895e-05
9.61261e-05
9.64567e-05
9.67814e-05
9.71002e-05
9.74133e-05
9.77207e-05
9.80227e-05
9.83194e-05
9.86112e-05
9.88984e-05
9.91814e-05
9.94607e-05
9.97366e-05
0.00010001
0.00010028
0.000100549
0.000100815
0.000101081
0.000101345
0.000101609
0.000101872
0.000102135
0.000102398
0.00010266
0.000102921
0.000103181
0.00010344
0.000103697
0.000103953
0.000104208
0.00010446
0.00010471
0.000104959
0.000105205
0.00010545
0.000105692
0.000105932
0.000106169
0.000106404
0.000106636
0.000106865
0.000107092
0.000107317
0.000107541
0.000107762
0.000107984
0.000108204
0.000108425
0.000108647
0.000108869
0.000109092
0.000109317
0.000109544
0.000109774
0.000110005
0.000110239
0.000110477
0.000110718
0.000110962
0.000111211
0.000111463
0.00011172
0.000111981
0.000112246
0.000112515
0.000112789
0.000113068
0.00011335
0.000113637
0.000113929
0.000114224
0.000114523
0.000114826
0.000115133
0.000115443
0.000115757
0.000116074
0.000116394
0.000116717
0.000117044
0.000117373
0.000117705
0.00011804
0.000118378
0.000118717
0.000119058
0.000119401
0.000119745
0.000120088
0.000120432
0.000120774
0.000121114
0.000121452
0.000121787