/*--------------------------------*- C++ -*----------------------------------*\
| =========                 |                                                 |
| \\      /  F ield         | foam-extend: Open Source CFD                    |
|  \\    /   O peration     | Version:     3.2                                |
|   \\  /    A nd           | Web:         http://www.foam-extend.org         |
|    \\/     M anipulation  | For copyright notice see file Copyright         |
\*---------------------------------------------------------------------------*/
FoamFile
{
    version     2.0;
    format      ascii;
    class       volScalarField;
    location    "120";
    object      p;
}
// * * * * * * * * * * * * * * * * * * * * * * * * * * * * * * * * * * * * * //

dimensions      [1 -1 -2 0 0 0 0];

internalField   nonuniform List<scalar> 
33000
(
1162.06
1163.63
1164.43
1166.87
1167.88
1169.9
1170.74
1172.2
1172.89
1173.95
1174.55
1175.35
1175.87
1176.49
1176.97
1177.5
1177.96
1178.43
1178.86
1179.3
1179.71
1180.12
1180.52
1180.92
1181.31
1181.71
1182.1
1182.49
1182.87
1183.26
1183.64
1184.02
1184.4
1184.77
1185.15
1185.53
1185.9
1186.28
1186.66
1187.03
1187.41
1187.78
1188.15
1188.53
1188.9
1189.27
1189.64
1190.02
1190.39
1190.76
1191.13
1191.5
1191.86
1192.23
1192.6
1192.96
1193.33
1193.69
1194.05
1194.42
1194.78
1195.12
1195.44
1195.75
1196.05
1196.36
1196.66
1196.97
1197.28
1197.58
1197.89
1198.2
1198.51
1198.82
1199.12
1199.43
1199.74
1200.05
1200.37
1200.68
1200.99
1201.3
1201.62
1201.93
1202.24
1202.56
1202.87
1203.19
1203.51
1203.82
1204.14
1204.45
1204.77
1205.09
1205.4
1205.72
1206.04
1206.36
1206.67
1206.99
1207.31
1207.63
1207.94
1208.26
1208.57
1208.89
1209.2
1209.52
1209.83
1210.15
1210.46
1210.78
1211.09
1211.4
1211.72
1212.03
1212.34
1212.65
1212.97
1213.28
1213.59
1213.9
1214.21
1214.52
1214.83
1215.15
1215.46
1215.77
1216.08
1216.39
1216.7
1217.01
1217.32
1217.64
1217.95
1218.26
1218.57
1218.88
1219.2
1219.51
1219.83
1220.14
1220.46
1220.78
1221.09
1221.41
1221.73
1222.05
1222.37
1222.69
1223.02
1223.34
1223.66
1223.99
1224.31
1224.64
1224.97
1225.29
1225.62
1225.95
1226.28
1226.61
1226.93
1227.26
1227.59
1227.92
1228.25
1228.58
1228.91
1229.24
1229.57
1229.9
1230.23
1230.56
1230.89
1231.22
1231.55
1231.88
1232.21
1232.54
1232.87
1233.2
1233.53
1233.86
1234.19
1234.53
1234.86
1235.19
1235.52
1235.85
1236.19
1236.52
1236.86
1237.19
1237.53
1237.86
1238.2
1238.53
1238.87
1239.21
1239.55
1239.89
1240.23
1240.57
1240.91
1241.25
1241.59
1241.93
1242.27
1242.62
1242.96
1243.3
1243.65
1243.99
1244.34
1244.69
1245.03
1245.38
1245.73
1246.08
1246.43
1246.78
1247.13
1247.48
1247.84
1248.19
1248.55
1248.9
1249.25
1249.61
1249.97
1250.32
1250.68
1251.03
1251.39
1251.74
1252.1
1252.45
1252.81
1253.16
1253.52
1253.87
1254.22
1254.57
1254.93
1255.28
1255.63
1255.98
1256.33
1256.68
1257.03
1257.38
1257.73
1258.08
1258.43
1258.78
1259.13
1259.48
1259.83
1260.18
1260.53
1260.88
1261.22
1261.57
1261.92
1262.27
1262.61
1262.96
1263.31
1263.65
1264
1264.35
1264.69
1265.04
1265.38
1265.73
1266.07
1266.42
1266.76
1267.11
1267.46
1267.8
1268.15
1268.49
1268.84
1269.18
1269.53
1269.87
1270.22
1270.56
1270.91
1271.25
1271.59
1271.94
1272.28
1272.62
1272.97
1273.31
1273.65
1273.99
1274.34
1274.68
1275.02
1275.37
1275.71
1276.06
1276.4
1276.75
1277.09
1277.44
1277.79
1278.14
1278.48
1278.83
1279.18
1279.53
1279.88
1280.23
1280.58
1280.93
1281.28
1281.63
1281.98
1282.33
1282.68
1283.03
1283.37
1283.72
1284.07
1284.41
1284.76
1285.1
1285.44
1285.79
1286.13
1286.47
1286.81
1287.15
1287.5
1287.84
1288.18
1288.52
1288.86
1289.2
1289.54
1289.89
1290.23
1290.57
1290.92
1291.26
1291.61
1291.96
1292.3
1292.65
1293
1293.35
1293.71
1294.06
1294.41
1294.77
1295.12
1295.48
1295.84
1296.2
1296.55
1296.91
1297.27
1297.63
1297.99
1298.35
1298.71
1299.06
1299.42
1299.78
1300.14
1300.49
1300.85
1301.21
1301.56
1301.92
1302.27
1302.62
1302.97
1303.32
1303.68
1304.02
1304.37
1304.72
1305.07
1305.41
1305.76
1306.1
1306.45
1306.79
1307.14
1307.48
1307.83
1308.17
1308.51
1308.86
1309.2
1309.54
1309.89
1310.23
1310.57
1310.92
1311.26
1311.61
1311.95
1312.3
1312.64
1312.99
1313.33
1313.68
1314.03
1314.37
1314.72
1315.06
1315.41
1315.76
1316.1
1316.45
1316.8
1317.14
1317.49
1317.84
1318.18
1318.53
1318.88
1319.23
1319.57
1319.92
1320.27
1320.62
1320.96
1321.31
1321.66
1322.01
1322.35
1322.7
1323.05
1323.4
1323.75
1324.1
1324.44
1324.79
1325.14
1325.49
1325.84
1326.19
1326.53
1326.88
1327.23
1327.58
1327.93
1328.28
1328.63
1328.98
1329.33
1329.68
1330.03
1330.38
1330.74
1331.09
1331.44
1331.79
1332.15
1332.5
1332.85
1333.21
1333.56
1333.91
1334.27
1334.62
1334.97
1335.32
1335.68
1336.03
1336.38
1336.73
1337.08
1337.43
1337.78
1338.13
1338.48
1338.84
1339.19
1339.54
1339.89
1340.25
1340.6
1340.95
1341.31
1341.66
1342.02
1342.37
1342.72
1343.07
1343.42
1343.77
1344.12
1344.47
1344.82
1345.17
1345.52
1345.86
1346.21
1346.56
1346.91
1347.26
1347.61
1347.96
1348.3
1348.65
1349
1349.36
1349.7
1350.06
1350.4
1350.76
1351.1
1351.46
1351.8
1352.15
1352.5
1352.85
1353.19
1353.54
1353.88
1354.24
1354.57
1354.94
1355.25
1355.64
1355.91
1356.37
1356.57
1357.27
1358.19
1361.87
1363.55
1365.12
1365.94
1368.73
1369.97
1373.75
1373.77
1375.85
1374.57
1375.93
1113.1
1114.81
1115.57
1118.04
1119.03
1121.07
1121.9
1123.37
1124.04
1125.11
1125.71
1126.51
1127.03
1127.65
1128.13
1128.66
1129.12
1129.59
1130.01
1130.45
1130.86
1131.27
1131.67
1132.07
1132.46
1132.86
1133.25
1133.64
1134.02
1134.4
1134.79
1135.17
1135.54
1135.92
1136.3
1136.68
1137.05
1137.43
1137.8
1138.18
1138.56
1138.93
1139.3
1139.68
1140.05
1140.42
1140.79
1141.17
1141.54
1141.91
1142.28
1142.65
1143.01
1143.38
1143.75
1144.11
1144.48
1144.84
1145.2
1145.57
1145.93
1146.27
1146.59
1146.89
1147.2
1147.51
1147.81
1148.12
1148.42
1148.73
1149.04
1149.35
1149.66
1149.96
1150.27
1150.58
1150.89
1151.2
1151.51
1151.83
1152.14
1152.45
1152.76
1153.08
1153.39
1153.71
1154.02
1154.34
1154.65
1154.97
1155.28
1155.6
1155.92
1156.23
1156.55
1156.87
1157.19
1157.5
1157.82
1158.14
1158.46
1158.77
1159.09
1159.41
1159.72
1160.04
1160.35
1160.67
1160.98
1161.3
1161.61
1161.92
1162.24
1162.55
1162.86
1163.18
1163.49
1163.8
1164.11
1164.43
1164.74
1165.05
1165.36
1165.67
1165.98
1166.29
1166.6
1166.92
1167.23
1167.54
1167.85
1168.16
1168.47
1168.78
1169.09
1169.41
1169.72
1170.03
1170.35
1170.66
1170.98
1171.29
1171.61
1171.92
1172.24
1172.56
1172.88
1173.2
1173.52
1173.84
1174.16
1174.49
1174.81
1175.14
1175.46
1175.79
1176.11
1176.44
1176.77
1177.1
1177.42
1177.75
1178.08
1178.41
1178.74
1179.07
1179.4
1179.73
1180.06
1180.39
1180.72
1181.05
1181.38
1181.71
1182.04
1182.37
1182.7
1183.03
1183.36
1183.69
1184.02
1184.35
1184.68
1185.01
1185.34
1185.67
1186
1186.34
1186.67
1187
1187.34
1187.67
1188
1188.34
1188.67
1189.01
1189.34
1189.68
1190.02
1190.36
1190.7
1191.03
1191.37
1191.71
1192.05
1192.39
1192.74
1193.08
1193.42
1193.76
1194.11
1194.45
1194.8
1195.14
1195.49
1195.83
1196.18
1196.53
1196.88
1197.23
1197.58
1197.93
1198.28
1198.63
1198.98
1199.34
1199.69
1200.05
1200.4
1200.76
1201.11
1201.47
1201.82
1202.18
1202.54
1202.89
1203.25
1203.6
1203.96
1204.31
1204.66
1205.02
1205.37
1205.72
1206.07
1206.42
1206.78
1207.13
1207.48
1207.83
1208.18
1208.53
1208.88
1209.23
1209.58
1209.93
1210.28
1210.63
1210.98
1211.32
1211.67
1212.02
1212.37
1212.72
1213.07
1213.41
1213.76
1214.11
1214.45
1214.8
1215.15
1215.49
1215.84
1216.18
1216.53
1216.88
1217.22
1217.57
1217.91
1218.26
1218.6
1218.95
1219.29
1219.64
1219.98
1220.33
1220.67
1221.02
1221.36
1221.71
1222.05
1222.4
1222.74
1223.08
1223.43
1223.77
1224.11
1224.46
1224.8
1225.14
1225.48
1225.83
1226.17
1226.51
1226.86
1227.2
1227.55
1227.89
1228.24
1228.59
1228.93
1229.28
1229.63
1229.98
1230.33
1230.68
1231.03
1231.38
1231.73
1232.08
1232.43
1232.78
1233.13
1233.48
1233.82
1234.17
1234.52
1234.87
1235.21
1235.56
1235.9
1236.25
1236.59
1236.93
1237.28
1237.62
1237.96
1238.3
1238.64
1238.98
1239.32
1239.67
1240.01
1240.35
1240.69
1241.03
1241.38
1241.72
1242.06
1242.41
1242.76
1243.1
1243.45
1243.8
1244.15
1244.5
1244.85
1245.21
1245.56
1245.91
1246.27
1246.63
1246.98
1247.34
1247.7
1248.06
1248.42
1248.78
1249.13
1249.49
1249.85
1250.21
1250.57
1250.93
1251.28
1251.64
1252
1252.35
1252.71
1253.06
1253.42
1253.77
1254.12
1254.47
1254.82
1255.17
1255.52
1255.87
1256.21
1256.56
1256.91
1257.25
1257.6
1257.94
1258.28
1258.63
1258.97
1259.32
1259.66
1260
1260.35
1260.69
1261.03
1261.38
1261.72
1262.07
1262.41
1262.75
1263.1
1263.44
1263.79
1264.14
1264.48
1264.83
1265.17
1265.52
1265.86
1266.21
1266.56
1266.9
1267.25
1267.6
1267.94
1268.29
1268.64
1268.98
1269.33
1269.68
1270.02
1270.37
1270.72
1271.07
1271.41
1271.76
1272.11
1272.46
1272.81
1273.15
1273.5
1273.85
1274.2
1274.55
1274.89
1275.24
1275.59
1275.94
1276.29
1276.64
1276.98
1277.33
1277.68
1278.03
1278.38
1278.73
1279.08
1279.43
1279.78
1280.13
1280.48
1280.83
1281.18
1281.53
1281.88
1282.24
1282.59
1282.94
1283.29
1283.65
1284
1284.35
1284.71
1285.06
1285.41
1285.77
1286.12
1286.47
1286.82
1287.17
1287.52
1287.88
1288.23
1288.58
1288.93
1289.28
1289.63
1289.98
1290.33
1290.69
1291.04
1291.39
1291.75
1292.1
1292.45
1292.81
1293.16
1293.52
1293.87
1294.22
1294.57
1294.92
1295.27
1295.62
1295.97
1296.32
1296.66
1297.01
1297.36
1297.71
1298.06
1298.4
1298.75
1299.1
1299.45
1299.8
1300.15
1300.5
1300.85
1301.2
1301.55
1301.9
1302.25
1302.6
1302.95
1303.3
1303.65
1303.99
1304.34
1304.69
1305.03
1305.38
1305.71
1306.08
1306.39
1306.79
1307.05
1307.51
1307.72
1308.48
1309.52
1312.96
1314.51
1316.23
1317.06
1319.88
1321.07
1324.85
1324.91
1327.04
1325.62
1326.94
1064.13
1065.92
1066.69
1069.18
1070.2
1072.22
1073.05
1074.52
1075.19
1076.26
1076.85
1077.65
1078.17
1078.78
1079.26
1079.79
1080.25
1080.72
1081.15
1081.59
1082
1082.42
1082.82
1083.22
1083.61
1084.01
1084.4
1084.79
1085.17
1085.56
1085.94
1086.32
1086.7
1087.07
1087.45
1087.83
1088.2
1088.58
1088.96
1089.33
1089.71
1090.08
1090.45
1090.83
1091.2
1091.57
1091.94
1092.31
1092.69
1093.06
1093.42
1093.79
1094.16
1094.53
1094.89
1095.26
1095.62
1095.99
1096.35
1096.71
1097.07
1097.41
1097.73
1098.04
1098.35
1098.65
1098.96
1099.27
1099.57
1099.88
1100.19
1100.49
1100.8
1101.11
1101.42
1101.73
1102.04
1102.35
1102.66
1102.97
1103.28
1103.6
1103.91
1104.22
1104.54
1104.85
1105.17
1105.48
1105.8
1106.12
1106.43
1106.75
1107.06
1107.38
1107.7
1108.02
1108.33
1108.65
1108.97
1109.29
1109.6
1109.92
1110.24
1110.55
1110.87
1111.18
1111.5
1111.81
1112.13
1112.44
1112.76
1113.07
1113.38
1113.7
1114.01
1114.32
1114.64
1114.95
1115.26
1115.57
1115.88
1116.19
1116.51
1116.82
1117.13
1117.44
1117.75
1118.06
1118.37
1118.68
1118.99
1119.31
1119.62
1119.93
1120.24
1120.55
1120.87
1121.18
1121.49
1121.81
1122.12
1122.44
1122.75
1123.07
1123.39
1123.71
1124.03
1124.35
1124.67
1124.99
1125.31
1125.63
1125.96
1126.28
1126.61
1126.93
1127.26
1127.59
1127.91
1128.24
1128.57
1128.9
1129.23
1129.56
1129.89
1130.22
1130.55
1130.87
1131.2
1131.53
1131.86
1132.19
1132.52
1132.85
1133.18
1133.51
1133.84
1134.17
1134.5
1134.83
1135.16
1135.49
1135.83
1136.16
1136.49
1136.82
1137.15
1137.48
1137.82
1138.15
1138.48
1138.82
1139.15
1139.48
1139.82
1140.16
1140.49
1140.83
1141.17
1141.5
1141.84
1142.18
1142.52
1142.86
1143.2
1143.54
1143.88
1144.22
1144.57
1144.91
1145.25
1145.6
1145.94
1146.29
1146.63
1146.98
1147.33
1147.67
1148.02
1148.37
1148.72
1149.07
1149.43
1149.78
1150.13
1150.48
1150.84
1151.19
1151.55
1151.9
1152.26
1152.62
1152.97
1153.33
1153.68
1154.04
1154.39
1154.75
1155.1
1155.46
1155.81
1156.16
1156.52
1156.87
1157.22
1157.57
1157.92
1158.27
1158.62
1158.97
1159.32
1159.67
1160.02
1160.37
1160.72
1161.07
1161.42
1161.77
1162.12
1162.47
1162.82
1163.17
1163.52
1163.87
1164.21
1164.56
1164.91
1165.25
1165.6
1165.95
1166.29
1166.64
1166.99
1167.33
1167.68
1168.02
1168.37
1168.71
1169.06
1169.4
1169.75
1170.09
1170.44
1170.78
1171.13
1171.47
1171.82
1172.17
1172.51
1172.85
1173.2
1173.54
1173.89
1174.23
1174.57
1174.92
1175.26
1175.6
1175.94
1176.29
1176.63
1176.97
1177.32
1177.66
1178.01
1178.35
1178.69
1179.04
1179.39
1179.73
1180.08
1180.43
1180.78
1181.13
1181.48
1181.82
1182.17
1182.52
1182.87
1183.22
1183.57
1183.92
1184.27
1184.62
1184.97
1185.32
1185.67
1186.01
1186.36
1186.7
1187.05
1187.39
1187.74
1188.08
1188.42
1188.77
1189.11
1189.45
1189.79
1190.13
1190.47
1190.81
1191.15
1191.49
1191.84
1192.18
1192.52
1192.87
1193.21
1193.56
1193.9
1194.25
1194.6
1194.95
1195.3
1195.65
1196
1196.35
1196.71
1197.06
1197.42
1197.77
1198.13
1198.49
1198.85
1199.2
1199.56
1199.92
1200.28
1200.64
1201
1201.36
1201.72
1202.07
1202.43
1202.79
1203.14
1203.5
1203.85
1204.21
1204.56
1204.91
1205.27
1205.62
1205.97
1206.32
1206.67
1207.01
1207.36
1207.71
1208.05
1208.4
1208.74
1209.09
1209.43
1209.77
1210.12
1210.46
1210.81
1211.15
1211.49
1211.84
1212.18
1212.52
1212.87
1213.21
1213.56
1213.9
1214.25
1214.59
1214.94
1215.28
1215.63
1215.97
1216.32
1216.66
1217.01
1217.36
1217.7
1218.05
1218.4
1218.74
1219.09
1219.44
1219.78
1220.13
1220.48
1220.82
1221.17
1221.52
1221.87
1222.21
1222.56
1222.91
1223.26
1223.6
1223.95
1224.3
1224.65
1225
1225.34
1225.69
1226.04
1226.39
1226.74
1227.09
1227.43
1227.78
1228.13
1228.48
1228.83
1229.18
1229.53
1229.87
1230.22
1230.57
1230.92
1231.27
1231.62
1231.98
1232.33
1232.68
1233.03
1233.38
1233.73
1234.09
1234.44
1234.79
1235.15
1235.5
1235.85
1236.21
1236.56
1236.91
1237.26
1237.62
1237.97
1238.32
1238.67
1239.02
1239.37
1239.72
1240.07
1240.43
1240.78
1241.13
1241.48
1241.83
1242.19
1242.54
1242.89
1243.25
1243.6
1243.96
1244.31
1244.66
1245.01
1245.37
1245.72
1246.07
1246.42
1246.77
1247.11
1247.46
1247.81
1248.16
1248.51
1248.85
1249.2
1249.55
1249.9
1250.25
1250.6
1250.95
1251.3
1251.65
1252
1252.35
1252.7
1253.05
1253.4
1253.75
1254.1
1254.45
1254.79
1255.14
1255.49
1255.83
1256.17
1256.53
1256.86
1257.23
1257.53
1257.93
1258.19
1258.66
1258.86
1259.74
1260.74
1263.91
1265.49
1267.27
1268.06
1270.84
1271.94
1275.69
1275.82
1278.05
1276.65
1278.13
1015.06
1017.03
1017.77
1020.34
1021.37
1023.41
1024.25
1025.71
1026.38
1027.44
1028.02
1028.82
1029.33
1029.95
1030.43
1030.96
1031.42
1031.88
1032.31
1032.75
1033.16
1033.57
1033.97
1034.37
1034.76
1035.16
1035.55
1035.93
1036.32
1036.7
1037.08
1037.46
1037.84
1038.22
1038.6
1038.97
1039.35
1039.73
1040.1
1040.48
1040.85
1041.23
1041.6
1041.97
1042.35
1042.72
1043.09
1043.46
1043.83
1044.2
1044.57
1044.94
1045.31
1045.68
1046.04
1046.41
1046.77
1047.14
1047.5
1047.86
1048.22
1048.56
1048.88
1049.19
1049.5
1049.8
1050.11
1050.41
1050.72
1051.03
1051.34
1051.64
1051.95
1052.26
1052.57
1052.88
1053.19
1053.5
1053.81
1054.12
1054.43
1054.75
1055.06
1055.37
1055.69
1056
1056.32
1056.63
1056.95
1057.26
1057.58
1057.9
1058.21
1058.53
1058.85
1059.16
1059.48
1059.8
1060.12
1060.43
1060.75
1061.07
1061.38
1061.7
1062.02
1062.33
1062.65
1062.96
1063.28
1063.59
1063.9
1064.22
1064.53
1064.85
1065.16
1065.47
1065.78
1066.1
1066.41
1066.72
1067.03
1067.34
1067.65
1067.97
1068.28
1068.59
1068.9
1069.21
1069.52
1069.83
1070.14
1070.45
1070.77
1071.08
1071.39
1071.7
1072.01
1072.33
1072.64
1072.95
1073.27
1073.59
1073.9
1074.22
1074.54
1074.85
1075.17
1075.49
1075.82
1076.14
1076.46
1076.78
1077.11
1077.43
1077.76
1078.08
1078.41
1078.74
1079.06
1079.39
1079.72
1080.05
1080.38
1080.7
1081.03
1081.36
1081.69
1082.02
1082.35
1082.68
1083.01
1083.34
1083.67
1084
1084.33
1084.66
1084.99
1085.32
1085.65
1085.98
1086.31
1086.64
1086.97
1087.3
1087.64
1087.97
1088.3
1088.63
1088.96
1089.3
1089.63
1089.96
1090.3
1090.63
1090.97
1091.3
1091.64
1091.98
1092.31
1092.65
1092.99
1093.33
1093.67
1094.01
1094.35
1094.69
1095.03
1095.37
1095.71
1096.06
1096.4
1096.74
1097.09
1097.43
1097.78
1098.13
1098.47
1098.82
1099.17
1099.52
1099.87
1100.22
1100.57
1100.92
1101.28
1101.63
1101.99
1102.34
1102.7
1103.05
1103.41
1103.76
1104.12
1104.47
1104.83
1105.19
1105.54
1105.9
1106.25
1106.6
1106.96
1107.31
1107.66
1108.01
1108.37
1108.72
1109.07
1109.42
1109.77
1110.12
1110.47
1110.82
1111.17
1111.52
1111.87
1112.22
1112.57
1112.92
1113.27
1113.62
1113.97
1114.32
1114.66
1115.01
1115.36
1115.71
1116.05
1116.4
1116.75
1117.09
1117.44
1117.79
1118.13
1118.48
1118.82
1119.17
1119.51
1119.86
1120.2
1120.55
1120.9
1121.24
1121.59
1121.93
1122.28
1122.62
1122.97
1123.31
1123.66
1124
1124.35
1124.69
1125.03
1125.38
1125.72
1126.06
1126.41
1126.75
1127.09
1127.43
1127.78
1128.12
1128.46
1128.81
1129.15
1129.5
1129.84
1130.19
1130.53
1130.88
1131.23
1131.58
1131.92
1132.27
1132.62
1132.97
1133.32
1133.67
1134.02
1134.37
1134.72
1135.07
1135.42
1135.77
1136.12
1136.47
1136.81
1137.16
1137.51
1137.85
1138.2
1138.54
1138.88
1139.23
1139.57
1139.91
1140.25
1140.6
1140.94
1141.28
1141.62
1141.96
1142.3
1142.64
1142.98
1143.33
1143.67
1144.01
1144.36
1144.7
1145.05
1145.4
1145.74
1146.09
1146.44
1146.79
1147.15
1147.5
1147.85
1148.21
1148.56
1148.92
1149.28
1149.64
1149.99
1150.35
1150.71
1151.07
1151.43
1151.79
1152.15
1152.5
1152.86
1153.22
1153.58
1153.93
1154.29
1154.65
1155
1155.36
1155.71
1156.06
1156.41
1156.76
1157.12
1157.46
1157.81
1158.16
1158.51
1158.85
1159.2
1159.54
1159.89
1160.23
1160.58
1160.92
1161.27
1161.61
1161.95
1162.3
1162.64
1162.98
1163.33
1163.67
1164.01
1164.36
1164.7
1165.05
1165.39
1165.74
1166.08
1166.43
1166.77
1167.12
1167.47
1167.81
1168.16
1168.5
1168.85
1169.2
1169.54
1169.89
1170.24
1170.58
1170.93
1171.28
1171.62
1171.97
1172.32
1172.67
1173.01
1173.36
1173.71
1174.05
1174.4
1174.75
1175.1
1175.45
1175.79
1176.14
1176.49
1176.84
1177.19
1177.54
1177.88
1178.23
1178.58
1178.93
1179.28
1179.63
1179.97
1180.32
1180.67
1181.02
1181.37
1181.72
1182.07
1182.42
1182.77
1183.12
1183.47
1183.82
1184.18
1184.53
1184.88
1185.23
1185.59
1185.94
1186.29
1186.65
1187
1187.35
1187.71
1188.06
1188.41
1188.76
1189.12
1189.47
1189.82
1190.17
1190.52
1190.87
1191.22
1191.57
1191.92
1192.28
1192.63
1192.98
1193.33
1193.69
1194.04
1194.39
1194.75
1195.1
1195.46
1195.81
1196.16
1196.51
1196.86
1197.21
1197.56
1197.91
1198.26
1198.61
1198.96
1199.31
1199.65
1200
1200.35
1200.7
1201.05
1201.4
1201.74
1202.09
1202.44
1202.8
1203.14
1203.5
1203.85
1204.2
1204.54
1204.9
1205.24
1205.59
1205.94
1206.29
1206.63
1206.98
1207.32
1207.67
1208
1208.37
1208.67
1209.07
1209.33
1209.81
1210.03
1210.97
1211.99
1214.94
1216.37
1218.26
1219
1221.76
1222.72
1226.41
1226.61
1229.03
1227.8
1229.3
965.926
968.096
968.831
971.496
972.544
974.593
975.419
976.894
977.555
978.614
979.185
979.976
980.488
981.102
981.577
982.104
982.558
983.026
983.454
983.89
984.301
984.714
985.116
985.518
985.913
986.307
986.697
987.086
987.471
987.853
988.235
988.616
988.994
989.371
989.747
990.124
990.501
990.876
991.252
991.627
992.002
992.376
992.749
993.122
993.494
993.867
994.239
994.61
994.981
995.351
995.721
996.089
996.457
996.824
997.189
997.555
997.92
998.283
998.645
999.004
999.359
999.7
1000.02
1000.33
1000.64
1000.95
1001.25
1001.56
1001.87
1002.18
1002.48
1002.79
1003.1
1003.41
1003.72
1004.03
1004.34
1004.65
1004.96
1005.27
1005.58
1005.89
1006.21
1006.52
1006.84
1007.15
1007.47
1007.78
1008.1
1008.41
1008.73
1009.04
1009.36
1009.68
1009.99
1010.31
1010.63
1010.95
1011.26
1011.58
1011.9
1012.22
1012.53
1012.85
1013.16
1013.48
1013.79
1014.11
1014.42
1014.74
1015.05
1015.37
1015.68
1015.99
1016.31
1016.62
1016.93
1017.24
1017.56
1017.87
1018.18
1018.49
1018.8
1019.11
1019.42
1019.74
1020.05
1020.36
1020.67
1020.98
1021.29
1021.6
1021.91
1022.22
1022.54
1022.85
1023.16
1023.47
1023.79
1024.1
1024.42
1024.73
1025.05
1025.37
1025.68
1026
1026.32
1026.64
1026.96
1027.28
1027.61
1027.93
1028.25
1028.58
1028.9
1029.23
1029.56
1029.88
1030.21
1030.54
1030.87
1031.19
1031.52
1031.85
1032.18
1032.51
1032.84
1033.17
1033.5
1033.83
1034.16
1034.49
1034.82
1035.15
1035.48
1035.81
1036.14
1036.47
1036.8
1037.13
1037.46
1037.79
1038.12
1038.45
1038.78
1039.11
1039.45
1039.78
1040.11
1040.44
1040.78
1041.11
1041.45
1041.78
1042.11
1042.45
1042.79
1043.12
1043.46
1043.8
1044.14
1044.48
1044.82
1045.16
1045.5
1045.84
1046.18
1046.52
1046.86
1047.2
1047.55
1047.89
1048.24
1048.58
1048.93
1049.27
1049.62
1049.97
1050.32
1050.67
1051.02
1051.37
1051.72
1052.07
1052.43
1052.78
1053.13
1053.49
1053.84
1054.2
1054.55
1054.91
1055.27
1055.62
1055.98
1056.33
1056.69
1057.04
1057.4
1057.75
1058.1
1058.46
1058.81
1059.16
1059.51
1059.87
1060.22
1060.57
1060.92
1061.27
1061.62
1061.97
1062.32
1062.67
1063.02
1063.37
1063.72
1064.07
1064.42
1064.77
1065.11
1065.46
1065.81
1066.16
1066.51
1066.85
1067.2
1067.55
1067.9
1068.24
1068.59
1068.93
1069.28
1069.63
1069.97
1070.32
1070.66
1071.01
1071.35
1071.7
1072.04
1072.39
1072.73
1073.08
1073.42
1073.77
1074.11
1074.46
1074.8
1075.15
1075.49
1075.84
1076.18
1076.52
1076.87
1077.21
1077.55
1077.9
1078.24
1078.58
1078.92
1079.27
1079.61
1079.95
1080.3
1080.64
1080.99
1081.33
1081.68
1082.03
1082.38
1082.72
1083.07
1083.42
1083.77
1084.12
1084.47
1084.82
1085.17
1085.52
1085.87
1086.22
1086.57
1086.92
1087.27
1087.61
1087.96
1088.31
1088.65
1089
1089.34
1089.69
1090.03
1090.38
1090.72
1091.06
1091.4
1091.74
1092.08
1092.42
1092.77
1093.11
1093.45
1093.79
1094.13
1094.47
1094.82
1095.16
1095.5
1095.85
1096.2
1096.54
1096.89
1097.24
1097.59
1097.94
1098.29
1098.65
1099
1099.36
1099.71
1100.07
1100.42
1100.78
1101.14
1101.5
1101.86
1102.22
1102.58
1102.93
1103.29
1103.65
1104.01
1104.37
1104.72
1105.08
1105.44
1105.79
1106.15
1106.5
1106.86
1107.21
1107.56
1107.91
1108.26
1108.61
1108.96
1109.31
1109.66
1110
1110.35
1110.69
1111.04
1111.38
1111.73
1112.07
1112.41
1112.76
1113.1
1113.44
1113.79
1114.13
1114.47
1114.82
1115.16
1115.51
1115.85
1116.19
1116.54
1116.88
1117.23
1117.58
1117.92
1118.27
1118.61
1118.96
1119.31
1119.65
1120
1120.34
1120.69
1121.04
1121.38
1121.73
1122.08
1122.42
1122.77
1123.12
1123.47
1123.81
1124.16
1124.51
1124.85
1125.2
1125.55
1125.9
1126.25
1126.59
1126.94
1127.29
1127.64
1127.99
1128.33
1128.68
1129.03
1129.38
1129.73
1130.08
1130.42
1130.77
1131.12
1131.47
1131.82
1132.17
1132.52
1132.87
1133.22
1133.57
1133.92
1134.27
1134.62
1134.97
1135.32
1135.68
1136.03
1136.38
1136.73
1137.09
1137.44
1137.79
1138.15
1138.5
1138.85
1139.21
1139.56
1139.91
1140.26
1140.61
1140.97
1141.32
1141.67
1142.02
1142.37
1142.72
1143.07
1143.42
1143.77
1144.13
1144.48
1144.83
1145.19
1145.54
1145.9
1146.25
1146.6
1146.96
1147.31
1147.66
1148.01
1148.36
1148.71
1149.06
1149.41
1149.76
1150.1
1150.45
1150.8
1151.15
1151.5
1151.84
1152.19
1152.54
1152.89
1153.24
1153.59
1153.94
1154.29
1154.64
1154.99
1155.34
1155.69
1156.04
1156.39
1156.74
1157.08
1157.43
1157.78
1158.13
1158.46
1158.82
1159.14
1159.51
1159.81
1160.21
1160.47
1160.96
1161.19
1162.22
1163.18
1165.89
1167.26
1169.18
1169.84
1172.54
1173.35
1176.92
1177.16
1179.79
1178.8
1180.68
916.705
919.133
919.859
922.647
923.709
925.783
926.609
928.086
928.745
929.799
930.365
931.15
931.656
932.27
932.743
933.27
933.72
934.187
934.613
935.047
935.457
935.868
936.268
936.669
937.063
937.456
937.846
938.234
938.618
939.001
939.382
939.761
940.14
940.517
940.894
941.271
941.647
942.023
942.399
942.774
943.149
943.523
943.897
944.27
944.643
945.015
945.387
945.759
946.13
946.5
946.87
947.238
947.606
947.973
948.339
948.704
949.068
949.431
949.792
950.15
950.504
950.844
951.167
951.48
951.789
952.096
952.403
952.71
953.017
953.324
953.632
953.94
954.248
954.556
954.865
955.175
955.485
955.795
956.107
956.418
956.73
957.043
957.356
957.67
957.984
958.299
958.614
958.93
959.245
959.561
959.877
960.193
960.51
960.827
961.144
961.461
961.779
962.097
962.414
962.731
963.048
963.364
963.681
963.997
964.312
964.628
964.943
965.258
965.572
965.887
966.201
966.515
966.829
967.142
967.454
967.767
968.08
968.392
968.704
969.016
969.328
969.639
969.951
970.262
970.573
970.885
971.196
971.507
971.818
972.129
972.44
972.751
973.062
973.374
973.686
973.998
974.31
974.623
974.937
975.251
975.566
975.882
976.198
976.515
976.833
977.151
977.47
977.79
978.111
978.433
978.755
979.078
979.402
979.727
980.052
980.378
980.705
981.032
981.359
981.687
982.015
982.344
982.672
983.001
983.331
983.66
983.989
984.319
984.649
984.978
985.308
985.638
985.968
986.298
986.628
986.958
987.288
987.618
987.948
988.278
988.609
988.939
989.27
989.601
989.932
990.264
990.595
990.927
991.26
991.593
991.926
992.259
992.594
992.928
993.263
993.599
993.935
994.272
994.609
994.947
995.285
995.624
995.964
996.303
996.644
996.985
997.326
997.668
998.01
998.353
998.696
999.04
999.385
999.73
1000.08
1000.42
1000.77
1001.12
1001.47
1001.82
1002.17
1002.52
1002.87
1003.22
1003.57
1003.93
1004.28
1004.64
1004.99
1005.35
1005.7
1006.06
1006.41
1006.77
1007.13
1007.48
1007.84
1008.19
1008.55
1008.9
1009.25
1009.61
1009.96
1010.31
1010.66
1011.01
1011.36
1011.72
1012.07
1012.42
1012.77
1013.12
1013.47
1013.82
1014.17
1014.52
1014.87
1015.21
1015.56
1015.91
1016.26
1016.61
1016.96
1017.31
1017.66
1018
1018.35
1018.7
1019.04
1019.39
1019.74
1020.08
1020.43
1020.77
1021.12
1021.46
1021.81
1022.15
1022.5
1022.84
1023.19
1023.54
1023.88
1024.23
1024.57
1024.92
1025.26
1025.61
1025.95
1026.3
1026.64
1026.99
1027.33
1027.67
1028.02
1028.36
1028.7
1029.04
1029.39
1029.73
1030.07
1030.42
1030.76
1031.1
1031.45
1031.79
1032.14
1032.48
1032.83
1033.18
1033.52
1033.87
1034.22
1034.57
1034.92
1035.27
1035.62
1035.97
1036.32
1036.67
1037.02
1037.37
1037.72
1038.06
1038.41
1038.76
1039.11
1039.46
1039.8
1040.15
1040.49
1040.84
1041.18
1041.52
1041.87
1042.21
1042.55
1042.89
1043.23
1043.57
1043.91
1044.25
1044.59
1044.94
1045.28
1045.62
1045.96
1046.31
1046.65
1047
1047.34
1047.69
1048.04
1048.39
1048.74
1049.09
1049.44
1049.79
1050.15
1050.5
1050.86
1051.22
1051.57
1051.93
1052.29
1052.65
1053.01
1053.36
1053.72
1054.08
1054.44
1054.8
1055.16
1055.52
1055.87
1056.23
1056.59
1056.94
1057.3
1057.65
1058
1058.36
1058.71
1059.06
1059.41
1059.76
1060.11
1060.46
1060.8
1061.15
1061.49
1061.84
1062.18
1062.53
1062.87
1063.22
1063.56
1063.9
1064.25
1064.59
1064.93
1065.28
1065.62
1065.97
1066.31
1066.65
1067
1067.34
1067.69
1068.03
1068.38
1068.72
1069.07
1069.41
1069.76
1070.11
1070.45
1070.8
1071.15
1071.49
1071.84
1072.19
1072.53
1072.88
1073.23
1073.57
1073.92
1074.27
1074.61
1074.96
1075.31
1075.65
1076
1076.35
1076.7
1077.05
1077.39
1077.74
1078.09
1078.44
1078.79
1079.13
1079.48
1079.83
1080.18
1080.53
1080.88
1081.22
1081.57
1081.92
1082.27
1082.62
1082.97
1083.32
1083.67
1084.02
1084.37
1084.72
1085.07
1085.42
1085.77
1086.12
1086.47
1086.82
1087.18
1087.53
1087.88
1088.24
1088.59
1088.94
1089.3
1089.65
1090
1090.35
1090.71
1091.06
1091.41
1091.76
1092.11
1092.46
1092.81
1093.17
1093.52
1093.87
1094.22
1094.57
1094.92
1095.28
1095.63
1095.98
1096.34
1096.69
1097.04
1097.4
1097.75
1098.1
1098.46
1098.81
1099.16
1099.51
1099.86
1100.21
1100.56
1100.9
1101.25
1101.6
1101.95
1102.3
1102.64
1102.99
1103.34
1103.69
1104.04
1104.39
1104.74
1105.09
1105.44
1105.79
1106.14
1106.49
1106.84
1107.19
1107.54
1107.89
1108.23
1108.58
1108.92
1109.27
1109.61
1109.96
1110.29
1110.66
1110.95
1111.36
1111.61
1112.12
1112.37
1113.43
1114.36
1116.89
1118.1
1120.07
1120.63
1123.25
1123.91
1127.33
1127.6
1130.42
1129.88
1132.05
867.41
870.19
870.904
873.834
874.908
877.001
877.812
879.285
879.929
880.977
881.535
882.315
882.818
883.43
883.9
884.422
884.87
885.336
885.761
886.195
886.605
887.018
887.418
887.819
888.213
888.607
888.996
889.384
889.769
890.151
890.532
890.913
891.291
891.668
892.044
892.421
892.797
893.173
893.548
893.923
894.298
894.672
895.045
895.418
895.791
896.163
896.535
896.906
897.277
897.647
898.016
898.385
898.753
899.119
899.485
899.85
900.214
900.577
900.938
901.296
901.648
901.987
902.311
902.626
902.936
903.244
903.551
903.858
904.166
904.473
904.781
905.088
905.396
905.704
906.013
906.323
906.633
906.944
907.256
907.568
907.879
908.192
908.505
908.819
909.133
909.448
909.763
910.079
910.394
910.71
911.026
911.343
911.659
911.976
912.293
912.61
912.927
913.245
913.562
913.879
914.196
914.513
914.829
915.145
915.461
915.776
916.092
916.406
916.721
917.035
917.35
917.664
917.978
918.29
918.602
918.915
919.229
919.541
919.853
920.165
920.477
920.788
921.1
921.411
921.722
922.033
922.345
922.656
922.967
923.278
923.589
923.9
924.211
924.523
924.835
925.147
925.459
925.772
926.086
926.4
926.715
927.03
927.347
927.664
927.981
928.3
928.619
928.939
929.26
929.582
929.904
930.227
930.551
930.876
931.201
931.527
931.853
932.18
932.508
932.836
933.164
933.492
933.821
934.15
934.479
934.809
935.138
935.468
935.798
936.127
936.457
936.787
937.117
937.447
937.777
938.107
938.437
938.767
939.097
939.427
939.758
940.088
940.419
940.75
941.081
941.413
941.744
942.076
942.409
942.742
943.075
943.408
943.742
944.077
944.412
944.748
945.084
945.421
945.758
946.096
946.434
946.773
947.112
947.452
947.792
948.133
948.475
948.816
949.159
949.502
949.845
950.189
950.534
950.879
951.225
951.571
951.918
952.266
952.614
952.964
953.314
953.665
954.017
954.369
954.722
955.076
955.43
955.785
956.14
956.496
956.852
957.207
957.563
957.919
958.275
958.63
958.985
959.34
959.695
960.049
960.402
960.755
961.108
961.46
961.811
962.163
962.513
962.864
963.214
963.565
963.915
964.265
964.614
964.964
965.314
965.664
966.013
966.363
966.712
967.062
967.411
967.759
968.108
968.456
968.804
969.151
969.498
969.845
970.192
970.538
970.884
971.23
971.576
971.921
972.267
972.612
972.957
973.302
973.647
973.993
974.338
974.684
975.029
975.374
975.72
976.065
976.41
976.755
977.1
977.445
977.789
978.133
978.477
978.821
979.164
979.507
979.849
980.192
980.535
980.877
981.22
981.563
981.907
982.25
982.594
982.939
983.284
983.63
983.976
984.323
984.671
985.019
985.367
985.716
986.065
986.415
986.765
987.115
987.465
987.815
988.165
988.515
988.864
989.213
989.562
989.91
990.258
990.605
990.951
991.296
991.641
991.985
992.329
992.672
993.014
993.356
993.698
994.039
994.38
994.72
995.061
995.402
995.743
996.084
996.426
996.768
997.111
997.455
997.8
998.145
998.491
998.838
999.186
999.535
999.885
1000.24
1000.59
1000.94
1001.3
1001.65
1002.01
1002.36
1002.72
1003.08
1003.44
1003.79
1004.15
1004.51
1004.87
1005.23
1005.59
1005.95
1006.31
1006.66
1007.02
1007.38
1007.73
1008.09
1008.44
1008.8
1009.15
1009.51
1009.86
1010.21
1010.56
1010.91
1011.26
1011.6
1011.95
1012.3
1012.64
1012.99
1013.33
1013.68
1014.02
1014.36