/*--------------------------------*- C++ -*----------------------------------*\
| =========                 |                                                 |
| \\      /  F ield         | foam-extend: Open Source CFD                    |
|  \\    /   O peration     | Version:     3.2                                |
|   \\  /    A nd           | Web:         http://www.foam-extend.org         |
|    \\/     M anipulation  | For copyright notice see file Copyright         |
\*---------------------------------------------------------------------------*/
FoamFile
{
    version     2.0;
    format      ascii;
    class       surfaceScalarField;
    location    "120";
    object      phi;
}
// * * * * * * * * * * * * * * * * * * * * * * * * * * * * * * * * * * * * * //

dimensions      [0 3 -1 0 0 0 0];

internalField   nonuniform List<scalar> 
65390
(
3.54969e-05
6.03109e-07
3.49774e-05
5.19445e-07
3.43149e-05
6.62513e-07
3.36653e-05
6.49646e-07
3.2995e-05
6.70288e-07
3.23758e-05
6.19224e-07
3.17628e-05
6.13014e-07
3.11903e-05
5.72479e-07
3.06275e-05
5.62782e-07
3.00942e-05
5.33274e-07
2.9575e-05
5.19265e-07
2.90822e-05
4.92714e-07
2.86066e-05
4.75606e-07
2.81505e-05
4.56109e-07
2.77094e-05
4.41133e-07
2.72872e-05
4.22211e-07
2.68836e-05
4.03539e-07
2.64986e-05
3.85067e-07
2.61286e-05
3.70022e-07
2.5773e-05
3.55552e-07
2.54315e-05
3.41541e-07
2.51041e-05
3.27414e-07
2.47909e-05
3.1318e-07
2.44927e-05
2.98218e-07
2.42098e-05
2.82891e-07
2.39425e-05
2.67223e-07
2.36905e-05
2.51997e-07
2.34524e-05
2.38162e-07
2.32267e-05
2.25708e-07
2.30126e-05
2.14096e-07
2.28095e-05
2.03049e-07
2.26173e-05
1.92271e-07
2.24353e-05
1.81961e-07
2.22631e-05
1.72223e-07
2.21001e-05
1.62981e-07
2.1946e-05
1.54068e-07
2.18005e-05
1.45505e-07
2.16631e-05
1.37376e-07
2.15335e-05
1.2965e-07
2.14113e-05
1.22186e-07
2.12963e-05
1.15043e-07
2.11878e-05
1.08445e-07
2.10855e-05
1.02322e-07
2.09889e-05
9.65936e-08
2.08977e-05
9.12102e-08
2.08116e-05
8.60915e-08
2.07304e-05
8.12463e-08
2.06537e-05
7.6676e-08
2.05813e-05
7.23715e-08
2.0513e-05
6.82961e-08
2.04486e-05
6.44299e-08
2.03878e-05
6.08182e-08
2.03303e-05
5.74934e-08
2.02758e-05
5.44624e-08
2.02241e-05
5.17031e-08
2.0175e-05
4.91365e-08
2.01282e-05
4.6764e-08
2.00838e-05
4.44232e-08
2.0041e-05
4.27877e-08
1.99998e-05
4.11645e-08
1.99622e-05
3.76882e-08
1.99283e-05
3.38819e-08
1.98969e-05
3.13701e-08
1.98669e-05
2.9892e-08
1.98381e-05
2.87884e-08
1.98104e-05
2.76106e-08
1.97839e-05
2.64745e-08
1.97584e-05
2.5369e-08
1.97339e-05
2.43316e-08
1.97104e-05
2.33793e-08
1.96877e-05
2.25026e-08
1.96659e-05
2.17021e-08
1.96446e-05
2.10176e-08
1.9624e-05
2.04076e-08
1.9604e-05
1.9822e-08
1.95845e-05
1.92631e-08
1.95655e-05
1.87291e-08
1.95471e-05
1.8146e-08
1.95293e-05
1.74885e-08
1.95121e-05
1.69043e-08
1.94954e-05
1.64127e-08
1.94791e-05
1.59505e-08
1.94632e-05
1.55276e-08
1.94478e-05
1.51324e-08
1.94326e-05
1.47692e-08
1.94178e-05
1.44318e-08
1.94033e-05
1.41244e-08
1.93891e-05
1.38326e-08
1.93751e-05
1.35685e-08
1.93612e-05
1.33999e-08
1.93475e-05
1.32983e-08
1.93339e-05
1.31586e-08
1.93204e-05
1.30014e-08
1.93071e-05
1.28392e-08
1.92939e-05
1.26483e-08
1.9281e-05
1.24453e-08
1.92683e-05
1.2197e-08
1.92559e-05
1.18268e-08
1.92438e-05
1.15386e-08
1.92319e-05
1.13894e-08
1.92201e-05
1.12513e-08
1.92084e-05
1.11488e-08
1.91967e-05
1.10687e-08
1.91851e-05
1.10175e-08
1.91735e-05
1.0989e-08
1.91619e-05
1.09851e-08
1.91502e-05
1.10013e-08
1.91385e-05
1.10353e-08
1.91268e-05
1.10837e-08
1.9115e-05
1.1141e-08
1.91031e-05
1.12099e-08
1.90911e-05
1.12707e-08
1.90791e-05
1.12883e-08
1.9067e-05
1.13467e-08
1.90547e-05
1.15437e-08
1.90423e-05
1.17456e-08
1.90297e-05
1.17906e-08
1.90171e-05
1.18293e-08
1.90044e-05
1.19211e-08
1.89916e-05
1.20111e-08
1.89786e-05
1.21084e-08
1.89656e-05
1.22037e-08
1.89524e-05
1.23012e-08
1.89392e-05
1.23987e-08
1.89258e-05
1.24952e-08
1.89124e-05
1.25859e-08
1.88988e-05
1.2669e-08
1.88851e-05
1.27421e-08
1.88714e-05
1.28065e-08
1.88576e-05
1.28634e-08
1.88437e-05
1.29157e-08
1.88298e-05
1.29655e-08
1.88158e-05
1.30123e-08
1.88018e-05
1.3057e-08
1.87877e-05
1.30981e-08
1.87735e-05
1.31351e-08
1.87593e-05
1.31681e-08
1.87451e-05
1.31969e-08
1.87308e-05
1.32225e-08
1.87165e-05
1.32423e-08
1.87022e-05
1.32582e-08
1.86878e-05
1.32675e-08
1.86735e-05
1.32733e-08
1.86591e-05
1.32728e-08
1.86447e-05
1.32685e-08
1.86303e-05
1.32597e-08
1.86159e-05
1.325e-08
1.86015e-05
1.32392e-08
1.85871e-05
1.32277e-08
1.85728e-05
1.32136e-08
1.85584e-05
1.31949e-08
1.8544e-05
1.31703e-08
1.85297e-05
1.31374e-08
1.85154e-05
1.30954e-08
1.85011e-05
1.30447e-08
1.84869e-05
1.29856e-08
1.84728e-05
1.2918e-08
1.84587e-05
1.28417e-08
1.84447e-05
1.27567e-08
1.84307e-05
1.26634e-08
1.84169e-05
1.25619e-08
1.84032e-05
1.24524e-08
1.83895e-05
1.23336e-08
1.8376e-05
1.22061e-08
1.83627e-05
1.20703e-08
1.83494e-05
1.19281e-08
1.83363e-05
1.17803e-08
1.83234e-05
1.16276e-08
1.83105e-05
1.14707e-08
1.82979e-05
1.13113e-08
1.82854e-05
1.11507e-08
1.8273e-05
1.09894e-08
1.82608e-05
1.08277e-08
1.82488e-05
1.06663e-08
1.82369e-05
1.05075e-08
1.82252e-05
1.03531e-08
1.82136e-05
1.02027e-08
1.82021e-05
1.00583e-08
1.81908e-05
9.92132e-09
1.81795e-05
9.79384e-09
1.81684e-05
9.67451e-09
1.81575e-05
9.56283e-09
1.81466e-05
9.45753e-09
1.81358e-05
9.35214e-09
1.81251e-05
9.24998e-09
1.81145e-05
9.15247e-09
1.81039e-05
9.06307e-09
1.80935e-05
8.98018e-09
1.80831e-05
8.9016e-09
1.80728e-05
8.8298e-09
1.80626e-05
8.76144e-09
1.80524e-05
8.69832e-09
1.80423e-05
8.63839e-09
1.80322e-05
8.58245e-09
1.80222e-05
8.52964e-09
1.80122e-05
8.47915e-09
1.80022e-05
8.4281e-09
1.79923e-05
8.37545e-09
1.79825e-05
8.32087e-09
1.79727e-05
8.26383e-09
1.7963e-05
8.2015e-09
1.79534e-05
8.13285e-09
1.79438e-05
8.05527e-09
1.79343e-05
7.96754e-09
1.79249e-05
7.87152e-09
1.79156e-05
7.77372e-09
1.79063e-05
7.67289e-09
1.78972e-05
7.56823e-09
1.78882e-05
7.46017e-09
1.78793e-05
7.35504e-09
1.78705e-05
7.27824e-09
1.78617e-05
7.22056e-09
1.7853e-05
7.15532e-09
1.78444e-05
7.08229e-09
1.78359e-05
6.99887e-09
1.78274e-05
6.90591e-09
1.7819e-05
6.80627e-09
1.78108e-05
6.70189e-09
1.78026e-05
6.5949e-09
1.77946e-05
6.48587e-09
1.77866e-05
6.37659e-09
1.77788e-05
6.26633e-09
1.77711e-05
6.14783e-09
1.77635e-05
6.019e-09
1.77561e-05
5.88588e-09
1.77488e-05
5.75447e-09
1.77416e-05
5.62254e-09
1.77345e-05
5.48439e-09
1.77276e-05
5.34156e-09
1.77209e-05
5.19572e-09
1.77143e-05
5.04726e-09
1.77078e-05
4.89336e-09
1.77015e-05
4.73215e-09
1.76954e-05
4.56489e-09
1.76894e-05
4.39565e-09
1.76836e-05
4.2226e-09
1.7678e-05
4.04489e-09
1.76726e-05
3.8618e-09
1.76674e-05
3.67726e-09
1.76623e-05
3.48962e-09
1.76575e-05
3.30039e-09
1.76528e-05
3.10922e-09
1.76483e-05
2.91908e-09
1.7644e-05
2.73203e-09
1.76399e-05
2.55159e-09
1.7636e-05
2.37714e-09
1.76322e-05
2.20786e-09
1.76286e-05
2.04778e-09
1.76252e-05
1.89701e-09
1.76219e-05
1.75357e-09
1.76187e-05
1.61438e-09
1.76157e-05
1.48251e-09
1.76128e-05
1.35576e-09
1.761e-05
1.2322e-09
1.76073e-05
1.1129e-09
1.76048e-05
1.00097e-09
1.76023e-05
8.99479e-10
1.76e-05
8.04909e-10
1.75977e-05
7.1582e-10
1.75955e-05
6.29353e-10
1.75935e-05
5.34003e-10
1.75915e-05
4.45092e-10
1.75895e-05
3.72307e-10
1.75877e-05
3.08115e-10
1.75859e-05
2.57433e-10
1.75841e-05
2.13559e-10
1.75824e-05
1.72589e-10
1.75807e-05
1.37276e-10
1.7579e-05
1.12005e-10
1.75774e-05
1.0036e-10
1.75757e-05
1.03361e-10
1.7574e-05
1.19418e-10
1.75723e-05
1.50756e-10
1.75706e-05
1.95039e-10
1.75687e-05
2.54829e-10
1.75669e-05
3.25198e-10
1.75649e-05
4.02579e-10
1.75628e-05
4.84746e-10
1.75607e-05
5.75668e-10
1.75584e-05
6.72851e-10
1.75561e-05
7.75624e-10
1.75536e-05
8.7937e-10
1.75511e-05
9.83932e-10
1.75484e-05
1.08806e-09
1.75456e-05
1.1918e-09
1.75428e-05
1.28909e-09
1.75398e-05
1.38198e-09
1.75367e-05
1.46888e-09
1.75336e-05
1.55147e-09
1.75304e-05
1.62767e-09
1.75271e-05
1.70402e-09
1.75237e-05
1.77771e-09
1.75203e-05
1.85153e-09
1.75167e-05
1.92209e-09
1.75131e-05
1.9931e-09
1.75095e-05
2.06331e-09
1.75057e-05
2.13599e-09
1.75019e-05
2.21476e-09
1.7498e-05
2.30043e-09
1.7494e-05
2.3944e-09
1.74898e-05
2.49411e-09
1.74856e-05
2.59849e-09
1.74813e-05
2.70691e-09
1.74769e-05
2.81609e-09
1.74723e-05
2.9273e-09
1.74676e-05
3.03946e-09
1.74628e-05
3.15103e-09
1.74579e-05
3.25871e-09
1.74529e-05
3.36092e-09
1.74478e-05
3.45714e-09
1.74427e-05
3.548e-09
1.74374e-05
3.63411e-09
1.7432e-05
3.71512e-09
1.74266e-05
3.79008e-09
1.74211e-05
3.8588e-09
1.74155e-05
3.92125e-09
1.74099e-05
3.97503e-09
1.74042e-05
4.02267e-09
1.73984e-05
4.06232e-09
1.73927e-05
4.09468e-09
1.73869e-05
4.11499e-09
1.73811e-05
4.12586e-09
1.73753e-05
4.12341e-09
1.73695e-05
4.11313e-09
1.73638e-05
4.0914e-09
1.7358e-05
4.06428e-09
1.73523e-05
4.02864e-09
1.73467e-05
3.98955e-09
1.7341e-05
3.94673e-09
1.73354e-05
3.90453e-09
1.73299e-05
3.86214e-09
1.73244e-05
3.81946e-09
1.73189e-05
3.77636e-09
1.73135e-05
3.73594e-09
1.73081e-05
3.70054e-09
1.73028e-05
3.66978e-09
1.72974e-05
3.64548e-09
1.72921e-05
3.62941e-09
1.72868e-05
3.6217e-09
1.72815e-05
3.62032e-09
1.72762e-05
3.62447e-09
1.72708e-05
3.63785e-09
1.72655e-05
3.66662e-09
1.72601e-05
3.70856e-09
1.72546e-05
3.76236e-09
1.72491e-05
3.82725e-09
1.72435e-05
3.90359e-09
1.72378e-05
3.98693e-09
1.7232e-05
4.06937e-09
1.72262e-05
4.14223e-09
1.72203e-05
4.20357e-09
1.72143e-05
4.25552e-09
1.72083e-05
4.31571e-09
1.72022e-05
4.38565e-09
1.7196e-05
4.44929e-09
1.71898e-05
4.49741e-09
1.71836e-05
4.52755e-09
1.71773e-05
4.54535e-09
1.71711e-05
4.55433e-09
1.71648e-05
4.55309e-09
1.71585e-05
4.54255e-09
1.71523e-05
4.52558e-09
1.71461e-05
4.49848e-09
1.71399e-05
4.45741e-09
1.71338e-05
4.40864e-09
1.71277e-05
4.35574e-09
1.71217e-05
4.29134e-09
1.71158e-05
4.21496e-09
1.71099e-05
4.12584e-09
1.71042e-05
4.02856e-09
1.70986e-05
3.91972e-09
1.7093e-05
3.80117e-09
1.70876e-05
3.67468e-09
1.70824e-05
3.54357e-09
1.70772e-05
3.40916e-09
1.70722e-05
3.2755e-09
1.70674e-05
3.14646e-09
1.70626e-05
3.02586e-09
1.7058e-05
2.914e-09
1.70534e-05
2.80869e-09
1.7049e-05
2.70419e-09
1.70447e-05
2.59955e-09
1.70404e-05
2.49678e-09
1.70363e-05
2.39592e-09
1.70323e-05
2.29672e-09
1.70283e-05
2.19859e-09
1.70245e-05
2.10269e-09
1.70207e-05
2.01781e-09
1.70171e-05
1.93553e-09
1.70135e-05
1.85495e-09
1.70099e-05
1.78968e-09
1.70064e-05
1.73392e-09
1.7003e-05
1.67706e-09
1.69996e-05
1.6268e-09
1.69963e-05
1.58836e-09
1.69929e-05
1.56182e-09
1.69896e-05
1.54038e-09
1.69863e-05
1.52407e-09
1.69831e-05
1.51474e-09
1.69798e-05
1.51394e-09
1.69765e-05
1.51962e-09
1.69732e-05
1.53301e-09
1.69698e-05
1.55297e-09
1.69665e-05
1.58777e-09
1.6963e-05
1.63371e-09
1.69596e-05
1.6888e-09
1.6956e-05
1.7463e-09
1.69524e-05
1.80511e-09
1.69488e-05
1.86517e-09
1.6945e-05
1.93045e-09
1.69412e-05
1.99615e-09
1.69374e-05
2.06177e-09
1.69335e-05
2.11952e-09
1.69295e-05
2.17168e-09
1.69254e-05
2.21514e-09
1.69214e-05
2.25756e-09
1.69172e-05
2.29736e-09
1.69131e-05
2.34002e-09
1.69089e-05
2.37994e-09
1.69046e-05
2.42016e-09
1.69003e-05
2.45601e-09
1.6896e-05
2.48849e-09
1.68917e-05
2.51673e-09
1.68873e-05
2.54756e-09
1.68828e-05
2.58191e-09
1.68784e-05
2.62571e-09
1.68738e-05
2.6798e-09
1.68692e-05
2.74969e-09
1.68645e-05
2.83378e-09
1.68597e-05
2.9305e-09
1.68548e-05
3.03568e-09
1.68498e-05
3.14508e-09
1.68447e-05
3.25779e-09
1.68394e-05
3.37266e-09
1.6834e-05
3.4898e-09
1.68285e-05
3.60963e-09
1.68229e-05
3.73021e-09
1.68172e-05
3.85097e-09
1.68113e-05
3.971e-09
1.68053e-05
4.09231e-09
1.67992e-05
4.21311e-09
1.67929e-05
4.33265e-09
1.67866e-05
4.44905e-09
1.67801e-05
4.55948e-09
1.67735e-05
4.66122e-09
1.67668e-05
4.7521e-09
1.67601e-05
4.83317e-09
1.67533e-05
4.90421e-09
1.67463e-05
4.97193e-09
1.67394e-05
5.03795e-09
1.67323e-05
5.09876e-09
1.67252e-05
5.15381e-09
1.67181e-05
5.20575e-09
1.67109e-05
5.26103e-09
1.67036e-05
5.32305e-09
1.66963e-05
5.39141e-09
1.66888e-05
5.46529e-09
1.66813e-05
5.54572e-09
1.66737e-05
5.63285e-09
1.66661e-05
5.72254e-09
1.66583e-05
5.81444e-09
1.66504e-05
5.90331e-09
1.66424e-05
5.98899e-09
1.66344e-05
6.06738e-09
1.66263e-05
6.1395e-09
1.66181e-05
6.20392e-09
1.66099e-05
6.2615e-09
1.66016e-05
6.30778e-09
1.65933e-05
6.34362e-09
1.65849e-05
6.36733e-09
1.65765e-05
6.37946e-09
1.65682e-05
6.37553e-09
1.65598e-05
6.35627e-09
1.65515e-05
6.31574e-09
1.65433e-05
6.26191e-09
1.65351e-05
6.19428e-09
1.6527e-05
6.12296e-09
1.65189e-05
6.04657e-09
1.65109e-05
5.9744e-09
1.6503e-05
5.90869e-09
1.64952e-05
5.86025e-09
1.64873e-05
5.82679e-09
1.64795e-05
5.81116e-09
1.64717e-05
5.80198e-09
1.64639e-05
5.79806e-09
1.64561e-05
5.78663e-09
1.64483e-05
5.76757e-09
1.64405e-05
5.73187e-09
1.64328e-05
5.68485e-09
1.64252e-05
5.62151e-09
1.64176e-05
5.55278e-09
1.64101e-05
5.47045e-09
1.64027e-05
5.38382e-09
1.63954e-05
5.27632e-09
1.63882e-05
5.15767e-09
1.63812e-05
5.00746e-09
1.63743e-05
4.84367e-09
1.63676e-05
4.64853e-09
1.63611e-05
4.4526e-09
1.63548e-05
4.24277e-09
1.63487e-05
4.05742e-09
1.63428e-05
3.87891e-09
1.6337e-05
3.74591e-09
1.63313e-05
3.62649e-09
1.63257e-05
3.55594e-09
1.63202e-05
3.49208e-09
1.63146e-05
3.47658e-09
1.63091e-05
3.45225e-09
1.63036e-05
3.47549e-09
1.6298e-05
3.47385e-09
1.62925e-05
3.52798e-09
1.62868e-05
3.54467e-09
1.62811e-05
3.61991e-09
1.62754e-05
3.6343e-09
1.62697e-05
3.713e-09
1.62639e-05
3.70725e-09
1.6258e-05
3.77871e-09
1.62522e-05
3.73803e-09
1.62463e-05
3.80473e-09
1.62405e-05
3.74337e-09
1.62345e-05
3.83112e-09
1.62287e-05
3.77572e-09
1.62226e-05
3.94736e-09
1.62165e-05
3.99319e-09
1.62101e-05
4.3396e-09
1.62032e-05
4.80884e-09
1.61956e-05
5.44813e-09
1.61865e-05
6.92937e-09
1.61758e-05
8.58048e-09
1.61623e-05
1.14584e-08
1.61447e-05
1.54229e-08
1.61214e-05
2.1134e-08
1.60896e-05
2.96609e-08
1.60464e-05
4.09517e-08
1.59876e-05
5.65407e-08
1.59023e-05
8.30845e-08
1.58082e-05
9.16845e-08
1.55289e-05
2.77037e-07
1.50286e-05
4.985e-07
1.44981e-05
5.29785e-07
1.3832e-05
6.66081e-07
1.28984e-05
9.33657e-07
1.1542e-05
1.3564e-06
9.81373e-06
1.72823e-06
7.53692e-06
2.27681e-06
4.01124e-06
3.52568e-06
8.40621e-07
3.17062e-06
-1.03084e-06
1.87146e-06
-2.74438e-06
1.71354e-06
-2.74438e-06
3.58777e-05
8.25374e-07
3.56368e-05
7.60419e-07
3.52274e-05
1.07186e-06
3.48126e-05
1.06443e-06
3.44152e-05
1.06771e-06
3.40551e-05
9.79304e-07
3.3705e-05
9.63136e-07
3.34052e-05
8.72262e-07
3.31357e-05
8.32321e-07
3.29112e-05
7.57736e-07
3.26985e-05
7.32034e-07
3.25002e-05
6.90944e-07
3.23025e-05
6.73283e-07
3.211e-05
6.48697e-07
3.19159e-05
6.35217e-07
3.17221e-05
6.1603e-07
3.15188e-05
6.06817e-07
3.13095e-05
5.94305e-07
3.10992e-05
5.80394e-07
3.08904e-05
5.64367e-07
3.06835e-05
5.48398e-07
3.04777e-05
5.33218e-07
3.02732e-05
5.17686e-07
3.00702e-05
5.01185e-07
2.98693e-05
4.83827e-07
2.96704e-05
4.66136e-07
2.94737e-05
4.48635e-07
2.92807e-05
4.31185e-07
2.90926e-05
4.13851e-07
2.8909e-05
3.97653e-07
2.873e-05
3.82068e-07
2.85558e-05
3.66466e-07
2.83866e-05
3.51163e-07
2.82222e-05
3.36604e-07
2.80625e-05
3.227e-07
2.79074e-05
3.09128e-07
2.77571e-05
2.95819e-07
2.76115e-05
2.83029e-07
2.74704e-05
2.70704e-07
2.73338e-05
2.58794e-07
2.72019e-05
2.46964e-07
2.70746e-05
2.35722e-07
2.69516e-05
2.25283e-07
2.68328e-05
2.15454e-07
2.67179e-05
2.06044e-07
2.6607e-05
1.97056e-07
2.64993e-05
1.88944e-07
2.63947e-05
1.81229e-07
2.62932e-05
1.73877e-07
2.61947e-05
1.66798e-07
2.60992e-05
1.59918e-07
2.60067e-05
1.53373e-07
2.5917e-05
1.4722e-07
2.583e-05
1.41428e-07
2.57456e-05
1.36073e-07
2.56637e-05
1.31017e-07
2.55843e-05
1.26225e-07
2.55073e-05
1.2144e-07
2.54324e-05
1.17689e-07
2.53596e-05
1.13968e-07
2.52896e-05
1.07611e-07
2.5223e-05
1.00483e-07
2.51596e-05
9.47782e-08
2.50985e-05
9.101e-08
2.50391e-05
8.81459e-08
2.49815e-05
8.52183e-08
2.49256e-05
8.24297e-08
2.48713e-05
7.96719e-08
2.48185e-05
7.70646e-08
2.47673e-05
7.46111e-08
2.47175e-05
7.23284e-08
2.4669e-05
7.01776e-08
2.46218e-05
6.82557e-08
2.45757e-05
6.65129e-08
2.45307e-05
6.4812e-08
2.44868e-05
6.31638e-08
2.4444e-05
6.15579e-08
2.44022e-05
5.98949e-08
2.43617e-05
5.80341e-08
2.43223e-05
5.62653e-08
2.4284e-05
5.47116e-08
2.42468e-05
5.31988e-08
2.42105e-05
5.17502e-08
2.41753e-05
5.03469e-08
2.41411e-05
4.89876e-08
2.41079e-05
4.76734e-08
2.40756e-05
4.64071e-08
2.40442e-05
4.51896e-08
2.40138e-05
4.40149e-08
2.39841e-05
4.30369e-08
2.39551e-05
4.22913e-08
2.39268e-05
4.15254e-08
2.3899e-05
4.07296e-08
2.38719e-05
3.99655e-08
2.38453e-05
3.92335e-08
2.38192e-05
3.85942e-08
2.37932e-05
3.81536e-08
2.37676e-05
3.74843e-08
2.37423e-05
3.6831e-08
2.37171e-05
3.65421e-08
2.36921e-05
3.62728e-08
2.36672e-05
3.60228e-08
2.36425e-05
3.58086e-08
2.36179e-05
3.56268e-08
2.35934e-05
3.54868e-08
2.3569e-05
3.53818e-08
2.35447e-05
3.53165e-08
2.35204e-05
3.52823e-08
2.34962e-05
3.52734e-08
2.34721e-05
3.52826e-08
2.3448e-05
3.52981e-08
2.3424e-05
3.53116e-08
2.34e-05
3.52224e-08
2.33762e-05
3.51574e-08
2.33524e-05
3.5361e-08
2.33285e-05
3.56772e-08
2.33046e-05
3.56635e-08
2.32809e-05
3.55546e-08
2.32572e-05
3.55799e-08
2.32336e-05
3.55838e-08
2.32102e-05
3.55903e-08
2.31868e-05
3.55934e-08
2.31635e-05
3.55972e-08
2.31403e-05
3.56071e-08
2.31171e-05
3.56173e-08
2.30941e-05
3.56229e-08
2.30712e-05
3.56162e-08
2.30483e-05
3.55929e-08
2.30256e-05
3.55533e-08
2.30029e-05
3.55003e-08
2.29804e-05
3.544e-08
2.2958e-05
3.5377e-08
2.29357e-05
3.53106e-08
2.29135e-05
3.5242e-08
2.28914e-05
3.51683e-08
2.28695e-05
3.50899e-08
2.28476e-05
3.50079e-08
2.28259e-05
3.49232e-08
2.28043e-05
3.48388e-08
2.27828e-05
3.47498e-08
2.27614e-05
3.46585e-08
2.27401e-05
3.45572e-08
2.27189e-05
3.44524e-08
2.26979e-05
3.43395e-08
2.26769e-05
3.42239e-08
2.26561e-05
3.41045e-08
2.26353e-05
3.39895e-08
2.26147e-05
3.38806e-08
2.25941e-05
3.37773e-08
2.25737e-05
3.36753e-08
2.25533e-05
3.35694e-08
2.2533e-05
3.34568e-08
2.25128e-05
3.33303e-08
2.24927e-05
3.31882e-08
2.24727e-05
3.30292e-08
2.24529e-05
3.28554e-08
2.24331e-05
3.26668e-08
2.24135e-05
3.24644e-08
2.2394e-05
3.2248e-08
2.23746e-05
3.20187e-08
2.23554e-05
3.17766e-08
2.23364e-05
3.15219e-08
2.23174e-05
3.12528e-08
2.22987e-05
3.09699e-08
2.22801e-05
3.06724e-08
2.22616e-05
3.03636e-08
2.22434e-05
3.00439e-08
2.22253e-05
2.97162e-08
2.22074e-05
2.93812e-08
2.21896e-05
2.9043e-08
2.21721e-05
2.87031e-08
2.21547e-05
2.83625e-08
2.21375e-05
2.80222e-08
2.21205e-05
2.7679e-08
2.21037e-05
2.73389e-08
2.2087e-05
2.7e-08
2.20706e-05
2.6667e-08
2.20543e-05
2.63442e-08
2.20382e-05
2.60365e-08
2.20222e-05
2.57532e-08
2.20064e-05
2.54908e-08
2.19907e-05
2.5249e-08
2.19751e-05
2.50244e-08
2.19597e-05
2.47979e-08
2.19444e-05
2.45756e-08
2.19292e-05
2.43562e-08
2.19141e-05
2.41474e-08
2.18991e-05
2.39478e-08
2.18843e-05
2.37511e-08
2.18695e-05
2.35675e-08
2.18549e-05
2.33891e-08
2.18404e-05
2.32239e-08
2.18259e-05
2.30702e-08
2.18116e-05
2.29296e-08
2.17973e-05
2.28021e-08
2.17831e-05
2.26831e-08
2.1769e-05
2.25675e-08
2.17549e-05
2.24481e-08
2.17409e-05
2.23229e-08
2.1727e-05
2.21886e-08
2.17131e-05
2.20414e-08
2.16994e-05
2.18799e-08
2.16858e-05
2.16991e-08
2.16722e-05
2.15024e-08
2.16588e-05
2.1289e-08
2.16455e-05
2.10751e-08
2.16323e-05
2.08545e-08
2.16193e-05
2.06317e-08
2.16063e-05
2.03994e-08
2.15935e-05
2.01659e-08
2.15808e-05
1.99461e-08
2.15683e-05
1.9719e-08
2.1556e-05
1.94804e-08
2.15439e-05
1.92315e-08
2.15319e-05
1.89689e-08
2.15201e-05
1.86935e-08
2.15085e-05
1.84097e-08
2.14971e-05
1.81236e-08
2.14858e-05
1.78375e-08
2.14748e-05
1.75528e-08
2.14639e-05
1.72717e-08
2.14531e-05
1.69919e-08
2.14426e-05
1.67021e-08
2.14322e-05
1.63974e-08
2.1422e-05
1.6085e-08
2.1412e-05
1.57745e-08
2.14022e-05
1.54645e-08
2.13925e-05
1.51479e-08
2.1383e-05
1.48252e-08
2.13737e-05
1.4498e-08
2.13646e-05
1.41672e-08
2.13557e-05
1.38278e-08
2.13469e-05
1.3476e-08
2.13384e-05
1.31123e-08
2.133e-05
1.27433e-08
2.13219e-05
1.23677e-08
2.13139e-05
1.19867e-08
2.13062e-05
1.15976e-08
2.12987e-05
1.12084e-08
2.12913e-05
1.08159e-08
2.12842e-05
1.04238e-08
2.12773e-05
1.0029e-08
2.12706e-05
9.63659e-09
2.12641e-05
9.24956e-09
2.12577e-05
8.87483e-09
2.12516e-05
8.514e-09
2.12456e-05
8.16685e-09
2.12398e-05
7.83973e-09
2.12342e-05
7.533e-09
2.12287e-05
7.24525e-09
2.12234e-05
6.97034e-09
2.12181e-05
6.71092e-09
2.1213e-05
6.46212e-09
2.1208e-05
6.22013e-09
2.12032e-05
5.98538e-09
2.11984e-05
5.76192e-09
2.11937e-05
5.55604e-09
2.11892e-05
5.36398e-09
2.11847e-05
5.18313e-09
2.11803e-05
5.00993e-09
2.11761e-05
4.82625e-09
2.11718e-05
4.65389e-09
2.11677e-05
4.50483e-09
2.11636e-05
4.37039e-09
2.11596e-05
4.25967e-09
2.11557e-05
4.15939e-09
2.11518e-05
4.06776e-09
2.1148e-05
3.98796e-09
2.11441e-05
3.92684e-09
2.11403e-05
3.89195e-09
2.11366e-05
3.88512e-09
2.11328e-05
3.90422e-09
2.1129e-05
3.95346e-09
2.11251e-05
4.02935e-09
2.11213e-05
4.1352e-09
2.11173e-05
4.26013e-09
2.11133e-05
4.39733e-09
2.11093e-05
4.54175e-09
2.11052e-05
4.70205e-09
2.1101e-05
4.87318e-09
2.10967e-05
5.05577e-09
2.10923e-05
5.23906e-09
2.10879e-05
5.42519e-09
2.10833e-05
5.6114e-09
2.10787e-05
5.79791e-09
2.10741e-05
5.97312e-09
2.10693e-05
6.13975e-09
2.10645e-05
6.29341e-09
2.10596e-05
6.43706e-09
2.10546e-05
6.56655e-09
2.10497e-05
6.69601e-09
2.10446e-05
6.82104e-09
2.10395e-05
6.94887e-09
2.10344e-05
7.07327e-09
2.10292e-05
7.19949e-09
2.10239e-05
7.32432e-09
2.10186e-05
7.45399e-09
2.10132e-05
7.5943e-09
2.10078e-05
7.7478e-09
2.10022e-05
7.91702e-09
2.09966e-05
8.09709e-09
2.09909e-05
8.28627e-09
2.09852e-05
8.48455e-09
2.09793e-05
8.68643e-09
2.09733e-05
8.89477e-09
2.09673e-05
9.10562e-09
2.09611e-05
9.31619e-09
2.09548e-05
9.51882e-09
2.09485e-05
9.71117e-09
2.0942e-05
9.89127e-09
2.09355e-05
1.00607e-08
2.0929e-05
1.02201e-08
2.09223e-05
1.03693e-08
2.09156e-05
1.05071e-08
2.09088e-05
1.06322e-08
2.0902e-05
1.07453e-08
2.08951e-05
1.08409e-08
2.08882e-05
1.09248e-08
2.08813e-05
1.09925e-08
2.08743e-05
1.1046e-08
2.08674e-05
1.10762e-08
2.08604e-05
1.10886e-08
2.08535e-05
1.10747e-08
2.08465e-05
1.10444e-08
2.08396e-05
1.09906e-08
2.08328e-05
1.09254e-08
2.0826e-05
1.08436e-08
2.08192e-05
1.07555e-08
2.08125e-05
1.06605e-08
2.08058e-05
1.0566e-08
2.07992e-05
1.04697e-08
2.07927e-05
1.0373e-08
2.07862e-05
1.02764e-08
2.07797e-05
1.01865e-08
2.07733e-05
1.01074e-08
2.07669e-05
1.00403e-08
2.07606e-05
9.98715e-09
2.07543e-05
9.95138e-09
2.07479e-05
9.93201e-09
2.07416e-05
9.92624e-09
2.07353e-05
9.93226e-09
2.0729e-05
9.95394e-09
2.07227e-05
1.00022e-08
2.07163e-05
1.00769e-08
2.07099e-05
1.01785e-08
2.07034e-05
1.03054e-08
2.06969e-05
1.04572e-08
2.06902e-05
1.06253e-08
2.06835e-05
1.07957e-08
2.06767e-05
1.09526e-08
2.06698e-05
1.10912e-08
2.06628e-05
1.12124e-08
2.06558e-05
1.1341e-08
2.06487e-05
1.14815e-08
2.06416e-05
1.16137e-08
2.06343e-05
1.17205e-08
2.06271e-05
1.17928e-08
2.06198e-05
1.18383e-08
2.06125e-05
1.18633e-08
2.06052e-05
1.18669e-08
2.05979e-05
1.18505e-08
2.05906e-05
1.1818e-08
2.05833e-05
1.17642e-08
2.05761e-05
1.16858e-08
2.05689e-05
1.15901e-08
2.05618e-05
1.14857e-08
2.05547e-05
1.1361e-08
2.05477e-05
1.12154e-08
2.05408e-05
1.10428e-08
2.05339e-05
1.08507e-08
2.05272e-05
1.06342e-08
2.05206e-05
1.03969e-08
2.05142e-05
1.01419e-08
2.05078e-05
9.87526e-09
2.05016e-05
9.60253e-09
2.04956e-05
9.33125e-09
2.04897e-05
9.0716e-09
2.04839e-05
8.83023e-09
2.04782e-05
8.60857e-09
2.04726e-05
8.40277e-09
2.04671e-05
8.20279e-09
2.04617e-05
8.00395e-09
2.04564e-05
7.80578e-09
2.04511e-05
7.60938e-09
2.0446e-05
7.41616e-09
2.0441e-05
7.2269e-09
2.04361e-05
7.04329e-09
2.04312e-05
6.87872e-09
2.04264e-05
6.72237e-09
2.04217e-05
6.57233e-09
2.0417e-05
6.44486e-09
2.04124e-05
6.33249e-09
2.04079e-05
6.2232e-09
2.04034e-05
6.12463e-09
2.03989e-05
6.04473e-09
2.03945e-05
5.98856e-09
2.03901e-05
5.94621e-09
2.03857e-05
5.91677e-09
2.03813e-05
5.90167e-09
2.03769e-05
5.90413e-09
2.03725e-05
5.91753e-09
2.03681e-05
5.94514e-09
2.03637e-05
5.98248e-09
2.03592e-05
6.04638e-09
2.03547e-05
6.13188e-09
2.03502e-05
6.23937e-09
2.03456e-05
6.3577e-09
2.03409e-05
6.486e-09
2.03361e-05
6.62438e-09
2.03313e-05
6.77577e-09
2.03264e-05
6.92625e-09
2.03214e-05
7.07023e-09
2.03163e-05
7.18979e-09
2.03112e-05
7.29155e-09
2.0306e-05
7.37175e-09
2.03008e-05
7.45092e-09
2.02956e-05
7.52587e-09
2.02903e-05
7.61073e-09
2.0285e-05
7.69192e-09
2.02796e-05
7.77791e-09
2.02742e-05
7.85447e-09
2.02688e-05
7.92171e-09
2.02634e-05
7.97249e-09
2.02579e-05
8.01904e-09
2.02524e-05
8.06564e-09
2.02469e-05
8.12955e-09
2.02414e-05
8.21647e-09
2.02358e-05
8.33805e-09
2.02301e-05
8.49091e-09
2.02244e-05
8.67198e-09
2.02185e-05
8.87244e-09
2.02126e-05
9.08307e-09
2.02066e-05
9.29997e-09
2.02004e-05
9.51833e-09
2.01942e-05
9.73525e-09
2.01878e-05
9.94913e-09
2.01814e-05
1.01599e-08
2.01749e-05
1.03707e-08
2.01683e-05
1.0586e-08
2.01615e-05
1.0813e-08
2.01547e-05
1.10505e-08
2.01477e-05
1.12929e-08
2.01407e-05
1.15336e-08
2.01335e-05
1.17632e-08
2.01261e-05
1.19758e-08
2.01187e-05
1.21651e-08
2.01112e-05
1.23313e-08
2.01037e-05
1.24752e-08
2.0096e-05
1.26069e-08
2.00883e-05
1.2734e-08
2.00806e-05
1.28465e-08
2.00728e-05
1.29489e-08
2.0065e-05
1.30433e-08
2.00571e-05
1.31485e-08
2.00491e-05
1.327e-08
2.00411e-05
1.34114e-08
2.0033e-05
1.35689e-08
2.00248e-05
1.37428e-08
2.00165e-05
1.39285e-08
2.00081e-05
1.41209e-08
1.99996e-05
1.43151e-08
1.9991e-05
1.45029e-08
1.99823e-05
1.46775e-08
1.99735e-05
1.48355e-08
1.99647e-05
1.49731e-08
1.99558e-05
1.50961e-08
1.99469e-05
1.52036e-08
1.99379e-05
1.5301e-08
1.99288e-05
1.53826e-08
1.99198e-05
1.54519e-08
1.99106e-05
1.54966e-08
1.99015e-05
1.5515e-08
1.98924e-05
1.54953e-08
1.98832e-05
1.54404e-08
1.98742e-05
1.53515e-08
1.98651e-05
1.52403e-08
1.98561e-05
1.51067e-08
1.98472e-05
1.4964e-08
1.98384e-05
1.4817e-08
1.98296e-05
1.4694e-08
1.98208e-05
1.45979e-08
1.98121e-05
1.45471e-08
1.98034e-05
1.45192e-08
1.97947e-05
1.45258e-08
1.9786e-05
1.45322e-08
1.97772e-05
1.45523e-08
1.97684e-05
1.4536e-08
1.97596e-05
1.45064e-08
1.97509e-05
1.4414e-08
1.97422e-05
1.43111e-08
1.97336e-05
1.41594e-08
1.97251e-05
1.40173e-08
1.97166e-05
1.38301e-08
1.97083e-05
1.36471e-08
1.97e-05
1.33956e-08
1.96919e-05
1.31296e-08
1.9684e-05
1.27768e-08
1.96762e-05
1.24169e-08
1.96687e-05
1.19904e-08
1.96613e-05
1.16068e-08
1.96542e-05
1.11953e-08
1.96472e-05
1.08778e-08
1.96403e-05
1.0562e-08
1.96336e-05
1.03673e-08
1.9627e-05
1.01656e-08
1.96204e-05
1.00892e-08
1.96139e-05
9.98715e-09
1.96073e-05
1.00007e-08
1.96008e-05
9.96877e-09
1.95943e-05
1.00345e-08
1.95878e-05
1.00555e-08
1.95811e-05
1.01638e-08
1.95745e-05
1.02227e-08
1.95678e-05
1.03214e-08
1.95612e-05
1.0379e-08
1.95545e-05
1.04267e-08
1.95477e-05
1.05024e-08
1.9541e-05
1.04851e-08
1.95342e-05
1.06065e-08
1.95274e-05
1.05515e-08
1.95205e-05
1.06919e-08
1.95137e-05
1.06281e-08
1.95068e-05
1.08381e-08
1.94999e-05
1.09066e-08
1.94927e-05
1.14512e-08
1.94852e-05
1.23272e-08
1.94772e-05
1.34709e-08
1.94679e-05
1.62006e-08
1.94574e-05
1.91508e-08
1.94443e-05
2.45501e-08
1.94282e-05
3.15378e-08
1.94071e-05
4.22396e-08
1.93794e-05
5.73112e-08
1.93409e-05
7.94044e-08
1.92898e-05
1.07655e-07
1.92079e-05
1.65058e-07
1.91101e-05
1.89468e-07
1.89009e-05
4.86279e-07
1.85844e-05
8.15008e-07
1.81433e-05
9.70915e-07
1.75438e-05
1.26553e-06
1.675e-05
1.7274e-06
1.5612e-05
2.49439e-06
1.39008e-05
3.43947e-06
1.15486e-05
4.62897e-06
8.18532e-06
6.88899e-06
3.80424e-06
7.55169e-06
2.87702e-07
5.388e-06
-1.61248e-06
3.61373e-06
-4.35687e-06
3.58755e-05
1.04988e-06
3.56437e-05
9.92225e-07
3.52399e-05
1.4756e-06
3.48674e-05
1.43702e-06
3.44996e-05
1.43542e-06
3.41911e-05
1.2878e-06
3.39263e-05
1.22798e-06
3.37044e-05
1.09417e-06
3.35212e-05
1.0155e-06
3.33629e-05
9.16097e-07
3.32343e-05
8.60632e-07
3.31186e-05
8.06573e-07
3.3007e-05
7.84913e-07
3.29115e-05
7.44156e-07
3.28287e-05
7.18024e-07
3.27562e-05
6.88544e-07
3.26856e-05
6.77401e-07
3.26165e-05
6.63396e-07
3.25475e-05
6.49447e-07
3.24781e-05
6.33788e-07
3.24068e-05
6.1972e-07
3.23336e-05
6.06381e-07
3.22579e-05
5.93346e-07
3.21794e-05
5.79675e-07
3.20975e-05
5.65744e-07
3.20119e-05
5.5174e-07
3.19224e-05
5.38201e-07
3.18272e-05
5.26304e-07
3.17262e-05
5.14853e-07
3.16214e-05
5.02466e-07
3.15136e-05
4.89898e-07
3.14031e-05
4.7691e-07
3.12903e-05
4.6401e-07
3.11751e-05
4.51795e-07
3.10577e-05
4.40109e-07
3.09385e-05
4.28364e-07
3.08179e-05
4.16415e-07
3.06963e-05
4.04623e-07
3.0574e-05
3.92976e-07
3.04514e-05
3.81364e-07
3.03291e-05
3.69313e-07
3.02072e-05
3.57575e-07
3.0086e-05
3.4651e-07
2.99657e-05
3.35788e-07
2.98464e-05
3.25305e-07
2.97285e-05
3.14955e-07
2.96123e-05
3.0511e-07
2.9498e-05
2.9554e-07
2.93857e-05
2.86238e-07
2.92754e-05
2.77102e-07
2.91672e-05
2.68034e-07
2.90613e-05
2.59274e-07
2.89577e-05
2.50909e-07
2.88562e-05
2.42864e-07
2.8757e-05
2.35334e-07
2.86598e-05
2.28157e-07
2.85649e-05
2.21171e-07
2.84721e-05
2.14166e-07
2.83815e-05
2.08347e-07
2.82931e-05
2.02349e-07
2.82071e-05
1.93667e-07
2.81234e-05
1.84183e-07
2.80424e-05
1.75701e-07
2.79637e-05
1.69713e-07
2.78868e-05
1.65087e-07
2.78116e-05
1.60377e-07
2.77382e-05
1.55839e-07
2.76666e-05
1.51279e-07
2.75968e-05
1.46896e-07
2.75287e-05
1.42691e-07
2.74623e-05
1.38718e-07
2.73976e-05
1.3491e-07
2.73344e-05
1.3143e-07
2.72727e-05
1.28234e-07
2.72124e-05
1.25086e-07
2.71536e-05
1.22013e-07
2.70961e-05
1.19001e-07
2.70401e-05
1.15927e-07
2.69856e-05
1.12526e-07
2.69326e-05
1.0924e-07
2.6881e-05
1.06323e-07
2.68307e-05
1.03476e-07
2.67818e-05
1.00723e-07
2.67341e-05
9.80504e-08
2.66876e-05
9.54459e-08
2.66423e-05
9.2927e-08
2.65983e-05
9.04851e-08
2.65553e-05
8.81479e-08
2.65134e-05
8.58962e-08
2.64725e-05
8.39608e-08
2.64324e-05
8.24141e-08
2.6393e-05
8.09072e-08
2.63543e-05
7.93889e-08
2.63163e-05
7.79816e-08
2.62786e-05
7.69147e-08
2.62412e-05
7.60401e-08
2.6204e-05
7.53497e-08
2.61672e-05
7.42601e-08
2.61309e-05
7.31295e-08
2.60949e-05
7.25485e-08
2.60592e-05
7.19913e-08
2.60238e-05
7.14509e-08
2.59886e-05
7.09679e-08
2.59537e-05
7.05199e-08
2.59191e-05
7.01325e-08
2.58847e-05
6.97861e-08
2.58505e-05
6.94982e-08
2.58165e-05
6.92493e-08
2.57828e-05
6.90371e-08
2.57492e-05
6.885e-08
2.57158e-05
6.86623e-08
2.56827e-05
6.84752e-08
2.56498e-05
6.81124e-08
2.56172e-05
6.77489e-08
2.55847e-05
6.78019e-08
2.55523e-05
6.8094e-08
2.55201e-05
6.78558e-08
2.54883e-05
6.74114e-08
2.54567e-05
6.71999e-08
2.54253e-05
6.69559e-08
2.53942e-05
6.67034e-08
2.53633e-05
6.64434e-08
2.53327e-05
6.61806e-08
2.53024e-05
6.59302e-08
2.52723e-05
6.56827e-08
2.52425e-05
6.54348e-08