/*--------------------------------*- C++ -*----------------------------------*\
| =========                 |                                                 |
| \\      /  F ield         | foam-extend: Open Source CFD                    |
|  \\    /   O peration     | Version:     3.2                                |
|   \\  /    A nd           | Web:         http://www.foam-extend.org         |
|    \\/     M anipulation  | For copyright notice see file Copyright         |
\*---------------------------------------------------------------------------*/
FoamFile
{
    version     2.0;
    format      ascii;
    class       areaScalarField;
    location    "120";
    object      thetaC2SS2;
}
// * * * * * * * * * * * * * * * * * * * * * * * * * * * * * * * * * * * * * //

dimensions      [0 0 0 0 0 0 0];

internalField   nonuniform List<scalar> 
550
(
0.127601
0.127601
0.127601
0.127601
0.127601
0.127601
0.127601
0.127601
0.127601
0.127601
0.127601
0.127601
0.127601
0.127601
0.127601
0.127601
0.127601
0.127601
0.127601
0.127601
0.127601
0.127601
0.127601
0.127601
0.127601
0.127601
0.127601
0.127601
0.127601
0.127601
0.127601
0.127601
0.127601
0.127601
0.127601
0.127601
0.127601
0.127601
0.127601
0.127601
0.127601
0.127601
0.127601
0.127601
0.127601
0.127601
0.127601
0.127601
0.127601
0.127601
0.127601
0.127601
0.127601
0.127601
0.127601
0.127601
0.127601
0.127601
0.127601
0.127675
0.127635
0.127618
0.127611
0.12761
0.127614
0.12762
0.127628
0.127637
0.127646
0.127656
0.127665
0.127675
0.127684
0.127694
0.127704
0.127713
0.127723
0.127733
0.127743
0.127754
0.127766
0.127777
0.12779
0.127802
0.127815
0.127827
0.12784
0.127851
0.127863
0.127874
0.127884
0.127895
0.127904
0.127914
0.127922
0.12793
0.127938
0.127945
0.127952
0.127958
0.127963
0.127969
0.127974
0.127979
0.127983
0.127987
0.127991
0.127994
0.127996
0.127998
0.127999
0.128001
0.128002
0.128003
0.128004
0.128006
0.128007
0.128009
0.128011
0.128013
0.128016
0.128018
0.128021
0.128025
0.128028
0.128032
0.128036
0.12804
0.128044
0.128049
0.128055
0.128061
0.128067
0.128074
0.128081
0.128088
0.128096
0.128103
0.12811
0.128118
0.128125
0.128131
0.128138
0.128144
0.12815
0.128156
0.128161
0.128166
0.128171
0.128176
0.12818
0.128185
0.128189
0.128193
0.128198
0.128203
0.128207
0.128212
0.128217
0.128223
0.128229
0.128236
0.128243
0.128251
0.12826
0.128269
0.128279
0.12829
0.128302
0.128315
0.128329
0.128343
0.128358
0.128374
0.12839
0.128407
0.128424
0.128442
0.12846
0.128478
0.128496
0.128513
0.12853
0.128546
0.128561
0.128576
0.12859
0.128603
0.128614
0.128625
0.128634
0.128641
0.128647
0.128651
0.128654
0.128655
0.128654
0.128652
0.128648
0.128642
0.128635
0.128627
0.128618
0.128608
0.128596
0.128584
0.128572
0.128559
0.128545
0.128531
0.128517
0.128502
0.128486
0.128469
0.128451
0.128433
0.128414
0.128394
0.128374
0.128354
0.128332
0.128311
0.128289
0.128266
0.128244
0.128221
0.1282
0.128179
0.128158
0.128138
0.128119
0.128101
0.128083
0.128065
0.128048
0.128032
0.128016
0.128001
0.127987
0.127974
0.127962
0.12795
0.127941
0.127932
0.127926
0.12792
0.127917
0.127916
0.127916
0.127919
0.127924
0.127931
0.12794
0.127951
0.127965
0.127981
0.128
0.12802
0.128043
0.128068
0.128095
0.128125
0.128155
0.128188
0.128223
0.128259
0.128296
0.128334
0.128374
0.128414
0.128454
0.128495
0.128537
0.128578
0.12862
0.128662
0.128704
0.128745
0.128787
0.128828
0.128868
0.128908
0.128947
0.128986
0.129023
0.129059
0.129095
0.129129
0.129162
0.129193
0.129223
0.129252
0.129279
0.129304
0.129329
0.129351
0.129372
0.129392
0.12941
0.129427
0.129443
0.129457
0.129469
0.129481
0.12949
0.129499
0.129507
0.129513
0.129519
0.129523
0.129526
0.129529
0.12953
0.12953
0.129529
0.129526
0.129522
0.129516
0.129509
0.1295
0.129489
0.129477
0.129463
0.129447
0.12943
0.129412
0.129393
0.129373
0.129352
0.12933
0.129307
0.129282
0.129257
0.12923
0.129202
0.129173
0.129143
0.129111
0.129078
0.129043
0.129008
0.128972
0.128935
0.128898
0.12886
0.128822
0.128784
0.128746
0.128709
0.128672
0.128636
0.128601
0.128567
0.128535
0.128503
0.128473
0.128444
0.128416
0.128389
0.128363
0.128338
0.128314
0.128291
0.128268
0.128246
0.128224
0.128202
0.128181
0.12816
0.128141
0.128122
0.128104
0.128087
0.128073
0.12806
0.128049
0.12804
0.128034
0.12803
0.128029
0.128031
0.128035
0.128043
0.128054
0.128069
0.128086
0.128107
0.128131
0.128158
0.128188
0.12822
0.128256
0.128293
0.128332
0.128373
0.128415
0.128458
0.128502
0.128546
0.128591
0.128635
0.128679
0.128723
0.128766
0.128808
0.12885
0.12889
0.12893
0.128969
0.129008
0.129047
0.129086
0.129126
0.129166
0.129206
0.129247
0.129289
0.129332
0.129375
0.129419
0.129463
0.129507
0.129552
0.129597
0.129642
0.129687
0.129732
0.129776
0.129819
0.12986
0.1299
0.129938
0.129975
0.130009
0.130041
0.130071
0.130098
0.130123
0.130147
0.130167
0.130186
0.130203
0.130218
0.130232
0.130243
0.130253
0.130261
0.130266
0.13027
0.130272
0.130271
0.130267
0.130261
0.130251
0.130239
0.130224
0.130205
0.130184
0.130161
0.130135
0.130107
0.130077
0.130045
0.130012
0.129978
0.129943
0.129906
0.129869
0.129831
0.129792
0.129753
0.129712
0.12967
0.129628
0.129586
0.129543
0.1295
0.129458
0.129417
0.129377
0.129338
0.1293
0.129264
0.129229
0.129196
0.129164
0.129134
0.129105
0.129079
0.129054
0.129031
0.129009
0.128989
0.12897
0.128953
0.128937
0.128924
0.128913
0.128904
0.128897
0.128893
0.12889
0.128888
0.128888
0.128889
0.128891
0.128893
0.128896
0.128901
0.128906
0.128913
0.128922
0.128934
0.128948
0.128964
0.128983
0.129004
0.129027
0.12905
0.129074
0.129099
0.129124
0.12915
0.129177
0.129205
0.129234
0.129264
0.129296
0.129329
0.129366
0.129407
0.129455
0.129513
0.129586
0.12968
0.129819
0.129997
0.130369
0.130289
0.129481
0.127601
0.127601
0.127601
0.127601
0.127601
0.127601
0.127601
0.127601
0.127601
0.127601
)
;

boundaryField
{
    inlet
    {
        type            calculated;
        value           uniform 0;
    }
    endWall
    {
        type            calculated;
        value           uniform 0;
    }
    sideWall
    {
        type            empty;
    }
}


// ************************************************************************* //
