/*--------------------------------*- C++ -*----------------------------------*\
| =========                 |                                                 |
| \\      /  F ield         | foam-extend: Open Source CFD                    |
|  \\    /   O peration     | Version:     3.2                                |
|   \\  /    A nd           | Web:         http://www.foam-extend.org         |
|    \\/     M anipulation  | For copyright notice see file Copyright         |
\*---------------------------------------------------------------------------*/
FoamFile
{
    version     2.0;
    format      ascii;
    class       areaScalarField;
    location    "120";
    object      thetaC2B;
}
// * * * * * * * * * * * * * * * * * * * * * * * * * * * * * * * * * * * * * //

dimensions      [0 0 0 0 0 0 0];

internalField   nonuniform List<scalar> 
550
(
0.0368338
0.0368338
0.0368338
0.0368338
0.0368338
0.0368338
0.0368338
0.0368338
0.0368338
0.0368338
0.0368338
0.0368338
0.0368338
0.0368338
0.0368338
0.0368338
0.0368338
0.0368338
0.0368338
0.0368338
0.0368338
0.0368338
0.0368338
0.0368338
0.0368338
0.0368338
0.0368338
0.0368338
0.0368338
0.0368338
0.0368338
0.0368338
0.0368338
0.0368338
0.0368338
0.0368338
0.0368338
0.0368338
0.0368338
0.0368338
0.0368338
0.0368338
0.0368338
0.0368338
0.0368338
0.0368338
0.0368338
0.0368338
0.0368338
0.0368338
0.0368338
0.0368338
0.0368338
0.0368338
0.0368338
0.0368338
0.0368338
0.0368338
0.0368338
0.0368552
0.0368436
0.0368389
0.0368368
0.0368366
0.0368375
0.0368393
0.0368415
0.0368441
0.0368468
0.0368496
0.0368524
0.0368552
0.0368579
0.0368607
0.0368634
0.0368662
0.0368691
0.036872
0.036875
0.0368781
0.0368813
0.0368847
0.0368882
0.0368919
0.0368955
0.0368992
0.0369027
0.0369061
0.0369094
0.0369126
0.0369157
0.0369186
0.0369214
0.036924
0.0369266
0.0369289
0.0369311
0.0369332
0.036935
0.0369368
0.0369384
0.03694
0.0369415
0.0369428
0.0369441
0.0369453
0.0369463
0.0369471
0.0369478
0.0369484
0.0369488
0.0369492
0.0369495
0.0369499
0.0369502
0.0369506
0.0369511
0.0369516
0.0369522
0.0369528
0.0369535
0.0369543
0.0369552
0.0369561
0.0369571
0.0369581
0.0369593
0.0369605
0.0369618
0.0369633
0.0369649
0.0369666
0.0369685
0.0369704
0.0369725
0.0369745
0.0369767
0.0369788
0.0369809
0.0369829
0.0369849
0.0369869
0.0369888
0.0369906
0.0369923
0.036994
0.0369955
0.036997
0.0369984
0.0369997
0.037001
0.0370023
0.0370036
0.0370049
0.0370062
0.0370075
0.0370088
0.0370102
0.0370117
0.0370133
0.0370151
0.037017
0.0370191
0.0370214
0.0370239
0.0370267
0.0370297
0.0370329
0.0370363
0.0370399
0.0370438
0.037048
0.0370523
0.0370569
0.0370616
0.0370665
0.0370715
0.0370766
0.0370818
0.037087
0.0370921
0.0370971
0.0371019
0.0371066
0.0371111
0.0371153
0.0371193
0.037123
0.0371263
0.0371293
0.0371319
0.0371341
0.0371358
0.0371371
0.0371378
0.0371381
0.0371378
0.0371371
0.0371359
0.0371343
0.0371324
0.03713
0.0371273
0.0371244
0.0371212
0.0371177
0.0371141
0.0371103
0.0371063
0.0371023
0.0370981
0.0370938
0.0370892
0.0370844
0.0370793
0.037074
0.0370685
0.0370629
0.037057
0.0370511
0.0370449
0.0370387
0.0370323
0.0370258
0.0370193
0.0370129
0.0370066
0.0370006
0.0369947
0.0369889
0.0369834
0.036978
0.0369728
0.0369678
0.0369629
0.0369582
0.0369537
0.0369494
0.0369453
0.0369414
0.0369379
0.0369347
0.0369319
0.0369295
0.0369275
0.0369261
0.0369251
0.0369247
0.0369249
0.0369256
0.036927
0.036929
0.0369317
0.036935
0.0369389
0.0369436
0.0369489
0.0369549
0.0369615
0.0369687
0.0369766
0.0369849
0.0369939
0.0370033
0.0370133
0.0370237
0.0370344
0.0370455
0.0370569
0.0370684
0.0370801
0.037092
0.0371039
0.0371159
0.0371279
0.03714
0.0371521
0.0371641
0.037176
0.0371879
0.0371996
0.0372111
0.0372224
0.0372335
0.0372443
0.0372548
0.037265
0.0372748
0.0372843
0.0372934
0.0373021
0.0373103
0.0373182
0.0373256
0.0373325
0.0373391
0.0373452
0.0373509
0.0373562
0.037361
0.0373655
0.0373695
0.0373731
0.0373764
0.0373793
0.0373818
0.0373839
0.0373858
0.0373874
0.0373886
0.0373896
0.0373903
0.0373906
0.0373907
0.0373903
0.0373896
0.0373884
0.0373867
0.0373846
0.037382
0.0373789
0.0373753
0.0373712
0.0373667
0.0373619
0.0373567
0.0373512
0.0373454
0.0373393
0.0373329
0.0373262
0.0373192
0.0373118
0.0373042
0.0372961
0.0372877
0.0372788
0.0372696
0.03726
0.0372501
0.0372399
0.0372295
0.0372189
0.0372081
0.0371972
0.0371863
0.0371754
0.0371645
0.0371537
0.037143
0.0371326
0.0371225
0.0371127
0.0371033
0.0370943
0.0370856
0.0370772
0.0370691
0.0370613
0.0370539
0.0370467
0.0370397
0.037033
0.0370264
0.0370199
0.0370136
0.0370073
0.0370012
0.0369953
0.0369896
0.0369841
0.036979
0.0369743
0.03697
0.0369662
0.0369631
0.0369606
0.0369588
0.0369577
0.0369574
0.0369579
0.0369592
0.0369615
0.0369647
0.0369688
0.0369739
0.0369799
0.0369868
0.0369946
0.0370032
0.0370127
0.0370228
0.0370335
0.0370448
0.0370566
0.0370688
0.0370812
0.0370939
0.0371067
0.0371195
0.0371324
0.0371451
0.0371577
0.0371702
0.0371823
0.0371942
0.0372059
0.0372174
0.0372288
0.03724
0.0372512
0.0372625
0.0372739
0.0372855
0.0372972
0.0373091
0.0373212
0.0373335
0.037346
0.0373586
0.0373713
0.0373842
0.0373971
0.0374101
0.0374231
0.0374361
0.0374489
0.0374616
0.037474
0.037486
0.0374975
0.0375085
0.037519
0.0375289
0.0375381
0.0375467
0.0375547
0.037562
0.0375686
0.0375747
0.0375801
0.037585
0.0375894
0.0375932
0.0375965
0.0375993
0.0376016
0.0376033
0.0376044
0.0376048
0.0376046
0.0376035
0.0376017
0.0375989
0.0375953
0.0375909
0.0375856
0.0375795
0.0375727
0.0375652
0.0375571
0.0375485
0.0375394
0.0375298
0.03752
0.0375098
0.0374993
0.0374886
0.0374777
0.0374664
0.0374549
0.0374432
0.0374312
0.037419
0.0374067
0.0373944
0.0373821
0.03737
0.0373581
0.0373465
0.0373352
0.0373243
0.0373138
0.0373037
0.0372941
0.037285
0.0372763
0.0372681
0.0372604
0.0372533
0.0372466
0.0372403
0.0372345
0.0372291
0.0372241
0.0372196
0.0372157
0.0372124
0.0372099
0.037208
0.0372066
0.0372058
0.0372054
0.0372054
0.0372057
0.0372062
0.0372069
0.0372078
0.037209
0.0372105
0.0372125
0.0372152
0.0372185
0.0372226
0.0372274
0.0372329
0.0372389
0.0372453
0.0372521
0.037259
0.0372661
0.0372734
0.037281
0.0372888
0.0372969
0.0373053
0.037314
0.037323
0.0373327
0.0373433
0.0373551
0.037369
0.0373857
0.0374068
0.0374341
0.0374741
0.0375254
0.0376329
0.0376098
0.0373764
0.0368338
0.0368338
0.0368338
0.0368338
0.0368338
0.0368338
0.0368338
0.0368338
0.0368338
0.0368338
)
;

boundaryField
{
    inlet
    {
        type            calculated;
        value           uniform 0;
    }
    endWall
    {
        type            calculated;
        value           uniform 0;
    }
    sideWall
    {
        type            empty;
    }
}


// ************************************************************************* //
