/*--------------------------------*- C++ -*----------------------------------*\
| =========                 |                                                 |
| \\      /  F ield         | foam-extend: Open Source CFD                    |
|  \\    /   O peration     | Version:     3.2                                |
|   \\  /    A nd           | Web:         http://www.foam-extend.org         |
|    \\/     M anipulation  | For copyright notice see file Copyright         |
\*---------------------------------------------------------------------------*/
FoamFile
{
    version     2.0;
    format      ascii;
    class       areaScalarField;
    location    "120";
    object      thetaCSS1;
}
// * * * * * * * * * * * * * * * * * * * * * * * * * * * * * * * * * * * * * //

dimensions      [0 0 0 0 0 0 0];

internalField   nonuniform List<scalar> 
550
(
0.127208
0.127208
0.127208
0.127208
0.127208
0.127208
0.127208
0.127208
0.127208
0.127208
0.127208
0.127208
0.127208
0.127208
0.127208
0.127208
0.127208
0.127208
0.127208
0.127208
0.127208
0.127208
0.127208
0.127208
0.127208
0.127208
0.127208
0.127208
0.127208
0.127208
0.127208
0.127208
0.127208
0.127208
0.127208
0.127208
0.127208
0.127208
0.127208
0.127208
0.127208
0.127208
0.127208
0.127208
0.127208
0.127208
0.127208
0.127208
0.127208
0.127208
0.127208
0.127208
0.127208
0.127208
0.127208
0.127208
0.127208
0.127208
0.127209
0.127281
0.127247
0.127258
0.127268
0.127268
0.127272
0.127278
0.127284
0.127292
0.1273
0.127309
0.127318
0.127326
0.127335
0.127344
0.127353
0.127362
0.127371
0.12738
0.12739
0.1274
0.12741
0.127421
0.127433
0.127445
0.127457
0.127469
0.12748
0.127492
0.127503
0.127514
0.127524
0.127534
0.127544
0.127553
0.127561
0.127569
0.127576
0.127582
0.127588
0.127594
0.1276
0.127606
0.127611
0.127616
0.127621
0.127625
0.127629
0.127632
0.127634
0.127637
0.127638
0.12764
0.127641
0.127642
0.127644
0.127646
0.127647
0.127649
0.127651
0.127653
0.127655
0.127658
0.127661
0.127664
0.127667
0.127671
0.127675
0.127679
0.127683
0.127688
0.127693
0.127699
0.127705
0.127711
0.127718
0.127724
0.127731
0.127738
0.127745
0.127751
0.127758
0.127764
0.12777
0.127776
0.127781
0.127787
0.127791
0.127796
0.1278
0.127805
0.127809
0.127813
0.127817
0.127821
0.127825
0.127829
0.127834
0.127838
0.127843
0.127848
0.127854
0.12786
0.127867
0.127875
0.127883
0.127892
0.127902
0.127913
0.127925
0.127937
0.12795
0.127964
0.127979
0.127994
0.12801
0.128027
0.128044
0.128061
0.128078
0.128096
0.128113
0.12813
0.128146
0.128162
0.128177
0.128191
0.128204
0.128217
0.128228
0.128238
0.128246
0.128253
0.128259
0.128263
0.128265
0.128265
0.128264
0.128261
0.128257
0.128251
0.128244
0.128235
0.128226
0.128215
0.128204
0.128191
0.128179
0.128165
0.128151
0.128137
0.128122
0.128107
0.128091
0.128074
0.128056
0.128038
0.128019
0.127999
0.127978
0.127957
0.127936
0.127914
0.127892
0.127869
0.127846
0.127824
0.127802
0.127781
0.12776
0.12774
0.127721
0.127702
0.127684
0.127667
0.12765
0.127633
0.127617
0.127602
0.127588
0.127575
0.127562
0.127551
0.127541
0.127533
0.127526
0.127521
0.127518
0.127516
0.127517
0.127519
0.127524
0.127531
0.127541
0.127552
0.127566
0.127583
0.127601
0.127622
0.127645
0.127671
0.127698
0.127728
0.127759
0.127792
0.127826
0.127862
0.1279
0.127938
0.127977
0.128017
0.128058
0.128099
0.128141
0.128182
0.128224
0.128266
0.128308
0.12835
0.128391
0.128432
0.128473
0.128512
0.128552
0.12859
0.128628
0.128664
0.128699
0.128733
0.128766
0.128797
0.128827
0.128856
0.128883
0.128908
0.128933
0.128955
0.128976
0.128996
0.129014
0.129031
0.129046
0.12906
0.129073
0.129084
0.129094
0.129102
0.12911
0.129116
0.129122
0.129126
0.129129
0.129132
0.129133
0.129133
0.129131
0.129129
0.129125
0.129119
0.129111
0.129102
0.129091
0.129079
0.129064
0.129049
0.129032
0.129014
0.128995
0.128975
0.128954
0.128931
0.128908
0.128884
0.128858
0.128831
0.128803
0.128774
0.128743
0.128711
0.128678
0.128644
0.128609
0.128572
0.128536
0.128499
0.128461
0.128423
0.128386
0.128348
0.128311
0.128274
0.128239
0.128204
0.128171
0.128138
0.128107
0.128076
0.128047
0.128019
0.127993
0.127967
0.127942
0.127918
0.127894
0.127871
0.127849
0.127827
0.127805
0.127784
0.127764
0.127744
0.127725
0.127707
0.127691
0.127676
0.127663
0.127652
0.127643
0.127637
0.127633
0.127632
0.127634
0.127639
0.127647
0.127659
0.127674
0.127691
0.127713
0.127737
0.127764
0.127794
0.127827
0.127862
0.127899
0.127938
0.127979
0.128021
0.128064
0.128108
0.128152
0.128196
0.128241
0.128285
0.128328
0.128371
0.128413
0.128454
0.128495
0.128535
0.128574
0.128613
0.128652
0.128691
0.12873
0.12877
0.128811
0.128852
0.128894
0.128937
0.12898
0.129023
0.129067
0.129112
0.129157
0.129202
0.129247
0.129291
0.129336
0.129379
0.129422
0.129464
0.129503
0.129541
0.129578
0.129612
0.129643
0.129673
0.129701
0.129726
0.129749
0.12977
0.129788
0.129805
0.12982
0.129833
0.129845
0.129854
0.129862
0.129868
0.129871
0.129873
0.129871
0.129868
0.129861
0.129851
0.129839
0.129823
0.129805
0.129784
0.12976
0.129734
0.129706
0.129676
0.129645
0.129612
0.129578
0.129542
0.129506
0.129469
0.129431
0.129392
0.129353
0.129312
0.12927
0.129228
0.129186
0.129143
0.129101
0.129059
0.129018
0.128978
0.128939
0.128901
0.128865
0.12883
0.128797
0.128765
0.128735
0.128707
0.12868
0.128656
0.128633
0.128611
0.128591
0.128572
0.128555
0.128539
0.128526
0.128515
0.128506
0.128499
0.128495
0.128492
0.128491
0.12849
0.128491
0.128493
0.128495
0.128499
0.128503
0.128508
0.128516
0.128525
0.128537
0.128551
0.128568
0.128587
0.128607
0.12863
0.128653
0.128677
0.128701
0.128727
0.128753
0.12878
0.128809
0.128838
0.12887
0.128902
0.128938
0.128979
0.129025
0.129081
0.12915
0.12924
0.129357
0.12953
0.129687
0.130145
0.127742
0.126796
0.127208
0.127208
0.127208
0.127208
0.127208
0.127208
0.127208
0.127208
0.127993
0.127993
)
;

boundaryField
{
    inlet
    {
        type            calculated;
        value           uniform 0;
    }
    endWall
    {
        type            calculated;
        value           uniform 0;
    }
    sideWall
    {
        type            empty;
    }
}


// ************************************************************************* //
