/*--------------------------------*- C++ -*----------------------------------*\
| =========                 |                                                 |
| \\      /  F ield         | foam-extend: Open Source CFD                    |
|  \\    /   O peration     | Version:     3.2                                |
|   \\  /    A nd           | Web:         http://www.foam-extend.org         |
|    \\/     M anipulation  | For copyright notice see file Copyright         |
\*---------------------------------------------------------------------------*/
FoamFile
{
    version     2.0;
    format      ascii;
    class       areaScalarField;
    location    "120";
    object      thetaBinit;
}
// * * * * * * * * * * * * * * * * * * * * * * * * * * * * * * * * * * * * * //

dimensions      [0 0 0 0 0 0 0];

internalField   nonuniform List<scalar> 
550
(
0.0152832
0.0209121
0.0276689
0.0354537
0.0440616
0.053177
0.0624582
0.071523
0.0800565
0.0877698
0.09449
0.100101
0.104589
0.10798
0.110357
0.11182
0.112496
0.112511
0.111995
0.111094
0.109894
0.108467
0.106875
0.10517
0.103401
0.101607
0.0998211
0.0980745
0.0963883
0.0947636
0.0932025
0.0917101
0.0902899
0.0889432
0.08767
0.0864695
0.08534
0.0842794
0.0832849
0.0823536
0.0814824
0.0806683
0.0799074
0.0791964
0.0785318
0.0779104
0.0773295
0.0767865
0.0762791
0.0758049
0.0753618
0.0749478
0.0745606
0.0741983
0.0738589
0.0735402
0.0732406
0.0729584
0.072692
0.0724398
0.0722005
0.0719728
0.0717557
0.0715483
0.0713496
0.0711589
0.0709755
0.0707988
0.0706284
0.0704636
0.070304
0.0701492
0.0699986
0.0698518
0.0697083
0.0695679
0.0694302
0.0692953
0.069163
0.0690332
0.0689059
0.0687808
0.0686579
0.068537
0.0684181
0.0683012
0.068186
0.0680726
0.0679607
0.0678502
0.0677407
0.067632
0.067524
0.0674166
0.0673099
0.0672038
0.0670984
0.0669939
0.0668904
0.0667877
0.0666857
0.0665843
0.0664831
0.066382
0.0662809
0.0661797
0.0660783
0.0659765
0.0658742
0.0657715
0.0656681
0.0655641
0.0654593
0.0653537
0.0652474
0.0651401
0.0650317
0.0649225
0.0648125
0.0647017
0.0645902
0.0644779
0.0643651
0.0642516
0.0641376
0.064023
0.063908
0.0637926
0.0636769
0.0635608
0.0634445
0.0633281
0.0632117
0.0630953
0.0629791
0.0628631
0.0627476
0.0626324
0.0625178
0.0624038
0.0622905
0.0621778
0.062066
0.061955
0.0618448
0.0617355
0.0616272
0.0615197
0.0614131
0.0613074
0.0612025
0.0610986
0.0609955
0.0608932
0.0607919
0.0606914
0.0605918
0.0604931
0.0603953
0.0602982
0.060202
0.0601065
0.0600118
0.0599179
0.0598248
0.0597324
0.0596408
0.0595501
0.0594602
0.0593711
0.0592828
0.0591953
0.0591087
0.0590229
0.058938
0.058854
0.0587709
0.0586887
0.0586074
0.0585271
0.0584477
0.0583694
0.0582921
0.058216
0.0581409
0.0580669
0.057994
0.0579223
0.0578518
0.0577824
0.0577143
0.0576474
0.0575817
0.0575173
0.0574542
0.0573923
0.0573318
0.0572725
0.0572144
0.0571576
0.0571019
0.0570474
0.0569941
0.0569419
0.0568908
0.0568407
0.0567918
0.0567439
0.0566971
0.0566512
0.0566064
0.0565625
0.0565196
0.0564776
0.0564366
0.0563966
0.0563575
0.0563195
0.0562826
0.0562467
0.0562119
0.0561782
0.0561456
0.0561142
0.0560838
0.0560542
0.0560253
0.0559972
0.0559697
0.0559429
0.0559167
0.0558912
0.0558663
0.0558421
0.0558185
0.0557956
0.0557732
0.0557514
0.0557301
0.0557094
0.055689
0.0556691
0.0556496
0.0556305
0.0556116
0.0555931
0.0555747
0.0555566
0.0555385
0.0555206
0.0555027
0.0554848
0.0554668
0.0554488
0.0554306
0.0554123
0.0553938
0.055375
0.0553559
0.0553365
0.0553167
0.0552965
0.0552759
0.0552548
0.0552332
0.0552112
0.0551886
0.0551655
0.055142
0.055118
0.0550936
0.0550686
0.0550432
0.0550172
0.0549906
0.0549635
0.0549359
0.0549076
0.0548788
0.0548494
0.0548195
0.0547891
0.0547582
0.0547268
0.0546949
0.0546627
0.05463
0.0545971
0.0545638
0.0545303
0.0544966
0.0544626
0.0544285
0.0543942
0.0543598
0.0543253
0.0542908
0.0542562
0.0542215
0.0541869
0.0541523
0.0541177
0.054083
0.0540484
0.0540137
0.0539791
0.0539444
0.0539097
0.053875
0.0538402
0.0538054
0.0537706
0.0537359
0.0537013
0.0536668
0.0536325
0.0535984
0.0535646
0.053531
0.0534978
0.053465
0.0534325
0.0534003
0.0533684
0.0533368
0.0533054
0.0532743
0.0532434
0.0532128
0.0531825
0.0531524
0.0531228
0.0530935
0.0530646
0.0530363
0.0530084
0.0529812
0.0529544
0.0529282
0.0529026
0.0528775
0.0528528
0.0528284
0.0528045
0.0527808
0.0527572
0.0527338
0.0527104
0.052687
0.0526635
0.0526397
0.0526156
0.0525912
0.0525664
0.0525413
0.0525159
0.0524902
0.0524643
0.0524382
0.0524119
0.0523856
0.0523592
0.0523329
0.0523068
0.0522808
0.0522551
0.0522297
0.0522045
0.0521797
0.052155
0.0521306
0.0521062
0.0520819
0.0520574
0.0520329
0.0520081
0.0519829
0.0519572
0.051931
0.0519042
0.0518766
0.0518482
0.051819
0.0517888
0.0517577
0.0517257
0.0516928
0.0516589
0.0516242
0.0515888
0.0515525
0.0515157
0.0514783
0.0514403
0.051402
0.0513633
0.0513244
0.0512852
0.0512459
0.0512064
0.0511669
0.0511273
0.0510878
0.0510484
0.0510089
0.0509696
0.0509301
0.0508906
0.050851
0.0508111
0.0507709
0.0507304
0.0506894
0.050648
0.0506062
0.0505638
0.0505209
0.0504776
0.0504337
0.0503895
0.0503447
0.0502996
0.0502541
0.0502082
0.0501619
0.0501153
0.0500684
0.0500211
0.0499736
0.0499259
0.0498781
0.0498302
0.0497823
0.0497343
0.0496864
0.0496385
0.0495906
0.0495428
0.0494949
0.0494471
0.0493993
0.0493514
0.0493035
0.0492556
0.0492079
0.0491602
0.0491128
0.0490657
0.0490189
0.0489725
0.0489267
0.0488816
0.0488371
0.0487935
0.0487506
0.0487085
0.0486671
0.0486265
0.0485865
0.0485472
0.0485083
0.04847
0.048432
0.0483943
0.048357
0.0483198
0.0482828
0.0482459
0.0482091
0.0481726
0.0481362
0.0481002
0.0480646
0.0480292
0.0479942
0.0479595
0.047925
0.0478908
0.0478566
0.0478226
0.0477885
0.0477544
0.0477202
0.0476859
0.0476515
0.047617
0.0475823
0.0475476
0.0475127
0.0474776
0.0474425
0.0474074
0.0473721
0.0473369
0.0473015
0.0472659
0.04723
0.0471938
0.0471572
0.0471203
0.0470831
0.0470458
0.0470084
0.046971
0.0469337
0.0468964
0.0468592
0.0468221
0.0467849
0.0467475
0.0467096
0.0466713
0.0466322
0.0465924
0.0465515
0.0465099
0.0464674
0.0464246
0.0463811
0.0463376
0.0462936
0.0462498
0.0462054
0.0461611
0.0461158
0.0460702
0.0460226
0.045974
0.0459207
0.0458646
0.0457982
0.0457245
0.045629
0.0455166
0.0453585
0.0451626
0.0448716
0.0444952
0.0439212
0.0431515
0.0419781
0.04036
0.0379453
0.0346774
0.0302006
0.0243034
0.0153301
0.00728855
0.00820273
0.0144376
)
;

boundaryField
{
    inlet
    {
        type            calculated;
        value           uniform 0;
    }
    endWall
    {
        type            calculated;
        value           uniform 0;
    }
    sideWall
    {
        type            empty;
    }
}


// ************************************************************************* //
