/*--------------------------------*- C++ -*----------------------------------*\
| =========                 |                                                 |
| \\      /  F ield         | foam-extend: Open Source CFD                    |
|  \\    /   O peration     | Version:     3.2                                |
|   \\  /    A nd           | Web:         http://www.foam-extend.org         |
|    \\/     M anipulation  | For copyright notice see file Copyright         |
\*---------------------------------------------------------------------------*/
FoamFile
{
    version     2.0;
    format      ascii;
    class       areaScalarField;
    location    "120";
    object      thetaCB;
}
// * * * * * * * * * * * * * * * * * * * * * * * * * * * * * * * * * * * * * //

dimensions      [0 0 0 0 0 0 0];

internalField   nonuniform List<scalar> 
550
(
0.0367204
0.0367204
0.0367204
0.0367204
0.0367204
0.0367204
0.0367204
0.0367204
0.0367204
0.0367204
0.0367204
0.0367204
0.0367204
0.0367204
0.0367204
0.0367204
0.0367204
0.0367204
0.0367204
0.0367204
0.0367204
0.0367204
0.0367204
0.0367204
0.0367204
0.0367204
0.0367204
0.0367204
0.0367204
0.0367204
0.0367204
0.0367204
0.0367204
0.0367204
0.0367204
0.0367204
0.0367204
0.0367204
0.0367204
0.0367204
0.0367204
0.0367204
0.0367204
0.0367204
0.0367204
0.0367204
0.0367204
0.0367204
0.0367204
0.0367204
0.0367204
0.0367204
0.0367204
0.0367204
0.0367204
0.0367204
0.0367204
0.0367203
0.0367207
0.0367414
0.0367317
0.0367349
0.0367376
0.0367377
0.036739
0.0367405
0.0367424
0.0367446
0.036747
0.0367495
0.036752
0.0367545
0.0367571
0.0367597
0.0367623
0.0367649
0.0367675
0.0367702
0.0367729
0.0367757
0.0367788
0.036782
0.0367853
0.0367887
0.0367922
0.0367956
0.036799
0.0368023
0.0368055
0.0368087
0.0368117
0.0368146
0.0368173
0.0368199
0.0368223
0.0368245
0.0368265
0.0368283
0.0368301
0.0368319
0.0368336
0.0368352
0.0368367
0.0368381
0.0368395
0.0368407
0.0368418
0.0368427
0.0368435
0.0368441
0.0368446
0.036845
0.0368454
0.0368458
0.0368462
0.0368467
0.0368471
0.0368476
0.0368482
0.0368488
0.0368495
0.0368503
0.0368512
0.036852
0.036853
0.036854
0.0368551
0.0368562
0.0368575
0.0368589
0.0368604
0.036862
0.0368638
0.0368656
0.0368675
0.0368694
0.0368714
0.0368734
0.0368753
0.0368773
0.0368791
0.0368809
0.0368827
0.0368843
0.0368859
0.0368874
0.0368888
0.0368901
0.0368914
0.0368926
0.0368938
0.036895
0.0368962
0.0368973
0.0368985
0.0368997
0.036901
0.0369023
0.0369037
0.0369052
0.0369069
0.0369087
0.0369107
0.0369129
0.0369153
0.036918
0.0369208
0.0369239
0.0369273
0.0369308
0.0369346
0.0369386
0.0369429
0.0369473
0.0369519
0.0369567
0.0369616
0.0369666
0.0369716
0.0369766
0.0369816
0.0369865
0.0369912
0.0369957
0.0370001
0.0370042
0.037008
0.0370116
0.0370148
0.0370176
0.0370201
0.0370221
0.0370237
0.0370248
0.0370255
0.0370256
0.0370252
0.0370244
0.0370231
0.0370214
0.0370193
0.0370169
0.0370141
0.0370111
0.0370078
0.0370043
0.0370005
0.0369967
0.0369926
0.0369885
0.0369843
0.0369799
0.0369753
0.0369704
0.0369653
0.0369599
0.0369544
0.0369486
0.0369427
0.0369367
0.0369305
0.0369242
0.0369177
0.0369112
0.0369047
0.0368982
0.0368919
0.0368858
0.0368798
0.0368741
0.0368685
0.0368631
0.0368578
0.0368528
0.0368478
0.0368431
0.0368385
0.0368342
0.0368301
0.0368262
0.0368226
0.0368194
0.0368166
0.0368141
0.0368122
0.0368107
0.0368097
0.0368093
0.0368095
0.0368103
0.0368117
0.0368137
0.0368164
0.0368198
0.0368238
0.0368285
0.0368339
0.03684
0.0368466
0.0368539
0.0368618
0.0368704
0.0368794
0.0368889
0.0368989
0.0369093
0.03692
0.0369311
0.0369425
0.036954
0.0369658
0.0369776
0.0369896
0.0370016
0.0370137
0.0370258
0.0370379
0.0370499
0.0370619
0.0370737
0.0370854
0.0370969
0.0371083
0.0371193
0.0371302
0.0371407
0.0371508
0.0371607
0.0371701
0.0371792
0.0371878
0.037196
0.0372039
0.0372112
0.0372182
0.0372247
0.0372308
0.0372365
0.0372417
0.0372466
0.037251
0.037255
0.0372586
0.0372619
0.0372647
0.0372672
0.0372694
0.0372712
0.0372728
0.037274
0.037275
0.0372757
0.037276
0.037276
0.0372756
0.0372748
0.0372736
0.0372719
0.0372698
0.0372671
0.037264
0.0372604
0.0372563
0.0372518
0.037247
0.0372418
0.0372362
0.0372304
0.0372243
0.0372179
0.0372111
0.0372041
0.0371967
0.037189
0.0371809
0.0371724
0.0371636
0.0371544
0.0371448
0.0371349
0.0371247
0.0371143
0.0371037
0.0370929
0.0370821
0.0370712
0.0370603
0.0370495
0.0370387
0.0370282
0.0370179
0.037008
0.0369983
0.0369889
0.0369798
0.0369711
0.0369627
0.0369546
0.0369469
0.0369394
0.0369322
0.0369253
0.0369185
0.0369119
0.0369054
0.0368991
0.0368928
0.0368867
0.0368808
0.036875
0.0368696
0.0368644
0.0368597
0.0368554
0.0368517
0.0368485
0.036846
0.0368442
0.0368432
0.0368429
0.0368434
0.0368449
0.0368472
0.0368505
0.0368548
0.0368599
0.036866
0.036873
0.0368809
0.0368896
0.036899
0.0369092
0.0369199
0.0369312
0.036943
0.0369551
0.0369675
0.0369801
0.0369928
0.0370056
0.0370185
0.0370312
0.0370438
0.0370562
0.0370683
0.0370802
0.0370918
0.0371033
0.0371146
0.0371259
0.0371371
0.0371484
0.0371598
0.0371714
0.0371831
0.037195
0.0372071
0.0372194
0.0372318
0.0372444
0.0372572
0.03727
0.0372829
0.0372959
0.0373089
0.0373218
0.0373346
0.0373472
0.0373595
0.0373715
0.037383
0.037394
0.0374044
0.0374142
0.0374234
0.037432
0.0374399
0.0374472
0.0374538
0.0374598
0.0374653
0.0374701
0.0374744
0.0374782
0.0374815
0.0374843
0.0374865
0.0374881
0.0374892
0.0374895
0.0374892
0.0374881
0.0374862
0.0374834
0.0374797
0.0374753
0.0374699
0.0374638
0.037457
0.0374495
0.0374414
0.0374328
0.0374237
0.0374142
0.0374044
0.0373942
0.0373838
0.0373731
0.0373622
0.0373509
0.0373394
0.0373277
0.0373157
0.0373035
0.0372913
0.037279
0.0372667
0.0372546
0.0372428
0.0372312
0.0372199
0.0372091
0.0371986
0.0371886
0.037179
0.0371699
0.0371612
0.0371531
0.0371454
0.0371383
0.0371316
0.0371254
0.0371195
0.0371141
0.0371092
0.0371047
0.0371009
0.0370976
0.0370951
0.0370932
0.0370919
0.037091
0.0370906
0.0370906
0.0370908
0.0370913
0.037092
0.0370929
0.0370941
0.0370957
0.0370978
0.0371005
0.0371039
0.037108
0.0371129
0.0371184
0.0371244
0.0371308
0.0371374
0.0371443
0.0371515
0.0371587
0.0371664
0.0371742
0.0371825
0.037191
0.0372
0.0372095
0.0372199
0.0372315
0.0372449
0.0372611
0.0372811
0.0373069
0.0373407
0.0373905
0.0374359
0.0375682
0.0368745
0.0366015
0.0367204
0.0367204
0.0367204
0.0367204
0.0367204
0.0367204
0.0367204
0.0367204
0.0369471
0.0369471
)
;

boundaryField
{
    inlet
    {
        type            calculated;
        value           uniform 0;
    }
    endWall
    {
        type            calculated;
        value           uniform 0;
    }
    sideWall
    {
        type            empty;
    }
}


// ************************************************************************* //
