/*--------------------------------*- C++ -*----------------------------------*\
| =========                 |                                                 |
| \\      /  F ield         | foam-extend: Open Source CFD                    |
|  \\    /   O peration     | Version:     3.2                                |
|   \\  /    A nd           | Web:         http://www.foam-extend.org         |
|    \\/     M anipulation  | For copyright notice see file Copyright         |
\*---------------------------------------------------------------------------*/
FoamFile
{
    version     2.0;
    format      ascii;
    class       areaScalarField;
    location    "120";
    object      totH;
}
// * * * * * * * * * * * * * * * * * * * * * * * * * * * * * * * * * * * * * //

dimensions      [0 0 0 0 0 0 0];

internalField   nonuniform List<scalar> 
550
(
0
0
0
0
0
0
0
0
0
0
0
0
0
0
0
0
0
0
0
0
0
0
0
0
0
0
0
0
0
0
0
0
0
0
0
0
0
0
0
0
0
0
0
0
0
0
0
0
0
0
0
0
0
0
0
-7.92753e-10
-3.26414e-09
-2.68479e-08
-2.11244e-10
-5.3488e-09
1.91353e-07
1.95153e-06
5.73556e-06
1.03496e-05
1.50722e-05
1.9795e-05
2.44235e-05
2.89438e-05
3.33544e-05
3.76638e-05
4.18832e-05
4.60268e-05
5.01099e-05
5.41424e-05
5.81255e-05
6.20544e-05
6.59191e-05
6.97047e-05
7.34047e-05
7.70278e-05
8.0584e-05
8.40772e-05
8.7509e-05
9.08804e-05
9.4192e-05
9.74462e-05
0.000100648
0.000103806
0.000106933
0.000110046
0.000113156
0.000116255
0.000119336
0.000122391
0.000125411
0.000128387
0.000131308
0.000134172
0.000136998
0.000139815
0.000142639
0.000145478
0.000148338
0.000151221
0.000154126
0.000157053
0.00016
0.000162966
0.000165953
0.000168961
0.000171989
0.000175033
0.000178091
0.000181168
0.000184276
0.000187413
0.000190556
0.000193695
0.000196832
0.000199966
0.000203097
0.000206225
0.000209346
0.000212458
0.000215558
0.000218644
0.000221714
0.000224767
0.0002278
0.000230812
0.000233798
0.000236755
0.000239679
0.000242568
0.000245418
0.000248229
0.000250997
0.000253722
0.000256403
0.000259039
0.000261629
0.000264174
0.000266674
0.000269128
0.000271537
0.000273902
0.000276225
0.000278509
0.000280754
0.000282962
0.000285133
0.000287268
0.000289367
0.00029143
0.000293459
0.000295453
0.000297415
0.000299345
0.000301247
0.000303121
0.000304967
0.000306786
0.000308575
0.000310336
0.000312067
0.000313767
0.000315437
0.000317077
0.000318686
0.000320265
0.000321815
0.000323334
0.000324822
0.000326278
0.000327703
0.000329095
0.000330453
0.000331778
0.000333067
0.00033432
0.000335536
0.000336713
0.000337852
0.000338952
0.000340013
0.000341036
0.000342018
0.000342959
0.000343859
0.000344719
0.000345538
0.000346316
0.000347052
0.000347746
0.000348398
0.000349008
0.000349577
0.000350109
0.000350605
0.000351066
0.000351493
0.000351886
0.000352246
0.000352576
0.000352879
0.000353156
0.000353406
0.000353626
0.00035382
0.000353988
0.00035413
0.000354247
0.000354339
0.000354406
0.00035445
0.000354472
0.00035447
0.000354444
0.000354389
0.000354304
0.000354189
0.000354042
0.000353866
0.000353669
0.000353458
0.000353235
0.000352994
0.000352732
0.000352451
0.000352152
0.000351834
0.000351495
0.000351139
0.000350767
0.000350381
0.000349978
0.000349556
0.000349119
0.000348667
0.000348198
0.000347714
0.000347217
0.000346709
0.00034619
0.000345663
0.000345129
0.000344592
0.000344057
0.000343526
0.000342997
0.000342474
0.000341961
0.000341463
0.000340981
0.000340522
0.000340088
0.00033968
0.000339294
0.000338933
0.000338599
0.000338299
0.000338046
0.000337841
0.000337669
0.000337518
0.000337383
0.000337254
0.000337136
0.000337034
0.000336948
0.00033688
0.000336831
0.000336802
0.000336794
0.000336805
0.000336836
0.000336885
0.000336951
0.000337035
0.000337134
0.000337248
0.000337374
0.000337513
0.000337663
0.000337823
0.000337989
0.000338161
0.000338339
0.000338521
0.000338707
0.000338895
0.000339085
0.000339275
0.000339466
0.000339655
0.000339844
0.00034003
0.000340215
0.000340397
0.000340577
0.000340756
0.000340932
0.000341108
0.000341283
0.000341457
0.00034163
0.000341803
0.000341976
0.000342148
0.000342317
0.000342484
0.000342645
0.0003428
0.000342946
0.000343083
0.000343209
0.000343323
0.000343424
0.000343513
0.00034359
0.000343656
0.000343711
0.000343759
0.000343799
0.000343831
0.000343855
0.000343869
0.000343874
0.000343869
0.000343851
0.00034382
0.000343772
0.000343706
0.000343623
0.000343522
0.000343401
0.000343262
0.000343106
0.000342935
0.000342752
0.000342559
0.000342362
0.000342166
0.000341968
0.000341769
0.000341572
0.000341378
0.00034119
0.00034101
0.000340847
0.000340712
0.000340612
0.000340544
0.000340489
0.000340422
0.000340336
0.000340237
0.000340129
0.000340013
0.00033989
0.000339761
0.000339627
0.000339486
0.000339336
0.000339181
0.000339018
0.000338841
0.000338651
0.000338452
0.000338245
0.000338031
0.000337808
0.000337581
0.00033735
0.000337116
0.000336881
0.000336644
0.00033641
0.000336178
0.000335951
0.000335736
0.00033554
0.000335375
0.000335246
0.000335153
0.000335097
0.000335078
0.000335094
0.000335138
0.000335209
0.000335308
0.000335424
0.000335546
0.000335678
0.000335819
0.000335959
0.000336093
0.000336226
0.000336358
0.00033649
0.000336621
0.000336753
0.000336889
0.000337031
0.000337175
0.000337319
0.000337464
0.000337615
0.000337774
0.000337945
0.000338127
0.000338321
0.000338527
0.000338745
0.000338975
0.000339215
0.000339465
0.000339724
0.00033999
0.000340263
0.000340542
0.000340826
0.000341117
0.000341413
0.000341713
0.000342015
0.00034232
0.000342626
0.000342931
0.000343232
0.000343529
0.000343822
0.000344109
0.000344391
0.000344669
0.000344943
0.000345214
0.000345484
0.000345751
0.000346017
0.000346282
0.000346544
0.000346801
0.000347052
0.000347294
0.000347525
0.000347744
0.000347949
0.000348137
0.000348307
0.000348455
0.000348581
0.000348685
0.00034877
0.000348837
0.000348888
0.000348925
0.000348948
0.000348961
0.000348966
0.000348964
0.000348957
0.000348947
0.000348933
0.000348918
0.000348902
0.000348883
0.00034886
0.00034883
0.000348792
0.000348742
0.000348682
0.000348612
0.000348533
0.000348449
0.000348359
0.000348265
0.00034817
0.000348075
0.000347981
0.000347889
0.000347799
0.000347711
0.000347624
0.000347537
0.00034745
0.000347363
0.000347276
0.000347188
0.000347099
0.000347006
0.00034691
0.000346813
0.000346717
0.000346626
0.000346541
0.000346464
0.000346395
0.000346329
0.000346262
0.000346191
0.000346115
0.000346032
0.000345943
0.000345849
0.000345752
0.000345653
0.000345557
0.00034547
0.000345397
0.000345342
0.000345307
0.000345294
0.0003453
0.000345321
0.000345351
0.000345385
0.000345418
0.000345448
0.000345475
0.000345502
0.000345533
0.000345575
0.000345638
0.000345736
0.000345885
0.000346115
0.000346474
0.000347025
0.000347864
0.00034913
0.000351014
0.000353793
0.000357856
0.000363704
0.000372157
0.000381252
0.000393362
0.000304501
0.000103808
0
0
0
0
0
0
0
0
0
0
)
;

boundaryField
{
    inlet
    {
        type            calculated;
        value           uniform 0;
    }
    endWall
    {
        type            calculated;
        value           uniform 0;
    }
    sideWall
    {
        type            empty;
    }
}


// ************************************************************************* //
