/*--------------------------------*- C++ -*----------------------------------*\
| =========                 |                                                 |
| \\      /  F ield         | foam-extend: Open Source CFD                    |
|  \\    /   O peration     | Version:     3.2                                |
|   \\  /    A nd           | Web:         http://www.foam-extend.org         |
|    \\/     M anipulation  | For copyright notice see file Copyright         |
\*---------------------------------------------------------------------------*/
FoamFile
{
    version     2.0;
    format      ascii;
    class       volVectorField;
    location    "120";
    object      U;
}
// * * * * * * * * * * * * * * * * * * * * * * * * * * * * * * * * * * * * * //

dimensions      [0 1 -1 0 0 0 0];

internalField   nonuniform List<vector> 
33000
(
(0.357307 0 0.000556527)
(0.352754 0 0.000451756)
(0.346646 -5.47696e-29 0.000577681)
(0.339842 0 0.000563943)
(0.333314 1.4923e-29 0.000624114)
(0.32672 0 0.000572985)
(0.320685 -9.58468e-29 0.000554094)
(0.314657 1.09548e-28 0.000517551)
(0.309078 1.14564e-28 0.00052851)
(0.303524 -7.53707e-29 0.000516338)
(0.29832 7.96077e-29 0.000496574)
(0.293209 0 0.00045336)
(0.288414 -2.72028e-38 0.000420747)
(0.283733 9.02482e-29 0.00037577)
(0.279266 0 0.000324698)
(0.274929 9.02747e-29 0.000271531)
(0.27081 -9.62432e-29 0.000206206)
(0.266866 8.34674e-29 0.000146263)
(0.263103 4.95953e-29 9.67696e-05)
(0.25947 0 5.15785e-05)
(0.255988 1.65859e-29 1.63566e-05)
(0.252642 -1.38893e-29 -1.36296e-05)
(0.249439 0 -3.97902e-05)
(0.246379 1.5396e-29 -6.61757e-05)
(0.243474 0 -9.22317e-05)
(0.240722 0 -0.000118511)
(0.238129 2.18625e-29 -0.000142906)
(0.235682 0 -0.000158474)
(0.233365 0 -0.000165887)
(0.231168 0 -0.000174232)
(0.229083 -1.33501e-29 -0.000182565)
(0.227107 0 -0.000190191)
(0.225238 0 -0.000198037)
(0.223468 1.42992e-29 -0.000206102)
(0.221793 0 -0.000214488)
(0.220209 -1.60784e-29 -0.000222888)
(0.218712 0 -0.000230959)
(0.217299 0 -0.0002388)
(0.215964 9.03274e-40 -0.000246727)
(0.214706 0 -0.000254915)
(0.213521 1.96901e-29 -0.000264291)
(0.212405 0 -0.000273896)
(0.211352 0 -0.000282185)
(0.210358 0 -0.00029031)
(0.20942 2.07966e-29 -0.000298139)
(0.208534 0 -0.000306176)
(0.207698 0 -0.000314964)
(0.206909 0 -0.000323426)
(0.206165 2.31545e-29 -0.00033131)
(0.205462 2.33252e-29 -0.000338661)
(0.204799 -2.3466e-29 -0.000345531)
(0.204173 0 -0.00035181)
(0.203582 2.3371e-29 -0.000357341)
(0.203023 0 -0.000361955)
(0.202493 2.26621e-29 -0.000365818)
(0.201989 -2.63042e-37 -0.00036913)
(0.20151 0 -0.000371629)
(0.201054 0 -0.000373226)
(0.200621 1.97841e-29 -0.000373072)
(0.2002 4.34699e-29 -0.000375501)
(0.199794 -3.33735e-29 -0.00037141)
(0.199436 0 -0.000351854)
(0.199121 -7.67925e-30 -0.000337827)
(0.198816 -1.50115e-29 -0.000334087)
(0.198522 -8.24849e-36 -0.000331936)
(0.19824 -1.69832e-29 -0.000331724)
(0.197969 0 -0.000332099)
(0.197709 1.69844e-29 -0.000332787)
(0.197459 -6.39761e-37 -0.00033346)
(0.19722 -1.64087e-29 -0.000334074)
(0.196989 -1.61556e-29 -0.000334654)
(0.196766 -1.58348e-29 -0.000335107)
(0.196551 0 -0.000335541)
(0.196342 1.55308e-29 -0.000336122)
(0.196139 0 -0.000336829)
(0.195941 1.50396e-29 -0.000337573)
(0.195749 -1.47875e-29 -0.000338423)
(0.195562 -1.45418e-29 -0.000339438)
(0.195381 0 -0.000340239)
(0.195206 6.44462e-37 -0.000340733)
(0.195037 -1.29539e-29 -0.000341357)
(0.194872 0 -0.000342003)
(0.194711 -1.23936e-29 -0.000342662)
(0.194554 -1.21277e-29 -0.000343301)
(0.194401 0 -0.000343876)
(0.194252 -2.30558e-29 -0.000344348)
(0.194105 0 -0.000344703)
(0.193961 0 -0.000344893)
(0.19382 0 -0.00034488)
(0.193681 -9.83543e-30 -0.000344376)
(0.193544 -1.21955e-36 -0.000343586)
(0.193407 0 -0.00034305)
(0.193271 -9.28561e-30 -0.000342965)
(0.193137 -9.45898e-37 -0.000343117)
(0.193005 0 -0.00034317)
(0.192874 -1.3683e-36 -0.000343434)
(0.192746 -8.15976e-37 -0.000344298)
(0.19262 9.81638e-30 -0.000345822)
(0.192498 -9.63542e-30 -0.000346891)
(0.192378 9.02626e-30 -0.000347005)
(0.19226 8.73948e-30 -0.000346768)
(0.192142 0 -0.000346338)
(0.192025 1.68802e-29 -0.000345861)
(0.191909 0 -0.000345331)
(0.191793 -8.30242e-30 -0.000344809)
(0.191677 0 -0.000344281)
(0.191561 -8.24509e-30 -0.000343762)
(0.191444 0 -0.000343198)
(0.191327 -8.19629e-30 -0.00034264)
(0.191209 0 -0.000342047)
(0.191091 0 -0.00034145)
(0.190971 0 -0.000340915)
(0.190851 -1.92373e-36 -0.000340325)
(0.190731 1.67416e-36 -0.000339472)
(0.19061 -7.92781e-30 -0.000338634)
(0.190485 0 -0.000338191)
(0.19036 0 -0.000337736)
(0.190234 0 -0.000337085)
(0.190108 0 -0.00033652)
(0.18998 0 -0.000336001)
(0.189851 -8.04046e-30 -0.000335497)
(0.189721 8.02656e-30 -0.000335017)
(0.189591 7.99974e-30 -0.000334547)
(0.189459 1.59818e-29 -0.000334111)
(0.189325 -1.59356e-29 -0.000333695)
(0.189191 7.9532e-30 -0.000333312)
(0.189056 7.92996e-30 -0.000332955)
(0.18892 4.60076e-37 -0.000332632)
(0.188783 0 -0.000332346)
(0.188645 0 -0.000332101)
(0.188507 7.83284e-30 -0.0003319)
(0.188368 0 -0.000331739)
(0.188228 -1.5553e-29 -0.000331618)
(0.188088 4.85032e-37 -0.000331528)
(0.187948 -7.7075e-30 -0.000331474)
(0.187806 -7.66559e-30 -0.000331445)
(0.187665 0 -0.000331442)
(0.187522 -7.58077e-30 -0.00033146)
(0.18738 5.03946e-38 -0.000331497)
(0.187237 3.42585e-38 -0.000331551)
(0.187094 0 -0.000331615)
(0.18695 0 -0.000331691)
(0.186807 0 -0.000331777)
(0.186663 -2.2504e-37 -0.000331873)
(0.186519 7.28528e-30 -0.000331966)
(0.186375 -7.2391e-30 -0.000332053)
(0.186231 0 -0.000332127)
(0.186087 0 -0.000332193)
(0.185944 1.52976e-37 -0.000332254)
(0.1858 -7.10681e-30 -0.000332314)
(0.185656 -7.09387e-30 -0.000332381)
(0.185512 0 -0.000332454)
(0.185369 0 -0.000332541)
(0.185226 0 -0.000332636)
(0.185083 7.0527e-30 -0.000332739)
(0.18494 0 -0.000332849)
(0.184798 7.02416e-30 -0.000332957)
(0.184657 7.00475e-30 -0.000333062)
(0.184517 -1.39717e-29 -0.000333167)
(0.184377 5.43236e-40 -0.000333278)
(0.184238 6.95608e-30 -0.000333405)
(0.1841 0 -0.00033356)
(0.183963 6.93452e-30 -0.00033374)
(0.183828 0 -0.000333941)
(0.183693 -6.89507e-30 -0.000334162)
(0.18356 -1.37392e-29 -0.000334402)
(0.183428 6.83947e-30 -0.000334657)
(0.183298 -6.80481e-30 -0.000334923)
(0.183169 6.76178e-30 -0.000335191)
(0.183042 6.71933e-30 -0.000335464)
(0.182916 0 -0.000335749)
(0.182792 6.63784e-30 -0.000336049)
(0.182669 6.59553e-30 -0.000336358)
(0.182548 0 -0.000336663)
(0.182428 0 -0.000336965)
(0.18231 -6.44157e-30 -0.000337273)
(0.182193 0 -0.000337587)
(0.182078 0 -0.000337898)
(0.181964 0 -0.000338212)
(0.181851 -6.23395e-30 -0.000338533)
(0.18174 -4.39564e-38 -0.000338856)
(0.181629 -6.14919e-30 -0.000339179)
(0.18152 0 -0.000339501)
(0.181412 0 -0.000339822)
(0.181304 6.01848e-30 -0.000340135)
(0.181198 0 -0.000340441)
(0.181092 1.18705e-29 -0.000340748)
(0.180987 -5.89087e-30 -0.000341051)
(0.180883 0 -0.000341336)
(0.18078 0 -0.000341608)
(0.180677 0 -0.000341882)
(0.180575 1.13872e-29 -0.000342163)
(0.180473 0 -0.000342447)
(0.180372 1.1238e-29 -0.000342731)
(0.180272 0 -0.000343018)
(0.180172 0 -0.000343299)
(0.180072 -5.53487e-30 -0.000343563)
(0.179973 -1.09958e-29 -0.0003438)
(0.179874 1.09332e-29 -0.000344025)
(0.179776 -1.0579e-37 -0.00034425)
(0.179679 5.41251e-30 -0.000344477)
(0.179582 5.37835e-30 -0.000344702)
(0.179486 0 -0.000344929)
(0.17939 5.29926e-30 -0.000345151)
(0.179296 6.10621e-38 -0.000345353)
(0.179202 6.01142e-37 -0.000345567)
(0.179109 3.07577e-37 -0.000345819)
(0.179018 3.88925e-37 -0.000346069)
(0.178927 -5.08025e-30 -0.000346305)
(0.178838 0 -0.000346525)
(0.178749 0 -0.000346648)
(0.178661 -4.77076e-30 -0.000346697)
(0.178574 -4.70041e-30 -0.000346758)
(0.178487 -4.62348e-30 -0.00034683)
(0.178401 0 -0.000346919)
(0.178316 -8.92618e-30 -0.000347005)
(0.178232 8.77393e-30 -0.000347118)
(0.178149 -8.64811e-30 -0.000347274)
(0.178067 -4.25626e-30 -0.000347458)
(0.177986 0 -0.000347674)
(0.177906 0 -0.000347902)
(0.177827 -4.07938e-30 -0.000348134)
(0.177749 0 -0.00034835)
(0.177673 -3.91955e-30 -0.000348494)
(0.177598 -3.8437e-30 -0.000348592)
(0.177524 0 -0.000348725)
(0.177451 -3.81746e-30 -0.000348923)
(0.17738 3.79295e-30 -0.000349138)
(0.17731 0 -0.000349338)
(0.177242 7.46424e-30 -0.000349554)
(0.177175 0 -0.000349795)
(0.17711 0 -0.000350043)
(0.177046 0 -0.000350284)
(0.176984 -3.60119e-30 -0.000350512)
(0.176924 3.56545e-30 -0.000350756)
(0.176865 7.0696e-30 -0.000351033)
(0.176808 0 -0.00035131)
(0.176753 0 -0.000351578)
(0.1767 0 -0.000351858)
(0.176648 -3.25887e-30 -0.000352154)
(0.176599 0 -0.000352443)
(0.176551 0 -0.000352718)
(0.176505 -2.96043e-30 -0.000352983)
(0.176462 1.50793e-37 -0.00035323)
(0.17642 5.47068e-30 -0.000353458)
(0.176379 -2.61846e-30 -0.000353664)
(0.176341 0 -0.000353818)
(0.176304 -2.35987e-30 -0.000353925)
(0.176269 2.72989e-38 -0.000354035)
(0.176235 0 -0.000354138)
(0.176203 5.96371e-37 -0.000354194)
(0.176172 0 -0.000354203)
(0.176142 0 -0.000354188)
(0.176114 0 -0.000354126)
(0.176086 1.73914e-30 -0.000354003)
(0.17606 0 -0.000353859)
(0.176035 -3.28986e-30 -0.000353713)
(0.176011 0 -0.000353577)
(0.175988 1.5774e-30 -0.000353405)
(0.175966 0 -0.000353191)
(0.175945 0 -0.000352911)
(0.175924 0 -0.000352503)
(0.175905 1.42129e-30 -0.000352166)
(0.175886 1.48338e-30 -0.000351963)
(0.175868 0 -0.000351786)
(0.17585 0 -0.000351707)
(0.175832 3.03964e-30 -0.000351645)
(0.175815 0 -0.000351515)
(0.175798 0 -0.000351353)
(0.175782 -1.39928e-30 -0.000351164)
(0.175765 0 -0.000350938)
(0.175749 -1.33873e-30 -0.000350689)
(0.175732 0 -0.000350402)
(0.175715 -1.29552e-30 -0.0003501)
(0.175697 0 -0.000349771)
(0.175678 0 -0.000349442)
(0.175659 -1.28621e-30 -0.000349103)
(0.175639 0 -0.000348761)
(0.175618 0 -0.000348403)
(0.175596 0 -0.00034806)
(0.175573 0 -0.000347711)
(0.175549 0 -0.00034737)
(0.175524 0 -0.000347032)
(0.175498 0 -0.000346713)
(0.175471 -1.59492e-30 -0.000346415)
(0.175442 0 -0.000346135)
(0.175413 -1.69752e-30 -0.000345864)
(0.175383 0 -0.000345615)
(0.175352 1.7914e-30 -0.000345375)
(0.17532 0 -0.000345149)
(0.175288 -3.05737e-37 -0.000344928)
(0.175254 0 -0.000344727)
(0.17522 1.89867e-30 -0.00034453)
(0.175185 -8.13549e-38 -0.000344351)
(0.17515 0 -0.000344172)
(0.175113 1.91484e-30 -0.000344005)
(0.175076 0 -0.000343826)
(0.175038 -1.01514e-37 -0.00034364)
(0.175 0 -0.000343448)
(0.17496 3.71949e-30 -0.000343236)
(0.174919 0 -0.000343017)
(0.174878 -3.67431e-30 -0.000342775)
(0.174835 0 -0.00034253)
(0.174791 3.68641e-30 -0.000342283)
(0.174746 0 -0.000342024)
(0.1747 3.74771e-30 -0.000341762)
(0.174653 0 -0.0003415)
(0.174604 -1.33434e-37 -0.000341239)
(0.174555 -1.98089e-30 -0.000340993)
(0.174504 -2.07189e-37 -0.000340759)
(0.174453 0 -0.000340552)
(0.1744 1.14105e-37 -0.000340365)
(0.174347 -4.41711e-30 -0.000340199)
(0.174293 0 -0.000340052)
(0.174238 2.33202e-30 -0.000339927)
(0.174183 -2.3937e-30 -0.000339823)
(0.174127 -2.45034e-30 -0.000339736)
(0.17407 -5.00774e-30 -0.000339659)
(0.174013 -6.78383e-38 -0.000339594)
(0.173956 0 -0.000339533)
(0.173898 5.2744e-30 -0.000339479)
(0.17384 -2.66558e-30 -0.000339421)
(0.173782 2.69835e-30 -0.000339378)
(0.173724 0 -0.000339335)
(0.173667 0 -0.000339319)
(0.173609 0 -0.000339313)
(0.173552 0 -0.000339334)
(0.173495 0 -0.000339361)
(0.173438 2.78677e-30 -0.00033941)
(0.173382 -2.77978e-30 -0.000339473)
(0.173327 -3.75791e-38 -0.000339565)
(0.173271 -1.5566e-37 -0.000339667)
(0.173217 0 -0.000339781)
(0.173162 0 -0.000339898)
(0.173108 0 -0.000340021)
(0.173054 2.57602e-30 -0.000340134)
(0.173001 0 -0.000340232)
(0.172948 3.18479e-37 -0.000340302)
(0.172895 2.37232e-30 -0.000340343)
(0.172841 2.29419e-30 -0.000340348)
(0.172788 0 -0.000340301)
(0.172735 2.11939e-30 -0.000340184)
(0.172682 2.05895e-30 -0.000340037)
(0.172628 0 -0.000339882)
(0.172573 0 -0.000339689)
(0.172518 1.91993e-30 -0.000339457)
(0.172463 0 -0.000339205)
(0.172406 0 -0.000338918)
(0.172349 1.47333e-36 -0.000338578)
(0.172291 0 -0.000338162)
(0.172232 0 -0.000337665)
(0.172173 1.81087e-30 -0.000337147)
(0.172113 2.8697e-36 -0.000336697)
(0.172053 0 -0.000336468)
(0.171991 -2.15912e-30 -0.000336415)
(0.171929 -2.19931e-30 -0.000336369)
(0.171867 0 -0.000336307)
(0.171805 0 -0.000336231)
(0.171742 0 -0.000336162)
(0.171679 0 -0.000336103)
(0.171617 -2.36343e-30 -0.000336036)
(0.171554 0 -0.000335986)
(0.171492 0 -0.000335983)
(0.17143 2.49835e-30 -0.000335984)
(0.171369 5.04093e-30 -0.000335972)
(0.171308 0 -0.000336035)
(0.171247 -2.64129e-30 -0.000336149)
(0.171187 2.64744e-30 -0.000336241)
(0.171128 -5.31434e-30 -0.000336328)
(0.17107 0 -0.000336431)
(0.171013 2.67897e-30 -0.000336556)
(0.170958 0 -0.000336674)
(0.170903 0 -0.000336783)
(0.17085 0 -0.000336896)
(0.170798 0 -0.000337007)
(0.170747 0 -0.000337103)
(0.170698 0 -0.000337183)
(0.17065 0 -0.000337242)
(0.170603 0 -0.000337273)
(0.170557 2.30352e-30 -0.000337267)
(0.170512 0 -0.000337198)
(0.170468 -2.13198e-30 -0.000337029)
(0.170425 0 -0.000336778)
(0.170384 0 -0.000336505)
(0.170343 1.92846e-30 -0.000336225)
(0.170303 1.88426e-30 -0.000335945)
(0.170264 0 -0.000335668)
(0.170226 0 -0.000335408)
(0.170189 1.81965e-30 -0.000335216)
(0.170152 1.76608e-30 -0.000334997)
(0.170117 0 -0.000334772)
(0.170082 0 -0.000334692)
(0.170047 0 -0.000334633)
(0.170013 0 -0.000334517)
(0.169979 0 -0.000334466)
(0.169946 0 -0.000334475)
(0.169913 0 -0.000334468)
(0.16988 -1.60187e-30 -0.000334427)
(0.169847 0 -0.000334378)
(0.169814 -1.54699e-30 -0.000334321)
(0.169781 0 -0.000334242)
(0.169748 0 -0.000334125)
(0.169715 0 -0.000333972)
(0.169682 0 -0.000333796)
(0.169648 -1.43692e-30 -0.000333649)
(0.169613 0 -0.000333497)
(0.169578 1.42709e-30 -0.000333305)
(0.169543 -1.42546e-30 -0.000333085)
(0.169506 0 -0.000332843)
(0.169469 -6.06113e-38 -0.000332582)
(0.169432 0 -0.000332311)
(0.169393 0 -0.000332031)
(0.169354 -1.53687e-30 -0.000331751)
(0.169315 0 -0.000331479)
(0.169275 0 -0.000331216)
(0.169234 0 -0.000330966)
(0.169193 1.6398e-30 -0.000330734)
(0.169152 0 -0.000330507)
(0.16911 1.70227e-30 -0.000330298)
(0.169068 -1.73191e-30 -0.000330094)
(0.169025 0 -0.000329901)
(0.168982 -1.77589e-30 -0.000329708)
(0.168938 1.78147e-30 -0.000329506)
(0.168895 0 -0.000329307)
(0.168851 -4.79903e-38 -0.000329108)
(0.168806 0 -0.000328904)
(0.168761 -3.6349e-30 -0.000328699)
(0.168715 0 -0.000328484)
(0.168669 0 -0.000328273)
(0.168622 0 -0.000328058)
(0.168573 -1.56973e-38 -0.000327839)
(0.168523 0 -0.000327616)
(0.168473 1.99188e-30 -0.000327385)
(0.168421 0 -0.000327145)
(0.168368 9.83258e-38 -0.000326887)
(0.168313 2.0848e-30 -0.000326605)
(0.168258 0 -0.000326316)
(0.168201 0 -0.000326012)
(0.168143 2.17512e-30 -0.00032572)
(0.168083 0 -0.000325425)
(0.168023 0 -0.000325151)
(0.167961 2.33002e-30 -0.000324894)
(0.167898 -2.39863e-30 -0.000324662)
(0.167834 0 -0.000324447)
(0.167768 2.52455e-30 -0.000324269)
(0.167702 -2.57012e-30 -0.000324106)
(0.167635 0 -0.000323968)
(0.167567 0 -0.000323861)
(0.167498 0 -0.000323771)
(0.167429 -2.71201e-30 -0.000323714)
(0.167359 0 -0.00032368)
(0.167288 0 -0.00032365)
(0.167217 5.44624e-30 -0.000323612)
(0.167145 -2.71799e-30 -0.00032356)
(0.167073 0 -0.000323487)
(0.167 2.70652e-30 -0.000323393)
(0.166926 -2.70897e-30 -0.000323277)
(0.166851 0 -0.000323139)
(0.166776 0 -0.000322968)
(0.166699 0 -0.000322773)
(0.166622 2.77369e-30 -0.000322552)
(0.166544 -2.8073e-30 -0.00032232)
(0.166465 -2.84362e-30 -0.000322074)
(0.166385 0 -0.000321823)
(0.166304 0 -0.000321567)
(0.166222 6.19247e-38 -0.000321319)
(0.16614 8.74135e-38 -0.000321096)
(0.166057 3.10783e-30 -0.000320923)
(0.165974 0 -0.000320787)
(0.165891 -3.24028e-30 -0.000320694)
(0.165807 0 -0.000320628)
(0.165724 -6.67053e-30 -0.000320582)
(0.16564 -3.34719e-30 -0.000320536)
(0.165557 0 -0.000320515)
(0.165474 3.34052e-30 -0.000320488)
(0.165392 0 -0.000320482)
(0.16531 0 -0.000320445)
(0.165229 0 -0.000320401)
(0.165149 3.12663e-30 -0.000320322)
(0.16507 -3.0636e-30 -0.000320243)
(0.164991 0 -0.000320126)
(0.164912 -2.94164e-30 -0.000320004)
(0.164834 2.8864e-30 -0.00031985)
(0.164756 -5.74692e-30 -0.000319722)
(0.164678 0 -0.000319583)
(0.1646 5.90164e-38 -0.000319484)
(0.164522 -1.09756e-38 -0.000319368)
(0.164444 5.78747e-30 -0.000319292)
(0.164367 0 -0.000319205)
(0.16429 2.94516e-30 -0.000319169)
(0.164214 2.94929e-30 -0.000319118)
(0.164139 -3.00831e-30 -0.000319114)
(0.164064 0 -0.000319067)
(0.16399 3.06246e-30 -0.000319069)
(0.163918 -6.06871e-30 -0.000319023)
(0.163847 0 -0.00031905)
(0.163777 -3.0111e-30 -0.000319045)
(0.163709 0 -0.000319153)
(0.163643 0 -0.000319246)
(0.163579 0 -0.00031946)
(0.163517 0 -0.000319591)
(0.163457 0 -0.000319806)
(0.163399 5.00088e-30 -0.000319871)
(0.163342 0 -0.000320006)
(0.163285 -2.46492e-37 -0.000319975)
(0.16323 -2.22823e-30 -0.000320008)
(0.163174 -2.0341e-30 -0.000319854)
(0.163119 -4.09727e-30 -0.000319773)
(0.163063 3.73804e-30 -0.000319475)
(0.163009 0 -0.000319267)
(0.162952 1.78671e-30 -0.00031884)
(0.162897 1.33809e-37 -0.000318562)
(0.16284 0 -0.000318089)
(0.162783 0 -0.000317828)
(0.162725 0 -0.000317416)
(0.162668 -4.03101e-37 -0.000317265)
(0.162609 -4.36884e-30 -0.000317004)
(0.162552 -1.58463e-37 -0.000316976)
(0.162492 0 -0.00031682)
(0.162434 2.47456e-30 -0.0003168)
(0.162374 4.83049e-37 -0.000316554)
(0.162317 4.90403e-30 -0.000316403)
(0.162256 4.50758e-30 -0.000315826)
(0.162197 1.40882e-36 -0.000315326)
(0.162133 0 -0.000314236)
(0.162069 0 -0.000312905)
(0.161993 0 -0.000310731)
(0.161919 2.80656e-30 -0.00030701)
(0.161809 0 -0.000301653)
(0.161709 0 -0.000294052)
(0.16153 0 -0.000281992)
(0.161367 1.71439e-30 -0.000266892)
(0.161047 7.3372e-30 -0.000242641)
(0.160752 0 -0.000214432)
(0.160148 0 -0.000168487)
(0.159621 0 -0.000121297)
(0.158392 0 -7.69979e-05)
(0.157808 0 0.000172273)
(0.153482 -9.81183e-27 -0.000920064)
(0.147299 8.07339e-28 -0.000924561)
(0.141715 0 0.000571617)
(0.135036 -1.52761e-28 0.00115122)
(0.122756 0 0.00182286)
(0.108309 0 0.00215376)
(0.087698 0 0.00275675)
(0.063455 2.98893e-28 0.00486671)
(0.0163842 0 0.0028276)
(0.000787255 0 0.00165732)
(-0.0217994 0 0.0023267)
(-0.0328492 0 -0.00506041)
(0.360054 0 0.00130517)
(0.357648 0 0.00100754)
(0.354913 -4.5268e-28 0.00166509)
(0.349844 0 0.0016371)
(0.346243 0 0.00169908)
(0.342208 0 0.00150395)
(0.338775 -1.99879e-28 0.00150607)
(0.335417 2.96952e-28 0.00133807)
(0.332613 1.25149e-28 0.00128764)
(0.330155 -2.5547e-28 0.0011531)
(0.328028 8.32463e-29 0.00111422)
(0.325972 0 0.00102637)
(0.324009 -8.15612e-29 0.000978228)
(0.322056 6.00704e-29 0.000930551)
(0.320132 0 0.000913132)
(0.318193 0 0.000874225)
(0.316243 0 0.000850115)
(0.314135 0 0.000819107)
(0.312052 0 0.000793682)
(0.309933 0 0.00076773)
(0.307872 0 0.000735659)
(0.305799 0 0.000698158)
(0.303754 0 0.00065612)
(0.30171 4.02472e-29 0.000610484)
(0.299694 0 0.000562128)
(0.297692 -5.16195e-29 0.000511906)
(0.295716 0 0.000461718)
(0.293759 0 0.000409395)
(0.291855 0 0.000356211)
(0.289997 0 0.000309049)
(0.288184 -5.00017e-29 0.000264476)
(0.286416 0 0.000220285)
(0.284699 0 0.000178621)
(0.283032 4.99862e-29 0.000140111)
(0.281412 0 0.00010439)
(0.279838 -4.97978e-29 7.01663e-05)
(0.278311 0 3.72414e-05)
(0.276832 0 6.22784e-06)
(0.275398 -4.85086e-29 -2.27091e-05)
(0.274011 0 -5.01586e-05)
(0.272665 4.52428e-29 -7.47593e-05)
(0.271372 0 -9.6462e-05)
(0.27012 0 -0.000117253)
(0.268913 0 -0.000136136)
(0.267743 4.02047e-29 -0.000153626)
(0.266616 0 -0.000169588)
(0.265523 0 -0.000183391)
(0.264462 0 -0.000196278)
(0.263432 3.48701e-29 -0.000208462)
(0.262432 3.39903e-29 -0.000220066)
(0.261462 -3.30186e-29 -0.000231142)
(0.260522 0 -0.000241553)
(0.259611 3.10564e-29 -0.000251284)
(0.258728 0 -0.000260466)
(0.257872 2.93633e-29 -0.000269018)
(0.25704 2.88515e-29 -0.000277196)
(0.256234 0 -0.000285358)
(0.255451 0 -0.000294785)
(0.254692 0 -0.000299054)
(0.253954 2.56867e-29 -0.000306211)
(0.253228 -1.49291e-29 -0.00031033)
(0.25254 0 -0.000292128)
(0.251903 0 -0.000280771)
(0.251285 -2.31745e-29 -0.000284845)
(0.250683 2.41971e-29 -0.000289467)
(0.2501 0 -0.000296292)
(0.249532 0 -0.000303106)
(0.248981 0 -0.000309726)
(0.248446 -2.32728e-29 -0.000315885)
(0.247926 2.23912e-29 -0.000321433)
(0.247421 -2.14748e-29 -0.00032632)
(0.24693 -2.04056e-29 -0.00033057)
(0.246452 0 -0.000333879)
(0.245985 1.86496e-29 -0.000336528)
(0.245529 0 -0.000339033)
(0.245085 2.3034e-36 -0.000341554)
(0.244652 -1.78108e-29 -0.000344196)
(0.244229 1.79957e-29 -0.000347324)
(0.243817 0 -0.000351071)
(0.243418 1.69984e-29 -0.00035443)
(0.243029 -1.62551e-29 -0.000356976)
(0.242652 0 -0.000359327)
(0.242284 0 -0.000361434)
(0.241927 -1.48312e-29 -0.000363426)
(0.24158 0 -0.000365302)
(0.241243 -1.40023e-29 -0.000367069)
(0.240915 0 -0.000368659)
(0.240597 -1.31342e-29 -0.000370127)
(0.240288 0 -0.000371254)
(0.239988 -1.21822e-29 -0.000371996)
(0.239695 2.43787e-29 -0.000372661)
(0.239408 0 -0.00037349)
(0.239128 -1.18398e-29 -0.000374121)
(0.238854 1.18934e-29 -0.000374769)
(0.238585 0 -0.000375933)
(0.238322 1.20135e-29 -0.000377156)
(0.238062 -1.18016e-29 -0.000378242)
(0.237803 0 -0.000379132)
(0.237549 5.06602e-36 -0.000379404)
(0.237297 0 -0.000379374)
(0.237046 0 -0.000379374)
(0.236797 0 -0.000379203)
(0.236548 9.63847e-30 -0.000378875)
(0.236302 0 -0.000378421)
(0.236056 -9.32705e-30 -0.000377835)
(0.235812 9.17931e-30 -0.00037717)
(0.235568 0 -0.000376401)
(0.235325 0 -0.000375585)
(0.235083 0 -0.000374658)
(0.234842 0 -0.000373727)
(0.234601 8.66158e-30 -0.000372773)
(0.23436 0 -0.000371891)
(0.23412 -8.73105e-30 -0.000371355)
(0.233881 1.64063e-29 -0.000370574)
(0.233644 7.71884e-30 -0.00036875)
(0.233405 -8.14004e-30 -0.000366888)
(0.233165 8.70032e-30 -0.000366441)
(0.232927 0 -0.000366266)
(0.232691 0 -0.000365623)
(0.232454 0 -0.00036496)
(0.232219 -8.28746e-30 -0.000364266)
(0.231985 -8.25789e-30 -0.000363609)
(0.231751 8.23379e-30 -0.00036298)
(0.231519 8.22301e-30 -0.000362379)
(0.231287 -1.64287e-29 -0.000361831)
(0.231056 8.20083e-30 -0.000361326)
(0.230827 -8.17986e-30 -0.000360868)
(0.230598 -8.1655e-30 -0.000360468)
(0.23037 0 -0.000360137)
(0.230143 0 -0.000359877)
(0.229917 8.10053e-30 -0.000359682)
(0.229692 -8.06659e-30 -0.000359542)
(0.229469 -1.60563e-29 -0.000359454)
(0.229246 -1.13436e-36 -0.00035941)
(0.229025 7.93337e-30 -0.00035941)
(0.228805 -7.8792e-30 -0.000359448)
(0.228586 0 -0.000359514)
(0.228368 0 -0.00035961)
(0.228151 -3.61783e-37 -0.000359727)
(0.227936 2.16149e-37 -0.000359872)
(0.227721 0 -0.000360029)
(0.227508 0 -0.000360215)
(0.227296 0 -0.000360413)
(0.227084 -7.46767e-30 -0.000360637)
(0.226874 2.22436e-29 -0.000360863)
(0.226665 -1.47144e-29 -0.000361087)
(0.226457 0 -0.000361281)
(0.22625 0 -0.000361446)
(0.226044 -1.29899e-37 -0.000361592)
(0.225839 -7.25432e-30 -0.000361734)
(0.225635 -7.26714e-30 -0.000361889)
(0.225432 0 -0.000362056)
(0.225229 0 -0.000362259)
(0.225028 0 -0.000362489)
(0.224828 7.39584e-30 -0.000362746)
(0.224628 0 -0.000363029)
(0.22443 0 -0.000363322)
(0.224233 7.51567e-30 -0.000363624)
(0.224038 -1.51218e-29 -0.000363939)
(0.223843 7.61101e-30 -0.000364274)
(0.223651 7.66943e-30 -0.000364644)
(0.223459 0 -0.000365062)
(0.223269 0 -0.000365524)
(0.223081 0 -0.000366025)
(0.222894 0 -0.000366565)
(0.222709 -1.58128e-29 -0.000367139)
(0.222525 4.2593e-38 -0.000367742)
(0.222344 0 -0.000368365)
(0.222164 7.95023e-30 -0.000368994)
(0.221985 7.95405e-30 -0.000369629)
(0.221809 -7.95406e-30 -0.000370284)
(0.221634 7.95018e-30 -0.000370956)
(0.221461 7.93834e-30 -0.000371642)
(0.22129 0 -0.000372328)
(0.221121 0 -0.000373009)
(0.220954 -7.87156e-30 -0.0003737)
(0.220788 0 -0.000374396)
(0.220625 0 -0.000375073)
(0.220463 0 -0.000375735)
(0.220302 -1.54477e-29 -0.000376374)
(0.220143 7.68533e-30 -0.000376989)
(0.219986 -1.52892e-29 -0.000377578)
(0.21983 -7.60044e-30 -0.000378146)
(0.219675 7.54646e-30 -0.000378721)
(0.219521 -7.49387e-30 -0.000379286)
(0.219368 0 -0.000379846)
(0.219217 1.4803e-29 -0.000380404)
(0.219066 0 -0.000380949)
(0.218917 0 -0.00038147)
(0.218769 7.20002e-30 -0.000381959)
(0.218623 0 -0.000382444)
(0.218477 7.08458e-30 -0.000382922)
(0.218332 7.0299e-30 -0.000383385)
(0.218188 6.97984e-30 -0.00038383)
(0.218045 0 -0.000384256)
(0.217903 0 -0.000384664)
(0.217761 6.83887e-30 -0.000385044)
(0.21762 -6.78907e-30 -0.000385398)
(0.21748 6.75077e-30 -0.000385745)
(0.21734 1.79713e-37 -0.00038611)
(0.217201 1.33844e-29 -0.000386495)
(0.217063 6.66144e-30 -0.000386891)
(0.216926 6.63026e-30 -0.000387307)
(0.21679 -9.08609e-37 -0.000387732)
(0.216655 -1.30819e-29 -0.000388145)
(0.216522 -7.24534e-37 -0.000388572)
(0.216389 -3.42982e-37 -0.00038906)
(0.216258 -5.21941e-37 -0.000389544)
(0.216128 0 -0.000390015)
(0.215999 -6.27828e-30 -0.000390491)
(0.215872 0 -0.000390915)
(0.215746 -5.92511e-30 -0.000391302)
(0.215622 0 -0.0003917)
(0.2155 -5.78858e-30 -0.000392133)
(0.215379 5.72546e-30 -0.000392595)
(0.21526 -5.65691e-30 -0.000393081)
(0.215143 1.11487e-29 -0.000393629)
(0.215028 -1.1e-29 -0.000394237)
(0.214915 -1.08462e-29 -0.00039487)
(0.214803 0 -0.000395537)
(0.214693 0 -0.000396204)
(0.214585 0 -0.000396864)
(0.214479 -5.16249e-30 -0.00039751)
(0.214374 0 -0.000398073)
(0.214271 -5.06767e-30 -0.000398584)
(0.21417 5.1192e-30 -0.000399144)
(0.214071 0 -0.000399783)
(0.213973 0 -0.00040044)
(0.213878 0 -0.000401072)
(0.213784 5.29741e-30 -0.000401728)
(0.213692 5.35154e-30 -0.000402419)
(0.213601 0 -0.000403126)
(0.213513 5.41423e-30 -0.000403836)
(0.213426 -5.43451e-30 -0.000404542)
(0.213342 1.09285e-29 -0.000405273)
(0.213259 1.09736e-29 -0.000406058)
(0.213179 0 -0.000406861)
(0.213101 0 -0.000407662)
(0.213024 0 -0.000408474)
(0.21295 -5.36353e-30 -0.000409312)
(0.212878 0 -0.000410137)
(0.212808 0 -0.000410948)
(0.212739 4.99058e-30 -0.000411741)
(0.212673 4.81188e-30 -0.000412502)
(0.212609 4.61771e-30 -0.000413223)
(0.212547 -4.40711e-30 -0.0004139)
(0.212486 0 -0.000414498)
(0.212427 0 -0.000415005)
(0.21237 -2.49486e-37 -0.000415482)
(0.212315 0 -0.000415923)
(0.21226 -1.03747e-36 -0.000416284)
(0.212208 3.19586e-30 -0.000416561)
(0.212156 0 -0.000416801)
(0.212105 0 -0.00041698)
(0.212056 0 -0.000417073)
(0.212008 0 -0.000417133)
(0.211961 -2.93479e-37 -0.000417174)
(0.211915 0 -0.000417216)
(0.21187 -9.82516e-37 -0.000417198)
(0.211825 2.4372e-30 -0.000417107)
(0.211782 0 -0.000416957)
(0.211739 0 -0.000416612)
(0.211698 -2.37123e-30 -0.000416339)
(0.211657 2.43575e-30 -0.000416253)
(0.211617 2.45581e-30 -0.00041615)
(0.211577 0 -0.000416161)
(0.211538 2.4437e-30 -0.000416182)
(0.211499 -2.35197e-30 -0.000416087)
(0.211461 -2.27281e-30 -0.000415926)
(0.211423 2.1788e-30 -0.000415701)
(0.211385 0 -0.000415394)
(0.211347 -1.97574e-30 -0.000415035)
(0.211309 0 -0.000414591)
(0.211271 -1.79064e-30 -0.000414104)
(0.211233 -1.7234e-30 -0.000413548)
(0.211193 0 -0.000412978)
(0.211154 -2.14766e-37 -0.000412381)
(0.211114 0 -0.000411777)
(0.211073 -1.58886e-30 -0.00041113)
(0.211031 -1.62555e-30 -0.000410497)
(0.210989 0 -0.000409839)
(0.210945 0 -0.000409193)
(0.210901 0 -0.000408547)
(0.210857 0 -0.000407924)
(0.210811 -1.98611e-30 -0.000407326)
(0.210765 -2.07538e-30 -0.000406769)
(0.210717 -2.17515e-30 -0.000406227)
(0.210669 0 -0.000405735)
(0.210621 2.1461e-37 -0.000405265)
(0.210572 0 -0.000404833)
(0.210522 3.98719e-37 -0.0004044)
(0.210472 2.48535e-30 -0.000404002)
(0.210421 0 -0.000403593)
(0.21037 -4.94299e-30 -0.000403215)
(0.210318 0 -0.000402829)
(0.210266 0 -0.000402467)
(0.210213 -2.29244e-30 -0.000402082)
(0.21016 2.20529e-30 -0.000401678)
(0.210105 0 -0.000401253)
(0.210051 4.01948e-30 -0.000400783)
(0.209995 0 -0.000400297)
(0.209939 -1.83138e-30 -0.000399768)
(0.209881 1.76789e-30 -0.000399225)
(0.209823 3.43377e-30 -0.00039868)
(0.209764 0 -0.000398111)
(0.209704 1.68526e-30 -0.000397536)
(0.209642 0 -0.000396966)
(0.20958 1.75043e-30 -0.000396407)
(0.209517 -1.82013e-30 -0.000395885)
(0.209453 1.90394e-30 -0.000395391)
(0.209389 0 -0.000394943)
(0.209323 -2.12818e-30 -0.000394534)
(0.209257 -2.25406e-30 -0.000394162)
(0.20919 0 -0.000393826)
(0.209123 0 -0.000393533)
(0.209055 0 -0.000393278)
(0.208986 0 -0.000393069)
(0.208917 -5.92614e-30 -0.000392879)
(0.208848 -3.10301e-30 -0.000392726)
(0.208779 0 -0.00039259)
(0.208709 3.35647e-30 -0.000392495)
(0.208639 -6.94714e-30 -0.000392408)
(0.20857 7.16359e-30 -0.000392379)
(0.2085 0 -0.00039236)
(0.208431 0 -0.000392409)
(0.208362 0 -0.000392474)
(0.208294 0 -0.000392599)
(0.208226 0 -0.00039273)
(0.208159 7.8784e-30 -0.000392899)
(0.208092 -7.88429e-30 -0.000393078)
(0.208025 2.10722e-37 -0.0003933)
(0.20796 2.32607e-37 -0.000393533)
(0.207894 3.80646e-30 -0.000393778)
(0.20783 -3.71725e-30 -0.000394015)
(0.207765 -3.60168e-30 -0.000394246)
(0.207702 0 -0.000394449)
(0.207638 3.29953e-30 -0.00039462)
(0.207575 3.12126e-30 -0.000394733)
(0.207512 0 -0.000394794)
(0.207448 2.71407e-30 -0.000394794)
(0.207385 0 -0.000394723)
(0.207322 4.51487e-30 -0.000394546)
(0.207259 2.06848e-30 -0.000394304)
(0.207196 0 -0.000394029)
(0.207132 1.70736e-30 -0.000393671)
(0.207067 1.55431e-30 -0.000393233)
(0.207002 1.44052e-30 -0.000392743)
(0.206936 0 -0.000392191)
(0.206869 -2.4166e-36 -0.000391567)
(0.206801 -1.16338e-30 -0.000390862)
(0.206733 1.12321e-30 -0.000390074)
(0.206664 0 -0.000389295)
(0.206594 -2.62089e-30 -0.000388605)
(0.206523 0 -0.000388204)
(0.206452 2.32015e-37 -0.000388042)
(0.20638 -1.82315e-30 -0.000387885)
(0.206308 0 -0.000387733)
(0.206235 -2.01744e-30 -0.00038759)
(0.206162 2.14077e-30 -0.000387482)
(0.206089 0 -0.000387416)
(0.206015 -4.75054e-30 -0.000387363)
(0.205942 -2.52038e-30 -0.000387348)
(0.20587 0 -0.000387419)
(0.205797 2.79145e-30 -0.000387521)
(0.205725 -1.88191e-37 -0.000387614)
(0.205654 0 -0.000387813)
(0.205583 0 -0.000388107)
(0.205512 3.34365e-30 -0.000388385)
(0.205442 -3.44548e-30 -0.000388684)
(0.205374 0 -0.000389025)
(0.205306 0 -0.000389426)
(0.205239 0 -0.000389842)
(0.205174 0 -0.000390265)
(0.20511 0 -0.000390709)
(0.205047 0 -0.000391161)
(0.204986 0 -0.000391595)
(0.204926 3.53022e-30 -0.000391993)
(0.204868 -3.46348e-30 -0.00039234)
(0.20481 0 -0.000392629)
(0.204754 3.27679e-30 -0.000392849)
(0.204698 3.1442e-30 -0.000392985)
(0.204644 0 -0.000392994)