/*--------------------------------*- C++ -*----------------------------------*\
| =========                 |                                                 |
| \\      /  F ield         | foam-extend: Open Source CFD                    |
|  \\    /   O peration     | Version:     3.2                                |
|   \\  /    A nd           | Web:         http://www.foam-extend.org         |
|    \\/     M anipulation  | For copyright notice see file Copyright         |
\*---------------------------------------------------------------------------*/
FoamFile
{
    version     2.0;
    format      ascii;
    class       areaVectorField;
    location    "120";
    object      uNormal;
}
// * * * * * * * * * * * * * * * * * * * * * * * * * * * * * * * * * * * * * //

dimensions      [0 0 0 0 0 0 0];

internalField   nonuniform List<vector> 
550
(
(0.002 0 0.999998)
(0.002 0 0.999998)
(0.002 0 0.999998)
(0.002 0 0.999998)
(0.002 7.27917e-20 0.999998)
(0.002 0 0.999998)
(0.002 0 0.999998)
(0.002 0 0.999998)
(0.002 7.27917e-20 0.999998)
(0.002 0 0.999998)
(0.002 0 0.999998)
(0.002 0 0.999998)
(0.002 7.27917e-20 0.999998)
(0.002 0 0.999998)
(0.002 0 0.999998)
(0.002 7.27917e-20 0.999998)
(0.002 -7.27917e-20 0.999998)
(0.002 7.27917e-20 0.999998)
(0.002 7.27917e-20 0.999998)
(0.002 0 0.999998)
(0.002 7.27917e-20 0.999998)
(0.002 -7.27917e-20 0.999998)
(0.002 0 0.999998)
(0.002 7.27917e-20 0.999998)
(0.002 0 0.999998)
(0.002 0 0.999998)
(0.002 7.27917e-20 0.999998)
(0.002 0 0.999998)
(0.002 0 0.999998)
(0.002 0 0.999998)
(0.002 0 0.999998)
(0.002 0 0.999998)
(0.002 0 0.999998)
(0.002 0 0.999998)
(0.002 0 0.999998)
(0.002 0 0.999998)
(0.002 0 0.999998)
(0.002 0 0.999998)
(0.002 7.27917e-20 0.999998)
(0.002 0 0.999998)
(0.002 0 0.999998)
(0.002 0 0.999998)
(0.002 0 0.999998)
(0.002 0 0.999998)
(0.002 0 0.999998)
(0.002 0 0.999998)
(0.002 0 0.999998)
(0.002 0 0.999998)
(0.002 0 0.999998)
(0.002 0 0.999998)
(0.002 0 0.999998)
(0.002 0 0.999998)
(0.002 0 0.999998)
(0.002 0 0.999998)
(0.002 0 0.999998)
(0.00200008 -7.27917e-20 0.999998)
(0.00200018 0 0.999998)
(0.00200241 0 0.999998)
(0.00199466 7.27917e-20 0.999998)
(0.0020059 0 0.999998)
(0.00197245 0 0.999998)
(0.00183392 0 0.999998)
(0.00174983 0 0.999998)
(0.00174262 7.27918e-20 0.999998)
(0.00173789 0 0.999998)
(0.0017426 0 0.999998)
(0.00174826 0 0.999998)
(0.0017545 0 0.999998)
(0.00176033 0 0.999998)
(0.00176563 0 0.999998)
(0.00177023 -7.27918e-20 0.999998)
(0.00177396 -7.27918e-20 0.999998)
(0.00177689 0 0.999998)
(0.00177953 -7.27918e-20 0.999998)
(0.00178233 0 0.999998)
(0.00178548 -7.27918e-20 0.999998)
(0.0017894 0 0.999998)
(0.00179419 -7.27918e-20 0.999998)
(0.0017988 -7.27918e-20 0.999998)
(0.00180265 7.27918e-20 0.999998)
(0.00180616 0 0.999998)
(0.00180958 7.27918e-20 0.999998)
(0.00181291 -7.27918e-20 0.999998)
(0.00181623 -7.27918e-20 0.999998)
(0.00181949 7.27918e-20 0.999998)
(0.00182253 7.27918e-20 0.999998)
(0.00182522 -7.27918e-20 0.999998)
(0.00182742 0 0.999998)
(0.00182865 0 0.999998)
(0.00182887 7.27918e-20 0.999998)
(0.00182909 -7.27918e-20 0.999998)
(0.00182993 0 0.999998)
(0.00183116 -7.27918e-20 0.999998)
(0.00183283 7.27918e-20 0.999998)
(0.00183498 0 0.999998)
(0.00183765 -7.27918e-20 0.999998)
(0.001841 0 0.999998)
(0.00184398 7.27918e-20 0.999998)
(0.00184516 0 0.999998)
(0.00184499 0 0.999998)
(0.00184434 0 0.999998)
(0.0018433 0 0.999998)
(0.00184209 0 0.999998)
(0.00184084 0 0.999998)
(0.00183959 0 0.999998)
(0.00183846 0 0.999998)
(0.00183737 0 0.999998)
(0.00183628 7.27918e-20 0.999998)
(0.00183514 7.27918e-20 0.999998)
(0.00183401 7.27918e-20 0.999998)
(0.00183296 0 0.999998)
(0.00183214 7.27918e-20 0.999998)
(0.00183147 7.27918e-20 0.999998)
(0.00183006 -7.27918e-20 0.999998)
(0.00182802 0 0.999998)
(0.001827 7.27918e-20 0.999998)
(0.00182722 7.27918e-20 0.999998)
(0.00182746 0 0.999998)
(0.00182755 0 0.999998)
(0.00182767 0 0.999998)
(0.00182785 7.27918e-20 0.999998)
(0.00182815 -7.27918e-20 0.999998)
(0.00182856 -7.27918e-20 0.999998)
(0.00182912 7.27918e-20 0.999998)
(0.00182985 -7.27918e-20 0.999998)
(0.00183068 0 0.999998)
(0.00183159 -7.27918e-20 0.999998)
(0.00183259 0 0.999998)
(0.00183372 0 0.999998)
(0.00183502 0 0.999998)
(0.00183652 0 0.999998)
(0.00183822 -7.27918e-20 0.999998)
(0.0018401 0 0.999998)
(0.00184213 0 0.999998)
(0.0018443 0 0.999998)
(0.00184657 0 0.999998)
(0.00184891 0 0.999998)
(0.00185132 0 0.999998)
(0.00185378 0 0.999998)
(0.00185627 0 0.999998)
(0.00185876 7.27918e-20 0.999998)
(0.00186126 0 0.999998)
(0.00186377 0 0.999998)
(0.00186628 0 0.999998)
(0.00186873 7.27918e-20 0.999998)
(0.0018711 -7.27918e-20 0.999998)
(0.00187334 0 0.999998)
(0.00187549 0 0.999998)
(0.00187755 0 0.999998)
(0.00187958 -7.27918e-20 0.999998)
(0.00188159 7.27918e-20 0.999998)
(0.00188356 7.27918e-20 0.999998)
(0.00188554 0 0.999998)
(0.00188747 0 0.999998)
(0.00188937 0 0.999998)
(0.00189124 0 0.999998)
(0.001893 0 0.999998)
(0.00189464 0 0.999998)
(0.00189619 7.27918e-20 0.999998)
(0.00189769 0 0.999998)
(0.00189919 0 0.999998)
(0.00190076 0 0.999998)
(0.00190236 0 0.999998)
(0.00190398 0 0.999998)
(0.00190563 7.27918e-20 0.999998)
(0.0019073 7.27918e-20 0.999998)
(0.00190899 7.27918e-20 0.999998)
(0.00191068 -7.27918e-20 0.999998)
(0.00191231 0 0.999998)
(0.00191392 0 0.999998)
(0.00191558 0 0.999998)
(0.0019173 0 0.999998)
(0.00191906 0 0.999998)
(0.00192079 0 0.999998)
(0.00192251 0 0.999998)
(0.00192433 7.27918e-20 0.999998)
(0.00192622 0 0.999998)
(0.00192811 0 0.999998)
(0.00193006 0 0.999998)
(0.0019321 -7.27918e-20 0.999998)
(0.00193418 7.27918e-20 0.999998)
(0.00193629 -7.27918e-20 0.999998)
(0.00193843 7.27918e-20 0.999998)
(0.00194057 0 0.999998)
(0.00194269 0 0.999998)
(0.00194483 -7.27918e-20 0.999998)
(0.00194709 7.27918e-20 0.999998)
(0.00194938 0 0.999998)
(0.00195161 0 0.999998)
(0.00195381 0 0.999998)
(0.00195605 -7.27918e-20 0.999998)
(0.00195836 0 0.999998)
(0.00196068 0 0.999998)
(0.00196299 7.27918e-20 0.999998)
(0.00196531 0 0.999998)
(0.0019676 0 0.999998)
(0.00196976 0 0.999998)
(0.00197175 -7.27918e-20 0.999998)
(0.00197366 0 0.999998)
(0.00197558 7.27918e-20 0.999998)
(0.00197748 0 0.999998)
(0.0019793 0 0.999998)
(0.00198105 0 0.999998)
(0.00198266 0 0.999998)
(0.00198403 0 0.999998)
(0.00198545 7.27918e-20 0.999998)
(0.0019871 -7.27917e-20 0.999998)
(0.00198865 7.27918e-20 0.999998)
(0.00199005 0 0.999998)
(0.00199147 0 0.999998)
(0.00199289 0 0.999998)
(0.00199428 0 0.999998)
(0.00199561 0 0.999998)
(0.00199694 0 0.999998)
(0.00199823 0 0.999998)
(0.00199941 7.27917e-20 0.999998)
(0.00200071 0 0.999998)
(0.00200222 7.27917e-20 0.999998)
(0.00200379 0 0.999998)
(0.00200551 0 0.999998)
(0.00200722 0 0.999998)
(0.00200891 7.27917e-20 0.999998)
(0.00201042 0 0.999998)
(0.0020113 0 0.999998)
(0.00201185 0 0.999998)
(0.00201265 0 0.999998)
(0.00201384 0 0.999998)
(0.002015 -7.27917e-20 0.999998)
(0.00201594 -7.27917e-20 0.999998)
(0.00201694 7.27917e-20 0.999998)
(0.00201805 0 0.999998)
(0.00201913 0 0.999998)
(0.00202006 7.27917e-20 0.999998)
(0.00202083 -7.27917e-20 0.999998)
(0.00202167 0 0.999998)
(0.00202268 -7.27917e-20 0.999998)
(0.00202364 0 0.999998)
(0.00202446 0 0.999998)
(0.0020253 0 0.999998)
(0.0020262 0 0.999998)
(0.002027 0 0.999998)
(0.00202767 -7.27917e-20 0.999998)
(0.00202828 0 0.999998)
(0.00202877 0 0.999998)
(0.00202919 -7.27917e-20 0.999998)
(0.00202952 0 0.999998)
(0.00202954 -7.27917e-20 0.999998)
(0.00202931 0 0.999998)
(0.00202916 -7.27917e-20 0.999998)
(0.002029 0 0.999998)
(0.00202854 0 0.999998)
(0.00202781 0 0.999998)
(0.00202702 0 0.999998)
(0.00202597 0 0.999998)
(0.00202456 7.27917e-20 0.999998)
(0.00202313 0 0.999998)
(0.00202178 7.27917e-20 0.999998)
(0.00202059 0 0.999998)
(0.00201918 0 0.999998)
(0.00201752 0 0.999998)
(0.00201543 0 0.999998)
(0.00201242 0 0.999998)
(0.00201011 0 0.999998)
(0.00200885 -7.27917e-20 0.999998)
(0.00200767 0 0.999998)
(0.00200724 0 0.999998)
(0.00200689 0 0.999998)
(0.00200608 0 0.999998)
(0.00200518 0 0.999998)
(0.00200425 0 0.999998)
(0.0020032 0 0.999998)
(0.00200217 -7.27917e-20 0.999998)
(0.00200102 0 0.999998)
(0.00199993 0 0.999998)
(0.00199879 0 0.999998)
(0.0019978 0 0.999998)
(0.00199681 7.27917e-20 0.999998)
(0.00199589 0 0.999998)
(0.00199491 0 0.999998)
(0.00199415 0 0.999998)
(0.00199337 0 0.999998)
(0.00199268 0 0.999998)
(0.00199201 0 0.999998)
(0.00199146 0 0.999998)
(0.00199103 -7.27918e-20 0.999998)
(0.00199068 0 0.999998)
(0.00199033 -7.27918e-20 0.999998)
(0.00199009 0 0.999998)
(0.00198988 -7.27917e-20 0.999998)
(0.00198972 0 0.999998)
(0.00198956 -7.27918e-20 0.999998)
(0.00198955 0 0.999998)
(0.00198949 0 0.999998)
(0.00198955 7.27918e-20 0.999998)
(0.00198957 0 0.999998)
(0.00198971 7.27918e-20 0.999998)
(0.00198979 0 0.999998)
(0.00198989 -7.27918e-20 0.999998)
(0.00199003 0 0.999998)
(0.00199013 0 0.999998)
(0.00199027 0 0.999998)
(0.00199029 0 0.999998)
(0.00199035 0 0.999998)
(0.00199043 7.27918e-20 0.999998)
(0.00199044 0 0.999998)
(0.00199046 -7.27917e-20 0.999998)
(0.0019905 0 0.999998)
(0.00199051 0 0.999998)
(0.0019906 0 0.999998)
(0.00199071 7.27918e-20 0.999998)
(0.00199095 0 0.999998)
(0.00199128 0 0.999998)
(0.00199171 7.27918e-20 0.999998)
(0.00199219 0 0.999998)
(0.00199276 -7.27918e-20 0.999998)
(0.0019934 0 0.999998)
(0.00199409 0 0.999998)
(0.00199475 -7.27917e-20 0.999998)
(0.00199545 -7.27917e-20 0.999998)
(0.00199609 -7.27917e-20 0.999998)
(0.00199669 -7.27917e-20 0.999998)
(0.00199715 0 0.999998)
(0.00199763 0 0.999998)
(0.00199799 0 0.999998)
(0.00199847 -7.27917e-20 0.999998)
(0.0019989 0 0.999998)
(0.00199947 0 0.999998)
(0.00199998 0 0.999998)
(0.00200061 0 0.999998)
(0.00200129 0 0.999998)
(0.00200218 0 0.999998)
(0.0020031 -7.27917e-20 0.999998)
(0.00200407 0 0.999998)
(0.00200505 0 0.999998)
(0.00200612 0 0.999998)
(0.00200714 0 0.999998)
(0.00200813 0 0.999998)
(0.002009 7.27917e-20 0.999998)
(0.00200979 0 0.999998)
(0.00201041 -7.27917e-20 0.999998)
(0.0020108 0 0.999998)
(0.00201081 0 0.999998)
(0.00201082 0 0.999998)
(0.00201095 7.27917e-20 0.999998)
(0.00201092 0 0.999998)
(0.00201073 7.27917e-20 0.999998)
(0.00201055 7.27917e-20 0.999998)
(0.00201022 7.27917e-20 0.999998)
(0.00200956 -7.27917e-20 0.999998)
(0.00200834 0 0.999998)
(0.00200649 0 0.999998)
(0.00200447 0 0.999998)
(0.00200297 7.27917e-20 0.999998)
(0.00200309 0 0.999998)
(0.00200427 7.27917e-20 0.999998)
(0.00200516 0 0.999998)
(0.00200576 0 0.999998)
(0.00200616 0 0.999998)
(0.00200656 0 0.999998)
(0.00200696 7.27917e-20 0.999998)
(0.0020072 0 0.999998)
(0.0020075 0 0.999998)
(0.00200805 0 0.999998)
(0.00200845 -7.27917e-20 0.999998)
(0.00200862 -7.27917e-20 0.999998)
(0.00200929 0 0.999998)
(0.00201018 -7.27917e-20 0.999998)
(0.00201073 -7.27917e-20 0.999998)
(0.00201113 -7.27917e-20 0.999998)
(0.00201156 -7.27917e-20 0.999998)
(0.00201205 0 0.999998)
(0.0020124 -7.27917e-20 0.999998)
(0.00201259 0 0.999998)
(0.00201279 0 0.999998)
(0.00201294 -7.27917e-20 0.999998)
(0.00201299 0 0.999998)
(0.00201296 0 0.999998)
(0.00201286 0 0.999998)
(0.00201265 0 0.999998)
(0.00201225 -7.27917e-20 0.999998)
(0.00201146 0 0.999998)
(0.00201003 7.27917e-20 0.999998)
(0.0020081 0 0.999998)
(0.00200611 0 0.999998)
(0.00200408 0 0.999998)
(0.00200206 -7.27917e-20 0.999998)
(0.00200005 0 0.999998)
(0.00199821 0 0.999998)
(0.0019969 0 0.999998)
(0.00199533 7.27917e-20 0.999998)
(0.00199379 -7.27917e-20 0.999998)
(0.00199344 0 0.999998)
(0.00199311 0 0.999998)
(0.00199233 7.27917e-20 0.999998)
(0.00199216 0 0.999998)
(0.00199251 0 0.999998)
(0.0019927 -7.27918e-20 0.999998)
(0.0019927 0 0.999998)
(0.00199272 0 0.999998)
(0.00199279 0 0.999998)
(0.0019928 0 0.999998)
(0.00199265 0 0.999998)
(0.00199235 0 0.999998)
(0.00199204 0 0.999998)
(0.00199207 0 0.999998)
(0.00199214 7.27918e-20 0.999998)
(0.00199191 7.27918e-20 0.999998)
(0.0019915 -7.27918e-20 0.999998)
(0.00199093 0 0.999998)
(0.00199031 -7.27917e-20 0.999998)
(0.00198965 0 0.999998)
(0.00198899 -7.27918e-20 0.999998)
(0.00198832 7.27918e-20 0.999998)
(0.00198769 0 0.999998)
(0.00198705 -7.27918e-20 0.999998)
(0.00198648 0 0.999998)
(0.00198601 0 0.999998)
(0.00198553 0 0.999998)
(0.00198517 0 0.999998)
(0.00198481 7.27918e-20 0.999998)
(0.00198451 0 0.999998)
(0.0019842 7.27918e-20 0.999998)
(0.00198384 0 0.999998)
(0.00198359 0 0.999998)
(0.00198341 7.27918e-20 0.999998)
(0.00198326 0 0.999998)
(0.0019832 0 0.999998)
(0.00198317 0 0.999998)
(0.00198331 7.27918e-20 0.999998)
(0.00198352 0 0.999998)
(0.00198378 7.27918e-20 0.999998)
(0.00198405 7.27917e-20 0.999998)
(0.00198434 0 0.999998)
(0.00198461 0 0.999998)
(0.00198484 -7.27918e-20 0.999998)
(0.00198499 0 0.999998)
(0.00198517 0 0.999998)
(0.00198522 0 0.999998)
(0.00198534 0 0.999998)
(0.00198538 7.27918e-20 0.999998)
(0.00198551 0 0.999998)
(0.00198568 0 0.999998)
(0.001986 0 0.999998)
(0.00198638 0 0.999998)
(0.00198699 0 0.999998)
(0.00198759 0 0.999998)
(0.00198831 0 0.999998)
(0.00198917 0 0.999998)
(0.0019901 0 0.999998)
(0.00199122 -7.27918e-20 0.999998)
(0.00199248 0 0.999998)
(0.00199367 -7.27917e-20 0.999998)
(0.00199481 7.27917e-20 0.999998)
(0.00199584 0 0.999998)
(0.00199678 7.27917e-20 0.999998)
(0.00199762 0 0.999998)
(0.00199835 -7.27917e-20 0.999998)
(0.00199901 0 0.999998)
(0.00199954 0 0.999998)
(0.00199995 7.27917e-20 0.999998)
(0.00200025 0 0.999998)
(0.00200049 7.27917e-20 0.999998)
(0.00200067 0 0.999998)
(0.00200079 0 0.999998)
(0.00200087 0 0.999998)
(0.00200093 0 0.999998)
(0.0020011 0 0.999998)
(0.00200142 0 0.999998)
(0.00200186 7.27917e-20 0.999998)
(0.00200239 -7.27917e-20 0.999998)
(0.00200302 0 0.999998)
(0.00200361 7.27917e-20 0.999998)
(0.00200409 0 0.999998)
(0.00200452 0 0.999998)
(0.00200479 0 0.999998)
(0.00200509 0 0.999998)
(0.00200521 7.27917e-20 0.999998)
(0.00200526 7.27917e-20 0.999998)
(0.00200519 -7.27917e-20 0.999998)
(0.00200513 0 0.999998)
(0.002005 0 0.999998)
(0.00200489 7.27917e-20 0.999998)
(0.00200477 -7.27917e-20 0.999998)
(0.00200476 -7.27917e-20 0.999998)
(0.00200476 0 0.999998)
(0.0020048 -7.27917e-20 0.999998)
(0.00200479 -7.27917e-20 0.999998)
(0.00200478 7.27917e-20 0.999998)
(0.00200486 7.27917e-20 0.999998)
(0.00200499 7.27917e-20 0.999998)
(0.0020052 7.27917e-20 0.999998)
(0.00200534 0 0.999998)
(0.00200535 0 0.999998)
(0.00200519 0 0.999998)
(0.00200486 7.27917e-20 0.999998)
(0.00200442 0 0.999998)
(0.002004 0 0.999998)
(0.00200366 0 0.999998)
(0.00200361 7.27917e-20 0.999998)
(0.00200373 -7.27917e-20 0.999998)
(0.00200402 7.27917e-20 0.999998)
(0.00200439 0 0.999998)
(0.00200472 -7.27917e-20 0.999998)
(0.00200505 7.27917e-20 0.999998)
(0.0020053 0 0.999998)
(0.00200543 7.27917e-20 0.999998)
(0.0020054 0 0.999998)
(0.0020051 0 0.999998)
(0.0020045 7.27917e-20 0.999998)
(0.00200356 0 0.999998)
(0.00200249 0 0.999998)
(0.00200129 -7.27917e-20 0.999998)
(0.00200017 0 0.999998)
(0.00199918 0 0.999998)
(0.00199852 7.27917e-20 0.999998)
(0.00199815 0 0.999998)
(0.00199814 7.27917e-20 0.999998)
(0.00199822 -7.27917e-20 0.999998)
(0.00199845 0 0.999998)
(0.00199854 -7.27917e-20 0.999998)
(0.0019985 0 0.999998)
(0.00199807 -7.27917e-20 0.999998)
(0.00199724 0 0.999998)
(0.00199582 7.27917e-20 0.999998)
(0.00199342 0 0.999998)
(0.0019902 0 0.999998)
(0.00198449 0 0.999998)
(0.00197605 0 0.999998)
(0.00196327 0 0.999998)
(0.00194449 0 0.999998)
(0.00191626 0 0.999998)
(0.00187651 0 0.999998)
(0.00181774 -7.27918e-20 0.999998)
(0.00173534 0 0.999998)
(0.00162134 7.27918e-20 0.999999)
(0.00144889 0 0.999999)
(0.00155067 0 0.999999)
(0.0011172 0 0.999999)
(0.0126565 0 0.99992)
(0.0134176 -5.82283e-19 0.99991)
(0.002 0 0.999998)
(0.002 0 0.999998)
(0.002 0 0.999998)
(0.002 0 0.999998)
(0.002 0 0.999998)
(0.002 -7.27917e-20 0.999998)
(0.002 0 0.999998)
(0.002 0 0.999998)
(0.002 0 0.999998)
(0.002 0 0.999998)
)
;

boundaryField
{
    inlet
    {
        type            calculated;
        value           uniform (0 0 0);
    }
    endWall
    {
        type            calculated;
        value           uniform (0 0 0);
    }
    sideWall
    {
        type            empty;
    }
}


// ************************************************************************* //
