/*--------------------------------*- C++ -*----------------------------------*\
| =========                 |                                                 |
| \\      /  F ield         | foam-extend: Open Source CFD                    |
|  \\    /   O peration     | Version:     3.2                                |
|   \\  /    A nd           | Web:         http://www.foam-extend.org         |
|    \\/     M anipulation  | For copyright notice see file Copyright         |
\*---------------------------------------------------------------------------*/
FoamFile
{
    version     2.0;
    format      ascii;
    class       areaVectorField;
    location    "120";
    object      Wt;
}
// * * * * * * * * * * * * * * * * * * * * * * * * * * * * * * * * * * * * * //

dimensions      [1 1 -2 0 0 0 0];

internalField   nonuniform List<vector> 
550
(
(5.45265e-10 0 -1.09053e-12)
(5.45265e-10 0 -1.09053e-12)
(5.45265e-10 0 -1.09053e-12)
(5.45265e-10 0 -1.09053e-12)
(5.45265e-10 1.98454e-26 -1.09053e-12)
(5.45265e-10 0 -1.09053e-12)
(5.45265e-10 0 -1.09053e-12)
(5.45265e-10 0 -1.09053e-12)
(5.45265e-10 1.98454e-26 -1.09053e-12)
(5.45265e-10 0 -1.09053e-12)
(5.45265e-10 0 -1.09053e-12)
(5.45265e-10 0 -1.09053e-12)
(5.45265e-10 1.98454e-26 -1.09053e-12)
(5.45265e-10 0 -1.09053e-12)
(5.45265e-10 0 -1.09053e-12)
(5.45265e-10 1.98454e-26 -1.09053e-12)
(5.45265e-10 -1.98454e-26 -1.09053e-12)
(5.45265e-10 1.98454e-26 -1.09053e-12)
(5.45265e-10 1.98454e-26 -1.09053e-12)
(5.45265e-10 0 -1.09053e-12)
(5.45265e-10 1.98454e-26 -1.09053e-12)
(5.45265e-10 -1.98454e-26 -1.09053e-12)
(5.45265e-10 0 -1.09053e-12)
(5.45265e-10 1.98454e-26 -1.09053e-12)
(5.45265e-10 0 -1.09053e-12)
(5.45265e-10 0 -1.09053e-12)
(5.45265e-10 1.98454e-26 -1.09053e-12)
(5.45265e-10 0 -1.09053e-12)
(5.45265e-10 0 -1.09053e-12)
(5.45265e-10 0 -1.09053e-12)
(5.45265e-10 0 -1.09053e-12)
(5.45265e-10 0 -1.09053e-12)
(5.45265e-10 0 -1.09053e-12)
(5.45265e-10 0 -1.09053e-12)
(5.45265e-10 0 -1.09053e-12)
(5.45265e-10 0 -1.09053e-12)
(5.45265e-10 0 -1.09053e-12)
(5.45265e-10 0 -1.09053e-12)
(5.45265e-10 1.98454e-26 -1.09053e-12)
(5.45265e-10 0 -1.09053e-12)
(5.45265e-10 0 -1.09053e-12)
(5.45265e-10 0 -1.09053e-12)
(5.45265e-10 0 -1.09053e-12)
(5.45265e-10 0 -1.09053e-12)
(5.45265e-10 0 -1.09053e-12)
(5.45265e-10 0 -1.09053e-12)
(5.45265e-10 0 -1.09053e-12)
(5.45265e-10 0 -1.09053e-12)
(5.45265e-10 0 -1.09053e-12)
(5.45265e-10 0 -1.09053e-12)
(5.45265e-10 0 -1.09053e-12)
(5.45265e-10 0 -1.09053e-12)
(5.45265e-10 0 -1.09053e-12)
(5.45265e-10 0 -1.09053e-12)
(5.45265e-10 0 -1.09053e-12)
(5.45289e-10 -1.98454e-26 -1.09063e-12)
(5.45316e-10 0 -1.09073e-12)
(5.45922e-10 0 -1.09316e-12)
(5.43809e-10 1.98454e-26 -1.08472e-12)
(5.46875e-10 0 -1.09698e-12)
(5.37756e-10 0 -1.0607e-12)
(4.99987e-10 0 -9.16938e-13)
(4.77062e-10 0 -8.34779e-13)
(4.75097e-10 1.98455e-26 -8.27915e-13)
(4.73806e-10 0 -8.23421e-13)
(4.75091e-10 0 -8.27894e-13)
(4.76634e-10 0 -8.33281e-13)
(4.78335e-10 0 -8.39241e-13)
(4.79925e-10 0 -8.44827e-13)
(4.81369e-10 0 -8.49918e-13)
(4.82624e-10 -1.98455e-26 -8.54359e-13)
(4.83641e-10 -1.98455e-26 -8.57963e-13)
(4.84439e-10 0 -8.60796e-13)
(4.85159e-10 -1.98455e-26 -8.63357e-13)
(4.85923e-10 0 -8.66078e-13)
(4.8678e-10 -1.98455e-26 -8.69135e-13)
(4.8785e-10 0 -8.7296e-13)
(4.89155e-10 -1.98455e-26 -8.77635e-13)
(4.90414e-10 -1.98455e-26 -8.82159e-13)
(4.91462e-10 1.98455e-26 -8.85934e-13)
(4.9242e-10 0 -8.89393e-13)
(4.93352e-10 1.98455e-26 -8.92762e-13)
(4.9426e-10 -1.98455e-26 -8.96051e-13)
(4.95165e-10 -1.98455e-26 -8.99335e-13)
(4.96054e-10 1.98455e-26 -9.02567e-13)
(4.96882e-10 1.98455e-26 -9.05585e-13)
(4.97616e-10 -1.98455e-26 -9.08262e-13)
(4.98215e-10 0 -9.10449e-13)
(4.9855e-10 0 -9.11672e-13)
(4.9861e-10 1.98455e-26 -9.11892e-13)
(4.98671e-10 -1.98455e-26 -9.12117e-13)
(4.989e-10 0 -9.12954e-13)
(4.99235e-10 -1.98455e-26 -9.1418e-13)
(4.9969e-10 1.98455e-26 -9.15848e-13)
(5.00276e-10 0 -9.17998e-13)
(5.01003e-10 -1.98455e-26 -9.20668e-13)
(5.01918e-10 0 -9.24032e-13)
(5.0273e-10 1.98455e-26 -9.27025e-13)
(5.03053e-10 0 -9.28217e-13)
(5.03007e-10 0 -9.28046e-13)
(5.02828e-10 0 -9.27387e-13)
(5.02545e-10 0 -9.26343e-13)
(5.02216e-10 0 -9.2513e-13)
(5.01874e-10 0 -9.2387e-13)
(5.01533e-10 0 -9.22615e-13)
(5.01225e-10 0 -9.21485e-13)
(5.00928e-10 0 -9.20392e-13)
(5.00631e-10 1.98455e-26 -9.19302e-13)
(5.0032e-10 1.98455e-26 -9.18159e-13)
(5.00012e-10 1.98455e-26 -9.17029e-13)
(4.99725e-10 0 -9.15977e-13)
(4.99502e-10 1.98455e-26 -9.15158e-13)
(4.9932e-10 1.98455e-26 -9.14493e-13)
(4.98936e-10 -1.98455e-26 -9.13085e-13)
(4.98378e-10 0 -9.11043e-13)
(4.981e-10 1.98455e-26 -9.1003e-13)
(4.9816e-10 1.98455e-26 -9.10249e-13)
(4.98225e-10 0 -9.10486e-13)
(4.9825e-10 0 -9.10577e-13)
(4.98284e-10 0 -9.10702e-13)
(4.98332e-10 1.98455e-26 -9.10876e-13)
(4.98413e-10 -1.98455e-26 -9.11174e-13)
(4.98525e-10 -1.98455e-26 -9.11582e-13)
(4.98679e-10 1.98455e-26 -9.12145e-13)
(4.98877e-10 -1.98455e-26 -9.1287e-13)
(4.99105e-10 0 -9.13706e-13)
(4.99352e-10 -1.98455e-26 -9.14611e-13)
(4.99624e-10 0 -9.15605e-13)
(4.99932e-10 0 -9.16736e-13)
(5.00287e-10 0 -9.18039e-13)
(5.00697e-10 0 -9.19543e-13)
(5.0116e-10 -1.98455e-26 -9.21244e-13)
(5.01672e-10 0 -9.23126e-13)
(5.02225e-10 0 -9.25164e-13)
(5.02818e-10 0 -9.27349e-13)
(5.03436e-10 0 -9.29631e-13)
(5.04074e-10 0 -9.31988e-13)
(5.04731e-10 0 -9.34419e-13)
(5.05403e-10 0 -9.36908e-13)
(5.06081e-10 0 -9.39426e-13)
(5.0676e-10 1.98455e-26 -9.41948e-13)
(5.07442e-10 0 -9.44485e-13)
(5.08125e-10 0 -9.47029e-13)
(5.08809e-10 0 -9.49581e-13)
(5.09478e-10 1.98455e-26 -9.52079e-13)
(5.10123e-10 -1.98455e-26 -9.54492e-13)
(5.10736e-10 0 -9.56785e-13)
(5.1132e-10 0 -9.58975e-13)
(5.11884e-10 0 -9.61091e-13)
(5.12435e-10 -1.98455e-26 -9.63163e-13)
(5.12983e-10 1.98455e-26 -9.65225e-13)
(5.1352e-10 1.98454e-26 -9.67246e-13)
(5.1406e-10 0 -9.69281e-13)
(5.14588e-10 0 -9.71272e-13)
(5.15105e-10 0 -9.73226e-13)
(5.15614e-10 0 -9.7515e-13)
(5.16094e-10 0 -9.76965e-13)
(5.16542e-10 0 -9.78664e-13)
(5.16965e-10 1.98454e-26 -9.80267e-13)
(5.17372e-10 0 -9.81811e-13)
(5.17781e-10 0 -9.83364e-13)
(5.1821e-10 0 -9.84993e-13)
(5.18647e-10 0 -9.86656e-13)
(5.19089e-10 0 -9.88339e-13)
(5.19537e-10 1.98454e-26 -9.90044e-13)
(5.19993e-10 1.98454e-26 -9.91782e-13)
(5.20455e-10 1.98454e-26 -9.93546e-13)
(5.20915e-10 -1.98454e-26 -9.95304e-13)
(5.2136e-10 0 -9.97004e-13)
(5.21798e-10 0 -9.98681e-13)
(5.22251e-10 0 -1.00042e-12)
(5.22719e-10 0 -1.00221e-12)
(5.23199e-10 0 -1.00405e-12)
(5.2367e-10 0 -1.00586e-12)
(5.2414e-10 0 -1.00767e-12)
(5.24636e-10 1.98454e-26 -1.00957e-12)
(5.2515e-10 0 -1.01155e-12)
(5.25667e-10 0 -1.01355e-12)
(5.262e-10 0 -1.0156e-12)
(5.26754e-10 -1.98454e-26 -1.01774e-12)
(5.27322e-10 1.98454e-26 -1.01994e-12)
(5.27897e-10 -1.98454e-26 -1.02217e-12)
(5.2848e-10 1.98454e-26 -1.02442e-12)
(5.29062e-10 0 -1.02668e-12)
(5.29641e-10 0 -1.02893e-12)
(5.30225e-10 -1.98454e-26 -1.0312e-12)
(5.30841e-10 1.98454e-26 -1.03359e-12)
(5.31467e-10 0 -1.03604e-12)
(5.32075e-10 0 -1.03841e-12)
(5.32674e-10 0 -1.04075e-12)
(5.33284e-10 -1.98454e-26 -1.04313e-12)
(5.33914e-10 0 -1.0456e-12)
(5.34545e-10 0 -1.04807e-12)
(5.35176e-10 1.98454e-26 -1.05055e-12)
(5.35809e-10 0 -1.05303e-12)
(5.36434e-10 0 -1.05549e-12)
(5.37021e-10 0 -1.0578e-12)
(5.37564e-10 -1.98454e-26 -1.05994e-12)
(5.38084e-10 0 -1.062e-12)
(5.38608e-10 1.98454e-26 -1.06406e-12)
(5.39126e-10 0 -1.06611e-12)
(5.39623e-10 0 -1.06808e-12)
(5.40099e-10 0 -1.06996e-12)
(5.40538e-10 0 -1.0717e-12)
(5.40913e-10 0 -1.07319e-12)
(5.41298e-10 1.98454e-26 -1.07472e-12)
(5.41749e-10 -1.98454e-26 -1.07651e-12)
(5.42171e-10 1.98454e-26 -1.07819e-12)
(5.42553e-10 0 -1.07971e-12)
(5.42941e-10 0 -1.08125e-12)
(5.43327e-10 0 -1.08279e-12)
(5.43706e-10 0 -1.0843e-12)
(5.44068e-10 0 -1.08575e-12)
(5.44431e-10 0 -1.0872e-12)
(5.44784e-10 0 -1.08861e-12)
(5.45104e-10 1.98454e-26 -1.08989e-12)
(5.45461e-10 0 -1.09131e-12)
(5.4587e-10 1.98454e-26 -1.09295e-12)
(5.463e-10 0 -1.09467e-12)
(5.46767e-10 0 -1.09655e-12)
(5.47235e-10 0 -1.09842e-12)
(5.47696e-10 1.98454e-26 -1.10027e-12)
(5.48106e-10 0 -1.10192e-12)
(5.48348e-10 0 -1.1029e-12)
(5.48496e-10 0 -1.10349e-12)
(5.48715e-10 0 -1.10437e-12)
(5.4904e-10 0 -1.10568e-12)
(5.49356e-10 -1.98454e-26 -1.10696e-12)
(5.49611e-10 -1.98454e-26 -1.10799e-12)
(5.49884e-10 1.98454e-26 -1.10909e-12)
(5.50188e-10 0 -1.11031e-12)
(5.50481e-10 0 -1.11149e-12)
(5.50736e-10 1.98454e-26 -1.11252e-12)
(5.50946e-10 -1.98454e-26 -1.11337e-12)
(5.51174e-10 0 -1.11429e-12)
(5.5145e-10 -1.98454e-26 -1.11541e-12)
(5.51711e-10 0 -1.11647e-12)
(5.51934e-10 0 -1.11737e-12)
(5.52164e-10 0 -1.1183e-12)
(5.5241e-10 0 -1.1193e-12)
(5.52628e-10 0 -1.12018e-12)
(5.52811e-10 -1.98454e-26 -1.12092e-12)
(5.52975e-10 0 -1.12159e-12)
(5.53109e-10 0 -1.12213e-12)
(5.53224e-10 -1.98454e-26 -1.1226e-12)
(5.53313e-10 0 -1.12296e-12)
(5.5332e-10 -1.98454e-26 -1.12299e-12)
(5.53257e-10 0 -1.12273e-12)
(5.53216e-10 -1.98454e-26 -1.12257e-12)
(5.53173e-10 0 -1.12239e-12)
(5.53046e-10 0 -1.12188e-12)
(5.52848e-10 0 -1.12107e-12)
(5.52632e-10 0 -1.1202e-12)
(5.52347e-10 0 -1.11904e-12)
(5.51963e-10 1.98454e-26 -1.11749e-12)
(5.51571e-10 0 -1.1159e-12)
(5.51205e-10 1.98454e-26 -1.11442e-12)
(5.50879e-10 0 -1.1131e-12)
(5.50496e-10 0 -1.11156e-12)
(5.50044e-10 0 -1.10973e-12)
(5.49472e-10 0 -1.10742e-12)
(5.48654e-10 0 -1.10413e-12)
(5.48024e-10 0 -1.10159e-12)
(5.4768e-10 -1.98454e-26 -1.10021e-12)
(5.47359e-10 0 -1.09892e-12)
(5.47239e-10 0 -1.09844e-12)
(5.47146e-10 0 -1.09807e-12)
(5.46923e-10 0 -1.09717e-12)
(5.46678e-10 0 -1.09619e-12)
(5.46424e-10 0 -1.09517e-12)
(5.46139e-10 0 -1.09403e-12)
(5.45858e-10 -1.98454e-26 -1.0929e-12)
(5.45543e-10 0 -1.09164e-12)
(5.45246e-10 0 -1.09045e-12)
(5.44937e-10 0 -1.08922e-12)
(5.44667e-10 0 -1.08814e-12)
(5.44397e-10 1.98454e-26 -1.08706e-12)
(5.44145e-10 0 -1.08605e-12)
(5.43879e-10 0 -1.08499e-12)
(5.43672e-10 0 -1.08417e-12)
(5.4346e-10 0 -1.08332e-12)
(5.43272e-10 0 -1.08257e-12)
(5.43088e-10 0 -1.08184e-12)
(5.42938e-10 0 -1.08124e-12)
(5.42822e-10 -1.98454e-26 -1.08078e-12)
(5.42727e-10 0 -1.0804e-12)
(5.42629e-10 -1.98454e-26 -1.08001e-12)
(5.42565e-10 0 -1.07976e-12)
(5.42506e-10 -1.98454e-26 -1.07952e-12)
(5.42463e-10 0 -1.07935e-12)
(5.42421e-10 -1.98454e-26 -1.07918e-12)
(5.42416e-10 0 -1.07916e-12)
(5.42401e-10 0 -1.0791e-12)
(5.42417e-10 1.98454e-26 -1.07917e-12)
(5.42424e-10 0 -1.07919e-12)
(5.42462e-10 1.98454e-26 -1.07935e-12)
(5.42482e-10 0 -1.07942e-12)
(5.42509e-10 -1.98454e-26 -1.07953e-12)
(5.42549e-10 0 -1.07969e-12)
(5.42574e-10 0 -1.07979e-12)
(5.42613e-10 0 -1.07995e-12)
(5.42619e-10 0 -1.07997e-12)
(5.42636e-10 0 -1.08004e-12)
(5.42657e-10 1.98454e-26 -1.08012e-12)
(5.42661e-10 0 -1.08014e-12)
(5.42665e-10 -1.98454e-26 -1.08015e-12)
(5.42675e-10 0 -1.08019e-12)
(5.42679e-10 0 -1.08021e-12)
(5.42704e-10 0 -1.08031e-12)
(5.42734e-10 1.98454e-26 -1.08043e-12)
(5.428e-10 0 -1.08069e-12)
(5.4289e-10 0 -1.08105e-12)
(5.43006e-10 1.98454e-26 -1.08151e-12)
(5.43136e-10 0 -1.08203e-12)
(5.43291e-10 -1.98454e-26 -1.08265e-12)
(5.43466e-10 0 -1.08334e-12)
(5.43654e-10 0 -1.08409e-12)
(5.43835e-10 -1.98454e-26 -1.08482e-12)
(5.44025e-10 -1.98454e-26 -1.08558e-12)
(5.442e-10 -1.98454e-26 -1.08627e-12)
(5.44364e-10 -1.98454e-26 -1.08693e-12)
(5.44489e-10 0 -1.08743e-12)
(5.44619e-10 0 -1.08795e-12)
(5.44719e-10 0 -1.08835e-12)
(5.44848e-10 -1.98454e-26 -1.08886e-12)
(5.44967e-10 0 -1.08934e-12)
(5.45122e-10 0 -1.08996e-12)
(5.45261e-10 0 -1.09052e-12)
(5.45434e-10 0 -1.09121e-12)
(5.45619e-10 0 -1.09195e-12)
(5.45861e-10 0 -1.09292e-12)
(5.46111e-10 -1.98454e-26 -1.09392e-12)
(5.46377e-10 0 -1.09498e-12)
(5.46644e-10 0 -1.09605e-12)
(5.46935e-10 0 -1.09722e-12)
(5.47212e-10 0 -1.09833e-12)
(5.47483e-10 0 -1.09942e-12)
(5.4772e-10 1.98454e-26 -1.10037e-12)
(5.47935e-10 0 -1.10124e-12)
(5.48104e-10 -1.98454e-26 -1.10192e-12)
(5.48209e-10 0 -1.10234e-12)
(5.48214e-10 0 -1.10236e-12)
(5.48217e-10 0 -1.10237e-12)
(5.48252e-10 1.98454e-26 -1.10251e-12)
(5.48244e-10 0 -1.10248e-12)
(5.48191e-10 1.98454e-26 -1.10226e-12)
(5.48141e-10 1.98454e-26 -1.10207e-12)
(5.48052e-10 1.98454e-26 -1.10171e-12)
(5.47873e-10 -1.98454e-26 -1.10099e-12)
(5.47541e-10 0 -1.09965e-12)
(5.47037e-10 0 -1.09763e-12)
(5.46486e-10 0 -1.09542e-12)
(5.46075e-10 1.98454e-26 -1.09377e-12)
(5.46108e-10 0 -1.0939e-12)
(5.46432e-10 1.98454e-26 -1.0952e-12)
(5.46674e-10 0 -1.09617e-12)
(5.46837e-10 0 -1.09683e-12)
(5.46945e-10 0 -1.09726e-12)
(5.47054e-10 0 -1.0977e-12)
(5.47163e-10 1.98454e-26 -1.09813e-12)
(5.47229e-10 0 -1.0984e-12)
(5.47312e-10 0 -1.09873e-12)
(5.47461e-10 0 -1.09933e-12)
(5.47571e-10 -1.98454e-26 -1.09977e-12)
(5.47617e-10 -1.98454e-26 -1.09996e-12)
(5.47798e-10 0 -1.10068e-12)
(5.48041e-10 -1.98454e-26 -1.10166e-12)
(5.48191e-10 -1.98454e-26 -1.10226e-12)
(5.483e-10 -1.98454e-26 -1.1027e-12)
(5.48419e-10 -1.98454e-26 -1.10318e-12)
(5.48552e-10 0 -1.10372e-12)
(5.48646e-10 -1.98454e-26 -1.1041e-12)
(5.487e-10 0 -1.10431e-12)
(5.48753e-10 0 -1.10453e-12)
(5.48793e-10 -1.98454e-26 -1.10469e-12)
(5.48809e-10 0 -1.10475e-12)
(5.488e-10 0 -1.10472e-12)
(5.48773e-10 0 -1.10461e-12)
(5.48715e-10 0 -1.10437e-12)
(5.48606e-10 -1.98454e-26 -1.10393e-12)
(5.48391e-10 0 -1.10307e-12)
(5.47999e-10 1.98454e-26 -1.1015e-12)
(5.47474e-10 0 -1.09938e-12)
(5.46931e-10 0 -1.09721e-12)
(5.4638e-10 0 -1.09499e-12)
(5.45828e-10 -1.98454e-26 -1.09278e-12)
(5.4528e-10 0 -1.09059e-12)
(5.44779e-10 0 -1.08859e-12)
(5.4442e-10 0 -1.08715e-12)
(5.43992e-10 1.98454e-26 -1.08544e-12)
(5.43572e-10 -1.98454e-26 -1.08377e-12)
(5.43477e-10 0 -1.08339e-12)
(5.43388e-10 0 -1.08304e-12)
(5.43175e-10 1.98454e-26 -1.08219e-12)
(5.43129e-10 0 -1.082e-12)
(5.43223e-10 0 -1.08238e-12)
(5.43277e-10 -1.98454e-26 -1.08259e-12)
(5.43276e-10 0 -1.08259e-12)
(5.43281e-10 0 -1.08261e-12)
(5.43302e-10 0 -1.08269e-12)
(5.43303e-10 0 -1.0827e-12)
(5.43263e-10 0 -1.08253e-12)
(5.43181e-10 0 -1.08221e-12)
(5.43097e-10 0 -1.08187e-12)
(5.43104e-10 0 -1.0819e-12)
(5.43123e-10 1.98454e-26 -1.08198e-12)
(5.43061e-10 1.98454e-26 -1.08173e-12)
(5.42949e-10 -1.98454e-26 -1.08129e-12)
(5.42794e-10 0 -1.08067e-12)
(5.42623e-10 -1.98454e-26 -1.07999e-12)
(5.42444e-10 0 -1.07927e-12)
(5.42264e-10 -1.98454e-26 -1.07856e-12)
(5.42081e-10 1.98454e-26 -1.07783e-12)
(5.4191e-10 0 -1.07715e-12)
(5.41737e-10 -1.98454e-26 -1.07646e-12)
(5.41579e-10 0 -1.07584e-12)
(5.41451e-10 0 -1.07533e-12)
(5.41322e-10 0 -1.07482e-12)
(5.41224e-10 0 -1.07442e-12)
(5.41125e-10 1.98454e-26 -1.07403e-12)
(5.41044e-10 0 -1.07371e-12)
(5.4096e-10 1.98454e-26 -1.07338e-12)
(5.40861e-10 0 -1.07299e-12)
(5.40793e-10 0 -1.07271e-12)
(5.40743e-10 1.98454e-26 -1.07252e-12)
(5.40703e-10 0 -1.07236e-12)
(5.40685e-10 0 -1.07229e-12)
(5.40678e-10 0 -1.07226e-12)
(5.40715e-10 1.98454e-26 -1.07241e-12)
(5.40772e-10 0 -1.07263e-12)
(5.40843e-10 1.98454e-26 -1.07291e-12)
(5.40918e-10 1.98454e-26 -1.07321e-12)
(5.40996e-10 0 -1.07352e-12)
(5.41069e-10 0 -1.07381e-12)
(5.41134e-10 -1.98454e-26 -1.07407e-12)
(5.41175e-10 0 -1.07423e-12)
(5.41223e-10 0 -1.07442e-12)
(5.41237e-10 0 -1.07448e-12)
(5.4127e-10 0 -1.07461e-12)
(5.41281e-10 1.98454e-26 -1.07465e-12)
(5.41315e-10 0 -1.07479e-12)
(5.41363e-10 0 -1.07498e-12)
(5.4145e-10 0 -1.07532e-12)
(5.41554e-10 0 -1.07574e-12)
(5.41718e-10 0 -1.07639e-12)
(5.41882e-10 0 -1.07704e-12)
(5.4208e-10 0 -1.07783e-12)
(5.42315e-10 0 -1.07876e-12)
(5.42567e-10 0 -1.07976e-12)
(5.42872e-10 -1.98454e-26 -1.08098e-12)
(5.43215e-10 0 -1.08235e-12)
(5.43541e-10 -1.98454e-26 -1.08365e-12)
(5.43851e-10 1.98454e-26 -1.08488e-12)
(5.44133e-10 0 -1.086e-12)
(5.44389e-10 1.98454e-26 -1.08703e-12)
(5.44618e-10 0 -1.08794e-12)
(5.44817e-10 -1.98454e-26 -1.08874e-12)
(5.44997e-10 0 -1.08946e-12)
(5.45141e-10 0 -1.09003e-12)
(5.45254e-10 1.98454e-26 -1.09048e-12)
(5.45334e-10 0 -1.09081e-12)
(5.45399e-10 1.98454e-26 -1.09106e-12)
(5.4545e-10 0 -1.09127e-12)
(5.45482e-10 0 -1.0914e-12)
(5.45504e-10 0 -1.09149e-12)
(5.4552e-10 0 -1.09155e-12)
(5.45565e-10 0 -1.09173e-12)
(5.45654e-10 0 -1.09209e-12)
(5.45772e-10 1.98454e-26 -1.09256e-12)
(5.45919e-10 -1.98454e-26 -1.09315e-12)
(5.4609e-10 0 -1.09383e-12)
(5.46251e-10 1.98454e-26 -1.09448e-12)
(5.46382e-10 0 -1.095e-12)
(5.46499e-10 0 -1.09547e-12)
(5.46572e-10 0 -1.09576e-12)
(5.46653e-10 0 -1.09609e-12)
(5.46687e-10 1.98454e-26 -1.09622e-12)
(5.46702e-10 1.98454e-26 -1.09628e-12)
(5.46681e-10 -1.98454e-26 -1.0962e-12)
(5.46665e-10 0 -1.09614e-12)
(5.46631e-10 0 -1.096e-12)
(5.46599e-10 1.98454e-26 -1.09587e-12)
(5.46566e-10 -1.98454e-26 -1.09574e-12)
(5.46565e-10 -1.98454e-26 -1.09573e-12)
(5.46563e-10 0 -1.09573e-12)
(5.46576e-10 -1.98454e-26 -1.09578e-12)
(5.46571e-10 -1.98454e-26 -1.09576e-12)
(5.4657e-10 1.98454e-26 -1.09576e-12)
(5.4659e-10 1.98454e-26 -1.09584e-12)
(5.46626e-10 1.98454e-26 -1.09598e-12)
(5.46683e-10 1.98454e-26 -1.09621e-12)
(5.46723e-10 0 -1.09637e-12)
(5.46724e-10 0 -1.09637e-12)
(5.46682e-10 0 -1.0962e-12)
(5.46592e-10 1.98454e-26 -1.09584e-12)
(5.46472e-10 0 -1.09536e-12)
(5.46355e-10 0 -1.0949e-12)
(5.46265e-10 0 -1.09453e-12)
(5.46249e-10 1.98454e-26 -1.09447e-12)
(5.46283e-10 -1.98454e-26 -1.09461e-12)
(5.46361e-10 1.98454e-26 -1.09492e-12)
(5.46462e-10 0 -1.09532e-12)
(5.46552e-10 -1.98454e-26 -1.09569e-12)
(5.46642e-10 1.98454e-26 -1.09605e-12)
(5.46711e-10 0 -1.09632e-12)
(5.46746e-10 1.98454e-26 -1.09646e-12)
(5.4674e-10 0 -1.09644e-12)
(5.46657e-10 0 -1.0961e-12)
(5.46492e-10 1.98454e-26 -1.09544e-12)
(5.46237e-10 0 -1.09442e-12)
(5.45945e-10 0 -1.09325e-12)
(5.45617e-10 -1.98454e-26 -1.09194e-12)
(5.45312e-10 0 -1.09072e-12)
(5.45044e-10 0 -1.08965e-12)
(5.44864e-10 1.98454e-26 -1.08893e-12)
(5.44761e-10 0 -1.08851e-12)
(5.44758e-10 1.98454e-26 -1.0885e-12)
(5.44782e-10 -1.98454e-26 -1.0886e-12)
(5.44844e-10 0 -1.08885e-12)
(5.4487e-10 -1.98454e-26 -1.08895e-12)
(5.44858e-10 0 -1.0889e-12)
(5.4474e-10 -1.98454e-26 -1.08843e-12)
(5.44513e-10 0 -1.08752e-12)
(5.44125e-10 1.98454e-26 -1.08598e-12)
(5.43473e-10 0 -1.08337e-12)
(5.42594e-10 0 -1.07987e-12)
(5.41039e-10 0 -1.07369e-12)
(5.38737e-10 0 -1.06457e-12)
(5.35251e-10 0 -1.05084e-12)
(5.30132e-10 0 -1.03084e-12)
(5.22435e-10 0 -1.00112e-12)
(5.11599e-10 0 -9.60023e-13)
(4.95577e-10 -1.98455e-26 -9.00834e-13)
(4.73111e-10 0 -8.21008e-13)
(4.4203e-10 1.98455e-26 -7.1668e-13)
(3.95015e-10 0 -5.72332e-13)
(4.22763e-10 0 -6.55566e-13)
(3.04587e-10 0 -3.40285e-13)
(3.4503e-09 0 -4.36721e-11)
(3.65777e-09 -1.58736e-25 -4.9083e-11)
(5.45265e-10 0 -1.09053e-12)
(5.45265e-10 0 -1.09053e-12)
(5.45265e-10 0 -1.09053e-12)
(5.45265e-10 0 -1.09053e-12)
(5.45265e-10 0 -1.09053e-12)
(5.45265e-10 -1.98454e-26 -1.09053e-12)
(5.45265e-10 0 -1.09053e-12)
(5.45265e-10 0 -1.09053e-12)
(5.45265e-10 0 -1.09053e-12)
(5.45265e-10 0 -1.09053e-12)
)
;

boundaryField
{
    inlet
    {
        type            calculated;
        value           uniform (0 0 0);
    }
    endWall
    {
        type            calculated;
        value           uniform (0 0 0);
    }
    sideWall
    {
        type            empty;
    }
}


// ************************************************************************* //
