/*--------------------------------*- C++ -*----------------------------------*\
| =========                 |                                                 |
| \\      /  F ield         | foam-extend: Open Source CFD                    |
|  \\    /   O peration     | Version:     3.2                                |
|   \\  /    A nd           | Web:         http://www.foam-extend.org         |
|    \\/     M anipulation  | For copyright notice see file Copyright         |
\*---------------------------------------------------------------------------*/
FoamFile
{
    version     2.0;
    format      ascii;
    class       areaScalarField;
    location    "120";
    object      zCo;
}
// * * * * * * * * * * * * * * * * * * * * * * * * * * * * * * * * * * * * * //

dimensions      [0 1 0 0 0 0 0];

internalField   nonuniform List<scalar> 
550
(
-1.81818e-05
-5.45455e-05
-9.09091e-05
-0.000127273
-0.000163636
-0.0002
-0.000236364
-0.000272727
-0.000309091
-0.000345455
-0.000381818
-0.000418182
-0.000454545
-0.000490909
-0.000527273
-0.000563636
-0.0006
-0.000636364
-0.000672727
-0.000709091
-0.000745455
-0.000781818
-0.000818182
-0.000854545
-0.000890909
-0.000927273
-0.000963636
-0.001
-0.00103636
-0.00107273
-0.00110909
-0.00114545
-0.00118182
-0.00121818
-0.00125455
-0.00129091
-0.00132727
-0.00136364
-0.0014
-0.00143636
-0.00147273
-0.00150909
-0.00154545
-0.00158182
-0.00161818
-0.00165455
-0.00169091
-0.00172727
-0.00176364
-0.0018
-0.00183636
-0.00187273
-0.00190909
-0.00194545
-0.00198182
-0.00201818
-0.00205455
-0.00209094
-0.00212727
-0.00216364
-0.00219981
-0.00223441
-0.00226699
-0.00229874
-0.00233038
-0.00236202
-0.00239376
-0.0024256
-0.00245755
-0.00248961
-0.00252175
-0.00255397
-0.00258625
-0.00261858
-0.00265097
-0.0026834
-0.0027159
-0.00274848
-0.00278114
-0.00281388
-0.00284669
-0.00287956
-0.00291249
-0.00294548
-0.00297854
-0.00301164
-0.00304481
-0.00307801
-0.00311125
-0.0031445
-0.00317775
-0.00321102
-0.0032443
-0.00327761
-0.00331095
-0.00334434
-0.00337778
-0.00341128
-0.00344482
-0.00347837
-0.00351191
-0.00354543
-0.00357893
-0.00361242
-0.00364587
-0.00367931
-0.00371273
-0.00374612
-0.0037795
-0.00381286
-0.00384619
-0.00387951
-0.00391282
-0.0039461
-0.00397936
-0.00401259
-0.00404581
-0.00407903
-0.00411226
-0.00414549
-0.00417872
-0.00421196
-0.0042452
-0.00427845
-0.00431171
-0.00434499
-0.00437829
-0.0044116
-0.00444493
-0.00447828
-0.00451166
-0.00454506
-0.0045785
-0.00461198
-0.00464549
-0.00467904
-0.00471264
-0.00474628
-0.00477996
-0.00481369
-0.00484746
-0.00488128
-0.00491514
-0.00494905
-0.00498301
-0.00501701
-0.00505105
-0.00508513
-0.00511925
-0.0051534
-0.00518759
-0.00522182
-0.00525609
-0.00529039
-0.00532472
-0.00535909
-0.00539349
-0.00542793
-0.00546239
-0.00549688
-0.0055314
-0.00556594
-0.00560052
-0.00563512
-0.00566975
-0.00570441
-0.00573911
-0.00577383
-0.00580859
-0.00584337
-0.00587818
-0.00591303
-0.00594791
-0.00598281
-0.00601775
-0.00605272
-0.00608773
-0.00612277
-0.00615784
-0.00619295
-0.0062281
-0.00626329
-0.00629851
-0.00633378
-0.00636908
-0.00640442
-0.0064398
-0.00647522
-0.00651069
-0.00654619
-0.00658173
-0.00661732
-0.00665295
-0.00668862
-0.00672433
-0.00676008
-0.00679588
-0.00683171
-0.00686758
-0.00690348
-0.00693942
-0.00697539
-0.00701139
-0.00704742
-0.00708348
-0.00711957
-0.00715569
-0.00719183
-0.007228
-0.00726419
-0.00730042
-0.00733666
-0.00737293
-0.00740923
-0.00744555
-0.00748189
-0.00751826
-0.00755465
-0.00759107
-0.00762751
-0.00766399
-0.0077005
-0.00773704
-0.0077736
-0.00781018
-0.00784676
-0.00788337
-0.00792
-0.00795664
-0.0079933
-0.00802998
-0.00806669
-0.00810341
-0.00814014
-0.00817689
-0.00821366
-0.00825044
-0.00828724
-0.00832406
-0.00836089
-0.00839774
-0.0084346
-0.00847147
-0.00850836
-0.00854525
-0.00858214
-0.00861904
-0.00865594
-0.00869284
-0.00872973
-0.00876662
-0.00880349
-0.00884036
-0.0088772
-0.00891402
-0.00895082
-0.00898759
-0.00902434
-0.00906107
-0.00909776
-0.00913443
-0.00917104
-0.00920761
-0.00924415
-0.00928066
-0.00931716
-0.00935365
-0.00939014
-0.0094266
-0.00946305
-0.00949948
-0.0095359
-0.00957229
-0.00960866
-0.00964501
-0.00968135
-0.00971766
-0.00975396
-0.00979024
-0.0098265
-0.00986275
-0.00989899
-0.00993521
-0.00997143
-0.0100076
-0.0100438
-0.01008
-0.0101162
-0.0101524
-0.0101886
-0.0102247
-0.0102609
-0.0102971
-0.0103333
-0.0103694
-0.0104056
-0.0104418
-0.010478
-0.0105141
-0.0105503
-0.0105865
-0.0106227
-0.0106589
-0.0106951
-0.0107313
-0.0107675
-0.0108037
-0.0108398
-0.010876
-0.0109122
-0.0109484
-0.0109846
-0.0110208
-0.0110571
-0.0110933
-0.0111295
-0.0111658
-0.011202
-0.0112383
-0.0112746
-0.0113109
-0.0113472
-0.0113835
-0.0114198
-0.0114562
-0.0114925
-0.0115289
-0.0115652
-0.0116016
-0.011638
-0.0116744
-0.0117108
-0.0117472
-0.0117836
-0.0118201
-0.0118566
-0.0118931
-0.0119296
-0.0119662
-0.0120027
-0.0120393
-0.0120758
-0.0121124
-0.0121489
-0.0121855
-0.0122221
-0.0122586
-0.0122952
-0.0123317
-0.0123682
-0.0124047
-0.0124412
-0.0124776
-0.0125141
-0.0125505
-0.0125869
-0.0126234
-0.0126599
-0.0126964
-0.0127328
-0.0127693
-0.0128058
-0.0128423
-0.0128788
-0.0129154
-0.0129519
-0.0129884
-0.013025
-0.0130615
-0.0130981
-0.0131347
-0.0131713
-0.0132079
-0.0132445
-0.0132811
-0.0133177
-0.0133543
-0.0133909
-0.0134275
-0.013464
-0.0135006
-0.0135372
-0.0135737
-0.0136102
-0.0136467
-0.0136831
-0.0137195
-0.0137558
-0.0137921
-0.0138284
-0.0138647
-0.0139009
-0.0139372
-0.0139734
-0.0140096
-0.0140459
-0.0140821
-0.0141183
-0.0141546
-0.0141908
-0.014227
-0.0142632
-0.0142995
-0.0143357
-0.0143719
-0.0144081
-0.0144444
-0.0144806
-0.0145168
-0.014553
-0.0145891
-0.0146253
-0.0146615
-0.0146976
-0.0147338
-0.0147699
-0.014806
-0.0148421
-0.0148782
-0.0149143
-0.0149504
-0.0149864
-0.0150225
-0.0150586
-0.0150947
-0.0151307
-0.0151668
-0.0152028
-0.0152389
-0.0152749
-0.015311
-0.0153471
-0.0153832
-0.0154192
-0.0154553
-0.0154914
-0.0155275
-0.0155636
-0.0155997
-0.0156358
-0.0156719
-0.015708
-0.0157441
-0.0157802
-0.0158163
-0.0158525
-0.0158886
-0.0159248
-0.015961
-0.0159971
-0.0160334
-0.0160696
-0.0161059
-0.0161421
-0.0161784
-0.0162147
-0.0162511
-0.0162874
-0.0163238
-0.0163601
-0.0163965
-0.0164329
-0.0164692
-0.0165056
-0.016542
-0.0165784
-0.0166148
-0.0166511
-0.0166875
-0.0167239
-0.0167603
-0.0167968
-0.0168332
-0.0168696
-0.0169061
-0.0169426
-0.016979
-0.0170155
-0.0170519
-0.0170884
-0.0171248
-0.0171613
-0.0171977
-0.0172342
-0.0172706
-0.0173071
-0.0173435
-0.01738
-0.0174164
-0.0174529
-0.0174894
-0.0175258
-0.0175623
-0.0175987
-0.0176352
-0.0176716
-0.0177081
-0.0177445
-0.0177809
-0.0178174
-0.0178538
-0.0178902
-0.0179267
-0.0179631
-0.0179996
-0.0180361
-0.0180725
-0.018109
-0.0181454
-0.0181819
-0.0182183
-0.0182547
-0.0182911
-0.0183274
-0.0183638
-0.0184001
-0.0184364
-0.0184728
-0.0185091
-0.0185454
-0.0185818
-0.0186181
-0.0186544
-0.0186907
-0.018727
-0.0187632
-0.0187993
-0.0188353
-0.0188712
-0.0189067
-0.0189418
-0.0189763
-0.0190098
-0.0190421
-0.0190727
-0.0191006
-0.0191278
-0.0191521
-0.0192773
-0.0195144
-0.0196545
-0.0196909
-0.0197273
-0.0197636
-0.0198
-0.0198364
-0.0198727
-0.0199091
-0.0199455
-0.0199818
)
;

boundaryField
{
    inlet
    {
        type            calculated;
        value           uniform 0;
    }
    endWall
    {
        type            calculated;
        value           uniform 0;
    }
    sideWall
    {
        type            empty;
    }
}


// ************************************************************************* //
