/*--------------------------------*- C++ -*----------------------------------*\
| =========                 |                                                 |
| \\      /  F ield         | foam-extend: Open Source CFD                    |
|  \\    /   O peration     | Version:     3.2                                |
|   \\  /    A nd           | Web:         http://www.foam-extend.org         |
|    \\/     M anipulation  | For copyright notice see file Copyright         |
\*---------------------------------------------------------------------------*/
FoamFile
{
    version     2.0;
    format      ascii;
    class       surfaceScalarField;
    location    "91";
    object      AdSS1;
}
// * * * * * * * * * * * * * * * * * * * * * * * * * * * * * * * * * * * * * //

dimensions      [0 3 -1 0 0 0 0];

internalField   nonuniform List<scalar> 
10482
(
1.0035e-05
1.14862e-05
7.14129e-06
1.08147e-06
6.7944e-06
-1.46534e-06
6.73657e-06
-1.7544e-06
6.70467e-06
-1.78033e-06
6.65679e-06
-1.76435e-06
6.63617e-06
-1.79162e-06
6.61827e-06
-1.79433e-06
6.61388e-06
-1.80784e-06
6.61478e-06
-1.81312e-06
6.6216e-06
-1.81906e-06
6.63136e-06
-1.82199e-06
6.64602e-06
-1.82689e-06
6.66274e-06
-1.82895e-06
6.68191e-06
-1.83139e-06
6.70321e-06
-1.83353e-06
6.72663e-06
-1.83565e-06
6.75063e-06
-1.83623e-06
6.77614e-06
-1.83773e-06
6.80396e-06
-1.84005e-06
6.833e-06
-1.84127e-06
6.86296e-06
-1.84219e-06
6.89371e-06
-1.84299e-06
6.92471e-06
-1.84323e-06
6.95652e-06
-1.84405e-06
6.98777e-06
-1.84347e-06
7.01636e-06
-1.84082e-06
7.0408e-06
-1.83668e-06
7.06147e-06
-1.8329e-06
7.07868e-06
-1.82944e-06
7.09306e-06
-1.82661e-06
7.10498e-06
-1.82415e-06
7.11491e-06
-1.82216e-06
7.12313e-06
-1.82045e-06
7.12998e-06
-1.81908e-06
7.13566e-06
-1.81792e-06
7.14041e-06
-1.81698e-06
7.14438e-06
-1.8162e-06
7.14771e-06
-1.81556e-06
7.15051e-06
-1.81503e-06
7.15288e-06
-1.8146e-06
7.1549e-06
-1.81424e-06
7.15663e-06
-1.81396e-06
7.15811e-06
-1.81372e-06
7.15936e-06
-1.81348e-06
7.16044e-06
-1.81331e-06
7.16152e-06
-1.81331e-06
7.16232e-06
-1.81302e-06
7.16299e-06
-1.8129e-06
7.16357e-06
-1.81281e-06
7.16407e-06
-1.81274e-06
7.16452e-06
-1.81267e-06
7.1649e-06
-1.81262e-06
7.16524e-06
-1.81257e-06
7.16553e-06
-1.81253e-06
7.16578e-06
-1.81248e-06
7.16601e-06
-1.81245e-06
7.1662e-06
-1.81242e-06
7.16636e-06
-1.8124e-06
7.16651e-06
-1.81237e-06
7.16663e-06
-1.81236e-06
7.16674e-06
-1.81234e-06
7.16684e-06
-1.81232e-06
7.16692e-06
-1.81231e-06
7.16699e-06
-1.8123e-06
7.16705e-06
-1.81229e-06
7.16711e-06
-1.81228e-06
7.16715e-06
-1.81228e-06
7.16719e-06
-1.81227e-06
7.16722e-06
-1.81226e-06
7.16725e-06
-1.81226e-06
7.16728e-06
-1.81226e-06
7.1673e-06
-1.81225e-06
7.16732e-06
-1.81225e-06
7.16734e-06
-1.81225e-06
7.16735e-06
-1.81224e-06
7.16736e-06
-1.81224e-06
7.16738e-06
-1.81224e-06
7.16738e-06
-1.81224e-06
7.16739e-06
-1.81224e-06
7.1674e-06
-1.81224e-06
7.1674e-06
-1.81224e-06
7.16741e-06
-1.81224e-06
7.16741e-06
-1.81223e-06
7.16742e-06
-1.81223e-06
7.16742e-06
-1.81223e-06
7.16742e-06
-1.81223e-06
7.16743e-06
-1.81223e-06
7.16743e-06
-1.81223e-06
7.16743e-06
-1.81223e-06
7.16743e-06
-1.81223e-06
7.16743e-06
-1.81223e-06
7.16743e-06
-1.81223e-06
7.16743e-06
-1.81223e-06
7.16744e-06
-1.81223e-06
7.16744e-06
-1.81223e-06
7.16744e-06
-1.81223e-06
7.16744e-06
-1.81223e-06
7.16744e-06
-1.81223e-06
7.16744e-06
-1.81223e-06
7.16744e-06
-1.81223e-06
7.16744e-06
-1.81223e-06
7.16744e-06
-1.81223e-06
7.16744e-06
-1.81223e-06
7.16744e-06
-1.81223e-06
7.16744e-06
-1.81223e-06
7.16744e-06
-1.81223e-06
7.16744e-06
-1.81223e-06
7.16744e-06
-1.81223e-06
7.16744e-06
-1.81223e-06
7.16744e-06
-1.81223e-06
7.16744e-06
-1.81223e-06
7.16744e-06
-1.81223e-06
7.16744e-06
-1.81223e-06
7.16744e-06
-1.81223e-06
7.16744e-06
-1.81223e-06
7.16744e-06
-1.81223e-06
7.16744e-06
-1.81223e-06
7.16744e-06
-1.81223e-06
7.16744e-06
-1.81223e-06
7.16744e-06
-1.81223e-06
7.16744e-06
-1.81223e-06
7.16744e-06
-1.81223e-06
7.16744e-06
-1.81223e-06
7.16744e-06
-1.81223e-06
7.16744e-06
-1.81223e-06
7.16744e-06
-1.81223e-06
7.16744e-06
-1.81223e-06
7.16744e-06
-1.81223e-06
7.16744e-06
-1.81223e-06
7.16744e-06
-1.81223e-06
7.16744e-06
-1.81223e-06
7.16744e-06
-1.81223e-06
7.16744e-06
-1.81223e-06
7.16744e-06
-1.81223e-06
7.16744e-06
-1.81223e-06
7.16744e-06
-1.81223e-06
7.16744e-06
-1.81223e-06
7.16744e-06
-1.81223e-06
7.16744e-06
-1.81223e-06
7.16744e-06
-1.81223e-06
7.16744e-06
-1.81223e-06
7.16744e-06
-1.81223e-06
7.16744e-06
-1.81223e-06
7.16744e-06
-1.81223e-06
7.16744e-06
-1.81223e-06
7.16744e-06
-1.81223e-06
7.16744e-06
-1.81223e-06
7.16744e-06
-1.81223e-06
7.16744e-06
-1.81223e-06
7.16744e-06
-1.81223e-06
7.16744e-06
-1.81223e-06
7.16744e-06
-1.81223e-06
7.16744e-06
-1.81223e-06
7.16744e-06
-1.81223e-06
7.16744e-06
-1.81223e-06
7.16744e-06
-1.81223e-06
7.16744e-06
-1.81223e-06
7.16744e-06
-1.81223e-06
7.16744e-06
-1.81223e-06
7.16744e-06
-1.81223e-06
7.16744e-06
-1.81223e-06
7.16744e-06
-1.81223e-06
7.16744e-06
-1.81223e-06
7.16744e-06
-1.81223e-06
7.16744e-06
-1.81223e-06
7.16744e-06
-1.81223e-06
7.16744e-06
-1.81223e-06
7.16744e-06
-1.81223e-06
7.16744e-06
-1.81223e-06
7.16744e-06
-1.81223e-06
7.16744e-06
-1.81223e-06
7.16744e-06
-1.81223e-06
7.16744e-06
-1.81223e-06
7.16744e-06
-1.81223e-06
7.16744e-06
-1.81223e-06
7.16744e-06
-1.81223e-06
7.16744e-06
-1.81223e-06
7.16744e-06
-1.81223e-06
7.16744e-06
-1.81223e-06
7.16744e-06
-1.81223e-06
7.16744e-06
-1.81223e-06
7.16744e-06
-1.81223e-06
7.16744e-06
-1.81223e-06
7.16744e-06
-1.81223e-06
7.16744e-06
-1.81223e-06
7.16744e-06
-1.81223e-06
7.16744e-06
-1.81223e-06
7.16744e-06
-1.81223e-06
7.16744e-06
-1.81223e-06
7.16744e-06
-1.81223e-06
7.16744e-06
-1.81223e-06
7.16744e-06
-1.81223e-06
7.16744e-06
-1.81223e-06
7.16744e-06
-1.81223e-06
7.16744e-06
-1.81223e-06
7.16744e-06
-1.81223e-06
7.16744e-06
-1.81223e-06
7.16744e-06
-1.81223e-06
7.16744e-06
-1.81223e-06
7.16744e-06
-1.81223e-06
7.16744e-06
-1.81223e-06
7.16744e-06
-1.81223e-06
7.16744e-06
-1.81223e-06
7.16744e-06
-1.81223e-06
7.16744e-06
-1.81223e-06
7.16744e-06
-1.81223e-06
7.16744e-06
-1.81223e-06
7.16744e-06
-1.81223e-06
7.16744e-06
-1.81223e-06
7.16744e-06
-1.81223e-06
7.16744e-06
-1.81223e-06
7.16744e-06
-1.81223e-06
7.16744e-06
-1.81223e-06
7.16744e-06
-1.81223e-06
7.16744e-06
-1.81223e-06
7.16744e-06
-1.81223e-06
7.16744e-06
-1.81223e-06
7.16744e-06
-1.81223e-06
7.16744e-06
-1.81223e-06
7.16744e-06
-1.81223e-06
7.16744e-06
-1.81223e-06
7.16744e-06
-1.81223e-06
7.16744e-06
-1.81223e-06
7.16744e-06
-1.81223e-06
7.16744e-06
-1.81223e-06
7.16744e-06
-1.81223e-06
7.16744e-06
-1.81223e-06
7.16744e-06
-1.81223e-06
7.16744e-06
-1.81223e-06
7.16744e-06
-1.81223e-06
7.16744e-06
-1.81223e-06
7.16744e-06
-1.81223e-06
7.16744e-06
-1.81223e-06
7.16744e-06
-1.81223e-06
7.16744e-06
-1.81223e-06
7.16744e-06
-1.81223e-06
7.16744e-06
-1.81223e-06
7.16744e-06
-1.81223e-06
7.16744e-06
-1.81223e-06
7.16744e-06
-1.81223e-06
7.16744e-06
-1.81223e-06
7.16744e-06
-1.81223e-06
7.16744e-06
-1.81223e-06
7.16744e-06
-1.81223e-06
7.16744e-06
-1.81223e-06
7.16744e-06
-1.81223e-06
7.16744e-06
-1.81223e-06
7.16744e-06
-1.81223e-06
7.16744e-06
-1.81223e-06
7.16744e-06
-1.81223e-06
7.16744e-06
-1.81223e-06
7.16744e-06
-1.81223e-06
7.16744e-06
-1.81223e-06
7.16744e-06
-1.81223e-06
7.16744e-06
-1.81223e-06
7.16744e-06
-1.81223e-06
7.16744e-06
-1.81223e-06
7.16744e-06
-1.81223e-06
7.16744e-06
-1.81223e-06
7.16744e-06
-1.81223e-06
7.16744e-06
-1.81223e-06
7.16744e-06
-1.81223e-06
7.16744e-06
-1.81223e-06
7.16744e-06
-1.81223e-06
7.16744e-06
-1.81223e-06
7.16744e-06
-1.81223e-06
7.16744e-06
-1.81223e-06
7.16744e-06
-1.81223e-06
7.16744e-06
-1.81223e-06
7.16744e-06
-1.81223e-06
7.16744e-06
-1.81223e-06
7.16744e-06
-1.81223e-06
7.16744e-06
-1.81223e-06
7.16744e-06
-1.81223e-06
7.16744e-06
-1.81223e-06
7.16744e-06
-1.81223e-06
7.16744e-06
-1.81223e-06
7.16744e-06
-1.81223e-06
7.16744e-06
-1.81223e-06
7.16744e-06
-1.81223e-06
7.16744e-06
-1.81223e-06
7.16744e-06
-1.81223e-06
7.16744e-06
-1.81223e-06
7.16744e-06
-1.81223e-06
7.16744e-06
-1.81223e-06
7.16744e-06
-1.81223e-06
7.16744e-06
-1.81223e-06
7.16744e-06
-1.81223e-06
7.16744e-06
-1.81223e-06
7.16744e-06
-1.81223e-06
7.16744e-06
-1.81223e-06
7.16744e-06
-1.81223e-06
7.16744e-06
-1.81223e-06
7.16744e-06
-1.81223e-06
7.16744e-06
-1.81223e-06
7.16744e-06
-1.81223e-06
7.16744e-06
-1.81223e-06
7.16744e-06
-1.81223e-06
-1.81221e-06
1.75636e-05
1.72558e-05
1.46222e-05
4.02285e-06
1.36459e-05
-4.89021e-07
1.33197e-05
-1.42823e-06
1.31014e-05
-1.56203e-06
1.2955e-05
-1.61792e-06
1.2864e-05
-1.70061e-06
1.28059e-05
-1.73626e-06
1.27747e-05
-1.77667e-06
1.27635e-05
-1.80187e-06
1.27642e-05
-1.81981e-06
1.27748e-05
-1.83254e-06
1.27947e-05
-1.8468e-06
1.28208e-05
-1.85512e-06
1.28525e-05
-1.86302e-06
1.28888e-05
-1.86987e-06
1.29298e-05
-1.87667e-06
1.2973e-05
-1.87943e-06
1.30188e-05
-1.88349e-06
1.30688e-05
-1.8901e-06
1.31219e-05
-1.89431e-06
1.31771e-05
-1.89738e-06
1.32341e-05
-1.89999e-06
1.32919e-05
-1.90104e-06
1.33516e-05
-1.90377e-06
1.34108e-05
-1.90266e-06
1.34651e-05
-1.89514e-06
1.35124e-05
-1.88398e-06
1.35529e-05
-1.8734e-06
1.35872e-05
-1.86373e-06
1.36161e-05
-1.85555e-06
1.36404e-05
-1.84842e-06
1.36607e-05
-1.8425e-06
1.36777e-05
-1.83745e-06
1.3692e-05
-1.8333e-06
1.37039e-05
-1.82981e-06
1.37138e-05
-1.82695e-06
1.37222e-05
-1.82456e-06
1.37292e-05
-1.8226e-06
1.37352e-05
-1.82096e-06
1.37402e-05
-1.81962e-06
1.37444e-05
-1.81849e-06
1.37481e-05
-1.81761e-06
1.37512e-05
-1.81685e-06
1.37539e-05
-1.81613e-06
1.37561e-05
-1.81553e-06
1.37577e-05
-1.81496e-06
1.37593e-05
-1.81464e-06
1.37607e-05
-1.8143e-06
1.37619e-05
-1.81402e-06
1.3763e-05
-1.81379e-06
1.37639e-05
-1.81359e-06
1.37647e-05
-1.8134e-06
1.37651e-05
-1.81298e-06
1.37657e-05
-1.81312e-06
1.37662e-05
-1.813e-06
1.37667e-05
-1.8129e-06
1.37671e-05
-1.81281e-06
1.37674e-05
-1.81274e-06
1.37677e-05
-1.81267e-06
1.3768e-05
-1.81261e-06
1.37682e-05
-1.81256e-06
1.37684e-05
-1.81252e-06
1.37685e-05
-1.81248e-06
1.37687e-05
-1.81245e-06
1.37688e-05
-1.81242e-06
1.37689e-05
-1.81239e-06
1.3769e-05
-1.81237e-06
1.37691e-05
-1.81235e-06
1.37692e-05
-1.81233e-06
1.37692e-05
-1.81232e-06
1.37693e-05
-1.81231e-06
1.37693e-05
-1.8123e-06
1.37694e-05
-1.81229e-06
1.37694e-05
-1.81228e-06
1.37694e-05
-1.81227e-06
1.37695e-05
-1.81227e-06
1.37695e-05
-1.81226e-06
1.37695e-05
-1.81226e-06
1.37695e-05
-1.81225e-06
1.37695e-05
-1.81225e-06
1.37695e-05
-1.81225e-06
1.37696e-05
-1.81225e-06
1.37696e-05
-1.81224e-06
1.37696e-05
-1.81224e-06
1.37696e-05
-1.81224e-06
1.37696e-05
-1.81224e-06
1.37696e-05
-1.81224e-06
1.37696e-05
-1.81224e-06
1.37696e-05
-1.81224e-06
1.37696e-05
-1.81223e-06
1.37696e-05
-1.81223e-06
1.37696e-05
-1.81223e-06
1.37696e-05
-1.81223e-06
1.37696e-05
-1.81223e-06
1.37696e-05
-1.81223e-06
1.37696e-05
-1.81223e-06
1.37696e-05
-1.81223e-06
1.37696e-05
-1.81223e-06
1.37696e-05
-1.81223e-06
1.37696e-05
-1.81223e-06
1.37696e-05
-1.81223e-06
1.37696e-05
-1.81223e-06
1.37696e-05
-1.81223e-06
1.37696e-05
-1.81223e-06
1.37696e-05
-1.81223e-06
1.37696e-05
-1.81223e-06
1.37696e-05
-1.81223e-06
1.37696e-05
-1.81223e-06
1.37696e-05
-1.81223e-06
1.37696e-05
-1.81223e-06
1.37696e-05
-1.81223e-06
1.37696e-05
-1.81223e-06
1.37696e-05
-1.81223e-06
1.37696e-05
-1.81223e-06
1.37696e-05
-1.81223e-06
1.37696e-05
-1.81223e-06
1.37696e-05
-1.81223e-06
1.37696e-05
-1.81223e-06
1.37696e-05
-1.81223e-06
1.37696e-05
-1.81223e-06
1.37696e-05
-1.81223e-06
1.37696e-05
-1.81223e-06
1.37696e-05
-1.81223e-06
1.37696e-05
-1.81223e-06
1.37696e-05
-1.81223e-06
1.37696e-05
-1.81223e-06
1.37696e-05
-1.81223e-06
1.37696e-05
-1.81223e-06
1.37696e-05
-1.81223e-06
1.37696e-05
-1.81223e-06
1.37696e-05
-1.81223e-06
1.37696e-05
-1.81223e-06
1.37696e-05
-1.81223e-06
1.37696e-05
-1.81223e-06
1.37696e-05
-1.81223e-06
1.37696e-05
-1.81223e-06
1.37696e-05
-1.81223e-06
1.37696e-05
-1.81223e-06
1.37696e-05
-1.81223e-06
1.37696e-05
-1.81223e-06
1.37696e-05
-1.81223e-06
1.37696e-05
-1.81223e-06
1.37696e-05
-1.81223e-06
1.37696e-05
-1.81223e-06
1.37696e-05
-1.81223e-06
1.37696e-05
-1.81223e-06
1.37696e-05
-1.81223e-06
1.37696e-05
-1.81223e-06
1.37696e-05
-1.81223e-06
1.37696e-05
-1.81223e-06
1.37696e-05
-1.81223e-06
1.37696e-05
-1.81223e-06
1.37696e-05
-1.81223e-06
1.37696e-05
-1.81223e-06
1.37696e-05
-1.81223e-06
1.37696e-05
-1.81223e-06
1.37696e-05
-1.81223e-06
1.37696e-05
-1.81223e-06
1.37696e-05
-1.81223e-06
1.37696e-05
-1.81223e-06
1.37696e-05
-1.81223e-06
1.37696e-05
-1.81223e-06
1.37696e-05
-1.81223e-06
1.37696e-05
-1.81223e-06
1.37696e-05
-1.81223e-06
1.37696e-05
-1.81223e-06
1.37696e-05
-1.81223e-06
1.37696e-05
-1.81223e-06
1.37696e-05
-1.81223e-06
1.37696e-05
-1.81223e-06
1.37696e-05
-1.81223e-06
1.37696e-05
-1.81223e-06
1.37696e-05
-1.81223e-06
1.37696e-05
-1.81223e-06
1.37696e-05
-1.81223e-06
1.37696e-05
-1.81223e-06
1.37696e-05
-1.81223e-06
1.37696e-05
-1.81223e-06
1.37696e-05
-1.81223e-06
1.37696e-05
-1.81223e-06
1.37696e-05
-1.81223e-06
1.37696e-05
-1.81223e-06
1.37696e-05
-1.81223e-06
1.37696e-05
-1.81223e-06
1.37696e-05
-1.81223e-06
1.37696e-05
-1.81223e-06
1.37696e-05
-1.81223e-06
1.37696e-05
-1.81223e-06
1.37696e-05
-1.81223e-06
1.37696e-05
-1.81223e-06
1.37696e-05
-1.81223e-06
1.37696e-05
-1.81223e-06
1.37696e-05
-1.81223e-06
1.37696e-05
-1.81223e-06
1.37696e-05
-1.81223e-06
1.37696e-05
-1.81223e-06
1.37696e-05
-1.81223e-06
1.37696e-05
-1.81223e-06
1.37696e-05
-1.81223e-06
1.37696e-05
-1.81223e-06
1.37696e-05
-1.81223e-06
1.37696e-05
-1.81223e-06
1.37696e-05
-1.81223e-06
1.37696e-05
-1.81223e-06
1.37696e-05
-1.81223e-06
1.37696e-05
-1.81223e-06
1.37696e-05
-1.81223e-06
1.37696e-05
-1.81223e-06
1.37696e-05
-1.81223e-06
1.37696e-05
-1.81223e-06
1.37696e-05
-1.81223e-06
1.37696e-05
-1.81223e-06
1.37696e-05
-1.81223e-06
1.37696e-05
-1.81223e-06
1.37696e-05
-1.81223e-06
1.37696e-05
-1.81223e-06
1.37696e-05
-1.81223e-06
1.37696e-05
-1.81223e-06
1.37696e-05
-1.81223e-06
1.37696e-05
-1.81223e-06
1.37696e-05
-1.81223e-06
1.37696e-05
-1.81223e-06
1.37696e-05
-1.81223e-06
1.37696e-05
-1.81223e-06
1.37696e-05
-1.81223e-06
1.37696e-05
-1.81223e-06
1.37696e-05
-1.81223e-06
1.37696e-05
-1.81223e-06
1.37696e-05
-1.81223e-06
1.37696e-05
-1.81223e-06
1.37696e-05
-1.81223e-06
1.37696e-05
-1.81223e-06
1.37696e-05
-1.81223e-06
1.37696e-05
-1.81223e-06
1.37696e-05
-1.81223e-06
1.37696e-05
-1.81223e-06
1.37696e-05
-1.81223e-06
1.37696e-05
-1.81223e-06
1.37696e-05
-1.81223e-06
1.37696e-05
-1.81223e-06
1.37696e-05
-1.81223e-06
1.37696e-05
-1.81223e-06
1.37696e-05
-1.81223e-06
1.37696e-05
-1.81223e-06
1.37696e-05
-1.81223e-06
1.37696e-05
-1.81223e-06
1.37696e-05
-1.81223e-06
1.37696e-05
-1.81223e-06
1.37696e-05
-1.81223e-06
1.37696e-05
-1.81223e-06
1.37696e-05
-1.81223e-06
1.37696e-05
-1.81223e-06
1.37696e-05
-1.81223e-06
1.37696e-05
-1.81223e-06
1.37696e-05
-1.81223e-06
1.37696e-05
-1.81223e-06
1.37696e-05
-1.81223e-06
1.37696e-05
-1.81223e-06
1.37696e-05
-1.81223e-06
1.37696e-05
-1.81223e-06
1.37696e-05
-1.81223e-06
1.37696e-05
-1.81223e-06
1.37696e-05
-1.81223e-06
1.37696e-05
-1.81223e-06
1.37696e-05
-1.81223e-06
1.37696e-05
-1.81223e-06
1.37696e-05
-1.81223e-06
1.37696e-05
-1.81223e-06
1.37696e-05
-1.81223e-06
1.37696e-05
-1.81223e-06
1.37696e-05
-1.81223e-06
1.37696e-05
-1.81223e-06
1.37696e-05
-1.81223e-06
1.37696e-05
-1.81223e-06
1.37696e-05
-1.81223e-06
1.37696e-05
-1.81223e-06
1.37696e-05
-1.81223e-06
1.37696e-05
-1.81223e-06
1.37696e-05
-1.81223e-06
1.37696e-05
-1.81223e-06
1.37696e-05
-1.81223e-06
1.37696e-05
-1.81223e-06
1.37696e-05
-1.81223e-06
1.37696e-05
-1.81223e-06
1.37696e-05
-1.81223e-06
1.37696e-05
-1.81223e-06
1.37696e-05
-1.81223e-06
1.37696e-05
-1.81223e-06
1.37696e-05
-1.81223e-06
1.37696e-05
-1.81223e-06
1.37696e-05
-1.81223e-06
1.37696e-05
-1.81223e-06
1.37696e-05
-1.81223e-06
1.37696e-05
-1.81223e-06
1.37696e-05
-1.81223e-06
1.37696e-05
-1.81223e-06
1.37696e-05
-1.81224e-06
1.37696e-05
-1.81223e-06
-1.8122e-06
2.13429e-05
1.92463e-05
1.89451e-05
6.42071e-06
1.76816e-05
7.74426e-07
1.70541e-05
-8.00752e-07
1.66379e-05
-1.14575e-06
1.63924e-05
-1.37248e-06
1.62326e-05
-1.54078e-06
1.61311e-05
-1.63477e-06
1.60695e-05
-1.71507e-06
1.60388e-05
-1.77114e-06
1.60268e-05
-1.80787e-06
1.60306e-05
-1.83627e-06
1.60464e-05
-1.86264e-06
1.60721e-05
-1.88078e-06
1.61057e-05
-1.89667e-06
1.6146e-05
-1.91014e-06
1.61928e-05
-1.9235e-06
1.62433e-05
-1.92997e-06
1.62972e-05
-1.9373e-06
1.63563e-05
-1.94924e-06
1.64195e-05
-1.95756e-06
1.64858e-05
-1.96363e-06
1.65545e-05
-1.96875e-06
1.66247e-05
-1.97118e-06
1.66974e-05
-1.97648e-06
1.67695e-05
-1.97477e-06
1.68357e-05
-1.9613e-06
1.68937e-05
-1.94204e-06
1.69438e-05
-1.92348e-06
1.69866e-05
-1.90647e-06
1.70228e-05
-1.89182e-06
1.70534e-05
-1.87904e-06
1.70792e-05
-1.86827e-06
1.71008e-05
-1.85909e-06
1.7119e-05
-1.85146e-06
1.71342e-05
-1.84504e-06
1.7147e-05
-1.83974e-06
1.71578e-05
-1.83531e-06
1.71668e-05
-1.83165e-06
1.71745e-05
-1.8286e-06
1.71809e-05
-1.82608e-06
1.71864e-05
-1.82397e-06
1.71911e-05
-1.8223e-06
1.71951e-05
-1.82087e-06
1.71985e-05
-1.81954e-06
1.72014e-05
-1.81839e-06
1.72038e-05
-1.81737e-06
1.72059e-05
-1.81671e-06
1.72076e-05
-1.81608e-06
1.72092e-05
-1.81557e-06
1.72105e-05
-1.81513e-06
1.72117e-05
-1.81475e-06
1.72127e-05
-1.8144e-06
1.72139e-05
-1.81415e-06
1.72146e-05
-1.81388e-06
1.72153e-05
-1.81366e-06
1.72159e-05
-1.81348e-06
1.72164e-05
-1.81331e-06
1.72168e-05
-1.81317e-06
1.72172e-05
-1.81305e-06
1.72175e-05
-1.81294e-06
1.72178e-05
-1.81284e-06
1.7218e-05
-1.81276e-06
1.72183e-05
-1.81269e-06
1.72184e-05
-1.81263e-06
1.72186e-05
-1.81258e-06
1.72187e-05
-1.81253e-06
1.72189e-05
-1.81248e-06
1.7219e-05
-1.81245e-06
1.7219e-05
-1.81242e-06
1.72191e-05
-1.8124e-06
1.72192e-05
-1.81238e-06
1.72192e-05
-1.81236e-06
1.72193e-05
-1.81233e-06
1.72193e-05
-1.81233e-06
1.72194e-05
-1.81231e-06
1.72194e-05
-1.8123e-06
1.72194e-05
-1.81229e-06
1.72195e-05
-1.81228e-06
1.72195e-05
-1.81227e-06
1.72195e-05
-1.81227e-06
1.72195e-05
-1.81226e-06
1.72195e-05
-1.81226e-06
1.72195e-05
-1.81225e-06
1.72195e-05
-1.81225e-06
1.72196e-05
-1.81225e-06
1.72196e-05
-1.81225e-06
1.72196e-05
-1.81224e-06
1.72196e-05
-1.81224e-06
1.72196e-05
-1.81224e-06
1.72196e-05
-1.81224e-06
1.72196e-05
-1.81224e-06
1.72196e-05
-1.81224e-06
1.72196e-05
-1.81223e-06
1.72196e-05
-1.81224e-06
1.72196e-05
-1.81223e-06
1.72196e-05
-1.81223e-06
1.72196e-05
-1.81223e-06
1.72196e-05
-1.81223e-06
1.72196e-05
-1.81223e-06
1.72196e-05
-1.81223e-06
1.72196e-05
-1.81223e-06
1.72196e-05
-1.81223e-06
1.72196e-05
-1.81223e-06
1.72196e-05
-1.81223e-06
1.72196e-05
-1.81223e-06
1.72196e-05
-1.81223e-06
1.72196e-05
-1.81223e-06
1.72196e-05
-1.81223e-06
1.72196e-05
-1.81223e-06
1.72196e-05
-1.81223e-06
1.72196e-05
-1.81223e-06
1.72196e-05
-1.81223e-06
1.72196e-05
-1.81223e-06
1.72196e-05
-1.81223e-06
1.72196e-05
-1.81223e-06
1.72196e-05
-1.81223e-06
1.72196e-05
-1.81223e-06
1.72196e-05
-1.81223e-06
1.72196e-05
-1.81223e-06
1.72196e-05
-1.81223e-06
1.72196e-05
-1.81223e-06
1.72196e-05
-1.81223e-06
1.72196e-05
-1.81223e-06
1.72196e-05
-1.81223e-06
1.72196e-05
-1.81223e-06
1.72196e-05
-1.81223e-06
1.72196e-05
-1.81223e-06
1.72196e-05
-1.81223e-06
1.72196e-05
-1.81223e-06
1.72196e-05
-1.81223e-06
1.72196e-05
-1.81223e-06
1.72196e-05
-1.81223e-06
1.72196e-05
-1.81223e-06
1.72196e-05
-1.81223e-06
1.72196e-05
-1.81223e-06
1.72196e-05
-1.81223e-06
1.72196e-05
-1.81223e-06
1.72196e-05
-1.81223e-06
1.72196e-05
-1.81223e-06
1.72196e-05
-1.81223e-06
1.72196e-05
-1.81223e-06
1.72196e-05
-1.81223e-06
1.72196e-05
-1.81223e-06
1.72196e-05
-1.81223e-06
1.72196e-05
-1.81223e-06
1.72196e-05
-1.81223e-06
1.72196e-05
-1.81223e-06
1.72196e-05
-1.81223e-06
1.72196e-05
-1.81223e-06
1.72196e-05
-1.81223e-06
1.72196e-05
-1.81223e-06
1.72196e-05
-1.81223e-06
1.72196e-05
-1.81223e-06
1.72196e-05
-1.81223e-06
1.72196e-05
-1.81223e-06
1.72196e-05
-1.81223e-06
1.72196e-05
-1.81223e-06
1.72196e-05
-1.81223e-06
1.72196e-05
-1.81223e-06
1.72196e-05
-1.81223e-06
1.72196e-05
-1.81223e-06
1.72196e-05
-1.81223e-06
1.72196e-05
-1.81223e-06
1.72196e-05
-1.81223e-06
1.72196e-05
-1.81223e-06
1.72196e-05
-1.81223e-06
1.72196e-05
-1.81223e-06
1.72196e-05
-1.81223e-06
1.72196e-05
-1.81223e-06
1.72196e-05
-1.81223e-06
1.72196e-05
-1.81223e-06
1.72196e-05
-1.81223e-06
1.72196e-05
-1.81223e-06
1.72196e-05
-1.81223e-06
1.72196e-05
-1.81223e-06
1.72196e-05
-1.81223e-06
1.72196e-05
-1.81223e-06
1.72196e-05
-1.81223e-06
1.72196e-05
-1.81223e-06
1.72196e-05
-1.81223e-06
1.72196e-05
-1.81223e-06
1.72196e-05
-1.81223e-06
1.72196e-05
-1.81223e-06
1.72196e-05
-1.81223e-06
1.72196e-05
-1.81223e-06
1.72196e-05
-1.81223e-06
1.72196e-05
-1.81223e-06
1.72196e-05
-1.81223e-06
1.72196e-05
-1.81223e-06
1.72196e-05
-1.81223e-06
1.72196e-05
-1.81223e-06
1.72196e-05
-1.81223e-06
1.72196e-05
-1.81223e-06
1.72196e-05
-1.81223e-06
1.72196e-05
-1.81223e-06
1.72196e-05
-1.81223e-06
1.72196e-05
-1.81223e-06
1.72196e-05
-1.81223e-06
1.72196e-05
-1.81223e-06
1.72196e-05
-1.81223e-06
1.72196e-05
-1.81223e-06
1.72196e-05
-1.81223e-06
1.72196e-05
-1.81223e-06
1.72196e-05
-1.81223e-06
1.72196e-05
-1.81223e-06
1.72196e-05
-1.81223e-06
1.72196e-05
-1.81223e-06
1.72196e-05
-1.81223e-06
1.72196e-05
-1.81223e-06
1.72196e-05
-1.81223e-06
1.72196e-05
-1.81223e-06
1.72196e-05
-1.81223e-06
1.72196e-05
-1.81223e-06
1.72196e-05
-1.81223e-06
1.72196e-05
-1.81223e-06
1.72196e-05
-1.81223e-06
1.72196e-05
-1.81223e-06
1.72196e-05
-1.81223e-06
1.72196e-05
-1.81223e-06
1.72196e-05
-1.81223e-06
1.72196e-05
-1.81223e-06
1.72196e-05
-1.81223e-06
1.72196e-05
-1.81223e-06
1.72196e-05
-1.81223e-06
1.72196e-05
-1.81223e-06
1.72196e-05
-1.81223e-06
1.72196e-05
-1.81223e-06
1.72196e-05
-1.81223e-06
1.72196e-05
-1.81223e-06
1.72196e-05
-1.81223e-06
1.72196e-05
-1.81223e-06
1.72196e-05
-1.81223e-06
1.72196e-05
-1.81223e-06
1.72196e-05
-1.81223e-06
1.72196e-05
-1.81223e-06
1.72196e-05
-1.81223e-06
1.72196e-05
-1.81223e-06
1.72196e-05
-1.81223e-06
1.72196e-05
-1.81223e-06
1.72196e-05
-1.81223e-06
1.72196e-05
-1.81223e-06
1.72196e-05
-1.81223e-06
1.72196e-05
-1.81223e-06
1.72196e-05
-1.81223e-06
1.72196e-05
-1.81223e-06
1.72196e-05
-1.81223e-06
1.72196e-05
-1.81223e-06
1.72196e-05
-1.81223e-06
1.72196e-05
-1.81223e-06
1.72196e-05
-1.81223e-06
1.72196e-05
-1.81223e-06
1.72196e-05
-1.81223e-06
1.72196e-05
-1.81223e-06
1.72196e-05
-1.81223e-06
1.72196e-05
-1.81223e-06
1.72196e-05
-1.81223e-06
1.72196e-05
-1.81223e-06
1.72196e-05
-1.81223e-06
1.72196e-05
-1.81223e-06
1.72196e-05
-1.81223e-06
1.72196e-05
-1.81223e-06
1.72196e-05
-1.81223e-06
1.72196e-05
-1.81223e-06
1.72196e-05
-1.81223e-06
1.72196e-05
-1.81223e-06
1.72196e-05
-1.81223e-06
1.72196e-05
-1.81223e-06
1.72196e-05
-1.81223e-06
1.72196e-05
-1.81223e-06
1.72196e-05
-1.81223e-06
1.72196e-05
-1.81223e-06
1.72196e-05
-1.81223e-06
1.72196e-05
-1.81223e-06
1.72196e-05
-1.81223e-06
1.72196e-05
-1.81223e-06
1.72196e-05
-1.81223e-06
1.72196e-05
-1.81223e-06
1.72196e-05
-1.81223e-06
1.72196e-05
-1.81223e-06
1.72196e-05
-1.81223e-06
1.72196e-05
-1.81223e-06
1.72196e-05
-1.81223e-06
1.72196e-05
-1.81223e-06
1.72196e-05
-1.81223e-06
1.72196e-05
-1.81223e-06
1.72196e-05
-1.81223e-06
1.72196e-05
-1.81223e-06
1.72196e-05
-1.81223e-06
1.72196e-05
-1.81223e-06
1.72196e-05
-1.81223e-06
1.72196e-05
-1.81223e-06
1.72196e-05
-1.81223e-06
1.72196e-05
-1.81223e-06
1.72196e-05
-1.81223e-06
1.72196e-05
-1.81223e-06
1.72196e-05
-1.81223e-06
1.72196e-05
-1.81224e-06
1.72196e-05
-1.81223e-06
-1.8122e-06
2.32787e-05
1.9301e-05
2.18836e-05
7.8158e-06
2.07151e-05
1.94297e-06
1.98112e-05
1.03137e-07
1.91994e-05
-5.3395e-07
1.88316e-05
-1.00467e-06
1.85909e-05
-1.3001e-06
1.84401e-05
-1.48395e-06
1.83432e-05
-1.61823e-06
1.8287e-05
-1.71492e-06
1.82561e-05
-1.77698e-06
1.82479e-05
-1.82802e-06
1.82553e-05
-1.87005e-06
1.82747e-05
-1.90017e-06
1.83049e-05
-1.92692e-06
1.83438e-05
-1.94903e-06
1.83911e-05
-1.97076e-06
1.84435e-05
-1.98239e-06
1.85001e-05
-1.99388e-06
1.85628e-05
-2.01191e-06
1.86304e-05
-2.02524e-06
1.87019e-05
-2.03505e-06
1.87764e-05
-2.04327e-06
1.88529e-05
-2.04774e-06
1.89325e-05
-2.05607e-06
1.9011e-05
-2.05326e-06
1.90826e-05
-2.03285e-06
1.91456e-05
-2.00505e-06
1.92002e-05
-1.97811e-06
1.92471e-05
-1.95337e-06
1.92872e-05
-1.93185e-06
1.93211e-05
-1.91295e-06
1.93497e-05
-1.89693e-06
1.93739e-05
-1.88324e-06
1.93942e-05
-1.87179e-06
1.94113e-05
-1.86214e-06
1.94257e-05
-1.85413e-06
1.94378e-05
-1.84743e-06
1.9448e-05
-1.84187e-06
1.94567e-05
-1.83722e-06
1.9464e-05
-1.83337e-06
1.94701e-05
-1.83014e-06
1.94754e-05
-1.82758e-06
1.94799e-05
-1.8254e-06
1.94838e-05
-1.82338e-06
1.9487e-05
-1.82161e-06
1.94897e-05
-1.8201e-06
1.94921e-05
-1.81904e-06
1.94941e-05
-1.8181e-06
1.94958e-05
-1.81731e-06
1.94973e-05
-1.81663e-06
1.94986e-05
-1.81606e-06
1.94998e-05
-1.81553e-06
1.95007e-05
-1.81513e-06
1.95016e-05
-1.81473e-06
1.95023e-05
-1.8144e-06
1.9503e-05
-1.81412e-06
1.95035e-05
-1.81387e-06
1.9504e-05
-1.81365e-06
1.95044e-05
-1.81346e-06
1.95048e-05
-1.8133e-06
1.95051e-05
-1.81316e-06
1.95054e-05
-1.81303e-06
1.95056e-05
-1.81293e-06
1.95058e-05
-1.81283e-06
1.9506e-05
-1.81276e-06
1.95065e-05
-1.81305e-06
1.95066e-05
-1.81262e-06
1.95068e-05
-1.81257e-06
1.95069e-05
-1.81252e-06
1.95069e-05
-1.81248e-06
1.9507e-05
-1.81245e-06
1.95071e-05
-1.81242e-06
1.95071e-05
-1.81239e-06
1.95072e-05
-1.81237e-06
1.95072e-05
-1.81235e-06
1.95073e-05
-1.81233e-06
1.95073e-05
-1.81232e-06
1.95073e-05
-1.81231e-06
1.95073e-05
-1.8123e-06
1.95074e-05
-1.81229e-06
1.95074e-05
-1.81228e-06
1.95074e-05
-1.81227e-06
1.95074e-05
-1.81227e-06
1.95074e-05
-1.81226e-06
1.95074e-05
-1.81226e-06
1.95074e-05
-1.81226e-06
1.95074e-05
-1.81225e-06
1.95074e-05
-1.81225e-06
1.95074e-05
-1.81224e-06
1.95075e-05
-1.81224e-06
1.95075e-05
-1.81224e-06
1.95075e-05
-1.81224e-06
1.95075e-05
-1.81224e-06
1.95075e-05
-1.81224e-06
1.95075e-05
-1.81224e-06
1.95075e-05
-1.81224e-06
1.95075e-05
-1.81223e-06
1.95075e-05
-1.81223e-06
1.95075e-05
-1.81223e-06
1.95075e-05
-1.81223e-06
1.95075e-05
-1.81223e-06
1.95075e-05
-1.81223e-06
1.95075e-05
-1.81223e-06
1.95075e-05
-1.81223e-06
1.95075e-05
-1.81223e-06
1.95075e-05
-1.81223e-06
1.95075e-05
-1.81223e-06
1.95075e-05
-1.81223e-06
1.95075e-05
-1.81223e-06
1.95075e-05
-1.81223e-06
1.95075e-05
-1.81223e-06
1.95075e-05
-1.81223e-06
1.95075e-05
-1.81223e-06
1.95075e-05
-1.81223e-06
1.95075e-05
-1.81223e-06
1.95075e-05
-1.81223e-06
1.95075e-05
-1.81223e-06
1.95075e-05
-1.81223e-06
1.95075e-05
-1.81223e-06
1.95075e-05
-1.81223e-06
1.95075e-05
-1.81223e-06
1.95075e-05
-1.81223e-06
1.95075e-05
-1.81223e-06
1.95075e-05
-1.81223e-06
1.95075e-05
-1.81223e-06
1.95075e-05
-1.81223e-06
1.95075e-05
-1.81223e-06
1.95075e-05
-1.81223e-06
1.95075e-05
-1.81223e-06
1.95075e-05
-1.81223e-06
1.95075e-05
-1.81223e-06
1.95075e-05
-1.81223e-06
1.95075e-05
-1.81223e-06
1.95075e-05
-1.81223e-06
1.95075e-05
-1.81223e-06
1.95075e-05
-1.81223e-06
1.95075e-05
-1.81223e-06
1.95075e-05
-1.81223e-06
1.95075e-05
-1.81223e-06
1.95075e-05
-1.81223e-06
1.95075e-05
-1.81223e-06
1.95075e-05
-1.81223e-06
1.95075e-05
-1.81223e-06
1.95075e-05
-1.81223e-06
1.95075e-05
-1.81223e-06
1.95075e-05
-1.81223e-06
1.95075e-05
-1.81223e-06
1.95075e-05
-1.81223e-06
1.95075e-05
-1.81223e-06
1.95075e-05
-1.81223e-06
1.95075e-05
-1.81223e-06
1.95075e-05
-1.81223e-06
1.95075e-05
-1.81223e-06
1.95075e-05
-1.81223e-06
1.95075e-05
-1.81223e-06
1.95075e-05
-1.81223e-06
1.95075e-05
-1.81223e-06
1.95075e-05
-1.81223e-06
1.95075e-05
-1.81223e-06
1.95075e-05
-1.81223e-06
1.95075e-05
-1.81223e-06
1.95075e-05
-1.81223e-06
1.95075e-05
-1.81223e-06
1.95075e-05
-1.81223e-06
1.95075e-05
-1.81223e-06
1.95075e-05
-1.81223e-06
1.95075e-05
-1.81223e-06
1.95075e-05
-1.81223e-06
1.95075e-05
-1.81223e-06
1.95075e-05
-1.81223e-06
1.95075e-05
-1.81223e-06
1.95075e-05
-1.81223e-06
1.95075e-05
-1.81223e-06
1.95075e-05
-1.81223e-06
1.95075e-05
-1.81223e-06
1.95075e-05
-1.81223e-06
1.95075e-05
-1.81223e-06
1.95075e-05
-1.81223e-06
1.95075e-05
-1.81223e-06
1.95075e-05
-1.81223e-06
1.95075e-05
-1.81223e-06
1.95075e-05
-1.81223e-06
1.95075e-05
-1.81223e-06
1.95075e-05
-1.81223e-06
1.95075e-05
-1.81223e-06
1.95075e-05
-1.81223e-06
1.95075e-05
-1.81223e-06
1.95075e-05
-1.81223e-06
1.95075e-05
-1.81223e-06
1.95075e-05
-1.81223e-06
1.95075e-05
-1.81223e-06
1.95075e-05
-1.81223e-06
1.95075e-05
-1.81223e-06
1.95075e-05
-1.81223e-06
1.95075e-05
-1.81223e-06
1.95075e-05
-1.81223e-06
1.95075e-05
-1.81223e-06
1.95075e-05
-1.81223e-06
1.95075e-05
-1.81223e-06
1.95075e-05
-1.81223e-06
1.95075e-05
-1.81223e-06
1.95075e-05
-1.81223e-06
1.95075e-05
-1.81223e-06
1.95075e-05
-1.81223e-06
1.95075e-05
-1.81223e-06
1.95075e-05
-1.81223e-06
1.95075e-05
-1.81223e-06
1.95075e-05
-1.81223e-06
1.95075e-05
-1.81223e-06
1.95075e-05
-1.81223e-06
1.95075e-05
-1.81223e-06
1.95075e-05
-1.81223e-06
1.95075e-05
-1.81223e-06
1.95075e-05
-1.81223e-06
1.95075e-05
-1.81223e-06
1.95075e-05
-1.81223e-06
1.95075e-05
-1.81223e-06
1.95075e-05
-1.81223e-06
1.95075e-05
-1.81223e-06
1.95075e-05
-1.81223e-06
1.95075e-05
-1.81223e-06
1.95075e-05
-1.81223e-06
1.95075e-05
-1.81223e-06
1.95075e-05
-1.81223e-06
1.95075e-05
-1.81223e-06
1.95075e-05
-1.81223e-06
1.95075e-05
-1.81223e-06
1.95075e-05
-1.81223e-06
1.95075e-05
-1.81223e-06
1.95075e-05
-1.81223e-06
1.95075e-05
-1.81223e-06
1.95075e-05
-1.81223e-06
1.95075e-05
-1.81223e-06
1.95075e-05
-1.81223e-06
1.95075e-05
-1.81223e-06
1.95075e-05
-1.81223e-06
1.95075e-05
-1.81223e-06
1.95075e-05
-1.81223e-06
1.95075e-05
-1.81223e-06
1.95075e-05
-1.81223e-06
1.95075e-05
-1.81223e-06
1.95075e-05
-1.81223e-06
1.95075e-05
-1.81223e-06
1.95075e-05
-1.81223e-06
1.95075e-05
-1.81223e-06
1.95075e-05
-1.81223e-06
1.95075e-05
-1.81223e-06
1.95075e-05
-1.81223e-06
1.95075e-05
-1.81223e-06
1.95075e-05
-1.81223e-06
1.95075e-05
-1.81223e-06
1.95075e-05
-1.81223e-06
1.95075e-05
-1.81223e-06
1.95075e-05
-1.81223e-06
1.95075e-05
-1.81223e-06
1.95075e-05
-1.81223e-06
1.95075e-05
-1.81223e-06
1.95075e-05
-1.81223e-06
1.95075e-05
-1.81223e-06
1.95075e-05
-1.81223e-06
1.95075e-05
-1.81223e-06
1.95075e-05
-1.81223e-06
1.95075e-05
-1.81223e-06
1.95075e-05
-1.81223e-06
1.95075e-05
-1.81223e-06
1.95075e-05
-1.81223e-06
1.95075e-05
-1.81223e-06
1.95075e-05
-1.81223e-06
1.95075e-05
-1.81223e-06