/*--------------------------------*- C++ -*----------------------------------*\
| =========                 |                                                 |
| \\      /  F ield         | foam-extend: Open Source CFD                    |
|  \\    /   O peration     | Version:     3.2                                |
|   \\  /    A nd           | Web:         http://www.foam-extend.org         |
|    \\/     M anipulation  | For copyright notice see file Copyright         |
\*---------------------------------------------------------------------------*/
FoamFile
{
    version     2.0;
    format      ascii;
    class       surfaceScalarField;
    location    "91";
    object      AdSS2;
}
// * * * * * * * * * * * * * * * * * * * * * * * * * * * * * * * * * * * * * //

dimensions      [0 3 -1 0 0 0 0];

internalField   nonuniform List<scalar> 
10482
(
1.0035e-05
1.09755e-05
7.14129e-06
5.70838e-07
6.7944e-06
-1.97597e-06
6.73657e-06
-2.26503e-06
6.70467e-06
-2.29096e-06
6.65679e-06
-2.27498e-06
6.63617e-06
-2.30225e-06
6.61827e-06
-2.30496e-06
6.61388e-06
-2.31847e-06
6.61478e-06
-2.32376e-06
6.6216e-06
-2.32969e-06
6.63136e-06
-2.33262e-06
6.64602e-06
-2.33752e-06
6.66274e-06
-2.33959e-06
6.68191e-06
-2.34203e-06
6.70321e-06
-2.34417e-06
6.72663e-06
-2.34628e-06
6.75063e-06
-2.34686e-06
6.77614e-06
-2.34837e-06
6.80396e-06
-2.35068e-06
6.833e-06
-2.3519e-06
6.86296e-06
-2.35282e-06
6.89371e-06
-2.35362e-06
6.92471e-06
-2.35386e-06
6.95652e-06
-2.35468e-06
6.98777e-06
-2.3541e-06
7.01636e-06
-2.35145e-06
7.0408e-06
-2.34731e-06
7.06147e-06
-2.34353e-06
7.07868e-06
-2.34007e-06
7.09306e-06
-2.33725e-06
7.10498e-06
-2.33478e-06
7.11491e-06
-2.33279e-06
7.12313e-06
-2.33108e-06
7.12998e-06
-2.32971e-06
7.13566e-06
-2.32855e-06
7.14041e-06
-2.32761e-06
7.14438e-06
-2.32683e-06
7.14771e-06
-2.3262e-06
7.15051e-06
-2.32566e-06
7.15288e-06
-2.32523e-06
7.1549e-06
-2.32487e-06
7.15663e-06
-2.32459e-06
7.15811e-06
-2.32435e-06
7.15936e-06
-2.32411e-06
7.16044e-06
-2.32394e-06
7.16152e-06
-2.32395e-06
7.16232e-06
-2.32366e-06
7.16299e-06
-2.32353e-06
7.16357e-06
-2.32344e-06
7.16407e-06
-2.32337e-06
7.16452e-06
-2.3233e-06
7.1649e-06
-2.32325e-06
7.16524e-06
-2.3232e-06
7.16553e-06
-2.32316e-06
7.16578e-06
-2.32311e-06
7.16601e-06
-2.32308e-06
7.1662e-06
-2.32305e-06
7.16636e-06
-2.32303e-06
7.16651e-06
-2.32301e-06
7.16663e-06
-2.32299e-06
7.16674e-06
-2.32297e-06
7.16684e-06
-2.32296e-06
7.16692e-06
-2.32294e-06
7.16699e-06
-2.32293e-06
7.16705e-06
-2.32292e-06
7.16711e-06
-2.32292e-06
7.16715e-06
-2.32291e-06
7.16719e-06
-2.3229e-06
7.16722e-06
-2.3229e-06
7.16725e-06
-2.32289e-06
7.16728e-06
-2.32289e-06
7.1673e-06
-2.32288e-06
7.16732e-06
-2.32288e-06
7.16734e-06
-2.32288e-06
7.16735e-06
-2.32288e-06
7.16736e-06
-2.32287e-06
7.16738e-06
-2.32287e-06
7.16738e-06
-2.32287e-06
7.16739e-06
-2.32287e-06
7.1674e-06
-2.32287e-06
7.1674e-06
-2.32287e-06
7.16741e-06
-2.32287e-06
7.16741e-06
-2.32287e-06
7.16742e-06
-2.32287e-06
7.16742e-06
-2.32286e-06
7.16742e-06
-2.32287e-06
7.16743e-06
-2.32286e-06
7.16743e-06
-2.32286e-06
7.16743e-06
-2.32286e-06
7.16743e-06
-2.32286e-06
7.16743e-06
-2.32286e-06
7.16743e-06
-2.32286e-06
7.16743e-06
-2.32286e-06
7.16744e-06
-2.32286e-06
7.16744e-06
-2.32286e-06
7.16744e-06
-2.32286e-06
7.16744e-06
-2.32286e-06
7.16744e-06
-2.32286e-06
7.16744e-06
-2.32286e-06
7.16744e-06
-2.32286e-06
7.16744e-06
-2.32286e-06
7.16744e-06
-2.32286e-06
7.16744e-06
-2.32286e-06
7.16744e-06
-2.32286e-06
7.16744e-06
-2.32286e-06
7.16744e-06
-2.32286e-06
7.16744e-06
-2.32286e-06
7.16744e-06
-2.32286e-06
7.16744e-06
-2.32286e-06
7.16744e-06
-2.32286e-06
7.16744e-06
-2.32286e-06
7.16744e-06
-2.32286e-06
7.16744e-06
-2.32286e-06
7.16744e-06
-2.32286e-06
7.16744e-06
-2.32286e-06
7.16744e-06
-2.32286e-06
7.16744e-06
-2.32286e-06
7.16744e-06
-2.32286e-06
7.16744e-06
-2.32286e-06
7.16744e-06
-2.32286e-06
7.16744e-06
-2.32286e-06
7.16744e-06
-2.32286e-06
7.16744e-06
-2.32286e-06
7.16744e-06
-2.32286e-06
7.16744e-06
-2.32286e-06
7.16744e-06
-2.32286e-06
7.16744e-06
-2.32286e-06
7.16744e-06
-2.32286e-06
7.16744e-06
-2.32286e-06
7.16744e-06
-2.32286e-06
7.16744e-06
-2.32286e-06
7.16744e-06
-2.32286e-06
7.16744e-06
-2.32286e-06
7.16744e-06
-2.32286e-06
7.16744e-06
-2.32286e-06
7.16744e-06
-2.32286e-06
7.16744e-06
-2.32286e-06
7.16744e-06
-2.32286e-06
7.16744e-06
-2.32286e-06
7.16744e-06
-2.32286e-06
7.16744e-06
-2.32286e-06
7.16744e-06
-2.32286e-06
7.16744e-06
-2.32286e-06
7.16744e-06
-2.32286e-06
7.16744e-06
-2.32286e-06
7.16744e-06
-2.32286e-06
7.16744e-06
-2.32286e-06
7.16744e-06
-2.32286e-06
7.16744e-06
-2.32286e-06
7.16744e-06
-2.32286e-06
7.16744e-06
-2.32286e-06
7.16744e-06
-2.32286e-06
7.16744e-06
-2.32286e-06
7.16744e-06
-2.32286e-06
7.16744e-06
-2.32286e-06
7.16744e-06
-2.32286e-06
7.16744e-06
-2.32286e-06
7.16744e-06
-2.32286e-06
7.16744e-06
-2.32286e-06
7.16744e-06
-2.32286e-06
7.16744e-06
-2.32286e-06
7.16744e-06
-2.32286e-06
7.16744e-06
-2.32286e-06
7.16744e-06
-2.32286e-06
7.16744e-06
-2.32286e-06
7.16744e-06
-2.32286e-06
7.16744e-06
-2.32286e-06
7.16744e-06
-2.32286e-06
7.16744e-06
-2.32286e-06
7.16744e-06
-2.32286e-06
7.16744e-06
-2.32286e-06
7.16744e-06
-2.32286e-06
7.16744e-06
-2.32286e-06
7.16744e-06
-2.32286e-06
7.16744e-06
-2.32286e-06
7.16744e-06
-2.32286e-06
7.16744e-06
-2.32286e-06
7.16744e-06
-2.32286e-06
7.16744e-06
-2.32286e-06
7.16744e-06
-2.32286e-06
7.16744e-06
-2.32286e-06
7.16744e-06
-2.32286e-06
7.16744e-06
-2.32286e-06
7.16744e-06
-2.32286e-06
7.16744e-06
-2.32286e-06
7.16744e-06
-2.32286e-06
7.16744e-06
-2.32286e-06
7.16744e-06
-2.32286e-06
7.16744e-06
-2.32286e-06
7.16744e-06
-2.32286e-06
7.16744e-06
-2.32286e-06
7.16744e-06
-2.32286e-06
7.16744e-06
-2.32286e-06
7.16744e-06
-2.32286e-06
7.16744e-06
-2.32286e-06
7.16744e-06
-2.32286e-06
7.16744e-06
-2.32286e-06
7.16744e-06
-2.32286e-06
7.16744e-06
-2.32286e-06
7.16744e-06
-2.32286e-06
7.16744e-06
-2.32286e-06
7.16744e-06
-2.32286e-06
7.16744e-06
-2.32286e-06
7.16744e-06
-2.32286e-06
7.16744e-06
-2.32286e-06
7.16744e-06
-2.32286e-06
7.16744e-06
-2.32286e-06
7.16744e-06
-2.32286e-06
7.16744e-06
-2.32286e-06
7.16744e-06
-2.32286e-06
7.16744e-06
-2.32286e-06
7.16744e-06
-2.32286e-06
7.16744e-06
-2.32286e-06
7.16744e-06
-2.32286e-06
7.16744e-06
-2.32286e-06
7.16744e-06
-2.32286e-06
7.16744e-06
-2.32286e-06
7.16744e-06
-2.32286e-06
7.16744e-06
-2.32286e-06
7.16744e-06
-2.32286e-06
7.16744e-06
-2.32286e-06
7.16744e-06
-2.32286e-06
7.16744e-06
-2.32286e-06
7.16744e-06
-2.32286e-06
7.16744e-06
-2.32286e-06
7.16744e-06
-2.32286e-06
7.16744e-06
-2.32286e-06
7.16744e-06
-2.32286e-06
7.16744e-06
-2.32286e-06
7.16744e-06
-2.32286e-06
7.16744e-06
-2.32286e-06
7.16744e-06
-2.32286e-06
7.16744e-06
-2.32286e-06
7.16744e-06
-2.32286e-06
7.16744e-06
-2.32286e-06
7.16744e-06
-2.32286e-06
7.16744e-06
-2.32286e-06
7.16744e-06
-2.32286e-06
7.16744e-06
-2.32286e-06
7.16744e-06
-2.32286e-06
7.16744e-06
-2.32286e-06
7.16744e-06
-2.32286e-06
7.16744e-06
-2.32286e-06
7.16744e-06
-2.32286e-06
7.16744e-06
-2.32286e-06
7.16744e-06
-2.32286e-06
7.16744e-06
-2.32286e-06
7.16744e-06
-2.32286e-06
7.16744e-06
-2.32286e-06
7.16744e-06
-2.32286e-06
7.16744e-06
-2.32286e-06
7.16744e-06
-2.32286e-06
7.16744e-06
-2.32286e-06
7.16744e-06
-2.32286e-06
7.16744e-06
-2.32286e-06
7.16744e-06
-2.32286e-06
7.16744e-06
-2.32286e-06
7.16744e-06
-2.32286e-06
7.16744e-06
-2.32286e-06
7.16744e-06
-2.32286e-06
7.16744e-06
-2.32286e-06
7.16744e-06
-2.32286e-06
7.16744e-06
-2.32286e-06
7.16744e-06
-2.32286e-06
7.16744e-06
-2.32286e-06
7.16744e-06
-2.32286e-06
7.16744e-06
-2.32286e-06
7.16744e-06
-2.32286e-06
7.16744e-06
-2.32286e-06
7.16744e-06
-2.32286e-06
7.16744e-06
-2.32286e-06
7.16744e-06
-2.32286e-06
7.16744e-06
-2.32286e-06
7.16744e-06
-2.32286e-06
7.16744e-06
-2.32286e-06
7.16744e-06
-2.32286e-06
7.16744e-06
-2.32286e-06
7.16744e-06
-2.32286e-06
7.16744e-06
-2.32286e-06
7.16744e-06
-2.32286e-06
7.16744e-06
-2.32286e-06
7.16744e-06
-2.32286e-06
7.16744e-06
-2.32286e-06
7.16744e-06
-2.32286e-06
7.16744e-06
-2.32286e-06
7.16744e-06
-2.32286e-06
7.16744e-06
-2.32286e-06
7.16744e-06
-2.32286e-06
7.16744e-06
-2.32286e-06
7.16744e-06
-2.32286e-06
7.16744e-06
-2.32286e-06
7.16744e-06
-2.32286e-06
7.16744e-06
-2.32286e-06
7.16744e-06
-2.32286e-06
7.16744e-06
-2.32286e-06
7.16744e-06
-2.32286e-06
7.16744e-06
-2.32287e-06
7.16744e-06
-2.32286e-06
-2.32284e-06
1.75636e-05
1.67452e-05
1.46222e-05
3.51222e-06
1.36459e-05
-9.99653e-07
1.33197e-05
-1.93886e-06
1.31014e-05
-2.07267e-06
1.2955e-05
-2.12855e-06
1.2864e-05
-2.21124e-06
1.28059e-05
-2.2469e-06
1.27747e-05
-2.2873e-06
1.27635e-05
-2.3125e-06
1.27642e-05
-2.33045e-06
1.27748e-05
-2.34317e-06
1.27947e-05
-2.35743e-06
1.28208e-05
-2.36575e-06
1.28525e-05
-2.37365e-06
1.28888e-05
-2.3805e-06
1.29298e-05
-2.3873e-06
1.2973e-05
-2.39007e-06
1.30188e-05
-2.39412e-06
1.30688e-05
-2.40074e-06
1.31219e-05
-2.40494e-06
1.31771e-05
-2.40801e-06
1.32341e-05
-2.41062e-06
1.32919e-05
-2.41167e-06
1.33516e-05
-2.4144e-06
1.34108e-05
-2.41329e-06
1.34651e-05
-2.40577e-06
1.35124e-05
-2.39461e-06
1.35529e-05
-2.38403e-06
1.35872e-05
-2.37436e-06
1.36161e-05
-2.36618e-06
1.36404e-05
-2.35906e-06
1.36607e-05
-2.35313e-06
1.36777e-05
-2.34808e-06
1.3692e-05
-2.34393e-06
1.37039e-05
-2.34044e-06
1.37138e-05
-2.33758e-06
1.37222e-05
-2.33519e-06
1.37292e-05
-2.33323e-06
1.37352e-05
-2.3316e-06
1.37402e-05
-2.33025e-06
1.37444e-05
-2.32912e-06
1.37481e-05
-2.32824e-06
1.37512e-05
-2.32748e-06
1.37539e-05
-2.32676e-06
1.37561e-05
-2.32616e-06
1.37577e-05
-2.32559e-06
1.37593e-05
-2.32527e-06
1.37607e-05
-2.32493e-06
1.37619e-05
-2.32465e-06
1.3763e-05
-2.32442e-06
1.37639e-05
-2.32422e-06
1.37647e-05
-2.32403e-06
1.37651e-05
-2.32361e-06
1.37657e-05
-2.32375e-06
1.37662e-05
-2.32363e-06
1.37667e-05
-2.32354e-06
1.37671e-05
-2.32345e-06
1.37674e-05
-2.32337e-06
1.37677e-05
-2.3233e-06
1.3768e-05
-2.32325e-06
1.37682e-05
-2.32319e-06
1.37684e-05
-2.32315e-06
1.37685e-05
-2.32311e-06
1.37687e-05
-2.32308e-06
1.37688e-05
-2.32305e-06
1.37689e-05
-2.32303e-06
1.3769e-05
-2.323e-06
1.37691e-05
-2.32298e-06
1.37692e-05
-2.32297e-06
1.37692e-05
-2.32295e-06
1.37693e-05
-2.32294e-06
1.37693e-05
-2.32293e-06
1.37694e-05
-2.32292e-06
1.37694e-05
-2.32291e-06
1.37694e-05
-2.32291e-06
1.37695e-05
-2.3229e-06
1.37695e-05
-2.32289e-06
1.37695e-05
-2.32289e-06
1.37695e-05
-2.32289e-06
1.37695e-05
-2.32288e-06
1.37695e-05
-2.32288e-06
1.37696e-05
-2.32288e-06
1.37696e-05
-2.32287e-06
1.37696e-05
-2.32287e-06
1.37696e-05
-2.32287e-06
1.37696e-05
-2.32287e-06
1.37696e-05
-2.32287e-06
1.37696e-05
-2.32287e-06
1.37696e-05
-2.32287e-06
1.37696e-05
-2.32287e-06
1.37696e-05
-2.32287e-06
1.37696e-05
-2.32287e-06
1.37696e-05
-2.32286e-06
1.37696e-05
-2.32286e-06
1.37696e-05
-2.32286e-06
1.37696e-05
-2.32286e-06
1.37696e-05
-2.32286e-06
1.37696e-05
-2.32286e-06
1.37696e-05
-2.32286e-06
1.37696e-05
-2.32286e-06
1.37696e-05
-2.32286e-06
1.37696e-05
-2.32286e-06
1.37696e-05
-2.32286e-06
1.37696e-05
-2.32286e-06
1.37696e-05
-2.32286e-06
1.37696e-05
-2.32286e-06
1.37696e-05
-2.32286e-06
1.37696e-05
-2.32286e-06
1.37696e-05
-2.32286e-06
1.37696e-05
-2.32286e-06
1.37696e-05
-2.32286e-06
1.37696e-05
-2.32286e-06
1.37696e-05
-2.32286e-06
1.37696e-05
-2.32286e-06
1.37696e-05
-2.32286e-06
1.37696e-05
-2.32286e-06
1.37696e-05
-2.32286e-06
1.37696e-05
-2.32286e-06
1.37696e-05
-2.32286e-06
1.37696e-05
-2.32286e-06
1.37696e-05
-2.32286e-06
1.37696e-05
-2.32286e-06
1.37696e-05
-2.32286e-06
1.37696e-05
-2.32286e-06
1.37696e-05
-2.32286e-06
1.37696e-05
-2.32286e-06
1.37696e-05
-2.32286e-06
1.37696e-05
-2.32286e-06
1.37696e-05
-2.32286e-06
1.37696e-05
-2.32286e-06
1.37696e-05
-2.32286e-06
1.37696e-05
-2.32286e-06
1.37696e-05
-2.32286e-06
1.37696e-05
-2.32286e-06
1.37696e-05
-2.32286e-06
1.37696e-05
-2.32286e-06
1.37696e-05
-2.32286e-06
1.37696e-05
-2.32286e-06
1.37696e-05
-2.32286e-06
1.37696e-05
-2.32286e-06
1.37696e-05
-2.32286e-06
1.37696e-05
-2.32286e-06
1.37696e-05
-2.32286e-06
1.37696e-05
-2.32286e-06
1.37696e-05
-2.32286e-06
1.37696e-05
-2.32286e-06
1.37696e-05
-2.32286e-06
1.37696e-05
-2.32286e-06
1.37696e-05
-2.32286e-06
1.37696e-05
-2.32286e-06
1.37696e-05
-2.32286e-06
1.37696e-05
-2.32286e-06
1.37696e-05
-2.32286e-06
1.37696e-05
-2.32286e-06
1.37696e-05
-2.32286e-06
1.37696e-05
-2.32286e-06
1.37696e-05
-2.32286e-06
1.37696e-05
-2.32286e-06
1.37696e-05
-2.32286e-06
1.37696e-05
-2.32286e-06
1.37696e-05
-2.32286e-06
1.37696e-05
-2.32286e-06
1.37696e-05
-2.32286e-06
1.37696e-05
-2.32286e-06
1.37696e-05
-2.32286e-06
1.37696e-05
-2.32286e-06
1.37696e-05
-2.32286e-06
1.37696e-05
-2.32286e-06
1.37696e-05
-2.32286e-06
1.37696e-05
-2.32286e-06
1.37696e-05
-2.32286e-06
1.37696e-05
-2.32286e-06
1.37696e-05
-2.32286e-06
1.37696e-05
-2.32286e-06
1.37696e-05
-2.32286e-06
1.37696e-05
-2.32286e-06
1.37696e-05
-2.32286e-06
1.37696e-05
-2.32286e-06
1.37696e-05
-2.32286e-06
1.37696e-05
-2.32286e-06
1.37696e-05
-2.32286e-06
1.37696e-05
-2.32286e-06
1.37696e-05
-2.32286e-06
1.37696e-05
-2.32286e-06
1.37696e-05
-2.32286e-06
1.37696e-05
-2.32286e-06
1.37696e-05
-2.32286e-06
1.37696e-05
-2.32286e-06
1.37696e-05
-2.32286e-06
1.37696e-05
-2.32286e-06
1.37696e-05
-2.32286e-06
1.37696e-05
-2.32286e-06
1.37696e-05
-2.32286e-06
1.37696e-05
-2.32286e-06
1.37696e-05
-2.32286e-06
1.37696e-05
-2.32286e-06
1.37696e-05
-2.32286e-06
1.37696e-05
-2.32286e-06
1.37696e-05
-2.32286e-06
1.37696e-05
-2.32286e-06
1.37696e-05
-2.32286e-06
1.37696e-05
-2.32286e-06
1.37696e-05
-2.32286e-06
1.37696e-05
-2.32286e-06
1.37696e-05
-2.32286e-06
1.37696e-05
-2.32286e-06
1.37696e-05
-2.32286e-06
1.37696e-05
-2.32286e-06
1.37696e-05
-2.32286e-06
1.37696e-05
-2.32286e-06
1.37696e-05
-2.32286e-06
1.37696e-05
-2.32286e-06
1.37696e-05
-2.32286e-06
1.37696e-05
-2.32286e-06
1.37696e-05
-2.32286e-06
1.37696e-05
-2.32286e-06
1.37696e-05
-2.32286e-06
1.37696e-05
-2.32286e-06
1.37696e-05
-2.32286e-06
1.37696e-05
-2.32286e-06
1.37696e-05
-2.32286e-06
1.37696e-05
-2.32286e-06
1.37696e-05
-2.32286e-06
1.37696e-05
-2.32286e-06
1.37696e-05
-2.32286e-06
1.37696e-05
-2.32286e-06
1.37696e-05
-2.32286e-06
1.37696e-05
-2.32286e-06
1.37696e-05
-2.32286e-06
1.37696e-05
-2.32286e-06
1.37696e-05
-2.32286e-06
1.37696e-05
-2.32286e-06
1.37696e-05
-2.32286e-06
1.37696e-05
-2.32286e-06
1.37696e-05
-2.32286e-06
1.37696e-05
-2.32286e-06
1.37696e-05
-2.32286e-06
1.37696e-05
-2.32286e-06
1.37696e-05
-2.32286e-06
1.37696e-05
-2.32286e-06
1.37696e-05
-2.32286e-06
1.37696e-05
-2.32286e-06
1.37696e-05
-2.32286e-06
1.37696e-05
-2.32286e-06
1.37696e-05
-2.32286e-06
1.37696e-05
-2.32286e-06
1.37696e-05
-2.32286e-06
1.37696e-05
-2.32286e-06
1.37696e-05
-2.32286e-06
1.37696e-05
-2.32286e-06
1.37696e-05
-2.32286e-06
1.37696e-05
-2.32286e-06
1.37696e-05
-2.32286e-06
1.37696e-05
-2.32286e-06
1.37696e-05
-2.32286e-06
1.37696e-05
-2.32286e-06
1.37696e-05
-2.32286e-06
1.37696e-05
-2.32286e-06
1.37696e-05
-2.32286e-06
1.37696e-05
-2.32286e-06
1.37696e-05
-2.32286e-06
1.37696e-05
-2.32286e-06
1.37696e-05
-2.32286e-06
1.37696e-05
-2.32286e-06
1.37696e-05
-2.32286e-06
1.37696e-05
-2.32286e-06
1.37696e-05
-2.32286e-06
1.37696e-05
-2.32286e-06
1.37696e-05
-2.32286e-06
1.37696e-05
-2.32286e-06
1.37696e-05
-2.32286e-06
1.37696e-05
-2.32286e-06
1.37696e-05
-2.32286e-06
1.37696e-05
-2.32286e-06
1.37696e-05
-2.32286e-06
1.37696e-05
-2.32286e-06
1.37696e-05
-2.32286e-06
1.37696e-05
-2.32286e-06
1.37696e-05
-2.32286e-06
1.37696e-05
-2.32286e-06
1.37696e-05
-2.32286e-06
1.37696e-05
-2.32286e-06
1.37696e-05
-2.32286e-06
1.37696e-05
-2.32286e-06
1.37696e-05
-2.32286e-06
1.37696e-05
-2.32286e-06
1.37696e-05
-2.32286e-06
1.37696e-05
-2.32286e-06
1.37696e-05
-2.32286e-06
1.37696e-05
-2.32286e-06
1.37696e-05
-2.32286e-06
1.37696e-05
-2.32286e-06
1.37696e-05
-2.32286e-06
1.37696e-05
-2.32286e-06
1.37696e-05
-2.32286e-06
1.37696e-05
-2.32286e-06
1.37696e-05
-2.32287e-06
1.37696e-05
-2.32286e-06
-2.32283e-06
2.13429e-05
1.87357e-05
1.89451e-05
5.91007e-06
1.76816e-05
2.63794e-07
1.70541e-05
-1.31138e-06
1.66379e-05
-1.65638e-06
1.63924e-05
-1.88312e-06
1.62326e-05
-2.05141e-06
1.61311e-05
-2.1454e-06
1.60695e-05
-2.2257e-06
1.60388e-05
-2.28177e-06
1.60268e-05
-2.3185e-06
1.60306e-05
-2.3469e-06
1.60464e-05
-2.37327e-06
1.60721e-05
-2.39142e-06
1.61057e-05
-2.4073e-06
1.6146e-05
-2.42077e-06
1.61928e-05
-2.43413e-06
1.62433e-05
-2.4406e-06
1.62972e-05
-2.44793e-06
1.63563e-05
-2.45987e-06
1.64195e-05
-2.46819e-06
1.64858e-05
-2.47426e-06
1.65545e-05
-2.47938e-06
1.66247e-05
-2.48181e-06
1.66974e-05
-2.48711e-06
1.67695e-05
-2.4854e-06
1.68357e-05
-2.47193e-06
1.68937e-05
-2.45267e-06
1.69438e-05
-2.43411e-06
1.69866e-05
-2.4171e-06
1.70228e-05
-2.40245e-06
1.70534e-05
-2.38967e-06
1.70792e-05
-2.3789e-06
1.71008e-05
-2.36972e-06
1.7119e-05
-2.36209e-06
1.71342e-05
-2.35567e-06
1.7147e-05
-2.35037e-06
1.71578e-05
-2.34594e-06
1.71668e-05
-2.34229e-06
1.71745e-05
-2.33923e-06
1.71809e-05
-2.33671e-06
1.71864e-05
-2.3346e-06
1.71911e-05
-2.33293e-06
1.71951e-05
-2.3315e-06
1.71985e-05
-2.33017e-06
1.72014e-05
-2.32902e-06
1.72038e-05
-2.328e-06
1.72059e-05
-2.32734e-06
1.72076e-05
-2.32672e-06
1.72092e-05
-2.3262e-06
1.72105e-05
-2.32576e-06
1.72117e-05
-2.32539e-06
1.72127e-05
-2.32504e-06
1.72139e-05
-2.32478e-06
1.72146e-05
-2.32451e-06
1.72153e-05
-2.32429e-06
1.72159e-05
-2.32411e-06
1.72164e-05
-2.32395e-06
1.72168e-05
-2.3238e-06
1.72172e-05
-2.32368e-06
1.72175e-05
-2.32357e-06
1.72178e-05
-2.32348e-06
1.7218e-05
-2.32339e-06
1.72183e-05
-2.32332e-06
1.72184e-05
-2.32326e-06
1.72186e-05
-2.32321e-06
1.72187e-05
-2.32317e-06
1.72189e-05
-2.32312e-06
1.7219e-05
-2.32309e-06
1.7219e-05
-2.32306e-06
1.72191e-05
-2.32303e-06
1.72192e-05
-2.32301e-06
1.72192e-05
-2.32299e-06
1.72193e-05
-2.32297e-06
1.72193e-05
-2.32296e-06
1.72194e-05
-2.32294e-06
1.72194e-05
-2.32293e-06
1.72194e-05
-2.32292e-06
1.72195e-05
-2.32291e-06
1.72195e-05
-2.32291e-06
1.72195e-05
-2.3229e-06
1.72195e-05
-2.32289e-06
1.72195e-05
-2.32289e-06
1.72195e-05
-2.32289e-06
1.72195e-05
-2.32288e-06
1.72196e-05
-2.32288e-06
1.72196e-05
-2.32288e-06
1.72196e-05
-2.32287e-06
1.72196e-05
-2.32287e-06
1.72196e-05
-2.32287e-06
1.72196e-05
-2.32287e-06
1.72196e-05
-2.32287e-06
1.72196e-05
-2.32287e-06
1.72196e-05
-2.32287e-06
1.72196e-05
-2.32287e-06
1.72196e-05
-2.32287e-06
1.72196e-05
-2.32287e-06
1.72196e-05
-2.32286e-06
1.72196e-05
-2.32286e-06
1.72196e-05
-2.32286e-06
1.72196e-05
-2.32286e-06
1.72196e-05
-2.32286e-06
1.72196e-05
-2.32286e-06
1.72196e-05
-2.32286e-06
1.72196e-05
-2.32286e-06
1.72196e-05
-2.32286e-06
1.72196e-05
-2.32286e-06
1.72196e-05
-2.32286e-06
1.72196e-05
-2.32286e-06
1.72196e-05
-2.32286e-06
1.72196e-05
-2.32286e-06
1.72196e-05
-2.32286e-06
1.72196e-05
-2.32286e-06
1.72196e-05
-2.32286e-06
1.72196e-05
-2.32286e-06
1.72196e-05
-2.32286e-06
1.72196e-05
-2.32286e-06
1.72196e-05
-2.32286e-06
1.72196e-05
-2.32286e-06
1.72196e-05
-2.32286e-06
1.72196e-05
-2.32286e-06
1.72196e-05
-2.32286e-06
1.72196e-05
-2.32286e-06
1.72196e-05
-2.32286e-06
1.72196e-05
-2.32286e-06
1.72196e-05
-2.32286e-06
1.72196e-05
-2.32286e-06
1.72196e-05
-2.32286e-06
1.72196e-05
-2.32286e-06
1.72196e-05
-2.32286e-06
1.72196e-05
-2.32286e-06
1.72196e-05
-2.32286e-06
1.72196e-05
-2.32286e-06
1.72196e-05
-2.32286e-06
1.72196e-05
-2.32286e-06
1.72196e-05
-2.32286e-06
1.72196e-05
-2.32286e-06
1.72196e-05
-2.32286e-06
1.72196e-05
-2.32286e-06
1.72196e-05
-2.32286e-06
1.72196e-05
-2.32286e-06
1.72196e-05
-2.32286e-06
1.72196e-05
-2.32286e-06
1.72196e-05
-2.32286e-06
1.72196e-05
-2.32286e-06
1.72196e-05
-2.32286e-06
1.72196e-05
-2.32286e-06
1.72196e-05
-2.32286e-06
1.72196e-05
-2.32286e-06
1.72196e-05
-2.32286e-06
1.72196e-05
-2.32286e-06
1.72196e-05
-2.32286e-06
1.72196e-05
-2.32286e-06
1.72196e-05
-2.32286e-06
1.72196e-05
-2.32286e-06
1.72196e-05
-2.32286e-06
1.72196e-05
-2.32286e-06
1.72196e-05
-2.32286e-06
1.72196e-05
-2.32286e-06
1.72196e-05
-2.32286e-06
1.72196e-05
-2.32286e-06
1.72196e-05
-2.32286e-06
1.72196e-05
-2.32286e-06
1.72196e-05
-2.32286e-06
1.72196e-05
-2.32286e-06
1.72196e-05
-2.32286e-06
1.72196e-05
-2.32286e-06
1.72196e-05
-2.32286e-06
1.72196e-05
-2.32286e-06
1.72196e-05
-2.32286e-06
1.72196e-05
-2.32286e-06
1.72196e-05
-2.32286e-06
1.72196e-05
-2.32286e-06
1.72196e-05
-2.32286e-06
1.72196e-05
-2.32286e-06
1.72196e-05
-2.32286e-06
1.72196e-05
-2.32286e-06
1.72196e-05
-2.32286e-06
1.72196e-05
-2.32286e-06
1.72196e-05
-2.32286e-06
1.72196e-05
-2.32286e-06
1.72196e-05
-2.32286e-06
1.72196e-05
-2.32286e-06
1.72196e-05
-2.32286e-06
1.72196e-05
-2.32286e-06
1.72196e-05
-2.32286e-06
1.72196e-05
-2.32286e-06
1.72196e-05
-2.32286e-06
1.72196e-05
-2.32286e-06
1.72196e-05
-2.32286e-06
1.72196e-05
-2.32286e-06
1.72196e-05
-2.32286e-06
1.72196e-05
-2.32286e-06
1.72196e-05
-2.32286e-06
1.72196e-05
-2.32286e-06
1.72196e-05
-2.32286e-06
1.72196e-05
-2.32286e-06
1.72196e-05
-2.32286e-06
1.72196e-05
-2.32286e-06
1.72196e-05
-2.32286e-06
1.72196e-05
-2.32286e-06
1.72196e-05
-2.32286e-06
1.72196e-05
-2.32286e-06
1.72196e-05
-2.32286e-06
1.72196e-05
-2.32286e-06
1.72196e-05
-2.32286e-06
1.72196e-05
-2.32286e-06
1.72196e-05
-2.32286e-06
1.72196e-05
-2.32286e-06
1.72196e-05
-2.32286e-06
1.72196e-05
-2.32286e-06
1.72196e-05
-2.32286e-06
1.72196e-05
-2.32286e-06
1.72196e-05
-2.32286e-06
1.72196e-05
-2.32286e-06
1.72196e-05
-2.32286e-06
1.72196e-05
-2.32286e-06
1.72196e-05
-2.32286e-06
1.72196e-05
-2.32286e-06
1.72196e-05
-2.32286e-06
1.72196e-05
-2.32286e-06
1.72196e-05
-2.32286e-06
1.72196e-05
-2.32286e-06
1.72196e-05
-2.32286e-06
1.72196e-05
-2.32286e-06
1.72196e-05
-2.32286e-06
1.72196e-05
-2.32286e-06
1.72196e-05
-2.32286e-06
1.72196e-05
-2.32286e-06
1.72196e-05
-2.32286e-06
1.72196e-05
-2.32286e-06
1.72196e-05
-2.32286e-06
1.72196e-05
-2.32286e-06
1.72196e-05
-2.32286e-06
1.72196e-05
-2.32286e-06
1.72196e-05
-2.32286e-06
1.72196e-05
-2.32286e-06
1.72196e-05
-2.32286e-06
1.72196e-05
-2.32286e-06
1.72196e-05
-2.32286e-06
1.72196e-05
-2.32286e-06
1.72196e-05
-2.32286e-06
1.72196e-05
-2.32286e-06
1.72196e-05
-2.32286e-06
1.72196e-05
-2.32286e-06
1.72196e-05
-2.32286e-06
1.72196e-05
-2.32286e-06
1.72196e-05
-2.32286e-06
1.72196e-05
-2.32286e-06
1.72196e-05
-2.32286e-06
1.72196e-05
-2.32286e-06
1.72196e-05
-2.32286e-06
1.72196e-05
-2.32286e-06
1.72196e-05
-2.32286e-06
1.72196e-05
-2.32286e-06
1.72196e-05
-2.32286e-06
1.72196e-05
-2.32286e-06
1.72196e-05
-2.32286e-06
1.72196e-05
-2.32286e-06
1.72196e-05
-2.32286e-06
1.72196e-05
-2.32286e-06
1.72196e-05
-2.32286e-06
1.72196e-05
-2.32286e-06
1.72196e-05
-2.32286e-06
1.72196e-05
-2.32286e-06
1.72196e-05
-2.32286e-06
1.72196e-05
-2.32286e-06
1.72196e-05
-2.32286e-06
1.72196e-05
-2.32286e-06
1.72196e-05
-2.32286e-06
1.72196e-05
-2.32286e-06
1.72196e-05
-2.32286e-06
1.72196e-05
-2.32286e-06
1.72196e-05
-2.32286e-06
1.72196e-05
-2.32286e-06
1.72196e-05
-2.32286e-06
1.72196e-05
-2.32286e-06
1.72196e-05
-2.32286e-06
1.72196e-05
-2.32286e-06
1.72196e-05
-2.32286e-06
1.72196e-05
-2.32286e-06
1.72196e-05
-2.32286e-06
1.72196e-05
-2.32286e-06
1.72196e-05
-2.32286e-06
1.72196e-05
-2.32286e-06
1.72196e-05
-2.32286e-06
1.72196e-05
-2.32286e-06
1.72196e-05
-2.32286e-06
1.72196e-05
-2.32286e-06
1.72196e-05
-2.32286e-06
1.72196e-05
-2.32286e-06
1.72196e-05
-2.32286e-06
1.72196e-05
-2.32286e-06
1.72196e-05
-2.32286e-06
1.72196e-05
-2.32286e-06
1.72196e-05
-2.32286e-06
1.72196e-05
-2.32286e-06
1.72196e-05
-2.32287e-06
1.72196e-05
-2.32286e-06
-2.32284e-06
2.32787e-05
1.87904e-05
2.18836e-05
7.30516e-06
2.07151e-05
1.43234e-06
1.98112e-05
-4.07494e-07
1.91994e-05
-1.04458e-06
1.88316e-05
-1.5153e-06
1.85909e-05
-1.81073e-06
1.84401e-05
-1.99458e-06
1.83432e-05
-2.12887e-06
1.8287e-05
-2.22555e-06
1.82561e-05
-2.28762e-06
1.82479e-05
-2.33865e-06
1.82553e-05
-2.38068e-06
1.82747e-05
-2.4108e-06
1.83049e-05
-2.43755e-06
1.83438e-05
-2.45966e-06
1.83911e-05
-2.48139e-06
1.84435e-05
-2.49303e-06
1.85001e-05
-2.50451e-06
1.85628e-05
-2.52254e-06
1.86304e-05
-2.53588e-06
1.87019e-05
-2.54569e-06
1.87764e-05
-2.5539e-06
1.88529e-05
-2.55838e-06
1.89325e-05
-2.5667e-06
1.9011e-05
-2.56389e-06
1.90826e-05
-2.54348e-06
1.91456e-05
-2.51568e-06
1.92002e-05
-2.48874e-06
1.92471e-05
-2.464e-06
1.92872e-05
-2.44248e-06
1.93211e-05
-2.42358e-06
1.93497e-05
-2.40756e-06
1.93739e-05
-2.39388e-06
1.93942e-05
-2.38242e-06
1.94113e-05
-2.37278e-06
1.94257e-05
-2.36476e-06
1.94378e-05
-2.35806e-06
1.9448e-05
-2.3525e-06
1.94567e-05
-2.34785e-06
1.9464e-05
-2.344e-06
1.94701e-05
-2.34078e-06
1.94754e-05
-2.33821e-06
1.94799e-05
-2.33603e-06
1.94838e-05
-2.33401e-06
1.9487e-05
-2.33224e-06
1.94897e-05
-2.33073e-06
1.94921e-05
-2.32967e-06
1.94941e-05
-2.32873e-06
1.94958e-05
-2.32794e-06
1.94973e-05
-2.32727e-06
1.94986e-05
-2.32669e-06
1.94998e-05
-2.32617e-06
1.95007e-05
-2.32576e-06
1.95016e-05
-2.32536e-06
1.95023e-05
-2.32503e-06
1.9503e-05
-2.32475e-06
1.95035e-05
-2.3245e-06
1.9504e-05
-2.32429e-06
1.95044e-05
-2.3241e-06
1.95048e-05
-2.32393e-06
1.95051e-05
-2.32379e-06
1.95054e-05
-2.32367e-06
1.95056e-05
-2.32356e-06
1.95058e-05
-2.32346e-06
1.9506e-05
-2.32339e-06
1.95065e-05
-2.32368e-06
1.95066e-05
-2.32325e-06
1.95068e-05
-2.3232e-06
1.95069e-05
-2.32315e-06
1.95069e-05
-2.32311e-06
1.9507e-05
-2.32308e-06
1.95071e-05
-2.32305e-06
1.95071e-05
-2.32302e-06
1.95072e-05
-2.32301e-06
1.95072e-05
-2.32298e-06
1.95073e-05
-2.32297e-06
1.95073e-05
-2.32295e-06
1.95073e-05
-2.32294e-06
1.95073e-05
-2.32293e-06
1.95074e-05
-2.32292e-06
1.95074e-05
-2.32291e-06
1.95074e-05
-2.3229e-06
1.95074e-05
-2.3229e-06
1.95074e-05
-2.32289e-06
1.95074e-05
-2.32289e-06
1.95074e-05
-2.32289e-06
1.95074e-05
-2.32288e-06
1.95074e-05
-2.32288e-06
1.95074e-05
-2.32288e-06
1.95075e-05
-2.32287e-06
1.95075e-05
-2.32287e-06
1.95075e-05
-2.32287e-06
1.95075e-05
-2.32287e-06
1.95075e-05
-2.32287e-06
1.95075e-05
-2.32287e-06
1.95075e-05
-2.32287e-06
1.95075e-05
-2.32287e-06
1.95075e-05
-2.32287e-06
1.95075e-05
-2.32287e-06
1.95075e-05
-2.32286e-06
1.95075e-05
-2.32286e-06
1.95075e-05
-2.32286e-06
1.95075e-05
-2.32286e-06
1.95075e-05
-2.32286e-06
1.95075e-05
-2.32286e-06
1.95075e-05
-2.32286e-06
1.95075e-05
-2.32286e-06
1.95075e-05
-2.32286e-06
1.95075e-05
-2.32286e-06
1.95075e-05
-2.32286e-06
1.95075e-05
-2.32286e-06
1.95075e-05
-2.32286e-06
1.95075e-05
-2.32286e-06
1.95075e-05
-2.32286e-06
1.95075e-05
-2.32286e-06
1.95075e-05
-2.32286e-06
1.95075e-05
-2.32286e-06
1.95075e-05
-2.32286e-06
1.95075e-05
-2.32286e-06
1.95075e-05
-2.32286e-06
1.95075e-05
-2.32286e-06
1.95075e-05
-2.32286e-06
1.95075e-05
-2.32286e-06
1.95075e-05
-2.32286e-06
1.95075e-05
-2.32286e-06
1.95075e-05
-2.32286e-06
1.95075e-05
-2.32286e-06
1.95075e-05
-2.32286e-06
1.95075e-05
-2.32286e-06
1.95075e-05
-2.32286e-06
1.95075e-05
-2.32286e-06
1.95075e-05
-2.32286e-06
1.95075e-05
-2.32286e-06
1.95075e-05
-2.32286e-06
1.95075e-05
-2.32286e-06
1.95075e-05
-2.32286e-06
1.95075e-05
-2.32286e-06
1.95075e-05
-2.32286e-06
1.95075e-05
-2.32286e-06
1.95075e-05
-2.32286e-06
1.95075e-05
-2.32286e-06
1.95075e-05
-2.32286e-06
1.95075e-05
-2.32286e-06
1.95075e-05
-2.32286e-06
1.95075e-05
-2.32286e-06
1.95075e-05
-2.32286e-06
1.95075e-05
-2.32286e-06
1.95075e-05
-2.32286e-06
1.95075e-05
-2.32286e-06
1.95075e-05
-2.32286e-06
1.95075e-05
-2.32286e-06
1.95075e-05
-2.32286e-06
1.95075e-05
-2.32286e-06
1.95075e-05
-2.32286e-06
1.95075e-05
-2.32286e-06
1.95075e-05
-2.32286e-06
1.95075e-05
-2.32286e-06
1.95075e-05
-2.32286e-06
1.95075e-05
-2.32286e-06
1.95075e-05
-2.32286e-06
1.95075e-05
-2.32286e-06
1.95075e-05
-2.32286e-06
1.95075e-05
-2.32286e-06
1.95075e-05
-2.32286e-06
1.95075e-05
-2.32286e-06
1.95075e-05
-2.32286e-06
1.95075e-05
-2.32286e-06
1.95075e-05
-2.32286e-06
1.95075e-05
-2.32286e-06
1.95075e-05
-2.32286e-06
1.95075e-05
-2.32286e-06
1.95075e-05
-2.32286e-06
1.95075e-05
-2.32286e-06
1.95075e-05
-2.32286e-06
1.95075e-05
-2.32286e-06
1.95075e-05
-2.32286e-06
1.95075e-05
-2.32286e-06
1.95075e-05
-2.32286e-06
1.95075e-05
-2.32286e-06
1.95075e-05
-2.32286e-06
1.95075e-05
-2.32286e-06
1.95075e-05
-2.32286e-06
1.95075e-05
-2.32286e-06
1.95075e-05
-2.32286e-06
1.95075e-05
-2.32286e-06
1.95075e-05
-2.32286e-06
1.95075e-05
-2.32286e-06
1.95075e-05
-2.32286e-06
1.95075e-05
-2.32286e-06
1.95075e-05
-2.32286e-06
1.95075e-05
-2.32286e-06
1.95075e-05
-2.32286e-06
1.95075e-05
-2.32286e-06
1.95075e-05
-2.32286e-06
1.95075e-05
-2.32286e-06
1.95075e-05
-2.32286e-06
1.95075e-05
-2.32286e-06
1.95075e-05
-2.32286e-06
1.95075e-05
-2.32286e-06
1.95075e-05
-2.32286e-06
1.95075e-05
-2.32286e-06
1.95075e-05
-2.32286e-06
1.95075e-05
-2.32286e-06
1.95075e-05
-2.32286e-06
1.95075e-05
-2.32286e-06
1.95075e-05
-2.32286e-06
1.95075e-05
-2.32286e-06
1.95075e-05
-2.32286e-06
1.95075e-05
-2.32286e-06
1.95075e-05
-2.32286e-06
1.95075e-05
-2.32286e-06
1.95075e-05
-2.32286e-06
1.95075e-05
-2.32286e-06
1.95075e-05
-2.32286e-06
1.95075e-05
-2.32286e-06
1.95075e-05
-2.32286e-06
1.95075e-05
-2.32286e-06
1.95075e-05
-2.32286e-06
1.95075e-05
-2.32286e-06
1.95075e-05
-2.32286e-06
1.95075e-05
-2.32286e-06
1.95075e-05
-2.32286e-06
1.95075e-05
-2.32286e-06
1.95075e-05
-2.32286e-06
1.95075e-05
-2.32286e-06
1.95075e-05
-2.32286e-06
1.95075e-05
-2.32286e-06
1.95075e-05
-2.32286e-06
1.95075e-05
-2.32286e-06
1.95075e-05
-2.32286e-06
1.95075e-05
-2.32286e-06
1.95075e-05
-2.32286e-06
1.95075e-05
-2.32286e-06
1.95075e-05
-2.32286e-06
1.95075e-05
-2.32286e-06
1.95075e-05
-2.32286e-06
1.95075e-05
-2.32286e-06
1.95075e-05
-2.32286e-06
1.95075e-05
-2.32286e-06
1.95075e-05
-2.32286e-06
1.95075e-05
-2.32286e-06
1.95075e-05
-2.32286e-06
1.95075e-05
-2.32286e-06
1.95075e-05
-2.32286e-06
1.95075e-05
-2.32286e-06
1.95075e-05
-2.32286e-06
1.95075e-05
-2.32286e-06
1.95075e-05
-2.32286e-06
1.95075e-05
-2.32286e-06
1.95075e-05
-2.32286e-06
1.95075e-05
-2.32286e-06
1.95075e-05
-2.32286e-06
1.95075e-05
-2.32286e-06
1.95075e-05
-2.32286e-06
1.95075e-05
-2.32286e-06
1.95075e-05
-2.32286e-06
1.95075e-05
-2.32286e-06
1.95075e-05
-2.32286e-06
1.95075e-05
-2.32286e-06
1.95075e-05
-2.32286e-06
1.95075e-05
-2.32286e-06
1.95075e-05
-2.32286e-06
1.95075e-05
-2.32286e-06
1.95075e-05
-2.32286e-06
1.95075e-05
-2.32286e-06
1.95075e-05
-2.32286e-06
1.95075e-05
-2.32286e-06
1.95075e-05
-2.32286e-06
1.95075e-05
-2.32286e-06
1.95075e-05