/*--------------------------------*- C++ -*----------------------------------*\
| =========                 |                                                 |
| \\      /  F ield         | foam-extend: Open Source CFD                    |
|  \\    /   O peration     | Version:     3.2                                |
|   \\  /    A nd           | Web:         http://www.foam-extend.org         |
|    \\/     M anipulation  | For copyright notice see file Copyright         |
\*---------------------------------------------------------------------------*/
FoamFile
{
    version     2.0;
    format      ascii;
    class       areaVectorField;
    location    "91";
    object      aUf;
}
// * * * * * * * * * * * * * * * * * * * * * * * * * * * * * * * * * * * * * //

dimensions      [0 1 -1 0 0 0 0];

internalField   nonuniform List<vector> 
300
(
(1.00422 -3.293e-25 0.0236231)
(0.806898 4.57733e-25 0.000414071)
(0.699071 1.82817e-25 -0.00373158)
(0.695117 0 -0.00378383)
(0.686356 -2.96281e-26 -0.0036414)
(0.683918 -1.92095e-26 -0.00346225)
(0.679619 -2.5151e-26 -0.00345819)
(0.678487 -8.5043e-27 -0.00341646)
(0.677122 0 -0.00341827)
(0.677373 -2.59495e-27 -0.00340934)
(0.677852 0 -0.00341321)
(0.678895 2.54573e-28 -0.00341584)
(0.680314 -1.02105e-27 -0.00342622)
(0.682103 -1.82826e-27 -0.00343275)
(0.68409 0 -0.00344338)
(0.686313 0 -0.003455)
(0.68875 -3.65771e-27 -0.00346766)
(0.691356 3.92522e-27 -0.00347952)
(0.694007 0 -0.00349425)
(0.696855 0 -0.00351008)
(0.699882 0 -0.00352494)
(0.702987 5.55502e-27 -0.00354041)
(0.706188 0 -0.00355638)
(0.709418 0 -0.00357207)
(0.712671 0 -0.0035882)
(0.715984 6.52257e-27 -0.00360285)
(0.719082 -6.14681e-27 -0.00361546)
(0.7218 0 -0.0036246)
(0.724087 0 -0.00363277)
(0.726007 4.07947e-27 -0.00363945)
(0.727601 -3.47554e-27 -0.00364547)
(0.728931 0 -0.00365042)
(0.730033 0 -0.00365477)
(0.730951 0 -0.00365835)
(0.731711 -1.74399e-27 -0.00366146)
(0.732345 0 -0.00366402)
(0.732871 0 -0.00366624)
(0.733311 -1.03315e-27 -0.00366808)
(0.733679 0 -0.00366967)
(0.733988 0 -0.003671)
(0.734248 0 -0.00367214)
(0.734469 -1.85451e-42 -0.00367311)
(0.734656 0 -0.00367397)
(0.734819 0 -0.00367468)
(0.734957 0 -0.00367526)
(0.735073 0 -0.00367583)
(0.735171 1.28753e-30 -0.00367628)
(0.735255 0 -0.00367666)
(0.735328 0 -0.00367693)
(0.735391 0 -0.00367721)
(0.735446 0 -0.00367746)
(0.735494 1.11029e-28 -0.00367767)
(0.735536 0 -0.00367787)
(0.735572 -1.86494e-42 -0.00367802)
(0.735604 0 -0.00367818)
(0.735632 0 -0.00367828)
(0.735656 -1.86568e-42 -0.00367839)
(0.735677 0 -0.00367848)
(0.735695 -4.10163e-29 -0.00367856)
(0.735711 0 -0.00367862)
(0.735725 0 -0.00367869)
(0.735737 -1.86639e-42 -0.00367874)
(0.735747 0 -0.00367878)
(0.735756 -1.86656e-42 -0.00367882)
(0.735764 0 -0.00367886)
(0.735771 0 -0.00367888)
(0.735777 1.33635e-29 -0.00367891)
(0.735781 0 -0.00367893)
(0.735786 -1.86682e-42 -0.00367895)
(0.73579 0 -0.00367896)
(0.735793 0 -0.00367898)
(0.735796 -1.86691e-42 -0.00367899)
(0.735798 0 -0.003679)
(0.7358 -1.86695e-42 -0.00367901)
(0.735802 0 -0.00367902)
(0.735804 0 -0.00367902)
(0.735805 -1.86699e-42 -0.00367903)
(0.735806 0 -0.00367904)
(0.735807 -1.86701e-42 -0.00367904)
(0.735808 0 -0.00367904)
(0.735809 0 -0.00367905)
(0.735809 0 -0.00367905)
(0.73581 0 -0.00367905)
(0.73581 0 -0.00367905)
(0.735811 0 -0.00367906)
(0.735811 -7.09522e-31 -0.00367906)
(0.735811 7.78197e-31 -0.00367906)
(0.735812 0 -0.00367906)
(0.735812 0 -0.00367906)
(0.735812 0 -0.00367906)
(0.735812 0 -0.00367906)
(0.735812 0 -0.00367906)
(0.735813 0 -0.00367906)
(0.735813 0 -0.00367906)
(0.735813 0 -0.00367906)
(0.735813 0 -0.00367906)
(0.735813 0 -0.00367906)
(0.735813 0 -0.00367906)
(0.735813 0 -0.00367907)
(0.735813 0 -0.00367907)
(0.735813 0 -0.00367907)
(0.735813 -6.54813e-32 -0.00367907)
(0.735813 5.62732e-32 -0.00367907)
(0.735813 0 -0.00367907)
(0.735813 0 -0.00367907)
(0.735813 0 -0.00367907)
(0.735813 0 -0.00367907)
(0.735813 0 -0.00367907)
(0.735813 0 -0.00367907)
(0.735813 0 -0.00367907)
(0.735813 0 -0.00367907)
(0.735813 0 -0.00367907)
(0.735813 0 -0.00367907)
(0.735813 0 -0.00367907)
(0.735813 0 -0.00367907)
(0.735813 0 -0.00367907)
(0.735813 0 -0.00367907)
(0.735813 0 -0.00367907)
(0.735813 0 -0.00367907)
(0.735813 0 -0.00367907)
(0.735813 0 -0.00367907)
(0.735813 0 -0.00367907)
(0.735813 0 -0.00367907)
(0.735813 0 -0.00367907)
(0.735813 0 -0.00367907)
(0.735813 0 -0.00367907)
(0.735813 0 -0.00367907)
(0.735813 0 -0.00367907)
(0.735813 0 -0.00367907)
(0.735813 0 -0.00367907)
(0.735813 0 -0.00367907)
(0.735813 0 -0.00367907)
(0.735813 0 -0.00367907)
(0.735813 0 -0.00367907)
(0.735813 0 -0.00367907)
(0.735813 0 -0.00367907)
(0.735813 0 -0.00367907)
(0.735813 0 -0.00367907)
(0.735813 0 -0.00367907)
(0.735813 0 -0.00367907)
(0.735813 0 -0.00367907)
(0.735813 0 -0.00367907)
(0.735813 0 -0.00367907)
(0.735813 0 -0.00367907)
(0.735813 0 -0.00367907)
(0.735813 0 -0.00367907)
(0.735813 0 -0.00367907)
(0.735813 0 -0.00367907)
(0.735813 0 -0.00367907)
(0.735813 0 -0.00367907)
(0.735813 0 -0.00367907)
(0.735813 0 -0.00367907)
(0.735813 0 -0.00367907)
(0.735813 0 -0.00367907)
(0.735813 0 -0.00367907)
(0.735813 0 -0.00367907)
(0.735813 0 -0.00367907)
(0.735813 0 -0.00367907)
(0.735813 0 -0.00367907)
(0.735813 0 -0.00367907)
(0.735813 0 -0.00367907)
(0.735813 0 -0.00367907)
(0.735813 0 -0.00367907)
(0.735813 0 -0.00367907)
(0.735813 0 -0.00367907)
(0.735813 0 -0.00367907)
(0.735813 0 -0.00367907)
(0.735813 0 -0.00367907)
(0.735813 0 -0.00367907)
(0.735813 0 -0.00367907)
(0.735813 0 -0.00367907)
(0.735813 0 -0.00367907)
(0.735813 0 -0.00367907)
(0.735813 0 -0.00367907)
(0.735813 0 -0.00367907)
(0.735813 0 -0.00367907)
(0.735813 0 -0.00367907)
(0.735813 0 -0.00367907)
(0.735813 0 -0.00367907)
(0.735813 0 -0.00367907)
(0.735813 0 -0.00367907)
(0.735813 0 -0.00367907)
(0.735813 0 -0.00367907)
(0.735813 0 -0.00367907)
(0.735813 0 -0.00367907)
(0.735813 0 -0.00367907)
(0.735813 0 -0.00367907)
(0.735813 0 -0.00367907)
(0.735813 0 -0.00367907)
(0.735813 0 -0.00367907)
(0.735813 0 -0.00367907)
(0.735813 0 -0.00367907)
(0.735813 0 -0.00367907)
(0.735813 0 -0.00367907)
(0.735813 0 -0.00367907)
(0.735813 0 -0.00367907)
(0.735813 0 -0.00367907)
(0.735813 0 -0.00367907)
(0.735813 0 -0.00367907)
(0.735813 0 -0.00367907)
(0.735813 0 -0.00367907)
(0.735813 0 -0.00367907)
(0.735813 0 -0.00367907)
(0.735813 0 -0.00367907)
(0.735813 0 -0.00367907)
(0.735813 0 -0.00367907)
(0.735813 0 -0.00367907)
(0.735813 0 -0.00367907)
(0.735813 0 -0.00367907)
(0.735813 0 -0.00367907)
(0.735813 0 -0.00367907)
(0.735813 0 -0.00367907)
(0.735813 0 -0.00367907)
(0.735813 0 -0.00367907)
(0.735813 0 -0.00367907)
(0.735813 0 -0.00367907)
(0.735813 0 -0.00367907)
(0.735813 0 -0.00367907)
(0.735813 0 -0.00367907)
(0.735813 0 -0.00367907)
(0.735813 0 -0.00367907)
(0.735813 0 -0.00367907)
(0.735813 0 -0.00367907)
(0.735813 0 -0.00367907)
(0.735813 0 -0.00367907)
(0.735813 0 -0.00367907)
(0.735813 0 -0.00367907)
(0.735813 0 -0.00367907)
(0.735813 0 -0.00367907)
(0.735813 0 -0.00367907)
(0.735813 0 -0.00367907)
(0.735813 0 -0.00367907)
(0.735813 0 -0.00367907)
(0.735813 0 -0.00367907)
(0.735813 -1.47196e-35 -0.00367907)
(0.735813 0 -0.00367907)
(0.735813 0 -0.00367907)
(0.735813 0 -0.00367907)
(0.735813 0 -0.00367907)
(0.735813 0 -0.00367907)
(0.735813 0 -0.00367907)
(0.735813 0 -0.00367907)
(0.735813 0 -0.00367907)
(0.735813 0 -0.00367907)
(0.735813 0 -0.00367907)
(0.735813 0 -0.00367907)
(0.735813 0 -0.00367907)
(0.735813 0 -0.00367907)
(0.735813 0 -0.00367907)
(0.735813 0 -0.00367907)
(0.735813 0 -0.00367907)
(0.735813 0 -0.00367907)
(0.735813 0 -0.00367907)
(0.735813 0 -0.00367907)
(0.735813 0 -0.00367907)
(0.735813 0 -0.00367907)
(0.735813 0 -0.00367907)
(0.735813 0 -0.00367907)
(0.735813 0 -0.00367907)
(0.735813 0 -0.00367907)
(0.735813 0 -0.00367907)
(0.735813 0 -0.00367907)
(0.735813 0 -0.00367907)
(0.735813 0 -0.00367907)
(0.735813 0 -0.00367907)
(0.735813 0 -0.00367907)
(0.735813 0 -0.00367907)
(0.735813 0 -0.00367907)
(0.735813 0 -0.00367907)
(0.735813 0 -0.00367907)
(0.735813 0 -0.00367907)
(0.735813 0 -0.00367907)
(0.735813 0 -0.00367907)
(0.735813 0 -0.00367907)
(0.735813 0 -0.00367907)
(0.735813 0 -0.00367907)
(0.735813 0 -0.00367907)
(0.735813 0 -0.00367907)
(0.735813 0 -0.00367907)
(0.735813 0 -0.00367907)
(0.735813 0 -0.00367907)
(0.735813 4.29421e-36 -0.00367907)
(0.735813 0 -0.00367907)
(0.735813 0 -0.00367907)
(0.735813 0 -0.00367907)
(0.735813 0 -0.00367907)
(0.735813 0 -0.00367907)
(0.735813 0 -0.00367907)
(0.735813 0 -0.00367907)
(0.735813 0 -0.00367907)
(0.735813 0 -0.00367907)
(0.735813 0 -0.00367907)
(0.735813 0 -0.00367907)
(0.735813 0 -0.00367907)
(0.735813 0 -0.00367907)
(0.735813 0 -0.00367907)
(0.735813 0 -0.00367907)
(0.735813 0 -0.00367907)
(0.735814 0 -0.00367907)
(0.735813 0 -0.00368647)
)
;

boundaryField
{
    inlet
    {
        type            calculated;
        value           uniform (0 0 0);
    }
    outlet
    {
        type            calculated;
        value           uniform (0 0 0);
    }
    sideWall
    {
        type            empty;
    }
}


// ************************************************************************* //
