/*--------------------------------*- C++ -*----------------------------------*\
| =========                 |                                                 |
| \\      /  F ield         | foam-extend: Open Source CFD                    |
|  \\    /   O peration     | Version:     3.2                                |
|   \\  /    A nd           | Web:         http://www.foam-extend.org         |
|    \\/     M anipulation  | For copyright notice see file Copyright         |
\*---------------------------------------------------------------------------*/
FoamFile
{
    version     2.0;
    format      ascii;
    class       areaScalarField;
    location    "91";
    object      Ce1;
}
// * * * * * * * * * * * * * * * * * * * * * * * * * * * * * * * * * * * * * //

dimensions      [1 -3 0 0 0 0 0];

internalField   nonuniform List<scalar> 
300
(
2.32495
1.19962
0.776795
0.763541
0.734701
0.726804
0.713022
0.709423
0.705097
0.70589
0.707407
0.710718
0.715236
0.720963
0.72736
0.734558
0.742504
0.751064
0.759842
0.769342
0.77953
0.79007
0.801034
0.812201
0.823551
0.83522
0.846227
0.855965
0.864214
0.87118
0.876991
0.881861
0.88591
0.88929
0.892097
0.89444
0.896391
0.898023
0.899389
0.900538
0.901507
0.902328
0.903027
0.903632
0.904147
0.904579
0.904947
0.905246
0.905517
0.905753
0.905958
0.906137
0.906294
0.90643
0.90655
0.906653
0.906743
0.906821
0.906889
0.906948
0.907
0.907044
0.907083
0.907116
0.907146
0.90717
0.907192
0.907211
0.907227
0.907241
0.907254
0.907264
0.907273
0.907281
0.907288
0.907294
0.907299
0.907303
0.907307
0.90731
0.907313
0.907315
0.907317
0.907319
0.90732
0.907322
0.907323
0.907324
0.907325
0.907325
0.907326
0.907326
0.907327
0.907327
0.907328
0.907328
0.907328
0.907328
0.907329
0.907329
0.907329
0.907329
0.907329
0.907329
0.907329
0.907329
0.907329
0.90733
0.90733
0.90733
0.90733
0.90733
0.90733
0.90733
0.90733
0.90733
0.90733
0.90733
0.90733
0.90733
0.90733
0.90733
0.90733
0.90733
0.90733
0.90733
0.90733
0.90733
0.90733
0.90733
0.90733
0.90733
0.90733
0.90733
0.90733
0.90733
0.90733
0.90733
0.90733
0.90733
0.90733
0.90733
0.90733
0.90733
0.90733
0.90733
0.90733
0.90733
0.90733
0.90733
0.90733
0.90733
0.90733
0.90733
0.90733
0.90733
0.90733
0.90733
0.90733
0.90733
0.90733
0.90733
0.90733
0.90733
0.90733
0.90733
0.90733
0.90733
0.90733
0.90733
0.90733
0.90733
0.90733
0.90733
0.90733
0.90733
0.90733
0.90733
0.90733
0.90733
0.90733
0.90733
0.90733
0.90733
0.90733
0.90733
0.90733
0.90733
0.90733
0.90733
0.90733
0.90733
0.90733
0.90733
0.90733
0.90733
0.90733
0.90733
0.90733
0.90733
0.90733
0.90733
0.90733
0.90733
0.90733
0.90733
0.90733
0.90733
0.90733
0.90733
0.90733
0.90733
0.90733
0.90733
0.90733
0.90733
0.90733
0.90733
0.90733
0.90733
0.90733
0.90733
0.90733
0.90733
0.90733
0.90733
0.90733
0.90733
0.90733
0.90733
0.90733
0.90733
0.90733
0.90733
0.90733
0.90733
0.90733
0.90733
0.90733
0.90733
0.90733
0.90733
0.90733
0.90733
0.90733
0.90733
0.90733
0.90733
0.90733
0.90733
0.90733
0.90733
0.90733
0.90733
0.90733
0.90733
0.90733
0.90733
0.90733
0.90733
0.90733
0.90733
0.90733
0.90733
0.90733
0.90733
0.90733
0.90733
0.90733
0.90733
0.90733
0.90733
0.90733
0.90733
0.90733
0.90733
0.90733
0.90733
0.90733
0.90733
0.90733
0.90733
0.90733
0.90733
0.90733
0.90733
0.90733
0.90733
0.90733
0.90733
0.90733
0.90733
0.90733
0.90733
0.90733
0.90733
0.90733
0.90733
0.907332
0.907328
)
;

boundaryField
{
    inlet
    {
        type            calculated;
        value           uniform 0;
    }
    outlet
    {
        type            calculated;
        value           uniform 0;
    }
    sideWall
    {
        type            empty;
    }
}


// ************************************************************************* //
