/*--------------------------------*- C++ -*----------------------------------*\
| =========                 |                                                 |
| \\      /  F ield         | foam-extend: Open Source CFD                    |
|  \\    /   O peration     | Version:     3.2                                |
|   \\  /    A nd           | Web:         http://www.foam-extend.org         |
|    \\/     M anipulation  | For copyright notice see file Copyright         |
\*---------------------------------------------------------------------------*/
FoamFile
{
    version     2.0;
    format      ascii;
    class       areaScalarField;
    location    "91";
    object      Ce2;
}
// * * * * * * * * * * * * * * * * * * * * * * * * * * * * * * * * * * * * * //

dimensions      [1 -3 0 0 0 0 0];

internalField   nonuniform List<scalar> 
300
(
1.03683
0.533751
0.344873
0.338955
0.326078
0.322552
0.316399
0.314793
0.312861
0.313215
0.313893
0.315371
0.317388
0.319945
0.322801
0.326014
0.329562
0.333384
0.337303
0.341545
0.346094
0.350801
0.355697
0.360683
0.365752
0.370963
0.375879
0.380227
0.383911
0.387023
0.389618
0.391793
0.393601
0.395111
0.396365
0.397411
0.398282
0.399011
0.399622
0.400135
0.400568
0.400934
0.401247
0.401516
0.401747
0.40194
0.402104
0.402238
0.402359
0.402464
0.402556
0.402636
0.402706
0.402766
0.40282
0.402866
0.402906
0.402941
0.402971
0.402998
0.403021
0.403041
0.403058
0.403073
0.403086
0.403097
0.403107
0.403115
0.403123
0.403129
0.403134
0.403139
0.403143
0.403146
0.403149
0.403152
0.403154
0.403156
0.403158
0.403159
0.403161
0.403162
0.403163
0.403163
0.403164
0.403165
0.403165
0.403166
0.403166
0.403166
0.403167
0.403167
0.403167
0.403167
0.403167
0.403168
0.403168
0.403168
0.403168
0.403168
0.403168
0.403168
0.403168
0.403168
0.403168
0.403168
0.403168
0.403168
0.403168
0.403168
0.403168
0.403168
0.403168
0.403168
0.403168
0.403168
0.403168
0.403168
0.403168
0.403168
0.403168
0.403168
0.403168
0.403168
0.403168
0.403168
0.403168
0.403168
0.403168
0.403168
0.403168
0.403168
0.403168
0.403168
0.403168
0.403168
0.403168
0.403168
0.403168
0.403168
0.403168
0.403168
0.403168
0.403168
0.403168
0.403168
0.403168
0.403168
0.403168
0.403168
0.403168
0.403168
0.403168
0.403168
0.403168
0.403168
0.403168
0.403168
0.403168
0.403168
0.403168
0.403168
0.403168
0.403168
0.403168
0.403168
0.403168
0.403168
0.403168
0.403168
0.403168
0.403168
0.403168
0.403168
0.403168
0.403168
0.403168
0.403168
0.403168
0.403168
0.403168
0.403168
0.403168
0.403168
0.403168
0.403168
0.403168
0.403168
0.403168
0.403168
0.403168
0.403168
0.403168
0.403168
0.403168
0.403168
0.403168
0.403168
0.403168
0.403168
0.403168
0.403168
0.403168
0.403168
0.403168
0.403168
0.403168
0.403168
0.403168
0.403168
0.403168
0.403168
0.403168
0.403168
0.403168
0.403168
0.403168
0.403168
0.403168
0.403168
0.403168
0.403168
0.403168
0.403168
0.403168
0.403168
0.403168
0.403168
0.403168
0.403168
0.403168
0.403168
0.403168
0.403168
0.403168
0.403168
0.403168
0.403168
0.403168
0.403168
0.403168
0.403168
0.403168
0.403168
0.403168
0.403168
0.403168
0.403168
0.403168
0.403168
0.403168
0.403168
0.403168
0.403168
0.403168
0.403168
0.403168
0.403168
0.403168
0.403168
0.403168
0.403168
0.403168
0.403168
0.403168
0.403168
0.403168
0.403168
0.403168
0.403168
0.403168
0.403168
0.403168
0.403168
0.403168
0.403168
0.403168
0.403168
0.403168
0.403168
0.403168
0.403168
0.403168
0.403168
0.403168
0.403168
0.403168
0.403168
0.403168
0.403168
0.403168
0.403168
0.403168
0.403168
0.403168
0.403168
0.403168
0.403168
0.403169
0.403167
)
;

boundaryField
{
    inlet
    {
        type            calculated;
        value           uniform 0;
    }
    outlet
    {
        type            calculated;
        value           uniform 0;
    }
    sideWall
    {
        type            empty;
    }
}


// ************************************************************************* //
