/*--------------------------------*- C++ -*----------------------------------*\
| =========                 |                                                 |
| \\      /  F ield         | foam-extend: Open Source CFD                    |
|  \\    /   O peration     | Version:     3.2                                |
|   \\  /    A nd           | Web:         http://www.foam-extend.org         |
|    \\/     M anipulation  | For copyright notice see file Copyright         |
\*---------------------------------------------------------------------------*/
FoamFile
{
    version     2.0;
    format      ascii;
    class       areaScalarField;
    location    "91";
    object      deltaHb;
}
// * * * * * * * * * * * * * * * * * * * * * * * * * * * * * * * * * * * * * //

dimensions      [0 1 -1 0 0 0 0];

internalField   nonuniform List<scalar> 
300
(
0
0
0
0
0
0
0
0
0
0
0
0
0
0
0
0
0
0
0
0
0
0
0
0
0
0
0
0
0
0
0
0
0
0
0
0
0
0
0
0
0
0
0
0
0
0
0
0
0
0
0
0
0
0
0
0
0
0
0
0
0
0
0
0
0
0
0
0
0
0
-4.90834e-10
-4.27367e-10
-3.68443e-10
-3.10036e-10
-2.75396e-10
-2.37572e-10
-2.02792e-10
-1.75044e-10
-1.5013e-10
-1.30232e-10
-1.11524e-10
-9.71281e-11
-8.25732e-11
-7.23763e-11
-6.13868e-11
-5.13465e-11
-4.89495e-11
-3.9687e-11
-3.24706e-11
-2.91789e-11
-2.46299e-11
-2.16646e-11
-2.03464e-11
-1.41062e-11
-1.33591e-11
-1.26148e-11
-1.03582e-11
-8.99584e-12
-7.65514e-12
-6.90208e-12
-5.48963e-12
-4.74492e-12
-3.37352e-12
-3.8192e-12
-2.66286e-12
-7.76011e-13
-3.47847e-12
-2.77683e-12
-9.23185e-13
-1.71753e-12
-5.68933e-13
-1.07661e-12
-2.28962e-12
1.756e-13
-1.42918e-13
-1.08159e-12
-4.98939e-13
-5.96123e-13
-3.73317e-13
-3.92326e-13
-2.00675e-13
-3.30989e-13
5.66426e-15
-4.78895e-13
-9.84625e-14
8.24867e-13
-6.91022e-13
-5.47394e-13
1.89274e-13
-3.25249e-13
2.2762e-13
-1.0245e-13
-7.18256e-13
4.67063e-13
2.05208e-13
-2.57532e-13
2.27842e-14
-9.41455e-14
-2.19563e-14
-4.92132e-14
3.70816e-17
-4.45357e-14
5.11138e-14
-8.78302e-14
1.74869e-13
2.91731e-13
-4.05083e-13
-1.21822e-13
1.39343e-13
-6.48965e-14
7.98293e-14
-6.94364e-14
-1.09377e-13
2.23548e-13
6.29874e-14
-5.6668e-14
2.6644e-14
-8.58361e-15
6.62933e-15
-3.93712e-16
3.22325e-15
2.17405e-15
2.8093e-15
2.76347e-15
2.59581e-15
2.09104e-15
1.57781e-15
1.14936e-15
6.52578e-16
-3.69109e-17
-5.90226e-16
-1.0574e-15
-1.13123e-15
-9.98146e-16
-9.06495e-16
-8.28125e-16
-7.31148e-16
-4.26831e-16
-1.81557e-16
-2.4635e-16
-3.46124e-16
-3.80201e-16
-1.91343e-16
3.0842e-16
1.0319e-15
2.15016e-15
3.91338e-15
6.45415e-15
9.31728e-15
1.19949e-14
1.448e-14
1.6238e-14
1.71223e-14
1.72124e-14
1.62672e-14
1.46242e-14
1.26124e-14
1.08413e-14
9.39773e-15
8.45886e-15
8.9214e-15
1.08912e-14
1.47563e-14
2.05485e-14
2.73248e-14
3.43404e-14
4.05114e-14
4.50586e-14
4.70955e-14
4.61831e-14
4.30961e-14
3.83679e-14
3.29664e-14
2.75854e-14
2.23859e-14
1.78975e-14
1.42494e-14
1.15074e-14
9.30445e-15
7.30439e-15
5.86062e-15
4.6115e-15
3.63353e-15
3.0869e-15
2.52786e-15
2.0204e-15
1.59978e-15
1.43029e-15
1.18635e-15
7.40474e-16
5.67078e-16
2.60587e-16
2.81191e-17
1.3233e-16
1.68581e-16
1.25289e-16
1.09256e-16
2.80323e-16
2.31682e-16
1.92976e-17
5.83304e-17
-1.02245e-16
-7.49422e-17
4.17772e-16
1.05912e-15
2.18326e-15
3.88638e-15
6.38224e-15
9.15223e-15
1.16966e-14
1.40734e-14
1.56603e-14
1.64307e-14
1.64193e-14
1.53708e-14
1.36932e-14
1.1714e-14
9.87642e-15
8.10006e-15
6.26506e-15
4.83244e-15
3.66475e-15
2.88432e-15
2.46705e-15
2.03212e-15
1.66452e-15
1.39317e-15
1.33583e-15
1.19893e-15
7.88469e-16
5.20233e-16
2.31289e-16
8.64124e-17
1.9325e-16
1.71682e-16
1.42012e-16
9.42917e-17
3.11766e-16
3.15431e-16
2.11628e-16
-1.48215e-16
5.42498e-17
-6.26618e-16
7.18172e-16
-1.23821e-15
2.31882e-15
0
0
0
0
0
0
0
0
0
0
0
0
0
0
)
;

boundaryField
{
    inlet
    {
        type            zeroGradient;
    }
    outlet
    {
        type            zeroGradient;
    }
    sideWall
    {
        type            empty;
    }
}


// ************************************************************************* //
