/*--------------------------------*- C++ -*----------------------------------*\
| =========                 |                                                 |
| \\      /  F ield         | foam-extend: Open Source CFD                    |
|  \\    /   O peration     | Version:     3.2                                |
|   \\  /    A nd           | Web:         http://www.foam-extend.org         |
|    \\/     M anipulation  | For copyright notice see file Copyright         |
\*---------------------------------------------------------------------------*/
FoamFile
{
    version     2.0;
    format      ascii;
    class       volScalarField;
    location    "91";
    object      DiSSt;
}
// * * * * * * * * * * * * * * * * * * * * * * * * * * * * * * * * * * * * * //

dimensions      [0 2 -1 0 0 0 0];

internalField   nonuniform List<scalar> 
5400
(
3.50851e-05
2.82782e-05
2.45514e-05
2.44145e-05
2.4111e-05
2.40265e-05
2.38776e-05
2.38384e-05
2.37911e-05
2.37998e-05
2.38164e-05
2.38526e-05
2.39017e-05
2.39637e-05
2.40325e-05
2.41095e-05
2.41939e-05
2.42842e-05
2.4376e-05
2.44746e-05
2.45795e-05
2.4687e-05
2.47977e-05
2.49096e-05
2.50221e-05
2.51368e-05
2.5244e-05
2.53381e-05
2.54172e-05
2.54836e-05
2.55387e-05
2.55847e-05
2.56228e-05
2.56546e-05
2.56809e-05
2.57028e-05
2.5721e-05
2.57362e-05
2.57489e-05
2.57596e-05
2.57686e-05
2.57762e-05
2.57827e-05
2.57884e-05
2.57931e-05
2.57971e-05
2.58008e-05
2.58039e-05
2.58064e-05
2.58086e-05
2.58105e-05
2.58122e-05
2.58136e-05
2.58149e-05
2.5816e-05
2.58169e-05
2.58178e-05
2.58185e-05
2.58191e-05
2.58197e-05
2.58201e-05
2.58206e-05
2.58209e-05
2.58212e-05
2.58215e-05
2.58217e-05
2.58219e-05
2.58221e-05
2.58223e-05
2.58224e-05
2.58225e-05
2.58226e-05
2.58227e-05
2.58228e-05
2.58228e-05
2.58229e-05
2.58229e-05
2.5823e-05
2.5823e-05
2.5823e-05
2.5823e-05
2.58231e-05
2.58231e-05
2.58231e-05
2.58231e-05
2.58231e-05
2.58231e-05
2.58232e-05
2.58232e-05
2.58232e-05
2.58232e-05
2.58232e-05
2.58232e-05
2.58232e-05
2.58232e-05
2.58232e-05
2.58232e-05
2.58232e-05
2.58232e-05
2.58232e-05
2.58232e-05
2.58232e-05
2.58232e-05
2.58232e-05
2.58232e-05
2.58232e-05
2.58232e-05
2.58232e-05
2.58232e-05
2.58232e-05
2.58232e-05
2.58232e-05
2.58232e-05
2.58232e-05
2.58232e-05
2.58232e-05
2.58232e-05
2.58232e-05
2.58232e-05
2.58232e-05
2.58232e-05
2.58232e-05
2.58232e-05
2.58232e-05
2.58232e-05
2.58232e-05
2.58232e-05
2.58232e-05
2.58232e-05
2.58232e-05
2.58232e-05
2.58232e-05
2.58232e-05
2.58232e-05
2.58232e-05
2.58232e-05
2.58232e-05
2.58232e-05
2.58232e-05
2.58232e-05
2.58232e-05
2.58232e-05
2.58232e-05
2.58232e-05
2.58232e-05
2.58232e-05
2.58232e-05
2.58232e-05
2.58232e-05
2.58232e-05
2.58232e-05
2.58232e-05
2.58232e-05
2.58232e-05
2.58232e-05
2.58232e-05
2.58232e-05
2.58232e-05
2.58232e-05
2.58232e-05
2.58232e-05
2.58232e-05
2.58232e-05
2.58232e-05
2.58232e-05
2.58232e-05
2.58232e-05
2.58232e-05
2.58232e-05
2.58232e-05
2.58232e-05
2.58232e-05
2.58232e-05
2.58232e-05
2.58232e-05
2.58232e-05
2.58232e-05
2.58232e-05
2.58232e-05
2.58232e-05
2.58232e-05
2.58232e-05
2.58232e-05
2.58232e-05
2.58232e-05
2.58232e-05
2.58232e-05
2.58232e-05
2.58232e-05
2.58232e-05
2.58232e-05
2.58232e-05
2.58232e-05
2.58232e-05
2.58232e-05
2.58232e-05
2.58232e-05
2.58232e-05
2.58232e-05
2.58232e-05
2.58232e-05
2.58232e-05
2.58232e-05
2.58232e-05
2.58232e-05
2.58232e-05
2.58232e-05
2.58232e-05
2.58232e-05
2.58232e-05
2.58232e-05
2.58232e-05
2.58232e-05
2.58232e-05
2.58232e-05
2.58232e-05
2.58232e-05
2.58232e-05
2.58232e-05
2.58232e-05
2.58232e-05
2.58232e-05
2.58232e-05
2.58232e-05
2.58232e-05
2.58232e-05
2.58232e-05
2.58232e-05
2.58232e-05
2.58232e-05
2.58232e-05
2.58232e-05
2.58232e-05
2.58232e-05
2.58232e-05
2.58232e-05
2.58232e-05
2.58232e-05
2.58232e-05
2.58232e-05
2.58232e-05
2.58232e-05
2.58232e-05
2.58232e-05
2.58232e-05
2.58232e-05
2.58232e-05
2.58232e-05
2.58232e-05
2.58232e-05
2.58232e-05
2.58232e-05
2.58232e-05
2.58232e-05
2.58232e-05
2.58232e-05
2.58232e-05
2.58232e-05
2.58232e-05
2.58232e-05
2.58232e-05
2.58232e-05
2.58232e-05
2.58232e-05
2.58232e-05
2.58232e-05
2.58232e-05
2.58232e-05
2.58232e-05
2.58232e-05
2.58232e-05
2.58232e-05
2.58232e-05
2.58232e-05
2.58232e-05
2.58232e-05
2.58232e-05
2.58232e-05
2.58232e-05
2.58232e-05
2.58232e-05
2.58232e-05
2.58232e-05
2.58232e-05
2.58232e-05
2.58232e-05
2.58232e-05
2.58232e-05
2.58232e-05
2.58232e-05
2.58232e-05
2.58232e-05
2.58232e-05
2.58232e-05
2.58232e-05
2.58232e-05
2.58232e-05
2.58232e-05
2.58232e-05
2.58232e-05
3.32752e-05
4.42937e-05
4.81351e-05
5.10634e-05
5.29478e-05
5.38304e-05
5.44342e-05
5.48645e-05
5.52525e-05
5.55912e-05
5.59205e-05
5.62322e-05
5.65558e-05
5.68736e-05
5.71865e-05
5.75013e-05
5.78177e-05
5.81341e-05
5.84531e-05
5.87715e-05
5.90859e-05
5.93976e-05
5.97034e-05
6.00012e-05
6.02905e-05
6.05569e-05
6.07852e-05
6.09668e-05
6.11079e-05
6.12167e-05
6.13014e-05
6.13675e-05
6.14197e-05
6.1461e-05
6.14939e-05
6.15203e-05
6.15417e-05
6.15591e-05
6.15735e-05
6.15855e-05
6.15956e-05
6.16043e-05
6.16117e-05
6.16182e-05
6.16238e-05
6.16286e-05
6.1633e-05
6.16368e-05
6.16401e-05
6.16429e-05
6.16455e-05
6.16478e-05
6.16498e-05
6.16515e-05
6.16529e-05
6.16543e-05
6.16555e-05
6.16566e-05
6.16575e-05
6.16583e-05
6.1659e-05
6.16597e-05
6.16602e-05
6.16607e-05
6.16611e-05
6.16614e-05
6.16617e-05
6.1662e-05
6.16622e-05
6.16624e-05
6.16626e-05
6.16627e-05
6.16628e-05
6.1663e-05
6.1663e-05
6.16631e-05
6.16632e-05
6.16633e-05
6.16633e-05
6.16633e-05
6.16634e-05
6.16634e-05
6.16634e-05
6.16635e-05
6.16635e-05
6.16635e-05
6.16635e-05
6.16635e-05
6.16635e-05
6.16636e-05
6.16636e-05
6.16636e-05
6.16636e-05
6.16636e-05
6.16636e-05
6.16636e-05
6.16636e-05
6.16636e-05
6.16636e-05
6.16636e-05
6.16636e-05
6.16636e-05
6.16636e-05
6.16636e-05
6.16636e-05
6.16636e-05
6.16636e-05
6.16636e-05
6.16636e-05
6.16636e-05
6.16636e-05
6.16636e-05
6.16636e-05
6.16636e-05
6.16636e-05
6.16636e-05
6.16636e-05
6.16636e-05
6.16636e-05
6.16636e-05
6.16636e-05
6.16636e-05
6.16636e-05
6.16636e-05
6.16636e-05
6.16636e-05
6.16636e-05
6.16636e-05
6.16636e-05
6.16636e-05
6.16636e-05
6.16636e-05
6.16636e-05
6.16636e-05
6.16636e-05
6.16636e-05
6.16636e-05
6.16636e-05
6.16636e-05
6.16636e-05
6.16636e-05
6.16636e-05
6.16636e-05
6.16636e-05
6.16636e-05
6.16636e-05
6.16636e-05
6.16636e-05
6.16636e-05
6.16636e-05
6.16636e-05
6.16636e-05
6.16636e-05
6.16636e-05
6.16636e-05
6.16636e-05
6.16636e-05
6.16636e-05
6.16636e-05
6.16636e-05
6.16636e-05
6.16636e-05
6.16636e-05
6.16636e-05
6.16636e-05
6.16636e-05
6.16636e-05
6.16636e-05
6.16636e-05
6.16636e-05
6.16636e-05
6.16636e-05
6.16636e-05
6.16636e-05
6.16636e-05
6.16636e-05
6.16636e-05
6.16636e-05
6.16636e-05
6.16636e-05
6.16636e-05
6.16636e-05
6.16636e-05
6.16636e-05
6.16636e-05
6.16636e-05
6.16636e-05
6.16636e-05
6.16636e-05
6.16636e-05
6.16636e-05
6.16636e-05
6.16636e-05
6.16636e-05
6.16636e-05
6.16636e-05
6.16636e-05
6.16636e-05
6.16636e-05
6.16636e-05
6.16636e-05
6.16636e-05
6.16636e-05
6.16636e-05
6.16636e-05
6.16636e-05
6.16636e-05
6.16636e-05
6.16636e-05
6.16636e-05
6.16636e-05
6.16636e-05
6.16636e-05
6.16636e-05
6.16636e-05
6.16636e-05
6.16636e-05
6.16636e-05
6.16636e-05
6.16636e-05
6.16636e-05
6.16636e-05
6.16636e-05
6.16636e-05
6.16636e-05
6.16636e-05
6.16636e-05
6.16636e-05
6.16636e-05
6.16636e-05
6.16636e-05
6.16636e-05
6.16636e-05
6.16636e-05
6.16636e-05
6.16636e-05
6.16636e-05
6.16636e-05
6.16636e-05
6.16636e-05
6.16636e-05
6.16636e-05
6.16636e-05
6.16636e-05
6.16636e-05
6.16636e-05
6.16636e-05
6.16636e-05
6.16636e-05
6.16636e-05
6.16636e-05
6.16636e-05
6.16636e-05
6.16636e-05
6.16636e-05
6.16636e-05
6.16636e-05
6.16636e-05
6.16636e-05
6.16636e-05
6.16636e-05
6.16636e-05
6.16636e-05
6.16636e-05
6.16636e-05
6.16636e-05
6.16636e-05
6.16636e-05
6.16636e-05
6.16636e-05
6.16636e-05
6.16636e-05
6.16636e-05
6.16636e-05
6.16636e-05
6.16636e-05
6.16636e-05
6.16636e-05
6.16636e-05
6.16636e-05
6.16636e-05
6.16636e-05
6.16636e-05
6.16636e-05
6.16636e-05
6.16636e-05
6.16636e-05
6.16636e-05
6.16636e-05
6.16636e-05
6.16636e-05
6.16636e-05
6.16636e-05
6.16636e-05
6.16636e-05
6.16636e-05
6.16636e-05
6.16636e-05
6.16636e-05
6.16635e-05
3.02407e-05
4.78466e-05
5.63138e-05
6.60935e-05
7.3033e-05
7.64874e-05
7.89246e-05
8.07716e-05
8.22595e-05
8.35248e-05
8.46002e-05
8.55676e-05
8.6464e-05
8.72926e-05
8.8072e-05
8.88119e-05
8.95234e-05
9.02126e-05
9.08795e-05
9.15237e-05
9.21445e-05
9.27416e-05
9.33109e-05
9.38492e-05
9.43565e-05
9.48037e-05
9.51407e-05
9.53798e-05
9.55465e-05
9.56626e-05
9.57431e-05
9.57989e-05
9.58373e-05
9.58638e-05
9.5882e-05
9.58947e-05
9.59038e-05
9.59106e-05
9.5916e-05
9.59206e-05
9.59246e-05
9.59282e-05
9.59317e-05
9.59351e-05
9.59382e-05
9.5941e-05
9.59434e-05
9.5946e-05
9.59484e-05
9.59507e-05
9.59529e-05
9.59549e-05
9.59567e-05
9.59584e-05
9.59599e-05
9.59612e-05
9.59624e-05
9.59635e-05
9.59644e-05
9.59652e-05
9.5966e-05
9.59666e-05
9.59671e-05
9.59676e-05
9.5968e-05
9.59684e-05
9.59687e-05
9.59689e-05
9.59692e-05
9.59694e-05
9.59695e-05
9.59697e-05
9.59698e-05
9.59699e-05
9.597e-05
9.59701e-05
9.59702e-05
9.59702e-05
9.59703e-05
9.59703e-05
9.59704e-05
9.59704e-05
9.59704e-05
9.59705e-05
9.59705e-05
9.59705e-05
9.59705e-05
9.59705e-05
9.59705e-05
9.59705e-05
9.59705e-05
9.59706e-05
9.59706e-05
9.59706e-05
9.59706e-05
9.59706e-05
9.59706e-05
9.59706e-05
9.59706e-05
9.59706e-05
9.59706e-05
9.59706e-05
9.59706e-05
9.59706e-05
9.59706e-05
9.59706e-05
9.59706e-05
9.59706e-05
9.59706e-05
9.59706e-05
9.59706e-05
9.59706e-05
9.59706e-05
9.59706e-05
9.59706e-05
9.59706e-05
9.59706e-05
9.59706e-05
9.59706e-05
9.59706e-05
9.59706e-05
9.59706e-05
9.59706e-05
9.59706e-05
9.59706e-05
9.59706e-05
9.59706e-05
9.59706e-05
9.59706e-05
9.59706e-05
9.59706e-05
9.59706e-05
9.59706e-05
9.59706e-05
9.59706e-05
9.59706e-05
9.59706e-05
9.59706e-05
9.59706e-05
9.59706e-05
9.59706e-05
9.59706e-05
9.59706e-05
9.59706e-05
9.59706e-05
9.59706e-05
9.59706e-05
9.59706e-05
9.59706e-05
9.59706e-05
9.59706e-05
9.59706e-05
9.59706e-05
9.59706e-05
9.59706e-05
9.59706e-05
9.59706e-05
9.59706e-05
9.59706e-05
9.59706e-05
9.59706e-05
9.59706e-05
9.59706e-05
9.59706e-05
9.59706e-05
9.59706e-05
9.59706e-05
9.59706e-05
9.59706e-05
9.59706e-05
9.59706e-05
9.59706e-05
9.59706e-05
9.59706e-05
9.59706e-05
9.59706e-05
9.59706e-05
9.59706e-05
9.59706e-05
9.59706e-05
9.59706e-05
9.59706e-05
9.59706e-05
9.59706e-05
9.59706e-05
9.59706e-05
9.59706e-05
9.59706e-05
9.59706e-05
9.59706e-05
9.59706e-05
9.59706e-05
9.59706e-05
9.59706e-05
9.59706e-05
9.59706e-05
9.59706e-05
9.59706e-05
9.59706e-05
9.59706e-05
9.59706e-05
9.59706e-05
9.59706e-05
9.59706e-05
9.59706e-05
9.59706e-05
9.59706e-05
9.59706e-05
9.59706e-05
9.59706e-05
9.59706e-05
9.59706e-05
9.59706e-05
9.59706e-05
9.59706e-05
9.59706e-05
9.59706e-05
9.59706e-05
9.59706e-05
9.59706e-05
9.59706e-05
9.59706e-05
9.59706e-05
9.59706e-05
9.59706e-05
9.59706e-05
9.59706e-05
9.59706e-05
9.59706e-05
9.59706e-05
9.59706e-05
9.59706e-05
9.59706e-05
9.59706e-05
9.59706e-05
9.59706e-05
9.59706e-05
9.59706e-05
9.59706e-05
9.59706e-05
9.59706e-05
9.59706e-05
9.59706e-05
9.59706e-05
9.59706e-05
9.59706e-05
9.59706e-05
9.59706e-05
9.59706e-05
9.59706e-05
9.59706e-05
9.59706e-05
9.59706e-05
9.59706e-05
9.59706e-05
9.59706e-05
9.59706e-05
9.59706e-05
9.59706e-05
9.59706e-05
9.59706e-05
9.59706e-05
9.59706e-05
9.59706e-05
9.59706e-05
9.59706e-05
9.59706e-05
9.59706e-05
9.59706e-05
9.59706e-05
9.59706e-05
9.59706e-05
9.59706e-05
9.59706e-05
9.59706e-05
9.59706e-05
9.59706e-05
9.59706e-05
9.59706e-05
9.59706e-05
9.59706e-05
9.59706e-05
9.59706e-05
9.59706e-05
9.59706e-05
9.59706e-05
9.59706e-05
9.59706e-05
9.59706e-05
9.59706e-05
9.59706e-05
9.59706e-05
9.59706e-05
9.59706e-05
9.59706e-05
9.59706e-05
9.59706e-05
9.59706e-05
9.59706e-05
9.59705e-05
2.849e-05
4.16145e-05
5.2787e-05
6.66072e-05
7.8058e-05
8.68905e-05
9.3621e-05
9.78477e-05
0.000101288
0.00010418
0.000106616
0.00010873
0.000110625
0.000112339
0.000113899
0.000115341
0.000116689
0.00011796
0.000119162
0.000120299
0.00012137
0.000122378
0.000123317
0.000124184
0.000124978
0.000125646
0.000126124
0.000126443
0.000126647
0.000126773
0.000126845
0.000126882
0.000126897
0.000126897
0.00012689
0.000126879
0.000126866
0.000126854
0.000126843
0.000126834
0.000126827
0.000126821
0.000126817
0.000126814
0.000126812
0.000126811
0.00012681
0.00012681
0.000126811
0.000126812
0.000126813
0.000126814
0.000126815
0.000126817
0.000126818
0.000126819
0.00012682
0.000126821
0.000126822
0.000126823
0.000126824
0.000126824
0.000126825
0.000126825
0.000126826
0.000126826
0.000126826
0.000126827
0.000126827
0.000126827
0.000126827
0.000126828
0.000126828
0.000126828
0.000126828
0.000126828
0.000126828
0.000126828
0.000126828
0.000126828
0.000126828
0.000126828
0.000126828
0.000126828
0.000126828
0.000126828
0.000126828
0.000126828
0.000126828
0.000126828
0.000126828
0.000126828
0.000126828
0.000126828
0.000126828
0.000126828
0.000126828
0.000126828
0.000126828
0.000126828
0.000126828
0.000126828
0.000126828
0.000126828
0.000126828
0.000126828
0.000126828
0.000126828
0.000126828
0.000126828
0.000126828
0.000126828
0.000126828
0.000126828
0.000126828
0.000126828
0.000126828
0.000126828
0.000126828
0.000126828
0.000126828
0.000126828
0.000126828
0.000126828
0.000126828
0.000126828
0.000126828
0.000126828
0.000126828
0.000126828
0.000126828
0.000126828
0.000126828
0.000126828
0.000126828
0.000126828
0.000126828
0.000126828
0.000126828
0.000126828
0.000126828
0.000126828
0.000126828
0.000126828
0.000126828
0.000126828
0.000126828
0.000126828
0.000126828
0.000126828
0.000126828
0.000126828
0.000126828
0.000126828
0.000126828
0.000126828
0.000126828
0.000126828
0.000126828
0.000126828
0.000126828
0.000126828
0.000126828
0.000126828
0.000126828
0.000126828
0.000126828
0.000126828
0.000126828
0.000126828
0.000126828
0.000126828
0.000126828
0.000126828
0.000126828
0.000126828
0.000126828
0.000126828
0.000126828
0.000126828
0.000126828
0.000126828
0.000126828
0.000126828
0.000126828
0.000126828
0.000126828
0.000126828
0.000126828
0.000126828
0.000126828
0.000126828
0.000126828
0.000126828
0.000126828
0.000126828
0.000126828
0.000126828
0.000126828
0.000126828
0.000126828
0.000126828
0.000126828
0.000126828
0.000126828
0.000126828
0.000126828
0.000126828
0.000126828
0.000126828
0.000126828
0.000126828
0.000126828
0.000126828
0.000126828
0.000126828
0.000126828
0.000126828
0.000126828
0.000126828
0.000126828
0.000126828
0.000126828
0.000126828
0.000126828
0.000126828
0.000126828
0.000126828
0.000126828
0.000126828
0.000126828
0.000126828
0.000126828
0.000126828
0.000126828
0.000126828
0.000126828
0.000126828
0.000126828
0.000126828
0.000126828
0.000126828
0.000126828
0.000126828
0.000126828
0.000126828
0.000126828
0.000126828
0.000126828
0.000126828
0.000126828
0.000126828
0.000126828
0.000126828
0.000126828
0.000126828
0.000126828
0.000126828
0.000126828
0.000126828
0.000126828
0.000126828
0.000126828
0.000126828
0.000126828
0.000126828
0.000126828
0.000126828
0.000126828
0.000126828
0.000126828
0.000126828
0.000126828
0.000126828
0.000126828
0.000126828
0.000126828
0.000126828
0.000126828
0.000126828
0.000126828
0.000126828
0.000126828
0.000126828
0.000126828
0.000126828
0.000126828
0.000126828
0.000126828
0.000126828
0.000126828
0.000126828
0.000126828
0.000126828
0.000126828
0.000126828
0.000126828
0.000126828
0.000126828
0.000126828
2.95531e-05
3.55155e-05
4.94127e-05
6.09682e-05
7.24879e-05
8.47489e-05
9.54576e-05
0.00010415
0.000111257
0.000117165
0.000121426
0.000125131
0.000128416
0.000131364
0.000134017
0.000136433
0.000138663
0.000140734
0.000142666
0.000144468
0.000146144
0.000147701
0.000149131
0.000150432
0.000151601
0.000152564
0.000153255
0.000153724
0.00015403
0.000154221
0.000154332
0.000154391
0.000154416
0.000154419
0.000154411
0.000154396
0.00015438
0.000154364
0.00015435
0.000154338
0.000154328
0.000154321
0.000154316
0.000154313
0.000154311
0.00015431
0.00015431
0.000154311
0.000154313
0.000154315
0.000154317
0.00015432
0.000154322
0.000154325
0.000154327
0.000154329
0.000154331
0.000154333
0.000154335
0.000154336
0.000154337
0.000154338
0.000154339
0.00015434
0.000154341
0.000154341
0.000154342
0.000154343
0.000154343
0.000154343
0.000154344
0.000154344
0.000154344
0.000154344
0.000154344
0.000154344
0.000154344
0.000154345
0.000154345
0.000154345
0.000154345
0.000154345
0.000154345
0.000154345
0.000154345
0.000154345
0.000154345
0.000154345
0.000154345
0.000154345
0.000154345
0.000154345
0.000154345
0.000154345
0.000154345
0.000154345
0.000154345
0.000154345
0.000154345
0.000154345
0.000154345
0.000154345
0.000154345
0.000154345
0.000154345
0.000154345
0.000154345
0.000154345
0.000154345
0.000154345
0.000154345
0.000154345
0.000154345
0.000154345
0.000154345
0.000154345
0.000154345
0.000154345
0.000154345
0.000154345
0.000154345
0.000154345
0.000154345
0.000154345
0.000154345
0.000154345
0.000154345
0.000154345
0.000154345
0.000154345
0.000154345
0.000154345
0.000154345
0.000154345
0.000154345
0.000154345
0.000154345
0.000154345
0.000154345
0.000154345
0.000154345
0.000154345
0.000154345
0.000154345
0.000154345
0.000154345
0.000154345
0.000154345
0.000154345
0.000154345
0.000154345
0.000154345
0.000154345
0.000154345
0.000154345
0.000154345
0.000154345
0.000154345
0.000154345
0.000154345
0.000154345
0.000154345
0.000154345
0.000154345
0.000154345
0.000154345
0.000154345
0.000154345
0.000154345
0.000154345
0.000154345
0.000154345
0.000154345
0.000154345
0.000154345
0.000154345
0.000154345
0.000154345
0.000154345
0.000154345
0.000154345
0.000154345
0.000154345
0.000154345
0.000154345
0.000154345
0.000154345
0.000154345
0.000154345
0.000154345
0.000154345
0.000154345
0.000154345
0.000154345
0.000154345
0.000154345
0.000154345
0.000154345
0.000154345
0.000154345
0.000154345
0.000154345
0.000154345
0.000154345
0.000154345
0.000154345
0.000154345
0.000154345
0.000154345
0.000154345
0.000154345
0.000154345
0.000154345
0.000154345
0.000154345
0.000154345
0.000154345
0.000154345
0.000154345
0.000154345
0.000154345
0.000154345
0.000154345
0.000154345
0.000154345
0.000154345
0.000154345
0.000154345
0.000154345
0.000154345
0.000154345
0.000154345
0.000154345
0.000154345
0.000154345
0.000154345
0.000154345
0.000154345
0.000154345
0.000154345
0.000154345
0.000154345
0.000154345
0.000154345
0.000154345
0.000154345
0.000154345
0.000154345
0.000154345
0.000154345
0.000154345
0.000154345
0.000154345
0.000154345
0.000154345
0.000154345
0.000154345
0.000154345
0.000154345
0.000154345
0.000154345
0.000154345
0.000154345
0.000154345
0.000154345
0.000154345
0.000154345
0.000154345
0.000154345
0.000154345
0.000154345
0.000154345
0.000154345
0.000154345
0.000154345
0.000154345
0.000154345
0.000154345
0.000154345
0.000154345
0.000154345
0.000154345
0.000154345
0.000154345
0.000154345
0.000154345
0.000154345
0.000154345
0.000154345
0.000154345
0.000154345
0.000154345
0.000154345
0.000154345
0.000154345
0.000154345
0.000154345
0.000154345
0.000154345
0.000154345
3.56062e-05
3.27173e-05
4.079e-05
5.45812e-05
6.35661e-05
7.59584e-05
8.83269e-05
9.99696e-05
0.000110315
0.000119322
0.000126943
0.000133483
0.000139247
0.000144078
0.000148088
0.000151729
0.000155069
0.000158156
0.000161014
0.000163655
0.000166093
0.000168341
0.000170391
0.000172242
0.000173893
0.000175265
0.000176285
0.000177017
0.000177531
0.000177884
0.000178123
0.000178281
0.000178384
0.000178451
0.000178494
0.000178522
0.000178541
0.000178555
0.000178566
0.000178576
0.000178586
0.000178595
0.000178606
0.000178616
0.000178625
0.000178635
0.000178644
0.000178653
0.000178662
0.000178671
0.000178679
0.000178687
0.000178694
0.000178701
0.000178707
0.000178712
0.000178717
0.000178722
0.000178725
0.000178729
0.000178732
0.000178734
0.000178736
0.000178738
0.00017874
0.000178742
0.000178743
0.000178744
0.000178745
0.000178746
0.000178746
0.000178747
0.000178747
0.000178748
0.000178748
0.000178748
0.000178749
0.000178749
0.000178749
0.000178749
0.00017875
0.00017875
0.00017875
0.00017875
0.00017875
0.00017875
0.00017875
0.00017875
0.00017875
0.00017875
0.00017875
0.00017875
0.00017875
0.00017875
0.00017875
0.00017875
0.00017875
0.00017875
0.00017875
0.00017875
0.00017875
0.00017875
0.00017875
0.00017875
0.00017875
0.00017875
0.00017875
0.00017875
0.00017875
0.00017875
0.00017875
0.00017875
0.00017875
0.00017875
0.00017875
0.00017875
0.00017875
0.00017875
0.00017875
0.00017875
0.00017875
0.00017875
0.00017875
0.00017875
0.00017875
0.00017875
0.00017875
0.00017875
0.00017875
0.00017875
0.00017875
0.00017875
0.00017875
0.00017875
0.00017875
0.00017875
0.00017875
0.00017875
0.00017875
0.00017875
0.00017875
0.00017875
0.00017875
0.00017875
0.00017875
0.00017875
0.00017875
0.00017875
0.00017875
0.00017875
0.00017875
0.00017875
0.00017875
0.00017875
0.00017875
0.00017875
0.00017875
0.00017875
0.00017875
0.00017875
0.00017875
0.00017875
0.00017875
0.00017875
0.00017875
0.00017875
0.00017875
0.00017875
0.00017875
0.00017875
0.00017875
0.00017875
0.00017875
0.00017875
0.00017875
0.00017875
0.00017875
0.00017875
0.00017875
0.00017875
0.00017875
0.00017875
0.00017875
0.00017875
0.00017875
0.00017875
0.00017875
0.00017875
0.00017875
0.00017875
0.00017875
0.00017875
0.00017875
0.00017875
0.00017875
0.00017875
0.00017875
0.00017875
0.00017875
0.00017875
0.00017875
0.00017875
0.00017875
0.00017875
0.00017875
0.00017875
0.00017875
0.00017875
0.00017875
0.00017875
0.00017875
0.00017875
0.00017875
0.00017875
0.00017875
0.00017875
0.00017875
0.00017875
0.00017875
0.00017875
0.00017875
0.00017875
0.00017875
0.00017875
0.00017875
0.00017875
0.00017875
0.00017875
0.00017875
0.00017875
0.00017875
0.00017875
0.00017875
0.00017875
0.00017875
0.00017875
0.00017875
0.00017875
0.00017875
0.00017875
0.00017875
0.00017875
0.00017875
0.00017875
0.00017875
0.00017875
0.00017875
0.00017875
0.00017875
0.00017875
0.00017875
0.00017875
0.00017875
0.00017875
0.00017875
0.00017875
0.00017875
0.00017875
0.00017875
0.00017875
0.00017875
0.00017875
0.00017875
0.00017875
0.00017875
0.00017875
0.00017875
0.00017875
0.00017875
0.00017875
0.00017875
0.00017875
0.00017875
0.00017875
0.00017875
0.00017875
0.00017875
0.00017875
0.00017875
0.00017875
0.00017875
0.00017875
0.00017875
0.00017875
0.00017875
0.00017875
0.00017875
0.00017875
0.00017875
0.00017875
0.00017875
0.00017875
0.00017875
0.00017875
0.00017875
0.00017875
0.00017875
0.00017875
0.00017875
0.00017875
5.02001e-05
3.47688e-05
3.53075e-05
4.4247e-05
5.71741e-05
6.71482e-05
7.76745e-05
8.9758e-05
0.000101888
0.000113081
0.000123446
0.0001326
0.000140816
0.000148078
0.000154405
0.000159959
0.000165069
0.000169876
0.000174083
0.00017772
0.00018107
0.000184148
0.000186946
0.00018947
0.000191739
0.000193687
0.000195192
0.000196333
0.000197191
0.000197833
0.000198315
0.000198678
0.000198955
0.00019917
0.000199338
0.000199474
0.000199584
0.000199677
0.000199756
0.000199825
0.000199885
0.000199938
0.000199986
0.00020003
0.000200068
0.000200102
0.000200132
0.000200161
0.000200187
0.00020021
0.000200231
0.000200251
0.000200268
0.000200283
0.000200297
0.000200309
0.000200319
0.000200329
0.000200337
0.000200344
0.00020035
0.000200355
0.00020036
0.000200364
0.000200368
0.000200371
0.000200374
0.000200376
0.000200378
0.00020038
0.000200381
0.000200382
0.000200383
0.000200384
0.000200385
0.000200386
0.000200386
0.000200387
0.000200387
0.000200388
0.000200388
0.000200388
0.000200389
0.000200389
0.000200389
0.000200389
0.00020039
0.00020039
0.00020039
0.00020039
0.00020039
0.00020039
0.00020039
0.00020039
0.00020039
0.00020039
0.00020039
0.00020039
0.00020039
0.00020039
0.00020039
0.00020039
0.00020039
0.00020039
0.00020039
0.00020039
0.00020039
0.00020039
0.00020039
0.00020039
0.00020039
0.00020039
0.00020039
0.00020039
0.00020039
0.00020039
0.00020039
0.00020039
0.00020039
0.00020039
0.00020039
0.00020039
0.00020039
0.00020039
0.00020039
0.00020039
0.00020039
0.00020039
0.00020039
0.00020039
0.00020039
0.00020039
0.00020039
0.00020039
0.00020039
0.00020039
0.00020039
0.00020039
0.00020039
0.00020039
0.00020039
0.00020039
0.00020039
0.00020039
0.00020039
0.00020039
0.00020039
0.00020039
0.00020039
0.00020039
0.00020039
0.00020039
0.00020039
0.00020039
0.00020039
0.00020039
0.00020039
0.00020039
0.00020039
0.00020039
0.00020039
0.00020039
0.00020039
0.00020039
0.00020039
0.00020039
0.00020039
0.00020039
0.00020039
0.00020039
0.00020039
0.00020039
0.00020039
0.00020039
0.00020039
0.00020039
0.00020039
0.00020039
0.00020039
0.00020039
0.00020039
0.00020039
0.00020039
0.00020039
0.00020039
0.00020039
0.00020039
0.00020039
0.00020039
0.00020039
0.00020039
0.00020039
0.00020039
0.00020039
0.00020039
0.00020039
0.00020039
0.00020039
0.00020039
0.00020039
0.00020039
0.00020039
0.00020039
0.00020039
0.00020039
0.00020039
0.00020039
0.00020039
0.00020039
0.00020039
0.00020039
0.00020039
0.00020039
0.00020039
0.00020039
0.00020039
0.00020039
0.00020039
0.00020039
0.00020039
0.00020039
0.00020039
0.00020039
0.00020039
0.00020039
0.00020039
0.00020039
0.00020039
0.00020039
0.00020039
0.00020039
0.00020039
0.00020039
0.00020039
0.00020039
0.00020039
0.00020039
0.00020039
0.00020039
0.00020039
0.00020039
0.00020039
0.00020039
0.00020039
0.00020039
0.00020039
0.00020039
0.00020039
0.00020039
0.00020039
0.00020039
0.00020039
0.00020039
0.00020039
0.00020039
0.00020039
0.00020039
0.00020039
0.00020039
0.00020039
0.00020039
0.00020039
0.00020039
0.00020039
0.00020039
0.00020039
0.00020039
0.00020039
0.00020039
0.00020039
0.00020039
0.00020039
0.00020039
0.00020039
0.00020039
0.00020039
0.00020039
0.00020039
0.00020039
0.00020039
0.00020039
0.00020039
0.00020039
0.00020039
0.00020039
0.00020039
0.00020039
0.00020039
0.00020039
0.00020039
0.00020039
0.00020039
0.00020039
0.00020039
0.00020039
0.00020039
0.00020039
0.00020039
0.00020039
0.00020039
7.75725e-05
4.52477e-05
3.68787e-05
3.85205e-05
4.74103e-05
6.0312e-05
6.85476e-05
7.89397e-05
9.01385e-05
0.000101796
0.000113703
0.000124718
0.000135057
0.000144468
0.00015305
0.000160718
0.000167504
0.000173918
0.000179763
0.000185034
0.000189819
0.000193959
0.000197613
0.000200602
0.000203851
0.000207935
0.000210095
0.000211805
0.000213158
0.000214232
0.000215091
0.000215782
0.000216345
0.000216807
0.000217191
0.000217512
0.000217783
0.000218014
0.000218212
0.000218384
0.000218533
0.000218663
0.000218778
0.000218878
0.000218966
0.000219043
0.000219111
0.000219172
0.000219226
0.000219274
0.000219316
0.000219354
0.000219387
0.000219417
0.000219443
0.000219465
0.000219485
0.000219502
0.000219517
0.00021953
0.000219542
0.000219552
0.00021956
0.000219568
0.000219574
0.00021958
0.000219585
0.000219589
0.000219593
0.000219596
0.000219598
0.000219601
0.000219603
0.000219605
0.000219606
0.000219607
0.000219608
0.000219609
0.00021961
0.000219611
0.000219611
0.000219612
0.000219612
0.000219613
0.000219613
0.000219613
0.000219614
0.000219614
0.000219614
0.000219614
0.000219615
0.000219615
0.000219615
0.000219615
0.000219615
0.000219615
0.000219615
0.000219615
0.000219615
0.000219615
0.000219615
0.000219615
0.000219615
0.000219615
0.000219615
0.000219615
0.000219615
0.000219615
0.000219615
0.000219615
0.000219615
0.000219615
0.000219615
0.000219615
0.000219615
0.000219615
0.000219615
0.000219615
0.000219615
0.000219615
0.000219615
0.000219615
0.000219615
0.000219615
0.000219615
0.000219615
0.000219615
0.000219615
0.000219615
0.000219615
0.000219615
0.000219615
0.000219615
0.000219615
0.000219615
0.000219615
0.000219615
0.000219615
0.000219615
0.000219615
0.000219615
0.000219615
0.000219615
0.000219615
0.000219615
0.000219615
0.000219615
0.000219615
0.000219615
0.000219615
0.000219615
0.000219615
0.000219615
0.000219615
0.000219615
0.000219615
0.000219615
0.000219615
0.000219615
0.000219615
0.000219615
0.000219615
0.000219615
0.000219615
0.000219615
0.000219615
0.000219615
0.000219615
0.000219615
0.000219615
0.000219615
0.000219615
0.000219615
0.000219615
0.000219615
0.000219615
0.000219615
0.000219615
0.000219615
0.000219615
0.000219615
0.000219615
0.000219615
0.000219615
0.000219615
0.000219615
0.000219615
0.000219615
0.000219615
0.000219615
0.000219615
0.000219615
0.000219615
0.000219615
0.000219615
0.000219615
0.000219615
0.000219615
0.000219615
0.000219615
0.000219615
0.000219615
0.000219615
0.000219615
0.000219615
0.000219615
0.000219615
0.000219615
0.000219615
0.000219615
0.000219615
0.000219615
0.000219615
0.000219615
0.000219615
0.000219615
0.000219615
0.000219615
0.000219615
0.000219615
0.000219615
0.000219615
0.000219615
0.000219615
0.000219615
0.000219615
0.000219615
0.000219615
0.000219615
0.000219615
0.000219615
0.000219615
0.000219615
0.000219615
0.000219615
0.000219615
0.000219615
0.000219615
0.000219615
0.000219615
0.000219615
0.000219615
0.000219615
0.000219615
0.000219615
0.000219615
0.000219615
0.000219615
0.000219615
0.000219615
0.000219615
0.000219615
0.000219615
0.000219615
0.000219615
0.000219615
0.000219615
0.000219615
0.000219615
0.000219615
0.000219615
0.000219615
0.000219615
0.000219615
0.000219615
0.000219615
0.000219615
0.000219615
0.000219615
0.000219615
0.000219615
0.000219615
0.000219615
0.000219615
0.000219615
0.000219615
0.000219615
0.000219615
0.000219615
0.000219615
0.000219615
0.000219615
0.000219615
0.000219615
0.000219615
0.000219615
0.000219615
0.000219615
0.000219615
0.000219615
0.000219615
0.000219615
0.000219615
0.000219615
0.000219615
0.000219615
0.000219615
0.000219615
0.000219615
0.000219615
0.000128369
6.66545e-05
4.81054e-05
4.04769e-05
4.18093e-05
5.00049e-05
6.18347e-05
7.11576e-05
7.98507e-05
8.99175e-05
0.000101121
0.000112543
0.000124118
0.000135021
0.000145428
0.000155058
0.000163708
0.000171588
0.000178873
0.000185714
0.000191837
0.000197024
0.000201689
0.000206001
0.000211874
0.000218255
0.000221222
0.000223656
0.000225659
0.000227315
0.000228691
0.00022984
0.000230807
0.000231624
0.000232317
0.000232908
0.000233413
0.000233847
0.000234221
0.000234544
0.000234824
0.000235068
0.00023528
0.000235465
0.000235625
0.000235765
0.000235887
0.000235995
0.00023609
0.000236173
0.000236247
0.000236311
0.000236367
0.000236417
0.00023646
0.000236497
0.00023653
0.000236559
0.000236584
0.000236605
0.000236624
0.00023664
0.000236654
0.000236667
0.000236677
0.000236686
0.000236694
0.000236701
0.000236707
0.000236712
0.000236716