/*--------------------------------*- C++ -*----------------------------------*\
| =========                 |                                                 |
| \\      /  F ield         | foam-extend: Open Source CFD                    |
|  \\    /   O peration     | Version:     3.2                                |
|   \\  /    A nd           | Web:         http://www.foam-extend.org         |
|    \\/     M anipulation  | For copyright notice see file Copyright         |
\*---------------------------------------------------------------------------*/
FoamFile
{
    version     2.0;
    format      ascii;
    class       areaScalarField;
    location    "91";
    object      Fi;
}
// * * * * * * * * * * * * * * * * * * * * * * * * * * * * * * * * * * * * * //

dimensions      [0 1 -1 0 0 0 0];

internalField   nonuniform List<scalar> 
300
(
-0.000115027
-5.25054e-05
-2.90138e-05
-2.82775e-05
-2.66751e-05
-2.62364e-05
-2.54707e-05
-2.52707e-05
-2.50304e-05
-2.50745e-05
-2.51588e-05
-2.53427e-05
-2.55937e-05
-2.59119e-05
-2.62673e-05
-2.66672e-05
-2.71087e-05
-2.75842e-05
-2.80719e-05
-2.85997e-05
-2.91658e-05
-2.97514e-05
-3.03605e-05
-3.09809e-05
-3.16115e-05
-3.22598e-05
-3.28713e-05
-3.34124e-05
-3.38706e-05
-3.42577e-05
-3.45806e-05
-3.48511e-05
-3.5076e-05
-3.52638e-05
-3.54198e-05
-3.555e-05
-3.56583e-05
-3.5749e-05
-3.58249e-05
-3.58888e-05
-3.59426e-05
-3.59882e-05
-3.60271e-05
-3.60606e-05
-3.60893e-05
-3.61133e-05
-3.61337e-05
-3.61503e-05
-3.61654e-05
-3.61785e-05
-3.61899e-05
-3.61998e-05
-3.62086e-05
-3.62161e-05
-3.62228e-05
-3.62285e-05
-3.62335e-05
-3.62378e-05
-3.62416e-05
-3.62449e-05
-3.62477e-05
-3.62502e-05
-3.62524e-05
-3.62542e-05
-3.62559e-05
-3.62572e-05
-3.62585e-05
-3.62595e-05
-3.62604e-05
-3.62612e-05
-3.62624e-05
-3.62629e-05
-3.62633e-05
-3.62637e-05
-3.6264e-05
-3.62643e-05
-3.62646e-05
-3.62648e-05
-3.6265e-05
-3.62651e-05
-3.62653e-05
-3.62654e-05
-3.62655e-05
-3.62656e-05
-3.62656e-05
-3.62657e-05
-3.62658e-05
-3.62658e-05
-3.62658e-05
-3.62659e-05
-3.62659e-05
-3.62659e-05
-3.6266e-05
-3.6266e-05
-3.6266e-05
-3.6266e-05
-3.6266e-05
-3.6266e-05
-3.6266e-05
-3.62661e-05
-3.62661e-05
-3.62661e-05
-3.62661e-05
-3.62661e-05
-3.62661e-05
-3.62661e-05
-3.62661e-05
-3.62661e-05
-3.62661e-05
-3.62661e-05
-3.62661e-05
-3.62661e-05
-3.62661e-05
-3.62661e-05
-3.62661e-05
-3.62661e-05
-3.62661e-05
-3.62661e-05
-3.62661e-05
-3.62661e-05
-3.62661e-05
-3.62661e-05
-3.62661e-05
-3.62661e-05
-3.62661e-05
-3.62661e-05
-3.62661e-05
-3.62661e-05
-3.62661e-05
-3.62661e-05
-3.62661e-05
-3.62661e-05
-3.62661e-05
-3.62661e-05
-3.62661e-05
-3.62661e-05
-3.62661e-05
-3.62661e-05
-3.62661e-05
-3.62661e-05
-3.62661e-05
-3.62661e-05
-3.62661e-05
-3.62661e-05
-3.62661e-05
-3.62661e-05
-3.62661e-05
-3.62661e-05
-3.62661e-05
-3.62661e-05
-3.62661e-05
-3.62661e-05
-3.62661e-05
-3.62661e-05
-3.62661e-05
-3.62661e-05
-3.62661e-05
-3.62661e-05
-3.62661e-05
-3.62661e-05
-3.62661e-05
-3.62661e-05
-3.62661e-05
-3.62661e-05
-3.62661e-05
-3.62661e-05
-3.62661e-05
-3.62661e-05
-3.62661e-05
-3.62661e-05
-3.62661e-05
-3.62661e-05
-3.62661e-05
-3.62661e-05
-3.62661e-05
-3.62661e-05
-3.62661e-05
-3.62661e-05
-3.62661e-05
-3.62661e-05
-3.62661e-05
-3.62661e-05
-3.62661e-05
-3.62661e-05
-3.62661e-05
-3.62661e-05
-3.62661e-05
-3.62661e-05
-3.62661e-05
-3.62661e-05
-3.62661e-05
-3.62661e-05
-3.62661e-05
-3.62661e-05
-3.62661e-05
-3.62661e-05
-3.62661e-05
-3.62661e-05
-3.62661e-05
-3.62661e-05
-3.62661e-05
-3.62661e-05
-3.62661e-05
-3.62661e-05
-3.62661e-05
-3.62661e-05
-3.62661e-05
-3.62661e-05
-3.62661e-05
-3.62661e-05
-3.62661e-05
-3.62661e-05
-3.62661e-05
-3.62661e-05
-3.62661e-05
-3.62661e-05
-3.62661e-05
-3.62661e-05
-3.62661e-05
-3.62661e-05
-3.62661e-05
-3.62661e-05
-3.62661e-05
-3.62661e-05
-3.62661e-05
-3.62661e-05
-3.62661e-05
-3.62661e-05
-3.62661e-05
-3.62661e-05
-3.62661e-05
-3.62661e-05
-3.62661e-05
-3.62661e-05
-3.62661e-05
-3.62661e-05
-3.62661e-05
-3.62661e-05
-3.62661e-05
-3.62661e-05
-3.62661e-05
-3.62661e-05
-3.62661e-05
-3.62661e-05
-3.62661e-05
-3.62661e-05
-3.62661e-05
-3.62661e-05
-3.62661e-05
-3.62661e-05
-3.62661e-05
-3.62661e-05
-3.62661e-05
-3.62661e-05
-3.62661e-05
-3.62661e-05
-3.62661e-05
-3.62661e-05
-3.62661e-05
-3.62661e-05
-3.62661e-05
-3.62661e-05
-3.62661e-05
-3.62661e-05
-3.62661e-05
-3.62661e-05
-3.62661e-05
-3.62661e-05
-3.62661e-05
-3.62661e-05
-3.62661e-05
-3.62661e-05
-3.62661e-05
-3.62661e-05
-3.62661e-05
-3.62661e-05
-3.62661e-05
-3.62661e-05
-3.62661e-05
-3.62661e-05
-3.62661e-05
-3.62661e-05
-3.62661e-05
-3.62661e-05
-3.62661e-05
-3.62661e-05
-3.62661e-05
-3.62661e-05
-3.62661e-05
-3.62661e-05
-3.62661e-05
-3.62661e-05
-3.62661e-05
-3.62661e-05
-3.62661e-05
-3.62661e-05
-3.62661e-05
-3.62661e-05
-3.62662e-05
-3.6266e-05
)
;

boundaryField
{
    inlet
    {
        type            calculated;
        value           uniform -0.000281534;
    }
    outlet
    {
        type            calculated;
        value           uniform -0.000105843;
    }
    sideWall
    {
        type            empty;
    }
}


// ************************************************************************* //
