/*--------------------------------*- C++ -*----------------------------------*\
| =========                 |                                                 |
| \\      /  F ield         | foam-extend: Open Source CFD                    |
|  \\    /   O peration     | Version:     3.2                                |
|   \\  /    A nd           | Web:         http://www.foam-extend.org         |
|    \\/     M anipulation  | For copyright notice see file Copyright         |
\*---------------------------------------------------------------------------*/
FoamFile
{
    version     2.0;
    format      ascii;
    class       pointVectorField;
    location    "91";
    object      newPoints;
}
// * * * * * * * * * * * * * * * * * * * * * * * * * * * * * * * * * * * * * //

dimensions      [0 1 0 0 0 0 0];

internalField   nonuniform List<vector> 
602
(
(0 0 0)
(0.05 0 -0.00025)
(0.1 0 -0.0005)
(0.15 0 -0.00075)
(0.2 0 -0.001)
(0.25 0 -0.00125)
(0.3 0 -0.0015)
(0.35 0 -0.00175)
(0.4 0 -0.002)
(0.45 0 -0.00225)
(0.5 0 -0.0025)
(0.55 0 -0.00275)
(0.6 0 -0.003)
(0.65 0 -0.00325)
(0.7 0 -0.0035)
(0.75 0 -0.00375)
(0.8 0 -0.004)
(0.85 0 -0.00425)
(0.9 0 -0.0045)
(0.95 0 -0.00475)
(1 0 -0.005)
(1.05 0 -0.00525)
(1.1 0 -0.0055)
(1.15 0 -0.00575)
(1.2 0 -0.006)
(1.25 0 -0.00625)
(1.3 0 -0.0065)
(1.35 0 -0.00675)
(1.4 0 -0.007)
(1.45 0 -0.00725)
(1.5 0 -0.0075)
(1.55 0 -0.00775)
(1.6 0 -0.008)
(1.65 0 -0.00825)
(1.7 0 -0.0085)
(1.75 0 -0.00875)
(1.8 0 -0.009)
(1.85 0 -0.00925)
(1.9 0 -0.0095)
(1.95 0 -0.00975)
(2 0 -0.01)
(2.05 0 -0.01025)
(2.1 0 -0.0105)
(2.15 0 -0.01075)
(2.2 0 -0.011)
(2.25 0 -0.01125)
(2.3 0 -0.0115)
(2.35 0 -0.01175)
(2.4 0 -0.012)
(2.45 0 -0.01225)
(2.5 0 -0.0125)
(2.55 0 -0.01275)
(2.6 0 -0.013)
(2.65 0 -0.01325)
(2.7 0 -0.0135)
(2.75 0 -0.01375)
(2.8 0 -0.014)
(2.85 0 -0.01425)
(2.9 0 -0.0145)
(2.95 0 -0.01475)
(3 0 -0.015)
(3.05 0 -0.01525)
(3.1 0 -0.0155)
(3.15 0 -0.01575)
(3.2 0 -0.016)
(3.25 0 -0.01625)
(3.3 0 -0.0165)
(3.35 0 -0.01675)
(3.4 0 -0.017)
(3.45 0 -0.01725)
(3.5 0 -0.0175)
(3.55 0 -0.01775)
(3.6 0 -0.018)
(3.65 0 -0.01825)
(3.7 0 -0.0185)
(3.75 0 -0.01875)
(3.8 0 -0.019)
(3.85 0 -0.01925)
(3.9 0 -0.0195)
(3.95 0 -0.01975)
(4 0 -0.02)
(4.05 0 -0.02025)
(4.1 0 -0.0205)
(4.15 0 -0.02075)
(4.2 0 -0.021)
(4.25 0 -0.02125)
(4.3 0 -0.0215)
(4.35 0 -0.02175)
(4.4 0 -0.022)
(4.45 0 -0.02225)
(4.5 0 -0.0225)
(4.55 0 -0.02275)
(4.6 0 -0.023)
(4.65 0 -0.02325)
(4.7 0 -0.0235)
(4.75 0 -0.02375)
(4.8 0 -0.024)
(4.85 0 -0.02425)
(4.9 0 -0.0245)
(4.95 0 -0.02475)
(5 0 -0.025)
(5.05 0 -0.02525)
(5.1 0 -0.0255)
(5.15 0 -0.02575)
(5.2 0 -0.026)
(5.25 0 -0.02625)
(5.3 0 -0.0265)
(5.35 0 -0.02675)
(5.4 0 -0.027)
(5.45 0 -0.02725)
(5.5 0 -0.0275)
(5.55 0 -0.02775)
(5.6 0 -0.028)
(5.65 0 -0.02825)
(5.7 0 -0.0285)
(5.75 0 -0.02875)
(5.8 0 -0.029)
(5.85 0 -0.02925)
(5.9 0 -0.0295)
(5.95 0 -0.02975)
(6 0 -0.03)
(6.05 0 -0.03025)
(6.1 0 -0.0305)
(6.15 0 -0.03075)
(6.2 0 -0.031)
(6.25 0 -0.03125)
(6.3 0 -0.0315)
(6.35 0 -0.03175)
(6.4 0 -0.032)
(6.45 0 -0.03225)
(6.5 0 -0.0325)
(6.55 0 -0.03275)
(6.6 0 -0.033)
(6.65 0 -0.03325)
(6.7 0 -0.0335)
(6.75 0 -0.03375)
(6.8 0 -0.034)
(6.85 0 -0.03425)
(6.9 0 -0.0345)
(6.95 0 -0.03475)
(7 0 -0.035)
(7.05 0 -0.03525)
(7.1 0 -0.0355)
(7.15 0 -0.03575)
(7.2 0 -0.036)
(7.25 0 -0.03625)
(7.3 0 -0.0365)
(7.35 0 -0.03675)
(7.4 0 -0.037)
(7.45 0 -0.03725)
(7.5 0 -0.0375)
(7.55 0 -0.03775)
(7.6 0 -0.038)
(7.65 0 -0.03825)
(7.7 0 -0.0385)
(7.75 0 -0.03875)
(7.8 0 -0.039)
(7.85 0 -0.03925)
(7.9 0 -0.0395)
(7.95 0 -0.03975)
(8 0 -0.04)
(8.05 0 -0.04025)
(8.1 0 -0.0405)
(8.15 0 -0.04075)
(8.2 0 -0.041)
(8.25 0 -0.04125)
(8.3 0 -0.0415)
(8.35 0 -0.04175)
(8.4 0 -0.042)
(8.45 0 -0.04225)
(8.5 0 -0.0425)
(8.55 0 -0.04275)
(8.6 0 -0.043)
(8.65 0 -0.04325)
(8.7 0 -0.0435)
(8.75 0 -0.04375)
(8.8 0 -0.044)
(8.85 0 -0.04425)
(8.9 0 -0.0445)
(8.95 0 -0.04475)
(9 0 -0.045)
(9.05 0 -0.04525)
(9.1 0 -0.0455)
(9.15 0 -0.04575)
(9.2 0 -0.046)
(9.25 0 -0.04625)
(9.3 0 -0.0465)
(9.35 0 -0.04675)
(9.4 0 -0.047)
(9.45 0 -0.04725)
(9.5 0 -0.0475)
(9.55 0 -0.04775)
(9.6 0 -0.048)
(9.65 0 -0.04825)
(9.7 0 -0.0485)
(9.75 0 -0.04875)
(9.8 0 -0.049)
(9.85 0 -0.04925)
(9.9 0 -0.0495)
(9.95 0 -0.04975)
(10 0 -0.05)
(10.05 0 -0.05025)
(10.1 0 -0.0505)
(10.15 0 -0.05075)
(10.2 0 -0.051)
(10.25 0 -0.05125)
(10.3 0 -0.0515)
(10.35 0 -0.05175)
(10.4 0 -0.052)
(10.45 0 -0.05225)
(10.5 0 -0.0525)
(10.55 0 -0.05275)
(10.6 0 -0.053)
(10.65 0 -0.05325)
(10.7 0 -0.0535)
(10.75 0 -0.05375)
(10.8 0 -0.054)
(10.85 0 -0.05425)
(10.9 0 -0.0545)
(10.95 0 -0.05475)
(11 0 -0.055)
(11.05 0 -0.05525)
(11.1 0 -0.0555)
(11.15 0 -0.05575)
(11.2 0 -0.056)
(11.25 0 -0.05625)
(11.3 0 -0.0565)
(11.35 0 -0.05675)
(11.4 0 -0.057)
(11.45 0 -0.05725)
(11.5 0 -0.0575)
(11.55 0 -0.05775)
(11.6 0 -0.058)
(11.65 0 -0.05825)
(11.7 0 -0.0585)
(11.75 0 -0.05875)
(11.8 0 -0.059)
(11.85 0 -0.05925)
(11.9 0 -0.0595)
(11.95 0 -0.05975)
(12 0 -0.06)
(12.05 0 -0.06025)
(12.1 0 -0.0605)
(12.15 0 -0.06075)
(12.2 0 -0.061)
(12.25 0 -0.06125)
(12.3 0 -0.0615)
(12.35 0 -0.06175)
(12.4 0 -0.062)
(12.45 0 -0.06225)
(12.5 0 -0.0625)
(12.55 0 -0.06275)
(12.6 0 -0.063)
(12.65 0 -0.06325)
(12.7 0 -0.0635)
(12.75 0 -0.06375)
(12.8 0 -0.064)
(12.85 0 -0.06425)
(12.9 0 -0.0645)
(12.95 0 -0.06475)
(13 0 -0.065)
(13.05 0 -0.06525)
(13.1 0 -0.0655)
(13.15 0 -0.06575)
(13.2 0 -0.066)
(13.25 0 -0.06625)
(13.3 0 -0.0665)
(13.35 0 -0.06675)
(13.4 0 -0.067)
(13.45 0 -0.06725)
(13.5 0 -0.0675)
(13.55 0 -0.06775)
(13.6 0 -0.068)
(13.65 0 -0.06825)
(13.7 0 -0.0685)
(13.75 0 -0.06875)
(13.8 0 -0.069)
(13.85 0 -0.06925)
(13.9 0 -0.0695)
(13.95 0 -0.06975)
(14 0 -0.07)
(14.05 0 -0.07025)
(14.1 0 -0.0705)
(14.15 0 -0.07075)
(14.2 0 -0.071)
(14.25 0 -0.07125)
(14.3 0 -0.0715)
(14.35 0 -0.07175)
(14.4 0 -0.072)
(14.45 0 -0.07225)
(14.5 0 -0.0725)
(14.55 0 -0.07275)
(14.6 0 -0.073)
(14.65 0 -0.07325)
(14.7 0 -0.0735)
(14.75 0 -0.07375)
(14.8 0 -0.074)
(14.85 0 -0.07425)
(14.9 0 -0.0745)
(14.95 0 -0.07475)
(15 0 -0.075)
(0 0.02 0)
(0.05 0.02 -0.00025)
(0.1 0.02 -0.0005)
(0.15 0.02 -0.00075)
(0.2 0.02 -0.001)
(0.25 0.02 -0.00125)
(0.3 0.02 -0.0015)
(0.35 0.02 -0.00175)
(0.4 0.02 -0.002)
(0.45 0.02 -0.00225)
(0.5 0.02 -0.0025)
(0.55 0.02 -0.00275)
(0.6 0.02 -0.003)
(0.65 0.02 -0.00325)
(0.7 0.02 -0.0035)
(0.75 0.02 -0.00375)
(0.8 0.02 -0.004)
(0.85 0.02 -0.00425)
(0.9 0.02 -0.0045)
(0.95 0.02 -0.00475)
(1 0.02 -0.005)
(1.05 0.02 -0.00525)
(1.1 0.02 -0.0055)
(1.15 0.02 -0.00575)
(1.2 0.02 -0.006)
(1.25 0.02 -0.00625)
(1.3 0.02 -0.0065)
(1.35 0.02 -0.00675)
(1.4 0.02 -0.007)
(1.45 0.02 -0.00725)
(1.5 0.02 -0.0075)
(1.55 0.02 -0.00775)
(1.6 0.02 -0.008)
(1.65 0.02 -0.00825)
(1.7 0.02 -0.0085)
(1.75 0.02 -0.00875)
(1.8 0.02 -0.009)
(1.85 0.02 -0.00925)
(1.9 0.02 -0.0095)
(1.95 0.02 -0.00975)
(2 0.02 -0.01)
(2.05 0.02 -0.01025)
(2.1 0.02 -0.0105)
(2.15 0.02 -0.01075)
(2.2 0.02 -0.011)
(2.25 0.02 -0.01125)
(2.3 0.02 -0.0115)
(2.35 0.02 -0.01175)
(2.4 0.02 -0.012)
(2.45 0.02 -0.01225)
(2.5 0.02 -0.0125)
(2.55 0.02 -0.01275)
(2.6 0.02 -0.013)
(2.65 0.02 -0.01325)
(2.7 0.02 -0.0135)
(2.75 0.02 -0.01375)
(2.8 0.02 -0.014)
(2.85 0.02 -0.01425)
(2.9 0.02 -0.0145)
(2.95 0.02 -0.01475)
(3 0.02 -0.015)
(3.05 0.02 -0.01525)
(3.1 0.02 -0.0155)
(3.15 0.02 -0.01575)
(3.2 0.02 -0.016)
(3.25 0.02 -0.01625)
(3.3 0.02 -0.0165)
(3.35 0.02 -0.01675)
(3.4 0.02 -0.017)
(3.45 0.02 -0.01725)
(3.5 0.02 -0.0175)
(3.55 0.02 -0.01775)
(3.6 0.02 -0.018)
(3.65 0.02 -0.01825)
(3.7 0.02 -0.0185)
(3.75 0.02 -0.01875)
(3.8 0.02 -0.019)
(3.85 0.02 -0.01925)
(3.9 0.02 -0.0195)
(3.95 0.02 -0.01975)
(4 0.02 -0.02)
(4.05 0.02 -0.02025)
(4.1 0.02 -0.0205)
(4.15 0.02 -0.02075)
(4.2 0.02 -0.021)
(4.25 0.02 -0.02125)
(4.3 0.02 -0.0215)
(4.35 0.02 -0.02175)
(4.4 0.02 -0.022)
(4.45 0.02 -0.02225)
(4.5 0.02 -0.0225)
(4.55 0.02 -0.02275)
(4.6 0.02 -0.023)
(4.65 0.02 -0.02325)
(4.7 0.02 -0.0235)
(4.75 0.02 -0.02375)
(4.8 0.02 -0.024)
(4.85 0.02 -0.02425)
(4.9 0.02 -0.0245)
(4.95 0.02 -0.02475)
(5 0.02 -0.025)
(5.05 0.02 -0.02525)
(5.1 0.02 -0.0255)
(5.15 0.02 -0.02575)
(5.2 0.02 -0.026)
(5.25 0.02 -0.02625)
(5.3 0.02 -0.0265)
(5.35 0.02 -0.02675)
(5.4 0.02 -0.027)
(5.45 0.02 -0.02725)
(5.5 0.02 -0.0275)
(5.55 0.02 -0.02775)
(5.6 0.02 -0.028)
(5.65 0.02 -0.02825)
(5.7 0.02 -0.0285)
(5.75 0.02 -0.02875)
(5.8 0.02 -0.029)
(5.85 0.02 -0.02925)
(5.9 0.02 -0.0295)
(5.95 0.02 -0.02975)
(6 0.02 -0.03)
(6.05 0.02 -0.03025)
(6.1 0.02 -0.0305)
(6.15 0.02 -0.03075)
(6.2 0.02 -0.031)
(6.25 0.02 -0.03125)
(6.3 0.02 -0.0315)
(6.35 0.02 -0.03175)
(6.4 0.02 -0.032)
(6.45 0.02 -0.03225)
(6.5 0.02 -0.0325)
(6.55 0.02 -0.03275)
(6.6 0.02 -0.033)
(6.65 0.02 -0.03325)
(6.7 0.02 -0.0335)
(6.75 0.02 -0.03375)
(6.8 0.02 -0.034)
(6.85 0.02 -0.03425)
(6.9 0.02 -0.0345)
(6.95 0.02 -0.03475)
(7 0.02 -0.035)
(7.05 0.02 -0.03525)
(7.1 0.02 -0.0355)
(7.15 0.02 -0.03575)
(7.2 0.02 -0.036)
(7.25 0.02 -0.03625)
(7.3 0.02 -0.0365)
(7.35 0.02 -0.03675)
(7.4 0.02 -0.037)
(7.45 0.02 -0.03725)
(7.5 0.02 -0.0375)
(7.55 0.02 -0.03775)
(7.6 0.02 -0.038)
(7.65 0.02 -0.03825)
(7.7 0.02 -0.0385)
(7.75 0.02 -0.03875)
(7.8 0.02 -0.039)
(7.85 0.02 -0.03925)
(7.9 0.02 -0.0395)
(7.95 0.02 -0.03975)
(8 0.02 -0.04)
(8.05 0.02 -0.04025)
(8.1 0.02 -0.0405)
(8.15 0.02 -0.04075)
(8.2 0.02 -0.041)
(8.25 0.02 -0.04125)
(8.3 0.02 -0.0415)
(8.35 0.02 -0.04175)
(8.4 0.02 -0.042)
(8.45 0.02 -0.04225)
(8.5 0.02 -0.0425)
(8.55 0.02 -0.04275)
(8.6 0.02 -0.043)
(8.65 0.02 -0.04325)
(8.7 0.02 -0.0435)
(8.75 0.02 -0.04375)
(8.8 0.02 -0.044)
(8.85 0.02 -0.04425)
(8.9 0.02 -0.0445)
(8.95 0.02 -0.04475)
(9 0.02 -0.045)
(9.05 0.02 -0.04525)
(9.1 0.02 -0.0455)
(9.15 0.02 -0.04575)
(9.2 0.02 -0.046)
(9.25 0.02 -0.04625)
(9.3 0.02 -0.0465)
(9.35 0.02 -0.04675)
(9.4 0.02 -0.047)
(9.45 0.02 -0.04725)
(9.5 0.02 -0.0475)
(9.55 0.02 -0.04775)
(9.6 0.02 -0.048)
(9.65 0.02 -0.04825)
(9.7 0.02 -0.0485)
(9.75 0.02 -0.04875)
(9.8 0.02 -0.049)
(9.85 0.02 -0.04925)
(9.9 0.02 -0.0495)
(9.95 0.02 -0.04975)
(10 0.02 -0.05)
(10.05 0.02 -0.05025)
(10.1 0.02 -0.0505)
(10.15 0.02 -0.05075)
(10.2 0.02 -0.051)
(10.25 0.02 -0.05125)
(10.3 0.02 -0.0515)
(10.35 0.02 -0.05175)
(10.4 0.02 -0.052)
(10.45 0.02 -0.05225)
(10.5 0.02 -0.0525)
(10.55 0.02 -0.05275)
(10.6 0.02 -0.053)
(10.65 0.02 -0.05325)
(10.7 0.02 -0.0535)
(10.75 0.02 -0.05375)
(10.8 0.02 -0.054)
(10.85 0.02 -0.05425)
(10.9 0.02 -0.0545)
(10.95 0.02 -0.05475)
(11 0.02 -0.055)
(11.05 0.02 -0.05525)
(11.1 0.02 -0.0555)
(11.15 0.02 -0.05575)
(11.2 0.02 -0.056)
(11.25 0.02 -0.05625)
(11.3 0.02 -0.0565)
(11.35 0.02 -0.05675)
(11.4 0.02 -0.057)
(11.45 0.02 -0.05725)
(11.5 0.02 -0.0575)
(11.55 0.02 -0.05775)
(11.6 0.02 -0.058)
(11.65 0.02 -0.05825)
(11.7 0.02 -0.0585)
(11.75 0.02 -0.05875)
(11.8 0.02 -0.059)
(11.85 0.02 -0.05925)
(11.9 0.02 -0.0595)
(11.95 0.02 -0.05975)
(12 0.02 -0.06)
(12.05 0.02 -0.06025)
(12.1 0.02 -0.0605)
(12.15 0.02 -0.06075)
(12.2 0.02 -0.061)
(12.25 0.02 -0.06125)
(12.3 0.02 -0.0615)
(12.35 0.02 -0.06175)
(12.4 0.02 -0.062)
(12.45 0.02 -0.06225)
(12.5 0.02 -0.0625)
(12.55 0.02 -0.06275)
(12.6 0.02 -0.063)
(12.65 0.02 -0.06325)
(12.7 0.02 -0.0635)
(12.75 0.02 -0.06375)
(12.8 0.02 -0.064)
(12.85 0.02 -0.06425)
(12.9 0.02 -0.0645)
(12.95 0.02 -0.06475)
(13 0.02 -0.065)
(13.05 0.02 -0.06525)
(13.1 0.02 -0.0655)
(13.15 0.02 -0.06575)
(13.2 0.02 -0.066)
(13.25 0.02 -0.06625)
(13.3 0.02 -0.0665)
(13.35 0.02 -0.06675)
(13.4 0.02 -0.067)
(13.45 0.02 -0.06725)
(13.5 0.02 -0.0675)
(13.55 0.02 -0.06775)
(13.6 0.02 -0.068)
(13.65 0.02 -0.06825)
(13.7 0.02 -0.0685)
(13.75 0.02 -0.06875)
(13.8 0.02 -0.069)
(13.85 0.02 -0.06925)
(13.9 0.02 -0.0695)
(13.95 0.02 -0.06975)
(14 0.02 -0.07)
(14.05 0.02 -0.07025)
(14.1 0.02 -0.0705)
(14.15 0.02 -0.07075)
(14.2 0.02 -0.071)
(14.25 0.02 -0.07125)
(14.3 0.02 -0.0715)
(14.35 0.02 -0.07175)
(14.4 0.02 -0.072)
(14.45 0.02 -0.07225)
(14.5 0.02 -0.0725)
(14.55 0.02 -0.07275)
(14.6 0.02 -0.073)
(14.65 0.02 -0.07325)
(14.7 0.02 -0.0735)
(14.75 0.02 -0.07375)
(14.8 0.02 -0.074)
(14.85 0.02 -0.07425)
(14.9 0.02 -0.0745)
(14.95 0.02 -0.07475)
(15 0.02 -0.075)
)
;

boundaryField
{
    inlet
    {
        type            zeroGradient;
    }
    outlet
    {
        type            zeroGradient;
    }
    sideWall
    {
        type            empty;
    }
    bed
    {
        type            zeroGradient;
    }
    topWall
    {
        type            zeroGradient;
    }
}


// ************************************************************************* //
