/*--------------------------------*- C++ -*----------------------------------*\
| =========                 |                                                 |
| \\      /  F ield         | foam-extend: Open Source CFD                    |
|  \\    /   O peration     | Version:     3.2                                |
|   \\  /    A nd           | Web:         http://www.foam-extend.org         |
|    \\/     M anipulation  | For copyright notice see file Copyright         |
\*---------------------------------------------------------------------------*/
FoamFile
{
    version     2.0;
    format      ascii;
    class       volScalarField;
    location    "91";
    object      nut;
}
// * * * * * * * * * * * * * * * * * * * * * * * * * * * * * * * * * * * * * //

dimensions      [0 2 -1 0 0 0 0];

internalField   nonuniform List<scalar> 
5400
(
3.40851e-05
2.72782e-05
2.35514e-05
2.34145e-05
2.3111e-05
2.30265e-05
2.28776e-05
2.28384e-05
2.27911e-05
2.27998e-05
2.28164e-05
2.28526e-05
2.29017e-05
2.29637e-05
2.30325e-05
2.31095e-05
2.31939e-05
2.32842e-05
2.3376e-05
2.34746e-05
2.35795e-05
2.3687e-05
2.37977e-05
2.39096e-05
2.40221e-05
2.41368e-05
2.4244e-05
2.43381e-05
2.44172e-05
2.44836e-05
2.45387e-05
2.45847e-05
2.46228e-05
2.46546e-05
2.46809e-05
2.47028e-05
2.4721e-05
2.47362e-05
2.47489e-05
2.47596e-05
2.47686e-05
2.47762e-05
2.47827e-05
2.47884e-05
2.47931e-05
2.47971e-05
2.48008e-05
2.48039e-05
2.48064e-05
2.48086e-05
2.48105e-05
2.48122e-05
2.48136e-05
2.48149e-05
2.4816e-05
2.48169e-05
2.48178e-05
2.48185e-05
2.48191e-05
2.48197e-05
2.48201e-05
2.48206e-05
2.48209e-05
2.48212e-05
2.48215e-05
2.48217e-05
2.48219e-05
2.48221e-05
2.48223e-05
2.48224e-05
2.48225e-05
2.48226e-05
2.48227e-05
2.48228e-05
2.48228e-05
2.48229e-05
2.48229e-05
2.4823e-05
2.4823e-05
2.4823e-05
2.4823e-05
2.48231e-05
2.48231e-05
2.48231e-05
2.48231e-05
2.48231e-05
2.48231e-05
2.48232e-05
2.48232e-05
2.48232e-05
2.48232e-05
2.48232e-05
2.48232e-05
2.48232e-05
2.48232e-05
2.48232e-05
2.48232e-05
2.48232e-05
2.48232e-05
2.48232e-05
2.48232e-05
2.48232e-05
2.48232e-05
2.48232e-05
2.48232e-05
2.48232e-05
2.48232e-05
2.48232e-05
2.48232e-05
2.48232e-05
2.48232e-05
2.48232e-05
2.48232e-05
2.48232e-05
2.48232e-05
2.48232e-05
2.48232e-05
2.48232e-05
2.48232e-05
2.48232e-05
2.48232e-05
2.48232e-05
2.48232e-05
2.48232e-05
2.48232e-05
2.48232e-05
2.48232e-05
2.48232e-05
2.48232e-05
2.48232e-05
2.48232e-05
2.48232e-05
2.48232e-05
2.48232e-05
2.48232e-05
2.48232e-05
2.48232e-05
2.48232e-05
2.48232e-05
2.48232e-05
2.48232e-05
2.48232e-05
2.48232e-05
2.48232e-05
2.48232e-05
2.48232e-05
2.48232e-05
2.48232e-05
2.48232e-05
2.48232e-05
2.48232e-05
2.48232e-05
2.48232e-05
2.48232e-05
2.48232e-05
2.48232e-05
2.48232e-05
2.48232e-05
2.48232e-05
2.48232e-05
2.48232e-05
2.48232e-05
2.48232e-05
2.48232e-05
2.48232e-05
2.48232e-05
2.48232e-05
2.48232e-05
2.48232e-05
2.48232e-05
2.48232e-05
2.48232e-05
2.48232e-05
2.48232e-05
2.48232e-05
2.48232e-05
2.48232e-05
2.48232e-05
2.48232e-05
2.48232e-05
2.48232e-05
2.48232e-05
2.48232e-05
2.48232e-05
2.48232e-05
2.48232e-05
2.48232e-05
2.48232e-05
2.48232e-05
2.48232e-05
2.48232e-05
2.48232e-05
2.48232e-05
2.48232e-05
2.48232e-05
2.48232e-05
2.48232e-05
2.48232e-05
2.48232e-05
2.48232e-05
2.48232e-05
2.48232e-05
2.48232e-05
2.48232e-05
2.48232e-05
2.48232e-05
2.48232e-05
2.48232e-05
2.48232e-05
2.48232e-05
2.48232e-05
2.48232e-05
2.48232e-05
2.48232e-05
2.48232e-05
2.48232e-05
2.48232e-05
2.48232e-05
2.48232e-05
2.48232e-05
2.48232e-05
2.48232e-05
2.48232e-05
2.48232e-05
2.48232e-05
2.48232e-05
2.48232e-05
2.48232e-05
2.48232e-05
2.48232e-05
2.48232e-05
2.48232e-05
2.48232e-05
2.48232e-05
2.48232e-05
2.48232e-05
2.48232e-05
2.48232e-05
2.48232e-05
2.48232e-05
2.48232e-05
2.48232e-05
2.48232e-05
2.48232e-05
2.48232e-05
2.48232e-05
2.48232e-05
2.48232e-05
2.48232e-05
2.48232e-05
2.48232e-05
2.48232e-05
2.48232e-05
2.48232e-05
2.48232e-05
2.48232e-05
2.48232e-05
2.48232e-05
2.48232e-05
2.48232e-05
2.48232e-05
2.48232e-05
2.48232e-05
2.48232e-05
2.48232e-05
2.48232e-05
2.48232e-05
2.48232e-05
2.48232e-05
2.48232e-05
2.48232e-05
2.48232e-05
2.48232e-05
2.48232e-05
2.48232e-05
2.48232e-05
2.48232e-05
2.48232e-05
2.48232e-05
2.48232e-05
2.48232e-05
2.48232e-05
2.48232e-05
2.48232e-05
2.48232e-05
2.48232e-05
2.48232e-05
2.48232e-05
2.48232e-05
2.48232e-05
2.48232e-05
2.48232e-05
2.48232e-05
2.48232e-05
2.48232e-05
2.48232e-05
2.48232e-05
2.48232e-05
2.48232e-05
2.48232e-05
3.22752e-05
4.32937e-05
4.71351e-05
5.00634e-05
5.19478e-05
5.28304e-05
5.34342e-05
5.38645e-05
5.42525e-05
5.45912e-05
5.49205e-05
5.52322e-05
5.55558e-05
5.58736e-05
5.61865e-05
5.65013e-05
5.68177e-05
5.71341e-05
5.74531e-05
5.77715e-05
5.80859e-05
5.83976e-05
5.87034e-05
5.90012e-05
5.92905e-05
5.95569e-05
5.97852e-05
5.99668e-05
6.01079e-05
6.02167e-05
6.03014e-05
6.03675e-05
6.04197e-05
6.0461e-05
6.04939e-05
6.05203e-05
6.05417e-05
6.05591e-05
6.05735e-05
6.05855e-05
6.05956e-05
6.06043e-05
6.06117e-05
6.06182e-05
6.06238e-05
6.06286e-05
6.0633e-05
6.06368e-05
6.06401e-05
6.06429e-05
6.06455e-05
6.06478e-05
6.06498e-05
6.06515e-05
6.06529e-05
6.06543e-05
6.06555e-05
6.06566e-05
6.06575e-05
6.06583e-05
6.0659e-05
6.06597e-05
6.06602e-05
6.06607e-05
6.06611e-05
6.06614e-05
6.06617e-05
6.0662e-05
6.06622e-05
6.06624e-05
6.06626e-05
6.06627e-05
6.06628e-05
6.0663e-05
6.0663e-05
6.06631e-05
6.06632e-05
6.06633e-05
6.06633e-05
6.06633e-05
6.06634e-05
6.06634e-05
6.06634e-05
6.06635e-05
6.06635e-05
6.06635e-05
6.06635e-05
6.06635e-05
6.06635e-05
6.06636e-05
6.06636e-05
6.06636e-05
6.06636e-05
6.06636e-05
6.06636e-05
6.06636e-05
6.06636e-05
6.06636e-05
6.06636e-05
6.06636e-05
6.06636e-05
6.06636e-05
6.06636e-05
6.06636e-05
6.06636e-05
6.06636e-05
6.06636e-05
6.06636e-05
6.06636e-05
6.06636e-05
6.06636e-05
6.06636e-05
6.06636e-05
6.06636e-05
6.06636e-05
6.06636e-05
6.06636e-05
6.06636e-05
6.06636e-05
6.06636e-05
6.06636e-05
6.06636e-05
6.06636e-05
6.06636e-05
6.06636e-05
6.06636e-05
6.06636e-05
6.06636e-05
6.06636e-05
6.06636e-05
6.06636e-05
6.06636e-05
6.06636e-05
6.06636e-05
6.06636e-05
6.06636e-05
6.06636e-05
6.06636e-05
6.06636e-05
6.06636e-05
6.06636e-05
6.06636e-05
6.06636e-05
6.06636e-05
6.06636e-05
6.06636e-05
6.06636e-05
6.06636e-05
6.06636e-05
6.06636e-05
6.06636e-05
6.06636e-05
6.06636e-05
6.06636e-05
6.06636e-05
6.06636e-05
6.06636e-05
6.06636e-05
6.06636e-05
6.06636e-05
6.06636e-05
6.06636e-05
6.06636e-05
6.06636e-05
6.06636e-05
6.06636e-05
6.06636e-05
6.06636e-05
6.06636e-05
6.06636e-05
6.06636e-05
6.06636e-05
6.06636e-05
6.06636e-05
6.06636e-05
6.06636e-05
6.06636e-05
6.06636e-05
6.06636e-05
6.06636e-05
6.06636e-05
6.06636e-05
6.06636e-05
6.06636e-05
6.06636e-05
6.06636e-05
6.06636e-05
6.06636e-05
6.06636e-05
6.06636e-05
6.06636e-05
6.06636e-05
6.06636e-05
6.06636e-05
6.06636e-05
6.06636e-05
6.06636e-05
6.06636e-05
6.06636e-05
6.06636e-05
6.06636e-05
6.06636e-05
6.06636e-05
6.06636e-05
6.06636e-05
6.06636e-05
6.06636e-05
6.06636e-05
6.06636e-05
6.06636e-05
6.06636e-05
6.06636e-05
6.06636e-05
6.06636e-05
6.06636e-05
6.06636e-05
6.06636e-05
6.06636e-05
6.06636e-05
6.06636e-05
6.06636e-05
6.06636e-05
6.06636e-05
6.06636e-05
6.06636e-05
6.06636e-05
6.06636e-05
6.06636e-05
6.06636e-05
6.06636e-05
6.06636e-05
6.06636e-05
6.06636e-05
6.06636e-05
6.06636e-05
6.06636e-05
6.06636e-05
6.06636e-05
6.06636e-05
6.06636e-05
6.06636e-05
6.06636e-05
6.06636e-05
6.06636e-05
6.06636e-05
6.06636e-05
6.06636e-05
6.06636e-05
6.06636e-05
6.06636e-05
6.06636e-05
6.06636e-05
6.06636e-05
6.06636e-05
6.06636e-05
6.06636e-05
6.06636e-05
6.06636e-05
6.06636e-05
6.06636e-05
6.06636e-05
6.06636e-05
6.06636e-05
6.06636e-05
6.06636e-05
6.06636e-05
6.06636e-05
6.06636e-05
6.06636e-05
6.06636e-05
6.06636e-05
6.06636e-05
6.06636e-05
6.06636e-05
6.06636e-05
6.06636e-05
6.06636e-05
6.06636e-05
6.06636e-05
6.06636e-05
6.06636e-05
6.06636e-05
6.06636e-05
6.06636e-05
6.06636e-05
6.06636e-05
6.06636e-05
6.06636e-05
6.06636e-05
6.06636e-05
6.06636e-05
6.06636e-05
6.06636e-05
6.06636e-05
6.06636e-05
6.06636e-05
6.06636e-05
6.06636e-05
6.06636e-05
6.06635e-05
2.92407e-05
4.68466e-05
5.53138e-05
6.50935e-05
7.2033e-05
7.54874e-05
7.79246e-05
7.97716e-05
8.12595e-05
8.25248e-05
8.36002e-05
8.45676e-05
8.5464e-05
8.62926e-05
8.7072e-05
8.78119e-05
8.85234e-05
8.92126e-05
8.98795e-05
9.05237e-05
9.11445e-05
9.17416e-05
9.23109e-05
9.28492e-05
9.33565e-05
9.38037e-05
9.41407e-05
9.43798e-05
9.45465e-05
9.46626e-05
9.47431e-05
9.47989e-05
9.48373e-05
9.48638e-05
9.4882e-05
9.48947e-05
9.49038e-05
9.49106e-05
9.4916e-05
9.49206e-05
9.49246e-05
9.49282e-05
9.49317e-05
9.49351e-05
9.49382e-05
9.4941e-05
9.49434e-05
9.4946e-05
9.49484e-05
9.49507e-05
9.49529e-05
9.49549e-05
9.49567e-05
9.49584e-05
9.49599e-05
9.49612e-05
9.49624e-05
9.49635e-05
9.49644e-05
9.49652e-05
9.4966e-05
9.49666e-05
9.49671e-05
9.49676e-05
9.4968e-05
9.49684e-05
9.49687e-05
9.49689e-05
9.49692e-05
9.49694e-05
9.49695e-05
9.49697e-05
9.49698e-05
9.49699e-05
9.497e-05
9.49701e-05
9.49702e-05
9.49702e-05
9.49703e-05
9.49703e-05
9.49704e-05
9.49704e-05
9.49704e-05
9.49705e-05
9.49705e-05
9.49705e-05
9.49705e-05
9.49705e-05
9.49705e-05
9.49705e-05
9.49705e-05
9.49706e-05
9.49706e-05
9.49706e-05
9.49706e-05
9.49706e-05
9.49706e-05
9.49706e-05
9.49706e-05
9.49706e-05
9.49706e-05
9.49706e-05
9.49706e-05
9.49706e-05
9.49706e-05
9.49706e-05
9.49706e-05
9.49706e-05
9.49706e-05
9.49706e-05
9.49706e-05
9.49706e-05
9.49706e-05
9.49706e-05
9.49706e-05
9.49706e-05
9.49706e-05
9.49706e-05
9.49706e-05
9.49706e-05
9.49706e-05
9.49706e-05
9.49706e-05
9.49706e-05
9.49706e-05
9.49706e-05
9.49706e-05
9.49706e-05
9.49706e-05
9.49706e-05
9.49706e-05
9.49706e-05
9.49706e-05
9.49706e-05
9.49706e-05
9.49706e-05
9.49706e-05
9.49706e-05
9.49706e-05
9.49706e-05
9.49706e-05
9.49706e-05
9.49706e-05
9.49706e-05
9.49706e-05
9.49706e-05
9.49706e-05
9.49706e-05
9.49706e-05
9.49706e-05
9.49706e-05
9.49706e-05
9.49706e-05
9.49706e-05
9.49706e-05
9.49706e-05
9.49706e-05
9.49706e-05
9.49706e-05
9.49706e-05
9.49706e-05
9.49706e-05
9.49706e-05
9.49706e-05
9.49706e-05
9.49706e-05
9.49706e-05
9.49706e-05
9.49706e-05
9.49706e-05
9.49706e-05
9.49706e-05
9.49706e-05
9.49706e-05
9.49706e-05
9.49706e-05
9.49706e-05
9.49706e-05
9.49706e-05
9.49706e-05
9.49706e-05
9.49706e-05
9.49706e-05
9.49706e-05
9.49706e-05
9.49706e-05
9.49706e-05
9.49706e-05
9.49706e-05
9.49706e-05
9.49706e-05
9.49706e-05
9.49706e-05
9.49706e-05
9.49706e-05
9.49706e-05
9.49706e-05
9.49706e-05
9.49706e-05
9.49706e-05
9.49706e-05
9.49706e-05
9.49706e-05
9.49706e-05
9.49706e-05
9.49706e-05
9.49706e-05
9.49706e-05
9.49706e-05
9.49706e-05
9.49706e-05
9.49706e-05
9.49706e-05
9.49706e-05
9.49706e-05
9.49706e-05
9.49706e-05
9.49706e-05
9.49706e-05
9.49706e-05
9.49706e-05
9.49706e-05
9.49706e-05
9.49706e-05
9.49706e-05
9.49706e-05
9.49706e-05
9.49706e-05
9.49706e-05
9.49706e-05
9.49706e-05
9.49706e-05
9.49706e-05
9.49706e-05
9.49706e-05
9.49706e-05
9.49706e-05
9.49706e-05
9.49706e-05
9.49706e-05
9.49706e-05
9.49706e-05
9.49706e-05
9.49706e-05
9.49706e-05
9.49706e-05
9.49706e-05
9.49706e-05
9.49706e-05
9.49706e-05
9.49706e-05
9.49706e-05
9.49706e-05
9.49706e-05
9.49706e-05
9.49706e-05
9.49706e-05
9.49706e-05
9.49706e-05
9.49706e-05
9.49706e-05
9.49706e-05
9.49706e-05
9.49706e-05
9.49706e-05
9.49706e-05
9.49706e-05
9.49706e-05
9.49706e-05
9.49706e-05
9.49706e-05
9.49706e-05
9.49706e-05
9.49706e-05
9.49706e-05
9.49706e-05
9.49706e-05
9.49706e-05
9.49706e-05
9.49706e-05
9.49706e-05
9.49706e-05
9.49706e-05
9.49706e-05
9.49706e-05
9.49706e-05
9.49706e-05
9.49706e-05
9.49706e-05
9.49706e-05
9.49706e-05
9.49706e-05
9.49706e-05
9.49706e-05
9.49706e-05
9.49706e-05
9.49706e-05
9.49706e-05
9.49706e-05
9.49705e-05
2.749e-05
4.06145e-05
5.1787e-05
6.56072e-05
7.7058e-05
8.58905e-05
9.2621e-05
9.68477e-05
0.000100288
0.00010318
0.000105616
0.00010773
0.000109625
0.000111339
0.000112899
0.000114341
0.000115689
0.00011696
0.000118162
0.000119299
0.00012037
0.000121378
0.000122317
0.000123184
0.000123978
0.000124646
0.000125124
0.000125443
0.000125647
0.000125773
0.000125845
0.000125882
0.000125897
0.000125897
0.00012589
0.000125879
0.000125866
0.000125854
0.000125843
0.000125834
0.000125827
0.000125821
0.000125817
0.000125814
0.000125812
0.000125811
0.00012581
0.00012581
0.000125811
0.000125812
0.000125813
0.000125814
0.000125815
0.000125817
0.000125818
0.000125819
0.00012582
0.000125821
0.000125822
0.000125823
0.000125824
0.000125824
0.000125825
0.000125825
0.000125826
0.000125826
0.000125826
0.000125827
0.000125827
0.000125827
0.000125827
0.000125828
0.000125828
0.000125828
0.000125828
0.000125828
0.000125828
0.000125828
0.000125828
0.000125828
0.000125828
0.000125828
0.000125828
0.000125828
0.000125828
0.000125828
0.000125828
0.000125828
0.000125828
0.000125828
0.000125828
0.000125828
0.000125828
0.000125828
0.000125828
0.000125828
0.000125828
0.000125828
0.000125828
0.000125828
0.000125828
0.000125828
0.000125828
0.000125828
0.000125828
0.000125828
0.000125828
0.000125828
0.000125828
0.000125828
0.000125828
0.000125828
0.000125828
0.000125828
0.000125828
0.000125828
0.000125828
0.000125828
0.000125828
0.000125828
0.000125828
0.000125828
0.000125828
0.000125828
0.000125828
0.000125828
0.000125828
0.000125828
0.000125828
0.000125828
0.000125828
0.000125828
0.000125828
0.000125828
0.000125828
0.000125828
0.000125828
0.000125828
0.000125828
0.000125828
0.000125828
0.000125828
0.000125828
0.000125828
0.000125828
0.000125828
0.000125828
0.000125828
0.000125828
0.000125828
0.000125828
0.000125828
0.000125828
0.000125828
0.000125828
0.000125828
0.000125828
0.000125828
0.000125828
0.000125828
0.000125828
0.000125828
0.000125828
0.000125828
0.000125828
0.000125828
0.000125828
0.000125828
0.000125828
0.000125828
0.000125828
0.000125828
0.000125828
0.000125828
0.000125828
0.000125828
0.000125828
0.000125828
0.000125828
0.000125828
0.000125828
0.000125828
0.000125828
0.000125828
0.000125828
0.000125828
0.000125828
0.000125828
0.000125828
0.000125828
0.000125828
0.000125828
0.000125828
0.000125828
0.000125828
0.000125828
0.000125828
0.000125828
0.000125828
0.000125828
0.000125828
0.000125828
0.000125828
0.000125828
0.000125828
0.000125828
0.000125828
0.000125828
0.000125828
0.000125828
0.000125828
0.000125828
0.000125828
0.000125828
0.000125828
0.000125828
0.000125828
0.000125828
0.000125828
0.000125828
0.000125828
0.000125828
0.000125828
0.000125828
0.000125828
0.000125828
0.000125828
0.000125828
0.000125828
0.000125828
0.000125828
0.000125828
0.000125828
0.000125828
0.000125828
0.000125828
0.000125828
0.000125828
0.000125828
0.000125828
0.000125828
0.000125828
0.000125828
0.000125828
0.000125828
0.000125828
0.000125828
0.000125828
0.000125828
0.000125828
0.000125828
0.000125828
0.000125828
0.000125828
0.000125828
0.000125828
0.000125828
0.000125828
0.000125828
0.000125828
0.000125828
0.000125828
0.000125828
0.000125828
0.000125828
0.000125828
0.000125828
0.000125828
0.000125828
0.000125828
0.000125828
0.000125828
0.000125828
0.000125828
0.000125828
0.000125828
0.000125828
0.000125828
0.000125828
0.000125828
0.000125828
0.000125828
0.000125828
0.000125828
0.000125828
0.000125828
0.000125828
0.000125828
0.000125828
0.000125828
0.000125828
0.000125828
0.000125828
0.000125828
0.000125828
0.000125828
0.000125828
0.000125828
0.000125828
0.000125828
2.85531e-05
3.45155e-05
4.84127e-05
5.99682e-05
7.14879e-05
8.37489e-05
9.44576e-05
0.00010315
0.000110257
0.000116165
0.000120426
0.000124131
0.000127416
0.000130364
0.000133017
0.000135433
0.000137663
0.000139734
0.000141666
0.000143468
0.000145144
0.000146701
0.000148131
0.000149432
0.000150601
0.000151564
0.000152255
0.000152724
0.00015303
0.000153221
0.000153332
0.000153391
0.000153416
0.000153419
0.000153411
0.000153396
0.00015338
0.000153364
0.00015335
0.000153338
0.000153328
0.000153321
0.000153316
0.000153313
0.000153311
0.00015331
0.00015331
0.000153311
0.000153313
0.000153315
0.000153317
0.00015332
0.000153322
0.000153325
0.000153327
0.000153329
0.000153331
0.000153333
0.000153335
0.000153336
0.000153337
0.000153338
0.000153339
0.00015334
0.000153341
0.000153341
0.000153342
0.000153343
0.000153343
0.000153343
0.000153344
0.000153344
0.000153344
0.000153344
0.000153344
0.000153344
0.000153344
0.000153345
0.000153345
0.000153345
0.000153345
0.000153345
0.000153345
0.000153345
0.000153345
0.000153345
0.000153345
0.000153345
0.000153345
0.000153345
0.000153345
0.000153345
0.000153345
0.000153345
0.000153345
0.000153345
0.000153345
0.000153345
0.000153345
0.000153345
0.000153345
0.000153345
0.000153345
0.000153345
0.000153345
0.000153345
0.000153345
0.000153345
0.000153345
0.000153345
0.000153345
0.000153345
0.000153345
0.000153345
0.000153345
0.000153345
0.000153345
0.000153345
0.000153345
0.000153345
0.000153345
0.000153345
0.000153345
0.000153345
0.000153345
0.000153345
0.000153345
0.000153345
0.000153345
0.000153345
0.000153345
0.000153345
0.000153345
0.000153345
0.000153345
0.000153345
0.000153345
0.000153345
0.000153345
0.000153345
0.000153345
0.000153345
0.000153345
0.000153345
0.000153345
0.000153345
0.000153345
0.000153345
0.000153345
0.000153345
0.000153345
0.000153345
0.000153345
0.000153345
0.000153345
0.000153345
0.000153345
0.000153345
0.000153345
0.000153345
0.000153345
0.000153345
0.000153345
0.000153345
0.000153345
0.000153345
0.000153345
0.000153345
0.000153345
0.000153345
0.000153345
0.000153345
0.000153345
0.000153345
0.000153345
0.000153345
0.000153345
0.000153345
0.000153345
0.000153345
0.000153345
0.000153345
0.000153345
0.000153345
0.000153345
0.000153345
0.000153345
0.000153345
0.000153345
0.000153345
0.000153345
0.000153345
0.000153345
0.000153345
0.000153345
0.000153345
0.000153345
0.000153345
0.000153345
0.000153345
0.000153345
0.000153345
0.000153345
0.000153345
0.000153345
0.000153345
0.000153345
0.000153345
0.000153345
0.000153345
0.000153345
0.000153345
0.000153345
0.000153345
0.000153345
0.000153345
0.000153345
0.000153345
0.000153345
0.000153345
0.000153345
0.000153345
0.000153345
0.000153345
0.000153345
0.000153345
0.000153345
0.000153345
0.000153345
0.000153345
0.000153345
0.000153345
0.000153345
0.000153345
0.000153345
0.000153345
0.000153345
0.000153345
0.000153345
0.000153345
0.000153345
0.000153345
0.000153345
0.000153345
0.000153345
0.000153345
0.000153345
0.000153345
0.000153345
0.000153345
0.000153345
0.000153345
0.000153345
0.000153345
0.000153345
0.000153345
0.000153345
0.000153345
0.000153345
0.000153345
0.000153345
0.000153345
0.000153345
0.000153345
0.000153345
0.000153345
0.000153345
0.000153345
0.000153345
0.000153345
0.000153345
0.000153345
0.000153345
0.000153345
0.000153345
0.000153345
0.000153345
0.000153345
0.000153345
0.000153345
0.000153345
0.000153345
0.000153345
0.000153345
0.000153345
0.000153345
0.000153345
0.000153345
0.000153345
0.000153345
0.000153345
0.000153345
0.000153345
0.000153345
0.000153345
0.000153345
0.000153345
0.000153345
0.000153345
0.000153345
3.46062e-05
3.17173e-05
3.979e-05
5.35812e-05
6.25661e-05
7.49584e-05
8.73269e-05
9.89696e-05
0.000109315
0.000118322
0.000125943
0.000132483
0.000138247
0.000143078
0.000147088
0.000150729
0.000154069
0.000157156
0.000160014
0.000162655
0.000165093
0.000167341
0.000169391
0.000171242
0.000172893
0.000174265
0.000175285
0.000176017
0.000176531
0.000176884
0.000177123
0.000177281
0.000177384
0.000177451
0.000177494
0.000177522
0.000177541
0.000177555
0.000177566
0.000177576
0.000177586
0.000177595
0.000177606
0.000177616
0.000177625
0.000177635
0.000177644
0.000177653
0.000177662
0.000177671
0.000177679
0.000177687
0.000177694
0.000177701
0.000177707
0.000177712
0.000177717
0.000177722
0.000177725
0.000177729
0.000177732
0.000177734
0.000177736
0.000177738
0.00017774
0.000177742
0.000177743
0.000177744
0.000177745
0.000177746
0.000177746
0.000177747
0.000177747
0.000177748
0.000177748
0.000177748
0.000177749
0.000177749
0.000177749
0.000177749
0.00017775
0.00017775
0.00017775
0.00017775
0.00017775
0.00017775
0.00017775
0.00017775
0.00017775
0.00017775
0.00017775
0.00017775
0.00017775
0.00017775
0.00017775
0.00017775
0.00017775
0.00017775
0.00017775
0.00017775
0.00017775
0.00017775
0.00017775
0.00017775
0.00017775
0.00017775
0.00017775
0.00017775
0.00017775
0.00017775
0.00017775
0.00017775
0.00017775
0.00017775
0.00017775
0.00017775
0.00017775
0.00017775
0.00017775
0.00017775
0.00017775
0.00017775
0.00017775
0.00017775
0.00017775
0.00017775
0.00017775
0.00017775
0.00017775
0.00017775
0.00017775
0.00017775
0.00017775
0.00017775
0.00017775
0.00017775
0.00017775
0.00017775
0.00017775
0.00017775
0.00017775
0.00017775
0.00017775
0.00017775
0.00017775
0.00017775
0.00017775
0.00017775
0.00017775
0.00017775
0.00017775
0.00017775
0.00017775
0.00017775
0.00017775
0.00017775
0.00017775
0.00017775
0.00017775
0.00017775
0.00017775
0.00017775
0.00017775
0.00017775
0.00017775
0.00017775
0.00017775
0.00017775
0.00017775
0.00017775
0.00017775
0.00017775
0.00017775
0.00017775
0.00017775
0.00017775
0.00017775
0.00017775
0.00017775
0.00017775
0.00017775
0.00017775
0.00017775
0.00017775
0.00017775
0.00017775
0.00017775
0.00017775
0.00017775
0.00017775
0.00017775
0.00017775
0.00017775
0.00017775
0.00017775
0.00017775
0.00017775
0.00017775
0.00017775
0.00017775
0.00017775
0.00017775
0.00017775
0.00017775
0.00017775
0.00017775
0.00017775
0.00017775
0.00017775
0.00017775
0.00017775
0.00017775
0.00017775
0.00017775
0.00017775
0.00017775
0.00017775
0.00017775
0.00017775
0.00017775
0.00017775
0.00017775
0.00017775
0.00017775
0.00017775
0.00017775
0.00017775
0.00017775
0.00017775
0.00017775
0.00017775
0.00017775
0.00017775
0.00017775
0.00017775
0.00017775
0.00017775
0.00017775
0.00017775
0.00017775
0.00017775
0.00017775
0.00017775
0.00017775
0.00017775
0.00017775
0.00017775
0.00017775
0.00017775
0.00017775
0.00017775
0.00017775
0.00017775
0.00017775
0.00017775
0.00017775
0.00017775
0.00017775
0.00017775
0.00017775
0.00017775
0.00017775
0.00017775
0.00017775
0.00017775
0.00017775
0.00017775
0.00017775
0.00017775
0.00017775
0.00017775
0.00017775
0.00017775
0.00017775
0.00017775
0.00017775
0.00017775
0.00017775
0.00017775
0.00017775
0.00017775
0.00017775
0.00017775
0.00017775
0.00017775
0.00017775
0.00017775
0.00017775
0.00017775
0.00017775
0.00017775
0.00017775
0.00017775
0.00017775
0.00017775
0.00017775
0.00017775
0.00017775
0.00017775
0.00017775
4.92001e-05
3.37688e-05
3.43075e-05
4.3247e-05
5.61741e-05
6.61482e-05
7.66745e-05
8.8758e-05
0.000100888
0.000112081
0.000122446
0.0001316
0.000139816
0.000147078
0.000153405
0.000158959
0.000164069
0.000168876
0.000173083
0.00017672
0.00018007
0.000183148
0.000185946
0.00018847
0.000190739
0.000192687
0.000194192
0.000195333
0.000196191
0.000196833
0.000197315
0.000197678
0.000197955
0.00019817
0.000198338
0.000198474
0.000198584
0.000198677
0.000198756
0.000198825
0.000198885
0.000198938
0.000198986
0.00019903
0.000199068
0.000199102
0.000199132
0.000199161
0.000199187
0.00019921
0.000199231
0.000199251
0.000199268
0.000199283
0.000199297
0.000199309
0.000199319
0.000199329
0.000199337
0.000199344
0.00019935
0.000199355
0.00019936
0.000199364
0.000199368
0.000199371
0.000199374
0.000199376
0.000199378
0.00019938
0.000199381
0.000199382
0.000199383
0.000199384
0.000199385
0.000199386
0.000199386
0.000199387
0.000199387
0.000199388
0.000199388
0.000199388
0.000199389
0.000199389
0.000199389
0.000199389
0.00019939
0.00019939
0.00019939
0.00019939
0.00019939
0.00019939
0.00019939
0.00019939
0.00019939
0.00019939
0.00019939
0.00019939
0.00019939
0.00019939
0.00019939
0.00019939
0.00019939
0.00019939
0.00019939
0.00019939
0.00019939
0.00019939
0.00019939
0.00019939
0.00019939
0.00019939
0.00019939
0.00019939
0.00019939
0.00019939
0.00019939
0.00019939
0.00019939
0.00019939
0.00019939
0.00019939
0.00019939
0.00019939
0.00019939
0.00019939
0.00019939
0.00019939
0.00019939
0.00019939
0.00019939
0.00019939
0.00019939
0.00019939
0.00019939
0.00019939
0.00019939
0.00019939
0.00019939
0.00019939
0.00019939
0.00019939
0.00019939
0.00019939
0.00019939
0.00019939
0.00019939
0.00019939
0.00019939
0.00019939
0.00019939
0.00019939
0.00019939
0.00019939
0.00019939
0.00019939
0.00019939
0.00019939
0.00019939
0.00019939
0.00019939
0.00019939
0.00019939
0.00019939
0.00019939
0.00019939
0.00019939
0.00019939
0.00019939
0.00019939
0.00019939
0.00019939
0.00019939
0.00019939
0.00019939
0.00019939
0.00019939
0.00019939
0.00019939
0.00019939
0.00019939
0.00019939
0.00019939
0.00019939
0.00019939
0.00019939
0.00019939
0.00019939
0.00019939
0.00019939
0.00019939
0.00019939
0.00019939
0.00019939
0.00019939
0.00019939
0.00019939
0.00019939
0.00019939
0.00019939
0.00019939
0.00019939
0.00019939
0.00019939
0.00019939
0.00019939
0.00019939
0.00019939
0.00019939
0.00019939
0.00019939
0.00019939
0.00019939
0.00019939
0.00019939
0.00019939
0.00019939
0.00019939
0.00019939
0.00019939
0.00019939
0.00019939
0.00019939
0.00019939
0.00019939
0.00019939
0.00019939
0.00019939
0.00019939
0.00019939
0.00019939
0.00019939
0.00019939
0.00019939
0.00019939
0.00019939
0.00019939
0.00019939
0.00019939
0.00019939
0.00019939
0.00019939
0.00019939
0.00019939
0.00019939
0.00019939
0.00019939
0.00019939
0.00019939
0.00019939
0.00019939
0.00019939
0.00019939
0.00019939
0.00019939
0.00019939
0.00019939
0.00019939
0.00019939
0.00019939
0.00019939
0.00019939
0.00019939
0.00019939
0.00019939
0.00019939
0.00019939
0.00019939
0.00019939
0.00019939
0.00019939
0.00019939
0.00019939
0.00019939
0.00019939
0.00019939
0.00019939
0.00019939
0.00019939
0.00019939
0.00019939
0.00019939
0.00019939
0.00019939
0.00019939
0.00019939
0.00019939
0.00019939
0.00019939
0.00019939
0.00019939
0.00019939
0.00019939
0.00019939
0.00019939
0.00019939
0.00019939
0.00019939
0.00019939
0.00019939
7.65725e-05
4.42477e-05
3.58787e-05
3.75205e-05
4.64103e-05
5.9312e-05
6.75476e-05
7.79397e-05
8.91385e-05
0.000100796
0.000112703
0.000123718
0.000134057
0.000143468
0.00015205
0.000159718
0.000166504
0.000172918
0.000178763
0.000184034
0.000188819
0.000192959
0.000196613
0.000199602
0.000202851
0.000206935
0.000209095
0.000210805
0.000212158
0.000213232
0.000214091
0.000214782
0.000215345
0.000215807
0.000216191
0.000216512
0.000216783
0.000217014
0.000217212
0.000217384
0.000217533
0.000217663
0.000217778
0.000217878
0.000217966
0.000218043
0.000218111
0.000218172
0.000218226
0.000218274
0.000218316
0.000218354
0.000218387
0.000218417
0.000218443
0.000218465
0.000218485
0.000218502
0.000218517
0.00021853
0.000218542
0.000218552
0.00021856
0.000218568
0.000218574
0.00021858
0.000218585
0.000218589
0.000218593
0.000218596
0.000218598
0.000218601
0.000218603
0.000218605
0.000218606
0.000218607
0.000218608
0.000218609
0.00021861
0.000218611
0.000218611
0.000218612
0.000218612
0.000218613
0.000218613
0.000218613
0.000218614
0.000218614
0.000218614
0.000218614
0.000218615
0.000218615
0.000218615
0.000218615
0.000218615
0.000218615
0.000218615
0.000218615
0.000218615
0.000218615
0.000218615
0.000218615
0.000218615
0.000218615
0.000218615
0.000218615
0.000218615
0.000218615
0.000218615
0.000218615
0.000218615
0.000218615
0.000218615
0.000218615
0.000218615
0.000218615
0.000218615
0.000218615
0.000218615
0.000218615
0.000218615
0.000218615
0.000218615
0.000218615
0.000218615
0.000218615
0.000218615
0.000218615
0.000218615
0.000218615
0.000218615
0.000218615
0.000218615
0.000218615
0.000218615
0.000218615
0.000218615
0.000218615
0.000218615
0.000218615
0.000218615
0.000218615
0.000218615
0.000218615
0.000218615
0.000218615
0.000218615
0.000218615
0.000218615
0.000218615
0.000218615
0.000218615
0.000218615
0.000218615
0.000218615
0.000218615
0.000218615
0.000218615
0.000218615
0.000218615
0.000218615
0.000218615
0.000218615
0.000218615
0.000218615
0.000218615
0.000218615
0.000218615
0.000218615
0.000218615
0.000218615
0.000218615
0.000218615
0.000218615
0.000218615
0.000218615
0.000218615
0.000218615
0.000218615
0.000218615
0.000218615
0.000218615
0.000218615
0.000218615
0.000218615
0.000218615
0.000218615
0.000218615
0.000218615
0.000218615
0.000218615
0.000218615
0.000218615
0.000218615
0.000218615
0.000218615
0.000218615
0.000218615
0.000218615
0.000218615
0.000218615
0.000218615
0.000218615
0.000218615
0.000218615
0.000218615
0.000218615
0.000218615
0.000218615
0.000218615
0.000218615
0.000218615
0.000218615
0.000218615
0.000218615
0.000218615
0.000218615
0.000218615
0.000218615
0.000218615
0.000218615
0.000218615
0.000218615
0.000218615
0.000218615
0.000218615
0.000218615
0.000218615
0.000218615
0.000218615
0.000218615
0.000218615
0.000218615
0.000218615
0.000218615
0.000218615
0.000218615
0.000218615
0.000218615
0.000218615
0.000218615
0.000218615
0.000218615
0.000218615
0.000218615
0.000218615
0.000218615
0.000218615
0.000218615
0.000218615
0.000218615
0.000218615
0.000218615
0.000218615
0.000218615
0.000218615
0.000218615
0.000218615
0.000218615
0.000218615
0.000218615
0.000218615
0.000218615
0.000218615
0.000218615
0.000218615
0.000218615
0.000218615
0.000218615
0.000218615
0.000218615
0.000218615
0.000218615
0.000218615
0.000218615
0.000218615
0.000218615
0.000218615
0.000218615
0.000218615
0.000218615
0.000218615
0.000218615
0.000218615
0.000218615
0.000218615
0.000218615
0.000218615
0.000218615
0.000218615
0.000218615
0.000218615
0.000218615
0.000218615
0.000218615
0.000218615
0.000218615
0.000218615
0.000218615
0.000218615
0.000127369
6.56545e-05
4.71054e-05
3.94769e-05
4.08093e-05
4.90049e-05
6.08347e-05
7.01576e-05
7.88507e-05
8.89175e-05
0.000100121
0.000111543
0.000123118
0.000134021
0.000144428
0.000154058
0.000162708
0.000170588
0.000177873
0.000184714
0.000190837
0.000196024
0.000200689
0.000205001
0.000210874
0.000217255
0.000220222
0.000222656
0.000224659
0.000226315
0.000227691
0.00022884
0.000229807
0.000230624
0.000231317
0.000231908
0.000232413
0.000232847
0.000233221
0.000233544
0.000233824
0.000234068
0.00023428
0.000234465
0.000234625
0.000234765
0.000234887
0.000234995
0.00023509
0.000235173
0.000235247
0.000235311
0.000235367
0.000235417
0.00023546
0.000235497
0.00023553
0.000235559
0.000235584
0.000235605
0.000235624
0.00023564
0.000235654
0.000235667
0.000235677
0.000235686
0.000235694
0.000235701
0.000235707
0.000235712
0.000235716