/*--------------------------------*- C++ -*----------------------------------*\
| =========                 |                                                 |
| \\      /  F ield         | foam-extend: Open Source CFD                    |
|  \\    /   O peration     | Version:     3.2                                |
|   \\  /    A nd           | Web:         http://www.foam-extend.org         |
|    \\/     M anipulation  | For copyright notice see file Copyright         |
\*---------------------------------------------------------------------------*/
FoamFile
{
    version     2.0;
    format      ascii;
    class       volScalarField;
    location    "91";
    object      omega;
}
// * * * * * * * * * * * * * * * * * * * * * * * * * * * * * * * * * * * * * //

dimensions      [0 0 -1 0 0 0 0];

internalField   nonuniform List<scalar> 
5400
(
986.751
795.61
691.699
687.896
679.47
677.125
672.993
671.905
670.593
670.834
671.294
672.296
673.659
675.379
677.29
679.427
681.77
684.276
686.827
689.565
692.478
695.465
698.544
701.653
704.784
707.973
710.956
713.573
715.774
717.623
719.158
720.439
721.5
722.384
723.117
723.727
724.234
724.657
725.012
725.31
725.56
725.773
725.954
726.11
726.243
726.355
726.443
726.517
726.587
726.648
726.701
726.747
726.787
726.822
726.853
726.88
726.903
726.923
726.941
726.956
726.969
726.981
726.991
726.999
727.007
727.013
727.019
727.024
727.028
727.032
727.035
727.038
727.04
727.042
727.044
727.045
727.046
727.048
727.049
727.049
727.05
727.051
727.051
727.052
727.052
727.052
727.053
727.053
727.053
727.053
727.054
727.054
727.054
727.054
727.054
727.054
727.054
727.054
727.054
727.054
727.054
727.054
727.054
727.054
727.054
727.054
727.054
727.054
727.054
727.054
727.054
727.054
727.054
727.054
727.054
727.054
727.054
727.054
727.054
727.054
727.054
727.054
727.055
727.054
727.055
727.054
727.054
727.055
727.055
727.055
727.055
727.055
727.055
727.055
727.055
727.055
727.055
727.055
727.055
727.055
727.055
727.055
727.055
727.055
727.055
727.055
727.055
727.055
727.055
727.055
727.055
727.055
727.055
727.055
727.055
727.055
727.055
727.055
727.055
727.055
727.055
727.055
727.055
727.055
727.055
727.055
727.055
727.055
727.055
727.055
727.055
727.055
727.055
727.055
727.055
727.055
727.055
727.055
727.055
727.055
727.055
727.055
727.055
727.055
727.055
727.055
727.055
727.055
727.055
727.055
727.055
727.055
727.055
727.055
727.055
727.055
727.055
727.055
727.055
727.055
727.055
727.055
727.055
727.055
727.055
727.055
727.055
727.055
727.055
727.055
727.055
727.055
727.055
727.055
727.055
727.055
727.055
727.055
727.055
727.055
727.055
727.055
727.055
727.055
727.055
727.055
727.055
727.055
727.055
727.055
727.055
727.055
727.055
727.055
727.055
727.055
727.055
727.055
727.055
727.055
727.055
727.055
727.055
727.055
727.055
727.055
727.055
727.055
727.055
727.055
727.055
727.055
727.055
727.055
727.055
727.055
727.055
727.055
727.055
727.055
727.055
727.055
727.055
727.055
727.055
727.055
727.055
727.055
727.055
727.055
727.055
727.055
727.055
727.055
727.055
727.055
727.055
727.055
727.055
727.055
727.055
727.055
727.055
727.055
727.055
727.055
727.055
727.055
727.055
727.055
727.055
727.055
727.055
727.055
727.054
727.055
727.054
727.055
727.055
727.054
387.618
357.867
316.53
299.642
287.642
281.953
277.492
275.027
273.139
272.162
271.55
271.334
271.355
271.595
272.003
272.543
273.203
273.98
274.806
275.701
276.685
277.727
278.823
279.954
281.106
282.31
283.46
284.503
285.411
286.193
286.858
287.422
287.898
288.299
288.636
288.92
289.158
289.357
289.525
289.667
289.786
289.886
289.971
290.045
290.107
290.16
290.204
290.241
290.273
290.301
290.325
290.346
290.364
290.381
290.396
290.408
290.418
290.427
290.435
290.442
290.447
290.452
290.457
290.461
290.464
290.467
290.469
290.472
290.473
290.475
290.476
290.478
290.479
290.48
290.48
290.481
290.482
290.482
290.483
290.483
290.483
290.483
290.484
290.484
290.484
290.484
290.484
290.484
290.485
290.485
290.485
290.485
290.485
290.485
290.485
290.485
290.485
290.485
290.485
290.485
290.485
290.485
290.485
290.485
290.485
290.485
290.485
290.485
290.485
290.485
290.485
290.485
290.485
290.485
290.485
290.485
290.485
290.485
290.485
290.485
290.485
290.485
290.485
290.485
290.485
290.485
290.485
290.485
290.485
290.485
290.485
290.485
290.485
290.485
290.485
290.485
290.485
290.485
290.485
290.485
290.485
290.485
290.485
290.485
290.485
290.485
290.485
290.485
290.485
290.485
290.485
290.485
290.485
290.485
290.485
290.485
290.485
290.485
290.485
290.485
290.485
290.485
290.485
290.485
290.485
290.485
290.485
290.485
290.485
290.485
290.485
290.485
290.485
290.485
290.485
290.485
290.485
290.485
290.485
290.485
290.485
290.485
290.485
290.485
290.485
290.485
290.485
290.485
290.485
290.485
290.485
290.485
290.485
290.485
290.485
290.485
290.485
290.485
290.485
290.485
290.485
290.485
290.485
290.485
290.485
290.485
290.485
290.485
290.485
290.485
290.485
290.485
290.485
290.485
290.485
290.485
290.485
290.485
290.485
290.485
290.485
290.485
290.485
290.485
290.485
290.485
290.485
290.485
290.485
290.485
290.485
290.485
290.485
290.485
290.485
290.485
290.485
290.485
290.485
290.485
290.485
290.485
290.485
290.485
290.485
290.485
290.485
290.485
290.485
290.485
290.485
290.485
290.485
290.485
290.485
290.485
290.485
290.485
290.485
290.485
290.485
290.485
290.485
290.485
290.485
290.485
290.485
290.485
290.485
290.485
290.485
290.485
290.485
290.485
290.485
290.485
290.485
290.485
290.485
290.485
290.485
290.485
290.485
290.485
290.485
290.485
290.485
290.485
290.485
290.485
290.485
290.485
290.485
290.485
290.485
290.485
290.485
290.485
290.485
290.485
194.584
207.13
202.613
191.029
181.018
174.71
170.046
167.069
164.92
163.468
162.445
161.795
161.4
161.179
161.117
161.178
161.342
161.607
161.932
162.305
162.736
163.216
163.736
164.289
164.865
165.469
166.039
166.558
167.016
167.417
167.764
168.062
168.316
168.533
168.716
168.872
169.003
169.113
169.206
169.285
169.351
169.407
169.455
169.495
169.53
169.559
169.584
169.605
169.622
169.638
169.651
169.662
169.672
169.681
169.688
169.694
169.7
169.705
169.709
169.713
169.716
169.718
169.721
169.723
169.724
169.726
169.727
169.728
169.729
169.73
169.731
169.732
169.732
169.733
169.733
169.733
169.734
169.734
169.734
169.734
169.735
169.735
169.735
169.735
169.735
169.735
169.735
169.735
169.735
169.735
169.735
169.735
169.735
169.735
169.735
169.735
169.735
169.735
169.735
169.735
169.736
169.736
169.736
169.736
169.736
169.736
169.736
169.736
169.736
169.736
169.736
169.736
169.736
169.736
169.736
169.736
169.736
169.736
169.736
169.736
169.736
169.736
169.736
169.736
169.736
169.736
169.736
169.736
169.736
169.736
169.736
169.736
169.736
169.736
169.736
169.736
169.736
169.736
169.736
169.736
169.736
169.736
169.736
169.736
169.736
169.736
169.736
169.736
169.736
169.736
169.736
169.736
169.736
169.736
169.736
169.736
169.736
169.736
169.736
169.736
169.736
169.736
169.736
169.736
169.736
169.736
169.736
169.736
169.736
169.736
169.736
169.736
169.736
169.736
169.736
169.736
169.736
169.736
169.736
169.736
169.736
169.736
169.736
169.736
169.736
169.736
169.736
169.736
169.736
169.736
169.736
169.736
169.736
169.736
169.736
169.736
169.736
169.736
169.736
169.736
169.736
169.736
169.736
169.736
169.736
169.736
169.736
169.736
169.736
169.736
169.736
169.736
169.736
169.736
169.736
169.736
169.736
169.736
169.736
169.736
169.736
169.736
169.736
169.736
169.736
169.736
169.736
169.736
169.736
169.736
169.736
169.736
169.736
169.736
169.736
169.736
169.736
169.736
169.736
169.736
169.736
169.736
169.736
169.736
169.736
169.736
169.736
169.736
169.736
169.736
169.736
169.736
169.736
169.736
169.736
169.736
169.736
169.736
169.736
169.736
169.736
169.736
169.736
169.736
169.736
169.736
169.736
169.736
169.736
169.736
169.736
169.736
169.736
169.736
169.736
169.736
169.736
169.736
169.736
169.736
169.736
169.736
169.736
169.736
169.736
169.736
169.736
169.736
169.736
169.736
169.736
169.736
169.736
169.736
169.736
169.736
169.736
169.736
169.735
169.736
105.582
135.98
142.265
139.592
134.87
129.944
125.62
122.412
119.982
118.154
116.823
115.865
115.18
114.688
114.345
114.135
114.03
114.022
114.083
114.193
114.351
114.555
114.795
115.065
115.359
115.66
115.923
116.152
116.352
116.528
116.681
116.814
116.928
117.027
117.111
117.183
117.243
117.295
117.338
117.375
117.405
117.432
117.453
117.472
117.488
117.502
117.513
117.523
117.531
117.538
117.544
117.549
117.553
117.557
117.56
117.563
117.565
117.567
117.569
117.57
117.572
117.573
117.574
117.575
117.576
117.576
117.577
117.577
117.577
117.578
117.578
117.578
117.578
117.579
117.579
117.579
117.579
117.579
117.579
117.579
117.579
117.579
117.58
117.58
117.58
117.58
117.58
117.58
117.58
117.58
117.58
117.58
117.58
117.58
117.58
117.58
117.58
117.58
117.58
117.58
117.58
117.58
117.58
117.58
117.58
117.58
117.58
117.58
117.58
117.58
117.58
117.58
117.58
117.58
117.58
117.58
117.58
117.58
117.58
117.58
117.58
117.58
117.58
117.58
117.58
117.58
117.58
117.58
117.58
117.58
117.58
117.58
117.58
117.58
117.58
117.58
117.58
117.58
117.58
117.58
117.58
117.58
117.58
117.58
117.58
117.58
117.58
117.58
117.58
117.58
117.58
117.58
117.58
117.58
117.58
117.58
117.58
117.58
117.58
117.58
117.58
117.58
117.58
117.58
117.58
117.58
117.58
117.58
117.58
117.58
117.58
117.58
117.58
117.58
117.58
117.58
117.58
117.58
117.58
117.58
117.58
117.58
117.58
117.58
117.58
117.58
117.58
117.58
117.58
117.58
117.58
117.58
117.58
117.58
117.58
117.58
117.58
117.58
117.58
117.58
117.58
117.58
117.58
117.58
117.58
117.58
117.58
117.58
117.58
117.58
117.58
117.58
117.58
117.58
117.58
117.58
117.58
117.58
117.58
117.58
117.58
117.58
117.58
117.58
117.58
117.58
117.58
117.58
117.58
117.58
117.58
117.58
117.58
117.58
117.58
117.58
117.58
117.58
117.58
117.58
117.58
117.58
117.58
117.58
117.58
117.58
117.58
117.58
117.58
117.58
117.58
117.58
117.58
117.58
117.58
117.58
117.58
117.58
117.58
117.58
117.58
117.58
117.58
117.58
117.58
117.58
117.58
117.58
117.58
117.58
117.58
117.58
117.58
117.58
117.58
117.58
117.58
117.58
117.58
117.58
117.58
117.58
117.58
117.58
117.58
117.58
117.58
117.58
117.58
117.58
117.58
117.58
117.58
117.58
117.58
117.58
117.58
117.58
117.58
117.58
58.6939
90.0201
104.357
106.579
106.422
104.604
101.701
98.9056
96.5003
94.5159
92.9616
91.754
90.8122
90.0986
89.5557
89.1473
88.8518
88.6529
88.5308
88.4635
88.4445
88.4702
88.529
88.6164
88.7202
88.809
88.8526
88.8722
88.881
88.8861
88.8893
88.892
88.8941
88.8958
88.8972
88.8984
88.8993
88.9
88.9004
88.9007
88.9007
88.9007
88.9005
88.9001
88.8999
88.8997
88.8994
88.8991
88.8987
88.8984
88.898
88.8977
88.8973
88.8971
88.8968
88.8965
88.8963
88.8961
88.8959
88.8957
88.8956
88.8954
88.8953
88.8952
88.8951
88.8951
88.8949
88.8948
88.8947
88.8947
88.8946
88.8946
88.8946
88.8947
88.8947
88.8947
88.8947
88.8947
88.8947
88.8947
88.8947
88.8947
88.8947
88.8947
88.8946
88.8946
88.8946
88.8946
88.8946
88.8946
88.8946
88.8946
88.8946
88.8946
88.8946
88.8946
88.8946
88.8946
88.8946
88.8946
88.8946
88.8946
88.8946
88.8946
88.8946
88.8946
88.8946
88.8946
88.8946
88.8946
88.8946
88.8946
88.8946
88.8946
88.8946
88.8946
88.8946
88.8946
88.8946
88.8946
88.8946
88.8946
88.8946
88.8946
88.8946
88.8946
88.8946
88.8946
88.8946
88.8946
88.8946
88.8946
88.8946
88.8946
88.8946
88.8946
88.8946
88.8946
88.8946
88.8946
88.8946
88.8946
88.8946
88.8946
88.8946
88.8946
88.8946
88.8946
88.8946
88.8946
88.8946
88.8946
88.8946
88.8946
88.8946
88.8946
88.8946
88.8946
88.8946
88.8946
88.8946
88.8946
88.8946
88.8946
88.8946
88.8946
88.8946
88.8946
88.8946
88.8946
88.8946
88.8946
88.8946
88.8946
88.8946
88.8946
88.8946
88.8946
88.8946
88.8946
88.8946
88.8946
88.8946
88.8946
88.8946
88.8946
88.8946
88.8946
88.8946
88.8946
88.8946
88.8946
88.8946
88.8946
88.8946
88.8946
88.8946
88.8946
88.8946
88.8946
88.8946
88.8946
88.8946
88.8946
88.8946
88.8946
88.8946
88.8946
88.8946
88.8946
88.8946
88.8946
88.8946
88.8946
88.8946
88.8946
88.8946
88.8946
88.8946
88.8946
88.8946
88.8946
88.8946
88.8946
88.8946
88.8946
88.8946
88.8946
88.8946
88.8946
88.8946
88.8946
88.8946
88.8946
88.8946
88.8946
88.8946
88.8946
88.8946
88.8946
88.8946
88.8946
88.8946
88.8946
88.8946
88.8946
88.8946
88.8946
88.8946
88.8946
88.8946
88.8946
88.8946
88.8946
88.8946
88.8946
88.8946
88.8946
88.8946
88.8946
88.8946
88.8946
88.8946
88.8946
88.8946
88.8946
88.8946
88.8946
88.8946
88.8946
88.8946
88.8946
88.8946
88.8946
88.8946
88.8946
88.8946
88.8946
88.8946
88.8946
88.8946
88.8946
88.8946
88.8946
88.8946
88.8946
88.8946
88.8946
88.8946
88.8946
88.8946
88.8946
88.8946
88.8946
88.8946
88.8946
88.8946
88.8946
88.8946
88.8946
32.5596
57.5396
74.8805
82.9744
86.125
85.9814
85.3245
83.8194
81.9896
80.215
78.6414
77.3162
76.2177
75.3303
74.6236
74.057
73.6037
73.2461
72.9746
72.7684
72.6121
72.5013
72.4211
72.3657
72.31
72.21
72.0682
71.9152
71.7666
71.6296
71.5063
71.3971
71.3013
71.218
71.1459
71.0839
71.0308
70.9854
70.9465
70.9134
70.8851
70.8609
70.8402
70.8224
70.8071
70.7942
70.783
70.7735
70.7653
70.7582
70.7521
70.7468
70.7422
70.7382
70.7348
70.7318
70.7292
70.7269
70.725
70.7233
70.7218
70.7205
70.7194
70.7184
70.7176
70.7169
70.7163
70.7157
70.7153
70.7149
70.7145
70.7142
70.714
70.7138
70.7136
70.7135
70.7133
70.7132
70.7131
70.713
70.7129
70.7129
70.7128
70.7128
70.7127
70.7127
70.7126
70.7126
70.7126
70.7126
70.7126
70.7125
70.7125
70.7125
70.7125
70.7125
70.7125
70.7125
70.7125
70.7125
70.7125
70.7125
70.7125
70.7125
70.7125
70.7125
70.7125
70.7125
70.7125
70.7125
70.7125
70.7125
70.7125
70.7125
70.7125
70.7125
70.7124
70.7124
70.7124
70.7124
70.7124
70.7124
70.7124
70.7124
70.7124
70.7124
70.7124
70.7124
70.7124
70.7124
70.7124
70.7124
70.7124
70.7124
70.7124
70.7124
70.7124
70.7124
70.7124
70.7124
70.7124
70.7124
70.7124
70.7124
70.7124
70.7124
70.7124
70.7124
70.7124
70.7124
70.7124
70.7124
70.7124
70.7124
70.7124
70.7124
70.7124
70.7124
70.7124
70.7124
70.7124
70.7124
70.7124
70.7124
70.7124
70.7124
70.7124
70.7124
70.7124
70.7124
70.7124
70.7124
70.7124
70.7124
70.7124
70.7124
70.7124
70.7124
70.7124
70.7124
70.7124
70.7124
70.7124
70.7124
70.7124
70.7124
70.7124
70.7124
70.7124
70.7124
70.7124
70.7124
70.7124
70.7124
70.7124
70.7124
70.7124
70.7124
70.7124
70.7124
70.7124
70.7124
70.7124
70.7124
70.7124
70.7124
70.7124
70.7124
70.7124
70.7124
70.7124
70.7124
70.7124
70.7124
70.7124
70.7124
70.7124
70.7124
70.7124
70.7124
70.7124
70.7124
70.7124
70.7124
70.7124
70.7124
70.7124
70.7124
70.7124
70.7124
70.7124
70.7124
70.7124
70.7124
70.7124
70.7124
70.7124
70.7124
70.7124
70.7124
70.7124
70.7124
70.7124
70.7124
70.7124
70.7124
70.7124
70.7124
70.7124
70.7124
70.7124
70.7124
70.7124
70.7124
70.7124
70.7124
70.7124
70.7124
70.7124
70.7124
70.7124
70.7124
70.7124
70.7124
70.7124
70.7124
70.7124
70.7124
70.7124
70.7124
70.7124
70.7124
70.7124
70.7124
70.7124
70.7124
70.7124
70.7124
70.7124
70.7124
70.7124
70.7124
70.7124
70.7124
70.7124
70.7124
70.7124
70.7124
70.7124
70.7124
70.7124
70.7124
70.7124
70.7124
70.7124
70.7124
70.7124
70.7124
70.7124
70.7125
18.0229
34.7486
50.0466
62.1345
69.3675
71.7253
72.3033
71.9751
71.2893
70.1733
68.9118
67.6968
66.5971
65.6429
64.8308
64.1523
63.5856
63.1078
62.7158
62.3897
62.1134
61.8848
61.6822
61.4974
61.2805
60.9837
60.6733
60.3708
60.0875
59.8288
59.5963
59.39
59.2085
59.0504
58.9133
58.7951
58.6937
58.6069
58.5326
58.4693
58.4153
58.3691
58.3297
58.296
58.2672
58.2426
58.2216
58.2036
58.1882
58.175
58.1637
58.1539
58.1455
58.1382
58.1319
58.1265
58.1218
58.1177
58.1142
58.1111
58.1085
58.1062
58.1042
58.1025
58.101
58.0998
58.0987
58.0977
58.0969
58.0962
58.0956
58.095
58.0946
58.0942
58.0938
58.0935
58.0933
58.093
58.0929
58.0927
58.0926
58.0924
58.0923
58.0922
58.0922
58.0921
58.092
58.0919
58.0918
58.0918
58.0918
58.0917
58.0917
58.0917
58.0917
58.0917
58.0916
58.0916
58.0916
58.0916
58.0916
58.0916
58.0916
58.0916
58.0916
58.0916
58.0916
58.0916
58.0916
58.0916
58.0916
58.0916
58.0916
58.0916
58.0916
58.0916
58.0916
58.0916
58.0916
58.0916
58.0916
58.0916
58.0916
58.0916
58.0916
58.0916
58.0916
58.0916
58.0916
58.0916
58.0916
58.0916
58.0916
58.0916
58.0916
58.0916
58.0916
58.0916
58.0916
58.0916
58.0916
58.0916
58.0916
58.0916
58.0916
58.0916
58.0916
58.0916
58.0916
58.0916
58.0916
58.0916
58.0916
58.0916
58.0916
58.0916
58.0916
58.0916
58.0916
58.0916
58.0916
58.0916
58.0916
58.0916
58.0916
58.0916
58.0916
58.0916
58.0916
58.0916
58.0916
58.0916
58.0916
58.0916
58.0916
58.0916
58.0916
58.0916
58.0916
58.0916
58.0916
58.0916
58.0916
58.0916
58.0916
58.0916
58.0916
58.0916
58.0916
58.0916
58.0916
58.0916
58.0916
58.0916
58.0916
58.0916
58.0916
58.0916
58.0916
58.0916
58.0916
58.0916
58.0916
58.0916
58.0916
58.0916
58.0916
58.0916
58.0916
58.0916
58.0916
58.0916
58.0916
58.0916
58.0916
58.0916
58.0916
58.0916
58.0916
58.0916
58.0916
58.0916
58.0916
58.0916
58.0916
58.0916
58.0916
58.0916
58.0916
58.0916
58.0916
58.0916
58.0916
58.0916
58.0916
58.0916
58.0916
58.0916
58.0916
58.0916
58.0916
58.0916
58.0916
58.0916
58.0916
58.0916
58.0916
58.0916
58.0916
58.0916
58.0916
58.0916
58.0916
58.0916
58.0916
58.0916
58.0916
58.0916
58.0916
58.0916
58.0916
58.0916
58.0916
58.0916
58.0916
58.0916
58.0916
58.0916
58.0916
58.0916
58.0916
58.0916
58.0916
58.0916
58.0916
58.0916
58.0916
58.0916
58.0916
58.0916
58.0916
58.0916
58.0916
58.0916
58.0916
58.0916
58.0916
58.0916
58.0916
58.0916
58.0916
58.0916
58.0916
58.0916
58.0916
58.0916
58.0916
58.0916
58.0916
58.0916
10.2657
20.3406
30.962
42.8874
52.9887
58.7591
61.4536
62.2568
62.1763
61.8536
61.2844
60.4627
59.5712
58.7057
57.8989
57.1803
56.5559
56.0101
55.5345
55.1131
54.7353
54.3996
54.076
53.7468
53.3467
52.8667
52.4082
51.9776
51.5797
51.2177
50.8925
50.6036
50.3494
50.1274
49.9348
49.7687
49.6258
49.5034
49.3988
49.3094
49.2331
49.1681
49.1125
49.065
49.0244
48.9897
48.9602
48.9349
48.9133
48.8949
48.879
48.8654
48.8537
48.8436
48.8349
48.8274
48.8209
48.8153
48.8104
48.8062
48.8026
48.7995
48.7968
48.7945
48.7924
48.7907
48.7892
48.7879
48.7868
48.7858
48.7849
48.7842
48.7836
48.7831
48.7826
48.7822
48.7818
48.7815
48.7813
48.7811
48.7809
48.7807
48.7806
48.7804
48.7803
48.7802
48.7801
48.78
48.78
48.7799
48.7799
48.7798
48.7798
48.7798
48.7798
48.7798
48.7798
48.7798
48.7798
48.7798
48.7798
48.7797
48.7797
48.7797
48.7797
48.7797
48.7797
48.7797
48.7797
48.7797
48.7797
48.7797
48.7797
48.7797
48.7797
48.7797
48.7797
48.7797
48.7797
48.7797
48.7797
48.7797
48.7797
48.7797
48.7797
48.7797
48.7797
48.7797
48.7797
48.7797
48.7797
48.7797
48.7797
48.7797
48.7797
48.7797
48.7797
48.7797
48.7797
48.7797
48.7797
48.7797
48.7797
48.7797
48.7797
48.7797
48.7797
48.7797
48.7797
48.7797
48.7797
48.7797
48.7797
48.7797
48.7797
48.7797
48.7797
48.7797
48.7797
48.7797
48.7797
48.7797
48.7797
48.7797
48.7797
48.7797
48.7797
48.7797
48.7797
48.7797
48.7797
48.7797
48.7797
48.7797
48.7797
48.7797
48.7797
48.7797
48.7797
48.7797
48.7797
48.7797
48.7797
48.7797
48.7797
48.7797
48.7797
48.7797
48.7797
48.7797
48.7797
48.7797
48.7797
48.7797
48.7797
48.7797
48.7797
48.7797
48.7797
48.7797
48.7797
48.7797
48.7797
48.7797
48.7797
48.7797
48.7797
48.7797
48.7797
48.7797
48.7797
48.7797
48.7797
48.7797
48.7797
48.7797
48.7797
48.7797
48.7797
48.7797
48.7797
48.7797
48.7797
48.7797
48.7797
48.7797
48.7797
48.7797
48.7797
48.7797
48.7797
48.7797
48.7797
48.7797
48.7797
48.7797
48.7797
48.7797
48.7797
48.7797
48.7797
48.7797
48.7797
48.7797
48.7797
48.7797
48.7797
48.7797
48.7797
48.7797
48.7797
48.7797
48.7797
48.7797
48.7797
48.7797
48.7797
48.7797
48.7797
48.7797
48.7797
48.7797
48.7797
48.7797
48.7797
48.7797
48.7797
48.7797
48.7797
48.7797
48.7797
48.7797
48.7797
48.7797
48.7797
48.7797
48.7797
48.7797
48.7797
48.7797
48.7797
48.7797
48.7797
48.7797
48.7797
48.7797
48.7797
48.7797
48.7797
48.7797
48.7797
48.7797
48.7797
48.7797
48.7797
48.7797
48.7797
48.7797
48.7797
48.7797
5.85072
12.067
18.3788
27.0652
37.0538
45.3936
50.6904
53.4097
54.434
54.6945
54.504
54.2132
53.78
53.1889
52.5395
51.8924
51.2801
50.7215
50.2063
49.7236
49.2652
48.8255
48.3684
47.8665
47.2779
46.6659
46.0902
45.5554
45.0639
44.6178
44.2175
43.862
43.5493
43.2762
43.0392
42.8347
42.6588
42.508
42.3789
42.2687
42.1746
42.0944
42.0258
41.9673
41.9172
41.8744
41.838
41.8069
41.7804
41.7577
41.7382
41.7216
41.7072
41.6949
41.6843
41.6751
41.6672
41.6604
41.6545
41.6495
41.6451
41.6413
41.6381
41.6353
41.6328
41.6307
41.6289
41.6273
41.626
41.6248
41.6238
41.623
41.6222
41.6216
41.621
41.6205
41.6201
41.6197
41.6194
41.6192
41.6189
41.6187
41.6186
41.6184
41.6183
41.6182
41.6181
41.618
41.6179
41.6179
41.6178
41.6178
41.6177
41.6178
41.6177
41.6177
41.6177
41.6177
41.6177
41.6176
41.6176
41.6176
41.6176
41.6176
41.6176
41.6176
41.6176
41.6176
41.6176
41.6176
41.6176
41.6176
41.6176
41.6176
41.6176
41.6176
41.6176
41.6176
41.6176
41.6176
41.6176
41.6176
41.6176
41.6176
41.6176
41.6176
41.6176
41.6176
41.6176
41.6176
41.6176
41.6176
41.6176
41.6176
41.6176
41.6176
41.6176
41.6176
41.6176
41.6176
41.6176
41.6176
41.6176
41.6176
41.6176
41.6176
41.6176
41.6176
41.6176
41.6176
41.6176
41.6176
41.6176
41.6176
41.6176
41.6176
41.6176
41.6176
41.6176
41.6176
41.6176
41.6176
41.6176
41.6176
41.6176
41.6176
41.6176
41.6176
41.6176
41.6176
41.6176
41.6176
41.6176
41.6176
41.6176
41.6176
41.6176
41.6176
41.6176
41.6176
41.6176
41.6176
41.6176
41.6176
41.6176
41.6176
41.6176
41.6176
41.6176
41.6176
41.6176
41.6176
41.6176
41.6176
41.6176
41.6176
41.6176
41.6176
41.6176
41.6176
41.6176
41.6176
41.6176
41.6176
41.6176
41.6176
41.6176
41.6176
41.6176
41.6176
41.6176
41.6176
41.6176
41.6176
41.6176
41.6176
41.6176
41.6176
41.6176
41.6176
41.6176
41.6176
41.6176
41.6176
41.6176
41.6176
41.6176
41.6176
41.6176
41.6176
41.6176
41.6176
41.6176
41.6176
41.6176
41.6176
41.6176
41.6176
41.6176
41.6176
41.6176
41.6176
41.6176
41.6176
41.6176
41.6176
41.6176
41.6176
41.6176
41.6176
41.6176
41.6176
41.6176
41.6176
41.6176
41.6176
41.6176
41.6176
41.6176
41.6176
41.6176
41.6176
41.6176
41.6176
41.6176
41.6176
41.6176
41.6176
41.6176
41.6176
41.6176
41.6176
41.6176
41.6176
41.6176
41.6176
41.6176
41.6176
41.6176
41.6176
41.6176
41.6176
41.6176
41.6176
41.6176
41.6176
41.6176
41.6176
41.6176
41.6176
41.6176
41.6176
41.6176
41.6176
41.6176
41.6176
41.6176
41.6176
41.6176
41.6176
3.59259
7.10714
11.1396
16.3788
23.7105
32.069
39.2403
44.0819
46.8635
48.1629
48.6157
48.6771
48.4943
48.2534
47.9276
47.4939
46.9933
46.4905
45.9824
45.4748
44.9545
44.4071
43.8012
43.1203
42.3938
41.704
41.0461
40.4338
39.8718
39.3625
38.9064
38.5022
38.1469
37.8369
37.5681
37.3362
37.1366
36.9656
36.8192
36.6941
36.5872
36.4961
36.4182
36.3517
36.2948
36.2463
36.2049
36.1697
36.1396
36.1138
36.0918
36.073
36.0568
36.0429
36.0309
36.0206
36.0118
36.0041
35.9976
35.9919
35.987
35.9828
35.9792
35.976
35.9733
35.971
35.969
35.9672
35.9657
35.9644
35.9633
35.9624
35.9615
35.9608
35.9602
35.9597
35.9592
35.9588
35.9585
35.9582
35.9579
35.9577
35.9575
35.9573
35.9572
35.9571
35.957
35.9569
35.9568
35.9567
35.9567
35.9566
35.9566
35.9566
35.9565
35.9565
35.9565
35.9565
35.9564
35.9564
35.9564
35.9564
35.9564
35.9564
35.9564
35.9564
35.9563
35.9563
35.9563
35.9563
35.9563
35.9563
35.9563
35.9563
35.9563
35.9563
35.9563
35.9563
35.9563
35.9563
35.9563
35.9563
35.9563
35.9563
35.9563
35.9563
35.9563
35.9563
35.9563
35.9563
35.9563
35.9563
35.9563
35.9563
35.9563
35.9563
35.9563
35.9563
35.9563
35.9563
35.9563
35.9563
35.9563
35.9563
35.9563
35.9563
35.9563
35.9563
35.9563
35.9563
35.9563
35.9563
35.9563
35.9563
35.9563
35.9563
35.9563
35.9563
35.9563
35.9563
35.9563
35.9563
35.9563
35.9563
35.9563
35.9563
35.9563
35.9563
35.9563
35.9563
35.9563
35.9563
35.9563
35.9563
35.9563
35.9563
35.9563
35.9563
35.9563
35.9563
35.9563
35.9563
35.9563
35.9563
35.9563
35.9563
35.9563
35.9563
35.9563
35.9563
35.9563
35.9563
35.9563
35.9563
35.9563
35.9563
35.9563
35.9563
35.9563
35.9563
35.9563
35.9563
35.9563
35.9563
35.9563
35.9563
35.9563
35.9563
35.9563
35.9563
35.9563
35.9563
35.9563
35.9563
35.9563
35.9563
35.9563
35.9563
35.9563
35.9563
35.9563
35.9563
35.9563
35.9563
35.9563
35.9563
35.9563
35.9563
35.9563
35.9563
35.9563
35.9563
35.9563
35.9563
35.9563
35.9563
35.9563
35.9563
35.9563
35.9563
35.9563
35.9563
35.9563
35.9563
35.9563
35.9563
35.9563
35.9563
35.9563
35.9563
35.9563
35.9563
35.9563
35.9563
35.9563
35.9563
35.9563
35.9563
35.9563
35.9563
35.9563
35.9563
35.9563
35.9563
35.9563
35.9563
35.9563
35.9563
35.9563
35.9563
35.9563
35.9563
35.9563
35.9563
35.9563
35.9563
35.9563
35.9563
35.9563
35.9563
35.9563
35.9563
35.9563
35.9563
35.9563
35.9563
35.9563
35.9563
35.9563
35.9563
35.9563
35.9563
35.9563
35.9563
35.9563
35.9563
35.9563
35.9563
35.9563
35.9563
2.38061
4.35965
6.68629
10.1719
14.6306
20.8317
27.8196
34.0418
38.5897
41.3661
42.9086
43.6125
43.8268
43.8152
43.6548
43.4395
43.1539
42.7942
42.349
41.8456
41.2833
40.6349
39.8935
39.0912
38.3166
37.5812
36.8734
36.2115
35.6041
35.0548
34.5642
34.1304
33.75
33.4185
33.1313
32.8835
32.6704
32.4877
32.3312
32.1975
32.0833
31.9857
31.9024
31.8312
31.7703
31.7184
31.6741
31.6364
31.6042
31.5767
31.5532
31.5331
31.5158
31.501
31.4883
31.4774
31.468
31.4599
31.453
31.447
31.4419
31.4374
31.4336
31.4303
31.4275
31.425
31.4229
31.4211
31.4195
31.4182
31.417
31.416
31.4151
31.4144
31.4137
31.4132
31.4127
31.4123
31.4119
31.4116
31.4113
31.4111
31.4109
31.4107
31.4106
31.4105
31.4104
31.4103
31.4102
31.4101
31.4101
31.41
31.41
31.4099
31.4099
31.4099
31.4098
31.4098
31.4098
31.4098
31.4098
31.4098
31.4097
31.4097
31.4097
31.4097
31.4097
31.4097
31.4097
31.4097
31.4097
31.4097
31.4097
31.4097
31.4097
31.4097
31.4097
31.4097
31.4097
31.4097
31.4097
31.4097
31.4097
31.4097
31.4097
31.4097
31.4097
31.4097
31.4097
31.4097
31.4097
31.4097
31.4097
31.4097
31.4097
31.4097
31.4097
31.4097
31.4097
31.4097
31.4097
31.4097
31.4097
31.4097
31.4097
31.4097
31.4097
31.4097
31.4097
31.4097
31.4097
31.4097
31.4097
31.4097
31.4097
31.4097
31.4097
31.4097
31.4097
31.4097
31.4097
31.4097
31.4097
31.4097
31.4097
31.4097
31.4097
31.4097
31.4097
31.4097
31.4097
31.4097
31.4097
31.4097
31.4097
31.4097
31.4097
31.4097
31.4097
31.4097
31.4097
31.4097
31.4097
31.4097
31.4097
31.4097
31.4097
31.4097
31.4097
31.4097
31.4097
31.4097
31.4097
31.4097
31.4097
31.4097
31.4097
31.4097
31.4097
31.4097
31.4097
31.4097
31.4097
31.4097
31.4097
31.4097
31.4097
31.4097
31.4097
31.4097
31.4097
31.4097
31.4097
31.4097
31.4097
31.4097
31.4097
31.4097
31.4097
31.4097
31.4097
31.4097
31.4097
31.4097
31.4097
31.4097
31.4097
31.4097
31.4097
31.4097
31.4097
31.4097
31.4097
31.4097
31.4097
31.4097
31.4097
31.4097
31.4097
31.4097
31.4097
31.4097
31.4097
31.4097
31.4097
31.4097
31.4097
31.4097
31.4097
31.4097
31.4097
31.4097
31.4097
31.4097
31.4097
31.4097
31.4097
31.4097
31.4097
31.4097
31.4097
31.4097
31.4097
31.4097
31.4097
31.4097
31.4097
31.4097
31.4097
31.4097
31.4097
31.4097
31.4097
31.4097
31.4097
31.4097
31.4097
31.4097
31.4097
31.4097
31.4097
31.4097
31.4097
31.4097
31.4097
31.4097
31.4097
31.4097
31.4097
31.4097
31.4097
31.4097
31.4097
31.4097
31.4097
31.4097
31.4097
31.4097
31.4097
31.4097
1.63219
2.96138
4.22334
6.30423
9.3362
13.1808
18.3194
24.1853
29.6579
33.9003
36.7086
38.4011
39.3159
39.7347
39.836
39.7724
39.5862
39.3026
38.9235
38.4533
37.8727
37.1771
36.3861
35.5832
34.8098
34.0551
33.3273
32.6446
32.0183
31.4537
30.9511
30.5079
30.1201
29.7826
29.4904
29.2383
29.0215
28.8354
28.676
28.5397
28.4231
28.3235
28.2385
28.1657
28.1034
28.0503
28.005
27.9665
27.9336
27.9055
27.8815
27.861
27.8434
27.8283
27.8154
27.8044
27.7949
27.7867
27.7797
27.7736
27.7685
27.764
27.7602
27.7568
27.754
27.7515
27.7494
27.7476
27.746
27.7447
27.7435
27.7425
27.7416
27.7409
27.7402
27.7397
27.7392
27.7388
27.7384
27.7381
27.7379
27.7376
27.7374
27.7373
27.7371
27.737
27.7369
27.7368
27.7367
27.7366
27.7366
27.7365
27.7365
27.7365
27.7364
27.7364
27.7364
27.7363
27.7363
27.7363
27.7363
27.7363
27.7363
27.7363
27.7363
27.7363
27.7362
27.7362
27.7362
27.7362
27.7362
27.7362
27.7362
27.7362
27.7362
27.7362
27.7362
27.7362
27.7362
27.7362
27.7362
27.7362
27.7362
27.7362
27.7362
27.7362
27.7362
27.7362
27.7362
27.7362
27.7362
27.7362
27.7362
27.7362
27.7362
27.7362
27.7362
27.7362
27.7362
27.7362
27.7362
27.7362
27.7362
27.7362
27.7362
27.7362
27.7362
27.7362
27.7362
27.7362
27.7362
27.7362
27.7362
27.7362
27.7362
27.7362
27.7362
27.7362
27.7362
27.7362
27.7362
27.7362
27.7362
27.7362
27.7362
27.7362
27.7362
27.7362
27.7362
27.7362
27.7362
27.7362
27.7362
27.7362
27.7362
27.7362
27.7362
27.7362
27.7362
27.7362
27.7362
27.7362
27.7362
27.7362
27.7362
27.7362
27.7362
27.7362
27.7362
27.7362
27.7362
27.7362
27.7362
27.7362
27.7362
27.7362
27.7362
27.7362
27.7362
27.7362
27.7362
27.7362
27.7362
27.7362
27.7362
27.7362
27.7362
27.7362
27.7362
27.7362
27.7362
27.7362
27.7362
27.7362
27.7362
27.7362
27.7362
27.7362
27.7362
27.7362
27.7362
27.7362
27.7362
27.7362
27.7362
27.7362
27.7362
27.7362
27.7362
27.7362
27.7362
27.7362
27.7362
27.7362
27.7362
27.7362
27.7362
27.7362
27.7362
27.7362
27.7362
27.7362
27.7362
27.7362
27.7362
27.7362
27.7362
27.7362
27.7362
27.7362
27.7362
27.7362
27.7362
27.7362
27.7362
27.7362
27.7362
27.7362
27.7362
27.7362
27.7362
27.7362
27.7362
27.7362
27.7362
27.7362
27.7362
27.7362
27.7362
27.7362
27.7362
27.7362
27.7362
27.7362
27.7362
27.7362
27.7362
27.7362
27.7362
27.7362
27.7362
27.7362
27.7362
27.7362
27.7362
27.7362
27.7362
27.7362
27.7362
27.7362
27.7362
27.7362
27.7362
27.7362
27.7362
27.7362
27.7362
27.7362
27.7362
27.7362
1.16783
2.14601
2.94689
4.13069
6.01361
8.68199
11.9229
16.1911
21.1138
25.9241
29.85
32.6751
34.4774
35.5652
36.1385
36.3672
36.3538
36.15
35.7967
35.3189
34.7046
34.0096
33.2547
32.4935
31.7341
30.9877
30.2675
29.5916
28.9732
28.4178
27.9253
27.4922
27.1137
26.7846
26.4995
26.2534
26.0414
25.8594
25.7032
25.5694
25.4549
25.357
25.2732
25.2015
25.1401
25.0877
25.0431
25.005
24.9726
24.9449
24.9213
24.9011
24.8838
24.869
24.8564
24.8455
24.8363
24.8283
24.8214
24.8156
24.8105
24.8062
24.8025
24.7993
24.7965
24.7941
24.7921
24.7903
24.7888
24.7875
24.7864
24.7854
24.7846
24.7839
24.7833
24.7827
24.7823
24.7819
24.7815
24.7812
24.781
24.7807
24.7806
24.7804
24.7803