/*--------------------------------*- C++ -*----------------------------------*\
| =========                 |                                                 |
| \\      /  F ield         | foam-extend: Open Source CFD                    |
|  \\    /   O peration     | Version:     3.2                                |
|   \\  /    A nd           | Web:         http://www.foam-extend.org         |
|    \\/     M anipulation  | For copyright notice see file Copyright         |
\*---------------------------------------------------------------------------*/
FoamFile
{
    version     2.0;
    format      ascii;
    class       volScalarField;
    location    "91";
    object      p;
}
// * * * * * * * * * * * * * * * * * * * * * * * * * * * * * * * * * * * * * //

dimensions      [1 -1 -2 0 0 0 0];

internalField   nonuniform List<scalar> 
5400
(
2749.59
2692.26
2696.97
2682.73
2677.76
2668.95
2662.98
2655.92
2649.97
2643.74
2637.98
2632.18
2626.63
2621.09
2615.68
2610.3
2604.98
2599.66
2594.4
2589.16
2583.87
2578.54
2573.17
2567.72
2562.21
2556.58
2550.83
2544.93
2538.92
2532.79
2526.58
2520.28
2513.92
2507.51
2501.05
2494.55
2488.02
2481.46
2474.89
2468.29
2461.68
2455.06
2448.43
2441.78
2435.13
2428.47
2421.81
2415.14
2408.47
2401.8
2395.12
2388.44
2381.76
2375.08
2368.39
2361.71
2355.02
2348.33
2341.64
2334.95
2328.26
2321.57
2314.88
2308.18
2301.49
2294.8
2288.1
2281.41
2274.71
2268.02
2261.33
2254.63
2247.94
2241.24
2234.55
2227.85
2221.15
2214.46
2207.76
2201.07
2194.37
2187.68
2180.98
2174.29
2167.59
2160.9
2154.2
2147.5
2140.81
2134.11
2127.42
2120.72
2114.03
2107.33
2100.63
2093.94
2087.24
2080.55
2073.85
2067.16
2060.46
2053.76
2047.07
2040.37
2033.68
2026.98
2020.29
2013.59
2006.89
2000.2
1993.5
1986.81
1980.11
1973.42
1966.72
1960.02
1953.33
1946.63
1939.94
1933.24
1926.55
1919.85
1913.15
1906.46
1899.76
1893.07
1886.37
1879.68
1872.98
1866.28
1859.59
1852.89
1846.2
1839.5
1832.81
1826.11
1819.41
1812.72
1806.02
1799.33
1792.63
1785.94
1779.24
1772.54
1765.85
1759.15
1752.46
1745.76
1739.07
1732.37
1725.67
1718.98
1712.28
1705.59
1698.89
1692.2
1685.5
1678.8
1672.11
1665.41
1658.72
1652.02
1645.33
1638.63
1631.93
1625.24
1618.54
1611.85
1605.15
1598.46
1591.76
1585.06
1578.37
1571.67
1564.98
1558.28
1551.59
1544.89
1538.19
1531.5
1524.8
1518.11
1511.41
1504.72
1498.02
1491.32
1484.63
1477.93
1471.24
1464.54
1457.85
1451.15
1444.45
1437.76
1431.06
1424.37
1417.67
1410.98
1404.28
1397.58
1390.89
1384.19
1377.5
1370.8
1364.11
1357.41
1350.71
1344.02
1337.32
1330.63
1323.93
1317.24
1310.54
1303.84
1297.15
1290.45
1283.76
1277.06
1270.37
1263.67
1256.97
1250.28
1243.58
1236.89
1230.19
1223.5
1216.8
1210.1
1203.41
1196.71
1190.02
1183.32
1176.63
1169.93
1163.23
1156.54
1149.84
1143.15
1136.45
1129.76
1123.06
1116.36
1109.67
1102.97
1096.28
1089.58
1082.89
1076.19
1069.49
1062.8
1056.1
1049.41
1042.71
1036.02
1029.32
1022.62
1015.93
1009.23
1002.54
995.841
989.145
982.45
975.754
969.058
962.363
955.667
948.971
942.275
935.58
928.884
922.188
915.492
908.797
902.101
895.405
888.71
882.014
875.318
868.622
861.927
855.231
848.535
841.84
835.144
828.448
821.752
815.057
808.361
801.665
794.97
788.274
781.578
774.882
768.187
761.491
754.795
748.1
741.404
734.708
728.012
2733.17
2676.11
2680.73
2666.46
2661.48
2652.67
2646.7
2639.63
2633.68
2627.45
2621.7
2615.9
2610.34
2604.81
2599.39
2594.01
2588.69
2583.38
2578.12
2572.87
2567.58
2562.26
2556.88
2551.44
2545.92
2540.29
2534.55
2528.65
2522.63
2516.51
2510.29
2503.99
2497.64
2491.22
2484.76
2478.26
2471.73
2465.18
2458.6
2452.01
2445.4
2438.77
2432.14
2425.5
2418.85
2412.19
2405.53
2398.86
2392.19
2385.52
2378.84
2372.16
2365.48
2358.79
2352.11
2345.42
2338.74
2332.05
2325.36
2318.67
2311.98
2305.28
2298.59
2291.9
2285.21
2278.51
2271.82
2265.12
2258.43
2251.74
2245.04
2238.35
2231.65
2224.96
2218.26
2211.57
2204.87
2198.17
2191.48
2184.78
2178.09
2171.39
2164.7
2158
2151.31
2144.61
2137.92
2131.22
2124.52
2117.83
2111.13
2104.44
2097.74
2091.05
2084.35
2077.65
2070.96
2064.26
2057.57
2050.87
2044.18
2037.48
2030.78
2024.09
2017.39
2010.7
2004
1997.31
1990.61
1983.91
1977.22
1970.52
1963.83
1957.13
1950.44
1943.74
1937.04
1930.35
1923.65
1916.96
1910.26
1903.57
1896.87
1890.17
1883.48
1876.78
1870.09
1863.39
1856.7
1850
1843.3
1836.61
1829.91
1823.22
1816.52
1809.83
1803.13
1796.43
1789.74
1783.04
1776.35
1769.65
1762.96
1756.26
1749.56
1742.87
1736.17
1729.48
1722.78
1716.09
1709.39
1702.69
1696
1689.3
1682.61
1675.91
1669.22
1662.52
1655.82
1649.13
1642.43
1635.74
1629.04
1622.35
1615.65
1608.95
1602.26
1595.56
1588.87
1582.17
1575.48
1568.78
1562.08
1555.39
1548.69
1542
1535.3
1528.61
1521.91
1515.21
1508.52
1501.82
1495.13
1488.43
1481.74
1475.04
1468.34
1461.65
1454.95
1448.26
1441.56
1434.87
1428.17
1421.47
1414.78
1408.08
1401.39
1394.69
1388
1381.3
1374.6
1367.91
1361.21
1354.52
1347.82
1341.13
1334.43
1327.73
1321.04
1314.34
1307.65
1300.95
1294.26
1287.56
1280.86
1274.17
1267.47
1260.78
1254.08
1247.39
1240.69
1233.99
1227.3
1220.6
1213.91
1207.21
1200.52
1193.82
1187.12
1180.43
1173.73
1167.04
1160.34
1153.65
1146.95
1140.25
1133.56
1126.86
1120.17
1113.47
1106.78
1100.08
1093.38
1086.69
1079.99
1073.3
1066.6
1059.91
1053.21
1046.51
1039.82
1033.12
1026.43
1019.73
1013.04
1006.34
999.644
992.948
986.252
979.557
972.861
966.165
959.47
952.774
946.078
939.382
932.687
925.991
919.295
912.599
905.904
899.208
892.512
885.817
879.121
872.425
865.729
859.034
852.338
845.642
838.947
832.251
825.555
818.859
812.164
805.468
798.772
792.077
785.381
778.685
771.989
765.294
758.598
751.902
745.207
738.511
731.815
725.119
718.424
711.728
2716.56
2660
2664.53
2650.22
2645.22
2636.4
2630.42
2623.36
2617.4
2611.17
2605.42
2599.62
2594.06
2588.52
2583.11
2577.73
2572.41
2567.09
2561.83
2556.59
2551.3
2545.97
2540.6
2535.15
2529.63
2524.01
2518.26
2512.36
2506.35
2500.22
2494
2487.71
2481.35
2474.93
2468.48
2461.98
2455.45
2448.89
2442.32
2435.72
2429.11
2422.49
2415.86
2409.21
2402.56
2395.9
2389.24
2382.58
2375.91
2369.23
2362.55
2355.87
2349.19
2342.51
2335.83
2329.14
2322.45
2315.76
2309.07
2302.38
2295.69
2289
2282.31
2275.61
2268.92
2262.23
2255.53
2248.84
2242.15
2235.45
2228.76
2222.06
2215.37
2208.67
2201.98
2195.28
2188.59
2181.89
2175.2
2168.5
2161.8
2155.11
2148.41
2141.72
2135.02
2128.33
2121.63
2114.94
2108.24
2101.54
2094.85
2088.15
2081.46
2074.76
2068.07
2061.37
2054.67
2047.98
2041.28
2034.59
2027.89
2021.2
2014.5
2007.8
2001.11
1994.41
1987.72
1981.02
1974.33
1967.63
1960.93
1954.24
1947.54
1940.85
1934.15
1927.46
1920.76
1914.06
1907.37
1900.67
1893.98
1887.28
1880.59
1873.89
1867.19
1860.5
1853.8
1847.11
1840.41
1833.72
1827.02
1820.32
1813.63
1806.93
1800.24
1793.54
1786.85
1780.15
1773.45
1766.76
1760.06
1753.37
1746.67
1739.98
1733.28
1726.58
1719.89
1713.19
1706.5
1699.8
1693.11
1686.41
1679.71
1673.02
1666.32
1659.63
1652.93
1646.24
1639.54
1632.84
1626.15
1619.45
1612.76
1606.06
1599.37
1592.67
1585.97
1579.28
1572.58
1565.89
1559.19
1552.5
1545.8
1539.1
1532.41
1525.71
1519.02
1512.32
1505.63
1498.93
1492.23
1485.54
1478.84
1472.15
1465.45
1458.76
1452.06
1445.36
1438.67
1431.97
1425.28
1418.58
1411.89
1405.19
1398.49
1391.8
1385.1
1378.41
1371.71
1365.02
1358.32
1351.62
1344.93
1338.23
1331.54
1324.84
1318.15
1311.45
1304.75
1298.06
1291.36
1284.67
1277.97
1271.28
1264.58
1257.88
1251.19
1244.49
1237.8
1231.1
1224.41
1217.71
1211.01
1204.32
1197.62
1190.93
1184.23
1177.54
1170.84
1164.14
1157.45
1150.75
1144.06
1137.36
1130.67
1123.97
1117.27
1110.58
1103.88
1097.19
1090.49
1083.8
1077.1
1070.4
1063.71
1057.01
1050.32
1043.62
1036.93
1030.23
1023.53
1016.84
1010.14
1003.45
996.751
990.055
983.359
976.664
969.968
963.272
956.577
949.881
943.185
936.489
929.794
923.098
916.402
909.706
903.011
896.315
889.619
882.924
876.228
869.532
862.836
856.141
849.445
842.749
836.054
829.358
822.662
815.966
809.271
802.575
795.879
789.184
782.488
775.792
769.096
762.401
755.705
749.009
742.314
735.618
728.922
722.226
715.531
708.835
702.139
695.444
2699.9
2643.97
2648.34
2633.98
2628.97
2620.14
2614.16
2607.08
2601.13
2594.89
2589.13
2583.33
2577.78
2572.24
2566.82
2561.44
2556.12
2550.8
2545.55
2540.3
2535.01
2529.69
2524.31
2518.86
2513.35
2507.72
2501.97
2496.07
2490.06
2483.93
2477.72
2471.42
2465.06
2458.65
2452.19
2445.69
2439.16
2432.61
2426.03
2419.44
2412.83
2406.2
2399.57
2392.93
2386.28
2379.62
2372.96
2366.29
2359.62
2352.95
2346.27
2339.59
2332.91
2326.23
2319.54
2312.85
2306.17
2299.48
2292.79
2286.1
2279.41
2272.71
2266.02
2259.33
2252.64
2245.94
2239.25
2232.55
2225.86
2219.17
2212.47
2205.78
2199.08
2192.39
2185.69
2179
2172.3
2165.61
2158.91
2152.21
2145.52
2138.82
2132.13
2125.43
2118.74
2112.04
2105.35
2098.65
2091.95
2085.26
2078.56
2071.87
2065.17
2058.48
2051.78
2045.08
2038.39
2031.69
2025
2018.3
2011.61
2004.91
1998.21
1991.52
1984.82
1978.13
1971.43
1964.74
1958.04
1951.34
1944.65
1937.95
1931.26
1924.56
1917.87
1911.17
1904.47
1897.78
1891.08
1884.39
1877.69
1871
1864.3
1857.6
1850.91
1844.21
1837.52
1830.82
1824.13
1817.43
1810.73
1804.04
1797.34
1790.65
1783.95
1777.26
1770.56
1763.86
1757.17
1750.47
1743.78
1737.08
1730.39
1723.69
1716.99
1710.3
1703.6
1696.91
1690.21
1683.52
1676.82
1670.12
1663.43
1656.73
1650.04
1643.34
1636.65
1629.95
1623.25
1616.56
1609.86
1603.17
1596.47
1589.78
1583.08
1576.38
1569.69
1562.99
1556.3
1549.6
1542.91
1536.21
1529.51
1522.82
1516.12
1509.43
1502.73
1496.04
1489.34
1482.64
1475.95
1469.25
1462.56
1455.86
1449.17
1442.47
1435.77
1429.08
1422.38
1415.69
1408.99
1402.3
1395.6
1388.9
1382.21
1375.51
1368.82
1362.12
1355.43
1348.73
1342.03
1335.34
1328.64
1321.95
1315.25
1308.56
1301.86
1295.16
1288.47
1281.77
1275.08
1268.38
1261.69
1254.99
1248.29
1241.6
1234.9
1228.21
1221.51
1214.82
1208.12
1201.42
1194.73
1188.03
1181.34
1174.64
1167.95
1161.25
1154.55
1147.86
1141.16
1134.47
1127.77
1121.08
1114.38
1107.68
1100.99
1094.29
1087.6
1080.9
1074.21
1067.51
1060.81
1054.12
1047.42
1040.73
1034.03
1027.34
1020.64
1013.94
1007.25
1000.55
993.857
987.162
980.466
973.77
967.074
960.379
953.683
946.987
940.292
933.596
926.9
920.204
913.509
906.813
900.117
893.422
886.726
880.03
873.334
866.639
859.943
853.247
846.552
839.856
833.16
826.464
819.769
813.073
806.377
799.682
792.986
786.29
779.594
772.899
766.203
759.507
752.812
746.116
739.42
732.724
726.029
719.333
712.637
705.941
699.246
692.55
685.854
679.159
2683.25
2627.89
2632.19
2617.74
2612.71
2603.88
2597.89
2590.81
2584.85
2578.62
2572.86
2567.05
2561.5
2555.96
2550.54
2545.16
2539.84
2534.52
2529.26
2524.02
2518.72
2513.4
2508.02
2502.58
2497.06
2491.43
2485.69
2479.79
2473.77
2467.65
2461.43
2455.14
2448.78
2442.36
2435.9
2429.41
2422.88
2416.32
2409.75
2403.15
2396.54
2389.92
2383.29
2376.64
2369.99
2363.33
2356.67
2350.01
2343.34
2336.66
2329.98
2323.31
2316.62
2309.94
2303.26
2296.57
2289.88
2283.19
2276.5
2269.81
2263.12
2256.43
2249.74
2243.04
2236.35
2229.66
2222.96
2216.27
2209.58
2202.88
2196.19
2189.49
2182.8
2176.1
2169.41
2162.71
2156.02
2149.32
2142.63
2135.93
2129.23
2122.54
2115.84
2109.15
2102.45
2095.76
2089.06
2082.37
2075.67
2068.97
2062.28
2055.58
2048.89
2042.19
2035.5
2028.8
2022.1
2015.41
2008.71
2002.02
1995.32
1988.63
1981.93
1975.23
1968.54
1961.84
1955.15
1948.45
1941.76
1935.06
1928.36
1921.67
1914.97
1908.28
1901.58
1894.89
1888.19
1881.49
1874.8
1868.1
1861.41
1854.71
1848.02
1841.32
1834.62
1827.93
1821.23
1814.54
1807.84
1801.15
1794.45
1787.75
1781.06
1774.36
1767.67
1760.97
1754.28
1747.58
1740.88
1734.19
1727.49
1720.8
1714.1
1707.41
1700.71
1694.01
1687.32
1680.62
1673.93
1667.23
1660.54
1653.84
1647.14
1640.45
1633.75
1627.06
1620.36
1613.67
1606.97
1600.27
1593.58
1586.88
1580.19
1573.49
1566.8
1560.1
1553.4
1546.71
1540.01
1533.32
1526.62
1519.93
1513.23
1506.53
1499.84
1493.14
1486.45
1479.75
1473.06
1466.36
1459.66
1452.97
1446.27
1439.58
1432.88
1426.19
1419.49
1412.79
1406.1
1399.4
1392.71
1386.01
1379.32
1372.62
1365.92
1359.23
1352.53
1345.84
1339.14
1332.45
1325.75
1319.05
1312.36
1305.66
1298.97
1292.27
1285.58
1278.88
1272.18
1265.49
1258.79
1252.1
1245.4
1238.71
1232.01
1225.31
1218.62
1211.92
1205.23
1198.53
1191.84
1185.14
1178.44
1171.75
1165.05
1158.36
1151.66
1144.97
1138.27
1131.57
1124.88
1118.18
1111.49
1104.79
1098.1
1091.4
1084.7
1078.01
1071.31
1064.62
1057.92
1051.23
1044.53
1037.83
1031.14
1024.44
1017.75
1011.05
1004.36
997.66
990.964
984.269
977.573
970.877
964.181
957.486
950.79
944.094
937.399
930.703
924.007
917.311
910.616
903.92
897.224
890.529
883.833
877.137
870.441
863.746
857.05
850.354
843.659
836.963
830.267
823.571
816.876
810.18
803.484
796.789
790.093
783.397
776.701
770.006
763.31
756.614
749.919
743.223
736.527
729.831
723.136
716.44
709.744
703.048
696.353
689.657
682.961
676.266
669.57
662.874
2666.72
2611.7
2616.06
2601.48
2596.45
2587.62
2581.63
2574.55
2568.59
2562.34
2556.58
2550.78
2545.22
2539.68
2534.26
2528.88
2523.56
2518.24
2512.98
2507.73
2502.44
2497.11
2491.74
2486.29
2480.77
2475.15
2469.4
2463.5
2457.49
2451.36
2445.15
2438.85
2432.49
2426.08
2419.62
2413.12
2406.59
2400.04
2393.46
2386.87
2380.26
2373.64
2367
2360.36
2353.71
2347.05
2340.39
2333.72
2327.05
2320.38
2313.7
2307.02
2300.34
2293.66
2286.97
2280.28
2273.6
2266.91
2260.22
2253.53
2246.84
2240.15
2233.45
2226.76
2220.07
2213.37
2206.68
2199.99
2193.29
2186.6
2179.9
2173.21
2166.51
2159.82
2153.12
2146.43
2139.73
2133.04
2126.34
2119.65
2112.95
2106.25
2099.56
2092.86
2086.17
2079.47
2072.78
2066.08
2059.39
2052.69
2045.99
2039.3
2032.6
2025.91
2019.21
2012.52
2005.82
1999.12
1992.43
1985.73
1979.04
1972.34
1965.65
1958.95
1952.25
1945.56
1938.86
1932.17
1925.47
1918.78
1912.08
1905.38
1898.69
1891.99
1885.3
1878.6
1871.91
1865.21
1858.51
1851.82
1845.12
1838.43
1831.73
1825.04
1818.34
1811.64
1804.95
1798.25
1791.56
1784.86
1778.17
1771.47
1764.77
1758.08
1751.38
1744.69
1737.99
1731.3
1724.6
1717.9
1711.21
1704.51
1697.82
1691.12
1684.43
1677.73
1671.03
1664.34
1657.64
1650.95
1644.25
1637.56
1630.86
1624.16
1617.47
1610.77
1604.08
1597.38
1590.69
1583.99
1577.29
1570.6
1563.9
1557.21
1550.51
1543.82
1537.12
1530.42
1523.73
1517.03
1510.34
1503.64
1496.95
1490.25
1483.55
1476.86
1470.16
1463.47
1456.77
1450.08
1443.38
1436.68
1429.99
1423.29
1416.6
1409.9
1403.21
1396.51
1389.81
1383.12
1376.42
1369.73
1363.03
1356.34
1349.64
1342.94
1336.25
1329.55
1322.86
1316.16
1309.47
1302.77
1296.07
1289.38
1282.68
1275.99
1269.29
1262.6
1255.9
1249.2
1242.51
1235.81
1229.12
1222.42
1215.73
1209.03
1202.33
1195.64
1188.94
1182.25
1175.55
1168.86
1162.16
1155.46
1148.77
1142.07
1135.38
1128.68
1121.99
1115.29
1108.59
1101.9
1095.2
1088.51
1081.81
1075.12
1068.42
1061.72
1055.03
1048.33
1041.64
1034.94
1028.25
1021.55
1014.85
1008.16
1001.46
994.767
988.071
981.376
974.68
967.984
961.288
954.593
947.897
941.201
934.506
927.81
921.114
914.418
907.723
901.027
894.331
887.636
880.94
874.244
867.548
860.853
854.157
847.461
840.766
834.07
827.374
820.678
813.983
807.287
800.591
793.896
787.2
780.504
773.808
767.113
760.417
753.721
747.025
740.33
733.634
726.938
720.243
713.547
706.851
700.155
693.46
686.764
680.068
673.373
666.677
659.981
653.285
646.59
2650.18
2595.51
2599.92
2585.21
2580.18
2571.35
2565.36
2558.28
2552.32
2546.08
2540.31
2534.5
2528.94
2523.4
2517.98
2512.6
2507.28
2501.96
2496.7
2491.45
2486.16
2480.83
2475.46
2470.01
2464.49
2458.86
2453.11
2447.21
2441.2
2435.07
2428.86
2422.56
2416.21
2409.79
2403.33
2396.84
2390.31
2383.75
2377.18
2370.58
2363.97
2357.35
2350.72
2344.07
2337.42
2330.77
2324.1
2317.44
2310.77
2304.09
2297.42
2290.74
2284.05
2277.37
2270.69
2264
2257.31
2250.62
2243.93
2237.24
2230.55
2223.86
2217.17
2210.48
2203.78
2197.09
2190.4
2183.7
2177.01
2170.31
2163.62
2156.92
2150.23
2143.53
2136.84
2130.14
2123.45
2116.75
2110.06
2103.36
2096.67
2089.97
2083.27
2076.58
2069.88
2063.19
2056.49
2049.8
2043.1
2036.41
2029.71
2023.01
2016.32
2009.62
2002.93
1996.23
1989.54
1982.84
1976.14
1969.45
1962.75
1956.06
1949.36
1942.67
1935.97
1929.27
1922.58
1915.88
1909.19
1902.49
1895.8
1889.1
1882.4
1875.71
1869.01
1862.32
1855.62
1848.93
1842.23
1835.53
1828.84
1822.14
1815.45
1808.75
1802.06
1795.36
1788.66
1781.97
1775.27
1768.58
1761.88
1755.19
1748.49
1741.79
1735.1
1728.4
1721.71
1715.01
1708.32
1701.62
1694.92
1688.23
1681.53
1674.84
1668.14
1661.45
1654.75
1648.05
1641.36
1634.66
1627.97
1621.27
1614.58
1607.88
1601.18
1594.49
1587.79
1581.1
1574.4
1567.71
1561.01
1554.31
1547.62
1540.92
1534.23
1527.53
1520.84
1514.14
1507.44
1500.75
1494.05
1487.36
1480.66
1473.97
1467.27
1460.57
1453.88
1447.18
1440.49
1433.79
1427.1
1420.4
1413.7
1407.01
1400.31
1393.62
1386.92
1380.23
1373.53
1366.83
1360.14
1353.44
1346.75
1340.05
1333.36
1326.66
1319.96
1313.27
1306.57
1299.88
1293.18
1286.49
1279.79
1273.09
1266.4
1259.7
1253.01
1246.31
1239.62
1232.92
1226.22
1219.53
1212.83
1206.14
1199.44
1192.75
1186.05
1179.35
1172.66
1165.96
1159.27
1152.57
1145.88
1139.18
1132.48
1125.79
1119.09
1112.4
1105.7
1099.01
1092.31
1085.61
1078.92
1072.22
1065.53
1058.83
1052.13
1045.44
1038.74
1032.05
1025.35
1018.66
1011.96
1005.26
998.569
991.874
985.178
978.482
971.786
965.091
958.395
951.699
945.004
938.308
931.612
924.916
918.221
911.525
904.829
898.133
891.438
884.742
878.046
871.351
864.655
857.959
851.263
844.568
837.872
831.176
824.481
817.785
811.089
804.393
797.698
791.002
784.306
777.611
770.915
764.219
757.523
750.828
744.132
737.436
730.741
724.045
717.349
710.653
703.958
697.262
690.566
683.871
677.175
670.479
663.783
657.088
650.392
643.696
637.001
630.305
2633.64
2579.36
2583.73
2568.93
2563.92
2555.08
2549.09
2542.01
2536.05
2529.81
2524.04
2518.23
2512.67
2507.13
2501.7
2496.32
2491
2485.68
2480.42
2475.17
2469.88
2464.55
2459.17
2453.72
2448.21
2442.58
2436.83
2430.93
2424.92
2418.79
2412.57
2406.28
2399.92
2393.51
2387.05
2380.55
2374.02
2367.47
2360.89
2354.3
2347.69
2341.07
2334.43
2327.79
2321.14
2314.48
2307.82
2301.15
2294.48
2287.81
2281.13
2274.45
2267.77
2261.09
2254.4
2247.72
2241.03
2234.34
2227.65
2220.96
2214.27
2207.58
2200.88
2194.19
2187.5
2180.8
2174.11
2167.42
2160.72
2154.03
2147.33
2140.64
2133.94
2127.25
2120.55
2113.86
2107.16
2100.47
2093.77
2087.08
2080.38
2073.69
2066.99
2060.29
2053.6
2046.9
2040.21
2033.51
2026.82
2020.12
2013.42
2006.73
2000.03
1993.34
1986.64
1979.95
1973.25
1966.56
1959.86
1953.16
1946.47
1939.77
1933.08
1926.38
1919.69
1912.99
1906.29
1899.6
1892.9
1886.21
1879.51
1872.82
1866.12
1859.42
1852.73
1846.03
1839.34
1832.64
1825.95
1819.25
1812.55
1805.86
1799.16
1792.47
1785.77
1779.08
1772.38
1765.68
1758.99
1752.29
1745.6
1738.9
1732.21
1725.51
1718.81
1712.12
1705.42
1698.73
1692.03
1685.34
1678.64
1671.94
1665.25
1658.55
1651.86
1645.16
1638.47
1631.77
1625.07
1618.38
1611.68
1604.99
1598.29
1591.6
1584.9
1578.2
1571.51
1564.81
1558.12
1551.42
1544.73
1538.03
1531.33
1524.64
1517.94
1511.25
1504.55
1497.86
1491.16
1484.46
1477.77
1471.07
1464.38
1457.68
1450.99
1444.29
1437.59
1430.9
1424.2
1417.51
1410.81
1404.11
1397.42
1390.72
1384.03
1377.33
1370.64
1363.94
1357.24
1350.55
1343.85
1337.16
1330.46
1323.77
1317.07
1310.37
1303.68
1296.98
1290.29
1283.59
1276.9
1270.2
1263.5
1256.81
1250.11
1243.42
1236.72
1230.03
1223.33
1216.63
1209.94
1203.24
1196.55
1189.85
1183.16
1176.46
1169.76
1163.07
1156.37
1149.68
1142.98
1136.29
1129.59
1122.89
1116.2
1109.5
1102.81
1096.11
1089.42
1082.72
1076.02
1069.33
1062.63
1055.94
1049.24
1042.55
1035.85
1029.15
1022.46
1015.76
1009.07
1002.37
995.676
988.981
982.285
975.589
968.893
962.198
955.502
948.806
942.111
935.415
928.719
922.023
915.328
908.632
901.936
895.24
888.545
881.849
875.153
868.458
861.762
855.066
848.37
841.675
834.979
828.283
821.588
814.892
808.196
801.5
794.805
788.109
781.413
774.718
768.022
761.326
754.63
747.935
741.239
734.543
727.848
721.152
714.456
707.76
701.065
694.369
687.673
680.978
674.282
667.586
660.89
654.195
647.499
640.803
634.108
627.412
620.716
614.02
2617.09
2563.24
2567.49
2552.65
2547.64
2538.81
2532.82
2525.74
2519.78
2513.53
2507.77
2501.96
2496.4
2490.85
2485.43
2480.05
2474.72
2469.4
2464.14
2458.89
2453.6
2448.27
2442.89
2437.44
2431.93
2426.29
2420.55
2414.65
2408.63
2402.5
2396.29
2389.99
2383.64
2377.22
2370.76
2364.27
2357.74
2351.18
2344.61
2338.01
2331.4
2324.78
2318.15
2311.5
2304.85
2298.2
2291.53
2284.87
2278.2
2271.52
2264.85
2258.17
2251.49
2244.8
2238.12
2231.43
2224.74
2218.05
2211.36
2204.67
2197.98
2191.29
2184.6
2177.91
2171.21
2164.52
2157.83
2151.13
2144.44
2137.74
2131.05
2124.35
2117.66
2110.96
2104.27
2097.57
2090.88
2084.18
2077.49
2070.79
2064.1
2057.4
2050.71
2044.01
2037.31
2030.62
2023.92
2017.23
2010.53
2003.84
1997.14
1990.44
1983.75
1977.05
1970.36
1963.66
1956.97
1950.27
1943.57
1936.88
1930.18
1923.49
1916.79
1910.1
1903.4
1896.71
1890.01
1883.31
1876.62
1869.92
1863.23
1856.53
1849.84
1843.14
1836.44
1829.75
1823.05
1816.36
1809.66
1802.97
1796.27
1789.57
1782.88
1776.18
1769.49
1762.79
1756.1
1749.4
1742.7
1736.01
1729.31
1722.62
1715.92
1709.22
1702.53
1695.83
1689.14
1682.44
1675.75
1669.05
1662.35
1655.66
1648.96
1642.27
1635.57
1628.88
1622.18
1615.48
1608.79
1602.09
1595.4
1588.7
1582.01
1575.31
1568.61
1561.92
1555.22
1548.53
1541.83
1535.14
1528.44
1521.74
1515.05
1508.35
1501.66
1494.96
1488.27
1481.57
1474.87
1468.18
1461.48
1454.79
1448.09
1441.4
1434.7
1428
1421.31
1414.61
1407.92
1401.22
1394.53
1387.83
1381.13
1374.44
1367.74
1361.05
1354.35
1347.66
1340.96
1334.26
1327.57
1320.87
1314.18
1307.48
1300.79
1294.09
1287.39
1280.7
1274
1267.31
1260.61
1253.92
1247.22
1240.52
1233.83
1227.13
1220.44
1213.74
1207.05
1200.35
1193.65
1186.96
1180.26
1173.57
1166.87
1160.18
1153.48
1146.78
1140.09
1133.39
1126.7
1120
1113.31
1106.61
1099.91
1093.22
1086.52
1079.83
1073.13
1066.44
1059.74
1053.04
1046.35
1039.65
1032.96
1026.26
1019.57
1012.87
1006.17
999.479
992.783
986.088
979.392
972.696
966
959.305
952.609
945.913
939.218
932.522
925.826
919.13
912.435
905.739
899.043
892.347
885.652
878.956
872.26
865.565
858.869
852.173
845.477
838.782
832.086
825.39
818.695
811.999
805.303
798.607
791.912
785.216
778.52
771.825
765.129
758.433
751.737
745.042
738.346
731.65
724.955
718.259
711.563
704.867
698.172
691.476
684.78
678.085
671.389
664.693
657.997
651.302
644.606
637.91
631.215
624.519
617.823
611.127
604.432
597.736
2600.58
2547.06
2551.25
2536.37
2531.36
2522.53
2516.55
2509.47
2503.5
2497.26
2491.49
2485.69
2480.12
2474.58
2469.15
2463.77
2458.44
2453.12
2447.86
2442.61
2437.32
2431.99
2426.61
2421.16
2415.65
2410.01
2404.26
2398.36
2392.35
2386.22
2380.01
2373.71
2367.35
2360.94
2354.48
2347.98
2341.45
2334.9
2328.32
2321.73
2315.12
2308.5
2301.86
2295.22
2288.57
2281.91
2275.25
2268.58
2261.91
2255.24
2248.56
2241.88
2235.2
2228.52
2221.83
2215.15
2208.46
2201.77
2195.08
2188.39
2181.7
2175.01
2168.31
2161.62
2154.93
2148.24
2141.54
2134.85
2128.15
2121.46
2114.76
2108.07
2101.37
2094.68
2087.98
2081.29
2074.59
2067.9
2061.2
2054.51
2047.81
2041.12
2034.42
2027.73
2021.03
2014.33
2007.64
2000.94
1994.25
1987.55
1980.86
1974.16
1967.46
1960.77
1954.07
1947.38
1940.68
1933.99
1927.29
1920.59
1913.9
1907.2
1900.51
1893.81
1887.12
1880.42
1873.72
1867.03
1860.33
1853.64
1846.94
1840.25
1833.55
1826.85
1820.16
1813.46
1806.77
1800.07
1793.38
1786.68
1779.98
1773.29
1766.59
1759.9
1753.2
1746.51
1739.81
1733.11
1726.42
1719.72
1713.03
1706.33
1699.64
1692.94
1686.24
1679.55
1672.85
1666.16
1659.46
1652.77
1646.07
1639.37
1632.68
1625.98
1619.29
1612.59
1605.9
1599.2
1592.5
1585.81
1579.11
1572.42
1565.72
1559.03
1552.33
1545.63
1538.94
1532.24
1525.55
1518.85
1512.16
1505.46
1498.76
1492.07
1485.37
1478.68
1471.98
1465.29
1458.59
1451.89
1445.2
1438.5
1431.81
1425.11
1418.42
1411.72
1405.02
1398.33
1391.63
1384.94
1378.24
1371.55
1364.85
1358.15
1351.46
1344.76
1338.07
1331.37
1324.68
1317.98
1311.28
1304.59
1297.89
1291.2
1284.5
1277.81
1271.11
1264.41
1257.72
1251.02
1244.33
1237.63
1230.94
1224.24
1217.54
1210.85
1204.15
1197.46
1190.76
1184.07
1177.37
1170.67
1163.98
1157.28
1150.59
1143.89
1137.2
1130.5
1123.8
1117.11
1110.41
1103.72
1097.02
1090.33
1083.63
1076.93
1070.24
1063.54
1056.85
1050.15
1043.46
1036.76
1030.06
1023.37
1016.67
1009.98
1003.28
996.585
989.89
983.194
976.498
969.803
963.107
956.411
949.715
943.02
936.324
929.628
922.933
916.237
909.541
902.845
896.15
889.454
882.758
876.063
869.367
862.671
855.975
849.28
842.584
835.888
829.193
822.497
815.801
809.105
802.41
795.714
789.018
782.323
775.627
768.931
762.235
755.54
748.844
742.148
735.453
728.757
722.061
715.365
708.67
701.974
695.278
688.582
681.887
675.191
668.495
661.8
655.104
648.408
641.712
635.017
628.321
621.625
614.93
608.234
601.538
594.842
588.147
581.451
2584.15
2530.83
2535
2520.08
2515.08
2506.25
2500.28
2493.19
2487.23
2480.98
2475.22
2469.41
2463.85
2458.3
2452.88
2447.5
2442.17
2436.85
2431.59
2426.34
2421.04
2415.71
2410.33
2404.89
2399.37
2393.73
2387.98
2382.08
2376.07
2369.94
2363.72
2357.43
2351.07
2344.65
2338.2
2331.7
2325.17
2318.62
2312.04
2305.44
2298.83
2292.21
2285.58
2278.94
2272.28
2265.63
2258.97
2252.3
2245.63
2238.95
2232.28
2225.6
2218.92
2212.23
2205.55
2198.86
2192.17
2185.49
2178.8
2172.11
2165.41
2158.72
2152.03
2145.34
2138.64
2131.95
2125.26
2118.56
2111.87
2105.17
2098.48
2091.78
2085.09
2078.39
2071.7
2065
2058.31
2051.61
2044.92
2038.22
2031.53
2024.83
2018.14
2011.44
2004.74
1998.05
1991.35
1984.66
1977.96
1971.27
1964.57
1957.88
1951.18
1944.48
1937.79
1931.09
1924.4
1917.7
1911.01
1904.31
1897.61
1890.92
1884.22
1877.53
1870.83
1864.14
1857.44
1850.74
1844.05
1837.35
1830.66
1823.96
1817.27
1810.57
1803.87
1797.18
1790.48
1783.79
1777.09
1770.4
1763.7
1757
1750.31
1743.61
1736.92
1730.22
1723.53
1716.83
1710.13
1703.44
1696.74
1690.05
1683.35
1676.66
1669.96
1663.26
1656.57
1649.87
1643.18
1636.48
1629.79
1623.09
1616.39
1609.7
1603
1596.31
1589.61
1582.92
1576.22
1569.52
1562.83
1556.13
1549.44
1542.74
1536.05
1529.35
1522.65
1515.96
1509.26
1502.57
1495.87
1489.18
1482.48
1475.78
1469.09
1462.39
1455.7
1449
1442.31
1435.61
1428.91
1422.22
1415.52
1408.83
1402.13
1395.44
1388.74
1382.04
1375.35
1368.65
1361.96
1355.26
1348.57
1341.87
1335.17
1328.48
1321.78
1315.09
1308.39
1301.7
1295
1288.3
1281.61
1274.91
1268.22
1261.52
1254.83
1248.13
1241.43
1234.74
1228.04
1221.35
1214.65
1207.96
1201.26
1194.56
1187.87
1181.17
1174.48
1167.78
1161.09
1154.39
1147.69
1141
1134.3
1127.61
1120.91
1114.22
1107.52
1100.82
1094.13
1087.43
1080.74
1074.04
1067.35
1060.65
1053.95
1047.26
1040.56
1033.87
1027.17
1020.48
1013.78
1007.08
1000.39
993.692
986.997
980.301
973.605
966.91
960.214
953.518
946.822
940.127
933.431
926.735
920.04
913.344
906.648
899.952
893.257
886.561
879.865
873.17
866.474
859.778
853.082
846.387
839.691
832.995
826.3
819.604
812.908
806.212
799.517
792.821
786.125
779.43
772.734
766.038
759.342
752.647
745.951
739.255
732.56
725.864
719.168
712.472
705.777
699.081
692.385
685.689
678.994
672.298
665.602
658.907
652.211
645.515
638.819
632.124
625.428
618.732
612.037
605.341
598.645
591.949
585.254
578.558
571.862
565.167
2567.8
2514.59
2518.73
2503.78
2498.79
2489.96
2484
2476.9
2470.95
2464.71
2458.94
2453.13
2447.57
2442.03
2436.6
2431.22
2425.89
2420.57
2415.31
2410.06
2404.76
2399.44
2394.06
2388.61
2383.09
2377.45
2371.7
2365.8
2359.78
2353.65
2347.44
2341.14
2334.79
2328.37
2321.91
2315.41
2308.89
2302.33
2295.76
2289.16
2282.55
2275.93
2269.29
2262.65
2256
2249.34
2242.68
2236.01
2229.34
2222.67
2215.99
2209.31
2202.63
2195.95
2189.26
2182.58
2175.89
2169.2
2162.51
2155.82
2149.13
2142.44
2135.75
2129.05
2122.36
2115.67
2108.97
2102.28
2095.58
2088.89
2082.19
2075.5
2068.8
2062.11
2055.41
2048.72
2042.02
2035.33
2028.63
2021.94
2015.24
2008.55
2001.85
1995.16
1988.46
1981.76
1975.07
1968.37
1961.68
1954.98
1948.29
1941.59
1934.9
1928.2
1921.5
1914.81
1908.11
1901.42
1894.72
1888.03
1881.33
1874.63
1867.94
1861.24
1854.55
1847.85
1841.16
1834.46
1827.76
1821.07
1814.37
1807.68
1800.98
1794.29
1787.59
1780.89
1774.2
1767.5
1760.81
1754.11
1747.42
1740.72
1734.02
1727.33
1720.63
1713.94
1707.24
1700.55
1693.85
1687.15
1680.46
1673.76
1667.07
1660.37
1653.68
1646.98
1640.28
1633.59
1626.89
1620.2
1613.5
1606.81
1600.11
1593.41
1586.72
1580.02
1573.33
1566.63
1559.94
1553.24
1546.54
1539.85
1533.15
1526.46
1519.76
1513.07
1506.37
1499.67
1492.98
1486.28
1479.59
1472.89
1466.2
1459.5
1452.8
1446.11
1439.41
1432.72
1426.02
1419.33
1412.63
1405.93
1399.24
1392.54
1385.85
1379.15
1372.46
1365.76
1359.06
1352.37
1345.67
1338.98
1332.28
1325.59
1318.89
1312.19
1305.5
1298.8
1292.11
1285.41
1278.72
1272.02
1265.32
1258.63
1251.93
1245.24
1238.54
1231.85
1225.15
1218.45
1211.76
1205.06
1198.37
1191.67
1184.98
1178.28
1171.58
1164.89
1158.19
1151.5
1144.8
1138.11
1131.41
1124.71
1118.02
1111.32
1104.63
1097.93
1091.24
1084.54
1077.84
1071.15
1064.45
1057.76
1051.06
1044.37
1037.67
1030.97
1024.28
1017.58
1010.89
1004.19
997.495
990.799
984.104
977.408
970.712
964.017
957.321
950.625
943.929
937.234
930.538
923.842
917.147
910.451
903.755
897.059
890.364
883.668
876.972
870.277
863.581
856.885
850.189
843.494
836.798
830.102
823.407
816.711
810.015
803.319
796.624
789.928
783.232
776.537
769.841
763.145
756.449
749.754
743.058
736.362
729.667
722.971
716.275
709.579
702.884
696.188
689.492
682.796
676.101
669.405
662.709
656.014
649.318
642.622
635.926
629.231
622.535
615.839
609.144
602.448
595.752
589.056
582.361
575.665
568.969
562.274
555.578
548.882
2551.47
2498.38
2502.45
2487.47
2482.49
2473.67
2467.71
2460.62
2454.67
2448.43
2442.66
2436.86
2431.29
2425.75
2420.32
2414.94
2409.62
2404.29
2399.03
2393.78
2388.49
2383.16
2377.79
2372.33
2366.81
2361.17
2355.42
2349.51
2343.5
2337.37
2331.16
2324.86
2318.5
2312.09
2305.63
2299.13
2292.6
2286.05
2279.47
2272.88
2266.27
2259.64
2253.01
2246.37
2239.72
2233.06
2226.4
2219.73
2213.06
2206.38
2199.71
2193.03
2186.35
2179.66
2172.98
2166.29
2159.6
2152.92
2146.23
2139.54
2132.84
2126.15
2119.46
2112.77
2106.07
2099.38
2092.69
2085.99
2079.3
2072.6
2065.91
2059.22
2052.52
2045.83
2039.13
2032.43
2025.74
2019.04
2012.35
2005.65
1998.96
1992.26
1985.57
1978.87
1972.18
1965.48
1958.78
1952.09
1945.39
1938.7
1932
1925.31
1918.61
1911.91
1905.22
1898.52