/*--------------------------------*- C++ -*----------------------------------*\
| =========                 |                                                 |
| \\      /  F ield         | foam-extend: Open Source CFD                    |
|  \\    /   O peration     | Version:     3.2                                |
|   \\  /    A nd           | Web:         http://www.foam-extend.org         |
|    \\/     M anipulation  | For copyright notice see file Copyright         |
\*---------------------------------------------------------------------------*/
FoamFile
{
    version     2.0;
    format      ascii;
    class       areaScalarField;
    location    "91";
    object      Pef;
}
// * * * * * * * * * * * * * * * * * * * * * * * * * * * * * * * * * * * * * //

dimensions      [0 0 0 0 0 0 0];

internalField   nonuniform List<scalar> 
300
(
0.989757
0.940976
0.842818
0.837431
0.824992
0.821406
0.814956
0.81323
0.811133
0.81152
0.812256
0.813854
0.816009
0.818703
0.821662
0.824928
0.828458
0.832174
0.835892
0.839814
0.843904
0.848013
0.852158
0.856248
0.860274
0.864279
0.867937
0.871077
0.87367
0.875812
0.877567
0.879015
0.880204
0.881185
0.881994
0.882663
0.883217
0.883679
0.884063
0.884385
0.884656
0.884885
0.885079
0.885247
0.88539
0.88551
0.885612
0.885698
0.885773
0.885838
0.885895
0.885944
0.885987
0.886024
0.886057
0.886086
0.88611
0.886132
0.886151
0.886167
0.886181
0.886193
0.886204
0.886213
0.886221
0.886228
0.886234
0.886239
0.886244
0.886247
0.886251
0.886254
0.886256
0.886258
0.88626
0.886262
0.886263
0.886264
0.886265
0.886266
0.886267
0.886268
0.886268
0.886269
0.886269
0.886269
0.88627
0.88627
0.88627
0.88627
0.886271
0.886271
0.886271
0.886271
0.886271
0.886271
0.886271
0.886271
0.886271
0.886271
0.886271
0.886272
0.886272
0.886272
0.886272
0.886272
0.886272
0.886272
0.886272
0.886272
0.886272
0.886272
0.886272
0.886272
0.886272
0.886272
0.886272
0.886272
0.886272
0.886272
0.886272
0.886272
0.886272
0.886272
0.886272
0.886272
0.886272
0.886272
0.886272
0.886272
0.886272
0.886272
0.886272
0.886272
0.886272
0.886272
0.886272
0.886272
0.886272
0.886272
0.886272
0.886272
0.886272
0.886272
0.886272
0.886272
0.886272
0.886272
0.886272
0.886272
0.886272
0.886272
0.886272
0.886272
0.886272
0.886272
0.886272
0.886272
0.886272
0.886272
0.886272
0.886272
0.886272
0.886272
0.886272
0.886272
0.886272
0.886272
0.886272
0.886272
0.886272
0.886272
0.886272
0.886272
0.886272
0.886272
0.886272
0.886272
0.886272
0.886272
0.886272
0.886272
0.886272
0.886272
0.886272
0.886272
0.886272
0.886272
0.886272
0.886272
0.886272
0.886272
0.886272
0.886272
0.886272
0.886272
0.886272
0.886272
0.886272
0.886272
0.886272
0.886272
0.886272
0.886272
0.886272
0.886272
0.886272
0.886272
0.886272
0.886272
0.886272
0.886272
0.886272
0.886272
0.886272
0.886272
0.886272
0.886272
0.886272
0.886272
0.886272
0.886272
0.886272
0.886272
0.886272
0.886272
0.886272
0.886272
0.886272
0.886272
0.886272
0.886272
0.886272
0.886272
0.886272
0.886272
0.886272
0.886272
0.886272
0.886272
0.886272
0.886272
0.886272
0.886272
0.886272
0.886272
0.886272
0.886272
0.886272
0.886272
0.886272
0.886272
0.886272
0.886272
0.886272
0.886272
0.886272
0.886272
0.886272
0.886272
0.886272
0.886272
0.886272
0.886272
0.886272
0.886272
0.886272
0.886272
0.886272
0.886272
0.886272
0.886272
0.886272
0.886272
0.886272
0.886272
0.886272
0.886272
0.886272
0.886272
0.886272
0.886272
0.886272
0.886272
0.886272
0.886272
0.886272
0.886272
0.886272
0.886272
0.886272
0.886272
0.886272
0.886272
0.886272
0.886272
0.886272
0.886272
0.886272
0.886271
)
;

boundaryField
{
    inlet
    {
        type            calculated;
        value           uniform 0;
    }
    outlet
    {
        type            calculated;
        value           uniform 0;
    }
    sideWall
    {
        type            empty;
    }
}


// ************************************************************************* //
