/*--------------------------------*- C++ -*----------------------------------*\
| =========                 |                                                 |
| \\      /  F ield         | foam-extend: Open Source CFD                    |
|  \\    /   O peration     | Version:     3.2                                |
|   \\  /    A nd           | Web:         http://www.foam-extend.org         |
|    \\/     M anipulation  | For copyright notice see file Copyright         |
\*---------------------------------------------------------------------------*/
FoamFile
{
    version     2.0;
    format      ascii;
    class       surfaceScalarField;
    location    "91";
    object      phi;
}
// * * * * * * * * * * * * * * * * * * * * * * * * * * * * * * * * * * * * * //

dimensions      [0 3 -1 0 0 0 0];

internalField   nonuniform List<scalar> 
10482
(
1.0035e-05
1.32984e-05
7.14129e-06
2.8937e-06
6.7944e-06
3.4689e-07
6.73657e-06
5.78331e-08
6.70467e-06
3.18973e-08
6.65679e-06
4.78844e-08
6.63617e-06
2.0613e-08
6.61827e-06
1.79045e-08
6.61388e-06
4.38871e-09
6.61478e-06
-8.94714e-10
6.6216e-06
-6.82705e-09
6.63136e-06
-9.75654e-09
6.64602e-06
-1.46602e-08
6.66274e-06
-1.67242e-08
6.68191e-06
-1.91649e-08
6.70321e-06
-2.13039e-08
6.72663e-06
-2.34185e-08
6.75063e-06
-2.40004e-08
6.77614e-06
-2.55045e-08
6.80396e-06
-2.78198e-08
6.833e-06
-2.90409e-08
6.86296e-06
-2.99611e-08
6.89371e-06
-3.07551e-08
6.92471e-06
-3.09951e-08
6.95652e-06
-3.18157e-08
6.98777e-06
-3.1242e-08
7.01636e-06
-2.85904e-08
7.0408e-06
-2.44486e-08
7.06147e-06
-2.06659e-08
7.07868e-06
-1.7208e-08
7.09306e-06
-1.43832e-08
7.10498e-06
-1.19219e-08
7.11491e-06
-9.92673e-09
7.12313e-06
-8.22118e-09
7.12998e-06
-6.84535e-09
7.13566e-06
-5.68491e-09
7.14041e-06
-4.7501e-09
7.14438e-06
-3.96654e-09
7.14771e-06
-3.33325e-09
7.15051e-06
-2.8026e-09
7.15288e-06
-2.37098e-09
7.1549e-06
-2.01059e-09
7.15663e-06
-1.73258e-09
7.15811e-06
-1.48507e-09
7.15936e-06
-1.24824e-09
7.16044e-06
-1.07787e-09
7.16152e-06
-1.0843e-09
7.16232e-06
-7.94121e-10
7.16299e-06
-6.70582e-10
7.16357e-06
-5.79432e-10
7.16407e-06
-5.06507e-10
7.16452e-06
-4.40827e-10
7.1649e-06
-3.86219e-10
7.16524e-06
-3.35467e-10
7.16553e-06
-2.95591e-10
7.16578e-06
-2.51845e-10
7.16601e-06
-2.20984e-10
7.1662e-06
-1.91211e-10
7.16636e-06
-1.67069e-10
7.16651e-06
-1.44428e-10
7.16663e-06
-1.25958e-10
7.16674e-06
-1.08799e-10
7.16684e-06
-9.47519e-11
7.16692e-06
-8.181e-11
7.16699e-06
-7.10919e-11
7.16705e-06
-6.10104e-11
7.16711e-06
-5.42792e-11
7.16715e-06
-4.5144e-11
7.16719e-06
-3.98898e-11
7.16722e-06
-3.42521e-11
7.16725e-06
-2.99012e-11
7.16728e-06
-2.55269e-11
7.1673e-06
-2.26002e-11
7.16732e-06
-1.83836e-11
7.16734e-06
-1.68707e-11
7.16735e-06
-1.42274e-11
7.16736e-06
-1.23586e-11
7.16738e-06
-1.04621e-11
7.16738e-06
-9.17152e-12
7.16739e-06
-7.75229e-12
7.1674e-06
-6.8563e-12
7.1674e-06
-5.72665e-12
7.16741e-06
-5.13835e-12
7.16741e-06
-4.18844e-12
7.16742e-06
-3.91794e-12
7.16742e-06
-2.84227e-12
7.16742e-06
-3.20697e-12
7.16743e-06
-2.2144e-12
7.16743e-06
-2.0991e-12
7.16743e-06
-1.62033e-12
7.16743e-06
-1.64481e-12
7.16743e-06
-1.11908e-12
7.16743e-06
-1.4645e-12
7.16743e-06
-6.23052e-13
7.16744e-06
-9.76627e-13
7.16744e-06
-6.65056e-13
7.16744e-06
-6.90993e-13
7.16744e-06
-5.01003e-13
7.16744e-06
-4.82247e-13
7.16744e-06
-4.13833e-13
7.16744e-06
-3.56786e-13
7.16744e-06
-2.58686e-13
7.16744e-06
-2.57475e-13
7.16744e-06
-1.32002e-13
7.16744e-06
-3.49189e-13
7.16744e-06
2.33463e-13
7.16744e-06
-4.87312e-13
7.16744e-06
-9.72409e-15
7.16744e-06
-1.44849e-13
7.16744e-06
-2.97123e-14
7.16744e-06
-1.37909e-13
7.16744e-06
9.4739e-14
7.16744e-06
-3.76019e-13
7.16744e-06
2.31557e-13
7.16744e-06
-1.32321e-13
7.16744e-06
-1.48777e-14
7.16744e-06
-5.61225e-14
7.16744e-06
-2.16832e-14
7.16744e-06
-3.25501e-14
7.16744e-06
-1.53202e-14
7.16744e-06
-2.4611e-14
7.16744e-06
-1.17144e-15
7.16744e-06
-3.34628e-14
7.16744e-06
2.78075e-14
7.16744e-06
-1.08636e-13
7.16744e-06
2.03684e-13
7.16744e-06
-1.90611e-13
7.16744e-06
5.54446e-14
7.16744e-06
-3.45162e-14
7.16744e-06
1.97958e-14
7.16744e-06
-3.41995e-14
7.16744e-06
7.23808e-14
7.16744e-06
-1.59302e-13
7.16744e-06
1.44647e-13
7.16744e-06
-5.27972e-14
7.16744e-06
1.17505e-14
7.16744e-06
-1.02321e-14
7.16744e-06
4.39594e-16
7.16744e-06
-4.33772e-15
7.16744e-06
-1.10286e-16
7.16744e-06
-3.60671e-15
7.16744e-06
2.80073e-15
7.16744e-06
-6.83099e-15
7.16744e-06
1.10235e-14
7.16744e-06
-1.85333e-14
7.16744e-06
6.90672e-14
7.16744e-06
-8.85728e-14
7.16744e-06
3.33692e-14
7.16744e-06
-1.01867e-14
7.16744e-06
7.43637e-15
7.16744e-06
-6.77618e-15
7.16744e-06
1.10403e-14
7.16744e-06
-3.31953e-14
7.16744e-06
4.47731e-14
7.16744e-06
-1.63399e-14
7.16744e-06
4.29624e-15
7.16744e-06
-2.1077e-15
7.16744e-06
8.74814e-16
7.16744e-06
-3.92127e-16
7.16744e-06
1.76565e-16
7.16744e-06
-6.48527e-17
7.16744e-06
8.24965e-17
7.16744e-06
8.30161e-17
7.16744e-06
1.22457e-16
7.16744e-06
1.13388e-16
7.16744e-06
1.11522e-16
7.16744e-06
9.15223e-17
7.16744e-06
6.90304e-17
7.16744e-06
5.50066e-17
7.16744e-06
4.12983e-17
7.16744e-06
4.61346e-18
7.16744e-06
5.17066e-19
7.16744e-06
6.45671e-19
7.16744e-06
-1.46802e-18
7.16744e-06
-9.52207e-18
7.16744e-06
-8.48749e-18
7.16744e-06
-1.2258e-17
7.16744e-06
-1.2238e-17
7.16744e-06
-7.01112e-18
7.16744e-06
-3.55391e-18
7.16744e-06
-2.06502e-17
7.16744e-06
-1.4906e-17
7.16744e-06
-8.67942e-19
7.16744e-06
1.43288e-17
7.16744e-06
3.51582e-17
7.16744e-06
7.93096e-17
7.16744e-06
1.37569e-16
7.16744e-06
2.22677e-16
7.16744e-06
3.36498e-16
7.16744e-06
4.46242e-16
7.16744e-06
5.14392e-16
7.16744e-06
5.88381e-16
7.16744e-06
6.3525e-16
7.16744e-06
6.30655e-16
7.16744e-06
5.83526e-16
7.16744e-06
5.14897e-16
7.16744e-06
4.35186e-16
7.16744e-06
3.60133e-16
7.16744e-06
3.12477e-16
7.16744e-06
2.91924e-16
7.16744e-06
2.83693e-16
7.16744e-06
3.75042e-16
7.16744e-06
5.45834e-16
7.16744e-06
7.67377e-16
7.16744e-06
1.02282e-15
7.16744e-06
1.28973e-15
7.16744e-06
1.51594e-15
7.16744e-06
1.67044e-15
7.16744e-06
1.73557e-15
7.16744e-06
1.69439e-15
7.16744e-06
1.53627e-15
7.16744e-06
1.35126e-15
7.16744e-06
1.14765e-15
7.16744e-06
9.34587e-16
7.16744e-06
7.40583e-16
7.16744e-06
5.84068e-16
7.16744e-06
4.57674e-16
7.16744e-06
3.67765e-16
7.16744e-06
3.13265e-16
7.16744e-06
2.7224e-16
7.16744e-06
2.11259e-16
7.16744e-06
1.91763e-16
7.16744e-06
1.87295e-16
7.16744e-06
1.7199e-16
7.16744e-06
1.50754e-16
7.16744e-06
1.36078e-16
7.16744e-06
1.17214e-16
7.16744e-06
1.00807e-16
7.16744e-06
9.6983e-17
7.16744e-06
8.75674e-17
7.16744e-06
4.85552e-17
7.16744e-06
4.20081e-17
7.16744e-06
5.0388e-17
7.16744e-06
4.7256e-17
7.16744e-06
3.46065e-17
7.16744e-06
3.04254e-17
7.16744e-06
2.26611e-17
7.16744e-06
1.74137e-17
7.16744e-06
2.58569e-17
7.16744e-06
2.79274e-17
7.16744e-06
-1.53494e-18
7.16744e-06
2.92232e-18
7.16744e-06
2.02749e-17
7.16744e-06
3.38649e-17
7.16744e-06
5.51445e-17
7.16744e-06
9.79183e-17
7.16744e-06
1.58731e-16
7.16744e-06
2.42858e-16
7.16744e-06
3.55702e-16
7.16744e-06
4.65073e-16
7.16744e-06
5.29413e-16
7.16744e-06
6.01439e-16
7.16744e-06
6.44791e-16
7.16744e-06
6.37214e-16
7.16744e-06
5.916e-16
7.16744e-06
5.27664e-16
7.16744e-06
4.52002e-16
7.16744e-06
3.78388e-16
7.16744e-06
3.23414e-16
7.16744e-06
2.78015e-16
7.16744e-06
2.16439e-16
7.16744e-06
1.99415e-16
7.16744e-06
1.9943e-16
7.16744e-06
1.96282e-16
7.16744e-06
1.90205e-16
7.16744e-06
1.88586e-16
7.16744e-06
1.83895e-16
7.16744e-06
1.78719e-16
7.16744e-06
1.82575e-16
7.16744e-06
1.82887e-16
7.16744e-06
1.53034e-16
7.16744e-06
1.50622e-16
7.16744e-06
1.56546e-16
7.16744e-06
1.49569e-16
7.16744e-06
1.35223e-16
7.16744e-06
1.21571e-16
7.16744e-06
1.06123e-16
7.16744e-06
8.15363e-17
7.16744e-06
7.67211e-17
7.16744e-06
4.44769e-17
7.16744e-06
2.25218e-17
7.16744e-06
-4.09694e-17
7.16744e-06
2.06827e-17
7.16744e-06
-1.36819e-16
7.16744e-06
6.02317e-17
7.16744e-06
-3.71875e-16
7.16744e-06
3.0021e-16
7.16744e-06
-9.58703e-16
7.16744e-06
1.16004e-15
7.16744e-06
-2.58931e-15
7.16744e-06
3.88112e-15
7.16744e-06
-7.45214e-15
7.16744e-06
1.2353e-14
7.16744e-06
-2.21636e-14
7.16744e-06
3.72369e-14
7.16744e-06
-7.68321e-14
7.16744e-06
1.64883e-14
7.16744e-06
-3.64746e-12
7.16744e-06
1.69698e-13
1.91724e-11
1.75636e-05
1.90681e-05
1.46222e-05
5.83508e-06
1.36459e-05
1.32321e-06
1.33197e-05
3.83998e-07
1.31014e-05
2.50196e-07
1.2955e-05
1.94313e-07
1.2864e-05
1.11625e-07
1.28059e-05
7.59667e-08
1.27747e-05
3.55614e-08
1.27635e-05
1.03599e-08
1.27642e-05
-7.58366e-09
1.27748e-05
-2.03053e-08
1.27947e-05
-3.45699e-08
1.28208e-05
-4.28904e-08
1.28525e-05
-5.07855e-08
1.28888e-05
-5.7637e-08
1.29298e-05
-6.44391e-08
1.2973e-05
-6.72033e-08
1.30188e-05
-7.12612e-08
1.30688e-05
-7.78736e-08
1.31219e-05
-8.20825e-08
1.31771e-05
-8.51482e-08
1.32341e-05
-8.77552e-08
1.32919e-05
-8.8811e-08
1.33516e-05
-9.15357e-08
1.34108e-05
-9.04313e-08
1.34651e-05
-8.29093e-08
1.35124e-05
-7.17455e-08
1.35529e-05
-6.11659e-08
1.35872e-05
-5.14976e-08
1.36161e-05
-4.33164e-08
1.36404e-05
-3.61934e-08
1.36607e-05
-3.02698e-08
1.36777e-05
-2.52224e-08
1.3692e-05
-2.10692e-08
1.37039e-05
-1.75781e-08
1.37138e-05
-1.47184e-08
1.37222e-05
-1.23288e-08
1.37292e-05
-1.03697e-08
1.37352e-05
-8.7334e-09
1.37402e-05
-7.3868e-09
1.37444e-05
-6.26233e-09
1.37481e-05
-5.37969e-09
1.37512e-05
-4.61652e-09
1.37539e-05
-3.897e-09
1.37561e-05
-3.30231e-09
1.37577e-05
-2.72754e-09
1.37593e-05
-2.40792e-09
1.37607e-05
-2.06725e-09
1.37619e-05
-1.78982e-09
1.3763e-05
-1.55817e-09
1.37639e-05
-1.35728e-09
1.37647e-05
-1.16784e-09
1.37651e-05
-7.49226e-10
1.37657e-05
-8.87729e-10
1.37662e-05
-7.71555e-10
1.37667e-05
-6.74383e-10
1.37671e-05
-5.8458e-10
1.37674e-05
-5.09144e-10
1.37677e-05
-4.41007e-10
1.3768e-05
-3.83495e-10
1.37682e-05
-3.32042e-10
1.37684e-05
-2.88203e-10
1.37685e-05
-2.49773e-10
1.37687e-05
-2.15835e-10
1.37688e-05
-1.86515e-10
1.37689e-05
-1.64847e-10
1.3769e-05
-1.37591e-10
1.37691e-05
-1.21282e-10
1.37692e-05
-1.04742e-10
1.37692e-05
-9.06516e-11
1.37693e-05
-7.82007e-11
1.37693e-05
-6.84495e-11
1.37694e-05
-5.62317e-11
1.37694e-05
-5.14076e-11
1.37694e-05
-4.34397e-11
1.37695e-05
-3.74943e-11
1.37695e-05
-3.20382e-11
1.37695e-05
-2.78232e-11
1.37695e-05
-2.37945e-11
1.37695e-05
-2.07312e-11
1.37695e-05
-1.76572e-11
1.37696e-05
-1.54434e-11
1.37696e-05
-1.30246e-11
1.37696e-05
-1.1686e-11
1.37696e-05
-8.92386e-12
1.37696e-05
-9.56404e-12
1.37696e-05
-6.90574e-12
1.37696e-05
-6.20692e-12
1.37696e-05
-5.1536e-12
1.37696e-05
-4.82561e-12
1.37696e-05
-3.61674e-12
1.37696e-05
-4.26119e-12
1.37696e-05
-2.13222e-12
1.37696e-05
-2.81186e-12
1.37696e-05
-2.18185e-12
1.37696e-05
-2.05946e-12
1.37696e-05
-1.57752e-12
1.37696e-05
-1.44228e-12
1.37696e-05
-1.23686e-12
1.37696e-05
-1.04698e-12
1.37696e-05
-8.21123e-13
1.37696e-05
-7.44679e-13
1.37696e-05
-5.16754e-13
1.37696e-05
-8.43928e-13
1.37696e-05
3.01998e-13
1.37696e-05
-1.1045e-12
1.37696e-05
-2.04751e-13
1.37696e-05
-3.68655e-13
1.37696e-05
-1.7062e-13
1.37696e-05
-3.20346e-13
1.37696e-05
8.47701e-14
1.37696e-05
-8.1753e-13
1.37696e-05
3.9401e-13
1.37696e-05
-2.64055e-13
1.37696e-05
-8.43596e-14
1.37696e-05
-1.45128e-13
1.37696e-05
-7.85881e-14
1.37696e-05
-8.91145e-14
1.37696e-05
-5.58728e-14
1.37696e-05
-6.40966e-14
1.37696e-05
-2.49601e-14
1.37696e-05
-6.94138e-14
1.37696e-05
2.2252e-14
1.37696e-05
-2.07613e-13
1.37696e-05
4.01826e-13
1.37696e-05
-3.74022e-13
1.37696e-05
7.10591e-14
1.37696e-05
-6.23362e-14
1.37696e-05
2.43985e-14
1.37696e-05
-5.40157e-14
1.37696e-05
1.25579e-13
1.37696e-05
-3.2357e-13
1.37696e-05
2.78781e-13
1.37696e-05
-8.18772e-14
1.37696e-05
1.6101e-14
1.37696e-05
-1.96841e-14
1.37696e-05
-2.66855e-15
1.37696e-05
-9.75931e-15
1.37696e-05
-2.75816e-15
1.37696e-05
-7.50396e-15
1.37696e-05
2.42188e-15
1.37696e-05
-1.13956e-14
1.37696e-05
1.56735e-14
1.37696e-05
-2.61312e-14
1.37696e-05
1.38517e-13
1.37696e-05
-1.7836e-13
1.37696e-05
5.03445e-14
1.37696e-05
-1.58407e-14
1.37696e-05
1.20125e-14
1.37696e-05
-9.67603e-15
1.37696e-05
1.64153e-14
1.37696e-05
-6.65362e-14
1.37696e-05
9.02768e-14
1.37696e-05
-2.45468e-14
1.37696e-05
7.04454e-15
1.37696e-05
-3.32704e-15
1.37696e-05
1.37598e-15
1.37696e-05
-6.63389e-16
1.37696e-05
2.53425e-16
1.37696e-05
-1.06258e-16
1.37696e-05
1.71749e-16
1.37696e-05
2.05749e-16
1.37696e-05
2.95557e-16
1.37696e-05
2.96795e-16
1.37696e-05
2.99714e-16
1.37696e-05
2.64035e-16
1.37696e-05
2.21e-16
1.37696e-05
1.89806e-16
1.37696e-05
1.51821e-16
1.37696e-05
7.72373e-17
1.37696e-05
5.96621e-17
1.37696e-05
5.19252e-17
1.37696e-05
3.47e-17
1.37696e-05
1.28091e-17
1.37696e-05
5.53961e-18
1.37696e-05
-6.87495e-18
1.37696e-05
-1.58206e-17
1.37696e-05
-1.31968e-17
1.37696e-05
-1.27621e-17
1.37696e-05
-4.81464e-17
1.37696e-05
-3.63366e-17
1.37696e-05
-8.36867e-18
1.37696e-05
2.33947e-17
1.37696e-05
6.35459e-17
1.37696e-05
1.54e-16
1.37696e-05
2.77868e-16
1.37696e-05
4.56987e-16
1.37696e-05
6.97394e-16
1.37696e-05
9.36999e-16
1.37696e-05
1.1062e-15
1.37696e-05
1.28576e-15
1.37696e-05
1.39886e-15
1.37696e-05
1.41028e-15
1.37696e-05
1.32796e-15
1.37696e-05
1.19533e-15
1.37696e-05
1.0324e-15
1.37696e-05
8.7236e-16
1.37696e-05
7.6109e-16
1.37696e-05
7.02968e-16
1.37696e-05
6.89344e-16
1.37696e-05
8.73673e-16
1.37696e-05
1.21662e-15
1.37696e-05
1.68278e-15
1.37696e-05
2.23487e-15
1.37696e-05
2.81841e-15
1.37696e-05
3.33379e-15
1.37696e-05
3.7028e-15
1.37696e-05
3.88199e-15
1.37696e-05
3.83183e-15
1.37696e-05
3.54069e-15
1.37696e-05
3.16987e-15
1.37696e-05
2.73526e-15
1.37696e-05
2.27687e-15
1.37696e-05
1.85231e-15
1.37696e-05
1.50093e-15
1.37696e-05
1.21669e-15
1.37696e-05
1.00817e-15
1.37696e-05
8.7445e-16
1.37696e-05
7.70589e-16
1.37696e-05
6.44082e-16
1.37696e-05
5.97055e-16
1.37696e-05
5.72595e-16
1.37696e-05
5.32006e-16
1.37696e-05
4.78221e-16
1.37696e-05
4.34138e-16
1.37696e-05
3.85248e-16
1.37696e-05
3.37543e-16
1.37696e-05
3.08788e-16
1.37696e-05
2.73559e-16
1.37696e-05
1.90419e-16
1.37696e-05
1.69094e-16
1.37696e-05
1.68218e-16
1.37696e-05
1.52388e-16
1.37696e-05
1.22083e-16
1.37696e-05
1.06239e-16
1.37696e-05
8.42239e-17
1.37696e-05
6.64097e-17
1.37696e-05
7.16049e-17
1.37696e-05
6.74658e-17
1.37696e-05
1.33461e-17
1.37696e-05
2.25952e-17
1.37696e-05
5.02187e-17
1.37696e-05
7.72019e-17
1.37696e-05
1.17721e-16
1.37696e-05
2.02906e-16
1.37696e-05
3.27883e-16
1.37696e-05
5.05594e-16
1.37696e-05
7.40396e-16
1.37696e-05
9.75381e-16
1.37696e-05
1.13453e-15
1.37696e-05
1.30568e-15
1.37696e-05
1.40927e-15
1.37696e-05
1.41024e-15
1.37696e-05
1.32667e-15
1.37696e-05
1.19629e-15
1.37696e-05
1.03663e-15
1.37696e-05
8.75484e-16
1.37696e-05
7.48675e-16
1.37696e-05
6.37373e-16
1.37696e-05
5.08485e-16
1.37696e-05
4.66321e-16
1.37696e-05
4.55122e-16
1.37696e-05
4.4151e-16
1.37696e-05
4.24551e-16
1.37696e-05
4.16492e-16
1.37696e-05
4.01592e-16
1.37696e-05
3.85714e-16
1.37696e-05
3.84307e-16
1.37696e-05
3.73565e-16
1.37696e-05
3.13919e-16
1.37696e-05
3.0705e-16
1.37696e-05
3.09062e-16
1.37696e-05
2.91196e-16
1.37696e-05
2.59615e-16
1.37696e-05
2.2909e-16
1.37696e-05
1.94484e-16
1.37696e-05
1.46115e-16
1.37696e-05
1.27718e-16
1.37696e-05
6.70909e-17
1.37696e-05
1.75745e-17
1.37696e-05
-8.22132e-17
1.37696e-05
4.04353e-19
1.37696e-05
-2.41666e-16
1.37696e-05
3.58815e-17
1.37696e-05
-6.15352e-16
1.37696e-05
3.59043e-16
1.37696e-05
-1.51544e-15
1.37696e-05
1.58773e-15
1.37696e-05
-3.96333e-15
1.37696e-05
5.5441e-15
1.37696e-05
-1.11858e-14
1.37696e-05
1.79625e-14
1.37696e-05
-3.31156e-14
1.37696e-05
5.29503e-14
1.37696e-05
-1.28264e-13
1.37696e-05
-1.22099e-13
1.37696e-05
-6.03389e-12
1.37696e-05
2.46702e-14
2.70601e-11
2.13429e-05
2.10585e-05
1.89451e-05
8.23294e-06
1.76816e-05
2.58666e-06
1.70541e-05
1.01148e-06
1.66379e-05
6.66479e-07
1.63924e-05
4.39745e-07
1.62326e-05
2.71452e-07
1.61311e-05
1.77464e-07
1.60695e-05
9.71604e-08
1.60388e-05
4.10928e-08
1.60268e-05
4.35802e-09
1.60306e-05
-2.40395e-08
1.60464e-05
-5.04089e-08
1.60721e-05
-6.8554e-08
1.61057e-05
-8.44386e-08
1.6146e-05
-9.79074e-08
1.61928e-05
-1.11269e-07
1.62433e-05
-1.17735e-07
1.62972e-05
-1.25069e-07
1.63563e-05
-1.37006e-07
1.64195e-05
-1.45329e-07
1.64858e-05
-1.51396e-07
1.65545e-05
-1.5652e-07
1.66247e-05
-1.58952e-07
1.66974e-05
-1.64245e-07
1.67695e-05
-1.62542e-07
1.68357e-05
-1.49069e-07
1.68937e-05
-1.29809e-07
1.69438e-05
-1.11249e-07
1.69866e-05
-9.42416e-08
1.70228e-05
-7.95886e-08
1.70534e-05
-6.68058e-08
1.70792e-05
-5.60383e-08
1.71008e-05
-4.68579e-08
1.7119e-05
-3.92275e-08
1.71342e-05
-3.28109e-08
1.7147e-05
-2.75106e-08
1.71578e-05
-2.3081e-08
1.71668e-05
-1.94245e-08
1.71745e-05
-1.6372e-08
1.71809e-05
-1.38466e-08
1.71864e-05
-1.17362e-08
1.71911e-05
-1.00653e-08
1.71951e-05
-8.6389e-09
1.71985e-05
-7.30617e-09
1.72014e-05
-6.15713e-09
1.72038e-05
-5.14298e-09
1.72059e-05
-4.47596e-09
1.72076e-05
-3.85486e-09
1.72092e-05
-3.33773e-09
1.72105e-05
-2.90004e-09
1.72117e-05
-2.52411e-09
1.72127e-05
-2.17323e-09
1.72139e-05
-1.92245e-09
1.72146e-05
-1.64865e-09
1.72153e-05
-1.43275e-09
1.72159e-05
-1.24918e-09
1.72164e-05
-1.08334e-09
1.72168e-05
-9.42208e-10
1.72172e-05
-8.16648e-10
1.72175e-05
-7.09277e-10
1.72178e-05
-6.1462e-10
1.7218e-05
-5.32772e-10
1.72183e-05
-4.62316e-10
1.72184e-05
-3.98596e-10
1.72186e-05
-3.45498e-10
1.72187e-05
-3.0441e-10
1.72189e-05
-2.54633e-10
1.7219e-05
-2.24223e-10
1.7219e-05
-1.93934e-10
1.72191e-05
-1.673e-10
1.72192e-05
-1.44962e-10
1.72192e-05
-1.26165e-10
1.72193e-05
-1.04208e-10
1.72193e-05
-9.50899e-11
1.72194e-05
-8.03369e-11
1.72194e-05
-6.92246e-11
1.72194e-05
-5.93766e-11
1.72195e-05
-5.13797e-11
1.72195e-05
-4.41365e-11
1.72195e-05
-3.82333e-11
1.72195e-05
-3.28082e-11
1.72195e-05
-2.84135e-11
1.72195e-05
-2.42901e-11
1.72195e-05
-2.14015e-11
1.72196e-05
-1.67571e-11
1.72196e-05
-1.75132e-11
1.72196e-05
-1.28586e-11
1.72196e-05
-1.13715e-11
1.72196e-05
-9.7012e-12
1.72196e-05
-8.77577e-12
1.72196e-05
-6.88356e-12
1.72196e-05
-7.70238e-12
1.72196e-05
-4.10357e-12
1.72196e-05
-5.09897e-12
1.72196e-05
-4.13663e-12
1.72196e-05
-3.73923e-12
1.72196e-05
-2.99322e-12
1.72196e-05
-2.6756e-12
1.72196e-05
-2.26508e-12
1.72196e-05
-1.89644e-12
1.72196e-05
-1.53806e-12
1.72196e-05
-1.35154e-12
1.72196e-05
-1.03453e-12
1.72196e-05
-1.40366e-12
1.72196e-05
2.44538e-13
1.72196e-05
-1.75172e-12
1.72196e-05
-4.99066e-13
1.72196e-05
-6.27765e-13
1.72196e-05
-3.71944e-13
1.72196e-05
-5.23899e-13
1.72196e-05
1.02715e-14
1.72196e-05
-1.26078e-12
1.72196e-05
4.9148e-13
1.72196e-05
-3.87497e-13
1.72196e-05
-1.83211e-13
1.72196e-05
-2.47771e-13
1.72196e-05
-1.53742e-13
1.72196e-05
-1.56965e-13
1.72196e-05
-1.09586e-13
1.72196e-05
-1.10955e-13
1.72196e-05
-6.10762e-14
1.72196e-05
-1.06003e-13
1.72196e-05
-1.44947e-15
1.72196e-05
-2.96694e-13
1.72196e-05
5.75929e-13
1.72196e-05
-5.33464e-13
1.72196e-05
6.12315e-14
1.72196e-05
-8.44715e-14
1.72196e-05
1.95052e-14
1.72196e-05
-6.58697e-14
1.72196e-05
1.64192e-13
1.72196e-05
-4.7632e-13
1.72196e-05
3.90494e-13
1.72196e-05
-9.37473e-14
1.72196e-05
1.59533e-14
1.72196e-05
-2.75716e-14
1.72196e-05
-7.8267e-15
1.72196e-05
-1.55002e-14
1.72196e-05
-6.79447e-15
1.72196e-05
-1.14476e-14
1.72196e-05
2.37969e-16
1.72196e-05
-1.45826e-14
1.72196e-05
1.65231e-14
1.72196e-05
-2.83677e-14
1.72196e-05
2.02495e-13
1.72196e-05
-2.58423e-13
1.72196e-05
5.55728e-14
1.72196e-05
-1.87035e-14
1.72196e-05
1.44513e-14
1.72196e-05
-1.01039e-14
1.72196e-05
1.87679e-14
1.72196e-05
-9.7333e-14
1.72196e-05
1.3104e-13
1.72196e-05
-2.65458e-14
1.72196e-05
9.15734e-15
1.72196e-05
-3.54749e-15
1.72196e-05
1.74008e-15
1.72196e-05
-7.31518e-16
1.72196e-05
3.25748e-16
1.72196e-05
-6.26969e-17
1.72196e-05
3.02238e-16
1.72196e-05
3.77326e-16
1.72196e-05
5.09509e-16
1.72196e-05
5.2666e-16
1.72196e-05
5.31622e-16
1.72196e-05
4.82316e-16
1.72196e-05
4.17518e-16
1.72196e-05
3.55067e-16
1.72196e-05
2.86763e-16
1.72196e-05
1.78813e-16
1.72196e-05
1.40922e-16
1.72196e-05
1.09814e-16
1.72196e-05
7.64342e-17
1.72196e-05
3.61695e-17
1.72196e-05
1.70237e-17
1.72196e-05
-9.50178e-18
1.72196e-05
-2.67003e-17
1.72196e-05
-3.45952e-17
1.72196e-05
-3.72969e-17
1.72196e-05
-7.67823e-17
1.72196e-05
-5.79124e-17
1.72196e-05
-2.38947e-17
1.72196e-05
2.21671e-17
1.72196e-05
8.48418e-17
1.72196e-05
2.19164e-16
1.72196e-05
4.13584e-16
1.72196e-05
6.92258e-16
1.72196e-05
1.05747e-15
1.72196e-05
1.44182e-15
1.72196e-05
1.75159e-15
1.72196e-05
2.06351e-15
1.72196e-05
2.26578e-15
1.72196e-05
2.31993e-15
1.72196e-05
2.22857e-15
1.72196e-05
2.04814e-15
1.72196e-05
1.80635e-15
1.72196e-05
1.558e-15
1.72196e-05
1.36467e-15
1.72196e-05
1.25152e-15
1.72196e-05
1.23052e-15
1.72196e-05
1.48621e-15
1.72196e-05
1.97942e-15
1.72196e-05
2.68374e-15
1.72196e-05
3.54463e-15
1.72196e-05
4.47779e-15
1.72196e-05
5.33281e-15
1.72196e-05
5.98461e-15
1.72196e-05
6.34307e-15
1.72196e-05
6.35323e-15
1.72196e-05
5.9991e-15
1.72196e-05
5.47176e-15
1.72196e-05
4.81201e-15
1.72196e-05
4.0947e-15
1.72196e-05
3.40846e-15
1.72196e-05
2.82095e-15
1.72196e-05
2.33409e-15
1.72196e-05
1.96061e-15
1.72196e-05
1.6959e-15
1.72196e-05
1.4891e-15
1.72196e-05
1.28119e-15
1.72196e-05
1.17452e-15
1.72196e-05
1.09767e-15
1.72196e-05
1.00864e-15
1.72196e-05
9.07856e-16
1.72196e-05
8.19305e-16
1.72196e-05
7.27073e-16
1.72196e-05
6.38418e-16
1.72196e-05
5.68965e-16
1.72196e-05
4.97212e-16
1.72196e-05
3.78452e-16
1.72196e-05
3.35113e-16
1.72196e-05
3.12179e-16
1.72196e-05
2.76241e-16
1.72196e-05
2.26177e-16
1.72196e-05
1.94028e-16
1.72196e-05
1.55932e-16
1.72196e-05
1.25626e-16
1.72196e-05
1.16692e-16
1.72196e-05
1.04159e-16
1.72196e-05
3.93382e-17
1.72196e-05
5.06853e-17
1.72196e-05
8.10358e-17
1.72196e-05
1.16818e-16
1.72196e-05
1.76675e-16
1.72196e-05
3.02494e-16
1.72196e-05
4.92315e-16
1.72196e-05
7.66207e-16
1.72196e-05
1.12068e-15
1.72196e-05
1.49386e-15
1.72196e-05
1.78809e-15
1.72196e-05
2.0811e-15
1.72196e-05
2.26538e-15
1.72196e-05
2.29989e-15
1.72196e-05
2.20021e-15
1.72196e-05
2.01607e-15
1.72196e-05
1.77547e-15
1.72196e-05
1.52259e-15
1.72196e-05
1.30254e-15
1.72196e-05
1.10908e-15
1.72196e-05
9.10451e-16
1.72196e-05
8.2287e-16
1.72196e-05
7.74295e-16
1.72196e-05
7.33031e-16
1.72196e-05
6.92502e-16
1.72196e-05
6.65103e-16
1.72196e-05
6.31184e-16
1.72196e-05
5.97652e-16
1.72196e-05
5.76964e-16
1.72196e-05
5.48058e-16
1.72196e-05
4.67698e-16
1.72196e-05
4.50918e-16
1.72196e-05
4.39236e-16
1.72196e-05
4.06859e-16
1.72196e-05
3.58439e-16
1.72196e-05
3.11231e-16
1.72196e-05
2.58267e-16
1.72196e-05
1.90761e-16
1.72196e-05
1.52848e-16
1.72196e-05
7.09604e-17
1.72196e-05
5.14971e-18
1.72196e-05
-1.13108e-16
1.72196e-05
-3.39824e-17
1.72196e-05
-3.15184e-16
1.72196e-05
-2.02508e-17
1.72196e-05
-7.60403e-16
1.72196e-05
3.04265e-16
1.72196e-05
-1.80222e-15
1.72196e-05
1.61918e-15
1.72196e-05
-4.58598e-15
1.72196e-05
5.9523e-15
1.72196e-05
-1.26984e-14
1.72196e-05
1.96347e-14
1.72196e-05
-3.74465e-14
1.72196e-05
5.6466e-14
1.72196e-05
-1.59524e-13
1.72196e-05
-2.91342e-13
1.72196e-05
-6.71977e-12
1.72196e-05
1.28457e-12
2.51231e-11
2.32787e-05
2.11132e-05
2.18836e-05
9.62803e-06
2.07151e-05
3.7552e-06
1.98112e-05
1.91537e-06
1.91994e-05
1.27828e-06
1.88316e-05
8.07558e-07
1.85909e-05
5.12132e-07
1.84401e-05
3.2828e-07
1.83432e-05
1.93997e-07
1.8287e-05
9.73085e-08
1.82561e-05
3.52459e-08
1.82479e-05
-1.57873e-08
1.82553e-05
-5.78204e-08
1.82747e-05
-8.79366e-08
1.83049e-05
-1.14691e-07
1.83438e-05
-1.36801e-07
1.83911e-05
-1.58529e-07
1.84435e-05
-1.70164e-07
1.85001e-05
-1.81652e-07
1.85628e-05
-1.99681e-07
1.86304e-05
-2.13014e-07
1.87019e-05
-2.22824e-07
1.87764e-05
-2.31037e-07
1.88529e-05
-2.35513e-07
1.89325e-05
-2.43842e-07
1.9011e-05
-2.41028e-07
1.90826e-05
-2.20623e-07
1.91456e-05
-1.92819e-07
1.92002e-05
-1.65881e-07
1.92471e-05
-1.41142e-07
1.92872e-05
-1.19617e-07
1.93211e-05
-1.00722e-07
1.93497e-05
-8.46997e-08
1.93739e-05
-7.10137e-08
1.93942e-05
-5.95608e-08
1.94113e-05
-4.99141e-08
1.94257e-05
-4.19007e-08
1.94378e-05
-3.51958e-08
1.9448e-05
-2.96365e-08
1.94567e-05
-2.4993e-08
1.9464e-05
-2.11385e-08
1.94701e-05
-1.79143e-08
1.94754e-05
-1.53471e-08
1.94799e-05
-1.31708e-08
1.94838e-05
-1.11506e-08
1.9487e-05
-9.37975e-09
1.94897e-05
-7.8692e-09
1.94921e-05
-6.80796e-09
1.94941e-05
-5.86531e-09
1.94958e-05
-5.07612e-09
1.94973e-05
-4.40463e-09
1.94986e-05
-3.82944e-09
1.94998e-05
-3.30485e-09
1.95007e-05
-2.89918e-09
1.95016e-05
-2.501e-09
1.95023e-05
-2.17085e-09
1.9503e-05
-1.88961e-09
1.95035e-05
-1.63883e-09
1.9504e-05
-1.42408e-09
1.95044e-05
-1.23456e-09
1.95048e-05
-1.07146e-09
1.95051e-05
-9.28747e-10
1.95054e-05
-8.04514e-10
1.95056e-05
-6.98422e-10
1.95058e-05
-6.0139e-10
1.9506e-05
-5.27141e-10
1.95065e-05
-8.20342e-10
1.95066e-05
-3.89672e-10
1.95068e-05
-3.38642e-10
1.95069e-05
-2.9291e-10
1.95069e-05
-2.52308e-10
1.9507e-05
-2.19221e-10
1.95071e-05
-1.89945e-10
1.95071e-05
-1.57515e-10
1.95072e-05
-1.43674e-10
1.95072e-05
-1.21181e-10
1.95073e-05
-1.04431e-10
1.95073e-05
-8.97562e-11
1.95073e-05
-7.75315e-11
1.95073e-05
-6.67462e-11
1.95074e-05
-5.76537e-11
1.95074e-05
-4.9655e-11
1.95074e-05
-4.27925e-11
1.95074e-05
-3.68495e-11
1.95074e-05
-3.20953e-11
1.95074e-05
-2.55856e-11
1.95074e-05
-2.63073e-11
1.95074e-05
-1.94047e-11
1.95074e-05
-1.71284e-11
1.95074e-05
-1.47993e-11
1.95075e-05
-1.31296e-11
1.95075e-05
-1.06002e-11
1.95075e-05
-1.14432e-11
1.95075e-05
-6.30844e-12
1.95075e-05
-7.65129e-12
1.95075e-05
-6.30447e-12
1.95075e-05
-5.57313e-12
1.95075e-05
-4.58927e-12
1.95075e-05
-4.05971e-12
1.95075e-05
-3.41191e-12
1.95075e-05
-2.83187e-12
1.95075e-05
-2.33143e-12
1.95075e-05
-2.02407e-12
1.95075e-05
-1.62112e-12
1.95075e-05
-1.99355e-12
1.95075e-05
1.03407e-13
1.95075e-05
-2.41214e-12
1.95075e-05
-8.34392e-13
1.95075e-05
-9.01826e-13
1.95075e-05
-6.03689e-13
1.95075e-05
-7.40719e-13
1.95075e-05
-1.01008e-13
1.95075e-05
-1.69355e-12
1.95075e-05
5.51319e-13
1.95075e-05
-5.10801e-13
1.95075e-05
-2.98346e-13
1.95075e-05
-3.56834e-13
1.95075e-05
-2.375e-13
1.95075e-05
-2.3006e-13
1.95075e-05
-1.69704e-13
1.95075e-05
-1.6174e-13
1.95075e-05
-1.03327e-13
1.95075e-05
-1.43428e-13
1.95075e-05
-3.33734e-14
1.95075e-05
-3.80087e-13
1.95075e-05
7.30973e-13
1.95075e-05
-6.77055e-13
1.95075e-05
3.91935e-14
1.95075e-05
-1.03474e-13
1.95075e-05
1.02918e-14
1.95075e-05
-7.46044e-14
1.95075e-05
1.94711e-13
1.95075e-05
-6.1935e-13
1.95075e-05
4.86282e-13
1.95075e-05
-9.73742e-14
1.95075e-05
1.34542e-14
1.95075e-05
-3.47206e-14
1.95075e-05
-1.40092e-14
1.95075e-05
-2.13591e-14
1.95075e-05
-1.14569e-14
1.95075e-05
-1.54022e-14
1.95075e-05
-2.74048e-15
1.95075e-05
-1.71689e-14
1.95075e-05
1.56452e-14
1.95075e-05
-2.86211e-14
1.95075e-05
2.62279e-13
1.95075e-05
-3.30335e-13
1.95075e-05
5.47107e-14
1.95075e-05
-2.04876e-14
1.95075e-05
1.58359e-14
1.95075e-05
-9.28196e-15
1.95075e-05
2.00149e-14
1.95075e-05
-1.26145e-13
1.95075e-05
1.67817e-13
1.95075e-05
-2.51774e-14
1.95075e-05
1.12678e-14
1.95075e-05
-3.07126e-15
1.95075e-05
2.13832e-15
1.95075e-05
-6.22366e-16
1.95075e-05
4.53987e-16
1.95075e-05
6.7394e-17
1.95075e-05
4.88279e-16
1.95075e-05
5.95279e-16
1.95075e-05
7.60372e-16
1.95075e-05
7.87368e-16
1.95075e-05
7.90529e-16
1.95075e-05
7.21818e-16
1.95075e-05
6.30981e-16
1.95075e-05
5.3006e-16
1.95075e-05
4.26507e-16
1.95075e-05
2.86516e-16
1.95075e-05
2.21982e-16
1.95075e-05
1.60925e-16
1.95075e-05
1.05398e-16
1.95075e-05
4.70252e-17
1.95075e-05
1.263e-17
1.95075e-05
-2.39455e-17
1.95075e-05
-4.77658e-17
1.95075e-05
-6.56844e-17
1.95075e-05
-6.98416e-17
1.95075e-05
-1.07272e-16
1.95075e-05
-8.08315e-17
1.95075e-05
-4.4404e-17
1.95075e-05
1.50503e-17
1.95075e-05
1.0209e-16
1.95075e-05
2.8051e-16
1.95075e-05
5.45847e-16
1.95075e-05
9.29657e-16
1.95075e-05
1.42382e-15
1.95075e-05
1.96942e-15
1.95075e-05
2.44859e-15
1.95075e-05
2.91402e-15
1.95075e-05
3.22956e-15
1.95075e-05
3.35222e-15
1.95075e-05
3.27482e-15
1.95075e-05
3.05977e-15
1.95075e-05
2.74769e-15
1.95075e-05
2.41042e-15
1.95075e-05
2.11928e-15
1.95075e-05
1.93899e-15
1.95075e-05
1.90012e-15
1.95075e-05
2.20371e-15
1.95075e-05
2.82801e-15
1.95075e-05
3.76595e-15
1.95075e-05
4.94532e-15
1.95075e-05
6.25722e-15
1.95075e-05
7.49822e-15
1.95075e-05
8.49404e-15
1.95075e-05
9.09581e-15
1.95075e-05
9.23107e-15
1.95075e-05
8.87341e-15
1.95075e-05
8.22348e-15
1.95075e-05
7.3453e-15
1.95075e-05
6.36058e-15
1.95075e-05
5.38688e-15
1.95075e-05
4.524e-15
1.95075e-05
3.78761e-15
1.95075e-05
3.2015e-15
1.95075e-05
2.75302e-15
1.95075e-05
2.40372e-15
1.95075e-05
2.08204e-15
1.95075e-05
1.88374e-15
1.95075e-05
1.72178e-15
1.95075e-05
1.5615e-15
1.95075e-05
1.39701e-15
1.95075e-05
1.24963e-15
1.95075e-05
1.10256e-15
1.95075e-05
9.65442e-16
1.95075e-05
8.4511e-16
1.95075e-05
7.32565e-16
1.95075e-05
5.81033e-16
1.95075e-05
5.11059e-16
1.95075e-05
4.58827e-16
1.95075e-05
3.99779e-16
1.95075e-05
3.30757e-16
1.95075e-05
2.80155e-16
1.95075e-05
2.27164e-16
1.95075e-05
1.84598e-16
1.95075e-05
1.5822e-16
1.95075e-05
1.3736e-16
1.95075e-05
6.99905e-17
1.95075e-05
8.11746e-17
1.95075e-05
1.08975e-16
1.95075e-05
1.52068e-16
1.95075e-05
2.30916e-16
1.95075e-05
3.96541e-16
1.95075e-05
6.53055e-16
1.95075e-05
1.02681e-15
1.95075e-05
1.50599e-15
1.95075e-05
2.03199e-15
1.95075e-05
2.48774e-15
1.95075e-05
2.92603e-15
1.95075e-05
3.21278e-15
1.95075e-05
3.30468e-15
1.95075e-05
3.20955e-15
1.95075e-05
2.9854e-15
1.95075e-05
2.66899e-15
1.95075e-05
2.32175e-15
1.95075e-05
1.99443e-15
1.95075e-05
1.70553e-15
1.95075e-05
1.42609e-15
1.95075e-05
1.27172e-15
1.95075e-05
1.16297e-15
1.95075e-05
1.07626e-15
1.95075e-05
9.97626e-16
1.95075e-05
9.39611e-16
1.95075e-05
8.77179e-16
1.95075e-05
8.19033e-16
1.95075e-05
7.69084e-16
1.95075e-05
7.18262e-16
1.95075e-05
6.20458e-16
1.95075e-05
5.88427e-16
1.95075e-05
5.5689e-16
1.95075e-05
5.08181e-16
1.95075e-05
4.42807e-16
1.95075e-05
3.79464e-16
1.95075e-05
3.09864e-16
1.95075e-05
2.26708e-16
1.95075e-05
1.67697e-16
1.95075e-05
7.06765e-17
1.95075e-05
-5.64207e-18
1.95075e-05
-1.35073e-16
1.95075e-05
-6.96496e-17
1.95075e-05
-3.69253e-16
1.95075e-05
-8.40283e-17
1.95075e-05
-8.54101e-16
1.95075e-05
2.09142e-16
1.95075e-05
-1.95774e-15
1.95075e-05
1.48988e-15
1.95075e-05
-4.86059e-15
1.95075e-05
5.82499e-15
1.95075e-05
-1.32139e-14
1.95075e-05
1.95907e-14
1.95075e-05
-3.88104e-14
1.95075e-05
5.49223e-14
1.95075e-05
-1.78785e-13
1.95075e-05
-4.22956e-13