/*--------------------------------*- C++ -*----------------------------------*\
| =========                 |                                                 |
| \\      /  F ield         | foam-extend: Open Source CFD                    |
|  \\    /   O peration     | Version:     3.2                                |
|   \\  /    A nd           | Web:         http://www.foam-extend.org         |
|    \\/     M anipulation  | For copyright notice see file Copyright         |
\*---------------------------------------------------------------------------*/
FoamFile
{
    version     2.0;
    format      ascii;
    class       areaVectorField;
    location    "91";
    object      q_bed;
}
// * * * * * * * * * * * * * * * * * * * * * * * * * * * * * * * * * * * * * //

dimensions      [0 2 -1 0 0 0 0];

internalField   nonuniform List<vector> 
300
(
(0.000522814 -1.71465e-28 -2.61407e-06)
(0.00038042 2.15809e-28 -1.9021e-06)
(0.000283647 7.41776e-29 -1.41823e-06)
(0.000279754 0 -1.39877e-06)
(0.000271056 -3.50717e-26 -1.35528e-06)
(0.00026862 -7.10431e-27 -1.3431e-06)
(0.000264309 -9.90803e-27 -1.32154e-06)
(0.000263171 -3.94961e-27 -1.31586e-06)
(0.000261797 0 -1.30898e-06)
(0.000262049 -3.68405e-27 -1.31025e-06)
(0.000262532 0 -1.31266e-06)
(0.000263581 3.51229e-27 -1.31791e-06)
(0.000265007 -3.97734e-31 -1.32503e-06)
(0.000266802 3.68336e-27 -1.33401e-06)
(0.000268792 0 -1.34396e-06)
(0.000271013 0 -1.35506e-06)
(0.000273441 4.01954e-27 -1.3672e-06)
(0.00027603 -3.84335e-27 -1.38015e-06)
(0.000278656 4.11755e-27 -1.39328e-06)
(0.000281466 0 -1.40733e-06)
(0.000284442 0 -1.42221e-06)
(0.000287481 -4.41004e-27 -1.43741e-06)
(0.0002906 0 -1.453e-06)
(0.000293733 0 -1.46866e-06)
(0.000296872 0 -1.48436e-06)
(0.000300054 -4.06651e-27 -1.50027e-06)
(0.000303013 -2.59019e-30 -1.51506e-06)
(0.000305597 0 -1.52798e-06)
(0.000307762 0 -1.53881e-06)
(0.000309573 -1.69939e-27 -1.54786e-06)
(0.000311072 -1.4859e-30 -1.55536e-06)
(0.00031232 0 -1.5616e-06)
(0.000313352 0 -1.56676e-06)
(0.000314209 0 -1.57105e-06)
(0.000314919 -7.50591e-31 -1.57459e-06)
(0.000315509 0 -1.57755e-06)
(0.000315999 0 -1.58e-06)
(0.000316409 -4.45781e-31 -1.58204e-06)
(0.000316751 0 -1.58375e-06)
(0.000317038 0 -1.58519e-06)
(0.00031728 0 -1.5864e-06)
(0.000317484 -1.40923e-28 -1.58742e-06)
(0.000317659 0 -1.58829e-06)
(0.000317809 -1.07037e-28 -1.58905e-06)
(0.000317937 0 -1.58969e-06)
(0.000318045 0 -1.59022e-06)
(0.000318136 -7.72205e-29 -1.59068e-06)
(0.000318214 0 -1.59107e-06)
(0.000318281 -5.37624e-29 -1.59141e-06)
(0.00031834 0 -1.5917e-06)
(0.000318391 0 -1.59195e-06)
(0.000318435 -3.58528e-29 -1.59218e-06)
(0.000318474 0 -1.59237e-06)
(0.000318508 -2.91078e-29 -1.59254e-06)
(0.000318537 0 -1.59269e-06)
(0.000318563 0 -1.59281e-06)
(0.000318585 -1.96376e-29 -1.59293e-06)
(0.000318605 0 -1.59302e-06)
(0.000318621 -1.77637e-32 -1.59311e-06)
(0.000318636 0 -1.59318e-06)
(0.000318649 0 -1.59324e-06)
(0.00031866 -9.62818e-30 -1.5933e-06)
(0.00031867 0 -1.59335e-06)
(0.000318678 -7.2078e-30 -1.59339e-06)
(0.000318685 0 -1.59343e-06)
(0.000318691 0 -1.59346e-06)
(0.000318697 -4.89997e-30 -1.59348e-06)
(0.000318701 0 -1.59351e-06)
(0.000318705 -3.67375e-30 -1.59353e-06)
(0.000318709 0 -1.59354e-06)
(0.000318712 2.79662e-30 -1.59356e-06)
(0.000318714 -2.18422e-30 -1.59357e-06)
(0.000318717 0 -1.59358e-06)
(0.000318719 -1.58194e-30 -1.59359e-06)
(0.00031872 0 -1.5936e-06)
(0.000318722 0 -1.59361e-06)
(0.000318723 -1.14466e-30 -1.59361e-06)
(0.000318724 0 -1.59362e-06)
(0.000318725 -8.52571e-31 -1.59362e-06)
(0.000318726 0 -1.59363e-06)
(0.000318726 0 -1.59363e-06)
(0.000318727 0 -1.59364e-06)
(0.000318728 0 -1.59364e-06)
(0.000318728 0 -1.59364e-06)
(0.000318728 0 -1.59364e-06)
(0.000318729 1.87565e-31 -1.59364e-06)
(0.000318729 3.37089e-34 -1.59364e-06)
(0.000318729 0 -1.59365e-06)
(0.000318729 0 -1.59365e-06)
(0.00031873 0 -1.59365e-06)
(0.00031873 0 -1.59365e-06)
(0.00031873 0 -1.59365e-06)
(0.00031873 0 -1.59365e-06)
(0.00031873 0 -1.59365e-06)
(0.00031873 0 -1.59365e-06)
(0.00031873 0 -1.59365e-06)
(0.00031873 0 -1.59365e-06)
(0.00031873 0 -1.59365e-06)
(0.00031873 0 -1.59365e-06)
(0.00031873 0 -1.59365e-06)
(0.00031873 0 -1.59365e-06)
(0.000318731 1.33196e-32 -1.59365e-06)
(0.000318731 2.43757e-35 -1.59365e-06)
(0.000318731 0 -1.59365e-06)
(0.000318731 0 -1.59365e-06)
(0.000318731 0 -1.59365e-06)
(0.000318731 0 -1.59365e-06)
(0.000318731 0 -1.59365e-06)
(0.000318731 0 -1.59365e-06)
(0.000318731 0 -1.59365e-06)
(0.000318731 0 -1.59365e-06)
(0.000318731 0 -1.59365e-06)
(0.000318731 0 -1.59365e-06)
(0.000318731 0 -1.59365e-06)
(0.000318731 0 -1.59365e-06)
(0.000318731 0 -1.59365e-06)
(0.000318731 0 -1.59365e-06)
(0.000318731 -1.80268e-33 -1.59365e-06)
(0.000318731 0 -1.59365e-06)
(0.000318731 0 -1.59365e-06)
(0.000318731 0 -1.59365e-06)
(0.000318731 0 -1.59365e-06)
(0.000318731 0 -1.59365e-06)
(0.000318731 0 -1.59365e-06)
(0.000318731 0 -1.59365e-06)
(0.000318731 0 -1.59365e-06)
(0.000318731 0 -1.59365e-06)
(0.000318731 0 -1.59365e-06)
(0.000318731 0 -1.59365e-06)
(0.000318731 0 -1.59365e-06)
(0.000318731 0 -1.59365e-06)
(0.000318731 0 -1.59365e-06)
(0.000318731 0 -1.59365e-06)
(0.000318731 0 -1.59365e-06)
(0.000318731 0 -1.59365e-06)
(0.000318731 0 -1.59365e-06)
(0.000318731 0 -1.59365e-06)
(0.000318731 0 -1.59365e-06)
(0.000318731 0 -1.59365e-06)
(0.000318731 0 -1.59365e-06)
(0.000318731 0 -1.59365e-06)
(0.000318731 0 -1.59365e-06)
(0.000318731 0 -1.59365e-06)
(0.000318731 0 -1.59365e-06)
(0.000318731 0 -1.59365e-06)
(0.000318731 0 -1.59365e-06)
(0.000318731 0 -1.59365e-06)
(0.000318731 0 -1.59365e-06)
(0.000318731 0 -1.59365e-06)
(0.000318731 0 -1.59365e-06)
(0.000318731 0 -1.59365e-06)
(0.000318731 0 -1.59365e-06)
(0.000318731 0 -1.59365e-06)
(0.000318731 0 -1.59365e-06)
(0.000318731 0 -1.59365e-06)
(0.000318731 0 -1.59365e-06)
(0.000318731 0 -1.59365e-06)
(0.000318731 0 -1.59365e-06)
(0.000318731 0 -1.59365e-06)
(0.000318731 0 -1.59365e-06)
(0.000318731 0 -1.59365e-06)
(0.000318731 0 -1.59365e-06)
(0.000318731 0 -1.59365e-06)
(0.000318731 0 -1.59365e-06)
(0.000318731 0 -1.59365e-06)
(0.000318731 0 -1.59365e-06)
(0.000318731 0 -1.59365e-06)
(0.000318731 0 -1.59365e-06)
(0.000318731 0 -1.59365e-06)
(0.000318731 0 -1.59365e-06)
(0.000318731 0 -1.59365e-06)
(0.000318731 0 -1.59365e-06)
(0.000318731 0 -1.59365e-06)
(0.000318731 0 -1.59365e-06)
(0.000318731 0 -1.59365e-06)
(0.000318731 0 -1.59365e-06)
(0.000318731 0 -1.59365e-06)
(0.000318731 0 -1.59365e-06)
(0.000318731 0 -1.59365e-06)
(0.000318731 0 -1.59365e-06)
(0.000318731 0 -1.59365e-06)
(0.000318731 0 -1.59365e-06)
(0.000318731 0 -1.59365e-06)
(0.000318731 0 -1.59365e-06)
(0.000318731 0 -1.59365e-06)
(0.000318731 0 -1.59365e-06)
(0.000318731 0 -1.59365e-06)
(0.000318731 0 -1.59365e-06)
(0.000318731 0 -1.59365e-06)
(0.000318731 0 -1.59365e-06)
(0.000318731 0 -1.59365e-06)
(0.000318731 0 -1.59365e-06)
(0.000318731 0 -1.59365e-06)
(0.000318731 0 -1.59365e-06)
(0.000318731 0 -1.59365e-06)
(0.000318731 0 -1.59365e-06)
(0.000318731 0 -1.59365e-06)
(0.000318731 0 -1.59365e-06)
(0.000318731 0 -1.59365e-06)
(0.000318731 0 -1.59365e-06)
(0.000318731 0 -1.59365e-06)
(0.000318731 0 -1.59365e-06)
(0.000318731 0 -1.59365e-06)
(0.000318731 0 -1.59365e-06)
(0.000318731 0 -1.59365e-06)
(0.000318731 0 -1.59365e-06)
(0.000318731 0 -1.59365e-06)
(0.000318731 0 -1.59365e-06)
(0.000318731 0 -1.59365e-06)
(0.000318731 0 -1.59365e-06)
(0.000318731 0 -1.59365e-06)
(0.000318731 0 -1.59365e-06)
(0.000318731 0 -1.59365e-06)
(0.000318731 0 -1.59365e-06)
(0.000318731 0 -1.59365e-06)
(0.000318731 0 -1.59365e-06)
(0.000318731 0 -1.59365e-06)
(0.000318731 0 -1.59365e-06)
(0.000318731 0 -1.59365e-06)
(0.000318731 0 -1.59365e-06)
(0.000318731 0 -1.59365e-06)
(0.000318731 0 -1.59365e-06)
(0.000318731 0 -1.59365e-06)
(0.000318731 0 -1.59365e-06)
(0.000318731 0 -1.59365e-06)
(0.000318731 0 -1.59365e-06)
(0.000318731 0 -1.59365e-06)
(0.000318731 0 -1.59365e-06)
(0.000318731 0 -1.59365e-06)
(0.000318731 0 -1.59365e-06)
(0.000318731 0 -1.59365e-06)
(0.000318731 0 -1.59365e-06)
(0.000318731 0 -1.59365e-06)
(0.000318731 0 -1.59365e-06)
(0.000318731 -6.37607e-39 -1.59365e-06)
(0.000318731 0 -1.59365e-06)
(0.000318731 0 -1.59365e-06)
(0.000318731 0 -1.59365e-06)
(0.000318731 0 -1.59365e-06)
(0.000318731 0 -1.59365e-06)
(0.000318731 0 -1.59365e-06)
(0.000318731 0 -1.59365e-06)
(0.000318731 0 -1.59365e-06)
(0.000318731 0 -1.59365e-06)
(0.000318731 0 -1.59365e-06)
(0.000318731 0 -1.59365e-06)
(0.000318731 0 -1.59365e-06)
(0.000318731 0 -1.59365e-06)
(0.000318731 0 -1.59365e-06)
(0.000318731 0 -1.59365e-06)
(0.000318731 0 -1.59365e-06)
(0.000318731 0 -1.59365e-06)
(0.000318731 0 -1.59365e-06)
(0.000318731 0 -1.59365e-06)
(0.000318731 0 -1.59365e-06)
(0.000318731 0 -1.59365e-06)
(0.000318731 0 -1.59365e-06)
(0.000318731 0 -1.59365e-06)
(0.000318731 0 -1.59365e-06)
(0.000318731 0 -1.59365e-06)
(0.000318731 0 -1.59365e-06)
(0.000318731 0 -1.59365e-06)
(0.000318731 0 -1.59365e-06)
(0.000318731 0 -1.59365e-06)
(0.000318731 0 -1.59365e-06)
(0.000318731 0 -1.59365e-06)
(0.000318731 0 -1.59365e-06)
(0.000318731 0 -1.59365e-06)
(0.000318731 0 -1.59365e-06)
(0.000318731 0 -1.59365e-06)
(0.000318731 0 -1.59365e-06)
(0.000318731 0 -1.59365e-06)
(0.000318731 0 -1.59365e-06)
(0.000318731 0 -1.59365e-06)
(0.000318731 0 -1.59365e-06)
(0.000318731 0 -1.59365e-06)
(0.000318731 0 -1.59365e-06)
(0.000318731 0 -1.59365e-06)
(0.000318731 0 -1.59365e-06)
(0.000318731 0 -1.59365e-06)
(0.000318731 0 -1.59365e-06)
(0.000318731 -1.67318e-35 -1.59365e-06)
(0.000318731 0 -1.59365e-06)
(0.000318731 0 -1.59365e-06)
(0.000318731 0 -1.59365e-06)
(0.000318731 0 -1.59365e-06)
(0.000318731 0 -1.59365e-06)
(0.000318731 0 -1.59365e-06)
(0.000318731 0 -1.59365e-06)
(0.000318731 0 -1.59365e-06)
(0.000318731 0 -1.59365e-06)
(0.000318731 0 -1.59365e-06)
(0.000318731 0 -1.59365e-06)
(0.000318731 0 -1.59365e-06)
(0.000318731 0 -1.59365e-06)
(0.000318731 0 -1.59365e-06)
(0.000318731 0 -1.59365e-06)
(0.000318731 0 -1.59365e-06)
(0.000318731 0 -1.59366e-06)
(0.00031873 0 -1.59365e-06)
)
;

boundaryField
{
    inlet
    {
        type            zeroGradient;
    }
    outlet
    {
        type            zeroGradient;
    }
    sideWall
    {
        type            empty;
    }
}


// ************************************************************************* //
