/*--------------------------------*- C++ -*----------------------------------*\
| =========                 |                                                 |
| \\      /  F ield         | foam-extend: Open Source CFD                    |
|  \\    /   O peration     | Version:     3.2                                |
|   \\  /    A nd           | Web:         http://www.foam-extend.org         |
|    \\/     M anipulation  | For copyright notice see file Copyright         |
\*---------------------------------------------------------------------------*/
FoamFile
{
    version     2.0;
    format      ascii;
    class       edgeScalarField;
    location    "91";
    object      q_f;
}
// * * * * * * * * * * * * * * * * * * * * * * * * * * * * * * * * * * * * * //

dimensions      [0 3 -1 0 0 0 0];

internalField   nonuniform List<scalar> 
299
(
9.03245e-06
6.64075e-06
5.63407e-06
5.50817e-06
5.39683e-06
5.32935e-06
5.27487e-06
5.24974e-06
5.23852e-06
5.24587e-06
5.2612e-06
5.28595e-06
5.31815e-06
5.35601e-06
5.39812e-06
5.4446e-06
5.49478e-06
5.54693e-06
5.60129e-06
5.65915e-06
5.7193e-06
5.78088e-06
5.8434e-06
5.90612e-06
5.96933e-06
6.03074e-06
6.08617e-06
6.13366e-06
6.17342e-06
6.20653e-06
6.234e-06
6.25679e-06
6.27569e-06
6.29136e-06
6.30436e-06
6.31517e-06
6.32416e-06
6.33167e-06
6.33796e-06
6.34326e-06
6.34772e-06
6.35151e-06
6.35476e-06
6.35754e-06
6.3599e-06
6.36189e-06
6.36358e-06
6.36503e-06
6.36629e-06
6.36738e-06
6.36834e-06
6.36917e-06
6.3699e-06
6.37053e-06
6.37108e-06
6.37156e-06
6.37198e-06
6.37234e-06
6.37266e-06
6.37293e-06
6.37317e-06
6.37337e-06
6.37355e-06
6.37371e-06
6.37384e-06
6.37396e-06
6.37406e-06
6.37415e-06
6.37422e-06
6.37429e-06
6.37434e-06
6.37439e-06
6.37443e-06
6.37447e-06
6.3745e-06
6.37453e-06
6.37455e-06
6.37457e-06
6.37459e-06
6.3746e-06
6.37461e-06
6.37463e-06
6.37463e-06
6.37464e-06
6.37465e-06
6.37466e-06
6.37466e-06
6.37467e-06
6.37467e-06
6.37467e-06
6.37468e-06
6.37468e-06
6.37468e-06
6.37468e-06
6.37468e-06
6.37469e-06
6.37469e-06
6.37469e-06
6.37469e-06
6.37469e-06
6.37469e-06
6.37469e-06
6.37469e-06
6.37469e-06
6.37469e-06
6.37469e-06
6.37469e-06
6.37469e-06
6.37469e-06
6.37469e-06
6.37469e-06
6.37469e-06
6.37469e-06
6.37469e-06
6.37469e-06
6.37469e-06
6.37469e-06
6.37469e-06
6.37469e-06
6.37469e-06
6.37469e-06
6.37469e-06
6.37469e-06
6.37469e-06
6.37469e-06
6.37469e-06
6.37469e-06
6.37469e-06
6.37469e-06
6.37469e-06
6.37469e-06
6.37469e-06
6.37469e-06
6.37469e-06
6.37469e-06
6.37469e-06
6.37469e-06
6.37469e-06
6.37469e-06
6.37469e-06
6.37469e-06
6.37469e-06
6.37469e-06
6.37469e-06
6.37469e-06
6.37469e-06
6.37469e-06
6.37469e-06
6.37469e-06
6.37469e-06
6.37469e-06
6.37469e-06
6.37469e-06
6.37469e-06
6.37469e-06
6.37469e-06
6.37469e-06
6.37469e-06
6.37469e-06
6.37469e-06
6.37469e-06
6.37469e-06
6.37469e-06
6.37469e-06
6.37469e-06
6.37469e-06
6.37469e-06
6.37469e-06
6.37469e-06
6.37469e-06
6.37469e-06
6.37469e-06
6.37469e-06
6.37469e-06
6.37469e-06
6.37469e-06
6.37469e-06
6.37469e-06
6.37469e-06
6.37469e-06
6.37469e-06
6.37469e-06
6.37469e-06
6.37469e-06
6.37469e-06
6.37469e-06
6.37469e-06
6.37469e-06
6.37469e-06
6.37469e-06
6.37469e-06
6.37469e-06
6.37469e-06
6.37469e-06
6.37469e-06
6.37469e-06
6.37469e-06
6.37469e-06
6.37469e-06
6.37469e-06
6.37469e-06
6.37469e-06
6.37469e-06
6.37469e-06
6.37469e-06
6.37469e-06
6.37469e-06
6.37469e-06
6.37469e-06
6.37469e-06
6.37469e-06
6.37469e-06
6.37469e-06
6.37469e-06
6.37469e-06
6.37469e-06
6.37469e-06
6.37469e-06
6.37469e-06
6.37469e-06
6.37469e-06
6.37469e-06
6.37469e-06
6.37469e-06
6.37469e-06
6.37469e-06
6.37469e-06
6.37469e-06
6.37469e-06
6.37469e-06
6.37469e-06
6.37469e-06
6.37469e-06
6.37469e-06
6.37469e-06
6.37469e-06
6.37469e-06
6.37469e-06
6.37469e-06
6.37469e-06
6.37469e-06
6.37469e-06
6.37469e-06
6.37469e-06
6.37469e-06
6.37469e-06
6.37469e-06
6.37469e-06
6.37469e-06
6.37469e-06
6.37469e-06
6.37469e-06
6.37469e-06
6.37469e-06
6.37469e-06
6.37469e-06
6.37469e-06
6.37469e-06
6.37469e-06
6.37469e-06
6.37469e-06
6.37469e-06
6.37469e-06
6.37469e-06
6.37469e-06
6.37469e-06
6.37469e-06
6.37469e-06
6.37469e-06
6.37469e-06
6.37469e-06
6.37469e-06
6.37469e-06
6.37469e-06
6.37469e-06
6.37469e-06
6.37469e-06
6.37469e-06
6.37469e-06
6.37469e-06
6.37469e-06
6.37469e-06
6.37469e-06
6.37469e-06
6.37469e-06
6.37469e-06
6.37469e-06
6.37469e-06
6.37469e-06
6.37469e-06
6.37469e-06
6.37469e-06
6.37469e-06
6.37469e-06
6.37469e-06
6.37469e-06
6.37469e-06
6.3747e-06
6.37469e-06
)
;

boundaryField
{
    inlet
    {
        type            calculated;
        value           uniform -9.23036e-06;
    }
    outlet
    {
        type            calculated;
        value           uniform 6.35772e-06;
    }
    sideWall
    {
        type            empty;
    }
}


// ************************************************************************* //
