/*--------------------------------*- C++ -*----------------------------------*\
| =========                 |                                                 |
| \\      /  F ield         | foam-extend: Open Source CFD                    |
|  \\    /   O peration     | Version:     3.2                                |
|   \\  /    A nd           | Web:         http://www.foam-extend.org         |
|    \\/     M anipulation  | For copyright notice see file Copyright         |
\*---------------------------------------------------------------------------*/
FoamFile
{
    version     2.0;
    format      ascii;
    class       areaScalarField;
    location    "91";
    object      SSe1;
}
// * * * * * * * * * * * * * * * * * * * * * * * * * * * * * * * * * * * * * //

dimensions      [0 1 -2 -1 0 0 0];

internalField   nonuniform List<scalar> 
300
(
0.00327705
0.00169088
0.0010949
0.00107622
0.00103557
0.00102444
0.00100501
0.00099994
0.000993843
0.000994961
0.0009971
0.00100177
0.00100813
0.00101621
0.00102522
0.00103537
0.00104657
0.00105863
0.00107101
0.0010844
0.00109876
0.00111361
0.00112907
0.00114481
0.00116081
0.00117725
0.00119277
0.00120649
0.00121812
0.00122794
0.00123613
0.00124299
0.0012487
0.00125346
0.00125742
0.00126072
0.00126347
0.00126577
0.0012677
0.00126932
0.00127069
0.00127184
0.00127283
0.00127368
0.00127441
0.00127502
0.00127553
0.00127596
0.00127634
0.00127667
0.00127696
0.00127721
0.00127743
0.00127762
0.00127779
0.00127794
0.00127806
0.00127818
0.00127827
0.00127835
0.00127843
0.00127849
0.00127854
0.00127859
0.00127863
0.00127867
0.0012787
0.00127873
0.00127875
0.00127877
0.00127879
0.0012788
0.00127881
0.00127882
0.00127883
0.00127884
0.00127885
0.00127885
0.00127886
0.00127886
0.00127887
0.00127887
0.00127887
0.00127888
0.00127888
0.00127888
0.00127888
0.00127888
0.00127889
0.00127889
0.00127889
0.00127889
0.00127889
0.00127889
0.00127889
0.00127889
0.00127889
0.00127889
0.00127889
0.00127889
0.00127889
0.00127889
0.00127889
0.00127889
0.00127889
0.00127889
0.00127889
0.00127889
0.00127889
0.00127889
0.00127889
0.00127889
0.00127889
0.00127889
0.00127889
0.00127889
0.00127889
0.00127889
0.00127889
0.00127889
0.00127889
0.00127889
0.00127889
0.00127889
0.00127889
0.00127889
0.00127889
0.00127889
0.00127889
0.00127889
0.00127889
0.00127889
0.00127889
0.00127889
0.00127889
0.00127889
0.00127889
0.00127889
0.00127889
0.00127889
0.00127889
0.00127889
0.00127889
0.00127889
0.00127889
0.00127889
0.00127889
0.00127889
0.00127889
0.00127889
0.00127889
0.00127889
0.00127889
0.00127889
0.00127889
0.00127889
0.00127889
0.00127889
0.00127889
0.00127889
0.00127889
0.00127889
0.00127889
0.00127889
0.00127889
0.00127889
0.00127889
0.00127889
0.00127889
0.00127889
0.00127889
0.00127889
0.00127889
0.00127889
0.00127889
0.00127889
0.00127889
0.00127889
0.00127889
0.00127889
0.00127889
0.00127889
0.00127889
0.00127889
0.00127889
0.00127889
0.00127889
0.00127889
0.00127889
0.00127889
0.00127889
0.00127889
0.00127889
0.00127889
0.00127889
0.00127889
0.00127889
0.00127889
0.00127889
0.00127889
0.00127889
0.00127889
0.00127889
0.00127889
0.00127889
0.00127889
0.00127889
0.00127889
0.00127889
0.00127889
0.00127889
0.00127889
0.00127889
0.00127889
0.00127889
0.00127889
0.00127889
0.00127889
0.00127889
0.00127889
0.00127889
0.00127889
0.00127889
0.00127889
0.00127889
0.00127889
0.00127889
0.00127889
0.00127889
0.00127889
0.00127889
0.00127889
0.00127889
0.00127889
0.00127889
0.00127889
0.00127889
0.00127889
0.00127889
0.00127889
0.00127889
0.00127889
0.00127889
0.00127889
0.00127889
0.00127889
0.00127889
0.00127889
0.00127889
0.00127889
0.00127889
0.00127889
0.00127889
0.00127889
0.00127889
0.00127889
0.00127889
0.00127889
0.00127889
0.00127889
0.00127889
0.00127889
0.00127889
0.00127889
0.00127889
0.00127889
0.00127889
0.00127889
0.00127889
0.00127889
0.00127889
0.00127889
0.00127889
0.00127889
0.00127889
0.00127889
0.00127889
0.00127889
0.00127889
0.00127889
0.00127889
0.00127889
0.00127889
0.00127889
0.00127889
0.00127889
0.00127889
0.00127889
0.00127889
0.00127889
0.00127889
0.00127889
0.00127889
0.00127889
0.00127889
0.00127889
0.00127889
0.00127889
0.0012789
0.00127889
)
;

boundaryField
{
    inlet
    {
        type            calculated;
        value           uniform 0;
    }
    outlet
    {
        type            calculated;
        value           uniform 0;
    }
    sideWall
    {
        type            empty;
    }
}


// ************************************************************************* //
