/*--------------------------------*- C++ -*----------------------------------*\
| =========                 |                                                 |
| \\      /  F ield         | foam-extend: Open Source CFD                    |
|  \\    /   O peration     | Version:     3.2                                |
|   \\  /    A nd           | Web:         http://www.foam-extend.org         |
|    \\/     M anipulation  | For copyright notice see file Copyright         |
\*---------------------------------------------------------------------------*/
FoamFile
{
    version     2.0;
    format      ascii;
    class       areaScalarField;
    location    "91";
    object      tau;
}
// * * * * * * * * * * * * * * * * * * * * * * * * * * * * * * * * * * * * * //

dimensions      [1 1 2 0 0 0 0];

internalField   nonuniform List<scalar> 
300
(
10.0497
6.4848
4.86759
4.81269
4.69213
4.65884
4.60046
4.58515
4.56672
4.5701
4.57657
4.59067
4.60987
4.63415
4.6612
4.69153
4.72491
4.76073
4.79732
4.83676
4.87888
4.92227
4.96719
5.01273
5.05881
5.10596
5.15024
5.18925
5.22218
5.24991
5.27298
5.29228
5.3083
5.32165
5.33273
5.34197
5.34965
5.35607
5.36145
5.36597
5.36978
5.373
5.37575
5.37812
5.38015
5.38184
5.38329
5.38451
5.38558
5.3865
5.38731
5.38801
5.38863
5.38916
5.38963
5.39003
5.39039
5.39069
5.39096
5.39119
5.39139
5.39157
5.39172
5.39185
5.39197
5.39206
5.39215
5.39222
5.39229
5.39234
5.39239
5.39243
5.39247
5.3925
5.39252
5.39255
5.39257
5.39258
5.3926
5.39261
5.39262
5.39263
5.39264
5.39265
5.39265
5.39266
5.39266
5.39267
5.39267
5.39267
5.39267
5.39268
5.39268
5.39268
5.39268
5.39268
5.39268
5.39268
5.39269
5.39269
5.39269
5.39269
5.39269
5.39269
5.39269
5.39269
5.39269
5.39269
5.39269
5.39269
5.39269
5.39269
5.39269
5.39269
5.39269
5.39269
5.39269
5.39269
5.39269
5.39269
5.39269
5.39269
5.39269
5.39269
5.39269
5.39269
5.39269
5.39269
5.39269
5.39269
5.39269
5.39269
5.39269
5.39269
5.39269
5.39269
5.39269
5.39269
5.39269
5.39269
5.39269
5.39269
5.39269
5.39269
5.39269
5.39269
5.39269
5.39269
5.39269
5.39269
5.39269
5.39269
5.39269
5.39269
5.39269
5.39269
5.39269
5.39269
5.39269
5.39269
5.39269
5.39269
5.39269
5.39269
5.39269
5.39269
5.39269
5.39269
5.39269
5.39269
5.39269
5.39269
5.39269
5.39269
5.39269
5.39269
5.39269
5.39269
5.39269
5.39269
5.39269
5.39269
5.39269
5.39269
5.39269
5.39269
5.39269
5.39269
5.39269
5.39269
5.39269
5.39269
5.39269
5.39269
5.39269
5.39269
5.39269
5.39269
5.39269
5.39269
5.39269
5.39269
5.39269
5.39269
5.39269
5.39269
5.39269
5.39269
5.39269
5.39269
5.39269
5.39269
5.39269
5.39269
5.39269
5.39269
5.39269
5.39269
5.39269
5.39269
5.39269
5.39269
5.39269
5.39269
5.39269
5.39269
5.39269
5.39269
5.39269
5.39269
5.39269
5.39269
5.39269
5.39269
5.39269
5.39269
5.39269
5.39269
5.39269
5.39269
5.39269
5.39269
5.39269
5.39269
5.39269
5.39269
5.39269
5.39269
5.39269
5.39269
5.39269
5.39269
5.39269
5.39269
5.39269
5.39269
5.39269
5.39269
5.39269
5.39269
5.39269
5.39269
5.39269
5.39269
5.39269
5.39269
5.39269
5.39269
5.39269
5.39269
5.39269
5.39269
5.39269
5.39269
5.39269
5.39269
5.39269
5.39269
5.39269
5.39269
5.39269
5.39269
5.39269
5.39269
5.39269
5.39269
5.39269
5.39269
5.39269
5.39269
5.39269
5.39269
5.39269
5.39269
5.39269
5.39269
5.39269
5.39269
5.3927
5.39268
)
;

boundaryField
{
    inlet
    {
        type            calculated;
        value           uniform 0;
    }
    outlet
    {
        type            calculated;
        value           uniform 0;
    }
    sideWall
    {
        type            empty;
    }
}


// ************************************************************************* //
