/*--------------------------------*- C++ -*----------------------------------*\
| =========                 |                                                 |
| \\      /  F ield         | foam-extend: Open Source CFD                    |
|  \\    /   O peration     | Version:     3.2                                |
|   \\  /    A nd           | Web:         http://www.foam-extend.org         |
|    \\/     M anipulation  | For copyright notice see file Copyright         |
\*---------------------------------------------------------------------------*/
FoamFile
{
    version     2.0;
    format      ascii;
    class       areaScalarField;
    location    "91";
    object      thetaSS1init;
}
// * * * * * * * * * * * * * * * * * * * * * * * * * * * * * * * * * * * * * //

dimensions      [0 0 0 0 0 0 0];

internalField   nonuniform List<scalar> 
300
(
25.6321
16.5238
12.4087
12.2837
11.9875
11.8987
11.7362
11.6998
11.6493
11.6606
11.6751
11.7114
11.7603
11.8224
11.8915
11.9688
12.054
12.1454
12.2387
12.3394
12.4469
12.5575
12.6721
12.7883
12.9059
13.0261
13.139
13.2384
13.3225
13.3932
13.452
13.5012
13.5419
13.5759
13.604
13.6275
13.647
13.6633
13.677
13.6885
13.6982
13.7064
13.7134
13.7194
13.7246
13.7289
13.7326
13.7357
13.7385
13.7408
13.7429
13.7447
13.7462
13.7476
13.7488
13.7498
13.7507
13.7515
13.7522
13.7528
13.7533
13.7537
13.7541
13.7545
13.7547
13.755
13.7552
13.7554
13.7556
13.7557
13.7558
13.7559
13.756
13.7561
13.7562
13.7562
13.7563
13.7563
13.7564
13.7564
13.7564
13.7564
13.7565
13.7565
13.7565
13.7565
13.7565
13.7565
13.7565
13.7565
13.7565
13.7565
13.7566
13.7566
13.7566
13.7566
13.7566
13.7566
13.7566
13.7566
13.7566
13.7566
13.7566
13.7566
13.7566
13.7566
13.7566
13.7566
13.7566
13.7566
13.7566
13.7566
13.7566
13.7566
13.7566
13.7566
13.7566
13.7566
13.7566
13.7566
13.7566
13.7566
13.7566
13.7566
13.7566
13.7566
13.7566
13.7566
13.7566
13.7566
13.7566
13.7566
13.7566
13.7566
13.7566
13.7566
13.7566
13.7566
13.7566
13.7566
13.7566
13.7566
13.7566
13.7566
13.7566
13.7566
13.7566
13.7566
13.7566
13.7566
13.7566
13.7566
13.7566
13.7566
13.7566
13.7566
13.7566
13.7566
13.7566
13.7566
13.7566
13.7566
13.7566
13.7566
13.7566
13.7566
13.7566
13.7566
13.7566
13.7566
13.7566
13.7566
13.7566
13.7566
13.7566
13.7566
13.7566
13.7566
13.7566
13.7566
13.7566
13.7566
13.7566
13.7566
13.7566
13.7566
13.7566
13.7566
13.7566
13.7566
13.7566
13.7566
13.7566
13.7566
13.7566
13.7566
13.7566
13.7566
13.7566
13.7566
13.7566
13.7566
13.7566
13.7566
13.7566
13.7566
13.7566
13.7566
13.7566
13.7566
13.7566
13.7566
13.7566
13.7566
13.7566
13.7566
13.7566
13.7566
13.7566
13.7566
13.7566
13.7566
13.7566
13.7566
13.7566
13.7566
13.7566
13.7566
13.7566
13.7566
13.7566
13.7566
13.7566
13.7566
13.7566
13.7566
13.7566
13.7566
13.7566
13.7566
13.7566
13.7566
13.7566
13.7566
13.7566
13.7566
13.7566
13.7566
13.7566
13.7566
13.7566
13.7566
13.7566
13.7566
13.7566
13.7566
13.7566
13.7566
13.7566
13.7566
13.7566
13.7566
13.7566
13.7566
13.7566
13.7566
13.7566
13.7566
13.7566
13.7566
13.7566
13.7566
13.7566
13.7566
13.7566
13.7566
13.7566
13.7566
13.7566
13.7566
13.7566
13.7566
13.7566
13.7566
13.7566
13.7566
13.7566
13.7566
13.7566
13.7566
13.7566
13.7566
13.7566
13.7566
13.7566
13.7566
13.7566
13.7566
13.7566
13.7566
)
;

boundaryField
{
    inlet
    {
        type            calculated;
        value           uniform 0;
    }
    outlet
    {
        type            calculated;
        value           uniform 0;
    }
    sideWall
    {
        type            empty;
    }
}


// ************************************************************************* //
