/*--------------------------------*- C++ -*----------------------------------*\
| =========                 |                                                 |
| \\      /  F ield         | foam-extend: Open Source CFD                    |
|  \\    /   O peration     | Version:     3.2                                |
|   \\  /    A nd           | Web:         http://www.foam-extend.org         |
|    \\/     M anipulation  | For copyright notice see file Copyright         |
\*---------------------------------------------------------------------------*/
FoamFile
{
    version     2.0;
    format      ascii;
    class       areaScalarField;
    location    "91";
    object      thetaSS1;
}
// * * * * * * * * * * * * * * * * * * * * * * * * * * * * * * * * * * * * * //

dimensions      [0 0 0 0 0 0 0];

internalField   nonuniform List<scalar> 
300
(
25.6365
16.5425
12.4171
12.277
11.9695
11.8846
11.7356
11.6966
11.6496
11.6582
11.6747
11.7107
11.7596
11.8216
11.8906
11.968
12.0531
12.1445
12.2378
12.3384
12.4459
12.5566
12.6711
12.7873
12.9049
13.0252
13.1381
13.2376
13.3216
13.3924
13.4512
13.5005
13.5413
13.5754
13.6036
13.6272
13.6468
13.6632
13.6769
13.6884
13.6981
13.7064
13.7134
13.7194
13.7246
13.7289
13.7326
13.7357
13.7385
13.7408
13.7429
13.7447
13.7462
13.7476
13.7488
13.7498
13.7507
13.7515
13.7522
13.7528
13.7533
13.7537
13.7541
13.7545
13.7548
13.755
13.7552
13.7554
13.7556
13.7557
13.7558
13.7559
13.756
13.7561
13.7562
13.7562
13.7563
13.7563
13.7564
13.7564
13.7564
13.7564
13.7565
13.7565
13.7565
13.7565
13.7565
13.7565
13.7565
13.7565
13.7566
13.7566
13.7566
13.7566
13.7566
13.7566
13.7566
13.7566
13.7566
13.7566
13.7566
13.7566
13.7566
13.7566
13.7566
13.7566
13.7566
13.7566
13.7566
13.7566
13.7566
13.7566
13.7566
13.7566
13.7566
13.7566
13.7566
13.7566
13.7566
13.7566
13.7566
13.7566
13.7566
13.7566
13.7566
13.7566
13.7566
13.7566
13.7566
13.7566
13.7566
13.7566
13.7566
13.7566
13.7566
13.7566
13.7566
13.7566
13.7566
13.7566
13.7566
13.7566
13.7566
13.7566
13.7566
13.7566
13.7566
13.7566
13.7566
13.7566
13.7566
13.7566
13.7566
13.7566
13.7566
13.7566
13.7566
13.7566
13.7566
13.7566
13.7566
13.7566
13.7566
13.7566
13.7566
13.7566
13.7566
13.7566
13.7566
13.7566
13.7566
13.7566
13.7566
13.7566
13.7566
13.7566
13.7566
13.7566
13.7566
13.7566
13.7566
13.7566
13.7566
13.7566
13.7566
13.7566
13.7566
13.7566
13.7566
13.7566
13.7566
13.7566
13.7566
13.7566
13.7566
13.7566
13.7566
13.7566
13.7566
13.7566
13.7566
13.7566
13.7566
13.7566
13.7566
13.7566
13.7566
13.7566
13.7566
13.7566
13.7566
13.7566
13.7566
13.7566
13.7566
13.7566
13.7566
13.7566
13.7566
13.7566
13.7566
13.7566
13.7566
13.7566
13.7566
13.7566
13.7566
13.7566
13.7566
13.7566
13.7566
13.7566
13.7566
13.7566
13.7566
13.7566
13.7566
13.7566
13.7566
13.7566
13.7566
13.7566
13.7566
13.7566
13.7566
13.7566
13.7566
13.7566
13.7566
13.7566
13.7566
13.7566
13.7566
13.7566
13.7566
13.7566
13.7566
13.7566
13.7566
13.7566
13.7566
13.7566
13.7566
13.7566
13.7566
13.7566
13.7566
13.7566
13.7566
13.7566
13.7566
13.7566
13.7566
13.7566
13.7566
13.7566
13.7566
13.7566
13.7566
13.7566
13.7566
13.7566
13.7566
13.7566
13.7566
13.7566
13.7566
13.7566
13.7566
13.7566
13.7566
13.7566
13.7566
13.7566
13.7566
13.7566
13.7566
13.7566
13.7566
13.7566
)
;

boundaryField
{
    inlet
    {
        type            calculated;
        value           uniform 0;
    }
    outlet
    {
        type            calculated;
        value           uniform 0;
    }
    sideWall
    {
        type            empty;
    }
}


// ************************************************************************* //
