/*--------------------------------*- C++ -*----------------------------------*\
| =========                 |                                                 |
| \\      /  F ield         | foam-extend: Open Source CFD                    |
|  \\    /   O peration     | Version:     3.2                                |
|   \\  /    A nd           | Web:         http://www.foam-extend.org         |
|    \\/     M anipulation  | For copyright notice see file Copyright         |
\*---------------------------------------------------------------------------*/
FoamFile
{
    version     2.0;
    format      ascii;
    class       areaScalarField;
    location    "91";
    object      thetaSS2;
}
// * * * * * * * * * * * * * * * * * * * * * * * * * * * * * * * * * * * * * //

dimensions      [0 0 0 0 0 0 0];

internalField   nonuniform List<scalar> 
300
(
16.989
10.9625
8.22864
8.13583
7.93202
7.87575
7.77705
7.75117
7.72001
7.72573
7.73666
7.7605
7.79296
7.834
7.87973
7.931
7.98742
8.04798
8.10984
8.17652
8.24772
8.32106
8.397
8.47399
8.55189
8.6316
8.70645
8.7724
8.82806
8.87494
8.91395
8.94657
8.97365
8.99622
9.01495
9.03056
9.04355
9.05441
9.06349
9.07113
9.07757
9.08302
9.08767
9.09168
9.09511
9.09797
9.10041
9.10249
9.10429
9.10585
9.10722
9.1084
9.10944
9.11034
9.11114
9.11182
9.11242
9.11294
9.11339
9.11378
9.11412
9.11441
9.11467
9.11489
9.11509
9.11525
9.1154
9.11552
9.11563
9.11572
9.11581
9.11587
9.11594
9.11599
9.11603
9.11607
9.1161
9.11613
9.11616
9.11618
9.1162
9.11621
9.11623
9.11624
9.11625
9.11626
9.11626
9.11627
9.11628
9.11628
9.11629
9.11629
9.11629
9.11629
9.1163
9.1163
9.1163
9.1163
9.1163
9.1163
9.11631
9.11631
9.11631
9.11631
9.11631
9.11631
9.11631
9.11631
9.11631
9.11631
9.11631
9.11631
9.11631
9.11631
9.11631
9.11631
9.11631
9.11631
9.11631
9.11631
9.11631
9.11631
9.11631
9.11631
9.11631
9.11631
9.11631
9.11631
9.11631
9.11631
9.11631
9.11631
9.11631
9.11631
9.11631
9.11631
9.11631
9.11631
9.11631
9.11631
9.11631
9.11631
9.11631
9.11631
9.11631
9.11631
9.11631
9.11631
9.11631
9.11631
9.11631
9.11631
9.11631
9.11631
9.11631
9.11631
9.11631
9.11631
9.11631
9.11631
9.11631
9.11631
9.11631
9.11631
9.11631
9.11631
9.11631
9.11631
9.11631
9.11631
9.11631
9.11631
9.11631
9.11631
9.11631
9.11631
9.11631
9.11631
9.11631
9.11631
9.11631
9.11631
9.11631
9.11631
9.11631
9.11631
9.11631
9.11631
9.11631
9.11631
9.11631
9.11631
9.11631
9.11631
9.11631
9.11631
9.11631
9.11631
9.11631
9.11631
9.11631
9.11631
9.11631
9.11631
9.11631
9.11631
9.11631
9.11631
9.11631
9.11631
9.11631
9.11631
9.11631
9.11631
9.11631
9.11631
9.11631
9.11631
9.11631
9.11631
9.11631
9.11631
9.11631
9.11631
9.11631
9.11631
9.11631
9.11631
9.11631
9.11631
9.11631
9.11631
9.11631
9.11631
9.11631
9.11631
9.11631
9.11631
9.11631
9.11631
9.11631
9.11631
9.11631
9.11631
9.11631
9.11631
9.11631
9.11631
9.11631
9.11631
9.11631
9.11631
9.11631
9.11631
9.11631
9.11631
9.11631
9.11631
9.11631
9.11631
9.11631
9.11631
9.11631
9.11631
9.11631
9.11631
9.11631
9.11631
9.11631
9.11631
9.11631
9.11631
9.11631
9.11631
9.11631
9.11631
9.11631
9.11631
9.11631
9.11631
9.11631
9.11631
9.11631
9.11631
9.11631
9.11631
9.11631
9.11631
9.11631
9.11631
9.11631
9.11631
9.11631
9.11631
9.11631
9.11631
9.11631
9.11631
9.11632
9.1163
)
;

boundaryField
{
    inlet
    {
        type            calculated;
        value           uniform 0;
    }
    outlet
    {
        type            calculated;
        value           uniform 0;
    }
    sideWall
    {
        type            empty;
    }
}


// ************************************************************************* //
