/*--------------------------------*- C++ -*----------------------------------*\
| =========                 |                                                 |
| \\      /  F ield         | foam-extend: Open Source CFD                    |
|  \\    /   O peration     | Version:     3.2                                |
|   \\  /    A nd           | Web:         http://www.foam-extend.org         |
|    \\/     M anipulation  | For copyright notice see file Copyright         |
\*---------------------------------------------------------------------------*/
FoamFile
{
    version     2.0;
    format      ascii;
    class       areaScalarField;
    location    "91";
    object      thetaB;
}
// * * * * * * * * * * * * * * * * * * * * * * * * * * * * * * * * * * * * * //

dimensions      [0 0 0 0 0 0 0];

internalField   nonuniform List<scalar> 
300
(
0.733415
0.473253
0.355231
0.351224
0.342426
0.339997
0.335736
0.334619
0.333274
0.333521
0.333993
0.335022
0.336423
0.338195
0.340169
0.342382
0.344818
0.347432
0.350103
0.352981
0.356055
0.359221
0.362499
0.365823
0.369186
0.372627
0.375858
0.378705
0.381108
0.383132
0.384816
0.386224
0.387393
0.388368
0.389176
0.38985
0.390411
0.39088
0.391272
0.391602
0.39188
0.392115
0.392316
0.392489
0.392637
0.39276
0.392866
0.392955
0.393033
0.393101
0.393159
0.393211
0.393256
0.393294
0.393329
0.393358
0.393384
0.393406
0.393426
0.393443
0.393458
0.39347
0.393481
0.393491
0.393499
0.393506
0.393513
0.393518
0.393523
0.393527
0.39353
0.393533
0.393536
0.393538
0.39354
0.393542
0.393543
0.393544
0.393545
0.393546
0.393547
0.393548
0.393548
0.393549
0.393549
0.39355
0.39355
0.39355
0.393551
0.393551
0.393551
0.393551
0.393551
0.393551
0.393551
0.393552
0.393552
0.393552
0.393552
0.393552
0.393552
0.393552
0.393552
0.393552
0.393552
0.393552
0.393552
0.393552
0.393552
0.393552
0.393552
0.393552
0.393552
0.393552
0.393552
0.393552
0.393552
0.393552
0.393552
0.393552
0.393552
0.393552
0.393552
0.393552
0.393552
0.393552
0.393552
0.393552
0.393552
0.393552
0.393552
0.393552
0.393552
0.393552
0.393552
0.393552
0.393552
0.393552
0.393552
0.393552
0.393552
0.393552
0.393552
0.393552
0.393552
0.393552
0.393552
0.393552
0.393552
0.393552
0.393552
0.393552
0.393552
0.393552
0.393552
0.393552
0.393552
0.393552
0.393552
0.393552
0.393552
0.393552
0.393552
0.393552
0.393552
0.393552
0.393552
0.393552
0.393552
0.393552
0.393552
0.393552
0.393552
0.393552
0.393552
0.393552
0.393552
0.393552
0.393552
0.393552
0.393552
0.393552
0.393552
0.393552
0.393552
0.393552
0.393552
0.393552
0.393552
0.393552
0.393552
0.393552
0.393552
0.393552
0.393552
0.393552
0.393552
0.393552
0.393552
0.393552
0.393552
0.393552
0.393552
0.393552
0.393552
0.393552
0.393552
0.393552
0.393552
0.393552
0.393552
0.393552
0.393552
0.393552
0.393552
0.393552
0.393552
0.393552
0.393552
0.393552
0.393552
0.393552
0.393552
0.393552
0.393552
0.393552
0.393552
0.393552
0.393552
0.393552
0.393552
0.393552
0.393552
0.393552
0.393552
0.393552
0.393552
0.393552
0.393552
0.393552
0.393552
0.393552
0.393552
0.393552
0.393552
0.393552
0.393552
0.393552
0.393552
0.393552
0.393552
0.393552
0.393552
0.393552
0.393552
0.393552
0.393552
0.393552
0.393552
0.393552
0.393552
0.393552
0.393552
0.393552
0.393552
0.393552
0.393552
0.393552
0.393552
0.393552
0.393552
0.393552
0.393552
0.393552
0.393552
0.393552
0.393552
0.393552
0.393552
0.393552
0.393552
0.393552
0.393552
0.393552
0.393552
0.393552
0.393552
0.393552
0.393552
0.393552
0.393552
0.393552
0.393552
0.393552
0.393552
0.393552
0.393552
0.393552
0.393553
0.393551
)
;

boundaryField
{
    inlet
    {
        type            calculated;
        value           uniform 0;
    }
    outlet
    {
        type            calculated;
        value           uniform 0;
    }
    sideWall
    {
        type            empty;
    }
}


// ************************************************************************* //
