/*--------------------------------*- C++ -*----------------------------------*\
| =========                 |                                                 |
| \\      /  F ield         | foam-extend: Open Source CFD                    |
|  \\    /   O peration     | Version:     3.2                                |
|   \\  /    A nd           | Web:         http://www.foam-extend.org         |
|    \\/     M anipulation  | For copyright notice see file Copyright         |
\*---------------------------------------------------------------------------*/
FoamFile
{
    version     2.0;
    format      ascii;
    class       areaScalarField;
    location    "91";
    object      thetaBinit;
}
// * * * * * * * * * * * * * * * * * * * * * * * * * * * * * * * * * * * * * //

dimensions      [0 0 0 0 0 0 0];

internalField   nonuniform List<scalar> 
300
(
0.733289
0.472717
0.354991
0.351416
0.342941
0.3404
0.335752
0.33471
0.333266
0.33359
0.334005
0.335042
0.336441
0.338218
0.340194
0.342406
0.344844
0.347457
0.350129
0.353008
0.356084
0.359249
0.362528
0.365851
0.369214
0.372653
0.375883
0.378728
0.381132
0.383156
0.384839
0.386245
0.38741
0.388381
0.389186
0.389857
0.390416
0.390883
0.391274
0.391603
0.391881
0.392116
0.392316
0.392489
0.392637
0.39276
0.392866
0.392955
0.393033
0.393101
0.393159
0.393211
0.393256
0.393294
0.393329
0.393359
0.393384
0.393406
0.393426
0.393443
0.393458
0.39347
0.393481
0.393491
0.393499
0.393506
0.393513
0.393518
0.393522
0.393526
0.39353
0.393533
0.393535
0.393538
0.39354
0.393542
0.393543
0.393544
0.393545
0.393546
0.393547
0.393548
0.393548
0.393549
0.393549
0.39355
0.39355
0.39355
0.39355
0.39355
0.393551
0.393551
0.393551
0.393551
0.393551
0.393551
0.393551
0.393551
0.393551
0.393551
0.393551
0.393551
0.393551
0.393551
0.393551
0.393551
0.393551
0.393551
0.393551
0.393551
0.393551
0.393551
0.393552
0.393552
0.393551
0.393551
0.393551
0.393551
0.393551
0.393551
0.393551
0.393551
0.393551
0.393551
0.393551
0.393551
0.393551
0.393551
0.393551
0.393551
0.393551
0.393551
0.393551
0.393551
0.393551
0.393551
0.393551
0.393551
0.393551
0.393551
0.393551
0.393551
0.393551
0.393551
0.393551
0.393551
0.393551
0.393551
0.393551
0.393551
0.393551
0.393551
0.393551
0.393551
0.393551
0.393551
0.393551
0.393551
0.393551
0.393551
0.393551
0.393551
0.393551
0.393551
0.393551
0.393551
0.393551
0.393551
0.393551
0.393551
0.393551
0.393551
0.393551
0.393551
0.393551
0.393551
0.393551
0.393551
0.393551
0.393551
0.393551
0.393551
0.393551
0.393551
0.393551
0.393551
0.393551
0.393551
0.393551
0.393551
0.393551
0.393551
0.393551
0.393551
0.393551
0.393551
0.393551
0.393551
0.393551
0.393551
0.393551
0.393551
0.393551
0.393551
0.393551
0.393551
0.393551
0.393551
0.393551
0.393551
0.393551
0.393551
0.393551
0.393551
0.393551
0.393551
0.393551
0.393551
0.393551
0.393551
0.393551
0.393551
0.393551
0.393551
0.393551
0.393551
0.393551
0.393551
0.393551
0.393551
0.393551
0.393551
0.393551
0.393551
0.393551
0.393551
0.393551
0.393551
0.393551
0.393551
0.393551
0.393551
0.393551
0.393551
0.393551
0.393551
0.393551
0.393551
0.393551
0.393551
0.393551
0.393551
0.393551
0.393551
0.393551
0.393551
0.393551
0.393551
0.393551
0.393551
0.393551
0.393551
0.393551
0.393551
0.393551
0.393551
0.393551
0.393551
0.393551
0.393551
0.393551
0.393551
0.393551
0.393551
0.393551
0.393551
0.393551
0.393551
0.393551
0.393551
0.393551
0.393551
0.393551
0.393551
0.393551
0.393551
0.393551
0.393551
0.393551
0.393551
0.393551
0.393551
0.393551
0.393551
0.393551
0.393551
0.393551
0.393552
0.393552
0.393551
)
;

boundaryField
{
    inlet
    {
        type            calculated;
        value           uniform 0;
    }
    outlet
    {
        type            calculated;
        value           uniform 0;
    }
    sideWall
    {
        type            empty;
    }
}


// ************************************************************************* //
