/*--------------------------------*- C++ -*----------------------------------*\
| =========                 |                                                 |
| \\      /  F ield         | foam-extend: Open Source CFD                    |
|  \\    /   O peration     | Version:     3.2                                |
|   \\  /    A nd           | Web:         http://www.foam-extend.org         |
|    \\/     M anipulation  | For copyright notice see file Copyright         |
\*---------------------------------------------------------------------------*/
FoamFile
{
    version     2.0;
    format      ascii;
    class       volVectorField;
    location    "91";
    object      U;
}
// * * * * * * * * * * * * * * * * * * * * * * * * * * * * * * * * * * * * * //

dimensions      [0 1 -1 0 0 0 0];

internalField   nonuniform List<vector> 
5400
(
(0.358692 -1.17622e-25 0.00843784)
(0.233959 1.32719e-25 0.000120059)
(0.201211 5.26195e-26 -0.00107404)
(0.204142 0 -0.00111123)
(0.20111 -8.68139e-27 -0.00106697)
(0.200617 -5.63482e-27 -0.0010156)
(0.199119 -7.36888e-27 -0.0010132)
(0.198866 -2.49263e-27 -0.00100137)
(0.198347 0 -0.0010013)
(0.198424 -7.60144e-28 -0.000998704)
(0.198505 0 -0.00099954)
(0.198766 7.45337e-29 -0.00100009)
(0.199133 -2.98868e-28 -0.00100288)
(0.199619 -5.35045e-28 -0.0010046)
(0.200152 0 -0.00100747)
(0.200761 0 -0.00101066)
(0.201436 -1.06975e-27 -0.00101417)
(0.202157 1.14776e-27 -0.00101743)
(0.202885 0 -0.0010215)
(0.203687 0 -0.00102598)
(0.204549 0 -0.00103021)
(0.205431 1.62332e-27 -0.0010346)
(0.206348 0 -0.00103917)
(0.207274 0 -0.00104367)
(0.208212 0 -0.00104832)
(0.209179 1.90561e-27 -0.0010526)
(0.210089 -1.79587e-27 -0.0010563)
(0.210888 0 -0.001059)
(0.21156 0 -0.0010614)
(0.212125 1.19194e-27 -0.00106338)
(0.212594 -1.0155e-27 -0.00106515)
(0.212987 0 -0.00106662)
(0.213311 0 -0.0010679)
(0.213581 0 -0.00106896)
(0.213805 -5.09592e-28 -0.00106987)
(0.213992 0 -0.00107063)
(0.214147 0 -0.00107128)
(0.214277 -3.01889e-28 -0.00107183)
(0.214385 0 -0.0010723)
(0.214476 0 -0.00107269)
(0.214553 0 -0.00107303)
(0.214619 -5.41905e-43 -0.00107332)
(0.214674 0 -0.00107357)
(0.214722 0 -0.00107378)
(0.214763 0 -0.00107395)
(0.214797 0 -0.00107412)
(0.214828 3.76236e-31 -0.00107426)
(0.214855 0 -0.00107438)
(0.214876 0 -0.00107447)
(0.214895 0 -0.00107455)
(0.214911 0 -0.00107462)
(0.214925 3.24448e-29 -0.00107468)
(0.214937 0 -0.00107474)
(0.214948 -5.4497e-43 -0.00107479)
(0.214958 0 -0.00107483)
(0.214966 0 -0.00107486)
(0.214973 -5.45186e-43 -0.0010749)
(0.214979 0 -0.00107492)
(0.214984 -1.19858e-29 -0.00107495)
(0.214989 0 -0.00107496)
(0.214993 0 -0.00107498)
(0.214996 -5.45395e-43 -0.001075)
(0.215 0 -0.00107501)
(0.215002 -5.45444e-43 -0.00107502)
(0.215004 0 -0.00107503)
(0.215006 0 -0.00107504)
(0.215008 3.90506e-30 -0.00107505)
(0.21501 0 -0.00107505)
(0.215011 -5.45521e-43 -0.00107506)
(0.215012 0 -0.00107506)
(0.215013 0 -0.00107507)
(0.215014 -5.45547e-43 -0.00107507)
(0.215014 0 -0.00107508)
(0.215015 -5.45559e-43 -0.00107508)
(0.215016 0 -0.00107508)
(0.215016 0 -0.00107508)
(0.215016 -5.45571e-43 -0.00107508)
(0.215017 0 -0.00107509)
(0.215017 -5.45577e-43 -0.00107509)
(0.215017 0 -0.00107509)
(0.215018 0 -0.00107509)
(0.215018 0 -0.00107509)
(0.215018 0 -0.00107509)
(0.215018 0 -0.00107509)
(0.215018 0 -0.00107509)
(0.215018 -2.07338e-31 -0.00107509)
(0.215018 2.27403e-31 -0.00107509)
(0.215018 0 -0.00107509)
(0.215019 0 -0.00107509)
(0.215019 0 -0.00107509)
(0.215019 0 -0.00107509)
(0.215019 0 -0.00107509)
(0.215019 0 -0.00107509)
(0.215019 0 -0.00107509)
(0.215019 0 -0.00107509)
(0.215019 0 -0.00107509)
(0.215019 0 -0.00107509)
(0.215019 0 -0.00107509)
(0.215019 0 -0.00107509)
(0.215019 0 -0.00107509)
(0.215019 0 -0.00107509)
(0.215019 -1.9134e-32 -0.00107509)
(0.215019 1.64449e-32 -0.00107509)
(0.215019 0 -0.00107509)
(0.215019 0 -0.00107509)
(0.215019 0 -0.00107509)
(0.215019 0 -0.00107509)
(0.215019 0 -0.00107509)
(0.215019 0 -0.00107509)
(0.215019 0 -0.00107509)
(0.215019 0 -0.00107509)
(0.215019 0 -0.00107509)
(0.215019 0 -0.00107509)
(0.215019 0 -0.00107509)
(0.215019 0 -0.00107509)
(0.215019 0 -0.00107509)
(0.215019 0 -0.00107509)
(0.215019 0 -0.00107509)
(0.215019 0 -0.00107509)
(0.215019 0 -0.00107509)
(0.215019 0 -0.00107509)
(0.215019 0 -0.00107509)
(0.215019 0 -0.00107509)
(0.215019 0 -0.00107509)
(0.215019 0 -0.00107509)
(0.215019 0 -0.00107509)
(0.215019 0 -0.00107509)
(0.215019 0 -0.00107509)
(0.215019 0 -0.00107509)
(0.215019 0 -0.00107509)
(0.215019 0 -0.00107509)
(0.215019 0 -0.00107509)
(0.215019 0 -0.00107509)
(0.215019 0 -0.00107509)
(0.215019 0 -0.00107509)
(0.215019 0 -0.00107509)
(0.215019 0 -0.00107509)
(0.215019 0 -0.00107509)
(0.215019 0 -0.00107509)
(0.215019 0 -0.00107509)
(0.215019 0 -0.00107509)
(0.215019 0 -0.00107509)
(0.215019 0 -0.00107509)
(0.215019 0 -0.00107509)
(0.215019 0 -0.00107509)
(0.215019 0 -0.00107509)
(0.215019 0 -0.00107509)
(0.215019 0 -0.00107509)
(0.215019 0 -0.00107509)
(0.215019 0 -0.00107509)
(0.215019 0 -0.00107509)
(0.215019 0 -0.00107509)
(0.215019 0 -0.00107509)
(0.215019 0 -0.00107509)
(0.215019 0 -0.00107509)
(0.215019 0 -0.00107509)
(0.215019 0 -0.00107509)
(0.215019 0 -0.00107509)
(0.215019 0 -0.00107509)
(0.215019 0 -0.00107509)
(0.215019 0 -0.00107509)
(0.215019 0 -0.00107509)
(0.215019 0 -0.00107509)
(0.215019 0 -0.00107509)
(0.215019 0 -0.00107509)
(0.215019 0 -0.00107509)
(0.215019 0 -0.00107509)
(0.215019 0 -0.00107509)
(0.215019 0 -0.00107509)
(0.215019 0 -0.00107509)
(0.215019 0 -0.00107509)
(0.215019 0 -0.00107509)
(0.215019 0 -0.00107509)
(0.215019 0 -0.00107509)
(0.215019 0 -0.00107509)
(0.215019 0 -0.00107509)
(0.215019 0 -0.00107509)
(0.215019 0 -0.00107509)
(0.215019 0 -0.00107509)
(0.215019 0 -0.00107509)
(0.215019 0 -0.00107509)
(0.215019 0 -0.00107509)
(0.215019 0 -0.00107509)
(0.215019 0 -0.00107509)
(0.215019 0 -0.00107509)
(0.215019 0 -0.00107509)
(0.215019 0 -0.00107509)
(0.215019 0 -0.00107509)
(0.215019 0 -0.00107509)
(0.215019 0 -0.00107509)
(0.215019 0 -0.00107509)
(0.215019 0 -0.00107509)
(0.215019 0 -0.00107509)
(0.215019 0 -0.00107509)
(0.215019 0 -0.00107509)
(0.215019 0 -0.00107509)
(0.215019 0 -0.00107509)
(0.215019 0 -0.00107509)
(0.215019 0 -0.00107509)
(0.215019 0 -0.00107509)
(0.215019 0 -0.00107509)
(0.215019 0 -0.00107509)
(0.215019 0 -0.00107509)
(0.215019 0 -0.00107509)
(0.215019 0 -0.00107509)
(0.215019 0 -0.00107509)
(0.215019 0 -0.00107509)
(0.215019 0 -0.00107509)
(0.215019 0 -0.00107509)
(0.215019 0 -0.00107509)
(0.215019 0 -0.00107509)
(0.215019 0 -0.00107509)
(0.215019 0 -0.00107509)
(0.215019 0 -0.00107509)
(0.215019 0 -0.00107509)
(0.215019 0 -0.00107509)
(0.215019 0 -0.00107509)
(0.215019 0 -0.00107509)
(0.215019 0 -0.00107509)
(0.215019 0 -0.00107509)
(0.215019 0 -0.00107509)
(0.215019 0 -0.00107509)
(0.215019 0 -0.00107509)
(0.215019 0 -0.00107509)
(0.215019 0 -0.00107509)
(0.215019 0 -0.00107509)
(0.215019 0 -0.00107509)
(0.215019 0 -0.00107509)
(0.215019 0 -0.00107509)
(0.215019 0 -0.00107509)
(0.215019 0 -0.00107509)
(0.215019 0 -0.00107509)
(0.215019 0 -0.00107509)
(0.215019 0 -0.00107509)
(0.215019 -4.99927e-36 -0.00107509)
(0.215019 0 -0.00107509)
(0.215019 0 -0.00107509)
(0.215019 0 -0.00107509)
(0.215019 0 -0.00107509)
(0.215019 0 -0.00107509)
(0.215019 0 -0.00107509)
(0.215019 0 -0.00107509)
(0.215019 0 -0.00107509)
(0.215019 0 -0.00107509)
(0.215019 0 -0.00107509)
(0.215019 0 -0.00107509)
(0.215019 0 -0.00107509)
(0.215019 0 -0.00107509)
(0.215019 0 -0.00107509)
(0.215019 0 -0.00107509)
(0.215019 0 -0.00107509)
(0.215019 0 -0.00107509)
(0.215019 0 -0.00107509)
(0.215019 0 -0.00107509)
(0.215019 0 -0.00107509)
(0.215019 0 -0.00107509)
(0.215019 0 -0.00107509)
(0.215019 0 -0.00107509)
(0.215019 0 -0.00107509)
(0.215019 0 -0.00107509)
(0.215019 0 -0.00107509)
(0.215019 0 -0.00107509)
(0.215019 0 -0.00107509)
(0.215019 0 -0.00107509)
(0.215019 0 -0.00107509)
(0.215019 0 -0.00107509)
(0.215019 0 -0.00107509)
(0.215019 0 -0.00107509)
(0.215019 0 -0.00107509)
(0.215019 0 -0.00107509)
(0.215019 0 -0.00107509)
(0.215019 0 -0.00107509)
(0.215019 0 -0.00107509)
(0.215019 0 -0.00107509)
(0.215019 0 -0.00107509)
(0.215019 0 -0.00107509)
(0.215019 0 -0.00107509)
(0.215019 0 -0.00107509)
(0.215019 0 -0.00107509)
(0.215019 0 -0.00107509)
(0.215019 0 -0.00107509)
(0.215019 1.92685e-36 -0.00107509)
(0.215019 0 -0.00107509)
(0.215019 0 -0.00107509)
(0.215019 0 -0.00107509)
(0.215019 0 -0.00107509)
(0.215019 0 -0.00107509)
(0.215019 0 -0.00107509)
(0.215019 0 -0.00107509)
(0.215019 0 -0.00107509)
(0.215019 0 -0.00107509)
(0.215019 0 -0.00107509)
(0.215019 0 -0.00107509)
(0.215019 0 -0.00107509)
(0.215019 0 -0.00107509)
(0.215019 0 -0.00107509)
(0.215019 0 -0.00107509)
(0.215019 0 -0.0010751)
(0.215019 0 -0.0010751)
(0.215019 0 -0.00107726)
(0.570801 -4.72063e-25 0.0137213)
(0.473043 3.26968e-25 0.0023025)
(0.410925 1.34908e-25 -0.00124594)
(0.405589 0 -0.00184955)
(0.394604 3.12769e-26 -0.00186348)
(0.39098 1.8045e-26 -0.00185212)
(0.386613 3.38154e-33 -0.00187933)
(0.385062 8.40593e-27 -0.00188612)
(0.383396 5.79584e-27 -0.00190242)
(0.383034 0 -0.00191388)
(0.382812 0 -0.0019237)
(0.383023 0 -0.00193079)
(0.38348 5.33183e-28 -0.00194268)
(0.384195 2.84906e-28 -0.00195068)
(0.385064 8.2943e-28 -0.0019596)
(0.386085 0 -0.00196886)
(0.387248 0 -0.00197878)
(0.388539 2.03077e-27 -0.00198659)
(0.38985 2.23657e-27 -0.00199576)
(0.391284 0 -0.00200726)
(0.392849 0 -0.0020176)
(0.394468 0 -0.00202754)
(0.396161 0 -0.00203759)
(0.397886 0 -0.00204677)
(0.399634 0 -0.00205721)
(0.401466 0 -0.00206559)
(0.403187 -3.95965e-27 -0.00206935)
(0.40472 0 -0.0020696)
(0.406028 0 -0.00206921)
(0.407147 0 -0.00206848)
(0.408088 -2.36965e-27 -0.0020679)
(0.408882 0 -0.00206727)
(0.409545 -1.70984e-27 -0.0020668)
(0.410102 0 -0.00206636)
(0.410566 -1.21587e-27 -0.00206605)
(0.410955 0 -0.00206578)
(0.41128 -8.6066e-28 -0.00206561)
(0.411553 -7.24141e-28 -0.00206547)
(0.411782 0 -0.00206539)
(0.411975 0 -0.00206532)
(0.412138 -4.34172e-28 -0.0020653)
(0.412276 -7.33385e-28 -0.00206529)
(0.412393 0 -0.00206533)
(0.412495 -5.38176e-28 -0.00206536)
(0.412581 0 -0.00206534)
(0.412653 0 -0.00206534)
(0.412715 -3.19499e-28 -0.00206528)
(0.412767 0 -0.00206535)
(0.412812 -2.35052e-28 -0.00206535)
(0.412851 0 -0.00206537)
(0.412884 0 -0.0020654)
(0.412914 -7.59609e-29 -0.00206542)
(0.412939 0 -0.00206543)
(0.41296 -5.71986e-29 -0.00206545)
(0.412979 0 -0.00206546)
(0.412996 0 -0.00206546)
(0.41301 -7.40519e-29 -0.00206548)
(0.413023 0 -0.00206548)
(0.413034 -5.57265e-29 -0.00206549)
(0.413044 0 -0.0020655)
(0.413052 0 -0.0020655)
(0.413059 -3.63359e-29 -0.0020655)
(0.413065 0 -0.00206551)
(0.413071 -2.73453e-29 -0.00206551)
(0.413075 0 -0.00206551)
(0.413079 0 -0.00206551)
(0.413083 -9.08068e-30 -0.00206552)
(0.413086 0 -0.00206552)
(0.413088 -1.32114e-29 -0.00206552)
(0.413091 0 -0.00206552)
(0.413093 4.93261e-30 -0.00206552)
(0.413094 -8.58242e-30 -0.00206552)
(0.413096 0 -0.00206552)
(0.413097 -6.12436e-30 -0.00206552)
(0.413098 0 -0.00206552)
(0.413099 0 -0.00206552)
(0.4131 -4.09953e-30 -0.00206552)
(0.413101 0 -0.00206552)
(0.413101 -3.04135e-30 -0.00206552)
(0.413102 0 -0.00206552)
(0.413102 0 -0.00206552)
(0.413103 0 -0.00206552)
(0.413103 0 -0.00206552)
(0.413103 0 -0.00206552)
(0.413103 0 -0.00206552)
(0.413104 0 -0.00206552)
(0.413104 5.11391e-31 -0.00206553)
(0.413104 0 -0.00206552)
(0.413104 0 -0.00206552)
(0.413104 2.92486e-31 -0.00206552)
(0.413104 0 -0.00206552)
(0.413104 0 -0.00206552)
(0.413105 0 -0.00206553)
(0.413105 0 -0.00206552)
(0.413105 0 -0.00206552)
(0.413105 0 -0.00206552)
(0.413105 0 -0.00206552)
(0.413105 0 -0.00206552)
(0.413105 0 -0.00206552)
(0.413105 0 -0.00206552)
(0.413105 0 -0.00206552)
(0.413105 0 -0.00206552)
(0.413105 3.58748e-32 -0.00206552)
(0.413105 0 -0.00206552)
(0.413105 0 -0.00206553)
(0.413105 1.96069e-32 -0.00206552)
(0.413105 0 -0.00206553)
(0.413105 0 -0.00206552)
(0.413105 0 -0.00206552)
(0.413105 0 -0.00206552)
(0.413105 0 -0.00206552)
(0.413105 0 -0.00206552)
(0.413105 0 -0.00206553)
(0.413105 0 -0.00206552)
(0.413105 0 -0.00206552)
(0.413105 0 -0.00206552)
(0.413105 0 -0.00206552)
(0.413105 5.14864e-33 -0.00206552)
(0.413105 0 -0.00206552)
(0.413105 0 -0.00206552)
(0.413105 2.69125e-33 -0.00206552)
(0.413105 0 -0.00206552)
(0.413105 0 -0.00206552)
(0.413105 0 -0.00206552)
(0.413105 0 -0.00206553)
(0.413105 0 -0.00206552)
(0.413105 0 -0.00206553)
(0.413105 0 -0.00206552)
(0.413105 0 -0.00206552)
(0.413105 0 -0.00206552)
(0.413105 0 -0.00206552)
(0.413105 0 -0.00206552)
(0.413105 0 -0.00206553)
(0.413105 0 -0.00206552)
(0.413105 0 -0.00206552)
(0.413105 0 -0.00206552)
(0.413105 -1.68568e-34 -0.00206552)
(0.413105 0 -0.00206552)
(0.413105 0 -0.00206552)
(0.413105 0 -0.00206552)
(0.413105 0 -0.00206552)
(0.413105 0 -0.00206552)
(0.413105 0 -0.00206552)
(0.413105 0 -0.00206552)
(0.413105 0 -0.00206552)
(0.413105 0 -0.00206552)
(0.413105 0 -0.00206552)
(0.413105 0 -0.00206552)
(0.413105 0 -0.00206552)
(0.413105 0 -0.00206552)
(0.413105 0 -0.00206552)
(0.413105 0 -0.00206552)
(0.413105 0 -0.00206552)
(0.413105 0 -0.00206552)
(0.413105 0 -0.00206552)
(0.413105 0 -0.00206552)
(0.413105 0 -0.00206552)
(0.413105 0 -0.00206552)
(0.413105 0 -0.00206552)
(0.413105 0 -0.00206552)
(0.413105 0 -0.00206552)
(0.413105 0 -0.00206552)
(0.413105 0 -0.00206552)
(0.413105 0 -0.00206552)
(0.413105 0 -0.00206552)
(0.413105 0 -0.00206552)
(0.413105 0 -0.00206552)
(0.413105 0 -0.00206552)
(0.413105 0 -0.00206552)
(0.413105 0 -0.00206552)
(0.413105 0 -0.00206552)
(0.413105 0 -0.00206552)
(0.413105 0 -0.00206552)
(0.413105 0 -0.00206552)
(0.413105 0 -0.00206552)
(0.413105 0 -0.00206552)
(0.413105 0 -0.00206552)
(0.413105 0 -0.00206552)
(0.413105 0 -0.00206552)
(0.413105 0 -0.00206552)
(0.413105 0 -0.00206552)
(0.413105 0 -0.00206552)
(0.413105 0 -0.00206552)
(0.413105 0 -0.00206552)
(0.413105 0 -0.00206552)
(0.413105 0 -0.00206552)
(0.413105 0 -0.00206552)
(0.413105 0 -0.00206552)
(0.413105 0 -0.00206552)
(0.413105 0 -0.00206552)
(0.413105 0 -0.00206552)
(0.413105 0 -0.00206552)
(0.413105 0 -0.00206552)
(0.413105 0 -0.00206552)
(0.413105 0 -0.00206552)
(0.413105 0 -0.00206552)
(0.413105 0 -0.00206552)
(0.413105 0 -0.00206552)
(0.413105 0 -0.00206552)
(0.413105 0 -0.00206552)
(0.413105 0 -0.00206552)
(0.413105 0 -0.00206552)
(0.413105 0 -0.00206552)
(0.413105 0 -0.00206552)
(0.413105 0 -0.00206552)
(0.413105 0 -0.00206552)
(0.413105 0 -0.00206552)
(0.413105 0 -0.00206552)
(0.413105 0 -0.00206552)
(0.413105 0 -0.00206552)
(0.413105 0 -0.00206552)
(0.413105 0 -0.00206552)
(0.413105 0 -0.00206552)
(0.413105 0 -0.00206552)
(0.413105 0 -0.00206552)
(0.413105 0 -0.00206552)
(0.413105 0 -0.00206552)
(0.413105 0 -0.00206552)
(0.413105 0 -0.00206552)
(0.413105 0 -0.00206552)
(0.413105 0 -0.00206552)
(0.413105 0 -0.00206552)
(0.413105 0 -0.00206552)
(0.413105 0 -0.00206552)
(0.413105 0 -0.00206552)
(0.413105 0 -0.00206552)
(0.413105 0 -0.00206552)
(0.413105 0 -0.00206552)
(0.413105 0 -0.00206552)
(0.413105 0 -0.00206552)
(0.413105 0 -0.00206552)
(0.413105 0 -0.00206552)
(0.413105 0 -0.00206552)
(0.413105 0 -0.00206552)
(0.413105 -9.29414e-36 -0.00206552)
(0.413105 0 -0.00206552)
(0.413105 0 -0.00206552)
(0.413105 0 -0.00206552)
(0.413105 0 -0.00206552)
(0.413105 0 -0.00206552)
(0.413105 0 -0.00206552)
(0.413105 0 -0.00206552)
(0.413105 0 -0.00206552)
(0.413105 0 -0.00206552)
(0.413105 0 -0.00206552)
(0.413105 0 -0.00206552)
(0.413105 0 -0.00206552)
(0.413105 0 -0.00206552)
(0.413105 0 -0.00206552)
(0.413105 0 -0.00206552)
(0.413105 0 -0.00206552)
(0.413105 0 -0.00206552)
(0.413105 0 -0.00206552)
(0.413105 0 -0.00206552)
(0.413105 0 -0.00206552)
(0.413105 0 -0.00206552)
(0.413105 0 -0.00206552)
(0.413105 0 -0.00206552)
(0.413105 0 -0.00206552)
(0.413105 0 -0.00206552)
(0.413105 0 -0.00206552)
(0.413105 0 -0.00206552)
(0.413105 0 -0.00206552)
(0.413105 0 -0.00206552)
(0.413105 0 -0.00206552)
(0.413105 0 -0.00206552)
(0.413105 0 -0.00206552)
(0.413105 0 -0.00206552)
(0.413105 0 -0.00206552)
(0.413105 0 -0.00206552)
(0.413105 0 -0.00206552)
(0.413105 0 -0.00206552)
(0.413105 0 -0.00206552)
(0.413105 0 -0.00206552)
(0.413105 0 -0.00206552)
(0.413105 0 -0.00206552)
(0.413105 0 -0.00206552)
(0.413105 0 -0.00206552)
(0.413105 0 -0.00206552)
(0.413105 0 -0.00206552)
(0.413105 0 -0.00206552)
(0.413105 0 -0.00206552)
(0.413105 0 -0.00206552)
(0.413105 0 -0.00206552)
(0.413105 0 -0.00206552)
(0.413105 0 -0.00206552)
(0.413105 0 -0.00206552)
(0.413105 0 -0.00206552)
(0.413105 0 -0.00206552)
(0.413105 0 -0.00206552)
(0.413105 0 -0.00206552)
(0.413105 0 -0.00206552)
(0.413105 0 -0.00206552)
(0.413105 0 -0.00206552)
(0.413105 0 -0.00206552)
(0.413105 0 -0.00206552)
(0.413105 0 -0.00206552)
(0.413105 0 -0.00206553)
(0.413105 0 -0.00206553)
(0.413105 0 -0.00206281)
(0.665062 0 0.017884)
(0.605717 0 0.00396685)
(0.537237 0 -0.000806992)
(0.521627 0 -0.00197425)
(0.502504 9.11007e-26 -0.00209868)
(0.495339 2.8113e-26 -0.00218686)
(0.48845 3.85454e-26 -0.00226889)
(0.485369 1.29036e-26 -0.00231093)
(0.482579 1.89499e-26 -0.00235428)
(0.481544 0 -0.00238744)
(0.480812 0 -0.0024096)
(0.480781 0 -0.00242866)
(0.481065 2.26074e-27 -0.0024492)
(0.481713 -1.33826e-27 -0.00246565)
(0.482615 -4.59918e-28 -0.00248128)
(0.483727 -1.36581e-28 -0.00249649)
(0.485035 0 -0.00251271)
(0.48653 1.19195e-27 -0.00252447)
(0.488071 0 -0.00253767)
(0.489759 -1.88157e-27 -0.00255518)
(0.491616 4.62781e-27 -0.00257051)
(0.493555 2.64843e-27 -0.00258458)
(0.495591 0 -0.00259848)
(0.497679 0 -0.00261052)
(0.499803 0 -0.00262501)
(0.502039 0 -0.00263489)
(0.504131 0 -0.00263511)
(0.506004 3.60027e-27 -0.0026294)
(0.507617 0 -0.00262302)
(0.509007 0 -0.00261675)
(0.510184 0 -0.00261134)
(0.511183 0 -0.0026065)
(0.512021 -1.81284e-27 -0.00260246)
(0.512728 0 -0.00259899)
(0.51332 0 -0.00259615)
(0.513818 0 -0.00259377)
(0.514234 -9.27733e-28 -0.00259185)
(0.514585 -7.81568e-28 -0.00259026)
(0.51488 0 -0.00258898)
(0.515128 0 -0.00258792)
(0.515338 -4.67719e-28 -0.00258708)
(0.515516 -7.88122e-28 -0.00258638)
(0.515667 0 -0.00258589)
(0.515797 -5.74978e-28 -0.00258547)
(0.515908 0 -0.00258502)
(0.516001 -2.05309e-28 -0.00258464)
(0.516079 -3.46175e-28 -0.00258424)
(0.516146 0 -0.0025841)
(0.516204 -2.48786e-28 -0.00258392)
(0.516253 -1.06739e-28 -0.00258378)
(0.516296 0 -0.00258367)
(0.516334 -1.59195e-28 -0.00258357)
(0.516367 0 -0.00258347)
(0.516394 -5.84283e-29 -0.00258342)
(0.516418 0 -0.00258333)
(0.51644 0 -0.00258328)
(0.516458 -7.69737e-29 -0.00258323)
(0.516474 0 -0.00258319)
(0.516488 -5.78388e-29 -0.00258315)
(0.5165 0 -0.00258312)
(0.516511 0 -0.00258309)
(0.51652 -3.76913e-29 -0.00258306)
(0.516528 0 -0.00258304)
(0.516534 -2.83505e-29 -0.00258302)
(0.51654 0 -0.002583)
(0.516545 0 -0.00258299)
(0.51655 -1.80049e-29 -0.00258298)
(0.516554 0 -0.00258296)
(0.516557 -1.36482e-29 -0.00258295)
(0.51656 0 -0.00258295)
(0.516562 0 -0.00258294)
(0.516564 -8.89598e-30 -0.00258293)
(0.516566 0 -0.00258293)
(0.516568 -6.31935e-30 -0.00258292)
(0.516569 0 -0.00258292)
(0.51657 0 -0.00258291)
(0.516571 -4.25633e-30 -0.00258291)
(0.516572 0 -0.00258291)
(0.516573 -1.57766e-30 -0.0025829)
(0.516574 0 -0.0025829)
(0.516574 0 -0.0025829)
(0.516575 0 -0.0025829)
(0.516575 0 -0.0025829)
(0.516576 0 -0.0025829)
(0.516576 0 -0.0025829)
(0.516576 0 -0.00258289)
(0.516576 0 -0.0025829)
(0.516577 0 -0.00258289)
(0.516577 0 -0.00258289)
(0.516577 3.06566e-31 -0.00258289)
(0.516577 2.649e-31 -0.00258289)
(0.516577 0 -0.00258289)
(0.516577 0 -0.00258289)
(0.516577 0 -0.00258289)
(0.516577 0 -0.00258289)
(0.516577 0 -0.00258289)
(0.516577 0 -0.00258289)
(0.516578 0 -0.00258289)
(0.516578 0 -0.00258289)
(0.516578 0 -0.00258289)
(0.516578 0 -0.00258289)
(0.516578 0 -0.00258289)
(0.516578 0 -0.00258289)
(0.516578 0 -0.00258289)
(0.516578 0 -0.00258289)
(0.516578 7.69329e-32 -0.00258289)
(0.516578 0 -0.00258289)
(0.516578 0 -0.00258289)
(0.516578 0 -0.00258289)
(0.516578 0 -0.00258289)
(0.516578 0 -0.00258289)
(0.516578 0 -0.00258289)
(0.516578 0 -0.00258289)
(0.516578 0 -0.00258289)
(0.516578 0 -0.00258289)
(0.516578 0 -0.00258289)
(0.516578 0 -0.00258289)
(0.516578 0 -0.00258289)
(0.516578 0 -0.00258289)
(0.516578 0 -0.00258289)
(0.516578 2.55565e-33 -0.00258289)
(0.516578 3.36255e-33 -0.00258289)
(0.516578 0 -0.00258289)
(0.516578 0 -0.00258289)
(0.516578 0 -0.00258289)
(0.516578 0 -0.00258289)
(0.516578 0 -0.00258289)
(0.516578 0 -0.00258289)
(0.516578 0 -0.00258289)
(0.516578 0 -0.00258289)
(0.516578 0 -0.00258289)
(0.516578 0 -0.00258289)
(0.516578 0 -0.00258289)
(0.516578 0 -0.00258289)
(0.516578 0 -0.00258289)
(0.516578 0 -0.00258289)
(0.516578 -7.01699e-34 -0.00258289)
(0.516578 6.64434e-34 -0.00258289)
(0.516578 0 -0.00258289)
(0.516578 0 -0.00258289)
(0.516578 0 -0.00258289)
(0.516578 0 -0.00258289)
(0.516578 0 -0.00258289)
(0.516578 0 -0.00258289)
(0.516578 0 -0.00258289)
(0.516578 0 -0.00258289)
(0.516578 0 -0.00258289)
(0.516578 0 -0.00258289)
(0.516578 0 -0.00258289)
(0.516578 0 -0.00258289)
(0.516578 0 -0.00258289)
(0.516578 0 -0.00258289)
(0.516578 0 -0.00258289)
(0.516578 0 -0.00258289)
(0.516578 0 -0.00258289)
(0.516578 0 -0.00258289)
(0.516578 0 -0.00258289)
(0.516578 0 -0.00258289)
(0.516578 0 -0.00258289)
(0.516578 0 -0.00258289)
(0.516578 0 -0.00258289)
(0.516578 0 -0.00258289)
(0.516578 0 -0.00258289)
(0.516578 0 -0.00258289)
(0.516578 0 -0.00258289)
(0.516578 0 -0.00258289)
(0.516578 0 -0.00258289)
(0.516578 0 -0.00258289)
(0.516578 0 -0.00258289)
(0.516578 0 -0.00258289)
(0.516578 0 -0.00258289)
(0.516578 0 -0.00258289)
(0.516578 0 -0.00258289)
(0.516578 0 -0.00258289)
(0.516578 0 -0.00258289)
(0.516578 0 -0.00258289)
(0.516578 0 -0.00258289)
(0.516578 0 -0.00258289)
(0.516578 0 -0.00258289)
(0.516578 0 -0.00258289)
(0.516578 0 -0.00258289)
(0.516578 0 -0.00258289)
(0.516578 0 -0.00258289)
(0.516578 0 -0.00258289)
(0.516578 0 -0.00258289)
(0.516578 0 -0.00258289)
(0.516578 0 -0.00258289)
(0.516578 0 -0.00258289)
(0.516578 0 -0.00258289)
(0.516578 0 -0.00258289)
(0.516578 0 -0.00258289)
(0.516578 0 -0.00258289)
(0.516578 0 -0.00258289)
(0.516578 0 -0.00258289)
(0.516578 0 -0.00258289)
(0.516578 0 -0.00258289)
(0.516578 0 -0.00258289)
(0.516578 0 -0.00258289)
(0.516578 0 -0.00258289)
(0.516578 0 -0.00258289)
(0.516578 0 -0.00258289)
(0.516578 0 -0.00258289)
(0.516578 0 -0.00258289)
(0.516578 0 -0.00258289)
(0.516578 0 -0.00258289)
(0.516578 0 -0.00258289)
(0.516578 0 -0.00258289)
(0.516578 0 -0.00258289)
(0.516578 0 -0.00258289)
(0.516578 0 -0.00258289)
(0.516578 0 -0.00258289)
(0.516578 0 -0.00258289)
(0.516578 0 -0.00258289)
(0.516578 0 -0.00258289)
(0.516578 0 -0.00258289)
(0.516578 0 -0.00258289)
(0.516578 0 -0.00258289)
(0.516578 0 -0.00258289)
(0.516578 0 -0.00258289)
(0.516578 0 -0.00258289)
(0.516578 0 -0.00258289)
(0.516578 0 -0.00258289)
(0.516578 0 -0.00258289)
(0.516578 0 -0.00258289)
(0.516578 0 -0.00258289)
(0.516578 0 -0.00258289)
(0.516578 0 -0.00258289)
(0.516578 0 -0.00258289)
(0.516578 0 -0.00258289)
(0.516578 0 -0.00258289)
(0.516578 0 -0.00258289)
(0.516578 0 -0.00258289)
(0.516578 0 -0.00258289)
(0.516578 0 -0.00258289)
(0.516578 0 -0.00258289)
(0.516578 0 -0.00258289)
(0.516578 0 -0.00258289)
(0.516578 0 -0.00258289)
(0.516578 0 -0.00258289)
(0.516578 0 -0.00258289)
(0.516578 0 -0.00258289)
(0.516578 0 -0.00258289)
(0.516578 0 -0.00258289)
(0.516578 0 -0.00258289)
(0.516578 0 -0.00258289)
(0.516578 0 -0.00258289)
(0.516578 0 -0.00258289)
(0.516578 0 -0.00258289)
(0.516578 0 -0.00258289)
(0.516578 0 -0.00258289)
(0.516578 0 -0.00258289)
(0.516578 0 -0.00258289)
(0.516578 0 -0.00258289)
(0.516578 0 -0.00258289)
(0.516578 -2.45965e-35 -0.00258289)
(0.516578 0 -0.00258289)
(0.516578 0 -0.00258289)
(0.516578 0 -0.00258289)
(0.516578 0 -0.00258289)
(0.516578 0 -0.00258289)
(0.516578 0 -0.00258289)
(0.516578 0 -0.00258289)
(0.516578 0 -0.00258289)
(0.516578 0 -0.00258289)
(0.516578 0 -0.00258289)
(0.516578 0 -0.00258289)
(0.516578 0 -0.00258289)
(0.516578 0 -0.00258289)
(0.516578 0 -0.00258289)
(0.516578 0 -0.00258289)
(0.516578 0 -0.00258289)
(0.516578 0 -0.00258289)
(0.516578 0 -0.00258289)
(0.516578 0 -0.00258289)
(0.516578 0 -0.00258289)
(0.516578 0 -0.00258289)
(0.516578 0 -0.00258289)
(0.516578 0 -0.00258289)
(0.516578 0 -0.00258289)
(0.516578 0 -0.00258289)
(0.516578 0 -0.00258289)
(0.516578 0 -0.00258289)
(0.516578 0 -0.00258289)
(0.516578 0 -0.00258289)
(0.516578 0 -0.00258289)
(0.516578 0 -0.00258289)
(0.516578 0 -0.00258289)
(0.516578 0 -0.00258289)
(0.516578 0 -0.00258289)
(0.516578 0 -0.00258289)
(0.516578 0 -0.00258289)
(0.516578 0 -0.00258289)
(0.516578 0 -0.00258289)
(0.516578 0 -0.00258289)
(0.516578 0 -0.00258289)
(0.516578 0 -0.00258289)
(0.516578 0 -0.00258289)
(0.516578 0 -0.0025829)
(0.516578 0 -0.00258289)
(0.516578 0 -0.00258406)
(0.701935 0 0.0172274)
(0.685865 0 0.00627087)
(0.632916 0 9.47023e-05)
(0.608006 0 -0.00160675)
(0.581524 9.32685e-26 -0.00197018)
(0.570035 3.5447e-26 -0.00225403)
(0.560083 4.99573e-26 -0.00242962)
(0.555246 1.72226e-26 -0.0025386)
(0.55123 2.61216e-26 -0.00262163)
(0.549322 9.49705e-27 -0.00268499)
(0.547924 0 -0.00272488)
(0.547428 0 -0.00276113)
(0.547453 3.54428e-27 -0.00279355)
(0.547857 -2.97845e-27 -0.00281914)
(0.548625 0 -0.00284431)
(0.549667 1.24582e-27 -0.00286657)
(0.550961 0 -0.00289009)
(0.552498 0 -0.00290649)
(0.554112 0 -0.00292378)
(0.555893 -7.08729e-28 -0.00294749)
(0.55787 2.3602e-27 -0.00296801)
(0.559955 1.55968e-27 -0.0029862)
(0.562156 0 -0.00300376)
(0.564426 2.17593e-27 -0.00301838)
(0.566752 2.54225e-27 -0.00303674)
(0.5692 2.91577e-27 -0.00304694)
(0.571463 -3.03019e-27 -0.0030416)
(0.57349 2.91862e-27 -0.00302827)
(0.575245 2.67479e-27 -0.00301432)
(0.576766 2.39188e-27 -0.00300107)
(0.578061 0 -0.00298946)
(0.579165 0 -0.00297919)
(0.580096 1.57441e-27 -0.00297049)
(0.580885 0 -0.00296304)
(0.581546 0 -0.00295684)
(0.582104 0 -0.00295163)
(0.582573 0 -0.00294735)
(0.582968 -6.93431e-28 -0.00294379)
(0.5833 0 -0.00294087)
(0.58358 0 -0.00293845)
(0.583817 0 -0.00293646)
(0.584018 -6.97486e-28 -0.00293481)
(0.584188 0 -0.00293356)
(0.584334 -5.0642e-28 -0.00293251)
(0.58446 0 -0.00293147)
(0.584565 -1.82368e-28 -0.00293054)
(0.584653 -3.02811e-28 -0.00292973)
(0.584729 0 -0.00292925)
(0.584793 -2.1681e-28 -0.0029288)
(0.584849 -9.25948e-29 -0.00292843)
(0.584898 -7.93399e-29 -0.00292812)
(0.584939 -1.37072e-28 -0.00292786)
(0.584976 0 -0.0029276)
(0.585007 -9.92699e-29 -0.00292744)
(0.585035 -4.42177e-29 -0.00292724)
(0.585058 0 -0.00292708)
(0.585079 -6.5568e-29 -0.00292696)
(0.585097 -2.84089e-29 -0.00292684)
(0.585112 -4.91574e-29 -0.00292674)
(0.585126 0 -0.00292665)
(0.585137 0 -0.00292657)
(0.585147 -3.19638e-29 -0.0029265)
(0.585156 0 -0.00292645)
(0.585164 -2.40187e-29 -0.0029264)
(0.58517 0 -0.00292635)
(0.585176 0 -0.00292631)
(0.585181 -1.43515e-29 -0.00292628)
(0.585186 0 -0.00292625)
(0.585189 -1.1507e-29 -0.00292623)
(0.585193 0 -0.00292621)
(0.585195 0 -0.00292619)
(0.585198 -3.77496e-30 -0.00292617)
(0.5852 0 -0.00292616)
(0.585202 -5.99818e-30 -0.00292614)
(0.585203 0 -0.00292613)
(0.585204 0 -0.00292612)
(0.585206 -3.61672e-30 -0.00292611)
(0.585207 0 -0.00292611)
(0.585207 -1.33928e-30 -0.0029261)
(0.585208 0 -0.0029261)
(0.585209 0 -0.00292609)
(0.585209 0 -0.00292609)
(0.58521 0 -0.00292608)
(0.58521 0 -0.00292608)
(0.585211 0 -0.00292608)
(0.585211 0 -0.00292607)
(0.585211 0 -0.00292608)
(0.585211 0 -0.00292607)
(0.585211 0 -0.00292607)
(0.585212 0 -0.00292607)
(0.585212 4.51641e-31 -0.00292607)
(0.585212 0 -0.00292607)
(0.585212 0 -0.00292607)
(0.585212 0 -0.00292607)
(0.585212 0 -0.00292607)
(0.585212 0 -0.00292607)
(0.585212 0 -0.00292607)
(0.585212 0 -0.00292607)
(0.585212 0 -0.00292607)
(0.585212 0 -0.00292606)
(0.585212 0 -0.00292606)
(0.585212 0 -0.00292606)
(0.585212 0 -0.00292606)
(0.585213 0 -0.00292606)
(0.585213 0 -0.00292606)
(0.585213 4.78568e-32 -0.00292606)
(0.585213 -2.46124e-32 -0.00292606)
(0.585213 0 -0.00292606)
(0.585213 0 -0.00292606)
(0.585213 0 -0.00292606)
(0.585213 0 -0.00292606)
(0.585213 0 -0.00292606)
(0.585213 0 -0.00292606)
(0.585213 0 -0.00292606)
(0.585213 0 -0.00292606)
(0.585213 0 -0.00292606)
(0.585213 0 -0.00292606)
(0.585213 0 -0.00292606)
(0.585213 0 -0.00292606)
(0.585213 0 -0.00292606)
(0.585213 0 -0.00292606)
(0.585213 3.04506e-33 -0.00292606)
(0.585213 5.40483e-34 -0.00292606)
(0.585213 0 -0.00292606)
(0.585213 0 -0.00292606)
(0.585213 0 -0.00292606)
(0.585213 0 -0.00292606)
(0.585213 0 -0.00292606)
(0.585213 0 -0.00292606)
(0.585213 0 -0.00292606)
(0.585213 0 -0.00292606)
(0.585213 0 -0.00292606)
(0.585213 0 -0.00292606)
(0.585213 0 -0.00292606)
(0.585213 0 -0.00292606)
(0.585213 0 -0.00292606)
(0.585213 0 -0.00292606)
(0.585213 1.24765e-33 -0.00292606)
(0.585213 0 -0.00292606)
(0.585213 0 -0.00292606)
(0.585213 0 -0.00292606)
(0.585213 0 -0.00292606)
(0.585213 0 -0.00292606)
(0.585213 0 -0.00292606)
(0.585213 0 -0.00292606)
(0.585213 0 -0.00292606)
(0.585213 0 -0.00292606)
(0.585213 0 -0.00292606)
(0.585213 0 -0.00292606)
(0.585213 0 -0.00292606)
(0.585213 0 -0.00292606)
(0.585213 0 -0.00292606)
(0.585213 0 -0.00292606)
(0.585213 0 -0.00292606)
(0.585213 0 -0.00292606)
(0.585213 0 -0.00292606)
(0.585213 0 -0.00292606)
(0.585213 0 -0.00292606)
(0.585213 0 -0.00292606)
(0.585213 0 -0.00292606)
(0.585213 0 -0.00292606)
(0.585213 0 -0.00292606)
(0.585213 0 -0.00292606)
(0.585213 0 -0.00292606)
(0.585213 0 -0.00292606)
(0.585213 0 -0.00292606)
(0.585213 0 -0.00292606)
(0.585213 0 -0.00292606)
(0.585213 0 -0.00292606)
(0.585213 0 -0.00292606)
(0.585213 0 -0.00292606)
(0.585213 0 -0.00292606)
(0.585213 0 -0.00292606)
(0.585213 0 -0.00292606)
(0.585213 0 -0.00292606)
(0.585213 0 -0.00292606)
(0.585213 0 -0.00292606)
(0.585213 0 -0.00292606)
(0.585213 0 -0.00292606)
(0.585213 0 -0.00292606)
(0.585213 0 -0.00292606)
(0.585213 0 -0.00292606)
(0.585213 0 -0.00292606)
(0.585213 0 -0.00292606)
(0.585213 0 -0.00292606)
(0.585213 0 -0.00292606)
(0.585213 0 -0.00292606)
(0.585213 0 -0.00292606)
(0.585213 0 -0.00292606)
(0.585213 0 -0.00292606)
(0.585213 0 -0.00292606)
(0.585213 0 -0.00292606)
(0.585213 0 -0.00292606)
(0.585213 0 -0.00292606)
(0.585213 0 -0.00292606)