/*--------------------------------*- C++ -*----------------------------------*\
| =========                 |                                                 |
| \\      /  F ield         | foam-extend: Open Source CFD                    |
|  \\    /   O peration     | Version:     3.2                                |
|   \\  /    A nd           | Web:         http://www.foam-extend.org         |
|    \\/     M anipulation  | For copyright notice see file Copyright         |
\*---------------------------------------------------------------------------*/
FoamFile
{
    version     2.0;
    format      ascii;
    class       areaVectorField;
    location    "91";
    object      Ub2;
}
// * * * * * * * * * * * * * * * * * * * * * * * * * * * * * * * * * * * * * //

dimensions      [0 1 -1 0 0 0 0];

internalField   nonuniform List<vector> 
300
(
(0.840695 -2.75719e-25 -0.00420348)
(0.643435 3.65015e-25 -0.00321718)
(0.535629 1.40075e-25 -0.00267815)
(0.531676 0 -0.00265838)
(0.522914 -6.76593e-23 -0.00261457)
(0.520475 -1.37652e-23 -0.00260237)
(0.516176 -1.93497e-23 -0.00258088)
(0.515045 -7.72968e-24 -0.00257522)
(0.513679 0 -0.0025684)
(0.51393 -7.22514e-24 -0.00256965)
(0.514409 0 -0.00257205)
(0.515453 6.86853e-24 -0.00257726)
(0.516871 -7.75743e-28 -0.00258435)
(0.51866 7.16042e-24 -0.0025933)
(0.520648 0 -0.00260324)
(0.52287 0 -0.00261435)
(0.525307 7.72194e-24 -0.00262653)
(0.527913 -7.35049e-24 -0.00263956)
(0.530565 7.83987e-24 -0.00265282)
(0.533412 0 -0.00266706)
(0.536439 0 -0.0026822)
(0.539544 -8.27675e-24 -0.00269772)
(0.542745 0 -0.00271372)
(0.545975 0 -0.00272987)
(0.549228 0 -0.00274614)
(0.552542 -7.48838e-24 -0.00276271)
(0.555639 -4.74968e-27 -0.0027782)
(0.558358 0 -0.00279179)
(0.560644 0 -0.00280322)
(0.562564 -3.08818e-24 -0.00281282)
(0.564158 -2.69482e-27 -0.00282079)
(0.565488 0 -0.00282744)
(0.56659 0 -0.00283295)
(0.567508 0 -0.00283754)
(0.568268 -1.35443e-27 -0.00284134)
(0.568902 0 -0.00284451)
(0.569428 0 -0.00284714)
(0.569868 -8.02874e-28 -0.00284934)
(0.570236 0 -0.00285118)
(0.570545 0 -0.00285272)
(0.570805 0 -0.00285403)
(0.571026 -2.53463e-25 -0.00285513)
(0.571214 0 -0.00285607)
(0.571376 -1.92437e-25 -0.00285688)
(0.571514 0 -0.00285757)
(0.57163 0 -0.00285815)
(0.571729 -1.38775e-25 -0.00285864)
(0.571812 0 -0.00285906)
(0.571885 -9.65999e-26 -0.00285943)
(0.571948 0 -0.00285974)
(0.572003 0 -0.00286002)
(0.572051 -6.44076e-26 -0.00286026)
(0.572093 0 -0.00286047)
(0.572129 -5.22859e-26 -0.00286065)
(0.572162 0 -0.00286081)
(0.572189 0 -0.00286095)
(0.572213 -3.52712e-26 -0.00286107)
(0.572234 0 -0.00286117)
(0.572252 -3.19041e-29 -0.00286126)
(0.572268 0 -0.00286134)
(0.572282 0 -0.00286141)
(0.572294 -1.72916e-26 -0.00286147)
(0.572304 0 -0.00286152)
(0.572313 -1.29445e-26 -0.00286157)
(0.572321 0 -0.00286161)
(0.572328 0 -0.00286164)
(0.572334 -8.79964e-27 -0.00286167)
(0.572339 0 -0.00286169)
(0.572343 -6.59745e-27 -0.00286171)
(0.572347 0 -0.00286173)
(0.57235 5.02223e-27 -0.00286175)
(0.572353 -3.92246e-27 -0.00286176)
(0.572355 0 -0.00286178)
(0.572357 -2.84085e-27 -0.00286179)
(0.572359 0 -0.0028618)
(0.572361 0 -0.0028618)
(0.572362 -2.05557e-27 -0.00286181)
(0.572363 0 -0.00286182)
(0.572364 -1.53104e-27 -0.00286182)
(0.572365 0 -0.00286182)
(0.572366 0 -0.00286183)
(0.572366 0 -0.00286183)
(0.572367 0 -0.00286183)
(0.572367 0 -0.00286184)
(0.572368 0 -0.00286184)
(0.572368 3.36826e-28 -0.00286184)
(0.572368 6.05339e-31 -0.00286184)
(0.572369 0 -0.00286184)
(0.572369 0 -0.00286184)
(0.572369 0 -0.00286185)
(0.572369 0 -0.00286185)
(0.572369 0 -0.00286185)
(0.57237 0 -0.00286185)
(0.57237 0 -0.00286185)
(0.57237 0 -0.00286185)
(0.57237 0 -0.00286185)
(0.57237 0 -0.00286185)
(0.57237 0 -0.00286185)
(0.57237 0 -0.00286185)
(0.57237 0 -0.00286185)
(0.57237 0 -0.00286185)
(0.57237 2.39191e-29 -0.00286185)
(0.57237 4.37735e-32 -0.00286185)
(0.57237 0 -0.00286185)
(0.57237 0 -0.00286185)
(0.57237 0 -0.00286185)
(0.57237 0 -0.00286185)
(0.57237 0 -0.00286185)
(0.57237 0 -0.00286185)
(0.57237 0 -0.00286185)
(0.57237 0 -0.00286185)
(0.57237 0 -0.00286185)
(0.57237 0 -0.00286185)
(0.57237 0 -0.00286185)
(0.57237 0 -0.00286185)
(0.57237 0 -0.00286185)
(0.57237 0 -0.00286185)
(0.57237 -3.23721e-30 -0.00286185)
(0.57237 0 -0.00286185)
(0.57237 0 -0.00286185)
(0.57237 0 -0.00286185)
(0.57237 0 -0.00286185)
(0.57237 0 -0.00286185)
(0.57237 0 -0.00286185)
(0.57237 0 -0.00286185)
(0.57237 0 -0.00286185)
(0.57237 0 -0.00286185)
(0.57237 0 -0.00286185)
(0.57237 0 -0.00286185)
(0.57237 0 -0.00286185)
(0.57237 0 -0.00286185)
(0.57237 0 -0.00286185)
(0.57237 0 -0.00286185)
(0.57237 0 -0.00286185)
(0.57237 0 -0.00286185)
(0.57237 0 -0.00286185)
(0.57237 0 -0.00286185)
(0.57237 0 -0.00286185)
(0.57237 0 -0.00286185)
(0.57237 0 -0.00286185)
(0.57237 0 -0.00286185)
(0.57237 0 -0.00286185)
(0.57237 0 -0.00286185)
(0.57237 0 -0.00286185)
(0.57237 0 -0.00286185)
(0.57237 0 -0.00286185)
(0.57237 0 -0.00286185)
(0.57237 0 -0.00286185)
(0.57237 0 -0.00286185)
(0.57237 0 -0.00286185)
(0.57237 0 -0.00286185)
(0.57237 0 -0.00286185)
(0.57237 0 -0.00286185)
(0.57237 0 -0.00286185)
(0.57237 0 -0.00286185)
(0.57237 0 -0.00286185)
(0.57237 0 -0.00286185)
(0.57237 0 -0.00286185)
(0.57237 0 -0.00286185)
(0.57237 0 -0.00286185)
(0.57237 0 -0.00286185)
(0.57237 0 -0.00286185)
(0.57237 0 -0.00286185)
(0.57237 0 -0.00286185)
(0.57237 0 -0.00286185)
(0.57237 0 -0.00286185)
(0.57237 0 -0.00286185)
(0.57237 0 -0.00286185)
(0.57237 0 -0.00286185)
(0.57237 0 -0.00286185)
(0.57237 0 -0.00286185)
(0.57237 0 -0.00286185)
(0.57237 0 -0.00286185)
(0.57237 0 -0.00286185)
(0.57237 0 -0.00286185)
(0.57237 0 -0.00286185)
(0.57237 0 -0.00286185)
(0.57237 0 -0.00286185)
(0.57237 0 -0.00286185)
(0.57237 0 -0.00286185)
(0.57237 0 -0.00286185)
(0.57237 0 -0.00286185)
(0.57237 0 -0.00286185)
(0.57237 0 -0.00286185)
(0.57237 0 -0.00286185)
(0.57237 0 -0.00286185)
(0.57237 0 -0.00286185)
(0.57237 0 -0.00286185)
(0.57237 0 -0.00286185)
(0.57237 0 -0.00286185)
(0.57237 0 -0.00286185)
(0.57237 0 -0.00286185)
(0.57237 0 -0.00286185)
(0.57237 0 -0.00286185)
(0.57237 0 -0.00286185)
(0.57237 0 -0.00286185)
(0.57237 0 -0.00286185)
(0.57237 0 -0.00286185)
(0.57237 0 -0.00286185)
(0.57237 0 -0.00286185)
(0.57237 0 -0.00286185)
(0.57237 0 -0.00286185)
(0.57237 0 -0.00286185)
(0.57237 0 -0.00286185)
(0.57237 0 -0.00286185)
(0.57237 0 -0.00286185)
(0.57237 0 -0.00286185)
(0.57237 0 -0.00286185)
(0.57237 0 -0.00286185)
(0.57237 0 -0.00286185)
(0.57237 0 -0.00286185)
(0.57237 0 -0.00286185)
(0.57237 0 -0.00286185)
(0.57237 0 -0.00286185)
(0.57237 0 -0.00286185)
(0.57237 0 -0.00286185)
(0.57237 0 -0.00286185)
(0.57237 0 -0.00286185)
(0.57237 0 -0.00286185)
(0.57237 0 -0.00286185)
(0.57237 0 -0.00286185)
(0.57237 0 -0.00286185)
(0.57237 0 -0.00286185)
(0.57237 0 -0.00286185)
(0.57237 0 -0.00286185)
(0.57237 0 -0.00286185)
(0.57237 0 -0.00286185)
(0.57237 0 -0.00286185)
(0.57237 0 -0.00286185)
(0.57237 0 -0.00286185)
(0.57237 0 -0.00286185)
(0.57237 0 -0.00286185)
(0.57237 0 -0.00286185)
(0.57237 0 -0.00286185)
(0.57237 -1.145e-35 -0.00286185)
(0.57237 0 -0.00286185)
(0.57237 0 -0.00286185)
(0.57237 0 -0.00286185)
(0.57237 0 -0.00286185)
(0.57237 0 -0.00286185)
(0.57237 0 -0.00286185)
(0.57237 0 -0.00286185)
(0.57237 0 -0.00286185)
(0.57237 0 -0.00286185)
(0.57237 0 -0.00286185)
(0.57237 0 -0.00286185)
(0.57237 0 -0.00286185)
(0.57237 0 -0.00286185)
(0.57237 0 -0.00286185)
(0.57237 0 -0.00286185)
(0.57237 0 -0.00286185)
(0.57237 0 -0.00286185)
(0.57237 0 -0.00286185)
(0.57237 0 -0.00286185)
(0.57237 0 -0.00286185)
(0.57237 0 -0.00286185)
(0.57237 0 -0.00286185)
(0.57237 0 -0.00286185)
(0.57237 0 -0.00286185)
(0.57237 0 -0.00286185)
(0.57237 0 -0.00286185)
(0.57237 0 -0.00286185)
(0.57237 0 -0.00286185)
(0.57237 0 -0.00286185)
(0.57237 0 -0.00286185)
(0.57237 0 -0.00286185)
(0.57237 0 -0.00286185)
(0.57237 0 -0.00286185)
(0.57237 0 -0.00286185)
(0.57237 0 -0.00286185)
(0.57237 0 -0.00286185)
(0.57237 0 -0.00286185)
(0.57237 0 -0.00286185)
(0.57237 0 -0.00286185)
(0.57237 0 -0.00286185)
(0.57237 0 -0.00286185)
(0.57237 0 -0.00286185)
(0.57237 0 -0.00286185)
(0.57237 0 -0.00286185)
(0.57237 0 -0.00286185)
(0.57237 0 -0.00286185)
(0.57237 -3.00467e-32 -0.00286185)
(0.57237 0 -0.00286185)
(0.57237 0 -0.00286185)
(0.57237 0 -0.00286185)
(0.57237 0 -0.00286185)
(0.57237 0 -0.00286185)
(0.57237 0 -0.00286185)
(0.57237 0 -0.00286185)
(0.57237 0 -0.00286185)
(0.57237 0 -0.00286185)
(0.57237 0 -0.00286185)
(0.57237 0 -0.00286185)
(0.57237 0 -0.00286185)
(0.57237 0 -0.00286185)
(0.57237 0 -0.00286185)
(0.57237 0 -0.00286185)
(0.57237 0 -0.00286185)
(0.572371 0 -0.00286185)
(0.57237 0 -0.00286185)
)
;

boundaryField
{
    inlet
    {
        type            calculated;
        value           uniform (0 0 0);
    }
    outlet
    {
        type            calculated;
        value           uniform (0 0 0);
    }
    sideWall
    {
        type            empty;
    }
}


// ************************************************************************* //
