/*--------------------------------*- C++ -*----------------------------------*\
| =========                 |                                                 |
| \\      /  F ield         | foam-extend: Open Source CFD                    |
|  \\    /   O peration     | Version:     3.2                                |
|   \\  /    A nd           | Web:         http://www.foam-extend.org         |
|    \\/     M anipulation  | For copyright notice see file Copyright         |
\*---------------------------------------------------------------------------*/
FoamFile
{
    version     2.0;
    format      ascii;
    class       areaScalarField;
    location    "91";
    object      Uf;
}
// * * * * * * * * * * * * * * * * * * * * * * * * * * * * * * * * * * * * * //

dimensions      [0 1 -1 0 0 0 0];

internalField   nonuniform List<scalar> 
300
(
0.100449
0.0806898
0.0699081
0.0695127
0.0686365
0.0683926
0.0679628
0.0678496
0.0677131
0.0677381
0.0677861
0.0678904
0.0680322
0.0682111
0.0684099
0.0686321
0.0688758
0.0691364
0.0694016
0.0696863
0.0699891
0.0702996
0.0706197
0.0709427
0.071268
0.0715994
0.0719091
0.072181
0.0724096
0.0726016
0.072761
0.072894
0.0730042
0.073096
0.073172
0.0732354
0.073288
0.073332
0.0733688
0.0733997
0.0734258
0.0734478
0.0734666
0.0734828
0.0734966
0.0735082
0.0735181
0.0735264
0.0735337
0.07354
0.0735455
0.0735503
0.0735545
0.0735582
0.0735614
0.0735641
0.0735665
0.0735686
0.0735705
0.073572
0.0735734
0.0735746
0.0735756
0.0735765
0.0735773
0.073578
0.0735786
0.0735791
0.0735795
0.0735799
0.0735802
0.0735805
0.0735807
0.0735809
0.0735811
0.0735813
0.0735814
0.0735815
0.0735816
0.0735817
0.0735818
0.0735818
0.0735819
0.073582
0.073582
0.073582
0.0735821
0.0735821
0.0735821
0.0735821
0.0735821
0.0735822
0.0735822
0.0735822
0.0735822
0.0735822
0.0735822
0.0735822
0.0735822
0.0735822
0.0735822
0.0735822
0.0735822
0.0735822
0.0735822
0.0735822
0.0735822
0.0735822
0.0735822
0.0735822
0.0735822
0.0735822
0.0735822
0.0735822
0.0735822
0.0735822
0.0735822
0.0735822
0.0735822
0.0735822
0.0735822
0.0735822
0.0735822
0.0735822
0.0735822
0.0735822
0.0735822
0.0735822
0.0735822
0.0735822
0.0735822
0.0735822
0.0735822
0.0735822
0.0735822
0.0735822
0.0735822
0.0735822
0.0735822
0.0735822
0.0735822
0.0735822
0.0735822
0.0735822
0.0735822
0.0735822
0.0735822
0.0735822
0.0735822
0.0735822
0.0735822
0.0735822
0.0735822
0.0735822
0.0735822
0.0735822
0.0735822
0.0735822
0.0735822
0.0735822
0.0735822
0.0735822
0.0735822
0.0735822
0.0735822
0.0735822
0.0735822
0.0735822
0.0735822
0.0735822
0.0735822
0.0735822
0.0735822
0.0735822
0.0735822
0.0735822
0.0735822
0.0735822
0.0735822
0.0735822
0.0735822
0.0735822
0.0735822
0.0735822
0.0735822
0.0735822
0.0735822
0.0735822
0.0735822
0.0735822
0.0735822
0.0735822
0.0735822
0.0735822
0.0735822
0.0735822
0.0735822
0.0735822
0.0735822
0.0735822
0.0735822
0.0735822
0.0735822
0.0735822
0.0735822
0.0735822
0.0735822
0.0735822
0.0735822
0.0735822
0.0735822
0.0735822
0.0735822
0.0735822
0.0735822
0.0735822
0.0735822
0.0735822
0.0735822
0.0735822
0.0735822
0.0735822
0.0735822
0.0735822
0.0735822
0.0735822
0.0735822
0.0735822
0.0735822
0.0735822
0.0735822
0.0735822
0.0735822
0.0735822
0.0735822
0.0735822
0.0735822
0.0735822
0.0735822
0.0735822
0.0735822
0.0735822
0.0735822
0.0735822
0.0735822
0.0735822
0.0735822
0.0735822
0.0735822
0.0735822
0.0735822
0.0735822
0.0735822
0.0735822
0.0735822
0.0735822
0.0735822
0.0735822
0.0735822
0.0735822
0.0735822
0.0735822
0.0735822
0.0735822
0.0735822
0.0735822
0.0735822
0.0735822
0.0735822
0.0735822
0.0735822
0.0735822
0.0735822
0.0735822
0.0735822
0.0735822
0.0735822
0.0735822
0.0735822
0.0735822
0.0735822
0.0735822
0.0735822
0.0735822
0.0735822
0.0735822
0.0735822
0.0735822
0.0735822
0.0735822
0.0735822
0.0735822
0.0735822
0.0735822
0.0735822
0.0735822
0.0735822
0.0735822
0.0735823
0.0735822
)
;

boundaryField
{
    inlet
    {
        type            calculated;
        value           uniform 0;
    }
    outlet
    {
        type            calculated;
        value           uniform 0;
    }
    sideWall
    {
        type            empty;
    }
}


// ************************************************************************* //
