/*--------------------------------*- C++ -*----------------------------------*\
| =========                 |                                                 |
| \\      /  F ield         | foam-extend: Open Source CFD                    |
|  \\    /   O peration     | Version:     3.2                                |
|   \\  /    A nd           | Web:         http://www.foam-extend.org         |
|    \\/     M anipulation  | For copyright notice see file Copyright         |
\*---------------------------------------------------------------------------*/
FoamFile
{
    version     2.0;
    format      ascii;
    class       areaScalarField;
    location    "91";
    object      Uf2;
}
// * * * * * * * * * * * * * * * * * * * * * * * * * * * * * * * * * * * * * //

dimensions      [0 1 -1 0 0 0 0];

internalField   nonuniform List<scalar> 
300
(
0.0358791
0.0233959
0.0201214
0.0204145
0.0201113
0.020062
0.0199121
0.0198869
0.019835
0.0198426
0.0198508
0.0198769
0.0199136
0.0199621
0.0200154
0.0200763
0.0201438
0.0202159
0.0202887
0.020369
0.0204552
0.0205434
0.020635
0.0207276
0.0208214
0.0209182
0.0210091
0.0210891
0.0211562
0.0212128
0.0212597
0.0212989
0.0213314
0.0213584
0.0213808
0.0213994
0.0214149
0.0214279
0.0214388
0.0214479
0.0214556
0.0214621
0.0214677
0.0214725
0.0214766
0.02148
0.0214831
0.0214857
0.0214879
0.0214897
0.0214914
0.0214928
0.021494
0.0214951
0.021496
0.0214968
0.0214975
0.0214982
0.0214987
0.0214992
0.0214996
0.0214999
0.0215002
0.0215005
0.0215007
0.0215009
0.0215011
0.0215012
0.0215014
0.0215015
0.0215016
0.0215016
0.0215017
0.0215018
0.0215018
0.0215019
0.0215019
0.0215019
0.021502
0.021502
0.021502
0.021502
0.0215021
0.0215021
0.0215021
0.0215021
0.0215021
0.0215021
0.0215021
0.0215021
0.0215021
0.0215021
0.0215021
0.0215021
0.0215021
0.0215021
0.0215021
0.0215022
0.0215022
0.0215022
0.0215022
0.0215022
0.0215022
0.0215022
0.0215022
0.0215022
0.0215022
0.0215022
0.0215022
0.0215022
0.0215022
0.0215022
0.0215022
0.0215022
0.0215022
0.0215022
0.0215022
0.0215022
0.0215022
0.0215022
0.0215022
0.0215022
0.0215022
0.0215022
0.0215022
0.0215022
0.0215022
0.0215022
0.0215022
0.0215022
0.0215022
0.0215022
0.0215022
0.0215022
0.0215022
0.0215022
0.0215022
0.0215022
0.0215022
0.0215022
0.0215022
0.0215022
0.0215022
0.0215022
0.0215022
0.0215022
0.0215022
0.0215022
0.0215022
0.0215022
0.0215022
0.0215022
0.0215022
0.0215022
0.0215022
0.0215022
0.0215022
0.0215022
0.0215022
0.0215022
0.0215022
0.0215022
0.0215022
0.0215022
0.0215022
0.0215022
0.0215022
0.0215022
0.0215022
0.0215022
0.0215022
0.0215022
0.0215022
0.0215022
0.0215022
0.0215022
0.0215022
0.0215022
0.0215022
0.0215022
0.0215022
0.0215022
0.0215022
0.0215022
0.0215022
0.0215022
0.0215022
0.0215022
0.0215022
0.0215022
0.0215022
0.0215022
0.0215022
0.0215022
0.0215022
0.0215022
0.0215022
0.0215022
0.0215022
0.0215022
0.0215022
0.0215022
0.0215022
0.0215022
0.0215022
0.0215022
0.0215022
0.0215022
0.0215022
0.0215022
0.0215022
0.0215022
0.0215022
0.0215022
0.0215022
0.0215022
0.0215022
0.0215022
0.0215022
0.0215022
0.0215022
0.0215022
0.0215022
0.0215022
0.0215022
0.0215022
0.0215022
0.0215022
0.0215022
0.0215022
0.0215022
0.0215022
0.0215022
0.0215022
0.0215022
0.0215022
0.0215022
0.0215022
0.0215022
0.0215022
0.0215022
0.0215022
0.0215022
0.0215022
0.0215022
0.0215022
0.0215022
0.0215022
0.0215022
0.0215022
0.0215022
0.0215022
0.0215022
0.0215022
0.0215022
0.0215022
0.0215022
0.0215022
0.0215022
0.0215022
0.0215022
0.0215022
0.0215022
0.0215022
0.0215022
0.0215022
0.0215022
0.0215022
0.0215022
0.0215022
0.0215022
0.0215022
0.0215022
0.0215022
0.0215022
0.0215022
0.0215022
0.0215022
0.0215022
0.0215022
0.0215022
0.0215022
0.0215022
0.0215022
0.0215022
0.0215022
0.0215022
0.0215022
0.0215022
0.0215022
0.0215022
0.0215022
0.0215022
0.0215022
0.0215022
0.0215022
0.0215022
0.0215022
0.0215022
0.0215021
)
;

boundaryField
{
    inlet
    {
        type            calculated;
        value           uniform 0;
    }
    outlet
    {
        type            calculated;
        value           uniform 0;
    }
    sideWall
    {
        type            empty;
    }
}


// ************************************************************************* //
