/*--------------------------------*- C++ -*----------------------------------*\
| =========                 |                                                 |
| \\      /  F ield         | foam-extend: Open Source CFD                    |
|  \\    /   O peration     | Version:     3.2                                |
|   \\  /    A nd           | Web:         http://www.foam-extend.org         |
|    \\/     M anipulation  | For copyright notice see file Copyright         |
\*---------------------------------------------------------------------------*/
FoamFile
{
    version     2.0;
    format      ascii;
    class       areaVectorField;
    location    "91";
    object      Utau;
}
// * * * * * * * * * * * * * * * * * * * * * * * * * * * * * * * * * * * * * //

dimensions      [0 1 -1 0 0 0 0];

internalField   nonuniform List<vector> 
300
(
(1.00407 -3.293e-25 -0.00502036)
(0.806876 4.57733e-25 -0.00403438)
(0.699072 1.82817e-25 -0.00349536)
(0.695119 0 -0.00347559)
(0.686357 -8.8807e-23 -0.00343178)
(0.683918 -1.80879e-23 -0.00341959)
(0.679619 -2.54766e-23 -0.0033981)
(0.678487 -1.01826e-23 -0.00339244)
(0.677122 0 -0.00338561)
(0.677373 -9.52292e-24 -0.00338686)
(0.677852 0 -0.00338926)
(0.678895 9.04644e-24 -0.00339448)
(0.680314 -1.02105e-27 -0.00340157)
(0.682103 9.41685e-24 -0.00341051)
(0.684091 0 -0.00342045)
(0.686313 0 -0.00343156)
(0.68875 1.01245e-23 -0.00344375)
(0.691356 -9.62622e-24 -0.00345678)
(0.694008 1.0255e-23 -0.00347004)
(0.696855 0 -0.00348427)
(0.699882 0 -0.00349941)
(0.702987 -1.0784e-23 -0.00351494)
(0.706188 0 -0.00353094)
(0.709418 0 -0.00354709)
(0.712671 0 -0.00356335)
(0.715985 -9.70345e-24 -0.00357992)
(0.719082 -6.14681e-27 -0.00359541)
(0.721801 0 -0.003609)
(0.724087 0 -0.00362044)
(0.726007 -3.9854e-24 -0.00363003)
(0.727601 -3.47554e-27 -0.003638)
(0.728931 0 -0.00364465)
(0.730033 0 -0.00365017)
(0.730951 0 -0.00365475)
(0.731711 -1.74399e-27 -0.00365856)
(0.732345 0 -0.00366172)
(0.732871 0 -0.00366435)
(0.733311 -1.03315e-27 -0.00366655)
(0.733679 0 -0.00366839)
(0.733988 0 -0.00366994)
(0.734248 0 -0.00367124)
(0.734469 -3.26011e-25 -0.00367234)
(0.734656 0 -0.00367328)
(0.734819 -2.47484e-25 -0.00367409)
(0.734957 0 -0.00367478)
(0.735073 0 -0.00367536)
(0.735171 -1.78447e-25 -0.00367586)
(0.735255 0 -0.00367628)
(0.735328 -1.24208e-25 -0.00367664)
(0.735391 0 -0.00367696)
(0.735446 0 -0.00367723)
(0.735494 -8.28097e-26 -0.00367747)
(0.735536 0 -0.00367768)
(0.735572 -6.72226e-26 -0.00367786)
(0.735604 0 -0.00367802)
(0.735632 0 -0.00367816)
(0.735656 -4.53458e-26 -0.00367828)
(0.735677 0 -0.00367839)
(0.735695 -4.10163e-29 -0.00367848)
(0.735711 0 -0.00367856)
(0.735725 0 -0.00367862)
(0.735737 -2.223e-26 -0.00367868)
(0.735747 0 -0.00367874)
(0.735756 -1.66412e-26 -0.00367878)
(0.735764 0 -0.00367882)
(0.735771 0 -0.00367885)
(0.735777 -1.13126e-26 -0.00367888)
(0.735781 0 -0.00367891)
(0.735786 -8.48148e-27 -0.00367893)
(0.73579 0 -0.00367895)
(0.735793 6.4564e-27 -0.00367896)
(0.735796 -5.04257e-27 -0.00367898)
(0.735798 0 -0.00367899)
(0.7358 -3.65209e-27 -0.003679)
(0.735802 0 -0.00367901)
(0.735804 0 -0.00367902)
(0.735805 -2.64256e-27 -0.00367902)
(0.735806 0 -0.00367903)
(0.735807 -1.96824e-27 -0.00367904)
(0.735808 0 -0.00367904)
(0.735809 0 -0.00367904)
(0.735809 0 -0.00367905)
(0.73581 0 -0.00367905)
(0.73581 0 -0.00367905)
(0.735811 0 -0.00367905)
(0.735811 4.33008e-28 -0.00367906)
(0.735811 7.78197e-31 -0.00367906)
(0.735812 0 -0.00367906)
(0.735812 0 -0.00367906)
(0.735812 0 -0.00367906)
(0.735812 0 -0.00367906)
(0.735812 0 -0.00367906)
(0.735813 0 -0.00367906)
(0.735813 0 -0.00367906)
(0.735813 0 -0.00367906)
(0.735813 0 -0.00367906)
(0.735813 0 -0.00367906)
(0.735813 0 -0.00367906)
(0.735813 0 -0.00367906)
(0.735813 0 -0.00367907)
(0.735813 0 -0.00367907)
(0.735813 3.07494e-29 -0.00367907)
(0.735813 5.62732e-32 -0.00367907)
(0.735813 0 -0.00367907)
(0.735813 0 -0.00367907)
(0.735813 0 -0.00367907)
(0.735813 0 -0.00367907)
(0.735813 0 -0.00367907)
(0.735813 0 -0.00367907)
(0.735813 0 -0.00367907)
(0.735813 0 -0.00367907)
(0.735813 0 -0.00367907)
(0.735813 0 -0.00367907)
(0.735813 0 -0.00367907)
(0.735813 0 -0.00367907)
(0.735813 0 -0.00367907)
(0.735813 0 -0.00367907)
(0.735813 -4.16161e-30 -0.00367907)
(0.735813 0 -0.00367907)
(0.735813 0 -0.00367907)
(0.735813 0 -0.00367907)
(0.735813 0 -0.00367907)
(0.735813 0 -0.00367907)
(0.735813 0 -0.00367907)
(0.735813 0 -0.00367907)
(0.735813 0 -0.00367907)
(0.735813 0 -0.00367907)
(0.735813 0 -0.00367907)
(0.735813 0 -0.00367907)
(0.735813 0 -0.00367907)
(0.735813 0 -0.00367907)
(0.735813 0 -0.00367907)
(0.735813 0 -0.00367907)
(0.735813 0 -0.00367907)
(0.735813 0 -0.00367907)
(0.735813 0 -0.00367907)
(0.735813 0 -0.00367907)
(0.735813 0 -0.00367907)
(0.735813 0 -0.00367907)
(0.735813 0 -0.00367907)
(0.735813 0 -0.00367907)
(0.735813 0 -0.00367907)
(0.735813 0 -0.00367907)
(0.735813 0 -0.00367907)
(0.735813 0 -0.00367907)
(0.735813 0 -0.00367907)
(0.735813 0 -0.00367907)
(0.735813 0 -0.00367907)
(0.735813 0 -0.00367907)
(0.735813 0 -0.00367907)
(0.735813 0 -0.00367907)
(0.735813 0 -0.00367907)
(0.735813 0 -0.00367907)
(0.735813 0 -0.00367907)
(0.735813 0 -0.00367907)
(0.735813 0 -0.00367907)
(0.735813 0 -0.00367907)
(0.735813 0 -0.00367907)
(0.735813 0 -0.00367907)
(0.735813 0 -0.00367907)
(0.735813 0 -0.00367907)
(0.735813 0 -0.00367907)
(0.735813 0 -0.00367907)
(0.735813 0 -0.00367907)
(0.735813 0 -0.00367907)
(0.735813 0 -0.00367907)
(0.735813 0 -0.00367907)
(0.735813 0 -0.00367907)
(0.735813 0 -0.00367907)
(0.735813 0 -0.00367907)
(0.735813 0 -0.00367907)
(0.735813 0 -0.00367907)
(0.735813 0 -0.00367907)
(0.735813 0 -0.00367907)
(0.735813 0 -0.00367907)
(0.735813 0 -0.00367907)
(0.735813 0 -0.00367907)
(0.735813 0 -0.00367907)
(0.735813 0 -0.00367907)
(0.735813 0 -0.00367907)
(0.735813 0 -0.00367907)
(0.735813 0 -0.00367907)
(0.735813 0 -0.00367907)
(0.735813 0 -0.00367907)
(0.735813 0 -0.00367907)
(0.735813 0 -0.00367907)
(0.735813 0 -0.00367907)
(0.735813 0 -0.00367907)
(0.735813 0 -0.00367907)
(0.735813 0 -0.00367907)
(0.735813 0 -0.00367907)
(0.735813 0 -0.00367907)
(0.735813 0 -0.00367907)
(0.735813 0 -0.00367907)
(0.735813 0 -0.00367907)
(0.735813 0 -0.00367907)
(0.735813 0 -0.00367907)
(0.735813 0 -0.00367907)
(0.735813 0 -0.00367907)
(0.735813 0 -0.00367907)
(0.735813 0 -0.00367907)
(0.735813 0 -0.00367907)
(0.735813 0 -0.00367907)
(0.735813 0 -0.00367907)
(0.735813 0 -0.00367907)
(0.735813 0 -0.00367907)
(0.735813 0 -0.00367907)
(0.735813 0 -0.00367907)
(0.735813 0 -0.00367907)
(0.735813 0 -0.00367907)
(0.735813 0 -0.00367907)
(0.735813 0 -0.00367907)
(0.735813 0 -0.00367907)
(0.735813 0 -0.00367907)
(0.735813 0 -0.00367907)
(0.735813 0 -0.00367907)
(0.735813 0 -0.00367907)
(0.735813 0 -0.00367907)
(0.735813 0 -0.00367907)
(0.735813 0 -0.00367907)
(0.735813 0 -0.00367907)
(0.735813 0 -0.00367907)
(0.735813 0 -0.00367907)
(0.735813 0 -0.00367907)
(0.735813 0 -0.00367907)
(0.735813 0 -0.00367907)
(0.735813 0 -0.00367907)
(0.735813 0 -0.00367907)
(0.735813 0 -0.00367907)
(0.735813 0 -0.00367907)
(0.735813 0 -0.00367907)
(0.735813 0 -0.00367907)
(0.735813 0 -0.00367907)
(0.735813 0 -0.00367907)
(0.735813 -1.47196e-35 -0.00367907)
(0.735813 0 -0.00367907)
(0.735813 0 -0.00367907)
(0.735813 0 -0.00367907)
(0.735813 0 -0.00367907)
(0.735813 0 -0.00367907)
(0.735813 0 -0.00367907)
(0.735813 0 -0.00367907)
(0.735813 0 -0.00367907)
(0.735813 0 -0.00367907)
(0.735813 0 -0.00367907)
(0.735813 0 -0.00367907)
(0.735813 0 -0.00367907)
(0.735813 0 -0.00367907)
(0.735813 0 -0.00367907)
(0.735813 0 -0.00367907)
(0.735813 0 -0.00367907)
(0.735813 0 -0.00367907)
(0.735813 0 -0.00367907)
(0.735813 0 -0.00367907)
(0.735813 0 -0.00367907)
(0.735813 0 -0.00367907)
(0.735813 0 -0.00367907)
(0.735813 0 -0.00367907)
(0.735813 0 -0.00367907)
(0.735813 0 -0.00367907)
(0.735813 0 -0.00367907)
(0.735813 0 -0.00367907)
(0.735813 0 -0.00367907)
(0.735813 0 -0.00367907)
(0.735813 0 -0.00367907)
(0.735813 0 -0.00367907)
(0.735813 0 -0.00367907)
(0.735813 0 -0.00367907)
(0.735813 0 -0.00367907)
(0.735813 0 -0.00367907)
(0.735813 0 -0.00367907)
(0.735813 0 -0.00367907)
(0.735813 0 -0.00367907)
(0.735813 0 -0.00367907)
(0.735813 0 -0.00367907)
(0.735813 0 -0.00367907)
(0.735813 0 -0.00367907)
(0.735813 0 -0.00367907)
(0.735813 0 -0.00367907)
(0.735813 0 -0.00367907)
(0.735813 0 -0.00367907)
(0.735813 -3.86266e-32 -0.00367907)
(0.735813 0 -0.00367907)
(0.735813 0 -0.00367907)
(0.735813 0 -0.00367907)
(0.735813 0 -0.00367907)
(0.735813 0 -0.00367907)
(0.735813 0 -0.00367907)
(0.735813 0 -0.00367907)
(0.735813 0 -0.00367907)
(0.735813 0 -0.00367907)
(0.735813 0 -0.00367907)
(0.735813 0 -0.00367907)
(0.735813 0 -0.00367907)
(0.735813 0 -0.00367907)
(0.735813 0 -0.00367907)
(0.735813 0 -0.00367907)
(0.735813 0 -0.00367907)
(0.735814 0 -0.00367907)
(0.735813 0 -0.00367906)
)
;

boundaryField
{
    inlet
    {
        type            calculated;
        value           uniform (0 0 0);
    }
    outlet
    {
        type            calculated;
        value           uniform (0 0 0);
    }
    sideWall
    {
        type            empty;
    }
}


// ************************************************************************* //
