/*--------------------------------*- C++ -*----------------------------------*\
| =========                 |                                                 |
| \\      /  F ield         | foam-extend: Open Source CFD                    |
|  \\    /   O peration     | Version:     3.2                                |
|   \\  /    A nd           | Web:         http://www.foam-extend.org         |
|    \\/     M anipulation  | For copyright notice see file Copyright         |
\*---------------------------------------------------------------------------*/
FoamFile
{
    version     2.0;
    format      ascii;
    class       volScalarField;
    location    "300";
    object      k;
}
// * * * * * * * * * * * * * * * * * * * * * * * * * * * * * * * * * * * * * //

dimensions      [0 2 -2 0 0 0 0];

internalField   nonuniform List<scalar> 
96000
(
0.178653
0.142043
0.0987389
0.080643
0.0740876
0.0706574
0.0681606
0.0659783
0.0639618
0.0621274
0.0604865
0.0590202
0.0576928
0.0565079
0.0554415
0.0544717
0.0535852
0.0527662
0.0520166
0.0513326
0.0506975
0.0501009
0.0495404
0.0490143
0.0485208
0.0480535
0.0476123
0.0471923
0.0467947
0.0464178
0.0460581
0.0457152
0.0453865
0.0450724
0.0447718
0.0444843
0.0442071
0.0439412
0.0436846
0.0434374
0.0432001
0.0429702
0.0427488
0.0425339
0.0423264
0.0421252
0.041931
0.0417424
0.0415591
0.0413816
0.0412086
0.0410408
0.0408777
0.0407191
0.0405647
0.040414
0.0402675
0.0401238
0.039983
0.0398457
0.0397115
0.0395807
0.0394529
0.0393282
0.0392063
0.0390873
0.0389709
0.0388569
0.0387454
0.0386363
0.0385294
0.0384248
0.0383223
0.0382218
0.0381232
0.0380267
0.037932
0.0378391
0.037748
0.0376586
0.0375709
0.0374846
0.0373999
0.0373168
0.037235
0.0371548
0.0370759
0.0369983
0.0369221
0.0368471
0.0367733
0.0367008
0.0366294
0.0365593
0.0364902
0.0364221
0.0363552
0.0362892
0.0362243
0.0361603
0.0360973
0.0360353
0.0359742
0.0359139
0.0358546
0.0357961
0.0357384
0.0356816
0.0356255
0.0355703
0.0355158
0.035462
0.0354089
0.0353566
0.035305
0.0352541
0.0352039
0.0351542
0.0351053
0.035057
0.0350093
0.0349623
0.0349158
0.0348699
0.0348246
0.0347798
0.0347356
0.0346919
0.0346488
0.0346062
0.0345641
0.0345225
0.0344814
0.0344408
0.0344006
0.0343609
0.0343217
0.034283
0.0342448
0.0342069
0.0341695
0.0341325
0.0340959
0.0340596
0.0340239
0.0339885
0.0339535
0.0339189
0.0338847
0.0338509
0.0338173
0.0337842
0.0337514
0.0337189
0.0336869
0.0336551
0.0336237
0.0335925
0.0335618
0.0335313
0.0335012
0.0334713
0.0334418
0.0334125
0.0333836
0.033355
0.0333266
0.0332985
0.0332707
0.0332432
0.033216
0.033189
0.0331623
0.0331358
0.0331096
0.0330837
0.033058
0.0330325
0.0330073
0.0329823
0.0329576
0.0329331
0.0329088
0.0328848
0.032861
0.0328374
0.032814
0.0327909
0.0327679
0.0327452
0.0327226
0.0327004
0.0326782
0.0326563
0.0326346
0.0326131
0.0325917
0.0325706
0.0325496
0.0325289
0.0325083
0.0324879
0.0324676
0.0324476
0.0324277
0.0324081
0.0323885
0.0323692
0.03235
0.032331
0.0323121
0.0322934
0.0322749
0.0322565
0.0322383
0.0322202
0.0322023
0.0321846
0.032167
0.0321496
0.0321322
0.032115
0.032098
0.0320812
0.0320644
0.0320478
0.0320313
0.032015
0.0319988
0.0319828
0.0319668
0.0319511
0.0319353
0.0319198
0.0319044
0.0318891
0.0318739
0.0318589
0.031844
0.0318293
0.0318145
0.0318
0.0317855
0.0317713
0.031757
0.0317429
0.0317289
0.0317151
0.0317013
0.0316877
0.031674
0.0316607
0.0316473
0.0316341
0.0316209
0.031608
0.031595
0.0315823
0.0315695
0.031557
0.0315444
0.031532
0.0315198
0.0315075
0.0314955
0.0314834
0.0314715
0.0314596
0.031448
0.0314361
0.0314248
0.0314131
0.0314021
0.0313904
0.0313797
0.031368
0.0313577
0.031346
0.031336
0.0313243
0.0313146
0.0313028
0.0312935
0.0312817
0.0312727
0.0312608
0.0312521
0.0312402
0.0312317
0.0312197
0.0312113
0.0311993
0.0311909
0.0311785
0.0311714
0.0311571
0.0311553
0.0311354
0.0311427
0.031102
0.0454058
0.0703091
0.0776255
0.077659
0.0756642
0.0732865
0.0709668
0.0687889
0.0667959
0.0650165
0.063396
0.0619339
0.0606121
0.0594281
0.0583547
0.0573652
0.0564574
0.0556206
0.0548538
0.0541351
0.0534602
0.0528271
0.0522352
0.0516806
0.0511582
0.0506634
0.0501954
0.049752
0.0493322
0.0489332
0.0485521
0.0481886
0.0478407
0.0475088
0.047191
0.0468861
0.0465929
0.0463108
0.0460396
0.0457784
0.045527
0.0452838
0.0450492
0.044822
0.0446025
0.04439
0.0441843
0.0439848
0.043791
0.043603
0.0434204
0.043243
0.0430706
0.0429028
0.0427395
0.0425803
0.0424252
0.0422737
0.0421256
0.0419812
0.0418402
0.0417027
0.0415683
0.0414372
0.041309
0.0411838
0.0410612
0.0409414
0.040824
0.0407092
0.0405968
0.0404867
0.0403788
0.0402731
0.0401694
0.0400678
0.0399682
0.0398705
0.0397747
0.0396806
0.0395882
0.0394975
0.0394084
0.0393209
0.039235
0.0391506
0.0390676
0.038986
0.0389057
0.0388268
0.0387492
0.0386729
0.0385979
0.038524
0.0384514
0.0383797
0.0383093
0.0382399
0.0381716
0.0381044
0.0380381
0.0379729
0.0379086
0.0378452
0.0377828
0.0377213
0.0376606
0.0376008
0.0375419
0.0374837
0.0374264
0.0373698
0.037314
0.0372591
0.0372047
0.0371512
0.0370984
0.0370462
0.0369947
0.0369439
0.0368938
0.0368443
0.0367954
0.0367471
0.0366995
0.0366524
0.0366059
0.03656
0.0365146
0.0364698
0.0364255
0.0363818
0.0363386
0.0362959
0.0362537
0.0362119
0.0361707
0.03613
0.0360898
0.0360499
0.0360106
0.0359717
0.0359332
0.0358951
0.0358575
0.0358203
0.0357835
0.0357472
0.0357112
0.0356756
0.0356403
0.0356055
0.035571
0.0355369
0.0355032
0.0354698
0.0354367
0.035404
0.0353717
0.0353397
0.035308
0.0352766
0.0352456
0.0352149
0.0351845
0.0351544
0.0351245
0.035095
0.0350658
0.0350369
0.0350083
0.0349799
0.0349518
0.034924
0.0348965
0.0348692
0.0348422
0.0348154
0.0347889
0.0347627
0.0347367
0.0347109
0.0346855
0.0346602
0.0346352
0.0346104
0.0345858
0.0345615
0.0345374
0.0345135
0.0344898
0.0344664
0.0344431
0.0344201
0.0343973
0.0343747
0.0343523
0.0343301
0.034308
0.0342862
0.0342646
0.0342432
0.0342219
0.0342009
0.03418
0.0341593
0.0341388
0.0341185
0.0340983
0.0340784
0.0340585
0.0340389
0.0340195
0.0340002
0.033981
0.033962
0.0339433
0.0339246
0.0339061
0.0338878
0.0338696
0.0338516
0.0338337
0.033816
0.0337984
0.033781
0.0337637
0.0337465
0.0337295
0.0337127
0.0336959
0.0336794
0.0336629
0.0336466
0.0336304
0.0336144
0.0335984
0.0335827
0.033567
0.0335515
0.0335361
0.0335208
0.0335056
0.0334906
0.0334757
0.0334609
0.0334462
0.0334317
0.0334172
0.0334029
0.0333886
0.0333746
0.0333605
0.0333467
0.0333329
0.0333193
0.0333057
0.0332923
0.033279
0.0332658
0.0332527
0.0332396
0.0332268
0.0332139
0.0332013
0.0331886
0.0331762
0.0331636
0.0331515
0.0331391
0.0331272
0.0331149
0.0331033
0.0330911
0.0330798
0.0330678
0.0330568
0.0330447
0.033034
0.033022
0.0330117
0.0329996
0.0329896
0.0329776
0.0329679
0.0329559
0.0329464
0.0329343
0.0329252
0.0329131
0.0329041
0.0328919
0.032883
0.0328709
0.0328619
0.0328494
0.032841
0.0328283
0.0328197
0.0328032
0.0148323
0.0289679
0.0426584
0.0516065
0.0566452
0.0589614
0.0597039
0.0594599
0.0588161
0.0580063
0.0571348
0.0562732
0.0554389
0.0546526
0.0539019
0.0531824
0.0525062
0.0518721
0.0512798
0.0507162
0.0501805
0.0496736
0.0491964
0.0487452
0.0483148
0.0479038
0.0475123
0.0471399
0.0467855
0.0464461
0.0461199
0.0458073
0.0455073
0.0452202
0.0449442
0.044678
0.0444212
0.0441733
0.0439347
0.0437044
0.0434819
0.0432662
0.0430574
0.0428549
0.042659
0.0424691
0.0422848
0.0421056
0.0419314
0.0417619
0.0415974
0.0414373
0.0412814
0.0411294
0.0409813
0.0408368
0.0406959
0.0405584
0.0404239
0.0402924
0.0401639
0.0400382
0.0399154
0.0397954
0.0396779
0.0395631
0.0394506
0.0393405
0.0392326
0.0391269
0.0390234
0.038922
0.0388225
0.038725
0.0386293
0.0385354
0.0384434
0.0383531
0.0382644
0.0381773
0.0380917
0.0380077
0.0379251
0.037844
0.0377642
0.0376859
0.0376088
0.037533
0.0374584
0.0373851
0.0373129
0.0372419
0.0371721
0.0371034
0.0370357
0.036969
0.0369033
0.0368386
0.036775
0.0367122
0.0366504
0.0365895
0.0365295
0.0364703
0.036412
0.0363546
0.0362979
0.036242
0.0361869
0.0361325
0.0360789
0.0360259
0.0359737
0.0359223
0.0358715
0.0358213
0.0357718
0.0357229
0.0356747
0.0356271
0.0355801
0.0355337
0.0354879
0.0354426
0.0353979
0.0353538
0.0353101
0.035267
0.0352245
0.0351824
0.0351409
0.0350998
0.0350592
0.0350191
0.0349794
0.0349402
0.0349015
0.0348633
0.0348254
0.034788
0.034751
0.0347144
0.0346782
0.0346424
0.0346071
0.034572
0.0345375
0.0345032
0.0344694
0.0344359
0.0344027
0.0343699
0.0343374
0.0343053
0.0342736
0.0342421
0.034211
0.0341802
0.0341498
0.0341196
0.0340898
0.0340602
0.034031
0.034002
0.0339734
0.033945
0.0339169
0.0338891
0.0338615
0.0338343
0.0338073
0.0337805
0.033754
0.0337278
0.0337018
0.0336761
0.0336506
0.0336254
0.0336004
0.0335757
0.0335512
0.0335268
0.0335028
0.0334789
0.0334553
0.033432
0.0334088
0.0333858
0.0333631
0.0333405
0.0333182
0.0332961
0.0332741
0.0332524
0.0332308
0.0332095
0.0331883
0.0331674
0.0331466
0.033126
0.0331055
0.0330853
0.0330652
0.0330454
0.0330257
0.0330061
0.0329867
0.0329676
0.0329485
0.0329297
0.0329109
0.0328924
0.032874
0.0328558
0.0328377
0.0328198
0.032802
0.0327845
0.032767
0.0327497
0.0327324
0.0327154
0.0326985
0.0326818
0.0326652
0.0326487
0.0326324
0.0326161
0.0326001
0.0325842
0.0325683
0.0325527
0.0325371
0.0325217
0.0325064
0.0324913
0.0324762
0.0324613
0.0324465
0.0324319
0.0324173
0.0324028
0.0323885
0.0323743
0.0323602
0.0323462
0.0323323
0.0323186
0.0323049
0.0322914
0.032278
0.0322646
0.0322514
0.0322383
0.0322253
0.0322124
0.0321996
0.0321869
0.0321743
0.0321618
0.0321494
0.0321371
0.032125
0.0321129
0.0321009
0.0320889
0.0320772
0.0320654
0.0320539
0.0320422
0.0320309
0.0320194
0.0320083
0.031997
0.0319862
0.0319749
0.0319644
0.0319532
0.0319429
0.0319319
0.0319218
0.0319108
0.031901
0.0318901
0.0318805
0.0318697
0.0318603
0.0318495
0.0318403
0.0318295
0.0318206
0.0318097
0.0318009
0.0317901
0.0317811
0.0317703
0.0317613
0.0317501
0.0317397
0.0317286
0.00536981
0.0118829
0.0195463
0.0283722
0.0361612
0.042067
0.0462175
0.048659
0.0499953
0.0506044
0.0507516
0.0506437
0.0503988
0.0500826
0.049717
0.0493267
0.0489299
0.0485349
0.0481456
0.0477582
0.0473787
0.0470118
0.0466598
0.0463199
0.0459888
0.0456681
0.0453587
0.0450618
0.0447763
0.0444994
0.0442309
0.0439716
0.0437212
0.0434805
0.0432473
0.0430208
0.0428012
0.0425882
0.0423825
0.0421832
0.0419898
0.0418015
0.0416185
0.0414406
0.041268
0.0411004
0.040937
0.0407778
0.0406226
0.0404713
0.0403242
0.0401807
0.0400407
0.0399039
0.0397704
0.0396398
0.0395125
0.039388
0.0392661
0.0391465
0.0390295
0.0389148
0.0388026
0.0386928
0.0385853
0.03848
0.0383767
0.0382754
0.0381761
0.0380787
0.0379833
0.0378897
0.0377978
0.0377076
0.0376191
0.0375321
0.0374469
0.0373631
0.0372808
0.0371999
0.0371204
0.0370422
0.0369653
0.0368898
0.0368155
0.0367425
0.0366706
0.0365998
0.0365302
0.0364617
0.0363942
0.0363278
0.0362625
0.0361982
0.0361348
0.0360723
0.0360108
0.0359501
0.0358904
0.0358315
0.0357735
0.0357163
0.0356599
0.0356043
0.0355495
0.0354955
0.0354421
0.0353895
0.0353377
0.0352864
0.0352359
0.0351861
0.0351369
0.0350884
0.0350404
0.0349932
0.0349464
0.0349003
0.0348548
0.0348098
0.0347654
0.0347216
0.0346783
0.0346355
0.0345933
0.0345515
0.0345102
0.0344695
0.0344292
0.0343894
0.0343501
0.0343112
0.0342727
0.0342347
0.0341972
0.0341601
0.0341234
0.0340871
0.0340513
0.0340157
0.0339807
0.0339459
0.0339116
0.0338777
0.0338441
0.0338109
0.0337781
0.0337456
0.0337134
0.0336816
0.0336501
0.0336189
0.0335881
0.0335576
0.0335275
0.0334975
0.033468
0.0334387
0.0334098
0.0333811
0.0333528
0.0333246
0.0332968
0.0332693
0.0332421
0.033215
0.0331883
0.0331618
0.0331356
0.0331097
0.033084
0.0330585
0.0330333
0.0330083
0.0329836
0.0329591
0.0329348
0.0329108
0.032887
0.0328634
0.0328401
0.0328169
0.032794
0.0327713
0.0327488
0.0327265
0.0327044
0.0326825
0.0326609
0.0326394
0.0326181
0.032597
0.032576
0.0325553
0.0325347
0.0325144
0.0324942
0.0324742
0.0324544
0.0324347
0.0324152
0.0323959
0.0323768
0.0323579
0.0323391
0.0323204
0.0323019
0.0322836
0.0322654
0.0322474
0.0322295
0.0322119
0.0321943
0.0321769
0.0321597
0.0321426
0.0321256
0.0321088
0.0320922
0.0320756
0.0320592
0.0320429
0.0320268
0.0320109
0.0319949
0.0319792
0.0319636
0.0319481
0.0319328
0.0319176
0.0319025
0.0318875
0.0318727
0.031858
0.0318434
0.0318289
0.0318145
0.0318003
0.0317862
0.0317721
0.0317582
0.0317444
0.0317307
0.0317172
0.0317037
0.0316904
0.0316771
0.0316639
0.0316509
0.0316379
0.0316251
0.0316124
0.0315998
0.0315872
0.0315748
0.0315625
0.0315503
0.0315382
0.0315262
0.0315142
0.0315024
0.0314906
0.031479
0.0314675
0.031456
0.0314446
0.0314334
0.0314221
0.0314111
0.0314
0.0313892
0.0313783
0.0313677
0.0313569
0.0313465
0.0313359
0.0313257
0.0313152
0.0313053
0.0312949
0.0312851
0.0312749
0.0312653
0.0312551
0.0312458
0.0312357
0.0312266
0.0312165
0.0312075
0.0311975
0.0311888
0.0311787
0.0311701
0.0311601
0.0311514
0.0311416
0.0311327
0.0311222
0.0311117
0.0311024
0.00209085
0.00494546
0.00831913
0.0131881
0.0193516
0.0257908
0.0314777
0.0360766
0.0395176
0.0418745
0.0434022
0.0443474
0.0449163
0.0452339
0.0453591
0.0453627
0.0452909
0.0451699
0.0450124
0.0448305
0.0446322
0.0444253
0.0442145
0.0439992
0.0437801
0.0435609
0.0433437
0.0431308
0.0429213
0.0427135
0.0425087
0.0423082
0.0421124
0.0419222
0.0417356
0.0415522
0.041373
0.0411979
0.0410278
0.0408618
0.0406993
0.0405403
0.0403849
0.0402332
0.0400856
0.0399414
0.0398002
0.0396619
0.0395268
0.0393946
0.0392657
0.0391397
0.0390162
0.0388952
0.0387767
0.0386607
0.0385473
0.0384363
0.0383273
0.0382201
0.038115
0.0380118
0.0379106
0.0378115
0.0377142
0.0376186
0.0375248
0.0374326
0.0373422
0.0372534
0.0371662
0.0370806
0.0369964
0.0369137
0.0368324
0.0367525
0.0366741
0.036597
0.0365211
0.0364464
0.036373
0.0363007
0.0362296
0.0361597
0.0360909
0.0360232
0.0359565
0.0358907
0.035826
0.0357623
0.0356995
0.0356377
0.0355768
0.0355168
0.0354576
0.0353993
0.0353418
0.0352852
0.0352293
0.0351742
0.0351199
0.0350664
0.0350135
0.0349614
0.03491
0.0348593
0.0348093
0.0347599
0.0347112
0.034663
0.0346155
0.0345686
0.0345223
0.0344766
0.0344315
0.034387
0.0343429
0.0342994
0.0342565
0.0342141
0.0341722
0.0341308
0.0340899
0.0340496
0.0340097
0.0339702
0.0339312
0.0338926
0.0338546
0.0338169
0.0337797
0.0337429
0.0337064
0.0336705
0.0336349
0.0335998
0.033565
0.0335306
0.0334966
0.0334629
0.0334296
0.0333967
0.0333641
0.0333319
0.0333001
0.0332685
0.0332373
0.0332065
0.0331759
0.0331457
0.0331157
0.0330861
0.0330568
0.0330278
0.0329991
0.0329707
0.0329425
0.0329147
0.0328872
0.0328599
0.0328329
0.0328061
0.0327796
0.0327534
0.0327275
0.0327017
0.0326763
0.032651
0.0326261
0.0326014
0.0325769
0.0325526
0.0325285
0.0325047
0.0324811
0.0324577
0.0324346
0.0324117
0.032389
0.0323665
0.0323442
0.0323221
0.0323003
0.0322785
0.0322571
0.0322358
0.0322147
0.0321938
0.0321731
0.0321526
0.0321323
0.0321121
0.0320921
0.0320723
0.0320526
0.0320332
0.0320139
0.0319948
0.0319758
0.0319571
0.0319384
0.03192
0.0319017
0.0318836
0.0318656
0.0318477
0.0318301
0.0318125
0.0317952
0.031778
0.0317609
0.0317439
0.0317272
0.0317105
0.031694
0.0316776
0.0316615
0.0316454
0.0316294
0.0316136
0.0315979
0.0315823
0.0315669
0.0315516
0.0315364
0.0315213
0.0315064
0.0314916
0.0314769
0.0314623
0.0314479
0.0314335
0.0314193
0.0314052
0.0313912
0.0313773
0.0313636
0.03135
0.0313365
0.031323
0.0313097
0.0312965
0.0312834
0.0312704
0.0312575
0.0312447
0.031232
0.0312194
0.0312069
0.0311945
0.0311822
0.03117
0.031158
0.0311459
0.0311341
0.0311223
0.0311105
0.031099
0.0310875
0.031076
0.0310647
0.0310534
0.0310423
0.0310313
0.0310203
0.0310093
0.0309986
0.0309878
0.0309773
0.0309667
0.0309563
0.0309459
0.0309357
0.0309255
0.0309155
0.0309054
0.0308956
0.0308856
0.030876
0.0308662
0.0308568
0.0308471
0.0308378
0.0308282
0.0308192
0.0308097
0.0308008
0.0307913
0.0307827
0.0307732
0.0307648
0.0307553
0.030747
0.0307377
0.0307292
0.03072
0.0307115
0.0307016
0.0306915
0.0306829
0.000903757
0.00213127
0.00357361
0.00562138
0.00883052
0.0133349
0.0185148
0.0234844
0.027908
0.0316375
0.0345921
0.0368076
0.0384127
0.0395626
0.0403606
0.0409079
0.0412744
0.0415147
0.0416574
0.0417207
0.041733
0.04171
0.0416594
0.0415862
0.0414967
0.0413944
0.0412828
0.0411652
0.0410417
0.0409125
0.0407803
0.0406466
0.0405125
0.0403789
0.0402443
0.0401095
0.0399756
0.039843
0.0397125
0.0395835
0.0394556
0.0393291
0.0392043
0.0390816
0.0389614
0.038843
0.0387262
0.038611
0.0384978
0.0383866
0.0382777
0.0381706
0.0380651
0.0379613
0.0378592
0.037759
0.0376607
0.0375641
0.037469
0.0373753
0.037283
0.0371921
0.0371028
0.0370151
0.0369288
0.0368438
0.0367601
0.0366777
0.0365967
0.0365171
0.0364388
0.0363617
0.0362858
0.036211
0.0361375
0.0360651
0.0359939
0.0359238
0.0358548
0.0357867
0.0357197
0.0356537
0.0355887
0.0355247
0.0354616
0.0353995
0.0353382
0.0352777
0.0352181
0.0351595
0.0351016
0.0350446
0.0349884
0.0349329
0.0348781
0.0348241
0.0347709
0.0347183
0.0346665
0.0346154
0.0345649
0.0345151
0.0344659
0.0344174
0.0343696
0.0343223
0.0342757
0.0342296
0.0341841
0.0341391
0.0340947
0.0340508
0.0340075
0.0339648
0.0339225
0.0338808
0.0338395
0.0337988
0.0337585
0.0337187
0.0336794
0.0336405
0.0336021
0.0335641
0.0335266
0.0334894
0.0334527
0.0334165
0.0333806
0.0333451
0.0333101
0.0332754
0.033241
0.0332071
0.0331735
0.0331404
0.0331076
0.0330751
0.0330429
0.0330111
0.0329796
0.0329485
0.0329177
0.0328872
0.0328571
0.0328272
0.0327977
0.0327685
0.0327396
0.0327109
0.0326826
0.0326545
0.0326267
0.0325992
0.032572
0.032545
0.0325183
0.0324919
0.0324657
0.0324398
0.0324142
0.0323888
0.0323636
0.0323388
0.0323141
0.0322897
0.0322654
0.0322415
0.0322177
0.0321942
0.0321709
0.0321478
0.032125
0.0321023
0.0320798
0.0320576
0.0320355
0.0320137
0.0319921
0.0319707
0.0319495
0.0319285
0.0319076
0.0318869
0.0318665
0.0318462
0.0318261
0.0318062
0.0317864
0.0317668
0.0317475
0.0317282
0.0317091
0.0316903
0.0316715
0.0316529
0.0316345
0.0316163
0.0315982
0.0315803
0.0315625
0.0315449
0.0315275
0.0315102
0.031493
0.0314759
0.031459
0.0314423
0.0314257
0.0314093
0.0313929
0.0313768
0.0313608
0.0313448
0.0313291
0.0313135
0.031298
0.0312826
0.0312673
0.0312522
0.0312372
0.0312223
0.0312076
0.0311929
0.0311784
0.031164
0.0311497
0.0311355
0.0311215
0.0311076
0.0310937
0.03108
0.0310664
0.031053
0.0310396
0.0310263
0.0310131
0.0310001
0.0309872
0.0309743
0.0309616
0.0309489
0.0309364
0.030924
0.0309116
0.0308994
0.0308872
0.0308752
0.0308632
0.0308513
0.0308396
0.0308279
0.0308164
0.0308049
0.0307935
0.0307822
0.030771
0.0307599
0.0307489
0.0307379
0.0307271
0.0307163
0.0307057
0.0306951
0.0306846
0.0306741
0.0306639
0.0306536
0.0306435
0.0306334
0.0306234
0.0306135
0.0306037
0.0305939
0.0305844
0.0305747
0.0305653
0.0305558
0.0305466
0.0305373
0.0305283
0.0305191
0.0305102
0.0305011
0.0304924
0.0304834
0.0304749
0.0304659
0.0304575
0.0304486
0.0304405
0.0304316
0.0304236
0.0304147
0.0304066
0.0303979
0.0303898
0.0303806
0.0303711
0.0303628
0.000478067
0.00098706
0.00160365
0.00243135
0.00374261
0.00589922
0.00915514
0.0131667
0.0173654
0.0213351
0.0249351
0.0280654
0.0306673
0.0327761
0.0343993
0.0356406
0.036582
0.0372992
0.0378394
0.0382355
0.0385276
0.0387418
0.0388946
0.0389962
0.0390572
0.0390884
0.0390963
0.039086
0.0390593
0.03902
0.0389704
0.0389123
0.0388478
0.0387778
0.038702
0.038622
0.0385392
0.0384544
0.0383683
0.0382805
0.0381912
0.0381011
0.0380106
0.0379203
0.0378305
0.0377407
0.0376508
0.0375613
0.0374725
0.0373844
0.0372975
0.0372113
0.0371256
0.0370407
0.0369567
0.0368738
0.0367921
0.0367113
0.0366314
0.0365522
0.0364739
0.0363965
0.0363201
0.0362448
0.0361705
0.0360969
0.0360242
0.0359525
0.0358818
0.0358121
0.0357434
0.0356755
0.0356085
0.0355424
0.0354772
0.0354129
0.0353495
0.035287
0.0352253
0.0351644
0.0351042
0.0350449
0.0349864
0.0349288
0.0348719
0.0348157
0.0347602
0.0347054
0.0346514
0.034598
0.0345454
0.0344935
0.0344422
0.0343916
0.0343415
0.0342921
0.0342434
0.0341952
0.0341477
0.0341007
0.0340543
0.0340085
0.0339632
0.0339185
0.0338744
0.0338308
0.0337877
0.0337451
0.033703
0.0336614
0.0336202
0.0335796
0.0335394
0.0334997
0.0334605
0.0334217
0.0333833
0.0333454
0.033308
0.0332709
0.0332342
0.033198
0.0331622
0.0331268
0.0330917
0.033057
0.0330227
0.0329888
0.0329553
0.0329221
0.0328892
0.0328567
0.0328246
0.0327928
0.0327613
0.0327302
0.0326994
0.0326689
0.0326387
0.0326088
0.0325792
0.03255
0.032521
0.0324923
0.032464
0.0324359
0.0324081
0.0323806
0.0323533
0.0323263
0.0322995
0.0322731
0.0322469
0.032221
0.0321952
0.0321698
0.0321446
0.0321197
0.0320949
0.0320704
0.0320462
0.0320222
0.0319984
0.0319749
0.0319515
0.0319284
0.0319055
0.0318828
0.0318603
0.0318381
0.031816
0.0317941
0.0317725
0.031751
0.0317297
0.0317086
0.0316877
0.031667
0.0316465
0.0316262
0.0316061
0.0315861
0.0315663
0.0315467
0.0315273
0.031508
0.0314889
0.03147
0.0314512
0.0314326
0.0314142
0.0313959
0.0313778
0.0313598
0.031342
0.0313243
0.0313068
0.0312895
0.0312723
0.0312553
0.0312383
0.0312216
0.031205
0.0311885
0.0311722
0.0311559
0.0311399
0.0311239
0.0311081
0.0310925
0.0310769
0.0310615
0.0310463
0.0310311
0.0310161
0.0310012
0.0309864
0.0309718
0.0309572
0.0309428
0.0309285
0.0309143
0.0309003
0.0308863
0.0308724
0.0308587
0.0308451
0.0308316
0.0308182
0.0308049
0.0307917
0.0307786
0.0307656
0.0307528
0.03074
0.0307274
0.0307148
0.0307024
0.03069
0.0306778
0.0306656
0.0306535
0.0306416
0.0306297
0.0306179
0.0306062
0.0305946
0.0305831
0.0305717
0.0305604
0.0305492
0.030538
0.030527
0.030516
0.0305052
0.0304944
0.0304837
0.0304731
0.0304626
0.0304521
0.0304417
0.0304315
0.0304213
0.0304112
0.0304012
0.0303912
0.0303814
0.0303716
0.030362
0.0303523
0.0303428
0.0303334
0.030324
0.0303148
0.0303056
0.0302964
0.0302874
0.0302784
0.0302696
0.0302608
0.0302521
0.0302434
0.0302349
0.0302263
0.030218
0.0302095
0.0302013
0.0301928
0.0301848
0.0301764
0.0301685
0.0301601
0.0301525
0.0301441
0.0301364
0.0301281
0.0301204
0.0301118
0.0301029
0.0300948
0.000333828
0.000536047
0.000793264
0.0011297
0.00163814
0.00249087
0.00393653
0.00619048
0.00918384
0.0126176
0.0161043
0.01937
0.0223791
0.0250867
0.0274215
0.0293909
0.0310064
0.0323068
0.0333515
0.0341803
0.0348383
0.0353615
0.0357785
0.036108
0.0363653
0.0365667
0.0367243
0.0368459
0.0369356
0.036999
0.0370426
0.0370691
0.037082
0.0370825
0.037073
0.0370549
0.0370294
0.0369979
0.0369612
0.0369194
0.0368732
0.0368238
0.0367715
0.0367171
0.0366611
0.0366029
0.036543
0.0364819
0.0364201
0.0363576
0.036295
0.0362317
0.0361679
0.0361038
0.0360397
0.0359758
0.0359123
0.0358489
0.0357855
0.0357222
0.0356592
0.0355964
0.0355343
0.0354725
0.0354111
0.03535
0.0352894
0.0352293
0.0351697
0.0351108
0.0350525
0.0349947
0.0349373
0.0348805
0.0348243
0.0347688
0.0347139
0.0346596
0.0346058
0.0345525
0.0344999
0.0344478
0.0343963
0.0343455
0.0342952
0.0342454
0.0341962
0.0341475
0.0340993
0.0340518
0.0340048
0.0339583
0.0339123
0.0338668
0.0338218
0.0337773
0.0337334
0.0336899
0.033647
0.0336044
0.0335624
0.0335208
0.0334797
0.033439
0.0333989
0.0333591
0.0333198
0.0332809
0.0332425
0.0332044
0.0331667
0.0331295
0.0330927
0.0330562
0.0330201
0.0329845
0.0329492
0.0329143
0.0328798
0.0328456
0.0328118
0.0327784
0.0327452
0.0327125
0.0326801
0.032648
0.0326162
0.0325848
0.0325537
0.0325229
0.0324924
0.0324622
0.0324323
0.0324028
0.0323735
0.0323445
0.0323159
0.0322875
0.0322593
0.0322314
0.0322039
0.0321766
0.0321495
0.0321227
0.0320962
0.03207
0.032044
0.0320182
0.0319927
0.0319674
0.0319424
0.0319176
0.0318931
0.0318688
0.0318446
0.0318208
0.0317971
0.0317737
0.0317505
0.0317275
0.0317048
0.0316822
0.0316598
0.0316377
0.0316157
0.031594
0.0315724
0.0315511
0.0315299
0.031509
0.0314882
0.0314676
0.0314471
0.0314269
0.0314068
0.0313869
0.0313672
0.0313477
0.0313283
0.0313092
0.0312902
0.0312713
0.0312526
0.0312341
0.0312157
0.0311976
0.0311795
0.0311616
0.0311439
0.0311263
0.0311088
0.0310915
0.0310744
0.0310574
0.0310405
0.0310238
0.0310072
0.0309908
0.0309745
0.0309584
0.0309424
0.0309265
0.0309108
0.0308951
0.0308796
0.0308643
0.030849
0.0308339
0.0308189
0.0308041
0.0307893
0.0307747
0.0307602
0.0307459
0.0307316
0.0307175
0.0307035
0.0306896
0.0306758
0.030662
0.0306485
0.030635
0.0306217
0.0306084
0.0305952
0.0305822
0.0305693
0.0305564
0.0305437
0.0305311
0.0305185
0.0305061
0.0304938
0.0304816
0.0304694
0.0304574
0.0304455
0.0304337
0.0304219
0.0304103
0.0303987
0.0303872
0.0303758
0.0303645
0.0303533
0.0303422
0.0303312
0.0303202
0.0303094
0.0302986
0.030288
0.0302774
0.0302669
0.0302564
0.0302461
0.0302358
0.0302256
0.0302155
0.0302055
0.0301956
0.0301857
0.030176
0.0301663
0.0301567
0.0301472
0.0301377
0.0301283
0.0301191
0.0301098
0.0301007
0.0300917
0.0300827
0.0300738
0.030065
0.0300563
0.0300476
0.030039
0.0300305
0.0300221
0.0300138
0.0300055
0.0299973
0.0299892
0.0299811
0.0299731
0.0299651
0.0299573
0.0299493
0.0299416
0.0299337
0.0299262
0.0299182
0.029911
0.029903
0.0298957
0.0298879
0.0298805
0.0298724
0.0298643
0.0298564
0.000282244
0.000367396
0.000470626
0.000606606
0.000802516
0.00111962
0.00166868
0.00261333
0.00411194
0.00626632
0.00895043
0.0118781
0.0148333
0.0175882
0.0201649
0.0225392
0.0246535
0.0264947
0.0280855
0.0294083
0.0305057
0.0314156
0.0321695
0.0327913
0.0333025
0.0337242
0.034073
0.0343619
0.0345994
0.0347932
0.0349523
0.0350822
0.0351885
0.0352732
0.0353387
0.0353895
0.0354276
0.0354548
0.0354723
0.0354816
0.0354835
0.0354792
0.0354692
0.0354545
0.0354356
0.0354124
0.0353856
0.035356
0.0353239
0.0352897
0.0352537
0.0352156
0.0351758
0.0351347
0.0350924
0.0350494
0.0350058
0.0349612
0.0349159
0.03487
0.0348237
0.034777
0.0347302
0.0346832
0.0346359
0.0345884
0.0345408
0.0344933
0.0344459
0.0343987
0.0343517
0.0343046
0.0342577
0.0342111
0.0341647
0.0341187
0.0340729
0.0340274
0.0339822
0.0339372
0.0338925
0.0338483
0.0338044
0.0337609
0.0337177
0.0336748
0.0336323
0.0335901
0.0335483
0.033507
0.033466
0.0334253
0.033385
0.033345
0.0333054
0.0332662
0.0332274
0.0331889
0.0331509
0.0331131
0.0330757
0.0330387
0.0330019
0.0329656
0.0329297
0.0328941
0.0328588
0.0328239
0.0327893
0.0327549
0.032721
0.0326874
0.0326541
0.0326211
0.0325884
0.0325561
0.032524
0.0324923
0.0324609
0.0324298
0.032399
0.0323685
0.0323383
0.0323084
0.0322787
0.0322493
0.0322203
0.0321915
0.032163
0.0321347
0.0321067
0.032079
0.0320515
0.0320242
0.0319973
0.0319706
0.0319442
0.031918
0.031892
0.0318662
0.0318408
0.0318155
0.0317905
0.0317657
0.0317412
0.0317169
0.0316928
0.0316689
0.0316452
0.0316217
0.0315985
0.0315754
0.0315526
0.03153
0.0315076
0.0314854
0.0314634
0.0314416
0.0314199
0.0313985
0.0313773
0.0313562
0.0313353
0.0313147
0.0312942
0.0312738
0.0312537
0.0312337
0.031214
0.0311944
0.0311749
0.0311556
0.0311365
0.0311175
0.0310987
0.0310801
0.0310616
0.0310433
0.0310252
0.0310072
0.0309894
0.0309717
0.0309541
0.0309367
0.0309195
0.0309024
0.0308855
0.0308687
0.030852
0.0308354
0.030819
0.0308027
0.0307866
0.0307706
0.0307547
0.030739
0.0307234
0.0307079
0.0306926
0.0306774
0.0306623
0.0306474
0.0306325
0.0306178
0.0306032
0.0305887
0.0305743
0.0305601
0.0305459
0.0305319
0.030518
0.0305042
0.0304905
0.030477
0.0304635
0.0304502
0.030437
0.0304238
0.0304108
0.0303978
0.030385
0.0303723
0.0303596
0.0303471
0.0303346
0.0303223
0.0303101
0.030298
0.0302859
0.030274
0.0302622
0.0302504
0.0302387
0.0302272
0.0302157
0.0302043
0.030193
0.0301818
0.0301707
0.0301597
0.0301487
0.0301379
0.0301271
0.0301164
0.0301058
0.0300953
0.0300848
0.0300745
0.0300642
0.030054
0.0300439
0.0300338
0.0300239
0.030014
0.0300042
0.0299945
0.0299848
0.0299753
0.0299658
0.0299564
0.029947
0.0299378
0.0299286
0.0299195
0.0299105
0.0299016
0.0298927
0.0298839
0.0298752
0.0298665
0.029858
0.0298495
0.0298411
0.0298328
0.0298245
0.0298163
0.0298082
0.0298002
0.0297922
0.0297843
0.0297765
0.0297688
0.029761
0.0297534
0.0297458
0.0297383
0.0297309
0.0297234
0.0297161
0.0297087
0.0297016
0.0296941
0.0296872
0.0296797
0.0296728
0.0296653
0.0296584
0.0296508
0.0296433
0.0296357
0.000262011
0.000299393
0.000344381
0.000400203
0.00047689
0.000593879
0.000789871
0.00113514
0.00173117
0.00270732
0.00417996
0.00616356
0.00855175
0.0110654
0.0136052
0.0160024
0.0182434
0.0203378
0.0222633
0.0239838
0.0255061
0.0268343
0.0279668
0.0289316
0.0297533
0.0304494
0.031039
0.0315401
0.0319658
0.0323257
0.0326312
0.032891
0.0331131
0.0333022
0.0334611
0.033596
0.0337104
0.0338075
0.033889
0.0339564
0.0340116
0.034057
0.0340933
0.0341221
0.0341434
0.0341589
0.0341687
0.0341737
0.0341741
0.0341708
0.0341638
0.0341533
0.0341398
0.0341238
0.0341055
0.0340852
0.0340632
0.0340392
0.0340137
0.0339867
0.0339585
0.0339293
0.0338992
0.0338681
0.0338362
0.0338034
0.03377
0.0337362
0.0337019
0.0336674
0.0336325
0.0335972
0.0335616
0.0335259
0.0334901
0.0334543
0.0334184
0.0333824
0.0333463
0.0333103
0.0332743
0.0332384
0.0332027
0.0331671
0.0331316
0.0330961
0.0330607
0.0330256
0.0329906
0.0329559
0.0329213
0.0328869
0.0328527
0.0328186
0.0327848
0.0327512
0.0327178
0.0326847
0.0326519
0.0326192
0.0325868
0.0325545
0.0325225
0.0324908
0.0324594
0.0324282
0.0323972
0.0323664
0.0323359
0.0323056
0.0322756
0.0322458
0.0322163
0.032187
0.0321579
0.0321291
0.0321005
0.0320722
0.0320441
0.0320162
0.0319886
0.0319612
0.0319341
0.0319071
0.0318804
0.0318539
0.0318277
0.0318017
0.0317759
0.0317503
0.0317249
0.0316998
0.0316748
0.03165
0.0316255
0.0316013
0.0315772
0.0315533
0.0315296
0.0315061
0.0314828
0.0314597
0.0314368
0.0314142
0.0313917
0.0313694
0.0313473
0.0313254
0.0313036
0.031282
0.0312606
0.0312395
0.0312185
0.0311976
0.031177
0.0311565
0.0311362
0.0311161
0.0310961
0.0310763
0.0310567
0.0310372
0.0310179
0.0309988
0.0309798
0.030961
0.0309423
0.0309238
0.0309055
0.0308873
0.0308693
0.0308514
0.0308336
0.030816
0.0307985
0.0307812
0.030764
0.030747
0.0307301
0.0307134
0.0306968
0.0306803
0.0306639
0.0306477
0.0306316
0.0306157
0.0305999
0.0305842
0.0305686
0.0305532
0.0305378
0.0305226
0.0305076
0.0304926
0.0304777
0.0304631
0.0304485
0.030434
0.0304196
0.0304054
0.0303913
0.0303773
0.0303634
0.0303496
0.0303359
0.0303223
0.0303089
0.0302955
0.0302823
0.0302691
0.0302561
0.0302431
0.0302303
0.0302176
0.0302049
0.0301924
0.03018
0.0301677
0.0301554
0.0301432
0.0301312
0.0301193
0.0301074
0.0300956
0.0300839
0.0300723
0.0300608
0.0300494
0.0300381
0.0300269
0.0300157
0.0300047
0.0299937
0.0299828
0.029972
0.0299613
0.0299507