/*--------------------------------*- C++ -*----------------------------------*\
| =========                 |                                                 |
| \\      /  F ield         | foam-extend: Open Source CFD                    |
|  \\    /   O peration     | Version:     3.2                                |
|   \\  /    A nd           | Web:         http://www.foam-extend.org         |
|    \\/     M anipulation  | For copyright notice see file Copyright         |
\*---------------------------------------------------------------------------*/
FoamFile
{
    version     2.0;
    format      ascii;
    class       areaScalarField;
    location    "1790";
    object      Ce1;
}
// * * * * * * * * * * * * * * * * * * * * * * * * * * * * * * * * * * * * * //

dimensions      [1 -3 0 0 0 0 0];

internalField   nonuniform List<scalar> 
550
(
0.0029249
0.0054056
0.00903543
0.0139976
0.0203536
0.0280021
0.0366871
0.0460007
0.0554823
0.0646352
0.0730516
0.0804002
0.0864976
0.091255
0.0946955
0.0968983
0.0980063
0.0981801
0.0975972
0.096465
0.0949074
0.0930322
0.0909313
0.0886851
0.0863643
0.0840261
0.0817164
0.079477
0.0773341
0.0752867
0.0733344
0.0714815
0.06973
0.0680808
0.0665326
0.0650845
0.0637335
0.0624764
0.061309
0.0602266
0.0592235
0.0582943
0.0574328
0.0566335
0.0558907
0.0551993
0.0545555
0.0539557
0.0533968
0.0528765
0.052392
0.0519412
0.0515209
0.0511281
0.0507593
0.0504115
0.0500815
0.0497673
0.049468
0.0491825
0.0489106
0.0486523
0.0484073
0.0481747
0.047954
0.0477432
0.0475408
0.0473452
0.0471549
0.0469696
0.0467884
0.0466121
0.0464411
0.0462771
0.0461205
0.0459729
0.0458337
0.0457026
0.045578
0.0454583
0.0453413
0.0452241
0.0451039
0.0449786
0.0448471
0.0447093
0.0445664
0.0444205
0.044274
0.0441303
0.0439924
0.0438633
0.0437435
0.0436338
0.0435325
0.0434392
0.043351
0.0432668
0.0431829
0.0430981
0.0430096
0.0429171
0.0428197
0.0427178
0.0426117
0.0425019
0.0423897
0.0422738
0.0421489
0.0421922
0.0415616
0.0415744
0.0415905
0.0415383
0.0414339
0.0414512
0.0413018
0.0412193
0.0415358
0.00417894
0.0410441
0.0409364
0.040771
0.0407271
0.04063
0.0404822
0.0403689
0.0401916
0.0403661
0.00337202
0.0398702
0.0397593
0.0395962
0.00355288
0.0393873
0.0392717
0.0390511
0.039227
0.0388968
0.0387243
0.0385273
0.0386758
0.00402837
0.0381787
0.0380277
0.0379018
0.0377546
0.037641
0.0374758
0.0373861
0.0372721
0.0371213
0.00266439
0.0368992
0.0367406
0.0366306
0.0364919
0.0364038
0.0362442
0.0361168
0.0359925
0.0358801
0.0022532
0.0356885
0.0355542
0.0354277
0.0353221
0.0352366
0.0351382
0.0350435
0.0349074
0.0347993
0.00184912
0.0346481
0.0345245
0.034473
0.0343372
0.0342025
0.0342037
0.0341027
0.0339647
0.0339448
0.0338417
0.033727
0.0337351
0.0334658
0.0335698
0.0334961
0.0334249
0.0333334
0.0333052
0.0332206
0.0331557
0.0331371
0.0330091
0.0329548
0.0329575
0.0328632
0.0327865
0.0327976
0.0327621
0.0326717
0.0326045
0.032547
0.0325035
0.0324599
0.0324342
0.0323747
0.0323536
0.0322965
0.032246
0.0322127
0.0321495
0.0321187
0.032077
0.0320736
0.0316356
0.0315947
0.0313487
0.0313463
0.0312622
0.031163
0.0312443
0.0312571
0.0311678
0.0310156
0.0310878
0.0310427
0.0309968
0.0310169
0.0312297
0.0306187
0.0302684
0.030862
0.0310465
0.0311215
0.0310995
0.0306966
0.0309432
0.0310206
0.0310626
0.0310153
0.0310685
0.0310196
0.0310677
0.0310261
0.031074
0.0310276
0.0310596
0.0310186
0.0310477
0.0310089
0.0310335
0.0309945
0.0310177
0.0309901
0.0310153
0.0309889
0.0310122
0.0309888
0.0310145
0.0309929
0.0310125
0.0309872
0.031003
0.0309793
0.0309931
0.0309818
0.0309829
0.0309618
0.0308366
0.0306822
0.0308595
0.0309343
0.0309227
0.0308941
0.0308926
0.0308672
0.0308698
0.0308452
0.0308496
0.030827
0.0308358
0.0308142
0.0308237
0.0308015
0.0308121
0.0307901
0.0308017
0.0307776
0.0307909
0.0307647
0.0307794
0.0307495
0.0307669
0.0307288
0.0307544
0.0307005
0.0307351
0.0306694
0.0307044
0.0306477
0.0306776
0.0306346
0.0306544
0.0306299
0.0306355
0.0306291
0.0306196
0.0306191
0.0306072
0.0306063
0.030598
0.0305971
0.030591
0.0305911
0.0305869
0.0305879
0.0305837
0.0305862
0.0305738
0.0305492
0.0305494
0.0305174
0.0305347
0.0304901
0.0305212
0.0304801
0.0304896
0.0305065
0.0302348
0.0303437
0.0304541
0.0305163
0.0303233
0.0305664
0.0301597
0.0305603
0.030095
0.030524
0.0303217
0.0291696
0.0306702
0.0305753
0.0304232
0.0303921
0.0303562
0.0303364
0.0303182
0.0303036
0.0302936
0.030283
0.0302744
0.0302645
0.0302555
0.0302458
0.0302361
0.0302249
0.0302146
0.0302027
0.0301907
0.0301782
0.0301656
0.0301512
0.0301385
0.0301225
0.0301117
0.0301006
0.0300845
0.0300939
0.0300496
0.0301068
0.0299787
0.0301749
0.0298242
0.0302497
0.0295856
0.0301881
0.0294243
0.0301036
0.029501
0.0299861
0.0297426
0.0298695
0.0297493
0.0296721
0.0295612
0.0294633
0.0293645
0.0292673
0.0291732
0.0290814
0.0289932
0.0289059
0.0288232
0.0287382
0.0286628
0.0285737
0.0285102
0.0284058
0.0283686
0.0282305
0.0282418
0.028044
0.0275741
0.0279271
0.0276442
0.0285134
0.0277949
0.0274478
0.027473
0.0274146
0.0273441
0.027269
0.0271883
0.0271174
0.0270426
0.0269718
0.026901
0.0268328
0.0267639
0.0266972
0.0266298
0.0265623
0.0265018
0.0260093
0.0259827
0.0259562
0.0259298
0.0259036
0.0258777
0.0258515
0.0258259
0.0258003
0.0257747
0.0257493
0.025724
0.0256986
0.0256736
0.0256483
0.0256232
0.0255984
0.0255733
0.0255483
0.0255236
0.0254986
0.0254734
0.0254484
0.025423
0.0253974
0.0253719
0.025346
0.0253196
0.0252931
0.0252666
0.0252397
0.0252128
0.0251853
0.0251581
0.0251306
0.0251028
0.0250752
0.0250474
0.0250197
0.0249916
0.024964
0.0249363
0.0249085
0.0248806
0.0248526
0.0248246
0.0247969
0.0247677
0.0247391
0.0247098
0.02468
0.0246511
0.0246188
0.0245924
0.0245527
0.0245397
0.0244765
0.0244988
0.0243844
0.0241996
0.0242816
0.0234644
0.024364
0.024347
0.0218013
0.0240815
0.0239656
0.0237965
0.0240593
0.0240435
0.0240191
0.0240204
0.0239678
0.0239423
0.023905
0.023863
0.023847
0.02377
0.0237269
0.0251376
0.024017
0.0237292
0.0237577
0.0214679
0.0234463
0.0232917
0.0242859
0.0244355
0.0243443
0.0242463
0.0241447
0.0240545
0.0239641
0.0238696
0.023792
0.0236822
0.023624
0.0234777
0.0233678
0.0232459
0.0228599
0.0229886
0.0222876
0.0227223
0.0216209
0.0225154
0.0212232
0.0224459
0.0213315
0.0222842
0.0220093
0.021337
0.0209375
0.0214937
0.0236954
0.0158446
0.0142158
0.0114664
0.00898148
0.00600995
0.00288027
0.000854998
0.000658537
0.00209833
0.00543558
)
;

boundaryField
{
    inlet
    {
        type            calculated;
        value           uniform 0;
    }
    endWall
    {
        type            calculated;
        value           uniform 0;
    }
    sideWall
    {
        type            empty;
    }
}


// ************************************************************************* //
