/*--------------------------------*- C++ -*----------------------------------*\
| =========                 |                                                 |
| \\      /  F ield         | foam-extend: Open Source CFD                    |
|  \\    /   O peration     | Version:     3.2                                |
|   \\  /    A nd           | Web:         http://www.foam-extend.org         |
|    \\/     M anipulation  | For copyright notice see file Copyright         |
\*---------------------------------------------------------------------------*/
FoamFile
{
    version     2.0;
    format      ascii;
    class       areaScalarField;
    location    "1790";
    object      Cpost;
}
// * * * * * * * * * * * * * * * * * * * * * * * * * * * * * * * * * * * * * //

dimensions      [1 -3 0 0 0 0 0];

internalField   nonuniform List<scalar> 
550
(
0.0197
0.0197
0.0197
0.0197
0.0197
0.0197
0.0197
0.0197
0.0197
0.0197
0.0197
0.0197
0.0197
0.0197
0.0197
0.0197
0.0197
0.0197
0.0197
0.0197
0.0197
0.0197
0.0197
0.0197
0.0197
0.0197
0.0197
0.0197
0.0197
0.0197
0.0197
0.0197
0.0197
0.0197
0.0197
0.0197
0.0197
0.0197
0.0197
0.0197
0.0197
0.0197
0.0197
0.0197
0.0197
0.0197
0.0197
0.0197
0.0197
0.0197
0.0197
0.0197
0.0197
0.0197
0.0197
0.0197
0.0197
0.0197
0.0197
0.0197
0.0197
0.0197
0.0197
0.0197
0.0197
0.0197
0.0197
0.0197
0.0197
0.0196999
0.0196999
0.0196999
0.0196999
0.0196999
0.0196999
0.0196999
0.0196998
0.0196998
0.0196998
0.0196997
0.0196997
0.0196996
0.0196996
0.0196995
0.0196994
0.0196993
0.0196992
0.019699
0.0196989
0.0196987
0.0196985
0.0196983
0.019698
0.0196977
0.0196974
0.019697
0.0196966
0.0196962
0.0196957
0.0196952
0.0196946
0.0196939
0.0196933
0.0196925
0.0196917
0.0196909
0.01969
0.019689
0.0196878
0.0196869
0.0197127
0.0197332
0.0197549
0.0197714
0.0197803
0.0197942
0.0198034
0.0198118
0.0198241
0.0198318
0.0198479
0.0198491
0.0198334
0.0198473
0.0198446
0.0198472
0.0198523
0.01984
0.0198395
0.0198372
0.0198456
0.0198349
0.019833
0.0198211
0.0198178
0.019824
0.0198016
0.0197964
0.0198038
0.0197939
0.0197727
0.0197726
0.0197776
0.0197712
0.019767
0.019759
0.0197604
0.0197547
0.0197461
0.0197381
0.019743
0.0197414
0.0197242
0.0197265
0.0197234
0.0197181
0.0197126
0.0197134
0.0197109
0.0197069
0.0196943
0.0196918
0.019692
0.019688
0.0196866
0.0196733
0.0196681
0.0196696
0.019665
0.0196573
0.0196492
0.0196441
0.0196327
0.0196349
0.0196315
0.0196253
0.0196223
0.0196068
0.0196035
0.0196063
0.0195985
0.0195884
0.0195917
0.0195804
0.0195763
0.0195766
0.0195804
0.0195804
0.0195771
0.0195715
0.0195644
0.0195561
0.0195472
0.0195374
0.0195273
0.0195178
0.0195078
0.0194972
0.0194875
0.0194792
0.0194719
0.0194664
0.0194628
0.0194606
0.0194595
0.0194587
0.0194578
0.0194564
0.0194544
0.0194515
0.019448
0.0194439
0.0194393
0.0194343
0.0194291
0.0194238
0.0194164
0.0194086
0.0193998
0.0193911
0.0193821
0.0193728
0.0193642
0.0193556
0.0193465
0.0193371
0.0193282
0.0193193
0.0193103
0.0193016
0.0192941
0.0192838
0.0192725
0.0192643
0.0192571
0.0192503
0.0192435
0.0192349
0.0192276
0.0192208
0.0192142
0.0192074
0.0192007
0.0191938
0.0191871
0.01918
0.019173
0.0191656
0.0191582
0.0191505
0.0191428
0.0191348
0.0191269
0.0191187
0.0191106
0.0191025
0.0190946
0.0190868
0.0190792
0.0190718
0.0190648
0.019058
0.0190517
0.0190456
0.01904
0.0190346
0.0190296
0.019025
0.0190207
0.0190166
0.0190122
0.0190075
0.0190039
0.0190008
0.0189978
0.0189948
0.0189919
0.018989
0.0189862
0.0189832
0.0189803
0.0189773
0.0189743
0.0189713
0.0189682
0.018965
0.0189618
0.0189584
0.0189551
0.0189516
0.0189481
0.0189444
0.0189407
0.0189369
0.0189331
0.0189291
0.0189252
0.018921
0.0189169
0.0189124
0.0189082
0.0189036
0.0188992
0.0188946
0.01889
0.0188853
0.0188807
0.018876
0.0188712
0.0188665
0.0188617
0.0188569
0.018852
0.0188472
0.0188423
0.0188375
0.0188326
0.0188277
0.0188228
0.0188179
0.018813
0.0188079
0.0188029
0.0187977
0.0187927
0.0187874
0.0187823
0.0187771
0.0187719
0.0187668
0.0187605
0.0187548
0.0187497
0.0187448
0.0187392
0.0187345
0.0187282
0.0187237
0.0187172
0.0187129
0.0187073
0.018697
0.0186936
0.0186897
0.0186849
0.0186801
0.018675
0.01867
0.0186649
0.0186597
0.0186546
0.0186495
0.0186444
0.0186393
0.0186342
0.0186292
0.0186241
0.018619
0.018614
0.0186089
0.0186038
0.0185987
0.0185936
0.0185885
0.0185834
0.0185782
0.0185731
0.0185679
0.0185627
0.0185577
0.0185524
0.0185474
0.018542
0.0185374
0.0185314
0.0185272
0.0185202
0.018516
0.0185086
0.0185042
0.0184998
0.0184952
0.0184907
0.018486
0.0184814
0.0184767
0.018472
0.0184672
0.0184625
0.0184578
0.018453
0.0184483
0.0184436
0.018439
0.0184343
0.0184296
0.018425
0.0184204
0.0184158
0.0184112
0.0184067
0.0184021
0.0183977
0.0183931
0.0183887
0.0183845
0.0183709
0.0183675
0.0183638
0.0183604
0.0183566
0.0183528
0.0183491
0.0183453
0.0183416
0.0183379
0.0183342
0.0183305
0.0183268
0.0183232
0.0183196
0.0183161
0.0183126
0.0183092
0.0183057
0.0183024
0.018299
0.0182957
0.0182924
0.0182891
0.0182858
0.0182825
0.0182793
0.018276
0.0182727
0.0182694
0.0182661
0.0182628
0.0182595
0.0182561
0.0182528
0.0182495
0.0182461
0.0182428
0.0182395
0.0182362
0.0182329
0.0182296
0.0182263
0.0182231
0.0182199
0.0182167
0.0182136
0.0182104
0.0182072
0.0182041
0.018201
0.0181978
0.0181947
0.0181915
0.0181883
0.0181851
0.0181818
0.0181785
0.0181752
0.0181718
0.0181684
0.018165
0.0181616
0.0181581
0.0181545
0.018151
0.0181474
0.0181438
0.0181402
0.0181366
0.018133
0.0181293
0.0181257
0.018122
0.0181184
0.0181148
0.0181112
0.0181076
0.018104
0.0181004
0.0180967
0.0180933
0.0180898
0.0180861
0.0180827
0.0180795
0.018076
0.0180725
0.0180691
0.0180657
0.0180623
0.0180589
0.0180556
0.0180523
0.0180491
0.0180458
0.0180426
0.0180395
0.0180363
0.018033
0.0180301
0.018027
0.0180238
0.0180208
0.018018
0.018015
0.018012
0.0180091
0.0180061
0.0180032
0.0180003
0.0179975
0.0179947
0.0179919
0.017989
0.0179863
0.0179835
0.0179808
0.0179781
0.0179755
0.0179728
0.0179702
0.0179675
0.017965
0.0179623
0.0179598
0.017957
0.0179544
0.0179515
0.0179206
0.0178941
0.017869
0.0178489
0.0178534
0.0178567
0.0178601
0.0178627
0.0178647
0.0178665
0.0178692
0.0178791
0.0178877
0.0178864
0.0178848
)
;

boundaryField
{
    inlet
    {
        type            calculated;
        value           uniform 0;
    }
    endWall
    {
        type            calculated;
        value           uniform 0;
    }
    sideWall
    {
        type            empty;
    }
}


// ************************************************************************* //
