/*--------------------------------*- C++ -*----------------------------------*\
| =========                 |                                                 |
| \\      /  F ield         | foam-extend: Open Source CFD                    |
|  \\    /   O peration     | Version:     3.2                                |
|   \\  /    A nd           | Web:         http://www.foam-extend.org         |
|    \\/     M anipulation  | For copyright notice see file Copyright         |
\*---------------------------------------------------------------------------*/
FoamFile
{
    version     2.0;
    format      ascii;
    class       areaScalarField;
    location    "1790";
    object      Cs;
}
// * * * * * * * * * * * * * * * * * * * * * * * * * * * * * * * * * * * * * //

dimensions      [0 0 0 0 0 0 0];

internalField   nonuniform List<scalar> 
550
(
0.342991
0.342991
0.342991
0.342991
0.342991
0.342991
0.342991
0.342991
0.342991
0.342991
0.342991
0.342991
0.342991
0.342991
0.342991
0.342991
0.342991
0.342991
0.342991
0.342991
0.342991
0.342991
0.342991
0.342991
0.342991
0.342991
0.342991
0.342991
0.342991
0.342991
0.342991
0.342991
0.342991
0.342991
0.342991
0.342991
0.342991
0.342991
0.342991
0.342991
0.342991
0.342991
0.342991
0.342991
0.342991
0.342991
0.342991
0.342991
0.342991
0.342991
0.342991
0.342991
0.342991
0.342991
0.342991
0.342991
0.342991
0.342991
0.342991
0.342991
0.342991
0.342991
0.342991
0.342991
0.342991
0.342991
0.342991
0.342991
0.342991
0.342991
0.342991
0.342991
0.342991
0.342991
0.342991
0.342991
0.342991
0.342991
0.342991
0.342991
0.342991
0.342991
0.342991
0.342991
0.342991
0.342991
0.342991
0.342991
0.342991
0.342991
0.342991
0.342991
0.342991
0.342991
0.342991
0.342991
0.342991
0.342991
0.342991
0.342991
0.342991
0.342991
0.342991
0.342991
0.342991
0.342991
0.342991
0.342991
0.342991
0.34339
0.340657
0.340731
0.340762
0.340622
0.340747
0.340842
0.34086
0.340874
0.342991
0.0886664
0.341147
0.341086
0.341202
0.3411
0.34142
0.341252
0.341274
0.341163
0.342991
0.0807879
0.341459
0.341436
0.341466
0.0836864
0.341581
0.3415
0.341574
0.342991
0.34153
0.341468
0.341557
0.342991
0.0910812
0.341581
0.341588
0.34155
0.341541
0.341504
0.341568
0.341627
0.341629
0.341592
0.0754089
0.341704
0.341748
0.34176
0.341801
0.341788
0.341749
0.341788
0.341837
0.341911
0.0710041
0.341988
0.341997
0.342011
0.342075
0.342092
0.342114
0.342093
0.342101
0.342129
0.0659597
0.342215
0.342269
0.342256
0.342179
0.342379
0.342428
0.342364
0.34255
0.342606
0.342571
0.342707
0.342768
0.342417
0.342222
0.342317
0.342309
0.342465
0.342518
0.342457
0.342607
0.342481
0.342418
0.342722
0.342682
0.342561
0.342779
0.342861
0.342541
0.342218
0.342043
0.341992
0.342015
0.342078
0.342051
0.342044
0.342012
0.341904
0.341904
0.34184
0.341893
0.342023
0.342213
0.342558
0.342504
0.342293
0.341841
0.341239
0.34056
0.339787
0.338898
0.336537
0.337713
0.336949
0.336018
0.334703
0.334724
0.333492
0.332634
0.335124
0.338401
0.332809
0.329998
0.328554
0.327767
0.330075
0.328302
0.326617
0.326115
0.325626
0.325249
0.3249
0.324576
0.32421
0.323853
0.323547
0.323284
0.323002
0.322741
0.322503
0.322271
0.322079
0.321856
0.321618
0.321375
0.32116
0.320946
0.320742
0.320533
0.320346
0.32022
0.320101
0.320029
0.319935
0.319894
0.319808
0.31984
0.319951
0.320643
0.321404
0.320056
0.318869
0.318692
0.318476
0.318417
0.318296
0.318222
0.318101
0.317988
0.317836
0.317665
0.317476
0.317281
0.317077
0.316867
0.316652
0.316442
0.316233
0.316031
0.315831
0.315639
0.315452
0.315279
0.31511
0.31495
0.314792
0.314637
0.314485
0.314335
0.31419
0.314051
0.313913
0.313783
0.313653
0.31353
0.313406
0.313287
0.313167
0.313051
0.312934
0.31282
0.312704
0.312589
0.312473
0.312351
0.312235
0.312092
0.31197
0.311791
0.31167
0.311444
0.311321
0.311055
0.310896
0.310654
0.310399
0.310395
0.309947
0.311203
0.310636
0.308879
0.308733
0.308362
0.308176
0.307914
0.307674
0.307395
0.307163
0.307368
0.319048
0.306077
0.305724
0.305351
0.304985
0.304598
0.304223
0.30383
0.303453
0.303063
0.302687
0.302308
0.301942
0.301583
0.301234
0.300898
0.300569
0.300255
0.299944
0.299647
0.299347
0.299061
0.298768
0.298485
0.29819
0.297901
0.297592
0.297285
0.296964
0.296647
0.296323
0.296
0.295674
0.295347
0.295016
0.294686
0.294349
0.294012
0.293666
0.293319
0.292962
0.292605
0.29224
0.291877
0.29151
0.291148
0.290786
0.290432
0.29008
0.289738
0.289398
0.289069
0.288741
0.288423
0.288105
0.287795
0.287484
0.287179
0.286871
0.286569
0.286264
0.285964
0.285663
0.285364
0.285095
0.285881
0.307639
0.284136
0.283839
0.283545
0.283253
0.282964
0.282679
0.282397
0.282117
0.281839
0.281562
0.281288
0.281017
0.280749
0.280488
0.280238
0.280001
0.279782
0.276747
0.276768
0.276792
0.276823
0.276861
0.276907
0.276958
0.277013
0.27707
0.27713
0.27719
0.277252
0.277314
0.277377
0.277439
0.2775
0.277559
0.277616
0.277672
0.277724
0.277773
0.277819
0.27786
0.277895
0.277926
0.27795
0.277968
0.277979
0.277986
0.277986
0.277981
0.27797
0.277956
0.277938
0.277916
0.277891
0.277863
0.27783
0.277796
0.277759
0.277719
0.277675
0.27763
0.277582
0.277534
0.277482
0.277427
0.277369
0.277311
0.277245
0.277192
0.277104
0.277072
0.276956
0.276977
0.276805
0.276897
0.276665
0.276806
0.276689
0.276695
0.277231
0.275708
0.279363
0.278676
0.274805
0.276772
0.276755
0.276928
0.277168
0.277039
0.277189
0.27701
0.277052
0.276854
0.276898
0.276645
0.276777
0.276503
0.287339
0.28694
0.275914
0.279493
0.278703
0.274581
0.276246
0.284492
0.284081
0.283669
0.283259
0.282828
0.282435
0.28197
0.281601
0.281068
0.280759
0.280109
0.27987
0.279065
0.278859
0.277932
0.27774
0.276801
0.276583
0.275812
0.275486
0.275098
0.274531
0.274578
0.270963
0.269346
0.266763
0.270243
0.27986
0.319429
0.342991
0.342991
0.342991
0.342991
0.342991
0.342991
0.342991
0.342991
0.342991
0.342991
)
;

boundaryField
{
    inlet
    {
        type            calculated;
        value           uniform 0;
    }
    endWall
    {
        type            calculated;
        value           uniform 0;
    }
    sideWall
    {
        type            empty;
    }
}


// ************************************************************************* //
