/*--------------------------------*- C++ -*----------------------------------*\
| =========                 |                                                 |
| \\      /  F ield         | foam-extend: Open Source CFD                    |
|  \\    /   O peration     | Version:     3.2                                |
|   \\  /    A nd           | Web:         http://www.foam-extend.org         |
|    \\/     M anipulation  | For copyright notice see file Copyright         |
\*---------------------------------------------------------------------------*/
FoamFile
{
    version     2.0;
    format      ascii;
    class       areaScalarField;
    location    "1790";
    object      dd;
}
// * * * * * * * * * * * * * * * * * * * * * * * * * * * * * * * * * * * * * //

dimensions      [0 1 0 0 0 0 0];

internalField   nonuniform List<scalar> 
550
(
0.00041
0.00041
0.00041
0.00041
0.000409999
0.00041
0.00041
0.00041
0.00041
0.00041
0.00041
0.00041
0.000409999
0.00041
0.00041
0.000409999
0.00041
0.00041
0.00041
0.00041
0.000410001
0.00041
0.00041
0.000409999
0.00041
0.00041
0.000409999
0.000410001
0.000409995
0.00041
0.00041
0.000409995
0.00041
0.00041
0.000410005
0.00041
0.00041
0.000410005
0.00041
0.000409995
0.00041
0.00041
0.000409995
0.00041
0.00041
0.000410005
0.00041
0.00041
0.000410005
0.00041
0.000409995
0.00041
0.00041
0.000409995
0.00041
0.00041
0.000410005
0.00041
0.00041
0.000410005
0.00041
0.000409995
0.00041
0.00041
0.000409995
0.00041
0.00041
0.000410005
0.00041
0.00041
0.000410005
0.00041
0.000409995
0.00041
0.00041
0.000409995
0.00041
0.00041
0.000410005
0.00041
0.00041
0.000410005
0.00041
0.000409995
0.00041
0.00041
0.000409995
0.00041
0.00041
0.000410005
0.00041
0.00041
0.000410005
0.00041
0.000409995
0.00041
0.00041
0.000409995
0.00041
0.00041
0.000410005
0.00041
0.00041
0.000410005
0.00041
0.000409995
0.00041
0.00041
0.000409995
0.000416164
0.000416704
0.000413688
0.000414492
0.000415722
0.000413547
0.000417976
0.000421026
0.00041337
0.000407212
0.000403742
0.000410533
0.000418199
0.000410064
0.000412467
0.000421721
0.000420177
0.000422414
0.000417774
0.000405096
0.000405164
0.000413063
0.000416941
0.000415723
0.000409079
0.00041386
0.000427511
0.000419293
0.00040773
0.000421217
0.000429897
0.000417642
0.000406271
0.000406772
0.000412344
0.000416625
0.000418061
0.000418425
0.000419292
0.000414354
0.000410004
0.000417782
0.000420214
0.000409656
0.000410906
0.000417269
0.000416688
0.000417974
0.000424965
0.000430083
0.000424465
0.000417694
0.000410216
0.000409427
0.000417608
0.000422858
0.000417812
0.000411812
0.000413471
0.000420546
0.000428956
0.000428731
0.000418897
0.000408117
0.000410119
0.000415058
0.000423325
0.0004299
0.000411047
0.000410542
0.000425536
0.000415891
0.000415103
0.000423228
0.000410561
0.000416492
0.000461967
0.000491486
0.000499077
0.000511115
0.00051386
0.000522985
0.000535417
0.000539758
0.000558613
0.000566617
0.000558681
0.000574497
0.000590982
0.000589154
0.000604452
0.000639525
0.000662928
0.000672831
0.00067884
0.000685124
0.000693657
0.000708577
0.000723694
0.00074132
0.000760889
0.000773114
0.000787309
0.000796971
0.000804717
0.000816336
0.000838353
0.000892516
0.000966471
0.00105033
0.00114279
0.00123581
0.00133467
0.00143197
0.00150869
0.00158509
0.00168297
0.00178105
0.00186862
0.00195795
0.00204827
0.00211572
0.00221146
0.00240759
0.00259831
0.00270591
0.0027815
0.00284282
0.00294052
0.00306116
0.00315064
0.00322538
0.00329917
0.00337149
0.00344285
0.00351347
0.00358245
0.00364917
0.00371376
0.00377746
0.00383996
0.00390122
0.0039613
0.00402056
0.00407929
0.0041377
0.00419495
0.00425074
0.00430507
0.00435816
0.00440982
0.00445983
0.00450795
0.00455485
0.00460098
0.00464675
0.00469212
0.00473731
0.00478147
0.00482548
0.00487053
0.00492699
0.00501031
0.00509465
0.0051523
0.00519897
0.00524635
0.00529427
0.00534336
0.00539315
0.00544363
0.00549476
0.00554629
0.00559762
0.00564869
0.00569921
0.005749
0.00579807
0.00584611
0.0058932
0.00593933
0.00598428
0.00602836
0.00607133
0.00611329
0.00615431
0.00619478
0.00623416
0.0062736
0.00631175
0.0063502
0.00638725
0.00642404
0.00645972
0.00649494
0.00652918
0.0065628
0.00659608
0.00662833
0.00666094
0.00669254
0.00672471
0.00675621
0.00678804
0.00681959
0.00685165
0.00688358
0.00691631
0.00694948
0.00698357
0.00701881
0.00705553
0.00709416
0.00713374
0.00717478
0.00721643
0.00725901
0.00730228
0.00734504
0.00739062
0.00743275
0.00749598
0.00757996
0.00764297
0.0076869
0.00773799
0.0077843
0.00783977
0.00788557
0.00793381
0.00796798
0.00796887
0.00816339
0.0083616
0.008394
0.00844171
0.00849862
0.00855755
0.00861808
0.008679
0.00874029
0.00880141
0.00886199
0.00892218
0.00898172
0.00904088
0.00909959
0.00915791
0.00921616
0.00927435
0.00933252
0.00939098
0.0094497
0.00950869
0.00956828
0.00962831
0.00968907
0.00975046
0.00981195
0.00987408
0.00993533
0.00999737
0.0100574
0.0101204
0.010178
0.0102433
0.010297
0.0103632
0.0104098
0.0104647
0.0104929
0.0105131
0.0105231
0.0105101
0.0105272
0.0105159
0.0105199
0.0105198
0.01052
0.01052
0.01052
0.01052
0.01052
0.0105198
0.0105198
0.0105198
0.0105195
0.0105197
0.0105191
0.01052
0.0105182
0.010521
0.0105164
0.0105225
0.0105123
0.0105365
0.0105126
0.010387
0.0105126
0.0106251
0.0105233
0.0105102
0.0105198
0.010512
0.0105178
0.0105169
0.0105184
0.0105184
0.0105186
0.0105184
0.010518
0.0105177
0.0105174
0.0105169
0.0105157
0.0105155
0.0105157
0.0105155
0.0105157
0.0105157
0.0105157
0.0105157
0.0105157
0.0105158
0.0105157
0.0105158
0.0105158
0.0105158
0.0105159
0.0105159
0.0105159
0.0105159
0.0105159
0.010516
0.010516
0.010516
0.0105161
0.0105162
0.0105162
0.0105162
0.0105163
0.0105162
0.0105163
0.0105164
0.0105164
0.0105164
0.0105164
0.0105165
0.0105165
0.0105165
0.0105166
0.0105167
0.0105166
0.0105167
0.0105167
0.0105167
0.0105167
0.0105169
0.010517
0.0105171
0.0105171
0.0105173
0.0105178
0.010518
0.0105183
0.0105186
0.0105188
0.0105194
0.0105191
0.0105201
0.0105187
0.0105218
0.0105177
0.0105251
0.0105158
0.0105264
0.0105124
0.0105403
0.0106164
0.0105107
0.0106216
0.0107062
0.0105208
0.0105103
0.010521
0.0105103
0.0105181
0.0105122
0.010518
0.0105162
0.0105194
0.0105171
0.010522
0.0105149
0.0105272
0.0105101
0.0105588
0.0106225
0.0105102
0.0106219
0.010711
0.0105366
0.0105104
0.0105242
0.0105101
0.0105198
0.0105187
0.0105211
0.0105218
0.0105214
0.0105235
0.0105209
0.0105258
0.0105199
0.0105289
0.010519
0.0105302
0.0105159
0.0105268
0.0105111
0.0105282
0.0105264
0.0105432
0.0105596
0.0105717
0.0105558
0.0102518
0.00949005
0.00811562
0.00597003
0.0025074
0.00040995
0.00041
0.00041
0.00040995
0.00041
0.00041005
0.00041
0.00041
0.00041005
0.00041
)
;

boundaryField
{
    inlet
    {
        type            calculated;
        value           uniform 0;
    }
    endWall
    {
        type            calculated;
        value           uniform 0;
    }
    sideWall
    {
        type            empty;
    }
}


// ************************************************************************* //
