/*--------------------------------*- C++ -*----------------------------------*\
| =========                 |                                                 |
| \\      /  F ield         | foam-extend: Open Source CFD                    |
|  \\    /   O peration     | Version:     3.2                                |
|   \\  /    A nd           | Web:         http://www.foam-extend.org         |
|    \\/     M anipulation  | For copyright notice see file Copyright         |
\*---------------------------------------------------------------------------*/
FoamFile
{
    version     2.0;
    format      ascii;
    class       areaScalarField;
    location    "1790";
    object      ddmax;
}
// * * * * * * * * * * * * * * * * * * * * * * * * * * * * * * * * * * * * * //

dimensions      [0 1 0 0 0 0 0];

internalField   nonuniform List<scalar> 
550
(
0.00041
0.00041
0.00041
0.00041
0.00041
0.00041
0.00041
0.00041
0.00041
0.00041
0.00041
0.00041
0.00041
0.00041
0.00041
0.00041
0.00041
0.00041
0.00041
0.00041
0.000410001
0.00041
0.00041
0.00041
0.00041
0.00041
0.00041
0.000410001
0.00041
0.00041
0.00041
0.00041
0.00041
0.00041
0.000410005
0.00041
0.00041
0.000410005
0.00041
0.00041
0.00041
0.00041
0.00041
0.00041
0.00041
0.000410005
0.00041
0.00041
0.000410005
0.00041
0.00041
0.00041
0.00041
0.00041
0.00041
0.00041
0.000410005
0.00041
0.00041
0.000410005
0.00041
0.00041
0.00041
0.00041
0.00041
0.00041
0.00041
0.000410005
0.00041
0.00041
0.000410005
0.00041
0.00041
0.00041
0.00041
0.00041
0.00041
0.00041
0.000410005
0.00041
0.00041
0.000410005
0.00041
0.00041
0.00041
0.00041
0.00041
0.00041
0.00041
0.000410005
0.00041
0.00041
0.000410005
0.00041
0.00041
0.00041
0.00041
0.00041
0.00041
0.00041
0.000410005
0.00041
0.00041
0.000410005
0.00041
0.00041
0.00041
0.00041
0.00041
0.000536935
0.000606908
0.000473954
0.000509755
0.000486577
0.000498555
0.000540511
0.000541964
0.000561676
0.000548664
0.000592609
0.000616583
0.00060248
0.00062975
0.000611795
0.000651772
0.000636222
0.000636262
0.000628499
0.000594667
0.000633682
0.000632996
0.000640019
0.000635034
0.000623864
0.000608621
0.000606197
0.000597452
0.00058458
0.000584916
0.000591087
0.000587648
0.000595148
0.000587234
0.000589561
0.000595212
0.000598666
0.000601592
0.000622664
0.000625864
0.000638682
0.00064576
0.000661671
0.0006763
0.000697657
0.000709037
0.000709845
0.000705839
0.000705397
0.000699344
0.000699222
0.000689986
0.000696955
0.000712817
0.000719675
0.000736177
0.000750315
0.000760798
0.000763176
0.000782584
0.000801044
0.000794229
0.000783519
0.000765221
0.000756385
0.000755987
0.000759905
0.000774473
0.000796786
0.000820126
0.000850222
0.00086744
0.000876701
0.000876208
0.000872262
0.000886678
0.000907441
0.000910104
0.000938356
0.000973923
0.000988923
0.000984309
0.00100366
0.00100998
0.000966471
0.000950139
0.00104484
0.00101635
0.00101272
0.0010347
0.0010177
0.00101964
0.00105517
0.00108304
0.00110483
0.00113425
0.00117263
0.00123999
0.0012274
0.00121334
0.001195
0.00123362
0.00124591
0.00127565
0.00130836
0.00131237
0.00129438
0.00131966
0.00135092
0.00137393
0.00141466
0.00145329
0.00151174
0.00156777
0.00162207
0.00167115
0.00177165
0.00189404
0.00200658
0.00205972
0.00213106
0.00220345
0.00242371
0.00259757
0.00271442
0.00282473
0.00291854
0.00298585
0.00304051
0.00308438
0.00316505
0.00323928
0.00331245
0.00338416
0.00345487
0.00352502
0.00359351
0.00365976
0.00372384
0.00378702
0.00384896
0.00390956
0.00396896
0.00402741
0.00408533
0.00414288
0.00419971
0.00425514
0.0043091
0.00436177
0.00441303
0.00446262
0.00451043
0.00455704
0.00460288
0.00464837
0.00469346
0.00473844
0.00478246
0.00482633
0.00487127
0.00492763
0.00501082
0.00509505
0.00515261
0.00519921
0.00524652
0.00529439
0.00534345
0.00539325
0.00544369
0.00549476
0.00554629
0.00559821
0.00565
0.00570132
0.00575337
0.00580605
0.00585742
0.00590879
0.00595868
0.00600868
0.00605692
0.00610592
0.00615256
0.00619998
0.00624519
0.00629042
0.00633378
0.00637662
0.00641785
0.00645807
0.0064969
0.00653434
0.00657101
0.0066057
0.00664109
0.00667701
0.00671175
0.00674624
0.00678104
0.00681471
0.00684815
0.00687977
0.00691219
0.00694269
0.00697473
0.00700505
0.00703785
0.00706916
0.00710355
0.00713713
0.00717384
0.00721096
0.0072504
0.00729104
0.0073348
0.00737927
0.00742332
0.00747007
0.00751342
0.00757767
0.00766267
0.00772661
0.00777155
0.00782346
0.00787063
0.00792689
0.0079734
0.00802243
0.00805722
0.00805872
0.00825375
0.00845228
0.008485
0.00853294
0.00859004
0.00864916
0.00870987
0.00877092
0.00883225
0.00889337
0.00895388
0.00901394
0.00907327
0.00913217
0.00919049
0.00924835
0.00930599
0.00936346
0.00942073
0.00947816
0.00953563
0.00959317
0.00965101
0.00970902
0.00976735
0.00982584
0.00988422
0.00994248
0.0100001
0.010057
0.0101127
0.0101675
0.0102198
0.0102718
0.0103196
0.0103827
0.0104276
0.0104803
0.0105045
0.0105168
0.0105238
0.0105192
0.0105281
0.0105196
0.0105199
0.0105198
0.01052
0.01052
0.01052
0.01052
0.01052
0.0105198
0.0105198
0.0105198
0.0105195
0.0105197
0.0105191
0.01052
0.0105182
0.010521
0.0105164
0.0105225
0.0105123
0.0105365
0.0105243
0.0104138
0.0105236
0.0106251
0.0105233
0.0105102
0.0105198
0.010512
0.0105178
0.0105169
0.0105184
0.0105184
0.0105186
0.0105184
0.010518
0.0105177
0.0105174
0.0105169
0.0105157
0.0105155
0.0105167
0.0105168
0.0105169
0.0105169
0.0105169
0.0105169
0.0105169
0.0105169
0.0105169
0.010517
0.010517
0.0105169
0.010517
0.010517
0.010517
0.010517
0.010517
0.0105171
0.0105171
0.010517
0.0105171
0.0105172
0.0105172
0.0105173
0.0105172
0.0105172
0.0105173
0.0105173
0.0105173
0.0105173
0.0105173
0.0105174
0.0105174
0.0105174
0.0105175
0.0105176
0.0105175
0.0105175
0.0105175
0.0105175
0.0105176
0.0105177
0.0105178
0.0105179
0.0105179
0.0105181
0.0105185
0.0105188
0.010519
0.0105193
0.0105195
0.01052
0.0105198
0.0105207
0.0105193
0.0105224
0.0105182
0.0105256
0.0105163
0.0105268
0.0105125
0.0105404
0.0106164
0.0105107
0.0106216
0.0107094
0.0105225
0.0105103
0.0105211
0.0105103
0.0105181
0.0105122
0.010518
0.0105162
0.0105194
0.0105171
0.010522
0.0105149
0.0105272
0.0105101
0.0105588
0.0106225
0.0105102
0.0106219
0.0107114
0.0105368
0.0105104
0.0105242
0.0105101
0.0105198
0.0105187
0.0105211
0.0105218
0.0105214
0.0105235
0.0105209
0.0105258
0.0105199
0.0105289
0.010519
0.0105302
0.0105159
0.0105268
0.0105256
0.010536
0.0105264
0.0105432
0.0105596
0.0105717
0.0105638
0.0102775
0.00955305
0.00821839
0.00611564
0.00263443
0.00041
0.00041
0.00041
0.00041
0.00041
0.00041005
0.00041
0.00041
0.00041005
0.00041
)
;

boundaryField
{
    inlet
    {
        type            calculated;
        value           uniform 0;
    }
    endWall
    {
        type            calculated;
        value           uniform 0;
    }
    sideWall
    {
        type            empty;
    }
}


// ************************************************************************* //
