/*--------------------------------*- C++ -*----------------------------------*\
| =========                 |                                                 |
| \\      /  F ield         | foam-extend: Open Source CFD                    |
|  \\    /   O peration     | Version:     3.2                                |
|   \\  /    A nd           | Web:         http://www.foam-extend.org         |
|    \\/     M anipulation  | For copyright notice see file Copyright         |
\*---------------------------------------------------------------------------*/
FoamFile
{
    version     2.0;
    format      ascii;
    class       areaScalarField;
    location    "1790";
    object      Fi1;
}
// * * * * * * * * * * * * * * * * * * * * * * * * * * * * * * * * * * * * * //

dimensions      [0 1 -1 0 0 0 0];

internalField   nonuniform List<scalar> 
550
(
4.99359e-08
4.56822e-08
3.06133e-08
-5.36178e-09
-4.91465e-08
-8.93944e-08
-1.26825e-07
-1.57933e-07
-1.80282e-07
-1.92937e-07
-1.96463e-07
-1.92377e-07
-1.8274e-07
-1.69511e-07
-1.54432e-07
-1.38846e-07
-1.23816e-07
-1.09977e-07
-9.80615e-08
-8.79973e-08
-7.91665e-08
-7.14916e-08
-6.48989e-08
-5.93364e-08
-5.47303e-08
-5.09631e-08
-4.79682e-08
-4.56493e-08
-4.36936e-08
-4.1878e-08
-4.02471e-08
-3.88222e-08
-3.75781e-08
-3.64917e-08
-3.55423e-08
-3.47152e-08
-3.3992e-08
-3.33548e-08
-3.27857e-08
-3.22678e-08
-3.17872e-08
-3.13329e-08
-3.08943e-08
-3.04673e-08
-3.00497e-08
-2.96447e-08
-2.92581e-08
-2.88939e-08
-2.85535e-08
-2.82373e-08
-2.79415e-08
-2.76601e-08
-2.73832e-08
-2.71013e-08
-2.68107e-08
-2.65099e-08
-2.62003e-08
-2.58942e-08
-2.55981e-08
-2.53156e-08
-2.50548e-08
-2.4814e-08
-2.45875e-08
-2.43702e-08
-2.41526e-08
-2.39273e-08
-2.36939e-08
-2.34497e-08
-2.32003e-08
-2.29514e-08
-2.27084e-08
-2.24831e-08
-2.22816e-08
-2.21069e-08
-2.19593e-08
-2.18317e-08
-2.17129e-08
-2.15948e-08
-2.14641e-08
-2.13129e-08
-2.11299e-08
-2.09057e-08
-2.06428e-08
-2.03488e-08
-2.00353e-08
-1.97207e-08
-1.94201e-08
-1.91476e-08
-1.89171e-08
-1.87356e-08
-1.8605e-08
-1.85152e-08
-1.84486e-08
-1.83937e-08
-1.83381e-08
-1.82716e-08
-1.8186e-08
-1.80729e-08
-1.79264e-08
-1.77503e-08
-1.75471e-08
-1.73287e-08
-1.7099e-08
-1.68664e-08
-1.66343e-08
-1.64133e-08
-1.61996e-08
-1.59502e-08
-1.58675e-08
-1.47098e-08
-1.31863e-08
-1.45356e-08
-1.45287e-08
-1.45547e-08
-1.41558e-08
-1.44896e-08
-1.54253e-08
1.4635e-07
4.89525e-08
-1.73757e-07
-1.32886e-08
-1.36096e-08
-1.24316e-08
-1.27303e-08
-1.3093e-08
-1.21902e-08
-1.33755e-08
1.39644e-07
5.18334e-08
-1.63578e-07
-1.14633e-08
-1.11962e-08
-1.09979e-08
-1.02755e-08
-1.04022e-08
-1.10963e-08
1.34062e-07
5.07061e-08
-1.54299e-07
-1.0226e-08
1.31886e-07
5.07484e-08
-1.49668e-07
-8.74723e-09
-8.44089e-09
-8.33178e-09
-8.0298e-09
-7.99908e-09
-7.49548e-09
-7.07525e-09
-7.49404e-09
-7.42487e-09
-6.39813e-09
-6.54412e-09
-6.68468e-09
-6.24782e-09
-5.94316e-09
-6.09017e-09
-6.16752e-09
-5.55835e-09
1.20209e-07
5.26394e-08
-1.30323e-07
-5.05914e-09
-4.94965e-09
-4.57327e-09
-4.1864e-09
-4.14755e-09
-4.15027e-09
-4.34329e-09
-4.14425e-09
-4.08495e-09
-3.395e-09
-3.03832e-09
-3.23857e-09
-3.40629e-09
-3.81372e-09
-2.26423e-09
-2.51416e-09
-3.49016e-09
-2.23468e-09
-2.35788e-09
-3.04025e-09
-1.67828e-09
-1.34055e-09
-2.66451e-09
-2.80842e-09
-1.83044e-09
-2.11267e-09
-1.49999e-09
-1.6848e-09
-1.86785e-09
-1.16714e-09
-2.02317e-09
-1.78992e-09
-5.68752e-10
-1.4923e-09
-1.80493e-09
-5.88694e-10
-8.19673e-10
-1.89315e-09
-1.74991e-09
-1.2498e-09
-9.57053e-10
-7.88949e-10
-6.32015e-10
-8.12976e-10
-6.62945e-10
-7.05287e-10
-8.78949e-10
-5.23869e-10
-6.50788e-10
-4.02582e-10
-1.43819e-10
1.85189e-10
6.74667e-10
7.97568e-10
3.8168e-10
5.63981e-10
2.10528e-10
3.97969e-10
2.32367e-10
4.23009e-10
2.64402e-10
1.16485e-10
5.42955e-10
4.53884e-10
4.76209e-10
3.52255e-10
3.34971e-10
2.5057e-10
2.81494e-10
1.64883e-10
2.42458e-10
1.07104e-10
1.84557e-10
6.09449e-11
1.27256e-10
2.4163e-11
1.01061e-10
-3.40781e-12
9.22738e-11
8.02085e-12
1.13533e-10
4.85536e-11
1.55421e-10
9.03366e-11
1.78551e-10
1.08889e-10
1.7943e-10
1.06395e-10
1.58968e-10
8.46662e-11
1.25212e-10
5.39261e-11
8.49134e-11
2.14039e-11
5.0791e-11
-3.2463e-12
2.72757e-11
-2.07166e-11
8.74879e-12
-3.37227e-11
1.58849e-12
-3.656e-11
-3.36153e-13
-3.53014e-11
-1.22355e-12
-3.65846e-11
-3.3136e-12
-3.42702e-11
3.04383e-12
-2.72026e-11
3.01915e-12
-2.61949e-11
6.68901e-12
-1.62764e-11
1.80184e-11
-5.25025e-12
2.23671e-11
-4.01032e-12
2.3314e-11
1.61151e-12
3.35581e-11
1.51677e-11
4.81856e-11
2.90566e-11
6.26852e-11
4.15621e-11
7.72079e-11
5.47386e-11
9.45298e-11
7.09278e-11
1.15315e-10
8.91447e-11
1.3412e-10
1.03161e-10
1.46964e-10
1.1274e-10
1.53662e-10
1.17923e-10
1.55039e-10
1.16289e-10
1.49719e-10
1.09751e-10
1.39254e-10
9.96693e-11
1.25094e-10
8.53077e-11
1.07972e-10
6.83231e-11
8.42993e-11
4.86157e-11
5.88177e-11
2.78371e-11
3.48711e-11
8.51798e-12
1.51754e-11
-1.15344e-11
-1.67442e-11
-4.00534e-11
-3.88764e-11
-6.0304e-11
-5.10178e-11
-7.13616e-11
-7.00556e-11
-8.27285e-11
-8.42217e-11
-1.01841e-10
-1.04292e-10
-1.21095e-10
-1.12984e-10
-1.26313e-10
-1.29002e-10
-1.41247e-10
-1.45395e-10
-1.51796e-10
-1.51484e-10
-1.52284e-10
-1.54167e-10
-1.56959e-10
-1.55052e-10
-1.62327e-10
-1.53129e-10
-1.54539e-10
-1.45971e-10
-1.44742e-10
-1.34435e-10
-1.30744e-10
-1.27958e-10
-1.25572e-10
-1.19294e-10
-1.14193e-10
-1.07004e-10
-1.01441e-10
-9.50807e-11
-8.98227e-11
-8.30668e-11
-7.56439e-11
-6.68318e-11
-5.79734e-11
-4.944e-11
-4.1377e-11
-3.4863e-11
-2.80639e-11
-2.53457e-11
-2.14593e-11
-2.19122e-11
-2.13925e-11
-2.04669e-11
-1.91557e-11
-2.05641e-11
-1.70681e-11
-1.89002e-11
-1.70709e-11
-1.72919e-11
-1.85982e-11
-1.95068e-11
-1.95871e-11
-2.49064e-11
9.05281e-10
3.19538e-10
2.5947e-09
2.89242e-10
2.31516e-09
1.57249e-09
2.01988e-09
2.09702e-09
2.26564e-09
2.37898e-09
2.50226e-09
2.60964e-09
2.72021e-09
2.82645e-09
2.93813e-09
3.0424e-09
3.13799e-09
3.3005e-09
3.30982e-09
3.65811e-09
3.35344e-09
4.11701e-09
3.20777e-09
5.31778e-09
2.25114e-09
1.93116e-09
-8.10653e-11
9.58763e-10
1.18316e-08
9.2187e-09
5.79381e-09
4.70732e-09
5.74807e-09
5.05733e-09
5.51309e-09
5.43534e-09
5.61942e-09
5.68494e-09
5.78635e-09
5.88956e-09
5.99629e-09
6.09589e-09
6.18627e-09
6.33509e-09
8.34729e-09
8.99024e-09
6.94061e-09
6.96687e-09
7.00746e-09
7.04996e-09
7.08732e-09
7.12451e-09
7.16142e-09
7.19516e-09
7.22878e-09
7.26386e-09
7.29693e-09
7.32922e-09
7.36134e-09
7.3921e-09
7.42635e-09
7.45374e-09
7.48214e-09
7.51771e-09
7.54609e-09
7.57416e-09
7.60905e-09
7.63712e-09
7.66747e-09
7.70401e-09
7.73663e-09
7.76774e-09
7.79882e-09
7.83593e-09
7.8745e-09
7.9064e-09
7.94e-09
7.98081e-09
8.01799e-09
8.05158e-09
8.08897e-09
8.12668e-09
8.16371e-09
8.1966e-09
8.2361e-09
8.27422e-09
8.30353e-09
8.34001e-09
8.38177e-09
8.42081e-09
8.46392e-09
8.49314e-09
8.53538e-09
8.58094e-09
8.6199e-09
8.67076e-09
8.6949e-09
8.78695e-09
8.74258e-09
8.99821e-09
8.67325e-09
9.33093e-09
8.44029e-09
9.79575e-09
8.68031e-09
1.08326e-08
1.16704e-08
2.34067e-09
1.51101e-08
1.29323e-08
2.68632e-09
1.60934e-08
1.08397e-08
9.17771e-09
1.02899e-08
9.30692e-09
1.00471e-08
9.50456e-09
9.92137e-09
9.65387e-09
1.0095e-08
9.57092e-09
1.06308e-08
2.60238e-09
3.56037e-09
1.58336e-08
9.769e-09
1.61994e-08
1.38247e-08
4.10427e-09
1.10974e-08
5.78894e-09
9.00527e-09
1.05045e-08
9.39026e-09
1.0005e-08
9.88022e-09
1.00837e-08
1.02702e-08
1.0235e-08
1.07541e-08
1.03644e-08
1.13625e-08
1.06389e-08
1.20242e-08
1.13993e-08
1.26893e-08
1.24163e-08
1.33714e-08
1.35058e-08
1.2881e-08
1.39392e-08
1.10336e-08
1.2145e-08
3.25596e-09
-5.32707e-11
-1.06077e-10
-4.53811e-11
-7.118e-11
8.50449e-08
1.10636e-07
4.52491e-08
3.97544e-08
3.51896e-08
3.95316e-08
4.49057e-08
4.84059e-08
4.87668e-08
4.62944e-08
4.05673e-08
)
;

boundaryField
{
    inlet
    {
        type            calculated;
        value           uniform 4.99359e-08;
    }
    endWall
    {
        type            calculated;
        value           uniform 4.0954e-08;
    }
    sideWall
    {
        type            empty;
    }
}


// ************************************************************************* //
