/*--------------------------------*- C++ -*----------------------------------*\
| =========                 |                                                 |
| \\      /  F ield         | foam-extend: Open Source CFD                    |
|  \\    /   O peration     | Version:     3.2                                |
|   \\  /    A nd           | Web:         http://www.foam-extend.org         |
|    \\/     M anipulation  | For copyright notice see file Copyright         |
\*---------------------------------------------------------------------------*/
FoamFile
{
    version     2.0;
    format      ascii;
    class       areaScalarField;
    location    "1790";
    object      Fi2;
}
// * * * * * * * * * * * * * * * * * * * * * * * * * * * * * * * * * * * * * //

dimensions      [0 1 -1 0 0 0 0];

internalField   nonuniform List<scalar> 
550
(
4.99359e-08
4.56822e-08
3.06134e-08
-5.36149e-09
-4.91457e-08
-8.93929e-08
-1.26823e-07
-1.57929e-07
-1.80277e-07
-1.92931e-07
-1.96456e-07
-1.9237e-07
-1.82734e-07
-1.69506e-07
-1.54428e-07
-1.38843e-07
-1.23813e-07
-1.09974e-07
-9.80582e-08
-8.79935e-08
-7.91623e-08
-7.14873e-08
-6.48948e-08
-5.93326e-08
-5.47269e-08
-5.09598e-08
-4.79646e-08
-4.56451e-08
-4.36885e-08
-4.18721e-08
-4.02407e-08
-3.88157e-08
-3.75719e-08
-3.64861e-08
-3.55376e-08
-3.47114e-08
-3.39892e-08
-3.33528e-08
-3.27844e-08
-3.22669e-08
-3.17866e-08
-3.13324e-08
-3.08937e-08
-3.04667e-08
-3.00491e-08
-2.96441e-08
-2.92578e-08
-2.8894e-08
-2.8554e-08
-2.82381e-08
-2.79426e-08
-2.76611e-08
-2.7384e-08
-2.71016e-08
-2.68103e-08
-2.6509e-08
-2.6199e-08
-2.58929e-08
-2.5597e-08
-2.53151e-08
-2.50549e-08
-2.48147e-08
-2.45886e-08
-2.43715e-08
-2.41538e-08
-2.39282e-08
-2.36944e-08
-2.34499e-08
-2.32003e-08
-2.29514e-08
-2.27088e-08
-2.2484e-08
-2.22833e-08
-2.21095e-08
-2.19625e-08
-2.18353e-08
-2.17166e-08
-2.15981e-08
-2.14664e-08
-2.1314e-08
-2.11294e-08
-2.09034e-08
-2.0639e-08
-2.03438e-08
-2.00296e-08
-1.9715e-08
-1.94149e-08
-1.91435e-08
-1.89145e-08
-1.87347e-08
-1.86058e-08
-1.85174e-08
-1.84517e-08
-1.83973e-08
-1.83418e-08
-1.82752e-08
-1.81891e-08
-1.80752e-08
-1.79278e-08
-1.7751e-08
-1.7547e-08
-1.73281e-08
-1.70981e-08
-1.68653e-08
-1.66334e-08
-1.64125e-08
-1.61989e-08
-1.59477e-08
-1.58518e-08
-1.47002e-08
-1.32096e-08
-1.456e-08
-1.45514e-08
-1.45796e-08
-1.42477e-08
-1.44374e-08
1.47249e-07
4.90421e-08
-1.74949e-07
-1.3735e-08
-1.31962e-08
1.44015e-07
5.1427e-08
-1.70265e-07
-1.3254e-08
-1.20597e-08
1.40789e-07
5.12415e-08
-1.64307e-07
-1.17275e-08
-1.13328e-08
-1.11774e-08
-1.09824e-08
-1.04207e-08
-1.04353e-08
1.34647e-07
5.04666e-08
-1.54953e-07
-1.05459e-08
1.3211e-07
5.04491e-08
-1.50843e-07
-9.08634e-09
-8.62875e-09
-8.45086e-09
-8.33866e-09
-8.11609e-09
-8.75711e-09
1.26443e-07
5.25542e-08
-1.41864e-07
-7.4461e-09
-6.28987e-09
-6.54775e-09
-6.68826e-09
-6.2485e-09
-5.94646e-09
-6.1919e-09
-6.18693e-09
1.20855e-07
5.25601e-08
-1.31327e-07
-5.10349e-09
-5.05194e-09
-4.96906e-09
1.17621e-07
5.31989e-08
-1.26318e-07
-4.17869e-09
-4.32277e-09
-4.15111e-09
1.1498e-07
5.32919e-08
-1.22083e-07
-3.26096e-09
-3.3148e-09
-3.8153e-09
-2.26582e-09
-2.51361e-09
-3.49008e-09
-2.23552e-09
-2.35928e-09
-3.04212e-09
-1.68042e-09
-1.33876e-09
-2.66175e-09
-2.80759e-09
-1.82913e-09
-2.11234e-09
-1.50005e-09
-1.68586e-09
-1.8687e-09
-1.167e-09
-2.02507e-09
-1.79083e-09
-5.68036e-10
-1.49479e-09
-1.80723e-09
-5.87708e-10
-8.20832e-10
-1.89734e-09
-1.752e-09
-1.24894e-09
-9.55589e-10
-7.87595e-10
-6.3106e-10
-8.12513e-10
-6.62288e-10
-7.05006e-10
-8.78958e-10
-5.23561e-10
-6.50807e-10
-4.02635e-10
-1.43664e-10
1.85717e-10
6.75909e-10
7.98508e-10
3.81754e-10
5.6393e-10
2.10306e-10
3.9758e-10
2.32146e-10
4.23511e-10
2.64397e-10
1.14996e-10
5.43004e-10
4.54326e-10
4.75813e-10
3.51648e-10
3.34208e-10
2.49691e-10
2.80483e-10
1.63843e-10
2.41533e-10
1.0617e-10
1.83638e-10
5.99987e-11
1.2623e-10
2.32296e-11
1.00257e-10
-4.01449e-12
9.19423e-11
7.91336e-12
1.13639e-10
4.87671e-11
1.55624e-10
9.04621e-11
1.78518e-10
1.08743e-10
1.79133e-10
1.05919e-10
1.58336e-10
8.39231e-11
1.24404e-10
5.31212e-11
8.41553e-11
2.07256e-11
5.01965e-11
-3.75375e-12
2.68368e-11
-2.10738e-11
8.52515e-12
-3.38065e-11
1.59688e-12
-3.64582e-11
-1.86544e-13
-3.51264e-11
-1.03078e-12
-3.63225e-11
-2.93337e-12
-3.37903e-11
3.45994e-12
-2.68582e-11
3.39619e-12
-2.57628e-11
7.17475e-12
-1.57652e-11
1.85026e-11
-4.84414e-12
2.26529e-11
-3.79631e-12
2.35212e-11
1.84016e-12
3.3808e-11
1.54084e-11
4.83848e-11
2.91983e-11
6.27606e-11
4.1578e-11
7.71871e-11
5.46982e-11
9.44772e-11
7.08515e-11
1.1519e-10
8.89461e-11
1.33852e-10
1.0282e-10
1.46562e-10
1.1229e-10
1.53166e-10
1.17372e-10
1.5442e-10
1.15611e-10
1.49013e-10
1.09003e-10
1.38476e-10
9.88422e-11
1.24242e-10
8.4421e-11
1.07066e-10
6.73963e-11
8.33674e-11
4.76839e-11
5.7893e-11
2.6929e-11
3.39796e-11
7.64457e-12
1.42956e-11
-1.24572e-11
-1.76157e-11
-4.08301e-11
-3.95533e-11
-6.08936e-11
-5.15202e-11
-7.18108e-11
-7.05084e-11
-8.3144e-11
-8.45628e-11
-1.02129e-10
-1.04506e-10
-1.21202e-10
-1.13044e-10
-1.26381e-10
-1.29013e-10
-1.4116e-10
-1.4518e-10
-1.51421e-10
-1.51052e-10
-1.51784e-10
-1.53633e-10
-1.56357e-10
-1.54368e-10
-1.6155e-10
-1.52237e-10
-1.5355e-10
-1.44946e-10
-1.43604e-10
-1.33323e-10
-1.29791e-10
-1.26977e-10
-1.24561e-10
-1.1826e-10
-1.13146e-10
-1.05971e-10
-1.00438e-10
-9.41157e-11
-8.88798e-11
-8.21395e-11
-7.47421e-11
-6.59854e-11
-5.72064e-11
-4.87601e-11
-4.0792e-11
-3.43806e-11
-2.77074e-11
-2.51218e-11
-2.13572e-11
-2.18645e-11
-2.13653e-11
-2.055e-11
-1.93026e-11
-2.07098e-11
-1.72279e-11
-1.90712e-11
-1.72807e-11
-1.75612e-11
-1.8948e-11
-1.9903e-11
-2.00255e-11
-2.53063e-11
9.0496e-10
3.19263e-10
2.59441e-09
2.88949e-10
2.31488e-09
1.57216e-09
2.01935e-09
2.09645e-09
2.26528e-09
2.3787e-09
2.50184e-09
2.60907e-09
2.71957e-09
2.8258e-09
2.93753e-09
3.04181e-09
3.13739e-09
3.29991e-09
3.30914e-09
3.65736e-09
3.35265e-09
4.11624e-09
3.20703e-09
5.31712e-09
2.2506e-09
1.93058e-09
-8.16484e-11
9.58441e-10
1.18316e-08
9.21864e-09
5.79374e-09
4.70723e-09
5.74799e-09
5.05728e-09
5.51315e-09
5.43551e-09
5.61958e-09
5.68506e-09
5.78657e-09
5.88993e-09
5.99675e-09
6.0964e-09
6.18679e-09
6.33561e-09
8.34738e-09
8.99012e-09
6.94085e-09
6.96716e-09
7.00778e-09
7.0503e-09
7.08763e-09
7.12478e-09
7.16164e-09
7.19535e-09
7.22896e-09
7.26403e-09
7.29708e-09
7.32934e-09
7.36142e-09
7.39215e-09
7.42637e-09
7.45374e-09
7.48212e-09
7.51768e-09
7.54604e-09
7.5741e-09
7.60896e-09
7.63702e-09
7.66737e-09
7.7039e-09
7.73653e-09
7.76764e-09
7.79871e-09
7.83583e-09
7.87442e-09
7.90635e-09
7.93998e-09
7.98081e-09
8.01799e-09
8.05158e-09
8.08897e-09
8.12668e-09
8.16371e-09
8.1966e-09
8.2361e-09
8.27423e-09
8.30353e-09
8.34e-09
8.38175e-09
8.42078e-09
8.46387e-09
8.49308e-09
8.5353e-09
8.58085e-09
8.61981e-09
8.67067e-09
8.69479e-09
8.78683e-09
8.74241e-09
8.99802e-09
8.67305e-09
9.33074e-09
8.4401e-09
9.7956e-09
8.68018e-09
1.08325e-08
1.16683e-08
2.33775e-09
1.51096e-08
1.29338e-08
2.68825e-09
1.60937e-08
1.08399e-08
9.17793e-09
1.02902e-08
9.30724e-09
1.00475e-08
9.50493e-09
9.92174e-09
9.65429e-09
1.00955e-08
9.57137e-09
1.06312e-08
2.60551e-09
3.56481e-09
1.58357e-08
9.77122e-09
1.62014e-08
1.38228e-08
4.10096e-09
1.1102e-08
5.79542e-09
9.00728e-09
1.05064e-08
9.3921e-09
1.00067e-08
9.88177e-09
1.00851e-08
1.02715e-08
1.02362e-08
1.07551e-08
1.03652e-08
1.1363e-08
1.06392e-08
1.20243e-08
1.13993e-08
1.26891e-08
1.2416e-08
1.3371e-08
1.35053e-08
1.28805e-08
1.39385e-08
1.1033e-08
1.21444e-08
3.25543e-09
-5.38781e-11
-1.06541e-10
-4.56871e-11
-7.14308e-11
8.50449e-08
1.10636e-07
4.52492e-08
3.97546e-08
3.51897e-08
3.95315e-08
4.49057e-08
4.84058e-08
4.87669e-08
4.62944e-08
4.05672e-08
)
;

boundaryField
{
    inlet
    {
        type            calculated;
        value           uniform 4.99359e-08;
    }
    endWall
    {
        type            calculated;
        value           uniform 4.0954e-08;
    }
    sideWall
    {
        type            empty;
    }
}


// ************************************************************************* //
