/*--------------------------------*- C++ -*----------------------------------*\
| =========                 |                                                 |
| \\      /  F ield         | foam-extend: Open Source CFD                    |
|  \\    /   O peration     | Version:     3.2                                |
|   \\  /    A nd           | Web:         http://www.foam-extend.org         |
|    \\/     M anipulation  | For copyright notice see file Copyright         |
\*---------------------------------------------------------------------------*/
FoamFile
{
    version     2.0;
    format      ascii;
    class       areaScalarField;
    location    "1790";
    object      Hdep;
}
// * * * * * * * * * * * * * * * * * * * * * * * * * * * * * * * * * * * * * //

dimensions      [0 0 0 0 0 0 0];

internalField   nonuniform List<scalar> 
550
(
0
0
0
0
0
0
0
0
0
0
0
0
0
0
0
0
0
0
0
0
0
0
0
0
0
0
0
0
0
0
0
0
0
0
0
0
0
0
0
0
0
0
0
0
0
0
0
0
0
0
0
0
0
0
0
0
0
0
0
0
0
0
0
0
0
0
0
0
0
0
0
0
0
0
0
0
0
0
0
0
0
0
0
0
0
0
0
0
0
0
0
0
0
0
0
0
0
0
0
0
0
0
0
0
0
0
0
0
0
0
1.94759e-05
8.31691e-06
1.22088e-05
1.50418e-05
7.18095e-06
8.22823e-06
9.88377e-06
8.15599e-06
0
0
8.15566e-06
1.81719e-05
1.9158e-06
2.00472e-05
2.19022e-05
8.03859e-06
1.60172e-05
7.94363e-06
0
0
7.91636e-06
7.86288e-06
9.90803e-06
0
9.7883e-06
2.32041e-05
9.70899e-06
0
2.49577e-05
2.28389e-05
9.66043e-06
0
0
9.63389e-06
7.48737e-06
9.62593e-06
9.59887e-06
9.64353e-06
7.41708e-06
2.2422e-06
1.97995e-05
1.7014e-05
0
2.20111e-05
1.69337e-05
1.28443e-05
1.33911e-05
1.74825e-05
1.92205e-05
1.43965e-05
9.55367e-06
2.37968e-06
0
9.53531e-06
1.42017e-05
9.5151e-06
2.44307e-06
1.65464e-05
1.40558e-05
1.94763e-05
1.84754e-05
9.45876e-06
0
1.82899e-05
9.37274e-06
1.22729e-05
2.50047e-05
2.52261e-06
3.17458e-05
2.98243e-05
9.36825e-06
2.55681e-06
3.64834e-05
2.58369e-06
0.000140568
0.00015264
0.000171418
0.000293739
0.000300881
0.00171043
0.00175113
0.00174525
0.00165294
0.00160383
0.00161027
0.00222475
0.00354719
0.0047692
0.00471269
0.00536069
0.00524512
0.00432187
0.0266833
0.0267623
0.0415535
0.0403762
0.0387165
0.0380066
0.0348785
0.0323911
0.0292018
0.0428877
0.0435376
0.0425474
0.0347472
0.0267118
0.025468
0.0191343
0.0150363
0.0111233
0.0084066
0.00696521
0.00595505
0.00526636
0.00461787
0.00436575
0.00443104
0.00438926
0.00406257
0.00402999
0.00401908
0.00405277
0.00394558
0.00394631
0.00396304
0.00404784
0.00411795
0.00438072
0.00453102
0.00474067
0.00485553
0.00494982
0.00489754
0.00493001
0.00490545
0.00495404
0.0049882
0.00503763
0.00510327
0.00514797
0.005218
0.00526275
0.00534889
0.00537913
0.00547782
0.00550729
0.00561609
0.00564462
0.00575352
0.00577472
0.00589851
0.00590926
0.00603185
0.00603432
0.00616393
0.00616902
0.00629072
0.00630848
0.00640497
0.00644898
0.00655853
0.00660002
0.00672337
0.00675922
0.00685792
0.00690249
0.00697872
0.00702431
0.00709481
0.00713815
0.00720294
0.00724561
0.00731757
0.00735409
0.0074241
0.0074588
0.00752316
0.0075493
0.00762169
0.00764354
0.00771288
0.00773388
0.00779182
0.00781222
0.00786822
0.00788121
0.00793261
0.00793813
0.0079889
0.0079819
0.00804265
0.0080339
0.00809624
0.00808476
0.00813476
0.00811647
0.00816063
0.00814116
0.00818053
0.00816256
0.00819868
0.00818272
0.00822414
0.00821051
0.00825346
0.00824407
0.00828837
0.00828908
0.00833472
0.00834664
0.00839477
0.0084203
0.00846829
0.00850314
0.00855559
0.00859809
0.00864896
0.00869515
0.00875403
0.00880487
0.00887502
0.00896701
0.00901437
0.00909368
0.00916536
0.00921913
0.00929434
0.00934027
0.00940199
0.00943415
0.00943501
0.00964163
0.00986722
0.00989793
0.00996481
0.0100153
0.0100888
0.0101419
0.0102081
0.0102651
0.0103321
0.0103952
0.0104616
0.0105226
0.0105897
0.0106456
0.0107114
0.0107607
0.0108272
0.0108737
0.0109417
0.0109858
0.0110559
0.0110978
0.0111662
0.0112092
0.0112755
0.0113099
0.0113844
0.0114127
0.011493
0.0115171
0.0115988
0.0116245
0.0117059
0.0117318
0.0117996
0.0117969
0.0118063
0.0116758
0.0113089
0.0109578
0.0108305
0.0108035
0.0108023
0.0108004
0.0107988
0.0107964
0.0107946
0.0107923
0.0107909
0.0107892
0.0107878
0.0107856
0.0107838
0.0107815
0.0107797
0.0107773
0.0107754
0.010773
0.0107715
0.0107696
0.0107681
0.0107665
0.0107659
0.0107744
0.0110508
0.0107658
0.010761
0.0107591
0.0107575
0.0107558
0.0107543
0.0107521
0.0107498
0.0107479
0.0107452
0.0107433
0.0107415
0.0107401
0.0107392
0.0107388
0.0107389
0.0107384
0.0107345
0.0107333
0.0107338
0.0107345
0.0107356
0.010737
0.0107384
0.0107398
0.0107412
0.0107434
0.0107454
0.0107466
0.0107485
0.0107499
0.0107526
0.0107548
0.0107581
0.0107606
0.0107638
0.0107662
0.0107699
0.0107731
0.0107773
0.0107811
0.0107856
0.0107893
0.0107938
0.0107976
0.0108019
0.0108049
0.0108084
0.0108107
0.0108135
0.0108151
0.0108173
0.0108186
0.0108203
0.0108211
0.0108225
0.0108228
0.0108234
0.010823
0.0108234
0.0108222
0.0108215
0.0108192
0.0108174
0.0108144
0.0108118
0.0108074
0.0108036
0.0107972
0.0107897
0.0107811
0.0107742
0.0107678
0.0107638
0.0107592
0.0107563
0.0107533
0.0107509
0.0107475
0.0107464
0.0107608
0.0107782
0.0107397
0.0107396
0.0107395
0.0107399
0.0107417
0.0107432
0.0107451
0.0107483
0.0107511
0.0107552
0.0107578
0.0107613
0.0107646
0.0107695
0.0107744
0.0107811
0.0107868
0.0107977
0.01082
0.0108012
0.0108057
0.0108085
0.0108105
0.0108118
0.0108131
0.0108143
0.0108146
0.0108147
0.0108157
0.0108168
0.0108178
0.0108194
0.0108211
0.0108227
0.0108195
0.0108193
0.0108131
0.0108131
0.0108032
0.0108043
0.0107863
0.0107993
0.0107901
0.0108124
0.0108061
0.0108331
0.0114571
0.0108877
0.00861665
0.00662001
0
0
0
0
0
0
0
0
0
0
0
)
;

boundaryField
{
    inlet
    {
        type            calculated;
        value           uniform 0;
    }
    endWall
    {
        type            calculated;
        value           uniform 0;
    }
    sideWall
    {
        type            empty;
    }
}


// ************************************************************************* //
