/*--------------------------------*- C++ -*----------------------------------*\
| =========                 |                                                 |
| \\      /  F ield         | foam-extend: Open Source CFD                    |
|  \\    /   O peration     | Version:     3.2                                |
|   \\  /    A nd           | Web:         http://www.foam-extend.org         |
|    \\/     M anipulation  | For copyright notice see file Copyright         |
\*---------------------------------------------------------------------------*/
FoamFile
{
    version     2.0;
    format      ascii;
    class       surfaceScalarField;
    location    "1790";
    object      meshPhi;
}
// * * * * * * * * * * * * * * * * * * * * * * * * * * * * * * * * * * * * * //

dimensions      [0 3 -1 0 0 0 0];

internalField   nonuniform List<scalar> 
65390
(
0
0
0
0
0
0
0
0
0
0
0
0
0
0
0
0
0
0
0
0
0
0
0
0
0
0
0
0
0
0
0
0
0
0
0
0
0
0
0
0
0
0
0
0
0
0
0
0
0
0
0
0
0
0
0
0
0
0
0
0
0
0
0
0
0
0
0
0
0
0
0
0
0
0
0
0
0
0
0
0
0
0
0
0
0
0
0
0
0
0
0
0
0
0
0
0
0
0
0
0
0
0
8.02471e-35
1.3142e-20
0
5.2565e-20
0
5.25679e-20
0
6.57099e-20
0
3.94216e-20
0
3.94216e-20
0
6.57388e-20
0
1.05124e-19
0
1.31405e-19
-1.85037e-18
1.83967e-19
0
1.83967e-19
0
2.3653e-19
0
3.68137e-19
0
4.07356e-19
-2.40741e-33
4.99025e-19
1.85037e-18
6.30745e-19
0
7.3587e-19
1.85037e-18
8.28309e-19
-3.85186e-33
9.06697e-19
-1.85037e-18
9.19837e-19
0
8.27853e-19
0
5.91324e-19
0
1.44546e-19
1.85037e-18
-6.57388e-19
0
-1.91852e-18
0
-3.73191e-18
-3.12964e-32
-6.25489e-18
1.85037e-18
-9.60573e-18
0
-1.37263e-17
0
-1.8423e-17
-1.85037e-18
-2.30479e-17
1.12025e-31
-2.6373e-17
0
-2.60183e-17
1.85037e-18
-1.79894e-17
0
3.75369e-18
-1.85037e-18
4.7871e-17
7.10588e-31
1.2567e-16
1.85037e-18
2.5038e-16
-3.70074e-18
4.35281e-16
-3.40448e-30
6.90619e-16
1.85037e-18
1.01946e-15
-3.70074e-18
1.42452e-15
0
1.92545e-15
-1.85037e-18
2.61751e-15
1.85037e-18
3.7928e-15
-5.55112e-18
6.16102e-15
1.85037e-18
1.11414e-14
1.85037e-18
2.12048e-14
-3.70075e-18
3.97727e-14
0
6.97749e-14
-1.85038e-18
1.08433e-13
-1.85038e-18
1.32053e-13
-1.85039e-18
5.69988e-14
3.7008e-18
-3.85238e-13
3.70088e-18
-1.93137e-12
-1.85056e-18
-1.08588e-11
-1.85083e-18
1.42313e-11
1.84956e-18
-1.97791e-09
0
-3.21002e-08
-3.68578e-18
-9.09741e-08
-3.18273e-24
-1.26655e-07
0
-1.3176e-07
0
-1.31026e-07
0
-1.29908e-07
0
-1.30255e-07
0
-1.0751e-07
-3.64696e-18
2.40843e-07
-3.64535e-18
6.72559e-07
-3.64224e-18
1.51377e-07
-3.63917e-18
-6.28699e-07
3.94214e-22
-4.74288e-07
-3.63909e-18
-1.40251e-07
0
-1.15207e-07
0
-1.15548e-07
0
-1.13282e-07
3.63464e-18
-9.12012e-08
3.63427e-18
2.38778e-07
-3.63608e-18
6.54371e-07
0
1.6661e-07
-7.26929e-18
-5.54807e-07
5.72409e-22
-9.11653e-08
3.63248e-18
6.24227e-07
3.63446e-18
1.67576e-07
-3.63409e-18
-5.60548e-07
3.63151e-18
-4.23724e-07
3.63598e-18
-9.61639e-08
3.63452e-18
-4.84284e-08
0
-6.58945e-08
7.27116e-18
-6.79728e-08
3.63869e-18
2.38551e-07
0
6.25538e-07
0
1.73163e-07
3.64081e-18
-5.17093e-07
-3.64249e-18
-3.87643e-07
-3.64305e-18
-9.64621e-08
3.64477e-18
-7.324e-08
7.28768e-18
-7.16415e-08
0
-6.87285e-08
0
-4.69555e-08
7.29318e-18
2.42835e-07
0
6.10847e-07
0
1.8894e-07
-1.09482e-17
-4.67695e-07
3.65204e-18
-3.51896e-07
-3.65233e-18
-7.69088e-08
7.31038e-18
-5.4783e-08
-2.76032e-24
-5.48762e-08
3.65701e-18
-5.42061e-08
-3.65742e-18
-3.2969e-08
-3.65923e-18
2.43597e-07
0
5.95274e-07
3.66252e-18
1.99964e-07
4.43434e-22
-4.24441e-07
7.32649e-18
-3.19874e-07
3.66516e-18
-6.06058e-08
-3.6668e-18
-3.85846e-08
3.711e-25
-3.78164e-08
0
-3.83563e-08
-2.91245e-22
-2.09772e-08
0
2.41114e-07
-3.6709e-18
5.7999e-07
-3.67424e-18
2.08863e-07
-4.25982e-22
-3.8717e-07
0
-2.91887e-07
-7.34812e-18
-4.93063e-08
0
-2.96196e-08
0
-2.50782e-08
-7.35412e-18
-2.46751e-08
2.09223e-24
-2.62944e-08
-3.68225e-18
-2.36097e-08
0
-2.27634e-08
-2.49761e-24
-2.25935e-08
-6.67076e-24
-1.78298e-08
-3.68414e-18
-1.6462e-08
-3.68063e-18
-2.12793e-08
0
-2.26682e-08
-8.92415e-25
-1.95919e-08
3.68471e-18
-1.72129e-08
0
-1.55614e-08
0
-1.52912e-08
7.3743e-18
-1.49301e-08
3.68898e-18
-1.43182e-08
-3.68593e-18
-1.56616e-08
2.89415e-24
-1.38793e-08
-3.69092e-18
-1.04585e-08
0
-1.20709e-08
0
-1.25815e-08
-3.69252e-18
-8.9743e-09
0
-9.64284e-09
-3.86161e-24
-1.41293e-08
3.322e-25
-1.48209e-08
3.69204e-18
-1.18638e-08
0
-9.0641e-09
0
-7.28164e-09
7.38783e-18
-6.57593e-09
3.69306e-18
-6.6265e-09
0
-6.49667e-09
3.69358e-18
-6.70123e-09
-3.69449e-18
-6.72122e-09
3.69515e-18
-5.86861e-09
3.69464e-18
-5.02396e-09
-3.6964e-18
-3.56591e-09
-7.39263e-18
-1.10455e-09
0
2.04601e-09
3.69973e-18
5.121e-09
0
5.88937e-09
-7.40075e-18
4.84745e-09
7.39937e-18
3.91789e-09
0
3.17341e-09
-7.40144e-18
2.84657e-09
0
2.92474e-09
7.39793e-18
3.00083e-09
-7.40429e-18
2.46707e-09
-7.40255e-18
2.46958e-09
0
3.71359e-09
7.40049e-18
4.31173e-09
-1.48053e-17
3.987e-09
0
3.45053e-09
-7.39789e-18
2.91202e-09
0
2.54966e-09
0
2.23402e-09
7.38976e-18
1.95282e-09
3.23912e-27
1.72624e-09
7.39976e-18
1.46715e-09
0
1.22905e-09
-7.40997e-18
9.95525e-10
4.87063e-26
7.85219e-10
1.47982e-17
6.38229e-10
7.40094e-18
5.16441e-10
0
4.35125e-10
0
4.37612e-10
-7.40193e-18
5.09698e-10
0
6.47151e-10
-3.10193e-27
8.31032e-10
-7.40073e-18
1.01757e-09
0
1.16504e-09
8.95294e-26
1.26099e-09
-7.40171e-18
1.30651e-09
-9.16101e-26
1.30414e-09
-7.40174e-18
1.25447e-09
-7.40103e-18
1.16014e-09
0
1.0357e-09
0
8.9007e-10
0
7.29414e-10
-7.40102e-18
5.6508e-10
0
4.12945e-10
0
2.79097e-10
-7.40156e-18
1.68392e-10
-7.40101e-18
7.42373e-11
0
-8.48859e-12
7.40114e-18
-8.0222e-11
0
-1.27314e-10
-7.40122e-18
-1.51725e-10
7.4016e-18
-1.63451e-10
0
-1.65911e-10
0
-1.65976e-10
4.50593e-27
-1.7093e-10
-7.40165e-18
-1.78497e-10
7.40345e-18
-1.78127e-10
0
-1.59523e-10
7.39837e-18
-1.30532e-10
0
-1.14192e-10
-7.4015e-18
-1.10518e-10
-7.40152e-18
-9.95341e-11
7.40147e-18
-6.92657e-11
0
-2.21616e-11
-3.2468e-26
2.76457e-11
0
6.27965e-11
-7.40137e-18
7.73144e-11
0
8.40655e-11
4.57213e-26
9.99109e-11
0
1.35644e-10
-7.40119e-18
1.89181e-10
-7.4016e-18
2.52591e-10
7.40116e-18
3.17652e-10
-7.40158e-18
3.82451e-10
0
4.44593e-10
0
5.06894e-10
0
5.70234e-10
-7.40154e-18
6.39765e-10
-7.40105e-18
7.16144e-10
0
8.00191e-10
-7.40105e-18
8.88644e-10
0
9.73577e-10
-7.40102e-18
1.04799e-09
-1.67922e-26
1.10988e-09
7.40074e-18
1.16112e-09
7.40212e-18
1.19884e-09
7.40039e-18
1.2268e-09
7.40245e-18
1.24132e-09
7.40018e-18
1.24133e-09
6.3702e-27
1.22629e-09
-7.40011e-18
1.19968e-09
0
1.16161e-09
0
1.11584e-09
0
1.06041e-09
7.40046e-18
9.9612e-10
-7.40228e-18
9.249e-10
7.40073e-18
8.47018e-10
-7.402e-18
7.55798e-10
1.48017e-17
6.57005e-10
-7.40182e-18
5.54428e-10
7.40112e-18
4.49643e-10
-7.40174e-18
3.4786e-10
-7.40129e-18
2.49834e-10
0
1.6042e-10
0
6.83293e-11
7.40167e-18
-4.91315e-11
7.40154e-18
-1.8401e-10
-7.40177e-18
-3.00121e-10
-4.04332e-26
-3.97241e-10
-7.40192e-18
-4.71541e-10
0
-5.27441e-10
3.89119e-26
-5.95247e-10
0
-6.63758e-10
0
-7.24053e-10
0
-8.00343e-10
7.40043e-18
-8.88669e-10
0
-9.76975e-10
-1.77669e-26
-1.04079e-09
7.39828e-18
-1.07612e-09
5.91358e-27
-1.12557e-09
-7.40351e-18
-1.19433e-09
0
-1.26566e-09
7.40656e-18
-1.32711e-09
0
-1.36608e-09
-7.40904e-18
-1.38281e-09
7.39133e-18
-1.39248e-09
7.40446e-18
-1.40797e-09
0
-1.42161e-09
0
-1.43608e-09
0
-1.44315e-09
-7.40306e-18
-1.424e-09
1.39078e-26
-1.39053e-09
-7.40166e-18
-1.3523e-09
0
-1.30436e-09
7.40145e-18
-1.24756e-09
7.40146e-18
-1.20098e-09
7.40134e-18
-1.17329e-09
0
-1.14082e-09
0
-1.09586e-09
-7.40138e-18
-1.0425e-09
-7.4014e-18
-9.85777e-10
7.40145e-18
-9.30091e-10
2.417e-27
-8.75616e-10
1.48027e-17
-8.21324e-10
7.40148e-18
-7.61373e-10
-1.48028e-17
-6.921e-10
7.40145e-18
-6.14935e-10
-7.40149e-18
-5.35217e-10
0
-4.57167e-10
0
-3.85542e-10
-7.40146e-18
-3.21473e-10
1.42263e-26
-2.68751e-10
-7.40152e-18
-2.30988e-10
7.40139e-18
-2.07158e-10
0
-1.97922e-10
4.19551e-27
-1.9335e-10
0
-1.84872e-10
-7.40045e-18
-1.79241e-10
7.40298e-18
-1.74302e-10
7.39882e-18
-1.66173e-10
8.55781e-27
-1.61903e-10
-1.55092e-26
-1.58144e-10
-1.48212e-17
-1.57793e-10
0
-1.65099e-10
2.40336e-26
-1.72428e-10
7.38111e-18
-1.83219e-10
7.42028e-18
-1.50394e-10
7.38071e-18
-5.86178e-11
7.4175e-18
-3.6905e-12
-1.36846e-27
2.23389e-14
7.40553e-18
-2.6975e-14
7.40039e-18
-8.99863e-15
-7.40154e-18
-4.72583e-15
7.40125e-18
-2.73617e-15
-7.40142e-18
-1.72827e-15
-7.40133e-18
-1.16105e-15
-7.40141e-18
-8.24925e-16
1.77494e-29
-6.21563e-16
7.40145e-18
-5.02882e-16
-7.40145e-18
-4.46315e-16
-7.40139e-18
-4.4305e-16
7.40136e-18
-4.95523e-16
0
-6.20015e-16
-1.48024e-17
-8.54163e-16
1.4804e-17
-1.27648e-15
7.40032e-18
-2.05929e-15
0
-3.6015e-15
-1.47955e-17
-7.04511e-15
-7.40734e-18
-1.51358e-14
7.39212e-18
-6.12092e-14
-7.41774e-18
1.46267e-13
-7.37612e-18
-1.20066e-11
0
-1.8245e-10
7.44766e-18
-3.4036e-10
7.35383e-18
-1.82121e-10
-7.40711e-18
-1.18191e-11
0
1.45718e-13
7.39288e-18
-6.04063e-14
-7.40641e-18
-1.50397e-14
0
-6.97273e-15
-1.48045e-17
-3.5511e-15
0
-2.00222e-15
-1.48029e-17
-1.20936e-15
-7.40146e-18
-7.66951e-16
7.40134e-18
-5.05235e-16
0
-3.42415e-16
-7.40139e-18
-2.37403e-16
-7.40149e-18
-1.67484e-16
-7.40136e-18
-1.19633e-16
-1.18429e-30
-8.64286e-17
-7.40169e-18
-6.29645e-17
7.40128e-18
-4.61873e-17
-7.4015e-18
-3.40603e-17
-7.40143e-18
-2.52371e-17
0
-1.87433e-17
1.94358e-31
-1.39651e-17
-7.40145e-18
-1.04303e-17
7.40143e-18
-7.79562e-18
7.40144e-18
-5.83432e-18
1.48029e-17
-4.3758e-18
7.40145e-18
-3.28842e-18
7.40144e-18
-2.46385e-18
-7.40146e-18
-1.84953e-18
0
-1.38633e-18
1.48029e-17
-1.04525e-18
7.40141e-18
-7.88432e-19
0
-5.84754e-19
0
-4.36923e-19
0
-3.25228e-19
-7.06174e-33
-2.4652e-19
-1.48029e-17
-1.83967e-19
1.48028e-17
-1.51116e-19
-1.48029e-17
-1.05124e-19
2.96058e-17
-7.88432e-20
0
-5.91324e-20
0
-5.2591e-20
0
-1.97108e-20
0
-1.31405e-20
0
-1.97108e-20
-6.41977e-34
-1.97108e-20
0
-6.57388e-21
0
0
0
0
0
0
0
0
0
0
0
0
0
0
0
0
0
0
0
0
0
0
0
0
0
0
0
0
0
0
0
0
0
0
0
0
0
0
0
0
0
0
0
0
0
0
0
0
0
0
0
0
0
0
0
0
0
0
0
0
0
0
0
0
1.47701e-17
-2.62955e-20
0
-2.62811e-20
-1.28395e-33
-3.94216e-20
-1.28395e-33
-3.94216e-20
1.48343e-17
-3.94216e-20
0
-6.57027e-20
0
-6.57388e-20
-1.48279e-17
-9.19837e-20
0
-1.44546e-19
0
-1.70827e-19
-1.4796e-17
-2.3653e-19
-1.48066e-17
-3.15546e-19
-1.48013e-17
-4.07356e-19
1.4802e-17
-5.25621e-19
0
-7.62151e-19
1.4794e-17
-9.9868e-19
-1.48199e-17
-1.30091e-18
6.54816e-32
-1.74865e-18
-1.48586e-17
-2.32587e-18
0
-3.11431e-18
0
-4.17869e-18
0
-5.49274e-18
1.4683e-17
-7.42848e-18
0
-9.94738e-18
0
-1.31537e-17
0
-1.7582e-17
-8.7694e-31
-2.35347e-17
1.47947e-17
-3.15241e-17
1.48065e-17
-4.23884e-17
-1.48008e-17
-5.70299e-17
1.48042e-17
-7.69378e-17
-1.48012e-17
-1.04264e-16
0
-1.41576e-16
1.47984e-17
-1.93732e-16
-1.00546e-29
-2.66332e-16
0
-3.69822e-16
-2.96424e-17
-5.18339e-16
1.47769e-17
-7.37736e-16
-1.48376e-17
-1.06504e-15
-1.47579e-17
-1.58052e-15
1.48588e-17
-2.39881e-15
1.54087e-28
-3.81422e-15
1.48836e-17
-6.34059e-15
0
-1.15441e-14
-1.48994e-17
-2.28036e-14
1.47075e-17
-6.70112e-14
-3.38292e-27
1.44762e-16
0
-7.61917e-12
0
-1.34473e-10
-1.46483e-17
-4.68303e-10
0
-6.81454e-10
0
-6.04599e-10
1.47985e-17
-4.29932e-10
1.58481e-17
-1.81091e-10
1.47904e-17
-1.59859e-11
-2.96177e-17
1.17595e-13
-1.48047e-17
-9.55275e-14
1.48036e-17
-2.88315e-14
0
-1.4215e-14
0
-7.59675e-15
1.4803e-17
-4.32071e-15
-1.4803e-17
-2.46789e-15
1.4803e-17
-1.279e-15
-3.96418e-16
0
0
0
0
0
0
0
0
0
0
0
0
0
0
0
0
0
0
0
0
0
0
0
0
0
0
0
0
0
0
0
0
0
0
0
0
0
0
0
0
0
0
0
0
0
0
0
0
0
0
0
0
0
0
0
0
0
0
0
0
0
0
0
0
0
0
0
0
0
0
0
0
0
0
0
0
0
0
0
0
0
0
0
0
0
0
0
0
0
0
0
0
0
0
0
0
9.25186e-19
1.05136e-19
0
2.10272e-19
9.25186e-19
1.05136e-19
-1.85037e-18
2.10272e-19
-5.6173e-34
2.62825e-19
1.85037e-18
2.6284e-19
0
3.67975e-19
1.85037e-18
5.78183e-19
1.85037e-18
6.30745e-19
1.85037e-18
8.41457e-19
-4.65433e-33
1.1038e-18
3.70074e-18
1.41918e-18
-7.22224e-33
1.78711e-18
0
2.28645e-18
1.85037e-18
2.89092e-18
0
3.54989e-18
1.85037e-18
4.33638e-18
0
5.28249e-18
-2.51976e-32
6.30745e-18
0
7.33242e-18
0
8.28309e-18
0
8.96184e-18
-1.85037e-18
9.11953e-18
-2.77655e-32
8.27853e-18
1.85037e-18
5.9658e-18
1.85037e-18
1.34033e-18
0
-6.54758e-18
-1.85037e-18
-1.89486e-17
1.74939e-31
-3.71089e-17
3.70074e-18
-6.23124e-17
0
-9.56105e-17
0
-1.36816e-16
-1.85037e-18
-1.83744e-16
1.85037e-18
-2.3038e-16
1.00694e-30
-2.63625e-16
-1.85037e-18
-2.60077e-16
1.85037e-18
-1.80485e-16
1.85037e-18
3.54194e-17
-2.78794e-30
4.74124e-16
1.85037e-18
1.24836e-15
0
2.4906e-15
-1.85037e-18
4.3326e-15
1.85037e-18
6.87846e-15
4.38939e-29
1.01572e-14
0
1.41945e-14
0
1.91778e-14
0
2.60358e-14
0
3.76387e-14
-2.80798e-28
6.09774e-14
0
1.10065e-13
1.85039e-18
2.09353e-13
-1.86762e-27
3.92852e-13
3.18444e-27
6.90235e-13
1.85043e-18
1.07635e-12
0
1.32438e-12
-1.85051e-18
6.28948e-13
-1.85061e-18
-3.50799e-12
3.70205e-18
-1.92287e-11
0
-7.75263e-11
-1.85348e-18
-3.44787e-10
1.85449e-18
-4.75131e-09
0
-3.47437e-08
0
-8.85684e-08
0
-1.23345e-07
0
-1.30659e-07
0
-1.30391e-07
0
-1.29128e-07
0
-1.2673e-07
-3.68098e-18
-7.79057e-08
-3.67293e-18
2.45339e-07
0
5.82882e-07
0
1.27264e-07
0
-5.4193e-07
0
-4.54978e-07
-3.66432e-18
-1.67059e-07
0
-1.17868e-07
-3.66023e-18
-1.14991e-07
0
-1.10313e-07
0
-6.35446e-08
-3.65449e-18
2.43509e-07
-3.65728e-18
5.69929e-07
0
1.45672e-07
-3.65656e-18
-4.46159e-07
0
-6.85214e-08
-1.06022e-21
5.16226e-07
3.65761e-18
1.41937e-07
6.58264e-22
-4.80617e-07
-3.65284e-18
-4.03521e-07
-3.65753e-18
-1.20296e-07
-3.65596e-18
-5.42098e-08
3.65395e-18
-6.36408e-08
0
-4.03001e-08
3.65786e-18
2.42986e-07
3.65877e-18
5.46604e-07
0
1.5095e-07
-3.6613e-18
-4.4119e-07
3.66175e-18
-3.70409e-07
0
-1.19794e-07
0
-7.5603e-08
-6.09434e-24
-7.13778e-08
0
-6.60975e-08
-3.66462e-18
-2.28078e-08
3.66421e-18
2.47235e-07
3.66506e-18
5.36303e-07
0
1.6689e-07
3.66701e-18
-3.96021e-07
0
-3.35033e-07
-3.4921e-23
-9.89021e-08
-3.67157e-18
-5.70108e-08
-8.35023e-24
-5.44456e-08
-3.67215e-18
-5.12856e-08
3.37507e-22
-9.83607e-09
-3.67386e-18
2.47875e-07
-3.67488e-18
5.24598e-07
0
1.78527e-07
3.6756e-18
-3.56532e-07
3.67602e-18
-3.03418e-07
3.4193e-23
-8.13538e-08
3.67878e-18
-4.09425e-08
3.67917e-18
-3.78728e-08
-3.68017e-18
-3.59079e-08
-3.24762e-22
1.21179e-09
0
2.45657e-07
3.68127e-18
5.12456e-07
-3.68492e-18
1.87608e-07
-5.46602e-22
-3.2269e-07
0
-2.76268e-07
3.68333e-18
-6.89082e-08
3.6851e-18
-3.14738e-08
0
-2.57388e-08
3.6863e-18
-2.48946e-08
-3.68648e-18
-2.59042e-08
4.99802e-24
-2.37693e-08
-3.68749e-18
-2.28145e-08
-3.68907e-18
-2.21802e-08
-3.6936e-18
-1.81592e-08
0
-1.70447e-08
-3.68779e-18
-2.09606e-08
3.69185e-18
-2.22371e-08
-1.04321e-24
-1.9639e-08
8.69586e-26
-1.72823e-08
-3.69443e-18
-1.56995e-08
-7.38454e-18
-1.52914e-08
3.69371e-18
-1.4912e-08
0
-1.44907e-08
0
-1.537e-08
0
-1.37322e-08
0
-1.09248e-08
-3.6929e-18
-1.19746e-08
1.08348e-25
-1.22151e-08
-3.69785e-18
-9.38024e-09
-3.69575e-18
-9.99903e-09
3.69416e-18
-1.37693e-08
-3.69539e-18
-1.44588e-08
0
-1.18623e-08
0
-9.16178e-09
3.69669e-18
-7.3936e-09
7.39506e-18
-6.65633e-09
0
-6.61719e-09
-3.69789e-18
-6.52697e-09
-3.6963e-18
-6.67916e-09
0
-6.63275e-09
-1.07392e-25
-5.85734e-09
0
-4.95549e-09
3.69708e-18
-3.46261e-09
-7.39363e-18
-1.03883e-09
-9.30876e-25
2.02629e-09
-3.70036e-18
4.88595e-09
-7.39801e-18
5.69906e-09
3.70067e-18
4.84329e-09
8.48782e-26
3.93135e-09
0
3.21426e-09
0
2.88681e-09
0
2.92605e-09
0
2.94782e-09
1.48096e-17
2.52079e-09
0
2.58715e-09
0
3.65307e-09
0
4.21974e-09
0
3.9599e-09
7.40015e-18
3.44717e-09
0
2.92739e-09
-1.33741e-25
2.55447e-09
-2.46374e-25
2.23747e-09
8.81298e-26
1.95768e-09
0
1.72339e-09
-7.39814e-18
1.46903e-09
0
1.22983e-09
0
9.98289e-10
0
7.91843e-10
0
6.41617e-10
0
5.21585e-10
-1.48029e-17
4.44388e-10
0
4.45686e-10
1.38842e-25
5.1714e-10
-1.48013e-17
6.52278e-10
7.40142e-18
8.31561e-10
0
1.01345e-09
0
1.15929e-09
1.2899e-25
1.25507e-09
0
1.30073e-09
-7.40074e-18
1.29838e-09
-7.40145e-18
1.24925e-09
7.40084e-18
1.15625e-09
0
1.03294e-09
7.40086e-18
8.88142e-10
7.40134e-18
7.28791e-10
-7.40076e-18
5.66274e-10
0
4.14829e-10
0
2.81574e-10
1.48025e-17
1.703e-10
7.40071e-18
7.56878e-11
-7.4012e-18
-7.02847e-12
0
-7.74783e-11
0
-1.24741e-10
-7.40103e-18
-1.50145e-10
0
-1.62306e-10
-8.76082e-27
-1.65498e-10
0
-1.66313e-10
7.40142e-18
-1.7101e-10
7.40198e-18
-1.77541e-10
0
-1.76197e-10
-7.40521e-18
-1.58379e-10
-7.39763e-18
-1.31588e-10
0
-1.15281e-10
2.32223e-26
-1.09656e-10
0
-9.74752e-11
0
-6.74591e-11
-1.48029e-17
-2.18125e-11
-7.40126e-18
2.6237e-11
0
6.07853e-11
7.40118e-18
7.65899e-11
0
8.508e-11
0
1.02064e-10
7.40131e-18
1.37626e-10
-1.16852e-26
1.90393e-10
-7.40125e-18
2.52913e-10
1.48018e-17
3.17717e-10
-1.48024e-17
3.82254e-10
-1.07589e-26
4.44625e-10
0
5.07112e-10
7.40081e-18
5.70877e-10
7.40122e-18
6.405e-10
0
7.16914e-10
0
8.00569e-10
7.40079e-18
8.88115e-10
7.40137e-18
9.72427e-10
0
1.04642e-09
-2.84562e-26
1.10847e-09
-2.69476e-26
1.15942e-09
0
1.19739e-09
7.40017e-18
1.22518e-09
-3.00717e-26
1.23939e-09
-1.47999e-17
1.23941e-09
-7.40224e-18
1.22471e-09
3.09646e-26
1.19814e-09
7.40226e-18
1.16039e-09
7.39997e-18
1.11463e-09
1.13751e-26
1.05912e-09
7.40017e-18
9.9507e-10
0
9.23878e-10
-7.40046e-18
8.45368e-10
7.40174e-18
7.54829e-10
-7.40071e-18
6.5634e-10
7.40161e-18
5.54028e-10
0
4.49789e-10
0
3.48115e-10
-2.66436e-27
2.50485e-10
7.40149e-18
1.59953e-10
7.40119e-18
6.57151e-11
7.40154e-18
-5.08896e-11
7.40133e-18
-1.82227e-10
0
-2.98088e-10
0
-3.94882e-10
-7.40166e-18
-4.69639e-10
-7.40093e-18
-5.28454e-10
7.40176e-18
-5.95335e-10
0
-6.63091e-10
3.28637e-26
-7.25586e-10
-7.88533e-27
-8.01595e-10
-1.48016e-17
-8.88525e-10
-6.86451e-26
-9.74482e-10
7.40023e-18
-1.03797e-09
7.39708e-18
-1.07728e-09
-7.40012e-18
-1.12746e-09
0
-1.19443e-09
7.39826e-18
-1.26447e-09
-3.98676e-26
-1.32461e-09
7.39439e-18
-1.36359e-09
0
-1.38173e-09
0
-1.39288e-09
-7.40893e-18
-1.40748e-09
-1.55758e-26
-1.42139e-09
7.36441e-18
-1.435e-09
-4.61793e-26
-1.44018e-09
-7.4027e-18
-1.42231e-09
0
-1.38955e-09
7.40142e-18
-1.35102e-09
7.40122e-18
-1.30328e-09
-4.17811e-26
-1.24834e-09
-7.4011e-18
-1.20252e-09
-1.48021e-17
-1.17276e-09
-7.40101e-18
-1.1393e-09
-7.40098e-18
-1.09475e-09
7.40101e-18
-1.04189e-09
-7.401e-18
-9.85582e-10
-1.4802e-17
-9.30072e-10
-7.40104e-18
-8.7534e-10
0
-8.20519e-10
0
-7.60213e-10
-1.48022e-17
-6.91103e-10
0
-6.14487e-10
0
-5.35345e-10
1.48023e-17
-4.57757e-10
1.48023e-17
-3.86365e-10
-2.80579e-26
-3.22728e-10
7.40116e-18
-2.70387e-10
-7.40113e-18
-2.32581e-10
-7.40106e-18
-2.08728e-10
0
-1.98512e-10
3.52988e-27
-1.9308e-10
0
-1.85174e-10
7.40018e-18
-1.79328e-10
-2.76396e-27
-1.74063e-10
0
-1.66562e-10
7.40486e-18
-1.62017e-10
7.39469e-18
-1.58531e-10
7.40939e-18
-1.58534e-10
1.47761e-17
-1.65059e-10
-7.41438e-18
-1.72441e-10
1.47612e-17
-1.78814e-10
3.25399e-26
-1.44772e-10
-7.38041e-18
-6.21018e-11
7.41618e-18
-8.76762e-12
-4.23464e-27
-7.02113e-13
-7.40451e-18
-2.11032e-13
0
-8.95981e-14
0
-4.63009e-14
3.02029e-28
-2.70249e-14
-1.48021e-17
-1.71206e-14
7.40093e-18
-1.15234e-14
7.40103e-18
-8.19806e-15
7.94331e-29
-6.18175e-15
-2.22031e-17
-5.00546e-15
7.401e-18
-4.4421e-15
0
-4.40837e-15
1.4802e-17
-4.9252e-15
7.40112e-18
-6.15852e-15
7.40076e-18
-8.47073e-15
2.23956e-28
-1.26295e-14
0
-2.03112e-14
-6.6486e-28
-3.53805e-14
-7.39764e-18
-6.82831e-14
3.14264e-27
-1.5245e-13
-1.47853e-17
-4.23618e-13
-1.48315e-17
-1.67862e-12
-4.22017e-25
-2.65309e-11
-5.02705e-25
-1.79973e-10
5.03996e-25
-3.09451e-10
0
-1.79515e-10
-7.40266e-18
-2.62337e-11
0
-1.66453e-12
0
-4.19048e-13
-7.40572e-18
-1.51502e-13
0
-6.76755e-14
1.48034e-17
-3.48969e-14
7.40072e-18
-1.97581e-14
-1.34804e-28
-1.19674e-14
-8.78647e-29
-7.60345e-15
0
-5.01629e-15
-7.4011e-18
-3.40424e-15
0
-2.36106e-15
0
-1.66669e-15
7.40092e-18
-1.19114e-15
-7.40097e-18
-8.60788e-16
-1.48025e-17
-6.2725e-16
7.40087e-18
-4.60288e-16
1.48022e-17
-3.39259e-16
0
-2.5149e-16
7.40102e-18
-1.86779e-16
0
-1.39158e-16
-1.30305e-30
-1.04076e-16
7.40095e-18
-7.77394e-17
7.30088e-31
-5.82446e-17
-7.40097e-18
-4.36003e-17
-7.40103e-18
-3.27199e-17
-7.40104e-18
-2.45465e-17
-7.40109e-18
-1.8423e-17
-7.40107e-18
-1.38764e-17
-7.40107e-18
-1.0413e-17
0
-7.80548e-18
0
-5.86068e-18
0
-4.38894e-18
0
-3.31141e-18
1.48021e-17
-2.47178e-18
0
-1.86596e-18
-1.4802e-17
-1.36662e-18
2.6321e-32
-1.07752e-18
-1.48021e-17
-8.01572e-19
0
-6.04464e-19
0
-4.73319e-19
0
-3.15373e-19
0
-2.10248e-19
-1.48021e-17
-1.70827e-19
-1.4802e-17
-1.44546e-19
0
-1.05182e-19
0
-9.19837e-20
0
-6.57027e-20
0
-5.25621e-20
0
-3.94216e-20
0
-3.94216e-20
0
-1.31478e-20
0
0
0
0
0
0
0
0
0
0
0
0
0
0
0
0
0
0
0
0
0
0
0
0
1.28395e-33
-2.62811e-20
0
-3.94216e-20
0
-3.94216e-20
0
-5.2591e-20
0
-3.94216e-20
0
-6.57027e-20
0
-3.94216e-20
0
-2.62811e-20
-1.47957e-17
-5.25621e-20
0
-9.20343e-20
0
-6.57027e-20
0
-9.19837e-20
-1.47689e-17
-1.18265e-19
-1.48568e-17
-1.18265e-19
0
-1.84069e-19
-1.47657e-17
-2.10248e-19
0
-2.75951e-19
-1.46575e-17
-3.67935e-19
-1.48258e-17
-4.862e-19
1.48507e-17
-6.04464e-19
-1.47716e-17
-8.02013e-19
-1.48259e-17
-1.05124e-18
1.47863e-17
-1.36662e-18
-1.48129e-17
-1.81339e-18
-1.47959e-17
-2.39158e-18
1.48055e-17
-3.16861e-18
0
-4.23125e-18
1.48015e-17
-5.5913e-18
0
-7.4244e-18
0
-9.89482e-18
0
-1.31537e-17
1.47769e-17
-1.74997e-17
-1.48581e-17
-2.3285e-17
0
-3.11102e-17
1.47834e-17
-4.14912e-17
1.49189e-17
-5.50391e-17
0
-7.45233e-17
-1.48113e-17
-9.98676e-17
1.48534e-17
-1.30784e-16
0
-1.75282e-16
0
-2.3467e-16
0
-3.14375e-16
0
-4.22658e-16
-1.48002e-17
-5.68223e-16
1.48031e-17
-7.66484e-16
1.48005e-17
-1.03777e-15
-1.48045e-17
-1.41023e-15
0
-1.9288e-15
0
-2.65176e-15
0
-3.67965e-15
0
-5.15643e-15
1.47774e-17
-7.33083e-15
0
-1.05865e-14
1.47594e-17
-1.5671e-14
0
-2.37894e-14
0
-3.76649e-14
-1.48778e-17
-6.26057e-14
-1.47183e-17
-1.12708e-13
0
-2.25938e-13
0
-5.45824e-13
-1.48807e-17
-1.78778e-12
-1.46739e-17
-1.97041e-11
0
-1.52691e-10
1.4578e-17
-4.54423e-10
-4.55727e-25
-6.52983e-10
0
-5.97273e-10
-1.4773e-17
-4.31783e-10
1.59656e-17
-2.00378e-10
1.49606e-17
-3.53933e-11
0
-2.63204e-12
0
-7.21335e-13
0
-2.88189e-13
-1.48068e-17
-1.38881e-13
1.48049e-17
-7.48888e-14
0
-4.27181e-14
1.48039e-17
-2.44476e-14
-2.30552e-28
-1.26861e-14
-3.93601e-15
0
0
0
0
0
0
0
0
0
0
0
0
0
0
0
0
0
0
0
0
0
0
0
0
0
0
0
0
0
0
0
0
0
0
0
0
0
0
0
0
0
0
0
0
0
0
0
0
0
0
0
0
0
0
0
0
0
0
0
0
0
0
0
0
0
0
0
0
0
0
0
0
0
0
0
0
0
0
0
0
0
0
0
0
0
0
9.25186e-19
1.57704e-19
1.85036e-18
1.57704e-19
-3.20988e-34
1.57704e-19
-9.25184e-19
2.1026e-19
-9.25177e-19
2.10272e-19
3.20988e-34
3.67975e-19
9.25182e-19
3.15407e-19
0
4.20543e-19
9.62965e-34
5.78247e-19
1.85036e-18
7.3591e-19
-9.25193e-19
1.05136e-18
-1.85037e-18
1.26163e-18
0
1.83967e-18
0
2.26017e-18
0
2.83992e-18
0
3.78447e-18
0
4.78315e-18
1.85036e-18
6.14977e-18
1.85039e-18
7.93688e-18
1.85038e-18
9.93424e-18
-3.70072e-18
1.23589e-17
0
1.5243e-17
0
1.83967e-17
0
2.21812e-17
-1.85038e-18
2.57554e-17
-1.85037e-18
2.90303e-17
0
3.1327e-17
0
3.18001e-17
1.85036e-18
2.90143e-17
0
2.07095e-17
-1.85038e-18
4.52034e-18
3.70072e-18
-2.29823e-17
-1.85039e-18
-6.6018e-17
4.83408e-31
-1.29303e-16
-7.77755e-31
-2.17187e-16
-1.85038e-18
-3.33191e-16
1.85037e-18
-4.77645e-16
-1.85035e-18
-6.41587e-16
-2.56213e-30
-8.04424e-16
-1.85036e-18
-9.21322e-16
0
-9.10271e-16
1.85038e-18
-6.34898e-16
3.70072e-18
1.15437e-16
0
1.64111e-15
0
4.33638e-15
0
8.66391e-15
0
1.50846e-14
-1.85037e-18
2.39634e-14
1.85036e-18
3.54005e-14
-3.70077e-18
4.94771e-14
-1.85037e-18
6.68142e-14
-3.7008e-18
9.05704e-14
0
1.3058e-13
1.85038e-18
2.10897e-13
-1.85042e-18
3.79854e-13
-3.70083e-18
7.22012e-13
1.85042e-18
1.35559e-12
-1.85048e-18
2.38593e-12
1.85052e-18
3.73525e-12
1.85059e-18
4.64824e-12
-1.85077e-18
2.43738e-12
-1.85102e-18
-1.11863e-11
-2.89946e-25
-6.25882e-11
1.09727e-24
-2.47894e-10
-3.71661e-18
-1.13063e-09
3.72505e-18
-7.8238e-09
3.73438e-18
-3.72325e-08
-3.74247e-18
-8.58849e-08
-3.74467e-18
-1.19222e-07
0
-1.28398e-07
0
-1.28724e-07
3.74194e-18
-1.26903e-07
0
-1.1882e-07
0
-4.87689e-08
3.71589e-18
2.40368e-07
0
4.91603e-07
0
1.0308e-07
3.69792e-18
-4.57138e-07
0
-4.2693e-07
3.70097e-18
-1.89556e-07
3.69753e-18
-1.23132e-07
3.69654e-18
-1.13919e-07
0
-1.03434e-07
0
-3.64231e-08
0
2.39255e-07
-3.68889e-18
4.84336e-07
0
1.27727e-07
0
-3.40741e-07
-3.69058e-18
-4.68952e-08
-7.38285e-18
4.10616e-07
3.69236e-18
1.13483e-07
-3.69095e-18
-4.02797e-07
3.68782e-18
-3.75113e-07
-3.68988e-18
-1.40297e-07
-3.68724e-18
-6.18993e-08
3.68349e-18
-5.85799e-08
0
-1.31142e-08
-3.68612e-18
2.39391e-07
0
4.661e-07
0
1.28248e-07
3.69031e-18
-3.67545e-07
0
-3.45698e-07
7.22973e-23
-1.39386e-07
0
-8.04148e-08
0
-7.08679e-08
-3.69098e-18
-6.03381e-08
-3.00256e-22
5.07188e-10
3.6901e-18
2.43387e-07
-3.69055e-18
4.60319e-07
-7.39246e-18
1.44479e-07
-6.1637e-22
-3.26926e-07
3.69598e-18
-3.11367e-07
3.69566e-18
-1.17162e-07
-2.02087e-24
-6.12133e-08
3.69319e-18
-5.34055e-08
3.69421e-18
-4.50878e-08
3.69559e-18
1.28322e-08
-3.69596e-18
2.44597e-07
-3.69562e-18
4.52716e-07
-3.69597e-18
1.56932e-07
0
-2.90899e-07
0
-2.80359e-07
0
-9.86006e-08
0
-4.55592e-08
1.0111e-23
-3.78093e-08
0
-3.07076e-08
-3.69763e-18
2.26249e-08
3.20511e-22
2.4281e-07
-7.95259e-22
4.4394e-07
1.10996e-17
1.66145e-07
-3.69848e-18
-2.61001e-07
-7.40051e-18
-2.54721e-07
3.698e-18
-8.52239e-08
8.93955e-24
-3.56023e-08
3.70378e-18
-2.67283e-08
3.70006e-18
-2.51418e-08
2.17864e-24
-2.5577e-08
-3.70298e-18
-2.38734e-08
-3.70032e-18
-2.28231e-08
-1.95496e-24
-2.18309e-08
-3.70579e-18
-1.84997e-08
-1.62883e-24
-1.76056e-08
3.6999e-18
-2.06685e-08
-7.40472e-18
-2.17778e-08
3.70212e-18
-1.96274e-08
4.9211e-25
-1.73681e-08
0
-1.5845e-08
0
-1.53125e-08
3.70403e-18
-1.49174e-08
-7.40704e-18
-1.46151e-08
3.70002e-18
-1.5092e-08
0
-1.36119e-08
-3.70306e-18
-1.13412e-08
-7.40144e-18
-1.19e-08
0
-1.19114e-08
-3.70487e-18
-9.7724e-09
0
-1.03441e-08
0
-1.34155e-08
-3.70118e-18
-1.40527e-08
0
-1.18156e-08
-3.70182e-18
-9.26685e-09
1.28279e-24
-7.52902e-09
-3.70254e-18
-6.75382e-09
1.11055e-17
-6.62669e-09
3.70236e-18
-6.55205e-09
3.70057e-18
-6.6466e-09
-1.11006e-17
-6.53631e-09
7.39833e-18
-5.81705e-09
3.69732e-18
-4.86517e-09
-7.39564e-18
-3.33966e-09
-3.69756e-18
-9.65369e-10
3.69916e-18
1.97774e-09
-3.7003e-18
4.61982e-09
3.6988e-18
5.47097e-09
-3.7003e-18
4.80516e-09
-3.70007e-18
3.94351e-09
0
3.25992e-09
-7.4016e-18
2.93179e-09
2.38568e-25
2.92772e-09
7.39815e-18
2.90672e-09
0
2.58233e-09
0
2.69895e-09
0
3.59618e-09
0
4.11671e-09
0
3.91724e-09
-7.40012e-18
3.43921e-09
0
2.94112e-09
0
2.56143e-09
0
2.24243e-09
7.3887e-18
1.96283e-09
7.39132e-18
1.72184e-09
6.29392e-26
1.47091e-09
-5.52449e-27
1.23159e-09
-7.40958e-18
1.00253e-09
0
7.99864e-10
0
6.47462e-10
0
5.29392e-10
7.40076e-18
4.56283e-10
0
4.56832e-10
7.40112e-18
5.26998e-10
0
6.58803e-10
-7.40089e-18
8.32261e-10
-7.4002e-18
1.00837e-09
-1.09778e-25
1.15163e-09
-7.40048e-18
1.2468e-09
0
1.29248e-09
7.40047e-18
1.29024e-09
0
1.24189e-09
7.40059e-18
1.15055e-09
0
1.0288e-09
7.40056e-18
8.85356e-10
0
7.27838e-10
-7.4004e-18
5.67542e-10
0
4.17242e-10
-7.40043e-18
2.8469e-10
0
1.72953e-10
0
7.7882e-11
0
-4.68984e-12
0
-7.39116e-11
0
-1.21312e-10
7.4007e-18
-1.47788e-10
7.40098e-18
-1.60659e-10
7.40078e-18
-1.64774e-10
0
-1.664e-10
-6.7661e-27
-1.70805e-10
-7.40223e-18
-1.76171e-10
0
-1.73868e-10
0
-1.56989e-10
7.39746e-18
-1.32435e-10
0
-1.16183e-10
-7.3999e-18
-1.08508e-10
-7.40071e-18
-9.49393e-11
-7.40089e-18
-6.52241e-11
-7.40103e-18
-2.13101e-11
-4.38739e-26
2.47123e-11
0
5.86005e-11
0
7.58358e-11
0
8.63957e-11
0
1.04753e-10
0
1.40224e-10
7.40052e-18
1.92086e-10
7.40071e-18
2.53551e-10
0
3.17896e-10
-7.40062e-18
3.82135e-10
0
4.44703e-10
7.40061e-18
5.07452e-10
-7.40035e-18
5.71665e-10
0
6.41419e-10
-2.23279e-26
7.17782e-10
-7.40064e-18
8.00869e-10
7.40032e-18
8.87318e-10
0
9.70766e-10
7.40028e-18
1.04421e-09
7.40088e-18
1.10626e-09
0
1.15694e-09
0
1.19506e-09
-7.39986e-18
1.22264e-09
-4.63595e-26
1.23653e-09
7.39969e-18
1.23655e-09
-7.40133e-18
1.22219e-09
7.39964e-18
1.19576e-09
-2.46062e-26
1.15834e-09
-7.39971e-18
1.11264e-09
0
1.0571e-09
-7.39991e-18
9.93284e-10
0
9.22084e-10
7.40012e-18
8.43087e-10
7.40105e-18
7.532e-10
7.40032e-18
6.55177e-10
0
5.53292e-10
7.40045e-18
4.49678e-10
0
3.48246e-10
0
2.50847e-10
-7.40096e-18
1.59e-10
0
6.27011e-11
0
-5.28258e-11
-7.40093e-18
-1.80498e-10
0
-2.95509e-10
7.40078e-18
-3.91968e-10
-1.14932e-26
-4.67516e-10
-3.34848e-26
-5.29129e-10
7.40116e-18
-5.9547e-10
7.4005e-18
-6.62715e-10
3.49906e-26
-7.27177e-10
7.40122e-18
-8.0295e-10
2.20199e-26
-8.88129e-10
0
-9.71559e-10
-7.39994e-18
-1.03492e-09
0
-1.07812e-09
7.3992e-18
-1.12928e-09
7.40191e-18
-1.19441e-09
0
-1.26272e-09
0
-1.32135e-09
7.3955e-18
-1.36032e-09
0
-1.38002e-09
0
-1.3927e-09
-7.41212e-18
-1.40667e-09
0
-1.42055e-09
7.36961e-18
-1.43307e-09
7.39324e-18
-1.43645e-09
-2.62197e-26
-1.41964e-09
1.48014e-17
-1.38772e-09
7.40074e-18
-1.3491e-09
7.40056e-18
-1.30182e-09
-3.44621e-26
-1.24884e-09
-5.25922e-27
-1.20374e-09
7.40033e-18
-1.17195e-09
7.4003e-18
-1.13729e-09
2.18726e-26
-1.09304e-09
7.40028e-18
-1.04079e-09
-7.40026e-18
-9.84994e-10
0
-9.29689e-10
-1.48006e-17
-8.74664e-10
0
-8.19253e-10
2.70374e-26
-7.58569e-10
-1.93538e-26
-6.89679e-10
1.48008e-17
-6.13753e-10
7.4004e-18
-5.35382e-10
1.64341e-26
-4.58439e-10
-7.40044e-18
-3.87475e-10
-3.48678e-26
-3.24404e-10
7.40043e-18
-2.72524e-10
0
-2.34733e-10
-7.40033e-18
-2.107e-10
0
-1.99389e-10
-7.40005e-18
-1.93034e-10
7.4005e-18
-1.85504e-10
-1.47992e-17
-1.79467e-10
0
-1.73943e-10
7.39841e-18
-1.66974e-10
7.40274e-18
-1.62287e-10
-1.86256e-26
-1.59065e-10
-1.48113e-17
-1.59302e-10
-1.47802e-17
-1.6502e-10
7.40855e-18
-1.71684e-10
-1.47677e-17
-1.73665e-10
-7.41098e-18
-1.39157e-10
-7.38394e-18
-6.54383e-11
7.41078e-18
-1.43729e-11
-1.11046e-26
-2.32498e-12
-4.63338e-27
-6.94241e-13
-7.39985e-18
-3.0347e-13
7.4001e-18
-1.58755e-13
-7.40004e-18
-9.32282e-14
7.40019e-18
-5.92734e-14
1.48003e-17
-3.99846e-14
-7.40015e-18
-2.84878e-14
7.40016e-18
-2.15017e-14
-1.48003e-17
-1.74212e-14
1.73526e-28
-1.5462e-14
7.40021e-18
-1.53395e-14
2.15007e-28
-1.71238e-14
0
-2.13836e-14
-3.99497e-28
-2.93604e-14
-7.40049e-18
-4.36692e-14
1.00553e-27
-6.99855e-14
7.40151e-18
-1.21276e-13
0
-2.32076e-13
0
-5.09547e-13
-7.39445e-18
-1.36493e-12
-7.40978e-18
-5.55867e-12
3.442e-25
-4.02936e-11
-7.41161e-18
-1.75255e-10
7.44221e-18
-2.78902e-10
7.35757e-18
-1.74808e-10