/*--------------------------------*- C++ -*----------------------------------*\
| =========                 |                                                 |
| \\      /  F ield         | foam-extend: Open Source CFD                    |
|  \\    /   O peration     | Version:     3.2                                |
|   \\  /    A nd           | Web:         http://www.foam-extend.org         |
|    \\/     M anipulation  | For copyright notice see file Copyright         |
\*---------------------------------------------------------------------------*/
FoamFile
{
    version     2.0;
    format      ascii;
    class       surfaceScalarField;
    location    "1790";
    object      phi;
}
// * * * * * * * * * * * * * * * * * * * * * * * * * * * * * * * * * * * * * //

dimensions      [0 3 -1 0 0 0 0];

internalField   nonuniform List<scalar> 
65390
(
3.74904e-05
5.09575e-07
3.69685e-05
5.21878e-07
3.62904e-05
6.7815e-07
3.56057e-05
6.84737e-07
3.48851e-05
7.20573e-07
3.42092e-05
6.75899e-07
3.35397e-05
6.69477e-07
3.29147e-05
6.25024e-07
3.23016e-05
6.13086e-07
3.17188e-05
5.82754e-07
3.11534e-05
5.65484e-07
3.06163e-05
5.37109e-07
3.00993e-05
5.16931e-07
2.96061e-05
4.93174e-07
2.91306e-05
4.75563e-07
2.86758e-05
4.54785e-07
2.82424e-05
4.33368e-07
2.783e-05
4.12403e-07
2.74346e-05
3.9543e-07
2.70552e-05
3.79353e-07
2.66914e-05
3.63802e-07
2.63432e-05
3.48286e-07
2.60103e-05
3.32836e-07
2.56938e-05
3.1657e-07
2.53942e-05
2.99591e-07
2.51119e-05
2.82259e-07
2.48466e-05
2.65267e-07
2.45968e-05
2.49859e-07
2.43605e-05
2.36328e-07
2.41365e-05
2.23978e-07
2.39241e-05
2.1239e-07
2.37226e-05
2.01501e-07
2.35314e-05
1.91227e-07
2.33499e-05
1.81438e-07
2.31779e-05
1.71966e-07
2.30153e-05
1.62685e-07
2.28615e-05
1.53769e-07
2.27164e-05
1.45121e-07
2.25796e-05
1.36823e-07
2.24507e-05
1.28867e-07
2.23293e-05
1.21433e-07
2.22147e-05
1.14505e-07
2.21066e-05
1.08172e-07
2.20043e-05
1.02304e-07
2.19073e-05
9.69525e-08
2.18154e-05
9.19568e-08
2.17281e-05
8.72313e-08
2.16453e-05
8.27819e-08
2.15669e-05
7.8419e-08
2.14927e-05
7.41875e-08
2.14228e-05
6.99639e-08
2.13569e-05
6.58434e-08
2.12951e-05
6.18797e-08
2.12368e-05
5.82984e-08
2.11817e-05
5.50982e-08
2.11293e-05
5.23296e-08
2.10794e-05
4.9955e-08
2.10315e-05
4.78715e-08
2.09854e-05
4.60675e-08
2.09411e-05
4.43706e-08
2.08983e-05
4.27307e-08
2.08574e-05
4.09103e-08
2.08183e-05
3.91025e-08
2.0781e-05
3.73061e-08
2.07454e-05
3.56106e-08
2.07114e-05
3.40079e-08
2.06788e-05
3.2573e-08
2.06476e-05
3.12495e-08
2.06175e-05
3.01048e-08
2.05884e-05
2.91017e-08
2.05602e-05
2.81661e-08
2.05329e-05
2.72687e-08
2.05067e-05
2.62202e-08
2.04817e-05
2.49747e-08
2.04582e-05
2.3566e-08
2.04361e-05
2.20322e-08
2.04156e-05
2.04898e-08
2.03967e-05
1.89423e-08
2.03793e-05
1.74088e-08
2.03633e-05
1.59486e-08
2.03486e-05
1.47863e-08
2.03346e-05
1.39634e-08
2.03207e-05
1.38506e-08
2.03067e-05
1.4066e-08
2.02919e-05
1.47769e-08
2.02762e-05
1.56883e-08
2.02594e-05
1.67725e-08
2.02418e-05
1.76614e-08
2.02234e-05
1.84282e-08
2.02047e-05
1.86659e-08
2.01863e-05
1.84284e-08
2.01686e-05
1.76968e-08
2.01518e-05
1.68131e-08
2.0136e-05
1.57069e-08
2.01215e-05
1.45892e-08
2.01082e-05
1.32896e-08
2.00959e-05
1.22722e-08
2.00846e-05
1.12717e-08
2.00738e-05
1.07814e-08
2.00635e-05
1.03101e-08
2.00531e-05
1.04216e-08
2.00429e-05
1.02352e-08
2.00319e-05
1.09974e-08
2.00209e-05
1.10033e-08
2.0009e-05
1.18836e-08
1.99979e-05
1.11203e-08
1.99878e-05
1.00339e-08
1.99782e-05
9.68172e-09
1.99646e-05
1.55731e-08
1.99151e-05
5.16696e-08
1.9843e-05
7.02666e-08
1.97335e-05
1.07278e-07
1.9681e-05
5.22151e-08
1.96241e-05
5.68002e-08
1.95766e-05
4.73996e-08
1.95452e-05
3.18082e-08
1.94667e-05
5.50371e-08
1.94337e-05
2.27892e-08
1.95957e-05
-9.0808e-08
1.96e-05
1.48947e-08
1.93983e-05
1.30173e-07
1.92934e-05
9.58341e-08
1.93053e-05
1.20562e-08
1.92857e-05
1.92429e-08
1.926e-05
2.54122e-08
1.92267e-05
3.39009e-08
1.91804e-05
2.4392e-08
1.91669e-05
3.45486e-09
1.9332e-05
-9.80429e-08
1.9342e-05
9.24887e-09
1.91129e-05
1.4031e-07
1.90748e-05
1.97378e-08
1.92682e-05
-1.05582e-07
1.92822e-05
3.76468e-09
1.91231e-05
9.34283e-08
1.90476e-05
6.53182e-08
1.90303e-05
3.88722e-08
1.9023e-05
1.00964e-08
1.90498e-05
-2.623e-08
1.89963e-05
3.14303e-08
1.89867e-05
4.51334e-10
1.91543e-05
-1.0508e-07
1.91976e-05
-2.58426e-08
1.90169e-05
1.17881e-07
1.89504e-05
5.83476e-08
1.89685e-05
2.79011e-09
1.89686e-05
-4.19144e-10
1.89442e-05
2.42211e-08
1.89079e-05
3.66493e-08
1.88525e-05
3.62869e-08
1.88913e-05
-4.79799e-08
1.90396e-05
-8.94723e-08
1.9055e-05
1.79026e-09
1.88835e-05
1.12123e-07
1.88262e-05
4.90763e-08
1.88389e-05
7.18217e-09
1.8841e-05
-2.40132e-09
1.88267e-05
1.41969e-08
1.8814e-05
1.28308e-08
1.87626e-05
3.31223e-08
1.8766e-05
-1.21018e-08
1.89157e-05
-9.35977e-08
1.89567e-05
-2.3928e-08
1.88048e-05
9.54979e-08
1.87456e-05
5.10326e-08
1.87535e-05
1.08306e-08
1.8744e-05
9.28056e-09
1.8743e-05
1.11136e-09
1.87311e-05
1.21706e-08
1.86896e-05
2.38695e-08
1.87165e-05
-3.5682e-08
1.88496e-05
-7.95066e-08
1.88758e-05
-9.45253e-09
1.87318e-05
9.01447e-08
1.86904e-05
3.36226e-08
1.87174e-05
-9.22658e-09
1.87031e-05
1.37166e-08
1.86897e-05
1.38067e-08
1.86907e-05
-7.76352e-10
1.86787e-05
1.15535e-08
1.8669e-05
9.8779e-09
1.86613e-05
7.78416e-09
1.86413e-05
1.96103e-08
1.86268e-05
1.48324e-08
1.86525e-05
-2.52794e-08
1.86701e-05
-1.78277e-08
1.86585e-05
1.12041e-08
1.86396e-05
1.9046e-08
1.86216e-05
1.79988e-08
1.86134e-05
8.29232e-09
1.8607e-05
6.39989e-09
1.85942e-05
1.27426e-08
1.85976e-05
-3.18693e-09
1.85947e-05
2.64008e-09
1.8569e-05
2.55932e-08
1.85589e-05
1.05162e-08
1.85631e-05
-4.34649e-09
1.85436e-05
1.92289e-08
1.85287e-05
1.5238e-08
1.85402e-05
-1.12838e-08
1.8552e-05
-1.20578e-08
1.85449e-05
6.84636e-09
1.85302e-05
1.46893e-08
1.85188e-05
1.15615e-08
1.85058e-05
1.30489e-08
1.85055e-05
3.14072e-10
1.85e-05
5.49232e-09
1.84998e-05
2.83997e-10
1.84967e-05
3.07769e-09
1.84907e-05
5.92844e-09
1.84849e-05
5.80203e-09
1.8471e-05
1.38726e-08
1.84552e-05
1.56782e-08
1.84342e-05
2.09639e-08
1.84111e-05
2.30492e-08
1.8422e-05
-1.06668e-08
1.84487e-05
-2.66142e-08
1.84865e-05
-3.78235e-08
1.85218e-05
-3.52509e-08
1.85539e-05
-3.21098e-08
1.85855e-05
-3.17067e-08
1.86177e-05
-3.21859e-08
1.86278e-05
-1.0023e-08
1.86276e-05
1.84075e-10
1.8645e-05
-1.75503e-08
1.86755e-05
-3.04283e-08
1.86878e-05
-1.21974e-08
1.86993e-05
-1.15289e-08
1.87187e-05
-1.93619e-08
1.87046e-05
1.4088e-08
1.8673e-05
3.16079e-08
1.87547e-05
-8.16991e-08
1.88834e-05
-1.28756e-07
1.89328e-05
-4.94096e-08
1.89149e-05
1.79414e-08
1.88763e-05
3.86084e-08
1.88742e-05
2.04821e-09
1.8922e-05
-4.77513e-08
1.89608e-05
-3.88119e-08
1.89568e-05
4.01737e-09
1.89559e-05
8.60963e-10
1.89578e-05
-1.95974e-09
1.89637e-05
-5.89517e-09
1.89674e-05
-3.70236e-09
1.89737e-05
-6.25213e-09
1.89754e-05
-1.66699e-09
1.89784e-05
-2.9889e-09
1.89786e-05
-2.61261e-10
1.89813e-05
-2.66639e-09
1.89816e-05
-2.92733e-10
1.89833e-05
-1.7409e-09
1.8983e-05
3.12369e-10
1.89847e-05
-1.7241e-09
1.89857e-05
-9.1931e-10
1.89885e-05
-2.84802e-09
1.89898e-05
-1.32389e-09
1.89918e-05
-1.984e-09
1.89925e-05
-6.64588e-10
1.8994e-05
-1.54292e-09
1.89939e-05
8.13312e-11
1.89941e-05
-1.57951e-10
1.89924e-05
1.71825e-09
1.89915e-05
8.79177e-10
1.89896e-05
1.87359e-09
1.89887e-05
8.97089e-10
1.89865e-05
2.24935e-09
1.89829e-05
3.61092e-09
1.8978e-05
4.90381e-09
1.8971e-05
6.91213e-09
1.89651e-05
5.98241e-09
1.89923e-05
-2.72789e-08
1.9033e-05
-4.0689e-08
1.90462e-05
-1.32068e-08
1.90355e-05
1.07121e-08
1.90279e-05
7.63487e-09
1.9025e-05
2.93138e-09
1.90245e-05
4.4341e-10
1.90243e-05
2.11267e-10
1.90259e-05
-1.64489e-09
1.90274e-05
-1.49965e-09
1.90303e-05
-2.88317e-09
1.90324e-05
-2.11859e-09
1.90353e-05
-2.86215e-09
1.90369e-05
-1.61618e-09
1.90394e-05
-2.51922e-09
1.90403e-05
-8.87585e-10
1.9042e-05
-1.64138e-09
1.90418e-05
1.51215e-10
1.90425e-05
-6.75381e-10
1.90418e-05
6.69738e-10
1.90418e-05
-2.62459e-12
1.90404e-05
1.39023e-09
1.90403e-05
1.2227e-10
1.9038e-05
2.30276e-09
1.90374e-05
5.66939e-10
1.90348e-05
2.69302e-09
1.90344e-05
4.01972e-10
1.90314e-05
2.97841e-09
1.90316e-05
-1.92485e-10
1.90288e-05
2.73893e-09
1.90297e-05
-8.89869e-10
1.90262e-05
3.48282e-09
1.90271e-05
-8.51564e-10
1.90235e-05
3.55853e-09
1.90243e-05
-7.44179e-10
1.90206e-05
3.67734e-09
1.90214e-05
-8.31292e-10
1.90185e-05
2.95813e-09
1.90192e-05
-6.95647e-10
1.90169e-05
2.29666e-09
1.90176e-05
-6.90962e-10
1.9016e-05
1.57243e-09
1.9017e-05
-1.00053e-09
1.90166e-05
4.0892e-10
1.90177e-05
-1.11893e-09
1.9018e-05
-3.37674e-10
1.90198e-05
-1.71047e-09
1.90203e-05
-5.75094e-10
1.90233e-05
-2.92436e-09
1.90268e-05
-3.52595e-09
1.90323e-05
-5.54627e-09
1.9037e-05
-4.64842e-09
1.90445e-05
-7.47765e-09
1.90493e-05
-4.84086e-09
1.9057e-05
-7.74263e-09
1.90646e-05
-7.53665e-09
1.90686e-05
-4.06098e-09
1.90762e-05
-7.58834e-09
1.9073e-05
3.237e-09
1.90847e-05
-1.17402e-08
1.91241e-05
-3.93746e-08
1.91574e-05
-3.32803e-08
1.91546e-05
2.81181e-09
1.91601e-05
-5.53813e-09
1.91591e-05
9.69786e-10
1.91771e-05
-1.79554e-08
1.9178e-05
-9.52951e-10
1.91881e-05
-1.00168e-08
1.9184e-05
4.08456e-09
1.9087e-05
9.69337e-08
1.91396e-05
-5.2595e-08
1.93219e-05
-1.82308e-07
1.93901e-05
-6.81518e-08
1.93174e-05
7.26984e-08
1.93206e-05
-3.22239e-09
1.9323e-05
-2.42189e-09
1.93348e-05
-1.17226e-08
1.93451e-05
-1.03034e-08
1.93557e-05
-1.06705e-08
1.93654e-05
-9.64016e-09
1.93751e-05
-9.75661e-09
1.93841e-05
-9.01744e-09
1.93929e-05
-8.74993e-09
1.94012e-05
-8.32937e-09
1.94092e-05
-7.95954e-09
1.94165e-05
-7.2797e-09
1.94236e-05
-7.16183e-09
1.94309e-05
-7.31519e-09
1.94377e-05
-6.71478e-09
1.94445e-05
-6.86107e-09
1.94513e-05
-6.80604e-09
1.94579e-05
-6.55504e-09
1.94646e-05
-6.70808e-09
1.94715e-05
-6.91261e-09
1.94786e-05
-7.10082e-09
1.94862e-05
-7.58536e-09
1.9492e-05
-5.78309e-09
1.95004e-05
-8.43592e-09
1.95052e-05
-4.7572e-09
1.95144e-05
-9.26475e-09
1.95174e-05
-2.9375e-09
1.95305e-05
-1.31662e-08
1.95294e-05
1.16917e-09
1.95499e-05
-2.05475e-08
1.95419e-05
8.02104e-09
1.95731e-05
-3.12511e-08
1.95583e-05
1.48361e-08
1.95961e-05
-3.78407e-08
1.95678e-05
2.82998e-08
1.95881e-05
-2.0293e-08
1.95425e-05
4.56776e-08
1.95361e-05
6.32995e-09
1.94956e-05
4.04935e-08
1.94994e-05
-3.80708e-09
1.9466e-05
3.34042e-08
1.94618e-05
4.26071e-09
1.94425e-05
1.93166e-08
1.94313e-05
1.11492e-08
1.94184e-05
1.28933e-08
1.94075e-05
1.08731e-08
1.93972e-05
1.03541e-08
1.93869e-05
1.02811e-08
1.93771e-05
9.78681e-09
1.93678e-05
9.36868e-09
1.93579e-05
9.81544e-09
1.9352e-05
5.89996e-09
1.93414e-05
1.06568e-08
1.93366e-05
4.7802e-09
1.9323e-05
1.3616e-08
1.93217e-05
1.24887e-09
1.93032e-05
1.85046e-08
1.93116e-05
-8.3825e-09
1.92808e-05
3.08163e-08
1.93042e-05
-2.34186e-08
1.93138e-05
-9.5197e-09
1.91527e-05
1.61046e-07
1.91472e-05
5.51676e-09
1.9322e-05
-1.74803e-07
1.93146e-05
7.40922e-09
1.91866e-05
1.27929e-07
1.91998e-05
-1.31174e-08
1.92028e-05
-3.07936e-09
1.919e-05
1.28756e-08
1.9193e-05
-2.99527e-09
1.91833e-05
9.61128e-09
1.91799e-05
3.43583e-09
1.91723e-05
7.65121e-09
1.91662e-05
6.01497e-09
1.91615e-05
4.7817e-09
1.9156e-05
5.49475e-09
1.91509e-05
5.11207e-09
1.91449e-05
5.91532e-09
1.9138e-05
6.95829e-09
1.91325e-05
5.49042e-09
1.91261e-05
6.36272e-09
1.91205e-05
5.67554e-09
1.91146e-05
5.89473e-09
1.91089e-05
5.69658e-09
1.91031e-05
5.77586e-09
1.90972e-05
5.84972e-09
1.90912e-05
6.03914e-09
1.90849e-05
6.28909e-09
1.90785e-05
6.43625e-09
1.90719e-05
6.58282e-09
1.90652e-05
6.73106e-09
1.90584e-05
6.76939e-09
1.90514e-05
6.96367e-09
1.90444e-05
7.06677e-09
1.90371e-05
7.23947e-09
1.90297e-05
7.39918e-09
1.90223e-05
7.44313e-09
1.90146e-05
7.70158e-09
1.90068e-05
7.79107e-09
1.8999e-05
7.74007e-09
1.89913e-05
7.78757e-09
1.89834e-05
7.83231e-09
1.89755e-05
7.87306e-09
1.89676e-05
7.96253e-09
1.89598e-05
7.78979e-09
1.8952e-05
7.83028e-09
1.89442e-05
7.78769e-09
1.89367e-05
7.47277e-09
1.8929e-05
7.71297e-09
1.89215e-05
7.52111e-09
1.89144e-05
7.06523e-09
1.89075e-05
6.85821e-09
1.8901e-05
6.59372e-09
1.88946e-05
6.38694e-09
1.88883e-05
6.22477e-09
1.88822e-05
6.09808e-09
1.88762e-05
5.99718e-09
1.88703e-05
5.93878e-09
1.88647e-05
5.65409e-09
1.88589e-05
5.73273e-09
1.88535e-05
5.39401e-09
1.88483e-05
5.27542e-09
1.8843e-05
5.23245e-09
1.88377e-05
5.36151e-09
1.88323e-05
5.38306e-09
1.88267e-05
5.53422e-09
1.88216e-05
5.10438e-09
1.8816e-05
5.66067e-09
1.88105e-05
5.44648e-09
1.88052e-05
5.31881e-09
1.87989e-05
6.26938e-09
1.87952e-05
3.73591e-09
1.87871e-05
8.0985e-09
1.87841e-05
3.05155e-09
1.87723e-05
1.17598e-08
1.87726e-05
-3.52217e-10
1.87548e-05
1.78322e-08
1.87636e-05
-8.81723e-09
1.87342e-05
2.93928e-08
1.87456e-05
-1.14091e-08
1.87036e-05
4.20963e-08
1.86986e-05
4.99472e-09
1.87773e-05
-7.87328e-08
1.86787e-05
9.86055e-08
1.8683e-05
-4.35482e-09
1.88071e-05
-1.24041e-07
1.87404e-05
6.67096e-08
1.85672e-05
1.73133e-07
1.86077e-05
-4.04622e-08
1.86248e-05
-1.71481e-08
1.86105e-05
1.43278e-08
1.86266e-05
-1.60944e-08
1.86175e-05
9.13793e-09
1.86267e-05
-9.18804e-09
1.86255e-05
1.18016e-09
1.86239e-05
1.54255e-09
1.86311e-05
-7.20371e-09
1.86157e-05
1.54865e-08
1.86336e-05
-1.79662e-08
1.85943e-05
3.93102e-08
1.86116e-05
-1.72679e-08
1.86957e-05
-8.41041e-08
1.85962e-05
9.94615e-08
1.85909e-05
5.36006e-09
1.87344e-05
-1.43518e-07
1.86767e-05
5.77227e-08
1.8506e-05
1.70693e-07
1.85336e-05
-2.75981e-08
1.85498e-05
-1.62344e-08
1.85348e-05
1.50118e-08
1.85487e-05
-1.39094e-08
1.85387e-05
9.99599e-09
1.85403e-05
-1.58048e-09
1.85294e-05
1.08518e-08
1.85319e-05
-2.44608e-09
1.8517e-05
1.48602e-08
1.85221e-05
-5.06674e-09
1.84966e-05
2.55266e-08
1.85106e-05
-1.40047e-08
1.84704e-05
4.01532e-08
1.84965e-05
-2.60436e-08
1.84358e-05
6.06496e-08
1.8475e-05
-3.9149e-08
1.83911e-05
8.39018e-08
1.84497e-05
-5.86964e-08
1.83678e-05
8.19667e-08
1.84563e-05
-8.85041e-08
1.84079e-05
4.84105e-08
1.85712e-05
-1.63321e-07
1.86752e-05
-1.04023e-07
1.88985e-05
-2.23222e-07
1.85841e-05
3.14336e-07
1.80325e-05
5.51617e-07
1.66591e-05
1.37333e-06
1.35952e-05
3.06397e-06
1.07682e-05
2.82699e-06
9.91095e-06
8.57265e-07
9.70408e-06
2.06863e-07
8.40415e-06
1.29993e-06
6.57874e-06
1.82542e-06
3.62871e-06
2.95002e-06
1.02624e-06
2.60247e-06
-6.25319e-07
1.65156e-06
-2.13066e-06
1.50534e-06
-3.52274e-06
1.39208e-06
-3.52274e-06
3.78657e-05
6.43873e-07
3.76407e-05
7.46844e-07
3.72235e-05
1.09539e-06
3.67953e-05
1.11294e-06
3.63565e-05
1.15939e-06
3.59548e-05
1.07757e-06
3.55697e-05
1.05455e-06
3.52218e-05
9.72931e-07
3.49058e-05
9.29151e-07
3.46474e-05
8.41136e-07
3.4406e-05
8.06854e-07
3.41816e-05
7.6156e-07
3.39605e-05
7.37943e-07
3.3746e-05
7.0773e-07
3.35315e-05
6.90056e-07
3.33189e-05
6.67356e-07
3.30977e-05
6.54582e-07
3.28713e-05
6.38799e-07
3.26453e-05
6.21425e-07
3.24219e-05
6.02815e-07
3.22014e-05
5.84302e-07
3.19826e-05
5.67051e-07
3.17654e-05
5.49978e-07
3.15501e-05
5.31954e-07
3.13373e-05
5.12398e-07
3.11272e-05
4.92318e-07
3.09206e-05
4.71894e-07
3.07187e-05
4.51731e-07
3.05228e-05
4.32219e-07
3.03322e-05
4.14632e-07
3.01465e-05
3.98083e-07
2.99654e-05
3.82552e-07
2.97887e-05
3.67902e-07
2.96163e-05
3.53881e-07
2.9448e-05
3.40303e-07
2.9284e-05
3.26663e-07
2.91244e-05
3.13322e-07
2.89694e-05
3.00148e-07
2.88189e-05
2.87346e-07
2.8673e-05
2.74784e-07
2.85321e-05
2.62313e-07
2.83964e-05
2.50151e-07
2.82658e-05
2.38774e-07
2.81398e-05
2.28349e-07
2.8018e-05
2.18727e-07
2.78998e-05
2.10173e-07
2.77842e-05
2.02799e-07
2.7671e-05
1.96053e-07
2.75602e-05
1.89184e-07
2.74522e-05
1.82197e-07
2.73476e-05
1.74501e-07
2.7247e-05
1.66493e-07
2.71506e-05
1.5829e-07
2.70583e-05
1.50566e-07
2.69699e-05
1.43465e-07
2.68848e-05
1.37432e-07
2.68022e-05
1.32603e-07
2.67213e-05
1.2873e-07
2.66417e-05
1.25754e-07
2.65629e-05
1.2311e-07
2.64853e-05
1.2034e-07
2.64093e-05
1.16931e-07
2.63354e-05
1.1294e-07
2.62641e-05
1.08612e-07
2.61959e-05
1.03878e-07
2.61307e-05
9.9226e-08
2.60685e-05
9.47176e-08
2.60088e-05
9.09206e-08
2.59511e-05
8.7837e-08
2.58943e-05
8.59195e-08
2.5838e-05
8.44967e-08
2.57814e-05
8.38052e-08
2.57249e-05
8.27877e-08
2.56685e-05
8.12887e-08
2.56133e-05
7.88505e-08
2.55598e-05
7.55082e-08
2.55092e-05
7.10972e-08
2.54622e-05
6.59649e-08
2.54195e-05
6.00387e-08
2.53816e-05
5.38718e-08
2.53484e-05
4.79532e-08
2.5319e-05
4.34089e-08
2.5292e-05
4.08803e-08
2.52657e-05
4.03208e-08
2.52389e-05
4.1576e-08
2.521e-05
4.45454e-08
2.51787e-05
4.81179e-08
2.51441e-05
5.222e-08
2.51064e-05
5.62152e-08
2.50661e-05
5.88962e-08
2.50252e-05
5.93954e-08
2.49847e-05
5.8192e-08
2.49459e-05
5.55675e-08
2.49093e-05
5.23332e-08
2.48756e-05
4.82798e-08
2.48451e-05
4.37671e-08
2.48176e-05
3.98254e-08
2.47926e-05
3.61866e-08
2.47691e-05
3.43414e-08
2.4747e-05
3.24331e-08
2.47251e-05
3.22611e-08
2.47032e-05
3.21581e-08
2.4681e-05
3.32306e-08
2.46579e-05
3.40647e-08
2.46347e-05
3.51341e-08
2.46151e-05
3.07202e-08
2.46041e-05
2.11125e-08
2.45984e-05
1.56695e-08
2.45901e-05
2.66516e-08
2.45547e-05
8.97219e-08
2.45111e-05
1.11504e-07
2.44043e-05
2.10748e-07
2.43475e-05
1.07921e-07
2.43003e-05
1.03341e-07
2.42409e-05
1.05993e-07
2.41664e-05
1.02855e-07
2.40792e-05
1.12591e-07
2.40144e-05
8.30631e-08
2.40972e-05
-8.39111e-08
2.40861e-05
5.01162e-08
2.39252e-05
2.04263e-07
2.38243e-05
1.77487e-07
2.38243e-05
3.88168e-08
2.37873e-05
5.89352e-08
2.37609e-05
5.12263e-08
2.37008e-05
9.10202e-08
2.36349e-05
6.26778e-08
2.36121e-05
2.15055e-08
2.37286e-05
-1.30089e-07
2.37463e-05
1.25373e-08
2.35851e-05
1.92796e-07
2.35244e-05
5.78507e-08
2.36453e-05
-1.18501e-07
2.36692e-05
5.44725e-09
2.35445e-05
1.38236e-07
2.34407e-05
1.48867e-07
2.3416e-05
8.77076e-08
2.33961e-05
3.58627e-08
2.33932e-05
-2.56048e-08
2.33396e-05
5.73423e-08
2.3333e-05
2.62903e-09
2.34429e-05
-1.36049e-07
2.34877e-05
-4.84079e-08
2.33629e-05
1.66749e-07
2.32913e-05
1.12748e-07
2.32837e-05
3.36419e-08
2.32709e-05
1.48174e-08
2.32313e-05
6.35452e-08
2.32e-05
6.52546e-08
2.31554e-05
5.67573e-08
2.31717e-05
-6.86632e-08
2.32681e-05
-1.11359e-07
2.32898e-05
2.21279e-09
2.31605e-05
1.69682e-07
2.30989e-05
9.38695e-08
2.30859e-05
4.21785e-08
2.30759e-05
9.81596e-09
2.30451e-05
4.45818e-08
2.30313e-05
2.3663e-08
2.29847e-05
5.65748e-08
2.29738e-05
-5.49663e-09
2.30741e-05
-1.23158e-07
2.31165e-05
-4.49042e-08
2.30015e-05
1.42615e-07
2.29331e-05
1.02911e-07
2.29215e-05
4.32033e-08
2.29048e-05
2.83073e-08
2.2896e-05
9.96554e-09
2.28831e-05
2.26371e-08
2.28447e-05
4.00911e-08
2.28565e-05
-5.19895e-08
2.29393e-05
-9.48044e-08
2.29639e-05
-1.27826e-08
2.28563e-05
1.33291e-07
2.28136e-05
6.07031e-08
2.28084e-05
1.55662e-08
2.27945e-05
2.94977e-08
2.27881e-05
2.08441e-08
2.27718e-05
1.57375e-08
2.27528e-05
3.01103e-08
2.27412e-05
2.16646e-08
2.27196e-05
2.9487e-08
2.27008e-05
3.79423e-08
2.26906e-05
2.53301e-08
2.26923e-05
-2.63593e-08
2.26872e-05
-1.30707e-08
2.26854e-05
1.25722e-08
2.26648e-05
3.97136e-08
2.2644e-05
3.89255e-08
2.26384e-05
1.39416e-08
2.26197e-05
2.51208e-08
2.26066e-05
2.58248e-08
2.26014e-05
2.20474e-09
2.25769e-05
2.68704e-08
2.25629e-05
3.94269e-08
2.25523e-05
2.15924e-08
2.25333e-05
1.45917e-08
2.25142e-05
3.79178e-08
2.25089e-05
2.09558e-08
2.25025e-05
-4.55787e-09
2.2498e-05
-7.93767e-09
2.24928e-05
1.17599e-08
2.2475e-05
3.24733e-08
2.2462e-05
2.46187e-08
2.24474e-05
2.77537e-08
2.24388e-05
9.05348e-09
2.24241e-05
2.01268e-08
2.24216e-05
2.80243e-09
2.24087e-05
1.59471e-08
2.23977e-05
1.68713e-08
2.23872e-05
1.63485e-08
2.23657e-05
3.52983e-08
2.23532e-05
2.80367e-08
2.23319e-05
4.22386e-08
2.23164e-05
3.85255e-08
2.23206e-05
-1.46245e-08
2.23311e-05
-3.69681e-08
2.23578e-05
-6.44484e-08
2.23784e-05
-5.58851e-08
2.24071e-05
-6.08637e-08
2.243e-05
-5.46067e-08
2.2454e-05
-5.62524e-08
2.24659e-05
-2.18064e-08
2.24771e-05
-1.11327e-08
2.24858e-05
-2.63733e-08
2.25035e-05
-4.80209e-08
2.25205e-05
-2.91337e-08
2.25352e-05
-2.61447e-08
2.25424e-05
-2.66358e-08
2.25357e-05
2.08502e-08
2.25459e-05
2.13841e-08
2.26057e-05
-1.41561e-07
2.2663e-05
-1.86e-07
2.27164e-05
-1.02866e-07
2.27222e-05
1.21923e-08
2.27121e-05
4.86703e-08
2.27274e-05
-1.32195e-08
2.27396e-05
-6.00101e-08
2.27668e-05
-6.59432e-08
2.27744e-05
-3.6665e-09
2.27815e-05
-6.1922e-09
2.27852e-05
-5.66878e-09
2.27937e-05
-1.43972e-08
2.27981e-05
-8.14449e-09
2.28063e-05
-1.44291e-08
2.28101e-05
-5.42629e-09
2.28158e-05
-8.70192e-09
2.28171e-05
-1.57617e-09
2.28211e-05
-6.67404e-09
2.28217e-05
-9.10342e-10
2.28245e-05
-4.51758e-09
2.28245e-05
3.39725e-10
2.2827e-05
-4.26366e-09
2.28275e-05
-1.34191e-09
2.28301e-05
-5.5225e-09
2.28306e-05
-1.82476e-09
2.28329e-05
-4.2282e-09
2.2833e-05
-8.06965e-10
2.28348e-05
-3.33252e-09
2.28341e-05
7.34735e-10
2.28348e-05
-8.27566e-10
2.28335e-05
3.0047e-09
2.28335e-05
9.14462e-10
2.28319e-05
3.42561e-09
2.28315e-05
1.36129e-09
2.28298e-05
3.89259e-09
2.28284e-05
4.99012e-09
2.28252e-05
8.10316e-09
2.28214e-05
1.08093e-08
2.28224e-05
4.96658e-09
2.28403e-05
-4.52547e-08
2.28573e-05
-5.7687e-08
2.28721e-05
-2.79954e-08
2.28733e-05
9.54738e-09
2.28698e-05
1.11109e-08
2.28678e-05
4.91427e-09
2.28672e-05
1.02983e-09
2.28673e-05
1.18072e-10
2.2869e-05
-3.27443e-09
2.28699e-05
-2.42159e-09
2.28725e-05
-5.47636e-09
2.2874e-05
-3.65351e-09
2.28768e-05
-5.65717e-09
2.28783e-05
-3.08066e-09
2.28807e-05
-4.91307e-09
2.28817e-05
-1.89796e-09
2.28833e-05
-3.28328e-09
2.28835e-05
1.74402e-11
2.28845e-05
-1.7641e-09
2.28839e-05
1.33517e-09
2.28845e-05
-6.61465e-10
2.28834e-05
2.51197e-09
2.28835e-05
3.99152e-11
2.28815e-05
4.26216e-09
2.28813e-05
7.64471e-10
2.28787e-05
5.34952e-09
2.28789e-05
1.60187e-10
2.28756e-05
6.306e-09
2.28769e-05
-1.45026e-09
2.28727e-05
6.85126e-09
2.28746e-05
-2.74955e-09
2.28697e-05
8.36635e-09
2.28721e-05
-3.26184e-09
2.28667e-05
9.00547e-09
2.28692e-05
-3.2566e-09
2.2864e-05
8.91612e-09
2.28661e-05
-3.00523e-09
2.28614e-05
7.67338e-09
2.28632e-05
-2.46995e-09
2.28596e-05
5.92555e-09
2.28609e-05
-1.98116e-09
2.28584e-05
4.04349e-09
2.28595e-05
-2.09156e-09
2.2858e-05
1.88123e-09
2.28592e-05
-2.34343e-09
2.28587e-05
2.33645e-10
2.28601e-05
-3.10454e-09
2.28605e-05
-9.99541e-10
2.28623e-05
-4.69219e-09
2.28637e-05
-4.96017e-09
2.28681e-05
-9.91602e-09
2.28721e-05
-8.6575e-09
2.28788e-05
-1.42424e-08
2.28836e-05
-9.61925e-09
2.28911e-05
-1.52369e-08
2.28967e-05
-1.31371e-08
2.29027e-05
-1.00881e-08
2.29085e-05
-1.33896e-08
2.29094e-05
2.42017e-09
2.29269e-05
-2.92435e-08
2.2943e-05
-5.54847e-08
2.29651e-05
-5.54183e-08
2.29766e-05
-8.645e-09
2.29876e-05
-1.66106e-08
2.29854e-05
3.23954e-09
2.3006e-05
-3.86366e-08
2.2996e-05
9.08501e-09
2.30174e-05
-3.13816e-08
2.29914e-05
3.00572e-08
2.2975e-05
1.13346e-07
2.30585e-05
-1.36123e-07
2.30745e-05
-1.98277e-07
2.31671e-05
-1.6082e-07
2.31485e-05
9.13857e-08
2.31509e-05
-5.69764e-09
2.31557e-05
-7.23772e-09
2.31655e-05
-2.15157e-08
2.31748e-05
-1.95673e-08
2.31851e-05
-2.09417e-08
2.31956e-05
-2.01289e-08
2.32061e-05
-2.02716e-08
2.3216e-05
-1.89922e-08
2.32258e-05
-1.85277e-08
2.3235e-05
-1.74745e-08
2.32437e-05
-1.66805e-08
2.3252e-05
-1.55877e-08
2.32601e-05
-1.52905e-08
2.32681e-05
-1.52671e-08
2.32759e-05
-1.45929e-08
2.32836e-05
-1.44622e-08
2.3291e-05
-1.42565e-08
2.32984e-05
-1.39061e-08
2.33057e-05
-1.4005e-08
2.33131e-05
-1.43222e-08
2.33203e-05
-1.43735e-08
2.33285e-05
-1.57758e-08
2.33357e-05
-1.29523e-08
2.33446e-05
-1.73374e-08
2.33511e-05
-1.121e-08
2.33605e-05
-1.86718e-08
2.33644e-05
-6.88662e-09
2.33776e-05
-2.63233e-08
2.33766e-05
2.18434e-09
2.33986e-05
-4.25845e-08
2.33874e-05
1.91856e-08
2.34248e-05
-6.86511e-08
2.33962e-05
4.3415e-08
2.3449e-05
-9.05888e-08
2.33953e-05
8.20402e-08
2.34476e-05
-7.26739e-08
2.33751e-05
1.18168e-07
2.3409e-05
-2.75598e-08
2.33534e-05
9.60858e-08
2.33638e-05
-1.41265e-08
2.33368e-05
6.03725e-08
2.33291e-05
1.19112e-08
2.33137e-05
3.47972e-08
2.33035e-05
2.13088e-08
2.32924e-05
2.40411e-08
2.32819e-05
2.13118e-08
2.32702e-05
2.20568e-08
2.32595e-05
2.10046e-08
2.3248e-05
2.13016e-08
2.32377e-05
1.96534e-08
2.32258e-05
2.16844e-08
2.32163e-05
1.54181e-08
2.32046e-05
2.23743e-08
2.31975e-05
1.18275e-08
2.31835e-05
2.76332e-08
2.31811e-05
3.67111e-09
2.31599e-05
3.97053e-08
2.31674e-05
-1.58829e-08
2.31334e-05
6.48002e-08
2.3166e-05
-5.59838e-08
2.31033e-05
5.31513e-08
2.30657e-05
1.98622e-07
2.31152e-05
-4.3967e-08
2.30759e-05
-1.35472e-07
2.31363e-05
-5.30258e-08
2.30862e-05
1.78032e-07
2.30534e-05
1.97114e-08
2.30631e-05
-1.2828e-08
2.30445e-05
3.14862e-08
2.30435e-05
-1.95797e-09
2.30323e-05
2.07679e-08
2.30262e-05
9.60932e-09
2.30186e-05
1.51648e-08
2.30113e-05
1.33564e-08
2.3004e-05
1.20934e-08
2.29959e-05
1.36105e-08
2.29881e-05
1.2923e-08
2.29796e-05
1.43841e-08
2.29707e-05
1.58312e-08
2.29622e-05
1.39966e-08
2.29531e-05
1.54717e-08
2.29452e-05
1.36316e-08
2.29368e-05
1.42587e-08
2.29291e-05
1.34187e-08
2.29213e-05
1.34965e-08
2.29135e-05
1.3712e-08
2.29053e-05
1.42499e-08
2.28972e-05
1.4321e-08
2.28886e-05
1.51034e-08
2.28802e-05
1.49123e-08
2.28717e-05
1.52816e-08
2.28632e-05
1.52523e-08
2.28545e-05
1.57143e-08
2.28455e-05
1.60032e-08
2.28363e-05
1.64657e-08
2.2827e-05
1.6738e-08
2.28179e-05
1.64729e-08
2.28087e-05
1.68942e-08
2.27996e-05
1.69086e-08
2.27903e-05
1.70468e-08
2.27809e-05
1.72094e-08
2.27714e-05
1.7317e-08
2.27622e-05
1.70998e-08
2.27529e-05
1.7247e-08
2.27432e-05
1.75142e-08
2.27339e-05
1.70778e-08
2.27251e-05
1.66416e-08
2.2716e-05
1.65665e-08
2.27069e-05
1.68218e-08
2.26983e-05
1.60524e-08
2.26896e-05
1.58019e-08
2.26817e-05
1.48e-08
2.26739e-05
1.43913e-08
2.26663e-05
1.39546e-08
2.26587e-05
1.37828e-08
2.26514e-05
1.34296e-08
2.2644e-05
1.33586e-08
2.26372e-05
1.28169e-08
2.26301e-05
1.27004e-08
2.26234e-05
1.24553e-08
2.26169e-05
1.18692e-08
2.26101e-05
1.2126e-08
2.26038e-05
1.15195e-08
2.25971e-05
1.20036e-08
2.25907e-05
1.18033e-08
2.25841e-05
1.21161e-08
2.2578e-05
1.1258e-08
2.25713e-05
1.23886e-08
2.25645e-05
1.22039e-08
2.25575e-05
1.23058e-08
2.25499e-05
1.39285e-08
2.25435e-05
1.00682e-08
2.25358e-05
1.58535e-08
2.25312e-05
7.57317e-09
2.25199e-05
2.30816e-08
2.25184e-05
1.15653e-09
2.24988e-05
3.74853e-08
2.2507e-05
-1.70915e-08
2.24719e-05
6.44922e-08
2.24959e-05
-3.53863e-08
2.2438e-05
1.00023e-07
2.24873e-05
-4.43272e-08
2.24661e-05
-5.75172e-08
2.24216e-05
1.43069e-07
2.25259e-05
-1.08658e-07
2.24168e-05
-1.48753e-08
2.2478e-05
5.43038e-09
2.24014e-05
2.49807e-07
2.23598e-05
1.05995e-09
2.23953e-05
-5.26211e-08
2.23639e-05
4.57352e-08
2.23837e-05
-3.59195e-08
2.23673e-05
2.56007e-08
2.23745e-05
-1.64625e-08
2.23684e-05
7.29399e-09
2.23653e-05
4.63339e-09
2.23679e-05
-9.78655e-09
2.23506e-05
3.27983e-08
2.23678e-05
-3.51948e-08
2.23249e-05
8.22381e-08
2.23832e-05
-7.55554e-08
2.23558e-05
-5.67076e-08
2.23318e-05
1.23452e-07
2.24139e-05
-7.67723e-08
2.23332e-05
-6.27314e-08
2.23797e-05
1.11702e-08
2.23128e-05
2.37617e-07
2.22654e-05
1.98114e-08
2.22916e-05
-4.24725e-08
2.2268e-05
3.86672e-08
2.22756e-05
-2.15388e-08
2.22633e-05
2.22584e-08
2.22617e-05
3.93715e-11
2.22491e-05
2.34619e-08
2.22459e-05
7.54121e-10
2.22284e-05
3.23447e-08
2.22314e-05
-8.01097e-09
2.22017e-05
5.5217e-08
2.22174e-05
-2.9782e-08
2.21667e-05
9.09096e-08
2.22042e-05
-6.35089e-08
2.21235e-05
1.41347e-07
2.21878e-05
-1.03446e-07
2.20739e-05
1.97727e-07
2.21744e-05
-1.59201e-07
2.20402e-05
2.16191e-07
2.21838e-05
-2.32119e-07
2.20667e-05
1.65496e-07
2.22629e-05
-3.59443e-07
2.21949e-05
-3.60377e-08
2.22782e-05
-3.06509e-07
2.19996e-05
5.92896e-07
2.14185e-05
1.13268e-06
2.0321e-05
2.47089e-06
1.80532e-05
5.33172e-06
1.61731e-05
4.70712e-06
1.47764e-05
2.25402e-06
1.41374e-05
8.45828e-07
1.30337e-05
2.40367e-06
1.13656e-05
3.49347e-06
8.75274e-06
5.56291e-06
4.91871e-06
6.4365e-06
1.19667e-06
5.3736e-06
-9.73344e-07
3.67535e-06
-2.22032e-06
2.63906e-06
-5.74306e-06
3.78606e-05
7.833e-07
3.76522e-05
9.55206e-07
3.72412e-05
1.5064e-06
3.68419e-05
1.51219e-06
3.6436e-05
1.56529e-06
3.60854e-05
1.42823e-06
3.57784e-05
1.36152e-06
3.55209e-05
1.23042e-06
3.53053e-05
1.14479e-06
3.51188e-05
1.02759e-06
3.49643e-05
9.61434e-07
3.48273e-05
8.98549e-07
3.47006e-05
8.64665e-07
3.45838e-05
8.24461e-07
3.44821e-05
7.91753e-07
3.43982e-05
7.51245e-07
3.4318e-05
7.34784e-07
3.42416e-05
7.15244e-07
3.41656e-05
6.974e-07
3.40902e-05
6.78197e-07
3.40142e-05
6.60379e-07
3.39356e-05
6.45597e-07
3.38547e-05
6.30867e-07
3.3772e-05
6.14701e-07
3.36853e-05
5.99038e-07
3.35953e-05
5.82329e-07
3.35025e-05
5.64711e-07
3.34034e-05
5.50886e-07
3.32997e-05
5.35896e-07
3.31919e-05
5.2245e-07
3.30812e-05
5.08736e-07
3.29683e-05
4.95493e-07
3.28513e-05
4.84879e-07
3.2731e-05
4.74155e-07
3.26083e-05
4.63032e-07
3.24822e-05
4.5278e-07
3.23538e-05
4.41704e-07
3.22244e-05
4.29533e-07
3.20929e-05
4.18809e-07
3.19615e-05
4.06226e-07
3.18294e-05
3.94366e-07
3.16981e-05
3.81528e-07
3.15684e-05
3.68413e-07
3.14393e-05
3.57461e-07
3.13116e-05
3.46454e-07
3.11858e-05
3.36005e-07
3.10605e-05
3.2803e-07
3.09364e-05
3.20209e-07
3.08142e-05
3.11321e-07
3.0693e-05
3.0346e-07
3.05747e-05
2.92731e-07
3.04587e-05
2.82524e-07
3.03462e-05
2.70846e-07
3.02379e-05
2.5877e-07
3.01328e-05
2.48651e-07
3.00309e-05
2.39299e-07
2.99323e-05
2.31206e-07
2.9835e-05
2.26042e-07
2.97389e-05
2.21823e-07
2.96444e-05
2.17662e-07
2.95499e-05
2.14751e-07
2.9457e-05
2.09881e-07
2.93648e-05
2.05168e-07
2.92745e-05
1.98929e-07
2.91875e-05
1.90835e-07
2.91029e-05
1.83856e-07
2.90216e-05
1.76003e-07
2.89439e-05
1.68563e-07
2.88682e-05
1.63567e-07
2.87941e-05
1.60032e-07
2.87217e-05
1.56904e-07
2.86488e-05
1.56696e-07
2.85767e-05
1.54925e-07
2.8504e-05
1.53962e-07
2.84321e-05
1.50741e-07
2.83624e-05
1.45222e-07
2.82947e-05
1.38809e-07
2.82305e-05
1.30172e-07
2.81714e-05
1.19066e-07
2.8117e-05
1.0834e-07
2.80681e-05
9.67785e-08
2.80247e-05
8.69032e-08
2.7984e-05
8.15506e-08
2.79457e-05
7.86047e-08
2.79072e-05
8.01124e-08
2.78673e-05
8.43927e-08
2.78262e-05
8.91888e-08
2.77816e-05
9.68451e-08
2.77339e-05
1.03968e-07
2.7684e-05
1.08793e-07
2.76321e-05
1.11215e-07
2.75803e-05
1.10059e-07
2.75301e-05
1.05747e-07
2.74808e-05
1.01669e-07
2.74345e-05
9.45705e-08
2.739e-05
8.82679e-08
2.73479e-05
8.18879e-08
2.73091e-05
7.50223e-08
2.72713e-05
7.21407e-08
2.72353e-05
6.83879e-08
2.72008e-05
6.68225e-08
2.71661e-05
6.68041e-08
2.71321e-05
6.72418e-08
2.70987e-05
6.74793e-08
2.70666e-05
6.72671e-08
2.70452e-05
5.21445e-08
2.70528e-05
1.36352e-08
2.70703e-05
-9.91627e-10
2.71e-05
1.34876e-11
2.71366e-05
5.5562e-08
2.71477e-05