/*--------------------------------*- C++ -*----------------------------------*\
| =========                 |                                                 |
| \\      /  F ield         | foam-extend: Open Source CFD                    |
|  \\    /   O peration     | Version:     3.2                                |
|   \\  /    A nd           | Web:         http://www.foam-extend.org         |
|    \\/     M anipulation  | For copyright notice see file Copyright         |
\*---------------------------------------------------------------------------*/
FoamFile
{
    version     2.0;
    format      ascii;
    class       areaScalarField;
    location    "1790";
    object      tauCB;
}
// * * * * * * * * * * * * * * * * * * * * * * * * * * * * * * * * * * * * * //

dimensions      [1 1 2 0 0 0 0];

internalField   nonuniform List<scalar> 
550
(
0.0592711
0.0592711
0.0592711
0.0592711
0.0592711
0.0592711
0.0592711
0.0592711
0.0592711
0.0592711
0.0592711
0.0592711
0.0592711
0.0592711
0.0592711
0.0592711
0.0592711
0.0592711
0.0592711
0.0592711
0.0592711
0.0592711
0.0592711
0.0592711
0.0592711
0.0592711
0.0592711
0.0592711
0.059271
0.0592711
0.0592711
0.059271
0.0592711
0.0592711
0.059271
0.0592711
0.0592711
0.059271
0.0592711
0.059271
0.0592711
0.0592711
0.059271
0.0592711
0.0592711
0.059271
0.0592711
0.0592711
0.059271
0.0592711
0.059271
0.0592711
0.0592711
0.059271
0.0592711
0.0592711
0.059271
0.0592712
0.0592711
0.059271
0.0592711
0.059271
0.0592711
0.0592712
0.059271
0.0592711
0.0592711
0.059271
0.0592712
0.0592711
0.059271
0.0592711
0.059271
0.0592711
0.0592712
0.059271
0.0592711
0.0592711
0.059271
0.0592712
0.0592711
0.059271
0.0592711
0.059271
0.0592711
0.0592712
0.059271
0.0592711
0.0592711
0.059271
0.0592712
0.0592711
0.059271
0.0592711
0.059271
0.0592711
0.0592712
0.059271
0.0592711
0.0592711
0.059271
0.0592712
0.0592711
0.059271
0.0592711
0.059271
0.0592711
0.0592712
0.059271
0.0592643
0.0596201
0.0596906
0.0596406
0.059714
0.0596086
0.0597424
0.0595749
0.0596282
0.05922
0.229343
0.0596439
0.0596275
0.059474
0.0597318
0.0595054
0.0595958
0.0595693
0.0595417
0.05919
0.251987
0.059535
0.0595823
0.0594821
0.242868
0.0595779
0.059606
0.0593576
0.0593132
0.0596188
0.059529
0.0594026
0.0592736
0.223211
0.0595698
0.0595038
0.0595464
0.0595011
0.0595594
0.0594378
0.059544
0.0595498
0.0594961
0.269186
0.0595958
0.0594495
0.0595157
0.0594594
0.0595687
0.0594493
0.0594601
0.0594223
0.0594315
0.286405
0.0595087
0.0594325
0.059401
0.0594091
0.0594644
0.0594571
0.0594774
0.0593722
0.0593741
0.307885
0.0594885
0.0593632
0.0595147
0.0593619
0.0592365
0.059504
0.0593957
0.0592341
0.059443
0.0593203
0.0592158
0.0594738
0.0596648
0.0594075
0.0594612
0.0594372
0.059342
0.0594652
0.0593764
0.0593684
0.0595187
0.0592915
0.0593164
0.0594853
0.0593507
0.0592841
0.0594714
0.0595247
0.0594653
0.059475
0.0594653
0.0594826
0.0594729
0.0595409
0.0594809
0.059573
0.059525
0.0595176
0.0595562
0.0594736
0.0595049
0.0594571
0.0595169
0.0597303
0.0597622
0.0599461
0.0600338
0.0601773
0.0603495
0.0604564
0.0607217
0.0606653
0.0608672
0.0609732
0.0611675
0.061227
0.0613998
0.0613748
0.0613914
0.0613483
0.0617624
0.0620452
0.0622272
0.0623175
0.0623199
0.0624567
0.0626511
0.0627198
0.0628319
0.0628712
0.0629619
0.0629937
0.0630788
0.0631101
0.0631856
0.0632115
0.0632793
0.0633046
0.0633648
0.0633881
0.0634425
0.0634665
0.0635209
0.0635458
0.0635958
0.0636174
0.0636635
0.0636814
0.063722
0.0637305
0.0637622
0.0637647
0.0637909
0.0637897
0.0638053
0.0637987
0.0637881
0.0637617
0.0637879
0.0638896
0.0640063
0.0640443
0.0640928
0.0641063
0.0641407
0.0641534
0.0641883
0.0642066
0.0642464
0.0642707
0.0643151
0.0643424
0.0643894
0.0644176
0.0644656
0.0644929
0.0645404
0.064565
0.0646119
0.064633
0.0646795
0.0646954
0.0647438
0.0647521
0.0648089
0.0648034
0.0648744
0.0648504
0.0649335
0.0648956
0.0649859
0.0649412
0.0650318
0.0649898
0.065073
0.0650431
0.0651127
0.0650971
0.0651538
0.06515
0.0651977
0.0652038
0.0652454
0.0652612
0.0653
0.0653265
0.0653671
0.0654071
0.0654501
0.0654904
0.0655408
0.0655782
0.0656408
0.0656715
0.0657389
0.0657577
0.0657975
0.0658197
0.0658831
0.0660797
0.0660761
0.0662718
0.0661407
0.0664707
0.0661412
0.066609
0.0660929
0.0662428
0.0657136
0.0665647
0.0667163
0.0668958
0.0669832
0.067083
0.0671691
0.067258
0.0673427
0.0674263
0.0675082
0.0675889
0.0676685
0.0677461
0.0678225
0.0678969
0.0679704
0.0680416
0.0681128
0.068182
0.0682517
0.0683199
0.0683899
0.0684578
0.0685296
0.0685993
0.0686698
0.0687476
0.0688049
0.0689059
0.0689292
0.069091
0.069018
0.0693339
0.0690358
0.0696358
0.0689616
0.069893
0.0688073
0.069963
0.0688539
0.0698614
0.0693818
0.0697006
0.0697345
0.069829
0.0699104
0.069999
0.0700812
0.0701651
0.0702465
0.0703271
0.0704065
0.0704852
0.0705602
0.0706436
0.0707039
0.0708117
0.0708222
0.0710195
0.0708821
0.0712987
0.0708338
0.071864
0.0703897
0.0705055
0.0680428
0.0707796
0.0711503
0.0720092
0.0715773
0.0719435
0.0718882
0.0720073
0.0720599
0.0721322
0.072204
0.0722692
0.0723422
0.0724074
0.0724782
0.0725384
0.0725954
0.0726677
0.0734555
0.0734539
0.0734472
0.0734385
0.0734281
0.0734168
0.0734026
0.0733884
0.073373
0.0733575
0.0733409
0.0733253
0.0733082
0.0732922
0.0732753
0.0732592
0.0732445
0.0732284
0.0732137
0.073201
0.0731874
0.0731753
0.0731653
0.0731549
0.073147
0.0731411
0.0731366
0.0731334
0.0731306
0.0731313
0.0731334
0.0731357
0.0731389
0.0731445
0.0731501
0.0731564
0.0731637
0.0731722
0.0731817
0.0731905
0.0732026
0.0732144
0.0732253
0.0732377
0.0732512
0.073265
0.0732824
0.0732941
0.0733119
0.0733284
0.0733417
0.0733694
0.0733648
0.0734223
0.0733607
0.0735204
0.0732898
0.0737014
0.0731067
0.0739418
0.072828
0.0743178
0.0736921
0.0715022
0.0755718
0.0723539
0.0727417
0.0740322
0.0729674
0.0736556
0.0731692
0.0734801
0.0733222
0.0734216
0.0734276
0.0733907
0.0735753
0.0732728
0.0738543
0.0702243
0.0719595
0.0733188
0.0717026
0.0753431
0.0727005
0.0727329
0.0719716
0.071215
0.0718428
0.0717104
0.0719248
0.0719643
0.0721213
0.0721653
0.0723806
0.072325
0.0727223
0.0724203
0.073178
0.0724499
0.073736
0.0724245
0.0743512
0.0723913
0.075029
0.0724385
0.0754567
0.072686
0.0755448
0.0732816
0.0733135
0.06837
0.0650113
0.0551697
0.0399144
0.0592714
0.059271
0.0592709
0.0592714
0.0592709
0.0592714
0.0592709
0.0596371
0.0596366
0.0596372
)
;

boundaryField
{
    inlet
    {
        type            calculated;
        value           uniform 0;
    }
    endWall
    {
        type            calculated;
        value           uniform 0;
    }
    sideWall
    {
        type            empty;
    }
}


// ************************************************************************* //
