/*--------------------------------*- C++ -*----------------------------------*\
| =========                 |                                                 |
| \\      /  F ield         | foam-extend: Open Source CFD                    |
|  \\    /   O peration     | Version:     3.2                                |
|   \\  /    A nd           | Web:         http://www.foam-extend.org         |
|    \\/     M anipulation  | For copyright notice see file Copyright         |
\*---------------------------------------------------------------------------*/
FoamFile
{
    version     2.0;
    format      ascii;
    class       areaScalarField;
    location    "1790";
    object      Te;
}
// * * * * * * * * * * * * * * * * * * * * * * * * * * * * * * * * * * * * * //

dimensions      [0 0 1 0 0 0 0];

internalField   nonuniform List<scalar> 
550
(
0
0
0
0
0
0
0
0
0
0
0
0
0
0
0
0
0
0
0
0
0
0
0
0
0
0
0
0
0
0
0
0
0
0
0
0
0
0
0
0
0
0
0
0
0
0
0
0
0
0
0
0
0
0
0
0
0
0
0
0
0
0
0
0
0
0
0
0
0
0
0
0
0
0
0
0
0
0
0
0
0
0
0
0
0
0
0
0
0
0
0
0
0
0
0
0
0
0
0
0
0
0
0
0
0
0
0
0
0
0.024
0.02
0.016
0.016
0.016
0.008
0.004
0
0
0
0.036
0.004
0.004
0.004
0.02
0.016
0.004
0
0
0
0.02
0.016
0.008
0.008
0.008
0.004
0
0
0
0.024
0.004
0
0
0.024
0.02
0.016
0.012
0.008
0.004
0.004
0.004
0.012
0.012
0.012
0.04
0.028
0.028
0.024
0.016
0.004
0
0
0
0.036
0.016
0.004
0.004
0.004
0.04
0.028
0.008
0.004
0.004
0.004
0.048
0.044
0.02
0.02
0.02
0.056
0.048
0.048
0.036
0.036
0.036
0.732
0.64
0.64
0.624
0.624
0.624
0.632
0.632
0.524
0.388
0.388
0.388
0.444
0.444
0.444
5.628
5.492
5.492
5.492
3.796
4.592
4.376
4.376
4.376
4.316
4.316
4.184
4.084
4.08
4.076
0
0
0
0
0
0
0
0
0
0
0
0
0
0
0
0
0
0
0
0
0
0
0
0
0
0
0
0
0
0
0
0
0
0
0
0
0
0
0
0
0
0
0
0
0
0
2.796
2.736
2.676
0.356
0.292
0.252
0.228
0.208
0.188
0.164
0.14
0.124
0.12
0.112
0.092
0.06
0.016
0
0
0
0
0
0
0
0
0
0
0
0
0
0
0
0
0
0
0
0
0
0
0
0
0
0
0
0
0
0
0
0
0
0
0
0
0
0
0
0
0
0.744
0.776
2.144
2.164
3.452
3.436
3.408
3.376
3.348
3.316
3.28
3.232
3.184
3.14
3.1
3.056
3.004
2.94
2.872
2.808
2.748
2.696
1.912
1.816
1.748
1.68
1.62
1.568
1.508
1.452
1.408
1.376
1.352
1.316
1.272
1.228
1.184
1.144
1.108
1.076
1.056
1.04
1.028
1.02
1.008
1
0.988
0.98
0.976
0.976
0.98
1
1.012
1.016
1.008
1.004
1
0.996
0.988
0.992
0.992
0.984
0.972
0
0
0
0
0
0
0
0
0
0
0
0
0
0
0
0
0
0
0
0
0
0
0
0
1.976
1.976
1.976
0
0
0
0
0
0
0
0
0
0
0
0
0
0
0
0
0
0
0
0
0
0
0
0
0
0
0
0
0
0
0
0
0
0
0
0
0
0
0
0
0
0
0
0
0
0
0
0
0
0
0
0
0
0
0
0
0
0
0
0
0
0
0
0
0
0
0
0
0
0
0
0
0
0
0
0
0
0
0
0
0
0
0
0
0
0
0
0
0
0
0
0
0
0
0
0
0
0
0
0
0
0
0
0
0
0
0
0
0
0
0
0
0
0
0
0
0
0
0
0
0
0
0
0
0
0
1.016
1.068
2.856
2.856
1.312
1.324
0
0
0
0
0
0
0
0
0
0
)
;

boundaryField
{
    inlet
    {
        type            calculated;
        value           uniform 0;
    }
    endWall
    {
        type            calculated;
        value           uniform 0;
    }
    sideWall
    {
        type            empty;
    }
}


// ************************************************************************* //
