/*--------------------------------*- C++ -*----------------------------------*\
| =========                 |                                                 |
| \\      /  F ield         | foam-extend: Open Source CFD                    |
|  \\    /   O peration     | Version:     3.2                                |
|   \\  /    A nd           | Web:         http://www.foam-extend.org         |
|    \\/     M anipulation  | For copyright notice see file Copyright         |
\*---------------------------------------------------------------------------*/
FoamFile
{
    version     2.0;
    format      ascii;
    class       areaVectorField;
    location    "1790";
    object      Wt;
}
// * * * * * * * * * * * * * * * * * * * * * * * * * * * * * * * * * * * * * //

dimensions      [1 1 -2 0 0 0 0];

internalField   nonuniform List<vector> 
550
(
(1.80184e-10 0 -3.60368e-13)
(1.80185e-10 0 -3.6037e-13)
(1.80184e-10 6.55795e-27 -3.60366e-13)
(1.80186e-10 -6.55798e-27 -3.60376e-13)
(1.80181e-10 -6.55798e-27 -3.60357e-13)
(1.80185e-10 0 -3.60372e-13)
(1.80179e-10 6.55791e-27 -3.60349e-13)
(1.80184e-10 6.55791e-27 -3.60368e-13)
(1.80194e-10 0 -3.60408e-13)
(1.80179e-10 0 -3.60349e-13)
(1.80184e-10 6.55791e-27 -3.60368e-13)
(1.80184e-10 0 -3.60368e-13)
(1.80179e-10 6.55791e-27 -3.60349e-13)
(1.80194e-10 0 -3.60408e-13)
(1.80184e-10 6.55791e-27 -3.60368e-13)
(1.80179e-10 0 -3.60349e-13)
(1.80184e-10 6.55791e-27 -3.60368e-13)
(1.80179e-10 0 -3.60349e-13)
(1.80184e-10 6.55791e-27 -3.60368e-13)
(1.80194e-10 6.55827e-27 -3.60408e-13)
(1.80179e-10 0 -3.60349e-13)
(1.80184e-10 6.55791e-27 -3.60368e-13)
(1.80184e-10 6.55791e-27 -3.60368e-13)
(1.80179e-10 0 -3.60349e-13)
(1.80194e-10 6.55827e-27 -3.60408e-13)
(1.80184e-10 6.55791e-27 -3.60368e-13)
(1.80179e-10 0 -3.60349e-13)
(1.80174e-10 6.55791e-27 -3.60329e-13)
(1.80214e-10 0 -3.60487e-13)
(1.80164e-10 0 -3.60289e-13)
(1.80174e-10 0 -3.60329e-13)
(1.80214e-10 0 -3.60487e-13)
(1.80164e-10 0 -3.60289e-13)
(1.80164e-10 0 -3.60289e-13)
(1.80214e-10 0 -3.60487e-13)
(1.80174e-10 0 -3.60329e-13)
(1.80164e-10 0 -3.60289e-13)
(1.80214e-10 0 -3.60487e-13)
(1.80164e-10 0 -3.60289e-13)
(1.80214e-10 0 -3.60487e-13)
(1.80164e-10 0 -3.60289e-13)
(1.80174e-10 0 -3.60329e-13)
(1.80214e-10 0 -3.60487e-13)
(1.80164e-10 0 -3.60289e-13)
(1.80164e-10 0 -3.60289e-13)
(1.80214e-10 0 -3.60487e-13)
(1.80174e-10 0 -3.60329e-13)
(1.80164e-10 0 -3.60289e-13)
(1.80214e-10 0 -3.60487e-13)
(1.80164e-10 0 -3.60289e-13)
(1.80214e-10 0 -3.60487e-13)
(1.80164e-10 0 -3.60289e-13)
(1.80174e-10 0 -3.60329e-13)
(1.80214e-10 0 -3.60487e-13)
(1.80164e-10 0 -3.60289e-13)
(1.80184e-10 0 -3.60368e-13)
(1.80234e-10 0 -3.60567e-13)
(1.80085e-10 0 -3.59972e-13)
(1.80184e-10 0 -3.60368e-13)
(1.80234e-10 0 -3.60567e-13)
(1.80184e-10 0 -3.60368e-13)
(1.80234e-10 0 -3.60567e-13)
(1.80184e-10 0 -3.60368e-13)
(1.80085e-10 0 -3.59972e-13)
(1.80234e-10 0 -3.60567e-13)
(1.80184e-10 0 -3.60368e-13)
(1.80184e-10 0 -3.60368e-13)
(1.80234e-10 0 -3.60567e-13)
(1.80085e-10 0 -3.59972e-13)
(1.80184e-10 0 -3.60368e-13)
(1.80234e-10 0 -3.60567e-13)
(1.80184e-10 0 -3.60368e-13)
(1.80234e-10 0 -3.60567e-13)
(1.80184e-10 0 -3.60368e-13)
(1.80085e-10 0 -3.59972e-13)
(1.80234e-10 0 -3.60567e-13)
(1.80184e-10 0 -3.60368e-13)
(1.80184e-10 0 -3.60368e-13)
(1.80234e-10 0 -3.60567e-13)
(1.80085e-10 0 -3.59972e-13)
(1.80184e-10 0 -3.60368e-13)
(1.80234e-10 0 -3.60567e-13)
(1.80184e-10 0 -3.60368e-13)
(1.80234e-10 0 -3.60567e-13)
(1.80184e-10 0 -3.60368e-13)
(1.80085e-10 0 -3.59972e-13)
(1.80234e-10 0 -3.60567e-13)
(1.80184e-10 0 -3.60368e-13)
(1.80184e-10 0 -3.60368e-13)
(1.80234e-10 0 -3.60567e-13)
(1.80085e-10 0 -3.59972e-13)
(1.80184e-10 6.55863e-27 -3.60368e-13)
(1.80234e-10 0 -3.60567e-13)
(1.80184e-10 0 -3.60368e-13)
(1.80234e-10 0 -3.60567e-13)
(1.80184e-10 0 -3.60368e-13)
(1.80085e-10 6.55503e-27 -3.59972e-13)
(1.80234e-10 0 -3.60567e-13)
(1.80184e-10 0 -3.60368e-13)
(1.80184e-10 0 -3.60368e-13)
(1.80234e-10 0 -3.60567e-13)
(1.80085e-10 0 -3.59972e-13)
(1.80184e-10 0 -3.60368e-13)
(1.80234e-10 0 -3.60567e-13)
(1.80184e-10 0 -3.60368e-13)
(1.80234e-10 0 -3.60567e-13)
(1.80184e-10 0 -3.60368e-13)
(1.80085e-10 0 -3.59972e-13)
(1.80234e-10 0 -3.60567e-13)
(1.19097e-10 0 -1.57438e-13)
(2.35919e-10 0 -6.17789e-13)
(1.54434e-10 0 -2.64727e-13)
(1.97861e-10 0 -4.34544e-13)
(1.50213e-10 0 -2.50453e-13)
(2.31803e-10 0 -5.9642e-13)
(8.46702e-11 0 -7.95744e-14)
(2.45472e-10 0 -6.68837e-13)
(1.90861e-10 0 -4.04342e-13)
(2.30424e-10 0 -5.89343e-13)
(1.64209e-10 0 -2.99299e-13)
(1.28948e-10 0 -1.84563e-13)
(1.55446e-10 0 -2.68207e-13)
(2.85647e-10 0 -9.0568e-13)
(5.08828e-11 0 -2.87378e-14)
(2.1773e-10 0 -5.26201e-13)
(1.58044e-10 0 -2.77249e-13)
(1.80149e-10 0 -3.60226e-13)
(2.2621e-10 6.55862e-27 -5.67985e-13)
(2.59911e-10 0 -7.49835e-13)
(9.97309e-11 0 -1.10401e-13)
(1.82294e-10 -6.55863e-27 -3.68856e-13)
(1.39734e-10 0 -2.16729e-13)
(2.32709e-10 0 -6.01092e-13)
(1.936e-10 0 -4.1603e-13)
(1.19327e-10 0 -1.58047e-13)
(1.05666e-10 0 -1.23932e-13)
(3.36256e-10 0 -1.25504e-12)
(1.38715e-10 0 -2.13579e-13)
(8.79848e-11 0 -8.59265e-14)
(1.86461e-10 0 -3.85911e-13)
(2.95196e-10 1.311e-26 -9.67245e-13)
(1.77702e-10 0 -3.50507e-13)
(1.77799e-10 0 -3.50892e-13)
(1.2735e-10 0 -1.80016e-13)
(1.90683e-10 -6.55863e-27 -4.03587e-13)
(1.55361e-10 -6.55503e-27 -2.67915e-13)
(2.01325e-10 0 -4.49892e-13)
(1.50551e-10 0 -2.51584e-13)
(2.58758e-10 0 -7.43197e-13)
(1.44716e-10 -6.55864e-27 -2.32458e-13)
(1.38662e-10 0 -2.13415e-13)
(1.97502e-10 6.55502e-27 -4.32967e-13)
(2.67397e-10 -1.31172e-26 -7.9365e-13)
(8.06834e-11 -3.27933e-27 -7.2257e-14)
(2.16615e-10 0 -5.20826e-13)
(1.49607e-10 0 -2.48436e-13)
(1.97915e-10 6.55502e-27 -4.34783e-13)
(9.30471e-11 0 -9.60987e-14)
(2.16706e-10 0 -5.21263e-13)
(1.99342e-10 0 -4.41072e-13)
(2.28133e-10 0 -5.77684e-13)
(2.06445e-10 0 -4.73069e-13)
(1.61653e-10 0 -2.90055e-13)
(1.17538e-10 0 -1.53346e-13)
(1.90897e-10 0 -4.04494e-13)
(2.19478e-10 6.55862e-27 -5.34683e-13)
(2.00454e-10 0 -4.4601e-13)
(1.43416e-10 0 -2.28302e-13)
(1.46738e-10 0 -2.39001e-13)
(1.30376e-10 6.55864e-27 -1.88671e-13)
(2.32219e-10 0 -5.98561e-13)
(2.25625e-10 0 -5.65052e-13)
(2.41681e-10 6.55861e-27 -6.48337e-13)
(9.87938e-11 0 -1.08336e-13)
(2.12554e-10 0 -5.0148e-13)
(6.5997e-11 -3.27933e-27 -4.83459e-14)
(2.29202e-10 0 -5.83111e-13)
(3.18127e-10 0 -1.12335e-12)
(4.72064e-11 0 -2.47351e-14)
(1.64523e-10 -6.55864e-27 -3.00446e-13)
(2.91527e-10 0 -9.43351e-13)
(7.66603e-11 0 -6.52308e-14)
(2.03183e-10 0 -4.58237e-13)
(2.82824e-10 1.31172e-26 -8.87866e-13)
(1.87624e-11 0 -3.90739e-15)
(-1.09137e-10 0 -1.32207e-13)
(1.77051e-10 0 -3.47945e-13)
(1.08084e-10 0 -1.29669e-13)
(1.3306e-10 0 -1.96521e-13)
(2.00004e-10 0 -4.44006e-13)
(6.98064e-11 0 -5.40882e-14)
(1.67468e-10 0 -3.11298e-13)
(1.49868e-10 0 -2.49304e-13)
(2.36222e-11 0 -6.19372e-15)
(2.57515e-10 0 -7.36069e-13)
(1.81402e-10 0 -3.65256e-13)
(2.21154e-11 0 -5.42878e-15)
(1.74975e-10 0 -3.39832e-13)
(2.03509e-10 6.55862e-27 -4.59708e-13)
(5.29455e-12 -2.04958e-28 -3.11149e-16)
(7.46724e-12 0 -6.18916e-16)
(1.20951e-10 0 -1.62381e-13)
(1.4136e-10 0 -2.21803e-13)
(1.59461e-10 0 -2.82241e-13)
(1.38602e-10 6.55864e-27 -2.1323e-13)
(1.37313e-10 0 -2.09283e-13)
(7.51965e-11 3.27752e-27 -6.27634e-14)
(1.35299e-10 0 -2.0319e-13)
(5.04478e-11 0 -2.82486e-14)
(1.15978e-10 0 -1.49301e-13)
(1.23334e-10 -3.27932e-27 -1.6884e-13)
(9.63166e-11 0 -1.02971e-13)
(1.68244e-10 -6.55863e-27 -3.14189e-13)
(1.15428e-10 0 -1.47888e-13)
(1.29817e-10 3.27932e-27 -1.87058e-13)
(1.22991e-11 0 -1.67902e-15)
(-1.88676e-10 -6.55863e-27 -3.95136e-13)
(-1.83795e-10 0 -3.74956e-13)
(-2.86866e-10 1.31172e-26 -9.1343e-13)
(-2.69126e-10 0 -8.03948e-13)
(-2.92355e-10 0 -9.48717e-13)
(-3.27031e-10 0 -1.18712e-12)
(-2.76718e-10 -1.311e-26 -8.49946e-13)
(-1.23142e-10 0 -1.68316e-13)
(-2.73615e-10 1.31172e-26 -8.30987e-13)
(-3.36143e-10 0 -1.2542e-12)
(-2.75534e-10 0 -8.42688e-13)
(-2.31947e-10 6.55861e-27 -5.97161e-13)
(-2.92913e-10 1.311e-26 -9.52345e-13)
(-2.41724e-10 6.55861e-27 -6.48564e-13)
(-6.63012e-11 3.27933e-27 -4.87927e-14)
(-5.22204e-10 0 -3.02695e-12)
(-1.06103e-09 0 -1.24975e-11)
(-4.68469e-10 0 -2.43604e-12)
(-2.37258e-10 6.55861e-27 -6.24822e-13)
(-1.51512e-10 6.55864e-27 -2.54803e-13)
(-9.58484e-11 3.27933e-27 -1.01972e-13)
(-5.12078e-10 0 -2.9107e-12)
(-3.2317e-10 1.31171e-26 -1.15926e-12)
(-2.03116e-10 0 -4.57932e-13)
(-1.77161e-10 0 -3.48376e-13)
(-1.93798e-10 0 -4.16879e-13)
(-1.6259e-10 0 -2.93429e-13)
(-1.84161e-10 0 -3.7645e-13)
(-1.55177e-10 0 -2.67279e-13)
(-1.68212e-10 -6.55863e-27 -3.14072e-13)
(-1.32523e-10 6.55864e-27 -1.94938e-13)
(-1.47347e-10 0 -2.40988e-13)
(-1.23598e-10 -3.27932e-27 -1.69566e-13)
(-1.35341e-10 0 -2.03315e-13)
(-1.11387e-10 0 -1.37715e-13)
(-1.23703e-10 0 -1.69853e-13)
(-1.03127e-10 0 -1.18048e-13)
(-1.18541e-10 -3.27932e-27 -1.55972e-13)
(-9.99907e-11 3.27932e-27 -1.10977e-13)
(-1.06939e-10 0 -1.26936e-13)
(-8.5542e-11 0 -8.12214e-14)
(-9.25499e-11 -3.27933e-27 -9.50744e-14)
(-7.32494e-11 0 -5.95552e-14)
(-7.83799e-11 3.27933e-27 -6.81901e-14)
(-5.67623e-11 0 -3.57628e-14)
(-5.97568e-11 0 -3.96356e-14)
(-4.46711e-11 0 -2.21496e-14)
(-5.20913e-11 0 -3.01191e-14)
(-4.11423e-11 -1.63966e-27 -1.87884e-14)
(-4.80769e-11 0 -2.56558e-14)
(-3.93912e-11 0 -1.7223e-14)
(-3.7933e-11 0 -1.59715e-14)
(-3.77538e-11 1.63966e-27 -1.5821e-14)
(-4.83863e-11 0 -2.5987e-14)
(-1.50842e-10 -6.55864e-27 -2.52554e-13)
(-3.14515e-10 0 -1.09799e-12)
(-1.60913e-10 -6.55503e-27 -2.87406e-13)
(-4.99908e-11 1.63966e-27 -2.77391e-14)
(-5.21474e-11 0 -3.0184e-14)
(-5.68799e-11 0 -3.59111e-14)
(-5.8273e-11 1.63966e-27 -3.76918e-14)
(-6.73935e-11 3.27752e-27 -5.04136e-14)
(-6.53652e-11 0 -4.74247e-14)
(-7.51312e-11 0 -6.26545e-14)
(-7.0854e-11 0 -5.57238e-14)
(-7.90998e-11 -3.27933e-27 -6.94485e-14)
(-6.98544e-11 0 -5.41626e-14)
(-7.55303e-11 0 -6.3322e-14)
(-6.43193e-11 1.63966e-27 -4.59193e-14)
(-6.93793e-11 0 -5.34283e-14)
(-5.62348e-11 0 -3.51012e-14)
(-6.00789e-11 -1.63966e-27 -4.00642e-14)
(-4.59337e-11 0 -2.34193e-14)
(-5.04406e-11 1.63966e-27 -2.82405e-14)
(-3.53219e-11 0 -1.38484e-14)
(-4.07845e-11 0 -1.8463e-14)
(-2.43267e-11 -8.19832e-28 -6.56866e-15)
(-3.17786e-11 8.19832e-28 -1.12094e-14)
(-1.39797e-11 0 -2.16922e-15)
(-2.63517e-11 -8.19832e-28 -7.70777e-15)
(-4.13923e-12 0 -1.90174e-16)
(-2.60356e-11 0 -7.52394e-15)
(7.69785e-12 0 -6.57734e-16)
(-2.79762e-11 0 -8.68741e-15)
(2.15779e-11 -8.19832e-28 -5.16808e-15)
(-2.65202e-11 -8.19832e-28 -7.80663e-15)
(3.37138e-11 0 -1.26162e-14)
(-2.20367e-11 0 -5.39019e-15)
(4.24305e-11 0 -1.99833e-14)
(-1.48694e-11 4.09691e-28 -2.45413e-15)
(4.5869e-11 0 -2.33534e-14)
(-5.76756e-12 2.04958e-28 -3.69229e-16)
(4.33424e-11 -1.63966e-27 -2.08515e-14)
(3.18037e-12 0 -1.12271e-16)
(3.87625e-11 0 -1.66777e-14)
(9.7969e-12 4.09916e-28 -1.06534e-15)
(3.45425e-11 0 -1.3244e-14)
(1.34742e-11 0 -2.01519e-15)
(2.95052e-11 0 -9.66291e-15)
(1.38607e-11 0 -2.13245e-15)
(2.24834e-11 -8.19381e-28 -5.61094e-15)
(9.49381e-12 0 -1.00044e-15)
(1.24526e-11 0 -1.72121e-15)
(-9.3803e-13 0 -9.76664e-18)
(-3.22389e-12 0 -1.15365e-16)
(-1.8906e-11 0 -3.96743e-15)
(-1.2589e-11 0 -1.7591e-15)
(-3.43575e-11 1.63966e-27 -1.31025e-14)
(-1.76694e-11 0 -3.4654e-15)
(-4.36442e-11 0 -2.11429e-14)
(-2.54656e-11 0 -7.19813e-15)
(-3.74991e-11 0 -1.56082e-14)
(-5.34973e-11 1.63966e-27 -3.17669e-14)
(-4.25762e-12 2.04958e-28 -2.01208e-16)
(-2.61643e-10 0 -7.59859e-13)
(-2.10968e-10 0 -4.94024e-13)
(-5.27436e-11 -1.63876e-27 -3.08781e-14)
(-2.1807e-11 0 -5.27842e-15)
(-1.24831e-10 3.27932e-27 -1.72963e-13)
(2.66209e-11 8.19832e-28 -7.86608e-15)
(-2.15596e-10 6.55862e-27 -5.15934e-13)
(1.21462e-10 -3.27932e-27 -1.63753e-13)
(-2.38736e-10 -6.55501e-27 -6.32633e-13)
(2.61005e-10 0 -7.5616e-13)
(9.00037e-11 0 -8.99151e-14)
(-1.65668e-09 -5.24515e-26 -3.04744e-11)
(5.25669e-11 1.63966e-27 -3.06716e-14)
(-1.29704e-11 0 -1.86733e-15)
(-9.90559e-11 0 -1.08911e-13)
(-1.0519e-10 0 -1.22817e-13)
(-1.18127e-10 0 -1.54886e-13)
(-1.21092e-10 0 -1.62759e-13)
(-1.22857e-10 0 -1.67537e-13)
(-1.2377e-10 0 -1.70037e-13)
(-1.21173e-10 0 -1.62976e-13)
(-1.19509e-10 -3.27932e-27 -1.58531e-13)
(-1.16214e-10 -3.27932e-27 -1.49908e-13)
(-1.14103e-10 -3.27932e-27 -1.44512e-13)
(-1.11441e-10 0 -1.37849e-13)
(-1.09643e-10 0 -1.33435e-13)
(-1.08616e-10 -3.27932e-27 -1.30949e-13)
(-1.07918e-10 0 -1.2927e-13)
(-1.08064e-10 0 -1.2962e-13)
(-1.08641e-10 -3.27932e-27 -1.31007e-13)
(-1.09963e-10 0 -1.34216e-13)
(-1.11196e-10 0 -1.37244e-13)
(-1.13682e-10 0 -1.43448e-13)
(-1.16216e-10 -3.27932e-27 -1.49916e-13)
(-1.18922e-10 0 -1.56976e-13)
(-1.22497e-10 0 -1.66558e-13)
(-1.25076e-10 0 -1.73645e-13)
(-1.24548e-10 0 -1.72182e-13)
(-1.30468e-10 0 -1.88937e-13)
(-1.15809e-10 0 -1.48867e-13)
(-1.39388e-10 6.55864e-27 -2.15658e-13)
(-9.49611e-11 0 -1.00093e-13)
(-1.6871e-10 -6.55863e-27 -3.15932e-13)
(-4.18493e-11 -1.63966e-27 -1.94396e-14)
(-2.45165e-10 -6.55861e-27 -6.67162e-13)
(7.34812e-11 0 -5.99327e-14)
(-3.69302e-10 0 -1.51385e-12)
(2.68209e-10 0 -7.98476e-13)
(-4.51964e-10 0 -2.26741e-12)
(5.32809e-10 2.62337e-26 -3.15116e-12)
(-3.71685e-10 1.31171e-26 -1.53345e-12)
(6.32276e-10 0 -4.43758e-12)
(-1.42343e-10 -6.55504e-27 -2.24897e-13)
(3.33047e-10 0 -1.2312e-12)
(1.38425e-10 0 -2.12686e-13)
(1.83604e-10 6.55863e-27 -3.74179e-13)
(1.76927e-10 6.55863e-27 -3.47457e-13)
(1.81647e-10 -6.55503e-27 -3.66242e-13)
(1.78653e-10 -6.55863e-27 -3.54269e-13)
(1.81077e-10 -6.55863e-27 -3.63948e-13)
(1.80087e-10 0 -3.59979e-13)
(1.80873e-10 0 -3.63127e-13)
(1.80397e-10 -6.55863e-27 -3.61221e-13)
(1.80817e-10 6.55503e-27 -3.62904e-13)
(1.79963e-10 -6.55863e-27 -3.59484e-13)
(1.82283e-10 0 -3.68812e-13)
(1.76211e-10 -6.55863e-27 -3.4465e-13)
(1.89525e-10 6.55863e-27 -3.98701e-13)
(1.62605e-10 -6.55503e-27 -2.9348e-13)
(2.16321e-10 6.55862e-27 -5.19413e-13)
(1.15551e-10 0 -1.48203e-13)
(2.90374e-10 0 -9.35907e-13)
(9.57736e-12 -4.09916e-28 -1.01813e-15)
(4.51873e-10 0 -2.2665e-12)
(-3.30962e-10 0 -1.21583e-12)
(9.28648e-10 0 -9.57326e-12)
(6.7629e-10 0 -5.07694e-12)
(-1.56037e-09 0 -2.70332e-11)
(8.0516e-10 2.62325e-26 -7.19632e-12)
(5.64596e-10 2.62192e-26 -3.53838e-12)
(-7.35347e-11 0 -6.00201e-14)
(3.37672e-10 -1.31171e-26 -1.26563e-12)
(9.98834e-11 0 -1.10739e-13)
(2.03563e-10 -6.55862e-27 -4.59951e-13)
(1.65266e-10 6.55864e-27 -3.03165e-13)
(1.80577e-10 0 -3.61942e-13)
(1.79618e-10 0 -3.58107e-13)
(1.78928e-10 0 -3.55359e-13)
(1.83057e-10 0 -3.7195e-13)
(1.80426e-10 0 -3.61334e-13)
(1.83493e-10 0 -3.73726e-13)
(1.80647e-10 -6.55863e-27 -3.62223e-13)
(1.84293e-10 0 -3.76993e-13)
(1.87786e-10 0 -3.91419e-13)
(1.75347e-10 0 -3.4128e-13)
(1.82615e-10 0 -3.70159e-13)
(1.79382e-10 0 -3.57165e-13)
(1.79866e-10 6.55863e-27 -3.59097e-13)
(1.80126e-10 0 -3.60135e-13)
(1.80309e-10 0 -3.60869e-13)
(1.79732e-10 6.55863e-27 -3.58561e-13)
(1.80309e-10 -6.55503e-27 -3.60869e-13)
(1.79933e-10 0 -3.59365e-13)
(1.80115e-10 0 -3.60093e-13)
(1.79934e-10 6.55863e-27 -3.59368e-13)
(1.80414e-10 -6.55863e-27 -3.61288e-13)
(1.79787e-10 6.55863e-27 -3.5878e-13)
(1.80316e-10 0 -3.60897e-13)
(1.7984e-10 0 -3.58991e-13)
(1.80271e-10 0 -3.60714e-13)
(1.80187e-10 0 -3.60378e-13)
(1.7953e-10 0 -3.57755e-13)
(1.80288e-10 0 -3.60784e-13)
(1.80374e-10 0 -3.61128e-13)
(1.79547e-10 0 -3.57823e-13)
(1.80126e-10 0 -3.60137e-13)
(1.8009e-10 0 -3.59991e-13)
(1.79532e-10 0 -3.57765e-13)
(1.80339e-10 0 -3.60987e-13)
(1.80227e-10 0 -3.60538e-13)
(1.79893e-10 0 -3.59206e-13)
(1.79732e-10 0 -3.58563e-13)
(1.79842e-10 0 -3.59e-13)
(1.80719e-10 0 -3.62509e-13)
(1.80091e-10 0 -3.59998e-13)
(1.79585e-10 6.55863e-27 -3.57975e-13)
(1.79991e-10 6.55863e-27 -3.59596e-13)
(1.80374e-10 0 -3.61127e-13)
(1.79694e-10 0 -3.58409e-13)
(1.79829e-10 0 -3.5895e-13)
(1.8009e-10 6.55863e-27 -3.59992e-13)
(1.80176e-10 6.55863e-27 -3.60336e-13)
(1.80138e-10 0 -3.60183e-13)
(1.79826e-10 0 -3.58937e-13)
(1.80681e-10 0 -3.6236e-13)
(1.79332e-10 0 -3.5697e-13)
(1.79244e-10 0 -3.56618e-13)
(1.79869e-10 0 -3.5911e-13)
(1.80029e-10 6.55863e-27 -3.59746e-13)
(1.79515e-10 0 -3.57696e-13)
(1.79335e-10 6.55503e-27 -3.56979e-13)
(1.77134e-10 0 -3.4827e-13)
(1.79969e-10 0 -3.59507e-13)
(1.77962e-10 0 -3.51535e-13)
(1.78822e-10 -6.55863e-27 -3.5494e-13)
(1.79486e-10 0 -3.5758e-13)
(1.7593e-10 -6.55863e-27 -3.43551e-13)
(1.8616e-10 0 -3.84666e-13)
(1.65089e-10 0 -3.02517e-13)
(2.09607e-10 0 -4.8767e-13)
(1.18962e-10 -3.27932e-27 -1.57083e-13)
(2.82676e-10 1.311e-26 -8.86938e-13)
(4.78077e-12 0 -2.53693e-16)
(4.46872e-10 -1.3117e-26 -2.21661e-12)
(-1.91438e-10 0 -4.06787e-13)
(6.90727e-10 -2.62331e-26 -5.29602e-12)
(-6.07021e-10 2.6219e-26 -4.09015e-12)
(2.14443e-10 0 -5.1043e-13)
(1.19282e-09 0 -1.57957e-11)
(-1.93079e-09 0 -4.13984e-11)
(1.45388e-09 -5.24556e-26 -2.34685e-11)
(7.42789e-10 0 -6.12452e-12)
(-2.77555e-10 0 -8.55097e-13)
(5.31793e-10 2.62337e-26 -3.13915e-12)
(-6.53641e-11 0 -4.74231e-14)
(3.48462e-10 1.31171e-26 -1.34781e-12)
(7.00223e-11 0 -5.44233e-14)
(2.3312e-10 0 -6.03216e-13)
(1.45297e-10 0 -2.3433e-13)
(1.82216e-10 6.55863e-27 -3.68541e-13)
(2.02187e-10 0 -4.53752e-13)
(1.09122e-10 0 -1.32171e-13)
(3.21266e-10 1.31171e-26 -1.14564e-12)
(-8.24653e-11 3.27752e-27 -7.54839e-14)
(6.13373e-10 0 -4.1762e-12)
(-7.36548e-10 0 -6.02203e-12)
(4.66032e-10 1.3117e-26 -2.41077e-12)
(1.00673e-09 -2.62314e-26 -1.12509e-11)
(-1.75117e-09 0 -3.40513e-11)
(1.2295e-09 0 -1.67822e-11)
(8.58935e-10 2.62322e-26 -8.18977e-12)
(-2.38808e-10 -6.55861e-27 -6.33011e-13)
(4.6269e-10 0 -2.37631e-12)
(3.64731e-11 0 -1.47658e-14)
(2.28424e-10 0 -5.7916e-13)
(1.43315e-10 0 -2.2798e-13)
(1.92325e-10 0 -4.10569e-13)
(1.61403e-10 0 -2.89158e-13)
(2.02038e-10 0 -4.53085e-13)
(1.38779e-10 0 -2.13776e-13)
(2.47678e-10 0 -6.8091e-13)
(6.33819e-11 -1.63966e-27 -4.45904e-14)
(3.55557e-10 0 -1.40326e-12)
(-8.36997e-11 0 -7.77606e-14)
(5.41526e-10 0 -3.25512e-12)
(-2.91374e-10 1.311e-26 -9.42359e-13)
(7.93377e-10 -2.62326e-26 -6.98721e-12)
(-5.41625e-10 -2.62337e-26 -3.25631e-12)
(1.05842e-09 0 -1.24361e-11)
(-8.68979e-10 0 -8.38245e-12)
(1.24753e-09 0 -1.72782e-11)
(-1.05425e-09 0 -1.23385e-11)
(1.25109e-09 0 -1.7377e-11)
(-1.01076e-09 0 -1.13413e-11)
(1.5296e-09 0 -2.59771e-11)
(1.84108e-09 0 -3.76391e-11)
(6.03863e-09 0 -4.06586e-10)
(7.85309e-09 0 -6.89812e-10)
(1.34009e-08 0 -2.03951e-09)
(1.98907e-08 0 -4.62935e-09)
(1.79887e-10 0 -3.5918e-13)
(1.80283e-10 6.55503e-27 -3.60765e-13)
(1.80382e-10 0 -3.61162e-13)
(1.79887e-10 -6.55863e-27 -3.5918e-13)
(1.80382e-10 0 -3.61162e-13)
(1.79887e-10 -6.55863e-27 -3.5918e-13)
(1.80382e-10 -6.55863e-27 -3.61162e-13)
(1.80283e-10 0 -3.60765e-13)
(1.79887e-10 0 -3.5918e-13)
(1.80382e-10 -6.55863e-27 -3.61162e-13)
)
;

boundaryField
{
    inlet
    {
        type            calculated;
        value           uniform (0 0 0);
    }
    endWall
    {
        type            calculated;
        value           uniform (0 0 0);
    }
    sideWall
    {
        type            empty;
    }
}


// ************************************************************************* //
