/*--------------------------------*- C++ -*----------------------------------*\
| =========                 |                                                 |
| \\      /  F ield         | foam-extend: Open Source CFD                    |
|  \\    /   O peration     | Version:     3.2                                |
|   \\  /    A nd           | Web:         http://www.foam-extend.org         |
|    \\/     M anipulation  | For copyright notice see file Copyright         |
\*---------------------------------------------------------------------------*/
FoamFile
{
    version     2.0;
    format      ascii;
    class       surfaceScalarField;
    location    "1790";
    object      AdSS2;
}
// * * * * * * * * * * * * * * * * * * * * * * * * * * * * * * * * * * * * * //

dimensions      [0 3 -1 0 0 0 0];

internalField   nonuniform List<scalar> 
65390
(
3.74904e-05
3.70101e-07
3.69685e-05
3.82411e-07
3.62904e-05
5.3868e-07
3.56056e-05
5.45277e-07
3.48851e-05
5.81111e-07
3.42092e-05
5.36441e-07
3.35397e-05
5.30022e-07
3.29146e-05
4.85571e-07
3.23015e-05
4.73645e-07
3.17187e-05
4.43304e-07
3.11532e-05
4.2603e-07
3.06161e-05
3.97648e-07
3.00992e-05
3.77462e-07
2.9606e-05
3.53704e-07
2.91305e-05
3.36083e-07
2.86757e-05
3.15307e-07
2.82423e-05
2.93898e-07
2.78299e-05
2.72945e-07
2.74344e-05
2.55986e-07
2.7055e-05
2.39928e-07
2.66912e-05
2.24377e-07
2.63429e-05
2.08864e-07
2.601e-05
1.93412e-07
2.56934e-05
1.77141e-07
2.53937e-05
1.60163e-07
2.51114e-05
1.42817e-07
2.48462e-05
1.25821e-07
2.45963e-05
1.10412e-07
2.43599e-05
9.68812e-08
2.41359e-05
8.45307e-08
2.39235e-05
7.29465e-08
2.3722e-05
6.20409e-08
2.35308e-05
5.17526e-08
2.33493e-05
4.19468e-08
2.31774e-05
3.24592e-08
2.30148e-05
2.31714e-08
2.28611e-05
1.42344e-08
2.2716e-05
5.57444e-09
2.25793e-05
-2.72965e-09
2.24505e-05
-1.06847e-08
2.23291e-05
-1.81153e-08
2.22147e-05
-2.50293e-08
2.21066e-05
-3.13615e-08
2.20043e-05
-3.72181e-08
2.19074e-05
-4.25574e-08
2.18155e-05
-4.75413e-08
2.17283e-05
-5.22492e-08
2.16455e-05
-5.66989e-08
2.15671e-05
-6.10571e-08
2.14929e-05
-6.52859e-08
2.14229e-05
-6.95079e-08
2.13571e-05
-7.36267e-08
2.12952e-05
-7.7577e-08
2.12369e-05
-8.11576e-08
2.11818e-05
-8.43505e-08
2.11294e-05
-8.70972e-08
2.10794e-05
-8.94679e-08
2.10315e-05
-9.16289e-08
2.09854e-05
-9.33614e-08
2.0941e-05
-9.5067e-08
2.08983e-05
-9.67181e-08
2.08574e-05
-9.85491e-08
2.08183e-05
-1.00365e-07
2.0781e-05
-1.02242e-07
2.07454e-05
-1.03862e-07
2.07114e-05
-1.05463e-07
2.06789e-05
-1.06892e-07
2.06476e-05
-1.08207e-07
2.06175e-05
-1.09418e-07
2.05884e-05
-1.10333e-07
2.05602e-05
-1.1126e-07
2.05329e-05
-1.12152e-07
2.05066e-05
-1.132e-07
2.04816e-05
-1.14447e-07
2.0458e-05
-1.15935e-07
2.04359e-05
-1.17395e-07
2.04154e-05
-1.18939e-07
2.03965e-05
-1.20488e-07
2.0379e-05
-1.22022e-07
2.03631e-05
-1.23558e-07
2.03482e-05
-1.24639e-07
2.03342e-05
-1.25451e-07
2.03203e-05
-1.25557e-07
2.03062e-05
-1.25337e-07
2.02914e-05
-1.24626e-07
2.02756e-05
-1.23796e-07
2.02588e-05
-1.22646e-07
2.02411e-05
-1.21774e-07
2.02227e-05
-1.21026e-07
2.02041e-05
-1.20812e-07
2.01857e-05
-1.21152e-07
2.01681e-05
-1.21823e-07
2.01513e-05
-1.22717e-07
2.01357e-05
-1.23826e-07
2.01212e-05
-1.24942e-07
2.0108e-05
-1.26233e-07
2.00957e-05
-1.27314e-07
2.00845e-05
-1.28219e-07
2.00737e-05
-1.28687e-07
2.00634e-05
-1.29135e-07
2.00529e-05
-1.28999e-07
2.00426e-05
-1.29236e-07
2.00316e-05
-1.28373e-07
2.00204e-05
-1.2834e-07
2.00084e-05
-1.27433e-07
1.99971e-05
-1.28153e-07
1.99869e-05
-1.29218e-07
1.99768e-05
-1.29485e-07
1.99628e-05
-1.25396e-07
1.99134e-05
-1.2009e-07
1.98414e-05
-1.60364e-07
1.97309e-05
-1.58022e-07
1.96758e-05
-2.16655e-07
1.96169e-05
-2.11919e-07
1.9574e-05
-2.26901e-07
1.95061e-05
-2.04636e-07
1.94833e-05
1.12875e-07
1.96316e-05
4.53676e-07
1.96451e-05
7.20554e-09
1.94201e-05
-6.2315e-07
1.93414e-05
-5.46971e-07
1.93254e-05
-2.43802e-07
1.93005e-05
-2.30862e-07
1.92888e-05
-2.4376e-07
1.92665e-05
-2.33355e-07
1.91963e-05
-1.84823e-07
1.92058e-05
7.99351e-08
1.93643e-05
4.24099e-07
1.94003e-05
5.81673e-09
1.91992e-05
-5.90434e-07
1.91189e-05
-5.0838e-07
1.91341e-05
-2.56528e-07
1.90984e-05
-2.02612e-07
1.90733e-05
-2.09612e-07
1.90472e-05
-2.0934e-07
1.90385e-05
9.97981e-08
1.91804e-05
4.17941e-07
1.92175e-05
7.97307e-09
1.90252e-05
-5.56508e-07
1.89605e-05
-1.72138e-07
1.91509e-05
3.61861e-07
1.9201e-05
6.39707e-10
1.90399e-05
-5.63175e-07
1.89627e-05
-4.6129e-07
1.89904e-05
-2.44368e-07
1.8986e-05
-2.10409e-07
1.89916e-05
-2.18709e-07
1.89737e-05
-1.93129e-07
1.89371e-05
-1.71212e-07
1.89177e-05
-1.86268e-07
1.8932e-05
-2.20818e-07
1.89068e-05
-1.79665e-07
1.8887e-05
-1.80494e-07
1.88744e-05
-1.86335e-07
1.88656e-05
-1.90123e-07
1.88453e-05
-1.76223e-07
1.88393e-05
-1.88581e-07
1.88243e-05
-1.79665e-07
1.87858e-05
-1.55446e-07
1.87792e-05
1.0102e-07
1.89247e-05
3.68367e-07
1.89657e-05
3.58255e-08
1.88176e-05
-4.75726e-07
1.87602e-05
-4.12426e-07
1.879e-05
-2.13641e-07
1.87652e-05
-1.56197e-07
1.87505e-05
-1.63653e-07
1.87655e-05
-1.92308e-07
1.87669e-05
-1.79068e-07
1.87608e-05
-1.71884e-07
1.87559e-05
-1.7256e-07
1.87189e-05
-1.30504e-07
1.87195e-05
-1.56192e-07
1.87269e-05
-1.68172e-07
1.87311e-05
-1.72962e-07
1.87257e-05
-1.6554e-07
1.8706e-05
-1.49968e-07
1.86908e-05
-1.49015e-07
1.86911e-05
-1.64301e-07
1.86789e-05
-1.53886e-07
1.86691e-05
-1.53152e-07
1.86613e-05
-1.54375e-07
1.86415e-05
-1.42562e-07
1.86269e-05
-1.42494e-07
1.86525e-05
-1.81146e-07
1.86699e-05
-1.78337e-07
1.86584e-05
-1.50951e-07
1.86395e-05
-1.40102e-07
1.86215e-05
-1.38616e-07
1.86134e-05
-1.46817e-07
1.8607e-05
-1.4836e-07
1.85942e-05
-1.41656e-07
1.85976e-05
-1.56982e-07
1.85947e-05
-1.52466e-07
1.85689e-05
-1.27677e-07
1.85588e-05
-1.39499e-07
1.85631e-05
-1.55941e-07
1.85434e-05
-1.32757e-07
1.85285e-05
-1.33116e-07
1.85401e-05
-1.60456e-07
1.8552e-05
-1.65855e-07
1.85449e-05
-1.47455e-07
1.85302e-05
-1.36579e-07
1.85186e-05
-1.36911e-07
1.85056e-05
-1.33666e-07
1.85054e-05
-1.45719e-07
1.84999e-05
-1.40669e-07
1.84996e-05
-1.4567e-07
1.84966e-05
-1.43084e-07
1.84906e-05
-1.40248e-07
1.84848e-05
-1.39523e-07
1.84709e-05
-1.30679e-07
1.84551e-05
-1.27325e-07
1.84341e-05
-1.1957e-07
1.8411e-05
-1.14323e-07
1.84218e-05
-1.45001e-07
1.84486e-05
-1.60202e-07
1.84864e-05
-1.72522e-07
1.85217e-05
-1.70797e-07
1.85537e-05
-1.68392e-07
1.85854e-05
-1.68313e-07
1.86176e-05
-1.68706e-07
1.86276e-05
-1.46554e-07
1.86274e-05
-1.36805e-07
1.86449e-05
-1.54526e-07
1.86753e-05
-1.66154e-07
1.86876e-05
-1.47332e-07
1.86991e-05
-1.47003e-07
1.87185e-05
-1.55451e-07
1.87044e-05
-1.2246e-07
1.86728e-05
-1.05312e-07
1.87545e-05
-2.18942e-07
1.88832e-05
-2.66274e-07
1.89327e-05
-1.87227e-07
1.89147e-05
-1.20065e-07
1.88761e-05
-9.96328e-08
1.88741e-05
-1.3643e-07
1.89218e-05
-1.86446e-07
1.89607e-05
-1.77649e-07
1.89567e-05
-1.35025e-07
1.89558e-05
-1.38179e-07
1.89578e-05
-1.40981e-07
1.89636e-05
-1.44842e-07
1.89673e-05
-1.42499e-07
1.89736e-05
-1.44946e-07
1.89752e-05
-1.40098e-07
1.89782e-05
-1.41279e-07
1.89785e-05
-1.38465e-07
1.89812e-05
-1.40818e-07
1.89815e-05
-1.38448e-07
1.89832e-05
-1.40026e-07
1.89829e-05
-1.37997e-07
1.89847e-05
-1.40162e-07
1.89856e-05
-1.39507e-07
1.89885e-05
-1.41598e-07
1.89898e-05
-1.40312e-07
1.89918e-05
-1.41046e-07
1.89925e-05
-1.39855e-07
1.8994e-05
-1.40841e-07
1.89939e-05
-1.39313e-07
1.89941e-05
-1.39635e-07
1.89924e-05
-1.37904e-07
1.89915e-05
-1.3871e-07
1.89896e-05
-1.37735e-07
1.89887e-05
-1.38723e-07
1.89865e-05
-1.37375e-07
1.89829e-05
-1.36092e-07
1.8978e-05
-1.34732e-07
1.89711e-05
-1.32731e-07
1.89651e-05
-1.33653e-07
1.89924e-05
-1.66885e-07
1.90331e-05
-1.8027e-07
1.90463e-05
-1.52854e-07
1.90356e-05
-1.28855e-07
1.90279e-05
-1.31917e-07
1.9025e-05
-1.36584e-07
1.90245e-05
-1.39021e-07
1.90243e-05
-1.39275e-07
1.90259e-05
-1.41016e-07
1.90274e-05
-1.40863e-07
1.90303e-05
-1.42241e-07
1.90324e-05
-1.41466e-07
1.90353e-05
-1.4217e-07
1.90369e-05
-1.40945e-07
1.90394e-05
-1.41704e-07
1.90402e-05
-1.40009e-07
1.90419e-05
-1.40695e-07
1.90417e-05
-1.38844e-07
1.90424e-05
-1.3969e-07
1.90417e-05
-1.38208e-07
1.90417e-05
-1.38812e-07
1.90403e-05
-1.37343e-07
1.90401e-05
-1.38524e-07
1.90378e-05
-1.36257e-07
1.90373e-05
-1.37986e-07
1.90346e-05
-1.35712e-07
1.90341e-05
-1.37943e-07
1.90312e-05
-1.3532e-07
1.90314e-05
-1.38456e-07
1.90286e-05
-1.35573e-07
1.90295e-05
-1.3911e-07
1.9026e-05
-1.3474e-07
1.90269e-05
-1.39094e-07
1.90234e-05
-1.34713e-07
1.90241e-05
-1.39054e-07
1.90204e-05
-1.34755e-07
1.90213e-05
-1.39246e-07
1.90183e-05
-1.35523e-07
1.9019e-05
-1.39249e-07
1.90168e-05
-1.36335e-07
1.90175e-05
-1.39493e-07
1.90159e-05
-1.37253e-07
1.90169e-05
-1.39929e-07
1.90165e-05
-1.38624e-07
1.90177e-05
-1.40254e-07
1.9018e-05
-1.39568e-07
1.90198e-05
-1.41106e-07
1.90204e-05
-1.39987e-07
1.90233e-05
-1.42463e-07
1.90269e-05
-1.432e-07
1.90324e-05
-1.4533e-07
1.90371e-05
-1.44598e-07
1.90446e-05
-1.47435e-07
1.90494e-05
-1.44837e-07
1.90572e-05
-1.47816e-07
1.90647e-05
-1.47678e-07
1.90688e-05
-1.44262e-07
1.90764e-05
-1.47939e-07
1.90732e-05
-1.37121e-07
1.90849e-05
-1.52185e-07
1.91243e-05
-1.79877e-07
1.91576e-05
-1.73816e-07
1.91548e-05
-1.37854e-07
1.91603e-05
-1.46197e-07
1.91594e-05
-1.39759e-07
1.91773e-05
-1.58743e-07
1.91783e-05
-1.41773e-07
1.91883e-05
-1.50852e-07
1.91842e-05
-1.36835e-07
1.90873e-05
-4.39234e-08
1.91399e-05
-1.93463e-07
1.93222e-05
-3.23187e-07
1.93903e-05
-2.09034e-07
1.93176e-05
-6.82354e-08
1.93208e-05
-1.44041e-07
1.93232e-05
-1.43203e-07
1.93349e-05
-1.52434e-07
1.93452e-05
-1.50963e-07
1.93558e-05
-1.51303e-07
1.93654e-05
-1.50314e-07
1.93752e-05
-1.5032e-07
1.93842e-05
-1.49538e-07
1.93929e-05
-1.49214e-07
1.94012e-05
-1.48735e-07
1.94091e-05
-1.48387e-07
1.94164e-05
-1.47578e-07
1.94235e-05
-1.47407e-07
1.94308e-05
-1.47499e-07
1.94375e-05
-1.46828e-07
1.94443e-05
-1.46898e-07
1.94511e-05
-1.46844e-07
1.94576e-05
-1.46443e-07
1.94643e-05
-1.46528e-07
1.94712e-05
-1.4667e-07
1.94783e-05
-1.4681e-07
1.94859e-05
-1.47342e-07
1.94917e-05
-1.45444e-07
1.95001e-05
-1.48086e-07
1.95049e-05
-1.44397e-07
1.95141e-05
-1.48919e-07
1.95171e-05
-1.42592e-07
1.95303e-05
-1.52897e-07
1.95291e-05
-1.38476e-07
1.95497e-05
-1.60186e-07
1.95417e-05
-1.31611e-07
1.9573e-05
-1.70884e-07
1.95581e-05
-1.2488e-07
1.9596e-05
-1.77488e-07
1.95677e-05
-1.11358e-07
1.9588e-05
-1.59917e-07
1.95424e-05
-9.38491e-08
1.9536e-05
-1.33138e-07
1.94955e-05
-9.90446e-08
1.94994e-05
-1.43266e-07
1.94659e-05
-1.06049e-07
1.94617e-05
-1.35188e-07
1.94424e-05
-1.20137e-07
1.94312e-05
-1.28388e-07
1.94183e-05
-1.26559e-07
1.94074e-05
-1.28572e-07
1.93971e-05
-1.29093e-07
1.93868e-05
-1.29173e-07
1.9377e-05
-1.29671e-07
1.93676e-05
-1.30171e-07
1.93578e-05
-1.29649e-07
1.93519e-05
-1.33566e-07
1.93413e-05
-1.28814e-07
1.93365e-05
-1.34685e-07
1.93229e-05
-1.25942e-07
1.93217e-05
-1.38234e-07
1.93032e-05
-1.20984e-07
1.93117e-05
-1.4787e-07
1.92809e-05
-1.08672e-07
1.93043e-05
-1.62905e-07
1.93139e-05
-1.49094e-07
1.91529e-05
2.13739e-08
1.91473e-05
-1.34309e-07
1.93222e-05
-3.14459e-07
1.93148e-05
-1.32073e-07
1.91869e-05
-1.16148e-08
1.92e-05
-1.52583e-07
1.92031e-05
-1.42547e-07
1.91902e-05
-1.26593e-07
1.91932e-05
-1.42465e-07
1.91836e-05
-1.29861e-07
1.91802e-05
-1.36106e-07
1.91726e-05
-1.31816e-07
1.91666e-05
-1.33462e-07
1.91618e-05
-1.34696e-07
1.91563e-05
-1.33976e-07
1.91512e-05
-1.34431e-07
1.91453e-05
-1.33547e-07
1.91384e-05
-1.325e-07
1.91329e-05
-1.33962e-07
1.91265e-05
-1.33088e-07
1.91208e-05
-1.33775e-07
1.91149e-05
-1.33625e-07
1.91092e-05
-1.33737e-07
1.91034e-05
-1.33647e-07
1.90975e-05
-1.33561e-07
1.90914e-05
-1.33363e-07
1.9085e-05
-1.33183e-07
1.90785e-05
-1.32955e-07
1.90719e-05
-1.32809e-07
1.90651e-05
-1.3266e-07
1.90583e-05
-1.3262e-07
1.90512e-05
-1.32426e-07
1.90441e-05
-1.32399e-07
1.90368e-05
-1.32153e-07
1.90293e-05
-1.31998e-07
1.90218e-05
-1.3196e-07
1.90141e-05
-1.31709e-07
1.90063e-05
-1.31707e-07
1.89985e-05
-1.31688e-07
1.89907e-05
-1.31646e-07
1.89828e-05
-1.31609e-07
1.8975e-05
-1.31578e-07
1.8967e-05
-1.31497e-07
1.89592e-05
-1.31754e-07
1.89514e-05
-1.31644e-07
1.89436e-05
-1.31692e-07
1.89362e-05
-1.3201e-07
1.89285e-05
-1.31775e-07
1.8921e-05
-1.32052e-07
1.8914e-05
-1.32439e-07
1.89072e-05
-1.32646e-07
1.89007e-05
-1.32907e-07
1.88943e-05
-1.33109e-07
1.88881e-05
-1.33267e-07
1.88821e-05
-1.33468e-07
1.88761e-05
-1.3349e-07
1.88702e-05
-1.33544e-07
1.88645e-05
-1.33824e-07
1.88588e-05
-1.33742e-07
1.88534e-05
-1.34153e-07
1.88482e-05
-1.3419e-07
1.8843e-05
-1.34227e-07
1.88376e-05
-1.34095e-07
1.88322e-05
-1.34071e-07
1.88267e-05
-1.33919e-07
1.88216e-05
-1.34425e-07
1.88159e-05
-1.33792e-07
1.88104e-05
-1.34006e-07
1.88051e-05
-1.34136e-07
1.87989e-05
-1.33185e-07
1.87951e-05
-1.35793e-07
1.8787e-05
-1.31364e-07
1.8784e-05
-1.36407e-07
1.87722e-05
-1.27715e-07
1.87726e-05
-1.39832e-07
1.87548e-05
-1.21655e-07
1.87637e-05
-1.48382e-07
1.87343e-05
-1.101e-07
1.87457e-05
-1.50907e-07
1.87037e-05
-9.74067e-08
1.86988e-05
-1.34511e-07
1.87775e-05
-2.18318e-07
1.8679e-05
-4.09036e-08
1.86834e-05
-1.43867e-07
1.88075e-05
-2.63547e-07
1.87408e-05
-7.27964e-08
1.85677e-05
3.36309e-08
1.86082e-05
-1.80037e-07
1.86254e-05
-1.56644e-07
1.86111e-05
-1.2516e-07
1.86273e-05
-1.55575e-07
1.86181e-05
-1.30331e-07
1.86273e-05
-1.48724e-07
1.86261e-05
-1.38276e-07
1.86246e-05
-1.37903e-07
1.86318e-05
-1.46644e-07
1.86163e-05
-1.2394e-07
1.86342e-05
-1.57382e-07
1.85948e-05
-1.0016e-07
1.8612e-05
-1.56646e-07
1.8696e-05
-2.23477e-07
1.85965e-05
-3.99061e-08
1.8591e-05
-1.34001e-07
1.87344e-05
-2.82949e-07
1.86766e-05
-8.16324e-08
1.85058e-05
3.13388e-08
1.85333e-05
-1.66947e-07
1.85494e-05
-1.5559e-07
1.85343e-05
-1.24341e-07
1.85481e-05
-1.53345e-07
1.8538e-05
-1.29365e-07
1.85395e-05
-1.40955e-07
1.85286e-05
-1.28529e-07
1.8531e-05
-1.41851e-07
1.85161e-05
-1.24605e-07
1.85211e-05
-1.44468e-07
1.84955e-05
-1.13894e-07
1.85095e-05
-1.53441e-07
1.84694e-05
-9.92975e-08
1.84954e-05
-1.65504e-07
1.84348e-05
-7.89014e-08
1.84739e-05
-1.78629e-07
1.83901e-05
-5.5591e-08
1.84488e-05
-1.98194e-07
1.83669e-05
-5.75439e-08
1.84555e-05
-2.28092e-07
1.84071e-05
-9.11101e-08
1.85705e-05
-3.02836e-07
1.86746e-05
-2.43551e-07
1.88979e-05
-3.62862e-07
1.85836e-05
1.74324e-07
1.8032e-05
4.11321e-07
1.66588e-05
1.23323e-06
1.35948e-05
2.92403e-06
1.07679e-05
2.68731e-06
9.91072e-06
7.1773e-07
9.7039e-06
6.72843e-08
8.40401e-06
1.16044e-06
6.57865e-06
1.6859e-06
3.62864e-06
2.81056e-06
1.02617e-06
2.463e-06
-6.25273e-07
1.51199e-06
-2.1306e-06
1.36579e-06
-3.52275e-06
1.2527e-06
-3.66221e-06
3.78657e-05
5.04396e-07
3.76407e-05
6.07371e-07
3.72235e-05
9.55913e-07
3.67953e-05
9.73481e-07
3.63565e-05
1.01993e-06
3.59548e-05
9.38126e-07
3.55697e-05
9.15109e-07
3.52218e-05
8.33502e-07
3.49057e-05
7.89744e-07
3.46473e-05
7.0172e-07
3.44059e-05
6.67431e-07
3.41814e-05
6.22122e-07
3.39604e-05
5.98488e-07
3.37458e-05
5.68265e-07
3.35313e-05
5.50573e-07
3.33187e-05
5.27874e-07
3.30975e-05
5.15109e-07
3.28711e-05
4.99343e-07
3.26451e-05
4.81995e-07
3.24216e-05
4.63421e-07
3.22011e-05
4.44923e-07
3.19823e-05
4.27681e-07
3.17651e-05
4.10609e-07
3.15496e-05
3.92578e-07
3.13368e-05
3.73011e-07
3.11267e-05
3.52902e-07
3.09201e-05
3.32462e-07
3.07182e-05
3.12293e-07
3.05223e-05
2.92781e-07
3.03316e-05
2.75197e-07
3.01459e-05
2.58658e-07
2.99648e-05
2.4311e-07
2.97882e-05
2.28437e-07
2.96157e-05
2.14387e-07
2.94474e-05
2.0078e-07
2.92834e-05
1.87118e-07
2.91239e-05
1.73741e-07
2.8969e-05
1.60544e-07
2.88185e-05
1.47724e-07
2.86727e-05
1.35152e-07
2.85319e-05
1.22677e-07
2.83963e-05
1.10528e-07
2.82658e-05
9.91593e-08
2.81398e-05
8.87603e-08
2.80181e-05
7.91715e-08
2.78999e-05
7.06535e-08
2.77843e-05
6.33179e-08
2.76711e-05
5.65816e-08
2.75603e-05
4.97166e-08
2.74523e-05
4.27227e-08
2.73478e-05
3.5015e-08
2.72471e-05
2.69986e-08
2.71507e-05
1.88076e-08
2.70585e-05
1.10911e-08
2.69701e-05
4.01271e-09
2.6885e-05
-1.97605e-09
2.68023e-05
-6.77931e-09
2.67214e-05
-1.07136e-08
2.66417e-05
-1.36126e-08
2.65629e-05
-1.62732e-08
2.64852e-05
-1.90741e-08
2.64092e-05
-2.25191e-08
2.63354e-05
-2.65425e-08
2.62641e-05
-3.09731e-08
2.61959e-05
-3.56449e-08
2.61307e-05
-4.02991e-08
2.60686e-05
-4.47924e-08
2.6009e-05
-4.85569e-08
2.59512e-05
-5.16728e-08
2.58944e-05
-5.34672e-08
2.5838e-05
-5.48518e-08
2.57813e-05
-5.55212e-08
2.57247e-05
-5.65377e-08
2.56683e-05
-5.80507e-08
2.56129e-05
-6.05893e-08
2.55594e-05
-6.38886e-08
2.55088e-05
-6.83348e-08
2.54618e-05
-7.35003e-08
2.54192e-05
-7.94491e-08
2.53814e-05
-8.57068e-08
2.53483e-05
-9.1532e-08
2.53189e-05
-9.60324e-08
2.52918e-05
-9.8517e-08
2.52655e-05
-9.90292e-08
2.52386e-05
-9.77351e-08
2.52097e-05
-9.4824e-08
2.51782e-05
-9.11759e-08
2.51435e-05
-8.70877e-08
2.51056e-05
-8.31311e-08
2.50653e-05
-8.05245e-08
2.50244e-05
-8.01838e-08
2.49839e-05
-8.13747e-08
2.49452e-05
-8.40452e-08
2.49087e-05
-8.73069e-08
2.48751e-05
-9.13734e-08
2.48448e-05
-9.58783e-08
2.48173e-05
-9.98726e-08
2.47925e-05
-1.03391e-07
2.4769e-05
-1.05179e-07
2.47469e-05
-1.07034e-07
2.4725e-05
-1.07134e-07
2.47031e-05
-1.07254e-07
2.46807e-05
-1.06046e-07
2.46575e-05
-1.05151e-07
2.46341e-05
-1.04038e-07
2.46144e-05
-1.08383e-07
2.46032e-05
-1.18003e-07
2.45973e-05
-1.23642e-07
2.45891e-05
-1.17139e-07
2.45534e-05
-8.44672e-08
2.45095e-05
-1.16467e-07
2.4402e-05
-5.04775e-08
2.43434e-05
-1.58014e-07
2.42958e-05
-1.64357e-07
2.42347e-05
-1.65792e-07
2.41339e-05
-1.03845e-07
2.40946e-05
1.52179e-07
2.41619e-05
3.86388e-07
2.41545e-05
1.46082e-08
2.39672e-05
-4.35911e-07
2.3868e-05
-4.47719e-07
2.38355e-05
-2.11322e-07
2.38191e-05
-2.14478e-07
2.37899e-05
-2.1449e-07
2.37648e-05
-2.08308e-07
2.36791e-05
-9.90731e-08
2.36579e-05
1.01065e-07
2.37622e-05
3.19828e-07
2.38006e-05
-3.25657e-08
2.36597e-05
-4.49577e-07
2.35781e-05
-4.26705e-07
2.35561e-05
-2.34595e-07
2.35205e-05
-1.67e-07
2.34953e-05
-1.84396e-07
2.34566e-05
-1.70695e-07
2.3424e-05
1.32492e-07
2.3527e-05
3.14917e-07
2.35486e-05
-1.36846e-08
2.33973e-05
-4.0522e-07
2.33233e-05
-9.81313e-08
2.34523e-05
2.32864e-07
2.34929e-05
-3.9958e-08
2.33841e-05
-4.5436e-07
2.33125e-05
-3.89676e-07
2.33131e-05
-2.44997e-07
2.33017e-05
-1.98923e-07
2.3293e-05
-2.10056e-07
2.32569e-05
-1.57045e-07
2.32278e-05
-1.42079e-07
2.32057e-05
-1.64237e-07
2.32031e-05
-2.1822e-07
2.31763e-05
-1.52777e-07
2.31588e-05
-1.63033e-07
2.31333e-05
-1.60807e-07
2.31208e-05
-1.7765e-07
2.30919e-05
-1.47362e-07
2.30758e-05
-1.72434e-07
2.30416e-05
-1.45488e-07
2.3009e-05
-1.22835e-07
2.29988e-05
1.11199e-07
2.30924e-05
2.74755e-07
2.31266e-05
1.65967e-09
2.30274e-05
-3.76566e-07
2.29607e-05
-3.45704e-07
2.29579e-05
-2.10793e-07
2.2932e-05
-1.30332e-07
2.29122e-05
-1.43873e-07
2.29168e-05
-1.96868e-07
2.29188e-05
-1.81058e-07
2.2903e-05
-1.56144e-07
2.28857e-05
-1.55201e-07
2.28467e-05
-9.14759e-08
2.28375e-05
-1.46993e-07
2.28343e-05
-1.65028e-07
2.2838e-05
-1.76653e-07
2.28166e-05
-1.44153e-07
2.27973e-05
-1.30614e-07
2.2789e-05
-1.40773e-07
2.27722e-05
-1.47444e-07
2.27531e-05
-1.3486e-07
2.27413e-05
-1.41333e-07
2.27195e-05
-1.32568e-07
2.27009e-05
-1.23907e-07
2.26906e-05
-1.32274e-07
2.26922e-05
-1.82718e-07
2.26872e-05
-1.73288e-07
2.26854e-05
-1.4922e-07
2.26648e-05
-1.19451e-07
2.26439e-05
-1.17736e-07
2.26384e-05
-1.41344e-07
2.26197e-05
-1.29612e-07
2.26066e-05
-1.2855e-07
2.26013e-05
-1.51753e-07
2.25768e-05
-1.27908e-07
2.25628e-05
-1.13667e-07
2.25521e-05
-1.28864e-07
2.25331e-05
-1.36868e-07
2.2514e-05
-1.13695e-07
2.25087e-05
-1.27821e-07
2.25024e-05
-1.54119e-07
2.24979e-05
-1.61416e-07
2.24927e-05
-1.42206e-07
2.24749e-05
-1.18798e-07
2.24619e-05
-1.23936e-07
2.24473e-05
-1.19063e-07
2.24387e-05
-1.37048e-07
2.2424e-05
-1.2602e-07
2.24215e-05
-1.43183e-07
2.24086e-05
-1.30189e-07
2.23976e-05
-1.29221e-07
2.2387e-05
-1.28966e-07
2.23655e-05
-1.09177e-07
2.23531e-05
-1.14854e-07
2.23317e-05
-9.82086e-08
2.23162e-05
-9.88622e-08
2.23204e-05
-1.49201e-07
2.2331e-05
-1.70752e-07
2.23576e-05
-1.99168e-07
2.23783e-05
-1.91421e-07
2.2407e-05
-1.97107e-07
2.24298e-05
-1.91174e-07
2.24539e-05
-1.92763e-07
2.24657e-05
-1.58391e-07
2.2477e-05
-1.48059e-07
2.24857e-05
-1.63224e-07
2.25033e-05
-1.83794e-07
2.25203e-05
-1.64345e-07
2.2535e-05
-1.61642e-07
2.25423e-05
-1.62731e-07
2.25355e-05
-1.15689e-07
2.25457e-05
-1.15538e-07
2.26056e-05
-2.78806e-07
2.26628e-05
-3.23519e-07
2.27163e-05
-2.40693e-07
2.2722e-05
-1.25818e-07
2.2712e-05
-8.95763e-08
2.27273e-05
-1.51704e-07
2.27395e-05
-1.9871e-07
2.27667e-05
-2.04787e-07
2.27743e-05
-1.42714e-07
2.27814e-05
-1.4524e-07
2.27851e-05
-1.44696e-07
2.27936e-05
-1.53347e-07
2.27981e-05
-1.46936e-07
2.28062e-05
-1.53117e-07
2.281e-05
-1.43849e-07
2.28157e-05
-1.4699e-07
2.2817e-05
-1.39784e-07
2.2821e-05
-1.44824e-07
2.28216e-05
-1.39066e-07
2.28244e-05
-1.42804e-07
2.28244e-05
-1.37975e-07
2.28269e-05
-1.4271e-07
2.28274e-05
-1.3994e-07
2.28301e-05
-1.44287e-07
2.28306e-05
-1.40827e-07
2.28328e-05
-1.433e-07
2.2833e-05
-1.40003e-07
2.28348e-05
-1.42635e-07
2.28341e-05
-1.38666e-07
2.28348e-05
-1.40313e-07
2.28335e-05
-1.36624e-07
2.28335e-05
-1.38679e-07
2.28319e-05
-1.36187e-07
2.28315e-05
-1.38263e-07
2.28299e-05
-1.35736e-07
2.28285e-05
-1.34718e-07
2.28253e-05
-1.31539e-07
2.28214e-05
-1.2884e-07
2.28224e-05
-1.3467e-07
2.28404e-05
-1.84857e-07
2.28574e-05
-1.97264e-07
2.28722e-05
-1.67641e-07
2.28733e-05
-1.30023e-07
2.28699e-05
-1.2844e-07
2.28679e-05
-1.3459e-07
2.28673e-05
-1.38422e-07
2.28673e-05
-1.3936e-07
2.2869e-05
-1.42629e-07
2.28699e-05
-1.41772e-07
2.28724e-05
-1.44819e-07
2.2874e-05
-1.42988e-07
2.28768e-05
-1.44951e-07
2.28782e-05
-1.42399e-07
2.28806e-05
-1.44083e-07
2.28816e-05
-1.41004e-07
2.28832e-05
-1.42324e-07
2.28833e-05
-1.38964e-07
2.28844e-05
-1.40766e-07
2.28837e-05
-1.37534e-07
2.28844e-05
-1.39462e-07
2.28833e-05
-1.36213e-07
2.28833e-05
-1.38596e-07
2.28814e-05
-1.34287e-07
2.28811e-05
-1.37781e-07
2.28785e-05
-1.33052e-07
2.28787e-05
-1.38183e-07
2.28754e-05
-1.31993e-07
2.28767e-05
-1.39715e-07
2.28725e-05
-1.31463e-07
2.28744e-05
-1.40973e-07
2.28695e-05
-1.29863e-07
2.2872e-05
-1.41514e-07
2.28665e-05
-1.29277e-07
2.2869e-05
-1.41578e-07
2.28638e-05
-1.29528e-07
2.2866e-05
-1.41433e-07
2.28613e-05
-1.3082e-07
2.28631e-05
-1.41037e-07
2.28595e-05
-1.32722e-07
2.28608e-05
-1.408e-07
2.28583e-05
-1.348e-07
2.28594e-05
-1.41039e-07
2.2858e-05
-1.37171e-07
2.28592e-05
-1.41497e-07
2.28587e-05
-1.39012e-07
2.28601e-05
-1.42516e-07
2.28605e-05
-1.40429e-07
2.28623e-05
-1.44249e-07
2.28638e-05
-1.44655e-07
2.28682e-05
-1.49737e-07
2.28722e-05
-1.48629e-07
2.2879e-05
-1.54218e-07
2.28838e-05
-1.49623e-07
2.28913e-05
-1.55327e-07
2.28969e-05
-1.53297e-07
2.29029e-05
-1.503e-07
2.29087e-05
-1.53744e-07
2.29096e-05
-1.37943e-07
2.29271e-05
-1.69694e-07
2.29432e-05
-1.95994e-07
2.29653e-05
-1.95963e-07
2.29768e-05
-1.49317e-07
2.29879e-05
-1.57275e-07
2.29856e-05
-1.37493e-07
2.30063e-05
-1.79427e-07
2.29963e-05
-1.31735e-07
2.30176e-05
-1.72216e-07
2.29916e-05
-1.10862e-07
2.29752e-05
-2.75069e-08
2.30588e-05
-2.76984e-07
2.30747e-05
-3.39145e-07
2.31674e-05
-3.01688e-07
2.31487e-05
-4.95316e-08
2.31511e-05
-1.46495e-07
2.31559e-05
-1.47994e-07
2.31657e-05
-1.622e-07
2.31749e-05
-1.60199e-07
2.31851e-05
-1.61548e-07
2.31956e-05
-1.60775e-07
2.32061e-05
-1.60808e-07
2.3216e-05
-1.59486e-07
2.32258e-05
-1.58963e-07
2.32349e-05
-1.57852e-07
2.32436e-05
-1.57079e-07
2.32519e-05
-1.55862e-07
2.326e-05
-1.55514e-07
2.32679e-05
-1.55426e-07
2.32758e-05
-1.54677e-07
2.32833e-05
-1.54471e-07
2.32908e-05
-1.5427e-07
2.32981e-05
-1.53773e-07
2.33054e-05
-1.53807e-07
2.33128e-05
-1.54064e-07
2.332e-05
-1.54071e-07
2.33282e-05
-1.55523e-07
2.33354e-05
-1.52612e-07
2.33443e-05
-1.56999e-07
2.33508e-05
-1.50853e-07
2.33602e-05
-1.58337e-07
2.33641e-05
-1.46555e-07
2.33773e-05
-1.66073e-07
2.33763e-05
-1.37481e-07
2.33984e-05
-1.82243e-07
2.33872e-05
-1.20463e-07
2.34246e-05
-2.083e-07
2.33961e-05
-9.63156e-08
2.34488e-05
-2.30251e-07
2.33951e-05
-5.7628e-08
2.34475e-05
-2.12306e-07
2.3375e-05
-2.13753e-08
2.34089e-05
-1.67042e-07
2.33533e-05
-4.34588e-08
2.33637e-05
-1.53588e-07
2.33367e-05
-7.90808e-08
2.3329e-05
-1.27533e-07
2.33136e-05
-1.04647e-07
2.33034e-05
-1.18224e-07
2.32922e-05
-1.1541e-07
2.32818e-05
-1.18124e-07
2.32701e-05
-1.17384e-07
2.32594e-05
-1.18447e-07
2.32478e-05
-1.18158e-07
2.32376e-05
-1.19893e-07
2.32257e-05
-1.1779e-07
2.32162e-05
-1.2406e-07
2.32045e-05
-1.17116e-07
2.31975e-05
-1.27652e-07
2.31835e-05
-1.11945e-07
2.31811e-05
-1.35832e-07
2.31599e-05
-9.98117e-08
2.31674e-05
-1.554e-07
2.31335e-05
-7.47202e-08
2.31661e-05
-1.95503e-07
2.31035e-05
-8.64686e-08
2.30659e-05
5.8923e-08
2.31154e-05
-1.83787e-07
2.30761e-05
-2.75145e-07
2.31365e-05
-1.92537e-07
2.30864e-05
3.84755e-08
2.30536e-05
-1.19764e-07
2.30634e-05
-1.52306e-07
2.30448e-05
-1.07994e-07
2.30438e-05
-1.41441e-07
2.30326e-05
-1.18722e-07
2.30264e-05
-1.29938e-07
2.30189e-05
-1.24314e-07
2.30116e-05
-1.26153e-07
2.30044e-05
-1.27411e-07
2.29962e-05
-1.25867e-07
2.29884e-05
-1.26627e-07
2.298e-05
-1.25085e-07
2.29711e-05
-1.23627e-07
2.29626e-05
-1.25448e-07
2.29535e-05
-1.23971e-07
2.29455e-05
-1.25813e-07
2.29371e-05
-1.25253e-07
2.29294e-05
-1.25996e-07
2.29216e-05
-1.25892e-07
2.29137e-05
-1.25649e-07
2.29055e-05
-1.25092e-07
2.28974e-05
-1.25087e-07
2.28886e-05
-1.24221e-07
2.28802e-05
-1.24413e-07
2.28716e-05
-1.24042e-07
2.28631e-05
-1.24068e-07
2.28542e-05
-1.23605e-07
2.28452e-05
-1.23392e-07
2.28359e-05
-1.2286e-07
2.28265e-05
-1.226e-07
2.28175e-05
-1.2288e-07
2.28082e-05
-1.22474e-07
2.27991e-05
-1.22554e-07
2.27897e-05
-1.22351e-07
2.27803e-05
-1.22199e-07
2.27708e-05
-1.22109e-07
2.27616e-05
-1.22346e-07
2.27523e-05
-1.22216e-07
2.27426e-05
-1.22042e-07
2.27333e-05
-1.22415e-07
2.27245e-05
-1.22863e-07
2.27154e-05
-1.22947e-07
2.27064e-05
-1.22702e-07
2.26979e-05
-1.23563e-07
2.26892e-05
-1.23752e-07
2.26813e-05
-1.24754e-07
2.26736e-05
-1.25156e-07
2.2666e-05
-1.25582e-07
2.26585e-05
-1.25746e-07
2.26512e-05
-1.26171e-07
2.26439e-05
-1.26159e-07
2.2637e-05
-1.26692e-07
2.263e-05
-1.26802e-07
2.26233e-05
-1.27038e-07
2.26168e-05
-1.27691e-07
2.261e-05
-1.27348e-07
2.26037e-05
-1.27942e-07
2.25971e-05
-1.27452e-07
2.25906e-05
-1.27651e-07
2.25841e-05
-1.27332e-07
2.25779e-05
-1.28267e-07
2.25712e-05
-1.27064e-07
2.25644e-05
-1.27242e-07
2.25574e-05
-1.27144e-07
2.25498e-05
-1.25532e-07
2.25434e-05
-1.29469e-07
2.25357e-05
-1.23621e-07
2.25312e-05
-1.31887e-07
2.25199e-05
-1.16401e-07
2.25184e-05
-1.38337e-07
2.24987e-05
-1.02028e-07
2.25071e-05
-1.56688e-07
2.2472e-05
-7.50415e-08
2.2496e-05
-1.74928e-07
2.24381e-05
-3.95279e-08
2.24875e-05
-1.83885e-07
2.24663e-05
-1.97156e-07
2.24219e-05
3.50454e-09
2.25263e-05
-2.48228e-07
2.24172e-05
-1.5443e-07
2.24785e-05
-1.34126e-07
2.24019e-05
1.10261e-07
2.23604e-05
-1.38553e-07
2.23959e-05
-1.92153e-07
2.23645e-05
-9.37825e-08
2.23844e-05
-1.75425e-07
2.23679e-05
-1.13883e-07
2.23752e-05
-1.56002e-07
2.23691e-05
-1.32159e-07
2.2366e-05
-1.34797e-07
2.23685e-05
-1.49207e-07
2.23512e-05
-1.06596e-07
2.23684e-05
-1.74566e-07
2.23254e-05
-5.71713e-08
2.23836e-05
-2.14862e-07
2.23561e-05
-1.95997e-07
2.2332e-05
-1.58206e-08
2.24141e-05
-2.16033e-07
2.23332e-05
-2.02057e-07
2.23796e-05
-1.28077e-07
2.23126e-05
9.83712e-08
2.22651e-05
-1.19429e-07
2.22912e-05
-1.81726e-07
2.22675e-05
-1.00581e-07
2.2275e-05
-1.60878e-07
2.22626e-05
-1.17007e-07
2.22609e-05
-1.39264e-07
2.22482e-05
-1.15833e-07
2.2245e-05
-1.38583e-07
2.22274e-05
-1.07066e-07
2.22303e-05
-1.47364e-07
2.22006e-05
-8.41695e-08
2.22164e-05
-1.69197e-07
2.21656e-05
-4.85355e-08
2.22031e-05
-2.02973e-07
2.21224e-05
1.77591e-09
2.21867e-05
-2.42951e-07
2.20729e-05
5.81941e-08
2.21735e-05
-2.98741e-07
2.20393e-05
7.66224e-08
2.2183e-05
-3.71762e-07
2.2066e-05
2.59068e-08
2.22622e-05
-4.99021e-07
2.21943e-05
-1.75652e-07
2.22776e-05
-4.46233e-07
2.19991e-05
4.52837e-07
2.14181e-05
9.92349e-07
2.03206e-05
2.33073e-06
1.80529e-05
5.1917e-06
1.61728e-05
4.56739e-06
1.47762e-05
2.11441e-06
1.41372e-05
7.06202e-07
1.30335e-05
2.26414e-06
1.13655e-05
3.35391e-06
8.75267e-06
5.42341e-06
4.9187e-06
6.29697e-06
1.19673e-06
5.23396e-06
-9.73277e-07
3.5358e-06
-2.22031e-06
2.49973e-06
-5.88252e-06
3.78606e-05
6.4382e-07
3.76522e-05
8.15728e-07
3.72412e-05
1.36692e-06
3.6842e-05
1.37273e-06
3.64361e-05
1.42584e-06
3.60854e-05
1.28879e-06
3.57784e-05
1.22209e-06
3.55209e-05
1.09101e-06
3.53052e-05
1.00541e-06
3.51187e-05
8.88207e-07
3.49641e-05
8.22047e-07
3.48271e-05
7.59134e-07
3.47004e-05
7.25221e-07
3.45836e-05
6.85003e-07
3.4482e-05
6.52269e-07
3.43981e-05
6.11754e-07
3.43179e-05
5.95306e-07
3.42414e-05
5.75794e-07
3.41654e-05
5.57988e-07
3.409e-05
5.38834e-07
3.40139e-05
5.21042e-07
3.39353e-05
5.06277e-07
3.38544e-05
4.91548e-07
3.37716e-05
4.7537e-07
3.36849e-05
4.59688e-07
3.35949e-05
4.42943e-07
3.3502e-05
4.253e-07
3.34028e-05
4.11464e-07
3.32992e-05
3.96467e-07
3.31913e-05
3.83021e-07
3.30807e-05
3.69319e-07
3.29677e-05
3.5606e-07
3.28507e-05
3.45416e-07
3.27305e-05
3.34655e-07
3.26078e-05
3.23496e-07
3.24817e-05
3.13212e-07
3.23533e-05
3.02087e-07
3.2224e-05
2.89881e-07
3.20926e-05
2.79129e-07
3.19612e-05
2.66525e-07
3.18292e-05
2.54654e-07
3.16979e-05
2.41823e-07
3.15684e-05
2.28717e-07
3.14393e-05
2.17803e-07
3.13117e-05
2.06847e-07
3.11859e-05
1.96457e-07
3.10606e-05
1.88541e-07
3.09365e-05
1.80746e-07
3.08143e-05
1.71867e-07
3.0693e-05
1.63992e-07
3.05748e-05
1.53239e-07
3.04588e-05
1.43012e-07
3.03463e-05
1.31338e-07
3.02381e-05
1.1927e-07
3.01329e-05
1.09182e-07
3.00311e-05
9.98935e-08
2.99324e-05
9.18486e-08
2.98351e-05
8.66437e-08
2.97389e-05
8.25153e-08
2.96443e-05
7.83365e-08
2.95499e-05
7.53824e-08
2.94569e-05
7.04565e-08
2.93647e-05
6.56861e-08
2.92744e-05
5.9319e-08
2.91875e-05
5.12664e-08
2.91029e-05
4.42743e-08
2.90217e-05
3.64383e-08
2.89441e-05
2.90491e-08
2.88683e-05
2.40524e-08
2.87942e-05
2.06783e-08
2.87217e-05
1.76234e-08
2.86487e-05
1.74638e-08
2.85765e-05
1.57044e-08
2.85037e-05
1.47224e-08
2.84317e-05
1.13845e-08
2.8362e-05
5.87808e-09
2.82943e-05
-6.06679e-10
2.82301e-05
-9.31374e-09
2.81711e-05
-2.04755e-08
2.81167e-05
-3.13199e-08
2.8068e-05
-4.27863e-08
2.80245e-05
-5.25893e-08
2.79839e-05
-5.78633e-08
2.79456e-05
-6.07202e-08
2.7907e-05
-5.91333e-08