/*--------------------------------*- C++ -*----------------------------------*\
| =========                 |                                                 |
| \\      /  F ield         | foam-extend: Open Source CFD                    |
|  \\    /   O peration     | Version:     3.2                                |
|   \\  /    A nd           | Web:         http://www.foam-extend.org         |
|    \\/     M anipulation  | For copyright notice see file Copyright         |
\*---------------------------------------------------------------------------*/
FoamFile
{
    version     2.0;
    format      ascii;
    class       areaVectorField;
    location    "1790";
    object      aMeshCentreN;
}
// * * * * * * * * * * * * * * * * * * * * * * * * * * * * * * * * * * * * * //

dimensions      [0 0 0 0 0 0 0];

internalField   nonuniform List<vector> 
550
(
(0.0090909 0.01 -1.81818e-05)
(0.0272727 0.01 -5.45454e-05)
(0.0454545 0.01 -9.09091e-05)
(0.0636364 0.01 -0.000127273)
(0.0818182 0.01 -0.000163636)
(0.1 0.01 -0.0002)
(0.118182 0.01 -0.000236364)
(0.136364 0.01 -0.000272727)
(0.154545 0.01 -0.000309091)
(0.172727 0.01 -0.000345454)
(0.190909 0.01 -0.000381818)
(0.209091 0.01 -0.000418182)
(0.227273 0.01 -0.000454546)
(0.245455 0.01 -0.000490909)
(0.263636 0.01 -0.000527273)
(0.281818 0.01 -0.000563637)
(0.3 0.01 -0.0006)
(0.318182 0.01 -0.000636364)
(0.336364 0.01 -0.000672727)
(0.354546 0.01 -0.000709091)
(0.372727 0.01 -0.000745454)
(0.390909 0.01 -0.000781818)
(0.409091 0.01 -0.000818182)
(0.427273 0.01 -0.000854546)
(0.445454 0.01 -0.000890909)
(0.463636 0.01 -0.000927273)
(0.481818 0.01 -0.000963637)
(0.5 0.01 -0.000999999)
(0.518182 0.01 -0.00103637)
(0.536364 0.01 -0.00107273)
(0.554546 0.01 -0.00110909)
(0.572727 0.01 -0.00114546)
(0.590909 0.01 -0.00118182)
(0.609091 0.01 -0.00121818)
(0.627273 0.01 -0.00125454)
(0.645455 0.01 -0.00129091)
(0.663636 0.01 -0.00132727)
(0.681818 0.01 -0.00136363)
(0.7 0.01 -0.0014)
(0.718182 0.01 -0.00143636)
(0.736364 0.01 -0.00147273)
(0.754545 0.01 -0.00150909)
(0.772727 0.01 -0.00154545)
(0.790909 0.01 -0.00158182)
(0.809091 0.01 -0.00161818)
(0.827273 0.01 -0.00165454)
(0.845455 0.01 -0.00169091)
(0.863636 0.01 -0.00172727)
(0.881818 0.01 -0.00176363)
(0.9 0.01 -0.0018)
(0.918182 0.01 -0.00183636)
(0.936364 0.01 -0.00187273)
(0.954545 0.01 -0.00190909)
(0.972727 0.01 -0.00194545)
(0.990909 0.01 -0.00198182)
(1.00909 0.01 -0.00201818)
(1.02727 0.01 -0.00205455)
(1.04545 0.01 -0.00209091)
(1.06364 0.01 -0.00212727)
(1.08182 0.01 -0.00216364)
(1.1 0.01 -0.0022)
(1.11818 0.01 -0.00223637)
(1.13636 0.01 -0.00227273)
(1.15455 0.01 -0.00230909)
(1.17273 0.01 -0.00234546)
(1.19091 0.01 -0.00238182)
(1.20909 0.01 -0.00241818)
(1.22727 0.01 -0.00245454)
(1.24546 0.01 -0.00249091)
(1.26364 0.01 -0.00252727)
(1.28182 0.01 -0.00256363)
(1.3 0.01 -0.0026)
(1.31818 0.01 -0.00263637)
(1.33636 0.01 -0.00267273)
(1.35454 0.01 -0.00270909)
(1.37273 0.01 -0.00274545)
(1.39091 0.01 -0.00278182)
(1.40909 0.01 -0.00281818)
(1.42727 0.01 -0.00285454)
(1.44546 0.01 -0.00289091)
(1.46364 0.01 -0.00292727)
(1.48182 0.01 -0.00296364)
(1.5 0.01 -0.003)
(1.51818 0.01 -0.00303637)
(1.53636 0.01 -0.00307273)
(1.55455 0.01 -0.00310909)
(1.57273 0.01 -0.00314546)
(1.59091 0.01 -0.00318182)
(1.60909 0.01 -0.00321818)
(1.62727 0.01 -0.00325455)
(1.64546 0.01 -0.00329091)
(1.66364 0.01 -0.00332727)
(1.68182 0.01 -0.00336363)
(1.7 0.01 -0.0034)
(1.71818 0.01 -0.00343636)
(1.73636 0.01 -0.00347273)
(1.75454 0.01 -0.00350909)
(1.77273 0.01 -0.00354546)
(1.79091 0.01 -0.00358182)
(1.80909 0.01 -0.00361818)
(1.82727 0.01 -0.00365454)
(1.84545 0.01 -0.00369091)
(1.86364 0.01 -0.00372727)
(1.88182 0.01 -0.00376363)
(1.9 0.01 -0.0038)
(1.91818 0.01 -0.00383637)
(1.93636 0.01 -0.00387273)
(1.95454 0.01 -0.00390909)
(1.97273 0.01 -0.00394545)
(1.99091 0.01 -0.00397566)
(2.00909 0.01 -0.00401148)
(2.02727 0.01 -0.00405086)
(2.04546 0.01 -0.00408642)
(2.06364 0.01 -0.00412155)
(2.08182 0.01 -0.00416009)
(2.1 0.01 -0.00419202)
(2.11818 0.01 -0.00422533)
(2.13636 0.01 -0.00426936)
(2.15455 0.01 -0.00431188)
(2.17273 0.01 -0.00435171)
(2.19091 0.01 -0.00438129)
(2.20909 0.01 -0.00440998)
(2.22727 0.01 -0.00445449)
(2.24545 0.01 -0.00448844)
(2.26364 0.01 -0.00451555)
(2.28182 0.01 -0.00455346)
(2.3 0.01 -0.00458759)
(2.31818 0.01 -0.00462859)
(2.33636 0.01 -0.00467763)
(2.35454 0.01 -0.00471393)
(2.37273 0.01 -0.00474239)
(2.39091 0.01 -0.00477488)
(2.40909 0.01 -0.00481246)
(2.42727 0.01 -0.00485547)
(2.44545 0.01 -0.00488705)
(2.46364 0.01 -0.00490976)
(2.48182 0.01 -0.00495435)
(2.5 0.01 -0.00500227)
(2.51818 0.01 -0.00502514)
(2.53636 0.01 -0.00505283)
(2.55455 0.01 -0.00510145)
(2.57273 0.01 -0.00514918)
(2.59091 0.01 -0.00518505)
(2.60909 0.01 -0.00521584)
(2.62727 0.01 -0.00524792)
(2.64546 0.01 -0.00528285)
(2.66364 0.01 -0.00531884)
(2.68182 0.01 -0.00535435)
(2.7 0.01 -0.00539565)
(2.71818 0.01 -0.00543636)
(2.73636 0.01 -0.00546495)
(2.75454 0.01 -0.00549888)
(2.77273 0.01 -0.00554579)
(2.79091 0.01 -0.00558091)
(2.80909 0.01 -0.00561091)
(2.82727 0.01 -0.00564786)
(2.84545 0.01 -0.00568294)
(2.86364 0.01 -0.0057123)
(2.88182 0.01 -0.00574356)
(2.9 0.01 -0.00578554)
(2.91818 0.01 -0.00582867)
(2.93636 0.01 -0.00587251)
(2.95455 0.01 -0.00590966)
(2.97273 0.01 -0.00593784)
(2.99091 0.01 -0.00596896)
(3.00909 0.01 -0.00601037)
(3.02727 0.01 -0.00605274)
(3.04545 0.01 -0.00608744)
(3.06364 0.01 -0.00611672)
(3.08182 0.01 -0.00614468)
(3.1 0.01 -0.00618127)
(3.11818 0.01 -0.00622746)
(3.13636 0.01 -0.00627461)
(3.15455 0.01 -0.00630897)
(3.17273 0.01 -0.00634039)
(3.19091 0.01 -0.0063685)
(3.20909 0.01 -0.00639828)
(3.22727 0.01 -0.0064535)
(3.24545 0.01 -0.00649037)
(3.26364 0.01 -0.00651173)
(3.28182 0.01 -0.00655775)
(3.3 0.01 -0.0065949)
(3.31818 0.01 -0.00662313)
(3.33636 0.01 -0.00667217)
(3.35454 0.01 -0.0067026)
(3.37273 0.01 -0.00669348)
(3.39091 0.01 -0.00670033)
(3.40909 0.01 -0.0067291)
(3.42727 0.01 -0.00675343)
(3.44545 0.01 -0.00678705)
(3.46364 0.01 -0.00681428)
(3.48182 0.01 -0.00683822)
(3.5 0.01 -0.00687024)
(3.51818 0.01 -0.00688775)
(3.53636 0.01 -0.00691611)
(3.55454 0.01 -0.00696041)
(3.57273 0.01 -0.00698095)
(3.59091 0.01 -0.00700084)
(3.60909 0.01 -0.00703903)
(3.62727 0.01 -0.00706009)
(3.64546 0.01 -0.00706138)
(3.66364 0.01 -0.00707434)
(3.68182 0.01 -0.00710081)
(3.7 0.01 -0.00713116)
(3.71818 0.01 -0.00716123)
(3.73636 0.01 -0.00718907)
(3.75455 0.01 -0.00721052)
(3.77273 0.01 -0.00723176)
(3.79091 0.01 -0.0072505)
(3.80909 0.01 -0.00726729)
(3.82727 0.01 -0.00729144)
(3.84545 0.01 -0.0073136)
(3.86364 0.01 -0.0073403)
(3.88182 0.01 -0.00736892)
(3.9 0.01 -0.00739367)
(3.91818 0.01 -0.00740801)
(3.93636 0.01 -0.00739021)
(3.95454 0.01 -0.00735262)
(3.97273 0.01 -0.00730512)
(3.99091 0.01 -0.00724902)
(4.00909 0.01 -0.00719237)
(4.02727 0.01 -0.00712988)
(4.04546 0.01 -0.00706894)
(4.06364 0.01 -0.00702858)
(4.08182 0.01 -0.00698855)
(4.1 0.01 -0.00692703)
(4.11818 0.01 -0.00686531)
(4.13636 0.01 -0.00681411)
(4.15455 0.01 -0.00676114)
(4.17273 0.01 -0.00670718)
(4.19091 0.01 -0.0066761)
(4.20909 0.01 -0.00661672)
(4.22727 0.01 -0.00645696)
(4.24545 0.01 -0.0063026)
(4.26364 0.01 -0.00623136)
(4.28182 0.01 -0.00619214)
(4.3 0.01 -0.00616718)
(4.31818 0.01 -0.00610584)
(4.33636 0.01 -0.00602157)
(4.35454 0.01 -0.00596845)
(4.37273 0.01 -0.00593007)
(4.39091 0.01 -0.00589265)
(4.40909 0.01 -0.00585669)
(4.42727 0.01 -0.0058217)
(4.44546 0.01 -0.00578745)
(4.46364 0.01 -0.00575482)
(4.48182 0.01 -0.00572447)
(4.5 0.01 -0.00569624)
(4.51818 0.01 -0.0056689)
(4.53636 0.01 -0.00564277)
(4.55454 0.01 -0.00561787)
(4.57273 0.01 -0.00559415)
(4.59091 0.01 -0.00557126)
(4.60909 0.01 -0.00554889)
(4.62727 0.01 -0.00552685)
(4.64545 0.01 -0.00550596)
(4.66364 0.01 -0.00548653)
(4.68182 0.01 -0.00546857)
(4.7 0.01 -0.00545184)
(4.71818 0.01 -0.00543654)
(4.73636 0.01 -0.0054229)
(4.75455 0.01 -0.00541114)
(4.77273 0.01 -0.0054006)
(4.79091 0.01 -0.00539084)
(4.80909 0.01 -0.00538143)
(4.82727 0.01 -0.00537243)
(4.84546 0.01 -0.0053636)
(4.86364 0.01 -0.0053558)
(4.88182 0.01 -0.00534816)
(4.9 0.01 -0.00533947)
(4.91818 0.01 -0.00531937)
(4.93636 0.01 -0.00527242)
(4.95454 0.01 -0.00522444)
(4.97273 0.01 -0.00520315)
(4.99091 0.01 -0.00519285)
(5.00909 0.01 -0.00518185)
(5.02727 0.01 -0.00517023)
(5.04545 0.01 -0.00515754)
(5.06364 0.01 -0.00514415)
(5.08182 0.01 -0.00512997)
(5.1 0.01 -0.00511524)
(5.11818 0.01 -0.00510011)
(5.13636 0.01 -0.00508508)
(5.15455 0.01 -0.00507041)
(5.17273 0.01 -0.00505629)
(5.19091 0.01 -0.0050428)
(5.20909 0.01 -0.00503013)
(5.22727 0.01 -0.00501839)
(5.24545 0.01 -0.0050077)
(5.26364 0.01 -0.00499797)
(5.28182 0.01 -0.00498932)
(5.3 0.01 -0.00498164)
(5.31818 0.01 -0.00497507)
(5.33636 0.01 -0.00496941)
(5.35454 0.01 -0.00496479)
(5.37273 0.01 -0.00496072)
(5.39091 0.01 -0.00495764)
(5.40909 0.01 -0.0049546)
(5.42727 0.01 -0.00495275)
(5.44546 0.01 -0.0049507)
(5.46364 0.01 -0.00495005)
(5.48182 0.01 -0.00494956)
(5.5 0.01 -0.00495028)
(5.51818 0.01 -0.00495146)
(5.53636 0.01 -0.00495352)
(5.55455 0.01 -0.0049563)
(5.57273 0.01 -0.00495942)
(5.59091 0.01 -0.00496347)
(5.60909 0.01 -0.00496726)
(5.62727 0.01 -0.00497196)
(5.64546 0.01 -0.00497619)
(5.66364 0.01 -0.00498109)
(5.68182 0.01 -0.00498556)
(5.7 0.01 -0.00499041)
(5.71818 0.01 -0.00499475)
(5.73636 0.01 -0.00499912)
(5.75455 0.01 -0.00500279)
(5.77273 0.01 -0.00500602)
(5.79091 0.01 -0.00500823)
(5.80909 0.01 -0.00500939)
(5.82727 0.01 -0.00500897)
(5.84545 0.01 -0.00500674)
(5.86364 0.01 -0.00500356)
(5.88182 0.01 -0.00499882)
(5.9 0.01 -0.00499357)
(5.91818 0.01 -0.00498739)
(5.93636 0.01 -0.00498042)
(5.95454 0.01 -0.00497406)
(5.97273 0.01 -0.00496488)
(5.99091 0.01 -0.00495905)
(6.00909 0.01 -0.00493222)
(6.02727 0.01 -0.00488454)
(6.04546 0.01 -0.00485793)
(6.06364 0.01 -0.0048504)
(6.08182 0.01 -0.00483561)
(6.1 0.01 -0.0048257)
(6.11818 0.01 -0.00480663)
(6.13636 0.01 -0.00479713)
(6.15454 0.01 -0.00478529)
(6.17273 0.01 -0.00478752)
(6.19091 0.01 -0.00482293)
(6.20909 0.01 -0.00466481)
(6.22727 0.01 -0.0045029)
(6.24546 0.01 -0.0045069)
(6.26364 0.01 -0.00449559)
(6.28182 0.01 -0.00447498)
(6.3 0.01 -0.00445245)
(6.31818 0.01 -0.00442832)
(6.33636 0.01 -0.0044037)
(6.35454 0.01 -0.00437881)
(6.37273 0.01 -0.00435409)
(6.39091 0.01 -0.00432981)
(6.40909 0.01 -0.00430602)
(6.42727 0.01 -0.00428278)
(6.44545 0.01 -0.00426002)
(6.46364 0.01 -0.00423771)
(6.48182 0.01 -0.00421569)
(6.5 0.01 -0.00419384)
(6.51818 0.01 -0.00417205)
(6.53636 0.01 -0.00415018)
(6.55455 0.01 -0.00412812)
(6.57273 0.01 -0.0041058)
(6.59091 0.01 -0.00408311)
(6.60909 0.01 -0.00405992)
(6.62727 0.01 -0.00403619)
(6.64545 0.01 -0.00401183)
(6.66364 0.01 -0.00398684)
(6.68182 0.01 -0.00396165)
(6.7 0.01 -0.00393592)
(6.71818 0.01 -0.00391107)
(6.73636 0.01 -0.00388533)
(6.75454 0.01 -0.00386168)
(6.77273 0.01 -0.00383507)
(6.79091 0.01 -0.00381382)
(6.80909 0.01 -0.00378486)
(6.82727 0.01 -0.00376754)
(6.84545 0.01 -0.00373767)
(6.86364 0.01 -0.00372745)
(6.88182 0.01 -0.00370891)
(6.9 0.01 -0.00371707)
(6.91818 0.01 -0.00373333)
(6.93636 0.01 -0.00375962)
(6.95454 0.01 -0.00380905)
(6.97273 0.01 -0.00382828)
(6.99091 0.01 -0.00387585)
(7.00909 0.01 -0.00390835)
(7.02727 0.01 -0.00394472)
(7.04545 0.01 -0.00398091)
(7.06364 0.01 -0.00401727)
(7.08182 0.01 -0.00405357)
(7.1 0.01 -0.00409001)
(7.11818 0.01 -0.00412643)
(7.13636 0.01 -0.00416288)
(7.15455 0.01 -0.00419934)
(7.17273 0.01 -0.00423575)
(7.19091 0.01 -0.0042723)
(7.20909 0.01 -0.00430847)
(7.22727 0.01 -0.00434537)
(7.24545 0.01 -0.00438091)
(7.26364 0.01 -0.00441915)
(7.28182 0.01 -0.00445263)
(7.3 0.01 -0.00449359)
(7.31818 0.01 -0.00452385)
(7.33636 0.01 -0.00457041)
(7.35454 0.01 -0.0045826)
(7.37273 0.01 -0.00464289)
(7.39091 0.01 -0.00480484)
(7.40909 0.01 -0.00471559)
(7.42727 0.01 -0.00463935)
(7.44546 0.01 -0.0047776)
(7.46364 0.01 -0.00482718)
(7.48182 0.01 -0.00485383)
(7.5 0.01 -0.00489798)
(7.51818 0.01 -0.00492859)
(7.53636 0.01 -0.00496581)
(7.55454 0.01 -0.00500071)
(7.57273 0.01 -0.00503706)
(7.59091 0.01 -0.00507324)
(7.60909 0.01 -0.00510976)
(7.62727 0.01 -0.00514644)
(7.64546 0.01 -0.00518317)
(7.66364 0.01 -0.00521992)
(7.68182 0.01 -0.00525674)
(7.7 0.01 -0.00529428)
(7.71818 0.01 -0.00533092)
(7.73636 0.01 -0.00536704)
(7.75455 0.01 -0.00540357)
(7.77273 0.01 -0.00543983)
(7.79091 0.01 -0.00547615)
(7.80909 0.01 -0.00551252)
(7.82727 0.01 -0.00554884)
(7.84545 0.01 -0.00558518)
(7.86364 0.01 -0.00562154)
(7.88182 0.01 -0.00565786)
(7.9 0.01 -0.00569419)
(7.91818 0.01 -0.00573055)
(7.93636 0.01 -0.00576689)
(7.95454 0.01 -0.00580324)
(7.97273 0.01 -0.00583959)
(7.99091 0.01 -0.00587592)
(8.00909 0.01 -0.00591229)
(8.02727 0.01 -0.00594858)
(8.04546 0.01 -0.0059849)
(8.06364 0.01 -0.0060213)
(8.08182 0.01 -0.00605761)
(8.1 0.01 -0.0060939)
(8.11818 0.01 -0.00613025)
(8.13636 0.01 -0.00616653)
(8.15454 0.01 -0.00620285)
(8.17273 0.01 -0.00623924)
(8.19091 0.01 -0.00627558)
(8.20909 0.01 -0.00631186)
(8.22727 0.01 -0.00634814)
(8.24545 0.01 -0.00638453)
(8.26364 0.01 -0.00642094)
(8.28182 0.01 -0.00645723)
(8.3 0.01 -0.00649351)
(8.31818 0.01 -0.00652987)
(8.33636 0.01 -0.0065662)
(8.35454 0.01 -0.00660249)
(8.37273 0.01 -0.00663881)
(8.39091 0.01 -0.00667516)
(8.40909 0.01 -0.00671152)
(8.42727 0.01 -0.00674784)
(8.44545 0.01 -0.00678422)
(8.46364 0.01 -0.00682055)
(8.48182 0.01 -0.00685673)
(8.5 0.01 -0.00689297)
(8.51818 0.01 -0.00692928)
(8.53636 0.01 -0.00696556)
(8.55455 0.01 -0.00700177)
(8.57273 0.01 -0.00703775)
(8.59091 0.01 -0.00707378)
(8.60909 0.01 -0.00710989)
(8.62727 0.01 -0.00714589)
(8.64546 0.01 -0.00718205)
(8.66364 0.01 -0.00721792)
(8.68182 0.01 -0.00725446)
(8.7 0.01 -0.0072899)
(8.71818 0.01 -0.0073277)
(8.73636 0.01 -0.00736086)
(8.75455 0.01 -0.0074014)
(8.77273 0.01 -0.00743041)
(8.79091 0.01 -0.00747599)
(8.80909 0.01 -0.00750176)
(8.82727 0.01 -0.00755214)
(8.84546 0.01 -0.00756055)
(8.86364 0.01 -0.00752091)
(8.88182 0.01 -0.00766292)
(8.9 0.01 -0.00758839)
(8.91818 0.01 -0.00754022)
(8.93636 0.01 -0.0077619)
(8.95454 0.01 -0.00780883)
(8.97273 0.01 -0.00783447)
(8.99091 0.01 -0.00788153)
(9.00909 0.01 -0.00791009)
(9.02727 0.01 -0.00795232)
(9.04546 0.01 -0.00798292)
(9.06364 0.01 -0.00802111)
(9.08182 0.01 -0.00805416)
(9.1 0.01 -0.00809294)
(9.11818 0.01 -0.00812435)
(9.13636 0.01 -0.00816778)
(9.15455 0.01 -0.00819187)
(9.17273 0.01 -0.00824543)
(9.19091 0.01 -0.008233)
(9.20909 0.01 -0.0082057)
(9.22727 0.01 -0.00835431)
(9.24545 0.01 -0.00827905)
(9.26364 0.01 -0.00822627)
(9.28182 0.01 -0.00843702)
(9.3 0.01 -0.00849959)
(9.31818 0.01 -0.00852218)
(9.33636 0.01 -0.00857255)
(9.35454 0.01 -0.00859929)
(9.37273 0.01 -0.00863681)
(9.39091 0.01 -0.00867067)
(9.40909 0.01 -0.00870636)
(9.42727 0.01 -0.00874303)
(9.44545 0.01 -0.00877743)
(9.46364 0.01 -0.00881643)
(9.48182 0.01 -0.00884781)
(9.5 0.01 -0.00889008)
(9.51818 0.01 -0.00891752)
(9.53636 0.01 -0.00896371)
(9.55455 0.01 -0.00898893)
(9.57273 0.01 -0.00903958)
(9.59091 0.01 -0.00906498)
(9.60909 0.01 -0.00911714)
(9.62727 0.01 -0.00913625)
(9.64546 0.01 -0.00917454)
(9.66364 0.01 -0.00919412)
(9.68182 0.01 -0.00921398)
(9.7 0.01 -0.00923824)
(9.71818 0.01 -0.00929063)
(9.73636 0.01 -0.00963084)
(9.75455 0.01 -0.010429)
(9.77273 0.01 -0.0118399)
(9.79091 0.01 -0.0140218)
(9.80909 0.01 -0.0175208)
(9.82727 0.01 -0.0196545)
(9.84545 0.01 -0.0196909)
(9.86364 0.01 -0.0197273)
(9.88182 0.01 -0.0197636)
(9.9 0.01 -0.0198)
(9.91818 0.01 -0.0198363)
(9.93636 0.01 -0.0198727)
(9.95454 0.01 -0.0199091)
(9.97273 0.01 -0.0199454)
(9.99091 0.01 -0.0199818)
)
;

boundaryField
{
    inlet
    {
        type            calculated;
        value           uniform (0 0 0);
    }
    endWall
    {
        type            calculated;
        value           uniform (0 0 0);
    }
    sideWall
    {
        type            empty;
    }
}


// ************************************************************************* //
