/*--------------------------------*- C++ -*----------------------------------*\
| =========                 |                                                 |
| \\      /  F ield         | foam-extend: Open Source CFD                    |
|  \\    /   O peration     | Version:     3.2                                |
|   \\  /    A nd           | Web:         http://www.foam-extend.org         |
|    \\/     M anipulation  | For copyright notice see file Copyright         |
\*---------------------------------------------------------------------------*/
FoamFile
{
    version     2.0;
    format      ascii;
    class       areaScalarField;
    location    "1790";
    object      angBeta;
}
// * * * * * * * * * * * * * * * * * * * * * * * * * * * * * * * * * * * * * //

dimensions      [0 0 0 0 0 0 0];

internalField   nonuniform List<scalar> 
550
(
0.002
0.002
0.00199999
0.00200002
0.00199996
0.00200001
0.00199994
0.002
0.00200011
0.00199994
0.002
0.002
0.00199994
0.00200011
0.002
0.00199994
0.002
0.00199994
0.002
0.00200011
0.00199994
0.002
0.002
0.00199994
0.00200011
0.002
0.00199994
0.00199989
0.00200033
0.00199978
0.00199989
0.00200033
0.00199978
0.00199978
0.00200033
0.00199989
0.00199978
0.00200033
0.00199978
0.00200033
0.00199978
0.00199989
0.00200033
0.00199978
0.00199978
0.00200033
0.00199989
0.00199978
0.00200033
0.00199978
0.00200033
0.00199978
0.00199989
0.00200033
0.00199978
0.002
0.00200055
0.0019989
0.002
0.00200055
0.002
0.00200055
0.002
0.0019989
0.00200055
0.002
0.002
0.00200055
0.0019989
0.002
0.00200055
0.002
0.00200055
0.002
0.0019989
0.00200055
0.002
0.002
0.00200055
0.0019989
0.002
0.00200055
0.002
0.00200055
0.002
0.0019989
0.00200055
0.002
0.002
0.00200055
0.0019989
0.002
0.00200055
0.002
0.00200055
0.002
0.0019989
0.00200055
0.002
0.002
0.00200055
0.0019989
0.002
0.00200055
0.002
0.00200055
0.002
0.0019989
0.00200055
0.00132194
0.00261864
0.00171417
0.0021962
0.00166732
0.00257296
0.000939815
0.00272469
0.00211851
0.00255764
0.00182267
0.00143129
0.0017254
0.00317062
0.000564784
0.00241675
0.00175425
0.0019996
0.00251087
0.00288496
0.00110698
0.00202341
0.00155101
0.00258301
0.00214891
0.00132449
0.00117286
0.00373238
0.0015397
0.000976606
0.00206966
0.00327661
0.00197244
0.00197353
0.00141355
0.00211653
0.00172447
0.00223465
0.00167108
0.00287216
0.00160631
0.0015391
0.00219222
0.00296805
0.000895562
0.00240438
0.00166059
0.00219681
0.0010328
0.00240538
0.00221264
0.00253222
0.00229149
0.0017943
0.00130464
0.00211891
0.00243615
0.00222499
0.00159188
0.00162875
0.00144713
0.00257757
0.00250438
0.0026826
0.00109658
0.0023593
0.000732547
0.00254409
0.00353114
0.000523977
0.00182616
0.00323589
0.000850907
0.00225528
0.00313928
0.000208257
0.00121139
0.00196522
0.0011997
0.00147693
0.00221999
0.000774831
0.00185885
0.00166349
0.000262199
0.00285835
0.00201351
0.000245475
0.00194217
0.0022589
5.87679e-05
8.28841e-05
0.00134253
0.00156906
0.00176997
0.00153844
0.00152413
0.000834659
0.00150178
0.000559956
0.00128732
0.00136897
0.00106909
0.00186746
0.00128122
0.00144093
0.000136516
0.00209425
0.00204008
0.00318415
0.00298724
0.00324508
0.00362998
0.00307151
0.00136684
0.00303706
0.00373113
0.00305837
0.00257455
0.00325128
0.00268307
0.000735924
0.00579644
0.0117782
0.00519996
0.00263351
0.00168174
0.00106389
0.00568404
0.00358713
0.00225453
0.00196644
0.0021511
0.00180471
0.00204414
0.00172242
0.00186711
0.00147097
0.00163551
0.00137191
0.00150224
0.00123636
0.00137307
0.00114468
0.00131577
0.00110987
0.00118699
0.000949491
0.00102728
0.000813047
0.000869994
0.000630045
0.000663283
0.000495836
0.000578199
0.000456668
0.00053364
0.000437231
0.000421045
0.000419056
0.000537073
0.0016743
0.00349105
0.00178609
0.000554884
0.000578821
0.00063135
0.000646813
0.000748048
0.000725535
0.000833934
0.000786459
0.000877985
0.000775364
0.000838365
0.000713926
0.00077009
0.00062419
0.000666859
0.00050985
0.000559876
0.000392063
0.000452696
0.000270019
0.000352733
0.00015517
0.000292496
4.59442e-05
0.000288987
8.54439e-05
0.000310528
0.000239508
0.000294366
0.000374214
0.000244601
0.000470966
0.000165046
0.000509132
6.40182e-05
0.000481088
3.53012e-05
0.000430253
0.000108743
0.000383411
0.00014956
0.000327499
0.000153849
0.000249559
0.000105378
0.000138221
1.04119e-05
3.57843e-05
0.000209851
0.000139734
0.000381358
0.000196125
0.000484438
0.000282661
0.000416229
0.000593804
4.72584e-05
0.00290417
0.0023417
0.000585438
0.000242051
0.00138558
0.000295485
0.00239306
0.00134819
0.00264992
0.0028971
0.000999015
0.0183928
0.000583477
0.000143968
0.00109949
0.00116757
0.00131118
0.00134409
0.00136367
0.00137381
0.00134499
0.00132652
0.00128994
0.00126651
0.00123697
0.001217
0.00120561
0.00119786
0.00119948
0.00120588
0.00122056
0.00123425
0.00126184
0.00128997
0.00132
0.00135969
0.00138831
0.00138245
0.00144815
0.00128545
0.00154717
0.00105404
0.00187263
0.000464515
0.00272127
0.00081562
0.00409919
0.00297706
0.00501676
0.00591417
0.00412564
0.00701831
0.00157997
0.00369675
0.00153648
0.00203796
0.00196384
0.00201623
0.001983
0.00200991
0.00199892
0.00200764
0.00200236
0.00200702
0.00199754
0.00202329
0.00195589
0.00210368
0.00180487
0.00240111
0.00128258
0.00322309
0.000106306
0.00501574
0.00367361
0.0103084
0.00750691
0.0173231
0.00893751
0.00626702
0.000816214
0.00374809
0.00110868
0.0022595
0.00183441
0.00200436
0.00199371
0.00198605
0.00203188
0.00200268
0.00203673
0.00200514
0.00204561
0.00208438
0.00194631
0.00202698
0.00199109
0.00199647
0.00199935
0.00200139
0.00199498
0.00200139
0.00199721
0.00199923
0.00199722
0.00200255
0.00199558
0.00200146
0.00199617
0.00200096
0.00200002
0.00199273
0.00200115
0.0020021
0.00199292
0.00199935
0.00199895
0.00199276
0.00200171
0.00200047
0.00199677
0.00199498
0.0019962
0.00200593
0.00199897
0.00199334
0.00199785
0.0020021
0.00199455
0.00199606
0.00199895
0.00199991
0.00199948
0.00199602
0.00200552
0.00199054
0.00198956
0.0019965
0.00199827
0.00199257
0.00199057
0.00196614
0.0019976
0.00197533
0.00198488
0.00199224
0.00195277
0.00206632
0.00183245
0.00232659
0.00132045
0.00313764
5.30652e-05
0.00496023
0.00212491
0.00766716
0.00673796
0.00238026
0.0132415
0.0214378
0.0161405
0.00824511
0.0030808
0.00590289
0.000725522
0.00386786
0.000777228
0.00258757
0.00161276
0.00202255
0.00224422
0.00121122
0.00356599
0.000915341
0.00680848
0.00817584
0.00517291
0.0111753
0.0194424
0.0136488
0.0095345
0.00265071
0.00513582
0.00040484
0.00253545
0.00159076
0.00213476
0.00179153
0.00224257
0.00154041
0.00274917
0.00070352
0.00394662
0.000929043
0.00601093
0.00323418
0.0088067
0.00601203
0.0117492
0.00964602
0.013849
0.011703
0.0138885
0.0112201
0.0169813
0.0204412
0.0672294
0.0876147
0.151033
0.228669
0.0019967
0.0020011
0.0020022
0.0019967
0.0020022
0.0019967
0.0020022
0.0020011
0.0019967
0.0020022
)
;

boundaryField
{
    inlet
    {
        type            calculated;
        value           uniform 0;
    }
    endWall
    {
        type            calculated;
        value           uniform 0;
    }
    sideWall
    {
        type            empty;
    }
}


// ************************************************************************* //
