/*--------------------------------*- C++ -*----------------------------------*\
| =========                 |                                                 |
| \\      /  F ield         | foam-extend: Open Source CFD                    |
|  \\    /   O peration     | Version:     3.2                                |
|   \\  /    A nd           | Web:         http://www.foam-extend.org         |
|    \\/     M anipulation  | For copyright notice see file Copyright         |
\*---------------------------------------------------------------------------*/
FoamFile
{
    version     2.0;
    format      ascii;
    class       volScalarField;
    location    "1790";
    object      C;
}
// * * * * * * * * * * * * * * * * * * * * * * * * * * * * * * * * * * * * * //

dimensions      [1 -3 0 0 0 0 0];

internalField   nonuniform List<scalar> 
33000
(
0.0197
0.0197
0.0197
0.0197
0.0197
0.0197
0.0197
0.0197
0.0197
0.0197
0.0197
0.0197
0.0197
0.0197
0.0197
0.0197
0.0197
0.0197
0.0197
0.0197
0.0197
0.0197
0.0197
0.0197
0.0197
0.0197
0.0197
0.0197
0.0197
0.0197
0.0197
0.0197
0.0197
0.0197
0.0197
0.0197
0.0197
0.0197
0.0197
0.0197
0.0197
0.0197
0.0197
0.0197
0.0197
0.0197
0.0197
0.0197
0.0197
0.0197
0.0197
0.0197
0.0197
0.0197
0.0197
0.0197
0.0197
0.0197
0.0197
0.0197
0.0197
0.0197
0.0197
0.0197
0.0197
0.0197
0.0197
0.0197
0.0197
0.0196999
0.0196999
0.0196999
0.0196999
0.0196999
0.0196999
0.0196999
0.0196998
0.0196998
0.0196998
0.0196997
0.0196997
0.0196996
0.0196996
0.0196995
0.0196994
0.0196993
0.0196992
0.019699
0.0196989
0.0196987
0.0196985
0.0196983
0.019698
0.0196977
0.0196974
0.019697
0.0196966
0.0196962
0.0196957
0.0196952
0.0196946
0.0196939
0.0196933
0.0196925
0.0196917
0.0196909
0.01969
0.019689
0.0196878
0.0196869
0.0197127
0.0197332
0.0197549
0.0197714
0.0197803
0.0197942
0.0198034
0.0198118
0.0198241
0.0198318
0.0198479
0.0198491
0.0198334
0.0198473
0.0198446
0.0198472
0.0198523
0.01984
0.0198395
0.0198372
0.0198456
0.0198349
0.019833
0.0198211
0.0198178
0.019824
0.0198016
0.0197964
0.0198038
0.0197939
0.0197727
0.0197726
0.0197776
0.0197712
0.019767
0.019759
0.0197604
0.0197547
0.0197461
0.0197381
0.019743
0.0197414
0.0197242
0.0197265
0.0197234
0.0197181
0.0197126
0.0197134
0.0197109
0.0197069
0.0196943
0.0196918
0.019692
0.019688
0.0196866
0.0196733
0.0196681
0.0196696
0.019665
0.0196573
0.0196492
0.0196441
0.0196327
0.0196349
0.0196315
0.0196253
0.0196223
0.0196068
0.0196035
0.0196063
0.0195985
0.0195884
0.0195917
0.0195804
0.0195763
0.0195766
0.0195804
0.0195804
0.0195771
0.0195715
0.0195644
0.0195561
0.0195472
0.0195374
0.0195273
0.0195178
0.0195078
0.0194972
0.0194875
0.0194792
0.0194719
0.0194664
0.0194628
0.0194606
0.0194595
0.0194587
0.0194578
0.0194564
0.0194544
0.0194515
0.019448
0.0194439
0.0194393
0.0194343
0.0194291
0.0194238
0.0194164
0.0194086
0.0193998
0.0193911
0.0193821
0.0193728
0.0193642
0.0193556
0.0193465
0.0193371
0.0193282
0.0193193
0.0193103
0.0193016
0.0192941
0.0192838
0.0192725
0.0192643
0.0192571
0.0192503
0.0192435
0.0192349
0.0192276
0.0192208
0.0192142
0.0192074
0.0192007
0.0191938
0.0191871
0.01918
0.019173
0.0191656
0.0191582
0.0191505
0.0191428
0.0191348
0.0191269
0.0191187
0.0191106
0.0191025
0.0190946
0.0190868
0.0190792
0.0190718
0.0190648
0.019058
0.0190517
0.0190456
0.01904
0.0190346
0.0190296
0.019025
0.0190207
0.0190166
0.0190122
0.0190075
0.0190039
0.0190008
0.0189978
0.0189948
0.0189919
0.018989
0.0189862
0.0189832
0.0189803
0.0189773
0.0189743
0.0189713
0.0189682
0.018965
0.0189618
0.0189584
0.0189551
0.0189516
0.0189481
0.0189444
0.0189407
0.0189369
0.0189331
0.0189291
0.0189252
0.018921
0.0189169
0.0189124
0.0189082
0.0189036
0.0188992
0.0188946
0.01889
0.0188853
0.0188807
0.018876
0.0188712
0.0188665
0.0188617
0.0188569
0.018852
0.0188472
0.0188423
0.0188375
0.0188326
0.0188277
0.0188228
0.0188179
0.018813
0.0188079
0.0188029
0.0187977
0.0187927
0.0187874
0.0187823
0.0187771
0.0187719
0.0187668
0.0187605
0.0187548
0.0187497
0.0187448
0.0187392
0.0187345
0.0187282
0.0187237
0.0187172
0.0187129
0.0187073
0.018697
0.0186936
0.0186897
0.0186849
0.0186801
0.018675
0.01867
0.0186649
0.0186597
0.0186546
0.0186495
0.0186444
0.0186393
0.0186342
0.0186292
0.0186241
0.018619
0.018614
0.0186089
0.0186038
0.0185987
0.0185936
0.0185885
0.0185834
0.0185782
0.0185731
0.0185679
0.0185627
0.0185577
0.0185524
0.0185474
0.018542
0.0185374
0.0185314
0.0185272
0.0185202
0.018516
0.0185086
0.0185042
0.0184998
0.0184952
0.0184907
0.018486
0.0184814
0.0184767
0.018472
0.0184672
0.0184625
0.0184578
0.018453
0.0184483
0.0184436
0.018439
0.0184343
0.0184296
0.018425
0.0184204
0.0184158
0.0184112
0.0184067
0.0184021
0.0183977
0.0183931
0.0183887
0.0183845
0.0183709
0.0183675
0.0183638
0.0183604
0.0183566
0.0183528
0.0183491
0.0183453
0.0183416
0.0183379
0.0183342
0.0183305
0.0183268
0.0183232
0.0183196
0.0183161
0.0183126
0.0183092
0.0183057
0.0183024
0.018299
0.0182957
0.0182924
0.0182891
0.0182858
0.0182825
0.0182793
0.018276
0.0182727
0.0182694
0.0182661
0.0182628
0.0182595
0.0182561
0.0182528
0.0182495
0.0182461
0.0182428
0.0182395
0.0182362
0.0182329
0.0182296
0.0182263
0.0182231
0.0182199
0.0182167
0.0182136
0.0182104
0.0182072
0.0182041
0.018201
0.0181978
0.0181947
0.0181915
0.0181883
0.0181851
0.0181818
0.0181785
0.0181752
0.0181718
0.0181684
0.018165
0.0181616
0.0181581
0.0181545
0.018151
0.0181474
0.0181438
0.0181402
0.0181366
0.018133
0.0181293
0.0181257
0.018122
0.0181184
0.0181148
0.0181112
0.0181076
0.018104
0.0181004
0.0180967
0.0180933
0.0180898
0.0180861
0.0180827
0.0180795
0.018076
0.0180725
0.0180691
0.0180657
0.0180623
0.0180589
0.0180556
0.0180523
0.0180491
0.0180458
0.0180426
0.0180395
0.0180363
0.018033
0.0180301
0.018027
0.0180238
0.0180208
0.018018
0.018015
0.018012
0.0180091
0.0180061
0.0180032
0.0180003
0.0179975
0.0179947
0.0179919
0.017989
0.0179863
0.0179835
0.0179808
0.0179781
0.0179755
0.0179728
0.0179702
0.0179675
0.017965
0.0179623
0.0179598
0.017957
0.0179544
0.0179515
0.0179206
0.0178941
0.017869
0.0178489
0.0178534
0.0178567
0.0178601
0.0178627
0.0178647
0.0178665
0.0178692
0.0178791
0.0178877
0.0178864
0.0178848
0.0197
0.0197
0.0197
0.0197
0.0197
0.0197
0.0197
0.0197
0.0197
0.0197
0.0197
0.0197
0.0197
0.0197
0.0197
0.0197
0.0197
0.0197
0.0197
0.0197
0.0197
0.0197
0.0197
0.0197
0.0197
0.0197
0.0197
0.0197
0.0197
0.0197
0.0197
0.0197
0.0197
0.0197
0.0197
0.0197
0.0197
0.0197
0.0197
0.0197
0.0197
0.0197
0.0197
0.0197
0.0197
0.0197
0.0197
0.0197
0.0197
0.0197
0.0197
0.0197
0.0197
0.0197
0.0197
0.0197
0.0197
0.0197
0.0197
0.0197
0.0197
0.0197
0.0196999
0.0196999
0.0196999
0.0196999
0.0196999
0.0196999
0.0196999
0.0196998
0.0196998
0.0196998
0.0196998
0.0196997
0.0196997
0.0196996
0.0196996
0.0196995
0.0196994
0.0196993
0.0196992
0.019699
0.0196989
0.0196987
0.0196985
0.0196982
0.0196979
0.0196976
0.0196972
0.0196968
0.0196964
0.0196958
0.0196953
0.0196946
0.019694
0.0196932
0.0196924
0.0196915
0.0196905
0.0196894
0.0196883
0.0196871
0.0196859
0.0196845
0.0196831
0.0196816
0.01968
0.0196784
0.0196764
0.0196748
0.0196753
0.0196758
0.0196765
0.0196794
0.019681
0.0196853
0.0196905
0.0196911
0.019691
0.0196923
0.0197
0.0197058
0.0197005
0.0197003
0.0197063
0.0197068
0.0197093
0.0197093
0.0197021
0.0197009
0.0197046
0.0197038
0.0197012
0.0196949
0.0196921
0.0196993
0.0196932
0.0196783
0.0196827
0.0196895
0.0196777
0.0196666
0.0196677
0.0196677
0.0196638
0.0196602
0.0196569
0.0196549
0.019651
0.019643
0.0196419
0.0196437
0.0196331
0.0196266
0.0196294
0.019625
0.0196185
0.0196181
0.0196176
0.0196139
0.0196062
0.0195991
0.0195975
0.0195971
0.0195951
0.0195893
0.0195793
0.0195747
0.0195747
0.0195714
0.0195676
0.0195616
0.019551
0.0195464
0.0195448
0.0195401
0.0195387
0.019531
0.0195184
0.0195183
0.0195185
0.0195098
0.0195071
0.0195048
0.0194949
0.0194869
0.0194838
0.0194809
0.0194771
0.0194726
0.0194675
0.0194619
0.019456
0.0194494
0.0194429
0.0194369
0.0194306
0.0194243
0.0194185
0.0194126
0.0194063
0.0194005
0.0193956
0.0193913
0.0193874
0.019384
0.0193807
0.0193776
0.0193744
0.0193709
0.0193672
0.0193633
0.0193591
0.0193547
0.0193501
0.0193454
0.0193402
0.0193346
0.0193286
0.0193224
0.0193159
0.0193092
0.0193026
0.0192957
0.0192886
0.0192814
0.0192742
0.019267
0.0192596
0.0192523
0.0192451
0.0192374
0.0192294
0.0192218
0.0192146
0.0192076
0.0192006
0.0191935
0.0191864
0.0191796
0.0191728
0.0191661
0.0191594
0.0191528
0.0191461
0.0191393
0.0191325
0.0191257
0.0191187
0.0191116
0.0191044
0.019097
0.0190896
0.019082
0.0190744
0.0190667
0.019059
0.0190514
0.0190439
0.0190364
0.0190292
0.0190222
0.0190154
0.0190089
0.0190027
0.0189967
0.0189911
0.0189859
0.0189809
0.0189762
0.0189717
0.0189673
0.0189633
0.0189595
0.0189559
0.0189525
0.0189493
0.0189461
0.018943
0.0189399
0.0189369
0.0189339
0.0189308
0.0189277
0.0189246
0.0189214
0.0189182
0.0189149
0.0189115
0.0189081
0.0189046
0.0189009
0.0188973
0.0188935
0.0188897
0.0188858
0.0188818
0.0188777
0.0188736
0.0188694
0.0188651
0.0188608
0.0188563
0.0188519
0.0188473
0.0188428
0.0188381
0.0188335
0.0188287
0.018824
0.0188192
0.0188143
0.0188095
0.0188046
0.0187996
0.0187947
0.0187897
0.0187848
0.0187798
0.0187748
0.0187697
0.0187647
0.0187596
0.0187545
0.0187494
0.0187443
0.0187392
0.0187341
0.018729
0.0187238
0.0187185
0.0187132
0.018708
0.0187027
0.0186975
0.0186923
0.0186871
0.0186818
0.0186766
0.0186717
0.0186662
0.0186602
0.0186546
0.0186495
0.0186444
0.0186392
0.0186341
0.0186289
0.0186238
0.0186187
0.0186136
0.0186085
0.0186034
0.0185983
0.0185932
0.0185882
0.0185832
0.0185781
0.0185731
0.0185681
0.0185631
0.0185581
0.0185531
0.0185482
0.0185432
0.0185382
0.0185332
0.0185282
0.0185232
0.0185181
0.0185131
0.0185081
0.018503
0.018498
0.018493
0.0184878
0.0184828
0.0184776
0.0184725
0.0184672
0.0184624
0.0184573
0.0184525
0.0184475
0.0184427
0.0184378
0.0184329
0.0184281
0.0184232
0.0184184
0.0184136
0.0184089
0.0184041
0.0183994
0.0183947
0.0183901
0.0183854
0.0183808
0.0183763
0.0183718
0.0183673
0.0183628
0.0183585
0.0183539
0.0183497
0.0183456
0.0183406
0.0183357
0.018331
0.0183269
0.0183226
0.0183184
0.0183143
0.0183102
0.0183062
0.0183023
0.0182984
0.0182945
0.0182907
0.018287
0.0182833
0.0182797
0.0182762
0.0182727
0.0182692
0.0182658
0.0182625
0.0182591
0.0182559
0.0182526
0.0182494
0.0182462
0.018243
0.0182398
0.0182366
0.0182333
0.0182301
0.0182268
0.0182236
0.0182203
0.018217
0.0182136
0.0182103
0.018207
0.0182037
0.0182004
0.0181971
0.0181938
0.0181905
0.0181873
0.0181841
0.018181
0.0181778
0.0181747
0.0181717
0.0181686
0.0181656
0.0181626
0.0181596
0.0181566
0.0181536
0.0181506
0.0181476
0.0181446
0.0181415
0.0181385
0.0181353
0.0181322
0.018129
0.0181258
0.0181226
0.0181193
0.018116
0.0181127
0.0181093
0.018106
0.0181026
0.0180992
0.0180958
0.0180923
0.018089
0.0180855
0.0180821
0.0180787
0.0180754
0.0180719
0.0180684
0.0180652
0.0180617
0.0180583
0.018055
0.0180519
0.0180486
0.0180453
0.0180421
0.0180388
0.0180357
0.0180325
0.0180293
0.0180262
0.0180231
0.0180201
0.018017
0.0180141
0.018011
0.018008
0.0180052
0.0180022
0.0179993
0.0179964
0.0179938
0.017991
0.0179882
0.0179855
0.0179827
0.01798
0.0179774
0.0179747
0.017972
0.0179694
0.0179668
0.0179643
0.0179617
0.0179592
0.0179566
0.0179542
0.0179515
0.0179492
0.0179465
0.0179442
0.0179415
0.0179392
0.0179363
0.0179339
0.0179311
0.017927
0.0179213
0.0179135
0.0179018
0.0178933
0.01789
0.017888
0.0178849
0.017882
0.0178788
0.0178768
0.0178784
0.0178849
0.0178859
0.0178835
0.0197
0.0197
0.0197
0.0197
0.0197
0.0197
0.0197
0.0197
0.0197
0.0197
0.0197
0.0197
0.0197
0.0197
0.0197
0.0197
0.0197
0.0197
0.0197
0.0197
0.0197
0.0197
0.0197
0.0197
0.0197
0.0197
0.0197
0.0197
0.0197
0.0197
0.0197
0.0197
0.0197
0.0197
0.0197
0.0197
0.0197
0.0197
0.0197
0.0197
0.0197
0.0197
0.0197
0.0197
0.0197
0.0197
0.0197
0.0197
0.0197
0.0197
0.0197
0.0197
0.0197
0.0197
0.0197
0.0196999
0.0196999
0.0196999
0.0196999
0.0196999
0.0196999
0.0196999
0.0196998
0.0196998
0.0196998
0.0196998
0.0196997
0.0196997
0.0196996
0.0196996
0.0196995
0.0196994
0.0196993
0.0196992
0.0196991
0.019699
0.0196988
0.0196986
0.0196984
0.0196981
0.0196978
0.0196975
0.0196971
0.0196966
0.0196961
0.0196955
0.0196948
0.0196941
0.0196933
0.0196924
0.0196914
0.0196903
0.0196892
0.0196879
0.0196866
0.0196851
0.0196835
0.0196818
0.0196801
0.0196782
0.0196762
0.0196741
0.0196719
0.0196697
0.0196673
0.0196649
0.0196623
0.0196595
0.0196565
0.0196539
0.0196521
0.0196491
0.0196455
0.0196438
0.0196419
0.0196421
0.0196427
0.0196392
0.0196343
0.0196323
0.0196364
0.0196392
0.0196322
0.0196291
0.0196323
0.0196317
0.019632
0.0196302
0.0196221
0.0196198
0.0196225
0.0196219
0.0196184
0.0196121
0.01961
0.0196161
0.0196101
0.0195961
0.0196
0.0196072
0.0195966
0.019585
0.0195853
0.0195859
0.0195823
0.0195786
0.019575
0.019573
0.0195692
0.019562
0.0195608
0.019562
0.0195526
0.0195461
0.0195482
0.0195443
0.0195379
0.0195371
0.0195367
0.0195328
0.0195248
0.0195175
0.0195163
0.0195168
0.019515
0.0195093
0.0194993
0.0194945
0.0194949
0.0194927
0.0194891
0.0194826
0.0194724
0.0194677
0.0194662
0.0194627
0.0194609
0.0194535
0.0194416
0.0194402
0.0194404
0.0194333
0.0194293
0.0194266
0.0194171
0.0194081
0.0194033
0.0193994
0.0193955
0.0193912
0.0193866
0.0193819
0.019377
0.0193719
0.0193668
0.0193621
0.0193574
0.0193528
0.0193487
0.0193443
0.019339
0.0193336
0.0193284
0.0193234
0.0193185
0.0193138
0.0193094
0.0193052
0.0193011
0.0192971
0.0192931
0.0192891
0.0192849
0.0192807
0.0192763
0.0192719
0.0192671
0.019262
0.0192566
0.0192511
0.0192454
0.0192396
0.0192339
0.0192279
0.0192218
0.0192156
0.0192095
0.0192032
0.0191969
0.0191906
0.0191842
0.0191773
0.0191704
0.0191637
0.0191573
0.019151
0.0191446
0.0191382
0.0191317
0.0191254
0.0191192
0.019113
0.0191067
0.0191005
0.0190943
0.0190881
0.0190818
0.0190754
0.019069
0.0190624
0.0190558
0.019049
0.0190422
0.0190352
0.0190281
0.0190209
0.0190138
0.0190065
0.0189994
0.0189922
0.0189852
0.0189783
0.0189715
0.018965
0.0189587
0.0189526
0.0189468
0.0189412
0.018936
0.018931
0.0189261
0.0189215
0.0189171
0.018913
0.0189092
0.0189055
0.0189019
0.0188985
0.0188952
0.0188919
0.0188887
0.0188855
0.0188823
0.0188791
0.0188759
0.0188726
0.0188693
0.018866
0.0188625
0.018859
0.0188554
0.0188518
0.018848
0.0188442
0.0188403
0.0188364
0.0188323
0.0188282
0.018824
0.0188198
0.0188155
0.0188111
0.0188067
0.0188022
0.0187977
0.0187931
0.0187884
0.0187838
0.018779
0.0187743
0.0187694
0.0187646
0.0187597
0.0187548
0.0187499
0.0187449
0.0187399
0.0187349
0.0187299
0.0187249
0.0187198
0.0187148
0.0187097
0.0187046
0.0186996
0.0186945
0.0186895
0.0186844
0.0186793
0.0186742
0.018669
0.0186638
0.0186587
0.0186536
0.0186485
0.0186433
0.0186383
0.0186331
0.0186281
0.0186232
0.0186178
0.0186123
0.0186067
0.0186017
0.0185966
0.0185915
0.0185864
0.0185813
0.0185762
0.0185711
0.018566
0.018561
0.0185559
0.0185509
0.0185459
0.0185409
0.0185359
0.0185309
0.018526
0.018521
0.0185161
0.0185112
0.0185062
0.0185013
0.0184964
0.0184915
0.0184866
0.0184816
0.0184767
0.0184718
0.0184668
0.0184619
0.0184569
0.0184519
0.018447
0.0184419
0.0184371
0.0184319
0.0184272
0.018422
0.0184173
0.0184123
0.0184076
0.0184026
0.0183979
0.018393
0.0183883
0.0183835
0.0183787
0.018374
0.0183692
0.0183645
0.0183599
0.0183553
0.0183507
0.0183461
0.0183416
0.0183371
0.0183327
0.0183283
0.018324
0.0183197
0.0183155
0.0183112
0.0183072
0.0183033
0.0182989
0.0182946
0.0182903
0.0182864
0.0182824
0.0182783
0.0182744
0.0182704
0.0182665
0.0182626
0.0182587
0.0182549
0.0182512
0.0182474
0.0182438
0.0182401
0.0182366
0.0182331
0.0182296
0.0182262
0.0182229
0.0182196
0.0182163
0.0182131
0.0182099
0.0182068
0.0182037
0.0182005
0.0181974
0.0181942
0.018191
0.0181878
0.0181846
0.0181814
0.0181781
0.0181748
0.0181715
0.0181682
0.0181649
0.0181616
0.0181583
0.0181551
0.0181519
0.0181487
0.0181455
0.0181424
0.0181393
0.0181363
0.0181333
0.0181304
0.0181275
0.0181246
0.0181218
0.0181189
0.0181162
0.0181134
0.0181106
0.0181078
0.018105
0.0181022
0.0180994
0.0180965
0.0180936
0.0180907
0.0180877
0.0180848
0.0180817
0.0180787
0.0180756
0.0180725
0.0180694
0.0180663
0.0180632
0.01806
0.0180569
0.0180536
0.0180506
0.0180473
0.0180443
0.018041
0.0180378
0.0180347
0.0180314
0.0180283
0.0180251
0.0180223
0.0180192
0.0180161
0.0180131
0.01801
0.0180071
0.0180041
0.0180012
0.0179982
0.0179953
0.0179925
0.0179896
0.0179869
0.017984
0.0179812
0.0179786
0.0179757
0.0179731
0.0179704
0.017968
0.0179654
0.0179628
0.0179603
0.0179577
0.0179552
0.0179527
0.0179503
0.0179478
0.0179454
0.0179429
0.0179406
0.0179381
0.0179359
0.0179334
0.0179311
0.0179286
0.0179264
0.0179238
0.0179216
0.0179189
0.0179167
0.0179138
0.0179114
0.0179087
0.0179065
0.0179044
0.0179025
0.0178999
0.0178969
0.0178944
0.0178921
0.0178896
0.017887
0.017884
0.0178812
0.0178802
0.0178828
0.0178852
0.0178825
0.0197
0.0197
0.0197
0.0197
0.0197
0.0197
0.0197
0.0197
0.0197
0.0197
0.0197
0.0197
0.0197
0.0197
0.0197
0.0197
0.0197
0.0197
0.0197
0.0197
0.0197
0.0197
0.0197
0.0197
0.0197
0.0197
0.0197
0.0197
0.0197
0.0197
0.0197
0.0197
0.0197
0.0197
0.0197
0.0197
0.0197
0.0197
0.0197
0.0197
0.0197
0.0197
0.0197
0.0197
0.0196999
0.0196999
0.0196999
0.0196999
0.0196999
0.0196999
0.0196999
0.0196999
0.0196999
0.0196998
0.0196998
0.0196998
0.0196998
0.0196997
0.0196997
0.0196997
0.0196996
0.0196996
0.0196995
0.0196994
0.0196993
0.0196993
0.0196991
0.019699
0.0196989
0.0196987
0.0196985
0.0196983
0.019698
0.0196978
0.0196974
0.019697
0.0196966
0.0196961
0.0196955
0.0196948
0.019694
0.0196932
0.0196922
0.0196911
0.0196899
0.0196886
0.0196871
0.0196856
0.0196839
0.019682
0.0196801
0.019678
0.0196758
0.0196735
0.019671
0.0196684
0.0196657
0.0196628
0.0196598
0.0196567
0.0196535
0.0196501
0.0196467
0.0196433
0.0196397
0.019636
0.0196321
0.0196279
0.0196235
0.0196196
0.0196161
0.0196116
0.0196064
0.0196026
0.0195994
0.0195977
0.0195959
0.0195902
0.0195833
0.0195795
0.019581
0.0195812
0.0195734
0.0195683
0.019569
0.0195675
0.0195661
0.0195624
0.0195539
0.0195502
0.0195511
0.0195497
0.0195452
0.0195387
0.0195365
0.0195404
0.0195342
0.0195218
0.0195241
0.0195296
0.01952
0.0195086
0.0195074
0.0195076
0.0195042
0.0195003
0.0194966
0.0194942
0.0194901
0.0194837
0.0194822
0.0194823
0.0194739
0.0194676
0.0194683
0.0194649
0.019459
0.0194578
0.0194572
0.0194532
0.0194452
0.019438
0.0194366
0.0194373
0.0194357
0.0194299
0.0194205
0.0194156
0.0194157
0.0194141
0.0194104
0.0194037
0.0193942
0.0193893
0.0193877
0.019385
0.0193827
0.0193755
0.0193648
0.0193623
0.019362
0.0193561
0.0193517
0.019348
0.0193392
0.0193303
0.0193248
0.0193205
0.0193165
0.0193124
0.0193081
0.0193038
0.0192994
0.0192949
0.0192906
0.0192866
0.0192827
0.019279
0.0192757
0.0192721
0.0192677
0.0192628
0.0192579
0.019253
0.019248
0.0192429
0.0192381
0.0192335
0.0192292
0.0192251
0.0192211
0.0192172
0.0192132
0.0192092
0.0192051
0.019201
0.0191966
0.0191918
0.0191868
0.0191817
0.0191765
0.0191713
0.0191661
0.0191608
0.0191553
0.0191499
0.0191444
0.0191389
0.0191334
0.0191278
0.0191221
0.0191161
0.0191099
0.0191039
0.0190982
0.0190926
0.0190869
0.0190811
0.0190753
0.0190696
0.0190639
0.0190582
0.0190525
0.0190468
0.019041
0.0190353
0.0190295
0.0190236
0.0190176
0.0190116
0.0190054
0.0189991
0.0189928
0.0189863
0.0189796
0.0189729
0.0189662
0.0189593
0.0189525
0.0189457
0.0189389
0.0189322
0.0189256
0.0189191
0.0189128
0.0189068
0.0189009
0.0188952
0.0188898
0.0188846
0.0188796
0.0188748
0.0188702
0.0188659
0.0188618
0.0188579
0.0188542
0.0188505
0.018847
0.0188436
0.0188402
0.0188368
0.0188335
0.0188302
0.0188268
0.0188234
0.01882
0.0188165
0.018813
0.0188094
0.0188057
0.018802
0.0187981
0.0187942
0.0187902
0.0187862
0.0187821
0.0187779
0.0187736
0.0187693
0.0187649
0.0187605
0.018756
0.0187515
0.0187469
0.0187423
0.0187376
0.0187329
0.0187282
0.0187234
0.0187185
0.0187137
0.0187088
0.0187038
0.0186989
0.0186939
0.0186889
0.018684
0.018679
0.0186739
0.0186689
0.0186639
0.0186588
0.0186538
0.0186488
0.0186438
0.0186388
0.0186338
0.0186289
0.0186239
0.0186188
0.0186137
0.0186087
0.0186038
0.0185988
0.0185938
0.0185889
0.0185839
0.018579
0.0185742
0.0185689
0.0185637
0.0185582
0.0185533
0.0185484
0.0185434
0.0185384
0.0185334
0.0185284
0.0185234
0.0185184
0.0185134
0.0185085
0.0185035
0.0184986
0.0184937
0.0184887
0.0184838
0.0184789
0.0184741
0.0184692
0.0184643
0.0184594
0.0184546
0.0184497
0.0184449
0.01844
0.0184351
0.0184303
0.0184254
0.0184205
0.0184156
0.0184108
0.0184058
0.018401
0.018396
0.0183912
0.0183862
0.0183815
0.0183765
0.0183719
0.018367
0.0183625
0.0183577
0.0183531
0.0183484
0.0183437
0.0183391
0.0183345
0.0183299
0.0183253
0.0183207
0.0183162
0.0183118
0.0183073
0.0183029
0.0182986
0.0182943
0.0182901
0.0182859
0.0182818
0.0182777
0.0182738
0.0182697
0.0182659
0.0182622
0.0182581
0.0182542
0.0182501
0.0182465
0.0182428
0.0182389
0.0182352
0.0182313
0.0182276
0.0182238
0.01822
0.0182162
0.0182125
0.0182088
0.0182051
0.0182014
0.0181979
0.0181943
0.0181908
0.0181874
0.0181841
0.0181808
0.0181775
0.0181744
0.0181712
0.0181681
0.018165
0.018162
0.0181589
0.0181558
0.0181527
0.0181495
0.0181464
0.0181432
0.01814
0.0181367
0.0181335
0.0181302
0.018127
0.0181237
0.0181205
0.0181173
0.0181141
0.0181109
0.0181079
0.0181048
0.0181018
0.0180989
0.018096
0.0180932
0.0180904
0.0180877
0.018085
0.0180823
0.0180797
0.0180771
0.0180746
0.018072
0.0180695
0.0180669
0.0180643
0.0180617
0.0180591
0.0180565
0.0180538
0.0180511
0.0180484
0.0180456
0.0180429
0.0180401
0.0180372
0.0180344
0.0180315
0.0180286
0.0180258
0.0180228
0.01802
0.018017
0.0180142
0.0180111
0.0180082
0.0180054
0.0180022
0.0179994
0.0179964
0.0179938
0.017991
0.017988
0.0179853
0.0179824
0.0179796
0.0179768
0.0179741
0.0179714
0.0179687
0.017966
0.0179633
0.0179608
0.0179581
0.0179555
0.0179531
0.0179504
0.017948
0.0179454
0.0179432
0.0179409
0.0179384
0.0179361
0.0179337
0.0179313
0.017929
0.0179267
0.0179244
0.0179222
0.0179199
0.0179177
0.0179154
0.0179133
0.0179109
0.0179088
0.0179063
0.0179042
0.0179016
0.0178995
0.0178967
0.0178944
0.0178914
0.0178889
0.0178862
0.0178843
0.017883
0.017883
0.0178847
0.0178857
0.0178854
0.0178841
0.0178833
0.0178829
0.0178824
0.0178814
0.0178806
0.0178817
0.0178838
0.0178816
0.0197
0.0197
0.0197
0.0197
0.0197
0.0197
0.0197
0.0197
0.0197
0.0197
0.0197
0.0197
0.0197
0.0197
0.0197
0.0197
0.0197
0.0197
0.0197
0.0197
0.0197
0.0197
0.0197
0.0197
0.0197
0.0197
0.0197
0.0197
0.0197
0.0197
0.0197
0.0197
0.0197
0.0196999
0.0196999
0.0196999
0.0196999
0.0196999
0.0196999
0.0196999
0.0196998
0.0196998
0.0196998
0.0196998
0.0196998
0.0196997
0.0196997
0.0196997
0.0196996
0.0196996
0.0196995
0.0196995
0.0196994
0.0196993
0.0196993
0.0196992
0.0196991
0.019699
0.0196988
0.0196987
0.0196985
0.0196984
0.0196982
0.0196979
0.0196977
0.0196974
0.019697
0.0196966
0.0196961
0.0196956
0.019695
0.0196944
0.0196936
0.0196927
0.0196918
0.0196907
0.0196895
0.0196881
0.0196866
0.0196849
0.019683
0.019681
0.0196788
0.0196764
0.0196739
0.0196712
0.0196683
0.0196653
0.0196622
0.0196589
0.0196555
0.0196519
0.0196482
0.0196444
0.0196404
0.0196363
0.019632
0.0196277
0.0196233
0.0196187
0.0196141
0.0196095
0.0196048
0.0196
0.0195953
0.0195904
0.0195851
0.0195794
0.0195734
0.019568
0.0195629
0.0195571
0.0195508
0.019546
0.0195421
0.0195397
0.0195366
0.0195303
0.0195228
0.0195183
0.0195183
0.0195167
0.0195089
0.0195032
0.0195022
0.0195001
0.0194976
0.0194927
0.0194842
0.0194796
0.0194791
0.0194769
0.0194717
0.0194654
0.0194629
0.0194647
0.0194585
0.0194478
0.0194486
0.0194521
0.0194435
0.0194328
0.0194304
0.0194299
0.0194265
0.0194225
0.0194189
0.0194161
0.0194119
0.0194062
0.0194042
0.0194032
0.0193958
0.0193898
0.0193893
0.0193863
0.0193812
0.0193795
0.0193785
0.0193745
0.0193667
0.0193598
0.0193582
0.0193588
0.0193571
0.0193513
0.0193427
0.0193379
0.0193375
0.0193362
0.0193325
0.0193258
0.019317
0.019312
0.0193103
0.019308
0.0193053
0.0192983
0.019289
0.0192858
0.0192847
0.0192798
0.0192753
0.019271
0.0192627
0.0192542
0.0192484
0.0192439
0.0192399
0.0192359
0.0192319
0.0192279
0.0192239
0.0192199
0.019216
0.0192125
0.0192092
0.019206
0.0192032
0.0192003
0.0191965
0.0191922
0.0191878
0.0191831
0.0191784
0.0191735
0.0191688
0.0191642
0.01916
0.019156
0.0191522
0.0191486
0.0191449
0.0191413
0.0191376
0.0191338
0.0191298
0.0191254
0.0191209
0.0191162
0.0191115
0.0191067
0.019102
0.0190973
0.0190924
0.0190876
0.0190827
0.0190778
0.0190729
0.019068
0.0190629
0.0190576
0.0190522
0.0190468
0.0190417
0.0190367
0.0190315
0.0190264
0.0190211
0.019016
0.0190108
0.0190056
0.0190004
0.0189951
0.0189898
0.0189845
0.0189791
0.0189736
0.018968
0.0189623
0.0189566
0.0189507
0.0189446
0.0189385
0.0189322
0.0189258
0.0189193
0.0189128
0.0189062
0.0188996
0.018893
0.0188865
0.01888
0.0188736
0.0188674
0.0188613
0.0188554
0.0188497
0.0188442
0.0188389
0.0188337
0.0188288
0.0188241
0.0188196
0.0188154
0.0188113
0.0188074
0.0188036
0.0187999
0.0187963
0.0187928
0.0187893
0.0187858
0.0187823
0.0187789
0.0187754
0.0187718
0.0187683
0.0187646
0.0187609
0.0187571
0.0187533
0.0187493
0.0187453
0.0187413
0.0187371
0.0187329
0.0187286
0.0187243
0.0187199
0.0187154
0.018711
0.0187064
0.0187018
0.0186972
0.0186925
0.0186878
0.018683
0.0186782
0.0186734
0.0186686
0.0186637
0.0186588
0.0186539
0.0186489
0.018644
0.018639
0.0186341
0.0186291
0.0186241
0.0186191
0.0186141
0.0186092
0.0186042
0.0185993
0.0185944
0.0185895
0.0185846
0.0185797
0.0185748
0.0185699
0.018565
0.0185601
0.0185553
0.0185505
0.0185457
0.0185409
0.0185361
0.0185314
0.0185267
0.0185215
0.0185165
0.0185112
0.0185065
0.0185017
0.0184968
0.018492
0.0184871
0.0184822
0.0184774
0.0184725
0.0184676
0.0184628
0.0184579
0.0184531
0.0184482
0.0184434
0.0184385
0.0184337
0.0184289
0.018424
0.0184192
0.0184144
0.0184096
0.0184048
0.0184
0.0183951
0.0183903
0.0183855
0.0183807
0.0183758
0.018371
0.0183662
0.0183613
0.0183566
0.0183516
0.018347
0.018342
0.0183375
0.0183326
0.0183282
0.0183235
0.0183191
0.0183145
0.01831
0.0183055
0.0183011
0.0182966
0.0182922
0.0182877
0.0182834
0.018279
0.0182747
0.0182704
0.0182662
0.018262
0.0182579
0.0182538
0.0182498
0.0182459
0.018242
0.0182382
0.0182345
0.0182306
0.0182271
0.0182236
0.0182198
0.0182162
0.0182124
0.018209
0.0182054
0.0182018
0.0181982
0.0181945
0.0181908
0.018187
0.0181833
0.0181795
0.0181758
0.018172
0.0181683
0.0181646
0.0181609
0.0181573
0.0181538
0.0181503
0.0181469
0.0181436
0.0181404
0.0181372
0.0181341
0.018131
0.0181279
0.0181249
0.0181219
0.0181188
0.0181158
0.0181127
0.0181096
0.0181065
0.0181034
0.0181002
0.018097
0.0180938
0.0180906
0.0180875
0.0180843
0.0180812
0.0180781
0.018075
0.018072
0.0180691
0.0180662
0.0180633
0.0180606
0.0180579
0.0180552
0.0180527
0.0180502
0.0180477
0.0180453
0.0180429
0.0180405
0.0180382
0.0180358
0.0180335
0.0180312
0.0180289
0.0180265
0.0180241
0.0180218
0.0180193
0.0180169
0.0180144
0.0180119
0.0180094
0.0180069
0.0180043
0.0180017
0.0179991
0.0179965
0.0179938
0.0179912
0.0179885
0.0179859
0.0179831
0.0179804
0.0179778
0.0179749
0.0179723
0.0179695
0.0179671
0.0179645
0.0179618
0.0179592
0.0179566
0.017954
0.0179514
0.0179488
0.0179463
0.0179438
0.0179413
0.0179388
0.0179365
0.0179339
0.0179316
0.0179292
0.0179267
0.0179245
0.0179221
0.0179201
0.0179179
0.0179156
0.0179134
0.0179112
0.017909
0.0179069
0.0179047
0.0179026
0.0179005
0.0178984
0.0178963
0.0178941
0.017892
0.0178897
0.0178876
0.0178851
0.0178829
0.0178803
0.017878
0.017875
0.0178725
0.0178694
0.0178666
0.0178638
0.0178619
0.0178608
0.0178615
0.0178649
0.0178679
0.0178696
0.0178695
0.0178705
0.0178723
0.0178748
0.0178769
0.0178784
0.0178799
0.017882
0.0178807
0.0197
0.0197
0.0197
0.0197
0.0197
0.0197
0.0197
0.0197
0.0197
0.0197
0.0197
0.0197
0.0197
0.0197
0.0197
0.0197
0.0197
0.0197
0.0197
0.0197
0.0197
0.0197
0.0197
0.0197
0.0197
0.0197
0.0197
0.0197
0.0196999
0.0196999
0.0196999
0.0196999
0.0196999
0.0196998
0.0196998
0.0196998
0.0196997
0.0196997
0.0196997
0.0196996
0.0196995
0.0196995
0.0196994
0.0196993
0.0196993
0.0196992
0.0196991
0.0196989
0.0196988
0.0196987
0.0196985
0.0196983
0.0196981
0.0196979
0.0196977
0.0196974
0.0196971
0.0196967
0.0196963
0.0196959
0.0196954
0.0196948
0.0196942
0.0196935
0.0196927
0.0196917
0.0196907
0.0196895
0.0196882
0.0196867
0.019685
0.0196832
0.0196812
0.0196791
0.0196767
0.0196741
0.0196713
0.0196683
0.0196651
0.0196617
0.019658
0.0196541
0.0196501
0.0196458
0.0196414
0.0196369
0.0196323
0.0196276
0.0196227
0.0196178
0.0196128
0.0196076
0.0196024
0.0195971
0.0195917
0.0195862
0.0195807
0.0195751
0.0195694
0.0195638
0.0195581
0.0195524
0.0195468
0.0195412
0.0195355
0.0195298
0.0195235
0.0195164
0.0195091
0.019502
0.0194952
0.0194883
0.0194815
0.0194762
0.0194723
0.0194695
0.0194663
0.0194604
0.0194535
0.0194489
0.0194479
0.0194455
0.0194382
0.0194325
0.0194304
0.0194282
0.0194253
0.01942
0.0194119
0.0194069
0.0194052
0.0194024
0.0193971
0.0193911
0.0193886
0.019389
0.0193831
0.019374
0.0193737
0.0193754
0.0193678
0.019358
0.0193547
0.0193536
0.0193505
0.0193466
0.0193429
0.0193399
0.0193358
0.0193308
0.0193285
0.0193266
0.0193198
0.0193142
0.0193127
0.0193098
0.0193055
0.0193037
0.0193023
0.0192982
0.0192909
0.0192845
0.0192826
0.0192828
0.019281
0.0192755
0.0192676
0.0192629
0.019262
0.0192607
0.019257
0.0192505
0.0192425
0.0192376
0.0192356
0.0192336
0.0192307
0.0192241
0.0192159
0.0192123
0.0192106
0.0192064
0.019202
0.0191972
0.0191895
0.0191815
0.0191755
0.019171
0.019167
0.0191631
0.0191594
0.0191557
0.0191521
0.0191485
0.019145
0.0191419
0.019139
0.0191363
0.019134
0.0191315
0.0191283
0.0191247
0.0191207
0.0191165
0.0191121
0.0191076
0.0191031
0.0190988
0.0190948
0.0190912
0.0190877
0.0190844
0.0190811
0.0190779
0.0190747
0.0190713
0.0190677
0.0190637
0.0190597
0.0190555
0.0190512
0.019047
0.0190427
0.0190384
0.0190341
0.0190298
0.0190255
0.0190212
0.0190168
0.0190124
0.0190079
0.0190032
0.0189984
0.0189936
0.018989
0.0189845
0.0189799
0.0189753
0.0189705
0.0189658
0.0189611
0.0189563
0.0189515
0.0189466
0.0189416
0.0189366
0.0189315
0.0189263
0.0189211
0.0189157
0.0189101
0.0189045
0.0188987
0.0188927
0.0188867
0.0188805
0.0188742
0.0188678
0.0188614
0.0188549
0.0188484
0.018842
0.0188356
0.0188292
0.018823
0.0188169
0.018811
0.0188052
0.0187996
0.0187942
0.018789
0.0187839
0.018779
0.0187744
0.0187701
0.0187659
0.0187618
0.0187579
0.018754
0.0187503
0.0187466
0.018743