/*--------------------------------*- C++ -*----------------------------------*\
| =========                 |                                                 |
| \\      /  F ield         | foam-extend: Open Source CFD                    |
|  \\    /   O peration     | Version:     3.2                                |
|   \\  /    A nd           | Web:         http://www.foam-extend.org         |
|    \\/     M anipulation  | For copyright notice see file Copyright         |
\*---------------------------------------------------------------------------*/
FoamFile
{
    version     2.0;
    format      ascii;
    class       areaScalarField;
    location    "1790";
    object      deltaHs;
}
// * * * * * * * * * * * * * * * * * * * * * * * * * * * * * * * * * * * * * //

dimensions      [0 1 -1 0 0 0 0];

internalField   nonuniform List<scalar> 
550
(
4.99359e-08
4.56822e-08
3.94581e-08
3.09494e-08
2.00506e-08
6.93555e-09
-7.95678e-09
-2.3927e-08
-4.01853e-08
-5.58801e-08
-7.03118e-08
-8.29126e-08
-9.3368e-08
-1.01526e-07
-1.07425e-07
-1.11202e-07
-1.13102e-07
-1.134e-07
-1.12401e-07
-1.10459e-07
-1.07788e-07
-1.04573e-07
-1.00971e-07
-9.71189e-08
-9.31393e-08
-8.91299e-08
-8.51696e-08
-8.13296e-08
-7.76552e-08
-7.41444e-08
-7.07968e-08
-6.76195e-08
-6.46163e-08
-6.17882e-08
-5.91336e-08
-5.66505e-08
-5.43338e-08
-5.21782e-08
-5.01766e-08
-4.83205e-08
-4.66005e-08
-4.50072e-08
-4.353e-08
-4.21594e-08
-4.08856e-08
-3.97002e-08
-3.85962e-08
-3.75676e-08
-3.66093e-08
-3.57171e-08
-3.48864e-08
-3.41134e-08
-3.33927e-08
-3.27191e-08
-3.20867e-08
-3.14904e-08
-3.09245e-08
-3.03857e-08
-2.98725e-08
-2.93829e-08
-2.89167e-08
-2.84738e-08
-2.80537e-08
-2.7655e-08
-2.72765e-08
-2.69151e-08
-2.6568e-08
-2.62326e-08
-2.59063e-08
-2.55886e-08
-2.52779e-08
-2.49756e-08
-2.46825e-08
-2.44013e-08
-2.41329e-08
-2.38798e-08
-2.36411e-08
-2.34164e-08
-2.32029e-08
-2.29978e-08
-2.27973e-08
-2.25965e-08
-2.23904e-08
-2.21759e-08
-2.19507e-08
-2.17146e-08
-2.14699e-08
-2.12201e-08
-2.09693e-08
-2.07235e-08
-2.04875e-08
-2.02669e-08
-2.00622e-08
-1.98748e-08
-1.97021e-08
-1.95431e-08
-1.9393e-08
-1.92498e-08
-1.91074e-08
-1.89635e-08
-1.88132e-08
-1.86564e-08
-1.84914e-08
-1.83187e-08
-1.81389e-08
-1.7953e-08
-1.77632e-08
-1.75671e-08
-1.73564e-08
-1.74331e-08
-1.62799e-08
-1.62447e-08
-1.62116e-08
-1.6076e-08
-1.58724e-08
-1.58634e-08
-1.55813e-08
-1.54164e-08
-1.59248e-08
4.81533e-08
-1.50154e-08
-1.48271e-08
-1.45873e-08
-1.44734e-08
-1.43146e-08
-1.40537e-08
-1.38452e-08
-1.35754e-08
-1.38761e-08
4.95519e-08
-1.30089e-08
-1.28485e-08
-1.25741e-08
4.9197e-08
-1.22583e-08
-1.20427e-08
-1.17271e-08
-1.20431e-08
-1.14563e-08
-1.1188e-08
-1.09096e-08
-1.11645e-08
4.82602e-08
-1.03159e-08
-1.00688e-08
-9.87514e-09
-9.61872e-09
-9.43983e-09
-9.18065e-09
-9.04904e-09
-8.84006e-09
-8.58581e-09
5.04501e-08
-8.24657e-09
-7.9833e-09
-7.80935e-09
-7.58702e-09
-7.43377e-09
-7.16693e-09
-6.95963e-09
-6.78158e-09
-6.5958e-09
5.10655e-08
-6.27791e-09
-6.05158e-09
-5.87174e-09
-5.70531e-09
-5.55441e-09
-5.39844e-09
-5.25771e-09
-5.04685e-09
-4.87584e-09
5.15927e-08
-4.64212e-09
-4.43957e-09
-4.36862e-09
-4.14414e-09
-3.95637e-09
-3.96774e-09
-3.78666e-09
-3.57189e-09
-3.56575e-09
-3.37988e-09
-3.21482e-09
-3.24005e-09
-2.77741e-09
-2.9451e-09
-2.8187e-09
-2.70568e-09
-2.56456e-09
-2.53608e-09
-2.41413e-09
-2.32773e-09
-2.3231e-09
-2.13178e-09
-2.06511e-09
-2.09779e-09
-1.9657e-09
-1.86111e-09
-1.90339e-09
-1.86269e-09
-1.72314e-09
-1.61806e-09
-1.52552e-09
-1.45404e-09
-1.38147e-09
-1.33982e-09
-1.24157e-09
-1.21101e-09
-1.12127e-09
-1.04437e-09
-9.98776e-10
-9.03429e-10
-8.64267e-10
-8.07369e-10
-8.16311e-10
-8.60366e-11
-3.75518e-11
3.59582e-10
3.39478e-10
4.58685e-10
6.02873e-10
4.39345e-10
3.93275e-10
5.21206e-10
7.55948e-10
6.07359e-10
6.59827e-10
7.13319e-10
6.54658e-10
2.68958e-10
1.28789e-09
1.85696e-09
8.16119e-10
4.79721e-10
3.32298e-10
3.50885e-10
1.01776e-09
5.74703e-10
4.22988e-10
3.32616e-10
3.94605e-10
2.84879e-10
3.49435e-10
2.48014e-10
2.99589e-10
1.97946e-10
2.57101e-10
1.81563e-10
2.30331e-10
1.59038e-10
2.03196e-10
1.38858e-10
1.82929e-10
1.2072e-10
1.45369e-10
8.00666e-11
1.0346e-10
4.2459e-11
6.18547e-11
-1.738e-12
1.65057e-11
-3.48384e-11
-8.51372e-12
-5.13694e-11
-2.5731e-11
-6.31735e-11
-5.67375e-11
-7.04845e-11
-4.57351e-11
1.5672e-10
4.0816e-10
9.41006e-11
-4.27034e-11
-3.1182e-11
9.67021e-12
4.1297e-12
3.94493e-11
2.69668e-11
6.09904e-11
4.52894e-11
7.58312e-11
5.23213e-11
8.07484e-11
5.60409e-11
8.51495e-11
5.79703e-11
8.64098e-11
5.71614e-11
8.86672e-11
5.60992e-11
9.07208e-11
5.54001e-11
9.58887e-11
5.5594e-11
1.0961e-10
5.48022e-11
1.35467e-10
6.47819e-11
1.65049e-10
9.30931e-11
1.77705e-10
1.14091e-10
1.74917e-10
1.28189e-10
1.57228e-10
1.34497e-10
1.3252e-10
1.35498e-10
1.23049e-10
1.30055e-10
1.18295e-10
1.18942e-10
1.07091e-10
1.03859e-10
9.02164e-11
8.37815e-11
6.8466e-11
6.19131e-11
4.41029e-11
5.1524e-11
7.9558e-11
6.51614e-11
1.05776e-10
6.18733e-11
1.23802e-10
5.63368e-11
1.12127e-10
8.13624e-11
3.81402e-11
4.8631e-10
2.83854e-10
8.0318e-11
-3.99501e-11
2.75087e-10
-1.54676e-10
5.25116e-10
-1.74418e-10
6.05221e-10
-1.42318e-10
1.89178e-10
2.136e-09
-4.46728e-10
-2.9488e-10
-4.74179e-11
-7.63775e-12
3.99509e-11
5.97204e-11
7.65847e-11
8.7337e-11
9.02435e-11
9.41837e-11
9.45954e-11
9.75308e-11
9.87424e-11
1.01153e-10
1.03719e-10
1.08816e-10
1.12258e-10
1.18529e-10
1.25002e-10
1.32091e-10
1.39566e-10
1.49934e-10
1.57473e-10
1.70482e-10
1.74723e-10
1.79326e-10
1.92559e-10
1.62252e-10
2.23581e-10
1.11704e-10
3.16028e-10
-3.31545e-11
5.5139e-10
-1.90039e-10
9.29436e-10
-1.1568e-10
1.17346e-09
-3.43129e-12
1.01746e-09
1.72872e-10
5.77872e-10
3.47198e-10
5.40391e-10
6.59545e-10
8.36519e-10
9.91263e-10
1.14753e-09
1.30095e-09
1.4492e-09
1.59348e-09
1.73165e-09
1.86814e-09
1.99705e-09
2.12975e-09
2.24617e-09
2.38607e-09
2.48224e-09
2.6483e-09
2.69947e-09
2.92353e-09
2.89179e-09
3.21838e-09
4.01159e-09
3.39466e-09
3.84198e-09
2.3418e-09
3.56376e-09
4.14922e-09
4.09554e-09
4.18516e-09
4.29561e-09
4.41381e-09
4.54171e-09
4.653e-09
4.77092e-09
4.88198e-09
4.99329e-09
5.10021e-09
5.20834e-09
5.3129e-09
5.4187e-09
5.52477e-09
5.619e-09
6.45408e-09
6.49024e-09
6.52645e-09
6.56242e-09
6.59828e-09
6.6335e-09
6.66931e-09
6.70405e-09
6.73875e-09
6.77365e-09
6.80796e-09
6.84222e-09
6.87654e-09
6.91011e-09
6.94419e-09
6.97779e-09
7.01102e-09
7.04489e-09
7.0783e-09
7.11144e-09
7.1451e-09
7.17921e-09
7.21291e-09
7.2473e-09
7.2823e-09
7.31705e-09
7.35248e-09
7.38891e-09
7.4256e-09
7.46221e-09
7.49954e-09
7.53691e-09
7.57538e-09
7.61323e-09
7.65145e-09
7.6902e-09
7.72864e-09
7.76712e-09
7.80553e-09
7.84434e-09
7.88236e-09
7.92036e-09
7.95854e-09
7.99669e-09
8.03501e-09
8.07317e-09
8.11081e-09
8.15089e-09
8.18978e-09
8.23005e-09
8.27104e-09
8.31047e-09
8.35561e-09
8.39091e-09
8.44879e-09
8.46091e-09
8.5591e-09
8.51082e-09
8.69695e-09
9.00391e-09
8.85333e-09
1.02442e-08
8.69228e-09
8.71156e-09
1.30663e-08
9.14686e-09
9.33669e-09
9.61679e-09
9.15651e-09
9.17408e-09
9.20645e-09
9.19491e-09
9.27559e-09
9.31004e-09
9.36491e-09
9.42783e-09
9.44614e-09
9.56926e-09
9.63445e-09
7.20657e-09
9.11893e-09
9.60427e-09
9.54692e-09
1.34641e-08
1.00635e-08
1.03207e-08
8.60762e-09
8.34264e-09
8.49093e-09
8.6507e-09
8.81694e-09
8.9636e-09
9.11062e-09
9.26465e-09
9.39004e-09
9.57043e-09
9.6625e-09
9.90573e-09
1.00867e-08
1.02879e-08
1.09426e-08
1.07143e-08
1.19093e-08
1.11563e-08
1.30379e-08
1.14964e-08
1.37052e-08
1.1601e-08
1.35045e-08
1.18629e-08
1.22479e-08
1.33271e-08
1.3942e-08
1.29322e-08
9.16935e-09
2.26405e-08
2.5443e-08
3.01645e-08
3.44313e-08
3.95317e-08
4.49057e-08
4.84059e-08
4.87667e-08
4.62944e-08
4.05673e-08
)
;

boundaryField
{
    inlet
    {
        type            calculated;
        value           uniform 4.99359e-08;
    }
    endWall
    {
        type            calculated;
        value           uniform 4.0954e-08;
    }
    sideWall
    {
        type            empty;
    }
}


// ************************************************************************* //
