/*--------------------------------*- C++ -*----------------------------------*\
| =========                 |                                                 |
| \\      /  F ield         | foam-extend: Open Source CFD                    |
|  \\    /   O peration     | Version:     3.2                                |
|   \\  /    A nd           | Web:         http://www.foam-extend.org         |
|    \\/     M anipulation  | For copyright notice see file Copyright         |
\*---------------------------------------------------------------------------*/
FoamFile
{
    version     2.0;
    format      ascii;
    class       areaScalarField;
    location    "1790";
    object      deltaH;
}
// * * * * * * * * * * * * * * * * * * * * * * * * * * * * * * * * * * * * * //

dimensions      [0 1 -1 0 0 0 0];

internalField   nonuniform List<scalar> 
550
(
0
0
0
0
0
0
0
0
0
0
0
0
0
0
0
0
0
0
0
0
0
0
0
0
0
0
0
0
0
0
0
0
0
0
0
0
0
0
0
0
0
0
0
0
0
0
0
0
0
0
0
0
0
0
0
0
0
0
0
0
0
0
0
0
0
0
0
0
0
0
0
0
0
0
0
0
0
0
0
0
0
0
0
0
0
0
0
0
0
0
0
0
0
0
0
0
0
0
0
0
0
0
0
0
0
0
0
0
0
0
-1.31641e-06
-1.4513e-06
-1.4519e-06
-1.45242e-06
-1.41273e-06
-1.4413e-06
-1.42033e-06
-1.47946e-06
1.45288e-05
5.13348e-06
-1.7288e-05
-1.37037e-06
-1.23938e-06
-1.26777e-06
-1.30873e-06
-1.21039e-06
-1.23229e-06
-1.30121e-06
1.39002e-05
5.24714e-06
-1.6218e-05
-1.13238e-06
1.36638e-05
5.13909e-06
-1.57888e-05
-1.10999e-06
-1.08536e-06
0
-9.26032e-07
-1.02081e-06
-9.93417e-07
1.3092e-05
5.08552e-06
-1.48737e-05
-8.5557e-07
-8.32207e-07
-8.02696e-07
-8.01902e-07
-7.5108e-07
-7.05494e-07
-7.4764e-07
1.2483e-05
5.23768e-06
-1.38835e-05
-6.68179e-07
-6.2456e-07
-5.93735e-07
-6.08307e-07
-6.08371e-07
-5.55539e-07
-5.36581e-07
1.19639e-05
5.27297e-06
-1.29629e-05
-5.06373e-07
-4.58478e-07
-4.1731e-07
-4.13568e-07
-4.14857e-07
-4.34093e-07
-4.15562e-07
1.14886e-05
5.31801e-06
-1.21979e-05
-3.23997e-07
-3.40718e-07
-3.81109e-07
-2.2627e-07
-2.51483e-07
-3.4902e-07
-2.23381e-07
-2.35652e-07
-3.03833e-07
-1.67623e-07
-1.3423e-07
-2.66719e-07
-2.80921e-07
-1.83178e-07
-2.11302e-07
-1.49996e-07
-1.68376e-07
-1.86701e-07
-1.16728e-07
-2.02127e-07
-1.78901e-07
-5.69489e-08
-1.48983e-07
-1.80263e-07
-5.89687e-08
-8.1854e-08
-1.88896e-07
-1.74779e-07
-1.25063e-07
-9.58499e-08
-7.90297e-08
-6.3297e-08
-8.13439e-08
-6.63601e-08
-7.0557e-08
-8.78944e-08
-5.2418e-08
-6.50771e-08
-4.02532e-08
-1.43976e-08
1.84661e-08
6.73425e-08
7.9663e-08
3.81605e-08
5.64028e-08
2.10747e-08
3.98354e-08
2.32586e-08
4.22494e-08
2.64398e-08
1.17981e-08
5.42885e-08
4.53415e-08
4.76591e-08
3.52848e-08
3.35721e-08
2.51437e-08
2.82494e-08
1.65911e-08
2.43372e-08
1.08028e-08
1.85466e-08
6.18806e-09
1.28274e-08
2.50902e-09
1.01863e-08
-2.80041e-10
9.26059e-09
8.12881e-10
1.13427e-08
4.83372e-09
1.55212e-08
9.02039e-09
1.78576e-08
1.09027e-08
1.79717e-08
1.06861e-08
1.59591e-08
8.54019e-09
1.26014e-08
5.47288e-09
8.56708e-09
2.20824e-09
5.13859e-09
-2.73846e-10
2.77161e-09
-2.03571e-09
8.97689e-10
-3.36344e-09
1.58346e-10
-3.66582e-09
-4.82395e-11
-3.54731e-09
-1.41192e-10
-3.68407e-09
-3.68787e-10
-3.47461e-09
2.62823e-10
-2.75465e-09
2.64503e-10
-2.6624e-09
6.20453e-10
-1.67882e-09
1.75306e-09
-5.66344e-10
2.2073e-09
-4.23198e-10
2.31007e-09
1.37722e-10
3.33013e-09
1.49183e-09
4.79762e-09
2.89029e-09
6.25969e-09
4.15341e-09
7.72168e-09
5.47677e-09
9.45703e-09
7.0991e-09
1.15425e-08
8.93286e-09
1.34373e-08
1.03488e-08
1.47353e-08
1.13177e-08
1.54145e-08
1.1846e-08
1.55645e-08
1.16954e-08
1.50414e-08
1.10488e-08
1.40021e-08
1.00487e-08
1.25938e-08
8.61862e-09
1.08871e-08
6.92437e-09
8.52263e-09
4.95433e-09
5.97393e-09
2.87428e-09
3.57606e-09
9.38954e-10
1.60535e-09
-1.06108e-09
-1.58688e-09
-3.92722e-09
-3.81943e-09
-5.97079e-09
-5.05102e-09
-7.0907e-09
-6.95968e-09
-8.23069e-09
-8.38731e-09
-1.01545e-08
-1.0407e-08
-1.20978e-08
-1.12917e-08
-1.26238e-08
-1.28982e-08
-1.41324e-08
-1.45597e-08
-1.52159e-08
-1.51905e-08
-1.52774e-08
-1.54691e-08
-1.57551e-08
-1.55727e-08
-1.63095e-08
-1.54013e-08
-1.55521e-08
-1.46992e-08
-1.4588e-08
-1.3555e-08
-1.317e-08
-1.28941e-08
-1.26585e-08
-1.20329e-08
-1.15245e-08
-1.08044e-08
-1.02451e-08
-9.60534e-09
-9.07737e-09
-8.4004e-09
-7.65576e-09
-6.76919e-09
-5.87551e-09
-5.01347e-09
-4.1977e-09
-3.53611e-09
-2.84365e-09
-2.55849e-09
-2.15752e-09
-2.19734e-09
-2.14335e-09
-2.03952e-09
-1.90164e-09
-2.04236e-09
-1.69125e-09
-1.87339e-09
-1.68667e-09
-1.70292e-09
-1.82548e-09
-1.91168e-09
-1.9154e-09
-2.45102e-09
0
0
0
0
0
0
0
0
0
0
0
0
0
0
0
0
0
0
0
0
0
0
0
0
0
0
-8.0471e-09
0
0
0
0
0
0
0
0
0
0
0
0
0
0
0
0
0
0
0
0
0
0
0
0
0
0
0
0
0
0
0
0
0
0
0
0
0
0
0
0
0
0
0
0
0
0
0
0
0
0
0
0
0
0
0
0
0
0
0
0
0
0
0
0
0
0
0
0
0
0
0
0
0
0
0
0
0
0
0
0
0
0
0
0
0
0
0
0
0
0
0
0
0
0
0
0
0
0
0
0
0
0
0
0
0
0
0
0
0
0
0
0
0
0
0
0
0
0
0
0
0
0
0
0
0
0
0
0
-5.26309e-09
-1.05564e-08
-4.50742e-09
-7.09299e-09
0
0
0
0
0
0
0
0
0
0
0
)
;

boundaryField
{
    inlet
    {
        type            zeroGradient;
    }
    endWall
    {
        type            zeroGradient;
    }
    sideWall
    {
        type            empty;
    }
}


// ************************************************************************* //
