/*--------------------------------*- C++ -*----------------------------------*\
| =========                 |                                                 |
| \\      /  F ield         | foam-extend: Open Source CFD                    |
|  \\    /   O peration     | Version:     3.2                                |
|   \\  /    A nd           | Web:         http://www.foam-extend.org         |
|    \\/     M anipulation  | For copyright notice see file Copyright         |
\*---------------------------------------------------------------------------*/
FoamFile
{
    version     2.0;
    format      ascii;
    class       volScalarField;
    location    "1790";
    object      DiSSt;
}
// * * * * * * * * * * * * * * * * * * * * * * * * * * * * * * * * * * * * * //

dimensions      [0 2 -1 0 0 0 0];

internalField   nonuniform List<scalar> 
33000
(
7.25836e-06
8.61071e-06
1.00078e-05
1.14188e-05
1.28085e-05
1.41416e-05
1.53888e-05
1.65241e-05
1.7532e-05
1.84013e-05
1.91309e-05
1.97234e-05
2.01882e-05
2.05358e-05
2.07798e-05
2.09329e-05
2.1009e-05
2.10209e-05
2.08871e-05
2.0136e-05
1.94114e-05
1.87328e-05
1.80958e-05
1.75087e-05
1.69705e-05
1.64818e-05
1.60433e-05
1.56497e-05
1.52922e-05
1.49632e-05
1.46646e-05
1.43904e-05
1.41435e-05
1.3918e-05
1.37173e-05
1.35365e-05
1.33773e-05
1.32353e-05
1.31125e-05
1.30044e-05
1.29127e-05
1.28308e-05
1.27615e-05
1.26993e-05
1.26486e-05
1.26032e-05
1.25698e-05
1.25433e-05
1.25285e-05
1.25192e-05
1.25196e-05
1.25223e-05
1.25324e-05
1.25421e-05
1.25573e-05
1.25707e-05
1.25898e-05
1.26081e-05
1.26333e-05
1.26588e-05
1.26917e-05
1.2724e-05
1.27626e-05
1.2798e-05
1.28379e-05
1.28716e-05
1.29089e-05
1.29385e-05
1.29734e-05
1.30017e-05
1.30393e-05
1.30717e-05
1.31168e-05
1.31571e-05
1.32102e-05
1.32558e-05
1.33118e-05
1.33547e-05
1.34043e-05
1.34359e-05
1.34715e-05
1.34862e-05
1.35072e-05
1.35092e-05
1.35236e-05
1.35226e-05
1.35411e-05
1.35459e-05
1.35758e-05
1.35938e-05
1.3637e-05
1.36628e-05
1.37113e-05
1.37365e-05
1.37837e-05
1.38025e-05
1.38425e-05
1.38528e-05
1.38853e-05
1.3891e-05
1.39179e-05
1.39204e-05
1.39479e-05
1.39472e-05
1.39794e-05
1.39761e-05
1.4014e-05
1.40027e-05
1.4041e-05
1.40653e-05
1.40254e-05
1.39971e-05
1.39882e-05
1.3967e-05
1.39291e-05
1.38953e-05
1.39447e-05
1.40531e-05
1.41e-05
1.38948e-05
1.37971e-05
1.38625e-05
1.3933e-05
1.39031e-05
1.3862e-05
1.37641e-05
1.38549e-05
1.39874e-05
1.40479e-05
1.38393e-05
1.3769e-05
1.37822e-05
1.38601e-05
1.38233e-05
1.37628e-05
1.37863e-05
1.3962e-05
1.39625e-05
1.37939e-05
1.37115e-05
1.39308e-05
1.39766e-05
1.38565e-05
1.37258e-05
1.37908e-05
1.37902e-05
1.38091e-05
1.3793e-05
1.38242e-05
1.38092e-05
1.37878e-05
1.37679e-05
1.37771e-05
1.37787e-05
1.37758e-05
1.3768e-05
1.3783e-05
1.3778e-05
1.37405e-05
1.3732e-05
1.38878e-05
1.39282e-05
1.37749e-05
1.36725e-05
1.37375e-05
1.37596e-05
1.38066e-05
1.37748e-05
1.37622e-05
1.37373e-05
1.37672e-05
1.37717e-05
1.38255e-05
1.37933e-05
1.37508e-05
1.37814e-05
1.38197e-05
1.37585e-05
1.37711e-05
1.37992e-05
1.37658e-05
1.37786e-05
1.37984e-05
1.3772e-05
1.37735e-05
1.3868e-05
1.38553e-05
1.38084e-05
1.38244e-05
1.38017e-05
1.38041e-05
1.3824e-05
1.37882e-05
1.38474e-05
1.38436e-05
1.37755e-05
1.38324e-05
1.38563e-05
1.38189e-05
1.38083e-05
1.38888e-05
1.38802e-05
1.38786e-05
1.3883e-05
1.38673e-05
1.38874e-05
1.39042e-05
1.39048e-05
1.39121e-05
1.39292e-05
1.39187e-05
1.39386e-05
1.39242e-05
1.3885e-05
1.38909e-05
1.38142e-05
1.39194e-05
1.39114e-05
1.40116e-05
1.40287e-05
1.40724e-05
1.41274e-05
1.4158e-05
1.41562e-05
1.41521e-05
1.42395e-05
1.42571e-05
1.42495e-05
1.42892e-05
1.43557e-05
1.42747e-05
1.41564e-05
1.44464e-05
1.46222e-05
1.45404e-05
1.45579e-05
1.44091e-05
1.45065e-05
1.46409e-05
1.4637e-05
1.46171e-05
1.46244e-05
1.46323e-05
1.46358e-05
1.46467e-05
1.46456e-05
1.46476e-05
1.46482e-05
1.46515e-05
1.46556e-05
1.4659e-05
1.46627e-05
1.46665e-05
1.46712e-05
1.46776e-05
1.46864e-05
1.46915e-05
1.46979e-05
1.4703e-05
1.47083e-05
1.47128e-05
1.47143e-05
1.47152e-05
1.47153e-05
1.47154e-05
1.47162e-05
1.47114e-05
1.47029e-05
1.47002e-05
1.46846e-05
1.46601e-05
1.47555e-05
1.48161e-05
1.47746e-05
1.4763e-05
1.47598e-05
1.47647e-05
1.47675e-05
1.47693e-05
1.4774e-05
1.47796e-05
1.47847e-05
1.47918e-05
1.47962e-05
1.48015e-05
1.48067e-05
1.4811e-05
1.48157e-05
1.48188e-05
1.48227e-05
1.48252e-05
1.48287e-05
1.48304e-05
1.48345e-05
1.48334e-05
1.48389e-05
1.48361e-05
1.48432e-05
1.48399e-05
1.48485e-05
1.48472e-05
1.48545e-05
1.48547e-05
1.486e-05
1.48626e-05
1.48653e-05
1.48703e-05
1.4871e-05
1.48785e-05
1.4879e-05
1.48874e-05
1.48891e-05
1.48973e-05
1.49003e-05
1.49084e-05
1.49124e-05
1.49204e-05
1.49255e-05
1.49316e-05
1.49466e-05
1.49554e-05
1.49705e-05
1.49735e-05
1.49908e-05
1.49901e-05
1.50117e-05
1.50186e-05
1.50163e-05
1.50496e-05
1.50086e-05
1.50582e-05
1.51613e-05
1.51595e-05
1.51103e-05
1.51594e-05
1.51257e-05
1.51884e-05
1.51855e-05
1.51741e-05
1.52926e-05
1.47463e-05
1.5157e-05
1.53511e-05
1.52416e-05
1.53022e-05
1.52875e-05
1.53075e-05
1.53298e-05
1.53416e-05
1.53597e-05
1.53638e-05
1.53796e-05
1.53842e-05
1.53991e-05
1.54036e-05
1.54184e-05
1.54225e-05
1.5437e-05
1.54396e-05
1.54544e-05
1.54571e-05
1.54721e-05
1.5475e-05
1.54918e-05
1.54937e-05
1.5513e-05
1.55123e-05
1.55271e-05
1.55345e-05
1.55332e-05
1.55616e-05
1.55452e-05
1.55917e-05
1.55495e-05
1.56047e-05
1.55547e-05
1.56175e-05
1.55903e-05
1.56297e-05
1.56381e-05
1.56381e-05
1.56398e-05
1.55089e-05
1.56288e-05
1.55082e-05
1.5565e-05
1.55182e-05
1.55091e-05
1.54876e-05
1.54694e-05
1.5461e-05
1.54554e-05
1.54422e-05
1.54462e-05
1.54302e-05
1.54403e-05
1.54378e-05
1.54266e-05
1.54415e-05
1.54027e-05
1.5448e-05
1.53806e-05
1.5473e-05
1.53403e-05
1.54508e-05
1.55033e-05
1.47884e-05
1.53228e-05
1.54635e-05
1.51148e-05
1.52902e-05
1.53192e-05
1.52571e-05
1.5308e-05
1.52802e-05
1.52933e-05
1.52826e-05
1.52726e-05
1.52764e-05
1.52735e-05
1.52759e-05
1.5278e-05
1.52746e-05
1.52743e-05
1.52779e-05
1.52731e-05
1.52761e-05
1.52709e-05
1.52699e-05
1.52642e-05
1.52622e-05
1.52568e-05
1.52538e-05
1.52488e-05
1.52445e-05
1.52393e-05
1.52345e-05
1.52292e-05
1.52245e-05
1.52191e-05
1.52143e-05
1.52087e-05
1.52026e-05
1.51967e-05
1.51914e-05
1.51858e-05
1.51805e-05
1.5176e-05
1.51699e-05
1.51664e-05
1.51604e-05
1.51579e-05
1.51513e-05
1.51487e-05
1.5142e-05
1.51407e-05
1.51334e-05
1.51322e-05
1.51253e-05
1.51244e-05
1.51174e-05
1.51167e-05
1.51101e-05
1.51099e-05
1.51027e-05
1.51034e-05
1.50969e-05
1.5097e-05
1.50908e-05
1.50908e-05
1.50841e-05
1.50868e-05
1.50763e-05
1.50818e-05
1.50741e-05
1.5079e-05
1.50788e-05
1.50622e-05
1.5077e-05
1.50396e-05
1.50872e-05
1.50151e-05
1.50985e-05
1.49855e-05
1.50768e-05
1.49807e-05
1.48303e-05
1.50632e-05
1.45187e-05
1.49969e-05
1.50481e-05
1.44726e-05
1.4872e-05
1.48556e-05
1.47957e-05
1.48684e-05
1.47955e-05
1.48626e-05
1.48156e-05
1.48696e-05
1.48163e-05
1.48965e-05
1.47928e-05
1.49209e-05
1.4742e-05
1.47459e-05
1.49461e-05
1.43602e-05
1.48413e-05
1.49269e-05
1.44319e-05
1.46938e-05
1.47463e-05
1.46431e-05
1.47253e-05
1.46835e-05
1.47036e-05
1.46925e-05
1.46888e-05
1.47251e-05
1.46713e-05
1.47479e-05
1.46433e-05
1.47697e-05
1.46137e-05
1.47775e-05
1.45823e-05
1.47564e-05
1.45416e-05
1.46963e-05
1.45644e-05
1.46282e-05
1.46811e-05
1.47375e-05
1.48045e-05
1.48066e-05
1.47043e-05
1.45822e-05
1.18603e-05
9.51603e-06
7.76921e-06
8.16425e-06
6.86892e-06
5.92275e-06
5.70015e-06
7.20002e-06
5.3927e-06
5.1318e-06
6.67552e-06
2.67754e-05
5.32304e-05
3.22989e-05
2.34242e-05
1.88182e-05
1.61193e-05
1.45029e-05
1.34892e-05
1.28508e-05
1.24678e-05
1.22604e-05
1.21893e-05
1.22039e-05
1.22843e-05
1.24087e-05
1.25713e-05
1.27712e-05
1.30097e-05
1.32979e-05
1.36416e-05
1.40414e-05
1.45103e-05
1.50519e-05
1.56322e-05
1.62652e-05
1.69641e-05
1.77399e-05
1.85955e-05
1.93229e-05
1.97668e-05
2.02099e-05
2.06518e-05
2.1086e-05
2.15154e-05
2.19352e-05
2.23485e-05
2.27512e-05
2.31465e-05
2.35312e-05
2.3909e-05
2.42776e-05
2.46398e-05
2.49922e-05
2.53383e-05
2.56744e-05
2.60049e-05
2.63254e-05
2.66442e-05
2.69555e-05
2.72667e-05
2.75702e-05
2.78741e-05
2.8168e-05
2.84608e-05
2.87406e-05
2.90169e-05
2.92776e-05
2.9534e-05
2.97761e-05
3.00159e-05
3.02444e-05
3.04736e-05
3.06936e-05
3.09174e-05
3.11306e-05
3.13464e-05
3.15473e-05
3.17491e-05
3.19315e-05
3.21149e-05
3.2278e-05
3.24463e-05
3.2596e-05
3.27576e-05
3.29035e-05
3.30667e-05
3.32144e-05
3.33806e-05
3.35272e-05
3.36897e-05
3.38255e-05
3.39706e-05
3.40786e-05
3.41961e-05
3.42747e-05
3.43666e-05
3.44225e-05
3.45013e-05
3.45459e-05
3.4625e-05
3.46742e-05
3.47642e-05
3.48212e-05
3.49188e-05
3.49784e-05
3.5081e-05
3.51376e-05
3.52384e-05
3.52873e-05
3.53773e-05
3.54161e-05
3.54922e-05
3.55195e-05
3.55894e-05
3.56045e-05
3.56787e-05
3.56837e-05
3.57724e-05
3.57721e-05
3.58528e-05
3.59493e-05
3.58426e-05
3.57615e-05
3.57055e-05
3.56955e-05
3.55485e-05
3.52606e-05
3.52805e-05
3.56992e-05
3.623e-05
3.54031e-05
3.4941e-05
3.51413e-05
3.53299e-05
3.53109e-05
3.5172e-05
3.48104e-05
3.48826e-05
3.53663e-05
3.58994e-05
3.51516e-05
3.48724e-05
3.48619e-05
3.50507e-05
3.49614e-05
3.47454e-05
3.48351e-05
3.52311e-05
3.55801e-05
3.49607e-05
3.4444e-05
3.50967e-05
3.56182e-05
3.50568e-05
3.46904e-05
3.48063e-05
3.48862e-05
3.48902e-05
3.48723e-05
3.49334e-05
3.49701e-05
3.48924e-05
3.48673e-05
3.48372e-05
3.48656e-05
3.48842e-05
3.4883e-05
3.48844e-05
3.48894e-05
3.47478e-05
3.45775e-05
3.5074e-05
3.54945e-05
3.49719e-05
3.46601e-05
3.47214e-05
3.48997e-05
3.50128e-05
3.49506e-05
3.49329e-05
3.49264e-05
3.49348e-05
3.49771e-05
3.50408e-05
3.50561e-05
3.49668e-05
3.50432e-05
3.5177e-05
3.50022e-05
3.50588e-05
3.51853e-05
3.50638e-05
3.51117e-05
3.52116e-05
3.50981e-05
3.50494e-05
3.53547e-05
3.5327e-05
3.52357e-05
3.5318e-05
3.52496e-05
3.53153e-05
3.53512e-05
3.53107e-05
3.54315e-05
3.54142e-05
3.52685e-05
3.54555e-05
3.55169e-05
3.5424e-05
3.54797e-05
3.56506e-05
3.56294e-05
3.56221e-05
3.56339e-05
3.56377e-05
3.56968e-05
3.57701e-05
3.58006e-05
3.58418e-05
3.5899e-05
3.58805e-05
3.59525e-05
3.59177e-05
3.59152e-05
3.59019e-05
3.57943e-05
3.61074e-05
3.60966e-05
3.63135e-05
3.63565e-05
3.64152e-05
3.65265e-05
3.66067e-05
3.65405e-05
3.64714e-05
3.67044e-05
3.67499e-05
3.66989e-05
3.67667e-05
3.68177e-05
3.66524e-05
3.63172e-05
3.70177e-05
3.7011e-05
3.69621e-05
3.68761e-05
3.67183e-05
3.69851e-05
3.70117e-05
3.70055e-05
3.70203e-05
3.70394e-05
3.70638e-05
3.70858e-05
3.71098e-05
3.71297e-05
3.71507e-05
3.71682e-05
3.71882e-05
3.72053e-05
3.72255e-05
3.72437e-05
3.72662e-05
3.72876e-05
3.73111e-05
3.73321e-05
3.73546e-05
3.73747e-05
3.73962e-05
3.7415e-05
3.74341e-05
3.74489e-05
3.74661e-05
3.7481e-05
3.74984e-05
3.75127e-05
3.75247e-05
3.75361e-05
3.75442e-05
3.75618e-05
3.76303e-05
3.76688e-05
3.76713e-05
3.76557e-05
3.76558e-05
3.76697e-05
3.769e-05
3.7711e-05
3.77356e-05
3.77594e-05
3.77846e-05
3.78078e-05
3.78319e-05
3.78546e-05
3.78787e-05
3.79012e-05
3.79249e-05
3.79463e-05
3.797e-05
3.7991e-05
3.80144e-05
3.80338e-05
3.80569e-05
3.80747e-05
3.80985e-05
3.81168e-05
3.81434e-05
3.81626e-05
3.81921e-05
3.82123e-05
3.82428e-05
3.82624e-05
3.82944e-05
3.83156e-05
3.83485e-05
3.8371e-05
3.84045e-05
3.84301e-05
3.84639e-05
3.84921e-05
3.85263e-05
3.85567e-05
3.85913e-05
3.86243e-05
3.86585e-05
3.86917e-05
3.87263e-05
3.876e-05
3.87961e-05
3.88304e-05
3.8868e-05
3.89021e-05
3.8941e-05
3.89726e-05
3.90101e-05
3.90414e-05
3.90694e-05
3.91029e-05
3.91123e-05
3.9166e-05
3.92253e-05
3.9252e-05
3.92505e-05
3.92848e-05
3.92922e-05
3.93404e-05
3.93457e-05
3.93787e-05
3.93824e-05
3.9129e-05
3.89967e-05
3.95185e-05
3.95426e-05
3.93941e-05
3.94212e-05
3.94573e-05
3.94978e-05
3.95341e-05
3.957e-05
3.96023e-05
3.96348e-05
3.96643e-05
3.96937e-05
3.9721e-05
3.97486e-05
3.97744e-05
3.9801e-05
3.98259e-05
3.98509e-05
3.98734e-05
3.98964e-05
3.99167e-05
3.99379e-05
3.9957e-05
3.99775e-05
3.99967e-05
4.00155e-05
4.00369e-05
4.0054e-05
4.0079e-05
4.00896e-05
4.01207e-05
4.01184e-05
4.01633e-05
4.01358e-05
4.02018e-05
4.01488e-05
4.02256e-05
4.01355e-05
4.01901e-05
4.0076e-05
4.00815e-05
4.00268e-05
4.00423e-05
4.00024e-05
4.00179e-05
4.00058e-05
4.0013e-05
4.00173e-05
4.0027e-05
4.0037e-05
4.00456e-05
4.00557e-05
4.00632e-05
4.00697e-05
4.0082e-05
4.00791e-05
4.00929e-05
4.00762e-05
4.01019e-05
4.00658e-05
4.01087e-05
4.00325e-05
4.0115e-05
4.01106e-05
3.96611e-05
3.94154e-05
4.00121e-05
3.99447e-05
3.97636e-05
3.98202e-05
3.98718e-05
3.98943e-05
3.99299e-05
3.99454e-05
3.99678e-05
3.99797e-05
3.99941e-05
4.0006e-05
4.00111e-05
4.00129e-05
4.00094e-05
4.00018e-05
3.99968e-05
3.99874e-05
3.99796e-05
3.99696e-05
3.99592e-05
3.99462e-05
3.99317e-05
3.9915e-05
3.98977e-05
3.98802e-05
3.98633e-05
3.98466e-05
3.98306e-05
3.98144e-05
3.97984e-05
3.97826e-05
3.97673e-05
3.97527e-05
3.97385e-05
3.97248e-05
3.97117e-05
3.96987e-05
3.96861e-05
3.9674e-05
3.96621e-05
3.96514e-05
3.96408e-05
3.96312e-05
3.96224e-05
3.9614e-05
3.96062e-05
3.96001e-05
3.95932e-05
3.95869e-05
3.95798e-05
3.95734e-05
3.95663e-05
3.95601e-05
3.95534e-05
3.95484e-05
3.95426e-05
3.95388e-05
3.95344e-05
3.9531e-05
3.95267e-05
3.95235e-05
3.95193e-05
3.95173e-05
3.95123e-05
3.95095e-05
3.95048e-05
3.94982e-05
3.94969e-05
3.94825e-05
3.94847e-05
3.94562e-05
3.94674e-05
3.94137e-05
3.94414e-05
3.93515e-05
3.94028e-05
3.92861e-05
3.93377e-05
3.94369e-05
3.90251e-05
3.89999e-05
3.92935e-05
3.90053e-05
3.84008e-05
3.8854e-05
3.89538e-05
3.89821e-05
3.90389e-05
3.9058e-05
3.90834e-05
3.91036e-05
3.90956e-05
3.91141e-05
3.90559e-05
3.90958e-05
3.89637e-05
3.90495e-05
3.91019e-05
3.86804e-05
3.86171e-05
3.89113e-05
3.86324e-05
3.82459e-05
3.84583e-05
3.85296e-05
3.85498e-05
3.85905e-05
3.85963e-05
3.8616e-05
3.86032e-05
3.86179e-05
3.85777e-05
3.85978e-05
3.85215e-05
3.85627e-05
3.84396e-05
3.85126e-05
3.83328e-05
3.84437e-05
3.82097e-05
3.83717e-05
3.81558e-05
3.83539e-05
3.82333e-05
3.84633e-05
3.84368e-05
3.83989e-05
3.72642e-05
3.58135e-05
3.28857e-05
2.85608e-05
2.5627e-05
2.46017e-05
2.7587e-05
2.51696e-05
2.33364e-05
2.02382e-05
1.67249e-05
1.90529e-05
1.66305e-05
1.68528e-05
2.2502e-05
0.000150361
0.00011489
7.9683e-05
6.88498e-05
5.5592e-05
4.55729e-05
3.76524e-05
3.18238e-05
2.75145e-05
2.43327e-05
2.18902e-05
1.99996e-05
1.84929e-05
1.72902e-05
1.63168e-05
1.55301e-05
1.48938e-05
1.43832e-05
1.39814e-05
1.36749e-05
1.34524e-05
1.33067e-05
1.32325e-05
1.32269e-05
1.32883e-05
1.34171e-05
1.36152e-05
1.38801e-05
1.42066e-05
1.45919e-05
1.50349e-05
1.55349e-05
1.60947e-05
1.66793e-05
1.72785e-05
1.78906e-05
1.85154e-05
1.91522e-05
1.98015e-05
2.04636e-05
2.11399e-05
2.18305e-05
2.25382e-05
2.32652e-05
2.40144e-05
2.47877e-05
2.54099e-05
2.60294e-05
2.66457e-05
2.72631e-05
2.78801e-05
2.85006e-05
2.91234e-05
2.97503e-05
3.03776e-05
3.10055e-05
3.16265e-05
3.22406e-05
3.28432e-05
3.34334e-05
3.40096e-05
3.45786e-05
3.51366e-05
3.56929e-05
3.62405e-05
3.67875e-05
3.73257e-05
3.78613e-05
3.83822e-05
3.88976e-05
3.93899e-05
3.98724e-05
4.03307e-05
4.07794e-05
4.12087e-05
4.16354e-05
4.20494e-05
4.24727e-05
4.28904e-05
4.33254e-05
4.37558e-05
4.42002e-05
4.46334e-05
4.50772e-05
4.54981e-05
4.59194e-05
4.63059e-05
4.66845e-05
4.70206e-05
4.73441e-05
4.76333e-05
4.79214e-05
4.81914e-05
4.84791e-05
4.87675e-05
4.9071e-05
4.93872e-05
4.96254e-05
4.98426e-05
5.0053e-05
5.02553e-05
5.04534e-05
5.06467e-05
5.08381e-05
5.10272e-05
5.12199e-05
5.14176e-05
5.16178e-05
5.18043e-05
5.19268e-05
5.20318e-05
5.20372e-05
5.21327e-05
5.2208e-05
5.22939e-05
5.2347e-05
5.2392e-05
5.23882e-05
5.24205e-05
5.24208e-05
5.24982e-05
5.25409e-05
5.26197e-05
5.26424e-05
5.26908e-05
5.27019e-05
5.2758e-05
5.27871e-05
5.28421e-05
5.28714e-05
5.29328e-05
5.29598e-05
5.29964e-05
5.30399e-05
5.30905e-05
5.31083e-05
5.31723e-05
5.32174e-05
5.32711e-05
5.33041e-05
5.33835e-05
5.34296e-05
5.34849e-05
5.35375e-05
5.36114e-05
5.36584e-05
5.37223e-05
5.37414e-05
5.37933e-05
5.38371e-05
5.38959e-05
5.39281e-05
5.40044e-05
5.40292e-05
5.40792e-05
5.41118e-05
5.41896e-05
5.42183e-05
5.42787e-05
5.43337e-05
5.43877e-05
5.44347e-05
5.44874e-05
5.4535e-05
5.46031e-05
5.46566e-05
5.47298e-05
5.47984e-05
5.48696e-05
5.49174e-05
5.49875e-05
5.50302e-05
5.51083e-05
5.51531e-05
5.52528e-05
5.53194e-05
5.53637e-05
5.54457e-05
5.55108e-05
5.55604e-05
5.56294e-05
5.56946e-05
5.5773e-05
5.58694e-05
5.59928e-05
5.60958e-05
5.61913e-05
5.62653e-05
5.63233e-05
5.64351e-05
5.65191e-05
5.65939e-05
5.67143e-05
5.67823e-05
5.68303e-05
5.69369e-05
5.70235e-05
5.70595e-05
5.71577e-05
5.72922e-05
5.74077e-05
5.75028e-05
5.75681e-05
5.76547e-05
5.77421e-05
5.78726e-05
5.79799e-05
5.81164e-05
5.8228e-05
5.83314e-05
5.84412e-05
5.85107e-05
5.85983e-05
5.86587e-05
5.87378e-05
5.89036e-05
5.90684e-05
5.92606e-05
5.94317e-05
5.95973e-05
5.9754e-05
5.98998e-05
6.00016e-05
6.01092e-05
6.0237e-05
6.03608e-05
6.04627e-05
6.05701e-05
6.06715e-05
6.07015e-05
6.0765e-05
6.10552e-05
6.12529e-05
6.1346e-05
6.13442e-05
6.12804e-05
6.1376e-05
6.14844e-05
6.15631e-05
6.16021e-05
6.16506e-05
6.17025e-05
6.17624e-05
6.18172e-05
6.18789e-05
6.19333e-05
6.19905e-05
6.20417e-05
6.20975e-05
6.21485e-05
6.22056e-05
6.22595e-05
6.23209e-05
6.23804e-05
6.24445e-05
6.25044e-05
6.25664e-05
6.26239e-05
6.26825e-05
6.27355e-05
6.27888e-05
6.28346e-05
6.28827e-05
6.29253e-05
6.29705e-05
6.30108e-05
6.30478e-05
6.30809e-05
6.31111e-05
6.31595e-05
6.32725e-05
6.33666e-05
6.34178e-05
6.34304e-05
6.34515e-05
6.34875e-05
6.35352e-05
6.35867e-05
6.36452e-05
6.37046e-05
6.37692e-05
6.38323e-05
6.38991e-05
6.3964e-05
6.4032e-05
6.40977e-05
6.41658e-05
6.42308e-05
6.42988e-05
6.43628e-05
6.44305e-05
6.44928e-05
6.456e-05
6.46198e-05
6.46879e-05
6.4748e-05
6.48203e-05
6.48814e-05
6.49582e-05
6.50203e-05
6.51009e-05
6.51634e-05
6.52485e-05
6.53146e-05
6.54035e-05
6.54739e-05
6.55657e-05
6.56424e-05
6.57366e-05
6.58198e-05
6.59164e-05
6.60057e-05
6.61044e-05
6.61991e-05
6.62992e-05
6.63972e-05
6.64985e-05
6.65985e-05
6.67024e-05
6.68064e-05
6.69155e-05
6.70196e-05
6.71289e-05
6.72288e-05
6.73341e-05
6.74327e-05
6.75249e-05
6.76237e-05
6.76961e-05
6.78246e-05
6.797e-05
6.80841e-05
6.81519e-05
6.82428e-05
6.82895e-05
6.84059e-05
6.84381e-05
6.85374e-05
6.85418e-05
6.83277e-05
6.86843e-05
6.89154e-05
6.90839e-05
6.89456e-05
6.89944e-05
6.90604e-05
6.91417e-05
6.92232e-05
6.93062e-05
6.93878e-05
6.9468e-05
6.95454e-05
6.96206e-05
6.96933e-05
6.9764e-05
6.98332e-05
6.99009e-05
6.99673e-05
7.00309e-05
7.00921e-05
7.01505e-05
7.02064e-05
7.02603e-05
7.03131e-05
7.03643e-05
7.04167e-05
7.04637e-05
7.05175e-05
7.05598e-05
7.06136e-05
7.06476e-05
7.07115e-05
7.0724e-05
7.08114e-05
7.07747e-05
7.08978e-05
7.07987e-05
7.09462e-05
7.07621e-05
7.08785e-05
7.06414e-05
7.06914e-05
7.05445e-05
7.05666e-05
7.04839e-05
7.04878e-05
7.04518e-05
7.04437e-05
7.04311e-05
7.04246e-05
7.04186e-05
7.04163e-05
7.04142e-05
7.0416e-05
7.04123e-05
7.04229e-05
7.04145e-05
7.04304e-05
7.04059e-05
7.04408e-05
7.0385e-05
7.04494e-05
7.03318e-05
7.04566e-05
7.03649e-05
6.98846e-05
7.01631e-05
7.02625e-05
7.02674e-05
7.00048e-05
7.00078e-05
7.00625e-05
7.00573e-05
7.01017e-05
7.01103e-05
7.01379e-05
7.01541e-05
7.01708e-05
7.01849e-05
7.01898e-05
7.01925e-05
7.01885e-05
7.01778e-05
7.01697e-05
7.01566e-05
7.01451e-05
7.01303e-05
7.01134e-05
7.00925e-05
7.00674e-05
7.00385e-05
7.00081e-05
6.99763e-05
6.99458e-05
6.99158e-05
6.98867e-05
6.98575e-05
6.98285e-05
6.98e-05
6.97725e-05
6.97473e-05
6.9723e-05
6.97002e-05
6.96786e-05
6.96579e-05
6.96385e-05
6.96212e-05
6.96052e-05
6.95901e-05
6.95776e-05
6.95672e-05
6.95584e-05
6.95502e-05
6.95451e-05
6.9541e-05
6.95386e-05
6.95358e-05
6.95329e-05
6.95297e-05
6.95268e-05
6.95241e-05
6.95228e-05
6.95225e-05
6.95231e-05
6.95258e-05
6.95283e-05
6.95323e-05
6.95355e-05
6.95394e-05
6.95423e-05
6.95472e-05
6.95486e-05
6.95495e-05
6.95494e-05
6.95442e-05
6.95464e-05
6.95316e-05
6.95348e-05
6.94967e-05
6.95105e-05
6.94291e-05
6.94646e-05
6.93154e-05
6.93896e-05
6.91705e-05
6.92769e-05
6.93672e-05
6.88922e-05
6.92451e-05
6.92123e-05
6.90321e-05
6.86385e-05
6.86098e-05
6.86687e-05
6.85839e-05
6.8613e-05
6.85683e-05
6.85724e-05
6.85559e-05
6.85234e-05
6.85234e-05
6.84213e-05
6.84598e-05
6.82389e-05
6.83622e-05
6.83817e-05
6.79249e-05
6.81798e-05
6.81314e-05
6.79136e-05
6.74993e-05
6.7437e-05
6.74598e-05
6.7388e-05
6.73929e-05
6.73446e-05
6.73362e-05
6.72785e-05
6.72723e-05
6.71893e-05
6.71933e-05
6.70557e-05
6.70973e-05
6.68783e-05
6.69749e-05
6.66503e-05
6.68123e-05
6.638e-05
6.66296e-05
6.61807e-05
6.65084e-05
6.6179e-05
6.65781e-05
6.64939e-05
6.65125e-05
6.49818e-05
6.22439e-05
5.73674e-05
4.82977e-05
3.6699e-05
3.84473e-05
4.08911e-05
3.82971e-05
3.57202e-05
3.13879e-05
2.57546e-05
2.19876e-05
2.38771e-05
2.64488e-05
3.69484e-05
0.000184058
0.000143314
7.66151e-05
7.48845e-05
7.69678e-05
8.4596e-05
9.29617e-05
8.0927e-05
7.13947e-05
6.37209e-05
5.73433e-05
5.20492e-05
4.75717e-05
4.37913e-05
4.05715e-05
3.78301e-05
3.54373e-05
3.33265e-05
3.14292e-05
2.96989e-05
2.81112e-05
2.66546e-05
2.533e-05
2.41375e-05
2.30725e-05
2.21281e-05
2.12954e-05
2.0563e-05
1.99221e-05
1.93635e-05
1.88801e-05
1.84651e-05
1.81135e-05
1.78231e-05
1.75923e-05
1.74185e-05
1.72998e-05
1.72369e-05
1.72393e-05
1.73082e-05
1.74369e-05
1.76218e-05
1.7862e-05
1.81587e-05
1.85147e-05
1.89324e-05
1.94048e-05
1.99094e-05
2.04445e-05
2.10085e-05
2.16e-05
2.22188e-05
2.28654e-05
2.35396e-05
2.42426e-05
2.49725e-05
2.57277e-05
2.65051e-05
2.73003e-05
2.81088e-05
2.89273e-05
2.96104e-05
3.02406e-05
3.0886e-05
3.1523e-05
3.21903e-05
3.28601e-05
3.35702e-05
3.42813e-05
3.50301e-05
3.57627e-05
3.65204e-05
3.72453e-05
3.79868e-05
3.86874e-05
3.94099e-05
4.01008e-05
4.08416e-05
4.15741e-05
4.23891e-05
4.32092e-05
4.41267e-05
4.50496e-05
4.60742e-05
4.70722e-05
4.8144e-05
4.91358e-05
5.01763e-05
5.10804e-05
5.1981e-05
5.2726e-05
5.35032e-05
5.41681e-05
5.47627e-05
5.53396e-05
5.58982e-05
5.64465e-05
5.69831e-05
5.75133e-05
5.80383e-05
5.85618e-05
5.9086e-05
5.96117e-05
6.01399e-05
6.06712e-05
6.12104e-05
6.17733e-05
6.23594e-05
6.29427e-05
6.34607e-05
6.39637e-05
6.43327e-05
6.47571e-05
6.5116e-05
6.5461e-05
6.57499e-05
6.60198e-05
6.62141e-05
6.64309e-05
6.66217e-05
6.69038e-05
6.7143e-05
6.74311e-05
6.76353e-05
6.78579e-05
6.80302e-05
6.82456e-05
6.84287e-05
6.86553e-05
6.88472e-05
6.90924e-05
6.9283e-05
6.94823e-05
6.96721e-05
6.98624e-05
7.00076e-05
7.02032e-05
7.03695e-05
7.05445e-05
7.07023e-05
7.093e-05
7.11188e-05
7.13244e-05
7.15073e-05
7.17218e-05
7.18852e-05
7.20712e-05
7.22017e-05
7.23673e-05
7.25213e-05
7.26927e-05
7.28391e-05
7.30363e-05
7.31647e-05
7.33172e-05
7.34421e-05
7.36219e-05
7.37412e-05
7.38964e-05
7.40578e-05
7.42143e-05
7.4355e-05
7.45006e-05
7.46307e-05
7.47922e-05
7.49419e-05
7.51121e-05
7.52803e-05
7.5449e-05
7.55827e-05
7.57489e-05
7.58828e-05
7.60498e-05
7.61811e-05
7.63828e-05
7.65369e-05
7.66821e-05
7.687e-05
7.70183e-05
7.71598e-05
7.73278e-05
7.74773e-05
7.76674e-05
7.78762e-05
7.8113e-05
7.83314e-05
7.85423e-05
7.87198e-05
7.88817e-05
7.91073e-05
7.93017e-05
7.94834e-05
7.97104e-05
7.98744e-05
8.00371e-05
8.026e-05
8.04598e-05
8.06159e-05
8.08366e-05
8.10874e-05
8.13405e-05
8.15574e-05
8.17364e-05
8.19404e-05
8.21385e-05
8.23844e-05
8.26064e-05
8.28654e-05
8.30907e-05
8.33058e-05
8.35183e-05
8.36862e-05
8.38788e-05
8.40456e-05
8.42349e-05
8.4523e-05
8.48198e-05
8.51538e-05
8.54695e-05
8.57867e-05
8.60825e-05
8.6364e-05
8.6588e-05
8.68134e-05
8.70541e-05
8.72964e-05
8.75126e-05
8.77275e-05
8.7933e-05
8.80646e-05
8.82745e-05
8.86922e-05
8.90303e-05
8.92505e-05
8.93652e-05
8.93881e-05
8.95693e-05
8.9761e-05
8.99314e-05
9.00535e-05
9.01851e-05
9.03058e-05
9.04367e-05
9.05549e-05
9.06837e-05
9.07991e-05
9.09207e-05
9.10343e-05
9.11523e-05
9.12631e-05
9.13804e-05
9.14934e-05
9.16144e-05
9.17324e-05
9.18549e-05
9.19707e-05
9.20876e-05
9.21975e-05
9.23056e-05
9.2405e-05
9.25039e-05
9.25914e-05
9.26809e-05
9.27618e-05
9.28449e-05
9.29208e-05
9.29938e-05
9.30608e-05
9.31283e-05
9.32254e-05
9.33888e-05
9.35344e-05
9.36357e-05
9.36996e-05
9.37615e-05
9.38381e-05
9.39292e-05
9.40276e-05
9.41355e-05
9.42466e-05
9.43674e-05
9.44884e-05
9.46167e-05
9.47439e-05
9.48763e-05
9.50075e-05
9.5142e-05
9.5274e-05
9.54092e-05
9.55398e-05
9.56753e-05
9.5804e-05
9.59392e-05
9.60651e-05
9.62011e-05
9.63269e-05
9.64678e-05
9.6594e-05
9.67397e-05
9.68666e-05
9.70172e-05
9.71451e-05
9.73031e-05
9.74365e-05
9.76012e-05
9.7742e-05
9.79126e-05
9.80634e-05
9.82394e-05
9.84006e-05
9.85808e-05
9.87518e-05
9.89365e-05
9.91164e-05
9.93056e-05
9.94917e-05
9.96834e-05
9.98727e-05
0.000100068
0.000100264
0.000100466
0.000100663
0.000100865
0.000101055
0.00010125
0.000101437
0.000101616
0.000101802
0.000101964
0.00010219
0.000102426
0.00010264
0.000102798
0.000102976
0.000103094
0.000103298
0.000103387
0.000103569
0.000103609
0.000103494
0.000103985
0.000104292
0.000104626
0.000104568
0.000104679
0.000104804
0.000104949
0.000105096
0.000105246
0.000105395
0.000105542
0.000105686
0.000105826
0.000105963
0.000106096
0.000106227
0.000106353
0.000106477
0.000106596
0.000106711
0.00010682
0.000106925
0.000107024
0.000107121
0.000107215
0.000107309
0.000107395
0.000107489
0.000107566
0.000107659
0.000107725
0.000107829
0.00010787
0.000107999
0.000107974
0.000108149
0.000108034
0.000108239
0.000107996
0.000108157
0.000107828
0.000107903
0.000107679
0.0001077
0.00010758
0.000107558
0.000107491
0.000107456
0.000107416
0.000107382
0.000107346
0.000107316
0.000107285
0.000107262
0.000107231
0.000107218
0.000107184
0.000107182
0.000107133
0.000107157
0.000107073
0.000107134
0.000106974
0.000107105
0.000106905
0.000106455
0.000106751
0.000106792
0.000106862
0.000106578
0.000106496
0.000106534
0.000106487
0.000106517
0.000106499
0.000106508
0.000106505
0.000106502
0.000106497
0.000106483
0.000106466
0.000106443
0.000106412
0.000106384
0.00010635
0.000106317
0.000106282
0.000106243
0.0001062
0.00010615
0.000106096
0.000106039
0.000105981
0.000105924
0.000105869
0.000105816
0.000105764
0.000105713
0.000105663
0.000105616
0.000105573
0.000105533
0.000105496
0.000105463
0.000105432
0.000105405
0.000105382
0.000105363
0.000105346
0.000105333
0.000105324
0.000105319
0.000105315
0.000105315
0.000105318
0.000105323
0.000105328
0.000105333
0.000105337
0.000105342
0.000105348
0.000105355
0.000105364
0.000105375
0.000105388
0.000105402
0.000105416
0.00010543
0.000105443
0.000105455
0.000105467
0.000105475
0.00010548
0.000105482
0.000105475
0.000105475
0.000105454
0.000105452
0.000105399
0.000105406
0.000105297
0.000105325
0.000105123
0.000105193
0.000104894
0.000105018
0.000105063
0.000104552
0.000104946
0.000104715
0.000104622
0.000104169
0.000104003
0.000104032
0.000103853
0.000103838
0.000103712
0.00010366
0.000103577
0.000103484
0.000103434
0.000103263
0.000103258
0.000102948
0.000103054
0.000103013
0.000102518
0.00010277
0.000102594
0.00010241
0.000101919
0.000101687
0.000101644
0.000101467
0.000101405
0.000101278
0.000101205
0.000101074
0.000101007
0.000100853
0.000100812
0.000100598
0.0001006
0.000100286
0.000100359
9.99084e-05
0.000100067
9.94712e-05
9.97437e-05
9.90994e-05
9.94751e-05
9.89552e-05
9.94264e-05
9.91803e-05
9.90112e-05
9.69318e-05
9.32719e-05
8.67299e-05
7.41274e-05
5.46585e-05
5.28583e-05
5.5676e-05
5.2288e-05
4.75337e-05
4.14929e-05
3.48294e-05
2.75574e-05
2.72289e-05
3.4233e-05
3.98831e-05
0.000189764
0.000127584
7.31862e-05
7.05468e-05
7.27798e-05
7.8425e-05
9.16983e-05
0.000101861
0.000120808
0.000116807
0.00010846
0.000101168
9.45565e-05
8.86179e-05
8.32882e-05
7.85288e-05
7.42149e-05
7.02793e-05
6.66447e-05
6.32552e-05
6.00764e-05
5.70999e-05
5.43288e-05
5.17642e-05
4.9399e-05
4.72272e-05
4.52384e-05
4.34128e-05
4.17379e-05
4.01969e-05
3.87768e-05
3.74657e-05
3.62503e-05
3.51231e-05
3.40789e-05
3.31125e-05
3.2221e-05
3.13875e-05
3.05433e-05
2.96667e-05
2.87947e-05
2.79647e-05
2.71981e-05
2.65026e-05
2.58812e-05
2.53334e-05
2.48577e-05
2.44533e-05
2.41191e-05
2.38533e-05
2.36548e-05
2.35229e-05
2.34574e-05
2.34581e-05
2.35246e-05
2.36548e-05
2.38462e-05
2.40969e-05
2.44054e-05
2.47692e-05
2.51884e-05
2.56597e-05
2.61826e-05
2.67559e-05
2.73787e-05
2.80507e-05
2.87737e-05
2.95433e-05
3.03582e-05
3.12192e-05
3.21262e-05
3.30757e-05
3.40641e-05
3.50861e-05
3.614e-05
3.7221e-05
3.83312e-05
3.94709e-05
4.06454e-05
4.18583e-05
4.31144e-05
4.44147e-05
4.57603e-05
4.71446e-05
4.85611e-05
4.99965e-05
5.1439e-05
5.28729e-05
5.42888e-05
5.56724e-05
5.70169e-05
5.83097e-05
5.95537e-05
6.07464e-05
6.18972e-05
6.30049e-05
6.40822e-05
6.51278e-05
6.61525e-05
6.71563e-05
6.81479e-05
6.91275e-05
7.00984e-05
7.10635e-05
7.20252e-05
7.29992e-05
7.40477e-05
7.51754e-05
7.6322e-05
7.73999e-05
7.84677e-05
7.93116e-05
8.0127e-05
8.08225e-05
8.14372e-05
8.19399e-05
8.23974e-05
8.27377e-05
8.30921e-05
8.34696e-05
8.39679e-05
8.44474e-05
8.49713e-05
8.53883e-05
8.58032e-05
8.61305e-05
8.6508e-05
8.68648e-05
8.72811e-05
8.76772e-05
8.81368e-05
8.8544e-05
8.89314e-05
8.92797e-05
8.9633e-05
8.99436e-05
9.02855e-05
9.05863e-05
9.09006e-05
9.12113e-05
9.16101e-05
9.19727e-05
9.23536e-05
9.27163e-05
9.30998e-05
9.33942e-05
9.37103e-05
9.39712e-05
9.42715e-05
9.45447e-05
9.48492e-05
9.5133e-05
9.5478e-05
9.57472e-05
9.60177e-05
9.62415e-05
9.65467e-05
9.67617e-05
9.70026e-05
9.72693e-05
9.75527e-05
9.78126e-05
9.80536e-05
9.82678e-05
9.85279e-05
9.8781e-05
9.9053e-05
9.93339e-05
9.96176e-05
9.9853e-05
0.000100123
0.000100354
0.000100619
0.00010084
0.000101153
0.000101414
0.000101677
0.000101979
0.000102224
0.000102475
0.000102757
0.000103013
0.000103324
0.000103658
0.000104034
0.000104373
0.00010471
0.000105009
0.000105295
0.000105644
0.000105965
0.000106275
0.000106618
0.000106885
0.000107173
0.00010752
0.000107851
0.000108154
0.000108517
0.000108896
0.000109288
0.000109656
0.000109974
0.000110308
0.000110642
0.000111019
0.000111373
0.000111764
0.000112104
0.000112428
0.000112746
0.000113005
0.000113294
0.000113566
0.000113875
0.000114293
0.000114736
0.000115224
0.000115688
0.000116154
0.000116587
0.000117
0.000117349
0.000117691
0.000118037
0.000118384
0.00011871
0.000119026
0.000119329
0.000119573
0.000119901
0.000120434
0.000120889
0.000121241
0.000121468
0.000121596
0.000121877
0.000122158
0.000122428
0.000122641
0.000122859
0.000123059
0.000123269
0.000123461
0.000123666
0.000123852
0.000124047
0.000124229