/*--------------------------------*- C++ -*----------------------------------*\
| =========                 |                                                 |
| \\      /  F ield         | foam-extend: Open Source CFD                    |
|  \\    /   O peration     | Version:     3.2                                |
|   \\  /    A nd           | Web:         http://www.foam-extend.org         |
|    \\/     M anipulation  | For copyright notice see file Copyright         |
\*---------------------------------------------------------------------------*/
FoamFile
{
    version     2.0;
    format      ascii;
    class       areaScalarField;
    location    "1790";
    object      Fi;
}
// * * * * * * * * * * * * * * * * * * * * * * * * * * * * * * * * * * * * * //

dimensions      [0 1 -1 0 0 0 0];

internalField   nonuniform List<scalar> 
550
(
4.99359e-08
4.56822e-08
3.06132e-08
-5.36207e-09
-4.91472e-08
-8.93959e-08
-1.26828e-07
-1.57936e-07
-1.80287e-07
-1.92943e-07
-1.9647e-07
-1.92383e-07
-1.82746e-07
-1.69516e-07
-1.54436e-07
-1.38849e-07
-1.23819e-07
-1.0998e-07
-9.80648e-08
-8.80012e-08
-7.91708e-08
-7.1496e-08
-6.49031e-08
-5.93402e-08
-5.47338e-08
-5.09665e-08
-4.79718e-08
-4.56535e-08
-4.36987e-08
-4.18839e-08
-4.02536e-08
-3.88288e-08
-3.75844e-08
-3.64974e-08
-3.55471e-08
-3.4719e-08
-3.39949e-08
-3.33567e-08
-3.2787e-08
-3.22686e-08
-3.17877e-08
-3.13334e-08
-3.08947e-08
-3.04679e-08
-3.00503e-08
-2.96452e-08
-2.92584e-08
-2.88938e-08
-2.8553e-08
-2.82364e-08
-2.79404e-08
-2.7659e-08
-2.73824e-08
-2.71011e-08
-2.6811e-08
-2.65107e-08
-2.62015e-08
-2.58955e-08
-2.55991e-08
-2.53162e-08
-2.50547e-08
-2.48134e-08
-2.45864e-08
-2.4369e-08
-2.41514e-08
-2.39263e-08
-2.36933e-08
-2.34494e-08
-2.32003e-08
-2.29514e-08
-2.27081e-08
-2.24822e-08
-2.22799e-08
-2.21045e-08
-2.19562e-08
-2.18281e-08
-2.17093e-08
-2.15916e-08
-2.14617e-08
-2.13118e-08
-2.11305e-08
-2.09079e-08
-2.06467e-08
-2.03538e-08
-2.0041e-08
-1.97265e-08
-1.94253e-08
-1.91517e-08
-1.89198e-08
-1.87365e-08
-1.86043e-08
-1.85131e-08
-1.84455e-08
-1.839e-08
-1.83343e-08
-1.8268e-08
-1.8183e-08
-1.80705e-08
-1.79249e-08
-1.77497e-08
-1.75472e-08
-1.73293e-08
-1.70999e-08
-1.68673e-08
-1.66353e-08
-1.64142e-08
-1.62003e-08
-1.59526e-08
-1.5883e-08
-1.47196e-08
-1.31641e-08
-1.4513e-08
-1.4519e-08
-1.45242e-08
-1.41273e-08
-1.4413e-08
-1.42033e-08
-1.47946e-08
1.45288e-07
5.13348e-08
-1.7288e-07
-1.37037e-08
-1.23938e-08
-1.26777e-08
-1.30873e-08
-1.21039e-08
-1.23229e-08
-1.30121e-08
1.39002e-07
5.24714e-08
-1.6218e-07
-1.13238e-08
1.36638e-07
5.13909e-08
-1.57888e-07
-1.10999e-08
-1.08536e-08
-9.54383e-09
-9.26032e-09
-1.02081e-08
-9.93417e-09
1.3092e-07
5.08552e-08
-1.48737e-07
-8.5557e-09
-8.32207e-09
-8.02696e-09
-8.01902e-09
-7.5108e-09
-7.05494e-09
-7.4764e-09
1.2483e-07
5.23768e-08
-1.38835e-07
-6.68179e-09
-6.2456e-09
-5.93735e-09
-6.08307e-09
-6.08371e-09
-5.55539e-09
-5.36581e-09
1.19639e-07
5.27297e-08
-1.29629e-07
-5.06373e-09
-4.58478e-09
-4.1731e-09
-4.13568e-09
-4.14857e-09
-4.34093e-09
-4.15562e-09
1.14886e-07
5.31801e-08
-1.21979e-07
-3.23997e-09
-3.40718e-09
-3.81109e-09
-2.2627e-09
-2.51483e-09
-3.4902e-09
-2.23381e-09
-2.35652e-09
-3.03833e-09
-1.67623e-09
-1.3423e-09
-2.66719e-09
-2.80921e-09
-1.83178e-09
-2.11302e-09
-1.49996e-09
-1.68376e-09
-1.86701e-09
-1.16728e-09
-2.02127e-09
-1.78901e-09
-5.69489e-10
-1.48983e-09
-1.80263e-09
-5.89687e-10
-8.1854e-10
-1.88896e-09
-1.74779e-09
-1.25063e-09
-9.58499e-10
-7.90297e-10
-6.3297e-10
-8.13439e-10
-6.63601e-10
-7.0557e-10
-8.78944e-10
-5.2418e-10
-6.50771e-10
-4.02532e-10
-1.43976e-10
1.84661e-10
6.73425e-10
7.9663e-10
3.81605e-10
5.64028e-10
2.10747e-10
3.98354e-10
2.32586e-10
4.22494e-10
2.64398e-10
1.17981e-10
5.42885e-10
4.53415e-10
4.76591e-10
3.52848e-10
3.35721e-10
2.51437e-10
2.82494e-10
1.65911e-10
2.43372e-10
1.08028e-10
1.85466e-10
6.18806e-11
1.28274e-10
2.50902e-11
1.01863e-10
-2.80041e-12
9.26059e-11
8.12881e-12
1.13427e-10
4.83372e-11
1.55212e-10
9.02039e-11
1.78576e-10
1.09027e-10
1.79717e-10
1.06861e-10
1.59591e-10
8.54019e-11
1.26014e-10
5.47288e-11
8.56708e-11
2.20824e-11
5.13859e-11
-2.73846e-12
2.77161e-11
-2.03571e-11
8.97689e-12
-3.36344e-11
1.58346e-12
-3.66582e-11
-4.82395e-13
-3.54731e-11
-1.41192e-12
-3.68407e-11
-3.68787e-12
-3.47461e-11
2.62823e-12
-2.75465e-11
2.64503e-12
-2.6624e-11
6.20453e-12
-1.67882e-11
1.75306e-11
-5.66344e-12
2.2073e-11
-4.23198e-12
2.31007e-11
1.37722e-12
3.33013e-11
1.49183e-11
4.79762e-11
2.89029e-11
6.25969e-11
4.15341e-11
7.72168e-11
5.47677e-11
9.45703e-11
7.0991e-11
1.15425e-10
8.93286e-11
1.34373e-10
1.03488e-10
1.47353e-10
1.13177e-10
1.54145e-10
1.1846e-10
1.55645e-10
1.16954e-10
1.50414e-10
1.10488e-10
1.40021e-10
1.00487e-10
1.25938e-10
8.61862e-11
1.08871e-10
6.92437e-11
8.52263e-11
4.95433e-11
5.97393e-11
2.87428e-11
3.57606e-11
9.38954e-12
1.60535e-11
-1.06108e-11
-1.58688e-11
-3.92722e-11
-3.81943e-11
-5.97079e-11
-5.05102e-11
-7.0907e-11
-6.95968e-11
-8.23069e-11
-8.38731e-11
-1.01545e-10
-1.0407e-10
-1.20978e-10
-1.12917e-10
-1.26238e-10
-1.28982e-10
-1.41324e-10
-1.45597e-10
-1.52159e-10
-1.51905e-10
-1.52774e-10
-1.54691e-10
-1.57551e-10
-1.55727e-10
-1.63095e-10
-1.54013e-10
-1.55521e-10
-1.46992e-10
-1.4588e-10
-1.3555e-10
-1.317e-10
-1.28941e-10
-1.26585e-10
-1.20329e-10
-1.15245e-10
-1.08044e-10
-1.02451e-10
-9.60534e-11
-9.07737e-11
-8.4004e-11
-7.65576e-11
-6.76919e-11
-5.87551e-11
-5.01347e-11
-4.1977e-11
-3.53611e-11
-2.84365e-11
-2.55849e-11
-2.15752e-11
-2.19734e-11
-2.14335e-11
-2.03952e-11
-1.90164e-11
-2.04236e-11
-1.69125e-11
-1.87339e-11
-1.68667e-11
-1.70292e-11
-1.82548e-11
-1.91168e-11
-1.9154e-11
-2.45102e-11
9.05599e-10
3.1981e-10
2.59499e-09
2.89529e-10
2.31544e-09
1.57282e-09
2.02039e-09
2.09758e-09
2.26599e-09
2.37926e-09
2.50267e-09
2.61021e-09
2.72084e-09
2.8271e-09
2.93873e-09
3.04298e-09
3.13858e-09
3.30109e-09
3.3105e-09
3.65886e-09
3.35422e-09
4.11779e-09
3.20851e-09
5.31845e-09
2.2517e-09
1.93176e-09
-8.0471e-11
9.59097e-10
1.18316e-08
9.21877e-09
5.79389e-09
4.70741e-09
5.74815e-09
5.0574e-09
5.51304e-09
5.43518e-09
5.61928e-09
5.68484e-09
5.78615e-09
5.88922e-09
5.99585e-09
6.0954e-09
6.18575e-09
6.33458e-09
8.34717e-09
8.99033e-09
6.94037e-09
6.96659e-09
7.00713e-09
7.04963e-09
7.08701e-09
7.12424e-09
7.16119e-09
7.19496e-09
7.2286e-09
7.26369e-09
7.29678e-09
7.3291e-09
7.36125e-09
7.39204e-09
7.42632e-09
7.45374e-09
7.48215e-09
7.51774e-09
7.54613e-09
7.57422e-09
7.60912e-09
7.63721e-09
7.66757e-09
7.70411e-09
7.73674e-09
7.76785e-09
7.79893e-09
7.83604e-09
7.87458e-09
7.90645e-09
7.94002e-09
7.98082e-09
8.01799e-09
8.05158e-09
8.08897e-09
8.12668e-09
8.16371e-09
8.1966e-09
8.2361e-09
8.27422e-09
8.30353e-09
8.34002e-09
8.38179e-09
8.42084e-09
8.46396e-09
8.4932e-09
8.53545e-09
8.58103e-09
8.61998e-09
8.67086e-09
8.69502e-09
8.78707e-09
8.74275e-09
8.9984e-09
8.67345e-09
9.33112e-09
8.44048e-09
9.7959e-09
8.68044e-09
1.08327e-08
1.16725e-08
2.34362e-09
1.51107e-08
1.29309e-08
2.68438e-09
1.60932e-08
1.08395e-08
9.17748e-09
1.02896e-08
9.30661e-09
1.00467e-08
9.50419e-09
9.92099e-09
9.65346e-09
1.00946e-08
9.57048e-09
1.06303e-08
2.5993e-09
3.55601e-09
1.58314e-08
9.76678e-09
1.61974e-08
1.38265e-08
4.10754e-09
1.10929e-08
5.78244e-09
9.00324e-09
1.05026e-08
9.3884e-09
1.00032e-08
9.87864e-09
1.00823e-08
1.02688e-08
1.02337e-08
1.0753e-08
1.03635e-08
1.13619e-08
1.06385e-08
1.2024e-08
1.13993e-08
1.26894e-08
1.24165e-08
1.33718e-08
1.35063e-08
1.28816e-08
1.39398e-08
1.10342e-08
1.21456e-08
3.25648e-09
-5.26309e-11
-1.05564e-10
-4.50742e-11
-7.09299e-11
8.50448e-08
1.10636e-07
4.5249e-08
3.97543e-08
3.51895e-08
3.95317e-08
4.49057e-08
4.84059e-08
4.87667e-08
4.62944e-08
4.05673e-08
)
;

boundaryField
{
    inlet
    {
        type            calculated;
        value           uniform 4.99359e-08;
    }
    endWall
    {
        type            calculated;
        value           uniform 4.0954e-08;
    }
    sideWall
    {
        type            empty;
    }
}


// ************************************************************************* //
