/*--------------------------------*- C++ -*----------------------------------*\
| =========                 |                                                 |
| \\      /  F ield         | foam-extend: Open Source CFD                    |
|  \\    /   O peration     | Version:     3.2                                |
|   \\  /    A nd           | Web:         http://www.foam-extend.org         |
|    \\/     M anipulation  | For copyright notice see file Copyright         |
\*---------------------------------------------------------------------------*/
FoamFile
{
    version     2.0;
    format      ascii;
    class       volScalarField;
    location    "1790";
    object      Ktemp;
}
// * * * * * * * * * * * * * * * * * * * * * * * * * * * * * * * * * * * * * //

dimensions      [0 2 -2 0 0 0 0];

internalField   nonuniform List<scalar> 
33000
(
0.000163512
0.000225802
0.000301524
0.000390007
0.000489115
0.000595455
0.000704985
0.000813171
0.000916011
0.00100984
0.00109227
0.00116168
0.00121768
0.00126046
0.00129094
0.00131026
0.00131992
0.00132143
0.00131635
0.00130647
0.0012928
0.00127625
0.00125758
0.00123745
0.00121647
0.00119515
0.00117389
0.00115309
0.001133
0.00111363
0.001095
0.00107716
0.00106016
0.00104401
0.00102874
0.00101435
0.00100082
0.000988152
0.000976308
0.000965258
0.000954959
0.000945366
0.000936427
0.000928093
0.000920312
0.00091304
0.00090624
0.000899881
0.000893934
0.000888379
0.000883191
0.000878347
0.00087382
0.000869578
0.000865585
0.000861811
0.000858223
0.000854801
0.000851531
0.000848407
0.000845426
0.000842589
0.000839892
0.00083733
0.000834892
0.000832561
0.00083032
0.000828152
0.00082604
0.00082398
0.000821964
0.000819998
0.000818091
0.000816257
0.000814506
0.00081285
0.000811287
0.000809815
0.000808415
0.000807071
0.000805755
0.000804438
0.000803086
0.000801678
0.000800197
0.000798645
0.000797031
0.00079538
0.000793721
0.000792091
0.000790523
0.000789051
0.000787685
0.00078643
0.000785273
0.000784205
0.000783197
0.000782232
0.000781273
0.000780302
0.00077929
0.000778233
0.000777117
0.00077595
0.000774733
0.000773477
0.000772198
0.000770897
0.000769528
0.000768419
0.000767058
0.000765714
0.000764275
0.000763009
0.000761468
0.000760196
0.000758821
0.00075732
0.00075578
0.000754302
0.000752697
0.000751475
0.000749812
0.000748323
0.000746903
0.00074538
0.000743913
0.000742554
0.000740817
0.00073926
0.00073769
0.000736286
0.000734732
0.000733079
0.000731487
0.00073019
0.000728655
0.000727028
0.000725639
0.000724317
0.000722774
0.00072119
0.000719653
0.000718209
0.000716754
0.000715366
0.000713935
0.000712569
0.000711008
0.000709466
0.000708035
0.000706697
0.0007051
0.000703684
0.000702219
0.000700829
0.000699397
0.000698086
0.000696818
0.000695441
0.00069414
0.000692713
0.000691287
0.000689988
0.000688764
0.000687523
0.000686212
0.000685005
0.000683803
0.000682712
0.000681579
0.000680431
0.000679199
0.000678124
0.00067697
0.000675975
0.000675129
0.000673744
0.000672678
0.00067186
0.000670565
0.000669539
0.000668717
0.000667575
0.000666596
0.000666446
0.000666009
0.000665022
0.000664253
0.000663181
0.000662324
0.000661703
0.000660694
0.000660231
0.000659661
0.000658401
0.00065781
0.00065739
0.000656339
0.000655556
0.000655552
0.000655567
0.000655315
0.000654838
0.000654232
0.00065356
0.000653071
0.000652554
0.000652097
0.000651793
0.000651295
0.000650928
0.000650346
0.000649629
0.000648804
0.000647698
0.000647351
0.000647309
0.000647728
0.000648438
0.000649303
0.000650355
0.00065164
0.000652503
0.000653088
0.000654148
0.000655269
0.000656165
0.000657081
0.000658214
0.000658565
0.000658201
0.000660444
0.000663721
0.000665556
0.000667108
0.000667397
0.000668215
0.000669974
0.0006712
0.000672113
0.000672899
0.000673578
0.000674192
0.000674747
0.000675257
0.000675698
0.00067608
0.000676432
0.000676757
0.000677062
0.000677347
0.000677623
0.000677895
0.000678181
0.000678471
0.00067875
0.000679013
0.00067926
0.000679487
0.000679692
0.000679856
0.000679986
0.000680083
0.000680161
0.000680217
0.000680253
0.000680243
0.000680193
0.000680079
0.0006799
0.000680461
0.000681437
0.000681944
0.000682224
0.000682425
0.000682583
0.000682739
0.000682894
0.000683074
0.000683273
0.000683502
0.000683741
0.000683994
0.000684243
0.000684497
0.000684744
0.000684987
0.000685218
0.000685442
0.000685649
0.00068585
0.000686027
0.000686202
0.000686342
0.000686499
0.000686613
0.00068677
0.00068688
0.000687044
0.000687168
0.000687328
0.000687467
0.000687619
0.000687774
0.000687913
0.000688083
0.000688215
0.000688398
0.000688538
0.000688732
0.000688892
0.000689098
0.000689279
0.000689497
0.000689699
0.000689931
0.000690157
0.000690406
0.000690682
0.000690982
0.000691334
0.00069169
0.000692098
0.0006925
0.00069293
0.000693415
0.000693763
0.000694295
0.000694461
0.00069493
0.000696156
0.000697194
0.000697661
0.000698461
0.000698856
0.00069957
0.000700204
0.000700309
0.000701431
0.000698261
0.000699968
0.000704632
0.000705092
0.000706231
0.000706819
0.000707568
0.000708241
0.000708946
0.000709636
0.000710327
0.000711003
0.000711672
0.000712325
0.000712969
0.000713595
0.000714212
0.000714816
0.000715412
0.000715995
0.000716574
0.000717143
0.000717713
0.000718283
0.000718858
0.000719439
0.000720044
0.000720618
0.000721279
0.000721803
0.000722533
0.000722982
0.00072384
0.000724138
0.000725185
0.000725352
0.000726552
0.000726784
0.000727817
0.000728232
0.000728254
0.000728713
0.000727387
0.000727768
0.000726592
0.000726277
0.000725517
0.000724934
0.000724288
0.000723681
0.000723084
0.000722517
0.00072197
0.000721443
0.000720942
0.000720421
0.000720001
0.000719435
0.000719103
0.000718429
0.000718229
0.000717441
0.000717374
0.000716527
0.000716257
0.000717584
0.000711611
0.000712171
0.000715969
0.000713036
0.000712486
0.000711943
0.000711035
0.000710684
0.000710055
0.000709628
0.000709127
0.000708666
0.000708216
0.000707781
0.000707337
0.000706889
0.000706425
0.000705929
0.00070544
0.000704949
0.000704446
0.00070394
0.000703418
0.000702882
0.000702329
0.000701766
0.000701194
0.000700618
0.000700039
0.000699458
0.000698876
0.000698294
0.000697713
0.000697134
0.000696559
0.00069599
0.000695426
0.000694868
0.000694317
0.000693774
0.000693238
0.000692713
0.000692198
0.000691692
0.000691198
0.000690715
0.000690244
0.000689782
0.000689331
0.000688891
0.000688461
0.000688034
0.000687617
0.000687204
0.0006868
0.000686399
0.000686008
0.000685622
0.000685244
0.00068487
0.000684508
0.000684147
0.00068379
0.000683434
0.000683083
0.000682737
0.000682393
0.000682043
0.00068171
0.000681336
0.000681043
0.000680604
0.000680369
0.000679791
0.00067968
0.000678917
0.000678945
0.000678054
0.000677793
0.000677227
0.000675363
0.000678824
0.00067401
0.000674573
0.000679066
0.000673676
0.000673151
0.000672165
0.000671012
0.00067075
0.000669807
0.000669654
0.000668959
0.000668839
0.000668126
0.000668126
0.000667186
0.000667222
0.000666117
0.000665081
0.000668195
0.000663282
0.000663853
0.000668015
0.000663339
0.000662192
0.000661359
0.00065996
0.000659524
0.000658718
0.000658204
0.000657696
0.000657072
0.000656803
0.000655995
0.000655937
0.000654885
0.000655037
0.000653755
0.000654005
0.000652538
0.000652673
0.000651156
0.000651039
0.000650313
0.000649999
0.000651125
0.000651882
0.000657639
0.000660159
0.000658316
0.000644183
0.000613754
0.000527987
0.000437661
0.000393432
0.000346556
0.000300502
0.000239379
0.000162257
9.46281e-05
8.64995e-05
0.000139918
0.000227885
0.000113262
0.000116867
0.000122871
0.000130604
0.000141037
0.000153258
0.000166816
0.000181369
0.00019698
0.000213064
0.000229662
0.0002459
0.000261698
0.000276673
0.000290944
0.00030475
0.00031836
0.000332425
0.000347301
0.000363129
0.000380381
0.000398998
0.000417184
0.000435426
0.000454169
0.000473829
0.000494737
0.000516321
0.000537319
0.000557723
0.000577437
0.000596381
0.000614477
0.000631666
0.00064789
0.000663126
0.000677366
0.000690631
0.000702944
0.000714357
0.000724917
0.000734693
0.000743736
0.000752106
0.000759836
0.00076698
0.000773604
0.000779747
0.000785406
0.000790632
0.000795434
0.000799873
0.000803948
0.000807712
0.000811146
0.000814276
0.000817062
0.000819532
0.000821656
0.000823471
0.000824977
0.000826237
0.000827257
0.000828113
0.0008288
0.000829383
0.000829824
0.00083016
0.000830315
0.000830312
0.000830071
0.000829644
0.000828976
0.000828169
0.000827207
0.000826234
0.000825249
0.000824393
0.00082363
0.000823059
0.000822579
0.00082223
0.000821839
0.000821422
0.000820798
0.000820017
0.000818934
0.000817669
0.000816107
0.000814431
0.000812565
0.000810728
0.000808833
0.000807078
0.00080533
0.000803767
0.000802192
0.000800762
0.000799251
0.000797796
0.000796206
0.000794625
0.000792886
0.00079118
0.000789308
0.000787528
0.00078556
0.000783723
0.000781708
0.000779448
0.000777325
0.000775007
0.000772628
0.000770278
0.000768058
0.000765938
0.000763674
0.000761491
0.00075915
0.000757135
0.000755175
0.000752999
0.000750684
0.000748674
0.00074668
0.000744757
0.000742699
0.000740611
0.000738447
0.000736799
0.000734947
0.000732993
0.000730863
0.000728951
0.000727152
0.000725456
0.000723539
0.000721782
0.000720385
0.000719012
0.000717028
0.000715485
0.000714012
0.000712673
0.000711068
0.000709676
0.000708154
0.000706733
0.000705334
0.00070391
0.000702641
0.000701268
0.000699768
0.000698392
0.000697181
0.000695733
0.000694359
0.000693015
0.000691743
0.00069046
0.000689124
0.000687932
0.000686962
0.000685942
0.000684824
0.000683641
0.000682569
0.000681642
0.000680676
0.000679653
0.000678686
0.000677648
0.000676651
0.000675841
0.00067505
0.000674074
0.000673174
0.000672472
0.000671522
0.000670863
0.000670347
0.000669483
0.000668894
0.000668411
0.00066766
0.000666736
0.00066627
0.000665968
0.000665451
0.000665189
0.000664784
0.000664275
0.000663969
0.000663363
0.000662822
0.000662793
0.000662177
0.000661373
0.000661177
0.000661152
0.000660718
0.000660371
0.000660118
0.000659981
0.000659968
0.000659964
0.000659859
0.000659799
0.000659729
0.000659585
0.000659594
0.000659451
0.000659453
0.000659476
0.000659579
0.00066014
0.000660013
0.000660103
0.000659886
0.000659782
0.000659764
0.000659674
0.000659608
0.000659871
0.000660424
0.000660527
0.000660709
0.000661164
0.00066157
0.000661569
0.0006624
0.000664172
0.000663447
0.000661604
0.000661869
0.000662017
0.000663518
0.000664361
0.000663958
0.000664204
0.000664804
0.000665488
0.000666174
0.000666903
0.000667567
0.000668279
0.000668947
0.000669612
0.000670218
0.000670796
0.000671352
0.000671897
0.000672432
0.000672955
0.000673442
0.000673904
0.000674364
0.000674815
0.000675254
0.000675679
0.00067609
0.000676499
0.000676913
0.000677324
0.000677735
0.000678137
0.000678528
0.000678963
0.000679378
0.000679977
0.000680961
0.000680819
0.00068026
0.000680503
0.000680878
0.000681297
0.000681732
0.000682172
0.000682643
0.000683103
0.000683554
0.000683983
0.000684408
0.000684847
0.000685303
0.000685771
0.000686252
0.000686734
0.000687231
0.000687721
0.000688222
0.000688703
0.000689201
0.000689667
0.000690178
0.000690642
0.000691177
0.00069165
0.000692195
0.000692671
0.000693209
0.000693697
0.000694243
0.000694761
0.000695317
0.000695868
0.000696428
0.000697009
0.000697574
0.000698173
0.000698751
0.000699362
0.000699948
0.000700566
0.000701156
0.000701776
0.000702378
0.000703
0.000703626
0.000704199
0.000704792
0.000705325
0.000705943
0.000706458
0.000707095
0.000707603
0.000708105
0.000708742
0.000709079
0.000709953
0.000710539
0.000710251
0.000710333
0.000711184
0.000711575
0.000712401
0.000712705
0.00071322
0.000713854
0.000712575
0.00071646
0.000716632
0.000714242
0.000715374
0.000715719
0.000716456
0.000717104
0.000717734
0.000718385
0.000718993
0.000719652
0.000720276
0.000720939
0.000721568
0.000722234
0.000722861
0.000723528
0.000724145
0.000724797
0.000725379
0.000725987
0.000726523
0.00072709
0.000727582
0.000728121
0.000728592
0.000729111
0.000729622
0.000730131
0.000730751
0.000731159
0.000731842
0.000732078
0.000732867
0.000732845
0.000733787
0.000733513
0.000734386
0.000734002
0.000734439
0.000734498
0.000734304
0.000735281
0.000734832
0.00073547
0.000735432
0.000735687
0.000735818
0.000735985
0.000736166
0.000736319
0.000736414
0.000736523
0.000736516
0.000736535
0.000736462
0.000736299
0.000736245
0.000735891
0.000735962
0.000735397
0.000735616
0.000734736
0.000735276
0.000734722
0.00073119
0.000735928
0.000734931
0.000730817
0.000733472
0.000732836
0.000732309
0.000732361
0.000731964
0.000731908
0.000731683
0.000731574
0.000731482
0.000731308
0.000731068
0.000730763
0.0007304
0.000730016
0.000729622
0.000729165
0.000728714
0.000728222
0.00072773
0.000727199
0.000726658
0.000726077
0.000725493
0.000724896
0.000724303
0.000723712
0.000723127
0.000722541
0.00072196
0.000721378
0.000720806
0.000720242
0.000719689
0.000719145
0.000718612
0.000718082
0.000717564
0.000717058
0.000716559
0.000716081
0.000715609
0.000715162
0.000714719
0.000714306
0.000713893
0.00071351
0.000713111
0.000712741
0.000712357
0.000712004
0.000711634
0.000711299
0.000710947
0.000710633
0.0007103
0.000710012
0.000709701
0.000709425
0.00070913
0.000708868
0.000708585
0.000708337
0.000708035
0.000707792
0.000707475
0.000707175
0.000706854
0.000706455
0.000706206
0.000705649
0.000705484
0.000704628
0.000704589
0.000703439
0.000703635
0.000702559
0.000702614
0.000703939
0.000696892
0.000701406
0.00070091
0.000695755
0.000700354
0.000699184
0.000698755
0.000698746
0.000698167
0.000698222
0.000697621
0.000697572
0.000696784
0.000696671
0.000695559
0.000695627
0.00069408
0.000694524
0.000694763
0.000687818
0.000691845
0.000690934
0.000685644
0.000689269
0.000688251
0.00068722
0.000687024
0.000686173
0.000685776
0.000685138
0.000684523
0.00068401
0.000683018
0.00068268
0.000681449
0.000681333
0.000679725
0.000679847
0.000677928
0.000678281
0.000676254
0.000676863
0.000675219
0.000675606
0.000674859
0.000674524
0.000673668
0.000667106
0.000654234
0.000644886
0.000625508
0.000612368
0.00061051
0.000618319
0.000615179
0.00060475
0.000586005
0.000542841
0.000513136
0.000437375
0.000250586
0.000191897
0.000267536
0.000111177
0.000111671
0.00011283
0.00011419
0.000115731
0.000117353
0.000119082
0.000120842
0.000122738
0.00012458
0.000126521
0.000128443
0.000130204
0.000131857
0.000133418
0.000134945
0.000136534
0.000138227
0.000140098
0.00014221
0.000144636
0.000147459
0.000150694
0.00015439
0.000158605
0.00016344
0.000169031
0.000175469
0.000182834
0.000191247
0.000200828
0.000211642
0.000223815
0.000236497
0.000249435
0.000262574
0.00027588
0.000289302
0.00030281
0.000316362
0.000329938
0.000343482
0.000357
0.000370484
0.00038395
0.000397386
0.000410546
0.000423408
0.000435951
0.000448156
0.000460012
0.000471517
0.000482678
0.000493504
0.000503998
0.000514152
0.000523953
0.000533375
0.000542381
0.000550949
0.000559061
0.00056674
0.000574005
0.000580864
0.00058735
0.000593494
0.000599344
0.00060492
0.000610255
0.000615335
0.000620168
0.000624721
0.000628987
0.000632935
0.000636578
0.000639905
0.000642962
0.000645767
0.00064838
0.000650823
0.000653157
0.000655384
0.000657538
0.000659586
0.000661545
0.000663369
0.000665067
0.000666592
0.000667963
0.000669125
0.000670091
0.000670821
0.000671343
0.000671648
0.000671775
0.000671737
0.000671552
0.000671149
0.000670549
0.000669817
0.000668971
0.000668094
0.0006672
0.000666336
0.000665496
0.000664688
0.000663825
0.000662958
0.00066218
0.000661248
0.000660344
0.000659613
0.000658596
0.000657244
0.000656198
0.000654749
0.000653428
0.000652019
0.000650792
0.000649563
0.000648524
0.000646897
0.000645452
0.000644005
0.000642792
0.00064124
0.000639864
0.000638159
0.000636803
0.000635378
0.000634243
0.000632717
0.000631634
0.000630191
0.000629062
0.000627986
0.000626814
0.000625645
0.000624923
0.000623975
0.000622728
0.000621637
0.000620859
0.00061997
0.000619097
0.000618166
0.000617406
0.000616594
0.000615922
0.000615089
0.000614527
0.000613799
0.000613101
0.000612263
0.000611764
0.000610915
0.000610259
0.000609662
0.00060905
0.000608342
0.000607593
0.000607067
0.00060662
0.000606115
0.000605727
0.000605125
0.000604742
0.000604394
0.000604167
0.000603712
0.000603438
0.000603046
0.00060276
0.000602476
0.00060239
0.000602128
0.000601924
0.000601889
0.000601556
0.000601532
0.000601748
0.000601564
0.000601655
0.000602011
0.000601982
0.000601566
0.000601577
0.000602015
0.000602168
0.000602681
0.000602964
0.000603118
0.000603518
0.000603657
0.000603868
0.000604709
0.000604928
0.00060491
0.000605572
0.000606099
0.00060619
0.000606274
0.000606482
0.000606879
0.000607329
0.000608028
0.000608593
0.000609221
0.000609804
0.000610298
0.000610968
0.000611481
0.000612166
0.000612758
0.000613644
0.000614733
0.000615475
0.000616094
0.000616608
0.000616894
0.00061728
0.000617561
0.000617641
0.000618029
0.000618789
0.00061923
0.000619506
0.000620025
0.00062058
0.000620961
0.000622009
0.00062418
0.000624107
0.000622906
0.000622728
0.000622715
0.000623686
0.000624492
0.000624335
0.000624581
0.000625006
0.000625593
0.000626173
0.000626822
0.00062747
0.000628184
0.000628897
0.00062967
0.000630421
0.000631174
0.000631923
0.000632678
0.000633428
0.000634173
0.000634888
0.000635583
0.000636256
0.000636921
0.000637561
0.00063819
0.00063879
0.000639389
0.00063998
0.000640571
0.000641154
0.000641742
0.000642305
0.0006429
0.000643521
0.000644298
0.000645329
0.000645769
0.000645714
0.000645951
0.000646416
0.000646922
0.000647504
0.000648108
0.000648747
0.000649397
0.000650065
0.000650721
0.00065139
0.000652064
0.000652756
0.000653467
0.000654192
0.000654933
0.000655683
0.000656441
0.000657202
0.000657967
0.000658738
0.00065951
0.000660297
0.000661078
0.000661889
0.000662681
0.000663508
0.000664309
0.000665143
0.00066596
0.000666815
0.000667674
0.000668557
0.000669465
0.000670373
0.000671325
0.000672259
0.000673241
0.000674205
0.000675206
0.000676194
0.000677206
0.000678207
0.000679229
0.000680242
0.000681272
0.000682298
0.000683335
0.000684363
0.000685327
0.0006863
0.00068721
0.000688141
0.000689034
0.000689857
0.000690795
0.000691572
0.000692676
0.000693833
0.000694198
0.000694584
0.000695456
0.000696008
0.000696963
0.0006975
0.000698238
0.000699141
0.000698949
0.00070201
0.000702829
0.000701411
0.000702297
0.000702706
0.00070342
0.000704101
0.00070483
0.000705557
0.000706284
0.000707
0.000707719
0.000708431
0.000709148
0.000709859
0.000710577
0.00071129
0.000712002
0.000712699
0.000713384
0.000714043
0.00071468
0.000715295
0.000715891
0.000716468
0.000717041
0.000717568
0.000718137
0.000718628
0.000719202
0.000719656
0.0007203
0.000720623
0.000721385
0.000721452
0.000722324
0.000722131
0.000722894
0.000722574
0.00072289
0.000723014
0.00072283
0.000723811
0.000723481
0.000724054
0.000724153
0.000724425
0.000724602
0.000724773
0.000724923
0.000725086
0.000725241
0.000725381
0.000725504
0.000725583
0.000725679
0.000725675
0.000725731
0.000725607
0.000725706
0.000725428
0.000725689
0.000725178
0.000725669
0.000725181
0.000722817
0.000726093
0.000725795
0.000722685
0.000724509
0.000724254
0.000723898
0.000723981
0.000723687
0.000723599
0.000723434
0.000723329
0.000723198
0.000723032
0.000722811
0.000722572
0.000722308
0.000722012
0.00072172
0.000721404
0.000721049
0.000720674
0.000720254
0.000719802
0.00071932
0.000718813
0.000718287
0.000717752
0.000717209
0.000716666
0.000716123
0.000715582
0.000715043
0.000714505
0.000713971
0.000713445
0.000712927
0.000712417
0.000711923
0.000711442
0.000710978
0.000710531
0.000710103
0.000709691
0.000709303
0.000708931
0.000708581
0.00070824
0.00070792
0.00070761
0.000707309
0.000707013
0.00070673
0.000706454
0.000706188
0.000705932
0.000705686
0.000705455
0.000705231
0.000705024
0.000704827
0.000704637
0.000704449
0.000704269
0.000704082
0.000703902
0.000703701
0.000703495
0.000703274
0.000703027
0.00070278
0.000702447
0.000702169
0.000701723
0.000701472
0.000700812
0.000700675
0.00069975
0.000699826
0.000698914
0.000698919
0.000699965
0.000695344
0.000698683
0.000697853
0.000693269
0.000696569
0.000695714
0.000695178
0.000694917
0.000694043
0.000693715
0.00069292
0.000692467
0.000691587
0.000691118
0.000690077
0.00068985
0.000688534
0.000688784
0.000688782
0.000684131
0.000686778
0.000685555
0.000680862
0.000683086
0.000682269
0.000681112
0.000680625
0.000679502
0.000678677
0.000677716
0.000676763
0.000675953
0.000674888
0.000674208
0.000672952
0.000672529
0.000671017
0.000670825
0.000669114
0.00066912
0.000667381
0.000667586
0.000666094
0.000665928
0.000664825
0.00066353
0.000661445
0.000656845
0.000649953
0.000637717
0.000629974
0.000614776
0.000629755
0.00064082
0.00064775
0.000653392
0.000653767
0.000638415
0.000625185
0.000610069
0.000481136
0.000296331
0.000313984
0.00011101
0.000111214
0.000111803
0.000112473
0.00011318
0.000113865
0.00011443
0.000114807
0.000115025
0.000115159
0.000115198
0.000115175
0.000115075
0.000114905
0.000114672
0.000114378
0.000114048
0.000113692
0.000113327
0.000112946
0.000112572
0.000112216
0.000111887
0.000111597
0.000111369
0.00011123
0.000111215
0.000111364
0.000111711
0.000112299
0.000113169
0.000114354
0.000115895
0.000117794
0.000120047
0.000122652
0.000125607
0.000128912
0.000132576
0.000136612
0.000141065
0.000146002
0.000151476
0.000157546
0.000164269
0.000171697
0.000179725
0.000187986
0.000196455
0.000205109
0.000213928
0.000222909
0.000232068
0.000241405
0.000250959
0.000260716
0.00027068
0.000280811
0.000291049
0.000301321
0.000311572
0.000321612
0.000331405
0.000340941
0.000350224
0.000359287
0.000368165
0.000376873
0.000385453
0.000393882
0.000402158
0.000410244
0.000418106
0.000425692
0.000432985
0.00043993
0.000446556
0.00045285
0.000458861
0.000464616
0.000470189
0.000475605
0.000480938
0.000486166
0.000491332
0.000496386
0.000501326
0.000506093
0.000510696
0.000515044
0.000519135
0.000522871
0.000526273
0.000529273
0.000531936
0.000534194
0.000536168
0.000537796
0.000539206
0.000540402
0.000541479
0.000542491
0.000543482
0.000544475
0.000545507
0.000546495
0.000547357
0.000548011
0.000548817
0.000549634
0.000550457
0.000551498
0.000552304
0.000552727
0.000553302
0.000553524
0.000554028
0.000554324
0.000554759
0.000554885
0.000555121
0.000554782
0.000554588
0.000554257
0.0005541
0.000553748
0.000553564
0.000553061
0.000552798
0.000552297
0.000552096
0.00055163
0.000551523
0.000551125
0.000550981
0.000550718
0.00055048
0.000550085
0.000550089
0.00054984
0.000549584
0.000549308
0.000549377
0.0005492
0.000549131
0.00054892
0.000548941
0.000548898
0.000548962
0.000548907
0.000548979
0.000549015
0.000548992
0.000548913
0.000549072
0.000548986
0.000549038
0.000549178
0.00054925
0.000549311
0.000549315
0.000549464
0.00054969
0.000549834
0.000550058
0.000550266
0.000550442
0.000550721
0.00055114
0.000551329
0.000551615
0.000551916
0.000552212
0.00055256
0.000553091
0.000553496
0.000553895
0.00055451
0.000554894
0.000555451
0.000556248
0.00055673
0.000557435
0.000558376
0.000559087
0.000559477
0.000560129
0.000561096
0.000561884
0.000562941
0.00056396
0.000564797
0.000565907
0.000566717
0.00056761
0.000569102
0.000570141
0.000570955
0.00057229
0.000573455
0.000574334
0.000575116
0.000576007
0.000577008
0.000578035
0.000579243
0.000580387
0.00058161
0.000582809
0.000583882
0.000585076
0.000586204
0.000587415
0.000588666
0.000590025
0.000591605
0.000592903
0.000594083
0.000595186
0.000596162
0.000597117
0.000597955
0.000598538
0.000599315
0.000600359
0.000601185
0.000601838
0.000602625
0.000603474
0.000604156
0.000605319
0.000607462
0.000608177
0.000607711
0.000607827
0.000608083
0.000609025
0.000609899
0.000610101
0.000610574
0.000611236
0.000611893
0.000612581
0.000613282
0.000614022
0.000614776
0.00061558
0.000616466
0.000617363
0.000618284
0.000619212
0.000620153
0.000621102
0.00062205
0.000622969
0.000623877
0.000624748
0.000625607
0.000626428
0.000627234
0.000628006
0.000628761
0.000629504
0.000630243
0.00063097
0.000631702
0.000632418
0.000633158
0.000633942
0.000634829
0.000635943
0.000636699
0.000637021
0.000637516
0.00063818
0.000638878
0.000639646
0.000640442
0.00064128
0.00064214
0.000643036
0.000643943
0.00064487
0.000645816
0.000646779
0.000647769
0.000648771
0.000649801
0.000650839
0.000651887
0.000652941
0.000654
0.000655067
0.000656139
0.000657229
0.000658318
0.00065943
0.000660534
0.000661663
0.000662781
0.000663922
0.000665061
0.000666225
0.000667403
0.000668603
0.000669832
0.000671075
0.000672356
0.000673643
0.000674967
0.000676292
0.000677646
0.000679001
0.000680378
0.000681755
0.000683147
0.000684538
0.000685937
0.000687335
0.000688742
0.000690148
0.000691499
0.00069284
0.000694121
0.000695381
0.000696624
0.000697799
0.000699061
0.000700206
0.000701583
0.000702994
0.000703877
0.000704647
0.000705771
0.000706638
0.000707797
0.000708644
0.000709664
0.000710788
0.000711135
0.00071402
0.000715225
0.000715068
0.000716002
0.000716664
0.000717525
0.000718365
0.000719257
0.000720138
0.000721028
0.000721899
0.000722774
0.000723634
0.000724499
0.000725346
0.0007262
0.000727033
0.000727868
0.000728673
0.000729471
0.00073023
0.000730973
0.00073168
0.000732371
0.00073303
0.00073369
0.000734294
0.000734932
0.000735479
0.000736102
0.000736607
0.000737272
0.000737678
0.00073841
0.000738641
0.000739458
0.000739466
0.000740216
0.000740026
0.000740354
0.000740377
0.000740333
0.000740933
0.000740811
0.0007412
0.000741273
0.000741475
0.000741598
0.000741723
0.000741816
0.000741913
0.000742013
0.000742099
0.000742192
0.000742238
0.000742316
0.000742309
0.000742369
0.000742283
0.000742385
0.000742219
0.000742409
0.000742061
0.000742401
0.000741988
0.000740424
0.000742778
0.000742579
0.000740736
0.000741844
0.000741518
0.000741175
0.000741072
0.000740784
0.000740632
0.000740441
0.000740276
0.000740078
0.000739861
0.00073961
0.000739342
0.000739059
0.000738741
0.000738432
0.000738108
0.000737737
0.000737353
0.00073692
0.000736454
0.000735952
0.000735427
0.000734883
0.000734331
0.000733774
0.000733215
0.000732657
0.000732103
0.000731552
0.000731009
0.000730474
0.000729951
0.000729441
0.000728943
0.00072847
0.000728018
0.000727591
0.000727191
0.000726818
0.000726468
0.00072615
0.000725851
0.000725578
0.000725315
0.000725074
0.00072484
0.000724621
0.000724401
0.000724198
0.000723997
0.000723809
0.000723627
0.000723459
0.000723302
0.000723158
0.000723023
0.000722902
0.00072278
0.00072266
0.000722536
0.000722402
0.000722258
0.000722097
0.00072191
0.000721711
0.000721469
0.000721221
0.000720888
0.000720577
0.000720129
0.000719823
0.000719219
0.000718954
0.00071811
0.00071795
0.000717039
0.000716878
0.000717337
0.000713737
0.000715791
0.000715001
0.00071203
0.000713992
0.000712939
0.00071222
0.000711591
0.000710604
0.000709894
0.000708899
0.000708115
0.000707048
0.000706298
0.00070517
0.000704582
0.000703236
0.000702966
0.000702669
0.00069882
0.000700204
0.00069898
0.000695664
0.000696713
0.000695585
0.000694263
0.000693285
0.000691979
0.000690864
0.000689676
0.000688477
0.000687412
0.000686156
0.000685204
0.000683867
0.00068308
0.000681581
0.000680983
0.000679321
0.000678926
0.000677178
0.000676992
0.000675322
0.000674828
0.000673317
0.000672161
0.000669575
0.000664525
0.000658258
0.000648233
0.000642844
0.000631311
0.000643452
0.000655723
0.000665135
0.000674295
0.000682355
0.000682364
0.000678659
0.000689871
0.000634336
0.000452885
0.000366684
0.000111039
0.000111224
0.000111756
0.000112342
0.000112927
0.000113474
0.00011392
0.000114277
0.000114514
0.000114613
0.000114576
0.000114467
0.000114277
0.00011403
0.000113729
0.000113382
0.00011299
0.000112561
0.000112098
0.000111606
0.000111087
0.000110545
0.000109987
0.000109417
0.000108842
0.000108267
0.000107701
0.000107154
0.000106634
0.000106153
0.000105718
0.000105337
0.000105022
0.000104778
0.000104613
0.000104536
0.000104551
0.000104667
0.000104904
0.000105274
0.000105782
0.000106432
0.000107236
0.000108217
0.0001094
0.00011081
0.000112467
0.000114365
0.000116495
0.000118859
0.000121451
0.000124283
0.000127372
0.000130739
0.000134421
0.000138433
0.000142789
0.000147505
0.000152593
0.000158038
0.000163851
0.000169984
0.00017643
0.000183171
0.000190183
0.000197449
0.000204961
0.000212619
0.000220379
0.000228247
0.000236234
0.000244318
0.000252474
0.000260654
0.000268837
0.000276955
0.000285012
0.000292969
0.00030084
0.000308613
0.00031632
0.000323959
0.000331583
0.000339161
0.000346725
0.000354223
0.000361655
0.000368961
0.000376159
0.000383161
0.000389957
0.000396417
0.000402569
0.000408352
0.000413831
0.00041892
0.000423731
0.000428178
0.000432407
0.000436355
0.000440155
0.000443789
0.000447314
0.000450764
0.000454158
0.000457412
0.000460415
0.000463247
0.000466088
0.000468825
0.000471504
0.000474219
0.000476716
0.000478959
0.000481192
0.000483331
0.00048539
0.000487339
0.000489179
0.000490697
0.00049206
0.00049304
0.000493937
0.000494809
0.000495684
0.000496582
0.000497463
0.000498127
0.000498835
0.000499409
0.00050011
0.00050068
0.000501337
0.000501974
0.000502675
0.00050332
0.000503913
0.000504404
0.000505138
0.000505709
0.000506284
0.000506792
0.000507555
0.000508115
0.000508784
0.000509322
0.000509988
0.000510585
0.000511279
0.000511876
0.000512519
0.000513148
0.000513713
0.000514256
0.000514967
0.000515556
0.000516186
0.000516881
0.000517531
0.000518174
0.000518761
0.000519435
0.000520222
0.000520961
0.000521725
0.000522466
0.000523161
0.00052394
0.00052482
0.000525573
0.00052639
0.000527189
0.000528024
0.00052891
0.000529923
0.00053088
0.000531797
0.00053288
0.000533832
0.000534908
0.000536198
0.000537297
0.000538504
0.000539889
0.000541192
0.000542247
0.000543489
0.000544932
0.000546269
0.000547785
0.000549356
0.000550789
0.000552459
0.000553866
0.000555331
0.000557254
0.000558989
0.000560497
0.000562307
0.000564114
0.000565696
0.000567153
0.000568683
0.000570241
0.00057182
0.00057348
0.000575123
0.000576823
0.000578516
0.000580095
0.000581746
0.000583346
0.000584991
0.000586678
0.000588416
0.000590342
0.000592122
0.000593804
0.000595384
0.000596858
0.000598252
0.000599554
0.000600634
0.00060178
0.000603071
0.000604207
0.000605222
0.000606271
0.000607369
0.000608324
0.000609642
0.000611697
0.000612811
0.000613075
0.000613635
0.000614161
0.000615264
0.000616328
0.000616938
0.000617654
0.000618482
0.000619289
0.000620128
0.00062095
0.000621822
0.000622688
0.000623621
0.000624597
0.000625619
0.000626689
0.000627771
0.000628874
0.000629986