/*--------------------------------*- C++ -*----------------------------------*\
| =========                 |                                                 |
| \\      /  F ield         | foam-extend: Open Source CFD                    |
|  \\    /   O peration     | Version:     3.2                                |
|   \\  /    A nd           | Web:         http://www.foam-extend.org         |
|    \\/     M anipulation  | For copyright notice see file Copyright         |
\*---------------------------------------------------------------------------*/
FoamFile
{
    version     2.0;
    format      ascii;
    class       areaScalarField;
    location    "1790";
    object      tau;
}
// * * * * * * * * * * * * * * * * * * * * * * * * * * * * * * * * * * * * * //

dimensions      [1 1 2 0 0 0 0];

internalField   nonuniform List<scalar> 
550
(
0.0488574
0.0674697
0.0900952
0.116534
0.146147
0.177921
0.210649
0.242974
0.273702
0.301738
0.326367
0.347107
0.363839
0.376621
0.385727
0.3915
0.394386
0.394838
0.393322
0.390367
0.386285
0.381338
0.375758
0.369744
0.363476
0.357105
0.350753
0.344537
0.338534
0.332746
0.327178
0.321848
0.316767
0.311943
0.30738
0.303079
0.299038
0.295252
0.291713
0.288412
0.285335
0.28247
0.279799
0.277309
0.274985
0.272812
0.270781
0.268881
0.267105
0.265445
0.263895
0.262448
0.261096
0.259829
0.258636
0.257508
0.256436
0.255413
0.254436
0.253503
0.252612
0.251764
0.250959
0.250194
0.249466
0.248769
0.2481
0.247452
0.246821
0.246205
0.245603
0.245016
0.244446
0.243899
0.243376
0.242882
0.242415
0.241976
0.241558
0.241156
0.240763
0.240368
0.239963
0.239542
0.239098
0.238633
0.23815
0.237656
0.237159
0.236673
0.236204
0.235766
0.235358
0.234984
0.23464
0.234321
0.234021
0.233733
0.233446
0.233156
0.232854
0.232538
0.232204
0.231855
0.231491
0.231115
0.230733
0.230344
0.229934
0.229601
0.229196
0.228796
0.228367
0.227989
0.227533
0.227164
0.226745
0.226262
0.225806
0.225399
0.224917
0.224542
0.224046
0.223603
0.223184
0.222739
0.222294
0.221854
0.221338
0.220904
0.220431
0.220006
0.219545
0.219052
0.218587
0.218194
0.217703
0.217222
0.216844
0.216441
0.215942
0.215475
0.215043
0.214608
0.214166
0.213755
0.213327
0.212919
0.212451
0.211988
0.211563
0.211165
0.210687
0.210264
0.209826
0.209411
0.208983
0.208593
0.208222
0.207807
0.207392
0.206967
0.206565
0.206174
0.205803
0.205434
0.20504
0.20468
0.204322
0.203995
0.203657
0.203313
0.202943
0.202623
0.202279
0.201981
0.201726
0.201313
0.200996
0.20075
0.200363
0.200057
0.199811
0.199471
0.19918
0.199134
0.199002
0.198706
0.198476
0.198156
0.1979
0.197715
0.197413
0.197275
0.197105
0.196728
0.196552
0.196427
0.196113
0.195879
0.195879
0.195885
0.195809
0.195666
0.195485
0.195283
0.195137
0.194982
0.194846
0.194755
0.194606
0.194497
0.194323
0.194108
0.193862
0.193531
0.193427
0.193415
0.19354
0.193752
0.194011
0.194325
0.194709
0.194967
0.195142
0.195459
0.195794
0.196062
0.196336
0.196674
0.19678
0.196671
0.197341
0.198321
0.198869
0.199333
0.199419
0.199664
0.20019
0.200556
0.200829
0.201064
0.201266
0.20145
0.201615
0.201767
0.201899
0.202013
0.202118
0.202215
0.202306
0.202391
0.202474
0.202555
0.202641
0.202728
0.202811
0.202889
0.202963
0.203031
0.203092
0.203141
0.20318
0.203209
0.203232
0.203249
0.203259
0.203256
0.203242
0.203207
0.203154
0.203321
0.203613
0.203764
0.203848
0.203908
0.203955
0.204002
0.204048
0.204102
0.204161
0.20423
0.204302
0.204377
0.204451
0.204527
0.204601
0.204674
0.204743
0.20481
0.204872
0.204932
0.204985
0.205037
0.205079
0.205126
0.20516
0.205207
0.20524
0.205289
0.205326
0.205374
0.205416
0.205461
0.205508
0.20555
0.205601
0.20564
0.205695
0.205737
0.205795
0.205843
0.205904
0.205958
0.206024
0.206084
0.206153
0.206221
0.206295
0.206378
0.206467
0.206573
0.206679
0.206801
0.206921
0.207049
0.207194
0.207298
0.207457
0.207506
0.207646
0.208013
0.208323
0.208462
0.208701
0.208819
0.209032
0.209221
0.209252
0.209588
0.20864
0.20915
0.210543
0.210681
0.211021
0.211197
0.21142
0.211621
0.211831
0.212038
0.212244
0.212446
0.212646
0.212841
0.213033
0.21322
0.213404
0.213585
0.213763
0.213937
0.21411
0.21428
0.21445
0.214621
0.214793
0.214966
0.215147
0.215319
0.215517
0.215673
0.215892
0.216026
0.216282
0.216372
0.216685
0.216735
0.217093
0.217163
0.217472
0.217596
0.217602
0.21774
0.217343
0.217457
0.217106
0.217012
0.216785
0.216611
0.216418
0.216236
0.216058
0.215889
0.215726
0.215568
0.215418
0.215263
0.215137
0.214968
0.214869
0.214668
0.214608
0.214373
0.214353
0.2141
0.214019
0.214416
0.212631
0.212798
0.213933
0.213057
0.212892
0.21273
0.212458
0.212353
0.212165
0.212038
0.211888
0.21175
0.211616
0.211485
0.211353
0.211218
0.21108
0.210931
0.210785
0.210639
0.210488
0.210337
0.210181
0.21002
0.209855
0.209686
0.209515
0.209343
0.20917
0.208996
0.208823
0.208648
0.208475
0.208302
0.20813
0.20796
0.207792
0.207625
0.20746
0.207298
0.207138
0.206982
0.206828
0.206677
0.206529
0.206385
0.206245
0.206107
0.205972
0.205841
0.205712
0.205585
0.20546
0.205337
0.205216
0.205097
0.20498
0.204865
0.204752
0.20464
0.204532
0.204424
0.204317
0.204211
0.204106
0.204003
0.2039
0.203796
0.203696
0.203585
0.203497
0.203366
0.203296
0.203123
0.20309
0.202862
0.202871
0.202605
0.202527
0.202358
0.201801
0.202835
0.201396
0.201565
0.202907
0.201296
0.201139
0.200845
0.2005
0.200421
0.200139
0.200093
0.199885
0.199849
0.199635
0.199635
0.199353
0.199364
0.199033
0.198723
0.199653
0.198185
0.198355
0.199598
0.198201
0.197858
0.197609
0.197191
0.19706
0.19682
0.196666
0.196514
0.196328
0.196248
0.196006
0.195989
0.195675
0.195721
0.195338
0.195413
0.194975
0.195016
0.194563
0.194528
0.194312
0.194219
0.194555
0.194782
0.196502
0.197255
0.196705
0.192482
0.18339
0.157763
0.130774
0.117558
0.103551
0.0897903
0.0715268
0.0484826
0.0282754
0.0258457
0.0418076
0.0680925
)
;

boundaryField
{
    inlet
    {
        type            calculated;
        value           uniform 0;
    }
    endWall
    {
        type            calculated;
        value           uniform 0;
    }
    sideWall
    {
        type            empty;
    }
}


// ************************************************************************* //
