/*--------------------------------*- C++ -*----------------------------------*\
| =========                 |                                                 |
| \\      /  F ield         | foam-extend: Open Source CFD                    |
|  \\    /   O peration     | Version:     3.2                                |
|   \\  /    A nd           | Web:         http://www.foam-extend.org         |
|    \\/     M anipulation  | For copyright notice see file Copyright         |
\*---------------------------------------------------------------------------*/
FoamFile
{
    version     2.0;
    format      ascii;
    class       areaScalarField;
    location    "1790";
    object      thetaC2B;
}
// * * * * * * * * * * * * * * * * * * * * * * * * * * * * * * * * * * * * * //

dimensions      [0 0 0 0 0 0 0];

internalField   nonuniform List<scalar> 
550
(
0.0466484
0.0466484
0.0466484
0.0466484
0.0466484
0.0466484
0.0466484
0.0466484
0.0466484
0.0466484
0.0466484
0.0466484
0.0466484
0.0466484
0.0466484
0.0466484
0.0466484
0.0466484
0.0466484
0.0466484
0.0466484
0.0466484
0.0466484
0.0466484
0.0466484
0.0466484
0.0466484
0.0466484
0.0466484
0.0466484
0.0466484
0.0466484
0.0466484
0.0466484
0.0466484
0.0466484
0.0466484
0.0466484
0.0466484
0.0466484
0.0466484
0.0466484
0.0466484
0.0466484
0.0466484
0.0466484
0.0466484
0.0466484
0.0466484
0.0466484
0.0466484
0.0466484
0.0466484
0.0466484
0.0466484
0.0466484
0.0466484
0.0466484
0.0466484
0.0466484
0.0466484
0.0466484
0.0466484
0.0466484
0.0466484
0.0466484
0.0466484
0.0466484
0.0466484
0.0466484
0.0466484
0.0466484
0.0466484
0.0466484
0.0466484
0.0466484
0.0466484
0.0466484
0.0466484
0.0466484
0.0466484
0.0466484
0.0466484
0.0466484
0.0466484
0.0466484
0.0466484
0.0466484
0.0466484
0.0466484
0.0466484
0.0466484
0.0466484
0.0466484
0.0466484
0.0466484
0.0466484
0.0466484
0.0466484
0.0466484
0.0466484
0.0466484
0.0466484
0.0466484
0.0466484
0.0466484
0.0466484
0.0466484
0.0466484
0.0465943
0.046968
0.0469579
0.0469535
0.0469729
0.0469556
0.0469425
0.0469401
0.0469381
0.0466484
0.180452
0.0469006
0.0469091
0.046893
0.0469071
0.046863
0.0468862
0.0468831
0.0468984
0.0466484
0.198049
0.0468578
0.0468608
0.0468567
0.19119
0.0468411
0.0468521
0.046842
0.0466484
0.046848
0.0468565
0.0468444
0.0466484
0.175667
0.0468411
0.04684
0.0468452
0.0468465
0.0468515
0.0468428
0.0468348
0.0468345
0.0468394
0.212177
0.0468241
0.0468181
0.0468164
0.0468109
0.0468127
0.046818
0.0468126
0.0468059
0.0467958
0.225339
0.0467852
0.0467841
0.0467822
0.0467734
0.0467711
0.046768
0.0467709
0.0467698
0.046766
0.242572
0.0467543
0.0467469
0.0467486
0.0467592
0.0467318
0.0467252
0.0467339
0.0467085
0.0467008
0.0467056
0.0466872
0.0466788
0.0467267
0.0467533
0.0467402
0.0467414
0.0467202
0.0467128
0.0467211
0.0467007
0.046718
0.0467265
0.0466851
0.0466905
0.046707
0.0466774
0.0466662
0.0467097
0.0467538
0.0467778
0.0467847
0.0467815
0.0467729
0.0467766
0.0467775
0.046782
0.0467968
0.0467968
0.0468056
0.0467982
0.0467805
0.0467545
0.0467075
0.0467147
0.0467435
0.0468054
0.046888
0.0469815
0.0470883
0.0472119
0.0475431
0.0473775
0.0474849
0.0476165
0.0478036
0.0478006
0.0479771
0.048101
0.0477435
0.0472812
0.0480756
0.0484852
0.0486983
0.0488152
0.0484738
0.0487356
0.048987
0.0490624
0.0491362
0.049193
0.0492459
0.049295
0.0493507
0.0494052
0.0494518
0.0494921
0.0495352
0.0495753
0.049612
0.0496477
0.0496772
0.0497117
0.0497484
0.0497861
0.0498193
0.0498526
0.0498844
0.0499168
0.0499461
0.0499656
0.0499842
0.0499954
0.0500101
0.0500165
0.05003
0.050025
0.0500076
0.0498997
0.0497817
0.0499913
0.0501773
0.0502052
0.0502392
0.0502486
0.0502677
0.0502794
0.0502984
0.0503164
0.0503405
0.0503675
0.0503974
0.0504284
0.0504609
0.0504944
0.0505287
0.0505622
0.0505956
0.0506279
0.05066
0.0506908
0.0507208
0.0507487
0.0507759
0.0508017
0.0508273
0.0508522
0.0508769
0.0509012
0.0509245
0.0509472
0.0509696
0.0509906
0.0510118
0.0510318
0.0510521
0.0510714
0.051091
0.0511098
0.051129
0.0511476
0.0511666
0.0511855
0.0512044
0.0512244
0.0512434
0.0512669
0.051287
0.0513163
0.0513363
0.0513736
0.051394
0.0514379
0.0514642
0.0515042
0.0515465
0.0515472
0.0516218
0.0514135
0.0515073
0.0518003
0.0518248
0.0518871
0.0519184
0.0519626
0.0520031
0.0520502
0.0520897
0.0520549
0.0501492
0.0522744
0.0523348
0.0523987
0.0524617
0.0525282
0.052593
0.052661
0.0527265
0.0527943
0.05286
0.0529261
0.0529903
0.0530535
0.0531149
0.0531742
0.0532323
0.053288
0.0533432
0.0533962
0.0534497
0.0535008
0.0535533
0.053604
0.053657
0.0537092
0.0537649
0.0538204
0.0538787
0.0539361
0.0539951
0.054054
0.0541137
0.0541736
0.0542344
0.0542951
0.0543573
0.0544196
0.0544837
0.0545481
0.0546146
0.0546812
0.0547496
0.0548176
0.0548867
0.0549548
0.0550233
0.0550903
0.0551572
0.0552223
0.0552871
0.0553501
0.055413
0.0554741
0.0555353
0.0555952
0.0556553
0.0557145
0.0557741
0.055833
0.0558924
0.055951
0.05601
0.0560688
0.0561216
0.0559674
0.052009
0.056311
0.05637
0.0564284
0.0564865
0.0565442
0.0566012
0.0566578
0.0567141
0.0567701
0.0568259
0.0568812
0.0569361
0.0569904
0.0570434
0.0570943
0.0571426
0.0571873
0.0578145
0.0578101
0.0578052
0.0577987
0.0577907
0.0577812
0.0577706
0.057759
0.0577471
0.0577347
0.0577221
0.0577092
0.0576962
0.0576832
0.0576703
0.0576576
0.0576454
0.0576335
0.057622
0.0576111
0.057601
0.0575915
0.0575831
0.0575757
0.0575693
0.0575643
0.0575606
0.0575582
0.0575569
0.0575568
0.0575579
0.0575602
0.0575631
0.0575668
0.0575713
0.0575766
0.0575824
0.0575891
0.0575962
0.057604
0.0576122
0.0576214
0.0576306
0.0576405
0.0576506
0.0576613
0.0576728
0.0576848
0.0576969
0.0577107
0.0577218
0.0577401
0.0577466
0.057771
0.0577666
0.0578025
0.0577833
0.0578317
0.0578022
0.0578267
0.0578255
0.0577137
0.0580324
0.0572732
0.0574143
0.0582231
0.0578093
0.0578128
0.0577768
0.0577266
0.0577536
0.0577224
0.0577596
0.0577509
0.0577922
0.0577829
0.0578359
0.0578082
0.0578655
0.0556834
0.0557608
0.0579891
0.0572465
0.0574089
0.0582707
0.0579193
0.0562407
0.0563219
0.0564038
0.0564853
0.0565716
0.0566502
0.0567437
0.0568179
0.0569257
0.0569883
0.0571206
0.0571694
0.0573344
0.0573767
0.057568
0.0576079
0.0578033
0.0578487
0.0580105
0.0580791
0.0581611
0.0582812
0.0582712
0.0590487
0.0594031
0.0599783
0.059206
0.0571714
0.0500894
0.0466484
0.0466484
0.0466484
0.0466484
0.0466484
0.0466484
0.0466484
0.0466484
0.0466484
0.0466484
)
;

boundaryField
{
    inlet
    {
        type            calculated;
        value           uniform 0;
    }
    endWall
    {
        type            calculated;
        value           uniform 0;
    }
    sideWall
    {
        type            empty;
    }
}


// ************************************************************************* //
