/*--------------------------------*- C++ -*----------------------------------*\
| =========                 |                                                 |
| \\      /  F ield         | foam-extend: Open Source CFD                    |
|  \\    /   O peration     | Version:     3.2                                |
|   \\  /    A nd           | Web:         http://www.foam-extend.org         |
|    \\/     M anipulation  | For copyright notice see file Copyright         |
\*---------------------------------------------------------------------------*/
FoamFile
{
    version     2.0;
    format      ascii;
    class       areaScalarField;
    location    "1790";
    object      thetaSS2;
}
// * * * * * * * * * * * * * * * * * * * * * * * * * * * * * * * * * * * * * //

dimensions      [0 0 0 0 0 0 0];

internalField   nonuniform List<scalar> 
550
(
0.514767
0.710867
0.949253
1.22781
1.53982
1.8746
2.21942
2.56
2.88376
3.17915
3.43864
3.65715
3.83344
3.96811
4.06406
4.12488
4.15529
4.16006
4.14408
4.11295
4.06993
4.01782
3.95903
3.89566
3.82963
3.7625
3.69557
3.63008
3.56683
3.50585
3.44718
3.39102
3.33749
3.28667
3.23859
3.19327
3.15069
3.11081
3.07352
3.03874
3.00632
2.97613
2.94799
2.92176
2.89727
2.87438
2.85297
2.83296
2.81424
2.79676
2.78043
2.76518
2.75094
2.73758
2.72501
2.71313
2.70184
2.69106
2.68076
2.67093
2.66155
2.65262
2.64413
2.63607
2.62839
2.62106
2.61401
2.60718
2.60053
2.59405
2.5877
2.58151
2.57551
2.56974
2.56423
2.55903
2.55411
2.54948
2.54508
2.54085
2.5367
2.53255
2.52828
2.52384
2.51916
2.51426
2.50917
2.50396
2.49874
2.49361
2.48867
2.48405
2.47976
2.47582
2.47219
2.46883
2.46567
2.46263
2.45962
2.45656
2.45337
2.45004
2.44652
2.44285
2.43901
2.43505
2.43102
2.42693
2.4226
2.4191
2.41483
2.41062
2.4061
2.40212
2.39731
2.39342
2.38901
2.38392
2.37912
2.37483
2.36975
2.3658
2.36057
2.3559
2.35149
2.3468
2.34211
2.33748
2.33204
2.32747
2.32249
2.318
2.31315
2.30795
2.30305
2.29892
2.29374
2.28867
2.2847
2.28044
2.27519
2.27027
2.26572
2.26113
2.25648
2.25214
2.24764
2.24334
2.2384
2.23353
2.22905
2.22485
2.21982
2.21536
2.21075
2.20638
2.20187
2.19775
2.19384
2.18948
2.18511
2.18062
2.17639
2.17227
2.16836
2.16447
2.16032
2.15653
2.15276
2.14932
2.14575
2.14212
2.13822
2.13485
2.13124
2.12809
2.12541
2.12106
2.11771
2.11512
2.11104
2.10782
2.10523
2.10165
2.09858
2.09809
2.0967
2.09359
2.09117
2.08779
2.0851
2.08315
2.07997
2.07851
2.07671
2.07274
2.07089
2.06958
2.06626
2.0638
2.0638
2.06386
2.06307
2.06156
2.05965
2.05753
2.05598
2.05436
2.05292
2.05196
2.05039
2.04924
2.04741
2.04515
2.04255
2.03907
2.03797
2.03784
2.03916
2.04139
2.04412
2.04743
2.05148
2.0542
2.05604
2.05938
2.06291
2.06573
2.06861
2.07218
2.07329
2.07214
2.07921
2.08953
2.09531
2.10019
2.1011
2.10368
2.10922
2.11308
2.11595
2.11843
2.12056
2.12249
2.12424
2.12584
2.12723
2.12843
2.12953
2.13056
2.13152
2.13242
2.13329
2.13414
2.13504
2.13596
2.13684
2.13766
2.13844
2.13916
2.1398
2.14032
2.14073
2.14103
2.14127
2.14145
2.14156
2.14153
2.14137
2.14101
2.14045
2.14221
2.14529
2.14688
2.14776
2.1484
2.14889
2.14938
2.14987
2.15044
2.15107
2.15179
2.15254
2.15334
2.15412
2.15492
2.1557
2.15647
2.15719
2.1579
2.15855
2.15919
2.15974
2.16029
2.16073
2.16123
2.16159
2.16209
2.16243
2.16295
2.16334
2.16385
2.16429
2.16476
2.16525
2.16569
2.16623
2.16664
2.16722
2.16766
2.16828
2.16878
2.16943
2.17
2.17069
2.17132
2.17205
2.17276
2.17355
2.17442
2.17536
2.17647
2.17759
2.17887
2.18014
2.18149
2.18302
2.18411
2.18579
2.18631
2.18778
2.19164
2.19491
2.19638
2.19889
2.20014
2.20238
2.20438
2.20471
2.20824
2.19825
2.20363
2.21831
2.21975
2.22334
2.22519
2.22754
2.22966
2.23188
2.23405
2.23622
2.23835
2.24046
2.24251
2.24454
2.24651
2.24845
2.25035
2.25223
2.25406
2.25588
2.25768
2.25947
2.26127
2.26308
2.26491
2.26682
2.26862
2.27071
2.27236
2.27466
2.27607
2.27877
2.27971
2.28301
2.28354
2.28732
2.28805
2.2913
2.29261
2.29268
2.29413
2.28995
2.29115
2.28745
2.28646
2.28407
2.28223
2.2802
2.27829
2.27641
2.27463
2.27291
2.27125
2.26967
2.26803
2.26671
2.26493
2.26388
2.26176
2.26113
2.25865
2.25844
2.25578
2.25493
2.25911
2.2403
2.24206
2.25402
2.24479
2.24305
2.24134
2.23848
2.23738
2.2354
2.23405
2.23247
2.23102
2.2296
2.22823
2.22683
2.22542
2.22396
2.2224
2.22085
2.21931
2.21772
2.21613
2.21448
2.21279
2.21105
2.20928
2.20747
2.20566
2.20384
2.20201
2.20018
2.19834
2.19651
2.19469
2.19288
2.19109
2.18931
2.18756
2.18582
2.18412
2.18243
2.18078
2.17916
2.17757
2.17601
2.17449
2.17301
2.17156
2.17014
2.16876
2.16741
2.16606
2.16475
2.16345
2.16218
2.16092
2.15969
2.15847
2.15728
2.15611
2.15497
2.15383
2.15271
2.15159
2.15048
2.14939
2.14831
2.14721
2.14616
2.14499
2.14406
2.14268
2.14195
2.14013
2.13978
2.13738
2.13747
2.13466
2.13384
2.13206
2.1262
2.13709
2.12193
2.12371
2.13785
2.12088
2.11923
2.11612
2.11248
2.11166
2.10869
2.1082
2.10601
2.10563
2.10338
2.10337
2.10041
2.10052
2.09704
2.09377
2.10357
2.0881
2.08989
2.10299
2.08827
2.08465
2.08203
2.07762
2.07625
2.07371
2.0721
2.07049
2.06853
2.06769
2.06514
2.06496
2.06165
2.06214
2.0581
2.05889
2.05428
2.05471
2.04994
2.04957
2.04729
2.04631
2.04985
2.05224
2.07037
2.0783
2.0725
2.02801
1.93222
1.66221
1.37784
1.2386
1.09103
0.94604
0.753613
0.510818
0.297913
0.272313
0.44049
0.71743
)
;

boundaryField
{
    inlet
    {
        type            calculated;
        value           uniform 0;
    }
    endWall
    {
        type            calculated;
        value           uniform 0;
    }
    sideWall
    {
        type            empty;
    }
}


// ************************************************************************* //
