/*--------------------------------*- C++ -*----------------------------------*\
| =========                 |                                                 |
| \\      /  F ield         | foam-extend: Open Source CFD                    |
|  \\    /   O peration     | Version:     3.2                                |
|   \\  /    A nd           | Web:         http://www.foam-extend.org         |
|    \\/     M anipulation  | For copyright notice see file Copyright         |
\*---------------------------------------------------------------------------*/
FoamFile
{
    version     2.0;
    format      ascii;
    class       areaScalarField;
    location    "1790";
    object      totH;
}
// * * * * * * * * * * * * * * * * * * * * * * * * * * * * * * * * * * * * * //

dimensions      [0 0 0 0 0 0 0];

internalField   nonuniform List<scalar> 
550
(
0
5e-11
-5e-11
0
-5e-10
0
5e-10
0
0
5e-10
0
5.42101e-20
-5e-10
0
1.0842e-19
-5e-10
-1.0842e-19
5e-10
1.0842e-19
2.1684e-19
5e-10
0
1.0842e-19
-5e-10
-1.0842e-19
0
-5e-10
1e-09
-5e-09
0
0
-5e-09
2.1684e-19
4.33681e-19
5e-09
2.1684e-19
0
5e-09
2.1684e-19
-5e-09
2.1684e-19
2.1684e-19
-5e-09
2.1684e-19
4.33681e-19
5e-09
2.1684e-19
2.1684e-19
5e-09
2.1684e-19
-5e-09
-2.1684e-19
2.1684e-19
-5e-09
4.33681e-19
-4.33681e-19
5e-09
0
0
5e-09
4.33681e-19
-5e-09
0
0
-5e-09
8.67362e-19
0
5e-09
0
4.33681e-19
5e-09
-4.33681e-19
-5e-09
4.33681e-19
4.33681e-19
-5e-09
0
0
5e-09
0
4.33681e-19
5e-09
0
-5e-09
-4.33681e-19
0
-5e-09
4.33681e-19
4.33681e-19
5e-09
4.33681e-19
0
5e-09
4.33681e-19
-5e-09
0
4.33681e-19
-5e-09
8.67362e-19
4.33681e-19
5e-09
0
-4.33681e-19
5e-09
0
-5e-09
0
-8.67362e-19
-5e-09
6.16358e-06
6.70362e-06
3.68823e-06
4.49186e-06
5.72139e-06
3.54721e-06
7.97606e-06
1.10257e-05
3.37096e-06
-2.78816e-06
-6.2581e-06
5.33347e-07
8.19896e-06
6.4005e-08
2.46628e-06
1.17213e-05
1.01768e-05
1.24143e-05
7.77398e-06
-4.90423e-06
-4.83659e-06
3.06252e-06
6.94098e-06
5.72265e-06
-9.20623e-07
3.85947e-06
1.75119e-05
9.29308e-06
-2.27026e-06
1.12165e-05
1.98959e-05
7.64177e-06
-3.72864e-06
-3.22754e-06
2.34391e-06
6.62545e-06
8.06212e-06
8.42504e-06
9.29187e-06
4.35375e-06
4.42398e-09
7.78261e-06
1.02139e-05
-3.43986e-07
9.05722e-07
7.26924e-06
6.68862e-06
7.9738e-06
1.49657e-05
2.00825e-05
1.44646e-05
7.69376e-06
2.16144e-07
-5.72761e-07
7.60882e-06
1.28587e-05
7.81312e-06
1.81325e-06
3.46986e-06
1.05463e-05
1.89564e-05
1.87318e-05
8.89678e-06
-1.88302e-06
1.1862e-07
5.05913e-06
1.33242e-05
1.98995e-05
1.04555e-06
5.41776e-07
1.55364e-05
5.89224e-06
5.10318e-06
1.32279e-05
5.61128e-07
6.49087e-06
5.19683e-05
8.14859e-05
8.90767e-05
0.000101116
0.00010386
0.000112986
0.000125416
0.000129758
0.000148613
0.000156617
0.000148682
0.000164497
0.000180982
0.000179154
0.000194456
0.000229528
0.000252931
0.000262834
0.000268843
0.000275129
0.00028366
0.000298575
0.000313692
0.000331321
0.000350889
0.000363114
0.000377306
0.000386968
0.000394716
0.000406332
0.000428353
0.000482519
0.00055647
0.000640329
0.000732797
0.000825809
0.000924673
0.00102197
0.00109869
0.00117509
0.00127297
0.00137105
0.00145862
0.00154795
0.00163827
0.00170572
0.00180146
0.00199759
0.00218831
0.00229591
0.0023715
0.00243282
0.00253052
0.00265116
0.00274064
0.00281538
0.00288917
0.00296149
0.00303285
0.00310346
0.00317245
0.00323917
0.00330376
0.00336746
0.00342996
0.00349122
0.0035513
0.00361056
0.00366929
0.0037277
0.00378495
0.00384074
0.00389507
0.00394816
0.00399982
0.00404983
0.00409795
0.00414485
0.00419098
0.00423675
0.00428212
0.00432731
0.00437147
0.00441548
0.00446053
0.00451699
0.00460031
0.00468465
0.0047423
0.00478897
0.00483635
0.00488427
0.00493336
0.00498315
0.00503363
0.00508476
0.00513629
0.00518762
0.00523869
0.00528921
0.005339
0.00538807
0.00543611
0.0054832
0.00552933
0.00557428
0.00561836
0.00566133
0.00570329
0.00574431
0.00578478
0.00582416
0.0058636
0.00590175
0.0059402
0.00597725
0.00601404
0.00604972
0.00608494
0.00611918
0.0061528
0.00618608
0.00621833
0.00625094
0.00628254
0.00631471
0.00634621
0.00637804
0.00640959
0.00644165
0.00647358
0.00650631
0.00653948
0.00657357
0.00660881
0.00664553
0.00668416
0.00672374
0.00676478
0.00680643
0.00684901
0.00689228
0.00693504
0.00698062
0.00702275
0.00708598
0.00716996
0.00723297
0.0072769
0.00732799
0.0073743
0.00742977
0.00747557
0.00752381
0.00755798
0.00755887
0.00775339
0.0079516
0.007984
0.00803171
0.00808862
0.00814755
0.00820808
0.008269
0.00833029
0.00839141
0.00845199
0.00851218
0.00857172
0.00863088
0.00868959
0.00874791
0.00880616
0.00886435
0.00892252
0.00898098
0.0090397
0.00909869
0.00915828
0.00921831
0.00927907
0.00934046
0.00940195
0.00946408
0.00952533
0.00958737
0.00964742
0.00971043
0.00976798
0.00983334
0.00988696
0.00995323
0.00999985
0.0100547
0.0100829
0.0101031
0.0101131
0.0101001
0.0101172
0.0101059
0.0101099
0.0101098
0.01011
0.01011
0.01011
0.01011
0.01011
0.0101098
0.0101098
0.0101098
0.0101095
0.0101097
0.0101091
0.01011
0.0101082
0.010111
0.0101064
0.0101125
0.0101023
0.0101265
0.0101026
0.00997696
0.0101026
0.0102151
0.0101133
0.0101001
0.0101098
0.010102
0.0101078
0.0101069
0.0101084
0.0101084
0.0101086
0.0101084
0.0101081
0.0101077
0.0101074
0.0101069
0.0101057
0.0101055
0.0101057
0.0101055
0.0101057
0.0101057
0.0101057
0.0101057
0.0101057
0.0101058
0.0101057
0.0101058
0.0101058
0.0101058
0.0101059
0.0101059
0.0101059
0.0101059
0.0101059
0.010106
0.010106
0.010106
0.0101061
0.0101062
0.0101062
0.0101062
0.0101063
0.0101062
0.0101063
0.0101064
0.0101064
0.0101064
0.0101064
0.0101065
0.0101065
0.0101065
0.0101066
0.0101067
0.0101066
0.0101067
0.0101067
0.0101067
0.0101067
0.0101069
0.010107
0.0101071
0.0101071
0.0101073
0.0101078
0.010108
0.0101083
0.0101086
0.0101088
0.0101094
0.0101091
0.0101101
0.0101087
0.0101118
0.0101077
0.0101151
0.0101058
0.0101164
0.0101024
0.0101303
0.0102064
0.0101007
0.0102116
0.0102962
0.0101108
0.0101003
0.010111
0.0101003
0.0101081
0.0101022
0.010108
0.0101062
0.0101094
0.0101071
0.010112
0.0101049
0.0101172
0.0101001
0.0101488
0.0102125
0.0101002
0.0102119
0.010301
0.0101266
0.0101004
0.0101142
0.0101002
0.0101098
0.0101087
0.0101111
0.0101118
0.0101115
0.0101135
0.0101109
0.0101158
0.0101099
0.0101189
0.010109
0.0101202
0.0101059
0.0101168
0.0101011
0.0101182
0.0101164
0.0101332
0.0101496
0.0101618
0.0101458
0.00984186
0.00908005
0.00770562
0.00556003
0.0020974
-5e-08
3.46945e-18
0
-5e-08
6.93889e-18
5e-08
3.46945e-18
0
5e-08
3.46945e-18
)
;

boundaryField
{
    inlet
    {
        type            calculated;
        value           uniform 0;
    }
    endWall
    {
        type            calculated;
        value           uniform 0;
    }
    sideWall
    {
        type            empty;
    }
}


// ************************************************************************* //
