/*--------------------------------*- C++ -*----------------------------------*\
| =========                 |                                                 |
| \\      /  F ield         | foam-extend: Open Source CFD                    |
|  \\    /   O peration     | Version:     3.2                                |
|   \\  /    A nd           | Web:         http://www.foam-extend.org         |
|    \\/     M anipulation  | For copyright notice see file Copyright         |
\*---------------------------------------------------------------------------*/
FoamFile
{
    version     2.0;
    format      ascii;
    class       areaScalarField;
    location    "1790";
    object      totH1;
}
// * * * * * * * * * * * * * * * * * * * * * * * * * * * * * * * * * * * * * //

dimensions      [0 0 0 0 0 0 0];

internalField   nonuniform List<scalar> 
550
(
0
5e-11
-5e-11
0
-5e-10
0
5e-10
0
0
5e-10
0
5.42101e-20
-5e-10
0
1.0842e-19
-5e-10
-1.0842e-19
5e-10
1.0842e-19
2.1684e-19
5e-10
0
1.0842e-19
-5e-10
-1.0842e-19
0
-5e-10
1e-09
-5e-09
0
0
-5e-09
2.1684e-19
4.33681e-19
5e-09
2.1684e-19
0
5e-09
2.1684e-19
-5e-09
2.1684e-19
2.1684e-19
-5e-09
2.1684e-19
4.33681e-19
5e-09
2.1684e-19
2.1684e-19
5e-09
2.1684e-19
-5e-09
-2.1684e-19
2.1684e-19
-5e-09
4.33681e-19
-4.33681e-19
5e-09
0
0
5e-09
4.33681e-19
-5e-09
0
0
-5e-09
8.67362e-19
0
5e-09
0
4.33681e-19
5e-09
-4.33681e-19
-5e-09
4.33681e-19
4.33681e-19
-5e-09
0
0
5e-09
0
4.33681e-19
5e-09
0
-5e-09
-4.33681e-19
0
-5e-09
4.33681e-19
4.33681e-19
5e-09
4.33681e-19
0
5e-09
4.33681e-19
-5e-09
0
4.33681e-19
-5e-09
8.67362e-19
4.33681e-19
5e-09
0
-4.33681e-19
5e-09
0
-5e-09
0
-8.67362e-19
-5e-09
6.49323e-06
7.72633e-06
5.10789e-06
5.94555e-06
7.16624e-06
4.98111e-06
9.44007e-06
8.50044e-06
-4.78504e-06
-4.55022e-06
1.53886e-06
5.88195e-06
9.52244e-06
1.34408e-06
3.74091e-06
1.29989e-05
1.1448e-05
9.89671e-06
-1.69656e-07
-6.89822e-06
2.3319e-06
8.00456e-06
8.06232e-06
6.80934e-06
1.28153e-07
4.91387e-06
1.49752e-05
1.59975e-06
-4.29963e-06
1.79195e-05
2.0968e-05
3.50954e-08
-5.82126e-06
3.20583e-06
6.734e-06
7.47447e-06
8.89047e-06
9.2348e-06
1.008e-05
5.10538e-06
7.32925e-07
8.51981e-06
1.09324e-05
3.25142e-07
1.56e-06
7.92327e-06
7.31671e-06
8.57941e-06
1.55729e-05
2.06821e-05
1.18915e-05
5.06306e-07
-2.16354e-06
4.75292e-06
1.12432e-05
1.3347e-05
8.27019e-06
2.24059e-06
3.88566e-06
1.09661e-05
1.9381e-05
1.91497e-05
9.20463e-06
-1.70495e-06
3.51492e-07
5.38217e-06
1.36708e-05
2.0232e-05
1.31696e-06
8.11346e-07
1.58296e-05
6.15017e-06
5.35295e-06
1.34808e-05
7.54563e-07
6.66648e-06
5.22053e-05
8.17387e-05
8.92913e-05
0.000101305
0.00010403
0.000113154
0.00012558
0.000129913
0.000148788
0.000156771
0.000148792
0.000164631
0.000181124
0.000179249
0.000194559
0.000229687
0.000253097
0.000262965
0.000268941
0.000275208
0.000283732
0.000298648
0.000313763
0.000331395
0.000350964
0.000363178
0.000377362
0.000387008
0.000394729
0.000406309
0.000428295
0.000482452
0.000556417
0.000640286
0.000732762
0.000825778
0.000924641
0.00102193
0.00109866
0.00117506
0.00127293
0.001371
0.00145858
0.00154792
0.00163824
0.00170569
0.00180144
0.00199757
0.00218829
0.00229589
0.00237149
0.00243281
0.00253051
0.00265116
0.00274063
0.00281537
0.00288917
0.00296149
0.00303284
0.00310345
0.00317244
0.00323915
0.00330375
0.00336745
0.00342994
0.0034912
0.00355129
0.00361055
0.00366928
0.0037277
0.00378494
0.00384073
0.00389507
0.00394816
0.00399982
0.00404983
0.00409795
0.00414485
0.00419098
0.00423675
0.00428212
0.00432731
0.00437147
0.00441548
0.00446053
0.00451699
0.00460031
0.00468465
0.0047423
0.00478898
0.00483636
0.00488427
0.00493336
0.00498315
0.00503363
0.00508476
0.00513629
0.00518762
0.00523869
0.0052892
0.00533899
0.00538807
0.0054361
0.0054832
0.00552932
0.00557428
0.00561835
0.00566132
0.00570328
0.0057443
0.00578477
0.00582414
0.00586359
0.00590174
0.00594019
0.00597723
0.00601403
0.00604971
0.00608493
0.00611917
0.00615279
0.00618606
0.00621832
0.00625093
0.00628254
0.0063147
0.0063462
0.00637803
0.00640959
0.00644165
0.00647358
0.00650631
0.00653948
0.00657357
0.00660881
0.00664553
0.00668417
0.00672374
0.00676478
0.00680643
0.00684902
0.00689229
0.00693505
0.00698063
0.00702276
0.00708599
0.00716998
0.00723299
0.00727691
0.00732801
0.00737432
0.00742979
0.00747558
0.00752383
0.007558
0.00755888
0.00775341
0.00795162
0.00798402
0.00803172
0.00808863
0.00814756
0.0082081
0.00826901
0.0083303
0.00839142
0.00845201
0.00851219
0.00857173
0.00863089
0.0086896
0.00874792
0.00880617
0.00886436
0.00892252
0.00898098
0.0090397
0.00909869
0.00915829
0.00921831
0.00927908
0.00934046
0.00940195
0.00946408
0.00952533
0.00958738
0.00964743
0.00971043
0.00976798
0.00983334
0.00988696
0.00995323
0.00999985
0.0100547
0.0100829
0.0101031
0.0101131
0.0101001
0.0101172
0.0101059
0.0101099
0.0101098
0.01011
0.01011
0.01011
0.01011
0.01011
0.0101098
0.0101098
0.0101098
0.0101095
0.0101097
0.0101091
0.01011
0.0101082
0.010111
0.0101064
0.0101125
0.0101023
0.0101265
0.0101026
0.00997697
0.0101026
0.0102151
0.0101133
0.0101001
0.0101098
0.010102
0.0101078
0.0101069
0.0101084
0.0101084
0.0101086
0.0101084
0.0101081
0.0101077
0.0101074
0.0101069
0.0101057
0.0101055
0.0101057
0.0101055
0.0101057
0.0101057
0.0101057
0.0101057
0.0101057
0.0101058
0.0101057
0.0101058
0.0101058
0.0101058
0.0101059
0.0101059
0.0101059
0.0101059
0.0101059
0.010106
0.010106
0.010106
0.0101061
0.0101062
0.0101062
0.0101062
0.0101063
0.0101062
0.0101063
0.0101064
0.0101064
0.0101064
0.0101064
0.0101065
0.0101065
0.0101065
0.0101066
0.0101067
0.0101066
0.0101067
0.0101067
0.0101067
0.0101067
0.0101069
0.010107
0.0101071
0.0101071
0.0101073
0.0101078
0.010108
0.0101083
0.0101086
0.0101088
0.0101094
0.0101091
0.0101101
0.0101087
0.0101118
0.0101077
0.0101151
0.0101058
0.0101164
0.0101024
0.0101303
0.0102064
0.0101007
0.0102116
0.0102962
0.0101108
0.0101003
0.010111
0.0101003
0.0101081
0.0101022
0.010108
0.0101062
0.0101094
0.0101071
0.010112
0.0101049
0.0101172
0.0101001
0.0101488
0.0102125
0.0101002
0.0102119
0.010301
0.0101266
0.0101004
0.0101142
0.0101002
0.0101098
0.0101087
0.0101111
0.0101118
0.0101115
0.0101135
0.0101109
0.0101158
0.0101099
0.0101189
0.010109
0.0101202
0.0101059
0.0101168
0.0101011
0.0101182
0.0101164
0.0101332
0.0101496
0.0101618
0.0101458
0.00984187
0.00908006
0.00770563
0.00556004
0.00209741
-5e-08
3.46945e-18
0
-5e-08
6.93889e-18
5e-08
3.46945e-18
0
5e-08
3.46945e-18
)
;

boundaryField
{
    inlet
    {
        type            calculated;
        value           uniform 0;
    }
    endWall
    {
        type            calculated;
        value           uniform 0;
    }
    sideWall
    {
        type            empty;
    }
}


// ************************************************************************* //
