/*--------------------------------*- C++ -*----------------------------------*\
| =========                 |                                                 |
| \\      /  F ield         | foam-extend: Open Source CFD                    |
|  \\    /   O peration     | Version:     3.2                                |
|   \\  /    A nd           | Web:         http://www.foam-extend.org         |
|    \\/     M anipulation  | For copyright notice see file Copyright         |
\*---------------------------------------------------------------------------*/
FoamFile
{
    version     2.0;
    format      ascii;
    class       areaVectorField;
    location    "1790";
    object      W;
}
// * * * * * * * * * * * * * * * * * * * * * * * * * * * * * * * * * * * * * //

dimensions      [1 1 -2 0 0 0 0];

internalField   uniform (0 0 -9.00925e-08);

boundaryField
{
    inlet
    {
        type            calculated;
        value           uniform (0 0 -9.00925e-08);
    }
    endWall
    {
        type            calculated;
        value           uniform (0 0 -9.00925e-08);
    }
    sideWall
    {
        type            empty;
    }
}


// ************************************************************************* //
