/*--------------------------------*- C++ -*----------------------------------*\
| =========                 |                                                 |
| \\      /  F ield         | foam-extend: Open Source CFD                    |
|  \\    /   O peration     | Version:     3.2                                |
|   \\  /    A nd           | Web:         http://www.foam-extend.org         |
|    \\/     M anipulation  | For copyright notice see file Copyright         |
\*---------------------------------------------------------------------------*/
FoamFile
{
    version     2.0;
    format      ascii;
    class       areaScalarField;
    location    "1790";
    object      zDimA;
}
// * * * * * * * * * * * * * * * * * * * * * * * * * * * * * * * * * * * * * //

dimensions      [0 1 0 0 0 0 0];

internalField   nonuniform List<scalar> 
550
(
0.00503636
0.00503637
0.00503636
0.00503637
0.00503637
0.00503636
0.00503637
0.00503636
0.00503636
0.00503637
0.00503636
0.00503636
0.00503637
0.00503636
0.00503637
0.00503637
0.00503636
0.00503637
0.00503636
0.00503636
0.00503637
0.00503636
0.00503636
0.00503637
0.00503636
0.00503636
0.00503637
0.00503636
0.00503637
0.00503636
0.00503636
0.00503637
0.00503636
0.00503636
0.00503637
0.00503636
0.00503636
0.00503637
0.00503636
0.00503637
0.00503636
0.00503636
0.00503637
0.00503636
0.00503636
0.00503637
0.00503636
0.00503636
0.00503637
0.00503636
0.00503637
0.00503636
0.00503636
0.00503637
0.00503636
0.00503636
0.00503637
0.00503636
0.00503636
0.00503637
0.00503636
0.00503637
0.00503636
0.00503636
0.00503637
0.00503636
0.00503636
0.00503637
0.00503636
0.00503636
0.00503637
0.00503636
0.00503637
0.00503636
0.00503636
0.00503637
0.00503636
0.00503636
0.00503637
0.00503636
0.00503636
0.00503637
0.00503636
0.00503637
0.00503636
0.00503636
0.00503637
0.00503636
0.00503636
0.00503637
0.00503636
0.00503636
0.00503637
0.00503636
0.00503637
0.00503636
0.00503636
0.00503637
0.00503636
0.00503636
0.00503638
0.00503637
0.00503638
0.0050364
0.0050364
0.00503645
0.00503655
0.00503688
0.0050376
0.00502185
0.00503585
0.00501094
0.00500075
0.00498424
0.00499489
0.00496233
0.00498788
0.00497396
0.00497416
0.0049583
0.00494614
0.00494818
0.00497116
0.00492698
0.00495385
0.00494433
0.00494597
0.00495585
0.00496263
0.00493277
0.00494591
0.00493831
0.0049554
0.00494799
0.00493453
0.00493127
0.00497432
0.00494049
0.00492828
0.00494741
0.00497133
0.00495227
0.00495279
0.00494538
0.00495751
0.00495313
0.00496266
0.00495476
0.00497533
0.00495592
0.00495444
0.00496683
0.00498202
0.00494963
0.00497393
0.00496439
0.00497455
0.00495723
0.00498087
0.00498115
0.00498751
0.00498558
0.00497866
0.00497143
0.00498611
0.00499383
0.00499238
0.00498309
0.0049841
0.00498214
0.00500246
0.0050042
0.00500845
0.00498353
0.00500467
0.00498006
0.0050102
0.00503045
0.00498168
0.0050012
0.00502791
0.00499049
0.00501235
0.00502986
0.00498223
0.00499483
0.00500854
0.00500046
0.00500508
0.00501872
0.00499601
0.00501323
0.00501188
0.00498887
0.00503194
0.00502147
0.00499118
0.00501853
0.00502643
0.00498996
0.0049882
0.00501023
0.00501614
0.00502043
0.00501736
0.00501716
0.00500596
0.00501692
0.00500217
0.00501373
0.00501644
0.00501189
0.0050257
0.00501743
0.00502021
0.004999
0.00503493
0.00503661
0.00505646
0.00505391
0.00505896
0.00506497
0.00505347
0.00502674
0.00505593
0.00506691
0.00505492
0.00504759
0.00505848
0.00504635
0.00501954
0.00511295
0.00520622
0.0050916
0.00504671
0.00502972
0.00502507
0.00510074
0.00506361
0.00504064
0.00503596
0.00503865
0.00503311
0.00503674
0.00503152
0.00503343
0.00502693
0.00502939
0.00502509
0.00502695
0.00502266
0.00502465
0.00502101
0.00502365
0.00502025
0.00502128
0.00501734
0.00501839
0.00501483
0.00501549
0.00501148
0.00501183
0.0050091
0.00501033
0.00500838
0.00500957
0.00500791
0.00500764
0.00500773
0.00501109
0.00503266
0.00506136
0.00503099
0.0050101
0.00501055
0.00501147
0.00501188
0.00501352
0.0050133
0.00501508
0.0050144
0.00501581
0.00501415
0.00501505
0.00501306
0.00501378
0.00501141
0.00501187
0.00500931
0.00500994
0.00500716
0.00500794
0.005005
0.00500612
0.005003
0.005005
0.00500114
0.00500475
0.00500105
0.00500491
0.00500362
0.00500447
0.00500592
0.00500351
0.00500763
0.00500207
0.00500833
0.00500067
0.00500806
0.00500118
0.00500732
0.00500233
0.00500655
0.00500294
0.00500571
0.00500297
0.0050044
0.00500211
0.00500241
0.00500022
0.00500084
0.00500367
0.00500283
0.00500662
0.00500388
0.00500852
0.00500529
0.00500779
0.00501008
0.00500437
0.00505207
0.00504041
0.00501016
0.00500576
0.00502298
0.00500342
0.00503879
0.0050198
0.00504134
0.00504581
0.00502445
0.00531124
0.00500117
0.00500368
0.00502
0.00502134
0.00502382
0.00502441
0.00502477
0.00502489
0.00502441
0.00502404
0.00502338
0.00502296
0.00502248
0.00502207
0.00502184
0.00502178
0.00502175
0.0050219
0.0050222
0.00502243
0.00502291
0.00502344
0.00502402
0.00502475
0.00502517
0.00502513
0.00502611
0.0050237
0.00502742
0.00502018
0.00503224
0.0050113
0.00504493
0.00501028
0.00506557
0.00504513
0.00507744
0.00509376
0.00506097
0.00511356
0.00502202
0.00506049
0.00503067
0.00503631
0.00503574
0.00503651
0.005036
0.00503643
0.00503629
0.00503644
0.00503638
0.00503648
0.00503625
0.00503669
0.00503562
0.00503805
0.00503317
0.00504286
0.00502466
0.00505609
0.00500589
0.00508486
0.00504969
0.00517028
0.00513983
0.00528278
0.0051303
0.0051178
0.00500902
0.00506232
0.00502348
0.00503955
0.00503386
0.0050362
0.00503623
0.00503609
0.00503684
0.00503641
0.00503698
0.00503646
0.0050371
0.0050378
0.00503552
0.00503671
0.00503622
0.00503625
0.00503631
0.00503634
0.00503624
0.00503636
0.00503628
0.00503632
0.00503628
0.00503637
0.00503626
0.00503637
0.00503625
0.00503633
0.00503633
0.0050362
0.00503635
0.00503636
0.0050362
0.0050363
0.00503631
0.0050362
0.00503635
0.00503635
0.00503628
0.00503622
0.00503626
0.00503644
0.0050363
0.00503622
0.00503627
0.00503636
0.00503623
0.00503627
0.0050363
0.00503633
0.00503631
0.00503626
0.00503643
0.00503617
0.00503614
0.00503625
0.0050363
0.0050362
0.00503618
0.00503573
0.00503625
0.0050359
0.00503603
0.00503619
0.00503552
0.00503738
0.00503358
0.00504163
0.00502525
0.00505474
0.00500485
0.00508394
0.00502625
0.00512702
0.00511145
0.00503216
0.00522708
0.00534381
0.00524747
0.00516047
0.00504476
0.00509603
0.00500842
0.00506445
0.00501804
0.00504472
0.00503053
0.00503621
0.00504047
0.00502331
0.00506179
0.00500681
0.00511394
0.00513228
0.00507769
0.00519561
0.00531319
0.00520763
0.00517913
0.00503837
0.00508355
0.00501339
0.00504333
0.00503011
0.00503808
0.00503299
0.00504016
0.00502887
0.00504842
0.00501535
0.00506759
0.00500808
0.00510047
0.00504361
0.00514489
0.00508689
0.0051912
0.0051459
0.00522246
0.00518052
0.00522026
0.00516878
0.00527354
0.00536884
0.0061725
0.00658791
0.0077271
0.00922968
0.00538932
0.00503214
0.00503838
0.0050369
0.0050366
0.0050364
0.0050365
0.0050364
0.0050363
0.0050364
)
;

boundaryField
{
    inlet
    {
        type            calculated;
        value           uniform 0;
    }
    endWall
    {
        type            calculated;
        value           uniform 0;
    }
    sideWall
    {
        type            empty;
    }
}


// ************************************************************************* //
