/*--------------------------------*- C++ -*----------------------------------*\
| =========                 |                                                 |
| \\      /  F ield         | foam-extend: Open Source CFD                    |
|  \\    /   O peration     | Version:     3.2                                |
|   \\  /    A nd           | Web:         http://www.foam-extend.org         |
|    \\/     M anipulation  | For copyright notice see file Copyright         |
\*---------------------------------------------------------------------------*/
FoamFile
{
    version     2.0;
    format      ascii;
    class       areaScalarField;
    location    "160";
    object      a;
}
// * * * * * * * * * * * * * * * * * * * * * * * * * * * * * * * * * * * * * //

dimensions      [1 -1 0 0 0 0 0];

internalField   nonuniform List<scalar> 
300
(
0.00216728
0.00216728
0.00216728
0.00216728
0.00216728
0.00216728
0.00216728
0.00216728
0.00216728
0.00216728
0.00216728
0.00216728
0.00216728
0.00216728
0.00216728
0.00216728
0.00216728
0.00216728
0.00216728
0.00216728
0.00216728
0.00216728
0.00216728
0.00216728
0.00216728
0.00216728
0.00216728
0.00216728
0.00216728
0.00216728
0.00216728
0.00216728
0.00216728
0.00216728
0.00216728
0.00216728
0.00216728
0.00216728
0.00216728
0.00216728
0.00216728
0.00216728
0.00216728
0.00216728
0.00216728
0.00216728
0.00216728
0.00216728
0.00216728
0.00216728
0.00216728
0.00216728
0.00216728
0.00216728
0.00216728
0.00216728
0.00216728
0.00216728
0.00216728
0.00216728
0.00216728
0.00216728
0.00216728
0.00216728
0.00216728
0.00216728
0.00216728
0.00216728
0.00216728
0.00216728
0.00216728
0.00216728
0.00216728
0.00216728
0.00216728
0.00216728
0.00216728
0.00216728
0.00216728
0.00216728
0.00216728
0.00216728
0.00216728
0.00216728
0.00216728
0.00216728
0.00216728
0.00216728
0.00216728
0.00216728
0.00216728
0.00216728
0.00216728
0.00216728
0.00216728
0.00216728
0.00216728
0.00216728
0.00216728
0.00216728
0.00216728
0.00216728
0.00216728
0.00216728
0.00216728
0.00216728
0.00216728
0.00216728
0.00216728
0.00216728
0.00216728
0.000933498
0.000919901
0.000904854
0.000895279
0.00216728
0.00216728
0.00216728
0.000865184
0.000862573
0.00084531
0.000828536
0.00216728
0.00216728
0.00216728
0.000842043
0.000848187
0.000847179
0.00216728
0.00216728
0.00216728
0.000824013
0.000826756
0.00216728
0.00216728
0.00216728
0.000847836
0.000839769
0.000839944
0.00216728
0.00216728
0.00216728
0.00216728
0.000847529
0.000846162
0.000855179
0.00216728
0.00216728
0.00216728
0.00216728
0.000883054
0.000887744
0.000896647
0.00216728
0.00216728
0.00216728
0.00216728
0.000929281
0.000941279
0.000952937
0.00216728
0.00216728
0.00216728
0.00216728
0.000964454
0.000970464
0.000980264
0.000984726
0.00216728
0.00216728
0.00216728
0.00216728
0.000982708
0.000982869
0.000973584
0.000967572
0.00216728
0.00216728
0.00216728
0.00216728
0.000960861
0.000948765
0.000935747
0.000918021
0.00216728
0.00216728
0.00216728
0.00216728
0.000895855
0.000902025
0.000898248
0.000898868
0.00216728
0.00216728
0.00216728
0.00216728
0.00216728
0.000909077
0.000926119
0.000931237
0.00216728
0.00216728
0.00216728
0.00216728
0.000948646
0.000954084
0.000954722
0.000958833
0.00216728
0.00216728
0.00216728
0.00216728
0.000930476
0.000927606
0.000920378
0.000918568
0.00216728
0.00216728
0.00216728
0.00216728
0.000917676
0.000921303
0.000925856
0.00216728
0.00216728
0.00216728
0.00216728
0.000936898
0.000928238
0.000925354
0.00091446
0.00216728
0.00216728
0.00216728
0.00216728
0.000917661
0.0009206
0.000924224
0.000926679
0.00216728
0.00216728
0.00216728
0.00216728
0.000905537
0.000903149
0.000904356
0.000907371
0.00216728
0.00216728
0.00216728
0.00216728
0.000918776
0.000911987
0.00090659
0.000897435
0.000899994
0.000900775
0.00216728
0.00216728
0.00216728
0.00216728
0.000911754
0.000919368
0.000922521
0.000925876
0.00216728
0.00216728
0.00216728
0.00216728
0.000914913
0.000917889
0.000923438
0.00092861
0.00216728
0.00216728
0.00216728
0.000932123
0.000932566
0.00093307
0.000939605
0.000941905
0.000949783
0.000957162
0.000963472
0.000967427
0.000971558
0.000965298
0.000957195
0.000966335
0.000982803
0.00100551
0.00103812
0.00108391
0.00115374
0.00125918
0.00148382
0.00189918
0.00216728
0.00216728
0.00216728
)
;

boundaryField
{
    inlet
    {
        type            calculated;
        value           uniform 0;
    }
    outlet
    {
        type            calculated;
        value           uniform 0;
    }
    sideWall
    {
        type            empty;
    }
}


// ************************************************************************* //
