/*--------------------------------*- C++ -*----------------------------------*\
| =========                 |                                                 |
| \\      /  F ield         | foam-extend: Open Source CFD                    |
|  \\    /   O peration     | Version:     3.2                                |
|   \\  /    A nd           | Web:         http://www.foam-extend.org         |
|    \\/     M anipulation  | For copyright notice see file Copyright         |
\*---------------------------------------------------------------------------*/
FoamFile
{
    version     2.0;
    format      ascii;
    class       surfaceScalarField;
    location    "160";
    object      AdSS1;
}
// * * * * * * * * * * * * * * * * * * * * * * * * * * * * * * * * * * * * * //

dimensions      [0 3 -1 0 0 0 0];

internalField   nonuniform List<scalar> 
191380
(
6.20162e-05
2.38443e-05
4.34316e-05
3.19511e-06
3.68831e-05
-8.84092e-06
3.4861e-05
-1.33674e-05
3.39662e-05
-1.44946e-05
3.33299e-05
-1.47532e-05
3.27754e-05
-1.4835e-05
3.22528e-05
-1.48668e-05
3.17611e-05
-1.48978e-05
3.13152e-05
-1.49436e-05
3.09159e-05
-1.49901e-05
3.05513e-05
-1.50249e-05
3.0221e-05
-1.50592e-05
2.99228e-05
-1.50912e-05
2.96509e-05
-1.51176e-05
2.94014e-05
-1.51399e-05
2.91694e-05
-1.51575e-05
2.89547e-05
-1.51747e-05
2.87583e-05
-1.51931e-05
2.85779e-05
-1.5209e-05
2.84077e-05
-1.52193e-05
2.82466e-05
-1.52283e-05
2.80941e-05
-1.5237e-05
2.79505e-05
-1.52459e-05
2.78145e-05
-1.52535e-05
2.76852e-05
-1.52601e-05
2.7562e-05
-1.52662e-05
2.74442e-05
-1.52717e-05
2.73325e-05
-1.52778e-05
2.72255e-05
-1.52825e-05
2.71233e-05
-1.52873e-05
2.7025e-05
-1.52911e-05
2.69306e-05
-1.52951e-05
2.68399e-05
-1.52988e-05
2.6753e-05
-1.53026e-05
2.66692e-05
-1.53056e-05
2.65883e-05
-1.53086e-05
2.65103e-05
-1.53114e-05
2.64347e-05
-1.53138e-05
2.63619e-05
-1.53167e-05
2.62914e-05
-1.5319e-05
2.62232e-05
-1.53213e-05
2.61571e-05
-1.53233e-05
2.60928e-05
-1.53252e-05
2.60306e-05
-1.53272e-05
2.59701e-05
-1.5329e-05
2.59116e-05
-1.5331e-05
2.58545e-05
-1.53323e-05
2.57991e-05
-1.53341e-05
2.5745e-05
-1.53354e-05
2.56924e-05
-1.53369e-05
2.56413e-05
-1.53383e-05
2.55915e-05
-1.53397e-05
2.5543e-05
-1.53409e-05
2.54956e-05
-1.53421e-05
2.54494e-05
-1.53433e-05
2.54044e-05
-1.53445e-05
2.536e-05
-1.53451e-05
2.53167e-05
-1.53461e-05
2.52744e-05
-1.53471e-05
2.52332e-05
-1.53483e-05
2.51931e-05
-1.53493e-05
2.5154e-05
-1.53504e-05
2.5116e-05
-1.53514e-05
2.5079e-05
-1.53525e-05
2.50431e-05
-1.53535e-05
2.50081e-05
-1.53545e-05
2.49743e-05
-1.53556e-05
2.49414e-05
-1.53566e-05
2.49098e-05
-1.53579e-05
2.48794e-05
-1.5359e-05
2.48503e-05
-1.53604e-05
2.48225e-05
-1.53616e-05
2.47963e-05
-1.53633e-05
2.47714e-05
-1.53646e-05
2.47488e-05
-1.53668e-05
2.47276e-05
-1.53683e-05
2.47093e-05
-1.53711e-05
2.46929e-05
-1.53731e-05
2.46802e-05
-1.53768e-05
2.46699e-05
-1.53791e-05
2.4665e-05
-1.53846e-05
2.46628e-05
-1.53872e-05
2.46676e-05
-1.53942e-05
2.46766e-05
-1.53985e-05
2.46947e-05
-1.54075e-05
2.47197e-05
-1.54145e-05
2.47603e-05
-1.543e-05
2.48088e-05
-1.5438e-05
2.488e-05
-1.54606e-05
2.49619e-05
-1.54713e-05
2.50861e-05
-1.55137e-05
2.5233e-05
-1.55364e-05
2.54491e-05
-1.56056e-05
2.57144e-05
-1.56548e-05
2.61486e-05
-1.58237e-05
2.65428e-05
-1.57836e-05
2.8437e-05
-1.72837e-05
2.96475e-05
-1.66e-05
1.56157e-05
-1.32976e-06
7.88683e-06
-7.56169e-06
1.20606e-05
-1.9399e-05
1.37755e-05
-1.6903e-05
1.49669e-05
-1.63525e-05
1.58823e-05
-1.60572e-05
1.65545e-05
-1.57986e-05
1.72694e-05
-1.58298e-05
1.75821e-05
-1.54163e-05
1.79347e-05
-1.54527e-05
2.10153e-05
-1.81326e-05
1.96239e-05
-1.3307e-05
1.76059e-05
-1.3373e-05
2.04507e-05
-2.01892e-05
1.71256e-05
-1.46156e-05
2.03387e-05
-1.99944e-05
1.75529e-05
-1.16006e-05
1.79e-05
-1.28067e-05
2.09639e-05
-1.61536e-05
1.80948e-05
-1.25773e-05
2.18948e-05
-2.08123e-05
1.34154e-05
-8.42492e-06
1.8474e-05
-2.19662e-05
1.86745e-05
-1.53931e-05
1.68272e-05
-1.05405e-05
2.0845e-05
-1.68691e-05
1.75354e-05
-1.25015e-05
2.25534e-05
-2.30504e-05
1.60493e-05
-1.08341e-05
1.83664e-05
-1.77048e-05
1.6551e-05
-1.1749e-05
1.58101e-05
-1.26166e-05
2.02845e-05
-2.08849e-05
1.71328e-05
-1.43553e-05
2.21002e-05
-1.93398e-05
1.68761e-05
-7.6453e-06
2.0413e-05
-1.82994e-05
1.812e-05
-1.45085e-05
1.55948e-05
-1.50362e-05
2.00549e-05
-2.07146e-05
1.51227e-05
-9.35871e-06
2.18157e-05
-2.01665e-05
1.5773e-05
-7.37444e-06
1.72657e-05
-1.60976e-05
1.90675e-05
-1.83656e-05
1.51979e-05
-1.38717e-05
2.14211e-05
-2.30851e-05
1.61197e-05
-9.22458e-06
2.06257e-05
-1.76594e-05
1.71859e-05
-9.95423e-06
1.6784e-05
-1.45982e-05
2.07175e-05
-2.12407e-05
1.71023e-05
-1.45373e-05
2.13765e-05
-2.07973e-05
1.65246e-05
-9.23932e-06
2.01106e-05
-1.64595e-05
1.77393e-05
-1.10108e-05
1.76191e-05
-1.46055e-05
2.24905e-05
-2.1185e-05
1.8463e-05
-1.43142e-05
2.21736e-05
-2.20182e-05
1.82391e-05
-1.10513e-05
2.06847e-05
-1.47345e-05
1.83777e-05
-1.02525e-05
1.84731e-05
-1.44159e-05
2.13183e-05
-1.92599e-05
1.8979e-05
-1.62805e-05
2.20867e-05
-2.15131e-05
1.86353e-05
-1.28391e-05
2.19182e-05
-1.78534e-05
1.79814e-05
-8.39418e-06
1.97352e-05
-1.39271e-05
2.07856e-05
-1.54748e-05
1.96622e-05
-1.50207e-05
2.11935e-05
-1.90117e-05
1.76893e-05
-1.40301e-05
2.05145e-05
-1.90734e-05
1.80443e-05
-1.23902e-05
2.16875e-05
-1.68172e-05
1.91911e-05
-1.0271e-05
2.06785e-05
-1.57742e-05
2.01763e-05
-1.54654e-05
1.82892e-05
-1.55132e-05
1.89306e-05
-1.77158e-05
1.62609e-05
-1.30338e-05
2.01181e-05
-1.86318e-05
1.73172e-05
-1.03994e-05
2.11193e-05
-1.68439e-05
1.76147e-05
-1.09814e-05
1.93984e-05
-1.75091e-05
1.91051e-05
-1.70915e-05
1.76357e-05
-1.65722e-05
1.97989e-05
-1.89793e-05
1.80426e-05
-1.34924e-05
2.17104e-05
-1.67665e-05
1.81115e-05
-8.63784e-06
2.14562e-05
-1.73276e-05
1.7777e-05
-1.15285e-05
2.03643e-05
-1.88452e-05
2.05202e-05
-1.8478e-05
1.92065e-05
-1.70926e-05
1.9851e-05
-1.5869e-05
1.84681e-05
-1.10974e-05
2.19841e-05
-1.64303e-05
1.9128e-05
-1.17457e-05
2.23666e-05
-1.94426e-05
1.90781e-05
-1.48772e-05
2.11851e-05
-2.05975e-05
1.94182e-05
-1.48178e-05
1.99844e-05
-1.50905e-05
1.9091e-05
-1.1557e-05
1.85774e-05
-1.16987e-05
2.10242e-05
-1.67059e-05
1.95053e-05
-1.44768e-05
2.05489e-05
-1.85695e-05
1.77919e-05
-1.5216e-05
2.07084e-05
-1.94805e-05
1.80944e-05
-1.21299e-05
2.13882e-05
-1.6164e-05
1.79616e-05
-9.04209e-06
1.9657e-05
-1.58245e-05
2.04369e-05
-1.71905e-05
1.92796e-05
-1.73914e-05
2.06851e-05
-1.95832e-05
1.82928e-05
-1.29682e-05
2.19549e-05
-1.63733e-05
1.88801e-05
-9.24071e-06
2.2279e-05
-1.75571e-05
1.91606e-05
-1.28396e-05
1.9949e-05
-1.84615e-05
1.89414e-05
-1.67514e-05
1.83935e-05
-1.54932e-05
1.89325e-05
-1.53297e-05
1.97341e-05
-1.40875e-05
2.05049e-05
-1.37093e-05
2.00426e-05
-1.4089e-05
2.17637e-05
-1.81563e-05
1.95066e-05
-1.62021e-05
2.13608e-05
-2.03879e-05
1.92571e-05
-1.45869e-05
2.16791e-05
-1.72242e-05
1.96203e-05
-1.02374e-05
2.07494e-05
-1.28459e-05
1.90423e-05
-1.18957e-05
1.88403e-05
-1.55406e-05
2.0187e-05
-1.96581e-05
1.94849e-05
-1.81906e-05
2.04407e-05
-1.80463e-05
1.9826e-05
-1.46557e-05
2.1935e-05
-1.49227e-05
2.01617e-05
-1.02228e-05
2.21226e-05
-1.57955e-05
1.93395e-05
-1.29642e-05
2.04604e-05
-1.78627e-05
1.83718e-05
-1.40187e-05
1.94058e-05
-1.75556e-05
2.0283e-05
-1.86504e-05
1.96105e-05
-1.59887e-05
2.0144e-05
-1.47679e-05
1.89043e-05
-1.09237e-05
2.11672e-05
-1.47552e-05
1.97135e-05
-1.31409e-05
2.23113e-05
-1.91322e-05
1.98828e-05
-1.61222e-05
2.11913e-05
-1.99264e-05
1.9673e-05
-1.49725e-05
2.02863e-05
-1.50093e-05
1.96687e-05
-1.17531e-05
2.03223e-05
-1.28178e-05
2.05597e-05
-1.41961e-05
1.92541e-05
-1.46885e-05
2.1005e-05
-2.03517e-05
1.98867e-05
-1.79703e-05
2.111e-05
-1.79015e-05
1.93079e-05
-1.26488e-05
2.1821e-05
-1.49784e-05
1.95018e-05
-1.05966e-05
2.05659e-05
-1.77132e-05
1.88988e-05
-1.6441e-05
2.02126e-05
-1.80225e-05
1.96494e-05
-1.54003e-05
1.99339e-05
-1.6331e-05
2.07377e-05
-1.69159e-05
2.02397e-05
-1.53773e-05
2.06021e-05
-1.59932e-05
1.98948e-05
-1.49023e-05
2.05201e-05
-1.61931e-05
1.69643e-05
-1.20552e-05
1.79085e-05
-1.66645e-05
1.87531e-05
-1.65828e-05
1.9197e-05
-1.6184e-05
1.93476e-05
-1.58854e-05
1.97746e-05
-1.61466e-05
2.02291e-05
-1.61567e-05
2.08038e-05
-1.62464e-05
2.30138e-05
-1.78343e-05
3.21817e-05
-2.47037e-05
3.44052e-05
-1.76552e-05
2.22998e-05
-3.28401e-06
1.83345e-05
-1.14242e-05
-1.47626e-05
8.94817e-05
3.56127e-05
7.65994e-05
1.60774e-05
6.8042e-05
-2.83468e-07
6.32813e-05
-8.60669e-06
6.03139e-05
-1.15273e-05
5.82033e-05
-1.26425e-05
5.65594e-05
-1.31912e-05
5.5187e-05
-1.34943e-05
5.40282e-05
-1.37389e-05
5.30422e-05
-1.39576e-05
5.21841e-05
-1.4132e-05
5.14251e-05
-1.42659e-05
5.07533e-05
-1.43873e-05
5.01583e-05
-1.44962e-05
4.96219e-05
-1.45812e-05
4.91339e-05
-1.46519e-05
4.86865e-05
-1.47101e-05
4.82768e-05
-1.4765e-05
4.78994e-05
-1.48158e-05
4.75473e-05
-1.48569e-05
4.72174e-05
-1.48894e-05
4.69083e-05
-1.49192e-05
4.66186e-05
-1.49473e-05
4.6347e-05
-1.49743e-05
4.60909e-05
-1.49974e-05
4.58485e-05
-1.50177e-05
4.56189e-05
-1.50367e-05
4.54008e-05
-1.50536e-05
4.51944e-05
-1.50713e-05
4.49976e-05
-1.50857e-05
4.48099e-05
-1.50996e-05
4.46302e-05
-1.51114e-05
4.44584e-05
-1.51232e-05
4.42939e-05
-1.51342e-05
4.41364e-05
-1.51451e-05
4.39849e-05
-1.51542e-05
4.38391e-05
-1.51628e-05
4.36989e-05
-1.51711e-05
4.35634e-05
-1.51784e-05
4.34332e-05
-1.51864e-05
4.33074e-05
-1.51932e-05
4.31857e-05
-1.51996e-05
4.30681e-05
-1.52057e-05
4.2954e-05
-1.52111e-05
4.28437e-05
-1.5217e-05
4.27368e-05
-1.5222e-05
4.26333e-05
-1.52275e-05
4.25325e-05
-1.52316e-05
4.24349e-05
-1.52364e-05
4.23398e-05
-1.52403e-05
4.22474e-05
-1.52445e-05
4.21576e-05
-1.52486e-05
4.20703e-05
-1.52523e-05
4.19853e-05
-1.52559e-05
4.19025e-05
-1.52593e-05
4.18218e-05
-1.52625e-05
4.17432e-05
-1.52659e-05
4.16666e-05
-1.52685e-05
4.15923e-05
-1.52718e-05
4.15198e-05
-1.52747e-05
4.14493e-05
-1.52778e-05
4.13806e-05
-1.52806e-05
4.13137e-05
-1.52835e-05
4.12485e-05
-1.52862e-05
4.11852e-05
-1.52892e-05
4.11236e-05
-1.52919e-05
4.10638e-05
-1.52947e-05
4.10056e-05
-1.52975e-05
4.09493e-05
-1.53003e-05
4.08949e-05
-1.53035e-05
4.08424e-05
-1.53065e-05
4.07921e-05
-1.531e-05
4.07439e-05
-1.53134e-05
4.06981e-05
-1.53175e-05
4.06546e-05
-1.53212e-05
4.06143e-05
-1.53264e-05
4.05766e-05
-1.53306e-05
4.05429e-05
-1.53374e-05
4.05125e-05
-1.53427e-05
4.04873e-05
-1.53516e-05
4.04662e-05
-1.5358e-05
4.04524e-05
-1.53708e-05
4.04438e-05
-1.53787e-05
4.04457e-05
-1.53962e-05
4.0454e-05
-1.54067e-05
4.04744e-05
-1.5428e-05
4.05063e-05
-1.54464e-05
4.05613e-05
-1.5485e-05
4.06279e-05
-1.55046e-05
4.07303e-05
-1.5563e-05
4.08515e-05
-1.55925e-05
4.10317e-05
-1.56939e-05
4.12469e-05
-1.57516e-05
4.1562e-05
-1.59207e-05
4.19484e-05
-1.60411e-05
4.25626e-05
-1.64379e-05
4.32917e-05
-1.65127e-05
4.55532e-05
-1.95451e-05
4.73938e-05
-1.84406e-05
3.31637e-05
1.29004e-05
2.14197e-05
4.18234e-06
2.27157e-05
-2.0695e-05
2.38466e-05
-1.80339e-05
2.48828e-05
-1.73887e-05
2.59949e-05
-1.71693e-05
2.67804e-05
-1.65841e-05
2.77921e-05
-1.68415e-05
2.82805e-05
-1.59046e-05
2.90052e-05
-1.61774e-05
3.23036e-05
-2.14309e-05
3.16443e-05
-1.26477e-05
3.03242e-05
-1.20529e-05
3.22885e-05
-2.21535e-05
2.97253e-05
-1.20525e-05
3.22731e-05
-2.25421e-05
3.02501e-05
-9.57758e-06
3.0412e-05
-1.29686e-05
3.22203e-05
-1.79619e-05
3.07585e-05
-1.11155e-05
3.3544e-05
-2.35978e-05
2.62146e-05
-1.09553e-06
2.97204e-05
-2.54721e-05
3.05518e-05
-1.62244e-05
2.99409e-05
-9.92955e-06
3.2172e-05
-1.91002e-05
2.99335e-05
-1.0263e-05
3.42138e-05
-2.73307e-05
2.92116e-05
-5.83193e-06
3.02291e-05
-1.87223e-05
2.83649e-05
-9.88486e-06
2.7972e-05
-1.22236e-05
3.12739e-05
-2.41868e-05
2.94213e-05
-1.25027e-05
3.34714e-05
-2.339e-05
2.97653e-05
-3.93915e-06
3.21877e-05
-2.07218e-05
3.06044e-05
-1.29251e-05
2.90961e-05
-1.35279e-05
3.13565e-05
-2.2975e-05
2.72164e-05
-5.21864e-06
3.27822e-05
-2.57323e-05
2.86736e-05
-3.26584e-06
2.94083e-05
-1.68323e-05
2.99339e-05
-1.88912e-05
2.7451e-05
-1.13887e-05
3.24506e-05
-2.80847e-05
2.86811e-05
-5.45502e-06
3.22514e-05
-2.12297e-05
2.97951e-05
-7.49797e-06
2.93558e-05
-1.41589e-05
3.19264e-05
-2.38113e-05
2.95813e-05
-1.21922e-05
3.29579e-05
-2.41739e-05
2.93472e-05
-5.62861e-06
3.20567e-05
-1.91691e-05
3.00584e-05
-9.01256e-06
3.02385e-05
-1.47855e-05
3.42898e-05
-2.52363e-05
3.16586e-05
-1.16829e-05
3.45314e-05
-2.48911e-05
3.16716e-05
-8.19149e-06
3.33163e-05
-1.63792e-05
3.14073e-05
-8.34347e-06
3.13898e-05
-1.43984e-05
3.3296e-05
-2.11661e-05
3.21327e-05
-1.51172e-05
3.47326e-05
-2.4113e-05
3.21268e-05
-1.02332e-05
3.44304e-05
-2.0157e-05
3.13988e-05
-5.3626e-06
3.23819e-05
-1.49102e-05
3.33255e-05
-1.64184e-05
3.32659e-05
-1.4961e-05
3.38676e-05
-1.96135e-05
3.07311e-05
-1.08935e-05
3.27047e-05
-2.1047e-05
3.093e-05
-1.06155e-05
3.38331e-05
-1.97203e-05
3.22345e-05
-8.67245e-06
3.33634e-05
-1.69031e-05
3.31576e-05
-1.52597e-05
3.18243e-05
-1.41799e-05
3.08462e-05
-1.67377e-05
2.83226e-05
-1.05102e-05
3.15554e-05
-2.18646e-05
2.96384e-05
-8.48243e-06
3.26278e-05
-1.98332e-05
3.01647e-05
-8.5183e-06
3.13118e-05
-1.86563e-05
3.12786e-05
-1.70583e-05
3.05934e-05
-1.58869e-05
3.15652e-05
-1.99511e-05
3.04895e-05
-1.24168e-05
3.36135e-05
-1.98905e-05
3.09916e-05
-6.01596e-06
3.33737e-05
-1.97097e-05
3.07323e-05
-8.88702e-06
3.26714e-05
-2.07844e-05
3.34472e-05
-1.92538e-05
3.28432e-05
-1.64886e-05
3.22179e-05
-1.52437e-05
3.12268e-05
-1.01063e-05
3.4225e-05
-1.94285e-05
3.23378e-05
-9.85848e-06
3.4878e-05
-2.19828e-05
3.27196e-05
-1.27188e-05
3.41503e-05
-2.20282e-05
3.27705e-05
-1.3438e-05
3.27643e-05
-1.50843e-05
3.18007e-05
-1.05933e-05
3.16647e-05
-1.15627e-05
3.32953e-05
-1.83365e-05
3.25166e-05
-1.36981e-05
3.29676e-05
-1.90204e-05
3.0568e-05
-1.28165e-05
3.28371e-05
-2.17496e-05
3.09525e-05
-1.02452e-05
3.34269e-05
-1.86385e-05
3.09437e-05
-6.55888e-06
3.20141e-05
-1.6895e-05
3.28269e-05
-1.80033e-05
3.27216e-05
-1.72862e-05
3.31622e-05
-2.00238e-05
3.12303e-05
-1.10364e-05
3.4267e-05
-1.94099e-05
3.21178e-05
-7.09148e-06
3.47282e-05
-2.01675e-05
3.25351e-05
-1.06465e-05
3.28496e-05
-1.8776e-05
3.18676e-05
-1.57694e-05
3.10915e-05
-1.47172e-05
3.11843e-05
-1.54225e-05
3.19772e-05
-1.48804e-05
3.27803e-05
-1.45124e-05
3.30526e-05
-1.43614e-05
3.44276e-05
-1.95312e-05
3.2835e-05
-1.46095e-05
3.42304e-05
-2.17833e-05
3.26654e-05
-1.30219e-05
3.44676e-05
-1.90264e-05
3.29986e-05
-8.76846e-06
3.36319e-05
-1.34793e-05
3.20652e-05
-1.0329e-05
3.16477e-05
-1.51231e-05
3.25858e-05
-2.05962e-05
3.24336e-05
-1.80384e-05
3.3043e-05
-1.86556e-05
3.2851e-05
-1.44638e-05
3.46847e-05
-1.67564e-05
3.3513e-05
-9.05114e-06
3.50108e-05
-1.72932e-05
3.28554e-05
-1.08088e-05
3.3356e-05
-1.83633e-05
3.17841e-05
-1.24469e-05
3.22442e-05
-1.80156e-05
3.28392e-05
-1.92454e-05
3.27872e-05
-1.59368e-05
3.26845e-05
-1.46651e-05
3.17088e-05
-9.94799e-06
3.34685e-05
-1.6515e-05
3.27107e-05
-1.23831e-05
3.50349e-05
-2.14564e-05
3.35333e-05
-1.46206e-05
3.43539e-05
-2.0747e-05
3.31525e-05
-1.37711e-05
3.33839e-05
-1.52406e-05
3.29294e-05
-1.12985e-05
3.32935e-05
-1.31819e-05
3.30732e-05
-1.39759e-05
3.23536e-05
-1.39689e-05
3.3694e-05
-2.16921e-05
3.31494e-05
-1.74257e-05
3.402e-05
-1.8772e-05
3.2554e-05
-1.11828e-05
3.45104e-05
-1.69349e-05
3.28214e-05
-8.90759e-06
3.33801e-05
-1.82718e-05
3.20757e-05
-1.51367e-05
3.29888e-05
-1.89356e-05
3.26703e-05
-1.50818e-05
3.29178e-05
-1.65785e-05
3.35241e-05
-1.75222e-05
3.34344e-05
-1.52876e-05
3.36103e-05
-1.61691e-05
3.31853e-05
-1.44772e-05
3.32696e-05
-1.62774e-05
2.98233e-05
-8.60888e-06
3.00054e-05
-1.68466e-05
3.06616e-05
-1.7239e-05
3.11623e-05
-1.66847e-05
3.15601e-05
-1.62832e-05
3.19954e-05
-1.65819e-05
3.28364e-05
-1.69978e-05
3.33431e-05
-1.6753e-05
3.65345e-05
-2.10257e-05
4.74118e-05
-3.5581e-05
5.15902e-05
-2.18336e-05
4.16776e-05
6.6286e-06
3.53709e-05
-5.11745e-06
-1.20593e-05
9.94288e-05
3.74339e-05
9.34365e-05
2.20696e-05
8.60997e-05
7.0534e-06
8.00867e-05
-2.59371e-06
7.57095e-05
-7.15003e-06
7.24369e-05
-9.36996e-06
6.99182e-05
-1.06725e-05
6.79141e-05
-1.14903e-05
6.62808e-05
-1.21056e-05
6.49103e-05
-1.25871e-05
6.37256e-05
-1.29473e-05
6.2691e-05
-1.32313e-05
6.17843e-05
-1.34806e-05
6.0986e-05
-1.36979e-05
6.02685e-05
-1.38637e-05
5.96186e-05
-1.4002e-05
5.9027e-05
-1.41185e-05
5.84879e-05
-1.4226e-05
5.79938e-05
-1.43216e-05
5.7535e-05
-1.43981e-05
5.71075e-05
-1.44619e-05
5.67087e-05
-1.45204e-05
5.63363e-05
-1.45749e-05
5.59877e-05
-1.46257e-05
5.56595e-05
-1.46691e-05
5.53496e-05
-1.47078e-05
5.50567e-05
-1.47438e-05
5.47792e-05
-1.47761e-05
5.45168e-05
-1.48089e-05
5.42669e-05
-1.48358e-05
5.4029e-05
-1.48616e-05
5.38017e-05
-1.48841e-05
5.35846e-05
-1.49061e-05
5.3377e-05
-1.49267e-05
5.31784e-05
-1.49464e-05
5.29877e-05
-1.49635e-05
5.28044e-05
-1.49794e-05
5.26282e-05
-1.49949e-05
5.24583e-05
-1.50086e-05
5.2295e-05
-1.50231e-05
5.21374e-05
-1.50356e-05
5.19852e-05
-1.50474e-05
5.18381e-05
-1.50587e-05
5.16957e-05
-1.50686e-05
5.1558e-05
-1.50793e-05
5.14246e-05
-1.50886e-05
5.12956e-05
-1.50985e-05
5.11702e-05
-1.51061e-05
5.10486e-05
-1.51148e-05
5.09304e-05
-1.51221e-05
5.08156e-05
-1.51297e-05
5.0704e-05
-1.5137e-05
5.05956e-05
-1.51439e-05
5.04901e-05
-1.51504e-05
5.03874e-05
-1.51566e-05
5.02873e-05
-1.51624e-05
5.01899e-05
-1.51685e-05
5.00951e-05
-1.51736e-05
5.0003e-05
-1.51798e-05
4.99132e-05
-1.51849e-05
4.98259e-05
-1.51905e-05
4.97408e-05
-1.51954e-05
4.9658e-05
-1.52007e-05
4.95773e-05
-1.52055e-05
4.94989e-05
-1.52108e-05
4.94226e-05
-1.52155e-05
4.93485e-05
-1.52206e-05
4.92764e-05
-1.52255e-05
4.92066e-05
-1.52304e-05
4.91391e-05
-1.5236e-05
4.90739e-05
-1.52413e-05
4.90112e-05
-1.52473e-05
4.89511e-05
-1.52534e-05
4.88938e-05
-1.52602e-05
4.88393e-05
-1.52667e-05
4.87884e-05
-1.52755e-05
4.87407e-05
-1.52829e-05
4.86974e-05
-1.52942e-05
4.86581e-05
-1.53034e-05
4.86246e-05
-1.53181e-05
4.8596e-05
-1.53293e-05
4.85754e-05
-1.53502e-05
4.85608e-05
-1.53641e-05
4.85585e-05
-1.53939e-05
4.85639e-05
-1.54122e-05
4.85821e-05
-1.54461e-05
4.86136e-05
-1.54779e-05
4.86705e-05
-1.55419e-05
4.87411e-05
-1.55752e-05
4.88511e-05
-1.5673e-05
4.89835e-05
-1.57249e-05
4.9179e-05
-1.58894e-05
4.94142e-05
-1.59868e-05
4.97582e-05
-1.62647e-05
5.01788e-05
-1.64617e-05
5.0845e-05
-1.7104e-05
5.16369e-05
-1.73047e-05
5.38258e-05
-2.1734e-05
5.49586e-05
-1.95735e-05
4.40579e-05
2.38011e-05
3.25206e-05
1.57196e-05
3.01508e-05
-1.83252e-05
3.02212e-05
-1.81043e-05
3.07513e-05
-1.79189e-05
3.16657e-05
-1.80837e-05
3.23328e-05
-1.72512e-05
3.33549e-05
-1.78637e-05
3.38742e-05
-1.64239e-05
3.47159e-05
-1.70191e-05
3.7672e-05
-2.43871e-05
3.78126e-05
-1.27883e-05
3.70043e-05
-1.12446e-05
3.79022e-05
-2.30514e-05
3.64916e-05
-1.06419e-05
3.82148e-05
-2.42653e-05
3.72517e-05
-8.61448e-06
3.70691e-05
-1.2786e-05
3.78453e-05
-1.87382e-05
3.74427e-05
-1.07129e-05
3.88545e-05
-2.50096e-05
3.3738e-05
4.02099e-06
3.58057e-05
-2.75397e-05
3.70508e-05
-1.74695e-05
3.66472e-05
-9.52604e-06
3.76587e-05
-2.01117e-05
3.69732e-05
-9.57743e-06
3.96164e-05
-2.9974e-05
3.62465e-05
-2.462e-06
3.64904e-05
-1.89662e-05
3.52667e-05
-8.6611e-06
3.47549e-05
-1.17118e-05
3.65274e-05
-2.59593e-05
3.60647e-05
-1.20401e-05
3.87979e-05
-2.61232e-05
3.65792e-05
-1.72041e-06
3.81671e-05
-2.23097e-05
3.7531e-05
-1.22891e-05
3.61431e-05
-1.214e-05
3.68193e-05
-2.36512e-05
3.45591e-05
-2.95841e-06
3.80195e-05
-2.91928e-05
3.5501e-05
-7.47327e-07
3.56413e-05
-1.69726e-05
3.58183e-05
-1.90682e-05
3.44884e-05
-1.00588e-05
3.75438e-05
-3.11401e-05
3.54859e-05
-3.39708e-06
3.79508e-05
-2.36947e-05
3.68678e-05
-6.41495e-06
3.61875e-05
-1.34785e-05
3.7326e-05
-2.49498e-05
3.64154e-05
-1.12816e-05
3.84064e-05
-2.6165e-05
3.62577e-05
-3.4799e-06
3.80637e-05
-2.0975e-05
3.71512e-05
-8.10009e-06
3.71589e-05
-1.47932e-05
3.96049e-05
-2.76823e-05
3.8669e-05
-1.07471e-05
4.04003e-05
-2.66223e-05
3.87035e-05
-6.49478e-06
3.96711e-05
-1.73467e-05
3.86201e-05
-7.2925e-06
3.83378e-05
-1.41161e-05
3.92267e-05
-2.2055e-05
3.90032e-05
-1.48937e-05
4.06718e-05
-2.57817e-05
3.94031e-05
-8.9645e-06
4.05902e-05
-2.13441e-05
3.85386e-05
-3.31101e-06
3.90054e-05
-1.5377e-05
3.99552e-05
-1.73682e-05
4.00488e-05
-1.50546e-05
4.00547e-05
-1.96193e-05
3.80351e-05
-8.87396e-06
3.88043e-05
-2.18162e-05
3.79686e-05
-9.77976e-06
3.9824e-05
-2.15757e-05
3.90293e-05
-7.87778e-06
3.96854e-05
-1.75593e-05
3.97443e-05
-1.53186e-05
3.87199e-05
-1.31555e-05
3.7243e-05
-1.52608e-05
3.54223e-05
-8.68948e-06
3.72788e-05
-2.37211e-05
3.64452e-05
-7.64877e-06
3.82562e-05
-2.16442e-05
3.6795e-05
-7.05717e-06
3.74976e-05
-1.93588e-05
3.77362e-05
-1.72969e-05
3.72027e-05
-1.53534e-05
3.74774e-05
-2.02259e-05
3.72293e-05
-1.21686e-05
3.92409e-05
-2.19021e-05
3.79773e-05
-4.75231e-06
3.92105e-05
-2.0943e-05
3.75822e-05
-7.25871e-06
3.89269e-05
-2.21291e-05
3.98489e-05
-2.01757e-05
3.94428e-05
-1.60826e-05
3.87346e-05
-1.45355e-05
3.83097e-05
-9.68148e-06
4.01877e-05
-2.13064e-05
3.94395e-05
-9.11027e-06
4.09402e-05
-2.34836e-05
3.9742e-05
-1.15206e-05
4.05549e-05
-2.28411e-05
3.9667e-05
-1.25501e-05
3.9433e-05
-1.48503e-05
3.87594e-05
-9.91963e-06
3.85314e-05
-1.13348e-05
3.94279e-05
-1.9233e-05
3.92384e-05
-1.35086e-05
3.92058e-05
-1.89879e-05
3.76218e-05
-1.12325e-05
3.88248e-05
-2.29527e-05
3.7934e-05
-9.35438e-06
3.93787e-05
-2.00832e-05
3.78075e-05
-4.9877e-06
3.8457e-05
-1.75444e-05
3.93449e-05
-1.88911e-05
3.93128e-05
-1.72541e-05
3.93431e-05
-2.00541e-05
3.84583e-05
-1.01516e-05
4.02435e-05
-2.11951e-05
3.92775e-05
-6.12547e-06
4.07901e-05
-2.168e-05
3.94863e-05
-9.34271e-06
3.94145e-05
-1.87042e-05
3.85877e-05
-1.49426e-05
3.7792e-05
-1.39214e-05
3.77272e-05
-1.53578e-05
3.84031e-05
-1.55563e-05
3.90814e-05
-1.51906e-05
3.95269e-05
-1.48069e-05
4.05057e-05
-2.051e-05
3.9781e-05
-1.38848e-05
4.05335e-05
-2.25358e-05
3.97478e-05
-1.22361e-05
4.07956e-05
-2.00742e-05
3.99539e-05
-7.92676e-06
4.01949e-05
-1.37202e-05
3.90736e-05
-9.20773e-06
3.85009e-05
-1.45504e-05
3.88766e-05
-2.09718e-05
3.89585e-05
-1.81204e-05
3.94277e-05
-1.91248e-05
3.96315e-05
-1.46676e-05
4.09449e-05
-1.80699e-05
4.05012e-05
-8.60742e-06
4.1302e-05
-1.8094e-05
3.99363e-05
-9.44304e-06
3.99122e-05
-1.83392e-05
3.87346e-05
-1.12693e-05
3.88978e-05
-1.81789e-05
3.93727e-05
-1.97203e-05
3.93626e-05
-1.59266e-05
3.91375e-05
-1.444e-05
3.86393e-05
-9.44983e-06
3.96548e-05
-1.75304e-05
3.95922e-05
-1.23205e-05
4.12323e-05
-2.30965e-05
4.04648e-05
-1.38531e-05
4.088e-05
-2.11622e-05
4.00982e-05
-1.29893e-05
4.00891e-05
-1.52316e-05
3.97404e-05
-1.09498e-05
3.98814e-05
-1.3323e-05
3.97002e-05
-1.37946e-05
3.93046e-05
-1.35732e-05
4.0028e-05
-2.24156e-05
3.99462e-05
-1.73439e-05
4.04539e-05
-1.92797e-05
3.96171e-05
-1.0346e-05
4.07645e-05
-1.80823e-05
3.98042e-05
-7.94734e-06
3.98748e-05
-1.83424e-05
3.8966e-05
-1.42278e-05
3.95097e-05
-1.94793e-05
3.94072e-05
-1.49793e-05
3.95606e-05
-1.67319e-05
4.00119e-05
-1.79735e-05
4.00974e-05
-1.53731e-05
4.01864e-05
-1.6258e-05
4.00402e-05
-1.43311e-05
3.96245e-05
-1.58617e-05
3.68366e-05
-5.82097e-06
3.6524e-05
-1.6534e-05
3.69871e-05
-1.77021e-05
3.73745e-05
-1.70721e-05
3.78784e-05
-1.6787e-05
3.82706e-05
-1.69742e-05
3.9295e-05
-1.80222e-05
3.9796e-05
-1.7254e-05
4.30538e-05
-2.42835e-05
5.33339e-05
-4.58612e-05
5.84283e-05
-2.6928e-05
5.23416e-05
1.27153e-05
4.57874e-05
1.43677e-06
-8.05139e-06
0.000102569
3.61152e-05
0.00010099
2.36487e-05
9.72211e-05
1.08218e-05
9.20747e-05
2.55273e-06
8.73721e-05
-2.44744e-06
8.34179e-05
-5.41576e-06
8.01889e-05
-7.4435e-06
7.75791e-05
-8.88049e-06
7.54536e-05
-9.98004e-06
7.36819e-05
-1.08154e-05
7.21831e-05
-1.14485e-05
7.08943e-05
-1.19426e-05
6.97719e-05
-1.23582e-05
6.87849e-05
-1.27109e-05
6.78983e-05
-1.29771e-05
6.70986e-05
-1.32023e-05
6.63751e-05
-1.3395e-05
6.57184e-05
-1.35692e-05
6.51175e-05
-1.37208e-05
6.45613e-05
-1.38419e-05
6.40455e-05
-1.39461e-05
6.35665e-05
-1.40414e-05
6.31206e-05
-1.4129e-05
6.27036e-05
-1.42088e-05
6.23117e-05
-1.42772e-05
6.19425e-05
-1.43386e-05
6.15946e-05
-1.43959e-05
6.12657e-05
-1.44472e-05
6.09549e-05
-1.44981e-05
6.06594e-05
-1.45403e-05
6.03784e-05
-1.45806e-05
6.01105e-05
-1.46162e-05
5.9855e-05
-1.46507e-05
5.96112e-05
-1.46829e-05
5.93779e-05
-1.47132e-05
5.91543e-05
-1.47399e-05
5.89395e-05
-1.47646e-05
5.87334e-05
-1.47888e-05
5.8535e-05
-1.48103e-05
5.83444e-05
-1.48324e-05
5.81606e-05
-1.48518e-05
5.79832e-05
-1.487e-05
5.7812e-05
-1.48875e-05
5.76464e-05
-1.4903e-05
5.74865e-05
-1.49195e-05
5.73317e-05
-1.49338e-05
5.7182e-05
-1.49488e-05
5.70366e-05
-1.49607e-05
5.68957e-05
-1.4974e-05
5.67589e-05
-1.49853e-05
5.66262e-05
-1.49969e-05
5.64972e-05
-1.50081e-05
5.6372e-05
-1.50187e-05
5.62501e-05
-1.50286e-05
5.61316e-05
-1.50381e-05
5.60162e-05
-1.5047e-05
5.5904e-05
-1.50562e-05
5.57946e-05
-1.50643e-05
5.56884e-05
-1.50736e-05
5.55849e-05
-1.50814e-05
5.54842e-05
-1.50898e-05
5.5386e-05
-1.50973e-05
5.52905e-05
-1.51053e-05
5.51975e-05
-1.51125e-05
5.51072e-05
-1.51205e-05
5.50192e-05
-1.51275e-05
5.49337e-05
-1.51351e-05
5.48506e-05
-1.51424e-05
5.47701e-05
-1.51499e-05
5.46921e-05
-1.5158e-05
5.46168e-05
-1.5166e-05
5.45442e-05
-1.51747e-05
5.44746e-05
-1.51837e-05
5.4408e-05
-1.51936e-05
5.43446e-05
-1.52033e-05
5.42849e-05
-1.52159e-05
5.42289e-05
-1.52268e-05
5.41775e-05
-1.52428e-05
5.41305e-05
-1.52564e-05
5.40897e-05
-1.52773e-05
5.40541e-05
-1.52937e-05
5.40269e-05
-1.5323e-05
5.40063e-05
-1.53434e-05
5.39982e-05
-1.53858e-05
5.39993e-05
-1.54132e-05
5.40136e-05
-1.54605e-05
5.40414e-05
-1.55057e-05
5.40953e-05
-1.55958e-05
5.41643e-05
-1.56442e-05
5.42734e-05
-1.57822e-05
5.44067e-05
-1.58581e-05
5.46034e-05
-1.60861e-05
5.48417e-05
-1.6225e-05
5.51906e-05
-1.66136e-05
5.56161e-05
-1.68872e-05
5.62861e-05
-1.77741e-05
5.7081e-05
-1.80995e-05
5.91282e-05
-2.37813e-05
5.95989e-05
-2.00442e-05
5.16651e-05
3.17349e-05
4.14846e-05
2.59001e-05
3.66673e-05
-1.35079e-05
3.55927e-05
-1.70296e-05
3.54711e-05
-1.77973e-05
3.60083e-05
-1.86209e-05
3.64581e-05
-1.7701e-05
3.73578e-05
-1.87633e-05
3.78295e-05
-1.68956e-05
3.86918e-05
-1.78814e-05
4.1272e-05
-2.69673e-05
4.184e-05
-1.33563e-05
4.14157e-05
-1.08203e-05
4.15604e-05
-2.31961e-05
4.09969e-05
-1.00784e-05
4.21101e-05
-2.53786e-05
4.17209e-05
-8.22529e-06
4.15808e-05
-1.26458e-05
4.19099e-05
-1.90673e-05
4.20298e-05
-1.08327e-05
4.21127e-05
-2.50924e-05
3.88744e-05
7.25927e-06
3.99775e-05
-2.86428e-05
4.13485e-05
-1.88406e-05
4.12798e-05
-9.45732e-06
4.14919e-05
-2.03238e-05
4.17045e-05
-9.79005e-06
4.29223e-05
-3.11918e-05
4.0921e-05
-4.60708e-07
4.06862e-05
-1.87314e-05
4.00195e-05
-7.99445e-06
3.961e-05
-1.13023e-05
4.02384e-05
-2.65877e-05
4.05805e-05
-1.23821e-05
4.21115e-05
-2.76542e-05
4.11029e-05
-7.11795e-07
4.21116e-05
-2.33185e-05
4.20442e-05
-1.22216e-05
4.10116e-05
-1.11074e-05
4.04824e-05
-2.3122e-05
3.95384e-05
-2.01438e-06
4.14106e-05
-3.1065e-05
4.00352e-05
6.28088e-07
3.9939e-05
-1.68764e-05
4.00308e-05
-1.916e-05
3.94578e-05
-9.48585e-06
4.07752e-05
-3.24576e-05
4.00374e-05
-2.65924e-06
4.16493e-05
-2.53065e-05
4.13292e-05
-6.09486e-06
4.08097e-05
-1.29591e-05
4.11959e-05
-2.5336e-05
4.10697e-05
-1.11553e-05
4.18424e-05
-2.69376e-05
4.08746e-05
-2.51213e-06
4.20132e-05
-2.21136e-05
4.18364e-05
-7.92332e-06
4.19335e-05
-1.48903e-05
4.31954e-05
-2.89442e-05
4.32861e-05
-1.08378e-05
4.40527e-05
-2.73888e-05
4.33396e-05
-5.7817e-06
4.38096e-05
-1.78167e-05
4.32523e-05
-6.73523e-06
4.30192e-05
-1.3883e-05
4.34424e-05
-2.24783e-05
4.3685e-05
-1.51363e-05
4.44394e-05
-2.65361e-05
4.41253e-05
-8.65035e-06
4.45889e-05
-2.18078e-05
4.32949e-05
-2.01693e-06
4.34475e-05
-1.55296e-05
4.42631e-05
-1.81838e-05
4.44726e-05
-1.52641e-05
4.4122e-05
-1.92688e-05
4.29943e-05
-7.7462e-06
4.29e-05
-2.1722e-05
4.27052e-05
-9.58495e-06
4.37977e-05
-2.26682e-05
4.35527e-05
-7.6328e-06
4.39126e-05
-1.79192e-05
4.39583e-05
-1.53642e-05
4.31713e-05
-1.23686e-05
4.17893e-05
-1.38787e-05
4.05839e-05
-7.48407e-06
4.11241e-05
-2.42613e-05
4.10284e-05
-7.55305e-06
4.19895e-05
-2.26054e-05
4.12446e-05
-6.31223e-06
4.16376e-05
-1.97518e-05
4.19644e-05
-1.76237e-05
4.16716e-05
-1.50606e-05
4.1596e-05
-2.01503e-05
4.18266e-05
-1.23992e-05
4.28165e-05
-2.2892e-05
4.25184e-05
-4.45424e-06
4.30019e-05
-2.14264e-05
4.21561e-05
-6.41292e-06
4.30514e-05
-2.30244e-05
4.39285e-05
-2.10528e-05
4.3734e-05
-1.58881e-05
4.3224e-05
-1.40255e-05
4.32235e-05
-9.68093e-06
4.40876e-05
-2.21705e-05
4.41138e-05
-9.13651e-06
4.47933e-05
-2.41631e-05
4.43678e-05
-1.1095e-05
4.47015e-05
-2.31748e-05
4.42162e-05
-1.20649e-05
4.38816e-05
-1.45157e-05
4.33928e-05
-9.43081e-06
4.32105e-05
-1.11525e-05
4.35953e-05
-1.96177e-05
4.36598e-05
-1.35732e-05
4.33208e-05
-1.86489e-05
4.25062e-05
-1.04179e-05
4.27595e-05
-2.32059e-05
4.25755e-05
-9.17034e-06
4.33e-05
-2.08077e-05
4.23979e-05
-4.0856e-06
4.2768e-05
-1.79145e-05
4.35848e-05
-1.9708e-05
4.37074e-05
-1.73767e-05
4.35449e-05
-1.98916e-05
4.3314e-05
-9.9207e-06
4.40775e-05
-2.19586e-05
4.39623e-05
-6.01025e-06
4.47384e-05
-2.24561e-05
4.40791e-05
-8.6834e-06
4.37425e-05
-1.83676e-05
4.3063e-05
-1.4263e-05
4.23348e-05
-1.31932e-05
4.22014e-05
-1.52244e-05
4.27771e-05
-1.6132e-05
4.33189e-05
-1.57324e-05
4.38745e-05
-1.53625e-05
4.44763e-05
-2.11119e-05
4.43243e-05
-1.37328e-05
4.45421e-05
-2.27536e-05
4.44092e-05
-1.21033e-05
4.49137e-05
-2.05787e-05
4.45632e-05
-7.57618e-06
4.45218e-05
-1.36789e-05
4.36773e-05
-8.36326e-06
4.31106e-05
-1.39838e-05
4.32069e-05
-2.10681e-05
4.33945e-05
-1.8308e-05
4.3696e-05
-1.94262e-05
4.41423e-05
-1.51138e-05
4.49996e-05
-1.89272e-05
4.50869e-05
-8.69467e-06
4.5343e-05
-1.83501e-05
4.45958e-05
-8.69588e-06
4.42404e-05
-1.79838e-05
4.33856e-05
-1.04144e-05
4.33655e-05
-1.81588e-05
4.37025e-05
-2.00573e-05
4.37447e-05
-1.59689e-05
4.35126e-05
-1.42078e-05
4.33569e-05
-9.29419e-06
4.3799e-05
-1.79725e-05
4.41843e-05
-1.27058e-05
4.51717e-05
-2.40839e-05
4.49916e-05
-1.3673e-05
4.51087e-05
-2.12793e-05
4.46851e-05
-1.25657e-05
4.45288e-05
-1.50753e-05
4.42705e-05
-1.06914e-05
4.4313e-05
-1.33655e-05
4.4177e-05
-1.36587e-05
4.39916e-05
-1.33878e-05
4.42549e-05
-2.26789e-05
4.44124e-05
-1.75013e-05
4.46289e-05
-1.94962e-05
4.43676e-05
-1.00847e-05
4.484e-05
-1.85547e-05
4.443e-05
-7.53732e-06
4.41747e-05
-1.80871e-05
4.36002e-05
-1.36533e-05
4.38551e-05
-1.97343e-05