/*--------------------------------*- C++ -*----------------------------------*\
| =========                 |                                                 |
| \\      /  F ield         | foam-extend: Open Source CFD                    |
|  \\    /   O peration     | Version:     3.2                                |
|   \\  /    A nd           | Web:         http://www.foam-extend.org         |
|    \\/     M anipulation  | For copyright notice see file Copyright         |
\*---------------------------------------------------------------------------*/
FoamFile
{
    version     2.0;
    format      ascii;
    class       surfaceScalarField;
    location    "160";
    object      AdSS2;
}
// * * * * * * * * * * * * * * * * * * * * * * * * * * * * * * * * * * * * * //

dimensions      [0 3 -1 0 0 0 0];

internalField   nonuniform List<scalar> 
191380
(
6.20162e-05
-1.62925e-06
4.34316e-05
-2.22785e-05
3.68831e-05
-3.43145e-05
3.4861e-05
-3.88409e-05
3.39662e-05
-3.99682e-05
3.33299e-05
-4.02268e-05
3.27754e-05
-4.03086e-05
3.22528e-05
-4.03404e-05
3.17611e-05
-4.03714e-05
3.13152e-05
-4.04172e-05
3.09159e-05
-4.04637e-05
3.05513e-05
-4.04985e-05
3.0221e-05
-4.05328e-05
2.99228e-05
-4.05648e-05
2.96509e-05
-4.05912e-05
2.94014e-05
-4.06135e-05
2.91694e-05
-4.06311e-05
2.89547e-05
-4.06483e-05
2.87583e-05
-4.06667e-05
2.85779e-05
-4.06826e-05
2.84077e-05
-4.06929e-05
2.82466e-05
-4.07019e-05
2.80941e-05
-4.07106e-05
2.79505e-05
-4.07195e-05
2.78145e-05
-4.07271e-05
2.76852e-05
-4.07337e-05
2.7562e-05
-4.07398e-05
2.74442e-05
-4.07453e-05
2.73325e-05
-4.07513e-05
2.72255e-05
-4.07561e-05
2.71233e-05
-4.07608e-05
2.7025e-05
-4.07647e-05
2.69306e-05
-4.07687e-05
2.68399e-05
-4.07724e-05
2.6753e-05
-4.07762e-05
2.66692e-05
-4.07792e-05
2.65883e-05
-4.07822e-05
2.65103e-05
-4.0785e-05
2.64347e-05
-4.07874e-05
2.63619e-05
-4.07903e-05
2.62914e-05
-4.07926e-05
2.62232e-05
-4.07948e-05
2.61571e-05
-4.07969e-05
2.60928e-05
-4.07988e-05
2.60306e-05
-4.08008e-05
2.59701e-05
-4.08026e-05
2.59116e-05
-4.08046e-05
2.58545e-05
-4.08059e-05
2.57991e-05
-4.08077e-05
2.5745e-05
-4.0809e-05
2.56924e-05
-4.08104e-05
2.56413e-05
-4.08119e-05
2.55915e-05
-4.08132e-05
2.5543e-05
-4.08145e-05
2.54956e-05
-4.08157e-05
2.54494e-05
-4.08168e-05
2.54044e-05
-4.08181e-05
2.536e-05
-4.08187e-05
2.53167e-05
-4.08197e-05
2.52744e-05
-4.08207e-05
2.52332e-05
-4.08219e-05
2.51931e-05
-4.08229e-05
2.5154e-05
-4.0824e-05
2.5116e-05
-4.0825e-05
2.5079e-05
-4.08261e-05
2.50431e-05
-4.08271e-05
2.50081e-05
-4.08281e-05
2.49743e-05
-4.08292e-05
2.49414e-05
-4.08302e-05
2.49098e-05
-4.08315e-05
2.48794e-05
-4.08326e-05
2.48503e-05
-4.0834e-05
2.48225e-05
-4.08352e-05
2.47963e-05
-4.08369e-05
2.47714e-05
-4.08382e-05
2.47488e-05
-4.08404e-05
2.47276e-05
-4.08419e-05
2.47093e-05
-4.08447e-05
2.46929e-05
-4.08467e-05
2.46802e-05
-4.08504e-05
2.46699e-05
-4.08527e-05
2.4665e-05
-4.08582e-05
2.46628e-05
-4.08608e-05
2.46676e-05
-4.08678e-05
2.46766e-05
-4.08721e-05
2.46947e-05
-4.08811e-05
2.47197e-05
-4.08881e-05
2.47603e-05
-4.09036e-05
2.48088e-05
-4.09116e-05
2.488e-05
-4.09342e-05
2.49619e-05
-4.09449e-05
2.50861e-05
-4.09873e-05
2.5233e-05
-4.10099e-05
2.54491e-05
-4.10792e-05
2.57144e-05
-4.11284e-05
2.61486e-05
-4.12973e-05
2.65428e-05
-4.12572e-05
2.8437e-05
-4.27573e-05
2.96475e-05
-4.20736e-05
1.56157e-05
-2.68034e-05
7.88683e-06
-3.30353e-05
1.20606e-05
-4.48726e-05
1.37755e-05
-4.23766e-05
1.49669e-05
-4.18261e-05
1.58823e-05
-4.15308e-05
1.65545e-05
-4.12722e-05
1.72694e-05
-4.13034e-05
1.75821e-05
-4.08899e-05
1.79347e-05
-4.09263e-05
2.10153e-05
-4.36062e-05
1.96239e-05
-3.87805e-05
1.76059e-05
-3.88466e-05
2.04507e-05
-4.56628e-05
1.71256e-05
-4.00892e-05
2.03387e-05
-4.5468e-05
1.75529e-05
-3.70742e-05
1.79e-05
-3.82803e-05
2.09639e-05
-4.16272e-05
1.80948e-05
-3.80509e-05
2.18948e-05
-4.62859e-05
1.34154e-05
-3.38985e-05
1.8474e-05
-4.74398e-05
1.86745e-05
-4.08667e-05
1.68272e-05
-3.60141e-05
2.0845e-05
-4.23427e-05
1.75354e-05
-3.79751e-05
2.25534e-05
-4.8524e-05
1.60493e-05
-3.63077e-05
1.83664e-05
-4.31784e-05
1.6551e-05
-3.72226e-05
1.58101e-05
-3.80901e-05
2.02845e-05
-4.63585e-05
1.71328e-05
-3.98289e-05
2.21002e-05
-4.48134e-05
1.68761e-05
-3.31189e-05
2.0413e-05
-4.3773e-05
1.812e-05
-3.99821e-05
1.55948e-05
-4.05098e-05
2.00549e-05
-4.61882e-05
1.51227e-05
-3.48323e-05
2.18157e-05
-4.56401e-05
1.5773e-05
-3.2848e-05
1.72657e-05
-4.15712e-05
1.90675e-05
-4.38392e-05
1.51979e-05
-3.93453e-05
2.14211e-05
-4.85587e-05
1.61197e-05
-3.46982e-05
2.06257e-05
-4.3133e-05
1.71859e-05
-3.54278e-05
1.6784e-05
-4.00718e-05
2.07175e-05
-4.67143e-05
1.71023e-05
-4.00109e-05
2.13765e-05
-4.62709e-05
1.65246e-05
-3.47129e-05
2.01106e-05
-4.19331e-05
1.77393e-05
-3.64844e-05
1.76191e-05
-4.00791e-05
2.24905e-05
-4.66586e-05
1.8463e-05
-3.97878e-05
2.21736e-05
-4.74918e-05
1.82391e-05
-3.65249e-05
2.06847e-05
-4.02081e-05
1.83777e-05
-3.5726e-05
1.84731e-05
-3.98895e-05
2.13183e-05
-4.47335e-05
1.8979e-05
-4.17541e-05
2.20867e-05
-4.69867e-05
1.86353e-05
-3.83127e-05
2.19182e-05
-4.3327e-05
1.79814e-05
-3.38678e-05
1.97352e-05
-3.94006e-05
2.07856e-05
-4.09484e-05
1.96622e-05
-4.04943e-05
2.11935e-05
-4.44853e-05
1.76893e-05
-3.95037e-05
2.05145e-05
-4.45469e-05
1.80443e-05
-3.78638e-05
2.16875e-05
-4.22908e-05
1.91911e-05
-3.57446e-05
2.06785e-05
-4.12478e-05
2.01763e-05
-4.0939e-05
1.82892e-05
-4.09868e-05
1.89306e-05
-4.31894e-05
1.62609e-05
-3.85074e-05
2.01181e-05
-4.41054e-05
1.73172e-05
-3.5873e-05
2.11193e-05
-4.23175e-05
1.76147e-05
-3.6455e-05
1.93984e-05
-4.29827e-05
1.91051e-05
-4.25651e-05
1.76357e-05
-4.20458e-05
1.97989e-05
-4.44529e-05
1.80426e-05
-3.8966e-05
2.17104e-05
-4.22401e-05
1.81115e-05
-3.41114e-05
2.14562e-05
-4.28012e-05
1.7777e-05
-3.70021e-05
2.03643e-05
-4.43188e-05
2.05202e-05
-4.39516e-05
1.92065e-05
-4.25662e-05
1.9851e-05
-4.13426e-05
1.84681e-05
-3.6571e-05
2.19841e-05
-4.19039e-05
1.9128e-05
-3.72193e-05
2.23666e-05
-4.49162e-05
1.90781e-05
-4.03508e-05
2.11851e-05
-4.60711e-05
1.94182e-05
-4.02914e-05
1.99844e-05
-4.05641e-05
1.9091e-05
-3.70306e-05
1.85774e-05
-3.71723e-05
2.10242e-05
-4.21795e-05
1.95053e-05
-3.99504e-05
2.05489e-05
-4.40431e-05
1.77919e-05
-4.06896e-05
2.07084e-05
-4.49541e-05
1.80944e-05
-3.76035e-05
2.13882e-05
-4.16376e-05
1.79616e-05
-3.45157e-05
1.9657e-05
-4.12981e-05
2.04369e-05
-4.26641e-05
1.92796e-05
-4.2865e-05
2.06851e-05
-4.50568e-05
1.82928e-05
-3.84418e-05
2.19549e-05
-4.18469e-05
1.88801e-05
-3.47143e-05
2.2279e-05
-4.30307e-05
1.91606e-05
-3.83132e-05
1.9949e-05
-4.39351e-05
1.89414e-05
-4.2225e-05
1.83935e-05
-4.09668e-05
1.89325e-05
-4.08033e-05
1.97341e-05
-3.95611e-05
2.05049e-05
-3.91829e-05
2.00426e-05
-3.95626e-05
2.17637e-05
-4.36299e-05
1.95066e-05
-4.16757e-05
2.13608e-05
-4.58615e-05
1.92571e-05
-4.00605e-05
2.16791e-05
-4.26978e-05
1.96203e-05
-3.5711e-05
2.07494e-05
-3.83195e-05
1.90423e-05
-3.73693e-05
1.88403e-05
-4.10142e-05
2.0187e-05
-4.51317e-05
1.94849e-05
-4.36642e-05
2.04407e-05
-4.35199e-05
1.9826e-05
-4.01293e-05
2.1935e-05
-4.03963e-05
2.01617e-05
-3.56964e-05
2.21226e-05
-4.12691e-05
1.93395e-05
-3.84378e-05
2.04604e-05
-4.33363e-05
1.83718e-05
-3.94923e-05
1.94058e-05
-4.30292e-05
2.0283e-05
-4.41239e-05
1.96105e-05
-4.14623e-05
2.0144e-05
-4.02414e-05
1.89043e-05
-3.63973e-05
2.11672e-05
-4.02288e-05
1.97135e-05
-3.86145e-05
2.23113e-05
-4.46058e-05
1.98828e-05
-4.15958e-05
2.11913e-05
-4.54e-05
1.9673e-05
-4.04461e-05
2.02863e-05
-4.04829e-05
1.96687e-05
-3.72266e-05
2.03223e-05
-3.82914e-05
2.05597e-05
-3.96697e-05
1.92541e-05
-4.01621e-05
2.1005e-05
-4.58253e-05
1.98867e-05
-4.34438e-05
2.111e-05
-4.33751e-05
1.93079e-05
-3.81224e-05
2.1821e-05
-4.0452e-05
1.95018e-05
-3.60702e-05
2.05659e-05
-4.31867e-05
1.88988e-05
-4.19146e-05
2.02126e-05
-4.34961e-05
1.96494e-05
-4.08739e-05
1.99339e-05
-4.18046e-05
2.07377e-05
-4.23895e-05
2.02397e-05
-4.08508e-05
2.06021e-05
-4.14668e-05
1.98948e-05
-4.03758e-05
2.05201e-05
-4.16667e-05
1.69643e-05
-3.75288e-05
1.79085e-05
-4.21381e-05
1.87531e-05
-4.20564e-05
1.9197e-05
-4.16576e-05
1.93476e-05
-4.1359e-05
1.97746e-05
-4.16201e-05
2.02291e-05
-4.16303e-05
2.08038e-05
-4.172e-05
2.30138e-05
-4.33079e-05
3.21817e-05
-5.01773e-05
3.44052e-05
-4.31288e-05
2.22998e-05
-2.87576e-05
1.83345e-05
-3.68978e-05
-4.02362e-05
8.94817e-05
1.01391e-05
7.65994e-05
-9.39622e-06
6.8042e-05
-2.57571e-05
6.32813e-05
-3.40803e-05
6.03139e-05
-3.70008e-05
5.82033e-05
-3.81161e-05
5.65594e-05
-3.86648e-05
5.5187e-05
-3.89679e-05
5.40282e-05
-3.92125e-05
5.30422e-05
-3.94312e-05
5.21841e-05
-3.96056e-05
5.14251e-05
-3.97395e-05
5.07533e-05
-3.98609e-05
5.01583e-05
-3.99698e-05
4.96219e-05
-4.00548e-05
4.91339e-05
-4.01255e-05
4.86865e-05
-4.01837e-05
4.82768e-05
-4.02386e-05
4.78994e-05
-4.02894e-05
4.75473e-05
-4.03305e-05
4.72174e-05
-4.0363e-05
4.69083e-05
-4.03928e-05
4.66186e-05
-4.04209e-05
4.6347e-05
-4.04479e-05
4.60909e-05
-4.04709e-05
4.58485e-05
-4.04913e-05
4.56189e-05
-4.05102e-05
4.54008e-05
-4.05272e-05
4.51944e-05
-4.05449e-05
4.49976e-05
-4.05593e-05
4.48099e-05
-4.05732e-05
4.46302e-05
-4.0585e-05
4.44584e-05
-4.05968e-05
4.42939e-05
-4.06078e-05
4.41364e-05
-4.06186e-05
4.39849e-05
-4.06278e-05
4.38391e-05
-4.06364e-05
4.36989e-05
-4.06447e-05
4.35634e-05
-4.0652e-05
4.34332e-05
-4.066e-05
4.33074e-05
-4.06668e-05
4.31857e-05
-4.06732e-05
4.30681e-05
-4.06793e-05
4.2954e-05
-4.06847e-05
4.28437e-05
-4.06905e-05
4.27368e-05
-4.06956e-05
4.26333e-05
-4.07011e-05
4.25325e-05
-4.07052e-05
4.24349e-05
-4.071e-05
4.23398e-05
-4.07139e-05
4.22474e-05
-4.07181e-05
4.21576e-05
-4.07222e-05
4.20703e-05
-4.07259e-05
4.19853e-05
-4.07295e-05
4.19025e-05
-4.07329e-05
4.18218e-05
-4.07361e-05
4.17432e-05
-4.07394e-05
4.16666e-05
-4.07421e-05
4.15923e-05
-4.07454e-05
4.15198e-05
-4.07483e-05
4.14493e-05
-4.07514e-05
4.13806e-05
-4.07542e-05
4.13137e-05
-4.07571e-05
4.12485e-05
-4.07598e-05
4.11852e-05
-4.07628e-05
4.11236e-05
-4.07654e-05
4.10638e-05
-4.07683e-05
4.10056e-05
-4.07711e-05
4.09493e-05
-4.07739e-05
4.08949e-05
-4.07771e-05
4.08424e-05
-4.07801e-05
4.07921e-05
-4.07836e-05
4.07439e-05
-4.0787e-05
4.06981e-05
-4.07911e-05
4.06546e-05
-4.07948e-05
4.06143e-05
-4.08e-05
4.05766e-05
-4.08042e-05
4.05429e-05
-4.0811e-05
4.05125e-05
-4.08163e-05
4.04873e-05
-4.08252e-05
4.04662e-05
-4.08316e-05
4.04524e-05
-4.08444e-05
4.04438e-05
-4.08522e-05
4.04457e-05
-4.08698e-05
4.0454e-05
-4.08803e-05
4.04744e-05
-4.09016e-05
4.05063e-05
-4.092e-05
4.05613e-05
-4.09586e-05
4.06279e-05
-4.09782e-05
4.07303e-05
-4.10366e-05
4.08515e-05
-4.10661e-05
4.10317e-05
-4.11675e-05
4.12469e-05
-4.12252e-05
4.1562e-05
-4.13943e-05
4.19484e-05
-4.15147e-05
4.25626e-05
-4.19115e-05
4.32917e-05
-4.19863e-05
4.55532e-05
-4.50187e-05
4.73938e-05
-4.39142e-05
3.31637e-05
-1.25732e-05
2.14197e-05
-2.12913e-05
2.27157e-05
-4.61686e-05
2.38466e-05
-4.35075e-05
2.48828e-05
-4.28623e-05
2.59949e-05
-4.26429e-05
2.67804e-05
-4.20577e-05
2.77921e-05
-4.23151e-05
2.82805e-05
-4.13782e-05
2.90052e-05
-4.1651e-05
3.23036e-05
-4.69045e-05
3.16443e-05
-3.81213e-05
3.03242e-05
-3.75265e-05
3.22885e-05
-4.7627e-05
2.97253e-05
-3.75261e-05
3.22731e-05
-4.80157e-05
3.02501e-05
-3.50512e-05
3.0412e-05
-3.84422e-05
3.22203e-05
-4.34355e-05
3.07585e-05
-3.65891e-05
3.3544e-05
-4.90714e-05
2.62146e-05
-2.65691e-05
2.97204e-05
-5.09456e-05
3.05518e-05
-4.1698e-05
2.99409e-05
-3.54031e-05
3.2172e-05
-4.45738e-05
2.99335e-05
-3.57366e-05
3.42138e-05
-5.28043e-05
2.92116e-05
-3.13055e-05
3.02291e-05
-4.41958e-05
2.83649e-05
-3.53585e-05
2.7972e-05
-3.76972e-05
3.12739e-05
-4.96604e-05
2.94213e-05
-3.79763e-05
3.34714e-05
-4.88635e-05
2.97653e-05
-2.94127e-05
3.21877e-05
-4.61954e-05
3.06044e-05
-3.83987e-05
2.90961e-05
-3.90015e-05
3.13565e-05
-4.84486e-05
2.72164e-05
-3.06922e-05
3.27822e-05
-5.12059e-05
2.86736e-05
-2.87394e-05
2.94083e-05
-4.23059e-05
2.99339e-05
-4.43648e-05
2.7451e-05
-3.68623e-05
3.24506e-05
-5.35583e-05
2.86811e-05
-3.09286e-05
3.22514e-05
-4.67033e-05
2.97951e-05
-3.29716e-05
2.93558e-05
-3.96324e-05
3.19264e-05
-4.92849e-05
2.95813e-05
-3.76658e-05
3.29579e-05
-4.96475e-05
2.93472e-05
-3.11022e-05
3.20567e-05
-4.46427e-05
3.00584e-05
-3.44862e-05
3.02385e-05
-4.02591e-05
3.42898e-05
-5.07099e-05
3.16586e-05
-3.71565e-05
3.45314e-05
-5.03647e-05
3.16716e-05
-3.36651e-05
3.33163e-05
-4.18528e-05
3.14073e-05
-3.38171e-05
3.13898e-05
-3.9872e-05
3.3296e-05
-4.66397e-05
3.21327e-05
-4.05908e-05
3.47326e-05
-4.95866e-05
3.21268e-05
-3.57068e-05
3.44304e-05
-4.56306e-05
3.13988e-05
-3.08362e-05
3.23819e-05
-4.03838e-05
3.33255e-05
-4.1892e-05
3.32659e-05
-4.04346e-05
3.38676e-05
-4.5087e-05
3.07311e-05
-3.63671e-05
3.27047e-05
-4.65206e-05
3.093e-05
-3.60891e-05
3.38331e-05
-4.51939e-05
3.22345e-05
-3.4146e-05
3.33634e-05
-4.23767e-05
3.31576e-05
-4.07333e-05
3.18243e-05
-3.96535e-05
3.08462e-05
-4.22113e-05
2.83226e-05
-3.59838e-05
3.15554e-05
-4.73382e-05
2.96384e-05
-3.3956e-05
3.26278e-05
-4.53068e-05
3.01647e-05
-3.39919e-05
3.13118e-05
-4.41299e-05
3.12786e-05
-4.25319e-05
3.05934e-05
-4.13605e-05
3.15652e-05
-4.54247e-05
3.04895e-05
-3.78903e-05
3.36135e-05
-4.5364e-05
3.09916e-05
-3.14896e-05
3.33737e-05
-4.51833e-05
3.07323e-05
-3.43606e-05
3.26714e-05
-4.6258e-05
3.34472e-05
-4.47274e-05
3.28432e-05
-4.19622e-05
3.22179e-05
-4.07173e-05
3.12268e-05
-3.55799e-05
3.4225e-05
-4.49021e-05
3.23378e-05
-3.53321e-05
3.4878e-05
-4.74564e-05
3.27196e-05
-3.81924e-05
3.41503e-05
-4.75018e-05
3.27705e-05
-3.89116e-05
3.27643e-05
-4.05579e-05
3.18007e-05
-3.60669e-05
3.16647e-05
-3.70363e-05
3.32953e-05
-4.38101e-05
3.25166e-05
-3.91717e-05
3.29676e-05
-4.4494e-05
3.0568e-05
-3.82901e-05
3.28371e-05
-4.72232e-05
3.09525e-05
-3.57188e-05
3.34269e-05
-4.41121e-05
3.09437e-05
-3.20325e-05
3.20141e-05
-4.23686e-05
3.28269e-05
-4.34769e-05
3.27216e-05
-4.27598e-05
3.31622e-05
-4.54974e-05
3.12303e-05
-3.651e-05
3.4267e-05
-4.48835e-05
3.21178e-05
-3.25651e-05
3.47282e-05
-4.56411e-05
3.25351e-05
-3.61201e-05
3.28496e-05
-4.42496e-05
3.18676e-05
-4.1243e-05
3.10915e-05
-4.01907e-05
3.11843e-05
-4.08961e-05
3.19772e-05
-4.0354e-05
3.27803e-05
-3.9986e-05
3.30526e-05
-3.9835e-05
3.44276e-05
-4.50048e-05
3.2835e-05
-4.00831e-05
3.42304e-05
-4.72569e-05
3.26654e-05
-3.84955e-05
3.44676e-05
-4.45e-05
3.29986e-05
-3.42421e-05
3.36319e-05
-3.89528e-05
3.20652e-05
-3.58026e-05
3.16477e-05
-4.05966e-05
3.25858e-05
-4.60698e-05
3.24336e-05
-4.3512e-05
3.3043e-05
-4.41292e-05
3.2851e-05
-3.99374e-05
3.46847e-05
-4.223e-05
3.3513e-05
-3.45247e-05
3.50108e-05
-4.27668e-05
3.28554e-05
-3.62823e-05
3.3356e-05
-4.38369e-05
3.17841e-05
-3.79205e-05
3.22442e-05
-4.34892e-05
3.28392e-05
-4.4719e-05
3.27872e-05
-4.14103e-05
3.26845e-05
-4.01387e-05
3.17088e-05
-3.54216e-05
3.34685e-05
-4.19886e-05
3.27107e-05
-3.78567e-05
3.50349e-05
-4.693e-05
3.35333e-05
-4.00942e-05
3.43539e-05
-4.62206e-05
3.31525e-05
-3.92447e-05
3.33839e-05
-4.07142e-05
3.29294e-05
-3.67721e-05
3.32935e-05
-3.86555e-05
3.30732e-05
-3.94495e-05
3.23536e-05
-3.94425e-05
3.3694e-05
-4.71657e-05
3.31494e-05
-4.28993e-05
3.402e-05
-4.42456e-05
3.2554e-05
-3.66564e-05
3.45104e-05
-4.24085e-05
3.28214e-05
-3.43812e-05
3.33801e-05
-4.37454e-05
3.20757e-05
-4.06103e-05
3.29888e-05
-4.44092e-05
3.26703e-05
-4.05554e-05
3.29178e-05
-4.20521e-05
3.35241e-05
-4.29958e-05
3.34344e-05
-4.07612e-05
3.36103e-05
-4.16427e-05
3.31853e-05
-3.99508e-05
3.32696e-05
-4.1751e-05
2.98233e-05
-3.40825e-05
3.00054e-05
-4.23202e-05
3.06616e-05
-4.27126e-05
3.11623e-05
-4.21583e-05
3.15601e-05
-4.17567e-05
3.19954e-05
-4.20555e-05
3.28364e-05
-4.24714e-05
3.33431e-05
-4.22266e-05
3.65345e-05
-4.64993e-05
4.74118e-05
-6.10546e-05
5.15902e-05
-4.73072e-05
4.16776e-05
-1.8845e-05
3.53709e-05
-3.0591e-05
-3.75329e-05
9.94288e-05
1.19603e-05
9.34365e-05
-3.404e-06
8.60997e-05
-1.84202e-05
8.00867e-05
-2.80673e-05
7.57095e-05
-3.26236e-05
7.24369e-05
-3.48436e-05
6.99182e-05
-3.61461e-05
6.79141e-05
-3.69639e-05
6.62808e-05
-3.75792e-05
6.49103e-05
-3.80607e-05
6.37256e-05
-3.84209e-05
6.2691e-05
-3.87049e-05
6.17843e-05
-3.89542e-05
6.0986e-05
-3.91715e-05
6.02685e-05
-3.93373e-05
5.96186e-05
-3.94756e-05
5.9027e-05
-3.95921e-05
5.84879e-05
-3.96996e-05
5.79938e-05
-3.97952e-05
5.7535e-05
-3.98717e-05
5.71075e-05
-3.99355e-05
5.67087e-05
-3.9994e-05
5.63363e-05
-4.00485e-05
5.59877e-05
-4.00993e-05
5.56595e-05
-4.01427e-05
5.53496e-05
-4.01814e-05
5.50567e-05
-4.02174e-05
5.47792e-05
-4.02497e-05
5.45168e-05
-4.02825e-05
5.42669e-05
-4.03094e-05
5.4029e-05
-4.03352e-05
5.38017e-05
-4.03577e-05
5.35846e-05
-4.03797e-05
5.3377e-05
-4.04003e-05
5.31784e-05
-4.042e-05
5.29877e-05
-4.04371e-05
5.28044e-05
-4.0453e-05
5.26282e-05
-4.04685e-05
5.24583e-05
-4.04822e-05
5.2295e-05
-4.04967e-05
5.21374e-05
-4.05092e-05
5.19852e-05
-4.0521e-05
5.18381e-05
-4.05323e-05
5.16957e-05
-4.05422e-05
5.1558e-05
-4.05529e-05
5.14246e-05
-4.05622e-05
5.12956e-05
-4.05721e-05
5.11702e-05
-4.05797e-05
5.10486e-05
-4.05884e-05
5.09304e-05
-4.05957e-05
5.08156e-05
-4.06033e-05
5.0704e-05
-4.06106e-05
5.05956e-05
-4.06175e-05
5.04901e-05
-4.0624e-05
5.03874e-05
-4.06302e-05
5.02873e-05
-4.0636e-05
5.01899e-05
-4.0642e-05
5.00951e-05
-4.06472e-05
5.0003e-05
-4.06534e-05
4.99132e-05
-4.06585e-05
4.98259e-05
-4.06641e-05
4.97408e-05
-4.0669e-05
4.9658e-05
-4.06743e-05
4.95773e-05
-4.06791e-05
4.94989e-05
-4.06844e-05
4.94226e-05
-4.06891e-05
4.93485e-05
-4.06942e-05
4.92764e-05
-4.06991e-05
4.92066e-05
-4.0704e-05
4.91391e-05
-4.07095e-05
4.90739e-05
-4.07149e-05
4.90112e-05
-4.07209e-05
4.89511e-05
-4.0727e-05
4.88938e-05
-4.07338e-05
4.88393e-05
-4.07403e-05
4.87884e-05
-4.07491e-05
4.87407e-05
-4.07564e-05
4.86974e-05
-4.07677e-05
4.86581e-05
-4.0777e-05
4.86246e-05
-4.07917e-05
4.8596e-05
-4.08029e-05
4.85754e-05
-4.08238e-05
4.85608e-05
-4.08377e-05
4.85585e-05
-4.08674e-05
4.85639e-05
-4.08857e-05
4.85821e-05
-4.09197e-05
4.86136e-05
-4.09515e-05
4.86705e-05
-4.10155e-05
4.87411e-05
-4.10488e-05
4.88511e-05
-4.11466e-05
4.89835e-05
-4.11985e-05
4.9179e-05
-4.1363e-05
4.94142e-05
-4.14604e-05
4.97582e-05
-4.17383e-05
5.01788e-05
-4.19353e-05
5.0845e-05
-4.25776e-05
5.16369e-05
-4.27782e-05
5.38258e-05
-4.72076e-05
5.49586e-05
-4.50471e-05
4.40579e-05
-1.67252e-06
3.25206e-05
-9.75395e-06
3.01508e-05
-4.37988e-05
3.02212e-05
-4.35779e-05
3.07513e-05
-4.33925e-05
3.16657e-05
-4.35573e-05
3.23328e-05
-4.27248e-05
3.33549e-05
-4.33373e-05
3.38742e-05
-4.18975e-05
3.47159e-05
-4.24927e-05
3.7672e-05
-4.98607e-05
3.78126e-05
-3.82618e-05
3.70043e-05
-3.67182e-05
3.79022e-05
-4.8525e-05
3.64916e-05
-3.61155e-05
3.82148e-05
-4.97389e-05
3.72517e-05
-3.40881e-05
3.70691e-05
-3.82595e-05
3.78453e-05
-4.42118e-05
3.74427e-05
-3.61865e-05
3.88545e-05
-5.04831e-05
3.3738e-05
-2.14526e-05
3.58057e-05
-5.30133e-05
3.70508e-05
-4.29431e-05
3.66472e-05
-3.49996e-05
3.76587e-05
-4.55853e-05
3.69732e-05
-3.5051e-05
3.96164e-05
-5.54476e-05
3.62465e-05
-2.79356e-05
3.64904e-05
-4.44398e-05
3.52667e-05
-3.41347e-05
3.47549e-05
-3.71854e-05
3.65274e-05
-5.14329e-05
3.60647e-05
-3.75137e-05
3.87979e-05
-5.15968e-05
3.65792e-05
-2.7194e-05
3.81671e-05
-4.77833e-05
3.7531e-05
-3.77626e-05
3.61431e-05
-3.76136e-05
3.68193e-05
-4.91248e-05
3.45591e-05
-2.8432e-05
3.80195e-05
-5.46664e-05
3.5501e-05
-2.62209e-05
3.56413e-05
-4.24462e-05
3.58183e-05
-4.45418e-05
3.44884e-05
-3.55324e-05
3.75438e-05
-5.66137e-05
3.54859e-05
-2.88707e-05
3.79508e-05
-4.91683e-05
3.68678e-05
-3.18885e-05
3.61875e-05
-3.89521e-05
3.7326e-05
-5.04234e-05
3.64154e-05
-3.67552e-05
3.84064e-05
-5.16386e-05
3.62577e-05
-2.89535e-05
3.80637e-05
-4.64486e-05
3.71512e-05
-3.35737e-05
3.71589e-05
-4.02668e-05
3.96049e-05
-5.31559e-05
3.8669e-05
-3.62207e-05
4.04003e-05
-5.20959e-05
3.87035e-05
-3.19684e-05
3.96711e-05
-4.28203e-05
3.86201e-05
-3.27661e-05
3.83378e-05
-3.95897e-05
3.92267e-05
-4.75286e-05
3.90032e-05
-4.03673e-05
4.06718e-05
-5.12553e-05
3.94031e-05
-3.44381e-05
4.05902e-05
-4.68177e-05
3.85386e-05
-2.87846e-05
3.90054e-05
-4.08506e-05
3.99552e-05
-4.28418e-05
4.00488e-05
-4.05282e-05
4.00547e-05
-4.50929e-05
3.80351e-05
-3.43476e-05
3.88043e-05
-4.72898e-05
3.79686e-05
-3.52533e-05
3.9824e-05
-4.70493e-05
3.90293e-05
-3.33514e-05
3.96854e-05
-4.30329e-05
3.97443e-05
-4.07921e-05
3.87199e-05
-3.86291e-05
3.7243e-05
-4.07343e-05
3.54223e-05
-3.41631e-05
3.72788e-05
-4.91947e-05
3.64452e-05
-3.31224e-05
3.82562e-05
-4.71178e-05
3.6795e-05
-3.25308e-05
3.74976e-05
-4.48324e-05
3.77362e-05
-4.27705e-05
3.72027e-05
-4.0827e-05
3.74774e-05
-4.56995e-05
3.72293e-05
-3.76422e-05
3.92409e-05
-4.73757e-05
3.79773e-05
-3.02259e-05
3.92105e-05
-4.64166e-05
3.75822e-05
-3.27323e-05
3.89269e-05
-4.76027e-05
3.98489e-05
-4.56493e-05
3.94428e-05
-4.15562e-05
3.87346e-05
-4.00091e-05
3.83097e-05
-3.51551e-05
4.01877e-05
-4.678e-05
3.94395e-05
-3.45839e-05
4.09402e-05
-4.89572e-05
3.9742e-05
-3.69941e-05
4.05549e-05
-4.83147e-05
3.9667e-05
-3.80237e-05
3.9433e-05
-4.03239e-05
3.87594e-05
-3.53932e-05
3.85314e-05
-3.68084e-05
3.94279e-05
-4.47066e-05
3.92384e-05
-3.89822e-05
3.92058e-05
-4.44614e-05
3.76218e-05
-3.6706e-05
3.88248e-05
-4.84262e-05
3.7934e-05
-3.4828e-05
3.93787e-05
-4.55568e-05
3.78075e-05
-3.04613e-05
3.8457e-05
-4.3018e-05
3.93449e-05
-4.43647e-05
3.93128e-05
-4.27277e-05
3.93431e-05
-4.55277e-05
3.84583e-05
-3.56252e-05
4.02435e-05
-4.66687e-05
3.92775e-05
-3.15991e-05
4.07901e-05
-4.71536e-05
3.94863e-05
-3.48163e-05
3.94145e-05
-4.41778e-05
3.85877e-05
-4.04162e-05
3.7792e-05
-3.9395e-05
3.77272e-05
-4.08314e-05
3.84031e-05
-4.10299e-05
3.90814e-05
-4.06642e-05
3.95269e-05
-4.02805e-05
4.05057e-05
-4.59836e-05
3.9781e-05
-3.93584e-05
4.05335e-05
-4.80094e-05
3.97478e-05
-3.77097e-05
4.07956e-05
-4.55478e-05
3.99539e-05
-3.34003e-05
4.01949e-05
-3.91938e-05
3.90736e-05
-3.46813e-05
3.85009e-05
-4.0024e-05
3.88766e-05
-4.64454e-05
3.89585e-05
-4.3594e-05
3.94277e-05
-4.45984e-05
3.96315e-05
-4.01412e-05
4.09449e-05
-4.35435e-05
4.05012e-05
-3.4081e-05
4.1302e-05
-4.35676e-05
3.99363e-05
-3.49166e-05
3.99122e-05
-4.38128e-05
3.87346e-05
-3.67429e-05
3.88978e-05
-4.36525e-05
3.93727e-05
-4.51939e-05
3.93626e-05
-4.14002e-05
3.91375e-05
-3.99136e-05
3.86393e-05
-3.49234e-05
3.96548e-05
-4.3004e-05
3.95922e-05
-3.77941e-05
4.12323e-05
-4.85701e-05
4.04648e-05
-3.93267e-05
4.088e-05
-4.66358e-05
4.00982e-05
-3.84629e-05
4.00891e-05
-4.07052e-05
3.97404e-05
-3.64234e-05
3.98814e-05
-3.87966e-05
3.97002e-05
-3.92682e-05
3.93046e-05
-3.90468e-05
4.0028e-05
-4.78892e-05
3.99462e-05
-4.28175e-05
4.04539e-05
-4.47533e-05
3.96171e-05
-3.58196e-05
4.07645e-05
-4.35559e-05
3.98042e-05
-3.34209e-05
3.98748e-05
-4.3816e-05
3.8966e-05
-3.97014e-05
3.95097e-05
-4.49529e-05
3.94072e-05
-4.04529e-05
3.95606e-05
-4.22055e-05
4.00119e-05
-4.34471e-05
4.00974e-05
-4.08467e-05
4.01864e-05
-4.17316e-05
4.00402e-05
-3.98047e-05
3.96245e-05
-4.13353e-05
3.68366e-05
-3.12946e-05
3.6524e-05
-4.20076e-05
3.69871e-05
-4.31757e-05
3.73745e-05
-4.25457e-05
3.78784e-05
-4.22606e-05
3.82706e-05
-4.24478e-05
3.9295e-05
-4.34958e-05
3.9796e-05
-4.27276e-05
4.30538e-05
-4.97571e-05
5.33339e-05
-7.13348e-05
5.84283e-05
-5.24016e-05
5.23416e-05
-1.27582e-05
4.57874e-05
-2.40368e-05
-3.3525e-05
0.000102569
1.06416e-05
0.00010099
-1.82488e-06
9.72211e-05
-1.46518e-05
9.20747e-05
-2.29209e-05
8.73721e-05
-2.7921e-05
8.34179e-05
-3.08894e-05
8.01889e-05
-3.29171e-05
7.75791e-05
-3.43541e-05
7.54536e-05
-3.54536e-05
7.36819e-05
-3.6289e-05
7.21831e-05
-3.69221e-05
7.08943e-05
-3.74162e-05
6.97719e-05
-3.78318e-05
6.87849e-05
-3.81845e-05
6.78983e-05
-3.84507e-05
6.70986e-05
-3.86759e-05
6.63751e-05
-3.88686e-05
6.57184e-05
-3.90428e-05
6.51175e-05
-3.91943e-05
6.45613e-05
-3.93155e-05
6.40455e-05
-3.94197e-05
6.35665e-05
-3.9515e-05
6.31206e-05
-3.96026e-05
6.27036e-05
-3.96824e-05
6.23117e-05
-3.97508e-05
6.19425e-05
-3.98122e-05
6.15946e-05
-3.98695e-05
6.12657e-05
-3.99208e-05
6.09549e-05
-3.99717e-05
6.06594e-05
-4.00139e-05
6.03784e-05
-4.00542e-05
6.01105e-05
-4.00898e-05
5.9855e-05
-4.01243e-05
5.96112e-05
-4.01565e-05
5.93779e-05
-4.01868e-05
5.91543e-05
-4.02135e-05
5.89395e-05
-4.02382e-05
5.87334e-05
-4.02624e-05
5.8535e-05
-4.02838e-05
5.83444e-05
-4.0306e-05
5.81606e-05
-4.03254e-05
5.79832e-05
-4.03436e-05
5.7812e-05
-4.03611e-05
5.76464e-05
-4.03765e-05
5.74865e-05
-4.03931e-05
5.73317e-05
-4.04074e-05
5.7182e-05
-4.04224e-05
5.70366e-05
-4.04343e-05
5.68957e-05
-4.04476e-05
5.67589e-05
-4.04589e-05
5.66262e-05
-4.04705e-05
5.64972e-05
-4.04817e-05
5.6372e-05
-4.04923e-05
5.62501e-05
-4.05021e-05
5.61316e-05
-4.05117e-05
5.60162e-05
-4.05206e-05
5.5904e-05
-4.05298e-05
5.57946e-05
-4.05379e-05
5.56884e-05
-4.05471e-05
5.55849e-05
-4.05549e-05
5.54842e-05
-4.05634e-05
5.5386e-05
-4.05709e-05
5.52905e-05
-4.05789e-05
5.51975e-05
-4.05861e-05
5.51072e-05
-4.05941e-05
5.50192e-05
-4.06011e-05
5.49337e-05
-4.06087e-05
5.48506e-05
-4.0616e-05
5.47701e-05
-4.06235e-05
5.46921e-05
-4.06316e-05
5.46168e-05
-4.06396e-05
5.45442e-05
-4.06483e-05
5.44746e-05
-4.06573e-05
5.4408e-05
-4.06672e-05
5.43446e-05
-4.06769e-05
5.42849e-05
-4.06895e-05
5.42289e-05
-4.07004e-05
5.41775e-05
-4.07164e-05
5.41305e-05
-4.073e-05
5.40897e-05
-4.07509e-05
5.40541e-05
-4.07673e-05
5.40269e-05
-4.07966e-05
5.40063e-05
-4.0817e-05
5.39982e-05
-4.08594e-05
5.39993e-05
-4.08868e-05
5.40136e-05
-4.09341e-05
5.40414e-05
-4.09793e-05
5.40953e-05
-4.10694e-05
5.41643e-05
-4.11177e-05
5.42734e-05
-4.12558e-05
5.44067e-05
-4.13317e-05
5.46034e-05
-4.15597e-05
5.48417e-05
-4.16986e-05
5.51906e-05
-4.20872e-05
5.56161e-05
-4.23608e-05
5.62861e-05
-4.32476e-05
5.7081e-05
-4.35731e-05
5.91282e-05
-4.92549e-05
5.95989e-05
-4.55178e-05
5.16651e-05
6.26133e-06
4.14846e-05
4.26463e-07
3.66673e-05
-3.89815e-05
3.55927e-05
-4.25032e-05
3.54711e-05
-4.32709e-05
3.60083e-05
-4.40945e-05
3.64581e-05
-4.31745e-05
3.73578e-05
-4.42369e-05
3.78295e-05
-4.23692e-05
3.86918e-05
-4.3355e-05
4.1272e-05
-5.24409e-05
4.184e-05
-3.88299e-05
4.14157e-05
-3.62939e-05
4.15604e-05
-4.86697e-05
4.09969e-05
-3.5552e-05
4.21101e-05
-5.08522e-05
4.17209e-05
-3.36989e-05
4.15808e-05
-3.81194e-05
4.19099e-05
-4.45409e-05
4.20298e-05
-3.63063e-05
4.21127e-05
-5.0566e-05
3.88744e-05
-1.82143e-05
3.99775e-05
-5.41164e-05
4.13485e-05
-4.43142e-05
4.12798e-05
-3.49309e-05
4.14919e-05
-4.57974e-05
4.17045e-05
-3.52636e-05
4.29223e-05
-5.66654e-05
4.0921e-05
-2.59343e-05
4.06862e-05
-4.42049e-05
4.00195e-05
-3.3468e-05
3.961e-05
-3.67759e-05
4.02384e-05
-5.20613e-05
4.05805e-05
-3.78557e-05
4.21115e-05
-5.31278e-05
4.11029e-05
-2.61854e-05
4.21116e-05
-4.87921e-05
4.20442e-05
-3.76952e-05
4.10116e-05
-3.6581e-05
4.04824e-05
-4.85956e-05
3.95384e-05
-2.7488e-05
4.14106e-05
-5.65386e-05
4.00352e-05
-2.48455e-05
3.9939e-05
-4.235e-05
4.00308e-05
-4.46336e-05
3.94578e-05
-3.49594e-05
4.07752e-05
-5.79312e-05
4.00374e-05
-2.81328e-05
4.16493e-05
-5.07801e-05
4.13292e-05
-3.15684e-05
4.08097e-05
-3.84327e-05
4.11959e-05
-5.08096e-05
4.10697e-05
-3.66289e-05
4.18424e-05
-5.24112e-05
4.08746e-05
-2.79857e-05
4.20132e-05
-4.75872e-05
4.18364e-05
-3.33969e-05
4.19335e-05
-4.03639e-05
4.31954e-05
-5.44178e-05
4.32861e-05
-3.63114e-05
4.40527e-05
-5.28624e-05
4.33396e-05
-3.12553e-05
4.38096e-05
-4.32903e-05
4.32523e-05
-3.22088e-05
4.30192e-05
-3.93566e-05
4.34424e-05
-4.79519e-05
4.3685e-05
-4.06099e-05
4.44394e-05
-5.20097e-05
4.41253e-05
-3.41239e-05
4.45889e-05
-4.72814e-05
4.32949e-05
-2.74905e-05
4.34475e-05
-4.10032e-05
4.42631e-05
-4.36574e-05
4.44726e-05
-4.07377e-05
4.4122e-05
-4.47423e-05
4.29943e-05
-3.32198e-05
4.29e-05
-4.71956e-05
4.27052e-05
-3.50585e-05
4.37977e-05
-4.81418e-05
4.35527e-05
-3.31064e-05
4.39126e-05
-4.33928e-05
4.39583e-05
-4.08378e-05
4.31713e-05
-3.78422e-05
4.17893e-05
-3.93523e-05
4.05839e-05
-3.29577e-05
4.11241e-05
-4.97349e-05
4.10284e-05
-3.30266e-05
4.19895e-05
-4.80789e-05
4.12446e-05
-3.17858e-05
4.16376e-05
-4.52254e-05
4.19644e-05
-4.30973e-05
4.16716e-05
-4.05342e-05
4.1596e-05
-4.56239e-05
4.18266e-05
-3.78728e-05
4.28165e-05
-4.83656e-05
4.25184e-05
-2.99278e-05
4.30019e-05
-4.69e-05
4.21561e-05
-3.18865e-05
4.30514e-05
-4.8498e-05
4.39285e-05
-4.65264e-05
4.3734e-05
-4.13617e-05
4.3224e-05
-3.94991e-05
4.32235e-05
-3.51545e-05
4.40876e-05
-4.76441e-05
4.41138e-05
-3.46101e-05
4.47933e-05
-4.96367e-05
4.43678e-05
-3.65686e-05
4.47015e-05
-4.86484e-05
4.42162e-05
-3.75385e-05
4.38816e-05
-3.99893e-05
4.33928e-05
-3.49044e-05
4.32105e-05
-3.6626e-05
4.35953e-05
-4.50913e-05
4.36598e-05
-3.90468e-05
4.33208e-05
-4.41225e-05
4.25062e-05
-3.58914e-05
4.27595e-05
-4.86795e-05
4.25755e-05
-3.46439e-05
4.33e-05
-4.62813e-05
4.23979e-05
-2.95592e-05
4.2768e-05
-4.33881e-05
4.35848e-05
-4.51816e-05
4.37074e-05
-4.28503e-05
4.35449e-05
-4.53652e-05
4.3314e-05
-3.53943e-05
4.40775e-05
-4.74322e-05
4.39623e-05
-3.14838e-05
4.47384e-05
-4.79297e-05
4.40791e-05
-3.4157e-05
4.37425e-05
-4.38412e-05
4.3063e-05
-3.97366e-05
4.23348e-05
-3.86668e-05
4.22014e-05
-4.0698e-05
4.27771e-05
-4.16056e-05
4.33189e-05
-4.1206e-05
4.38745e-05
-4.08361e-05
4.44763e-05
-4.65854e-05
4.43243e-05
-3.92064e-05
4.45421e-05
-4.82271e-05
4.44092e-05
-3.75769e-05
4.49137e-05
-4.60523e-05
4.45632e-05
-3.30498e-05
4.45218e-05
-3.91525e-05
4.36773e-05
-3.38369e-05
4.31106e-05
-3.94573e-05
4.32069e-05
-4.65417e-05
4.33945e-05
-4.37816e-05
4.3696e-05
-4.48998e-05
4.41423e-05
-4.05874e-05
4.49996e-05
-4.44008e-05
4.50869e-05
-3.41683e-05
4.5343e-05
-4.38237e-05
4.45958e-05
-3.41695e-05
4.42404e-05
-4.34574e-05
4.33856e-05
-3.5888e-05
4.33655e-05
-4.36324e-05
4.37025e-05
-4.55309e-05
4.37447e-05
-4.14425e-05
4.35126e-05
-3.96814e-05
4.33569e-05
-3.47678e-05
4.3799e-05
-4.34461e-05
4.41843e-05
-3.81794e-05
4.51717e-05
-4.95575e-05
4.49916e-05
-3.91466e-05
4.51087e-05
-4.67529e-05
4.46851e-05
-3.80393e-05
4.45288e-05
-4.05489e-05
4.42705e-05
-3.6165e-05
4.4313e-05
-3.88391e-05
4.4177e-05
-3.91322e-05
4.39916e-05
-3.88614e-05
4.42549e-05
-4.81525e-05
4.44124e-05
-4.29749e-05
4.46289e-05
-4.49698e-05
4.43676e-05
-3.55583e-05
4.484e-05
-4.40283e-05
4.443e-05
-3.30109e-05
4.41747e-05
-4.35606e-05
4.36002e-05
-3.91269e-05