/*--------------------------------*- C++ -*----------------------------------*\
| =========                 |                                                 |
| \\      /  F ield         | foam-extend: Open Source CFD                    |
|  \\    /   O peration     | Version:     3.2                                |
|   \\  /    A nd           | Web:         http://www.foam-extend.org         |
|    \\/     M anipulation  | For copyright notice see file Copyright         |
\*---------------------------------------------------------------------------*/
FoamFile
{
    version     2.0;
    format      ascii;
    class       areaVectorField;
    location    "160";
    object      aMeshCentreN;
}
// * * * * * * * * * * * * * * * * * * * * * * * * * * * * * * * * * * * * * //

dimensions      [0 0 0 0 0 0 0];

internalField   nonuniform List<vector> 
300
(
(0.025 0.01 0)
(0.075 0.01 0)
(0.125 0.01 0)
(0.175 0.01 0)
(0.225 0.01 0)
(0.275 0.01 0)
(0.325 0.01 0)
(0.375 0.01 0)
(0.425 0.01 0)
(0.475 0.01 0)
(0.525 0.01 0)
(0.575 0.01 0)
(0.625 0.01 0)
(0.675 0.01 0)
(0.725 0.01 0)
(0.775 0.01 0)
(0.825 0.01 0)
(0.875 0.01 0)
(0.925 0.01 0)
(0.975 0.01 0)
(1.025 0.01 0)
(1.075 0.01 0)
(1.125 0.01 0)
(1.175 0.01 0)
(1.225 0.01 0)
(1.275 0.01 0)
(1.325 0.01 0)
(1.375 0.01 0)
(1.425 0.01 0)
(1.475 0.01 0)
(1.525 0.01 0)
(1.575 0.01 0)
(1.625 0.01 0)
(1.675 0.01 0)
(1.725 0.01 0)
(1.775 0.01 0)
(1.825 0.01 0)
(1.875 0.01 0)
(1.925 0.01 0)
(1.975 0.01 0)
(2.025 0.01 0)
(2.075 0.01 0)
(2.125 0.01 0)
(2.175 0.01 0)
(2.225 0.01 0)
(2.275 0.01 0)
(2.325 0.01 0)
(2.375 0.01 0)
(2.425 0.01 0)
(2.475 0.01 0)
(2.525 0.01 0)
(2.575 0.01 0)
(2.625 0.01 0)
(2.675 0.01 0)
(2.725 0.01 0)
(2.775 0.01 0)
(2.825 0.01 0)
(2.875 0.01 0)
(2.925 0.01 0)
(2.975 0.01 0)
(3.025 0.01 0)
(3.075 0.01 0)
(3.125 0.01 0)
(3.175 0.01 0)
(3.225 0.01 0)
(3.275 0.01 0)
(3.325 0.01 0)
(3.375 0.01 0)
(3.425 0.01 0)
(3.475 0.01 0)
(3.525 0.01 0)
(3.575 0.01 0)
(3.625 0.01 0)
(3.675 0.01 0)
(3.725 0.01 0)
(3.775 0.01 0)
(3.825 0.01 0)
(3.875 0.01 0)
(3.925 0.01 0)
(3.975 0.01 0)
(4.025 0.01 0)
(4.075 0.01 0)
(4.125 0.01 0)
(4.175 0.01 0)
(4.225 0.01 0)
(4.275 0.01 0)
(4.325 0.01 0)
(4.375 0.01 0)
(4.425 0.01 0)
(4.475 0.01 0)
(4.525 0.01 0)
(4.575 0.01 0)
(4.625 0.01 0)
(4.675 0.01 0)
(4.725 0.01 0)
(4.775 0.01 0)
(4.825 0.01 0)
(4.875 0.01 0)
(4.925 0.01 0)
(4.975 0.01 -0.00329999)
(5.025 0.01 -0.0109793)
(5.075 0.01 -0.0180172)
(5.125 0.01 -0.0231907)
(5.175 0.01 -0.0276578)
(5.225 0.01 -0.0313588)
(5.275 0.01 -0.0345159)
(5.325 0.01 -0.0371522)
(5.375 0.01 -0.039333)
(5.425 0.01 -0.041247)
(5.475 0.01 -0.0420031)
(5.525 0.01 -0.0422248)
(5.575 0.01 -0.0440561)
(5.625 0.01 -0.0451999)
(5.675 0.01 -0.0465059)
(5.725 0.01 -0.0473597)
(5.775 0.01 -0.0474267)
(5.825 0.01 -0.0491425)
(5.875 0.01 -0.0494332)
(5.925 0.01 -0.0501666)
(5.975 0.01 -0.0504194)
(6.025 0.01 -0.0521298)
(6.075 0.01 -0.0538599)
(6.125 0.01 -0.0521076)
(6.175 0.01 -0.0524207)
(6.225 0.01 -0.0523312)
(6.275 0.01 -0.0524614)
(6.325 0.01 -0.0518399)
(6.375 0.01 -0.0519413)
(6.425 0.01 -0.0534279)
(6.475 0.01 -0.0533153)
(6.525 0.01 -0.054613)
(6.575 0.01 -0.0543386)
(6.625 0.01 -0.0540477)
(6.675 0.01 -0.0531613)
(6.725 0.01 -0.0527909)
(6.775 0.01 -0.0532413)
(6.825 0.01 -0.0518752)
(6.875 0.01 -0.0526937)
(6.925 0.01 -0.0526757)
(6.975 0.01 -0.0533311)
(7.025 0.01 -0.0527641)
(7.075 0.01 -0.0517001)
(7.125 0.01 -0.0530272)
(7.175 0.01 -0.051906)
(7.225 0.01 -0.0520438)
(7.275 0.01 -0.0511435)
(7.325 0.01 -0.050453)
(7.375 0.01 -0.0500683)
(7.425 0.01 -0.0484177)
(7.475 0.01 -0.0492361)
(7.525 0.01 -0.0484768)
(7.575 0.01 -0.0480447)
(7.625 0.01 -0.0472367)
(7.675 0.01 -0.0468391)
(7.725 0.01 -0.0468179)
(7.775 0.01 -0.0454106)
(7.825 0.01 -0.0457555)
(7.875 0.01 -0.0444072)
(7.925 0.01 -0.0434163)
(7.975 0.01 -0.0424774)
(8.025 0.01 -0.041777)
(8.075 0.01 -0.0419087)
(8.125 0.01 -0.0413944)
(8.175 0.01 -0.0421425)
(8.225 0.01 -0.0415721)
(8.275 0.01 -0.0411082)
(8.325 0.01 -0.040364)
(8.375 0.01 -0.04003)
(8.425 0.01 -0.0397802)
(8.475 0.01 -0.0397937)
(8.525 0.01 -0.0408815)
(8.575 0.01 -0.0402398)
(8.625 0.01 -0.0401807)
(8.675 0.01 -0.0401686)
(8.725 0.01 -0.0408696)
(8.775 0.01 -0.0413307)
(8.825 0.01 -0.041612)
(8.875 0.01 -0.0415449)
(8.925 0.01 -0.0412908)
(8.975 0.01 -0.0419968)
(9.025 0.01 -0.0418522)
(9.075 0.01 -0.0428107)
(9.125 0.01 -0.04387)
(9.175 0.01 -0.0453607)
(9.225 0.01 -0.0459185)
(9.275 0.01 -0.0463227)
(9.325 0.01 -0.0464232)
(9.375 0.01 -0.046412)
(9.425 0.01 -0.0473079)
(9.475 0.01 -0.0467563)
(9.525 0.01 -0.047093)
(9.575 0.01 -0.0470376)
(9.625 0.01 -0.0470191)
(9.675 0.01 -0.0464462)
(9.725 0.01 -0.0462935)
(9.775 0.01 -0.0461197)
(9.825 0.01 -0.0458907)
(9.875 0.01 -0.046135)
(9.925 0.01 -0.0446727)
(9.975 0.01 -0.0442439)
(10.025 0.01 -0.0440756)
(10.075 0.01 -0.0442532)
(10.125 0.01 -0.0437139)
(10.175 0.01 -0.0433154)
(10.225 0.01 -0.0428203)
(10.275 0.01 -0.0423862)
(10.325 0.01 -0.0423356)
(10.375 0.01 -0.0420112)
(10.425 0.01 -0.042641)
(10.475 0.01 -0.0430273)
(10.525 0.01 -0.0439605)
(10.575 0.01 -0.0441464)
(10.625 0.01 -0.0443073)
(10.675 0.01 -0.0445476)
(10.725 0.01 -0.0451592)
(10.775 0.01 -0.0453139)
(10.825 0.01 -0.0454219)
(10.875 0.01 -0.0453423)
(10.925 0.01 -0.0453737)
(10.975 0.01 -0.0462226)
(11.025 0.01 -0.0453904)
(11.075 0.01 -0.0450804)
(11.125 0.01 -0.0446948)
(11.175 0.01 -0.0447758)
(11.225 0.01 -0.0444266)
(11.275 0.01 -0.0442634)
(11.325 0.01 -0.0440561)
(11.375 0.01 -0.0437752)
(11.425 0.01 -0.0444946)
(11.475 0.01 -0.0447371)
(11.525 0.01 -0.0456672)
(11.575 0.01 -0.0462801)
(11.625 0.01 -0.0464056)
(11.675 0.01 -0.0461191)
(11.725 0.01 -0.0459553)
(11.775 0.01 -0.0453916)
(11.825 0.01 -0.0451403)
(11.875 0.01 -0.0448326)
(11.925 0.01 -0.0446255)
(11.975 0.01 -0.0443791)
(12.025 0.01 -0.0442845)
(12.075 0.01 -0.0448683)
(12.125 0.01 -0.0453243)
(12.175 0.01 -0.0464456)
(12.225 0.01 -0.0466566)
(12.275 0.01 -0.0465498)
(12.325 0.01 -0.0462844)
(12.375 0.01 -0.0459915)
(12.425 0.01 -0.0454212)
(12.475 0.01 -0.0452064)
(12.525 0.01 -0.0450867)
(12.575 0.01 -0.0452961)
(12.625 0.01 -0.0458814)
(12.675 0.01 -0.046353)
(12.725 0.01 -0.0471659)
(12.775 0.01 -0.046937)
(12.825 0.01 -0.0468674)
(12.875 0.01 -0.0468674)
(12.925 0.01 -0.0471688)
(12.975 0.01 -0.0469926)
(13.025 0.01 -0.0466246)
(13.075 0.01 -0.0459017)
(13.125 0.01 -0.0452454)
(13.175 0.01 -0.0449769)
(13.225 0.01 -0.0446931)
(13.275 0.01 -0.0449372)
(13.325 0.01 -0.0450475)
(13.375 0.01 -0.0454211)
(13.425 0.01 -0.0453834)
(13.475 0.01 -0.0456281)
(13.525 0.01 -0.045372)
(13.575 0.01 -0.0448991)
(13.625 0.01 -0.0444634)
(13.675 0.01 -0.0443531)
(13.725 0.01 -0.0440846)
(13.775 0.01 -0.0439782)
(13.825 0.01 -0.0441702)
(13.875 0.01 -0.0441334)
(13.925 0.01 -0.0440915)
(13.975 0.01 -0.0435531)
(14.025 0.01 -0.0433653)
(14.075 0.01 -0.0427291)
(14.125 0.01 -0.0421428)
(14.175 0.01 -0.0416484)
(14.225 0.01 -0.0413419)
(14.275 0.01 -0.0410243)
(14.325 0.01 -0.0415066)
(14.375 0.01 -0.0421402)
(14.425 0.01 -0.0414263)
(14.475 0.01 -0.0401736)
(14.525 0.01 -0.0385135)
(14.575 0.01 -0.036257)
(14.625 0.01 -0.0333169)
(14.675 0.01 -0.0292826)
(14.725 0.01 -0.0240397)
(14.775 0.01 -0.0153537)
(14.825 0.01 -0.00470566)
(14.875 0.01 0)
(14.925 0.01 0)
(14.975 0.01 0)
)
;

boundaryField
{
    inlet
    {
        type            calculated;
        value           uniform (0 0 0);
    }
    outlet
    {
        type            calculated;
        value           uniform (0 0 0);
    }
    sideWall
    {
        type            empty;
    }
}


// ************************************************************************* //
