/*--------------------------------*- C++ -*----------------------------------*\
| =========                 |                                                 |
| \\      /  F ield         | foam-extend: Open Source CFD                    |
|  \\    /   O peration     | Version:     3.2                                |
|   \\  /    A nd           | Web:         http://www.foam-extend.org         |
|    \\/     M anipulation  | For copyright notice see file Copyright         |
\*---------------------------------------------------------------------------*/
FoamFile
{
    version     2.0;
    format      ascii;
    class       areaVectorField;
    location    "160";
    object      aUf;
}
// * * * * * * * * * * * * * * * * * * * * * * * * * * * * * * * * * * * * * //

dimensions      [0 1 -1 0 0 0 0];

internalField   nonuniform List<vector> 
300
(
(2.31224 0 0.0560183)
(2.06385 0 0.0276194)
(1.71914 0 0.00543624)
(1.55785 0 -0.00117476)
(1.49252 0 -0.00120528)
(1.4571 0 -0.0005273)
(1.43089 0 -0.000296754)
(1.40756 0 -0.0001367)
(1.38574 0 -3.08234e-05)
(1.36563 0 1.02277e-05)
(1.34743 0 2.29736e-05)
(1.33095 0 4.61753e-05)
(1.31587 0 5.78832e-05)
(1.30226 0 6.51948e-05)
(1.28989 0 6.69293e-05)
(1.27854 0 6.66477e-05)
(1.26807 0 6.8925e-05)
(1.25833 0 6.84944e-05)
(1.24935 0 7.10405e-05)
(1.2411 0 7.17319e-05)
(1.23339 0 7.08492e-05)
(1.2261 0 6.94667e-05)
(1.21922 0 6.76012e-05)
(1.21271 0 6.44648e-05)
(1.20659 0 6.20302e-05)
(1.20076 0 5.99848e-05)
(1.19523 0 5.81165e-05)
(1.18994 0 5.65298e-05)
(1.18491 0 5.37549e-05)
(1.18013 0 5.22519e-05)
(1.17554 0 5.02056e-05)
(1.17115 0 4.91421e-05)
(1.16693 0 4.74009e-05)
(1.16288 0 4.60592e-05)
(1.15899 0 4.41733e-05)
(1.15526 0 4.30866e-05)
(1.15166 3.33569e-39 4.18383e-05)
(1.14818 0 4.06144e-05)
(1.14482 0 3.98011e-05)
(1.14158 0 3.8185e-05)
(1.13845 -1.13559e-38 3.73734e-05)
(1.13542 -1.09512e-38 3.62078e-05)
(1.13249 -2.10858e-38 3.53869e-05)
(1.12964 0 3.45767e-05)
(1.12687 3.93294e-38 3.35444e-05)
(1.1242 -3.81242e-38 3.27337e-05)
(1.1216 0 3.16734e-05)
(1.11908 0 3.12506e-05)
(1.11661 0 3.02376e-05)
(1.11424 0 2.97494e-05)
(1.1119 0 2.89935e-05)
(1.10964 1.25989e-37 2.81658e-05)
(1.10743 1.22222e-37 2.75877e-05)
(1.1053 0 2.68689e-05)
(1.10319 -2.30682e-37 2.639e-05)
(1.10116 2.24711e-37 2.57821e-05)
(1.09916 0 2.50796e-05)
(1.09723 -4.17344e-37 2.5664e-05)
(1.0953 0 2.54133e-05)
(1.09346 0 2.48997e-05)
(1.09161 0 2.42088e-05)
(1.08986 1.47617e-36 2.3585e-05)
(1.0881 0 2.30055e-05)
(1.08645 0 2.23259e-05)
(1.08477 0 2.17202e-05)
(1.08321 2.62575e-36 2.10481e-05)
(1.08162 0 2.05113e-05)
(1.08015 0 1.96984e-05)
(1.07864 0 1.92181e-05)
(1.07726 0 1.81412e-05)
(1.07583 0 1.76738e-05)
(1.07456 8.46273e-36 1.64312e-05)
(1.07323 1.62166e-35 1.58482e-05)
(1.07207 0 1.44288e-05)
(1.07085 0 1.38144e-05)
(1.06982 0 1.18091e-05)
(1.06874 0 1.12444e-05)
(1.06786 2.18487e-35 8.50003e-06)
(1.06694 0 7.71926e-06)
(1.06625 3.12806e-35 4.14043e-06)
(1.06555 0 3.71335e-06)
(1.06511 3.38102e-35 -1.67825e-06)
(1.06472 0 -1.72066e-06)
(1.06457 -2.65127e-35 -7.32698e-06)
(1.06458 -5.07567e-35 -1.13764e-05)
(1.06486 0 -2.02348e-05)
(1.06537 3.72345e-34 -2.37623e-05)
(1.0663 -7.06128e-34 -3.72146e-05)
(1.06767 0 -4.17649e-05)
(1.06944 5.27061e-33 -5.94088e-05)
(1.07205 5.67114e-33 -6.33748e-05)
(1.07502 0 -0.000101942)
(1.07999 1.99447e-32 -0.000117146)
(1.08498 -5.92706e-32 -0.000172463)
(1.09431 0 -0.000223445)
(1.10242 0 -0.000339197)
(1.12387 2.04338e-29 -0.000418568)
(1.12712 2.94322e-28 -0.00173824)
(1.25228 -7.62815e-26 -0.00119666)
(1.15744 -1.52522e-22 -0.131787)
(0.668477 7.79226e-23 -0.0971385)
(0.671757 -2.22495e-23 -0.083868)
(0.707713 0 -0.0743012)
(0.712788 7.06619e-24 -0.0575933)
(0.736551 -1.40661e-23 -0.0526076)
(0.752026 6.6238e-24 -0.0431379)
(0.761399 0 -0.0380824)
(0.79074 2.68014e-24 -0.030214)
(0.77447 -3.74753e-24 -0.0299748)
(0.824537 -1.63303e-24 0.00290627)
(0.926605 7.07333e-28 -0.0121231)
(0.768231 0 -0.0389362)
(0.87651 0 0.001953)
(0.823133 3.59535e-23 -0.0479963)
(0.810683 -2.45046e-24 0.0160092)
(0.907023 6.58555e-24 -0.0215696)
(0.724623 0 -0.023674)
(0.9281 0 0.0222468)
(0.782721 -1.22044e-23 -0.0383391)
(0.922761 2.03887e-24 0.0330753)
(0.80899 -1.5672e-25 -0.0765545)
(0.67311 -1.9447e-24 0.0167195)
(0.947899 1.22754e-24 0.0257425)
(0.715052 -6.40855e-26 -0.0193683)
(0.898984 1.27314e-23 0.0338725)
(0.777675 1.2047e-23 -0.0315466)
(0.891207 0 0.0563323)
(0.875231 0 -0.0595048)
(0.728372 -5.81637e-25 0.00730992)
(0.876822 7.96036e-25 -0.00589577)
(0.664754 -1.80348e-23 -0.0225377)
(0.875953 0 0.0367322)
(0.776107 0 -0.0270668)
(0.86857 0 0.0620395)
(0.868337 -2.40766e-24 -0.0421756)
(0.749438 2.22264e-23 0.0236187)
(0.958328 5.43118e-27 0.014215)
(0.681413 0 -0.0299249)
(0.901496 0 0.0343095)
(0.743237 0 -0.0402681)
(0.808225 0 0.0681629)
(0.895012 8.44668e-24 -0.0340179)
(0.661047 2.67893e-25 -0.00487629)
(0.919176 1.92121e-24 0.0377697)
(0.697282 3.42522e-23 -0.0313055)
(0.861085 3.10377e-23 0.0647012)
(0.826498 0 -0.0369218)
(0.76426 -4.21153e-23 0.052018)
(0.914422 0 -0.00051406)
(0.682117 5.43417e-24 -0.0167591)
(0.904001 -1.08887e-23 0.0413485)
(0.781265 3.12273e-23 -0.0256501)
(0.869145 0 0.0532444)
(0.844283 -2.14012e-23 -0.0336725)
(0.765433 0 0.0392684)
(0.909231 0 0.0073327)
(0.708693 0 -0.0105336)
(0.936242 7.99168e-24 0.0565259)
(0.842652 0 -0.0212195)
(0.895016 2.193e-23 0.0522445)
(0.897779 0 -0.0277337)
(0.819974 -1.62442e-23 0.0278466)
(0.911086 0 -0.00490997)
(0.752989 7.20874e-24 -0.0123328)
(0.923506 -9.22337e-24 0.0298631)
(0.825493 0 -0.0178693)
(0.928138 -2.11273e-23 0.0379599)
(0.871856 1.30431e-23 -0.0257977)
(0.884082 3.40893e-26 0.0380316)
(0.908232 3.2511e-24 -0.0313939)
(0.780127 0 0.00387199)
(0.931243 5.57957e-24 0.019478)
(0.824644 0 -0.0161665)
(0.938166 3.04847e-24 0.0128503)
(0.821822 3.84748e-27 -0.0343698)
(0.87026 0 0.0205484)
(0.840157 5.33743e-24 -0.0273662)
(0.86007 -1.259e-23 0.0335458)
(0.905631 0 -0.022346)
(0.819645 0 0.00146307)
(0.935644 8.17494e-26 0.000532403)
(0.797566 -1.06745e-23 -0.0310835)
(0.894139 0 -0.00604377)
(0.747678 2.50215e-23 -0.0359585)
(0.851166 2.23426e-24 0.024383)
(0.806419 -7.54975e-26 -0.0313798)
(0.82978 -1.60085e-23 0.0345457)
(0.866321 -1.64889e-24 -0.0327865)
(0.762382 2.89754e-24 0.00245653)
(0.901197 0 0.00927756)
(0.762948 -2.8956e-23 -0.0207113)
(0.88677 -9.83847e-24 0.0195707)
(0.787755 0 -0.0167844)
(0.903118 1.50525e-23 0.0421284)
(0.837025 0 -0.025333)
(0.850467 -3.33138e-23 0.0382886)
(0.867623 -2.85322e-24 -0.0294767)
(0.778549 -7.30423e-24 0.0185724)
(0.935549 -1.06438e-23 0.0226049)
(0.829522 -1.75112e-27 -0.0103069)
(0.915555 -3.28377e-24 0.0141576)
(0.792767 -9.02288e-24 -0.0113306)
(0.913268 -1.25591e-23 0.0381036)
(0.852868 0 -0.0190448)
(0.89659 0 0.0383938)
(0.8924 0 -0.0275793)
(0.863116 -1.44725e-28 0.0205736)
(0.914523 -8.06084e-24 -0.016327)
(0.841668 5.22223e-25 -0.00305873)
(0.902597 -1.9951e-28 -0.00385536)
(0.78663 0 -0.015474)
(0.899989 0 0.0132597)
(0.837837 0 -0.0198259)
(0.906814 3.09989e-24 0.00963975)
(0.810549 -1.6007e-23 -0.0302099)
(0.874896 7.23258e-27 0.0242904)
(0.840138 0 -0.0251345)
(0.856498 1.20153e-23 0.0332913)
(0.882734 0 -0.0280222)
(0.773337 1.58631e-27 0.00424671)
(0.91659 0 0.0199041)
(0.813311 3.16421e-24 -0.0124115)
(0.932083 0 0.019696)
(0.813653 -1.97731e-23 -0.018877)
(0.909784 -8.21602e-24 0.0382161)
(0.858982 0 -0.022414)
(0.87682 9.31378e-27 0.0352451)
(0.903725 -4.65505e-24 -0.0273125)
(0.829223 -1.50601e-24 9.30754e-05)
(0.882096 -6.93565e-24 -0.0149691)
(0.815917 5.73206e-24 -0.0164116)
(0.844917 -4.88828e-25 -0.0022105)
(0.827676 0 0.000209421)
(0.894952 -3.68434e-28 0.0133238)
(0.832725 -3.18635e-24 -0.00465279)
(0.924678 0 0.0215523)
(0.859638 0 -0.0163106)
(0.909223 -1.09608e-26 0.0214919)
(0.874973 6.68792e-24 -0.0167538)
(0.895764 -1.34096e-24 0.0266374)
(0.905535 0 -0.0180297)
(0.85549 4.38403e-24 0.0077039)
(0.890085 0 -0.0165527)
(0.797987 0 -0.0174871)
(0.877541 0 0.0045187)
(0.845293 0 -0.0106188)
(0.898663 0 0.0131921)
(0.851744 4.05832e-27 -0.00356689)
(0.928722 8.58442e-24 0.0273599)
(0.878657 0 -0.0108746)
(0.911657 2.44531e-23 0.0214658)
(0.889103 -9.80484e-25 -0.02647)
(0.858231 3.22959e-25 0.00493209)
(0.874269 0 -0.0228286)
(0.799869 0 -0.00616282)
(0.902907 -2.16101e-24 0.00696109)
(0.845188 0 -0.00741957)
(0.9059 0 0.00939076)
(0.82061 0 -0.00994532)
(0.888958 1.39149e-23 0.0244597)
(0.849698 5.85073e-24 -0.00870375)
(0.904057 0 0.0327532)
(0.90043 0 -0.0158015)
(0.885704 -5.27957e-27 0.0169182)
(0.905037 8.15981e-24 -0.0115908)
(0.864984 -3.57698e-25 0.00597091)
(0.892036 -2.91481e-24 -0.00340828)
(0.839487 0 -0.00133771)
(0.910299 -2.68619e-24 0.0064427)
(0.825577 -2.52571e-24 -0.0124504)
(0.895122 1.30614e-23 0.0158125)
(0.866841 0 -0.00905089)
(0.918206 1.49164e-27 0.0195624)
(0.859989 3.40857e-24 -0.0114696)
(0.90089 7.93583e-24 0.0279547)
(0.880662 1.05712e-23 -0.0158518)
(0.863824 -1.24353e-24 0.0120769)
(0.869509 0 -0.0162959)
(0.840714 -2.84728e-24 0.012577)
(0.889309 4.06797e-25 0.00268421)
(0.843629 0 0.00280551)
(0.900773 -1.92551e-24 0.015756)
(0.870566 2.81129e-25 0.00310893)
(0.904676 -9.58074e-25 0.0137803)
(0.857864 2.5835e-25 -0.00229906)
(0.907262 7.96276e-28 0.0140983)
(0.835457 7.03139e-24 -0.0245409)
(0.772691 4.02501e-25 0.00527093)
(0.817871 3.56598e-25 0.0129958)
(0.829376 8.65962e-25 0.0256572)
(0.833798 -1.48179e-27 0.0281265)
(0.853059 2.39803e-24 0.0467988)
(0.84717 -1.4382e-24 0.0514783)
(0.894822 0 0.0880454)
(0.865542 0 0.0915456)
(1.02405 4.27674e-26 0.231548)
(1.38198 -8.50029e-23 0.260924)
(1.28075 1.94899e-25 0.0254822)
(0.933227 -1.76954e-27 0.00353959)
(0.871053 0 -0.00126796)
)
;

boundaryField
{
    inlet
    {
        type            calculated;
        value           uniform (0 0 0);
    }
    outlet
    {
        type            calculated;
        value           uniform (0 0 0);
    }
    sideWall
    {
        type            empty;
    }
}


// ************************************************************************* //
