/*--------------------------------*- C++ -*----------------------------------*\
| =========                 |                                                 |
| \\      /  F ield         | foam-extend: Open Source CFD                    |
|  \\    /   O peration     | Version:     3.2                                |
|   \\  /    A nd           | Web:         http://www.foam-extend.org         |
|    \\/     M anipulation  | For copyright notice see file Copyright         |
\*---------------------------------------------------------------------------*/
FoamFile
{
    version     2.0;
    format      ascii;
    class       volScalarField;
    location    "160";
    object      C1;
}
// * * * * * * * * * * * * * * * * * * * * * * * * * * * * * * * * * * * * * //

dimensions      [1 -3 0 0 0 0 0];

internalField   nonuniform List<scalar> 
96000
(
0.02
0.02
0.02
0.02
0.02
0.02
0.02
0.02
0.02
0.02
0.02
0.02
0.02
0.02
0.02
0.02
0.02
0.02
0.02
0.02
0.02
0.02
0.02
0.02
0.02
0.02
0.02
0.02
0.02
0.02
0.02
0.02
0.02
0.02
0.02
0.02
0.02
0.02
0.02
0.02
0.02
0.02
0.02
0.02
0.02
0.02
0.02
0.02
0.02
0.02
0.02
0.02
0.02
0.02
0.02
0.02
0.02
0.02
0.02
0.02
0.02
0.02
0.02
0.02
0.02
0.02
0.02
0.02
0.02
0.02
0.02
0.02
0.02
0.02
0.02
0.02
0.02
0.02
0.02
0.02
0.02
0.02
0.02
0.02
0.02
0.02
0.02
0.02
0.02
0.02
0.02
0.02
0.02
0.02
0.02
0.02
0.02
0.02
0.02
0.02
0.0199738
0.0199122
0.0199275
0.0198733
0.0198562
0.0198925
0.0197651
0.0199726
0.0194762
0.0201549
0.0233324
0.0203439
0.0210614
0.0201578
0.0200856
0.0203533
0.0188975
0.0196197
0.0185069
0.0194289
0.0189542
0.0180435
0.0199644
0.0194381
0.018921
0.0188903
0.0186396
0.0191525
0.0188084
0.0212222
0.0184049
0.0188706
0.0192438
0.0186562
0.0187575
0.0180897
0.0212801
0.0198458
0.0196722
0.0186372
0.0183535
0.0188289
0.0186966
0.0190614
0.0184842
0.0183302
0.0186731
0.018021
0.0203162
0.0194059
0.0187753
0.0192866
0.0185924
0.0186095
0.0180057
0.0198324
0.0182872
0.0183433
0.0183976
0.01854
0.0190715
0.0185186
0.0192672
0.0184915
0.0187236
0.0192092
0.0190273
0.0193535
0.0186151
0.0188325
0.0186942
0.0189709
0.0192758
0.0197007
0.0191537
0.0190905
0.0188199
0.0184552
0.0189009
0.0193221
0.0225211
0.0199318
0.0221613
0.0193358
0.0189883
0.0188652
0.0182935
0.0186652
0.0195897
0.0200155
0.0198031
0.0195005
0.0191019
0.0188296
0.0183973
0.0183028
0.019041
0.0185065
0.018206
0.0206791
0.0200117
0.0191493
0.0184451
0.0186023
0.0185007
0.0191403
0.019209
0.0203821
0.0209389
0.0206595
0.0189917
0.0189471
0.0196284
0.0199613
0.0193854
0.0194073
0.0188961
0.0188971
0.0184919
0.0189796
0.0190842
0.0191203
0.0197571
0.01907
0.0186067
0.0185195
0.0182522
0.0191819
0.0202647
0.020572
0.0202688
0.0200553
0.0209419
0.0196763
0.0198873
0.0197076
0.0198053
0.0198405
0.020178
0.0193384
0.0196808
0.019822
0.0193305
0.019087
0.0193194
0.0206793
0.0199728
0.0203014
0.0194849
0.0192515
0.0190141
0.0192971
0.0199623
0.0204757
0.0201558
0.0204347
0.0207655
0.020207
0.019244
0.0185419
0.0187762
0.0188125
0.0196054
0.0197936
0.0203505
0.0207395
0.0201027
0.019607
0.0196809
0.0195726
0.0188964
0.0208251
0.0199895
0.0194468
0.019259
0.0187292
0.0183362
0.0201406
0.0200005
0.0202403
0.0211979
0.0195566
0.0212108
0.020132
0.0209522
0.0205863
0.0202107
0.0206541
0.0206714
0.0206519
0.0207458
0.0205466
0.0205884
0.0204059
0.0203293
0.0201652
0.0200647
0.0200444
0.0200252
0.0200095
0.02
0.02
0.02
0.02
0.02
0.02
0.02
0.02
0.02
0.02
0.02
0.02
0.02
0.02
0.02
0.02
0.02
0.02
0.02
0.02
0.02
0.02
0.02
0.02
0.02
0.02
0.02
0.02
0.02
0.02
0.02
0.02
0.02
0.02
0.02
0.02
0.02
0.02
0.02
0.02
0.02
0.02
0.02
0.02
0.02
0.02
0.02
0.02
0.02
0.02
0.02
0.02
0.02
0.02
0.02
0.02
0.02
0.02
0.02
0.02
0.02
0.02
0.02
0.02
0.02
0.02
0.02
0.02
0.02
0.02
0.02
0.02
0.02
0.02
0.02
0.02
0.02
0.02
0.02
0.02
0.02
0.02
0.02
0.02
0.02
0.02
0.02
0.02
0.02
0.02
0.02
0.02
0.02
0.02
0.02
0.02
0.02
0.02
0.02
0.02
0.0200026
0.0199972
0.0200047
0.0200001
0.0199987
0.0200156
0.0199921
0.0200479
0.019936
0.0202007
0.0210646
0.0205369
0.0205264
0.0202031
0.020021
0.0200813
0.0197889
0.0199992
0.0196676
0.0197759
0.0195903
0.0193635
0.0197105
0.0197803
0.0197631
0.0195956
0.0195187
0.0194679
0.0194375
0.0200572
0.0197414
0.0196372
0.0195308
0.019483
0.0195081
0.0193855
0.0200873
0.0199204
0.0197942
0.0195456
0.0194241
0.0195112
0.0196327
0.0195821
0.0192934
0.0192349
0.0192287
0.0191578
0.0198502
0.0197542
0.0195212
0.0194257
0.0193124
0.0192432
0.0191418
0.0197512
0.0194506
0.0193185
0.0192836
0.0192478
0.0193099
0.0192475
0.0195576
0.0194634
0.0194047
0.0194904
0.0193947
0.0193909
0.0193119
0.0192895
0.0194466
0.0195283
0.0195499
0.0196754
0.0194788
0.0193852
0.0193365
0.0192613
0.0194328
0.0196681
0.0204511
0.0200889
0.020256
0.0198419
0.0196181
0.0194963
0.0194187
0.019443
0.019642
0.0198196
0.0196789
0.0195716
0.0195028
0.019439
0.0193781
0.0193294
0.0194075
0.019305
0.0191887
0.0195374
0.0196825
0.0195609
0.0194494
0.019415
0.0193083
0.0193894
0.0193502
0.0195501
0.0198692
0.0200124
0.0198165
0.0197398
0.0197659
0.0198811
0.0196389
0.0195632
0.0194502
0.0194343
0.0193915
0.0195781
0.0195271
0.0195797
0.0195731
0.0194858
0.0193692
0.019383
0.0193149
0.0194298
0.0197614
0.019775
0.0197535
0.0197984
0.0200331
0.0200601
0.0201311
0.0199732
0.0199331
0.0197814
0.0197845
0.0196901
0.0197168
0.0199941
0.019905
0.0197278
0.019712
0.0198011
0.0197365
0.019867
0.0197682
0.0198244
0.019758
0.0197054
0.0198592
0.0199237
0.0200163
0.0198952
0.0199153
0.0199181
0.0197253
0.0196043
0.01963
0.019537
0.0196747
0.0196262
0.0197105
0.0199351
0.0199263
0.0200322
0.0200802
0.0199382
0.0196994
0.0198395
0.019785
0.0197048
0.0196418
0.0196069
0.0194324
0.0196339
0.019705
0.0197651
0.020013
0.0197928
0.0200472
0.0199514
0.0200728
0.0200712
0.0200092
0.020052
0.0200879
0.0201142
0.0201522
0.0201397
0.0201485
0.0201267
0.020101
0.0200566
0.0200328
0.0200246
0.0200141
0.0200028
0.02
0.02
0.02
0.02
0.02
0.02
0.02
0.02
0.02
0.02
0.02
0.02
0.02
0.02
0.02
0.02
0.02
0.02
0.02
0.02
0.02
0.02
0.02
0.02
0.02
0.02
0.02
0.02
0.02
0.02
0.02
0.02
0.02
0.02
0.02
0.02
0.02
0.02
0.02
0.02
0.02
0.02
0.02
0.02
0.02
0.02
0.02
0.02
0.02
0.02
0.02
0.02
0.02
0.02
0.02
0.02
0.02
0.02
0.02
0.02
0.02
0.02
0.02
0.02
0.02
0.02
0.02
0.02
0.02
0.02
0.02
0.02
0.02
0.02
0.02
0.02
0.02
0.02
0.02
0.02
0.02
0.02
0.02
0.02
0.02
0.02
0.02
0.02
0.02
0.02
0.02
0.02
0.02
0.02
0.02
0.02
0.02
0.02
0.02
0.02
0.0200007
0.0199981
0.0200003
0.0199985
0.0199972
0.0200036
0.0199953
0.020016
0.0199756
0.0200704
0.0204261
0.0203391
0.0203052
0.0201936
0.0200891
0.0200884
0.0199722
0.0200068
0.0198775
0.0198828
0.0198099
0.0197162
0.0198212
0.0198735
0.0198812
0.019794
0.0197542
0.0197106
0.0197028
0.0199405
0.0198839
0.0198133
0.0197514
0.0197258
0.0196966
0.0196473
0.0198812
0.0199102
0.0198874
0.0197816
0.0197072
0.0196894
0.0197304
0.019712
0.019587
0.019546
0.0195044
0.0194789
0.0197017
0.0197297
0.0196634
0.019609
0.0195621
0.0195064
0.0194632
0.019665
0.0196098
0.0195614
0.0195297
0.0195099
0.0195092
0.0194904
0.0195854
0.0195848
0.0195666
0.0195866
0.0195716
0.0195579
0.0195325
0.0195041
0.0195528
0.0195943
0.0196104
0.0196684
0.0196195
0.0195781
0.019542
0.0195084
0.0195473
0.0196483
0.0199645
0.0199424
0.0200241
0.0199009
0.0197826
0.0196961
0.0196385
0.0196152
0.0196776
0.0197611
0.0197449
0.0197037
0.0196647
0.0196317
0.0195798
0.0195474
0.0195401
0.0195092
0.019464
0.0195854
0.0196856
0.0196683
0.0196189
0.0195721
0.0195201
0.019521
0.0195234
0.0195977
0.0197592
0.0198739
0.0198284
0.0197874
0.0197781
0.0198224
0.0197495
0.0197049
0.0196429
0.019621
0.0195796
0.019634
0.019624
0.0196519
0.0196641
0.0196384
0.0195912
0.0195645
0.0195346
0.0195514
0.0196804
0.019738
0.019758
0.0197975
0.0199078
0.0199421
0.0199822
0.0199344
0.0199096
0.0198538
0.01984
0.0198028
0.0197989
0.019894
0.0198875
0.0198169
0.0197859
0.0198188
0.0198067
0.0198613
0.019838
0.0198442
0.0198193
0.0197851
0.0198296
0.0198751
0.0199195
0.0198948
0.0198985
0.01991
0.0198379
0.0197628
0.0197411
0.0196969
0.0197239
0.0197236
0.0197562
0.0198645
0.0198975
0.0199418
0.0199763
0.0199331
0.0198305
0.0198573
0.0198461
0.0198128
0.0197776
0.0197403
0.0196534
0.0196968
0.0197452
0.019781
0.0198887
0.0198389
0.0199301
0.0199233
0.0199733
0.0199905
0.0199775
0.0199911
0.0200107
0.0200288
0.0200516
0.0200557
0.0200625
0.0200577
0.0200462
0.0200191
0.0200056
0.0200044
0.0200001
0.0199938
0.02
0.02
0.02
0.02
0.02
0.02
0.02
0.02
0.02
0.02
0.02
0.02
0.02
0.02
0.02
0.02
0.02
0.02
0.02
0.02
0.02
0.02
0.02
0.02
0.02
0.02
0.02
0.02
0.02
0.02
0.02
0.02
0.02
0.02
0.02
0.02
0.02
0.02
0.02
0.02
0.02
0.02
0.02
0.02
0.02
0.02
0.02
0.02
0.02
0.02
0.02
0.02
0.02
0.02
0.02
0.02
0.02
0.02
0.02
0.02
0.02
0.02
0.02
0.02
0.02
0.02
0.02
0.02
0.02
0.02
0.02
0.02
0.02
0.02
0.02
0.02
0.02
0.02
0.02
0.02
0.02
0.02
0.02
0.02
0.02
0.02
0.02
0.02
0.02
0.02
0.02
0.02
0.02
0.02
0.02
0.02
0.02
0.02
0.02
0.02
0.0200003
0.0199992
0.0199999
0.0199991
0.0199982
0.0200011
0.0199977
0.020007
0.0199897
0.0200285
0.020205
0.0202157
0.0202021
0.0201563
0.0200961
0.0200826
0.020026
0.020023
0.0199586
0.0199439
0.0199061
0.0198598
0.0198895
0.019924
0.0199369
0.0198931
0.0198666
0.0198349
0.0198272
0.0199291
0.0199295
0.0198942
0.0198542
0.0198353
0.0198038
0.0197732
0.0198653
0.0199087
0.0199177
0.0198708
0.0198255
0.019793
0.019801
0.0197892
0.0197256
0.0196941
0.0196518
0.0196345
0.0197141
0.019747
0.0197309
0.0197013
0.0196783
0.0196388
0.0196144
0.0196907
0.0196891
0.019673
0.0196501
0.0196356
0.0196219
0.0196126
0.0196448
0.0196559
0.0196534
0.0196597
0.0196595
0.0196496
0.0196384
0.0196167
0.0196332
0.0196526
0.0196636
0.0196958
0.0196845
0.019668
0.0196428
0.0196244
0.0196303
0.0196761
0.0198291
0.0198668
0.0199234
0.0198902
0.0198305
0.0197758
0.0197366
0.0197088
0.0197286
0.0197696
0.019775
0.01976
0.0197366
0.0197169
0.0196816
0.0196569
0.0196368
0.019623
0.0195988
0.0196445
0.0197037
0.0197129
0.019694
0.0196602
0.0196308
0.0196175
0.01962
0.0196523
0.0197374
0.0198161
0.0198193
0.0198026
0.019795
0.0198162
0.0197907
0.0197665
0.0197287
0.01971
0.0196799
0.0196937
0.0196914
0.0197039
0.0197153
0.0197084
0.0196878
0.0196636
0.0196449
0.0196406
0.0196974
0.0197393
0.019765
0.0197936
0.0198542
0.0198879
0.0199172
0.0199071
0.0198981
0.0198736
0.0198627
0.0198426
0.0198344
0.0198732
0.0198803
0.0198522
0.0198292
0.0198386
0.0198377
0.0198613
0.0198577
0.0198587
0.0198473
0.019828
0.0198419
0.0198675
0.0198945
0.0198895
0.0198915
0.0198994
0.0198701
0.0198279
0.0198022
0.0197756
0.0197763
0.0197775
0.019792
0.0198463
0.0198777
0.0199069
0.0199327
0.0199244
0.0198763
0.0198751
0.0198717
0.0198535
0.0198323
0.0198066
0.0197556
0.0197563
0.0197808
0.0198006
0.0198536
0.0198468
0.0198894
0.0199003
0.0199284
0.0199461
0.019949
0.0199567
0.0199693
0.0199828
0.0199988
0.0200069
0.0200141
0.0200154
0.0200106
0.019994
0.019986
0.0199879
0.0199866
0.0199842
0.02
0.02
0.02
0.02
0.02
0.02
0.02
0.02
0.02
0.02
0.02
0.02
0.02
0.02
0.02
0.02
0.02
0.02
0.02
0.02
0.02
0.02
0.02
0.02
0.02
0.02
0.02
0.02
0.02
0.02
0.02
0.02
0.02
0.02
0.02
0.02
0.02
0.02
0.02
0.02
0.02
0.02
0.02
0.02
0.02
0.02
0.02
0.02
0.02
0.02
0.02
0.02
0.02
0.02
0.02
0.02
0.02
0.02
0.02
0.02
0.02
0.02
0.02
0.02
0.02
0.02
0.02
0.02
0.02
0.02
0.02
0.02
0.02
0.02
0.02
0.02
0.02
0.02
0.02
0.02
0.02
0.02
0.02
0.02
0.02
0.02
0.02
0.02
0.02
0.02
0.02
0.02
0.02
0.02
0.02
0.02
0.02
0.02
0.02
0.02
0.0200002
0.0199997
0.0199999
0.0199995
0.0199989
0.0200004
0.0199988
0.0200035
0.0199953
0.020012
0.0201087
0.0201404
0.0201398
0.0201216
0.0200871
0.0200748
0.0200437
0.0200328
0.0199937
0.0199767
0.0199562
0.0199304
0.0199345
0.0199563
0.0199683
0.0199445
0.0199261
0.0199054
0.0198986
0.0199437
0.0199536
0.0199365
0.0199107
0.0198965
0.0198698
0.0198458
0.0198825
0.0199163
0.0199331
0.0199132
0.0198851
0.0198552
0.0198502
0.0198389
0.0198024
0.0197783
0.0197427
0.0197274
0.0197533
0.0197742
0.0197729
0.0197566
0.0197452
0.0197185
0.0197026
0.0197317
0.0197388
0.0197349
0.0197194
0.0197088
0.0196954
0.0196892
0.0196985
0.0197063
0.019708
0.0197107
0.0197135
0.0197081
0.0197027
0.0196875
0.0196924
0.0196994
0.0197046
0.0197241
0.0197246
0.0197202
0.0197039
0.0196926
0.019689
0.0197092
0.0197892
0.0198308
0.0198746
0.0198737
0.0198465
0.0198139
0.0197877
0.0197638
0.0197673
0.0197871
0.0197953
0.0197914
0.0197777
0.019765
0.019741
0.0197208
0.0197016
0.0196939
0.019677
0.0196936
0.0197293
0.0197431
0.0197367
0.0197144
0.0196961
0.0196823
0.0196827
0.0196981
0.0197461
0.019799
0.019815
0.0198102
0.0198064
0.0198192
0.0198112
0.0197995
0.0197765
0.0197622
0.0197406
0.0197406
0.0197378
0.019742
0.0197507
0.019751
0.019742
0.0197241
0.0197099
0.0197005
0.0197268
0.0197535
0.0197766
0.019798
0.0198348
0.0198628
0.019885
0.0198879
0.019888
0.0198783
0.0198728
0.0198615
0.0198547
0.019872
0.019879
0.0198676
0.0198522
0.0198536
0.0198559
0.0198672
0.0198685
0.0198692
0.0198628
0.0198513
0.0198551
0.01987
0.0198871
0.0198866
0.0198893
0.0198961
0.019884
0.0198597
0.0198377
0.0198187
0.0198126
0.0198122
0.0198195
0.0198492
0.0198727
0.0198933
0.0199124
0.0199157
0.0198925
0.0198862
0.0198857
0.0198753
0.0198615
0.0198441
0.0198101
0.019799
0.0198108
0.019821
0.0198482
0.0198518
0.0198754
0.0198884
0.0199071
0.0199222
0.0199298
0.0199364
0.0199456
0.0199561
0.0199683
0.019977
0.0199841
0.0199879
0.019986
0.0199762
0.0199719
0.019975
0.0199758
0.0199752
0.02
0.02
0.02
0.02
0.02
0.02
0.02
0.02
0.02
0.02
0.02
0.02
0.02
0.02
0.02
0.02
0.02
0.02
0.02
0.02
0.02
0.02
0.02
0.02
0.02
0.02
0.02
0.02
0.02
0.02
0.02
0.02
0.02
0.02
0.02
0.02
0.02
0.02
0.02
0.02
0.02
0.02
0.02
0.02
0.02
0.02
0.02
0.02
0.02
0.02
0.02
0.02
0.02
0.02
0.02
0.02
0.02
0.02
0.02
0.02
0.02
0.02
0.02
0.02
0.02
0.02
0.02
0.02
0.02
0.02
0.02
0.02
0.02
0.02
0.02
0.02
0.02
0.02
0.02
0.02
0.02
0.02
0.02
0.02
0.02
0.02
0.02
0.02
0.02
0.02
0.02
0.02
0.02
0.02
0.02
0.02
0.02
0.02
0.02
0.02
0.0200002
0.02
0.02
0.0199998
0.0199994
0.0200002
0.0199994
0.0200019
0.0199978
0.0200045
0.0200608
0.020093
0.0200985
0.0200931
0.020074
0.0200661
0.0200486
0.0200377
0.0200101
0.0199947
0.0199845
0.0199683
0.0199638
0.0199783
0.0199882
0.0199736
0.0199602
0.0199476
0.0199425
0.0199622
0.0199711
0.0199622
0.0199448
0.0199345
0.0199133
0.0198924
0.0199045
0.0199272
0.0199438
0.019937
0.0199192
0.019895
0.0198853
0.0198737
0.0198494
0.0198312
0.0198032
0.0197889
0.0197925
0.0198025
0.0198041
0.0197944
0.0197889
0.0197715
0.0197605
0.01977
0.0197752
0.0197756
0.0197648
0.0197565
0.0197463
0.0197423
0.0197426
0.0197459
0.0197473
0.0197477
0.0197509
0.0197488
0.0197464
0.0197365
0.0197372
0.0197372
0.0197378
0.0197495
0.0197537
0.019755
0.0197451
0.019738
0.0197322
0.0197396
0.0197825
0.0198163
0.0198509
0.0198621
0.0198523
0.0198343
0.0198175
0.0197987
0.0197957
0.0198044
0.0198111
0.0198119
0.0198038
0.0197959
0.0197796
0.0197626
0.0197466
0.0197418
0.0197281
0.019732
0.0197544
0.0197671
0.0197658
0.0197511
0.0197389
0.0197274
0.0197263
0.0197343
0.0197632
0.0197993
0.0198167
0.0198166
0.0198152
0.0198245
0.0198236
0.0198194
0.019806
0.019796
0.0197807
0.019776
0.0197717
0.0197712
0.0197771
0.0197802
0.0197772
0.0197647
0.0197529
0.0197428
0.0197546
0.0197708
0.0197898
0.0198065
0.0198305
0.0198526
0.0198693
0.0198759
0.0198802
0.0198782
0.0198773
0.0198716
0.0198675
0.019876
0.0198809
0.0198761
0.0198655
0.0198643
0.0198678
0.019874
0.0198766
0.0198775
0.0198732
0.0198656
0.0198656
0.019875
0.0198862
0.0198862
0.0198894
0.0198961
0.0198922
0.0198779
0.0198601
0.0198451
0.0198374
0.0198359
0.0198402
0.0198581
0.0198751
0.0198898
0.0199035
0.01991
0.0198984
0.0198923
0.0198939
0.0198883
0.0198794
0.0198678
0.0198426
0.0198288
0.0198344
0.019839
0.0198529
0.0198577
0.0198721
0.0198836
0.0198969
0.0199093
0.0199176
0.0199237
0.0199312
0.0199397
0.0199494
0.0199575
0.0199642
0.0199691
0.0199687
0.0199632
0.0199616
0.0199652
0.0199672
0.0199676
0.02
0.02
0.02
0.02
0.02
0.02
0.02
0.02
0.02
0.02
0.02
0.02
0.02
0.02
0.02
0.02
0.02
0.02
0.02
0.02
0.02
0.02
0.02
0.02
0.02
0.02
0.02
0.02
0.02
0.02
0.02
0.02
0.02
0.02
0.02
0.02
0.02
0.02
0.02
0.02
0.02
0.02
0.02
0.02
0.02
0.02
0.02
0.02
0.02
0.02
0.02
0.02
0.02
0.02
0.02
0.02
0.02
0.02
0.02
0.02
0.02
0.02
0.02
0.02
0.02
0.02
0.02
0.02
0.02
0.02
0.02
0.02
0.02
0.02
0.02
0.02
0.02
0.02
0.02
0.02
0.02
0.02
0.02
0.02
0.02
0.02
0.02
0.02
0.02
0.02
0.02
0.02
0.02
0.02
0.02
0.02
0.02
0.02
0.02
0.02
0.0200002
0.0200001
0.0200001
0.02
0.0199998
0.0200001
0.0199998
0.0200011
0.0199989
0.0200006
0.0200346
0.0200622
0.02007
0.020071
0.0200614
0.0200577
0.0200483
0.0200389
0.0200176
0.0200046
0.0200011
0.0199905
0.0199833
0.0199936
0.0200012
0.0199909
0.0199808
0.0199744
0.0199713
0.019979
0.0199846
0.0199792
0.0199672
0.01996
0.0199434
0.019924
0.0199244
0.0199387
0.0199533
0.0199527
0.0199408
0.0199216
0.0199106
0.019899
0.0198812
0.0198676
0.0198461
0.0198326
0.0198263
0.0198284
0.0198293
0.0198229
0.0198208
0.0198097
0.0198016
0.0198022
0.0198038
0.019805
0.0197974
0.0197908
0.019784
0.0197816
0.0197782
0.0197776
0.0197775
0.0197763
0.0197793
0.0197798
0.0197791
0.0197729
0.0197717
0.0197675
0.0197649
0.0197717
0.0197771
0.0197812
0.0197755
0.0197709
0.0197649
0.0197653
0.0197881
0.0198132
0.0198407
0.0198562
0.0198555
0.0198467
0.0198362
0.0198217
0.0198165
0.0198195
0.0198245
0.0198274
0.0198227
0.019818
0.0198066
0.0197917
0.0197787
0.0197758
0.0197641
0.0197626
0.0197773
0.0197877
0.0197878
0.0197775
0.0197689
0.01976
0.0197585
0.0197633
0.019782
0.019807
0.0198221
0.0198229
0.0198225
0.0198302
0.0198329
0.0198332
0.0198261
0.0198195
0.0198086
0.0198023
0.0197969
0.0197941
0.0197982
0.0198027
0.0198026
0.0197937
0.0197831
0.0197734
0.0197782
0.019788
0.0198037
0.0198169
0.0198332
0.01985
0.0198618
0.0198689
0.0198749
0.0198773
0.01988
0.019878
0.0198762
0.0198809
0.0198836
0.0198814
0.0198737
0.0198722
0.0198768
0.0198809
0.0198835
0.0198843
0.0198805
0.019875
0.0198737
0.0198803
0.019888
0.0198875
0.0198911
0.0198981
0.0198983
0.0198895
0.0198747
0.0198622
0.0198548
0.0198531
0.0198566
0.0198686
0.0198807
0.0198907
0.0199
0.0199065
0.0199005
0.0198961
0.0198996
0.0198973
0.0198915
0.0198834
0.0198634
0.0198499
0.0198528
0.0198545
0.0198609
0.0198645
0.0198737
0.0198828
0.0198926
0.0199025
0.0199103
0.0199158
0.0199222
0.0199293
0.0199373
0.0199446
0.0199507
0.0199559
0.0199565
0.0199537
0.0199539
0.0199577
0.0199603
0.0199614
0.02
0.02
0.02
0.02
0.02
0.02
0.02
0.02
0.02
0.02
0.02
0.02
0.02
0.02
0.02
0.02
0.02
0.02
0.02
0.02
0.02
0.02
0.02
0.02
0.02
0.02
0.02
0.02
0.02
0.02
0.02
0.02
0.02
0.02
0.02
0.02
0.02
0.02
0.02
0.02
0.02
0.02
0.02
0.02
0.02
0.02
0.02
0.02
0.02
0.02
0.02
0.02
0.02
0.02
0.02
0.02
0.02
0.02
0.02
0.02
0.02
0.02
0.02
0.02
0.02
0.02
0.02
0.02
0.02
0.02
0.02
0.02
0.02
0.02
0.02
0.02
0.02
0.02
0.02
0.02
0.02
0.02
0.02
0.02
0.02
0.02
0.02
0.02
0.02
0.02
0.02
0.02
0.02
0.02
0.02
0.02
0.02
0.02
0.02
0.02
0.0200002
0.0200002
0.0200002
0.0200002
0.02
0.0200002
0.02
0.0200007
0.0199994
0.0199986
0.0200195
0.0200417
0.0200495
0.0200537
0.0200504
0.0200504
0.0200459
0.020038
0.0200203
0.0200094
0.0200108
0.020004
0.0199967
0.0200046
0.0200099
0.0200012
0.0199933
0.0199918
0.019991
0.0199931
0.0199954
0.0199908
0.0199828
0.0199784
0.0199651
0.0199465
0.0199407
0.0199495
0.0199619
0.0199645
0.019956
0.0199406
0.0199292
0.0199178
0.0199042
0.0198942
0.0198781
0.0198653
0.0198545
0.0198511
0.0198502
0.0198456
0.0198456
0.0198392
0.0198327
0.0198292
0.0198275
0.0198278
0.019822
0.0198171
0.0198135
0.0198123
0.0198072
0.0198038
0.0198016
0.0197993
0.019802
0.0198045
0.019805
0.0198015
0.0197994
0.0197923
0.0197872
0.0197908
0.0197967
0.0198023
0.0197997
0.0197966
0.0197907
0.0197869
0.0197978
0.0198159
0.019838
0.0198546
0.0198588
0.0198556
0.0198491
0.0198379
0.0198318
0.0198318
0.0198358
0.01984
0.0198378
0.0198351
0.0198267
0.019813
0.0198024
0.0198007
0.0197906
0.0197872
0.0197979
0.0198062
0.0198059
0.0197976
0.0197908
0.0197842
0.019783
0.019787
0.0198002
0.0198181
0.0198296
0.0198295
0.0198289
0.0198355
0.0198403
0.0198438
0.0198411
0.019837
0.0198291
0.0198223
0.019816
0.0198121
0.0198155
0.0198212
0.0198226
0.0198157
0.0198054
0.0197962
0.0197975
0.0198037
0.0198172
0.0198281
0.0198395
0.0198517
0.0198593
0.0198649
0.0198715
0.0198766
0.019882
0.019883
0.019883
0.0198856
0.0198865
0.0198849
0.0198789
0.0198781
0.0198838
0.0198875
0.0198899
0.0198902
0.019886
0.0198813
0.0198797
0.0198851
0.0198906
0.0198896
0.0198938
0.0199014
0.0199037
0.0198977
0.0198847
0.0198735
0.019867
0.0198659
0.0198698
0.0198789
0.0198878
0.019894
0.0198995
0.0199046
0.0199011
0.0198986
0.0199039
0.0199043
0.0199005
0.0198943
0.0198772
0.0198651
0.0198672
0.0198675
0.0198697
0.0198715
0.0198773
0.0198844
0.0198917
0.0198995
0.0199062
0.0199112
0.0199166
0.0199227
0.0199293
0.0199358
0.0199414
0.0199465
0.0199479
0.019947
0.0199482
0.019952
0.0199549
0.0199565
0.02
0.02
0.02
0.02
0.02
0.02
0.02
0.02
0.02
0.02
0.02
0.02
0.02
0.02
0.02
0.02
0.02
0.02
0.02
0.02
0.02
0.02
0.02
0.02
0.02
0.02
0.02
0.02
0.02
0.02
0.02
0.02
0.02
0.02
0.02
0.02
0.02
0.02
0.02
0.02
0.02
0.02
0.02
0.02
0.02
0.02
0.02
0.02
0.02
0.02
0.02
0.02
0.02
0.02
0.02
0.02
0.02
0.02
0.02
0.02
0.02
0.02
0.02
0.02
0.02
0.02
0.02
0.02
0.02
0.02
0.02
0.02
0.02
0.02
0.02
0.02
0.02
0.02
0.02
0.02
0.02
0.02
0.02
0.02
0.02
0.02
0.02
0.02
0.02
0.02
0.02
0.02
0.02
0.02
0.02
0.02
0.02
0.02
0.02
0.0200001
0.0200002
0.0200003
0.0200003
0.0200003
0.0200002
0.0200003
0.0200002
0.0200006
0.0199997
0.0199976
0.0200106
0.0200278
0.0200345
0.0200397
0.0200404
0.0200435
0.0200428
0.0200366
0.0200211
0.0200115
0.0200158
0.0200116
0.0200054
0.0200125
0.0200163
0.0200081
0.020001
0.0200026
0.020004
0.0200042
0.0200044
0.0199995
0.0199938
0.0199916
0.0199813
0.0199636
0.0199542
0.019959
0.0199693
0.0199735
0.0199674
0.019955
0.0199439
0.0199325
0.0199215
0.0199138
0.0199023
0.0198909
0.0198785
0.0198715
0.0198681
0.019864
0.0198651
0.0198624
0.0198576
0.0198523
0.0198482
0.0198468
0.0198415
0.0198374
0.0198367
0.019837
0.0198318
0.0198264
0.0198221
0.0198184
0.0198203
0.0198241
0.0198259
0.0198249
0.0198226
0.0198137
0.0198065
0.0198074
0.019813
0.0198193
0.0198191
0.0198174
0.0198123
0.019806
0.0198093
0.0198215
0.0198392
0.0198553
0.0198623
0.0198628
0.0198592
0.0198504
0.019844
0.0198421
0.0198452
0.0198499
0.0198498
0.0198489
0.019843
0.0198302
0.0198212
0.01982
0.0198108
0.0198066
0.0198153
0.0198225
0.0198217
0.0198145
0.0198083
0.0198028
0.0198019
0.0198056
0.0198162
0.01983
0.0198387
0.019837
0.0198353
0.0198405
0.0198462
0.0198516
0.0198524
0.0198507
0.0198453
0.0198385
0.0198313
0.0198264
0.0198291
0.0198359
0.0198387
0.0198337
0.0198235
0.0198144
0.0198133
0.0198172
0.0198291
0.0198387
0.0198474
0.0198563
0.0198604
0.0198639
0.0198696
0.0198758
0.0198831
0.0198866
0.0198886
0.0198906
0.0198902
0.0198881
0.0198825
0.0198821
0.0198887
0.019893
0.0198958
0.019896
0.0198913
0.0198866
0.0198846
0.0198892
0.0198932
0.0198917
0.0198962
0.0199046
0.0199087
0.0199046
0.0198929
0.0198821
0.0198758
0.019875
0.0198796
0.0198879
0.0198951
0.019899
0.0199014
0.0199044
0.0199014
0.0198998
0.0199065
0.0199093
0.0199076
0.0199029
0.0198873
0.0198761
0.0198781
0.0198779
0.0198778
0.0198782
0.0198819
0.0198872
0.0198926
0.0198987
0.0199042
0.0199085
0.0199133
0.0199184
0.0199241
0.0199298
0.0199349
0.0199398
0.0199417
0.019942
0.0199439
0.0199476
0.0199507
0.0199526
0.02
0.02
0.02
0.02
0.02
0.02
0.02
0.02
0.02
0.02
0.02
0.02
0.02
0.02
0.02
0.02
0.02
0.02
0.02
0.02
0.02
0.02
0.02
0.02
0.02
0.02
0.02
0.02
0.02
0.02
0.02
0.02
0.02
0.02
0.02
0.02
0.02
0.02
0.02
0.02
0.02
0.02
0.02
0.02
0.02
0.02
0.02
0.02
0.02
0.02
0.02
0.02
0.02
0.02
0.02
0.02
0.02
0.02
0.02
0.02
0.02
0.02
0.02
0.02
0.02
0.02
0.02
0.02
0.02
0.02
0.02
0.02
0.02
0.02
0.02
0.02
0.02
0.02
0.02
0.02
0.02
0.02
0.02
0.02
0.02
0.02
0.02
0.02
0.02
0.02
0.02
0.02
0.02
0.02
0.02
0.02
0.02
0.02
0.02
0.0200001
0.0200002
0.0200003
0.0200004
0.0200005
0.0200004
0.0200005
0.0200004
0.0200006
0.0199998
0.019997
0.0200052
0.0200184
0.0200235
0.0200287
0.0200319
0.0200373
0.0200395
0.0200348
0.0200206
0.020012
0.020018
0.0200156
0.0200108
0.020018
0.020021
0.0200128
0.0200058
0.0200092
0.0200125
0.0200125
0.0200118
0.0200063
0.0200016
0.020001
0.0199935
0.0199768
0.0199653
0.0199671
0.0199757
0.019981
0.0199764
0.0199663
0.0199557
0.0199442
0.019935
0.0199289
0.0199211
0.0199114
0.0198987
0.0198895
0.0198837
0.0198795
0.0198812
0.0198813
0.019878
0.0198721
0.0198662
0.0198631
0.0198577
0.0198538
0.0198554
0.0198573
0.0198527
0.019846
0.0198398
0.0198346
0.0198357
0.0198405
0.0198434
0.0198444
0.0198423
0.0198322
0.0198233
0.019822
0.019827
0.0198337
0.0198354
0.0198349
0.0198305
0.0198226
0.019821
0.0198286
0.0198426
0.0198578
0.0198662
0.0198692
0.0198675
0.0198604
0.019854
0.0198509
0.0198531
0.0198581
0.0198597
0.0198604
0.0198564
0.0198443
0.0198363
0.0198354
0.0198268
0.0198224
0.0198301
0.019837
0.0198358
0.0198288
0.0198226
0.0198177
0.0198169
0.019821
0.0198304
0.0198416
0.0198482
0.0198449
0.0198418
0.0198455
0.0198513
0.019858
0.0198614
0.0198618
0.0198584
0.0198518
0.0198439
0.0198381
0.0198403
0.0198479
0.0198521
0.0198486
0.0198384
0.0198292
0.0198265
0.0198289
0.0198397
0.0198487
0.0198557
0.0198622
0.0198636
0.0198648
0.019869
0.0198755
0.0198842
0.0198895
0.0198933
0.0198954
0.0198939
0.0198911
0.0198854
0.0198852
0.0198925
0.0198977
0.0199011
0.0199014
0.0198962
0.019891
0.0198886
0.0198927
0.0198959
0.019894
0.0198986
0.0199078
0.0199134
0.0199106
0.0198995
0.0198887
0.0198824
0.0198819
0.0198873
0.0198956
0.0199022
0.0199045
0.0199045
0.0199053
0.0199018
0.0199006
0.0199084
0.0199132
0.0199134
0.0199098
0.019895
0.0198844
0.0198864
0.0198865
0.0198852
0.0198845
0.0198866
0.0198906
0.0198946
0.0198993
0.0199037
0.0199074
0.0199115
0.0199159
0.0199208
0.0199258
0.0199304
0.0199349
0.0199372
0.0199385
0.0199408
0.0199444
0.0199474
0.0199494
0.02
0.02
0.02
0.02
0.02
0.02
0.02
0.02
0.02
0.02
0.02
0.02
0.02
0.02
0.02
0.02
0.02
0.02
0.02
0.02
0.02
0.02
0.02
0.02
0.02
0.02
0.02
0.02
0.02
0.02
0.02
0.02
0.02
0.02
0.02
0.02
0.02
0.02
0.02
0.02
0.02
0.02
0.02
0.02
0.02
0.02
0.02
0.02
0.02
0.02
0.02
0.02
0.02
0.02
0.02
0.02
0.02
0.02
0.02
0.02
0.02
0.02
0.02
0.02
0.02
0.02
0.02
0.02
0.02
0.02
0.02
0.02
0.02
0.02
0.02
0.02
0.02
0.02
0.02
0.02
0.02
0.02
0.02
0.02
0.02
0.02
0.02
0.02
0.02
0.02
0.02
0.02
0.02
0.02
0.02
0.02
0.02
0.02
0.02
0.0200001
0.0200002
0.0200004
0.0200005
0.0200005
0.0200005
0.0200006
0.0200005
0.0200006
0.0199998
0.0199965
0.0200016
0.0200117
0.0200154
0.0200205
0.0200255
0.0200325
0.0200363
0.0200322
0.0200188
0.0200112
0.0200187
0.0200182
0.0200147
0.0200217
0.0200236
0.0200149
0.0200083
0.0200137
0.0200189
0.020019
0.0200173
0.0200111
0.0200075
0.0200085
0.0200028
0.0199865
0.0199738
0.0199741
0.0199819
0.0199879
0.0199841
0.019975
0.0199645
0.0199534
0.0199459
0.0199414
0.0199366
0.0199284
0.0199154
0.0199045
0.0198969
0.0198931
0.0198955
0.0198977
0.0198953
0.0198888
0.0198813
0.0198768
0.0198716
0.0198684
0.0198718
0.0198747
0.0198703
0.0198623
0.0198545
0.0198486
0.0198494
0.0198553
0.019859
0.0198612
0.0198588
0.0198475
0.0198373
0.0198348
0.0198398
0.0198471
0.01985
0.01985
0.0198457
0.0198364
0.0198317
0.0198362
0.0198478
0.0198623
0.0198712
0.0198754
0.0198745
0.0198681
0.0198617
0.0198582
0.0198603
0.019866
0.0198689
0.0198705
0.0198674
0.0198555
0.019848
0.0198475
0.01984
0.0198362
0.0198437
0.0198502
0.019848
0.0198404
0.0198339
0.0198299
0.0198296
0.0198347
0.0198435
0.0198529
0.0198573
0.0198519
0.0198475
0.0198502
0.0198563
0.0198643
0.0198696
0.0198712
0.0198688
0.019862
0.0198538
0.0198479
0.0198503
0.0198589
0.0198639
0.0198608
0.01985
0.0198408
0.0198374
0.0198395
0.0198501
0.0198586
0.0198642
0.0198684
0.019867
0.0198661
0.0198694
0.0198762
0.0198862
0.019893
0.0198977
0.0198994
0.0198968
0.0198932
0.0198876
0.019888
0.0198964
0.0199025
0.0199062
0.019906
0.0198998
0.0198942
0.0198918
0.0198958
0.0198986
0.0198966
0.0199016
0.0199115
0.0199178
0.0199153
0.0199042
0.0198934
0.0198874
0.0198877
0.0198943
0.019903
0.0199089
0.0199096
0.0199073
0.0199061
0.0199022
0.0199017
0.0199108
0.0199172
0.0199183
0.019915
0.0199006
0.0198908
0.0198934
0.019894
0.0198921
0.0198905
0.0198915
0.0198943
0.0198973
0.0199009
0.0199044
0.0199073
0.0199108
0.0199147
0.0199189
0.0199233
0.0199275
0.0199316
0.0199341
0.0199361
0.0199386
0.0199419
0.0199449
0.019947
0.02
0.02
0.02
0.02
0.02
0.02
0.02
0.02
0.02
0.02
0.02
0.02
0.02
0.02
0.02
0.02
0.02
0.02
0.02
0.02
0.02
0.02
0.02
0.02
0.02
0.02
0.02
0.02
0.02
0.02
0.02
0.02
0.02
0.02
0.02
0.02
0.02
0.02
0.02
0.02
0.02
0.02
0.02
0.02
0.02
0.02
0.02
0.02
0.02
0.02
0.02
0.02
0.02
0.02
0.02
0.02
0.02
0.02
0.02
0.02
0.02
0.02
0.02
0.02
0.02
0.02
0.02
0.02
0.02
0.02
0.02
0.02
0.02
0.02
0.02
0.02
0.02
0.02
0.02
0.02
0.02
0.02
0.02
0.02
0.02
0.02
0.02
0.02
0.02
0.02
0.02
0.02
0.02
0.02
0.02
0.02
0.02
0.02
0.02
0.0200001
0.0200003
0.0200004
0.0200005
0.0200006
0.0200006
0.0200006
0.0200005
0.0200005
0.0199998
0.0199963
0.0199991
0.0200066
0.0200091
0.0200141
0.0200207
0.0200289
0.0200335
0.0200295
0.0200161
0.0200092
0.0200183
0.0200198
0.0200178
0.0200243
0.0200247
0.0200153
0.020009
0.0200164
0.0200238
0.0200242
0.020021
0.0200141
0.0200119
0.0200147
0.0200101
0.0199934
0.01998
0.0199799
0.0199877
0.0199944
0.0199909
0.0199821
0.0199713
0.0199603
0.0199546
0.0199521
0.01995
0.0199427
0.0199294
0.0199171
0.0199081
0.019905
0.0199083
0.0199121
0.0199104
0.0199032
0.0198944
0.0198883
0.0198834
0.0198812
0.0198865
0.0198901
0.0198855
0.0198763
0.0198671
0.0198605
0.0198615
0.0198685
0.0198731
0.0198761
0.0198732
0.0198607
0.0198492
0.0198458
0.0198512
0.0198592
0.0198634
0.0198637
0.0198591
0.0198482
0.0198412
0.0198436
0.0198538
0.019868
0.0198771
0.0198816
0.0198808
0.0198745
0.0198679
0.0198642
0.0198666
0.0198733
0.0198776
0.0198798
0.0198769
0.0198647
0.0198576
0.0198572
0.0198507
0.0198482
0.0198562
0.0198624
0.0198588
0.0198503
0.0198433
0.0198397
0.0198404
0.0198467
0.0198557
0.0198639
0.0198661
0.0198585
0.0198525
0.0198544
0.0198611
0.0198703
0.0198772
0.0198796
0.0198775
0.0198702
0.0198615
0.0198558
0.0198591
0.019869
0.0198745
0.0198712
0.0198596
0.01985
0.0198463
0.0198488
0.0198597
0.0198682
0.0198727
0.0198747
0.0198708
0.0198678
0.0198701
0.0198774
0.0198887
0.0198968