/*--------------------------------*- C++ -*----------------------------------*\
| =========                 |                                                 |
| \\      /  F ield         | foam-extend: Open Source CFD                    |
|  \\    /   O peration     | Version:     3.2                                |
|   \\  /    A nd           | Web:         http://www.foam-extend.org         |
|    \\/     M anipulation  | For copyright notice see file Copyright         |
\*---------------------------------------------------------------------------*/
FoamFile
{
    version     2.0;
    format      ascii;
    class       areaScalarField;
    location    "160";
    object      Ce2;
}
// * * * * * * * * * * * * * * * * * * * * * * * * * * * * * * * * * * * * * //

dimensions      [1 -3 0 0 0 0 0];

internalField   nonuniform List<scalar> 
300
(
4.59558
3.263
1.88168
1.39819
1.2287
1.14278
1.08187
1.02948
0.982033
0.939624
0.902305
0.86937
0.83993
0.813947
0.790803
0.769954
0.751053
0.733741
0.718011
0.703761
0.69062
0.678344
0.666888
0.656187
0.646208
0.636805
0.627966
0.619594
0.611703
0.604252
0.597171
0.590446
0.584023
0.577912
0.572078
0.566521
0.561178
0.55607
0.551154
0.546437
0.541913
0.537552
0.533354
0.529301
0.525385
0.521614
0.517963
0.514449
0.511021
0.50773
0.504506
0.501415
0.498389
0.495482
0.492629
0.489887
0.487189
0.484603
0.482016
0.479564
0.477112
0.474801
0.47248
0.470305
0.468109
0.466069
0.463991
0.462081
0.460121
0.458341
0.456507
0.454867
0.453166
0.451681
0.450125
0.448811
0.447432
0.446315
0.445154
0.444286
0.443403
0.442842
0.442348
0.442159
0.442177
0.442524
0.443168
0.44434
0.446075
0.448327
0.451661
0.45546
0.461877
0.46838
0.480712
0.491587
0.521171
0.525587
0.722925
0.248296
0.0442793
0.0506603
0.0603796
0.0670478
0.0770567
0.088477
0.0962436
0.117095
0.109577
0.174111
0.231565
0.0256262
0.0541811
0.0294324
0.0307174
0.189763
0.0901646
0.188908
0.0243678
0.0350823
0.0204961
0.0121719
0.202432
0.0859347
0.138357
0.0241135
0.0229565
0.0300573
0.103779
0.208191
0.0679252
0.0259126
0.024808
0.0882333
0.134798
0.0793831
0.0603113
0.0159344
0.0308583
0.0784962
0.0589074
0.154423
0.10192
0.0335416
0.0167956
0.0182291
0.116824
0.0594793
0.247705
0.0841158
0.0305199
0.0287204
0.0237306
0.12881
0.0732372
0.264734
0.103986
0.0315359
0.0424337
0.0292479
0.17204
0.115607
0.229693
0.123793
0.0447771
0.0456077
0.0409571
0.0476909
0.124369
0.167099
0.158272
0.202794
0.0468842
0.0635843
0.0358824
0.0428494
0.139265
0.119399
0.185067
0.181426
0.0842638
0.0333037
0.0682447
0.0230186
0.129878
0.114248
0.102854
0.146168
0.0334396
0.0556175
0.0300366
0.0414212
0.128597
0.128319
0.13367
0.105459
0.151682
0.026238
0.0518063
0.0493926
0.209827
0.135074
0.140011
0.159621
0.0354048
0.0509889
0.0385272
0.0617581
0.202484
0.23051
0.127601
0.190036
0.0424368
0.0554796
0.0332411
0.0376074
0.141449
0.120125
0.158077
0.140701
0.0494583
0.044226
0.0508732
0.137082
0.139545
0.15109
0.121584
0.0498591
0.0494643
0.0547583
0.0397738
0.208821
0.200776
0.205061
0.190197
0.0474367
0.0483501
0.0443596
0.0497368
0.154218
0.191784
0.203144
0.190151
0.0364702
0.050959
0.0509839
0.049999
0.204262
0.17932
0.188648
0.178114
0.0462328
0.0494218
0.0447504
0.0452993
0.0559345
0.0499847
0.229128
0.153392
0.159866
0.185561
0.036842
0.0576323
0.0433552
0.0597871
0.211249
0.224414
0.199769
0.243223
0.0434342
0.0447394
0.0575565
0.0505307
0.178955
0.16023
0.179226
0.04554
0.0519632
0.0417709
0.0678671
0.0543021
0.0527712
0.0637405
0.0578954
0.0623774
0.0588451
0.040611
0.0383452
0.0414452
0.0360001
0.0370336
0.0321147
0.0317504
0.0292266
0.0277574
0.0294198
0.135488
0.774891
0.296543
0.240369
)
;

boundaryField
{
    inlet
    {
        type            calculated;
        value           uniform 0;
    }
    outlet
    {
        type            calculated;
        value           uniform 0;
    }
    sideWall
    {
        type            empty;
    }
}


// ************************************************************************* //
