/*--------------------------------*- C++ -*----------------------------------*\
| =========                 |                                                 |
| \\      /  F ield         | foam-extend: Open Source CFD                    |
|  \\    /   O peration     | Version:     3.2                                |
|   \\  /    A nd           | Web:         http://www.foam-extend.org         |
|    \\/     M anipulation  | For copyright notice see file Copyright         |
\*---------------------------------------------------------------------------*/
FoamFile
{
    version     2.0;
    format      ascii;
    class       areaScalarField;
    location    "160";
    object      Cpre;
}
// * * * * * * * * * * * * * * * * * * * * * * * * * * * * * * * * * * * * * //

dimensions      [1 -3 0 0 0 0 0];

internalField   nonuniform List<scalar> 
300
(
0.02
0.02
0.02
0.02
0.02
0.02
0.02
0.02
0.02
0.02
0.02
0.02
0.02
0.02
0.02
0.02
0.02
0.02
0.02
0.02
0.02
0.02
0.02
0.02
0.02
0.02
0.02
0.02
0.02
0.02
0.02
0.02
0.02
0.02
0.02
0.02
0.02
0.02
0.02
0.02
0.02
0.02
0.02
0.02
0.02
0.02
0.02
0.02
0.02
0.02
0.02
0.02
0.02
0.02
0.02
0.02
0.02
0.02
0.02
0.02
0.02
0.02
0.02
0.02
0.02
0.02
0.02
0.02
0.02
0.02
0.02
0.02
0.02
0.02
0.02
0.02
0.02
0.02
0.02
0.02
0.02
0.02
0.02
0.02
0.02
0.02
0.02
0.02
0.02
0.02
0.02
0.02
0.02
0.02
0.02
0.02
0.02
0.02
0.02
0.02
0.0200307
0.0200363
0.0200786
0.020076
0.0200891
0.0201655
0.020079
0.020318
0.0198626
0.0206331
0.0237968
0.0207452
0.0216012
0.0200248
0.0197688
0.0198146
0.0188157
0.0200405
0.0188644
0.0198114
0.0189542
0.0181304
0.0193135
0.0193418
0.0193277
0.0192839
0.0189777
0.0189737
0.0184088
0.0204646
0.0188662
0.019274
0.018983
0.01862
0.019082
0.0185178
0.0217893
0.0198395
0.0194593
0.0186064
0.0184223
0.0191601
0.0193621
0.0194633
0.0184366
0.0183653
0.0184421
0.0180778
0.0207668
0.0199604
0.0191545
0.0190166
0.0185838
0.0184175
0.0180161
0.020349
0.0188146
0.0186768
0.0187736
0.0185259
0.0187203
0.0183578
0.0196939
0.0189925
0.0191192
0.0196537
0.0189244
0.0190741
0.0185097
0.0186066
0.0192227
0.0193874
0.0197369
0.0201431
0.0190425
0.0188788
0.0185999
0.0183605
0.0192505
0.0198386
0.0230525
0.0203638
0.0211914
0.0193382
0.0187843
0.0186946
0.0186814
0.0190154
0.0201454
0.0205535
0.0194945
0.0192192
0.0187816
0.0186794
0.0187734
0.018668
0.0194433
0.0189512
0.0186056
0.0198982
0.0194355
0.0188832
0.0188266
0.0190037
0.018874
0.0195207
0.0189812
0.0197813
0.0200049
0.0200041
0.019457
0.0194274
0.0200689
0.0204679
0.0192409
0.0191818
0.0186806
0.0187089
0.0188627
0.0195197
0.0195565
0.0196237
0.019422
0.0187988
0.0185012
0.0188945
0.0186306
0.0195563
0.0208113
0.0200504
0.0198195
0.0193912
0.0200167
0.0201947
0.0204408
0.0201691
0.0202945
0.0195649
0.0197394
0.019071
0.0192557
0.0203489
0.0197901
0.0196007
0.0198708
0.020019
0.0195952
0.0195745
0.0192059
0.0197009
0.0194614
0.0197136
0.0205033
0.0202529
0.0208034
0.019955
0.0201278
0.0195567
0.0189683
0.0189961
0.019288
0.0192209
0.0200885
0.0194645
0.0198035
0.0198719
0.0195706
0.0201767
0.0202405
0.0201131
0.0193833
0.0201028
0.0196571
0.019075
0.0189775
0.0191597
0.0187448
0.0198399
0.0195197
0.0195728
0.0203318
0.019324
0.0203185
0.0197394
0.0201901
0.0200688
0.0198623
0.0200342
0.0201185
0.0201877
0.0202791
0.020214
0.0202602
0.0201967
0.0201562
0.0200973
0.0200647
0.0200444
0.0200252
0.0200095
)
;

boundaryField
{
    inlet
    {
        type            calculated;
        value           uniform 0;
    }
    outlet
    {
        type            calculated;
        value           uniform 0;
    }
    sideWall
    {
        type            empty;
    }
}


// ************************************************************************* //
