/*--------------------------------*- C++ -*----------------------------------*\
| =========                 |                                                 |
| \\      /  F ield         | foam-extend: Open Source CFD                    |
|  \\    /   O peration     | Version:     3.2                                |
|   \\  /    A nd           | Web:         http://www.foam-extend.org         |
|    \\/     M anipulation  | For copyright notice see file Copyright         |
\*---------------------------------------------------------------------------*/
FoamFile
{
    version     2.0;
    format      ascii;
    class       areaScalarField;
    location    "160";
    object      Cs;
}
// * * * * * * * * * * * * * * * * * * * * * * * * * * * * * * * * * * * * * //

dimensions      [0 0 0 0 0 0 0];

internalField   nonuniform List<scalar> 
300
(
0.321737
0.321737
0.321737
0.321737
0.321737
0.321737
0.321737
0.321737
0.321737
0.321737
0.321737
0.321737
0.321737
0.321737
0.321737
0.321737
0.321737
0.321737
0.321737
0.321737
0.321737
0.321737
0.321737
0.321737
0.321737
0.321737
0.321737
0.321737
0.321737
0.321737
0.321737
0.321737
0.321737
0.321737
0.321737
0.321737
0.321737
0.321737
0.321737
0.321737
0.321737
0.321737
0.321737
0.321737
0.321737
0.321737
0.321737
0.321737
0.321737
0.321737
0.321737
0.321737
0.321737
0.321737
0.321737
0.321737
0.321737
0.321737
0.321737
0.321737
0.321737
0.321737
0.321737
0.321737
0.321737
0.321737
0.321737
0.321737
0.321737
0.321737
0.321737
0.321737
0.321737
0.321737
0.321737
0.321737
0.321737
0.321737
0.321737
0.321737
0.321737
0.321737
0.321737
0.321737
0.321737
0.321737
0.321737
0.321737
0.321737
0.321737
0.321737
0.321737
0.321737
0.321737
0.321737
0.321737
0.321737
0.321737
0.321737
0.321737
0.321737
0.321737
0.321737
0.321737
0.321737
0.321737
0.321737
0.321737
0.321737
0.321737
0.321737
0.138579
0.136561
0.134327
0.132906
0.321737
0.321737
0.321737
0.128438
0.12805
0.125488
0.122997
0.321737
0.321737
0.321737
0.125002
0.125915
0.125765
0.321737
0.321737
0.321737
0.122326
0.122733
0.321737
0.321737
0.321737
0.125862
0.124665
0.124691
0.321737
0.321737
0.321737
0.321737
0.125817
0.125614
0.126953
0.321737
0.321737
0.321737
0.321737
0.131091
0.131787
0.133109
0.321737
0.321737
0.321737
0.321737
0.137953
0.139734
0.141465
0.321737
0.321737
0.321737
0.321737
0.143175
0.144067
0.145522
0.146184
0.321737
0.321737
0.321737
0.321737
0.145884
0.145908
0.14453
0.143637
0.321737
0.321737
0.321737
0.321737
0.142641
0.140846
0.138913
0.136282
0.321737
0.321737
0.321737
0.321737
0.132991
0.133907
0.133346
0.133438
0.321737
0.321737
0.321737
0.321737
0.321737
0.134954
0.137484
0.138244
0.321737
0.321737
0.321737
0.321737
0.140828
0.141635
0.14173
0.14234
0.321737
0.321737
0.321737
0.321737
0.138131
0.137705
0.136631
0.136363
0.321737
0.321737
0.321737
0.321737
0.13623
0.136769
0.137445
0.321737
0.321737
0.321737
0.321737
0.139084
0.137798
0.13737
0.135753
0.321737
0.321737
0.321737
0.321737
0.136228
0.136664
0.137202
0.137567
0.321737
0.321737
0.321737
0.321737
0.134428
0.134074
0.134253
0.134701
0.321737
0.321737
0.321737
0.321737
0.136394
0.135386
0.134585
0.133226
0.133605
0.133721
0.321737
0.321737
0.321737
0.321737
0.135351
0.136482
0.13695
0.137448
0.321737
0.321737
0.321737
0.321737
0.13582
0.136262
0.137086
0.137854
0.321737
0.321737
0.321737
0.138375
0.138441
0.138516
0.139486
0.139827
0.140997
0.142092
0.143029
0.143616
0.144229
0.1433
0.142097
0.143454
0.145899
0.14927
0.15411
0.160908
0.171275
0.186927
0.220275
0.281936
0.321737
0.321737
0.321737
)
;

boundaryField
{
    inlet
    {
        type            calculated;
        value           uniform 0;
    }
    outlet
    {
        type            calculated;
        value           uniform 0;
    }
    sideWall
    {
        type            empty;
    }
}


// ************************************************************************* //
