/*--------------------------------*- C++ -*----------------------------------*\
| =========                 |                                                 |
| \\      /  F ield         | foam-extend: Open Source CFD                    |
|  \\    /   O peration     | Version:     3.2                                |
|   \\  /    A nd           | Web:         http://www.foam-extend.org         |
|    \\/     M anipulation  | For copyright notice see file Copyright         |
\*---------------------------------------------------------------------------*/
FoamFile
{
    version     2.0;
    format      ascii;
    class       areaScalarField;
    location    "160";
    object      Dbed;
}
// * * * * * * * * * * * * * * * * * * * * * * * * * * * * * * * * * * * * * //

dimensions      [0 0 0 0 0 0 0];

internalField   nonuniform List<scalar> 
300
(
0.002175
0.002175
0.002175
0.002175
0.002175
0.002175
0.002175
0.002175
0.002175
0.002175
0.002175
0.002175
0.002175
0.002175
0.002175
0.002175
0.002175
0.002175
0.002175
0.002175
0.002175
0.002175
0.002175
0.002175
0.002175
0.002175
0.002175
0.002175
0.002175
0.002175
0.002175
0.002175
0.002175
0.002175
0.002175
0.002175
0.002175
0.002175
0.002175
0.002175
0.002175
0.002175
0.002175
0.002175
0.002175
0.002175
0.002175
0.002175
0.002175
0.002175
0.002175
0.002175
0.002175
0.002175
0.002175
0.002175
0.002175
0.002175
0.002175
0.002175
0.002175
0.002175
0.002175
0.002175
0.002175
0.002175
0.002175
0.002175
0.002175
0.002175
0.002175
0.002175
0.002175
0.002175
0.002175
0.002175
0.002175
0.002175
0.002175
0.002175
0.002175
0.002175
0.002175
0.002175
0.002175
0.002175
0.002175
0.002175
0.002175
0.002175
0.002175
0.002175
0.002175
0.002175
0.002175
0.002175
0.002175
0.002175
0.002175
0.002175
0.00244818
0.00256008
0.0027369
0.00285739
0.003
0.00311169
0.00322698
0.00332079
0.00340304
0.00350589
0.00354622
0.00346742
0.00359123
0.00349325
0.00345463
0.00359905
0.00345158
0.00357835
0.00345471
0.00353171
0.00351046
0.00334284
0.00361992
0.0033724
0.00356579
0.00341064
0.0035309
0.00352825
0.00335709
0.00361355
0.00329555
0.00354665
0.00342302
0.00348079
0.0034974
0.00336206
0.00361408
0.00330381
0.00356517
0.00339911
0.00339837
0.00354252
0.00323707
0.00359881
0.00333729
0.00351376
0.00345956
0.00337385
0.00359846
0.00335469
0.0036242
0.00344549
0.00355405
0.00356893
0.0034409
0.00369241
0.00345852
0.00368691
0.00358122
0.00361265
0.0036377
0.00356294
0.00370061
0.00355437
0.00369947
0.00359431
0.00367779
0.00364169
0.00363116
0.00368534
0.00357289
0.00371334
0.00361746
0.00371509
0.00360498
0.00366193
0.00360877
0.00362546
0.00364581
0.00359203
0.00366222
0.0035463
0.00367025
0.00350059
0.00359052
0.00351104
0.00351816
0.0035787
0.00341041
0.00368147
0.00345412
0.00366063
0.00351806
0.00360548
0.00359776
0.00351255
0.00365188
0.00345487
0.00371101
0.00354869
0.00369208
0.00358574
0.00367366
0.00362763
0.00364431
0.00364537
0.00359998
0.00367143
0.00358201
0.00370737
0.00356694
0.00371409
0.00356178
0.00368297
0.00358939
0.00361473
0.00362163
0.00354515
0.0036688
0.00348844
0.00371896
0.00358692
0.00370658
0.00357751
0.00369087
0.00361881
0.00362148
0.00364512
0.00355028
0.00367913
0.00353602
0.00369381
0.00359342
0.00367883
0.00360752
0.00368929
0.00364039
0.00366379
0.00364975
0.00364076
0.0036691
0.00361067
0.00370213
0.00361167
0.00370625
0.00363987
0.00370938
0.00364884
0.00371073
0.00365694
0.00368602
0.003674
0.00362007
0.0036921
0.00359977
0.00373539
0.00363303
0.00372493
0.0036511
0.00368496
0.00368227
0.00366218
0.00369935
0.00363688
0.00371302
0.00362977
0.00374036
0.00365432
0.00374289
0.00364842
0.00373905
0.00366533
0.00370445
0.00368289
0.00365752
0.00370275
0.00358664
0.00372859
0.00354787
0.0037637
0.00357951
0.00375903
0.00365353
0.00372646
0.00366917
0.00367741
0.00351296
0.0034162
0.00346107
0.00332778
0.00330948
0.00317456
0.00307538
0.00293376
0.00273506
0.00258682
0.002175
0.002175
0.002175
0.002175
)
;

boundaryField
{
    inlet
    {
        type            calculated;
        value           uniform 0;
    }
    outlet
    {
        type            calculated;
        value           uniform 0;
    }
    sideWall
    {
        type            empty;
    }
}


// ************************************************************************* //
