/*--------------------------------*- C++ -*----------------------------------*\
| =========                 |                                                 |
| \\      /  F ield         | foam-extend: Open Source CFD                    |
|  \\    /   O peration     | Version:     3.2                                |
|   \\  /    A nd           | Web:         http://www.foam-extend.org         |
|    \\/     M anipulation  | For copyright notice see file Copyright         |
\*---------------------------------------------------------------------------*/
FoamFile
{
    version     2.0;
    format      ascii;
    class       areaScalarField;
    location    "160";
    object      dd;
}
// * * * * * * * * * * * * * * * * * * * * * * * * * * * * * * * * * * * * * //

dimensions      [0 1 0 0 0 0 0];

internalField   nonuniform List<scalar> 
300
(
0.1
0.1
0.1
0.1
0.1
0.1
0.1
0.1
0.1
0.1
0.1
0.1
0.1
0.1
0.1
0.1
0.1
0.1
0.1
0.1
0.1
0.1
0.1
0.1
0.1
0.1
0.1
0.1
0.1
0.1
0.1
0.1
0.1
0.1
0.1
0.1
0.1
0.1
0.1
0.1
0.1
0.1
0.1
0.1
0.1
0.1
0.1
0.1
0.1
0.1
0.1
0.1
0.1
0.1
0.1
0.1
0.1
0.1
0.1
0.1
0.1
0.1
0.1
0.1
0.1
0.1
0.1
0.1
0.1
0.1
0.1
0.1
0.1
0.1
0.1
0.1
0.1
0.1
0.1
0.1
0.1
0.1
0.1
0.1
0.1
0.1
0.1
0.1
0.1
0.1
0.1
0.1
0.1
0.1
0.1
0.1
0.1
0.1
0.1
0.0967
0.0890207
0.0819828
0.0768093
0.0723422
0.0686412
0.0654841
0.0628478
0.060667
0.058753
0.0579969
0.0577752
0.0559439
0.0548001
0.0534941
0.0526403
0.0525733
0.0508575
0.0505668
0.0498334
0.0495806
0.0478702
0.0461401
0.0478924
0.0475793
0.0476688
0.0475386
0.0481601
0.0480587
0.0465721
0.0466847
0.045387
0.0456614
0.0459523
0.0468387
0.0472091
0.0467587
0.0481248
0.0473063
0.0473243
0.0466689
0.0472359
0.0482999
0.0469728
0.048094
0.0479562
0.0488565
0.049547
0.0499317
0.0515823
0.0507639
0.0515232
0.0519553
0.0527633
0.0531609
0.0531821
0.0545894
0.0542445
0.0555928
0.0565837
0.0575226
0.058223
0.0580913
0.0586056
0.0578575
0.0584279
0.0588918
0.059636
0.05997
0.0602198
0.0602063
0.0591185
0.0597602
0.0598193
0.0598314
0.0591304
0.0586693
0.058388
0.0584551
0.0587092
0.0580032
0.0581478
0.0571893
0.05613
0.0546393
0.0540815
0.0536773
0.0535768
0.053588
0.0526921
0.0532437
0.052907
0.0529624
0.0529809
0.0535538
0.0537065
0.0538803
0.0541093
0.053865
0.0553273
0.0557561
0.0559244
0.0557468
0.0562861
0.0566846
0.0571797
0.0576138
0.0576644
0.0579888
0.057359
0.0569727
0.0560395
0.0558536
0.0556927
0.0554524
0.0548408
0.0546861
0.0545781
0.0546577
0.0546263
0.0537774
0.0546096
0.0549196
0.0553052
0.0552242
0.0555734
0.0557366
0.0559439
0.0562248
0.0555054
0.0552629
0.0543328
0.0537199
0.0535944
0.0538809
0.0540447
0.0546084
0.0548597
0.0551674
0.0553745
0.0556209
0.0557155
0.0551317
0.0546757
0.0535544
0.0533434
0.0534502
0.0537156
0.0540085
0.0545788
0.0547936
0.0549133
0.0547039
0.0541186
0.053647
0.0528341
0.053063
0.0531326
0.0531326
0.0528312
0.0530074
0.0533754
0.0540983
0.0547546
0.0550231
0.0553069
0.0550628
0.0549525
0.0545789
0.0546166
0.0543719
0.054628
0.0551009
0.0555366
0.0556469
0.0559154
0.0560218
0.0558298
0.0558666
0.0559085
0.0564469
0.0566347
0.0572709
0.0578572
0.0583516
0.0586581
0.0589757
0.0584934
0.0578598
0.0585737
0.0598264
0.0614865
0.063743
0.0666831
0.0707174
0.0759603
0.0846463
0.0952943
0.1
0.1
0.1
)
;

boundaryField
{
    inlet
    {
        type            calculated;
        value           uniform 0;
    }
    outlet
    {
        type            calculated;
        value           uniform 0;
    }
    sideWall
    {
        type            empty;
    }
}


// ************************************************************************* //
