/*--------------------------------*- C++ -*----------------------------------*\
| =========                 |                                                 |
| \\      /  F ield         | foam-extend: Open Source CFD                    |
|  \\    /   O peration     | Version:     3.2                                |
|   \\  /    A nd           | Web:         http://www.foam-extend.org         |
|    \\/     M anipulation  | For copyright notice see file Copyright         |
\*---------------------------------------------------------------------------*/
FoamFile
{
    version     2.0;
    format      ascii;
    class       areaScalarField;
    location    "160";
    object      deltaHb;
}
// * * * * * * * * * * * * * * * * * * * * * * * * * * * * * * * * * * * * * //

dimensions      [0 1 -1 0 0 0 0];

internalField   nonuniform List<scalar> 
300
(
0
0
0
0
0
0
0
0
0
0
0
0
0
0
0
0
0
0
0
0
0
0
0
0
0
0
0
0
0
0
0
0
0
0
0
0
0
0
0
0
0
0
0
0
0
0
0
0
0
0
0
0
0
0
0
0
0
0
0
0
0
0
0
0
0
0
0
0
0
0
0
0
0
0
0
0
0
0
0
0
0
0
0
0
0
0
0
0
0
0
0
0
0
0
0
0
0
0
0
0
0
0
0
0
0
0
0
0
0
0
3.26318e-05
5.1991e-05
-4.42269e-06
7.02348e-06
-4.94688e-05
-1.85727e-05
-1.65614e-06
1.84136e-05
4.86502e-05
-4.89452e-06
7.70438e-06
-5.5332e-05
-1.72437e-05
1.43476e-05
1.69287e-05
4.49456e-05
-9.80443e-06
-1.45334e-05
-3.45775e-05
6.01831e-06
4.24843e-05
1.06981e-05
-3.81923e-05
-4.68425e-05
2.13169e-05
3.129e-05
1.90502e-05
9.76195e-06
-2.30102e-05
-2.1643e-05
-2.98623e-05
1.78099e-05
4.30056e-05
9.15438e-06
5.97434e-06
-3.76537e-05
-1.9232e-05
-1.72521e-05
7.99973e-06
4.7295e-05
1.2364e-05
3.64811e-06
-4.18704e-05
-1.86764e-05
-1.20829e-05
5.97158e-06
4.11202e-05
8.83827e-06
4.27944e-06
-4.88217e-05
-2.43642e-05
-1.48751e-06
1.03862e-05
4.20577e-05
1.70828e-05
-1.01709e-06
-7.92059e-06
-3.13685e-05
-4.61364e-05
2.10807e-05
-1.48641e-06
2.08448e-05
4.12505e-05
-1.24345e-06
1.17555e-05
-3.47007e-05
-3.29319e-05
-1.61446e-05
7.26767e-06
3.76649e-05
3.09456e-05
7.54834e-06
3.01892e-06
-2.65657e-05
-3.3752e-05
5.33146e-06
-1.30091e-05
3.31516e-05
3.542e-05
-1.32311e-09
2.83269e-06
-2.94843e-05
-4.32284e-05
-1.11016e-05
1.32396e-05
-7.06113e-06
3.83223e-05
3.06429e-05
-3.94348e-06
-4.06637e-05
-2.65302e-05
2.59432e-06
-1.35279e-05
4.54595e-05
2.88955e-05
2.91804e-06
-3.1102e-06
-3.37647e-05
-3.68794e-05
1.07684e-05
2.74796e-06
2.39103e-05
3.98554e-05
2.19938e-06
5.65139e-06
-3.75417e-05
-3.42395e-05
-1.04209e-05
1.57788e-05
3.82212e-05
2.31052e-05
-2.86997e-06
-3.34305e-05
-3.82879e-05
-1.08674e-05
9.00926e-06
2.96776e-05
4.20059e-05
5.10963e-06
1.91201e-07
-2.87711e-05
-3.40532e-05
-1.11019e-05
-1.21447e-06
3.83339e-05
3.04553e-05
1.92943e-06
-2.73745e-06
-4.01492e-05
-4.74718e-05
9.06243e-06
4.87665e-06
4.19444e-05
4.55025e-05
-3.74497e-06
-2.61874e-06
-3.8555e-05
-5.10472e-05
-7.47267e-06
5.01396e-06
3.76032e-05
5.08644e-05
3.00194e-06
4.85749e-06
-6.36944e-07
-4.33849e-06
-4.49328e-05
-3.21903e-05
6.05817e-06
-6.11223e-06
4.104e-05
2.91685e-05
7.39212e-07
-1.17172e-06
-3.75808e-05
-3.84046e-05
5.85935e-06
-3.69771e-06
3.68489e-05
4.74711e-05
-4.70928e-06
-4.17435e-06
-3.79436e-05
-3.97763e-05
-5.42002e-06
4.71437e-05
4.03838e-05
2.49394e-06
-1.5706e-06
-1.52103e-06
-8.96106e-07
-4.14776e-06
-1.54754e-06
7.03715e-07
-8.13458e-07
7.33918e-07
0
0
0
0
0
0
0
0
0
0
0
0
0
0
)
;

boundaryField
{
    inlet
    {
        type            zeroGradient;
    }
    outlet
    {
        type            zeroGradient;
    }
    sideWall
    {
        type            empty;
    }
}


// ************************************************************************* //
