/*--------------------------------*- C++ -*----------------------------------*\
| =========                 |                                                 |
| \\      /  F ield         | foam-extend: Open Source CFD                    |
|  \\    /   O peration     | Version:     3.2                                |
|   \\  /    A nd           | Web:         http://www.foam-extend.org         |
|    \\/     M anipulation  | For copyright notice see file Copyright         |
\*---------------------------------------------------------------------------*/
FoamFile
{
    version     2.0;
    format      ascii;
    class       areaScalarField;
    location    "160";
    object      deltaHs;
}
// * * * * * * * * * * * * * * * * * * * * * * * * * * * * * * * * * * * * * //

dimensions      [0 1 -1 0 0 0 0];

internalField   nonuniform List<scalar> 
300
(
-0.000749118
-0.000530453
-0.000303777
-0.000224429
-0.000196612
-0.00018251
-0.000172512
-0.000163914
-0.000156126
-0.000149165
-0.00014304
-0.000137634
-0.000132801
-0.000128536
-0.000124737
-0.000121315
-0.000118212
-0.00011537
-0.000112788
-0.000110449
-0.000108292
-0.000106277
-0.000104396
-0.000102639
-0.000101001
-9.94574e-05
-9.80064e-05
-9.66319e-05
-9.53366e-05
-9.41133e-05
-9.29508e-05
-9.18469e-05
-9.07923e-05
-8.97891e-05
-8.88313e-05
-8.7919e-05
-8.70419e-05
-8.62033e-05
-8.53961e-05
-8.46217e-05
-8.3879e-05
-8.3163e-05
-8.24738e-05
-8.18084e-05
-8.11654e-05
-8.05464e-05
-7.9947e-05
-7.93701e-05
-7.88072e-05
-7.82669e-05
-7.77375e-05
-7.72301e-05
-7.67332e-05
-7.6256e-05
-7.57877e-05
-7.53373e-05
-7.48945e-05
-7.44698e-05
-7.40452e-05
-7.36425e-05
-7.32399e-05
-7.28605e-05
-7.24795e-05
-7.21224e-05
-7.17618e-05
-7.14268e-05
-7.10857e-05
-7.0772e-05
-7.04502e-05
-7.01579e-05
-6.98569e-05
-6.95875e-05
-6.93083e-05
-6.90644e-05
-6.8809e-05
-6.85932e-05
-6.83667e-05
-6.81834e-05
-6.79928e-05
-6.78503e-05
-6.77052e-05
-6.76132e-05
-6.75321e-05
-6.7501e-05
-6.7504e-05
-6.75609e-05
-6.76666e-05
-6.78592e-05
-6.81441e-05
-6.85138e-05
-6.90611e-05
-6.9685e-05
-7.07385e-05
-7.18062e-05
-7.38311e-05
-7.56166e-05
-8.04737e-05
-8.11986e-05
-0.000113595
-3.5584e-05
-1.14182e-06
-1.6287e-06
-2.07463e-06
-2.23848e-06
-2.4495e-06
-2.75341e-06
-2.5584e-06
-3.25029e-06
-2.07547e-06
-4.58442e-06
-6.1908e-06
3.76434e-06
2.81537e-06
3.55416e-06
3.35553e-06
-3.8908e-06
-5.90088e-07
-4.37847e-06
3.33371e-06
3.15318e-06
3.78779e-06
3.83765e-06
-4.24243e-06
-7.69366e-07
-2.17118e-06
3.35734e-06
3.60598e-06
3.34745e-06
-2.28258e-06
-4.30102e-06
-2.60145e-07
3.53915e-06
3.42994e-06
-3.10061e-07
-2.81827e-06
-7.46204e-07
2.69105e-06
3.98968e-06
3.53508e-06
-2.91348e-07
9.15324e-07
-3.32479e-06
-3.22219e-06
3.33535e-06
3.6195e-06
3.75611e-06
-2.19166e-06
6.65467e-07
-6.72309e-06
-7.84161e-07
3.47528e-06
3.24743e-06
3.59884e-06
-1.72667e-06
1.46104e-07
-5.5274e-06
-1.53662e-06
3.48852e-06
2.66461e-06
3.44446e-06
-2.79277e-06
-1.14007e-06
-4.09424e-06
-1.66402e-06
3.09324e-06
2.76778e-06
3.24809e-06
2.90182e-06
-8.33034e-07
-1.94256e-06
-3.16442e-06
-2.87965e-06
2.81655e-06
2.68417e-06
3.26533e-06
3.12442e-06
-1.72922e-06
-7.0738e-07
-3.29573e-06
-3.87406e-06
2.23374e-06
3.42211e-06
2.87712e-06
3.72294e-06
-1.44431e-06
-1.4853e-06
-9.35185e-07
-2.47523e-06
2.92995e-06
2.908e-06
3.32144e-06
3.28795e-06
-2.15354e-06
-1.24117e-06
-1.69979e-06
-1.1269e-06
-1.69732e-06
3.21741e-06
2.72939e-06
2.76918e-06
-3.26752e-06
-1.7154e-06
-1.07664e-06
-2.49639e-06
3.23881e-06
2.71412e-06
3.13469e-06
2.69739e-06
-4.65861e-06
-3.62896e-06
-1.59201e-06
-2.38275e-06
2.91359e-06
2.90755e-06
3.40683e-06
3.27907e-06
-1.6567e-06
-1.45614e-06
-1.88927e-06
-3.2172e-06
3.08349e-06
2.78218e-06
3.15056e-06
-1.93109e-06
-8.06827e-07
-2.23958e-06
-9.02355e-07
2.77457e-06
2.66327e-06
3.0783e-06
3.1291e-06
-3.18824e-06
-4.37686e-06
-3.39919e-06
-3.90172e-06
3.20093e-06
2.98215e-06
3.26249e-06
3.05818e-06
-1.88063e-06
-3.0047e-06
-4.48111e-06
-2.48349e-06
3.23764e-06
3.02934e-06
3.08739e-06
3.25212e-06
-3.73531e-06
-1.88055e-06
-3.18416e-06
-2.33927e-06
3.08187e-06
2.88623e-06
3.52154e-06
3.04743e-06
3.26754e-06
3.12529e-06
-3.34394e-06
-1.73352e-06
-1.73058e-06
-2.76906e-06
3.31273e-06
2.80831e-06
3.19137e-06
2.98811e-06
-4.27755e-06
-2.89265e-06
-3.62432e-06
-3.6306e-06
3.17204e-06
3.29317e-06
2.95719e-06
3.21487e-06
-2.31051e-06
-1.9388e-06
-2.19865e-06
2.51293e-06
3.30647e-06
2.99385e-06
2.94563e-06
2.78875e-06
3.26495e-06
2.72717e-06
3.07226e-06
2.80433e-06
2.90359e-06
2.99059e-06
2.90967e-06
2.87633e-06
2.79314e-06
2.68656e-06
2.63273e-06
2.41246e-06
2.26111e-06
1.94581e-06
1.36113e-06
-1.70393e-05
-0.000122114
-4.35826e-05
-3.43605e-05
)
;

boundaryField
{
    inlet
    {
        type            calculated;
        value           uniform -0.000749116;
    }
    outlet
    {
        type            calculated;
        value           uniform -4.89348e-05;
    }
    sideWall
    {
        type            empty;
    }
}


// ************************************************************************* //
