/*--------------------------------*- C++ -*----------------------------------*\
| =========                 |                                                 |
| \\      /  F ield         | foam-extend: Open Source CFD                    |
|  \\    /   O peration     | Version:     3.2                                |
|   \\  /    A nd           | Web:         http://www.foam-extend.org         |
|    \\/     M anipulation  | For copyright notice see file Copyright         |
\*---------------------------------------------------------------------------*/
FoamFile
{
    version     2.0;
    format      ascii;
    class       areaScalarField;
    location    "160";
    object      deltaH;
}
// * * * * * * * * * * * * * * * * * * * * * * * * * * * * * * * * * * * * * //

dimensions      [0 1 -1 0 0 0 0];

internalField   nonuniform List<scalar> 
300
(
0
0
0
0
0
0
0
0
0
0
0
0
0
0
0
0
0
0
0
0
0
0
0
0
0
0
0
0
0
0
0
0
0
0
0
0
0
0
0
0
0
0
0
0
0
0
0
0
0
0
0
0
0
0
0
0
0
0
0
0
0
0
0
0
0
0
0
0
0
0
0
0
0
0
0
0
0
0
0
0
0
0
0
0
0
0
0
0
0
0
0
0
0
0
0
0
0
0
0
0
-1.14182e-06
-1.6287e-06
-2.07463e-06
-2.23848e-06
-2.4495e-06
-2.75341e-06
-2.5584e-06
-3.25029e-06
-2.07547e-06
-4.58442e-06
2.6441e-05
5.57554e-05
-1.60732e-06
1.05776e-05
-4.61133e-05
-2.24635e-05
-2.24623e-06
1.40352e-05
5.19839e-05
-1.74135e-06
1.14922e-05
-5.14943e-05
-2.14861e-05
1.35782e-05
1.47575e-05
4.83029e-05
-6.19845e-06
-1.1186e-05
-3.68601e-05
1.7173e-06
4.22241e-05
1.42373e-05
-3.47624e-05
-4.71525e-05
1.84986e-05
3.05438e-05
2.17412e-05
1.37516e-05
-1.94751e-05
-2.19344e-05
-2.8947e-05
1.44851e-05
3.97834e-05
1.24897e-05
9.59384e-06
-3.38976e-05
-2.14237e-05
-1.65866e-05
1.27663e-06
4.65109e-05
1.58392e-05
6.89554e-06
-3.82716e-05
-2.04031e-05
-1.19368e-05
4.4418e-07
3.95836e-05
1.23268e-05
6.94405e-06
-4.53773e-05
-2.71569e-05
-2.62759e-06
6.29197e-06
4.03937e-05
2.0176e-05
1.75069e-06
-4.6725e-06
-2.84667e-05
-4.69694e-05
1.91381e-05
-4.65083e-06
1.79651e-05
4.40671e-05
1.44072e-06
1.50208e-05
-3.15763e-05
-3.46611e-05
-1.6852e-05
3.97194e-06
3.37908e-05
3.31794e-05
1.09704e-05
5.89604e-06
-2.28427e-05
-3.51963e-05
3.84616e-06
-1.39443e-05
3.06763e-05
3.83499e-05
2.90668e-06
6.15412e-06
-2.61963e-05
-4.53819e-05
-1.23427e-05
1.15398e-05
-8.18803e-06
3.6625e-05
3.38603e-05
-1.21409e-06
-3.78946e-05
-2.97977e-05
8.78925e-07
-1.46046e-05
4.29631e-05
3.21343e-05
5.63215e-06
2.44845e-08
-3.10673e-05
-4.1538e-05
7.13941e-06
1.15595e-06
2.15276e-05
4.2769e-05
5.10693e-06
9.05822e-06
-3.42627e-05
-3.58962e-05
-1.18771e-05
1.38895e-05
3.5004e-05
2.61887e-05
-8.77875e-08
-3.028e-05
-4.0219e-05
-1.16742e-05
6.76968e-06
2.87752e-05
4.47804e-05
7.7729e-06
3.2695e-06
-2.5642e-05
-3.72415e-05
-1.54788e-05
-4.61366e-06
3.44322e-05
3.36562e-05
4.91159e-06
5.25041e-07
-3.70911e-05
-4.93524e-05
6.05774e-06
3.95545e-07
3.9461e-05
4.87402e-05
-7.15623e-07
4.68649e-07
-3.53029e-05
-5.47826e-05
-9.35322e-06
1.8298e-06
3.52639e-05
5.39463e-05
5.88817e-06
8.37903e-06
2.41048e-06
-1.07095e-06
-4.18075e-05
-3.55342e-05
4.32466e-06
-7.84281e-06
3.8271e-05
3.24813e-05
3.54752e-06
2.01965e-06
-3.45927e-05
-4.26822e-05
2.9667e-06
-7.32204e-06
3.32183e-05
5.06431e-05
-1.41611e-06
-1.21716e-06
-3.47288e-05
-4.20868e-05
-7.35881e-06
4.49451e-05
4.28967e-05
5.80041e-06
1.42325e-06
1.42461e-06
1.89265e-06
-8.82808e-07
1.17964e-06
3.77598e-06
1.99087e-06
3.63751e-06
2.99059e-06
2.90967e-06
2.87633e-06
2.79314e-06
2.68656e-06
2.63273e-06
2.41246e-06
2.26111e-06
1.94581e-06
1.36113e-06
0
0
0
0
)
;

boundaryField
{
    inlet
    {
        type            zeroGradient;
    }
    outlet
    {
        type            zeroGradient;
    }
    sideWall
    {
        type            empty;
    }
}


// ************************************************************************* //
