/*--------------------------------*- C++ -*----------------------------------*\
| =========                 |                                                 |
| \\      /  F ield         | foam-extend: Open Source CFD                    |
|  \\    /   O peration     | Version:     3.2                                |
|   \\  /    A nd           | Web:         http://www.foam-extend.org         |
|    \\/     M anipulation  | For copyright notice see file Copyright         |
\*---------------------------------------------------------------------------*/
FoamFile
{
    version     2.0;
    format      ascii;
    class       volScalarField;
    location    "160";
    object      DiSSt;
}
// * * * * * * * * * * * * * * * * * * * * * * * * * * * * * * * * * * * * * //

dimensions      [0 2 -1 0 0 0 0];

internalField   nonuniform List<scalar> 
96000
(
0.000134293
0.000107227
8.92923e-05
7.99945e-05
7.69941e-05
7.58668e-05
7.5095e-05
7.43396e-05
7.35384e-05
7.27134e-05
7.19296e-05
7.11954e-05
7.05099e-05
6.98752e-05
6.929e-05
6.87497e-05
6.82455e-05
6.77746e-05
6.73457e-05
6.70833e-05
6.68369e-05
6.65953e-05
6.63568e-05
6.61257e-05
6.5904e-05
6.569e-05
6.54825e-05
6.52797e-05
6.50845e-05
6.48958e-05
6.47145e-05
6.45373e-05
6.43657e-05
6.41983e-05
6.40368e-05
6.38806e-05
6.37282e-05
6.35806e-05
6.34358e-05
6.32953e-05
6.31594e-05
6.30263e-05
6.28978e-05
6.27706e-05
6.26485e-05
6.25272e-05
6.24118e-05
6.22964e-05
6.21862e-05
6.2076e-05
6.19707e-05
6.18652e-05
6.17653e-05
6.16643e-05
6.15692e-05
6.14719e-05
6.13811e-05
6.12882e-05
6.11945e-05
6.11021e-05
6.10121e-05
6.09239e-05
6.08382e-05
6.07541e-05
6.06726e-05
6.05929e-05
6.05155e-05
6.04401e-05
6.03669e-05
6.02961e-05
6.02278e-05
6.01621e-05
6.00992e-05
6.00395e-05
5.99824e-05
5.99299e-05
5.98802e-05
5.98364e-05
5.97964e-05
5.97641e-05
5.97361e-05
5.97188e-05
5.971e-05
5.97069e-05
5.97154e-05
5.97459e-05
5.9783e-05
5.9855e-05
5.99276e-05
6.00691e-05
6.01766e-05
6.03946e-05
6.0632e-05
6.09856e-05
6.14774e-05
6.19968e-05
6.34253e-05
6.21562e-05
7.29369e-05
6.13117e-05
3.9643e-05
4.00016e-05
4.18392e-05
4.20879e-05
4.34094e-05
4.42781e-05
4.47975e-05
4.64658e-05
4.55721e-05
4.84069e-05
5.41879e-05
4.51972e-05
5.13199e-05
4.65746e-05
4.62302e-05
5.29065e-05
4.26205e-05
5.42936e-05
4.59479e-05
5.39296e-05
4.59724e-05
3.96956e-05
5.51824e-05
4.20132e-05
5.26239e-05
4.56651e-05
5.21084e-05
5.0497e-05
4.28001e-05
5.11818e-05
3.91452e-05
5.12233e-05
4.54998e-05
5.08317e-05
5.08157e-05
4.35704e-05
5.58347e-05
4.00791e-05
5.26492e-05
4.36787e-05
4.74399e-05
5.22393e-05
3.89953e-05
5.36669e-05
4.10354e-05
5.03777e-05
4.79655e-05
4.38227e-05
5.33306e-05
4.01919e-05
5.28467e-05
4.58152e-05
5.08177e-05
4.84511e-05
4.40173e-05
5.30816e-05
4.17304e-05
5.47538e-05
4.76689e-05
5.22485e-05
5.1862e-05
4.61147e-05
5.323e-05
4.42852e-05
5.40202e-05
4.74059e-05
5.42199e-05
4.87197e-05
5.02785e-05
5.30359e-05
4.51574e-05
5.44499e-05
4.66007e-05
5.48275e-05
4.73749e-05
5.0142e-05
4.72015e-05
4.95833e-05
5.29552e-05
4.61355e-05
5.46719e-05
4.55246e-05
5.21658e-05
4.38974e-05
4.98313e-05
4.55775e-05
4.8596e-05
5.07066e-05
4.39512e-05
5.26633e-05
4.46158e-05
5.18484e-05
4.61744e-05
5.28384e-05
4.68644e-05
4.89501e-05
5.04428e-05
4.42415e-05
5.46167e-05
4.67943e-05
5.35064e-05
4.65162e-05
5.34746e-05
4.76863e-05
5.22245e-05
5.04609e-05
4.78177e-05
5.29441e-05
4.74491e-05
5.27884e-05
4.53261e-05
5.2708e-05
4.70588e-05
5.25191e-05
4.68596e-05
5.11835e-05
4.70885e-05
4.93649e-05
5.16697e-05
4.43413e-05
5.36229e-05
4.63128e-05
5.44446e-05
4.76805e-05
5.32414e-05
4.80488e-05
5.01355e-05
5.24814e-05
4.62769e-05
5.05483e-05
4.61227e-05
4.84678e-05
4.66141e-05
5.24164e-05
4.65368e-05
5.41234e-05
4.79889e-05
5.23387e-05
4.87603e-05
5.10964e-05
5.21021e-05
4.70738e-05
5.11923e-05
4.51472e-05
5.13814e-05
4.74297e-05
5.23703e-05
4.83674e-05
5.43191e-05
4.92696e-05
5.27044e-05
4.96542e-05
4.7247e-05
4.91682e-05
4.5008e-05
5.27808e-05
4.75077e-05
5.2979e-05
4.67718e-05
5.21046e-05
4.80875e-05
5.29331e-05
5.08039e-05
4.86034e-05
5.12407e-05
4.80328e-05
5.10122e-05
4.6358e-05
5.33279e-05
4.63473e-05
5.1757e-05
4.86848e-05
5.28032e-05
4.83239e-05
5.22684e-05
4.96184e-05
4.74961e-05
4.86474e-05
4.66604e-05
5.16255e-05
4.71098e-05
5.27326e-05
4.82391e-05
5.19778e-05
4.78851e-05
5.19475e-05
4.69128e-05
4.41998e-05
4.76892e-05
4.79909e-05
4.84666e-05
4.95812e-05
4.93351e-05
5.26859e-05
5.11681e-05
6.11366e-05
8.12651e-05
7.10466e-05
5.43123e-05
4.93647e-05
9.29619e-05
0.00013719
0.000149935
0.000162679
0.000172816
0.000179851
0.000184419
0.000186981
0.000188203
0.000188553
0.000188556
0.000188287
0.000187854
0.000187314
0.00018672
0.000186108
0.000185462
0.00018482
0.000184173
0.000183567
0.000182961
0.00018236
0.000181768
0.000181194
0.000180636
0.000180092
0.00017956
0.000179042
0.000178543
0.000178056
0.000177585
0.000177123
0.000176675
0.000176239
0.000175817
0.000175405
0.000175004
0.000174613
0.000174231
0.00017386
0.000173499
0.000173146
0.000172802
0.000172464
0.000172138
0.000171816
0.000171506
0.000171198
0.000170902
0.000170606
0.000170323
0.00017004
0.000169771
0.000169499
0.000169241
0.00016898
0.000168733
0.00016848
0.000168221
0.000167971
0.000167723
0.000167485
0.000167246
0.000167019
0.00016679
0.000166573
0.000166354
0.000166147
0.000165937
0.000165741
0.000165541
0.000165355
0.000165166
0.000164992
0.000164813
0.000164652
0.000164487
0.000164341
0.000164192
0.000164064
0.000163933
0.000163828
0.000163722
0.000163636
0.00016356
0.000163502
0.000163464
0.000163453
0.000163445
0.000163505
0.000163473
0.000163633
0.000163677
0.000163993
0.000164167
0.000164735
0.000165305
0.000165384
0.000167583
0.000135647
0.000125618
0.000155875
0.000154251
0.000152726
0.000149627
0.000146892
0.0001455
0.000142674
0.000143365
0.000147088
0.00013341
0.000130079
0.000137792
0.000129309
0.000138813
0.000127253
0.000125521
0.000133213
0.000131454
0.000133487
0.000112627
0.000125353
0.000128093
0.000118078
0.000131023
0.000127953
0.000136147
0.000116946
0.000124191
0.00012262
0.000120136
0.000132042
0.000127719
0.000135337
0.000118348
0.000127144
0.000121668
0.000112455
0.000127602
0.000120906
0.000135443
0.000114343
0.000116405
0.000125039
0.00011952
0.000133823
0.000117594
0.000130116
0.000120275
0.000117365
0.000130086
0.000126546
0.000134007
0.000120061
0.000129903
0.000124725
0.000123644
0.00013504
0.000128528
0.000137106
0.000125256
0.000131876
0.000128142
0.00012641
0.00013538
0.000133837
0.000138254
0.00013096
0.00013901
0.000126309
0.000130324
0.000135959
0.000131286
0.000135526
0.000130267
0.000137146
0.000131967
0.000140239
0.00013029
0.000134974
0.000133273
0.00012587
0.000131423
0.000129646
0.000135796
0.000128582
0.000136937
0.000124192
0.000130391
0.000130813
0.000124928
0.0001326
0.000131686
0.000135254
0.00012688
0.000135279
0.000123734
0.000130231
0.00013363
0.000126683
0.000132248
0.000130649
0.000136695
0.000131929
0.00013829
0.000129612
0.000134459
0.000132146
0.000133845
0.000132459
0.000130018
0.000136912
0.000135605
0.00013464
0.000131392
0.000136183
0.000130202
0.000137514
0.000125596
0.000129867
0.000134082
0.000129226
0.000133633
0.000130052
0.000136535
0.000129909
0.000137938
0.000127958
0.000131278
0.00013237
0.00013176
0.000135963
0.000138612
0.000136436
0.000136339
0.000137077
0.000134119
0.000137476
0.00013365
0.000138898
0.000131623
0.00013528
0.000131706
0.00013148
0.000136551
0.000136256
0.000136536
0.00013684
0.000138105
0.000134982
0.000138003
0.000131164
0.000134596
0.000130834
0.000130173
0.000135332
0.000132482
0.000133873
0.000132494
0.000136144
0.000134694
0.000138738
0.00013215
0.000135008
0.00013309
0.000134702
0.000134864
0.00013421
0.000134728
0.000132961
0.00013762
0.000136322
0.000136738
0.000134118
0.000137552
0.000131408
0.000135601
0.000132491
0.00013497
0.000134835
0.000134596
0.000136994
0.000136334
0.000136627
0.000135129
0.000135867
0.000126933
0.000131222
0.000135609
0.000135767
0.00013611
0.000136151
0.000137983
0.000137547
0.000144165
0.0001545
0.000153532
0.000134157
0.000125047
0.000142907
7.27215e-05
0.00010317
0.000145052
0.000172422
0.000199423
0.000222698
0.000241769
0.000253407
0.000261135
0.000266909
0.000271189
0.000274374
0.000276788
0.000278667
0.000280087
0.000281127
0.000281893
0.000282457
0.000282871
0.000283118
0.000283227
0.000283241
0.000283193
0.000283092
0.000282937
0.000282736
0.000282503
0.000282249
0.000281981
0.000281691
0.000281384
0.000281064
0.000280736
0.000280406
0.000280073
0.000279732
0.000279386
0.00027904
0.000278693
0.00027835
0.000278007
0.000277663
0.00027732
0.00027698
0.000276643
0.00027631
0.000275979
0.000275651
0.000275325
0.000275003
0.000274683
0.000274371
0.000274059
0.000273753
0.000273447
0.000273149
0.000272851
0.00027256
0.000272269
0.000271987
0.000271704
0.00027143
0.000271154
0.000270888
0.000270621
0.000270363
0.000270103
0.000269854
0.000269602
0.000269363
0.000269122
0.000268893
0.000268662
0.000268445
0.000268226
0.000268024
0.000267819
0.000267634
0.000267448
0.000267284
0.00026712
0.000266986
0.00026685
0.000266739
0.000266626
0.000266546
0.000266483
0.000266462
0.000266449
0.000266501
0.000266592
0.00026679
0.000267034
0.000267458
0.000267982
0.00026899
0.000269623
0.000275778
0.000270456
0.000201172
0.000168617
0.000233117
0.000249577
0.000258478
0.000261046
0.000260135
0.000260743
0.00025566
0.000257658
0.000264623
0.000240646
0.000229195
0.00024081
0.000224396
0.000241595
0.000219982
0.000213143
0.000231811
0.000215777
0.000229262
0.000190135
0.000216642
0.000223095
0.000201065
0.000225869
0.000210455
0.000234452
0.00019895
0.000219084
0.000209335
0.000194374
0.000228015
0.00022155
0.000234497
0.000203537
0.000228261
0.000210492
0.000185939
0.000217055
0.000197653
0.000232033
0.000195895
0.000206903
0.000217119
0.000193601
0.000231076
0.000203315
0.000230887
0.000206616
0.000195563
0.000225453
0.000213508
0.000231145
0.000205952
0.00023073
0.000213523
0.000197874
0.00023335
0.000221555
0.00023443
0.000213155
0.000230299
0.000216588
0.00021232
0.000232122
0.000224768
0.000235962
0.000221622
0.000234565
0.000212871
0.000227841
0.000232163
0.000226034
0.000229447
0.000215194
0.000231513
0.00022388
0.000238025
0.000222311
0.000235334
0.000227932
0.000220817
0.000221829
0.00020158
0.000231105
0.000220265
0.000234602
0.000213782
0.000231242
0.00022685
0.000217585
0.000228407
0.000216129
0.000232268
0.00021599
0.000229269
0.000210516
0.000231401
0.000230015
0.000229019
0.000224268
0.000206545
0.000231595
0.000223606
0.000233462
0.000218975
0.000231839
0.000222181
0.00022991
0.000223541
0.000219443
0.000232125
0.000228208
0.000226943
0.000215219
0.000230561
0.000220744
0.000232661
0.000213107
0.000229182
0.000230003
0.000223456
0.000227451
0.00020897
0.000230568
0.00021855
0.000231478
0.000215368
0.000226265
0.000221817
0.000225697
0.000228888
0.000235944
0.000233217
0.000235885
0.000233821
0.000228663
0.000231883
0.000224557
0.000232754
0.000220548
0.000228384
0.000219531
0.000223921
0.000230657
0.000232701
0.000231281
0.000230235
0.000233387
0.000226724
0.000230473
0.000218276
0.000226446
0.000217625
0.000229282
0.000229175
0.00023051
0.000225179
0.000217294
0.00022886
0.000227756
0.000233631
0.00022199
0.000229071
0.000221564
0.000227425
0.000224065
0.000230057
0.000226423
0.000222313
0.000231018
0.000230244
0.00022846
0.000223874
0.0002292
0.000218894
0.000226745
0.000220667
0.000229617
0.000226232
0.000231746
0.000230866
0.000231285
0.000228514
0.000228767
0.000225293
0.000210714
0.000223295
0.000228894
0.000230424
0.000232517
0.00023191
0.000236502
0.000233776
0.000244507
0.000272375
0.000252867
0.000198089
0.000179095
0.000211777
6.07193e-05
7.73586e-05
0.000105338
0.00014281
0.000173465
0.00020321
0.000231766
0.000258218
0.000280133
0.000299143
0.00031215
0.000321772
0.000329785
0.000336578
0.000342283
0.000347066
0.000351122
0.000354604
0.000357613
0.000360173
0.000362356
0.000364236
0.000365872
0.000367293
0.000368513
0.000369561
0.000370467
0.000371254
0.000371941
0.000372524
0.000373018
0.000373435
0.000373788
0.000374089
0.000374337
0.000374533
0.000374684
0.000374799
0.000374882
0.00037494
0.000374968
0.00037497
0.000374949
0.000374908
0.000374853
0.000374784
0.000374699
0.000374599
0.000374488
0.000374366
0.000374236
0.0003741
0.000373954
0.000373803
0.000373643
0.00037348
0.000373311
0.00037314
0.000372964
0.000372786
0.000372603
0.000372421
0.000372233
0.000372049
0.000371859
0.000371673
0.000371482
0.000371296
0.000371104
0.000370921
0.000370733
0.000370555
0.000370372
0.0003702
0.000370025
0.000369864
0.0003697
0.000369554
0.000369407
0.000369283
0.000369158
0.000369065
0.00036897
0.000368913
0.000368831
0.0003688
0.000368783
0.000368824
0.000368847
0.000368989
0.00036913
0.000369454
0.000369783
0.000370417
0.000371101
0.000372532
0.000373403
0.000381617
0.000375404
0.000278306
0.000221642
0.000276008
0.000322871
0.000343225
0.000355884
0.000361795
0.000368156
0.000365164
0.000370419
0.000381993
0.000356102
0.000348637
0.000350535
0.00032894
0.000348463
0.000323001
0.000324152
0.00033772
0.0003086
0.000334026
0.000279348
0.000308921
0.000323505
0.000301104
0.00032937
0.000306944
0.000339624
0.000294124
0.000317533
0.000303531
0.000280831
0.000328881
0.000317059
0.000339538
0.000301633
0.000329577
0.000310091
0.000279519
0.000316201
0.000299433
0.000332684
0.000290145
0.00030028
0.000316285
0.000275109
0.000334047
0.000301386
0.000333467
0.000305505
0.000299922
0.000329017
0.000311911
0.000335997
0.000304294
0.000332249
0.000313002
0.000293685
0.000340491
0.000324993
0.000340507
0.000313639
0.000331408
0.00031486
0.000318333
0.000335738
0.000317643
0.0003417
0.000322591
0.000337204
0.000309776
0.00032604
0.000333703
0.000336678
0.000332299
0.000316481
0.000331308
0.000322533
0.00034052
0.000323001
0.000336582
0.000330203
0.000326738
0.000319155
0.000280275
0.000330153
0.000318293
0.000336574
0.000312713
0.000331334
0.000329117
0.000324331
0.000332229
0.000308581
0.000337474
0.000315442
0.00033071
0.000307845
0.000331549
0.000333367
0.000331145
0.00032515
0.000294373
0.000334145
0.000323219
0.000335493
0.00031823
0.000332062
0.000320502
0.000327632
0.000320582
0.000319116
0.000332955
0.000330893
0.000326954
0.000308812
0.000330425
0.000318615
0.000333024
0.000309537
0.000327589
0.0003308
0.000331332
0.000330223
0.000304359
0.000331958
0.000315806
0.00033112
0.000311832
0.000322299
0.00031708
0.000320058
0.000325302
0.000334727
0.000334518
0.000337824
0.000337868
0.000329413
0.000333562
0.000323384
0.000332859
0.000317675
0.000324759
0.000313687
0.000322084
0.000327963
0.000331528
0.000331615
0.00032868
0.000335321
0.000325207
0.000329315
0.000313125
0.000320722
0.00031008
0.000322715
0.000325789
0.000326866
0.000322385
0.000311052
0.000326636
0.000325611
0.000333298
0.000319645
0.000326436
0.000316887
0.000322235
0.000318235
0.000324372
0.000322161
0.000318778
0.000328688
0.000327937
0.000326223
0.000319618
0.000325696
0.000312951
0.000320949
0.000314045
0.000324421
0.000321849
0.000327536
0.00032878
0.000328603
0.000326026
0.000326107
0.000320341
0.00030023
0.000313082
0.00032258
0.000326685
0.000331494
0.000331406
0.000338778
0.000335598
0.00032829
0.000398014
0.00037196
0.000280836
0.000250147
0.000267818
5.44163e-05
6.12926e-05
7.52523e-05
9.95012e-05
0.000133542
0.000165556
0.000192909
0.000222567
0.000251138
0.000279282
0.00030381
0.000325655
0.000344585
0.00036108
0.000373937
0.000383773
0.000392405
0.000400055
0.00040686
0.000412853
0.000418158
0.000422892
0.000427145
0.000430965
0.000434386
0.000437462
0.00044024
0.000442761
0.000445053
0.000447122
0.000448998
0.000450703
0.000452257
0.000453682
0.000454977
0.000456153
0.000457224
0.000458203
0.000459099
0.00045992
0.000460666
0.000461345
0.000461963
0.000462526
0.000463042
0.000463513
0.000463939
0.000464322
0.00046467
0.000464983
0.000465267
0.000465525
0.000465753
0.000465957
0.000466135
0.000466294
0.000466432
0.000466555
0.000466659
0.000466748
0.00046682
0.000466881
0.000466927
0.000466965
0.00046699
0.000467008
0.000467013
0.000467013
0.000467003
0.000466992
0.000466972
0.000466953
0.000466926
0.000466902
0.000466872
0.00046685
0.000466823
0.000466809
0.000466793
0.000466795
0.000466796
0.000466829
0.000466858
0.000466936
0.000466975
0.000467067
0.000467178
0.000467359
0.000467506
0.000467817
0.0004681
0.000468628
0.000469143
0.00047007
0.000471033
0.000472962
0.000474288
0.000484238
0.000477268
0.000363053
0.000292684
0.000317328
0.000362114
0.000411969
0.000433678
0.00044738
0.000460695
0.000462479
0.000472533
0.000488855
0.000465897
0.000455123
0.000457821
0.000435612
0.000454976
0.000428621
0.000438865
0.000442884
0.000424064
0.000440063
0.000376762
0.000403659
0.000424686
0.000419863
0.000433349
0.000417991
0.00044628
0.00039658
0.000417105
0.000401674
0.000389622
0.000429865
0.000419833
0.000444962
0.000405823
0.000433151
0.000413807
0.000399467
0.000417914
0.000397699
0.000434494
0.000390703
0.000394651
0.000417165
0.000379997
0.000438661
0.000405928
0.000438952
0.000410231
0.000412892
0.00043404
0.000426259
0.000443046
0.000409541
0.000437591
0.000417906
0.00041323
0.00044953
0.000433867
0.000450343
0.000421421
0.000437675
0.000419077
0.000429579
0.000441232
0.000427885
0.000450283
0.000429884
0.000443782
0.000413073
0.000425446
0.000437651
0.000441108
0.000437704
0.000421026
0.000433544
0.000425192
0.000444817
0.000427602
0.000440783
0.000434953
0.000428457
0.000419646
0.000385285
0.00043086
0.000419754
0.000439498
0.000415592
0.000433732
0.000433123
0.000434874
0.000437565
0.000418118
0.000445166
0.000421362
0.000436076
0.000411464
0.00043555
0.000439637
0.000436509
0.0004301
0.000410489
0.000440247
0.000428199
0.000441276
0.000423377
0.000436643
0.000423909
0.000429531
0.000421315
0.000428343
0.000435225
0.000432749
0.000429795
0.000420753
0.000432441
0.000420689
0.000435578
0.000410622
0.000425808
0.000433298
0.000437579
0.000434829
0.000419278
0.000436266
0.000418775
0.000434173
0.000413568
0.000422385
0.000415976
0.000417525
0.00042362
0.000434554
0.000436742
0.000442698
0.000443322
0.000433666
0.00043836
0.000427134
0.000436329
0.000419653
0.000424979
0.000411883
0.000418288
0.000426367
0.000431255
0.000433236
0.000431636
0.000439144
0.000427571
0.000431197
0.000412739
0.000418421
0.000406171
0.000418569
0.000423442
0.000424819
0.000421187
0.000419166
0.000425905
0.000425548
0.00043471
0.000421112
0.00042697
0.000416196
0.000420275
0.000415425
0.000421147
0.000419486
0.000420947
0.000427489
0.00042711
0.000426185
0.00041778
0.000424386
0.00041074
0.000417767
0.000410406
0.000421071
0.000419227
0.00042505
0.000427726
0.000427558
0.0004254
0.000424269
0.00041793
0.00039316
0.000402147
0.00041607
0.000422397
0.000429751
0.000431036
0.000433451
0.000439024
0.000405008
0.000499859
0.000498595
0.000384109
0.000349751
0.000329856
5.48766e-05
5.26073e-05
5.78097e-05
6.93614e-05
9.0202e-05
0.000120236
0.000156716
0.000180574
0.000207509
0.000235908
0.000263757
0.00029229
0.000318162
0.000342434
0.00036455
0.000383959
0.000401397
0.000416987
0.000430836
0.000441015
0.0004502
0.000458546
0.000466161
0.000473104
0.000479416
0.000485176
0.000490458
0.000495319
0.000499797
0.000503909
0.000507698
0.000511198
0.00051444
0.000517452
0.000520239
0.000522821
0.000525219
0.000527452
0.000529534
0.000531477
0.000533285
0.00053497
0.000536543
0.000538013
0.000539394
0.000540684
0.000541891
0.000543018
0.000544074
0.000545064
0.000545995
0.000546869
0.000547687
0.000548454
0.000549172
0.000549847
0.000550482
0.00055108
0.000551638
0.000552164
0.000552655
0.000553119
0.000553553
0.000553964
0.000554348
0.00055471
0.000555048
0.000555369
0.000555668
0.000555955
0.000556224
0.000556482
0.000556725
0.000556961
0.000557184
0.000557406
0.000557619
0.000557836
0.000558047
0.00055827
0.000558489
0.000558736
0.000558977
0.00055927
0.000559523
0.00055982
0.000560138
0.000560538
0.000560892
0.000561447
0.00056195
0.000562751
0.000563529
0.000564808
0.000566122
0.000568568
0.000570464
0.000581711
0.000573916
0.000450916
0.000377359
0.000370762
0.000396448
0.000452675
0.000499264
0.000519571
0.000539081
0.000546591
0.000561667
0.000582442
0.000564903
0.00055513
0.000558191
0.000538658
0.000556996
0.000531664
0.000540046
0.000544458
0.000542561
0.000542792
0.000477583
0.000497457
0.000524439
0.000525922
0.0005346
0.000532703
0.000550499
0.000501112
0.000517648
0.0005009
0.000498535
0.000528779
0.000528209
0.00054772
0.000510965
0.000536234
0.00051753
0.000513085
0.000518768
0.000498652
0.000535529
0.000493281
0.000487445
0.000517705
0.000500621
0.00054178
0.000512113
0.000543937
0.000516086
0.000521714
0.000538124
0.000531901
0.000548938
0.000517014
0.000543511
0.000524291
0.000531123
0.000557207
0.00054429
0.000560183
0.000531926
0.0005458
0.000525892
0.000536408
0.000546944
0.000549306
0.000558588
0.0005395
0.000551521
0.000519507
0.0005259
0.000542465
0.000546073
0.000543219
0.000525166
0.000536564
0.00052961
0.00054931
0.00053336
0.000545706
0.000539928
0.000531787
0.000521344
0.000504485
0.000531453
0.000522287
0.000541859
0.000519415
0.00053638
0.000536847
0.000538342
0.000542213
0.000540512
0.000552103
0.000529556
0.000542514
0.000517996
0.000541173
0.00054661
0.000543479
0.000536375
0.000536048
0.000546914
0.000535836
0.000548365
0.000531332
0.000543257
0.000529945
0.000533653
0.000524138
0.000529538
0.000537725
0.000535504
0.000533101
0.0005229
0.000534717
0.00052445
0.000538619
0.000513691
0.000522891
0.000536103
0.000540761
0.000539096
0.000531206
0.000540709
0.000524232
0.000538511
0.000517857
0.00052467
0.000516913
0.000516905
0.000523034
0.000534804
0.000538724
0.000545649
0.000548077
0.000539071
0.000543665
0.000532963
0.000541109
0.000524026
0.000527287
0.000512442
0.000516774
0.000525526
0.00053137
0.000534765
0.000537465
0.000542714
0.000531392
0.000533914
0.000514642
0.000518026
0.000504488
0.000515892
0.00052156
0.000523338
0.00052005
0.000517318
0.000525028
0.000526009
0.000536162
0.000523838
0.000528621
0.000517399
0.000520022
0.000514304
0.000519306
0.000517536
0.000518444
0.000526215
0.000526654
0.000526353
0.000517558
0.000523758
0.000510277
0.000515884
0.000508383
0.000518649
0.000517288
0.000523152
0.000526666
0.00052691
0.000524935
0.000523214
0.000516047
0.000488096
0.000492354
0.000509533
0.000517333
0.000526537
0.000529636
0.000524999
0.000542371
0.000496041
0.000599925
0.00062398
0.000500796
0.000442389
0.000410673
6.84577e-05
5.0982e-05
4.93926e-05
5.2988e-05
6.25063e-05
7.97797e-05
0.000106067
0.000138379
0.000171187
0.000193404
0.000218598
0.000245748
0.000272224
0.00030017
0.000326637
0.000351802
0.000375809
0.000397788
0.000418154
0.000436661
0.000453355
0.000468463
0.00048239
0.000494375
0.000504054
0.000512985
0.00052126
0.000528948
0.000536087
0.0005427
0.000548845
0.000554569
0.000559917
0.000564922
0.000569593
0.00057396
0.00057805
0.00058189
0.0005855
0.000588894
0.000592081
0.00059508
0.000597905
0.000600571
0.000603092
0.00060547
0.000607715
0.000609836
0.000611843
0.000613745
0.000615548
0.000617258
0.000618877
0.000620413
0.000621869
0.000623254
0.000624571
0.000625825
0.000627014
0.000628146
0.000629223
0.000630249
0.000631227
0.000632162
0.000633051
0.000633901
0.00063471
0.000635485
0.000636225
0.000636937
0.000637618
0.000638274
0.000638904
0.000639514
0.000640101
0.000640676
0.000641232
0.000641784
0.00064232
0.000642861
0.00064339
0.000643943
0.000644483
0.000645075
0.000645631
0.000646214
0.000646814
0.000647508
0.000648151
0.000649014
0.000649808
0.000650939
0.00065204
0.00065371
0.000655415
0.000658363
0.000660869
0.000672948
0.000664295
0.000538659
0.000467144
0.00043584
0.000444554
0.000482672
0.000529574
0.000582257
0.000606211
0.000619409
0.00063863
0.000663499
0.000652353
0.000646063
0.000649789
0.000634794
0.000652063
0.000629055
0.000636423
0.000640789
0.000640559
0.000640215
0.000577866
0.000586313
0.000621117
0.000622981
0.000631904
0.000632768
0.000650118
0.000604055
0.00061474
0.000598816
0.00059815
0.000624575
0.00062689
0.000646339
0.00061391
0.00063507
0.00061871
0.000612684
0.000617263
0.000599289
0.000634134
0.000595078
0.000575881
0.000616464
0.000610075
0.000641506
0.000616778
0.000646068
0.000620099
0.000621899
0.00063973
0.000636042
0.000651995
0.000623562
0.000647529
0.000629426
0.000638002
0.000661983
0.000653297
0.000667775
0.000641883
0.00065314
0.000632668
0.000641142
0.000651598
0.000655398
0.000664887
0.000648668
0.000658365
0.000626544
0.000625399
0.000646807
0.000650973
0.000647734
0.00062981
0.00063913
0.000634062
0.000652833
0.000638566
0.000649812
0.000643781
0.000634868
0.000622684
0.000614817
0.0006309
0.00062438
0.000642774
0.000622506
0.000634049
0.000639142
0.000641147
0.000645192
0.000647904
0.000656765
0.000637255
0.000648047
0.000624951
0.000646473
0.000652721
0.0006501
0.000642196
0.000641617
0.000652621
0.000643871
0.000655146
0.000639889
0.000650097
0.000636687
0.000638464
0.00062769
0.000631768
0.000639961
0.000638436
0.000635945
0.000625779
0.000636469
0.000628301
0.000641045
0.000617053
0.000618427
0.000638302
0.000643667
0.000642166
0.000635091
0.000644123
0.00062999
0.000642607
0.000622765
0.000627546
0.000618543
0.00061708
0.000622788
0.000634926
0.000639921
0.000647762
0.000651342
0.000644002
0.000648111
0.000638898
0.000645698
0.000628997
0.000630224
0.000614007
0.00061645
0.000624957
0.000631422
0.000635607
0.000641505
0.000645091
0.000635
0.000636192
0.000617116
0.000618367
0.000603852
0.0006131
0.000619677
0.000621767
0.000618364
0.000615672
0.000623516
0.000626246
0.000636736
0.000626338
0.000630076
0.000618997
0.000620265
0.000613798
0.000617991
0.000615729
0.000616411
0.000624518
0.000625962
0.00062587
0.000617643
0.000622943
0.000610278
0.000614419
0.000606982
0.000616443
0.00061536
0.000621145
0.000625056
0.000625839
0.000623865
0.000621927
0.000613712
0.000583997
0.000584525
0.000602911
0.000611503
0.000621924
0.000626855
0.000621286
0.000644705
0.000599986
0.000714708
0.000744968
0.000622951
0.000545859
0.000512496
0.000108647
6.01572e-05
4.93498e-05
4.66602e-05
4.87461e-05
5.60383e-05
7.00202e-05
9.15701e-05
0.000119681
0.000152092
0.00018294
0.000204175
0.000227679
0.000253075
0.000278146
0.000304675
0.00033138
0.000356618
0.000381327
0.000404982
0.000427057
0.000447736
0.000467099
0.000484981
0.000501342
0.000516433
0.000530319
0.000543217
0.00055465
0.000564085
0.000572915
0.000581199
0.000588989
0.000596321
0.000603198
0.000609662
0.000615751
0.000621499
0.000626932
0.000632065
0.000636912
0.000641497
0.000645839
0.000649958
0.00065387
0.00065758
0.000661101
0.000664446
0.000667628
0.000670658
0.000673547
0.000676298
0.000678917
0.000681416
0.000683801
0.000686079
0.000688257
0.00069034
0.000692329
0.000694232
0.000696053
0.000697799
0.000699472
0.000701078
0.000702616
0.000704092
0.000705509
0.000706871
0.000708181
0.000709444
0.00071066
0.000711834
0.000712966
0.000714063
0.000715124
0.000716159
0.000717164
0.00071815
0.000719111
0.000720066
0.000720999
0.000721947
0.000722874
0.000723846
0.000724787
0.000725739
0.000726694
0.000727753
0.000728761
0.000729992
0.000731138
0.000732647
0.000734121
0.000736206
0.000738321
0.00074174
0.000744847
0.000757313
0.000747873
0.000623958
0.000543154
0.000507451
0.000504997
0.000521966
0.000555589
0.000616889
0.000649887
0.000683573
0.000694282
0.000733978
0.000729155
0.000727355
0.00073225
0.000722584
0.000739072
0.000719206
0.000726511
0.000730745
0.000732957
0.000731591
0.000674869
0.000668304
0.000713469
0.000715985
0.00072439
0.000728079
0.000744204
0.000703059
0.000702955
0.000693639
0.000687281
0.000716542
0.000714741
0.000740097
0.000712808
0.000720774
0.00071588
0.000709398
0.000712407
0.000694773
0.000728909
0.000694175
0.00065806
0.000712352
0.00070366
0.000737092
0.000717949
0.000741694
0.000720459
0.000712825
0.000737783
0.000736739
0.000751069
0.000727082
0.000743913
0.000731499
0.000733793
0.000762922
0.000758908
0.000771609
0.000749035
0.000757742
0.000737418
0.000744268
0.000754028
0.000759581
0.000768276
0.000755559
0.000762849
0.000732288
0.000721741
0.000749482
0.000754239
0.000750281
0.00073333
0.0007402
0.000737188
0.000754421
0.000742018
0.000751992
0.000745565
0.000736433
0.000722544
0.000714165
0.000728658
0.000724959
0.000741592
0.000723816
0.000726142
0.000739275
0.000742116
0.000745811
0.000750375
0.000758565
0.000742803
0.000751377
0.000730569
0.000747832
0.000756843
0.000754985
0.00074632
0.000746185
0.000756537
0.000750716
0.000760421
0.000747455
0.000755808
0.000742659
0.000742635
0.000730783
0.000733888
0.00074132
0.000740651
0.000737463
0.000728109
0.000737025
0.000731144
0.000742075
0.000719567
0.00071133
0.0007392
0.000745265
0.000743469
0.000737898
0.000745796
0.000734634
0.00074539
0.000726928
0.000729726
0.000719741
0.000717048
0.000722089
0.00073432
0.0007399
0.000748615
0.000752751
0.000747502
0.000750909
0.000743673
0.000749038
0.000733255
0.000732612
0.000715454
0.000716307
0.000724073
0.000730912
0.000735374
0.00074203
0.000745807
0.000737407
0.000737237
0.000718999
0.000718178
0.000703218
0.000708234
0.000717312
0.00071961
0.000715744
0.000713509
0.000721004
0.000725637
0.000735958
0.000727771
0.000730518
0.000719965
0.000720004
0.000713018
0.000716432
0.000713533
0.000714244
0.0007221
0.000724628
0.000724315
0.000717159
0.000721327
0.000709871
0.00071261
0.000705413
0.00071385
0.000712914
0.000718521
0.00072251
0.000723765
0.000721735
0.000719762
0.000710353
0.000679995
0.000676667
0.000695914
0.000704829
0.000716022
0.000722537
0.00072254
0.000745306
0.000706894
0.000835005
0.000860388
0.000744965
0.000655764
0.000620359
0.000114485
8.83524e-05
6.1248e-05
5.02565e-05
4.58092e-05
4.59544e-05
5.08533e-05
6.13753e-05
7.82057e-05
0.00010164
0.000130381
0.000162165
0.000193619
0.000213635
0.000235436
0.000258985
0.000283022
0.000307549
0.000333549
0.00035859
0.000383287
0.000407592
0.0004307
0.000452705
0.00047384
0.000493733
0.000512313
0.000529812
0.000546244
0.000561365
0.000575388
0.000588562
0.000600821
0.000612336
0.000621647
0.000630443
0.00063877
0.000646668
0.000654166
0.000661276
0.000668014
0.000674412
0.000680495
0.000686288
0.000691809
0.000697064
0.00070207
0.000706843
0.000711399
0.000715753
0.000719917
0.000723896
0.000727699
0.000731339