/*--------------------------------*- C++ -*----------------------------------*\
| =========                 |                                                 |
| \\      /  F ield         | foam-extend: Open Source CFD                    |
|  \\    /   O peration     | Version:     3.2                                |
|   \\  /    A nd           | Web:         http://www.foam-extend.org         |
|    \\/     M anipulation  | For copyright notice see file Copyright         |
\*---------------------------------------------------------------------------*/
FoamFile
{
    version     2.0;
    format      ascii;
    class       areaScalarField;
    location    "160";
    object      Fi1;
}
// * * * * * * * * * * * * * * * * * * * * * * * * * * * * * * * * * * * * * //

dimensions      [0 1 -1 0 0 0 0];

internalField   nonuniform List<scalar> 
300
(
-0.000749118
-0.000530453
-0.000303777
-0.000224429
-0.000196612
-0.00018251
-0.000172512
-0.000163914
-0.000156126
-0.000149165
-0.00014304
-0.000137634
-0.000132801
-0.000128536
-0.000124737
-0.000121315
-0.000118212
-0.00011537
-0.000112788
-0.000110449
-0.000108292
-0.000106277
-0.000104396
-0.000102639
-0.000101001
-9.94574e-05
-9.80064e-05
-9.66319e-05
-9.53366e-05
-9.41133e-05
-9.29508e-05
-9.18469e-05
-9.07923e-05
-8.97891e-05
-8.88313e-05
-8.7919e-05
-8.70419e-05
-8.62033e-05
-8.53961e-05
-8.46217e-05
-8.3879e-05
-8.3163e-05
-8.24738e-05
-8.18084e-05
-8.11654e-05
-8.05464e-05
-7.9947e-05
-7.93701e-05
-7.88072e-05
-7.82669e-05
-7.77375e-05
-7.723e-05
-7.67332e-05
-7.6256e-05
-7.57877e-05
-7.53373e-05
-7.48945e-05
-7.44698e-05
-7.40452e-05
-7.36425e-05
-7.32399e-05
-7.28605e-05
-7.24795e-05
-7.21224e-05
-7.17617e-05
-7.14268e-05
-7.10856e-05
-7.0772e-05
-7.04502e-05
-7.01579e-05
-6.98568e-05
-6.95875e-05
-6.93083e-05
-6.90644e-05
-6.8809e-05
-6.85931e-05
-6.83667e-05
-6.81834e-05
-6.79928e-05
-6.78502e-05
-6.77051e-05
-6.76131e-05
-6.7532e-05
-6.75009e-05
-6.75039e-05
-6.75607e-05
-6.76664e-05
-6.78589e-05
-6.81437e-05
-6.85134e-05
-6.90606e-05
-6.96843e-05
-7.07376e-05
-7.18051e-05
-7.38295e-05
-7.56144e-05
-8.04705e-05
-8.11938e-05
-0.000113585
-3.01586e-05
1.11894e-06
1.71884e-06
2.01138e-06
2.31248e-06
2.4949e-06
2.60861e-06
2.80514e-06
2.76437e-06
3.10228e-06
2.60742e-06
5.18476e-06
1.4671e-05
-3.45522e-05
-2.37251e-05
-2.0042e-05
8.13334e-06
4.39039e-05
2.12624e-05
5.55624e-06
-3.46534e-05
-1.07638e-06
-2.3658e-05
-1.22826e-05
5.61058e-05
2.01488e-05
5.12088e-06
-4.72916e-05
-1.62845e-05
1.89294e-06
1.25448e-05
4.60322e-05
-2.33349e-05
-4.02184e-05
1.91236e-05
4.26916e-05
-3.69711e-06
-1.01971e-05
-3.23946e-05
-1.19017e-05
2.16185e-05
1.2623e-05
2.97418e-05
6.77936e-06
-1.19175e-05
-2.99265e-05
-2.2296e-05
1.55965e-05
2.56153e-05
2.26269e-05
8.95e-06
-2.497e-05
-3.57356e-05
-1.40609e-05
1.85131e-05
2.89517e-05
2.42245e-05
2.89559e-06
-3.47429e-06
-3.28928e-05
-4.88163e-05
1.37508e-05
3.74167e-05
3.5436e-05
4.91092e-06
-2.5054e-06
-4.09006e-05
-4.49e-05
1.00468e-05
-1.12491e-05
4.52078e-05
4.3176e-05
-2.91448e-06
1.24881e-06
-2.97665e-05
-2.53536e-05
-5.32581e-06
1.65336e-06
2.31834e-05
4.05973e-05
5.11035e-07
2.49427e-06
-2.86393e-05
-2.56616e-05
1.25948e-05
-1.20557e-05
3.61362e-05
2.73677e-05
3.0355e-06
2.70278e-06
-2.18787e-05
-3.87611e-05
-6.68782e-06
-4.92598e-06
2.21761e-05
5.2211e-05
-4.99717e-07
5.04172e-06
-2.31409e-06
-3.5149e-05
-4.46897e-05
3.85778e-06
4.35758e-05
2.53523e-05
4.72577e-06
-3.29184e-06
-3.07193e-05
-4.63151e-05
-6.98028e-07
-1.01386e-07
3.55082e-05
4.6649e-05
-1.71681e-06
2.00225e-06
-2.65364e-05
-3.43832e-05
-8.04642e-06
3.49508e-06
2.68793e-05
4.35189e-05
2.93011e-06
1.04629e-06
-4.58666e-05
-3.5673e-05
5.68461e-06
2.54661e-05
5.05175e-05
-3.55529e-06
5.83358e-06
-3.08442e-05
-3.54828e-05
7.03304e-06
-4.6483e-06
2.62128e-05
3.63674e-05
-9.1128e-07
-1.01649e-06
-3.88798e-05
-4.40094e-05
1.12056e-06
-1.02783e-05
4.29208e-05
4.81622e-05
7.65411e-06
7.99346e-06
-3.77625e-05
-4.93454e-05
-3.67473e-06
-1.13422e-05
3.11282e-05
5.21217e-05
3.56348e-07
9.35976e-06
-3.33774e-05
3.31538e-06
-1.95885e-06
-4.46856e-05
-4.01718e-06
1.85052e-06
4.6522e-05
3.41528e-05
1.05825e-06
-4.47398e-06
-3.78999e-05
-4.61657e-05
1.09121e-06
-7.15002e-08
3.87889e-05
4.32478e-05
3.7264e-06
6.52987e-06
-4.09788e-05
-5.30287e-05
-9.2001e-07
3.32458e-06
3.18173e-05
5.0007e-05
-3.2879e-05
-3.46305e-05
-6.60701e-06
-4.92514e-06
-6.50461e-06
-8.34609e-06
-5.71121e-06
3.38981e-07
-4.62289e-06
1.05651e-07
-2.72148e-06
-3.52267e-06
-3.47136e-06
-3.48589e-06
-3.57812e-06
-3.17165e-06
-3.28261e-06
-2.77337e-06
-2.45737e-06
-1.69832e-06
-2.19414e-05
-0.000122018
-4.35414e-05
-3.43318e-05
)
;

boundaryField
{
    inlet
    {
        type            calculated;
        value           uniform -0.000749116;
    }
    outlet
    {
        type            calculated;
        value           uniform -4.89348e-05;
    }
    sideWall
    {
        type            empty;
    }
}


// ************************************************************************* //
