/*--------------------------------*- C++ -*----------------------------------*\
| =========                 |                                                 |
| \\      /  F ield         | foam-extend: Open Source CFD                    |
|  \\    /   O peration     | Version:     3.2                                |
|   \\  /    A nd           | Web:         http://www.foam-extend.org         |
|    \\/     M anipulation  | For copyright notice see file Copyright         |
\*---------------------------------------------------------------------------*/
FoamFile
{
    version     2.0;
    format      ascii;
    class       areaScalarField;
    location    "160";
    object      Fi2;
}
// * * * * * * * * * * * * * * * * * * * * * * * * * * * * * * * * * * * * * //

dimensions      [0 1 -1 0 0 0 0];

internalField   nonuniform List<scalar> 
300
(
-0.000749118
-0.000530453
-0.000303777
-0.000224429
-0.000196612
-0.00018251
-0.000172512
-0.000163914
-0.000156126
-0.000149165
-0.00014304
-0.000137634
-0.000132801
-0.000128536
-0.000124737
-0.000121315
-0.000118212
-0.00011537
-0.000112788
-0.000110449
-0.000108292
-0.000106277
-0.000104396
-0.000102639
-0.000101001
-9.94574e-05
-9.80064e-05
-9.66319e-05
-9.53366e-05
-9.41133e-05
-9.29508e-05
-9.18469e-05
-9.07923e-05
-8.97891e-05
-8.88313e-05
-8.7919e-05
-8.70419e-05
-8.62033e-05
-8.53961e-05
-8.46217e-05
-8.3879e-05
-8.3163e-05
-8.24738e-05
-8.18084e-05
-8.11654e-05
-8.05464e-05
-7.9947e-05
-7.93701e-05
-7.88072e-05
-7.82669e-05
-7.77375e-05
-7.72301e-05
-7.67332e-05
-7.6256e-05
-7.57877e-05
-7.53374e-05
-7.48945e-05
-7.44699e-05
-7.40452e-05
-7.36425e-05
-7.32399e-05
-7.28605e-05
-7.24795e-05
-7.21224e-05
-7.17617e-05
-7.14268e-05
-7.10856e-05
-7.0772e-05
-7.04502e-05
-7.01579e-05
-6.98569e-05
-6.95876e-05
-6.93083e-05
-6.90645e-05
-6.8809e-05
-6.85932e-05
-6.83667e-05
-6.81835e-05
-6.79929e-05
-6.78503e-05
-6.77052e-05
-6.76132e-05
-6.75322e-05
-6.75011e-05
-6.75041e-05
-6.7561e-05
-6.76667e-05
-6.78593e-05
-6.81442e-05
-6.8514e-05
-6.90613e-05
-6.96852e-05
-7.07387e-05
-7.18065e-05
-7.38314e-05
-7.5617e-05
-8.0474e-05
-8.11992e-05
-0.000113595
-3.5585e-05
-1.14194e-06
-1.62875e-06
-2.07478e-06
-2.2384e-06
-2.44946e-06
-2.75369e-06
-2.55768e-06
-3.25077e-06
-2.06325e-06
2.83628e-06
-2.88348e-05
1.40774e-05
-1.63955e-05
1.40522e-05
2.17454e-05
3.34384e-05
6.14128e-06
3.0691e-06
-4.09266e-05
-4.07661e-05
4.62567e-05
2.50672e-05
1.22289e-05
1.12845e-05
-2.43911e-05
-4.24819e-05
-2.37887e-05
4.40649e-05
4.70124e-05
3.35953e-06
-3.18738e-05
-2.81348e-05
3.92569e-05
2.32183e-05
3.26734e-06
-5.41268e-05
-1.9651e-05
1.71687e-05
1.09048e-05
5.08714e-05
-6.06285e-06
3.16625e-06
-3.6156e-05
-1.72936e-05
1.48287e-05
1.17137e-05
4.01209e-05
-3.8549e-06
-9.55291e-06
-3.67541e-05
-1.68693e-05
6.86238e-06
2.10073e-05
4.41179e-05
-1.5206e-06
2.8211e-06
-4.18968e-05
-4.17437e-05
8.37406e-06
2.44372e-05
4.98169e-05
2.92903e-06
4.30735e-06
-3.74314e-05
-3.88878e-05
-3.34227e-06
-1.31514e-05
4.74513e-05
3.18391e-05
1.18791e-05
4.75776e-06
-3.4222e-05
-4.76361e-05
-4.06227e-06
1.82076e-05
2.77901e-05
4.13655e-05
-5.85531e-06
5.12012e-06
-4.33872e-05
-3.58071e-05
1.03506e-05
3.36023e-06
4.73625e-05
2.34297e-05
5.80053e-06
-2.64645e-06
-1.9131e-05
-4.43556e-05
-5.49394e-06
2.49044e-06
2.25665e-05
4.25688e-05
-2.10049e-06
8.83107e-06
-3.73989e-05
-2.44081e-05
-1.50341e-05
-1.55346e-05
4.37787e-05
3.92967e-05
5.1451e-06
-3.65567e-06
-3.60756e-05
-4.69969e-05
4.772e-06
-7.1788e-06
3.33695e-05
4.76697e-05
7.41064e-06
6.25972e-06
-3.67221e-05
-4.58539e-05
2.06555e-06
8.05719e-06
2.65385e-05
4.49523e-05
-2.35488e-06
6.32967e-06
-3.97308e-05
-3.65855e-05
-7.4438e-06
2.86483e-05
5.33054e-05
-2.46828e-06
7.16245e-06
-4.50576e-05
-3.31288e-05
2.66468e-06
-1.86161e-06
4.17057e-05
3.58684e-05
-1.96647e-06
2.2798e-06
-4.65906e-05
-4.4284e-05
1.57663e-06
-6.37936e-06
4.28884e-05
3.70375e-05
6.60215e-06
6.4001e-06
-2.30149e-05
-3.7351e-05
-1.26874e-05
-8.52006e-06
3.38262e-05
4.20716e-05
-1.4033e-06
5.16815e-06
-4.11338e-05
-3.40503e-05
6.11999e-07
1.07243e-05
-8.4799e-06
-1.3469e-05
4.02677e-05
4.24252e-05
6.84629e-06
4.70421e-07
-4.34299e-05
-5.17904e-05
7.63455e-07
-3.56963e-06
3.98023e-05
4.81855e-05
5.48234e-06
1.83832e-06
-3.03978e-05
-4.13681e-05
-1.1174e-05
-1.0139e-05
3.66984e-05
5.12047e-05
-2.29352e-07
7.03841e-06
-3.29475e-05
7.34114e-07
3.8488e-05
1.37853e-06
1.81623e-06
-8.691e-07
1.25173e-06
3.78173e-06
1.97142e-06
3.64734e-06
2.99039e-06
2.9095e-06
2.8762e-06
2.79297e-06
2.68642e-06
2.63275e-06
2.41249e-06
2.26114e-06
1.94583e-06
1.36113e-06
-1.70388e-05
-0.000122106
-4.35794e-05
-3.43582e-05
)
;

boundaryField
{
    inlet
    {
        type            calculated;
        value           uniform -0.000749116;
    }
    outlet
    {
        type            calculated;
        value           uniform -4.89348e-05;
    }
    sideWall
    {
        type            empty;
    }
}


// ************************************************************************* //
