/*--------------------------------*- C++ -*----------------------------------*\
| =========                 |                                                 |
| \\      /  F ield         | foam-extend: Open Source CFD                    |
|  \\    /   O peration     | Version:     3.2                                |
|   \\  /    A nd           | Web:         http://www.foam-extend.org         |
|    \\/     M anipulation  | For copyright notice see file Copyright         |
\*---------------------------------------------------------------------------*/
FoamFile
{
    version     2.0;
    format      ascii;
    class       areaScalarField;
    location    "160";
    object      He;
}
// * * * * * * * * * * * * * * * * * * * * * * * * * * * * * * * * * * * * * //

dimensions      [0 0 0 0 0 0 0];

internalField   nonuniform List<scalar> 
300
(
0
0
0
0
0
0
0
0
0
0
0
0
0
0
0
0
0
0
0
0
0
0
0
0
0
0
0
0
0
0
0
0
0
0
0
0
0
0
0
0
0
0
0
0
0
0
0
0
0
0
0
0
0
0
0
0
0
0
0
0
0
0
0
0
0
0
0
0
0
0
0
0
0
0
0
0
0
0
0
0
0
0
0
0
0
0
0
0
0
0
0
0
0
0
0
0
0
0
0
0
0
0
0
0
0
0
0
0
0
0
0
4.29605e-06
2.07264e-05
2.55127e-05
1.39186e-05
0
0
0
3.32727e-05
3.53305e-05
1.51488e-05
1.51811e-05
0
0
0
3.75049e-05
3.79339e-05
1.94875e-05
0
0
0
2.24291e-05
2.11754e-05
0
0
0
3.31856e-05
2.17197e-05
8.65065e-06
0
0
0
0
2.57246e-05
2.35182e-05
1.47246e-05
0
0
0
0
3.5086e-05
2.76304e-05
1.13368e-05
0
0
0
0
3.84833e-05
2.96544e-05
2.91809e-05
0
0
0
0
3.9887e-05
4.69813e-05
3.01598e-05
9.00977e-06
0
0
0
0
4.0935e-05
3.03005e-05
2.14488e-05
8.58671e-06
0
0
0
0
3.19489e-05
2.30495e-05
1.68483e-05
3.14121e-06
0
0
0
0
3.16961e-05
3.31669e-05
2.65219e-05
1.42658e-05
0
0
0
0
0
2.6187e-05
2.99055e-05
3.01683e-05
0
0
0
0
3.94653e-05
3.89174e-05
3.10101e-05
1.19515e-05
0
0
0
0
3.76527e-05
2.97792e-05
2.5836e-05
1.17448e-05
0
0
0
0
4.02979e-05
3.72981e-05
2.78829e-05
0
0
0
0
3.28446e-05
3.02495e-05
2.36946e-05
6.51697e-06
0
0
0
0
4.38515e-05
4.25733e-05
3.14433e-05
1.30103e-05
0
0
0
0
3.11318e-05
4.7031e-05
3.50327e-05
1.701e-05
0
0
0
0
3.07318e-05
1.90478e-05
7.17818e-06
1.62489e-05
2.38364e-05
1.27172e-05
0
0
0
0
4.80065e-05
4.50664e-05
3.22837e-05
1.10126e-05
0
0
0
0
3.71246e-05
5.05778e-05
3.6991e-05
1.28875e-05
0
0
0
3.55751e-05
2.71868e-05
1.31924e-05
5.74044e-06
6.57008e-06
7.22691e-06
4.85741e-06
2.41419e-06
2.20042e-06
1.78318e-06
2.21489e-06
3.3096e-06
3.48782e-06
3.50531e-06
3.45349e-06
3.30105e-06
3.12773e-06
2.82189e-06
2.34841e-06
1.46341e-06
4.22726e-07
0
0
0
)
;

boundaryField
{
    inlet
    {
        type            calculated;
        value           uniform 0;
    }
    outlet
    {
        type            calculated;
        value           uniform 0;
    }
    sideWall
    {
        type            empty;
    }
}


// ************************************************************************* //
