/*--------------------------------*- C++ -*----------------------------------*\
| =========                 |                                                 |
| \\      /  F ield         | foam-extend: Open Source CFD                    |
|  \\    /   O peration     | Version:     3.2                                |
|   \\  /    A nd           | Web:         http://www.foam-extend.org         |
|    \\/     M anipulation  | For copyright notice see file Copyright         |
\*---------------------------------------------------------------------------*/
FoamFile
{
    version     2.0;
    format      ascii;
    class       volScalarField;
    location    "160";
    object      k;
}
// * * * * * * * * * * * * * * * * * * * * * * * * * * * * * * * * * * * * * //

dimensions      [0 2 -2 0 0 0 0];

internalField   nonuniform List<scalar> 
96000
(
0.178319
0.142008
0.0985161
0.0808966
0.0742543
0.070771
0.0682485
0.066041
0.0640091
0.0621651
0.0605193
0.0590478
0.0577168
0.0565291
0.0554604
0.0544888
0.0536004
0.05278
0.0520291
0.051344
0.0507081
0.0501105
0.0495495
0.0490226
0.0485286
0.0480608
0.047619
0.0471986
0.0468006
0.0464232
0.0460631
0.0457199
0.0453908
0.0450766
0.0447755
0.0444879
0.0442104
0.0439443
0.0436874
0.0434402
0.0432024
0.0429726
0.0427508
0.0425361
0.0423281
0.0421274
0.0419326
0.0417446
0.0415608
0.0413841
0.0412105
0.0410437
0.0408801
0.0407227
0.0405679
0.0404187
0.0402718
0.0401306
0.0399892
0.0398549
0.0397204
0.0395934
0.0394656
0.0393457
0.0392245
0.0391116
0.0389966
0.0388906
0.0387818
0.0386828
0.0385807
0.0384892
0.0383943
0.0383113
0.0382242
0.0381506
0.0380733
0.0380106
0.0379454
0.0378966
0.0378469
0.0378154
0.0377876
0.0377769
0.0377779
0.0377974
0.0378337
0.0378996
0.0379971
0.0381234
0.0383101
0.0385222
0.0388792
0.0392393
0.0399176
0.0405109
0.0421035
0.0423473
0.0522749
0.0452362
0.0152107
0.0152762
0.0168781
0.0170443
0.0181729
0.0189086
0.0193667
0.0208608
0.0200122
0.0226335
0.0286473
0.0197797
0.0256402
0.0226883
0.0218994
0.0273983
0.0174928
0.028723
0.0204839
0.0284553
0.0220605
0.0150773
0.0299077
0.0170598
0.0269943
0.0202087
0.0265993
0.0256866
0.0176665
0.0256209
0.014757
0.0256479
0.0200894
0.0252196
0.0251639
0.0187305
0.0306747
0.0155615
0.0271439
0.018462
0.0218659
0.0267157
0.0145682
0.0282645
0.0162797
0.0248386
0.022792
0.0195163
0.0278435
0.0155317
0.0273459
0.0204055
0.0252674
0.0237769
0.0195416
0.0275328
0.0167364
0.0293638
0.0237322
0.0267713
0.026859
0.0223993
0.0276374
0.0189026
0.0284873
0.0227628
0.0288016
0.0253679
0.0260569
0.0274919
0.020237
0.0289057
0.0227022
0.0294146
0.0226183
0.0252591
0.0235097
0.024632
0.0273152
0.0223886
0.0292293
0.0212964
0.0266977
0.0186874
0.0241248
0.0216646
0.0229497
0.0250465
0.0193959
0.0271238
0.0194635
0.0262329
0.0206575
0.0271961
0.023349
0.0241184
0.0251278
0.0202564
0.0292257
0.0229412
0.0279249
0.0209113
0.0277949
0.0242495
0.026879
0.0266322
0.0248857
0.0278884
0.0235834
0.0271199
0.0205871
0.0269784
0.0234375
0.0274863
0.0219777
0.0255303
0.0235079
0.0244351
0.0259728
0.0199273
0.0280658
0.0220955
0.0289822
0.0220505
0.0275682
0.0245691
0.0256561
0.027296
0.022976
0.0259838
0.0222185
0.0237525
0.0227676
0.0266586
0.0231021
0.028562
0.0247067
0.0276184
0.0255282
0.026715
0.027286
0.02436
0.0264179
0.0212691
0.0257055
0.0238584
0.0269344
0.024124
0.0286982
0.0256866
0.0277107
0.0264162
0.0245901
0.0255431
0.0213596
0.0271987
0.0238078
0.0273224
0.0224036
0.0263097
0.0240521
0.0273146
0.0270999
0.0262073
0.0273117
0.0249037
0.0264644
0.023434
0.0276172
0.0227625
0.026755
0.0250743
0.0281221
0.0245999
0.0270029
0.0258539
0.0248858
0.0252316
0.0235972
0.0263751
0.0237292
0.0270605
0.0252762
0.0273065
0.0245409
0.0274574
0.0232961
0.0199088
0.0223109
0.0229594
0.0232101
0.0243409
0.024023
0.0269619
0.0252645
0.0367622
0.0659631
0.0547273
0.0290475
0.0253037
0.0457228
0.0704376
0.0777443
0.0777712
0.075762
0.0733601
0.071026
0.068837
0.0668366
0.0650512
0.0634261
0.0619602
0.0606353
0.0594487
0.0583732
0.0573818
0.0564725
0.0556343
0.0548665
0.0541466
0.0534709
0.052837
0.0522445
0.0516891
0.0511661
0.0506708
0.0502022
0.0497584
0.0493381
0.0489387
0.0485572
0.0481933
0.047845
0.0475129
0.0471947
0.0468897
0.0465961
0.0463138
0.0460422
0.045781
0.0455292
0.0452861
0.045051
0.044824
0.0446039
0.0443918
0.0441855
0.0439865
0.0437921
0.0436048
0.0434215
0.043245
0.0430719
0.0429052
0.0427412
0.0425834
0.0424277
0.042278
0.0421293
0.0419872
0.0418457
0.041711
0.0415763
0.0414487
0.0413206
0.0411999
0.041078
0.0409638
0.040848
0.0407404
0.0406309
0.0405301
0.0404271
0.0403335
0.0402375
0.0401516
0.0400638
0.0399867
0.0399084
0.0398419
0.0397755
0.0397217
0.0396703
0.0396315
0.0396022
0.0395826
0.0395766
0.0395854
0.0396204
0.0396642
0.0397581
0.0398605
0.0400466
0.0402416
0.0405913
0.0409557
0.0416229
0.0425582
0.0437417
0.0400964
0.0363087
0.0315687
0.0279444
0.0263289
0.0253551
0.0249036
0.0246113
0.0246874
0.0247467
0.0256468
0.0251742
0.0264583
0.0256123
0.0251124
0.0258112
0.0253087
0.0267679
0.0247866
0.0255789
0.0251496
0.0230066
0.0241331
0.0238014
0.0257502
0.0242311
0.0246044
0.025262
0.0240009
0.0245724
0.0234628
0.02496
0.0235504
0.0238773
0.0246142
0.0236238
0.0246544
0.02382
0.0259486
0.0236667
0.0233682
0.023884
0.0229615
0.0242642
0.0227837
0.0235499
0.0237845
0.0228069
0.0240516
0.0237822
0.0254898
0.0236705
0.0242295
0.0246824
0.0237914
0.0247852
0.0245447
0.026134
0.0250948
0.0256176
0.0264754
0.0258146
0.026555
0.0261014
0.0272878
0.0259003
0.0267069
0.027032
0.02699
0.0274848
0.0264419
0.0270549
0.0266157
0.0280137
0.026971
0.0267957
0.0265804
0.0262539
0.0268438
0.0264111
0.027037
0.0264432
0.0274071
0.0257646
0.0252872
0.0249951
0.0246756
0.0251325
0.0243531
0.0250966
0.0246801
0.0260054
0.0248628
0.0254061
0.0254225
0.0252194
0.0256348
0.0247182
0.0255499
0.025806
0.027161
0.0261074
0.0265262
0.0263992
0.0266293
0.0270914
0.0266272
0.0273358
0.0271732
0.027465
0.0265322
0.0275197
0.0264681
0.0269557
0.0264206
0.0261662
0.0260536
0.0257881
0.0262284
0.0253506
0.0260449
0.0257149
0.0271745
0.02615
0.0265402
0.026541
0.0264196
0.0269016
0.0263191
0.0267247
0.026428
0.0265333
0.0261607
0.0266179
0.0261761
0.0270797
0.0267367
0.0271892
0.027273
0.0273028
0.0276623
0.027179
0.0274206
0.0268084
0.0271619
0.0263314
0.026821
0.0266875
0.0273153
0.0273631
0.0276288
0.0276838
0.0271985
0.0273389
0.0265893
0.0270715
0.0262987
0.0271706
0.0263935
0.026674
0.0264322
0.0266502
0.0272354
0.0270946
0.0276132
0.0274114
0.0276244
0.027364
0.0276624
0.0266411
0.0272053
0.027012
0.0273091
0.0273656
0.0273648
0.0273227
0.0268844
0.0271662
0.0266727
0.0269127
0.0268161
0.0273738
0.0269677
0.0275473
0.0272797
0.0276711
0.0272483
0.0257497
0.0256709
0.0252494
0.0253109
0.0254554
0.0257812
0.0261219
0.0268524
0.027741
0.0302363
0.0378206
0.0399209
0.0395246
0.0346629
0.0150988
0.0289288
0.0427709
0.051652
0.0566799
0.0589914
0.0597322
0.0594858
0.0588412
0.0580294
0.0571558
0.0562923
0.0554563
0.0546683
0.0539162
0.0531954
0.0525182
0.0518831
0.0512901
0.0507256
0.0501893
0.0496818
0.0492041
0.0487523
0.0483214
0.0479101
0.047518
0.0471453
0.0467905
0.0464507
0.0461242
0.0458113
0.0455109
0.0452236
0.0449473
0.0446808
0.0444237
0.0441757
0.0439367
0.0437063
0.0434835
0.0432678
0.0430586
0.0428562
0.0426599
0.0424703
0.0422855
0.0421066
0.041932
0.0417629
0.0415979
0.0414383
0.041282
0.0411307
0.0409821
0.0408385
0.0406972
0.0405608
0.0404259
0.0402959
0.0401671
0.0400432
0.0399203
0.0398025
0.0396853
0.0395732
0.0394614
0.0393549
0.0392483
0.0391472
0.039046
0.0389506
0.0388547
0.038765
0.038675
0.0385913
0.0385077
0.0384309
0.0383546
0.0382857
0.0382182
0.0381587
0.038102
0.0380531
0.03801
0.0379768
0.0379512
0.037935
0.0379332
0.0379413
0.0379768
0.0380249
0.0381124
0.0382194
0.0383965
0.0386129
0.0388979
0.0396241
0.0389887
0.0341325
0.0396154
0.0369794
0.0331336
0.0310448
0.0293691
0.0282701
0.0276852
0.0269859
0.0271591
0.0272302
0.0257171
0.0278598
0.025936
0.0257836
0.0264422
0.0251946
0.0277929
0.0248958
0.0270932
0.0244522
0.0234757
0.0255935
0.0239709
0.0268553
0.0239935
0.0260362
0.0250062
0.023709
0.0252956
0.0237307
0.0268171
0.0239427
0.0252045
0.0245033
0.0234841
0.0252212
0.0234608
0.0269803
0.0232261
0.0247491
0.0244758
0.0227648
0.0251866
0.0229535
0.025604
0.0239623
0.0231648
0.0246482
0.0233129
0.0264316
0.0237705
0.0254199
0.024531
0.0238728
0.0253563
0.0242023
0.027478
0.024721
0.0259354
0.025839
0.0252983
0.0264633
0.0255974
0.0279023
0.0257844
0.0275204
0.0262257
0.0266625
0.0269258
0.0259832
0.027487
0.0264936
0.0282294
0.0258532
0.0273438
0.0265334
0.0266531
0.0268494
0.0261532
0.0272136
0.0259709
0.0275199
0.025187
0.0271142
0.0254535
0.0254965
0.0255099
0.0245166
0.0258548
0.0248556
0.0267311
0.0246365
0.0265293
0.0248733
0.0252168
0.0253694
0.0245739
0.0259556
0.0253512
0.0266964
0.0251624
0.0274576
0.0257762
0.026709
0.0264091
0.0260624
0.0267542
0.0263899
0.0271501
0.0263515
0.0280794
0.0261371
0.0273626
0.0254775
0.0268874
0.0258339
0.025956
0.0260516
0.0251571
0.0265181
0.0256401
0.0273655
0.0251003
0.0271885
0.0257961
0.0261807
0.0263141
0.0256967
0.0264732
0.0259834
0.0265546
0.0262809
0.027012
0.026035
0.0273566
0.0258392
0.0270599
0.0263072
0.026785
0.026818
0.0264183
0.0269018
0.0262858
0.0274164
0.0263086
0.026948
0.0260282
0.0273971
0.0262816
0.0271233
0.0266118
0.0264432
0.0267383
0.0261538
0.0270147
0.0261398
0.0269321
0.0255252
0.0270257
0.0258903
0.0268081
0.0264162
0.0262223
0.0266255
0.0264358
0.0268868
0.0266396
0.0271881
0.0261476
0.0274955
0.0264059
0.0271664
0.0260856
0.0270999
0.0264225
0.0262792
0.0265707
0.0262531
0.0266499
0.0263186
0.0270495
0.0264084
0.0270821
0.0262805
0.0273154
0.0260029
0.0257533
0.0262527
0.025918
0.0256309
0.0257938
0.0256638
0.0262924
0.0261139
0.0278202
0.0282424
0.0287376
0.0307504
0.0352014
0.0339381
0.00552737
0.0118407
0.0195543
0.0283668
0.0361684
0.0420775
0.0462296
0.0486715
0.0500084
0.0506173
0.0507638
0.0506554
0.0504099
0.0500931
0.0497268
0.0493359
0.0489385
0.048543
0.0481533
0.0477653
0.0473855
0.0470182
0.0466659
0.0463256
0.0459942
0.0456731
0.0453633
0.0450661
0.0447803
0.0445031
0.0442343
0.0439747
0.0437241
0.0434831
0.0432497
0.0430229
0.042803
0.0425899
0.042384
0.0421846
0.0419908
0.0418024
0.0416192
0.0414413
0.0412685
0.0411009
0.0409373
0.0407781
0.0406227
0.0404716
0.0403241
0.040181
0.0400407
0.0399043
0.0397704
0.0396404
0.0395128
0.0393891
0.0392669
0.0391483
0.0390311
0.0389176
0.0388054
0.0386971
0.0385898
0.0384862
0.0383835
0.0382846
0.0381863
0.038092
0.0379984
0.0379087
0.0378196
0.0377346
0.0376502
0.0375702
0.037491
0.0374164
0.037343
0.0372745
0.0372077
0.0371466
0.0370877
0.037035
0.0369835
0.0369432
0.0369075
0.0368774
0.0368535
0.0368413
0.0368412
0.0368557
0.0368858
0.0369374
0.037017
0.0371349
0.0372277
0.0377302
0.0367848
0.0320119
0.0381666
0.0385451
0.0362382
0.0341636
0.0323415
0.0309362
0.0301985
0.0290695
0.0291931
0.0289018
0.0271449
0.0285784
0.0270269
0.0266597
0.0271989
0.0258522
0.0278682
0.0259899
0.0278251
0.0252768
0.0241983
0.0262693
0.0248226
0.0269941
0.0250603
0.0267895
0.0255943
0.0242901
0.0257373
0.0244242
0.0270785
0.02511
0.0261339
0.0251879
0.0241531
0.0256671
0.0240955
0.0267573
0.0242606
0.0253807
0.0252919
0.0235274
0.0256559
0.0240326
0.0264829
0.0249397
0.0240779
0.0253268
0.0238849
0.0263281
0.0248318
0.0261441
0.0252445
0.0245554
0.0258675
0.0246989
0.0274048
0.0255932
0.0263667
0.0261228
0.0256021
0.0265992
0.0257997
0.0276799
0.0264615
0.0279277
0.0266001
0.0267443
0.0269709
0.0261798
0.0276214
0.0268477
0.0280465
0.026232
0.0274455
0.0269297
0.0270179
0.027179
0.0264864
0.0273806
0.0263572
0.0273259
0.0255963
0.0276551
0.026296
0.0261585
0.0261375
0.0251767
0.0263499
0.0254605
0.0268573
0.0254119
0.0270142
0.0254165
0.0254548
0.0256056
0.0249576
0.0262121
0.025605
0.026432
0.0254125
0.0274678
0.0261034
0.0267358
0.0264211
0.0261222
0.0266387
0.0262914
0.026991
0.0264726
0.0278862
0.0265793
0.0274258
0.0257362
0.0270524
0.0262122
0.0262215
0.026279
0.0254781
0.0267226
0.0259796
0.0271849
0.0255502
0.0272064
0.0259944
0.0261488
0.0262795
0.0257241
0.026383
0.0259725
0.0265301
0.0264791
0.0271475
0.0263561
0.0274004
0.0260906
0.0269184
0.0262502
0.0265686
0.0266015
0.0262577
0.0266659
0.0261861
0.0271611
0.0265385
0.0270793
0.0262057
0.0273127
0.0262442
0.0267796
0.0263475
0.0261769
0.0264367
0.0260433
0.0268341
0.0262125
0.0266754
0.0256353
0.0268849
0.0260187
0.0268473
0.0262481
0.0260017
0.026243
0.0260796
0.0264866
0.0263333
0.0268292
0.0261604
0.0272672
0.0264249
0.0270242
0.0258934
0.0267564
0.0262099
0.0260829
0.0263195
0.0261386
0.0265121
0.0262137
0.0267583
0.02635
0.0267698
0.0261218
0.0268639
0.0256578
0.025795
0.0264136
0.0263187
0.025998
0.0261822
0.0258326
0.0265693
0.0259964
0.0279041
0.0282366
0.0257148
0.0263561
0.030345
0.0315729
0.00217495
0.00492548
0.00829336
0.0131587
0.0193435
0.0257944
0.0314845
0.0360825
0.0395228
0.0418796
0.0434073
0.0443526
0.0449217
0.0452394
0.0453645
0.045368
0.0452962
0.0451751
0.0450175
0.0448354
0.044637
0.0444299
0.0442189
0.0440034
0.0437841
0.0435646
0.0433472
0.043134
0.0429243
0.0427162
0.0425112
0.0423105
0.0421145
0.0419242
0.0417372
0.0415536
0.0413741
0.0411989
0.0410286
0.0408625
0.0406998
0.0405407
0.0403851
0.0402334
0.0400855
0.0399413
0.0397999
0.0396617
0.0395264
0.0393943
0.0392652
0.0391393
0.0390156
0.0388949
0.0387762
0.0386605
0.0385469
0.0384363
0.0383271
0.0382206
0.0381154
0.038013
0.0379118
0.0378136
0.0377165
0.0376221
0.0375287
0.0374381
0.0373485
0.0372618
0.0371759
0.037093
0.0370108
0.0369316
0.0368534
0.0367782
0.0367041
0.0366333
0.0365638
0.0364977
0.0364333
0.0363729
0.0363142
0.0362609
0.0362062
0.0361613
0.0361206
0.0360833
0.0360464
0.0360222
0.0360009
0.0359937
0.03599
0.0360054
0.0360281
0.0360805
0.0360713
0.0364064
0.0354394
0.0311788
0.0358871
0.037998
0.0375667
0.036055
0.0344646
0.0330073
0.0322052
0.0308633
0.0308983
0.0304391
0.0285739
0.029259
0.0281654
0.0276724
0.0280375
0.0267116
0.0281189
0.0269396
0.0282354
0.0263431
0.025147
0.026896
0.0257274
0.0271615
0.0260697
0.0273293
0.0264333
0.0251763
0.0263063
0.0252012
0.0271285
0.026094
0.0268387
0.0260896
0.0250841
0.0262686
0.0249092
0.026651
0.0252514
0.0259542
0.0261081
0.0245101
0.0262285
0.0250847
0.026943
0.0259959
0.0251824
0.0261482
0.0247486
0.026494
0.0257474
0.0267029
0.0261392
0.0254631
0.0265152
0.0254327
0.0273708
0.0264342
0.0268875
0.0267425
0.0262265
0.0269967
0.0262673
0.0276786
0.0270517
0.0281516
0.0272116
0.0271622
0.0273002
0.0266197
0.0278549
0.0272891
0.0280306
0.0268459
0.0275712
0.0273601
0.0274434
0.027599
0.0269822
0.027677
0.0268553
0.0274021
0.0261805
0.0277536
0.0270079
0.0268294
0.02679
0.0259297
0.0268706
0.0261214
0.0270395
0.0261711
0.0273007
0.0261413
0.0259846
0.0260684
0.0255264
0.0265765
0.0260522
0.026542
0.0258915
0.0273364
0.0265439
0.0269076
0.0267168
0.0264396
0.026806
0.0264784
0.0270427
0.0266897
0.0277256
0.0269957
0.0274732
0.0262869
0.0271347
0.0266643
0.0266164
0.0266383
0.0259443
0.0269848
0.0263953
0.0271435
0.0261104
0.0271755
0.0263964
0.0263927
0.0264799
0.0259918
0.0264965
0.0261454
0.0266197
0.0266937
0.0272518
0.0267176
0.0274464
0.0265072
0.026944
0.0264973
0.0266371
0.0266488
0.026345
0.0266493
0.0262626
0.0270188
0.0267241
0.0271453
0.0265163
0.0272851
0.0264609
0.02669
0.0263812
0.0261798
0.0263599
0.0260757
0.0267729
0.0263375
0.0265949
0.0258954
0.0267225
0.0262412
0.0268506
0.0263531
0.0260707
0.0261792
0.0260114
0.0263303
0.0262277
0.0266553
0.0262381
0.0270174
0.0265345
0.0269207
0.0260537
0.026539
0.0262187
0.0260931
0.0262651
0.0261573
0.0264859
0.026247
0.0266478
0.0263931
0.0266271
0.0261867
0.0266119
0.0256901
0.0258219
0.0264563
0.0265357
0.0263093
0.026505
0.0260924
0.0268098
0.0261386
0.0279525
0.0283743
0.0251197
0.0246406
0.0271355
0.0291479
0.00094526
0.00212323
0.00355461
0.005596
0.00881313
0.0133281
0.0185137
0.0234862
0.0279092
0.0316382
0.0345925
0.0368081
0.0384135
0.0395639
0.0403622
0.0409099
0.0412766
0.0415172
0.04166
0.0417234
0.0417358
0.0417128
0.0416621
0.0415889
0.0414993
0.0413969
0.0412852
0.0411674
0.0410437
0.0409143
0.0407819
0.040648
0.0405137
0.04038
0.0402452
0.0401102
0.0399761
0.0398434
0.0397127
0.0395836
0.0394555
0.0393289
0.039204
0.0390812
0.0389609
0.0388424
0.0387254
0.0386103
0.0384969
0.0383857
0.0382766
0.0381696
0.038064
0.0379603
0.0378581
0.0377581
0.0376596
0.0375634
0.0374681
0.0373747
0.0372824
0.037192
0.0371027
0.0370156
0.0369294
0.0368452
0.0367618
0.0366805
0.0366001
0.0365218
0.0364444
0.0363692
0.0362947
0.0362223
0.0361509
0.0360816
0.0360136
0.0359477
0.0358831
0.035821
0.0357601
0.0357024
0.0356457
0.0355936
0.0355395
0.0354918
0.035449
0.0354087
0.0353649
0.0353336
0.0352994
0.0352779
0.0352531
0.0352442
0.0352313
0.0352386
0.0351743
0.0353835
0.0344733
0.0307325
0.0339946
0.0365271
0.0375036
0.0369138
0.0358265
0.0345077
0.0337181
0.0323358
0.032273
0.0317341
0.0298616
0.030045
0.0291857
0.0286643
0.0288701
0.0275861
0.0285497
0.0277488
0.0286026
0.0272877
0.0261436
0.0275455
0.0265804
0.0275076
0.0269004
0.0278068
0.0272427
0.0261081
0.0269481
0.0259719
0.0273386
0.0268476
0.0274163
0.0269336
0.0260297
0.0269296
0.0257255
0.026843
0.0260575
0.0265772
0.0268573
0.0254871
0.026872
0.0260313
0.0273564
0.0269094
0.0262507
0.0269877
0.0256636
0.0269111
0.0265463
0.0272585
0.0269628
0.0263823
0.0272058
0.0262119
0.0275975
0.027145
0.0274689
0.0273967
0.0269303
0.0275088
0.0268258
0.0278886
0.0275709
0.0283659
0.0277938
0.0276861
0.027741
0.0271403
0.0281683
0.0277377
0.0282075
0.027412
0.0278283
0.0277668
0.0278762
0.028027
0.0274949
0.0280266
0.0273432
0.0276471
0.0267739
0.0278482
0.0275206
0.0274207
0.0273893
0.026645
0.0273884
0.0267498
0.0273472
0.0268128
0.0275662
0.0268097
0.0265956
0.0266097
0.0261415
0.026997
0.026543
0.0268274
0.0263838
0.0273469
0.0269444
0.0271881
0.0270737
0.0268369
0.0270952
0.0267802
0.0272126
0.0269455
0.0277053
0.0273188
0.0275941
0.0267964
0.0272936
0.0270539
0.0270231
0.0270234
0.0264254
0.027281
0.026803
0.0272672
0.0265881
0.0272441
0.0267788
0.0267317
0.0267746
0.02634
0.0267131
0.0263937
0.0267792
0.0269093
0.027367
0.0270328
0.0275278
0.0268896
0.0270967
0.0267882
0.0268344
0.0268097
0.0265329
0.0267468
0.0264153
0.0270027
0.0268803
0.0271979
0.0267952
0.0273039
0.0267097
0.0267622
0.026507
0.0262963
0.0264027
0.0261744
0.0267764
0.0264659
0.0266126
0.0261347
0.0266599
0.0264204
0.026854
0.0265212
0.0262405
0.0262566
0.0260754
0.0263072
0.0262236
0.0265836
0.0263163
0.026863
0.026614
0.0268499
0.0262487
0.0264929
0.0262858
0.0261799
0.0263024
0.0262325
0.0265132
0.0263243
0.0266263
0.02646
0.0265851
0.0262817
0.0265163
0.02584
0.0258658
0.026461
0.0266448
0.0265388
0.0267228
0.0263611
0.0269858
0.0263753
0.0279188
0.0283578
0.0251558
0.0241104
0.0253464
0.0272653
0.000496869
0.000983905
0.00159441
0.00241849
0.00373159
0.00589048
0.0091496
0.0131641
0.0173652
0.0213351
0.0249341
0.028064
0.0306657
0.0327748
0.0343984
0.03564
0.0365818
0.0372994
0.0378399
0.0382363
0.0385286
0.038743
0.0388958
0.0389974
0.0390584
0.0390895
0.0390974
0.039087
0.0390602
0.0390207
0.0389711
0.0389129
0.0388482
0.0387781
0.0387021
0.038622
0.038539
0.0384541
0.0383678
0.03828
0.0381905
0.0381003
0.0380097
0.0379193
0.0378295
0.0377396
0.0376496
0.0375601
0.0374711
0.037383
0.037296
0.0372098
0.037124
0.0370392
0.0369551
0.0368723
0.0367904
0.0367099
0.0366298
0.0365508
0.0364724
0.0363953
0.036319
0.0362441
0.0361698
0.0360967
0.0360242
0.0359532
0.0358829
0.035814
0.0357459
0.0356792
0.0356132
0.0355485
0.0354848
0.0354225
0.0353612
0.0353015
0.0352427
0.0351857
0.0351296
0.0350758
0.0350227
0.0349731
0.0349219
0.0348738
0.0348303
0.0347895
0.0347433
0.034708
0.0346662
0.0346355
0.0345973
0.0345719
0.0345358
0.0345113
0.034418
0.0345324
0.0336933
0.0304131
0.0326238
0.0349434
0.0365584
0.0369187
0.0364671
0.0354625
0.0347652
0.033475
0.0333192
0.0327602
0.0309632
0.030833
0.0300764
0.0295662
0.0296432
0.0284064
0.0290688
0.0284577
0.0290143
0.0280748
0.0270817
0.0281921
0.0273604
0.027973
0.0276121
0.0282877
0.0279481
0.0269797
0.0275958
0.0267034
0.0276849
0.0274719
0.027942
0.027655
0.0268952
0.0275796
0.0264919
0.0272189
0.0267499
0.0271937
0.0275309
0.0263878
0.0275284
0.0268771
0.0278292
0.027677
0.0272064
0.0277798
0.0265445
0.0274558
0.0272733
0.027835
0.0276948
0.0272353
0.0278823
0.0269682
0.0279888
0.0277792
0.0280523
0.0280195
0.0276188
0.0280526
0.0274014
0.0282174
0.0280506
0.0286366
0.0282975
0.028208
0.0282079
0.0276704
0.0285206
0.0281707
0.0284799
0.02791
0.0281569
0.0281524
0.0282875
0.0284314
0.0279757
0.0283849
0.0277935
0.0279561
0.0273139
0.0280266
0.0279221
0.0279224
0.0279144
0.0272842
0.0278769
0.0273225
0.0277222
0.0273643
0.0278736
0.0273746
0.0271845
0.0271523
0.026741
0.0274318
0.0270267
0.0271843
0.02685
0.0275012
0.027305
0.0275046
0.0274346
0.0272411
0.027426
0.0271204
0.0274435
0.0272169
0.0277934
0.0275873
0.0277626
0.0272158
0.0275233
0.0273939
0.0273985
0.0273898
0.0268753
0.0275812
0.0271786
0.0274734
0.0269899
0.0274092
0.0271159
0.0270786
0.0270915
0.0267005
0.0269725
0.0266683
0.0269765
0.0271222
0.0274998
0.0272967
0.0276457
0.0272052
0.0272988
0.0270667
0.0270709
0.0270149
0.0267566
0.0268999
0.0265999
0.0270604
0.0270223
0.0272646
0.0270175
0.0273545
0.0269303
0.0268981
0.0266642
0.0264543
0.026504
0.0263033
0.0268189
0.0265875
0.0266752
0.0263338
0.0266843
0.0265665
0.026888
0.0266727
0.026425
0.0263877
0.0261962
0.0263557
0.0262738
0.0265722
0.0263899
0.0267918
0.0266706
0.0268177
0.0264059
0.0265267
0.0263733
0.0262894
0.0263782
0.0263275
0.0265651
0.0264118
0.0266463
0.0265293
0.0265936
0.0263714
0.0264992
0.0259995
0.0259407
0.0264671
0.0267029
0.0266946
0.0268617
0.0266019
0.0271075
0.0266278
0.0278642
0.0282656
0.0253313
0.0240692
0.024486
0.0260113
0.00034182
0.000534352
0.000789554
0.00112399
0.0016322
0.00248552
0.00393219
0.0061872
0.00918271
0.012617
0.0161043
0.0193696
0.0223779
0.0250852
0.0274198
0.0293893
0.0310051
0.0323057
0.0333507
0.0341797
0.0348379
0.0353613
0.0357784
0.0361079
0.0363652
0.0365667
0.0367243
0.0368458
0.0369354
0.0369988
0.0370423
0.0370687
0.0370816
0.037082
0.0370724
0.0370541
0.0370285
0.0369969
0.03696
0.0369182
0.0368719
0.0368224
0.03677
0.0367156
0.0366595
0.0366013
0.0365412
0.0364802
0.0364182
0.0363557
0.036293
0.0362297
0.0361657
0.0361018
0.0360376
0.0359738
0.0359101
0.0358468
0.0357832
0.0357201
0.035657
0.0355944
0.0355322
0.0354707
0.0354093
0.0353485
0.035288
0.0352282
0.0351689
0.0351105
0.0350525
0.0349953
0.0349385
0.0348826
0.0348273
0.034773
0.0347193
0.0346666
0.0346146
0.0345637
0.0345134
0.0344647
0.0344163
0.0343705
0.0343234
0.0342775
0.034234
0.0341944
0.0341492
0.0341122
0.0340663
0.0340299
0.0339836
0.0339469
0.0338954
0.0338482
0.0337409
0.0337826
0.033012
0.0301344
0.0316295
0.0335692
0.0352865
0.0362835
0.036478
0.0358959
0.0353792
0.0342787
0.0340482
0.0335136
0.0318597
0.0315468
0.0308349
0.0303488
0.0303269
0.0291429
0.0295955
0.0290827
0.0294538
0.0287388
0.0279201
0.0288046
0.0280619
0.0284766
0.0282372
0.0287682
0.0285592
0.0277561
0.0282098
0.027381
0.0281012
0.0280184
0.0284278
0.028267
0.0276538
0.0281834
0.0271905
0.0276763
0.0273675
0.0277749
0.0281312
0.0271943
0.0281602
0.0276316
0.028341
0.0283406
0.0280361
0.0284973
0.0273598
0.0280446
0.0279433
0.0284007
0.0283454
0.0279995
0.0285147
0.0276756
0.0284546
0.0283608
0.0286074
0.0285928
0.0282564
0.0285831
0.0279591
0.0285972
0.0285012
0.0289525
0.0287406
0.0286905
0.0286595
0.028176
0.028882
0.0285791
0.0287875
0.0283493
0.0285038
0.0285152
0.0286652
0.0288001
0.0284091
0.028728
0.0282006
0.0282793
0.0277849
0.0282719
0.028268
0.0283468
0.0283656
0.0278406
0.0283237
0.0278343
0.0281092
0.0278456
0.0282089
0.0278578
0.0277159
0.0276588
0.0272965
0.0278541
0.027483
0.0275597
0.0272823
0.0277436
0.0276412
0.027822
0.0277777
0.0276227
0.0277578
0.0274616
0.0276994
0.0274899
0.0279385
0.027824
0.0279485
0.0275607
0.0277692
0.0276929
0.0277292
0.0277197
0.0272771
0.0278665
0.0275152
0.0277052
0.0273322
0.0276164
0.0274134
0.0274
0.0273959
0.0270427
0.0272401
0.0269437
0.0271886
0.0273291
0.0276435
0.0275199
0.0277806
0.0274634
0.0275065
0.0273187
0.027306
0.0272283
0.0269845
0.0270749
0.0267936
0.0271581
0.0271566
0.0273458
0.0271943
0.0274247
0.0271118
0.0270465
0.0268246
0.0266199
0.026629
0.0264428
0.0268831
0.0267004
0.0267546
0.0264984
0.0267474
0.0266901
0.0269401
0.0267992
0.0265926
0.02653
0.0263348
0.026439
0.0263513
0.0265963
0.0264603
0.0267684
0.0267145
0.0268129
0.0265234
0.0265882
0.0264639
0.0263987
0.0264654
0.0264244
0.0266257
0.0264962
0.0266832
0.0265934
0.0266233
0.0264495
0.0265172
0.026135
0.0260351
0.0264857
0.0267385
0.0267968
0.0269534
0.0267953
0.0271917
0.0268591
0.0278284
0.0281639
0.0255165
0.0242141
0.0241459
0.02525
0.000285607
0.000365887
0.000469264
0.000604524
0.000799959
0.00111715
0.00166664
0.00261186
0.0041113
0.00626658
0.00895157
0.0118791
0.014834
0.0175885
0.0201645
0.0225384
0.0246524
0.0264935
0.0280843
0.029407
0.0305044
0.0314144
0.0321684
0.0327903
0.0333014
0.0337232
0.0340719
0.0343607
0.0345982
0.034792
0.0349511
0.0350809
0.0351871
0.0352718
0.0353373
0.035388
0.0354259
0.0354532
0.0354706
0.0354798
0.0354816
0.0354773
0.0354672
0.0354525
0.0354335
0.0354102
0.0353834
0.0353538
0.0353215
0.0352873
0.0352512
0.0352131
0.0351732
0.0351321
0.0350898
0.0350468
0.035003
0.0349586
0.0349131
0.0348673
0.0348208
0.0347742
0.0347274
0.0346805
0.0346331
0.0345857
0.0345382
0.0344908
0.0344435
0.0343965
0.0343496
0.0343028
0.0342562
0.0342099
0.0341639
0.0341184
0.0340732
0.0340284
0.033984
0.0339401
0.0338965
0.0338539
0.0338112
0.0337703
0.0337282
0.0336866
0.0336444
0.033607
0.0335648
0.0335279
0.0334806
0.0334412
0.0333904
0.0333461
0.0332844
0.033221
0.0331084
0.0330925
0.0323849
0.0298562
0.0308963
0.0324602
0.0340275
0.0353018
0.0359701
0.0358656
0.0356033
0.0347538
0.0344872
0.034005
0.032542
0.0321386
0.0314565
0.0309993
0.0309048
0.0297816
0.0300867
0.0296293
0.0298775
0.0293022
0.0286469
0.029361
0.0286828
0.0289679
0.0287888
0.0292211
0.0290859
0.0284293
0.02877
0.027996
0.0285363
0.0285065
0.0288692
0.0287852
0.0283035
0.0287266
0.0278159
0.0281474
0.0279245
0.028307
0.0286631
0.0279052
0.0287456
0.0283014
0.0288548
0.0289221
0.0287459
0.0291334
0.0280979
0.0286285
0.0285582
0.0289359
0.0289237
0.0286711
0.02909
0.028323
0.0289378
0.0288949
0.0291196
0.0291107
0.0288302
0.0290768
0.0284814
0.0289879
0.0289234
0.0292799
0.0291358
0.029122
0.0290757
0.0286409
0.0292327
0.0289575
0.0290987
0.0287387
0.0288413
0.0288515
0.0290044
0.0291283
0.0287914
0.0290438
0.0285649
0.0285931
0.0281934
0.0285435
0.0285779
0.0287062
0.0287493
0.0283177
0.028723
0.0282864
0.0284796
0.0282683
0.0285382
0.0282744
0.0281804
0.0281138
0.0277961
0.028249
0.0279026
0.027926
0.0276781
0.0280169
0.0279546
0.0281236
0.0280938
0.0279704
0.0280713
0.0277851
0.0279576
0.0277542
0.0281091
0.0280386
0.028135
0.0278485
0.0280051
0.027955
0.0280131
0.0280068
0.0276263
0.0281265
0.0278122
0.0279347
0.0276264
0.0278289
0.0276747
0.027684
0.0276721
0.0273531
0.0274965
0.0272063
0.0274007
0.027526
0.0277888
0.0277117
0.0279169
0.0276773
0.0277004
0.0275408
0.027522
0.0274306
0.0271994
0.0272513
0.0269832
0.0272745
0.0272848
0.0274346
0.0273385
0.0275019
0.0272586
0.0271847
0.026974
0.0267775
0.0267586
0.026581
0.0269573
0.0268039
0.0268372
0.026635
0.026823
0.0267957
0.0269975
0.0269028
0.0267349
0.0266639
0.0264707
0.0265345
0.0264391
0.0266388
0.0265274
0.0267714
0.0267516
0.0268223
0.026611
0.0266525
0.0265474
0.0264972
0.0265501
0.0265142
0.0266855
0.0265717
0.026724
0.0266493
0.026659
0.026515
0.0265482
0.0262443
0.0261321
0.0265147
0.026764
0.0268632
0.0270151
0.0269403
0.0272547
0.0270522
0.0278153
0.0280786
0.0256808
0.0244177
0.0240807
0.0248259
0.000263423
0.000299149
0.000345476
0.00040044
0.000476536
0.000593312
0.00078933
0.00113481
0.00173123
0.0027079
0.00418143
0.00616559
0.00855404
0.0110673
0.0136065
0.0160033
0.0182437
0.0203375
0.0222626
0.0239827
0.0255048
0.0268329
0.0279651
0.02893
0.0297515
0.0304476
0.0310371
0.0315382
0.0319638
0.0323237
0.0326291
0.032889
0.033111
0.0333001
0.0334589
0.0335938
0.0337081
0.0338052
0.0338866
0.033954
0.0340091
0.0340545
0.0340907
0.0341195
0.0341408
0.0341562
0.0341659
0.0341709
0.0341713
0.0341679
0.0341608
0.0341503
0.0341367
0.0341207
0.0341023
0.0340821
0.03406
0.0340361
0.0340103
0.0339834
0.0339551
0.0339259
0.0338957
0.0338646
0.0338325
0.0337997
0.0337663
0.0337324
0.0336982
0.0336636
0.0336286
0.0335933
0.0335577
0.0335219
0.0334861
0.0334503
0.0334144
0.0333784
0.0333423
0.0333064
0.0332703
0.0332348
0.0331987
0.0331637
0.0331273
0.0330912
0.0330522
0.0330176
0.0329797
0.0329443
0.0328977
0.0328574
0.0328047
0.0327557
0.0326873
0.0326126
0.0324987
0.032437
0.0317876
0.0295608
0.0303188
0.0315726
0.032912
0.0342234
0.0351381
0.0354449
0.0354708
0.0349131
0.0346594
0.0342504
0.0330043
0.0325803
0.031936
0.0315116
0.0313694
0.0303167
0.0305189
0.0300983
0.0302595
0.0297768
0.029262
0.0298491
0.0292226
0.0294205
0.029271
0.0296293
0.0295339
0.0290012
0.029265
0.028543
0.0289568
0.028941
0.0292613
0.029222
0.0288506
0.0292011
0.0283661
0.0285989
0.0284216
0.0287875
0.0291295
0.0285236
0.029272
0.0288895
0.0293403
0.0294299
0.029348
0.0296931
0.0287545
0.0291783
0.0291142
0.0294302
0.0294344
0.0292541
0.0296057
0.0289061
0.0294049
0.0293793
0.0295813
0.0295716
0.0293367
0.0295233
0.02896
0.0293676
0.0293145
0.029598
0.0294892
0.0295013
0.0294489
0.0290582
0.0295603
0.0293023
0.0293957
0.0290834
0.0291547
0.0291579
0.0293045
0.0294159
0.0291237
0.0293268
0.0288876
0.0288851
0.028548
0.0288109
0.0288569
0.029011
0.0290732
0.0287229
0.0290726
0.0286807
0.0288189
0.0286388
0.0288436
0.0286346
0.0285792
0.0285126
0.0282361
0.0286078
0.0282809
0.0282684
0.0280367
0.0282917
0.0282438
0.0284008
0.0283787
0.0282799
0.0283564
0.0280817
0.0282049
0.0280034
0.0282868
0.0282348
0.0283124
0.0280914
0.028219
0.0281828
0.0282529
0.0282513
0.0279238
0.0283561
0.0280699
0.0281472
0.0278789
0.028029
0.0279024
0.027928
0.0279135
0.027626
0.0277306
0.0274483
0.0276031
0.0277097
0.0279293
0.0278779
0.0280453
0.0278559
0.027872
0.0277324
0.0277119
0.027613