/*--------------------------------*- C++ -*----------------------------------*\
| =========                 |                                                 |
| \\      /  F ield         | foam-extend: Open Source CFD                    |
|  \\    /   O peration     | Version:     3.2                                |
|   \\  /    A nd           | Web:         http://www.foam-extend.org         |
|    \\/     M anipulation  | For copyright notice see file Copyright         |
\*---------------------------------------------------------------------------*/
FoamFile
{
    version     2.0;
    format      ascii;
    class       areaScalarField;
    location    "160";
    object      kTempA;
}
// * * * * * * * * * * * * * * * * * * * * * * * * * * * * * * * * * * * * * //

dimensions      [0 2 -2 0 0 0 0];

internalField   nonuniform List<scalar> 
300
(
0.178319
0.142008
0.0985161
0.0808966
0.0742543
0.070771
0.0682485
0.066041
0.0640091
0.0621651
0.0605193
0.0590478
0.0577168
0.0565291
0.0554604
0.0544888
0.0536004
0.05278
0.0520291
0.051344
0.0507081
0.0501105
0.0495495
0.0490226
0.0485286
0.0480608
0.047619
0.0471986
0.0468006
0.0464232
0.0460631
0.0457199
0.0453908
0.0450766
0.0447755
0.0444879
0.0442104
0.0439443
0.0436874
0.0434402
0.0432024
0.0429726
0.0427508
0.0425361
0.0423281
0.0421274
0.0419326
0.0417446
0.0415608
0.0413841
0.0412105
0.0410437
0.0408801
0.0407227
0.0405679
0.0404187
0.0402718
0.0401306
0.0399892
0.0398549
0.0397204
0.0395934
0.0394656
0.0393457
0.0392245
0.0391117
0.0389966
0.0388906
0.0387818
0.0386828
0.0385807
0.0384892
0.0383943
0.0383113
0.0382242
0.0381506
0.0380733
0.0380106
0.0379454
0.0378966
0.0378469
0.0378154
0.0377876
0.0377769
0.0377779
0.0377974
0.0378337
0.0378996
0.0379971
0.0381234
0.03831
0.0385222
0.0388791
0.0392392
0.0399175
0.0405107
0.0421031
0.0423466
0.0522732
0.0452347
0.0152099
0.0152764
0.0168793
0.0170461
0.0181759
0.0189135
0.0193726
0.0208727
0.0200234
0.0226623
0.0286248
0.0197232
0.0256091
0.0226617
0.0219155
0.0274385
0.0175213
0.0287288
0.0204707
0.0284194
0.0220108
0.0151119
0.0299725
0.0170558
0.0269773
0.0201925
0.0265808
0.0256523
0.017686
0.0256284
0.0147469
0.0256214
0.0201025
0.0252754
0.0251929
0.0187405
0.0306198
0.0155073
0.0271291
0.0184674
0.0219291
0.0267401
0.0145669
0.0282104
0.0162394
0.0248551
0.0228154
0.01956
0.0278723
0.0155188
0.0272976
0.0203678
0.0252749
0.0237983
0.019581
0.0275585
0.0167452
0.0293248
0.0236838
0.0267928
0.0268925
0.0224378
0.0276701
0.0189048
0.0284585
0.0227253
0.0287627
0.0253599
0.0261016
0.027529
0.0202871
0.0289198
0.0226766
0.029344
0.0225524
0.0252592
0.0235538
0.0246949
0.0273555
0.022394
0.029181
0.0212359
0.0266507
0.0186772
0.0241693
0.0217099
0.0229909
0.0250529
0.0193744
0.0270747
0.0194173
0.0262248
0.0206946
0.0272466
0.0233751
0.0241587
0.0251213
0.0202161
0.0291921
0.0229404
0.0279481
0.0209536
0.0278504
0.0242582
0.0268449
0.0265713
0.0248464
0.0278873
0.0236138
0.0271566
0.0206342
0.0270052
0.0234122
0.0274135
0.0219301
0.0255344
0.0235488
0.0244899
0.0260001
0.0199356
0.0280178
0.0220543
0.0289722
0.0220796
0.0276389
0.0246117
0.0256685
0.0272488
0.0229204
0.0259439
0.0221997
0.0237963
0.0228349
0.0267039
0.0231151
0.0285165
0.0246415
0.0275716
0.0255286
0.0267701
0.0273439
0.0243974
0.0264175
0.0212363
0.02567
0.0238211
0.0269256
0.0241827
0.0287758
0.0257385
0.0277193
0.0263735
0.0245528
0.0254956
0.0213276
0.0271763
0.0238132
0.0273581
0.02245
0.0263615
0.0240687
0.0272797
0.0270341
0.0261586
0.0273075
0.0249411
0.0265247
0.0234913
0.0276229
0.0227244
0.0267164
0.0250499
0.0281161
0.0246571
0.0270795
0.0258605
0.0248779
0.0252104
0.0235653
0.0263626
0.0237239
0.0270547
0.0252632
0.0272876
0.0245312
0.0274441
0.0232864
0.0199026
0.0223027
0.0229507
0.0232004
0.02433
0.0240115
0.0269486
0.0252514
0.0367433
0.0659314
0.0546993
0.0290309
0.0252912
)
;

boundaryField
{
    inlet
    {
        type            calculated;
        value           uniform 0;
    }
    outlet
    {
        type            calculated;
        value           uniform 0;
    }
    sideWall
    {
        type            empty;
    }
}


// ************************************************************************* //
