/*--------------------------------*- C++ -*----------------------------------*\
| =========                 |                                                 |
| \\      /  F ield         | foam-extend: Open Source CFD                    |
|  \\    /   O peration     | Version:     3.2                                |
|   \\  /    A nd           | Web:         http://www.foam-extend.org         |
|    \\/     M anipulation  | For copyright notice see file Copyright         |
\*---------------------------------------------------------------------------*/
FoamFile
{
    version     2.0;
    format      ascii;
    class       surfaceScalarField;
    location    "160";
    object      meshPhi;
}
// * * * * * * * * * * * * * * * * * * * * * * * * * * * * * * * * * * * * * //

dimensions      [0 3 -1 0 0 0 0];

internalField   nonuniform List<scalar> 
191380
(
0
0
0
0
0
0
0
0
0
0
0
0
0
0
0
0
0
0
0
0
0
0
0
0
0
0
0
0
0
0
0
0
0
0
0
0
0
0
0
0
0
0
0
0
0
0
0
0
0
0
0
0
0
0
0
0
0
0
0
0
0
0
0
0
0
0
0
0
0
0
0
0
0
0
0
0
0
0
0
0
0
0
0
0
0
0
0
0
0
0
0
0
0
0
0
0
0
0
0
0
0
1.4456e-20
-8.32667e-19
7.22801e-20
0
4.33681e-20
8.32667e-19
4.33681e-20
0
2.89121e-20
-2.56791e-34
5.78241e-20
0
7.22801e-20
1.66533e-18
1.01192e-19
3.85186e-34
1.01192e-19
5.13581e-34
1.87928e-19
-8.32667e-19
1.4456e-19
-8.32667e-19
2.1684e-19
0
2.74665e-19
8.98767e-34
2.89121e-19
0
3.03577e-19
-8.32667e-19
3.75857e-19
-8.32667e-19
4.04769e-19
-1.15556e-33
4.19225e-19
-8.32667e-19
3.75857e-19
-8.32667e-19
3.03577e-19
0
1.01192e-19
-1.02716e-33
-1.4456e-19
-8.32667e-19
-5.92697e-19
-8.32667e-19
-1.27213e-18
1.66533e-18
-2.25514e-18
1.32247e-32
-3.65738e-18
0
-5.60894e-18
0
-8.34113e-18
0
-1.1984e-17
0
-1.68991e-17
0
-2.34043e-17
1.66533e-18
-3.189e-17
0
-4.28766e-17
0
-5.68266e-17
0
-7.42462e-17
1.66533e-18
-9.55688e-17
-1.66533e-18
-1.21127e-16
0
-1.50863e-16
-1.17918e-30
-1.82956e-16
0
-2.25644e-16
0
-1.89562e-16
0
-6.61436e-16
0
2.0398e-15
1.66533e-18
-1.21234e-14
7.84541e-28
5.14874e-14
1.66533e-18
-1.61786e-13
0
1.90547e-13
1.66586e-18
1.10616e-12
-1.65785e-18
-4.75884e-12
0
-2.81998e-08
0
-9.71873e-08
0
-1.61485e-07
0
-2.00276e-07
0
-2.24995e-07
1.67009e-18
-2.47258e-07
-1.66823e-18
-2.62908e-07
1.66812e-18
-2.78007e-07
1.66605e-18
-2.78704e-07
1.67105e-18
-2.97324e-07
0
3.85272e-07
1.66114e-18
2.59576e-06
1.67326e-18
3.39956e-06
2.50228e-23
1.57896e-06
-1.67621e-18
-6.61037e-07
1.65586e-18
-2.5964e-06
1.66265e-18
-2.33081e-06
-2.35054e-23
-3.24794e-07
-5.37177e-23
1.94223e-06
-3.35354e-18
2.89864e-06
-1.6485e-18
1.49855e-06
-1.68699e-18
-7.54149e-07
-1.65941e-18
-2.81474e-06
0
-2.01642e-06
-3.3454e-18
5.07265e-07
1.65119e-18
2.28216e-06
1.67937e-18
2.6214e-06
3.29574e-18
6.14527e-07
1.67546e-18
-1.62954e-06
6.40998e-23
-2.0695e-06
0
2.18081e-07
1.67394e-18
2.4917e-06
-1.65106e-18
8.87242e-07
1.67876e-18
-2.54541e-06
0
-2.74689e-06
0
5.00823e-07
-1.65823e-18
2.52176e-06
-1.65504e-18
2.19307e-06
0
7.44685e-07
-1.64878e-18
-1.17644e-06
8.1894e-23
-2.29923e-06
3.29672e-18
-1.62233e-06
-1.66891e-18
9.90262e-07
3.33526e-18
2.65197e-06
0
1.85619e-06
-1.68304e-18
-5.33568e-08
1.64758e-18
-1.98671e-06
1.68181e-18
-2.3316e-06
5.52412e-23
-1.32764e-06
-6.06639e-23
8.11882e-07
1.67261e-18
2.74231e-06
-1.65161e-18
2.1204e-06
1.67788e-18
-2.13394e-07
-1.64954e-18
-2.24559e-06
1.6777e-18
-2.2747e-06
3.31319e-18
-1.09328e-06
0
7.13706e-07
6.48439e-23
2.2899e-06
1.65205e-18
1.77241e-06
-3.35411e-18
-4.78487e-07
0
-2.76711e-06
0
-2.55576e-06
0
-6.53594e-07
0
1.25698e-06
0
2.67244e-06
-3.31119e-18
2.05776e-06
0
4.75452e-07
0
-9.04147e-07
3.35019e-18
-2.70479e-06
0
-2.57125e-06
0
-3.41239e-07
0
6.94368e-07
0
1.88451e-06
3.33602e-18
2.68262e-06
0
1.54935e-06
0
-3.47995e-09
0
-2.0677e-06
3.34904e-18
-2.93732e-06
0
-1.60661e-06
3.33581e-18
6.19975e-07
0
2.611e-06
-3.31711e-18
2.77483e-06
-1.35965e-23
1.52714e-06
0
-2.52021e-10
0
-1.86483e-06
3.30633e-18
-2.22796e-06
3.35371e-18
-1.03778e-06
-4.50631e-23
1.68008e-07
3.34108e-18
2.13643e-06
-3.32567e-18
2.74757e-06
0
1.25898e-06
0
-2.76201e-07
0
-2.28902e-06
-3.34814e-18
-3.22303e-06
0
-1.46154e-06
0
6.28061e-08
0
7.99287e-07
3.34596e-18
2.46565e-06
-3.32545e-18
2.56413e-06
0
-1.6378e-07
-3.33346e-18
-2.66037e-06
3.31604e-18
-2.41139e-06
0
-1.06563e-06
0
3.70924e-07
2.42424e-22
2.5778e-06
0
2.81216e-06
0
1.08611e-06
0
-6.36041e-07
3.33145e-18
-2.58458e-06
0
-2.668e-06
-3.323e-18
-6.57135e-07
3.33843e-18
7.73907e-07
6.63206e-18
2.17333e-06
-3.33826e-18
2.7987e-06
3.31371e-18
1.55065e-06
3.34782e-18
-2.75908e-07
9.37472e-23
-2.38085e-06
0
-2.94147e-06
0
-1.14162e-06
0
1.26786e-06
0
2.74351e-06
-3.31837e-18
2.17638e-06
-3.17984e-23
-1.06859e-07
8.81794e-23
-2.51649e-06
-7.81095e-23
-3.05293e-06
0
-1.41758e-06
0
7.65204e-07
-3.30931e-18
2.72438e-06
3.33858e-18
3.14836e-06
-3.32247e-23
1.59004e-06
-3.32625e-18
-2.81648e-07
1.19739e-22
-2.12617e-06
-2.80299e-23
-2.88388e-06
3.33064e-18
-1.81751e-06
-3.32169e-18
2.44257e-07
-3.33669e-18
2.44022e-06
0
2.6598e-06
0
1.09959e-06
3.31417e-18
-7.80544e-07
-3.34293e-18
-3.0661e-06
0
-3.23309e-06
-7.12203e-23
-9.24297e-07
0
1.15581e-06
0
3.19419e-06
0
3.39751e-06
0
1.19627e-06
3.33404e-18
-8.78232e-07
-1.49178e-22
-3.11954e-06
-3.33738e-18
-3.84615e-06
-6.63099e-18
-1.78965e-06
0
7.39246e-07
3.31361e-18
3.15332e-06
3.33993e-18
3.71966e-06
9.09055e-23
1.85545e-06
-3.33438e-18
6.29798e-07
0
2.99391e-07
6.64449e-18
-1.04128e-06
-3.33245e-18
-2.99693e-06
6.63931e-18
-2.70869e-06
-3.34045e-18
-8.70509e-07
-3.31683e-18
6.74806e-07
3.3428e-18
2.52255e-06
6.62857e-18
2.66148e-06
0
1.03963e-06
2.84993e-23
-6.77098e-07
0
-2.73921e-06
-6.64707e-18
-2.91766e-06
3.3289e-18
-1.10441e-06
-3.33028e-18
5.40249e-07
1.83654e-22
2.73934e-06
-3.33873e-18
3.31815e-06
3.48848e-23
1.16503e-06
0
-9.64436e-07
0
-2.81604e-06
0
-3.14549e-06
3.31505e-18
-2.92138e-07
-3.34111e-18
3.12381e-06
3.31939e-18
3.4045e-06
0
1.40285e-06
0
2.56125e-07
-3.32981e-18
1.54049e-07
-3.33312e-18
1.08134e-07
0
3.34392e-08
-7.69204e-24
1.31563e-07
5.54093e-25
2.67707e-07
-3.33629e-18
2.85028e-07
3.31896e-18
3.06483e-07
6.68595e-18
3.13244e-07
1.05738e-24
2.92338e-07
0
2.86471e-07
0
2.78815e-07
-3.33912e-18
2.70046e-07
-2.88628e-25
2.5915e-07
3.35076e-18
2.42977e-07
3.34568e-18
2.21936e-07
0
1.87439e-07
-3.40169e-18
1.15753e-07
-3.31771e-18
3.33685e-08
-3.33155e-18
-4.44584e-11
-7.74871e-28
2.139e-12
3.2716e-14
0
0
0
0
0
0
0
0
0
0
0
0
0
0
0
0
0
0
0
0
0
0
0
0
0
0
0
0
0
0
0
0
0
0
0
0
0
0
0
0
0
0
0
0
0
0
0
0
0
0
0
0
0
0
0
0
0
0
0
0
0
0
0
0
0
0
0
0
0
0
0
0
0
0
0
0
0
0
0
0
0
0
0
0
0
0
0
0
0
2.89121e-20
0
5.78241e-20
8.32667e-19
1.15648e-19
0
8.67362e-20
0
1.15648e-19
0
1.4456e-19
0
2.02384e-19
6.41977e-34
2.60209e-19
-8.32667e-19
2.89121e-19
-8.32667e-19
4.33681e-19
-8.32667e-19
5.78241e-19
0
7.51714e-19
2.56791e-33
8.3845e-19
1.66533e-18
1.04083e-18
1.66533e-18
1.24322e-18
0
1.56125e-18
1.66533e-18
1.9082e-18
6.41977e-33
2.25514e-18
0
2.631e-18
-8.32667e-19
2.97794e-18
9.50125e-33
3.44053e-18
-1.01432e-32
3.67183e-18
1.66533e-18
3.87422e-18
-8.32667e-19
3.90313e-18
8.73088e-33
3.52727e-18
0
2.68882e-18
0
1.06975e-18
0
-1.73472e-18
8.32667e-19
-6.15827e-18
0
-1.2837e-17
-8.32667e-19
-2.25514e-17
8.32667e-19
-3.65448e-17
0
-5.61472e-17
0
-8.32378e-17
2.498e-18
-1.19869e-16
0
-1.69078e-16
0
-2.34159e-16
0
-3.19189e-16
1.66533e-18
-4.28795e-16
-1.66533e-18
-5.68006e-16
0
-7.42115e-16
0
-9.55659e-16
0
-1.21107e-15
0
-1.50817e-15
0
-1.83808e-15
0
-2.16066e-15
-1.66533e-18
-2.66069e-15
-1.66533e-18
-1.54711e-15
0
-8.68695e-15
0
2.42027e-14
-1.66531e-18
-9.78421e-14
0
3.22432e-13
0
-1.07742e-12
-1.66649e-18
5.70784e-12
1.64544e-18
-6.27042e-11
0
-2.79692e-08
0
-9.6419e-08
0
-1.60757e-07
-1.67679e-18
-1.99797e-07
0
-2.24622e-07
0
-2.46855e-07
-1.66887e-18
-2.62571e-07
-4.79914e-24
-2.7752e-07
-1.66576e-18
-2.78795e-07
0
-2.93196e-07
-1.65938e-18
3.94327e-07
-1.65721e-18
2.58363e-06
1.68054e-18
3.38074e-06
-1.64787e-18
1.57853e-06
1.68597e-18
-6.55623e-07
0
-2.57953e-06
0
-2.32103e-06
3.35482e-18
-3.24761e-07
-1.37044e-22
1.9342e-06
-1.68807e-18
2.88141e-06
1.63209e-18
1.49406e-06
0
-7.46964e-07
-1.65757e-18
-2.79e-06
-6.27145e-23
-2.00299e-06
0
5.01606e-07
1.64161e-18
2.27322e-06
1.69245e-18
2.60294e-06
-4.39834e-23
6.08352e-07
1.13055e-22
-1.61628e-06
0
-2.0481e-06
0
2.17289e-07
3.36688e-18
2.4605e-06
0
8.7054e-07
-1.69094e-18
-2.51844e-06
-1.63469e-18
-2.71818e-06
-1.68672e-18
4.8744e-07
0
2.50075e-06
-1.64938e-18
2.18536e-06
1.68456e-18
7.42842e-07
0
-1.17017e-06
3.41229e-18
-2.28323e-06
-6.9392e-23
-1.6049e-06
1.89767e-22
9.80097e-07
-7.28581e-23
2.62979e-06
-1.64141e-18
1.84775e-06
-1.69791e-18
-5.27642e-08
3.26458e-18
-1.97703e-06
1.6961e-18
-2.32329e-06
9.80066e-23
-1.31784e-06
-1.19807e-22
8.10041e-07
1.41001e-22
2.72029e-06
-1.64202e-18
2.10579e-06
1.68962e-18
-2.10984e-07
3.27377e-18
-2.23224e-06
-1.68942e-18
-2.26732e-06
1.65157e-18
-1.08735e-06
-3.31644e-18
7.1282e-07
3.36739e-18
2.27189e-06
3.28344e-18
1.75699e-06
5.00959e-23
-4.79337e-07
0
-2.75105e-06
0
-2.54556e-06
-3.30499e-18
-6.52594e-07
3.32436e-18
1.25342e-06
0
2.65423e-06
0
2.04652e-06
0
4.74938e-07
-3.28832e-18
-9.07539e-07
-3.36887e-18
-2.68654e-06
0
-2.55025e-06
-3.35134e-18
-3.50471e-07
-3.33229e-18
6.94188e-07
3.30783e-18
1.88177e-06
0
2.66681e-06
3.29688e-18
1.54634e-06
6.72823e-18
-5.42843e-09
0
-2.05878e-06
0
-2.92041e-06
0
-1.59887e-06
0
6.16508e-07
0
2.595e-06
0
2.76341e-06
-3.34466e-18
1.52621e-06
3.30294e-18
4.40657e-10
0
-1.8483e-06
0
-2.21255e-06
3.37495e-18
-1.03751e-06
-8.48876e-23
1.72325e-07
-4.16268e-22
2.12244e-06
-3.32631e-18
2.72794e-06
0
1.25796e-06
0
-2.7922e-07
-6.60281e-18
-2.28194e-06
3.36546e-18
-3.20089e-06
-6.57249e-18
-1.45777e-06
3.37435e-18
5.96825e-08
0
8.05262e-07
-3.36127e-18
2.45039e-06
-3.32464e-18
2.53861e-06
3.31175e-18
-1.65573e-07
-3.33975e-18
-2.63984e-06
3.30776e-18
-2.40107e-06
-1.40132e-22
-1.06334e-06
-3.29433e-18
3.777e-07
0
2.55969e-06
3.29256e-18
2.7927e-06
3.35951e-18
1.08489e-06
3.30349e-18
-6.37655e-07
3.8162e-22
-2.56935e-06
-3.32426e-18
-2.65028e-06
0
-6.61441e-07
-3.34836e-18
7.72904e-07
0
2.1672e-06
-3.34816e-18
2.78349e-06
-2.12746e-24
1.54656e-06
-3.36413e-18
-2.76262e-07
-3.29465e-18
-2.37e-06
-1.545e-22
-2.92366e-06
-3.2917e-18
-1.13544e-06
-3.35207e-18
1.25954e-06
0
2.72576e-06
3.31133e-18
2.16228e-06
-3.34682e-18
-1.08141e-07
0
-2.50346e-06
-3.36474e-18
-3.03574e-06
-3.29115e-18
-1.4113e-06
3.3698e-18
7.63528e-07
0
2.71355e-06
3.34835e-18
3.13385e-06
3.31679e-18
1.58746e-06
0
-2.79603e-07
-3.33481e-18
-2.11494e-06
0
-2.8682e-06
3.33456e-18
-1.80968e-06
5.09728e-23
2.45305e-07
0
2.42366e-06
0
2.64368e-06
0
1.09623e-06
3.30284e-18
-7.8354e-07
-3.35565e-18
-3.04737e-06
3.30095e-18
-3.21076e-06
3.34549e-18
-9.26204e-07
-3.31461e-18
1.15364e-06
0
3.17867e-06
0
3.37781e-06
3.31758e-18
1.19649e-06
3.3401e-18
-8.7985e-07
6.63111e-18
-3.1086e-06
-3.34603e-18
-3.82342e-06
3.30539e-18
-1.7839e-06
0
7.38503e-07
-3.38844e-22
3.14028e-06
8.86506e-23
3.70161e-06
1.43877e-22
1.85778e-06
-3.34034e-18
6.34426e-07
0
2.92471e-07
-3.31851e-18
-1.0445e-06
3.33734e-18
-2.97819e-06
0
-2.69476e-06
3.35118e-18
-8.71781e-07
0
6.77184e-07
3.35506e-18
2.50699e-06
3.30243e-18
2.64386e-06
0
1.03722e-06
-3.30904e-18
-6.7959e-07
0
-2.72321e-06
-3.32057e-18
-2.89993e-06
-3.3304e-18
-1.10532e-06
-3.33311e-18
5.43585e-07
0
2.72696e-06
6.69605e-18
3.29614e-06
3.31269e-18
1.16292e-06
3.65369e-23
-9.634e-07
6.61578e-18
-2.80572e-06
-3.05887e-22
-3.12071e-06
0
-2.84926e-07
-3.35148e-18
3.09997e-06
0
3.38511e-06
0
1.4075e-06
6.64229e-18
2.62346e-07
3.33068e-18
1.53881e-07
0
1.07695e-07
0
3.4252e-08
3.33646e-18
1.31462e-07
3.32059e-18
2.66582e-07
3.34125e-18
2.84862e-07
-1.12386e-23
3.061e-07
-7.61949e-26
3.12772e-07
-3.33196e-18
2.92154e-07
3.33789e-18
2.86087e-07
0
2.78447e-07
3.34346e-18
2.69679e-07
0
2.5876e-07
-6.71674e-18
2.42594e-07
-3.34553e-18
2.21501e-07
0
1.86549e-07
0
1.1463e-07
0
3.29363e-08
-6.6668e-18
9.21057e-12
-3.33021e-18
9.06496e-12
-2.2526e-13
0
0
0
0
0
0
0
0
0
0
0
0
0
0
0
0
0
0
0
0
0
0
0
0
0
0
0
0
0
0
0
0
0
0
0
0
0
0
0
0
0
0
0
0
0
0
0
0
0
0
0
0
0
0
0
0
0
0
0
0
0
0
0
0
0
0
0
0
0
0
0
0
0
0
0
0
0
0
0
0
0
0
0
0
0
1.15648e-19
0
1.73472e-19
8.32667e-19
1.73472e-19
0
1.73472e-19
0
2.89121e-19
-7.70372e-34
3.46945e-19
0
4.04769e-19
0
6.36065e-19
0
8.09538e-19
0
9.25186e-19
8.32667e-19
1.15648e-18
8.32667e-19
1.61908e-18
8.32667e-19
1.96602e-18
-5.3926e-33
2.31296e-18
-8.32667e-19
2.89121e-18
-8.32667e-19
3.75857e-18
-8.32667e-19
4.56811e-18
0
5.55112e-18
-8.32667e-19
6.59195e-18
1.79753e-32
7.74843e-18
1.66533e-18
9.25186e-18
2.33679e-32
1.04662e-17
0
1.17961e-17
-2.87606e-32
1.30683e-17
-1.66533e-18
1.36465e-17
-8.32667e-19
1.36465e-17
8.32667e-19
1.26057e-17
8.32667e-19
9.54098e-18
0
3.75857e-18
-2.56791e-32
-6.01371e-18
-8.32667e-19
-2.14527e-17
8.32667e-19
-4.48715e-17
0
-7.89877e-17
1.66533e-18
-1.27907e-16
4.99458e-31
-1.96486e-16
-8.32667e-19
-2.90913e-16
-1.04283e-30
-4.1934e-16
8.32667e-19
-5.91541e-16
1.66533e-18
-8.19483e-16
-1.66533e-18
-1.11699e-15
0
-1.50054e-15
0
-1.98799e-15
1.66533e-18
-2.59688e-15
-1.66533e-18
-3.34414e-15
-1.66533e-18
-4.23851e-15
0
-5.27356e-15
-1.66533e-18
-6.46086e-15
0
-7.44393e-15
0
-9.57405e-15
0
-5.96444e-15
0
-2.0854e-14
1.6653e-18
2.52477e-14
1.66527e-18
-8.2424e-14
1.18711e-27
2.24639e-13
-1.16832e-27
-1.27632e-12
-1.66656e-18
1.521e-11
-1.6348e-18
-1.72672e-10
0
-2.774e-08
-1.70321e-18
-9.54237e-08
1.67401e-18
-1.59681e-07
0
-1.98914e-07
1.67188e-18
-2.23786e-07
-1.67268e-18
-2.45924e-07
-1.66959e-18
-2.61676e-07
-3.34069e-18
-2.76404e-07
-1.66578e-18
-2.78441e-07
-1.6789e-18
-2.87291e-07
1.65712e-18
4.0557e-07
1.65454e-18
2.56369e-06
-1.68637e-18
3.3507e-06
1.85403e-23
1.57493e-06
-1.69373e-18
-6.48159e-07
1.64569e-18
-2.55286e-06
3.09198e-23
-2.30287e-06
1.68277e-18
-3.22911e-07
1.63812e-18
1.91996e-06
-1.08468e-22
2.85355e-06
0
1.4857e-06
-3.43283e-18
-7.37489e-07
1.65587e-18
-2.75425e-06
1.64372e-18
-1.98224e-06
1.68822e-18
4.94e-07
-1.63437e-18
2.25688e-06
-1.7027e-18
2.57367e-06
1.62069e-18
6.00899e-07
1.69354e-18
-1.59519e-06
1.653e-18
-2.0168e-06
-1.65377e-18
2.16408e-07
0
2.41694e-06
0
8.48877e-07
0
-2.47874e-06
0
-2.67753e-06
0
4.68502e-07
0
2.46968e-06
-3.28994e-18
2.17167e-06
-1.69241e-18
7.39357e-07
-1.62627e-18
-1.15896e-06
0
-2.25867e-06
1.62147e-18
-1.58049e-06
2.64239e-22
9.65787e-07
-3.35395e-18
2.59792e-06
0
1.83419e-06
-1.70964e-18
-5.18066e-08
-1.62027e-18
-1.95995e-06
1.70744e-18
-2.30763e-06
3.27777e-18
-1.30342e-06
1.65795e-18
8.05574e-07
1.68812e-18
2.68735e-06
1.63477e-18
2.08406e-06
-9.78913e-23
-2.06883e-07
1.6269e-18
-2.21004e-06
1.69884e-18
-2.25284e-06
0
-1.07768e-06
1.65762e-18
7.09758e-07
3.38196e-18
2.24476e-06
0
1.73442e-06
0
-4.80152e-07
-1.63265e-18
-2.72427e-06
0
-2.52594e-06
-7.7874e-23
-6.49653e-07
0
1.24653e-06
3.36191e-18
2.62634e-06
0
2.02867e-06
0
4.72357e-07
0
-9.10562e-07
6.83142e-22
-2.65829e-06
0
-2.51945e-06
0
-3.60156e-07
0
6.93828e-07
0
1.87348e-06
3.35306e-18
2.64114e-06
0
1.53974e-06
0
-7.57746e-09
0
-2.04241e-06
0
-2.89311e-06
-3.28141e-18
-1.58622e-06
0
6.10806e-07
3.32358e-18
2.56961e-06
0
2.74392e-06
0
1.52209e-06
3.29498e-18
1.53713e-09
0
-1.82382e-06
0
-2.18938e-06
0
-1.03453e-06
0
1.7807e-07
-5.98176e-22
2.1007e-06
0
2.69858e-06
0
1.25409e-06
0
-2.82962e-07
3.29306e-18
-2.2678e-06
3.77799e-22
-3.16683e-06
0
-1.45159e-06
0
5.49213e-08
-2.64082e-23
8.11388e-07
0
2.42705e-06
-2.76432e-22
2.50248e-06
0
-1.66723e-07
3.34549e-18
-2.60835e-06
0
-2.38354e-06
-3.3727e-18
-1.05865e-06
3.28267e-18
3.84791e-07
0
2.53142e-06
0
2.76353e-06
-3.37135e-18
1.08075e-06
-2.1984e-23
-6.38909e-07
-3.33879e-18
-2.54425e-06
0
-2.62234e-06
0
-6.64531e-07
-3.35671e-18
7.70972e-07
0
2.1545e-06
0
2.75861e-06
3.29359e-18
1.53833e-06
-3.37729e-18
-2.7621e-07
4.3442e-22
-2.35064e-06
3.38152e-18
-2.895e-06
0
-1.12541e-06
3.36169e-18
1.24706e-06
0
2.69854e-06
-1.6724e-22
2.14019e-06
0
-1.10054e-07
-3.29187e-18
-2.4815e-06
-3.378e-18
-3.00765e-06
0
-1.4011e-06
-7.02241e-23
7.59477e-07
0
2.69389e-06
3.35638e-18
3.10927e-06
-3.31375e-18
1.58123e-06
-3.32538e-18
-2.76313e-07
3.33857e-18
-2.09647e-06
1.94258e-22
-2.84316e-06
6.67616e-18
-1.79631e-06
1.21902e-22
2.45325e-07
0
2.39693e-06
-3.29879e-18
2.61811e-06
3.36153e-18
1.08917e-06
1.20822e-23
-7.86104e-07
3.36514e-18
-3.01773e-06
6.5829e-18
-3.17691e-06
3.35251e-18
-9.25606e-07
-3.31062e-18
1.15047e-06
-6.19035e-22
3.15349e-06
-3.34786e-18
3.3468e-06
3.31476e-18
1.19392e-06
6.69104e-18
-8.80892e-07
-9.93689e-18
-3.08862e-06
0
-3.78794e-06
0
-1.77376e-06
-3.36001e-18
7.36039e-07
3.29152e-18
3.11694e-06
0
3.67148e-06
3.3034e-18
1.85822e-06
6.53278e-23
6.39339e-07
-3.33672e-18
2.81663e-07
-3.31599e-18
-1.04685e-06
-1.0024e-17
-2.94751e-06
-3.30899e-18
-2.67163e-06
3.35999e-18
-8.71059e-07
0
6.7895e-07
-3.36616e-18
2.48168e-06
6.58672e-18
2.61662e-06
-3.35709e-18
1.03151e-06
0
-6.81672e-07
-3.34339e-18
-2.69683e-06
-3.31857e-18
-2.87179e-06
3.33205e-18
-1.10347e-06
3.33587e-18
5.47621e-07
0
2.70544e-06
0
3.26173e-06
-3.30757e-18
1.1577e-06
3.35032e-18
-9.60493e-07
3.30108e-18
-2.78649e-06
-4.40643e-22
-3.08295e-06
0
-2.75175e-07
0
3.0639e-06
-3.30597e-18
3.35488e-06
0
1.41216e-06
6.80942e-24
2.69731e-07
0
1.52406e-07
3.33865e-18
1.06264e-07
-3.31937e-18
3.48141e-08
-3.3387e-18
1.30825e-07
0
2.64493e-07
-3.34497e-18
2.84109e-07
-3.29951e-18
3.05116e-07
0
3.11602e-07
3.33301e-18
2.91376e-07
0
2.85064e-07
0
2.77412e-07
-1.25063e-23
2.68652e-07
-1.18056e-23
2.57734e-07
-3.36508e-18
2.41611e-07
3.34706e-18
2.20523e-07
3.46236e-18
1.85158e-07
-3.38518e-18
1.13195e-07
0
3.24677e-08
6.66767e-18
4.84395e-11
-3.32976e-18
-2.13451e-11
-1.99744e-13
0
0
0
0
0
0
0
0
0
0
0
0
0
0
0
0
0
0
0
0
0
0
0
0
0
0
0
0
0
0
0
0
0
0
0
0
0
0
0
0
0
0
0
0
0
0
0
0
0
0
0
0
0
0
0
0
0
0
0
0
0
0
0
0
0
0
0
0
0
0
0
0
0
0
0
0
0
0
0
0
0
5.78241e-20
5.13581e-34
1.73472e-19
0
2.31296e-19
8.32667e-19
2.31296e-19
0
2.89121e-19
0
3.46945e-19
-8.32667e-19
6.93889e-19
0
8.67362e-19
0
1.15648e-18
0
1.32995e-18
8.32667e-19
1.6769e-18
0
2.25514e-18
8.32667e-19
2.83338e-18
0
3.64292e-18
-8.32667e-19
4.62593e-18
8.32667e-19
5.84024e-18
0
7.28584e-18
0
8.96274e-18
2.05433e-32
1.09288e-17
0
1.32417e-17
-2.97877e-32
1.57282e-17
0
1.86772e-17
-8.32667e-19
2.19732e-17
4.67359e-32
2.52113e-17
-5.13581e-32
2.83338e-17
8.32667e-19
3.09937e-17
8.32667e-19
3.28441e-17
-8.32667e-19
3.27284e-17
4.77631e-32
3.00685e-17
-8.32667e-19
2.26671e-17
0
8.78927e-18
-8.32667e-19
-1.45139e-17
0
-5.16948e-17
8.32667e-19
-1.07669e-16
8.32667e-19
-1.89837e-16
8.32667e-19
-3.07046e-16
8.32667e-19
-4.71556e-16
-8.32667e-19
-6.98226e-16
0
-1.00631e-15
0
-1.41958e-15
-1.66533e-18
-1.96625e-15
0
-2.68032e-15
0
-3.60082e-15
1.66533e-18
-4.77026e-15
-1.66533e-18
-6.23153e-15
0
-8.02564e-15
0
-1.0165e-14
0
-1.26911e-14
0
-1.53068e-14
0
-1.88143e-14
0
-1.8933e-14
0
-2.90747e-14
0
-5.95507e-15
0
-3.45086e-14
-1.66521e-18
-1.26351e-13
-9.77913e-27
1.10154e-12
0
-6.6421e-12
0
4.27366e-11
-1.82987e-24
-2.93473e-10
-1.6716e-18
-2.75024e-08
1.7072e-18
-9.41351e-08
1.67495e-18
-1.57945e-07
0
-1.97136e-07
1.6728e-18
-2.21928e-07
-1.67387e-18
-2.43843e-07
-1.67038e-18
-2.59578e-07
-1.86097e-23
-2.73896e-07
1.66613e-18
-2.76951e-07
1.68161e-18
-2.79756e-07
0
4.18541e-07
1.65271e-18
2.53538e-06
0
3.30714e-06
0
1.56342e-06
-1.69955e-18
-6.43241e-07
1.64262e-18
-2.51769e-06
-1.66213e-18
-2.27328e-06
-9.28722e-23
-3.14118e-07
-2.88336e-22
1.90346e-06
3.40615e-18
2.81469e-06
1.61039e-18
1.46767e-06
1.72632e-18
-7.30005e-07
0
-2.7074e-06
0
-1.95211e-06
-1.6933e-18
4.87638e-07
-1.63014e-18
2.23583e-06
-1.71018e-18
2.53394e-06
3.22564e-18
5.86795e-07
2.13848e-22
-1.57192e-06
0
-1.97518e-06
0
2.1929e-07
3.56834e-22
2.36613e-06
-3.8586e-23
8.22003e-07
0
-2.43402e-06
1.61719e-18
-2.62426e-06
-1.70248e-18
4.5329e-07
1.65337e-18
2.43042e-06
1.41474e-22
2.1475e-06
0
7.28601e-07
0
-1.1453e-06
-1.73051e-18
-2.22418e-06
0
-1.54455e-06
1.68389e-18
9.531e-07
0
2.55709e-06
1.62953e-18
1.8119e-06
1.71828e-18
-5.51714e-08
-1.61273e-18
-1.93718e-06
0
-2.2826e-06
-3.26979e-18
-1.28008e-06
2.21352e-22
8.03265e-07
-1.69337e-18
2.6452e-06
0
2.05111e-06
1.70575e-18
-2.08253e-07
1.6206e-18
-2.18083e-06
-1.70612e-18
-2.22757e-06
1.718e-22
-1.059e-06
1.77466e-22
7.0928e-07
3.3927e-18
2.20895e-06
-4.88552e-18
1.70189e-06
8.86031e-23
-4.84379e-07
0
-2.68961e-06
0
-2.49585e-06
3.29405e-18
-6.39447e-07
-3.32684e-18
1.24161e-06
0
2.58921e-06
0
2.00035e-06
-3.38309e-18
4.63614e-07
3.26555e-18
-9.17543e-07
-3.39574e-18
-2.62182e-06
0
-2.47458e-06
0
-3.65e-07
3.33845e-18
6.97106e-07
0
1.86106e-06
0
2.60244e-06
0
1.52422e-06
0
-1.46888e-08
-3.27673e-18
-2.01918e-06
0
-2.85234e-06
-3.27445e-18
-1.56388e-06
0
6.08575e-07
0
2.53579e-06
3.29948e-18
2.7122e-06
0
1.50976e-06
0
-1.18563e-09
0
-1.79218e-06
-3.26772e-18
-2.15481e-06
-3.4041e-18
-1.02519e-06
-1.42635e-22
1.88814e-07
-3.37085e-18
2.07335e-06
0
2.65627e-06
0
1.24273e-06
3.37121e-18
-2.91484e-07
0
-2.24806e-06
0
-3.11818e-06
0
-1.4374e-06
-3.40247e-18
5.38706e-08
0
8.19228e-07
0
2.39492e-06
-3.32599e-18
2.45312e-06
0
-1.71843e-07
0
-2.56979e-06
0
-2.35765e-06
3.38156e-18
-1.04697e-06
0
3.9685e-07
0
2.49478e-06
-1.65551e-22
2.72035e-06
3.38024e-18
1.06866e-06
-3.29032e-18
-6.44309e-07
-3.34166e-18
-2.51142e-06
0
-2.5801e-06
0
-6.6083e-07
0
7.727e-07
3.29739e-18
2.13632e-06
-3.36287e-18
2.72056e-06
3.28885e-18
1.52104e-06
0
-2.80715e-07
6.32948e-22
-2.32385e-06
0
-2.85231e-06
3.2701e-18
-1.1062e-06
3.42875e-22
1.23582e-06
0
2.66259e-06
-2.73699e-22
2.10716e-06
-3.36009e-18
-1.17261e-07
3.28713e-18
-2.45409e-06
-3.97634e-22
-2.9678e-06
3.26999e-18
-1.38183e-06
-3.39612e-18
7.59484e-07
3.27288e-18
2.66612e-06
0
3.07028e-06
3.82397e-23
1.56592e-06
0
-2.77075e-07
-3.34104e-18
-2.07149e-06
3.33002e-18
-2.8051e-06
-3.34171e-18
-1.77284e-06
0
2.49421e-07
0
2.36152e-06
0
2.57894e-06
3.36848e-18
1.07326e-06
3.28907e-18
-7.93129e-07
-3.37455e-18
-2.979e-06
3.28599e-18
-3.12723e-06
-4.26717e-23
-9.16762e-07
-3.30856e-18
1.15135e-06
-3.33283e-18
3.12044e-06
0
3.3008e-06
3.31395e-18
1.18296e-06
0
-8.86951e-07
3.31084e-18
-3.06094e-06
0
-3.73599e-06
3.29356e-18
-1.75348e-06
0
7.38009e-07
-7.70593e-22
3.08499e-06
0
3.62446e-06
0
1.84801e-06
-3.35028e-18
6.4019e-07
0
2.68845e-07
-3.3153e-18
-1.04943e-06
-3.34519e-18
-2.90652e-06
-3.30684e-18
-2.63517e-06
-3.36701e-18
-8.62725e-07
3.29856e-18
6.84735e-07
-1.01194e-17
2.44802e-06
-3.28776e-18
2.57538e-06
-6.72613e-18
1.01717e-06
-3.29869e-18
-6.88396e-07
0
-2.662e-06
1.91908e-22
-2.82863e-06
-3.33401e-18
-1.09299e-06
1.75197e-22
5.57393e-07
8.59338e-22
2.67656e-06
-3.36184e-18
3.21145e-06
-3.30502e-18
1.14352e-06
-3.35485e-18
-9.62009e-07
-3.29635e-18
-2.75992e-06
0
-3.02889e-06
3.2879e-18
-2.57111e-07
3.36515e-18
3.02237e-06
-3.30254e-18
3.31081e-06
-3.35833e-18
1.40628e-06
3.31748e-18
2.7312e-07
0
1.49258e-07
6.68143e-18
1.03613e-07
-3.31767e-18
3.4117e-08
-3.34035e-18
1.28613e-07
3.31493e-18
2.60809e-07
3.34734e-18
2.82097e-07
0
3.02851e-07
6.73224e-18
3.09162e-07
0
2.89278e-07
0
2.82555e-07
3.33353e-18
2.74878e-07
3.35064e-18
2.66154e-07
0
2.55286e-07
0
2.39309e-07
6.70076e-18
2.18333e-07
3.47763e-18
1.82679e-07
-3.37707e-18
1.10976e-07
-3.22771e-18
3.17008e-08
-3.33263e-18
8.87586e-11
3.32925e-18
-4.10603e-11
6.8978e-12
0
0
0
0
0
0
0
0
0
0
0
0
0
0
0
0
0
0
0
0
0
0
0
0
0
0
0
0
0
0
0
0
0
0
0
0
0
0
0
0
0
0
0
0
0
0
0
0
0
0
0
0
0
0
0
0
0
0
0
0
0
0
0
0
0
0
0
0
0
0
0
0
0
0
0
0
8.32667e-19
5.78241e-20
0
1.15648e-19
0
2.31296e-19
8.32667e-19
2.89121e-19
-8.32667e-19
2.89121e-19
0
4.04769e-19
8.32667e-19
6.36065e-19
0
9.25186e-19
1.66533e-18
1.27213e-18
0
1.50343e-18
0
2.02384e-18
-8.32667e-19
2.65991e-18
-8.32667e-19
3.41162e-18
-8.32667e-19
4.51028e-18
-8.32667e-19
5.60894e-18
0
7.17019e-18
8.32667e-19
9.02056e-18
-1.84889e-32
1.13914e-17
-8.32667e-19
1.41669e-17
8.32667e-19
1.75207e-17
3.38964e-32
2.13949e-17
0
2.59052e-17
8.32667e-19
3.11672e-17
8.32667e-19
3.67761e-17
-1.66533e-18
4.30211e-17
7.65236e-32
4.94396e-17
-8.32667e-19
5.56268e-17
-8.32667e-19
6.09466e-17
-8.32667e-19
6.43582e-17
0
6.46474e-17
-1.66533e-18
5.88649e-17
8.32667e-19
4.46402e-17
-8.32667e-19
1.72316e-17
8.32667e-19
-2.86808e-17
8.32667e-19
-1.01597e-16
8.32667e-19
-2.11347e-16
0
-3.72619e-16
1.66533e-18
-6.02932e-16
8.32667e-19
-9.25822e-16
8.32667e-19
-1.37141e-15
0
-1.97666e-15
0
-2.78799e-15
0
-3.86155e-15
0
-5.26396e-15
0
-7.07166e-15
-1.66533e-18
-9.36785e-15
0
-1.22396e-14
-1.66533e-18
-1.57556e-14
0
-1.99894e-14
0
-2.48076e-14
0
-3.05624e-14
1.66531e-18
-3.48679e-14
0
-4.53449e-14
-3.33057e-18
-2.79283e-14
0
-1.02266e-13
1.66521e-18
1.5633e-13
1.66513e-18
-6.01626e-13
0
2.033e-12
0
-9.03085e-12
0
5.36517e-11
1.61942e-18
-3.65965e-10
0
-2.70009e-08
3.41991e-18
-9.24449e-08
0
-1.55822e-07
-1.68195e-18
-1.95023e-07
0
-2.19781e-07
0
-2.4148e-07
1.67116e-18
-2.57198e-07
-1.98271e-23
-2.71149e-07
0
-2.75015e-07
0
-2.7241e-07
0
4.27276e-07
1.65129e-18
2.49611e-06
0
3.25346e-06
-1.63671e-18
1.5528e-06
0
-6.26906e-07
0
-2.46597e-06
1.66223e-18
-2.23335e-06
-1.84069e-23
-3.10169e-07
-4.03881e-22
1.87091e-06
-3.41359e-18
2.76286e-06
1.60458e-18
1.44967e-06
0
-7.13499e-07
-1.65804e-18
-2.64645e-06
1.63903e-18
-1.91332e-06
0
4.74319e-07
0
2.19766e-06
0
2.48184e-06
-1.60769e-18
5.77292e-07
-1.70302e-18
-1.53442e-06
0
-1.92326e-06
0
2.18425e-07
1.70156e-18
2.30147e-06
-1.62767e-18
7.95395e-07
1.71245e-18
-2.37257e-06
1.1314e-22
-2.56365e-06
0
4.27142e-07
3.30679e-18
2.37586e-06
-1.64095e-18
2.11592e-06
-1.70185e-18
7.2415e-07
-3.23369e-18
-1.11691e-06
0
-2.17874e-06
1.60888e-18
-1.50849e-06
1.68682e-18
9.29294e-07
1.68399e-18
2.50293e-06
-3.25501e-18
1.78462e-06
0
-5.08953e-08
-1.60815e-18
-1.89902e-06
0
-2.24707e-06
1.51346e-22
-1.25798e-06
1.6586e-18
7.88452e-07
-1.69742e-18
2.58756e-06
0
2.01345e-06
-1.71045e-18
-1.99304e-07
-1.61598e-18
-2.13505e-06
7.47036e-23
-2.19205e-06
-1.64608e-18
-1.04223e-06
0
6.97418e-07
3.1745e-22
2.15982e-06
3.25059e-18
1.66181e-06
1.85369e-22
-4.81999e-07
0
-2.63605e-06
0
-2.45211e-06
-3.29254e-18
-6.30927e-07
0
1.22404e-06
0
2.53715e-06
0
1.96184e-06
0
4.56336e-07
0
-9.11596e-07
0
-2.56997e-06
-6.51919e-18
-2.41888e-06
0
-3.70653e-07
0
6.88988e-07
3.29558e-18
1.83367e-06
-3.36329e-18
2.5517e-06
3.27882e-18
1.50765e-06
3.3959e-18
-1.14346e-08
0
-1.98024e-06
-4.47737e-22
-2.79884e-06
3.27059e-18
-1.54108e-06
0
5.94033e-07
3.32614e-18
2.48602e-06
3.29659e-18
2.6694e-06
-8.41337e-26
1.4983e-06
0
7.07421e-09
0
-1.74767e-06
0
-2.11023e-06
0
-1.01524e-06
-3.25621e-18
1.89866e-07
0
2.03241e-06
0
2.60284e-06
3.30234e-18
1.22949e-06
0
-2.90503e-07
0
-2.21258e-06
0
-3.05624e-06
0
-1.42132e-06
0
4.43886e-08
0
8.15553e-07
-3.39132e-18
2.35013e-06
3.32735e-18
2.39629e-06
-3.30313e-18
-1.69612e-07
3.35312e-18
-2.51315e-06
0
-2.31842e-06
-2.07032e-22
-1.03563e-06
0
3.96878e-07
0
2.44205e-06
0
2.66534e-06
0
1.05646e-06
3.2876e-18
-6.3693e-07
-3.34336e-18
-2.46162e-06
3.32474e-18
-2.52579e-06
0
-6.57197e-07
0
7.62697e-07
3.29616e-18
2.10263e-06
-3.36746e-18
2.67025e-06
-3.28663e-18
1.50234e-06
0
-2.74062e-07
-3.27251e-18
-2.28014e-06
0
-2.79697e-06
-3.26536e-18
-1.08781e-06
3.37493e-18
1.21165e-06
-3.34386e-18
2.611e-06
-3.15164e-22
2.06498e-06
3.36369e-18
-1.17975e-07
-3.28369e-18
-2.40834e-06
-5.19847e-22
-2.9127e-06
-3.26545e-18
-1.36137e-06
-2.68294e-22
7.46667e-07
0
2.62107e-06
-3.36686e-18
3.01855e-06
-6.72736e-23
1.55076e-06
3.3258e-18
-2.65949e-07
7.44829e-22
-2.03175e-06
-3.33251e-18
-2.75487e-06
1.35223e-22
-1.74835e-06
3.36333e-22
2.4093e-07
0
2.3091e-06
-3.20638e-22
2.52718e-06
-3.37304e-18
1.05767e-06
3.28638e-18
-7.86446e-07
-1.13249e-21
-2.92246e-06
6.56512e-18
-3.06415e-06
-3.36222e-18
-9.07861e-07
-3.30798e-18
1.13906e-06
0
3.06991e-06
3.54043e-22
3.24124e-06
0
1.17157e-06
7.68104e-23
-8.80155e-07
3.31061e-18
-3.01519e-06
0
-3.66898e-06
7.58843e-23
-1.73218e-06
3.37089e-18
7.25782e-07
-1.01095e-21
3.03328e-06
0
3.56468e-06
3.29808e-18
1.83831e-06
1.2064e-22
6.42491e-07
-3.34374e-18
2.56604e-07
3.31607e-18
-1.04132e-06
3.34692e-18
-2.8489e-06
3.30619e-18
-2.58737e-06
-3.37185e-18
-8.56113e-07
-3.29757e-18
6.76977e-07
-9.86394e-22
2.39744e-06
2.86105e-22
2.52166e-06
0
1.00298e-06
-3.29654e-18
-6.81372e-07
-3.34838e-18
-2.60916e-06
6.63604e-18
-2.77249e-06
3.40553e-23
-1.082e-06
-3.34079e-18
5.55011e-07
-3.31317e-18
2.62975e-06
0
3.14652e-06
0
1.12901e-06
3.35767e-18
-9.49409e-07
8.8092e-22
-2.71468e-06
-3.37405e-18
-2.9621e-06
3.28467e-18
-2.45421e-07
3.36908e-18
2.95994e-06
0
3.2552e-06
1.92809e-22
1.40334e-06
-3.31696e-18
2.81701e-07
3.33317e-18
1.48265e-07
-3.34201e-18
1.01441e-07
-3.31639e-18
3.38087e-08
-6.03115e-23
1.26497e-07
-3.31334e-18
2.5681e-07
-6.69646e-18
2.79933e-07
-3.28925e-18
3.00226e-07
-3.36987e-18
3.06244e-07
-6.67253e-18
2.86923e-07
3.34458e-18
2.79814e-07
-3.17761e-23
2.72145e-07
3.3532e-18
2.635e-07
3.34135e-18
2.52721e-07
0
2.36951e-07
0
2.16183e-07
3.48839e-18
1.80452e-07
0
1.09181e-07
-3.20848e-18
3.12523e-08
-6.65988e-18
2.54531e-10
0
-3.34821e-11
1.41664e-11
0
0
0
0
0
0
0
0
0
0
0
0
0
0
0
0
0
0
0
0
0
0
0
0
0
0
0
0
0
0
0
0
0
0
0
0
0
0
0
0
0
0
0
0
0
0
0
0
0
0
0
0
0
0
0
0
0
0
0
0
0
0
0
0
0
0
0
0
0
0
0
0
0
0
0
0
-4.16334e-19
1.15648e-19
0
3.46945e-19
0
2.31296e-19
8.32667e-19
4.62593e-19
8.32667e-19
8.09538e-19
0
8.09538e-19
0
1.27213e-18
0
1.50343e-18
-8.32667e-19
1.96602e-18
0
2.77556e-18
-8.32667e-19
3.46945e-18
-8.32667e-19
4.74158e-18
-8.32667e-19
5.89806e-18
-8.32667e-19
7.74843e-18
8.32667e-19
9.8301e-18
1.74618e-32
1.249e-17
0
1.58438e-17
-8.32667e-19
1.97758e-17
0
2.44018e-17
-8.32667e-19
3.00685e-17
8.32667e-19
3.70074e-17
0
4.47559e-17
8.32667e-19
5.38921e-17
1.66533e-18
6.38378e-17
0
7.44775e-17
8.32667e-19
8.55797e-17
-8.32667e-19
9.64506e-17
8.32667e-19
1.05702e-16
1.42776e-31
1.11832e-16
-8.32667e-19
1.11947e-16
0
1.02233e-16
8.32667e-19
7.73687e-17
-8.32667e-19
3.01842e-17
-8.32667e-19
-4.96131e-17
-8.32667e-19
-1.7567e-16
-6.0089e-31
-3.66142e-16
8.32667e-19
-6.45433e-16
-8.32667e-19
-1.04477e-15
8.32667e-19
-1.6045e-15
-8.32667e-19
-2.37634e-15
-8.32666e-19
-3.42527e-15
0
-4.83144e-15
0
-6.69187e-15
0
-9.1221e-15
0
-1.22547e-14
0
-1.6234e-14
0
-2.12095e-14
-1.66532e-18
-2.73061e-14
0
-3.46276e-14
1.66531e-18
-4.30546e-14
0
-5.26366e-14
0
-6.20553e-14
1.66528e-18
-7.07716e-14
-1.66526e-18
-8.32138e-14
0
-3.76056e-14
1.66515e-18
-2.15434e-13
0
3.72926e-13