/*--------------------------------*- C++ -*----------------------------------*\
| =========                 |                                                 |
| \\      /  F ield         | foam-extend: Open Source CFD                    |
|  \\    /   O peration     | Version:     3.2                                |
|   \\  /    A nd           | Web:         http://www.foam-extend.org         |
|    \\/     M anipulation  | For copyright notice see file Copyright         |
\*---------------------------------------------------------------------------*/
FoamFile
{
    version     2.0;
    format      ascii;
    class       volVectorField;
    location    "160";
    object      meshCentreN;
}
// * * * * * * * * * * * * * * * * * * * * * * * * * * * * * * * * * * * * * //

dimensions      [0 1 0 0 0 0 0];

internalField   nonuniform List<vector> 
96000
(
(0.025 0.01 0.00140625)
(0.075 0.01 0.00140625)
(0.125 0.01 0.00140625)
(0.175 0.01 0.00140625)
(0.225 0.01 0.00140625)
(0.275 0.01 0.00140625)
(0.325 0.01 0.00140625)
(0.375 0.01 0.00140625)
(0.425 0.01 0.00140625)
(0.475 0.01 0.00140625)
(0.525 0.01 0.00140625)
(0.575 0.01 0.00140625)
(0.625 0.01 0.00140625)
(0.675 0.01 0.00140625)
(0.725 0.01 0.00140625)
(0.775 0.01 0.00140625)
(0.825 0.01 0.00140625)
(0.875 0.01 0.00140625)
(0.925 0.01 0.00140625)
(0.975 0.01 0.00140625)
(1.025 0.01 0.00140625)
(1.075 0.01 0.00140625)
(1.125 0.01 0.00140625)
(1.175 0.01 0.00140625)
(1.225 0.01 0.00140625)
(1.275 0.01 0.00140625)
(1.325 0.01 0.00140625)
(1.375 0.01 0.00140625)
(1.425 0.01 0.00140625)
(1.475 0.01 0.00140625)
(1.525 0.01 0.00140625)
(1.575 0.01 0.00140625)
(1.625 0.01 0.00140625)
(1.675 0.01 0.00140625)
(1.725 0.01 0.00140625)
(1.775 0.01 0.00140625)
(1.825 0.01 0.00140625)
(1.875 0.01 0.00140625)
(1.925 0.01 0.00140625)
(1.975 0.01 0.00140625)
(2.025 0.01 0.00140625)
(2.075 0.01 0.00140625)
(2.125 0.01 0.00140625)
(2.175 0.01 0.00140625)
(2.225 0.01 0.00140625)
(2.275 0.01 0.00140625)
(2.325 0.01 0.00140625)
(2.375 0.01 0.00140625)
(2.425 0.01 0.00140625)
(2.475 0.01 0.00140625)
(2.525 0.01 0.00140625)
(2.575 0.01 0.00140625)
(2.625 0.01 0.00140625)
(2.675 0.01 0.00140625)
(2.725 0.01 0.00140625)
(2.775 0.01 0.00140625)
(2.825 0.01 0.00140625)
(2.875 0.01 0.00140625)
(2.925 0.01 0.00140625)
(2.975 0.01 0.00140625)
(3.025 0.01 0.00140625)
(3.075 0.01 0.00140625)
(3.125 0.01 0.00140625)
(3.175 0.01 0.00140625)
(3.225 0.01 0.00140625)
(3.275 0.01 0.00140625)
(3.325 0.01 0.00140625)
(3.375 0.01 0.00140625)
(3.425 0.01 0.00140625)
(3.475 0.01 0.00140625)
(3.525 0.01 0.00140625)
(3.575 0.01 0.00140625)
(3.625 0.01 0.00140625)
(3.675 0.01 0.00140625)
(3.725 0.01 0.00140625)
(3.775 0.01 0.00140625)
(3.825 0.01 0.00140625)
(3.875 0.01 0.00140625)
(3.925 0.01 0.00140625)
(3.975 0.01 0.00140625)
(4.025 0.01 0.00140625)
(4.075 0.01 0.00140625)
(4.125 0.01 0.00140625)
(4.175 0.01 0.00140625)
(4.225 0.01 0.00140625)
(4.275 0.01 0.00140625)
(4.325 0.01 0.00140625)
(4.375 0.01 0.00140625)
(4.425 0.01 0.00140625)
(4.475 0.01 0.00140625)
(4.525 0.01 0.00140625)
(4.575 0.01 0.00140625)
(4.625 0.01 0.00140625)
(4.675 0.01 0.00140625)
(4.725 0.01 0.00140625)
(4.775 0.01 0.00140625)
(4.825 0.01 0.00140623)
(4.875 0.01 0.00140645)
(4.92498 0.01 0.00140332)
(4.97506 0.01 -0.00189777)
(5.02502 0.01 -0.00955894)
(5.07496 0.01 -0.0165921)
(5.125 0.01 -0.0217774)
(5.17499 0.01 -0.0262447)
(5.225 0.01 -0.0299484)
(5.275 0.01 -0.0331061)
(5.325 0.01 -0.0357436)
(5.37499 0.01 -0.037925)
(5.42501 0.01 -0.0398386)
(5.47498 0.01 -0.0405961)
(5.525 0.01 -0.0408218)
(5.57503 0.01 -0.0426499)
(5.62496 0.01 -0.0437949)
(5.67505 0.01 -0.0451024)
(5.72495 0.01 -0.0459543)
(5.77502 0.01 -0.0460261)
(5.82502 0.01 -0.0477359)
(5.87496 0.01 -0.048031)
(5.92506 0.01 -0.0487639)
(5.97493 0.01 -0.0490186)
(6.0251 0.01 -0.0507323)
(6.07493 0.01 -0.0524501)
(6.12499 0.01 -0.0507087)
(6.17505 0.01 -0.0510176)
(6.22495 0.01 -0.05093)
(6.27507 0.01 -0.0510585)
(6.32492 0.01 -0.0504407)
(6.37507 0.01 -0.0505434)
(6.42496 0.01 -0.0520215)
(6.475 0.01 -0.0519153)
(6.52504 0.01 -0.0532076)
(6.57494 0.01 -0.0529376)
(6.62507 0.01 -0.0526446)
(6.67492 0.01 -0.0517622)
(6.72507 0.01 -0.0513914)
(6.77496 0.01 -0.0518354)
(6.82499 0.01 -0.0504764)
(6.87505 0.01 -0.0512901)
(6.92494 0.01 -0.0512755)
(6.9751 0.01 -0.0519293)
(7.0249 0.01 -0.0513648)
(7.07505 0.01 -0.0503022)
(7.125 0.01 -0.0516184)
(7.17496 0.01 -0.0505066)
(7.22508 0.01 -0.05064)
(7.27491 0.01 -0.0497449)
(7.32509 0.01 -0.0490523)
(7.37493 0.01 -0.0486653)
(7.42502 0.01 -0.0470189)
(7.47503 0.01 -0.0478299)
(7.52495 0.01 -0.0470761)
(7.57507 0.01 -0.0466413)
(7.62493 0.01 -0.0458367)
(7.67507 0.01 -0.045438)
(7.72495 0.01 -0.0454129)
(7.77501 0.01 -0.0440104)
(7.82504 0.01 -0.0443482)
(7.87494 0.01 -0.0430065)
(7.92506 0.01 -0.0420126)
(7.97494 0.01 -0.0410761)
(8.02505 0.01 -0.0403753)
(8.07496 0.01 -0.0405041)
(8.12501 0.01 -0.0399931)
(8.17502 0.01 -0.0407359)
(8.22496 0.01 -0.0401694)
(8.27504 0.01 -0.0397038)
(8.32495 0.01 -0.0389621)
(8.37505 0.01 -0.0386268)
(8.42495 0.01 -0.0383777)
(8.47504 0.01 -0.0383927)
(8.52499 0.01 -0.0394737)
(8.57498 0.01 -0.0388374)
(8.62503 0.01 -0.038777)
(8.67497 0.01 -0.0387661)
(8.72505 0.01 -0.0394664)
(8.77495 0.01 -0.039927)
(8.82505 0.01 -0.0402085)
(8.87495 0.01 -0.0401416)
(8.92503 0.01 -0.0398892)
(8.97499 0.01 -0.0405909)
(9.02499 0.01 -0.0404502)
(9.07502 0.01 -0.0414071)
(9.12497 0.01 -0.0424661)
(9.17505 0.01 -0.0439563)
(9.22494 0.01 -0.0445149)
(9.27506 0.01 -0.0449197)
(9.32494 0.01 -0.04502)
(9.37504 0.01 -0.0450108)
(9.42498 0.01 -0.0459006)
(9.47499 0.01 -0.045354)
(9.52503 0.01 -0.0456882)
(9.57497 0.01 -0.045634)
(9.62504 0.01 -0.0456142)
(9.67495 0.01 -0.0450441)
(9.72506 0.01 -0.0448903)
(9.77494 0.01 -0.0447168)
(9.82505 0.01 -0.0444885)
(9.87497 0.01 -0.0447274)
(9.92499 0.01 -0.0432704)
(9.97502 0.01 -0.0428399)
(10.025 0.01 -0.0426723)
(10.075 0.01 -0.0428478)
(10.125 0.01 -0.042311)
(10.175 0.01 -0.0419112)
(10.2249 0.01 -0.0414171)
(10.275 0.01 -0.0409829)
(10.325 0.01 -0.0409311)
(10.375 0.01 -0.0406087)
(10.425 0.01 -0.0412358)
(10.475 0.01 -0.0416239)
(10.525 0.01 -0.0425547)
(10.575 0.01 -0.0427422)
(10.625 0.01 -0.0429033)
(10.675 0.01 -0.0431438)
(10.725 0.01 -0.0437547)
(10.775 0.01 -0.04391)
(10.825 0.01 -0.0440179)
(10.8749 0.01 -0.0439388)
(10.925 0.01 -0.0439716)
(10.975 0.01 -0.0448144)
(11.025 0.01 -0.0439872)
(11.075 0.01 -0.0436756)
(11.125 0.01 -0.0432917)
(11.175 0.01 -0.043371)
(11.225 0.01 -0.0430235)
(11.2751 0.01 -0.0428596)
(11.3249 0.01 -0.0426524)
(11.375 0.01 -0.042373)
(11.425 0.01 -0.0430888)
(11.475 0.01 -0.0433339)
(11.525 0.01 -0.0442619)
(11.575 0.01 -0.0448746)
(11.625 0.01 -0.0450003)
(11.675 0.01 -0.0447149)
(11.725 0.01 -0.0445498)
(11.775 0.01 -0.043988)
(11.825 0.01 -0.0437356)
(11.875 0.01 -0.0434287)
(11.925 0.01 -0.043221)
(11.975 0.01 -0.0429752)
(12.025 0.01 -0.0428814)
(12.075 0.01 -0.043463)
(12.125 0.01 -0.0439209)
(12.175 0.01 -0.045039)
(12.225 0.01 -0.0452515)
(12.275 0.01 -0.0451449)
(12.325 0.01 -0.0448798)
(12.375 0.01 -0.0445861)
(12.425 0.01 -0.0440176)
(12.475 0.01 -0.0438019)
(12.525 0.01 -0.0436829)
(12.575 0.01 -0.0438926)
(12.625 0.01 -0.0444763)
(12.675 0.01 -0.0449493)
(12.725 0.01 -0.0457589)
(12.775 0.01 -0.0455327)
(12.825 0.01 -0.0454627)
(12.875 0.01 -0.0454633)
(12.925 0.01 -0.0457633)
(12.975 0.01 -0.045588)
(13.025 0.01 -0.0452191)
(13.075 0.01 -0.0444978)
(13.125 0.01 -0.0438413)
(13.175 0.01 -0.0435723)
(13.225 0.01 -0.0432894)
(13.275 0.01 -0.0435319)
(13.325 0.01 -0.0436432)
(13.375 0.01 -0.0440153)
(13.425 0.01 -0.0439791)
(13.475 0.01 -0.0442223)
(13.525 0.01 -0.0439671)
(13.575 0.01 -0.0434941)
(13.625 0.01 -0.0430593)
(13.675 0.01 -0.0429479)
(13.725 0.01 -0.0426802)
(13.775 0.01 -0.0425739)
(13.825 0.01 -0.0427646)
(13.875 0.01 -0.0427283)
(13.925 0.01 -0.0426852)
(13.975 0.01 -0.0421482)
(14.025 0.01 -0.0419587)
(14.075 0.01 -0.0413236)
(14.125 0.01 -0.040737)
(14.175 0.01 -0.0402429)
(14.225 0.01 -0.0399357)
(14.275 0.01 -0.0396197)
(14.325 0.01 -0.0401013)
(14.375 0.01 -0.0407313)
(14.425 0.01 -0.0400189)
(14.475 0.01 -0.0387662)
(14.525 0.01 -0.0371049)
(14.575 0.01 -0.034848)
(14.625 0.01 -0.0319041)
(14.675 0.01 -0.0278696)
(14.7251 0.01 -0.0226022)
(14.775 0.01 -0.0139187)
(14.8249 0.01 -0.00330668)
(14.875 0.01 0.0014037)
(14.925 0.01 0.00140642)
(14.975 0.01 0.00140623)
(0.025 0.01 0.00421875)
(0.075 0.01 0.00421875)
(0.125 0.01 0.00421875)
(0.175 0.01 0.00421875)
(0.225 0.01 0.00421875)
(0.275 0.01 0.00421875)
(0.325 0.01 0.00421875)
(0.375 0.01 0.00421875)
(0.425 0.01 0.00421875)
(0.475 0.01 0.00421875)
(0.525 0.01 0.00421875)
(0.575 0.01 0.00421875)
(0.625 0.01 0.00421875)
(0.675 0.01 0.00421875)
(0.725 0.01 0.00421875)
(0.775 0.01 0.00421875)
(0.825 0.01 0.00421875)
(0.875 0.01 0.00421875)
(0.925 0.01 0.00421875)
(0.975 0.01 0.00421875)
(1.025 0.01 0.00421875)
(1.075 0.01 0.00421875)
(1.125 0.01 0.00421875)
(1.175 0.01 0.00421875)
(1.225 0.01 0.00421875)
(1.275 0.01 0.00421875)
(1.325 0.01 0.00421875)
(1.375 0.01 0.00421875)
(1.425 0.01 0.00421875)
(1.475 0.01 0.00421875)
(1.525 0.01 0.00421875)
(1.575 0.01 0.00421875)
(1.625 0.01 0.00421875)
(1.675 0.01 0.00421875)
(1.725 0.01 0.00421875)
(1.775 0.01 0.00421875)
(1.825 0.01 0.00421875)
(1.875 0.01 0.00421875)
(1.925 0.01 0.00421875)
(1.975 0.01 0.00421875)
(2.025 0.01 0.00421875)
(2.075 0.01 0.00421875)
(2.125 0.01 0.00421875)
(2.175 0.01 0.00421875)
(2.225 0.01 0.00421875)
(2.275 0.01 0.00421875)
(2.325 0.01 0.00421875)
(2.375 0.01 0.00421875)
(2.425 0.01 0.00421875)
(2.475 0.01 0.00421875)
(2.525 0.01 0.00421875)
(2.575 0.01 0.00421875)
(2.625 0.01 0.00421875)
(2.675 0.01 0.00421875)
(2.725 0.01 0.00421875)
(2.775 0.01 0.00421875)
(2.825 0.01 0.00421875)
(2.875 0.01 0.00421875)
(2.925 0.01 0.00421875)
(2.975 0.01 0.00421875)
(3.025 0.01 0.00421875)
(3.075 0.01 0.00421875)
(3.125 0.01 0.00421875)
(3.175 0.01 0.00421875)
(3.225 0.01 0.00421875)
(3.275 0.01 0.00421875)
(3.325 0.01 0.00421875)
(3.375 0.01 0.00421875)
(3.425 0.01 0.00421875)
(3.475 0.01 0.00421875)
(3.525 0.01 0.00421875)
(3.575 0.01 0.00421875)
(3.625 0.01 0.00421875)
(3.675 0.01 0.00421875)
(3.725 0.01 0.00421875)
(3.775 0.01 0.00421875)
(3.825 0.01 0.00421875)
(3.875 0.01 0.00421875)
(3.925 0.01 0.00421875)
(3.975 0.01 0.00421875)
(4.025 0.01 0.00421875)
(4.075 0.01 0.00421875)
(4.125 0.01 0.00421875)
(4.175 0.01 0.00421875)
(4.225 0.01 0.00421875)
(4.275 0.01 0.00421875)
(4.325 0.01 0.00421875)
(4.375 0.01 0.00421875)
(4.425 0.01 0.00421875)
(4.475 0.01 0.00421875)
(4.525 0.01 0.00421875)
(4.575 0.01 0.00421874)
(4.625 0.01 0.00421874)
(4.675 0.01 0.00421874)
(4.725 0.01 0.00421873)
(4.775 0.01 0.00421872)
(4.825 0.01 0.0042186)
(4.875 0.01 0.00421955)
(4.92495 0.01 0.004205)
(4.97508 0.01 0.000913006)
(5.02505 0.01 -0.00671368)
(5.07494 0.01 -0.0137463)
(5.12501 0.01 -0.0189498)
(5.17499 0.01 -0.0234186)
(5.225 0.01 -0.0271268)
(5.27499 0.01 -0.0302862)
(5.325 0.01 -0.0329256)
(5.37499 0.01 -0.0351091)
(5.42502 0.01 -0.0370194)
(5.47496 0.01 -0.0377811)
(5.525 0.01 -0.0380183)
(5.57506 0.01 -0.0398343)
(5.62492 0.01 -0.0409844)
(5.6751 0.01 -0.0422907)
(5.72491 0.01 -0.04314)
(5.77503 0.01 -0.043227)
(5.82504 0.01 -0.0449192)
(5.87492 0.01 -0.0452258)
(5.92511 0.01 -0.0459533)
(5.97486 0.01 -0.0462157)
(6.02518 0.01 -0.0479248)
(6.07489 0.01 -0.0496203)
(6.12498 0.01 -0.047914)
(6.17508 0.01 -0.0482081)
(6.2249 0.01 -0.0481254)
(6.27513 0.01 -0.048247)
(6.32485 0.01 -0.0476367)
(6.37513 0.01 -0.0477438)
(6.42492 0.01 -0.0492045)
(6.475 0.01 -0.0491177)
(6.52507 0.01 -0.0503919)
(6.57489 0.01 -0.0501322)
(6.62512 0.01 -0.0498337)
(6.67486 0.01 -0.048958)
(6.72513 0.01 -0.0485889)
(6.77492 0.01 -0.0490177)
(6.82498 0.01 -0.0476821)
(6.87509 0.01 -0.0484783)
(6.92488 0.01 -0.0484728)
(6.97517 0.01 -0.0491143)
(7.02482 0.01 -0.0485535)
(7.0751 0.01 -0.0475074)
(7.12499 0.01 -0.0487962)
(7.17492 0.01 -0.0477077)
(7.22514 0.01 -0.0478252)
(7.27484 0.01 -0.0469389)
(7.32516 0.01 -0.0462454)
(7.37487 0.01 -0.0458503)
(7.42503 0.01 -0.0442251)
(7.47506 0.01 -0.0450133)
(7.5249 0.01 -0.0442719)
(7.57512 0.01 -0.0438307)
(7.62487 0.01 -0.0430314)
(7.67513 0.01 -0.0426319)
(7.72491 0.01 -0.0425967)
(7.77502 0.01 -0.0412127)
(7.82506 0.01 -0.0415297)
(7.87489 0.01 -0.0402011)
(7.92512 0.01 -0.0392026)
(7.97488 0.01 -0.0382686)
(8.0251 0.01 -0.0375706)
(8.07493 0.01 -0.0376916)
(8.12502 0.01 -0.0371923)
(8.17503 0.01 -0.0379198)
(8.22493 0.01 -0.0373624)
(8.27508 0.01 -0.036893)
(8.32491 0.01 -0.0361559)
(8.3751 0.01 -0.0358178)
(8.4249 0.01 -0.0355695)
(8.47508 0.01 -0.03559)
(8.52498 0.01 -0.036655)
(8.57497 0.01 -0.0360332)
(8.62505 0.01 -0.0359685)
(8.67494 0.01 -0.0359613)
(8.72508 0.01 -0.0366565)
(8.77491 0.01 -0.0371175)
(8.82509 0.01 -0.0373984)
(8.87491 0.01 -0.0373317)
(8.92506 0.01 -0.0370861)
(8.97497 0.01 -0.0377772)
(9.02498 0.01 -0.0376479)
(9.07504 0.01 -0.0385987)
(9.12495 0.01 -0.0396588)
(9.17509 0.01 -0.0411423)
(9.2249 0.01 -0.041705)
(9.27511 0.01 -0.0421093)
(9.32489 0.01 -0.04221)
(9.37508 0.01 -0.0422074)
(9.42497 0.01 -0.0430832)
(9.47498 0.01 -0.0425507)
(9.52505 0.01 -0.0428768)
(9.57494 0.01 -0.0428256)
(9.62508 0.01 -0.0428016)
(9.6749 0.01 -0.0422374)
(9.72511 0.01 -0.0420804)
(9.77489 0.01 -0.041907)
(9.82509 0.01 -0.0416823)
(9.87495 0.01 -0.0419081)
(9.92498 0.01 -0.0404671)
(9.97504 0.01 -0.0400317)
(10.025 0.01 -0.0398655)
(10.0751 0.01 -0.0400344)
(10.1249 0.01 -0.0395028)
(10.1751 0.01 -0.0391005)
(10.2249 0.01 -0.0386078)
(10.2751 0.01 -0.0381751)
(10.3249 0.01 -0.0381197)
(10.375 0.01 -0.0378046)
(10.425 0.01 -0.0384247)
(10.475 0.01 -0.0388178)
(10.525 0.01 -0.0397411)
(10.5749 0.01 -0.0399328)
(10.6251 0.01 -0.0400941)
(10.6749 0.01 -0.040336)
(10.7251 0.01 -0.0409424)
(10.7749 0.01 -0.0411001)
(10.8251 0.01 -0.0412071)
(10.8749 0.01 -0.041129)
(10.9251 0.01 -0.0411667)
(10.975 0.01 -0.0419948)
(11.025 0.01 -0.0411811)
(11.075 0.01 -0.0408651)
(11.1249 0.01 -0.040485)
(11.1751 0.01 -0.0405586)
(11.2249 0.01 -0.040215)
(11.2751 0.01 -0.0400491)
(11.3249 0.01 -0.0398417)
(11.3751 0.01 -0.0395686)
(11.425 0.01 -0.0402759)
(11.475 0.01 -0.0405284)
(11.525 0.01 -0.0414506)
(11.575 0.01 -0.0420628)
(11.625 0.01 -0.0421887)
(11.675 0.01 -0.0419063)
(11.725 0.01 -0.0417376)
(11.775 0.01 -0.0411802)
(11.8251 0.01 -0.0409252)
(11.8749 0.01 -0.0406196)
(11.9251 0.01 -0.0404108)
(11.9749 0.01 -0.0401659)
(12.0251 0.01 -0.0400751)
(12.075 0.01 -0.0406517)
(12.125 0.01 -0.0411148)
(12.175 0.01 -0.042224)
(12.225 0.01 -0.0424406)
(12.275 0.01 -0.0423344)
(12.325 0.01 -0.0420702)
(12.375 0.01 -0.0417744)
(12.4249 0.01 -0.0412096)
(12.4751 0.01 -0.0409921)
(12.5249 0.01 -0.0408744)
(12.5751 0.01 -0.0410847)
(12.6249 0.01 -0.0416652)
(12.675 0.01 -0.0421417)
(12.725 0.01 -0.042943)
(12.775 0.01 -0.0427241)
(12.825 0.01 -0.042653)
(12.875 0.01 -0.0426552)
(12.925 0.01 -0.0429508)
(12.9749 0.01 -0.0427775)
(13.0251 0.01 -0.0424068)
(13.0749 0.01 -0.0416881)
(13.1251 0.01 -0.0410329)
(13.1749 0.01 -0.040762)
(13.225 0.01 -0.0404822)
(13.275 0.01 -0.0407209)
(13.325 0.01 -0.0408349)
(13.375 0.01 -0.0412028)
(13.425 0.01 -0.0411708)
(13.475 0.01 -0.0414093)
(13.525 0.01 -0.0411558)
(13.575 0.01 -0.0406837)
(13.625 0.01 -0.0402508)
(13.6751 0.01 -0.0401362)
(13.7249 0.01 -0.0398704)
(13.7751 0.01 -0.0397646)
(13.825 0.01 -0.0399523)
(13.875 0.01 -0.0399175)
(13.925 0.01 -0.0398713)
(13.975 0.01 -0.0393392)
(14.025 0.01 -0.0391447)
(14.075 0.01 -0.0385124)
(14.125 0.01 -0.0379255)
(14.175 0.01 -0.0374321)
(14.225 0.01 -0.0371232)
(14.275 0.01 -0.0368114)
(14.3251 0.01 -0.0372897)
(14.375 0.01 -0.0379113)
(14.425 0.01 -0.0372035)
(14.475 0.01 -0.0359507)
(14.525 0.01 -0.0342871)
(14.575 0.01 -0.0320288)
(14.625 0.01 -0.0290785)
(14.675 0.01 -0.0250417)
(14.7251 0.01 -0.0197381)
(14.7749 0.01 -0.0110456)
(14.8249 0.01 -0.000485217)
(14.8751 0.01 0.00420403)
(14.925 0.01 0.00421956)
(14.975 0.01 0.00421861)
(0.025 0.01 0.00703125)
(0.075 0.01 0.00703125)
(0.125 0.01 0.00703125)
(0.175 0.01 0.00703125)
(0.225 0.01 0.00703125)
(0.275 0.01 0.00703125)
(0.325 0.01 0.00703125)
(0.375 0.01 0.00703125)
(0.425 0.01 0.00703125)
(0.475 0.01 0.00703125)
(0.525 0.01 0.00703125)
(0.575 0.01 0.00703125)
(0.625 0.01 0.00703125)
(0.675 0.01 0.00703125)
(0.725 0.01 0.00703125)
(0.775 0.01 0.00703125)
(0.825 0.01 0.00703125)
(0.875 0.01 0.00703125)
(0.925 0.01 0.00703125)
(0.975 0.01 0.00703125)
(1.025 0.01 0.00703125)
(1.075 0.01 0.00703125)
(1.125 0.01 0.00703125)
(1.175 0.01 0.00703125)
(1.225 0.01 0.00703125)
(1.275 0.01 0.00703125)
(1.325 0.01 0.00703125)
(1.375 0.01 0.00703125)
(1.425 0.01 0.00703125)
(1.475 0.01 0.00703125)
(1.525 0.01 0.00703125)
(1.575 0.01 0.00703125)
(1.625 0.01 0.00703125)
(1.675 0.01 0.00703125)
(1.725 0.01 0.00703125)
(1.775 0.01 0.00703125)
(1.825 0.01 0.00703125)
(1.875 0.01 0.00703125)
(1.925 0.01 0.00703125)
(1.975 0.01 0.00703125)
(2.025 0.01 0.00703125)
(2.075 0.01 0.00703125)
(2.125 0.01 0.00703125)
(2.175 0.01 0.00703125)
(2.225 0.01 0.00703125)
(2.275 0.01 0.00703125)
(2.325 0.01 0.00703125)
(2.375 0.01 0.00703125)
(2.425 0.01 0.00703125)
(2.475 0.01 0.00703125)
(2.525 0.01 0.00703125)
(2.575 0.01 0.00703125)
(2.625 0.01 0.00703125)
(2.675 0.01 0.00703125)
(2.725 0.01 0.00703125)
(2.775 0.01 0.00703125)
(2.825 0.01 0.00703125)
(2.875 0.01 0.00703125)
(2.925 0.01 0.00703125)
(2.975 0.01 0.00703125)
(3.025 0.01 0.00703125)
(3.075 0.01 0.00703125)
(3.125 0.01 0.00703125)
(3.175 0.01 0.00703125)
(3.225 0.01 0.00703125)
(3.275 0.01 0.00703125)
(3.325 0.01 0.00703125)
(3.375 0.01 0.00703125)
(3.425 0.01 0.00703125)
(3.475 0.01 0.00703125)
(3.525 0.01 0.00703125)
(3.575 0.01 0.00703125)
(3.625 0.01 0.00703125)
(3.675 0.01 0.00703125)
(3.725 0.01 0.00703125)
(3.775 0.01 0.00703125)
(3.825 0.01 0.00703125)
(3.875 0.01 0.00703125)
(3.925 0.01 0.00703125)
(3.975 0.01 0.00703125)
(4.025 0.01 0.00703125)
(4.075 0.01 0.00703125)
(4.125 0.01 0.00703125)
(4.175 0.01 0.00703125)
(4.225 0.01 0.00703125)
(4.275 0.01 0.00703125)
(4.325 0.01 0.00703125)
(4.375 0.01 0.00703124)
(4.425 0.01 0.00703124)
(4.475 0.01 0.00703124)
(4.525 0.01 0.00703124)
(4.575 0.01 0.00703123)
(4.625 0.01 0.00703122)
(4.675 0.01 0.0070312)
(4.725 0.01 0.00703117)
(4.775 0.01 0.00703113)
(4.825 0.01 0.00703078)
(4.875 0.01 0.00703279)
(4.92492 0.01 0.00699731)
(4.9751 0.01 0.0037116)
(5.02507 0.01 -0.00386569)
(5.07493 0.01 -0.0108957)
(5.12501 0.01 -0.01612)
(5.17498 0.01 -0.0205901)
(5.225 0.01 -0.0243035)
(5.27499 0.01 -0.0274647)
(5.325 0.01 -0.0301061)
(5.37499 0.01 -0.0322923)
(5.42503 0.01 -0.0341969)
(5.47495 0.01 -0.0349647)
(5.52499 0.01 -0.0352197)
(5.57508 0.01 -0.0370155)
(5.62489 0.01 -0.038174)
(5.67513 0.01 -0.0394767)
(5.72488 0.01 -0.0403224)
(5.77504 0.01 -0.0404324)
(5.82505 0.01 -0.0420974)
(5.87489 0.01 -0.0424215)
(5.92515 0.01 -0.0431397)
(5.9748 0.01 -0.0434158)
(6.02524 0.01 -0.0451149)
(6.07485 0.01 -0.0467787)
(6.12497 0.01 -0.0451252)
(6.17511 0.01 -0.0453963)
(6.22486 0.01 -0.0453207)
(6.27517 0.01 -0.0454319)
(6.32479 0.01 -0.044833)
(6.37518 0.01 -0.0449468)
(6.4249 0.01 -0.0463818)
(6.475 0.01 -0.0463239)
(6.52509 0.01 -0.0475704)
(6.57486 0.01 -0.0473259)
(6.62517 0.01 -0.0470201)
(6.67481 0.01 -0.0461535)
(6.72518 0.01 -0.0457873)
(6.7749 0.01 -0.0461931)
(6.82498 0.01 -0.0448939)
(6.87512 0.01 -0.0456628)
(6.92483 0.01 -0.0456713)
(6.97523 0.01 -0.0462939)
(7.02475 0.01 -0.0457379)
(7.07515 0.01 -0.0447187)
(7.12499 0.01 -0.0459656)
(7.17489 0.01 -0.0449118)
(7.22519 0.01 -0.0450055)
(7.27478 0.01 -0.0441314)
(7.32522 0.01 -0.0434379)
(7.37483 0.01 -0.0430296)
(7.42505 0.01 -0.0414382)
(7.47507 0.01 -0.0421908)
(7.52487 0.01 -0.0414676)
(7.57516 0.01 -0.0410176)
(7.62482 0.01 -0.0402257)
(7.67518 0.01 -0.0398256)
(7.72487 0.01 -0.0397746)
(7.77502 0.01 -0.0384195)
(7.82508 0.01 -0.038705)
(7.87486 0.01 -0.0373957)
(7.92516 0.01 -0.0363918)
(7.97484 0.01 -0.0354603)
(8.02514 0.01 -0.0347673)
(8.0749 0.01 -0.0348759)
(8.12503 0.01 -0.0343947)
(8.17505 0.01 -0.0350987)
(8.22491 0.01 -0.0345549)
(8.27511 0.01 -0.0340805)
(8.32487 0.01 -0.03335)
(8.37514 0.01 -0.033008)
(8.42486 0.01 -0.0327605)
(8.47511 0.01 -0.0327894)
(8.52497 0.01 -0.0338305)
(8.57496 0.01 -0.0332306)
(8.62506 0.01 -0.0331594)
(8.67492 0.01 -0.0331577)
(8.72511 0.01 -0.0338446)
(8.77488 0.01 -0.0343065)
(8.82512 0.01 -0.0345864)
(8.87487 0.01 -0.0345202)
(8.92509 0.01 -0.0342851)
(8.97496 0.01 -0.03496)
(9.02497 0.01 -0.0348485)
(9.07506 0.01 -0.0357897)
(9.12493 0.01 -0.0368522)
(9.17512 0.01 -0.0383242)
(9.22486 0.01 -0.0388935)
(9.27515 0.01 -0.0392967)
(9.32485 0.01 -0.0393984)
(9.37511 0.01 -0.0394062)
(9.42496 0.01 -0.0402607)
(9.47497 0.01 -0.0397496)
(9.52507 0.01 -0.0400629)
(9.57491 0.01 -0.0400164)
(9.62511 0.01 -0.0399863)
(9.67487 0.01 -0.0394309)
(9.72515 0.01 -0.0392693)
(9.77485 0.01 -0.0390958)
(9.82513 0.01 -0.0388766)
(9.87494 0.01 -0.0390828)
(9.92498 0.01 -0.0376663)
(9.97505 0.01 -0.0372234)
(10.0249 0.01 -0.0370591)
(10.0751 0.01 -0.0372181)
(10.1249 0.01 -0.0366941)
(10.1751 0.01 -0.0362884)
(10.2249 0.01 -0.0357973)
(10.2751 0.01 -0.0353674)
(10.3249 0.01 -0.0353064)
(10.3751 0.01 -0.0350029)
(10.425 0.01 -0.0356123)
(10.475 0.01 -0.036013)
(10.525 0.01 -0.0369246)
(10.5749 0.01 -0.0371226)
(10.6251 0.01 -0.0372842)
(10.6749 0.01 -0.0375284)
(10.7251 0.01 -0.0381278)
(10.7749 0.01 -0.0382892)
(10.8251 0.01 -0.0383947)
(10.8749 0.01 -0.0383185)
(10.9251 0.01 -0.0383634)
(10.975 0.01 -0.0391693)
(11.025 0.01 -0.0383762)
(11.0751 0.01 -0.0380536)
(11.1249 0.01 -0.0376791)
(11.1751 0.01 -0.0377442)
(11.2249 0.01 -0.0374061)
(11.2751 0.01 -0.0372375)
(11.3249 0.01 -0.0370293)
(11.3751 0.01 -0.0367662)
(11.4249 0.01 -0.0374608)
(11.475 0.01 -0.0377246)
(11.525 0.01 -0.0386379)
(11.575 0.01 -0.0392492)
(11.625 0.01 -0.0393752)
(11.675 0.01 -0.0390974)
(11.725 0.01 -0.0389234)
(11.7749 0.01 -0.0383726)
(11.8251 0.01 -0.0381138)
(11.8749 0.01 -0.0378102)
(11.9251 0.01 -0.0375999)
(11.9749 0.01 -0.0373562)
(12.0251 0.01 -0.0372699)
(12.0749 0.01 -0.0378391)
(12.125 0.01 -0.0383102)
(12.175 0.01 -0.0394056)
(12.225 0.01 -0.0396283)
(12.275 0.01 -0.0395229)
(12.325 0.01 -0.0392599)
(12.3751 0.01 -0.0389611)
(12.4249 0.01 -0.0384018)
(12.4751 0.01 -0.0381816)
(12.5249 0.01 -0.0380662)
(12.5751 0.01 -0.0382772)
(12.6249 0.01 -0.0388531)
(12.6751 0.01 -0.0393347)
(12.725 0.01 -0.0401234)
(12.775 0.01 -0.0399154)
(12.825 0.01 -0.0398427)
(12.875 0.01 -0.0398474)
(12.9251 0.01 -0.0401363)
(12.9749 0.01 -0.0399658)
(13.0251 0.01 -0.0395927)
(13.0749 0.01 -0.0388777)
(13.1251 0.01 -0.038225)
(13.1749 0.01 -0.0379509)
(13.2251 0.01 -0.0376762)
(13.275 0.01 -0.0379089)
(13.325 0.01 -0.0380268)
(13.375 0.01 -0.0383885)
(13.425 0.01 -0.0383629)
(13.4751 0.01 -0.038594)
(13.5249 0.01 -0.0383434)
(13.5751 0.01 -0.0378729)
(13.6249 0.01 -0.0374428)
(13.6751 0.01 -0.0373236)
(13.7249 0.01 -0.0370604)
(13.7751 0.01 -0.0369556)
(13.8249 0.01 -0.0371387)
(13.8751 0.01 -0.0371063)
(13.925 0.01 -0.0370554)
(13.975 0.01 -0.036531)
(14.025 0.01 -0.0363291)
(14.075 0.01 -0.0357014)
(14.125 0.01 -0.0351142)
(14.175 0.01 -0.0346218)
(14.225 0.01 -0.0343104)
(14.2749 0.01 -0.0340051)
(14.3251 0.01 -0.0344783)
(14.375 0.01 -0.0350872)
(14.425 0.01 -0.0343866)
(14.475 0.01 -0.033134)
(14.525 0.01 -0.0314674)
(14.575 0.01 -0.0292075)
(14.625 0.01 -0.0262497)
(14.675 0.01 -0.0222101)
(14.7251 0.01 -0.0168649)
(14.7749 0.01 -0.00816516)
(14.8248 0.01 0.00232019)
(14.8751 0.01 0.00699102)
(14.925 0.01 0.00703302)
(14.975 0.01 0.00703083)
(0.025 0.01 0.00984375)
(0.075 0.01 0.00984375)
(0.125 0.01 0.00984375)
(0.175 0.01 0.00984375)
(0.225 0.01 0.00984375)
(0.275 0.01 0.00984375)
(0.325 0.01 0.00984375)
(0.375 0.01 0.00984375)
(0.425 0.01 0.00984375)
(0.475 0.01 0.00984375)
(0.525 0.01 0.00984375)
(0.575 0.01 0.00984375)
(0.625 0.01 0.00984375)
(0.675 0.01 0.00984375)
(0.725 0.01 0.00984375)
(0.775 0.01 0.00984375)
(0.825 0.01 0.00984375)
(0.875 0.01 0.00984375)
(0.925 0.01 0.00984375)
(0.975 0.01 0.00984375)
(1.025 0.01 0.00984375)
(1.075 0.01 0.00984375)
(1.125 0.01 0.00984375)
(1.175 0.01 0.00984375)
(1.225 0.01 0.00984375)
(1.275 0.01 0.00984375)
(1.325 0.01 0.00984375)
(1.375 0.01 0.00984375)
(1.425 0.01 0.00984375)
(1.475 0.01 0.00984375)
(1.525 0.01 0.00984375)
(1.575 0.01 0.00984375)
(1.625 0.01 0.00984375)
(1.675 0.01 0.00984375)
(1.725 0.01 0.00984375)
(1.775 0.01 0.00984375)
(1.825 0.01 0.00984375)
(1.875 0.01 0.00984375)
(1.925 0.01 0.00984375)
(1.975 0.01 0.00984375)
(2.025 0.01 0.00984375)
(2.075 0.01 0.00984375)
(2.125 0.01 0.00984375)
(2.175 0.01 0.00984375)
(2.225 0.01 0.00984375)
(2.275 0.01 0.00984375)
(2.325 0.01 0.00984375)
(2.375 0.01 0.00984375)
(2.425 0.01 0.00984375)
(2.475 0.01 0.00984375)
(2.525 0.01 0.00984375)
(2.575 0.01 0.00984375)
(2.625 0.01 0.00984375)
(2.675 0.01 0.00984375)
(2.725 0.01 0.00984375)
(2.775 0.01 0.00984375)
(2.825 0.01 0.00984375)
(2.875 0.01 0.00984375)
(2.925 0.01 0.00984375)
(2.975 0.01 0.00984375)
(3.025 0.01 0.00984375)
(3.075 0.01 0.00984375)
(3.125 0.01 0.00984375)
(3.175 0.01 0.00984375)
(3.225 0.01 0.00984375)
(3.275 0.01 0.00984375)
(3.325 0.01 0.00984375)
(3.375 0.01 0.00984375)
(3.425 0.01 0.00984375)
(3.475 0.01 0.00984375)
(3.525 0.01 0.00984375)
(3.575 0.01 0.00984375)
(3.625 0.01 0.00984375)
(3.675 0.01 0.00984375)
(3.725 0.01 0.00984375)
(3.775 0.01 0.00984375)
(3.825 0.01 0.00984375)
(3.875 0.01 0.00984375)
(3.925 0.01 0.00984375)
(3.975 0.01 0.00984375)
(4.025 0.01 0.00984375)
(4.075 0.01 0.00984375)
(4.125 0.01 0.00984375)
(4.175 0.01 0.00984375)
(4.225 0.01 0.00984374)
(4.275 0.01 0.00984374)
(4.325 0.01 0.00984374)
(4.375 0.01 0.00984374)
(4.425 0.01 0.00984373)
(4.475 0.01 0.00984372)
(4.525 0.01 0.00984371)
(4.575 0.01 0.0098437)
(4.625 0.01 0.00984367)
(4.675 0.01 0.00984363)
(4.725 0.01 0.00984355)
(4.775 0.01 0.00984342)
(4.825 0.01 0.00984268)
(4.875 0.01 0.00984563)
(4.9249 0.01 0.00978136)
(4.97511 0.01 0.00649986)
(5.02509 0.01 -0.00101588)
(5.07492 0.01 -0.00804089)
(5.12501 0.01 -0.0132879)
(5.17498 0.01 -0.0177595)
(5.225 0.01 -0.0214785)
(5.27499 0.01 -0.0246415)
(5.325 0.01 -0.027285)
(5.37499 0.01 -0.0294746)
(5.42504 0.01 -0.0313715)
(5.47493 0.01 -0.0321473)
(5.52499 0.01 -0.0324247)
(5.5751 0.01 -0.0341939)
(5.62487 0.01 -0.035363)
(5.67515 0.01 -0.0366601)
(5.72486 0.01 -0.0375017)
(5.77505 0.01 -0.0376409)
(5.82506 0.01 -0.0392714)
(5.87487 0.01 -0.0396171)
(5.92517 0.01 -0.0403233)
(5.97477 0.01 -0.0406176)
(6.02529 0.01 -0.0423018)
(6.07483 0.01 -0.0439271)
(6.12496 0.01 -0.04234)
(6.17513 0.01 -0.0425824)
(6.22484 0.01 -0.0425153)
(6.2752 0.01 -0.0426132)
(6.32476 0.01 -0.0420285)
(6.37522 0.01 -0.0421511)
(6.42488 0.01 -0.0435541)
(6.475 0.01 -0.0435322)
(6.52511 0.01 -0.0447435)
(6.57483 0.01 -0.0445178)
(6.62519 0.01 -0.0442036)
(6.67477 0.01 -0.043348)
(6.72522 0.01 -0.0429853)
(6.77488 0.01 -0.0433623)
(6.82497 0.01 -0.0421096)
(6.87514 0.01 -0.0428438)
(6.9248 0.01 -0.0428698)
(6.97527 0.01 -0.0434679)
(7.02471 0.01 -0.0429181)
(7.07518 0.01 -0.0419337)
(7.12499 0.01 -0.0431276)
(7.17487 0.01 -0.0421168)
(7.22522 0.01 -0.0421812)
(7.27474 0.01 -0.0413216)
(7.32526 0.01 -0.0406291)
(7.3748 0.01 -0.0402037)
(7.42506 0.01 -0.0386558)
(7.47509 0.01 -0.0393629)
(7.52484 0.01 -0.038662)
(7.57519 0.01 -0.0382019)
(7.62479 0.01 -0.0374187)
(7.67521 0.01 -0.0370182)
(7.72485 0.01 -0.0369469)
(7.77503 0.01 -0.0356288)
(7.8251 0.01 -0.0358751)
(7.87483 0.01 -0.0345896)
(7.92518 0.01 -0.0335798)
(7.97481 0.01 -0.0326505)
(8.02516 0.01 -0.0319643)
(8.07489 0.01 -0.0320573)
(8.12504 0.01 -0.0315989)
(8.17506 0.01 -0.0322731)
(8.22489 0.01 -0.031746)
(8.27512 0.01 -0.0312662)
(8.32485 0.01 -0.0305437)
(8.37516 0.01 -0.0301967)
(8.42484 0.01 -0.02995)
(8.47513 0.01 -0.0299896)
(8.52496 0.01 -0.0310012)
(8.57495 0.01 -0.0304288)
(8.62508 0.01 -0.0303493)
(8.6749 0.01 -0.0303542)
(8.72513 0.01 -0.0310302)
(8.77486 0.01 -0.0314937)
(8.82515 0.01 -0.0317723)
(8.87485 0.01 -0.0317068)
(8.92511 0.01 -0.0314849)
(8.97496 0.01 -0.0321399)
(9.02497 0.01 -0.032051)
(9.07507 0.01 -0.0329799)
(9.12492 0.01 -0.0340455)
(9.17514 0.01 -0.0355019)
(9.22483 0.01 -0.0360798)
(9.27517 0.01 -0.0364816)
(9.32482 0.01 -0.0365853)
(9.37514 0.01 -0.036606)
(9.42495 0.01 -0.0374338)
(9.47497 0.01 -0.0369492)
(9.52508 0.01 -0.0372465)
(9.5749 0.01 -0.0372056)
(9.62512 0.01 -0.0371684)
(9.67484 0.01 -0.0366239)
(9.72518 0.01 -0.0364569)
(9.77483 0.01 -0.0362828)
(9.82515 0.01 -0.0360705)
(9.87493 0.01 -0.036252)
(9.92497 0.01 -0.0348668)
(9.97506 0.01 -0.0344146)
(10.0249 0.01 -0.0342526)
(10.0751 0.01 -0.034399)
(10.1249 0.01 -0.0338844)
(10.1751 0.01 -0.0334747)
(10.2249 0.01 -0.0329853)
(10.2751 0.01 -0.0325591)
(10.3249 0.01 -0.0324912)
(10.3751 0.01 -0.0322025)
(10.425 0.01 -0.0327985)
(10.475 0.01 -0.0332087)
(10.5251 0.01 -0.0341053)
(10.5749 0.01 -0.0343112)
(10.6251 0.01 -0.034473)
(10.6749 0.01 -0.0347204)
(10.7251 0.01 -0.0353107)
(10.7749 0.01 -0.0354769)
(10.8251 0.01 -0.0355806)
(10.8748 0.01 -0.0355067)
(10.9251 0.01 -0.0355606)
(10.975 0.01 -0.0363388)
(11.025 0.01 -0.0355713)
(11.0751 0.01 -0.0352408)
(11.1249 0.01 -0.0348732)
(11.1751 0.01 -0.0349276)
(11.2249 0.01 -0.0345963)
(11.2752 0.01 -0.0344242)
(11.3248 0.01 -0.0342151)
(11.3751 0.01 -0.0339646)
(11.4249 0.01 -0.0346435)
(11.475 0.01 -0.0349218)
(11.525 0.01 -0.0358238)
(11.575 0.01 -0.0364335)
(11.625 0.01 -0.0365595)
(11.675 0.01 -0.0362874)
(11.7251 0.01 -0.0361071)
(11.7749 0.01 -0.0355644)
(11.8251 0.01 -0.0353013)
(11.8749 0.01 -0.035)
(11.9251 0.01 -0.0347879)
(11.9749 0.01 -0.0345457)
(12.0251 0.01 -0.0344651)
(12.0749 0.01 -0.0350251)
(12.125 0.01 -0.0355061)
(12.175 0.01 -0.0365843)
(12.225 0.01 -0.0368143)
(12.275 0.01 -0.03671)
(12.325 0.01 -0.0364484)
(12.3751 0.01 -0.0361459)
(12.4249 0.01 -0.0355935)
(12.4751 0.01 -0.0353703)
(12.5249 0.01 -0.0352577)
(12.5751 0.01 -0.0354696)
(12.6249 0.01 -0.03604)
(12.6751 0.01 -0.0365274)
(12.725 0.01 -0.0373001)
(12.775 0.01 -0.0371059)
(12.825 0.01 -0.0370314)
(12.875 0.01 -0.0370395)
(12.9251 0.01 -0.0373197)
(12.9749 0.01 -0.0371526)
(13.0251 0.01 -0.0367768)
(13.0749 0.01 -0.0360663)
(13.1251 0.01 -0.0354171)
(13.1749 0.01 -0.0351389)