/*--------------------------------*- C++ -*----------------------------------*\
| =========                 |                                                 |
| \\      /  F ield         | foam-extend: Open Source CFD                    |
|  \\    /   O peration     | Version:     3.2                                |
|   \\  /    A nd           | Web:         http://www.foam-extend.org         |
|    \\/     M anipulation  | For copyright notice see file Copyright         |
\*---------------------------------------------------------------------------*/
FoamFile
{
    version     2.0;
    format      ascii;
    class       pointVectorField;
    location    "160";
    object      newPoints;
}
// * * * * * * * * * * * * * * * * * * * * * * * * * * * * * * * * * * * * * //

dimensions      [0 1 0 0 0 0 0];

internalField   nonuniform List<vector> 
602
(
(0 0 0)
(0.05 0 0)
(0.1 0 0)
(0.15 0 0)
(0.2 0 0)
(0.25 0 0)
(0.3 0 0)
(0.35 0 0)
(0.4 0 0)
(0.45 0 0)
(0.5 0 0)
(0.55 0 0)
(0.6 0 0)
(0.65 0 0)
(0.7 0 0)
(0.75 0 0)
(0.8 0 0)
(0.85 0 0)
(0.9 0 0)
(0.95 0 0)
(1 0 0)
(1.05 0 0)
(1.1 0 0)
(1.15 0 0)
(1.2 0 0)
(1.25 0 0)
(1.3 0 0)
(1.35 0 0)
(1.4 0 0)
(1.45 0 0)
(1.5 0 0)
(1.55 0 0)
(1.6 0 0)
(1.65 0 0)
(1.7 0 0)
(1.75 0 0)
(1.8 0 0)
(1.85 0 0)
(1.9 0 0)
(1.95 0 0)
(2 0 0)
(2.05 0 0)
(2.1 0 0)
(2.15 0 0)
(2.2 0 0)
(2.25 0 0)
(2.3 0 0)
(2.35 0 0)
(2.4 0 0)
(2.45 0 0)
(2.5 0 0)
(2.55 0 0)
(2.6 0 0)
(2.65 0 0)
(2.7 0 0)
(2.75 0 0)
(2.8 0 0)
(2.85 0 0)
(2.9 0 0)
(2.95 0 0)
(3 0 0)
(3.05 0 0)
(3.1 0 0)
(3.15 0 0)
(3.2 0 0)
(3.25 0 0)
(3.3 0 0)
(3.35 0 0)
(3.4 0 0)
(3.45 0 0)
(3.5 0 0)
(3.55 0 0)
(3.6 0 0)
(3.65 0 0)
(3.7 0 0)
(3.75 0 0)
(3.8 0 0)
(3.85 0 0)
(3.9 0 0)
(3.95 0 0)
(4 0 0)
(4.05 0 0)
(4.1 0 0)
(4.15 0 0)
(4.2 0 0)
(4.25 0 0)
(4.3 0 0)
(4.35 0 0)
(4.4 0 0)
(4.45 0 0)
(4.5 0 0)
(4.55 0 0)
(4.6 0 0)
(4.65 0 0)
(4.7 0 0)
(4.75 0 0)
(4.8 0 0)
(4.85 0 0)
(4.9 0 0)
(4.95 0 0)
(5 0 -0.00659998)
(5.05 0 -0.0153587)
(5.1 0 -0.0206758)
(5.15 0 -0.0257056)
(5.2 0 -0.02961)
(5.25 0 -0.0331077)
(5.3 0 -0.0359241)
(5.35 0 -0.0383804)
(5.4 0 -0.0402855)
(5.45 0 -0.0422085)
(5.5 0 -0.0417977)
(5.55 0 -0.0426519)
(5.6 0 -0.0454602)
(5.65 0 -0.0449396)
(5.7 0 -0.0480721)
(5.75 0 -0.0466473)
(5.8 0 -0.0482061)
(5.85 0 -0.0500789)
(5.9 0 -0.0487876)
(5.95 0 -0.0515456)
(6 0 -0.0492932)
(6.05 0 -0.0549663)
(6.1 0 -0.0527536)
(6.15 0 -0.0514616)
(6.2 0 -0.0533798)
(6.25 0 -0.0512826)
(6.3 0 -0.0536402)
(6.35 0 -0.0500395)
(6.4 0 -0.053843)
(6.45 0 -0.0530129)
(6.5 0 -0.0536177)
(6.55 0 -0.0556082)
(6.6 0 -0.0530689)
(6.65 0 -0.0550266)
(6.7 0 -0.051296)
(6.75 0 -0.0542858)
(6.8 0 -0.0521967)
(6.85 0 -0.0515537)
(6.9 0 -0.0538337)
(6.95 0 -0.0515177)
(7 0 -0.0551445)
(7.05 0 -0.0503836)
(7.1 0 -0.0530165)
(7.15 0 -0.0530379)
(7.2 0 -0.0507742)
(7.25 0 -0.0533134)
(7.3 0 -0.0489736)
(7.35 0 -0.0519324)
(7.4 0 -0.0482042)
(7.45 0 -0.0486311)
(7.5 0 -0.0498411)
(7.55 0 -0.0471125)
(7.6 0 -0.0489768)
(7.65 0 -0.0454965)
(7.7 0 -0.0481817)
(7.75 0 -0.0454541)
(7.8 0 -0.0453671)
(7.85 0 -0.0461438)
(7.9 0 -0.0426705)
(7.95 0 -0.0441621)
(8 0 -0.0407926)
(8.05 0 -0.0427614)
(8.1 0 -0.041056)
(8.15 0 -0.0417328)
(8.2 0 -0.0425521)
(8.25 0 -0.0405921)
(8.3 0 -0.0416243)
(8.35 0 -0.0391036)
(8.4 0 -0.0409565)
(8.45 0 -0.0386039)
(8.5 0 -0.0409835)
(8.55 0 -0.0407795)
(8.6 0 -0.0397002)
(8.65 0 -0.0406613)
(8.7 0 -0.0396759)
(8.75 0 -0.0420633)
(8.8 0 -0.0405981)
(8.85 0 -0.0426258)
(8.9 0 -0.0404639)
(8.95 0 -0.0421176)
(9 0 -0.0418759)
(9.05 0 -0.0418285)
(9.1 0 -0.043793)
(9.15 0 -0.0439471)
(9.2 0 -0.0467744)
(9.25 0 -0.0450626)
(9.3 0 -0.0475828)
(9.35 0 -0.0452635)
(9.4 0 -0.0475605)
(9.45 0 -0.0470552)
(9.5 0 -0.0464573)
(9.55 0 -0.0477287)
(9.6 0 -0.0463464)
(9.65 0 -0.0476918)
(9.7 0 -0.0452006)
(9.75 0 -0.0473864)
(9.8 0 -0.044853)
(9.85 0 -0.0469284)
(9.9 0 -0.0453415)
(9.95 0 -0.0440038)
(10 0 -0.0444841)
(10.05 0 -0.0436672)
(10.1 0 -0.0448393)
(10.15 0 -0.0425886)
(10.2 0 -0.0440423)
(10.25 0 -0.0415982)
(10.3 0 -0.0431742)
(10.35 0 -0.041497)
(10.4 0 -0.0425254)
(10.45 0 -0.0427566)
(10.5 0 -0.043298)
(10.55 0 -0.0446229)
(10.6 0 -0.04367)
(10.65 0 -0.0449447)
(10.7 0 -0.0441504)
(10.75 0 -0.0461681)
(10.8 0 -0.0444597)
(10.85 0 -0.0463841)
(10.9 0 -0.0443005)
(10.95 0 -0.0464468)
(11 0 -0.0459984)
(11.05 0 -0.0447823)
(11.1 0 -0.0453784)
(11.15 0 -0.0440112)
(11.2 0 -0.0455405)
(11.25 0 -0.0433126)
(11.3 0 -0.0452142)
(11.35 0 -0.0428979)
(11.4 0 -0.0446524)
(11.45 0 -0.0443367)
(11.5 0 -0.0451375)
(11.55 0 -0.0461969)
(11.6 0 -0.0463633)
(11.65 0 -0.046448)
(11.7 0 -0.0457902)
(11.75 0 -0.0461204)
(11.8 0 -0.0446629)
(11.85 0 -0.0456176)
(11.9 0 -0.0440476)
(11.95 0 -0.0452035)
(12 0 -0.0435547)
(12.05 0 -0.0450143)
(12.1 0 -0.0447222)
(12.15 0 -0.0459263)
(12.2 0 -0.0469649)
(12.25 0 -0.0463483)
(12.3 0 -0.0467514)
(12.35 0 -0.0458174)
(12.4 0 -0.0461656)
(12.45 0 -0.0446769)
(12.5 0 -0.0457358)
(12.55 0 -0.0444376)
(12.6 0 -0.0461546)
(12.65 0 -0.0456083)
(12.7 0 -0.0470976)
(12.75 0 -0.0472341)
(12.8 0 -0.0466399)
(12.85 0 -0.0470949)
(12.9 0 -0.0466399)
(12.95 0 -0.0476977)
(13 0 -0.0462875)
(13.05 0 -0.0469617)
(13.1 0 -0.0448417)
(13.15 0 -0.0456492)
(13.2 0 -0.0443046)
(13.25 0 -0.0450816)
(13.3 0 -0.0447927)
(13.35 0 -0.0453024)
(13.4 0 -0.0455399)
(13.45 0 -0.0452268)
(13.5 0 -0.0460293)
(13.55 0 -0.0447147)
(13.6 0 -0.0450835)
(13.65 0 -0.0438433)
(13.7 0 -0.044863)
(13.75 0 -0.0433063)
(13.8 0 -0.0446501)
(13.85 0 -0.0436902)
(13.9 0 -0.0445765)
(13.95 0 -0.0436066)
(14 0 -0.0434996)
(14.05 0 -0.043231)
(14.1 0 -0.0422271)
(14.15 0 -0.0420584)
(14.2 0 -0.0412384)
(14.25 0 -0.0414454)
(14.3 0 -0.0406033)
(14.35 0 -0.0424099)
(14.4 0 -0.0418704)
(14.45 0 -0.0409821)
(14.5 0 -0.0393651)
(14.55 0 -0.037662)
(14.6 0 -0.034852)
(14.65 0 -0.0317818)
(14.7 0 -0.0267834)
(14.75 0 -0.0212961)
(14.8 0 -0.00941132)
(14.85 0 0)
(14.9 0 0)
(14.95 0 0)
(15 0 0)
(0 0.02 0)
(0.05 0.02 0)
(0.1 0.02 0)
(0.15 0.02 0)
(0.2 0.02 0)
(0.25 0.02 0)
(0.3 0.02 0)
(0.35 0.02 0)
(0.4 0.02 0)
(0.45 0.02 0)
(0.5 0.02 0)
(0.55 0.02 0)
(0.6 0.02 0)
(0.65 0.02 0)
(0.7 0.02 0)
(0.75 0.02 0)
(0.8 0.02 0)
(0.85 0.02 0)
(0.9 0.02 0)
(0.95 0.02 0)
(1 0.02 0)
(1.05 0.02 0)
(1.1 0.02 0)
(1.15 0.02 0)
(1.2 0.02 0)
(1.25 0.02 0)
(1.3 0.02 0)
(1.35 0.02 0)
(1.4 0.02 0)
(1.45 0.02 0)
(1.5 0.02 0)
(1.55 0.02 0)
(1.6 0.02 0)
(1.65 0.02 0)
(1.7 0.02 0)
(1.75 0.02 0)
(1.8 0.02 0)
(1.85 0.02 0)
(1.9 0.02 0)
(1.95 0.02 0)
(2 0.02 0)
(2.05 0.02 0)
(2.1 0.02 0)
(2.15 0.02 0)
(2.2 0.02 0)
(2.25 0.02 0)
(2.3 0.02 0)
(2.35 0.02 0)
(2.4 0.02 0)
(2.45 0.02 0)
(2.5 0.02 0)
(2.55 0.02 0)
(2.6 0.02 0)
(2.65 0.02 0)
(2.7 0.02 0)
(2.75 0.02 0)
(2.8 0.02 0)
(2.85 0.02 0)
(2.9 0.02 0)
(2.95 0.02 0)
(3 0.02 0)
(3.05 0.02 0)
(3.1 0.02 0)
(3.15 0.02 0)
(3.2 0.02 0)
(3.25 0.02 0)
(3.3 0.02 0)
(3.35 0.02 0)
(3.4 0.02 0)
(3.45 0.02 0)
(3.5 0.02 0)
(3.55 0.02 0)
(3.6 0.02 0)
(3.65 0.02 0)
(3.7 0.02 0)
(3.75 0.02 0)
(3.8 0.02 0)
(3.85 0.02 0)
(3.9 0.02 0)
(3.95 0.02 0)
(4 0.02 0)
(4.05 0.02 0)
(4.1 0.02 0)
(4.15 0.02 0)
(4.2 0.02 0)
(4.25 0.02 0)
(4.3 0.02 0)
(4.35 0.02 0)
(4.4 0.02 0)
(4.45 0.02 0)
(4.5 0.02 0)
(4.55 0.02 0)
(4.6 0.02 0)
(4.65 0.02 0)
(4.7 0.02 0)
(4.75 0.02 0)
(4.8 0.02 0)
(4.85 0.02 0)
(4.9 0.02 0)
(4.95 0.02 0)
(5 0.02 -0.00659998)
(5.05 0.02 -0.0153587)
(5.1 0.02 -0.0206758)
(5.15 0.02 -0.0257056)
(5.2 0.02 -0.02961)
(5.25 0.02 -0.0331077)
(5.3 0.02 -0.0359241)
(5.35 0.02 -0.0383804)
(5.4 0.02 -0.0402855)
(5.45 0.02 -0.0422085)
(5.5 0.02 -0.0417977)
(5.55 0.02 -0.0426519)
(5.6 0.02 -0.0454602)
(5.65 0.02 -0.0449396)
(5.7 0.02 -0.0480721)
(5.75 0.02 -0.0466473)
(5.8 0.02 -0.0482061)
(5.85 0.02 -0.0500789)
(5.9 0.02 -0.0487876)
(5.95 0.02 -0.0515456)
(6 0.02 -0.0492932)
(6.05 0.02 -0.0549663)
(6.1 0.02 -0.0527536)
(6.15 0.02 -0.0514616)
(6.2 0.02 -0.0533798)
(6.25 0.02 -0.0512826)
(6.3 0.02 -0.0536402)
(6.35 0.02 -0.0500395)
(6.4 0.02 -0.053843)
(6.45 0.02 -0.0530129)
(6.5 0.02 -0.0536177)
(6.55 0.02 -0.0556082)
(6.6 0.02 -0.0530689)
(6.65 0.02 -0.0550266)
(6.7 0.02 -0.051296)
(6.75 0.02 -0.0542858)
(6.8 0.02 -0.0521967)
(6.85 0.02 -0.0515537)
(6.9 0.02 -0.0538337)
(6.95 0.02 -0.0515177)
(7 0.02 -0.0551445)
(7.05 0.02 -0.0503836)
(7.1 0.02 -0.0530165)
(7.15 0.02 -0.0530379)
(7.2 0.02 -0.0507742)
(7.25 0.02 -0.0533134)
(7.3 0.02 -0.0489736)
(7.35 0.02 -0.0519324)
(7.4 0.02 -0.0482042)
(7.45 0.02 -0.0486311)
(7.5 0.02 -0.0498411)
(7.55 0.02 -0.0471125)
(7.6 0.02 -0.0489768)
(7.65 0.02 -0.0454965)
(7.7 0.02 -0.0481817)
(7.75 0.02 -0.0454541)
(7.8 0.02 -0.0453671)
(7.85 0.02 -0.0461438)
(7.9 0.02 -0.0426705)
(7.95 0.02 -0.0441621)
(8 0.02 -0.0407926)
(8.05 0.02 -0.0427614)
(8.1 0.02 -0.041056)
(8.15 0.02 -0.0417328)
(8.2 0.02 -0.0425521)
(8.25 0.02 -0.0405921)
(8.3 0.02 -0.0416243)
(8.35 0.02 -0.0391036)
(8.4 0.02 -0.0409565)
(8.45 0.02 -0.0386039)
(8.5 0.02 -0.0409835)
(8.55 0.02 -0.0407795)
(8.6 0.02 -0.0397002)
(8.65 0.02 -0.0406613)
(8.7 0.02 -0.0396759)
(8.75 0.02 -0.0420633)
(8.8 0.02 -0.0405981)
(8.85 0.02 -0.0426258)
(8.9 0.02 -0.0404639)
(8.95 0.02 -0.0421176)
(9 0.02 -0.0418759)
(9.05 0.02 -0.0418285)
(9.1 0.02 -0.043793)
(9.15 0.02 -0.0439471)
(9.2 0.02 -0.0467744)
(9.25 0.02 -0.0450626)
(9.3 0.02 -0.0475828)
(9.35 0.02 -0.0452635)
(9.4 0.02 -0.0475605)
(9.45 0.02 -0.0470552)
(9.5 0.02 -0.0464573)
(9.55 0.02 -0.0477287)
(9.6 0.02 -0.0463464)
(9.65 0.02 -0.0476918)
(9.7 0.02 -0.0452006)
(9.75 0.02 -0.0473864)
(9.8 0.02 -0.044853)
(9.85 0.02 -0.0469284)
(9.9 0.02 -0.0453415)
(9.95 0.02 -0.0440038)
(10 0.02 -0.0444841)
(10.05 0.02 -0.0436672)
(10.1 0.02 -0.0448393)
(10.15 0.02 -0.0425886)
(10.2 0.02 -0.0440423)
(10.25 0.02 -0.0415982)
(10.3 0.02 -0.0431742)
(10.35 0.02 -0.041497)
(10.4 0.02 -0.0425254)
(10.45 0.02 -0.0427566)
(10.5 0.02 -0.043298)
(10.55 0.02 -0.0446229)
(10.6 0.02 -0.04367)
(10.65 0.02 -0.0449447)
(10.7 0.02 -0.0441504)
(10.75 0.02 -0.0461681)
(10.8 0.02 -0.0444597)
(10.85 0.02 -0.0463841)
(10.9 0.02 -0.0443005)
(10.95 0.02 -0.0464468)
(11 0.02 -0.0459984)
(11.05 0.02 -0.0447823)
(11.1 0.02 -0.0453784)
(11.15 0.02 -0.0440112)
(11.2 0.02 -0.0455405)
(11.25 0.02 -0.0433126)
(11.3 0.02 -0.0452142)
(11.35 0.02 -0.0428979)
(11.4 0.02 -0.0446524)
(11.45 0.02 -0.0443367)
(11.5 0.02 -0.0451375)
(11.55 0.02 -0.0461969)
(11.6 0.02 -0.0463633)
(11.65 0.02 -0.046448)
(11.7 0.02 -0.0457902)
(11.75 0.02 -0.0461204)
(11.8 0.02 -0.0446629)
(11.85 0.02 -0.0456176)
(11.9 0.02 -0.0440476)
(11.95 0.02 -0.0452035)
(12 0.02 -0.0435547)
(12.05 0.02 -0.0450143)
(12.1 0.02 -0.0447222)
(12.15 0.02 -0.0459263)
(12.2 0.02 -0.0469649)
(12.25 0.02 -0.0463483)
(12.3 0.02 -0.0467514)
(12.35 0.02 -0.0458174)
(12.4 0.02 -0.0461656)
(12.45 0.02 -0.0446769)
(12.5 0.02 -0.0457358)
(12.55 0.02 -0.0444376)
(12.6 0.02 -0.0461546)
(12.65 0.02 -0.0456083)
(12.7 0.02 -0.0470976)
(12.75 0.02 -0.0472341)
(12.8 0.02 -0.0466399)
(12.85 0.02 -0.0470949)
(12.9 0.02 -0.0466399)
(12.95 0.02 -0.0476977)
(13 0.02 -0.0462875)
(13.05 0.02 -0.0469617)
(13.1 0.02 -0.0448417)
(13.15 0.02 -0.0456492)
(13.2 0.02 -0.0443046)
(13.25 0.02 -0.0450816)
(13.3 0.02 -0.0447927)
(13.35 0.02 -0.0453024)
(13.4 0.02 -0.0455399)
(13.45 0.02 -0.0452268)
(13.5 0.02 -0.0460293)
(13.55 0.02 -0.0447147)
(13.6 0.02 -0.0450835)
(13.65 0.02 -0.0438433)
(13.7 0.02 -0.044863)
(13.75 0.02 -0.0433063)
(13.8 0.02 -0.0446501)
(13.85 0.02 -0.0436902)
(13.9 0.02 -0.0445765)
(13.95 0.02 -0.0436066)
(14 0.02 -0.0434996)
(14.05 0.02 -0.043231)
(14.1 0.02 -0.0422271)
(14.15 0.02 -0.0420584)
(14.2 0.02 -0.0412384)
(14.25 0.02 -0.0414454)
(14.3 0.02 -0.0406033)
(14.35 0.02 -0.0424099)
(14.4 0.02 -0.0418704)
(14.45 0.02 -0.0409821)
(14.5 0.02 -0.0393651)
(14.55 0.02 -0.037662)
(14.6 0.02 -0.034852)
(14.65 0.02 -0.0317818)
(14.7 0.02 -0.0267834)
(14.75 0.02 -0.0212961)
(14.8 0.02 -0.00941132)
(14.85 0.02 0)
(14.9 0.02 0)
(14.95 0.02 0)
(15 0.02 0)
)
;

boundaryField
{
    inlet
    {
        type            zeroGradient;
    }
    outlet
    {
        type            zeroGradient;
    }
    sideWall
    {
        type            empty;
    }
    bed
    {
        type            zeroGradient;
    }
    topWall
    {
        type            zeroGradient;
    }
}


// ************************************************************************* //
