/*--------------------------------*- C++ -*----------------------------------*\
| =========                 |                                                 |
| \\      /  F ield         | foam-extend: Open Source CFD                    |
|  \\    /   O peration     | Version:     3.2                                |
|   \\  /    A nd           | Web:         http://www.foam-extend.org         |
|    \\/     M anipulation  | For copyright notice see file Copyright         |
\*---------------------------------------------------------------------------*/
FoamFile
{
    version     2.0;
    format      ascii;
    class       volScalarField;
    location    "160";
    object      nut;
}
// * * * * * * * * * * * * * * * * * * * * * * * * * * * * * * * * * * * * * //

dimensions      [0 2 -1 0 0 0 0];

internalField   nonuniform List<scalar> 
96000
(
0.000133293
0.000106227
8.82923e-05
7.89945e-05
7.59941e-05
7.48668e-05
7.4095e-05
7.33396e-05
7.25384e-05
7.17134e-05
7.09296e-05
7.01954e-05
6.95099e-05
6.88752e-05
6.829e-05
6.77497e-05
6.72455e-05
6.67746e-05
6.63457e-05
6.60833e-05
6.58369e-05
6.55953e-05
6.53568e-05
6.51257e-05
6.4904e-05
6.469e-05
6.44825e-05
6.42797e-05
6.40845e-05
6.38958e-05
6.37145e-05
6.35372e-05
6.33657e-05
6.31983e-05
6.30368e-05
6.28806e-05
6.27282e-05
6.25806e-05
6.24358e-05
6.22953e-05
6.21594e-05
6.20263e-05
6.18978e-05
6.17706e-05
6.16485e-05
6.15272e-05
6.14118e-05
6.12964e-05
6.11862e-05
6.1076e-05
6.09707e-05
6.08652e-05
6.07653e-05
6.06643e-05
6.05692e-05
6.04719e-05
6.03811e-05
6.02882e-05
6.01945e-05
6.01021e-05
6.00121e-05
5.99239e-05
5.98382e-05
5.97541e-05
5.96726e-05
5.95929e-05
5.95155e-05
5.94401e-05
5.93669e-05
5.92961e-05
5.92278e-05
5.91621e-05
5.90992e-05
5.90395e-05
5.89824e-05
5.89299e-05
5.88802e-05
5.88364e-05
5.87964e-05
5.87641e-05
5.87361e-05
5.87188e-05
5.871e-05
5.87069e-05
5.87155e-05
5.8746e-05
5.8783e-05
5.88551e-05
5.89277e-05
5.90692e-05
5.91767e-05
5.93947e-05
5.96322e-05
5.99858e-05
6.04777e-05
6.09972e-05
6.24262e-05
6.11566e-05
7.19407e-05
6.02901e-05
3.86468e-05
3.90014e-05
4.0836e-05
4.10821e-05
4.24001e-05
4.32639e-05
4.3779e-05
4.54361e-05
4.45339e-05
4.73414e-05
5.31887e-05
4.42052e-05
5.04074e-05
4.54215e-05
4.47611e-05
5.18636e-05
4.15444e-05
5.32352e-05
4.49537e-05
5.30132e-05
4.45966e-05
3.86716e-05
5.41134e-05
4.09845e-05
5.15931e-05
4.4678e-05
5.11808e-05
4.97262e-05
4.17828e-05
5.01513e-05
3.81512e-05
5.02894e-05
4.42003e-05
4.97424e-05
4.97225e-05
4.28731e-05
5.49175e-05
3.92027e-05
5.1718e-05
4.26862e-05
4.63319e-05
5.11597e-05
3.79736e-05
5.2747e-05
4.01334e-05
4.94073e-05
4.66045e-05
4.31381e-05
5.22374e-05
3.91748e-05
5.19339e-05
4.43008e-05
4.98622e-05
4.70362e-05
4.33217e-05
5.19943e-05
4.06858e-05
5.38068e-05
4.63098e-05
5.13342e-05
5.04851e-05
4.53925e-05
5.21305e-05
4.3241e-05
5.30517e-05
4.60885e-05
5.33387e-05
4.72374e-05
4.87877e-05
5.14794e-05
4.47307e-05
5.33799e-05
4.57647e-05
5.39441e-05
4.5798e-05
4.90428e-05
4.60619e-05
4.79697e-05
5.18391e-05
4.5609e-05
5.37206e-05
4.42218e-05
5.13998e-05
4.29528e-05
4.8787e-05
4.47912e-05
4.71695e-05
4.96514e-05
4.30849e-05
5.17532e-05
4.30241e-05
5.0915e-05
4.51515e-05
5.17525e-05
4.60253e-05
4.76968e-05
4.9672e-05
4.3228e-05
5.37057e-05
4.53295e-05
5.24954e-05
4.54336e-05
5.23413e-05
4.68745e-05
5.15624e-05
5.01284e-05
4.62092e-05
5.18773e-05
4.63106e-05
5.1707e-05
4.49193e-05
5.1625e-05
4.62185e-05
5.21899e-05
4.5256e-05
5.00964e-05
4.59546e-05
4.77718e-05
5.05733e-05
4.37591e-05
5.26785e-05
4.49266e-05
5.35147e-05
4.6476e-05
5.21223e-05
4.70285e-05
4.91968e-05
5.19259e-05
4.49786e-05
4.99897e-05
4.46264e-05
4.70006e-05
4.59293e-05
5.12863e-05
4.61022e-05
5.31656e-05
4.70625e-05
5.18612e-05
4.74048e-05
4.95497e-05
5.04524e-05
4.67255e-05
5.0243e-05
4.43602e-05
5.04671e-05
4.6142e-05
5.12718e-05
4.72095e-05
5.31828e-05
4.81391e-05
5.17975e-05
4.9172e-05
4.60866e-05
4.84555e-05
4.36824e-05
5.18739e-05
4.60273e-05
5.16162e-05
4.61791e-05
5.0876e-05
4.71648e-05
5.19906e-05
5.05301e-05
4.79972e-05
5.0161e-05
4.69352e-05
4.93586e-05
4.60708e-05
5.22467e-05
4.56363e-05
5.1494e-05
4.81661e-05
5.17069e-05
4.74506e-05
5.06202e-05
4.85646e-05
4.69668e-05
4.82141e-05
4.53636e-05
5.07539e-05
4.58671e-05
5.17673e-05
4.73259e-05
5.10755e-05
4.66976e-05
5.10267e-05
4.57491e-05
4.30292e-05
4.67757e-05
4.70741e-05
4.75542e-05
4.86707e-05
4.84252e-05
5.17251e-05
5.02506e-05
6.01846e-05
8.03243e-05
7.0074e-05
5.30648e-05
4.81418e-05
9.19619e-05
0.00013619
0.000148935
0.000161679
0.000171816
0.000178851
0.000183419
0.000185981
0.000187203
0.000187553
0.000187556
0.000187287
0.000186854
0.000186314
0.00018572
0.000185108
0.000184462
0.00018382
0.000183173
0.000182567
0.000181961
0.00018136
0.000180768
0.000180194
0.000179636
0.000179092
0.00017856
0.000178042
0.000177543
0.000177056
0.000176585
0.000176123
0.000175675
0.000175239
0.000174817
0.000174405
0.000174004
0.000173613
0.000173231
0.00017286
0.000172499
0.000172146
0.000171802
0.000171464
0.000171138
0.000170816
0.000170506
0.000170198
0.000169902
0.000169606
0.000169323
0.00016904
0.000168771
0.000168499
0.000168241
0.00016798
0.000167733
0.00016748
0.000167221
0.000166971
0.000166723
0.000166485
0.000166246
0.000166019
0.00016579
0.000165573
0.000165354
0.000165147
0.000164937
0.000164741
0.000164541
0.000164355
0.000164166
0.000163992
0.000163813
0.000163652
0.000163487
0.000163341
0.000163192
0.000163064
0.000162933
0.000162828
0.000162722
0.000162636
0.00016256
0.000162502
0.000162464
0.000162453
0.000162445
0.000162506
0.000162474
0.000162633
0.000162678
0.000162994
0.000163168
0.000163736
0.000164307
0.000164386
0.000166585
0.000134648
0.00012463
0.000154872
0.000153247
0.000151719
0.000148618
0.000145882
0.000144483
0.000141659
0.000142324
0.000146085
0.000132591
0.000129686
0.000136875
0.000128311
0.000137869
0.000126142
0.000123975
0.000132218
0.000130769
0.000132606
0.000111548
0.000124235
0.000127108
0.000116754
0.000130042
0.000127068
0.000135252
0.000115875
0.00012287
0.000121608
0.000119039
0.000131085
0.000126587
0.000134212
0.00011734
0.000126238
0.000120878
0.000111998
0.000126577
0.000119758
0.000134344
0.000113396
0.000115374
0.000124133
0.000119008
0.000132776
0.000116478
0.000128165
0.000119324
0.000116449
0.000129206
0.000125523
0.000132953
0.000118934
0.000128002
0.000123735
0.000122658
0.000134151
0.000127495
0.000136055
0.000124159
0.00012996
0.00012714
0.000125371
0.000134478
0.000133761
0.000137315
0.000129775
0.00013725
0.000125226
0.000128386
0.000135004
0.000130804
0.000134664
0.000130004
0.000136071
0.000130808
0.000138902
0.000129295
0.000133887
0.000132476
0.000125711
0.000130465
0.000128733
0.000134697
0.000127518
0.000135875
0.000123322
0.000129881
0.000129951
0.000124671
0.000131532
0.000130212
0.000134181
0.000125807
0.000134272
0.000122901
0.00012992
0.000132681
0.000126057
0.000131184
0.000128947
0.000135643
0.000131107
0.000137418
0.000128707
0.000134491
0.00013101
0.000132189
0.000131334
0.000128282
0.000135978
0.000135191
0.000133764
0.000130439
0.000135098
0.000129042
0.000136363
0.000124599
0.00012873
0.000133176
0.000129079
0.000132591
0.000128733
0.000135418
0.000128879
0.000137019
0.000127137
0.000131257
0.00013144
0.0001309
0.000134839
0.000136565
0.000135379
0.0001353
0.000136221
0.000133866
0.000136544
0.000132464
0.000137166
0.000130531
0.00013335
0.000130848
0.000130984
0.000135661
0.000136305
0.000135451
0.000135031
0.000136984
0.000133723
0.000137073
0.000130344
0.000134471
0.000129847
0.000129562
0.00013437
0.000131522
0.000132743
0.00013055
0.00013507
0.000133859
0.000137871
0.000131274
0.000135116
0.000131934
0.000132957
0.000133729
0.000132131
0.000133781
0.000132572
0.000136737
0.000135653
0.000135662
0.000132403
0.000136453
0.000130483
0.000135426
0.000131628
0.000134536
0.00013382
0.000133795
0.000136013
0.000135555
0.000135633
0.000134268
0.000134874
0.000125929
0.000130368
0.000134619
0.000134779
0.000135123
0.000135165
0.000136998
0.000136561
0.000143324
0.000153521
0.000152567
0.000133164
0.00012406
0.000141902
7.17215e-05
0.00010217
0.000144052
0.000171422
0.000198423
0.000221698
0.000240769
0.000252407
0.000260135
0.000265909
0.000270189
0.000273374
0.000275788
0.000277667
0.000279087
0.000280127
0.000280893
0.000281457
0.000281871
0.000282118
0.000282227
0.000282241
0.000282193
0.000282092
0.000281937
0.000281736
0.000281503
0.000281249
0.000280981
0.000280691
0.000280384
0.000280064
0.000279736
0.000279406
0.000279073
0.000278732
0.000278386
0.00027804
0.000277693
0.00027735
0.000277007
0.000276663
0.00027632
0.00027598
0.000275643
0.00027531
0.000274979
0.000274651
0.000274325
0.000274003
0.000273683
0.000273371
0.000273059
0.000272753
0.000272447
0.000272149
0.000271851
0.00027156
0.000271269
0.000270987
0.000270704
0.00027043
0.000270154
0.000269888
0.000269621
0.000269363
0.000269103
0.000268854
0.000268602
0.000268363
0.000268122
0.000267893
0.000267662
0.000267445
0.000267226
0.000267024
0.000266819
0.000266634
0.000266448
0.000266284
0.00026612
0.000265986
0.00026585
0.000265739
0.000265626
0.000265546
0.000265483
0.000265462
0.000265449
0.000265502
0.000265592
0.00026579
0.000266034
0.000266459
0.000266982
0.00026799
0.000268624
0.000274779
0.000269459
0.000200175
0.000167619
0.000232124
0.000248574
0.000257473
0.000260037
0.000259125
0.00025972
0.000254643
0.000256591
0.000263632
0.000239922
0.000228566
0.000239882
0.000223368
0.000240512
0.00021883
0.000211183
0.000230852
0.000214784
0.000228428
0.000188989
0.000215814
0.000222113
0.000199614
0.000224926
0.000209483
0.000233563
0.000197825
0.00021792
0.000208368
0.000193255
0.000227049
0.000221118
0.000233345
0.000202552
0.000226804
0.000209802
0.000185899
0.000215989
0.000196929
0.000230914
0.000195023
0.000205536
0.000216248
0.000193301
0.000229978
0.000202137
0.000229781
0.000205734
0.00019416
0.000224604
0.000213671
0.000230045
0.000204766
0.000229622
0.000212561
0.000196319
0.000232496
0.00022048
0.000233297
0.000212018
0.000229192
0.000215601
0.000210583
0.000231243
0.000224661
0.000235014
0.000220365
0.000233417
0.000211789
0.000225224
0.00023126
0.000225019
0.000228636
0.000215876
0.000230343
0.000222635
0.000236901
0.000221353
0.00023447
0.000227223
0.000221131
0.000220837
0.000201189
0.000229949
0.000219182
0.00023357
0.000212991
0.000230408
0.000226049
0.000217986
0.000227284
0.000215018
0.000231214
0.000214905
0.000228293
0.000209775
0.000230549
0.000229039
0.000229096
0.000223109
0.000204768
0.000230543
0.000222838
0.000232651
0.000218079
0.000230892
0.000220968
0.00022881
0.000222399
0.0002171
0.000231224
0.00022732
0.000226096
0.000215572
0.0002294
0.0002195
0.000231558
0.000212153
0.000227266
0.00022914
0.000223649
0.00022636
0.000207978
0.000229435
0.000217534
0.000230616
0.00021464
0.000225394
0.000220871
0.000224481
0.000227704
0.000234834
0.000232182
0.000234006
0.000233029
0.000227796
0.000230901
0.000223267
0.000231557
0.00021947
0.000227349
0.000218747
0.000222832
0.000229764
0.000231768
0.000230138
0.000228862
0.000232262
0.000225691
0.000229632
0.000217537
0.000225558
0.000216641
0.000228303
0.000228191
0.000229343
0.000224076
0.000215104
0.000227794
0.000227007
0.000232832
0.000221134
0.000228152
0.000220319
0.00022625
0.000222913
0.000228981
0.000225536
0.000221241
0.000230114
0.000229318
0.00022733
0.000222205
0.000228118
0.000218028
0.000225875
0.000219819
0.000228647
0.000225191
0.000230744
0.000229889
0.000230326
0.000227529
0.000228179
0.000224299
0.000209709
0.000222299
0.000227899
0.000229433
0.000231529
0.000230925
0.000235517
0.000232792
0.000243982
0.000271398
0.000251919
0.000197098
0.000178243
0.000210776
5.97193e-05
7.63586e-05
0.000104338
0.00014181
0.000172465
0.00020221
0.000230766
0.000257218
0.000279133
0.000298143
0.00031115
0.000320772
0.000328785
0.000335578
0.000341283
0.000346066
0.000350122
0.000353604
0.000356613
0.000359173
0.000361356
0.000363236
0.000364872
0.000366293
0.000367513
0.000368561
0.000369467
0.000370254
0.000370941
0.000371524
0.000372018
0.000372435
0.000372788
0.000373089
0.000373337
0.000373533
0.000373684
0.000373799
0.000373882
0.00037394
0.000373968
0.00037397
0.000373949
0.000373908
0.000373853
0.000373784
0.000373699
0.000373599
0.000373488
0.000373366
0.000373236
0.0003731
0.000372954
0.000372803
0.000372643
0.00037248
0.000372311
0.00037214
0.000371964
0.000371786
0.000371603
0.000371421
0.000371233
0.000371049
0.000370859
0.000370673
0.000370482
0.000370296
0.000370104
0.000369921
0.000369733
0.000369555
0.000369372
0.0003692
0.000369025
0.000368864
0.0003687
0.000368554
0.000368407
0.000368283
0.000368158
0.000368065
0.00036797
0.000367913
0.000367831
0.0003678
0.000367783
0.000367824
0.000367848
0.000367989
0.00036813
0.000368454
0.000368783
0.000369417
0.000370101
0.000371533
0.000372405
0.00038062
0.000374409
0.00027731
0.000220658
0.000275024
0.000321869
0.000342222
0.000354877
0.000360787
0.000367132
0.000364148
0.000369342
0.000381
0.000355405
0.000347769
0.00034959
0.000327886
0.000347337
0.00032183
0.000321604
0.000336771
0.000306913
0.000333209
0.000278189
0.000308564
0.000322513
0.000299164
0.000328453
0.000305316
0.000338718
0.00029301
0.000316437
0.000302602
0.00027949
0.00032793
0.000317265
0.000338382
0.00030064
0.000328697
0.000309455
0.000280381
0.000315153
0.000298124
0.000331537
0.000289291
0.000298241
0.000315441
0.000275458
0.000332927
0.000300192
0.000332361
0.000304645
0.000297687
0.000328193
0.000313109
0.000334892
0.000303104
0.000331142
0.000312029
0.000291205
0.000339645
0.000323933
0.000339358
0.000312501
0.000330309
0.000313864
0.000315617
0.000334857
0.000317515
0.000340763
0.000321323
0.000336063
0.000308692
0.000322645
0.000332798
0.000334755
0.000331532
0.000318159
0.000330115
0.000321235
0.000339379
0.000322034
0.000335751
0.000329546
0.000325938
0.000318172
0.000280584
0.000328965
0.000317186
0.000335541
0.000311936
0.000330529
0.000328294
0.000326027
0.000331098
0.000308367
0.000336423
0.000314359
0.000329728
0.000307136
0.000330712
0.000332387
0.000330049
0.000323977
0.000292191
0.000333068
0.000322441
0.000334686
0.000317349
0.000331098
0.000319283
0.000326525
0.000319433
0.000315532
0.000332046
0.000329054
0.000326142
0.000310413
0.000329243
0.000317334
0.00033192
0.000308585
0.000325004
0.000329955
0.000332171
0.000329143
0.000303862
0.000330805
0.000314797
0.000330295
0.000311145
0.000321444
0.000316153
0.000318823
0.000324115
0.000333412
0.00033348
0.000334031
0.00033709
0.000328564
0.000332588
0.00032205
0.000331653
0.000316597
0.000323751
0.000312912
0.000321246
0.000327048
0.000330603
0.000330443
0.000328517
0.000334184
0.000324175
0.000328505
0.000312415
0.000319841
0.000309112
0.000321731
0.000324797
0.000325684
0.000321248
0.000308501
0.000325554
0.000323373
0.000332509
0.000318812
0.000325498
0.000315635
0.00032106
0.000317066
0.000323286
0.000321317
0.00031649
0.000327761
0.000327017
0.000325093
0.000317853
0.000324612
0.000312085
0.000320067
0.000313198
0.000323441
0.000320799
0.000326521
0.000327796
0.000327651
0.000325055
0.000325133
0.000319356
0.000299225
0.000312074
0.00032158
0.000325693
0.000330507
0.000330422
0.000337784
0.000334617
0.000328044
0.00039702
0.000370996
0.000279848
0.000249558
0.000267171
5.34163e-05
6.02926e-05
7.42523e-05
9.85012e-05
0.000132542
0.000164556
0.000191909
0.000221567
0.000250138
0.000278282
0.00030281
0.000324655
0.000343585
0.00036008
0.000372937
0.000382773
0.000391405
0.000399055
0.00040586
0.000411853
0.000417158
0.000421892
0.000426145
0.000429965
0.000433386
0.000436462
0.00043924
0.000441761
0.000444053
0.000446122
0.000447998
0.000449703
0.000451257
0.000452682
0.000453977
0.000455153
0.000456224
0.000457203
0.000458099
0.00045892
0.000459666
0.000460345
0.000460963
0.000461526
0.000462042
0.000462513
0.000462939
0.000463322
0.00046367
0.000463983
0.000464267
0.000464525
0.000464753
0.000464957
0.000465135
0.000465294
0.000465432
0.000465555
0.000465659
0.000465748
0.00046582
0.000465881
0.000465927
0.000465965
0.00046599
0.000466008
0.000466013
0.000466013
0.000466003
0.000465992
0.000465972
0.000465953
0.000465926
0.000465902
0.000465872
0.00046585
0.000465823
0.000465809
0.000465793
0.000465795
0.000465796
0.000465829
0.000465858
0.000465936
0.000465975
0.000466067
0.000466178
0.00046636
0.000466506
0.000466817
0.0004671
0.000467629
0.000468143
0.00046907
0.000470034
0.000471963
0.000473289
0.000483241
0.000476273
0.000362058
0.000291724
0.00031634
0.000361129
0.000410968
0.000432673
0.000446374
0.000459674
0.000461464
0.00047146
0.000487857
0.000465185
0.000454232
0.000456865
0.000434553
0.000453853
0.000427444
0.000436398
0.000441911
0.000421479
0.000439237
0.000375615
0.000403823
0.000423689
0.000417867
0.000432424
0.000415683
0.000445349
0.000395495
0.000416015
0.000400772
0.00038842
0.000428923
0.000421243
0.000443825
0.000404814
0.000432279
0.000413193
0.00040114
0.000416905
0.000396365
0.000433312
0.000389828
0.000391869
0.00041633
0.000381614
0.000437553
0.000404738
0.00043784
0.000409364
0.000409844
0.00043323
0.000425292
0.000441961
0.000408363
0.00043648
0.000416909
0.000409955
0.000448679
0.000432824
0.000449209
0.000420299
0.000436582
0.000418062
0.000425926
0.000440334
0.000428305
0.000449364
0.000428647
0.000442664
0.000411986
0.000421151
0.000436723
0.000440446
0.00043697
0.000420075
0.000432352
0.000423876
0.000443656
0.000426607
0.000439939
0.000434285
0.000427703
0.000418705
0.00038658
0.000429661
0.00041862
0.000438441
0.000414797
0.000432987
0.0004323
0.000433985
0.00043645
0.000419244
0.00044412
0.000420271
0.000435079
0.000410759
0.00043477
0.000438669
0.000435414
0.000428944
0.00040815
0.000439138
0.0004274
0.000440448
0.00042251
0.000435693
0.000422711
0.000428372
0.000420154
0.00042432
0.000434278
0.000432023
0.000429003
0.000419763
0.000431257
0.000419403
0.000434469
0.000409656
0.000421706
0.000432455
0.000436649
0.000433775
0.000420647
0.000435109
0.000417751
0.000433341
0.000412894
0.000421552
0.000415081
0.000416305
0.000422399
0.000433367
0.000435676
0.000439481
0.000442537
0.000432856
0.000437396
0.000425812
0.000435132
0.000418568
0.000423963
0.000411099
0.000417462
0.000425443
0.000430393
0.000432062
0.000432426
0.000438002
0.000426543
0.000430392
0.000412041
0.000417556
0.000405224
0.00041761
0.000422457
0.00042365
0.000420032
0.000416852
0.000424805
0.000423206
0.000433906
0.000420298
0.00042605
0.000414968
0.000419134
0.000414241
0.000420036
0.000418646
0.000420075
0.000426539
0.00042619
0.000425044
0.000416392
0.000423299
0.000409849
0.000416863
0.000409562
0.0004201
0.000418176
0.000424026
0.000426734
0.000426608
0.000424438
0.000423296
0.00041695
0.000392156
0.000401834
0.000415069
0.000421405
0.000428766
0.000430054
0.000433554
0.000438045
0.000404953
0.000501018
0.000497618
0.000383124
0.000348777
0.000329448
5.38766e-05
5.16073e-05
5.68097e-05
6.83614e-05
8.9202e-05
0.000119236
0.000155716
0.000179574
0.000206509
0.000234908
0.000262757
0.00029129
0.000317162
0.000341434
0.00036355
0.000382959
0.000400397
0.000415987
0.000429836
0.000440015
0.0004492
0.000457546
0.000465161
0.000472104
0.000478416
0.000484176
0.000489458
0.000494319
0.000498797
0.000502909
0.000506698
0.000510198
0.00051344
0.000516452
0.000519239
0.000521821
0.000524219
0.000526452
0.000528534
0.000530477
0.000532285
0.00053397
0.000535543
0.000537013
0.000538394
0.000539684
0.000540891
0.000542018
0.000543074
0.000544064
0.000544995
0.000545869
0.000546687
0.000547454
0.000548172
0.000548847
0.000549482
0.00055008
0.000550638
0.000551164
0.000551655
0.000552119
0.000552553
0.000552964
0.000553348
0.00055371
0.000554048
0.000554369
0.000554668
0.000554955
0.000555224
0.000555482
0.000555725
0.000555961
0.000556184
0.000556406
0.000556619
0.000556836
0.000557047
0.000557271
0.000557489
0.000557736
0.000557977
0.00055827
0.000558523
0.00055882
0.000559138
0.000559539
0.000559892
0.000560447
0.000560951
0.000561752
0.000562529
0.000563808
0.000565123
0.000567569
0.000569466
0.000580714
0.000572922
0.000449922
0.000376449
0.000369806
0.00039546
0.00045168
0.000498263
0.000518569
0.000538066
0.000545581
0.000560612
0.000581443
0.000564204
0.00055425
0.000557216
0.000537593
0.000555885
0.000530497
0.00053895
0.00054346
0.000541613
0.000541931
0.000476458
0.000498091
0.00052345
0.000525055
0.000533661
0.000531659
0.000549525
0.000500052
0.000516568
0.000500018
0.00049723
0.000527839
0.000527134
0.000546628
0.000509949
0.000535372
0.000516905
0.000512297
0.000517782
0.000497339
0.000534343
0.000492382
0.000483993
0.000516861
0.000502575
0.000540687
0.000510941
0.000542841
0.000515211
0.000517958
0.000537305
0.000530927
0.000547882
0.000515864
0.000542417
0.000523281
0.000527058
0.000556338
0.000543255
0.000559069
0.00053083
0.000544732
0.00052487
0.00053397
0.000546017
0.000548398
0.000557672
0.000538306
0.00055044
0.000518432
0.000520656
0.000541517
0.000545438
0.000542485
0.000524239
0.000535387
0.0005283
0.000548151
0.000532348
0.00054484
0.00053922
0.000531042
0.000520433
0.000506325
0.000530266
0.000521144
0.000540791
0.000518591
0.000534705
0.000536008
0.000537455
0.000541112
0.000542361
0.00055109
0.00052847
0.000541514
0.000517281
0.000540424
0.000545641
0.000542401
0.000535247
0.000534133
0.00054579
0.000535007
0.000547504
0.000530458
0.000542306
0.00052877
0.000532496
0.00052298
0.000528335
0.000536748
0.000534801
0.000532288
0.000521917
0.000533544
0.000523179
0.000537523
0.000512722
0.000517757
0.000535247
0.000539912
0.000538066
0.000530049
0.000539572
0.000523199
0.000537662
0.000517171
0.000523809
0.000516035
0.000515704
0.000521792
0.000533606
0.000537638
0.000544714
0.000547263
0.000538258
0.000542707
0.000531672
0.000539938
0.000522954
0.000526268
0.000511646
0.000515937
0.000524578
0.000530461
0.000533598
0.000538569
0.000541599
0.000530378
0.00053311
0.000513936
0.000517157
0.000503551
0.000514956
0.000520577
0.000522193
0.000518911
0.000516135
0.000523925
0.000525201
0.000535325
0.000523019
0.000527705
0.000516198
0.000518883
0.000513123
0.000518189
0.000516708
0.000517596
0.000525238
0.000525705
0.00052521
0.000516196
0.000522679
0.000509363
0.000514949
0.000507526
0.000517668
0.00051623
0.000522116
0.000525662
0.000525952
0.000523972
0.000522242
0.000515071
0.000487092
0.000492244
0.000508528
0.000516337
0.00052555
0.000528653
0.000525494
0.000541393
0.000496387
0.000601435
0.000622999
0.000499815
0.000441415
0.000410688
6.74577e-05
4.9982e-05
4.83926e-05
5.1988e-05
6.15063e-05
7.87797e-05
0.000105067
0.000137379
0.000170187
0.000192404
0.000217598
0.000244748
0.000271224
0.00029917
0.000325637
0.000350802
0.000374809
0.000396788
0.000417154
0.000435661
0.000452355
0.000467463
0.00048139
0.000493375
0.000503054
0.000511985
0.00052026
0.000527948
0.000535087
0.0005417
0.000547845
0.000553569
0.000558917
0.000563922
0.000568593
0.00057296
0.00057705
0.00058089
0.0005845
0.000587894
0.000591081
0.00059408
0.000596905
0.000599571
0.000602092
0.00060447
0.000606715
0.000608836
0.000610843
0.000612745
0.000614548
0.000616258
0.000617877
0.000619413
0.000620869
0.000622254
0.000623571
0.000624825
0.000626014
0.000627146
0.000628223
0.000629249
0.000630227
0.000631162
0.000632051
0.000632901
0.00063371
0.000634485
0.000635225
0.000635937
0.000636618
0.000637274
0.000637904
0.000638514
0.000639101
0.000639676
0.000640232
0.000640784
0.00064132
0.000641861
0.00064239
0.000642943
0.000643483
0.000644075
0.000644631
0.000645214
0.000645814
0.000646508
0.000647151
0.000648014
0.000648809
0.000649939
0.00065104
0.00065271
0.000654416
0.000657364
0.000659871
0.000671951
0.000663301
0.000537667
0.000466299
0.000434914
0.000443588
0.000481673
0.000528538
0.000581259
0.000605203
0.000618404
0.000636396
0.000662495
0.000651558
0.000645146
0.000648794
0.00063373
0.000650985
0.000627917
0.000635323
0.000639757
0.000639595
0.000639316
0.000576765
0.000587309
0.000620147
0.000622098
0.000630939
0.000631739
0.000649117
0.000603023
0.000615234
0.000597951
0.000596797
0.000623638
0.000625914
0.000645285
0.00061289
0.000630632
0.000618046
0.000611903
0.000616303
0.000597987
0.000632961
0.000594154
0.000571898
0.000615597
0.000612478
0.000640446
0.000615641
0.00064498
0.000619209
0.000617682
0.000638888
0.000635093
0.00065098
0.000622457
0.000646432
0.000628403
0.000633411
0.00066108
0.000652265
0.000666694
0.000640829
0.000652105
0.000631641
0.000638584
0.00065063
0.000654495
0.000663977
0.000647531
0.000657338
0.00062549
0.00061926
0.000645826
0.000650215
0.000646945
0.0006289
0.000637993
0.000632785
0.000651688
0.000637539
0.00064891
0.000643027
0.000634114
0.000621789
0.000613644
0.000629744
0.000623238
0.000641697
0.000621642
0.000631234
0.000638276
0.000640254
0.000644119
0.000646785
0.000655774
0.000636177
0.000647038
0.000624205
0.000645728
0.000651751
0.000649041
0.000641108
0.000640378
0.000651478
0.000642996
0.000654236
0.000638995
0.000649145
0.000635548
0.000637334
0.000626543
0.000630574
0.000638951
0.000637697
0.00063505
0.000624803
0.000635327
0.000627067
0.000639973
0.000616082
0.000612324
0.000637419
0.000642782
0.000641164
0.000633907
0.000643003
0.000628951
0.000641723
0.000622042
0.000626645
0.000617675
0.000615909
0.000621542
0.000633733
0.000638814
0.000646812
0.000650483
0.000643171
0.000647162
0.000637657
0.000644577
0.000627951
0.000629228
0.000613188
0.000615582
0.000623984
0.000630475
0.000634469
0.000640369
0.000644012
0.000633996
0.000635369
0.000616379
0.000617425
0.000602912
0.00061296
0.000618702
0.00062066
0.000617264
0.000614521
0.000622415
0.000625462
0.000635857
0.000625501
0.000629166
0.000617838
0.000619126
0.000612632
0.000616867
0.000614899
0.000615551
0.000623512
0.000625071
0.000624754
0.000616325
0.000621871
0.000609336
0.000613403
0.000606095
0.00061545
0.000614295
0.000620097
0.00062404
0.00062487
0.000622897
0.000620955
0.000612736
0.000582993
0.000584636
0.000601903
0.000610502
0.000620932
0.00062587
0.000622221
0.000643726
0.000600973
0.000717135
0.000743987
0.000621975
0.000544889
0.000513146
0.000107647
5.91572e-05
4.83498e-05
4.56602e-05
4.77461e-05
5.50383e-05
6.90202e-05
9.05701e-05
0.000118681
0.000151092
0.00018194
0.000203175
0.000226679
0.000252075
0.000277146
0.000303675
0.00033038
0.000355618
0.000380327
0.000403982
0.000426057
0.000446736
0.000466099
0.000483981
0.000500342
0.000515433
0.000529319
0.000542217
0.00055365
0.000563085
0.000571915
0.000580199
0.000587989
0.000595321
0.000602198
0.000608662
0.000614751
0.000620499
0.000625932
0.000631065
0.000635912
0.000640497
0.000644839
0.000648958
0.00065287
0.00065658
0.000660101
0.000663446
0.000666628
0.000669658
0.000672547
0.000675298
0.000677917
0.000680416
0.000682801
0.000685079
0.000687257
0.00068934
0.000691329
0.000693232
0.000695053
0.000696799
0.000698472
0.000700078
0.000701616
0.000703092
0.000704509
0.000705871
0.000707181
0.000708444
0.00070966
0.000710834
0.000711966
0.000713063
0.000714124
0.000715159
0.000716164
0.00071715
0.000718111
0.000719066
0.000719999
0.000720947
0.000721874
0.000722846
0.000723787
0.000724739
0.000725694
0.000726753
0.000727761
0.000728992
0.000730138
0.000731647
0.000733121
0.000735207
0.000737322
0.000740741
0.000743849
0.000756317
0.000746879
0.000622966
0.000542162
0.000506568
0.000504047
0.000520958
0.000554545
0.000615772
0.000648599
0.000682572
0.00069208
0.000732964
0.000728263
0.000726374
0.000731229
0.000721534
0.000738054
0.000718125
0.00072542
0.000729658
0.000731931
0.000730636
0.000673798
0.000669533
0.000712543
0.000715109
0.000723378
0.000727075
0.000743181
0.000702073
0.000703433
0.000692797
0.000685923
0.000715596
0.000716641
0.000739098
0.000711778
0.000716057
0.000715143
0.000708615
0.000711504
0.000695862
0.000727763
0.000693214
0.000653697
0.00071144
0.000706245
0.000736094
0.000716875
0.000739023
0.000719538
0.000708373
0.000736893
0.000735788
0.000750121
0.000726048
0.000741273
0.000730453
0.000728929
0.000761959
0.000757872
0.000770589
0.000748055
0.000756752
0.000736373
0.000739708
0.000752989
0.000758714
0.000767383
0.000754505
0.000761905
0.000731268
0.00071484
0.00074844
0.000753353
0.000749411
0.000732444
0.000739149
0.000735983
0.000753311
0.000740969
0.000751034
0.000744761
0.000735658
0.000721672
0.000713028
0.000727559
0.000723834
0.000740499
0.00072289
0.000723013
0.000738368
0.000741221
0.000744795
0.0007492
0.000757605
0.000741729
0.000750337
0.000729761
0.000747635
0.000755867
0.000753968
0.000745299
0.000744979
0.000755365
0.000749771
0.000759432
0.000746524
0.000754867
0.000741584
0.000741575
0.000729664
0.000732689
0.000740249
0.000739865
0.000736632
0.000727161
0.000735951
0.000729982
0.000741039
0.000718582
0.000704408
0.000738263
0.000744345
0.000742529
0.000736784
0.000744715
0.000733578
0.000744435
0.000726131
0.000728871
0.000718895
0.000715933
0.000720883
0.000733146
0.00073876
0.000747602
0.000751815
0.000746635
0.000749983
0.00074251
0.000748002
0.000732249
0.000731655
0.000714587
0.00071538
0.000723063
0.000729963
0.000734299
0.000740944
0.000744771
0.000736397
0.000736356
0.000718198
0.000717286
0.000702277
0.000710518
0.000716359
0.00071856
0.000714717
0.000712402
0.000719889
0.000724702
0.000734995
0.000726895
0.000729631
0.000718878
0.000718913
0.000711886
0.0007153
0.00071265
0.000713321
0.000721052
0.000723684
0.000723251
0.000715914
0.000720261
0.000708875
0.000711473
0.000704484
0.000712852
0.000711847
0.000717464
0.000721483
0.000722782
0.000720768
0.000718786
0.000709374
0.000678987
0.000676951
0.000694901
0.000703822
0.000715026
0.000721549
0.000723764
0.000744327
0.000708447
0.000838114
0.000859407
0.000743993
0.000654797
0.000619422
0.000113485
8.73524e-05
6.0248e-05
4.92565e-05
4.48092e-05
4.49544e-05
4.98533e-05
6.03753e-05
7.72057e-05
0.00010064
0.000129381
0.000161165
0.000192619
0.000212635
0.000234436
0.000257985
0.000282022
0.000306549
0.000332549
0.00035759
0.000382287
0.000406592
0.0004297
0.000451705
0.00047284
0.000492733
0.000511313
0.000528811
0.000545244
0.000560365
0.000574388
0.000587562
0.000599821
0.000611336
0.000620647
0.000629443
0.00063777
0.000645668
0.000653166
0.000660276
0.000667014
0.000673412
0.000679495
0.000685288
0.000690809
0.000696064
0.00070107
0.000705843
0.000710399
0.000714753
0.000718917