/*--------------------------------*- C++ -*----------------------------------*\
| =========                 |                                                 |
| \\      /  F ield         | foam-extend: Open Source CFD                    |
|  \\    /   O peration     | Version:     3.2                                |
|   \\  /    A nd           | Web:         http://www.foam-extend.org         |
|    \\/     M anipulation  | For copyright notice see file Copyright         |
\*---------------------------------------------------------------------------*/
FoamFile
{
    version     2.0;
    format      ascii;
    class       volScalarField;
    location    "160";
    object      omega;
}
// * * * * * * * * * * * * * * * * * * * * * * * * * * * * * * * * * * * * * //

dimensions      [0 0 -1 0 0 0 0];

internalField   nonuniform List<scalar> 
96000
(
1337.8
1193.99
994.732
901.562
863.835
843.375
828.244
814.772
802.171
790.561
780.054
770.539
761.829
753.972
746.832
740.28
734.238
728.615
723.429
718.666
714.216
710.008
706.036
702.284
698.749
695.384
692.191
689.139
686.238
683.475
680.829
678.296
675.859
673.524
671.28
669.128
667.045
665.042
663.103
661.231
659.426
657.676
655.983
654.34
652.745
651.201
649.699
648.247
646.824
645.453
644.103
642.803
641.526
640.294
639.081
637.91
636.754
635.641
634.525
633.463
632.397
631.39
630.375
629.42
628.453
627.553
626.633
625.785
624.912
624.117
623.296
622.56
621.795
621.125
620.423
619.827
619.201
618.694
618.165
617.769
617.366
617.11
616.884
616.797
616.805
616.964
617.258
617.794
618.584
619.607
621.116
622.826
625.693
628.571
633.959
638.633
651.024
652.793
726.639
678.646
393.583
391.683
413.315
414.884
428.605
437.051
442.374
459.125
449.371
478.091
538.596
446.774
508.659
479.192
470.492
528.277
421.063
539.549
455.668
536.758
473.899
389.88
552.686
416.25
523.216
452.318
519.713
511.397
422.818
510.873
386.802
510.005
451.254
507.004
506.087
435.314
558.561
396.951
524.844
432.504
471.941
522.202
383.639
535.851
405.638
502.732
481.023
445.317
533.018
396.47
526.551
454.206
506.744
491.368
445.126
529.535
411.357
545.727
489.449
521.337
522.171
476.416
530.159
437.146
536.972
479.488
539.976
506.603
514.168
528.78
452.328
541.51
479.349
545.279
478.092
505.514
488.313
499.999
526.922
475.712
544.099
464.158
519.413
435.067
494.492
469.006
482.484
504.447
442.276
524.1
443.496
515.229
457.515
525.503
486.429
494.598
504.665
451.608
544.183
482.039
531.95
460.26
531.031
495.27
521.292
518.602
501.219
531.719
488.65
524.491
456.819
522.584
486.891
526.659
471.053
508.173
488.074
497.839
513.567
448.296
532.774
472.42
541.575
472.489
528.914
498.913
509.566
525.673
481.238
512.801
473.936
490.432
480.523
519.798
483.372
537.227
499.169
528.106
508.028
520.37
526.278
496.578
517.402
463.183
509.352
490.842
521.787
494.338
539.615
510.162
529.532
516.759
498.135
508.172
463.989
524.324
490.842
526.084
476.377
516.248
493.097
525.376
522.907
514.279
525.72
502.061
518.036
487.185
528.593
479.189
519.575
503.209
533.258
499.097
523.227
511.43
501.262
504.749
487.737
516.272
489.301
522.733
505.114
524.957
497.625
526.702
485.182
447.707
474.346
481.253
483.572
495.315
491.373
521.253
500.156
610.824
821.209
743.054
540.989
505.22
497.193
517.2
492.029
452.319
418.385
393.181
374.395
360.151
348.938
339.83
332.099
325.488
319.734
314.713
310.279
306.293
302.712
299.455
296.5
293.794
291.306
288.999
286.856
284.856
282.987
281.229
279.575
278.014
276.537
275.142
273.813
272.553
271.349
270.203
269.105
268.058
267.052
266.088
265.161
264.269
263.412
262.586
261.788
261.019
260.273
259.555
258.857
258.186
257.529
256.899
256.28
255.686
255.103
254.542
253.99
253.461
252.937
252.436
251.938
251.463
250.989
250.539
250.089
249.662
249.234
248.831
248.424
248.044
247.658
247.3
246.935
246.601
246.258
245.948
245.63
245.347
245.058
244.805
244.55
244.333
244.121
243.948
243.793
243.682
243.616
243.582
243.603
243.673
243.861
244.065
244.494
244.9
245.698
246.43
247.88
249.087
252.079
252.722
262.579
297.787
265.965
203.838
182.349
173.537
170.606
170.711
170.341
174.273
173.876
175.561
189.864
195.329
187.122
195.716
185.717
200.637
196.519
187.467
195.256
189.657
206.249
179.866
187.253
198.43
186.334
193.632
186.777
207.127
188.67
192.937
190.98
179.657
188.624
183.398
201.327
185.433
197.058
204.983
186.974
195.128
177.783
202.489
188.644
183.543
190.419
179.132
195.803
180.73
199.308
196.059
183.2
193.029
185.648
200.039
185.199
198.366
195.239
187.065
200.929
194.594
207.915
196.47
205.297
200.81
192.599
199.616
196.862
207.975
199.064
211.153
198.448
197.147
203.787
200.284
206.002
195.343
200.706
192.947
204.27
196.059
199.608
204.938
197.483
195.98
185.566
193.506
184.969
197.475
186.765
189.919
195.696
189.025
193.328
189.464
200.461
190.916
201.123
188.994
194.497
202.562
199.013
200.5
194.623
203.111
197.146
206.882
199.387
207.413
201.497
202.021
201.758
194.65
199.39
197.517
200.601
192.85
199.843
192.274
203.457
192.617
193.09
200.06
197.224
202.918
195.992
204.995
196.335
207.014
198.814
201.065
198.137
194.014
192.435
193.354
196.089
196.274
203.108
199.738
206.115
200.787
208.219
201.401
204.883
199.518
194.097
196.628
197.026
199.774
199.753
206.269
201.964
208.668
201.265
204.774
198.141
195.719
200.292
198.832
200.642
195.693
199.091
197.542
206.397
202.239
207.767
203.041
204.623
201.244
199.14
201.433
197.547
201.315
201.719
205.53
200.236
206.038
199.941
202.637
196.808
200.39
199.05
198.274
201.366
201.129
202.751
202.028
204.479
192.18
187.561
187.796
188.387
190.738
190.674
196.633
193.309
196.952
247.895
299.788
289.355
244.273
210.52
283.144
296.912
287.41
274.512
260.432
247.127
235.674
226.195
218.23
211.54
205.917
201.083
196.885
193.188
189.897
186.969
184.338
181.963
179.803
177.833
176.026
174.363
172.824
171.391
170.053
168.801
167.629
166.526
165.487
164.504
163.575
162.692
161.856
161.059
160.3
159.576
158.883
158.221
157.585
156.976
156.391
155.828
155.288
154.765
154.263
153.777
153.309
152.855
152.418
151.993
151.583
151.183
150.798
150.422
150.059
149.704
149.362
149.025
148.7
148.38
148.073
147.769
147.478
147.189
146.914
146.64
146.38
146.12
145.874
145.628
145.396
145.163
144.945
144.727
144.524
144.321
144.134
143.948
143.778
143.613
143.462
143.322
143.197
143.096
143.014
142.952
142.902
142.902
142.904
142.989
143.064
143.261
143.435
143.817
144.083
144.804
144.203
144.692
170.513
199.259
158.899
133.295
120.575
112.942
109.098
106.596
105.975
105.846
103.289
107.189
116.787
108.12
115.431
109.942
115.133
119.481
107.843
119.213
107.045
124.217
113.121
107.922
120.345
106.673
118.317
107.064
119.849
114.577
113.888
121.946
105.451
113.987
105.009
115.941
110.551
111.824
126.406
107.534
120.954
105.995
116.729
115.578
106.144
120.443
104.194
114.599
107.268
113.316
120.335
105.833
116.542
106.636
116.586
110.426
113.861
121.567
106.329
117.632
110.756
119.322
115.463
118.726
121.872
111.504
119.705
111.592
120.992
115.355
122.684
119.565
114.562
120.276
113.076
124.117
115.191
119.717
113.336
118.151
116.064
114.297
121.124
114.052
124.578
110.692
116.325
109.217
115.106
112.213
109.957
116.702
108.395
117.098
107.577
117.34
111.126
117.144
112.582
110.685
116.529
112.781
122.662
111.806
119.859
113.514
119.509
115.873
119.428
118.658
118.487
122.085
113.038
118.817
112.684
121.586
112.615
118.251
112.506
118.58
115.686
111.897
117.626
110.887
122.388
112.433
120.352
114.104
119.72
117.453
117.64
118.293
115.417
115.026
112.132
115.666
110.884
118.79
113.932
119.969
115.816
120.373
118.328
120.165
120.518
114.503
116.272
113.098
117.766
113.155
120.179
115.889
121.557
118.543
120.724
118.328
114.552
117.432
113.913
120.644
113.657
118.094
113.456
118.581
116.701
119.989
118.837
119.507
118.735
115.935
120.927
114.751
118.466
114.748
121.436
115.828
120.531
117.634
119.431
116.555
116.872
117.228
114.875
117.582
115.504
119.273
115.929
122.805
118.096
113.725
111.714
111.406
111.135
111.637
112.177
112.879
104.063
114.075
156.016
176.585
161.015
92.5557
155.067
187.413
200.034
199.201
194.735
189.413
182.689
175.77
169.119
163.149
157.917
153.322
149.274
145.705
142.562
139.776
137.281
135.03
132.987
131.132
129.443
127.896
126.471
125.15
123.923
122.781
121.717
120.721
119.785
118.904
118.073
117.289
116.549
115.846
115.178
114.543
113.938
113.362
112.811
112.285
111.78
111.296
110.833
110.387
109.959
109.546
109.149
108.766
108.396
108.039
107.695
107.361
107.038
106.725
106.423
106.128
105.845
105.566
105.298
105.034
104.78
104.531
104.291
104.055
103.828
103.604
103.389
103.177
102.973
102.772
102.58
102.389
102.206
102.026
101.854
101.684
101.522
101.363
101.212
101.065
100.924
100.79
100.663
100.545
100.444
100.351
100.258
100.187
100.115
100.077
100.028
100.02
99.9883
100.019
99.9506
99.9659
99.1283
98.2477
115.437
147.379
131.146
112.587
99.8286
91.1344
85.7465
82.2552
79.829
79.0409
75.8576
76.3773
82.1766
77.3104
81.3079
78.3067
80.3288
83.1482
77.1738
83.9511
75.8586
86.9851
81.8496
76.9662
83.4758
76.2981
83.1963
75.5623
82.8987
81.3347
80.7138
86.1816
76.5712
81.1672
74.4363
80.3389
78.0874
77.8641
86.4261
76.9803
85.1347
76.2868
81.3279
82.094
76.1875
85.6436
74.9103
80.2084
76.2027
78.4023
82.845
75.6624
81.7673
75.3809
81.0132
78.1162
79.1557
83.8529
75.3527
81.3953
76.9771
81.9263
80.5283
82.2004
84.3598
79.0233
83.836
78.0605
83.2317
80.2557
84.8088
84.2653
80.6727
83.3092
79.1236
86.2636
81.5767
84.1064
80.0846
82.2472
81.5504
79.9805
83.8376
80.4482
88.6116
79.9354
82.4706
77.8967
80.7112
79.7204
77.554
81.223
76.7502
82.0149
75.5493
80.9738
77.6566
81.2591
79.2597
77.0339
80.0851
78.4393
84.8978
78.3725
82.9168
78.9431
82.3141
80.4556
82.345
82.6615
82.8737
85.1778
80.0472
83.0549
78.9109
84.9074
79.6135
82.6307
79.1725
82.5643
81.7866
78.7368
81.3966
77.6265
84.4696
78.5793
83.0654
79.5638
82.6758
82.0764
82.1515
83.2127
81.6964
81.3817
79.0337
80.9246
77.3996
81.9276
78.9272
82.4984
80.2091
82.9374
82.3653
83.6851
84.5492
81.1455
81.9088
79.3048
81.9243
78.5323
82.6084
80.2043
83.7888
82.6558
84.252
83.4056
80.7042
81.9058
79.7991
84.0156
79.9212
82.6411
78.9396
81.5579
80.6244
82.6258
82.4973
83.0532
82.989
81.4161
84.42
80.6224
82.6385
79.6491
84.0749
80.7422
83.5763
82.2311
83.4571
81.9689
81.714
81.9496
80.3854
81.7021
80.3611
82.6242
80.3423
86.206
84.639
81.8417
79.8238
79.2183
78.1807
78.6575
77.69
78.9964
71.1213
69.313
94.1801
113.239
114.304
40.717
81.6929
111.692
133.589
145.942
150.942
150.632
148.6
145.713
141.813
137.459
133.086
128.946
125.123
121.641
118.525
115.727
113.205
110.919
108.863
107.003
105.311
103.765
102.342
101.028
99.8132
98.6869
97.6411
96.6649
95.7501
94.8915
94.0856
93.3271
92.6129
91.9368
91.2959
90.6882
90.1109
89.5627
89.0406
88.5421
88.066
87.6103
87.1747
86.7572
86.3573
85.9723
85.6029
85.2468
84.9045
84.5745
84.2566
83.9492
83.6527
83.3655
83.0884
82.8195
82.5602
82.3074
82.0629
81.8244
81.5938
81.3686
81.1512
80.9384
80.7329
80.5316
80.3371
80.1464
79.9621
79.7813
79.6066
79.435
79.2691
79.1062
78.9485
78.7941
78.6445
78.498
78.3558
78.2173
78.0822
77.9513
77.8238
77.6998
77.5882
77.4825
77.3724
77.2689
77.1656
77.0733
76.9707
76.8782
76.7592
76.65
76.4478
76.2142
75.338
74.4098
86.1154
110.763
107.433
97.9603
87.7319
79.6552
73.9454
70.0611
66.8812
65.5374
62.3934
61.4248
64.4142
61.6494
63.6801
61.7766
62.4914
64.1559
60.9617
64.4244
59.9747
66.9487
64.2832
60.7223
63.8638
60.2875
63.91
59.3542
63.6578
63.2339
62.8817
65.8003
60.8361
63.1243
58.7835
61.9644
60.7678
60.2847
64.8356
60.5688
65.4804
60.2524
62.8741
63.8149
60.2518
65.4364
59.412
62.2189
59.721
60.4562
63.0658
59.4312
62.7873
59.1438
62.3541
60.7478
61.003
63.2806
58.9157
62.1211
59.5324
62.3996
61.8366
62.8312
64.2265
61.4346
63.8777
60.5559
63.3674
61.6725
64.6132
64.8272
62.486
63.6413
61.4364
65.6339
63.282
64.7439
62.2081
63.2484
62.9111
61.838
64.068
62.5274
67.3454
62.8585
64.09
61.103
62.5119
62.0587
60.4242
62.3052
59.9636
62.5858
58.8609
61.8282
59.9164
62.1445
61.1278
59.3892
60.958
60.3611
63.7154
60.4456
62.9566
60.6582
62.5776
61.5249
62.6396
63.1291
63.5236
64.9023
62.1623
63.5919
61.2745
64.6429
61.8293
63.4626
61.3123
63.3319
63.1967
61.0358
62.1631
60.1935
63.7974
60.6661
63.1781
61.1063
62.9503
62.8548
62.9885
63.9427
63.1956
62.8839
61.3245
62.1235
59.8983
62.247
60.5796
62.556
61.243
62.9407
62.8578
63.8838
64.7217
62.8148
63.0709
61.3715
62.5821
60.4128
62.5728
61.2958
63.5368
63.1291
64.3488
64.1098
62.3436
62.7755
61.651
63.9302
61.7723
63.2179
60.7346
62.0291
61.4464
62.6828
62.8207
63.3151
63.4596
62.6736
64.3157
62.2088
63.1659
61.2965
63.7356
61.9389
63.665
63.0064
63.8666
63.0467
62.7655
62.8447
61.8491
62.4158
61.6973
62.8682
61.6143
65.8459
65.5448
63.9309
62.4324
61.817
60.6723
60.9533
59.6711
60.3776
54.4534
50.4799
64.3151
77.8018
83.7304
17.5449
41.1421
62.5704
81.8591
98.7997
111.78
118.894
121.865
121.903
120.719
118.878
116.384
113.454
110.385
107.334
104.437
101.727
99.2259
96.9209
94.8227
92.9114
91.1664
89.5649
88.0927
86.7432
85.4997
84.3488
83.2811
82.2854
81.3553
80.4855
79.671
78.9064
78.1874
77.5081
76.8658
76.2584
75.6828
75.1375
74.6189
74.1248
73.6538
73.2042
72.7752
72.365
71.9725
71.5956
71.2343
70.887
70.5536
70.233
69.9244
69.6267
69.3398
69.0625
68.7952
68.5366
68.2872
68.0448
67.8106
67.5827
67.3623
67.1478
66.9404
66.7381
66.5424
66.3513
66.1663
65.9856
65.8104
65.6392
65.4731
65.3105
65.1526
64.9981
64.8476
64.7006
64.5571
64.4167
64.2793
64.145
64.0131
63.8839
63.7569
63.6312
63.5121
63.3994
63.282
63.1637
63.0453
62.9278
62.7998
62.6688
62.511
62.3427
62.0868
61.7672
60.931
60.171
68.3063
86.2547
87.9979
84.6786
78.3411
71.9028
66.5441
62.6653
59.2685
57.5675
54.5783
52.927
54.2084
52.3777
53.3196
51.9355
52.0004
52.9727
51.0596
52.81
50.3527
54.8707
53.3605
50.7792
52.3901
50.4073
52.302
49.5751
52.2107
52.1676
51.9419
53.6073
50.8633
52.0101
49.2722
51.0437
50.3007
49.7684
52.3974
50.3253
53.4388
50.2622
51.7628
52.6091
50.3642
53.1547
49.7688
51.3772
49.7157
49.8118
51.446
49.4065
51.3413
49.2128
51.1419
50.1566
50.0914
51.2873
48.7922
50.5636
49.0042
50.7324
50.4997
51.1095
52.0776
50.4946
51.7251
49.839
51.4318
50.3978
52.3507
52.7676
51.2223
51.7153
50.5305
53.0832
51.863
52.7658
51.13
51.6484
51.4401
50.7088
52.062
51.4455
54.2504
51.8996
52.6164
50.6468
51.3797
51.1338
49.9056
50.8828
49.5512
50.8111
48.6484
50.3256
49.1395
50.5364
49.9553
48.6455
49.4604
49.2928
51.1101
49.3678
50.8182
49.4493
50.592
49.963
50.6463
51.1039
51.523
52.4389
50.897
51.597
50.3419
52.295
50.7061
51.6518
50.2739
51.5395
51.6108
50.076
50.503
49.4142
51.3992
49.6297
51.0927
49.7982
50.9309
50.9977
51.1471
51.9276
51.5709
51.287
50.2807
50.5362
49.1347
50.3415
49.3604
50.4717
49.6533
50.7365
50.8235
51.6281
52.3371
51.2418
51.2722
50.216
50.6972
49.3164
50.4588
49.7215
51.1666
51.0535
51.9797
51.9975
50.8395
50.9632
50.3644
51.653
50.4278
51.1309
49.5423
50.1713
49.7562
50.5144
50.6997
51.1059
51.301
50.9306
51.8995
50.6703
51.0741
49.9774
51.3234
50.2905
51.3974
51.0776
51.6869
51.2165
50.9934
50.997
50.3365
50.5466
50.1586
50.774
50.1678
53.1025
53.3066
52.396
51.3982
50.8473
49.8648
49.8735
48.7175
48.6104
44.0932
40.3786
48.2388
57.4209
63.3918
7.36564
19.6852
32.9474
46.5202
60.67
74.7715
87.0838
95.8235
100.422
102.355
102.539
101.754
100.51
98.8749
96.8218
94.5898
92.3021
90.063
87.9106
85.8714
83.9681
82.2017
80.5614
79.0422
77.6426
76.3489
75.1499
74.0357
72.9978
72.0339
71.1352
70.2946
69.5062
68.765
68.0664
67.4079
66.7863
66.1986
65.6422
65.1138
64.6113
64.1333
63.678
63.2441
62.83
62.4342
62.0548
61.6916
61.3432
61.0091
60.6884
60.3801
60.0831
59.7972
59.5215
59.256
58.9995
58.7523
58.5127
58.2811
58.0565
57.8393
57.6284
57.4244
57.226
57.0337
56.8466
56.6652
56.4884
56.317
56.1497
55.9872
55.8284
55.6739
55.5229
55.3757
55.2319
55.0911
54.9534
54.8182
54.6857
54.5551
54.4267
54.2997
54.1735
54.05
53.9324
53.8114
53.6866
53.5606
53.4306
53.2903
53.1416
52.9668
52.7735
52.4995
52.1587
51.3913
50.7965
56.5649
69.7917
72.9666
72.6682
69.7518
65.5002
61.0098
57.4439
54.1313
52.2575
49.4498
47.5217
47.7923
46.3575
46.6542
45.536
45.2391
45.7544
44.482
45.3635
43.9137
46.9544
46.0583
44.1192
44.9657
43.7636
44.7775
43.0556
44.7408
44.8523
44.6582
45.7079
44.051
44.6419
42.857
43.8825
43.4033
42.8639
44.4823
43.4038
45.4754
43.4954
44.4124
45.1543
43.6602
45.2678
43.2151
44.192
43.0708
42.8684
43.9533
42.6887
43.8282
42.5432
43.7545
43.1326
42.9155
43.6118
42.0209
43.0075
42.0276
43.0986
43.0185
43.3813
44.0723
43.1131
43.7538
42.6182
43.5625
42.9123
44.2379
44.6858
43.6197
43.8007
43.1413
44.7716
44.1264
44.7031
43.6274
43.8807
43.7425
43.2229
44.0869
43.928
45.6724
44.3387
44.8021
43.5009
43.8906
43.7575
42.8066
43.2988
42.4833
43.0956
41.7439
42.731
41.964
42.8401
42.4819
41.4679
41.8838
41.8807
42.9453
41.9124
42.7757
41.9338
42.6312
42.2494
42.6724
43.0599
43.4398
44.0764
43.176
43.5358
42.8562
44.0511
43.1178
43.6931
42.7984
43.6229
43.7616
42.6385
42.7413
42.0952
43.2386
42.1708
43.0536
42.2168
42.924
43.0427
43.1753
43.7994
43.6369
43.3934
42.7303
42.7415
41.823
42.4441
41.8236
42.4538
41.9111
42.6094
42.7506
43.3797
43.959
43.3061
43.2446
42.5828
42.7167
41.8165
42.4263
41.9666
42.9189
42.9267
43.6271
43.7531
42.9731
42.9787
42.6621
43.4229
42.6829
42.989
41.9477
42.2461
41.9408
42.3998
42.5693
42.8867
43.0762
42.9174
43.5249
42.7748
42.9035
42.266
43.0402
42.4097
43.1444
43.003
43.438
43.1637
42.9953
42.9712
42.5121
42.5587
42.3366
42.675
42.4318
44.4958
44.8793
44.3641
43.7257
43.2603
42.5039
42.2868
41.3651
40.7126
37.1248
34.048
38.6981
44.9376
49.8756
3.17538
9.03276
16.33
24.6164
34.1849
45.1597
56.9716
68.314
77.3733
83.5054
86.8035
88.1669
88.3918
87.8905
87.0461
85.8887
84.457
82.8318
81.117
79.3706
77.652
75.992
74.4082
72.9097
71.4998
70.1794
68.9456
67.7921
66.7126
65.7072
64.7688
63.8897
63.0651
62.2891
61.5618
60.878
60.2334
59.6244
59.048
58.5015
57.9828
57.4903
57.022
56.5763
56.1513
55.7454
55.357
54.9858
54.6304
54.29
53.9635
53.65
53.3483
53.0583
52.7791
52.5104
52.2513
52.0016
51.7601
51.5268
51.3011
51.0828
50.8714
50.6668
50.4682
50.2758
50.0888
49.9074
49.7311
49.56
49.3934
49.2313
49.0733
48.9194
48.7693
48.6227
48.4796
48.3394
48.2023
48.0675
47.9353
47.8048
47.6763
47.5489
47.4219
47.2964
47.1742
47.051
46.9236
46.7937
46.6574
46.5113
46.3547
46.1733
45.971
45.6951
45.3598
44.6672
44.1999
48.3725
58.3395
61.6679
62.51
61.7489
59.4787
56.236
53.2401
50.2199
48.3113
45.7234
43.7476
43.4305
42.1687
42.0615
41.0903
40.582
40.7978
39.858
40.2413
39.3339
41.4368
40.8954
39.3828
39.8214
39.0352
39.5671
38.4283
39.5345
39.7177
39.5225
40.2309
39.1539
39.4401
38.2453
38.8518
38.544
38.0211
39.0569
38.4643
39.9143
38.6544
39.2293
39.8866
38.839
39.8263
38.5014
39.1088
38.3749
38.0241
38.7726
37.9204
38.5991
37.7878
38.5643
38.1843
37.8882
38.3196
37.2209
37.747
37.1051
37.7732
37.7708
37.9687
38.4707
37.8507
38.16
37.4527
38.0255
37.6155
38.5304
38.9568
38.1849
38.2125
37.8287
38.916
38.5784
38.9482
38.2314
38.3405
38.2513
37.8653
38.4409
38.5007
39.6505
38.8532
39.162
38.3061
38.5128
38.4516
37.6971
37.9228
37.387
37.6521
36.7709
37.3666
36.8619
37.4047
37.1755
36.3595
36.5529
36.6058
37.2408
36.5931
37.1073
36.5769
37.0018
36.7718
37.031
37.3521
37.6747
38.1314
37.5873
37.7751
37.4145
38.1886
37.6287
37.9861
37.4065
37.9597
38.1204
37.2702
37.221
36.8097
37.4824
36.8106
37.3513
36.8009
37.2422
37.373
37.4793
37.9765
37.9107
37.7053
37.2515
37.1597
36.5295
36.8407
36.4257
36.7753
36.4014
36.8515
37.005
37.4952
37.9632
37.5577
37.4619
37.0344
37.0131
36.4029
36.7281
36.4289
37.0649
37.1247
37.6529
37.8173
37.2724
37.2337
37.0753
37.5454
37.0752
37.1741
36.4617
36.5839
36.3609
36.6331
36.7764
37.0162
37.1819
37.1294
37.5265
37.0493
37.0506
36.6725
37.1389
36.7422
37.2402
37.198
37.5088
37.3509
37.2217
37.1909
36.8593
36.8345
36.6962
36.8917
36.8423
38.344
38.7763
38.4782
38.0733
37.6956
37.1358
36.7999
36.085
35.1666
32.2278
29.6908
32.5462
36.8755
40.7638
1.45756
4.18863
7.78887
12.273
17.8525
24.8508
33.431
43.2604
53.2512
62.2672
69.1875
73.708
76.2153
77.2705
77.541
77.2711
76.6768
75.8548
74.8654
73.6726
72.3683
71.0119
69.646
68.2961
66.9787
65.7113
64.5026
63.3544
62.2664
61.2397
60.2731
59.3623
58.5053
57.6963
56.9362
56.2212
55.5466
54.9093
54.3056
53.7347
53.1947
52.6828
52.1964
51.7338
51.2927
50.8721
50.4706
50.0873
49.7207
49.3699
49.0338
48.7112
48.4013
48.1038
47.8177
47.5426
47.2777
47.0224
46.7759
46.538
46.3082
46.0862
45.8714
45.6636
45.4622
45.267
45.0777
44.8942
44.716
44.5431
44.3749
44.2113
44.052
43.8968
43.7456
43.598
43.454
43.3129
43.1749
43.0393
42.9063
42.775
42.6456
42.5172
42.3894
42.2626
42.1365
42.0113
41.883
41.7508
41.6113
41.4628
41.3032
41.1205
40.9165
40.6463
40.3275
39.7054
39.33
42.3998
50.0471
53.1651
54.3241
54.6118
53.685
51.7195
49.4693
46.935
45.0872
42.7763
40.8788
40.2435
39.0763
38.7133
37.8327
37.2012
37.2254
36.463
36.5441
35.9339
37.4104
37.0829
35.8632
36.0823
35.5253
35.7762
34.9948
35.7266
35.9381
35.7371
36.2341
35.494
35.5962
34.7809
35.1358
34.9407
34.453
35.1444
34.7857
35.8434
35.0529
35.3992
35.9872
35.2197
35.8482
34.9619
35.3402
34.8837
34.465
34.997
34.3841
34.7836
34.2466
34.741
34.5229
34.1919
34.4669
33.6637
33.9079
33.4705
33.8769
33.9155
34.0015
34.3732
33.9446
34.0679
33.6022
33.9419
33.6862
34.3245
34.7142
34.1314
34.082
33.8498
34.5975
34.4261
34.6582
34.1769
34.2035
34.1534
33.8584
34.2536
34.4116
35.199
34.7133
34.9168
34.3607
34.4656
34.4545
33.8455
33.9218
33.547
33.6193
33.0243
33.3834
33.0517
33.3786
33.2276
32.552
32.6149
32.6786
33.0551
32.6286
32.9218
32.5851
32.8352
32.7006
32.852
33.1168
33.3819
33.7167
33.3792
33.4733
33.3019
33.8216
33.4845
33.7031
33.3337
33.7135
33.8814
33.2201
33.1007
32.8187
33.217
32.7804
33.1077
32.7459
33.0176
33.1526
33.2277
33.6225
33.6024
33.4273
33.1042
32.9736
32.5247
32.6639
32.3759
32.5534
32.2891
32.5756
32.7303
33.1104
33.4883
33.226
33.1179
32.8296
32.7381
32.3104
32.4775
32.2819
32.7118
32.8026
33.1933
33.3618
32.9662
32.9108
32.8423
33.1433
32.8345
32.8248
32.3202
32.341
32.1811
32.335
32.4537
32.6309
32.7699
32.7699
33.0371
32.7234
32.6663
32.436
32.7256
32.475
32.8185
32.8357
33.0587
32.9713
32.8675
32.8378
32.5908
32.5356
32.4462
32.5623
32.6153
33.7448
34.1768
34.0002
33.7419
33.4423
33.0314
32.6692
32.1011
31.0907
28.6333
26.5
28.3021
31.3918
34.4032
0.724551
2.0041
3.78191
5.97785
8.8697
12.7119
17.8198
24.4365
32.3844
41.0587
49.5112
56.7615
62.222
65.7149
67.7272
68.6822
68.9585
68.829
68.424
67.8508
67.1199
66.2651
65.2867
64.2377
63.1543
62.0601
60.9734
59.9094
58.8775
57.8822
56.9284
56.0182
55.1531
54.3307
53.5498
52.8107
52.1104
51.4472
50.8177
50.2214
49.6567
49.1214
48.6125
48.1286
47.6669
47.2284
46.8106
46.4122
46.0313
45.6671
45.3181
44.9837
44.663
44.3555
44.06
43.7761
43.5029
43.2398
42.9861
42.7415
42.5055
42.2777
42.0576
41.8447
41.6385
41.439
41.2456
41.0583
40.8765
40.7002
40.5289
40.3623
40.2003
40.0425
39.8889
39.7391
39.5929
39.4498
39.3099
39.1725
39.0378
38.9049
38.774
38.6441
38.515
38.3869
38.258
38.1305
38.0016
37.8679
37.7268
37.5776
37.4174
37.2359
37.0338
36.7725
36.4731
35.9143
35.6023
37.8924
43.8566
46.6699
47.8445
48.5449
48.3307
47.3637
45.88
43.9646
42.2738
40.2656
38.5218
37.752
36.6634
36.1467
35.3362
34.6382
34.5419
33.8787
33.7802
33.3226
34.3659
34.1711
33.1595
33.2536
32.8295
32.9154
32.3582
32.8364
33.0555
32.849
33.2043
32.6723
32.6675
32.0953
32.2881
32.1686
31.722
32.1979
31.9752
32.7416
32.2698
32.4614
32.9912
32.4078
32.8104
32.2142
32.4534
32.1795
31.7404
32.1288
31.665
31.881
31.5178
31.8233
31.7087
31.3702
31.5458
30.9316
31.0073
30.692
30.9205
30.9848
30.9898
31.2663
30.9504
30.9658
30.6388
30.822
30.6668
31.1145
31.4641
31.0076
30.9184
30.7777
31.2982
31.218
31.3547
31.0307
31.0079
30.9901
30.7579
31.0346
31.2305
31.7902
31.4913
31.6226
31.2681
31.3121
31.3356
30.8371
30.8305
30.5535
30.5253
30.1063
30.314
30.0984
30.2835
30.1797
29.61
29.5939
29.6514
29.8658
29.573
29.7197
29.5073
29.6402
29.5665
29.6457
29.864
30.0783
30.327
30.113
30.1536
30.093
30.4513
30.252
30.3781
30.1512
30.4161
30.5844
30.0587
29.9091
29.7077
29.9359
29.645
29.8326
29.5989
29.7607
29.8959
29.9435
30.2568
30.2562
30.1044
29.865
29.7232
29.3933
29.4305
29.2276
29.2964
29.1069
29.2842
29.4355
29.73
30.0359
29.8585
29.7467
29.5429
29.4209
29.1125
29.1862
29.0616
29.3549
29.462
29.7485
29.9063
29.6091
29.5471
29.5299
29.7274
29.5204
29.4542
29.0864
29.0436
28.9335
29.0122
29.1115
29.2406
29.3555
29.3796
29.5617
29.3494
29.2654
29.1218
29.3039
29.149
29.3891
29.446
29.6042
29.5599
29.4723
29.4461
29.2576
29.1907
29.1326
29.2026
29.3087
30.1825
30.5953
30.4925
30.3243
30.0894
29.7863
29.448
28.9829
27.9707
25.8841
24.0544
25.2108
27.4809
29.8029
0.395621
0.97832
1.89151
3.02523
4.41864
6.32123
8.95206
12.6109
17.538
23.7837
31.0539
38.6643
45.8648
51.8054
56.239
59.1129
60.8136
61.6824
61.9659
61.9336
61.6861
61.2782
60.7501
60.1217
59.4029
58.5971
57.7411
56.8609
55.9712
55.0826
54.2058
53.3498
52.5197
51.7193
50.9481
50.2092
49.5025
48.8285
48.1854
47.5724
46.9882
46.4327
45.9031
45.3991
44.9175
44.4595
44.0229
43.6066
43.2086
42.8281
42.4635
42.1152
41.7818
41.4622
41.1553
40.8606
40.577
40.3043
40.0417
39.7889
39.5451
39.3099
39.0828
38.8633
38.651
38.4457
38.2469
38.0544
37.8679
37.687
37.5113
37.3406
37.1748
37.0134
36.8564
36.7033
36.5541
36.4081
36.2655
36.1255
35.9884
35.8533
35.7203
35.5884
35.4576
35.3277
35.197
35.0668
34.937
34.8021
34.6603
34.5111
34.3515
34.1722
33.9735
33.7222
33.4403
32.9384
32.6702
34.3968
39.1171
41.6153
42.7146
43.5323
43.6478
43.3004
42.4355
41.1446
39.7085
37.9997
36.4596
35.6882
34.6808
34.0873
33.3497
32.6218
32.449
31.8471
31.6438
31.2738
31.9988
31.8871
31.0271
31.04
30.7004
30.6833
30.2763
30.5776
30.7931
30.5848
30.8392
30.4411
30.3678
29.9654
30.0462
29.9763
29.5673
29.8976
29.76
30.3081
30.0433
30.1384
30.6183
30.1604
30.4126
30.027
30.1798
30.0209
29.5848
29.8742
29.5096
29.6018
29.36
29.5378
29.487
29.1518
29.259
28.7707
28.7519
28.5075
28.6121
28.6934
28.6385
28.8407
28.5929
28.5443
28.2979
28.3734
28.2836
28.5975
28.9076
28.5378
28.4267
28.34
28.7049
28.683
28.7485
28.5306
28.4762
28.4837
28.2931
28.4882
28.6921
29.1046
28.9207
29.003
28.7872
28.7895
28.8345
28.4205
28.3709
28.1582
28.0796
27.7733
27.8813
27.7437
27.833
27.7578
27.2698
27.2055
27.2533
27.3655
27.1554
27.2086
27.0694
27.1195
27.0854
27.1167
27.2981
27.4703
27.656
27.5161
27.5224
27.5251
27.7772
27.6645
27.7302
27.601
27.7863
27.9498
27.5234
27.3636
27.2156
27.3366
27.1409
27.2329
27.0879
27.1758
27.3087
27.3349
27.585
27.5921
27.4586
27.2735
27.131
26.8803
26.8581
26.7113
26.7108
26.5753
26.6794
26.8239
27.0516
27.2994
27.1731
27.0612
26.9108
26.7783
26.5508
26.5664
26.4903
26.69
26.8038
27.0133
27.1554
26.9251
26.8622
26.8738
27.005
26.8643
26.7679
26.4927
26.4127
26.3374
26.369
26.4546
26.5485
26.6425
26.675
26.7975
26.6491
26.5535
26.4639
26.5781
26.4881
26.6566
26.7385
26.8479
26.8309
26.755
26.733
26.586
26.516
26.4788
26.5213
26.6536
27.3454
27.7319
27.6777
27.5655
27.3842
27.1579
26.8592
26.4751
25.5024
23.707
22.1125
22.8584
24.5732
26.3749
0.27036
0.517591
0.964904
1.58994
2.35524
3.28199
4.53322
6.31031
8.84054
12.3724
17.0868
22.9149
29.5112
36.1922
42.3563
47.3746
51.0942
53.5573
55.0432
55.8404
56.1887
56.2134
56.0668
55.7846
55.408
54.9413
54.4079
53.8005
53.1318
52.4284
51.7027
50.9662
50.2287
49.4999
48.7823
48.0813
47.3998
46.7411
46.1061
45.4947
44.9069
44.3436
43.8037
43.2875
42.793
42.3198
41.8671
41.4345
41.0203
40.6241
40.244
39.8807
39.5327
39.1992
38.879
38.5716
38.2757
37.992
37.7192
37.4567
37.2037
36.9598
36.7243
36.4969
36.2773
36.0651
35.8598
35.6612
35.4688
35.2822
35.1013
34.9256
34.755
34.5892
34.428
34.2709
34.1178
33.9682
33.8222
33.6791
33.5389
33.401
33.2654
33.1311
32.998
32.866
32.7337
32.6008
32.4694
32.3335
32.1913
32.0424
31.8836
31.7069
31.5123
31.2708
31.0027
30.5519
30.3237
31.627
35.412
37.6126
38.6198
39.4316
39.6796
39.6698
39.2133
38.4295
37.3098
35.8922
34.582
33.8876
32.978
32.3708
31.7109
30.9782
30.7589
30.2004
29.9341
29.6194
30.1162
30.0538
29.3051
29.264
28.9794
28.8968
28.5976
28.7705
28.9768
28.7682
28.948
28.6414
28.5209
28.2377
28.2423
28.2041
27.8256
28.0526
27.9696
28.3554
28.2199
28.2553
28.6923
28.3235
28.4715
28.2395
28.332
28.251
27.8309
28.0506
27.7589
27.7711
27.6147
27.7101
27.6929
27.3631
27.4209
27.0207
26.9407
26.7489
26.7653
26.8528
26.7574
26.9015
26.6953
26.6064
26.4088
26.4106
26.3611
26.5784
26.8517
26.5446
26.4213
26.3647
26.6203
26.6351
26.6501
26.5058
26.4287
26.4529
26.2913
26.4288
26.6255
26.937
26.8247
26.8707
26.7595
26.7292
26.7859
26.4371
26.37
26.2002
26.0953
25.8652
25.9092
25.8236
25.8469
25.7892
25.365
25.2743
25.31
25.3591
25.2003
25.1932
25.0962
25.0848
25.0778
25.0763
25.2285
25.3665
25.5056
25.4104
25.393
25.4296
25.6095
25.5498
25.5769
25.5156
25.6437
25.799
25.4469
25.287
25.1753
25.2278
25.0969
25.1261
25.0404
25.0767
25.2066
25.2159
25.4172
25.4263
25.3073
25.1584
25.0194
24.8222
24.7652
24.6558
24.6127
24.5154
24.5695
24.7053
24.8815
25.0827
24.9878
24.877
24.7609
24.6273
24.456
24.4382
24.392
24.526
24.6404
24.7933
24.919
24.7346
24.6728
24.7002
24.7872
24.6912
24.5793
24.3682
24.2674
24.2156
24.2173
24.2933
24.3621
24.4388
24.4722
24.5508
24.444
24.3441
24.2896
24.3584
24.3132
24.4315
24.527
24.6006
24.6018
24.5354
24.5167
24.3997
24.3307
24.3075
24.3335
24.4768
25.035
25.3931
25.371
25.2971
25.1618
24.9907
24.7291
24.4184
23.4968
21.9332
20.5264
21.0038
22.3324
23.7469
0.227937
0.324159
0.527219
0.855226
1.30236
1.83275
2.48417
3.31425
4.4982
6.19854
8.63918
12.0288
16.4853
21.8694
27.8148
33.7232
39.0742
43.4186
46.6312
48.8103
50.1636
50.9253
51.2983
51.3934
51.3057
51.1213
50.849
50.5092
50.1037
49.654
49.1416
48.5821
47.996
47.3931
46.7782
46.1601
45.5447
44.9369
44.3401
43.7573
43.1894
42.6385
42.1051
41.5909
41.0952
40.6175
40.1576
39.716
39.2916
38.8844
38.493
38.1171
37.7561
37.4097
37.0768
36.757
36.449
36.1534
35.8691
35.5957
35.3322
35.0782
34.8329
34.5967
34.3688
34.1487
33.936
33.7302
33.5309
33.3378
33.1508
32.9693
32.7933
32.6223
32.4561
32.2943
32.1367
31.9829
31.8328
31.686
31.5423
31.4011
31.2623
31.1251
30.9895
30.8548
30.7207
30.5854
30.4517
30.3145
30.1721