/*--------------------------------*- C++ -*----------------------------------*\
| =========                 |                                                 |
| \\      /  F ield         | foam-extend: Open Source CFD                    |
|  \\    /   O peration     | Version:     3.2                                |
|   \\  /    A nd           | Web:         http://www.foam-extend.org         |
|    \\/     M anipulation  | For copyright notice see file Copyright         |
\*---------------------------------------------------------------------------*/
FoamFile
{
    version     2.0;
    format      ascii;
    class       areaScalarField;
    location    "160";
    object      Pa;
}
// * * * * * * * * * * * * * * * * * * * * * * * * * * * * * * * * * * * * * //

dimensions      [0 0 0 0 0 0 0];

internalField   nonuniform List<scalar> 
300
(
0.5
0.5
0.5
0.5
0.5
0.5
0.5
0.5
0.5
0.5
0.5
0.5
0.5
0.5
0.5
0.5
0.5
0.5
0.5
0.5
0.5
0.5
0.5
0.5
0.5
0.5
0.5
0.5
0.5
0.5
0.5
0.5
0.5
0.5
0.5
0.5
0.5
0.5
0.5
0.5
0.5
0.5
0.5
0.5
0.5
0.5
0.5
0.5
0.5
0.5
0.5
0.5
0.5
0.5
0.5
0.5
0.5
0.5
0.5
0.5
0.5
0.5
0.5
0.5
0.5
0.5
0.5
0.5
0.5
0.5
0.5
0.5
0.5
0.5
0.5
0.5
0.5
0.5
0.5
0.5
0.5
0.5
0.5
0.5
0.5
0.5
0.5
0.5
0.5
0.5
0.5
0.5
0.5
0.5
0.5
0.5
0.5
0.5
0.5
0.5
0.569161
0.597489
0.642254
0.672757
0.708861
0.737137
0.766323
0.790073
0.810895
0.836934
0.847143
0.827194
0.85854
0.833734
0.823958
0.860519
0.823186
0.855279
0.823978
0.843472
0.838092
0.795656
0.865803
0.803138
0.852098
0.812821
0.843266
0.842595
0.799263
0.864189
0.783685
0.847253
0.815955
0.830579
0.834786
0.800521
0.864325
0.785774
0.851942
0.809901
0.809714
0.846208
0.768878
0.860458
0.794251
0.838927
0.825206
0.803506
0.86037
0.798656
0.866887
0.821644
0.849127
0.852894
0.82048
0.884156
0.824941
0.882762
0.856005
0.863963
0.870305
0.851377
0.886231
0.849208
0.885941
0.859319
0.880454
0.871315
0.868649
0.882364
0.853896
0.889453
0.865179
0.889895
0.862019
0.876437
0.86298
0.867204
0.872357
0.858741
0.876512
0.847163
0.878545
0.835593
0.858359
0.838239
0.840041
0.855367
0.812761
0.881384
0.823827
0.876109
0.840014
0.862148
0.860191
0.838619
0.873894
0.824018
0.888864
0.847769
0.884072
0.85715
0.879409
0.867755
0.871978
0.872246
0.860755
0.878842
0.856205
0.887942
0.852389
0.889642
0.851084
0.881764
0.858073
0.864489
0.866235
0.846872
0.878177
0.832517
0.890875
0.857449
0.887742
0.855065
0.883765
0.86552
0.866198
0.872183
0.848173
0.880792
0.844561
0.884509
0.859094
0.880716
0.862664
0.883364
0.870985
0.876908
0.873355
0.871078
0.878253
0.86346
0.886615
0.863714
0.887658
0.870853
0.888451
0.873123
0.888791
0.875175
0.882536
0.879493
0.865841
0.884075
0.860702
0.895035
0.86912
0.892387
0.873697
0.882269
0.881588
0.876501
0.885912
0.870096
0.889372
0.868297
0.896294
0.874511
0.896934
0.873018
0.895963
0.877298
0.887202
0.881745
0.875321
0.886773
0.857378
0.893315
0.847562
0.902202
0.855571
0.901019
0.874313
0.892775
0.87827
0.880357
0.838723
0.814227
0.825587
0.791844
0.78721
0.753052
0.727945
0.692091
0.641788
0.604259
0.5
0.5
0.5
0.5
)
;

boundaryField
{
    inlet
    {
        type            calculated;
        value           uniform 0;
    }
    outlet
    {
        type            calculated;
        value           uniform 0;
    }
    sideWall
    {
        type            empty;
    }
}


// ************************************************************************* //
