/*--------------------------------*- C++ -*----------------------------------*\
| =========                 |                                                 |
| \\      /  F ield         | foam-extend: Open Source CFD                    |
|  \\    /   O peration     | Version:     3.2                                |
|   \\  /    A nd           | Web:         http://www.foam-extend.org         |
|    \\/     M anipulation  | For copyright notice see file Copyright         |
\*---------------------------------------------------------------------------*/
FoamFile
{
    version     2.0;
    format      ascii;
    class       volScalarField;
    location    "160";
    object      pd;
}
// * * * * * * * * * * * * * * * * * * * * * * * * * * * * * * * * * * * * * //

dimensions      [1 -1 -2 0 0 0 0];

internalField   nonuniform List<scalar> 
96000
(
568.649
430.794
417.182
415.894
414.591
412.747
410.635
408.521
406.217
404.208
402.443
400.693
399.153
397.66
396.276
394.959
393.65
392.42
391.207
390.056
388.895
387.762
386.638
385.545
384.459
383.384
382.323
381.264
380.235
379.194
378.181
377.155
376.154
375.148
374.161
373.17
372.189
371.214
370.239
369.282
368.318
367.367
366.416
365.471
364.534
363.595
362.669
361.736
360.818
359.895
358.981
358.069
357.159
356.254
355.349
354.448
353.549
352.651
351.755
350.859
349.964
349.07
348.172
347.278
346.375
345.474
344.56
343.651
342.719
341.795
340.837
339.886
338.892
337.901
336.852
335.807
334.679
333.556
332.316
331.078
329.682
328.281
326.661
325.024
323.094
321.124
318.703
316.247
313.121
309.905
305.713
301.308
295.539
288.905
280.96
269.367
259.851
232.492
252.453
61.4694
254.284
355.03
368.663
419.562
426.981
457.706
465.717
491.592
497.235
558.907
576.092
522.847
658.664
448.315
577.724
405.764
419.068
589.775
409.157
677.218
315.892
586.087
450.476
367.354
590.268
377.18
656.241
284.444
513.245
414.566
395.234
557.712
285.395
532.814
262.424
549.731
472.818
359.355
529.487
198.527
523.777
240.369
453.541
511.463
283.117
529.617
151.079
451.843
278.686
364.005
521.116
261.316
467.461
131.242
384.436
271.491
312.366
491.493
222.801
448.666
129.807
350.988
249.483
330.861
468.169
293.244
463.383
149.033
356.623
120.611
308.492
353.419
311.64
453.451
236.377
394.208
133.919
354.474
188.44
382.079
391.04
319.967
422.976
204.775
392.201
154.978
426.094
254.522
455.196
415.384
313.28
393.793
165.833
369.123
136.017
444.674
264.827
482.646
385.98
295.359
360.208
211.297
429.633
279.549
546.363
303.802
477.164
238.764
289.24
271.527
264.944
437.915
345.373
505.546
292.905
439.288
175.514
396.111
224.888
425.599
435.199
337.934
425.956
204.016
409.037
206.436
514.963
324.57
496.351
364.714
336.185
318.67
294.089
386.959
377.054
529.628
385.164
501.801
254.26
383.42
211.51
386.196
377.166
459.408
514.133
404.704
419.179
265.121
385.816
281.667
514.223
399.894
555.403
420.737
478.609
438.876
325.255
364.152
267.786
445.376
373.71
576.945
404.836
517.415
309.371
359.608
309.749
372.498
485.685
474.722
593.804
441.807
504.909
327.851
518.929
422.503
636.988
519.67
606.355
510.358
516.611
517.6
452.723
489.87
406.392
476.596
365.391
469.559
414.096
431.157
392.616
401.889
354.862
366.299
284.957
310.149
133.546
-226.565
27.8699
-50.9243
565.656
431.986
417.919
416.223
414.787
412.903
410.748
408.612
406.29
404.266
402.492
400.736
399.191
397.693
396.306
394.986
393.674
392.442
391.229
390.078
388.916
387.782
386.656
385.561
384.474
383.399
382.337
381.277
380.248
379.206
378.192
377.166
376.164
375.157
374.17
373.178
372.197
371.222
370.247
369.289
368.325
367.374
366.423
365.477
364.54
363.601
362.675
361.742
360.824
359.9
358.986
358.074
357.164
356.259
355.353
354.452
353.553
352.655
351.759
350.862
349.967
349.074
348.176
347.281
346.378
345.478
344.563
343.654
342.722
341.797
340.84
339.889
338.894
337.904
336.854
335.809
334.68
333.558
332.318
331.08
329.683
328.281
326.661
325.023
323.093
321.123
318.701
316.244
313.117
309.899
305.707
301.298
295.527
288.888
280.939
269.335
259.802
232.402
254.074
64.1536
254.019
354.454
368.397
419.418
426.906
457.688
465.71
491.684
497.143
558.249
575.232
521.242
657.293
448.594
577.447
408.204
419.846
589.409
407.769
675.943
317.692
585.703
451.286
368.153
589.887
375.775
654.347
286.83
513.376
415.258
394.371
556.744
286.328
533.896
264.498
547.378
471.474
358.466
529.891
200.491
524.096
242.442
451.826
509.912
282.717
529.841
153.852
451.841
279.681
362.461
519.21
260.905
468.015
134.044
384.722
272.309
311.079
489.887
222.659
448.207
132.983
351.476
250.47
329.519
466.478
292.023
462.549
150.573
357.543
123.511
308.684
352.421
310.015
452.057
236.178
394.933
135.73
355.341
190.066
380.436
389.552
318.826
422.698
205.921
393.343
156.326
426.107
254.908
452.907
413.986
312.67
394.458
167.566
370.391
137.36
444.054
264.842
480.121
385.027
296.029
361.528
212.805
430.053
278.57
544.136
303.322
475.416
240.713
290.85
273.072
265.475
436.955
343.763
504.066
292.536
439.96
177.391
396.924
226.494
423.946
433.461
337.079
426.355
205.729
410.425
207.207
513.241
324.017
494.234
364.538
337.344
320.362
295.512
387.428
375.885
527.795
383.785
500.989
255.671
384.764
214.085
386.4
376.581
457.371
512.28
403.988
420.12
267.062
387.406
282.543
513.073
398.45
553.373
420.795
477.723
438.474
326.534
365.991
269.403
445.838
372.584
574.685
403.905
515.94
311.309
361.271
311.686
373.201
484.65
472.809
591.935
441.056
505.861
329.961
519.907
422.266
634.234
518.582
605.194
510.26
516.141
517.157
452.462
489.655
406.206
476.466
365.83
468.807
413.611
430.701
392.169
401.387
354.203
365.58
283.166
306.937
134.619
-223.106
28.2554
-50.7105
559.959
433.479
419.086
417.002
415.256
413.218
410.981
408.787
406.433
404.389
402.6
400.83
399.274
397.766
396.371
395.045
393.727
392.49
391.273
390.117
388.952
387.815
386.687
385.591
384.502
383.425
382.362
381.3
380.269
379.227
378.212
377.185
376.182
375.174
374.186
373.194
372.212
371.237
370.26
369.302
368.337
367.386
366.435
365.488
364.551
363.612
362.685
361.752
360.833
359.909
358.995
358.083
357.172
356.267
355.361
354.46
353.56
352.662
351.766
350.869
349.974
349.08
348.182
347.287
346.384
345.483
344.569
343.659
342.728
341.803
340.845
339.894
338.899
337.908
336.858
335.813
334.684
333.561
332.321
331.082
329.685
328.283
326.663
325.023
323.093
321.123
318.699
316.24
313.113
309.892
305.699
301.286
295.514
288.867
280.918
269.29
259.827
232.288
255.393
68.0186
254.251
354.491
368.281
419.208
426.863
457.688
465.707
491.782
497.025
557.495
574.149
519.766
655.454
448.808
576.526
410.729
421.406
588.695
406.665
674.422
319.719
584.381
451.87
369.928
589.359
374.522
651.489
290.12
512.947
416.066
394.124
555.397
287.189
534.298
267.891
544.682
469.777
358.016
529.721
202.674
524.347
245.145
450.253
507.598
282.379
529.485
157.409
451.39
281.139
361.574
516.502
260.279
468.063
137.614
384.672
273.428
310.249
487.765
222.4
447.121
136.705
351.826
251.864
328.739
464.254
290.657
461.156
152.661
357.827
127.092
309.104
351.26
308.913
450.281
235.77
395.263
137.947
355.933
192.366
378.903
387.886
317.979
421.822
206.742
394.393
158.489
425.86
255.806
450.409
412.117
312.196
394.57
169.333
371.706
139.764
443.093
265.316
477.093
383.571
296.916
362.412
214.549
430.626
277.869
541.461
303.334
472.942
242.729
292.384
274.791
266.615
436.004
342.294
502.349
291.691
440.322
179.781
397.471
228.784
422.307
431.342
336.38
426.139
207.3
411.915
208.97
511.198
323.873
491.662
364.127
338.437
321.916
297.189
388.099
375.039
525.743
382.134
499.88
257.072
385.769
217.255
386.848
376.304
455.481
509.88
402.982
420.696
269.017
389.126
283.903
512.01
397.487
550.977
420.9
476.571
437.58
327.905
367.682
271.249
446.6
371.666
572.121
403.22
513.86
313.233
362.816
313.974
374.388
483.557
470.957
589.665
439.979
506.624
331.862
520.956
422.626
631.194
517.398
603.541
510.039
515.628
516.44
452.258
489.324
406.062
476.316
366.2
467.813
412.921
430.116
391.501
400.732
353.148
364.624
280.795
303.615
134.252
-216.924
29.1252
-50.2355
554.505
435.309
420.404
417.546
415.584
413.472
411.19
408.961
406.584
404.52
402.709
400.925
399.36
397.844
396.441
395.109
393.786
392.544
391.322
390.163
388.994
387.854
386.724
385.625
384.534
383.455
382.39
381.327
380.295
379.251
378.235
377.206
376.203
375.194
374.205
373.212
372.229
371.253
370.276
369.318
368.352
367.4
366.448
365.502
364.564
363.624
362.697
361.763
360.845
359.92
359.005
358.093
357.182
356.276
355.37
354.469
353.569
352.671
351.774
350.877
349.982
349.088
348.19
347.295
346.391
345.49
344.576
343.666
342.734
341.809
340.851
339.899
338.904
337.913
336.864
335.818
334.689
333.565
332.325
331.086
329.689
328.286
326.666
325.025
323.094
321.124
318.7
316.239
313.112
309.888
305.695
301.279
295.507
288.854
280.912
269.264
259.907
232.265
255.015
73.4609
255.125
354.551
368.449
418.854
426.839
457.686
465.689
491.859
496.868
556.675
572.89
518.831
652.575
449.593
575.298
413.297
423.34
587.168
406.373
671.721
322.999
582.558
452.481
372.3
587.787
374.261
648.43
293.474
512.114
416.818
394.51
553.254
288.717
534.315
271.387
541.807
468.144
358.362
528.315
206.467
523.385
248.154
448.605
504.846
282.823
527.919
161.945
450.561
282.829
361.209
512.852
260.727
466.758
142.069
384.346
274.662
310.147
484.596
223.297
445.336
140.505
351.872
253.447
328.373
461.334
289.823
458.886
155.995
357.308
130.932
309.389
350.107
308.327
447.736
236.363
394.542
141.26
355.77
194.881
377.343
386.139
317.585
420.396
208.143
394.54
161.912
424.816
256.995
447.825
410.276
312.148
393.884
171.576
372.272
143.566
441.381
266.13
473.937
382.193
297.907
362.729
216.745
430.509
278.241
538.328
303.504
470.182
244.818
293.773
276.476
268.168
434.467
341.454
500.11
291.595
439.72
183.258
397.258
231.326
420.595
429.248
336.077
425.124
209.584
412.498
212.076
508.407
324.034
488.975
363.755
339.523
323.303
298.938
388.662
374.433
523.2
381.178
498.061
259.231
386.163
220.576
387.18
376.19
453.852
507.185
402.104
420.858
271.255
390.353
286.017
510.214
397.204
548.441
421.136
475.315
436.659
329.425
368.961
273.536
446.823
371.175
569.541
402.648
511.585
315.201
364.187
316.281
375.577
482.365
469.543
586.838
439.281
506.873
334.291
521.2
423.497
628.043
516.327
601.669
509.798
515.116
515.492
452.206
488.688
406.243
475.917
366.666
466.654
412.148
429.441
390.708
399.971
351.915
363.372
278.151
300.36
131.328
-206.679
30.254
-49.7829
549.676
436.021
421.94
418.103
415.834
413.634
411.343
409.117
406.732
404.654
402.823
401.028
399.456
397.93
396.517
395.177
393.849
392.603
391.377
390.214
389.041
387.899
386.765
385.664
384.57
383.489
382.423
381.358
380.324
379.278
378.261
377.231
376.227
375.217
374.227
373.233
372.249
371.272
370.295
369.335
368.369
367.417
366.464
365.517
364.578
363.639
362.711
361.777
360.858
359.933
359.018
358.105
357.194
356.288
355.381
354.479
353.58
352.68
351.784
350.887
349.991
349.097
348.198
347.303
346.399
345.498
344.584
343.674
342.741
341.816
340.858
339.906
338.911
337.92
336.87
335.824
334.695
333.571
332.331
331.091
329.694
328.291
326.67
325.029
323.096
321.128
318.704
316.241
313.113
309.887
305.696
301.277
295.507
288.85
280.919
269.253
260.044
232.303
254.872
78.9839
256.274
354.325
368.651
418.619
426.832
457.702
465.688
491.934
496.655
555.855
571.581
518.143
649.256
450.469
573.893
415.938
425.271
585.486
406.875
667.996
326.573
580.431
453.137
375.102
585.78
374.754
644.506
296.935
511.108
417.575
395.256
550.703
291.111
533.482
274.965
538.772
466.548
359.188
526.382
210.915
521.543
251.328
446.911
501.997
284.214
525.577
166.486
449.492
284.616
360.817
509.08
261.98
464.729
146.538
383.817
275.97
310.287
481.099
224.893
442.79
144.46
351.775
255.098
327.966
458.27
289.565
456.138
159.227
356.686
134.935
309.574
348.928
307.895
444.805
237.435
393.334
144.766
355.51
197.521
375.723
384.415
317.244
418.817
210.296
394.129
165.256
423.63
258.327
445.137
408.423
312.291
392.982
174.442
372.411
147.234
439.52
267.091
470.657
380.84
298.957
362.928
219.538
429.927
279.138
534.46
303.805
467.328
247.008
295.142
278.158
269.926
432.706
340.898
497.311
292.243
438.521
186.744
396.935
233.99
418.801
427.147
335.969
423.914
212.558
412.503
215.042
505.5
324.347
486.233
363.444
340.604
324.657
300.739
389.117
373.999
520.482
380.589
495.584
261.681
386.434
224.005
387.408
376.124
452.171
504.449
401.449
420.854
273.711
391.427
288.487
508.033
396.947
545.777
421.389
474.013
435.744
331.031
370.164
276.276
446.613
371.073
566.504
402.171
509.252
317.253
365.517
318.597
376.732
481.15
468.376
583.694
438.834
506.652
337.398
520.965
424.331
624.767
515.305
599.65
509.52
514.543
514.494
452.188
487.874
406.55
475.149
367.405
465.373
411.315
428.704
389.879
399.042
350.804
361.762
275.746
296.858
129.472
-197.116
31.3202
-49.381
545.389
436.91
422.856
418.697
416.05
413.768
411.451
409.212
406.845
404.768
402.933
401.133
399.554
398.019
396.595
395.248
393.916
392.667
391.434
390.265
389.09
387.944
386.809
385.705
384.61
383.526
382.458
381.391
380.356
379.308
378.29
377.259
376.253
375.242
374.251
373.256
372.271
371.294
370.315
369.355
368.388
367.435
366.482
365.534
364.595
363.654
362.726
361.792
360.872
359.947
359.031
358.118
357.206
356.3
355.393
354.491
353.591
352.692
351.795
350.897
350.001
349.107
348.208
347.313
346.408
345.507
344.593
343.682
342.75
341.824
340.866
339.914
338.919
337.927
336.877
335.831
334.702
333.578
332.337
331.097
329.7
328.296
326.676
325.035
323.099
321.132
318.709
316.245
313.118
309.891
305.701
301.28
295.515
288.854
280.941
269.261
260.237
232.404
254.791
84.6444
257.535
353.961
368.663
418.545
426.873
457.696
465.714
491.992
496.446
554.984
570.202
517.368
645.835
451.391
572.391
418.627
427.21
583.688
407.773
663.811
330.159
578.134
453.837
377.895
583.647
375.706
640.023
300.495
509.995
418.347
395.969
548.046
293.947
532.199
278.638
535.628
464.965
359.972
524.253
215.404
519.582
254.64
445.183
499.073
286.003
522.722
171.191
448.296
286.476
360.431
505.162
263.245
462.584
151.165
383.196
277.349
310.408
477.458
226.45
440.245
148.564
351.6
256.796
327.563
455.082
289.58
453.044
162.551
356
139.047
309.713
347.712
307.479
441.813
238.488
392.077
148.39
355.148
200.242
374.065
382.66
316.963
417.057
212.689
393.502
168.724
422.304
259.742
442.37
406.538
312.435
392.049
177.734
372.178
151.004
437.542
268.13
467.285
379.496
300.065
363.097
222.592
429.015
280.012
530.52
304.197
464.41
249.259
296.515
279.851
271.684
430.874
340.415
494.328
292.911
437.273
190.34
396.51
236.73
416.957
425.019
335.894
422.687
215.719
412.273
218.083
502.479
324.724
483.441
363.16
341.688
326.001
302.594
389.492
373.686
517.587
379.977
493.079
264.173
386.682
227.514
387.581
376.083
450.479
501.658
400.867
420.773
276.377
392.345
290.936
505.843
396.747
543.031
421.633
472.667
434.831
332.676
371.36
279.089
446.302
371.293
563.07
401.757
506.877
319.356
366.836
320.932
377.87
479.904
467.179
580.485
438.538
506.286
340.453
520.65
425.185
621.408
514.295
597.515
509.198
513.923
513.433
452.166
487.013
406.844
474.101
368.372
463.992
410.537
427.79
389.176
397.818
349.907
359.775
273.845
292.801
127.899
-187.756
32.4148
-48.9786
540.988
438.296
423.577
419.077
416.319
413.89
411.539
409.297
406.927
404.841
403.02
401.222
399.639
398.102
396.672
395.321
393.986
392.732
391.494
390.318
389.141
387.993
386.855
385.748
384.649
383.564
382.494
381.425
380.389
379.34
378.32
377.288
376.28
375.268
374.276
373.28
372.295
371.316
370.337
369.376
368.408
367.454
366.5
365.552
364.612
363.671
362.743
361.807
360.887
359.961
359.046
358.132
357.22
356.313
355.406
354.504
353.603
352.703
351.806
350.909
350.012
349.118
348.219
347.323
346.418
345.517
344.602
343.691
342.759
341.833
340.874
339.923
338.927
337.935
336.885
335.839
334.709
333.585
332.345
331.105
329.707
328.303
326.683
325.042
323.106
321.136
318.718
316.253
313.126
309.898
305.711
301.29
295.53
288.868
280.979
269.287
260.48
232.572
254.715
90.4224
258.838
353.497
368.591
418.447
426.963
457.677
465.781
492.01
496.316
553.985
568.764
516.566
642.303
452.344
570.819
421.337
429.163
581.797
408.669
659.528
333.806
575.732
454.562
380.7
581.398
376.657
635.471
304.122
508.809
419.121
396.695
545.306
296.815
530.841
282.386
532.424
463.381
360.764
521.986
219.997
517.47
258.037
443.442
496.091
287.754
519.759
176.042
447.012
288.382
360.057
501.141
264.542
460.366
155.911
382.521
278.777
310.554
473.71
228.089
437.649
152.752
351.378
258.524
327.175
451.803
289.567
449.906
165.974
355.262
143.239
309.831
346.48
307.088
438.76
239.577
390.738
152.114
354.707
203.023
372.39
380.882
316.707
415.157
215.161
392.784
172.306
420.863
261.221
439.557
404.626
312.607
391.07
181.049
371.924
154.894
435.483
269.224
463.858
378.158
301.203
363.237
225.644
428.029
280.946
526.49
304.627
461.447
251.541
297.895
281.552
273.461
428.988
339.958
491.303
293.589
435.955
194.024
396
239.525
415.092
422.873
335.861
421.425
218.881
411.992
221.209
499.37
325.14
480.618
362.89
342.769
327.339
304.472
389.819
373.418
514.601
379.382
490.557
266.705
386.899
231.08
387.725
376.062
448.782
498.82
400.291
420.675
279.15
393.169
293.418
503.616
396.589
540.225
421.852
471.286
433.922
334.35
372.541
281.921
445.942
371.53
559.589
401.385
504.478
321.485
368.152
323.282
378.997
478.634
465.987
577.228
438.249
505.879
343.498
520.249
426.052
617.993
513.278
595.284
508.824
513.257
512.315
452.123
486.106
407.135
472.93
369.401
462.527
409.834
426.683
388.602
396.35
349.113
357.475
272.197
288.333
126.473
-178.561
33.5065
-48.5385
536.84
439.355
424.403
419.448
416.484
414.048
411.625
409.369
406.998
404.909
403.087
401.279
399.708
398.173
396.739
395.388
394.05
392.792
391.552
390.374
389.193
388.043
386.902
385.791
384.689
383.603
382.531
381.462
380.423
379.372
378.35
377.317
376.309
375.296
374.303
373.305
372.319
371.34
370.359
369.398
368.429
367.475
366.52
365.571
364.631
363.689
362.76
361.824
360.903
359.977
359.061
358.147
357.234
356.327
355.42
354.517
353.616
352.716
351.818
350.921
350.024
349.129
348.23
347.334
346.429
345.528
344.612
343.701
342.769
341.843
340.884
339.932
338.936
337.944
336.894
335.848
334.718
333.594
332.353
331.113
329.716
328.312
326.691
325.05
323.115
321.142
318.726
316.265
313.138
309.909
305.726
301.305
295.554
288.892
281.033
269.331
260.773
232.801
254.659
96.2243
260.154
352.972
368.499
418.244
427.011
457.691
465.913
491.964
496.306
552.817
567.278
515.754
638.685
453.318
569.194
424.049
431.12
579.832
409.621
655.146
337.486
573.261
455.307
383.513
579.05
377.673
630.843
307.78
507.569
419.889
397.441
542.51
299.769
529.374
286.176
529.194
461.8
361.584
519.625
224.668
515.232
261.492
441.703
493.066
289.54
516.699
180.986
445.667
290.316
359.697
497.068
265.912
458.068
160.732
381.814
280.236
310.73
469.896
229.805
435.003
156.996
351.129
260.27
326.797
448.458
289.579
446.728
169.451
354.492
147.485
309.94
345.245
306.715
435.654
240.712
389.332
155.905
354.217
205.846
370.715
379.092
316.459
413.195
217.661
391.988
175.959
419.339
262.745
436.722
402.701
312.806
390.048
184.412
371.641
158.858
433.368
270.359
460.404
376.829
302.354
363.348
228.712
426.978
281.931
522.381
305.079
458.464
253.838
299.28
283.257
275.253
427.068
339.529
488.229
294.31
434.57
197.76
395.437
242.356
413.225
420.726
335.864
420.137
222.077
411.645
224.381
496.215
325.583
477.779
362.63
343.841
328.672
306.351
390.117
373.169
511.575
378.818
488.004
269.267
387.099
234.681
387.853
376.058
447.082
495.957
399.729
420.556
281.944
393.97
295.928
501.364
396.457
537.378
422.038
469.882
433.022
336.044
373.709
284.778
445.532
371.797
556.07
401.04
502.074
323.624
369.465
325.64
380.116
477.352
464.808
573.936
437.967
505.429
346.54
519.762
426.915
614.542
512.243
592.972
508.397
512.542
511.15
452.057
485.155
407.414
471.727
370.395
460.995
409.116
425.487
388.046
394.754
348.428
354.945
270.608
283.722
125.179
-169.573
34.5939
-48.09
532.868
440.327
425.127
419.875
416.641
414.133
411.724
409.443
407.048
404.979
403.146
401.337
399.766
398.219
396.792
395.446
394.105
392.847
391.605
390.425
389.242
388.091
386.948
385.835
384.732
383.644
382.57
381.499
380.457
379.404
378.382
377.347
376.338
375.324
374.329
373.331
372.344
371.363
370.383
369.42
368.451
367.496
366.54
365.591
364.65
363.708
362.778
361.841
360.92
359.994
359.077
358.162
357.249
356.342
355.434
354.531
353.63
352.729
351.831
350.933
350.036
349.141
348.241
347.345
346.44
345.539
344.623
343.712
342.779
341.853
340.894
339.942
338.946
337.954
336.903
335.857
334.727
333.603
332.362
331.122
329.725
328.321
326.701
325.06
323.125
321.153
318.732
316.282
313.154
309.924
305.745
301.326
295.586
288.925
281.101
269.394
261.112
233.081
254.623
102.006
261.515
352.416
368.389
417.969
426.987
457.7
466.107
491.863
496.433
551.461
565.744
514.938
635.008
454.312
567.53
426.749
433.066
577.813
410.641
650.684
341.175
570.747
456.068
386.315
576.623
378.766
626.16
311.45
506.287
420.651
398.204
539.682
302.805
527.81
289.985
525.957
460.233
362.424
517.189
229.376
512.917
264.983
439.976
490.014
291.377
513.565
185.995
444.277
292.268
359.354
492.97
267.34
455.712
165.601
381.085
281.718
310.935
466.049
231.574
432.332
161.278
350.862
262.025
326.431
445.069
289.624
443.515
172.967
353.71
151.763
310.048
344.016
306.352
432.517
241.879
387.882
159.745
353.692
208.693
369.047
377.295
316.22
411.201
220.179
391.134
179.664
417.756
264.301
433.88
400.773
313.022
388.996
187.823
371.323
162.88
431.218
271.52
456.948
375.516
303.508
363.437
231.791
425.866
282.949
518.223
305.546
455.476
256.137
300.668
284.966
277.05
425.13
339.122
485.122
295.064
433.142
201.533
394.841
245.207
411.371
418.593
335.898
418.838
225.303
411.244
227.584
493.039
326.047
474.942
362.379
344.902
330.001
308.227
390.387
372.934
508.522
378.274
485.438
271.844
387.294
238.308
387.976
376.07
445.388
493.087
399.192
420.419
284.745
394.76
298.454
499.108
396.349
534.509
422.191
468.468
432.142
337.755
374.874
287.652
445.093
372.1
552.524
400.716
499.674
325.762
370.776
328.002
381.233
476.073
463.645
570.633
437.706
504.931
349.559
519.203
427.763
611.07
511.185
590.595
507.918
511.786
509.95
451.967
484.171
407.679
470.486
371.362
459.414
408.366
424.235
387.455
393.108
347.784
352.267
269.078
279.087
123.995
-160.8
35.6539
-47.6676
529.071
441.195
425.818
420.249
416.856
414.215
411.801
409.478
407.123
405.035
403.19
401.395
399.816
398.267
396.84
395.485
394.146
392.894
391.652
390.469
389.287
388.135
386.99
385.876
384.772
383.682
382.608
381.535
380.492
379.438
378.414
377.379
376.369
375.352
374.355
373.357
372.369
371.388
370.406
369.443
368.472
367.517
366.561
365.61
364.669
363.727
362.796
361.859
360.938
360.01
359.093
358.178
357.265
356.357
355.449
354.545
353.644
352.743
351.845
350.946
350.049
349.154
348.254
347.357
346.452
345.55
344.634
343.723
342.79
341.863
340.904
339.952
338.956
337.964
336.913
335.867
334.737
333.613
332.373
331.132
329.736
328.332
326.712
325.072
323.137
321.165
318.738
316.302
313.173
309.943
305.77
301.353
295.627
288.968
281.185
269.474
261.494
233.411
254.604
107.755
262.925
351.838
368.265
417.646
426.918
457.657
466.247
491.797
496.607
550.001
564.174
514.129
631.291
455.324
565.835
429.42
434.992
575.755
411.714
646.171
344.866
568.206
456.839
389.09
574.133
379.926
621.454
315.118
504.97
421.405
398.981
536.841
305.902
526.171
293.799
522.729
458.684
363.28
514.695
234.095
510.557
268.499
438.269
486.951
293.259
510.385
191.035
442.845
294.236
359.033
488.863
268.82
453.32
170.492
380.334
283.217
311.171
462.19
233.387
429.652
165.581
350.58
263.777
326.074
441.656
289.69
440.284
176.506
352.926
156.052
310.16
342.801
306.001
429.364
243.071
386.403
163.619
353.144
211.55
367.394
375.499
315.989
409.187
222.707
390.241
183.404
416.131
265.877
431.048
398.85
313.252
387.926
191.266
370.983
166.946
429.053
272.703
453.51
374.225
304.66
363.509
234.867
424.708
283.994
514.04
306.024
452.501
258.433
302.06
286.677
278.852
423.188
338.739
482.002
295.849
431.686
205.332
394.221
248.066
409.542
416.478
335.955
417.531
228.544
410.798
230.808
489.855
326.523
472.114
362.14
345.956
331.331
310.101
390.637
372.717
505.458
377.748
482.869
274.431
387.49
241.94
388.09
376.096
443.708
490.226
398.681
420.268
287.557
395.527
300.981
496.849
396.259
531.63
422.313
467.055
431.284
339.471
376.027
290.531
444.627
372.435
548.974
400.412
497.291
327.897
372.092
330.356
382.324
474.774
462.475
567.316
437.461
504.396
352.548
518.584
428.587
607.582
510.109
588.169
507.39
510.991
508.718
451.851
483.158
407.931
469.214
372.309
457.808
407.595
422.944
386.838
391.402
347.105
349.524
267.593
274.485
122.902
-152.247
36.6844
-47.2338
525.426
441.976
426.459
420.622
417.04
414.336
411.875
409.515
407.152
405.095
403.25
401.434
399.859
398.316
396.881
395.523
394.187
392.93
391.683
390.506
389.327
388.173
387.028
385.915
384.809
383.718
382.643
381.569
380.526
379.47
378.446
377.41
376.399
375.381
374.384
373.384
372.396
371.414
370.431
369.466
368.494
367.538
366.582
365.631
364.689
363.746
362.815
361.877
360.955
360.027
359.11
358.195
357.281
356.373
355.464
354.56
353.658
352.757
351.859
350.96
350.062
349.167
348.266
347.37
346.464
345.562
344.646
343.734
342.801
341.875
340.915
339.963
338.967
337.974
336.924
335.878
334.748
333.624
332.384
331.143
329.747
328.343
326.725
325.084
323.151
321.18
318.751
316.32
313.196
309.966
305.8
301.386
295.676
289.021
281.284
269.571
261.89
233.813
254.603
113.46
264.351
351.249
368.133
417.289
426.811
457.568
466.246
491.808
496.749
548.517
562.584
513.33
627.549
456.353
564.117
432.05
436.887
573.669
412.835
641.63
348.547
565.655
457.611
391.825
571.596
381.151
616.746
318.776
503.626
422.147
399.77
534.003
309.046
524.472
297.601
519.518
457.151
364.153
512.164
238.803
508.152
272.031
436.588
483.889
295.176
507.18
196.067
441.369
296.204
358.729
484.762
270.343
450.912
175.385
379.56
284.722
311.426
458.333
235.233
426.975
169.884
350.283
265.517
325.728
438.238
289.775
437.05
180.048
352.143
160.34
310.275
341.605
305.658
426.204
244.279
384.903
167.503
352.578
214.406
365.764
373.711
315.766
407.162
225.238
389.317
187.162
414.477
267.467
428.238
396.94
313.493
386.844
194.73
370.631
171.044
426.881
273.902
450.103
372.959
305.804
363.567
237.936
423.513
285.06
509.844
306.507
449.545
260.717
303.451
288.384
280.651
421.245
338.364
478.862
296.638
430.195
209.119
393.57
250.904
407.726
414.379
336.021
416.215
231.774
410.305
234.022
486.667
326.995
469.29
361.901
346.987
332.65
311.963
390.862
372.512
502.394
377.243
480.312
277
387.659
245.543
388.182
376.108
442.015
487.354
398.161
420.077
290.341
396.248
303.477
494.578
396.158
528.724
422.372
465.617
430.426
341.165
377.15
293.384
444.12
372.77
545.415
400.121
494.933
330.007
373.378
332.678
383.392
473.474
461.306
563.995
437.202
503.807
355.487
517.904
429.382
604.091
508.988
585.659
506.774
510.121
507.425
451.678
482.081
408.124
467.877
373.183
456.135
406.758
421.586
386.173
389.618
346.387
346.717
266.13
269.953
121.877
-143.92
37.6759
-46.8052
521.929
442.658
427.064
420.971
417.229
414.444
411.941
409.577
407.192
405.143
403.276
401.487
399.908
398.344
396.917
395.563
394.224
392.963
391.718
390.539
389.353
388.202
387.061
385.948
384.841
383.751
382.676
381.601
380.557
379.501
378.476
377.439
376.427
375.409
374.411
373.41
372.421
371.439
370.455
369.49
368.518
367.561
366.604
365.653
364.709
363.765
362.833
361.896
360.973
360.045
359.127
358.211
357.297
356.388
355.479
354.575
353.673
352.772
351.873
350.974
350.076
349.18
348.279
347.382
346.477
345.574
344.658
343.746
342.813
341.886
340.927
339.974
338.978
337.986
336.935
335.889
334.759
333.635
332.395
331.155
329.759
328.356
326.738
325.099
323.166
321.196
318.771
316.336
313.222
309.995
305.835
301.425
295.732
289.083
281.398
269.685
262.276
234.305
254.621
119.109
265.787
350.66
367.998
416.907
426.674
457.442
466.164
491.811
496.879
547
560.967
512.547
623.799
457.39
562.384
434.63
438.743
571.563
414.004
637.086
352.207
563.106
458.378
394.513
569.027
382.436
612.061
322.416
502.262
422.874
400.572
531.183
312.215
522.726
301.383
516.338
455.641
365.043
509.611
243.484
505.7
275.567
434.935
480.842
297.117
503.96
201.068
439.866
298.173
358.451
480.688
271.907
448.501
180.253
378.771
286.229
311.703
454.496
237.115
424.325
174.17
349.972
267.244
325.396
434.829
289.882
433.831
183.582
351.368
164.605
310.384
340.428
305.322
423.046
245.497
383.39
171.389
352.005
217.249
364.151
371.93
315.537
405.121
227.749
388.363
190.909
412.797
269.05
425.445
395.037
313.743
385.752
198.178
370.255
175.136
424.695
275.096
446.722
371.714
306.928
363.596
240.968
422.275
286.127
505.644
306.983
446.608
262.971
304.824
290.072
282.431
419.302
337.997
475.723
297.443
428.695
212.899
392.915
253.727
405.943
412.313
336.102
414.902
234.989
409.787
237.228
483.502
327.474
466.49
361.668
347.994
333.953
313.805
391.058
372.31
499.324
376.742
477.774
279.563
387.843
249.136
388.277
376.132
440.336
484.506
397.662
419.882
293.119
396.958
305.964
492.33
396.071
525.829
422.394
464.183
429.596
342.855
378.265
296.224
443.597
373.119
541.864
399.829
492.589
332.092
374.661
334.986
384.443
472.172
460.133
560.682
436.948
503.184
358.369
517.17
430.139
600.6
507.842
583.116
506.109
509.211
506.108
451.475
480.983
408.298
466.521
374.014
454.436
405.891
420.193
385.484
387.778
345.65
343.87
264.67
265.506
120.906
-135.859
38.6249
-46.3771
518.573
443.256
427.626
421.308
417.411
414.551
412.013
409.627
407.25
405.194
403.304
401.527
399.932
398.389
396.955
395.587
394.254
392.995
391.753
390.568
389.38
388.232
387.087
385.971
384.867
383.781
382.704
381.629
380.586
379.53
378.504
377.466
376.454
375.436
374.437
373.436
372.446
371.463
370.479
369.513
368.54
367.583
366.625
365.674
364.73
363.785
362.853
361.915
360.992
360.063
359.144
358.228
357.313
356.404
355.495
354.59
353.688
352.786
351.887
350.987
350.09
349.193
348.292
347.395
346.49
345.587
344.67
343.758
342.825
341.898
340.939
339.986
338.99
337.997
336.947
335.901
334.771
333.647
332.408
331.168
329.773
328.37
326.753
325.114
323.183
321.214
318.792
316.355