/*--------------------------------*- C++ -*----------------------------------*\
| =========                 |                                                 |
| \\      /  F ield         | foam-extend: Open Source CFD                    |
|  \\    /   O peration     | Version:     3.2                                |
|   \\  /    A nd           | Web:         http://www.foam-extend.org         |
|    \\/     M anipulation  | For copyright notice see file Copyright         |
\*---------------------------------------------------------------------------*/
FoamFile
{
    version     2.0;
    format      ascii;
    class       areaScalarField;
    location    "160";
    object      Pef;
}
// * * * * * * * * * * * * * * * * * * * * * * * * * * * * * * * * * * * * * //

dimensions      [0 0 0 0 0 0 0];

internalField   nonuniform List<scalar> 
300
(
0.996918
0.992009
0.963813
0.922379
0.894485
0.875779
0.860155
0.844907
0.829479
0.814262
0.799665
0.785782
0.772536
0.76016
0.748573
0.73767
0.727394
0.717647
0.708511
0.699999
0.691948
0.684253
0.676917
0.669929
0.663294
0.656935
0.650864
0.64503
0.639455
0.634123
0.628996
0.624071
0.619316
0.614748
0.610343
0.606111
0.602006
0.59805
0.594212
0.590503
0.586919
0.583442
0.580073
0.576799
0.573617
0.570536
0.567536
0.564633
0.561786
0.559041
0.556337
0.553734
0.551173
0.548703
0.546269
0.54392
0.5416
0.539367
0.537125
0.534992
0.532852
0.530829
0.52879
0.526873
0.524932
0.523123
0.521275
0.519572
0.51782
0.516224
0.514576
0.513098
0.511562
0.510218
0.508807
0.507613
0.506357
0.505339
0.504279
0.503485
0.502676
0.502162
0.501709
0.501535
0.501552
0.50187
0.502461
0.503535
0.50512
0.507173
0.5102
0.513633
0.51939
0.525171
0.535992
0.545377
0.570173
0.573918
0.711528
0.643883
0.155092
0.138502
0.16535
0.16256
0.180445
0.190033
0.1963
0.220041
0.20499
0.240195
0.350023
0.0127927
0.0744716
0.0595796
0.223601
0.334183
0.16064
0.341484
0.000236706
0.0780418
0.0563464
0.0995005
0.364849
0.152202
0.3069
0.211551
0.0226154
0.0974007
0.150854
0.297034
0.11207
0.00508488
0.207959
0.271018
0.300792
0.162842
0.128586
0.127165
0.0434369
0.186579
0.207496
0.326085
0.0991047
0.0659618
0.141641
0.262
0.260035
0.170056
0.334909
0.121411
0.0621863
0.212082
0.025467
0.275864
0.174998
0.326987
0.141315
0.110608
0.0712631
0.0786736
0.32677
0.230121
0.332627
0.179414
0.125986
0.0597837
0.132913
0.120998
0.292271
0.339031
0.199201
0.345849
0.0617067
0.159111
0.072769
0.0772215
0.268751
0.267983
0.331868
0.235674
0.157716
0.0357259
0.106874
0.186432
0.261387
0.23813
0.23663
0.294794
0.182347
0.0914384
0.192026
0.0669556
0.215111
0.311124
0.264839
0.25599
0.294836
0.191456
0.131221
0.0436801
0.331612
0.21805
0.322041
0.276633
0.0858264
0.127815
0.0624717
0.147863
0.260776
0.323525
0.212726
0.313348
0.0593169
0.105584
0.0388921
0.0597373
0.268081
0.264616
0.310595
0.191533
0.107134
0.0246643
0.127347
0.240277
0.319273
0.285143
0.283319
0.134841
0.0319845
0.097945
0.0303094
0.263814
0.246073
0.309279
0.251065
0.113065
0.0739094
0.09952
0.0956178
0.307453
0.33145
0.27056
0.312887
0.00813059
0.0672153
0.0474476
0.0882866
0.27182
0.3424
0.300623
0.323643
0.112145
0.051629
0.0896791
0.22002
0.0934253
0.0465938
0.322887
0.243595
0.299753
0.269471
0.0812944
0.114084
0.0761803
0.122326
0.281593
0.312554
0.257449
0.326462
0.0351988
0.0838742
0.0766592
0.114565
0.282867
0.312094
0.303737
0.0608902
0.0884401
0.0382805
0.10025
0.0527301
0.106608
0.0867503
0.117696
0.0817049
0.123292
0.0765609
0.191081
0.0299413
0.0398424
0.0516461
0.0720153
0.0791091
0.135449
0.130266
0.341808
0.812594
0.740401
0.354033
0.288717
)
;

boundaryField
{
    inlet
    {
        type            calculated;
        value           uniform 0;
    }
    outlet
    {
        type            calculated;
        value           uniform 0;
    }
    sideWall
    {
        type            empty;
    }
}


// ************************************************************************* //
