/*--------------------------------*- C++ -*----------------------------------*\
| =========                 |                                                 |
| \\      /  F ield         | foam-extend: Open Source CFD                    |
|  \\    /   O peration     | Version:     3.2                                |
|   \\  /    A nd           | Web:         http://www.foam-extend.org         |
|    \\/     M anipulation  | For copyright notice see file Copyright         |
\*---------------------------------------------------------------------------*/
FoamFile
{
    version     2.0;
    format      ascii;
    class       surfaceScalarField;
    location    "160";
    object      phi;
}
// * * * * * * * * * * * * * * * * * * * * * * * * * * * * * * * * * * * * * //

dimensions      [0 3 -1 0 0 0 0];

internalField   nonuniform List<scalar> 
191380
(
6.20162e-05
3.92338e-05
4.34316e-05
1.85846e-05
3.68831e-05
6.54854e-06
3.4861e-05
2.02211e-06
3.39662e-05
8.94827e-07
3.33299e-05
6.36255e-07
3.27754e-05
5.54466e-07
3.22528e-05
5.22665e-07
3.17611e-05
4.91691e-07
3.13152e-05
4.45898e-07
3.09159e-05
3.99328e-07
3.05513e-05
3.64545e-07
3.0221e-05
3.30284e-07
2.99228e-05
2.98272e-07
2.96509e-05
2.71848e-07
2.94014e-05
2.49552e-07
2.91694e-05
2.3197e-07
2.89547e-05
2.14713e-07
2.87583e-05
1.9636e-07
2.85779e-05
1.80415e-07
2.84077e-05
1.7019e-07
2.82466e-05
1.61152e-07
2.80941e-05
1.52452e-07
2.79505e-05
1.43574e-07
2.78145e-05
1.35989e-07
2.76852e-05
1.29349e-07
2.7562e-05
1.23236e-07
2.74442e-05
1.17786e-07
2.73325e-05
1.11707e-07
2.72255e-05
1.06936e-07
2.71233e-05
1.02204e-07
2.7025e-05
9.83565e-08
2.69306e-05
9.43608e-08
2.68399e-05
9.06906e-08
2.6753e-05
8.68917e-08
2.66692e-05
8.38148e-08
2.65883e-05
8.08889e-08
2.65103e-05
7.80358e-08
2.64347e-05
7.56292e-08
2.63619e-05
7.27587e-08
2.62914e-05
7.04838e-08
2.62232e-05
6.82024e-08
2.61571e-05
6.61301e-08
2.60928e-05
6.42834e-08
2.60306e-05
6.22299e-08
2.59701e-05
6.04534e-08
2.59116e-05
5.84962e-08
2.58545e-05
5.71342e-08
2.57991e-05
5.53931e-08
2.5745e-05
5.40667e-08
2.56924e-05
5.2603e-08
2.56413e-05
5.11198e-08
2.55915e-05
4.98078e-08
2.5543e-05
4.85096e-08
2.54956e-05
4.73494e-08
2.54494e-05
4.62071e-08
2.54044e-05
4.49932e-08
2.536e-05
4.4385e-08
2.53167e-05
4.33243e-08
2.52744e-05
4.23131e-08
2.52332e-05
4.11617e-08
2.51931e-05
4.0134e-08
2.5154e-05
3.90733e-08
2.5116e-05
3.8052e-08
2.5079e-05
3.6965e-08
2.50431e-05
3.5962e-08
2.50081e-05
3.49392e-08
2.49743e-05
3.38479e-08
2.49414e-05
3.28513e-08
2.49099e-05
3.15598e-08
2.48794e-05
3.04916e-08
2.48503e-05
2.9058e-08
2.48225e-05
2.7817e-08
2.47963e-05
2.61811e-08
2.47715e-05
2.48388e-08
2.47488e-05
2.26601e-08
2.47276e-05
2.11737e-08
2.47093e-05
1.83089e-08
2.46929e-05
1.63875e-08
2.46803e-05
1.26654e-08
2.467e-05
1.03172e-08
2.46651e-05
4.85066e-09
2.46629e-05
2.21266e-09
2.46677e-05
-4.81287e-09
2.46768e-05
-9.09929e-09
2.46949e-05
-1.80919e-08
2.472e-05
-2.50992e-08
2.47606e-05
-4.0618e-08
2.48092e-05
-4.86184e-08
2.48805e-05
-7.12481e-08
2.49625e-05
-8.20189e-08
2.50869e-05
-1.24402e-07
2.52341e-05
-1.47163e-07
2.54506e-05
-2.16504e-07
2.57165e-05
-2.65884e-07
2.61516e-05
-4.35151e-07
2.65473e-05
-3.95655e-07
2.84444e-05
-1.8971e-06
2.96611e-05
-1.21672e-06
1.56328e-05
1.4028e-05
7.89678e-06
7.73543e-06
1.20578e-05
-4.16139e-06
1.37605e-05
-1.70293e-06
1.49393e-05
-1.17883e-06
1.58405e-05
-9.01143e-07
1.64955e-05
-6.5498e-07
1.71858e-05
-6.90364e-07
1.7465e-05
-2.78821e-07
1.77624e-05
-2.99715e-07
2.08387e-05
-3.08172e-06
1.96133e-05
1.23047e-06
1.77711e-05
1.84987e-06
2.08053e-05
-3.03637e-06
1.74708e-05
3.33019e-06
2.04943e-05
-3.03093e-06
1.74622e-05
3.0307e-06
1.76041e-05
-1.40066e-07
2.07433e-05
-3.13667e-06
1.81948e-05
2.55565e-06
2.21867e-05
-3.9917e-06
1.35837e-05
8.59644e-06
1.85233e-05
-4.9529e-06
1.8643e-05
-1.25456e-07
1.66096e-05
2.03666e-06
2.06227e-05
-4.01039e-06
1.76135e-05
3.01765e-06
2.28635e-05
-5.24561e-06
1.62348e-05
6.62176e-06
1.83667e-05
-2.14291e-06
1.64871e-05
1.88126e-06
1.58063e-05
6.98953e-07
2.04681e-05
-4.65072e-06
1.72188e-05
3.23363e-06
2.18309e-05
-4.62844e-06
1.658e-05
5.26063e-06
2.03514e-05
-3.75993e-06
1.83478e-05
2.00501e-06
1.59683e-05
2.37913e-06
2.03226e-05
-4.35619e-06
1.50447e-05
5.27004e-06
2.14853e-05
-6.45025e-06
1.55282e-05
5.9639e-06
1.72348e-05
-1.69438e-06
1.92739e-05
-2.036e-06
1.54926e-05
3.78023e-06
2.16303e-05
-6.14016e-06
1.60537e-05
5.57512e-06
2.02821e-05
-4.23323e-06
1.68668e-05
3.41567e-06
1.67587e-05
1.1953e-07
2.10291e-05
-4.26338e-06
1.74828e-05
3.54444e-06
2.15747e-05
-4.09658e-06
1.64432e-05
5.13108e-06
1.97798e-05
-3.33896e-06
1.74435e-05
2.33611e-06
1.75612e-05
-1.08531e-07
2.26117e-05
-5.04275e-06
1.8703e-05
3.90903e-06
2.2408e-05
-3.71084e-06
1.82093e-05
4.19691e-06
2.03508e-05
-2.14088e-06
1.80294e-05
2.32328e-06
1.83574e-05
-3.18938e-07
2.13858e-05
-3.02372e-06
1.93161e-05
2.06931e-06
2.25477e-05
-3.22912e-06
1.87465e-05
3.7916e-06
2.18394e-05
-3.1033e-06
1.77105e-05
4.13621e-06
1.93028e-05
-1.59192e-06
2.05789e-05
-1.27701e-06
1.97466e-05
8.38193e-07
2.1533e-05
-1.78659e-06
1.80796e-05
3.454e-06
2.06924e-05
-2.61526e-06
1.79593e-05
2.7267e-06
2.13274e-05
-3.37133e-06
1.88017e-05
2.52804e-06
2.05317e-05
-1.72249e-06
2.02679e-05
2.67189e-07
1.86214e-05
1.6449e-06
1.9317e-05
-6.96858e-07
1.63678e-05
2.93972e-06
2.00621e-05
-3.70155e-06
1.70499e-05
3.01351e-06
2.07056e-05
-3.65788e-06
1.74756e-05
3.23759e-06
1.94673e-05
-1.98214e-06
1.9383e-05
8.32925e-08
1.80472e-05
1.33751e-06
2.00336e-05
-1.98794e-06
1.80066e-05
2.01717e-06
2.14552e-05
-3.45047e-06
1.76899e-05
3.7663e-06
2.10656e-05
-3.37999e-06
1.76996e-05
3.37368e-06
2.05133e-05
-2.79967e-06
2.08057e-05
-2.90373e-07
1.94485e-05
1.3475e-06
1.98711e-05
-4.26625e-07
1.81268e-05
1.74398e-06
2.15175e-05
-3.39533e-06
1.89963e-05
2.53024e-06
2.2461e-05
-3.45537e-06
1.94148e-05
3.04543e-06
2.16528e-05
-2.23667e-06
1.95946e-05
2.05142e-06
1.9916e-05
-3.2855e-07
1.87989e-05
1.12164e-06
1.8146e-05
6.53489e-07
2.0805e-05
-2.65777e-06
1.95767e-05
1.2338e-06
2.088e-05
-1.30305e-06
1.81987e-05
2.6811e-06
2.09012e-05
-2.70584e-06
1.80015e-05
2.8928e-06
2.10508e-05
-3.05175e-06
1.76221e-05
3.43371e-06
1.95311e-05
-1.90014e-06
2.05537e-05
-1.01668e-06
1.95931e-05
9.60863e-07
2.09573e-05
-1.36933e-06
1.82574e-05
2.69293e-06
2.15835e-05
-3.32861e-06
1.84442e-05
3.14005e-06
2.20825e-05
-3.63508e-06
1.92509e-05
2.83579e-06
2.02983e-05
-1.04782e-06
1.93646e-05
9.32179e-07
1.85522e-05
8.0716e-07
1.88333e-05
-2.87381e-07
1.93646e-05
-5.34141e-07
2.00387e-05
-6.75151e-07
1.98663e-05
1.79873e-07
2.18484e-05
-1.97556e-06
1.9887e-05
1.96189e-06
2.18538e-05
-1.96463e-06
1.94035e-05
2.44112e-06
2.15759e-05
-2.18261e-06
1.92666e-05
2.3126e-06
2.02566e-05
-9.88198e-07
1.88318e-05
1.43193e-06
1.89015e-05
-6.16746e-08
2.05348e-05
-1.63515e-06
1.9956e-05
5.8006e-07
2.0636e-05
-6.83413e-07
1.97053e-05
9.21051e-07
2.15166e-05
-1.81327e-06
1.96364e-05
1.88013e-06
2.18887e-05
-2.24812e-06
1.94393e-05
2.45559e-06
2.06906e-05
-1.25454e-06
1.85558e-05
2.1314e-06
1.96679e-05
-1.10833e-06
2.06517e-05
-9.80926e-07
1.97371e-05
9.05935e-07
2.00186e-05
-2.86664e-07
1.85062e-05
1.51473e-06
2.0655e-05
-2.15074e-06
1.95244e-05
1.13777e-06
2.23818e-05
-2.84953e-06
2.0244e-05
2.13782e-06
2.16749e-05
-1.42903e-06
1.98361e-05
1.83168e-06
2.01734e-05
-3.44432e-07
1.9281e-05
8.95108e-07
1.97838e-05
-5.04607e-07
2.02873e-05
-4.98936e-07
1.92786e-05
1.01786e-06
2.1317e-05
-2.03845e-06
2.02999e-05
1.0172e-06
2.12034e-05
-9.06427e-07
1.90265e-05
2.16571e-06
2.13212e-05
-2.29907e-06
1.9177e-05
2.15616e-06
2.06633e-05
-1.47727e-06
1.91786e-05
1.47981e-06
2.04423e-05
-1.26806e-06
1.98151e-05
6.27366e-07
2.00825e-05
-2.67444e-07
2.08905e-05
-8.08763e-07
2.0382e-05
5.08332e-07
2.07299e-05
-3.47627e-07
2.00115e-05
7.18315e-07
2.06309e-05
-6.19454e-07
1.7063e-05
3.56784e-06
1.80171e-05
-9.54329e-07
1.88682e-05
-8.51138e-07
1.93188e-05
-4.50736e-07
1.94741e-05
-1.55356e-07
1.99083e-05
-4.34224e-07
2.03682e-05
-4.59897e-07
2.09511e-05
-5.82816e-07
2.31664e-05
-2.2147e-06
3.23642e-05
-9.19692e-06
3.45842e-05
-2.21943e-06
2.24406e-05
1.21436e-05
1.84651e-05
3.97557e-06
6.28986e-07
8.94817e-05
5.10021e-05
7.65994e-05
3.14668e-05
6.8042e-05
1.5106e-05
6.32813e-05
6.78277e-06
6.03139e-05
3.8622e-06
5.82033e-05
2.74693e-06
5.65594e-05
2.19828e-06
5.5187e-05
1.89511e-06
5.40282e-05
1.65053e-06
5.30422e-05
1.43181e-06
5.21841e-05
1.25746e-06
5.14251e-05
1.12355e-06
5.07533e-05
1.00213e-06
5.01583e-05
8.93209e-07
4.96219e-05
8.08273e-07
4.91339e-05
7.37584e-07
4.86865e-05
6.79372e-07
4.82768e-05
6.24417e-07
4.78994e-05
5.73689e-07
4.75473e-05
5.3254e-07
4.72174e-05
5.00062e-07
4.69083e-05
4.70294e-07
4.66186e-05
4.42161e-07
4.6347e-05
4.15152e-07
4.60909e-05
3.92104e-07
4.58485e-05
3.71737e-07
4.56189e-05
3.52807e-07
4.54008e-05
3.35896e-07
4.51944e-05
3.18121e-07
4.49976e-05
3.0376e-07
4.48099e-05
2.8987e-07
4.46302e-05
2.78016e-07
4.44584e-05
2.66215e-07
4.42939e-05
2.55217e-07
4.41364e-05
2.44401e-07
4.39849e-05
2.35241e-07
4.38391e-05
2.26684e-07
4.36989e-05
2.18311e-07
4.35634e-05
2.11045e-07
4.34332e-05
2.03031e-07
4.33074e-05
1.96297e-07
4.31857e-05
1.89847e-07
4.30681e-05
1.83739e-07
4.2954e-05
1.78381e-07
4.28437e-05
1.72505e-07
4.27368e-05
1.67433e-07
4.26333e-05
1.61955e-07
4.25325e-05
1.57885e-07
4.24349e-05
1.53054e-07
4.23398e-05
1.49143e-07
4.22474e-05
1.4499e-07
4.21576e-05
1.40891e-07
4.20703e-05
1.37119e-07
4.19853e-05
1.33526e-07
4.19025e-05
1.30145e-07
4.18218e-05
1.26953e-07
4.17432e-05
1.23604e-07
4.16666e-05
1.20976e-07
4.15923e-05
1.17638e-07
4.15198e-05
1.14789e-07
4.14493e-05
1.11647e-07
4.13806e-05
1.08876e-07
4.13137e-05
1.05935e-07
4.12485e-05
1.03231e-07
4.11852e-05
1.00248e-07
4.11236e-05
9.75988e-08
4.10638e-05
9.47743e-08
4.10057e-05
9.19568e-08
4.09493e-05
8.9183e-08
4.08949e-05
8.59538e-08
4.08425e-05
8.29606e-08
4.07921e-05
7.94244e-08
4.07439e-05
7.6007e-08
4.06981e-05
7.19627e-08
4.06547e-05
6.82844e-08
4.06143e-05
6.29989e-08
4.05766e-05
5.88658e-08
4.05429e-05
5.20172e-08
4.05126e-05
4.6762e-08
4.04874e-05
3.7829e-08
4.04663e-05
3.14398e-08
4.04525e-05
1.86558e-08
4.04439e-05
1.07706e-08
4.04459e-05
-6.78271e-09
4.04541e-05
-1.73479e-08
4.04746e-05
-3.85795e-08
4.05066e-05
-5.70639e-08
4.05616e-05
-9.56345e-08
4.06283e-05
-1.15321e-07
4.07308e-05
-1.73753e-07
4.08521e-05
-2.03319e-07
4.10326e-05
-3.04843e-07
4.1248e-05
-3.62638e-07
4.15635e-05
-5.31971e-07
4.19504e-05
-6.528e-07
4.25656e-05
-1.05029e-06
4.32964e-05
-1.12646e-06
4.55609e-05
-4.16165e-06
4.74081e-05
-3.0639e-06
3.31795e-05
2.82565e-05
2.1429e-05
1.94852e-05
2.2718e-05
-5.45112e-06
2.38396e-05
-2.82507e-06
2.48659e-05
-2.2055e-06
2.59655e-05
-2.00106e-06
2.67355e-05
-1.42534e-06
2.77241e-05
-1.67946e-06
2.81807e-05
-7.35369e-07
2.88451e-05
-9.68181e-07
3.2112e-05
-6.35774e-06
3.1568e-05
1.78659e-06
3.03882e-05
3.04857e-06
3.25267e-05
-5.17449e-06
3.00388e-05
5.81266e-06
3.2478e-05
-5.48697e-06
3.02387e-05
5.26024e-06
3.01741e-05
-7.55272e-08
3.20053e-05
-4.95983e-06
3.07651e-05
3.81304e-06
3.37312e-05
-6.95325e-06
2.63868e-05
1.59336e-05
2.9816e-05
-8.40683e-06
3.05725e-05
-8.9542e-07
2.97623e-05
2.85261e-06
3.19529e-05
-6.19209e-06
2.9931e-05
5.058e-06
3.44131e-05
-9.72154e-06
2.93998e-05
1.16218e-05
3.02742e-05
-3.03876e-06
2.83367e-05
3.81957e-06
2.79541e-05
1.11281e-06
3.13995e-05
-8.07945e-06
2.95554e-05
5.05082e-06
3.3322e-05
-8.42377e-06
2.95026e-05
9.09342e-06
3.20569e-05
-6.29326e-06
3.07266e-05
3.34305e-06
2.94286e-05
3.67897e-06
3.16434e-05
-6.5772e-06
2.72235e-05
9.67384e-06
3.25568e-05
-1.18009e-05
2.84525e-05
1.00783e-05
2.9319e-05
-2.53871e-06
3.00391e-05
-2.74761e-06
2.77153e-05
6.10345e-06
3.27051e-05
-1.11396e-05
2.86807e-05
9.59112e-06
3.20104e-05
-7.57269e-06
2.95021e-05
5.92577e-06
2.92437e-05
3.99998e-07
3.20966e-05
-7.10168e-06
2.9917e-05
5.72168e-06
3.32254e-05
-7.41841e-06
2.93416e-05
9.00751e-06
3.18268e-05
-5.83004e-06
2.97902e-05
4.37356e-06
3.01116e-05
-4.11885e-07
3.42969e-05
-9.21261e-06
3.18653e-05
6.34141e-06
3.47692e-05
-6.6308e-06
3.17236e-05
7.23238e-06
3.30916e-05
-3.50996e-06
3.10956e-05
4.32284e-06
3.12051e-05
-4.1022e-07
3.32515e-05
-5.05884e-06
3.23688e-05
2.95251e-06
3.51243e-05
-5.98127e-06
3.23251e-05
6.5726e-06
3.44575e-05
-5.25672e-06
3.1227e-05
7.37596e-06
3.20087e-05
-2.3734e-06
3.30681e-05
-2.33373e-06
3.32343e-05
6.8785e-07
3.40877e-05
-2.63703e-06
3.10998e-05
6.44389e-06
3.2936e-05
-4.46036e-06
3.09421e-05
4.70363e-06
3.35928e-05
-6.02975e-06
3.18872e-05
4.23714e-06
3.31529e-05
-2.97219e-06
3.31469e-05
2.8457e-07
3.20723e-05
2.72041e-06
3.11831e-05
1.91675e-07
2.8489e-05
5.61731e-06
3.15873e-05
-6.81528e-06
2.9447e-05
5.15351e-06
3.22732e-05
-6.48838e-06
2.99798e-05
5.54499e-06
3.12913e-05
-3.27404e-06
3.14547e-05
-7.91119e-08
3.09655e-05
1.82975e-06
3.1839e-05
-2.86847e-06
3.05529e-05
3.28112e-06
3.34976e-05
-6.39893e-06
3.06235e-05
6.64353e-06
3.30041e-05
-5.76657e-06
3.05828e-05
5.81016e-06
3.27166e-05
-4.90789e-06
3.36505e-05
-1.2225e-06
3.31041e-05
1.87338e-06
3.23168e-05
3.50389e-07
3.09754e-05
3.08309e-06
3.38197e-05
-6.24646e-06
3.21264e-05
4.24162e-06
3.48483e-05
-6.15773e-06
3.29433e-05
4.95166e-06
3.4553e-05
-3.84481e-06
3.3004e-05
3.58517e-06
3.27986e-05
-1.40839e-07
3.16148e-05
2.30973e-06
3.12806e-05
9.88667e-07
3.30281e-05
-4.39905e-06
3.24847e-05
1.79233e-06
3.31772e-05
-1.99143e-06
3.09435e-05
4.91511e-06
3.30816e-05
-4.85476e-06
3.09596e-05
4.99695e-06
3.32007e-05
-5.29899e-06
3.06416e-05
6.00116e-06
3.1835e-05
-3.07581e-06
3.28381e-05
-2.0057e-06
3.29657e-05
8.34588e-07
3.34384e-05
-1.85507e-06
3.12913e-05
4.8228e-06
3.40334e-05
-6.07696e-06
3.17148e-05
5.46035e-06
3.4473e-05
-6.38245e-06
3.25199e-05
4.80336e-06
3.30879e-05
-1.61322e-06
3.22422e-05
1.77586e-06
3.13068e-05
1.73128e-06
3.11879e-05
-1.84118e-07
3.17142e-05
-1.06831e-06
3.23722e-05
-1.3342e-06
3.28025e-05
-2.33841e-07
3.4383e-05
-3.53994e-06
3.3101e-05
3.24719e-06
3.46631e-05
-3.52373e-06
3.28915e-05
4.19406e-06
3.44852e-05
-3.79864e-06
3.27549e-05
4.04473e-06
3.32035e-05
-1.43462e-06
3.18046e-05
2.84638e-06
3.16031e-05
1.59519e-07
3.28043e-05
-2.83657e-06
3.28502e-05
5.35804e-07
3.33034e-05
-1.14758e-06
3.28551e-05
1.34666e-06
3.4409e-05
-3.37301e-06
3.30321e-05
3.25781e-06
3.4712e-05
-3.91499e-06
3.28445e-05
4.3412e-06
3.34978e-05
-1.91019e-06
3.19284e-05
3.69612e-06
3.2457e-05
-1.62992e-06
3.31692e-05
-1.68993e-06
3.29933e-05
1.06305e-06
3.2682e-05
1.06764e-08
3.14108e-05
2.78722e-06
3.30138e-05
-3.75611e-06
3.24409e-05
1.72626e-06
3.49725e-05
-5.3635e-06
3.37664e-05
3.34628e-06
3.47736e-05
-2.43364e-06
3.3383e-05
3.2062e-06
3.33862e-05
-3.65294e-07
3.26542e-05
1.62795e-06
3.28164e-05
-6.70146e-07
3.27535e-05
-4.236e-07
3.22581e-05
1.53529e-06
3.38615e-05
-3.63979e-06
3.35105e-05
1.36719e-06
3.41767e-05
-1.58292e-06
3.23806e-05
3.93705e-06
3.40905e-05
-4.01625e-06
3.24547e-05
3.8158e-06
3.33388e-05
-2.34194e-06
3.22513e-05
2.56262e-06
3.31682e-05
-2.19121e-06
3.28119e-05
9.83859e-07
3.30427e-05
-4.97804e-07
3.36534e-05
-1.42022e-06
3.35605e-05
6.01286e-07
3.37233e-05
-5.09302e-07
3.32895e-05
1.15231e-06
3.33658e-05
-6.95372e-07
2.99106e-05
7.02352e-06
3.00974e-05
-1.141e-06
3.07597e-05
-1.513e-06
3.12665e-05
-9.57189e-07
3.16697e-05
-5.58159e-07
3.21113e-05
-8.754e-07
3.29591e-05
-1.30739e-06
3.34742e-05
-1.09742e-06
3.66732e-05
-5.41285e-06
4.75767e-05
-2.00993e-05
5.17645e-05
-6.40675e-06
4.18235e-05
2.20844e-05
3.55036e-05
1.02955e-05
3.3361e-06
9.94288e-05
5.28234e-05
9.34365e-05
3.74591e-05
8.60997e-05
2.24429e-05
8.00867e-05
1.27958e-05
7.57095e-05
8.23943e-06
7.24369e-05
6.0195e-06
6.99182e-05
4.71697e-06
6.79141e-05
3.89917e-06
6.62808e-05
3.28386e-06
6.49103e-05
2.80234e-06
6.37256e-05
2.44214e-06
6.2691e-05
2.15814e-06
6.17843e-05
1.90884e-06
6.0986e-05
1.69153e-06
6.02685e-05
1.52579e-06
5.96186e-05
1.38746e-06
5.9027e-05
1.27096e-06
5.84879e-05
1.16349e-06
5.79938e-05
1.06784e-06
5.7535e-05
9.91324e-07
5.71075e-05
9.27575e-07
5.67087e-05
8.69079e-07
5.63363e-05
8.14574e-07
5.59877e-05
7.63763e-07
5.56595e-05
7.2032e-07
5.53496e-05
6.81655e-07
5.50567e-05
6.4563e-07
5.47792e-05
6.13387e-07
5.45168e-05
5.80549e-07
5.42669e-05
5.53625e-07
5.4029e-05
5.27815e-07
5.38017e-05
5.05327e-07
5.35846e-05
4.83321e-07
5.3377e-05
4.62756e-07
5.31784e-05
4.43014e-07
5.29877e-05
4.25925e-07
5.28044e-05
4.1005e-07
5.26282e-05
3.94525e-07
5.24583e-05
3.80869e-07
5.2295e-05
3.66369e-07
5.21374e-05
3.53875e-07
5.19852e-05
3.42095e-07
5.18381e-05
3.30784e-07
5.16957e-05
3.20864e-07
5.1558e-05
3.10128e-07
5.14246e-05
3.0084e-07
5.12956e-05
2.90956e-07
5.11702e-05
2.83335e-07
5.10486e-05
2.74633e-07
5.09304e-05
2.67364e-07
5.08156e-05
2.59798e-07
5.0704e-05
2.52421e-07
5.05956e-05
2.45532e-07
5.04901e-05
2.39051e-07
5.03874e-05
2.32833e-07
5.02873e-05
2.27055e-07
5.01899e-05
2.20998e-07
5.00951e-05
2.15819e-07
5.0003e-05
2.09697e-07
4.99132e-05
2.04557e-07
4.98259e-05
1.98952e-07
4.97408e-05
1.94014e-07
4.9658e-05
1.88718e-07
4.95773e-05
1.8394e-07
4.94989e-05
1.78613e-07
4.94226e-05
1.73946e-07
4.93485e-05
1.68888e-07
4.92764e-05
1.63987e-07
4.92066e-05
1.59005e-07
4.91391e-05
1.53497e-07
4.90739e-05
1.48124e-07
4.90112e-05
1.42147e-07
4.89511e-05
1.36082e-07
4.88938e-05
1.2925e-07
4.88394e-05
1.22742e-07
4.87884e-05
1.13933e-07
4.87407e-05
1.06582e-07
4.86975e-05
9.52867e-08
4.86582e-05
8.60361e-08
4.86247e-05
7.12996e-08
4.85961e-05
6.00925e-08
4.85755e-05
3.92275e-08
4.8561e-05
2.52999e-08
4.85586e-05
-4.45398e-09
4.85641e-05
-2.27848e-08
4.85823e-05
-5.67937e-08
4.86138e-05
-8.85867e-08
4.86708e-05
-1.52628e-07
4.87415e-05
-1.85998e-07
4.88516e-05
-2.83832e-07
4.89841e-05
-3.35832e-07
4.91797e-05
-5.0046e-07
4.94152e-05
-5.9812e-07
4.97595e-05
-8.76333e-07
5.01807e-05
-1.07398e-06
5.08477e-05
-1.71727e-06
5.16412e-05
-1.91998e-06
5.3833e-05
-6.35347e-06
5.4972e-05
-4.20277e-06
4.40726e-05
3.91556e-05
3.25301e-05
3.10267e-05
3.01538e-05
-3.07592e-06
3.02166e-05
-2.88869e-06
3.07379e-05
-2.7277e-06
3.1641e-05
-2.90504e-06
3.22941e-05
-2.07935e-06
3.32954e-05
-2.68193e-06
3.37861e-05
-1.22636e-06
3.4571e-05
-1.75897e-06
3.74963e-05
-9.29431e-06
3.77287e-05
1.57411e-06
3.70472e-05
3.76015e-06
3.81028e-05
-6.22656e-06
3.67611e-05
7.14692e-06
3.84083e-05
-7.16085e-06
3.72562e-05
6.39417e-06
3.6878e-05
3.00915e-07
3.76561e-05
-5.7237e-06
3.74272e-05
4.06971e-06
3.89978e-05
-8.51548e-06
3.39046e-05
2.10174e-05
3.59017e-05
-1.04397e-05
3.70687e-05
-2.08318e-06
3.64946e-05
3.43436e-06
3.74748e-05
-7.15593e-06
3.69518e-05
5.61021e-06
3.97812e-05
-1.25435e-05
3.64213e-05
1.49606e-05
3.65411e-05
-3.18985e-06
3.5241e-05
5.12062e-06
3.47384e-05
1.65889e-06
3.66458e-05
-9.96519e-06
3.61848e-05
5.4721e-06
3.86809e-05
-1.09605e-05
3.63428e-05
1.14505e-05
3.80363e-05
-7.9557e-06
3.76224e-05
3.77061e-06
3.64354e-05
4.86952e-06
3.70758e-05
-7.22881e-06
3.45856e-05
1.21394e-05
3.78348e-05
-1.50745e-05
3.52988e-05
1.26287e-05
3.55508e-05
-2.75883e-06
3.59028e-05
-3.08605e-06
3.47262e-05
7.27908e-06
3.77568e-05
-1.41873e-05
3.55142e-05
1.1818e-05
3.7754e-05
-9.82684e-06
3.66059e-05
7.07826e-06
3.60723e-05
9.66589e-07
3.7461e-05
-8.46867e-06
3.67147e-05
6.46393e-06
3.86341e-05
-9.36004e-06
3.62854e-05
1.13417e-05
3.78775e-05
-7.43172e-06
3.69102e-05
5.34391e-06
3.70289e-05
-5.03538e-07
3.96139e-05
-1.1775e-05
3.88397e-05
7.11644e-06
4.06081e-05
-8.42603e-06
3.87654e-05
9.05546e-06
3.94907e-05
-4.23815e-06
3.83442e-05
5.47623e-06
3.81588e-05
-1.96948e-07
3.91785e-05
-6.06073e-06
3.91902e-05
2.94343e-06
4.10089e-05
-7.79695e-06
3.95927e-05
7.96059e-06
4.0637e-05
-6.33184e-06
3.84011e-05
9.62156e-06
3.86884e-05
-2.66035e-06
3.97135e-05
-3.3506e-06
3.99963e-05
4.30749e-07
4.0227e-05
-2.86113e-06
3.83637e-05
8.30931e-06
3.90297e-05
-5.14269e-06
3.79836e-05
5.72246e-06
3.96331e-05
-7.69195e-06
3.87198e-05
5.15612e-06
3.94836e-05
-3.71054e-06
3.97173e-05
7.02823e-08
3.89185e-05
3.52336e-06
3.75418e-05
1.56728e-06
3.5587e-05
7.54765e-06
3.73175e-05
-8.56897e-06
3.62936e-05
6.17441e-06
3.79551e-05
-8.15557e-06
3.66092e-05
6.91261e-06
3.74627e-05
-4.0982e-06
3.78844e-05
-4.96893e-07
3.75227e-05
2.19511e-06
3.77249e-05
-3.08472e-06
3.73087e-05
3.66322e-06
3.91457e-05
-8.24212e-06
3.76795e-05
8.1145e-06
3.88801e-05
-6.97331e-06
3.74246e-05
7.28901e-06
3.89486e-05
-6.39573e-06
4.00223e-05
-2.29511e-06
3.96724e-05
2.19186e-06
3.88332e-05
1.17198e-06
3.81046e-05
3.80702e-06
3.98436e-05
-7.99255e-06
3.9218e-05
4.89552e-06
4.09027e-05
-7.81331e-06
3.99239e-05
5.93462e-06
4.09039e-05
-4.82351e-06
3.98964e-05
4.56757e-06
3.94838e-05
2.43796e-07
3.86029e-05
3.19369e-06
3.82006e-05
1.39294e-06
3.91875e-05
-5.37331e-06
3.91783e-05
1.82644e-06
3.93776e-05
-2.18246e-06
3.79557e-05
6.33695e-06
3.90553e-05
-5.97375e-06
3.79571e-05
6.06651e-06
3.9199e-05
-6.55098e-06
3.75369e-05
7.6758e-06
3.82837e-05
-3.79547e-06
3.93446e-05
-3.04452e-06
3.9521e-05
6.60168e-07
3.95899e-05
-1.946e-06
3.85197e-05
5.86498e-06
4.00554e-05
-7.62293e-06
3.89332e-05
6.58668e-06
4.05491e-05
-7.97876e-06
3.94502e-05
5.92688e-06
3.96082e-05
-1.76505e-06
3.89148e-05
2.46599e-06
3.8001e-05
2.62661e-06
3.7748e-05
4.38331e-08
3.81888e-05
-1.52246e-06
3.8723e-05
-1.8684e-06
3.92797e-05
-7.63817e-07
4.04485e-05
-4.68312e-06
3.99916e-05
3.71111e-06
4.0913e-05
-4.44261e-06
3.99755e-05
5.10194e-06
4.08238e-05
-4.68082e-06
3.97536e-05
5.11437e-06
3.9822e-05
-1.49986e-06
3.88227e-05
3.87086e-06
3.84393e-05
5.73896e-07
3.90514e-05
-3.44605e-06
3.93178e-05
2.70397e-07
3.9669e-05
-1.51875e-06
3.96646e-05
1.31561e-06
4.07155e-05
-4.43401e-06
4.00911e-05
3.88462e-06
4.10191e-05
-4.81964e-06
3.98957e-05
5.49477e-06
4.00205e-05
-2.0355e-06
3.88593e-05
4.85245e-06
3.90858e-05
-1.84561e-06
3.96672e-05
-2.26896e-06
3.95664e-05
1.13314e-06
3.91517e-05
4.02266e-07
3.83923e-05
3.54585e-06
3.92601e-05
-4.62566e-06
3.93331e-05
1.67857e-06
4.11561e-05
-7.15931e-06
4.06512e-05
3.85691e-06
4.12437e-05
-3.02403e-06
4.03269e-05
4.09657e-06
4.01135e-05
-1.79982e-07
3.95164e-05
2.22317e-06
3.94669e-05
-6.24658e-07
3.9389e-05
-3.24235e-07
3.91882e-05
1.77049e-06
4.01578e-05
-4.60416e-06
4.02503e-05
1.2718e-06
4.06099e-05
-1.96174e-06
3.94752e-05
5.03404e-06
4.04081e-05
-4.95892e-06
3.94647e-05
4.7953e-06
3.9807e-05
-2.65401e-06
3.90991e-05
3.26579e-06
3.96601e-05
-2.75952e-06
3.95302e-05
1.1152e-06
3.967e-05
-6.36183e-07
4.01235e-05
-1.87424e-06
4.02064e-05
5.19009e-07
4.02866e-05
-5.87405e-07
4.01336e-05
1.30598e-06
3.97103e-05
-2.71066e-07
3.69153e-05
9.81971e-06
3.66053e-05
-8.30192e-07
3.70741e-05
-1.98084e-06
3.74673e-05
-1.34929e-06
3.79758e-05
-1.06563e-06
3.83732e-05
-1.27176e-06
3.94044e-05
-2.33768e-06
3.99138e-05
-1.60577e-06
4.31811e-05
-8.67881e-06
5.34805e-05
-3.03973e-05
5.85807e-05
-1.15065e-05
5.24788e-05
2.81863e-05
4.59131e-05
1.68612e-05
7.34813e-06
0.000102569
5.15047e-05
0.00010099
3.90382e-05
9.72211e-05
2.62113e-05
9.20747e-05
1.79422e-05
8.73721e-05
1.2942e-05
8.34179e-05
9.9737e-06
8.01889e-05
7.94595e-06
7.75791e-05
6.50897e-06
7.54536e-05
5.40941e-06
7.36819e-05
4.57402e-06
7.21831e-05
3.94098e-06
7.08943e-05
3.44685e-06
6.97719e-05
3.03129e-06
6.87849e-05
2.67852e-06
6.78983e-05
2.41238e-06
6.70986e-05
2.18718e-06
6.63751e-05
1.99446e-06
6.57184e-05
1.82022e-06
6.51175e-05
1.6687e-06
6.45613e-05
1.54753e-06
6.40455e-05
1.44339e-06
6.35665e-05
1.3481e-06
6.31206e-05
1.26049e-06
6.27036e-05
1.18068e-06
6.23117e-05
1.11224e-06
6.19425e-05
1.05083e-06
6.15946e-05
9.9357e-07
6.12657e-05
9.4227e-07
6.09549e-05
8.9133e-07
6.06594e-05
8.49159e-07
6.03784e-05
8.08838e-07
6.01105e-05
7.73255e-07
5.9855e-05
7.38767e-07
5.96112e-05
7.06597e-07
5.93779e-05
6.76254e-07
5.91543e-05
6.49578e-07
5.89395e-05
6.24823e-07
5.87334e-05
6.00658e-07
5.8535e-05
5.79204e-07
5.83444e-05
5.57032e-07
5.81606e-05
5.37652e-07
5.79832e-05
5.19493e-07
5.7812e-05
5.01954e-07
5.76464e-05
4.86504e-07
5.74865e-05
4.69993e-07
5.73317e-05
4.55689e-07
5.7182e-05
4.40654e-07
5.70366e-05
4.28735e-07
5.68957e-05
4.1548e-07
5.67589e-05
4.04172e-07
5.66262e-05
3.92557e-07
5.64972e-05
3.81341e-07
5.6372e-05
3.70784e-07
5.62501e-05
3.60904e-07
5.61316e-05
3.51329e-07
5.60162e-05
3.42498e-07
5.5904e-05
3.33241e-07
5.57946e-05
3.25164e-07
5.56884e-05
3.15905e-07
5.55849e-05
3.08103e-07
5.54842e-05
2.99649e-07
5.5386e-05
2.9219e-07
5.52905e-05
2.84151e-07
5.51975e-05
2.76971e-07
5.51072e-05
2.68951e-07
5.50192e-05
2.61962e-07
5.49337e-05
2.54336e-07
5.48506e-05
2.47065e-07
5.47701e-05
2.39544e-07
5.46921e-05
2.31491e-07
5.46168e-05
2.23412e-07
5.45442e-05
2.14743e-07
5.44746e-05
2.05716e-07
5.4408e-05
1.95829e-07
5.43446e-05
1.86166e-07
5.4285e-05
1.73565e-07
5.42289e-05
1.62636e-07
5.41776e-05
1.46628e-07
5.41306e-05
1.32995e-07
5.40897e-05
1.12148e-07
5.40542e-05
9.5672e-08
5.4027e-05
6.63921e-08
5.40064e-05
4.59475e-08
5.39983e-05
3.60051e-09
5.39994e-05
-2.38682e-08
5.40138e-05
-7.11997e-08
5.40416e-05
-1.16408e-07
5.40956e-05
-2.06599e-07
5.41646e-05
-2.54971e-07
5.42738e-05
-3.93089e-07
5.44071e-05
-4.69162e-07
5.46041e-05
-6.97375e-07
5.48425e-05
-8.36558e-07
5.51918e-05
-1.2256e-06
5.56178e-05
-1.49996e-06
5.62886e-05
-2.38808e-06
5.70848e-05
-2.71625e-06
5.91345e-05
-8.40321e-06
5.96103e-05
-4.67837e-06
5.16789e-05
4.70868e-05
4.14941e-05
4.12101e-05
3.66702e-05
1.74628e-06
3.55884e-05
-1.8087e-06
3.54593e-05
-2.6004e-06
3.59863e-05
-3.43418e-06
3.64235e-05
-2.51857e-06
3.73046e-05
-3.56557e-06
3.77504e-05
-1.67362e-06
3.85626e-05
-2.57871e-06
4.11164e-05
-1.1861e-05
4.17595e-05
9.59273e-07
4.14501e-05
4.11311e-06
4.17283e-05
-6.49328e-06
4.12394e-05
7.63088e-06
4.22843e-05
-8.24093e-06
4.17332e-05
6.91572e-06
4.1421e-05
6.04307e-07
4.1739e-05
-6.02515e-06
4.20054e-05
3.84218e-06
4.22451e-05
-8.73714e-06
3.90221e-05
2.42329e-05
4.00676e-05
-1.15321e-05
4.13625e-05
-3.40816e-06
4.11491e-05
3.65413e-06
4.13306e-05
-7.31639e-06
4.16785e-05
5.30198e-06
4.30685e-05
-1.39194e-05
4.10789e-05
1.6927e-05
4.07337e-05
-2.88632e-06
3.99974e-05
5.85403e-06
3.95999e-05
2.10728e-06
4.03376e-05
-1.06761e-05
4.06926e-05
5.07239e-06
4.20078e-05
-1.23289e-05
4.08916e-05
1.25818e-05
4.19934e-05
-9.01824e-06
4.21164e-05
3.67183e-06
4.12589e-05
5.73776e-06
4.07073e-05
-6.69081e-06
3.95668e-05
1.32454e-05
4.1261e-05
-1.68047e-05
3.98529e-05
1.40495e-05
3.98556e-05
-2.72066e-06
4.01038e-05
-3.31202e-06
3.96698e-05
7.71642e-06
4.09574e-05
-1.54976e-05
4.00657e-05
1.26847e-05
4.14817e-05
-1.12662e-05
4.10981e-05
7.46419e-06
4.07049e-05
1.40192e-06
4.13091e-05
-9.0399e-06
4.13344e-05
6.44003e-06
4.20377e-05
-1.00926e-05
4.09037e-05
1.24504e-05
4.18554e-05
-8.40208e-06
4.16251e-05
5.57467e-06
4.18158e-05
-6.58436e-07
4.31993e-05
-1.31259e-05
4.34305e-05
6.88954e-06
4.42384e-05
-9.26866e-06
4.33964e-05
9.86739e-06
4.3656e-05
-4.50799e-06
4.30091e-05
6.12813e-06
4.28552e-05
-5.9778e-09
4.33998e-05
-6.57701e-06
4.38457e-05
2.50627e-06
4.47248e-05
-8.66907e-06
4.43049e-05
8.34403e-06
4.46338e-05
-6.70556e-06
4.31749e-05
1.10852e-05
4.31723e-05
-2.66101e-06
4.40442e-05
-4.21006e-06
4.44238e-05
8.98148e-08
4.42632e-05
-2.68497e-06
4.32699e-05
9.30972e-06
4.30952e-05
-4.99123e-06
4.27366e-05
6.04033e-06
4.3633e-05
-8.61071e-06
4.32781e-05
5.51322e-06
4.37275e-05
-4.12613e-06
4.39305e-05
-1.00951e-07
4.33421e-05
4.12403e-06
4.2051e-05
2.86112e-06
4.07434e-05
8.82361e-06
4.11558e-05
-9.01589e-06
4.08956e-05
6.42526e-06
4.17275e-05
-8.99818e-06
4.10702e-05
7.59722e-06
4.16035e-05
-4.58915e-06
4.20896e-05
-9.71653e-07
4.19456e-05
2.34758e-06
4.18214e-05
-2.98024e-06
4.19102e-05
3.52577e-06
4.27288e-05
-9.07486e-06
4.22573e-05
8.58702e-06
4.27107e-05
-7.43454e-06
4.20064e-05
8.02538e-06
4.30668e-05
-7.40678e-06
4.40812e-05
-3.30433e-06
4.39323e-05
2.30219e-06
4.33061e-05
1.77232e-06
4.30553e-05
4.04614e-06
4.37921e-05
-8.74141e-06
4.39163e-05
4.80788e-06
4.47494e-05
-8.60319e-06
4.45255e-05
6.17067e-06
4.5006e-05
-5.29864e-06
4.44293e-05
5.11145e-06
4.3931e-05
6.99815e-07
4.32607e-05
3.8603e-06
4.29272e-05
1.72476e-06
4.33764e-05
-5.80437e-06
4.36029e-05
1.63802e-06
4.3464e-05
-2.02632e-06
4.27903e-05
7.01518e-06
4.29634e-05
-6.1736e-06
4.26054e-05
6.38177e-06
4.31446e-05
-7.10936e-06
4.21562e-05
8.67544e-06
4.26092e-05
-4.21248e-06
4.35808e-05
-3.98312e-06
4.38824e-05
3.65786e-07
4.37548e-05
-1.84587e-06
4.33892e-05
6.19073e-06
4.39103e-05
-8.16323e-06
4.36563e-05
6.84062e-06
4.45184e-05
-8.81307e-06
4.40408e-05
6.44346e-06
4.391e-05
-1.61891e-06
4.33513e-05
3.02543e-06
4.25282e-05
3.4247e-06
4.22236e-05
3.10375e-07
4.2591e-05
-1.91334e-06
4.30046e-05
-2.28607e-06
4.36471e-05
-1.37091e-06
4.44309e-05
-5.4277e-06
4.45019e-05
3.65603e-06
4.48554e-05
-4.78918e-06
4.46162e-05
5.30246e-06
4.49505e-05
-5.06482e-06
4.43889e-05
5.66718e-06
4.4195e-05
-1.30682e-06
4.34441e-05
4.65473e-06
4.30512e-05
1.01281e-06
4.33606e-05
-3.7445e-06
4.37067e-05
-6.96094e-08
4.39117e-05
-1.7514e-06
4.41791e-05
9.96209e-07
4.48011e-05
-5.07627e-06
4.473e-05
3.95378e-06
4.50866e-05
-5.1443e-06
4.45477e-05
6.08073e-06
4.43302e-05
-1.80785e-06
4.34986e-05
5.68324e-06
4.35367e-05
-1.87094e-06
4.39641e-05
-2.69372e-06
4.39276e-05
1.12861e-06
4.35274e-05
7.6602e-07
4.31503e-05
3.91458e-06
4.34592e-05
-4.94027e-06
4.39344e-05
1.23695e-06
4.51076e-05
-8.29126e-06
4.51519e-05
3.82698e-06
4.5427e-05
-3.29237e-06
4.48987e-05
4.58998e-06
4.4555e-05
1.20616e-07
4.40751e-05
2.69258e-06
4.39492e-05
-5.08546e-07
4.38939e-05
-2.39993e-07
4.38824e-05
1.83225e-06
4.43596e-05
-5.06721e-06
4.46713e-05
9.61566e-07
4.47544e-05
-2.07139e-06
4.42611e-05
5.47327e-06
4.45306e-05
-5.24649e-06
4.41222e-05
5.24522e-06
4.41021e-05
-2.58984e-06
4.37087e-05
3.66507e-06
4.39845e-05
-3.03867e-06
4.3971e-05
1.13187e-06
4.40863e-05
-7.48846e-07
4.44254e-05
-2.21259e-06
4.45828e-05
3.63792e-07
4.457e-05
-5.70936e-07
4.45498e-05
1.32819e-06
4.38713e-05
4.09649e-07
4.17771e-05
1.19164e-05
4.11269e-05
-1.77888e-07
4.14268e-05
-2.27818e-06
4.16933e-05
-1.61327e-06
4.22285e-05
-1.59838e-06
4.25933e-05
-1.63407e-06
4.36992e-05
-3.4413e-06
4.42814e-05
-2.18581e-06
4.77513e-05
-1.21462e-05
5.68569e-05
-3.95007e-05
6.17436e-05
-1.63923e-05
5.85596e-05
3.13703e-05
5.28634e-05
2.25575e-05
1.16481e-05
0.000103461
4.92933e-05
0.000103822
3.86775e-05
0.000102648
2.73852e-05
9.99309e-05
2.06595e-05
9.61977e-05
1.66752e-05
9.24624e-05
1.3709e-05
8.90194e-05
1.1389e-05