/*--------------------------------*- C++ -*----------------------------------*\
| =========                 |                                                 |
| \\      /  F ield         | foam-extend: Open Source CFD                    |
|  \\    /   O peration     | Version:     3.2                                |
|   \\  /    A nd           | Web:         http://www.foam-extend.org         |
|    \\/     M anipulation  | For copyright notice see file Copyright         |
\*---------------------------------------------------------------------------*/
FoamFile
{
    version     2.0;
    format      ascii;
    class       areaVectorField;
    location    "160";
    object      PointNormalVector;
}
// * * * * * * * * * * * * * * * * * * * * * * * * * * * * * * * * * * * * * //

dimensions      [0 0 0 0 0 0 0];

internalField   nonuniform List<vector> 
300
(
(-0 -0 0.001)
(-0 -0 0.001)
(-0 -0 0.001)
(-0 -0 0.001)
(-0 -0 0.001)
(-0 -0 0.001)
(-0 -0 0.001)
(-0 -0 0.001)
(-0 -0 0.001)
(-0 -0 0.001)
(-0 -0 0.001)
(-0 -0 0.001)
(-0 -0 0.001)
(-0 -0 0.001)
(-0 -0 0.001)
(-0 -0 0.001)
(-0 -0 0.001)
(-0 -0 0.001)
(-0 -0 0.001)
(-0 -0 0.001)
(-0 -0 0.001)
(-0 -0 0.001)
(-0 -0 0.001)
(-0 -0 0.001)
(-0 -0 0.001)
(-0 -0 0.001)
(-0 -0 0.001)
(-0 -0 0.001)
(-0 -0 0.001)
(-0 -0 0.001)
(-0 -0 0.001)
(-0 -0 0.001)
(-0 -0 0.001)
(-0 -0 0.001)
(-0 -0 0.001)
(-0 -0 0.001)
(-0 -0 0.001)
(-0 -0 0.001)
(-0 -0 0.001)
(-0 -0 0.001)
(-0 -0 0.001)
(-0 -0 0.001)
(-0 -0 0.001)
(-0 -0 0.001)
(-0 -0 0.001)
(-0 -0 0.001)
(-0 -0 0.001)
(-0 -0 0.001)
(-0 -0 0.001)
(-0 -0 0.001)
(-0 -0 0.001)
(-0 -0 0.001)
(-0 -0 0.001)
(-0 -0 0.001)
(-0 -0 0.001)
(-0 -0 0.001)
(-0 -0 0.001)
(-0 -0 0.001)
(-0 -0 0.001)
(-0 -0 0.001)
(-0 -0 0.001)
(-0 -0 0.001)
(-0 -0 0.001)
(-0 -0 0.001)
(-0 -0 0.001)
(-0 -0 0.001)
(-0 -0 0.001)
(-0 -0 0.001)
(-0 -0 0.001)
(-0 -0 0.001)
(-0 -0 0.001)
(-0 -0 0.001)
(-0 -0 0.001)
(-0 -0 0.001)
(-0 -0 0.001)
(-0 -0 0.001)
(-0 -0 0.001)
(-0 -0 0.001)
(-0 -0 0.001)
(-0 -0 0.001)
(-0 -0 0.001)
(-0 -0 0.001)
(-0 -0 0.001)
(-0 -0 0.001)
(-0 -0 0.001)
(-0 -0 0.001)
(-0 -0 0.001)
(-0 -0 0.001)
(-0 -0 0.001)
(-0 -0 0.001)
(-0 -0 0.001)
(-0 -0 0.001)
(-0 -0 0.001)
(-0 -0 0.001)
(-0 -0 0.001)
(-0 -0 0.001)
(-0 -0 0.001)
(-0 -0 0.001)
(-0 -0 0.001)
(0.000132 -0 0.001)
(0.000175174 -0 0.001)
(0.000106343 -0 0.001)
(0.000100596 -0 0.001)
(7.80874e-05 -0 0.001)
(6.99533e-05 6.77626e-21 0.001)
(5.63283e-05 -6.77626e-21 0.001)
(4.91263e-05 -0 0.001)
(3.81029e-05 -0 0.001)
(3.84595e-05 -0 0.001)
(-8.21543e-06 8.47033e-22 0.001)
(1.70839e-05 1.69407e-21 0.001)
(5.61651e-05 -0 0.001)
(-1.04124e-05 -0 0.001)
(6.26512e-05 -0 0.001)
(-2.84973e-05 -3.38813e-21 0.001)
(3.11775e-05 -0 0.001)
(3.74548e-05 -0 0.001)
(-2.58265e-05 -0 0.001)
(5.51609e-05 6.77626e-21 0.001)
(-4.50479e-05 -0 0.001)
(0.000113462 1.35525e-20 0.001)
(-4.42543e-05 -3.38813e-21 0.001)
(-2.58395e-05 -0 0.001)
(3.8363e-05 -3.38813e-21 0.001)
(-4.19429e-05 -0 0.001)
(4.7151e-05 -3.38813e-21 0.001)
(-7.20127e-05 -0 0.001)
(7.60696e-05 -0 0.001)
(-1.66029e-05 -0 0.001)
(1.20973e-05 -8.47033e-22 0.001)
(3.98099e-05 -0 0.001)
(-5.0787e-05 -0 0.001)
(3.91546e-05 -0 0.001)
(-7.46121e-05 -0 0.001)
(5.97953e-05 -0 0.001)
(-4.17808e-05 -3.38813e-21 0.001)
(-1.28616e-05 1.69407e-21 0.001)
(4.56015e-05 -0 0.001)
(-4.63206e-05 -0 0.001)
(7.25366e-05 -0 0.001)
(-9.52176e-05 -0 0.001)
(5.26579e-05 -0 0.001)
(4.27459e-07 -0 0.001)
(-4.52749e-05 3.38813e-21 0.001)
(5.07839e-05 -0 0.001)
(-8.67947e-05 6.77626e-21 0.001)
(5.91746e-05 -0 0.001)
(-7.4563e-05 6.77626e-21 0.001)
(8.53802e-06 -0 0.001)
(2.41998e-05 -1.69407e-21 0.001)
(-5.4571e-05 -6.77626e-21 0.001)
(3.7285e-05 3.38813e-21 0.001)
(-6.96049e-05 -0 0.001)
(5.37022e-05 -6.77626e-21 0.001)
(-5.4552e-05 -0 0.001)
(-1.73971e-06 -0 0.001)
(1.55354e-05 -0 0.001)
(-6.94665e-05 -6.77626e-21 0.001)
(2.98319e-05 -0 0.001)
(-6.73901e-05 6.77626e-21 0.001)
(3.93764e-05 -0 0.001)
(-3.41076e-05 3.38813e-21 0.001)
(1.35355e-05 -0 0.001)
(1.63854e-05 -1.69407e-21 0.001)
(-3.91997e-05 3.38813e-21 0.001)
(2.0644e-05 -0 0.001)
(-5.04136e-05 -6.77626e-21 0.001)
(3.70572e-05 3.38813e-21 0.001)
(-4.70508e-05 -3.38813e-21 0.001)
(4.75918e-05 3.38813e-21 0.001)
(-4.08012e-06 -0 0.001)
(-2.15874e-05 -0 0.001)
(1.92228e-05 -0 0.001)
(-1.97074e-05 -0 0.001)
(4.77483e-05 -3.38813e-21 0.001)
(-2.93047e-05 -0 0.001)
(4.05545e-05 -0 0.001)
(-4.32378e-05 3.38813e-21 0.001)
(3.30734e-05 -0 0.001)
(-4.83392e-06 -0 0.001)
(-9.48609e-07 -0 0.001)
(3.92901e-05 -3.38813e-21 0.001)
(3.08209e-06 -0 0.001)
(5.6546e-05 -0 0.001)
(-3.42361e-05 3.38813e-21 0.001)
(5.04036e-05 -6.77626e-21 0.001)
(-4.63845e-05 3.38813e-21 0.001)
(4.59401e-05 -3.38813e-21 0.001)
(-1.01061e-05 -8.47033e-22 0.001)
(-1.19588e-05 -0 0.001)
(2.54278e-05 -3.38813e-21 0.001)
(-2.76457e-05 -0 0.001)
(2.69073e-05 -0 0.001)
(-4.9823e-05 -6.77626e-21 0.001)
(4.37158e-05 -0 0.001)
(-5.06674e-05 6.77626e-21 0.001)
(4.15062e-05 -3.38813e-21 0.001)
(-3.17361e-05 -0 0.001)
(-2.67557e-05 -3.38813e-21 0.001)
(9.60685e-06 -8.47033e-22 0.001)
(-1.63389e-05 -1.69407e-21 0.001)
(2.34421e-05 1.69407e-21 0.001)
(-4.50135e-05 -0 0.001)
(2.90739e-05 -0 0.001)
(-4.88817e-05 -0 0.001)
(3.15201e-05 -0 0.001)
(-3.35442e-05 -3.38813e-21 0.001)
(2.05674e-05 -0 0.001)
(4.62515e-06 4.23516e-22 0.001)
(1.08279e-05 8.47033e-22 0.001)
(2.64978e-05 -0 0.001)
(-1.90591e-05 -0 0.001)
(2.54952e-05 -0 0.001)
(-1.58864e-05 -0 0.001)
(4.03537e-05 -0 0.001)
(-3.41674e-05 -3.38813e-21 0.001)
(3.84884e-05 -0 0.001)
(-4.1672e-05 -0 0.001)
(4.29259e-05 -0 0.001)
(-8.96913e-06 -8.47033e-22 0.001)
(-2.43208e-05 -0 0.001)
(1.19218e-05 8.47033e-22 0.001)
(-2.73449e-05 -0 0.001)
(3.0586e-05 -3.38813e-21 0.001)
(-4.4557e-05 -0 0.001)
(3.8032e-05 -0 0.001)
(-4.63268e-05 3.38813e-21 0.001)
(3.50909e-05 -0 0.001)
(-6.31512e-06 -8.47033e-22 0.001)
(1.60167e-05 -0 0.001)
(2.11875e-05 1.69407e-21 0.001)
(3.32713e-06 -0 0.001)
(1.69462e-06 -0 0.001)
(-1.31561e-05 1.69407e-21 0.001)
(6.60445e-06 -0 0.001)
(-2.91502e-05 -0 0.001)
(1.90949e-05 -0 0.001)
(-3.14015e-05 -3.38813e-21 0.001)
(2.31186e-05 -0 0.001)
(-3.29756e-05 -0 0.001)
(2.91926e-05 -0 0.001)
(-5.84191e-06 -4.23516e-22 0.001)
(2.40811e-05 -0 0.001)
(2.07724e-05 -0 0.001)
(-1.23331e-05 -0 0.001)
(8.06181e-06 -0 0.001)
(-1.86799e-05 -0 0.001)
(6.96423e-06 8.47033e-22 0.001)
(-2.97735e-05 -3.38813e-21 0.001)
(2.11784e-05 -0 0.001)
(-2.5964e-05 -3.38813e-21 0.001)
(3.43392e-05 -0 0.001)
(-1.09254e-05 -8.47033e-22 0.001)
(2.97861e-05 -0 0.001)
(2.72974e-06 -0 0.001)
(-1.18844e-05 -0 0.001)
(9.10056e-06 -0 0.001)
(-9.10093e-06 -0 0.001)
(2.11561e-05 -0 0.001)
(-2.82032e-05 -0 0.001)
(1.34832e-05 -1.69407e-21 0.001)
(-4.24002e-05 -0 0.001)
(1.61506e-05 -0 0.001)
(-2.68917e-05 -3.38813e-21 0.001)
(1.55402e-05 -0 0.001)
(-5.77751e-06 -0 0.001)
(1.01923e-05 8.47033e-22 0.001)
(4.75127e-06 -0 0.001)
(-6.26167e-06 -0 0.001)
(1.60499e-05 1.69407e-21 0.001)
(-2.62917e-05 3.38813e-21 0.001)
(7.37476e-06 -0 0.001)
(-2.48039e-05 3.38813e-21 0.001)
(2.03936e-05 -0 0.001)
(-3.1134e-05 -0 0.001)
(2.68765e-05 -3.38813e-21 0.001)
(-1.91973e-05 1.69407e-21 0.001)
(1.77255e-05 -0 0.001)
(-1.93989e-05 -1.69407e-21 0.001)
(-2.13949e-06 -0 0.001)
(-5.37062e-06 -0 0.001)
(-2.00787e-05 -1.69407e-21 0.001)
(-3.3743e-06 -0 0.001)
(-1.64002e-05 -0 0.001)
(4.14046e-06 -0 0.001)
(-1.68426e-05 -1.69407e-21 0.001)
(3.61317e-05 -0 0.001)
(-1.07884e-05 -8.47033e-22 0.001)
(-1.77668e-05 -0 0.001)
(-3.23403e-05 -0 0.001)
(-3.40626e-05 -3.38813e-21 0.001)
(-5.61995e-05 6.77626e-21 0.001)
(-6.14029e-05 6.77626e-21 0.001)
(-9.99692e-05 -0 0.001)
(-0.000109746 -0 0.001)
(-0.000237696 2.71051e-20 0.001)
(-0.000188226 -1.35525e-20 0.001)
(-0 -0 0.001)
(-0 -0 0.001)
(-0 -0 0.001)
)
;

boundaryField
{
    inlet
    {
        type            calculated;
        value           uniform (0 0 0);
    }
    outlet
    {
        type            calculated;
        value           uniform (0 0 0);
    }
    sideWall
    {
        type            empty;
    }
}


// ************************************************************************* //
