/*--------------------------------*- C++ -*----------------------------------*\
| =========                 |                                                 |
| \\      /  F ield         | foam-extend: Open Source CFD                    |
|  \\    /   O peration     | Version:     3.2                                |
|   \\  /    A nd           | Web:         http://www.foam-extend.org         |
|    \\/     M anipulation  | For copyright notice see file Copyright         |
\*---------------------------------------------------------------------------*/
FoamFile
{
    version     2.0;
    format      ascii;
    class       areaScalarField;
    location    "160";
    object      Pvc;
}
// * * * * * * * * * * * * * * * * * * * * * * * * * * * * * * * * * * * * * //

dimensions      [0 0 0 0 0 0 0];

internalField   nonuniform List<scalar> 
300
(
0.536715
0.536715
0.536715
0.536715
0.536715
0.536715
0.536715
0.536715
0.536715
0.536715
0.536715
0.536715
0.536715
0.536715
0.536715
0.536715
0.536715
0.536715
0.536715
0.536715
0.536715
0.536715
0.536715
0.536715
0.536715
0.536715
0.536715
0.536715
0.536715
0.536715
0.536715
0.536715
0.536715
0.536715
0.536715
0.536715
0.536715
0.536715
0.536715
0.536715
0.536715
0.536715
0.536715
0.536715
0.536715
0.536715
0.536715
0.536715
0.536715
0.536715
0.536715
0.536715
0.536715
0.536715
0.536715
0.536715
0.536715
0.536715
0.536715
0.536715
0.536715
0.536715
0.536715
0.536715
0.536715
0.536715
0.536715
0.536715
0.536715
0.536715
0.536715
0.536715
0.536715
0.536715
0.536715
0.536715
0.536715
0.536715
0.536715
0.536715
0.536715
0.536715
0.536715
0.536715
0.536715
0.536715
0.536715
0.536715
0.536715
0.536715
0.536715
0.536715
0.536715
0.536715
0.536715
0.536715
0.536715
0.536715
0.536715
0.536715
0.467222
0.438343
0.39221
0.360417
0.322407
0.292347
0.261046
0.235369
0.212702
0.184152
0.172895
0.194859
0.160287
0.187674
0.198409
0.158093
0.199255
0.163899
0.198386
0.176948
0.182877
0.229305
0.152229
0.221164
0.16742
0.210598
0.177175
0.177915
0.225382
0.154022
0.242294
0.172775
0.207173
0.191142
0.186516
0.224014
0.15387
0.240031
0.167593
0.213789
0.213993
0.173928
0.258293
0.158161
0.230832
0.181957
0.19704
0.220763
0.158259
0.226043
0.151025
0.200945
0.170704
0.166539
0.20222
0.131786
0.197331
0.133342
0.163096
0.154272
0.147225
0.168217
0.129467
0.170615
0.129791
0.159425
0.135919
0.146102
0.149067
0.133786
0.165431
0.125863
0.152922
0.125369
0.156429
0.140398
0.155364
0.150672
0.144943
0.160065
0.140315
0.172873
0.138048
0.185628
0.160488
0.182715
0.180731
0.163802
0.210664
0.13488
0.198552
0.140764
0.18076
0.156287
0.158457
0.182297
0.143231
0.198342
0.126523
0.172204
0.13188
0.161828
0.137085
0.15006
0.145364
0.145065
0.157832
0.137717
0.162874
0.127554
0.167098
0.125652
0.168541
0.134456
0.160805
0.153688
0.151749
0.173195
0.138459
0.189012
0.124272
0.161497
0.127777
0.164137
0.132222
0.152543
0.15179
0.145135
0.171758
0.135542
0.175746
0.131392
0.159674
0.135626
0.155714
0.13267
0.146468
0.139873
0.143831
0.146366
0.138374
0.154831
0.129037
0.154549
0.127871
0.146616
0.126984
0.144089
0.126604
0.141804
0.133594
0.13699
0.152187
0.131876
0.157891
0.119612
0.148543
0.122578
0.143451
0.133893
0.134653
0.140327
0.129824
0.147458
0.125954
0.149458
0.118201
0.142543
0.117482
0.144207
0.118571
0.139438
0.128381
0.134478
0.141642
0.128861
0.161575
0.12154
0.172433
0.111569
0.163576
0.112898
0.142765
0.122145
0.138354
0.136027
0.182182
0.209062
0.196622
0.233446
0.238474
0.275313
0.302147
0.340114
0.392693
0.431406
0.536715
0.536715
0.536715
0.536715
)
;

boundaryField
{
    inlet
    {
        type            calculated;
        value           uniform 0;
    }
    outlet
    {
        type            calculated;
        value           uniform 0;
    }
    sideWall
    {
        type            empty;
    }
}


// ************************************************************************* //
