/*--------------------------------*- C++ -*----------------------------------*\
| =========                 |                                                 |
| \\      /  F ield         | foam-extend: Open Source CFD                    |
|  \\    /   O peration     | Version:     3.2                                |
|   \\  /    A nd           | Web:         http://www.foam-extend.org         |
|    \\/     M anipulation  | For copyright notice see file Copyright         |
\*---------------------------------------------------------------------------*/
FoamFile
{
    version     2.0;
    format      ascii;
    class       areaVectorField;
    location    "160";
    object      q_bed;
}
// * * * * * * * * * * * * * * * * * * * * * * * * * * * * * * * * * * * * * //

dimensions      [0 2 -1 0 0 0 0];

internalField   nonuniform List<vector> 
300
(
(0.00422332 0 0)
(0.00366695 0 0)
(0.00284074 0 0)
(0.00239534 0 0)
(0.00219593 0 0)
(0.00208258 0 0)
(0.00199646 0 0)
(0.00191823 0 0)
(0.00184387 0 0)
(0.00177447 0 0)
(0.00171103 0 0)
(0.00165319 0 0)
(0.0016 0 0)
(0.00155188 0 0)
(0.00150811 0 0)
(0.00146795 0 0)
(0.00143096 0 0)
(0.0013966 0 0)
(0.00136499 0 0)
(0.00133603 0 0)
(0.00130908 0 0)
(0.00128368 0 0)
(0.0012598 0 0)
(0.00123733 0 0)
(0.00121624 0 0)
(0.00119626 0 0)
(0.00117738 0 0)
(0.00115942 0 0)
(0.00114241 0 0)
(0.00112629 0 0)
(0.00111092 0 0)
(0.00109627 0 0)
(0.00108223 0 0)
(0.00106884 0 0)
(0.00105603 0 0)
(0.00104379 0 0)
(0.00103201 2.98913e-42 0)
(0.00102071 0 0)
(0.00100982 0 0)
(0.000999357 0 0)
(0.000989303 -9.86814e-42 0)
(0.000979597 -9.44828e-42 0)
(0.000970242 -1.8065e-41 0)
(0.000961198 0 0)
(0.000952449 3.32417e-41 0)
(0.000944017 -3.20138e-41 0)
(0.000935843 0 0)
(0.00092797 0 0)
(0.00092028 0 0)
(0.000912894 0 0)
(0.000905651 0 0)
(0.000898703 1.02039e-40 0)
(0.000891897 9.84345e-41 0)
(0.000885355 0 0)
(0.000878931 -1.83788e-40 0)
(0.000872751 1.781e-40 0)
(0.000866671 0 0)
(0.000860838 -3.27429e-40 0)
(0.000855003 0 0)
(0.000849467 0 0)
(0.000843931 0 0)
(0.000838712 1.136e-39 0)
(0.000833469 0 0)
(0.000828554 0 0)
(0.000823589 0 0)
(0.000818977 1.98523e-39 0)
(0.000814278 0 0)
(0.000809957 0 0)
(0.000805524 0 0)
(0.000801496 0 0)
(0.000797346 0 0)
(0.000793634 6.25029e-39 0)
(0.000789784 1.19337e-38 0)
(0.000786422 0 0)
(0.000782901 0 0)
(0.000779925 0 0)
(0.000776802 0 0)
(0.000774274 1.58419e-38 0)
(0.000771646 0 0)
(0.00076968 2.258e-38 0)
(0.000767679 0 0)
(0.000766409 2.43284e-38 0)
(0.000765291 0 0)
(0.000764862 -1.90486e-38 0)
(0.000764904 -3.64687e-38 0)
(0.000765688 0 0)
(0.000767147 2.68117e-37 0)
(0.000769802 -5.09782e-37 0)
(0.00077373 0 0)
(0.000778829 3.83837e-36 0)
(0.000786375 4.15991e-36 0)
(0.000794975 0 0)
(0.000809493 1.49493e-35 0)
(0.000824198 -4.50247e-35 0)
(0.000852055 0 0)
(0.000876577 0 0)
(0.000943017 1.71455e-32 0)
(0.00095326 2.48923e-31 0)
(0.00137534 -8.37777e-29 0)
(0.00116845 -1.54335e-25 -0.000154235)
(0.000122046 1.42992e-26 -2.13793e-05)
(0.00010358 -3.42405e-27 -1.10151e-05)
(0.000135471 0 -1.36278e-05)
(0.000132189 1.31017e-27 -1.03223e-05)
(0.000154956 1.53377e-24 -1.08397e-05)
(0.000167735 -1.16991e-24 -9.44823e-06)
(0.000176277 0 -8.65985e-06)
(0.000209975 7.11687e-28 -8.00064e-06)
(0.000188382 -9.11539e-28 -7.24506e-06)
(0.000239806 9.52291e-25 1.97011e-06)
(0.000432322 -2.92924e-24 -7.38575e-06)
(6.68179e-06 0 -3.75284e-07)
(5.10674e-05 0 5.31734e-07)
(3.77159e-05 1.64783e-27 -2.36295e-06)
(0 0 0)
(0.000401837 2.91826e-27 -1.25283e-05)
(0.000130082 0 -4.87221e-06)
(0.000414083 0 1.06943e-05)
(0 0 0)
(5.57787e-05 1.23296e-28 2.51271e-06)
(3.48563e-05 -8.8017e-24 -3.95487e-06)
(0 0 0)
(0.000458689 5.93988e-28 1.18523e-05)
(0.000120038 4.58139e-24 -4.605e-06)
(0.00034985 4.95547e-27 1.46737e-05)
(0 0 0)
(1.38754e-05 0 9.99202e-07)
(7.0279e-05 0 -5.3461e-06)
(0.000118426 -9.4579e-29 1.96622e-06)
(0.000333918 1.51997e-24 -4.03952e-06)
(7.63209e-05 -2.07107e-27 -3.03833e-06)
(2.94033e-06 0 1.49331e-07)
(0 0 0)
(0.00028687 0 2.1404e-05)
(0.000341703 -9.48083e-28 -2.04322e-05)
(0.000132792 -4.60863e-24 5.54815e-06)
(0.000104108 -3.47642e-25 1.339e-06)
(0 0 0)
(2.82715e-05 0 1.30955e-06)
(0.000162945 0 -1.18194e-05)
(0.000190206 0 1.8111e-05)
(0.00038767 3.66145e-27 -2.04139e-05)
(6.42206e-05 2.60257e-29 -2.74517e-08)
(4.5833e-05 6.48633e-25 2.07509e-06)
(0 0 0)
(0 0 0)
(0.000271844 0 -1.60863e-05)
(0.000141374 6.18749e-24 1.05413e-05)
(0.000403001 0 -3.44083e-06)
(8.5984e-05 -5.31105e-26 -2.08079e-06)
(4.23242e-05 -2.52709e-24 2.30967e-06)
(0 0 0)
(1.53911e-05 0 1.07129e-06)
(0.000298026 2.78407e-23 -1.60046e-05)
(0.000147743 0 8.05965e-06)
(0.000387772 0 6.74611e-07)
(0.00010753 0 -1.67052e-06)
(8.52693e-05 -5.23033e-24 5.92336e-06)
(4.72711e-05 0 -1.41019e-06)
(5.51369e-05 3.35725e-24 3.71568e-06)
(0.0003881 0 -1.5282e-05)
(0.000224092 1.07208e-25 7.64325e-06)
(0.000398863 0 -5.39882e-06)
(0.000153841 3.2753e-27 -2.52074e-06)
(9.95849e-05 2.31172e-24 3.9037e-06)
(3.79781e-05 0 -7.84018e-07)
(0.000106686 -6.86672e-24 5.37841e-06)
(9.20419e-05 -2.32491e-24 -3.41082e-06)
(0.000323396 -4.40967e-24 1.52161e-05)
(0.000411835 -1.81442e-23 -1.96e-05)
(0.000180134 0 7.34966e-07)
(0.000422608 2.5321e-27 9.12302e-06)
(3.9385e-05 0 -7.57091e-07)
(0.000135303 4.39705e-28 2.66648e-06)
(4.76857e-05 9.55669e-25 -2.27691e-06)
(5.30338e-05 0 1.55414e-06)
(0.000285828 1.81642e-27 -1.15916e-05)
(0.000282973 4.04862e-24 1.22351e-05)
(0.00039808 0 -1.31658e-05)
(0.000233126 0 1.12691e-06)
(0.000133679 1.16799e-29 1.26809e-07)
(2.06893e-05 2.19195e-26 -8.12883e-07)
(7.98151e-05 0 -2.45997e-07)
(0 0 0)
(0.000272354 5.15346e-24 9.32432e-06)
(0.000237169 1.84314e-23 -1.19542e-05)
(0.000233737 3.75156e-24 1.08418e-05)
(0.000330906 9.05881e-24 -1.52019e-05)
(0 0 0)
(6.63199e-05 0 7.93108e-07)
(0 0 0)
(4.54569e-05 -5.0441e-28 1.25669e-06)
(0.000202457 0 -5.44756e-06)
(0.000356536 -7.64767e-24 1.77637e-05)
(0.000279934 0 -1.22376e-05)
(0.000263716 1.00574e-23 1.33618e-05)
(0.000330919 8.43205e-24 -1.37352e-05)
(0 0 0)
(0.000105462 -9.27284e-25 2.8217e-06)
(2.6665e-05 -6.36462e-26 -2.56166e-07)
(0.000395289 -5.87528e-25 6.45857e-06)
(0.000206911 -3.20841e-24 -4.85043e-06)
(0.00037677 -5.18205e-27 1.69597e-05)
(0.000299389 0 -8.70441e-06)
(6.12655e-05 0 2.99476e-06)
(9.98256e-05 0 -3.14652e-06)
(4.11793e-05 -1.35335e-24 1.38133e-06)
(0.000121639 -1.07222e-27 -2.50179e-06)
(0.000272276 -1.14108e-25 -1.25932e-06)
(0.000381586 -2.11908e-24 -4.13179e-06)
(0.000199353 0 -5.28242e-06)
(0.000362083 0 6.90097e-06)
(3.80278e-05 0 -9.69526e-07)
(7.9253e-05 2.70944e-28 1.25905e-06)
(2.30122e-05 -4.54509e-28 -9.28627e-07)
(3.94927e-05 -8.56039e-25 1.34936e-06)
(0.000284713 0 -1.09582e-05)
(0.000277584 3.89453e-27 1.15675e-05)
(0.000359024 0 -1.54114e-05)
(0.000169744 -4.99999e-25 1.52246e-06)
(8.11621e-05 0 1.97393e-06)
(1.40572e-05 3.98002e-26 -1.67587e-07)
(0.000101349 0 2.77139e-06)
(0.000240159 5.9996e-24 -7.34549e-06)
(0.000371431 -3.35467e-27 1.65498e-05)
(0.000313977 0 -1.19412e-05)
(0.000308692 6.3996e-24 1.43007e-05)
(0.000107532 -5.53985e-28 -3.77337e-06)
(1.89137e-05 -9.94077e-26 1.19442e-07)
(7.11657e-05 -5.59546e-28 -1.13984e-06)
(1.75996e-05 -3.18602e-26 -3.72892e-07)
(0.000277137 -1.60338e-28 -9.2207e-07)
(0.000248939 0 -4.21857e-07)
(0.00035506 -1.04136e-24 4.67121e-06)
(0.000257222 -9.84246e-28 -1.69881e-06)
(8.71267e-05 0 2.53976e-06)
(4.99978e-05 0 -9.54703e-07)
(7.37869e-05 -1.93952e-24 2.31702e-06)
(6.87721e-05 5.25712e-28 -1.58992e-06)
(0.00035042 -5.24635e-28 1.15553e-05)
(0.000396865 0 -1.15855e-05)
(0.000288549 3.88034e-25 1.68568e-06)
(0.000362873 0 -8.73839e-06)
(4.3372e-06 0 -9.00942e-08)
(4.535e-05 0 5.59304e-07)
(2.96772e-05 0 -2.39252e-07)
(6.345e-05 0 1.18524e-06)
(0.000290259 -6.82599e-25 -2.02143e-06)
(0.00041521 -4.37247e-25 1.23623e-05)
(0.000340673 0 -7.21492e-06)
(0.000380781 -3.1075e-24 9.88661e-06)
(8.45062e-05 -9.32064e-29 -2.90188e-06)
(3.30173e-05 -1.44807e-25 3.60728e-07)
(6.36281e-05 0 -1.89523e-06)
(0 0 0)
(6.81024e-05 -1.63003e-28 8.09354e-07)
(2.90739e-05 0 -2.64589e-07)
(0.000379457 0 3.45341e-06)
(0.000245472 0 -5.19322e-06)
(0.00033762 5.28486e-27 9.52195e-06)
(0.000287154 1.57782e-24 -3.87177e-06)
(5.77623e-05 0 2.44914e-06)
(8.6885e-05 0 -1.40324e-06)
(5.27897e-05 -1.39264e-24 1.41961e-06)
(9.49955e-05 8.56516e-28 -1.47625e-06)
(0.000306507 -1.26749e-28 1.77085e-06)
(0.000361408 -1.95159e-24 -3.68358e-06)
(0.000267304 0 -1.27003e-06)
(0.000386861 -1.14158e-27 2.4224e-06)
(2.0928e-05 -3.44095e-26 -3.35892e-07)
(5.95558e-05 1.74075e-24 1.56582e-06)
(5.24595e-05 0 -3.86876e-07)
(8.81732e-05 1.04471e-24 2.18704e-06)
(0.000309301 1.22609e-27 -6.30777e-06)
(0.000359244 3.16454e-27 1.11847e-05)
(0.000346507 1.04204e-23 -9.3129e-06)
(4.00292e-05 3.53594e-25 7.68453e-07)
(6.23611e-05 0 -1.10538e-06)
(2.32792e-05 -1.75087e-25 4.51592e-07)
(7.35661e-05 3.36513e-29 1.57394e-07)
(3.33886e-05 0 1.79317e-07)
(7.98759e-05 -3.50121e-25 1.60381e-06)
(6.09779e-05 1.96914e-29 2.05758e-07)
(9.0531e-05 -9.58762e-29 1.48473e-06)
(5.62478e-05 1.69394e-29 -2.32892e-07)
(9.61001e-05 -2.12109e-25 1.61857e-06)
(5.11882e-05 4.30916e-28 -1.84952e-06)
(0 0 0)
(1.74037e-05 7.5884e-30 3.09207e-07)
(2.40691e-05 2.5132e-29 7.78402e-07)
(3.23299e-05 -3.60711e-26 1.10124e-06)
(4.82168e-05 4.36419e-25 2.70976e-06)
(5.3665e-05 2.31008e-25 3.29518e-06)
(0.000107361 0 1.07328e-05)
(0.000100606 0 1.10411e-05)
(0.000393596 1.17306e-22 9.3556e-05)
(0.00168368 1.26469e-23 0.000316913)
(0.00147723 2.24797e-28 0)
(0.000438964 -8.3234e-31 0)
(0.000318961 0 0)
)
;

boundaryField
{
    inlet
    {
        type            zeroGradient;
    }
    outlet
    {
        type            zeroGradient;
    }
    sideWall
    {
        type            empty;
    }
}


// ************************************************************************* //
