/*--------------------------------*- C++ -*----------------------------------*\
| =========                 |                                                 |
| \\      /  F ield         | foam-extend: Open Source CFD                    |
|  \\    /   O peration     | Version:     3.2                                |
|   \\  /    A nd           | Web:         http://www.foam-extend.org         |
|    \\/     M anipulation  | For copyright notice see file Copyright         |
\*---------------------------------------------------------------------------*/
FoamFile
{
    version     2.0;
    format      ascii;
    class       areaScalarField;
    location    "160";
    object      SSd1;
}
// * * * * * * * * * * * * * * * * * * * * * * * * * * * * * * * * * * * * * //

dimensions      [0 1 -2 -1 0 0 0];

internalField   nonuniform List<scalar> 
300
(
0.000307789
0.000307789
0.000307789
0.000307789
0.000307789
0.000307789
0.000307789
0.000307789
0.000307789
0.000307789
0.000307789
0.000307789
0.000307789
0.000307789
0.000307789
0.000307789
0.000307789
0.000307789
0.000307789
0.000307789
0.000307789
0.000307789
0.000307789
0.000307789
0.000307789
0.000307789
0.000307789
0.000307789
0.000307789
0.000307789
0.000307789
0.000307789
0.000307789
0.000307789
0.000307789
0.000307789
0.000307789
0.000307789
0.000307789
0.000307789
0.000307789
0.000307789
0.000307789
0.000307789
0.000307789
0.000307789
0.000307789
0.000307789
0.000307789
0.000307789
0.000307789
0.000307789
0.000307789
0.000307789
0.000307789
0.000307789
0.000307789
0.000307789
0.000307789
0.000307789
0.000307789
0.000307789
0.000307789
0.000307789
0.000307789
0.000307789
0.000307789
0.000307789
0.000307789
0.000307789
0.000307789
0.000307789
0.000307789
0.000307789
0.000307789
0.000307789
0.000307789
0.000307789
0.000307789
0.000307789
0.000307789
0.000307789
0.000307789
0.000307789
0.000307789
0.000307789
0.000307789
0.000307789
0.000307789
0.000307789
0.000307789
0.000307789
0.000307789
0.000307789
0.000307789
0.000307789
0.000307789
0.000307789
0.000307789
0.00030779
0.000307386
0.000306438
0.000306674
0.000305839
0.000305576
0.000306134
0.000304175
0.000307367
0.000299728
0.000310174
0.000359073
0.000313082
0.000324124
0.000310218
0.000309107
0.000313227
0.000290823
0.000301937
0.000284811
0.000299
0.000291694
0.00027768
0.000307241
0.000299142
0.000291184
0.000290712
0.000286854
0.000294747
0.000289451
0.000326598
0.000283241
0.000290409
0.000296151
0.000287109
0.000288668
0.00027839
0.00032749
0.000305416
0.000302745
0.000286816
0.000282451
0.000289766
0.00028773
0.000293345
0.000284461
0.000282092
0.000287368
0.000277334
0.000312655
0.000298646
0.000288941
0.00029681
0.000286127
0.000286389
0.000277097
0.00030521
0.00028143
0.000282293
0.000283129
0.000285321
0.000293499
0.000284991
0.000296512
0.000284575
0.000288145
0.000295619
0.00029282
0.00029784
0.000286477
0.000289822
0.000287694
0.000291952
0.000296644
0.000303183
0.000294765
0.000293792
0.000289628
0.000284015
0.000290875
0.000297357
0.000346587
0.00030674
0.00034105
0.000297567
0.00029222
0.000290326
0.000281527
0.000287247
0.000301475
0.000308027
0.000304758
0.000300102
0.000293968
0.000289777
0.000283124
0.00028167
0.000293031
0.000284805
0.000280181
0.00031824
0.000307969
0.000294697
0.00028386
0.000286279
0.000284716
0.000294559
0.000295616
0.00031367
0.000322239
0.000317938
0.000292272
0.000291585
0.00030207
0.000307194
0.000298331
0.000298667
0.000290801
0.000290817
0.00028458
0.000292086
0.000293695
0.00029425
0.000304051
0.000293477
0.000286347
0.000285005
0.000280891
0.000295199
0.000311863
0.000316593
0.000311925
0.000308639
0.000322284
0.000302807
0.000306055
0.000303289
0.000304794
0.000305334
0.000310528
0.000297608
0.000302876
0.00030505
0.000297486
0.000293739
0.000297316
0.000318244
0.000307371
0.000312428
0.000299863
0.00029627
0.000292617
0.000296972
0.000307209
0.00031511
0.000310187
0.000314479
0.000319569
0.000310975
0.000296154
0.00028535
0.000288956
0.000289514
0.000301716
0.000304614
0.000313183
0.00031917
0.000309369
0.000301741
0.000302879
0.000301212
0.000290805
0.000320488
0.000307628
0.000299276
0.000296386
0.000288232
0.000282184
0.000309953
0.000307796
0.000311488
0.000326225
0.000300965
0.000326423
0.000309821
0.000322442
0.000316813
0.000311032
0.000317856
0.000318122
0.000317821
0.000319267
0.000316201
0.000316845
0.000314035
0.000312857
0.000310332
0.000308785
0.000308473
0.000308177
0.000307936
)
;

boundaryField
{
    inlet
    {
        type            calculated;
        value           uniform 0;
    }
    outlet
    {
        type            calculated;
        value           uniform 0;
    }
    sideWall
    {
        type            empty;
    }
}


// ************************************************************************* //
