/*--------------------------------*- C++ -*----------------------------------*\
| =========                 |                                                 |
| \\      /  F ield         | foam-extend: Open Source CFD                    |
|  \\    /   O peration     | Version:     3.2                                |
|   \\  /    A nd           | Web:         http://www.foam-extend.org         |
|    \\/     M anipulation  | For copyright notice see file Copyright         |
\*---------------------------------------------------------------------------*/
FoamFile
{
    version     2.0;
    format      ascii;
    class       areaScalarField;
    location    "160";
    object      SSe1;
}
// * * * * * * * * * * * * * * * * * * * * * * * * * * * * * * * * * * * * * //

dimensions      [0 1 -2 -1 0 0 0];

internalField   nonuniform List<scalar> 
300
(
0.0445057
0.0316045
0.0182306
0.0135491
0.0119079
0.0110759
0.010486
0.00997873
0.00951924
0.00910855
0.00874714
0.00842817
0.00814306
0.00789143
0.00766728
0.00746536
0.00728231
0.00711464
0.00696229
0.00682428
0.006697
0.00657811
0.00646715
0.00636351
0.00626685
0.00617578
0.00609016
0.00600907
0.00593265
0.00586047
0.00579189
0.00572675
0.00566454
0.00560535
0.00554884
0.00549501
0.00544326
0.00539378
0.00534616
0.00530047
0.00525665
0.0052144
0.00517375
0.00513449
0.00509655
0.00506003
0.00502466
0.00499062
0.00495741
0.00492554
0.0048943
0.00486436
0.00483505
0.00480689
0.00477926
0.00475269
0.00472656
0.00470151
0.00467646
0.00465269
0.00462894
0.00460656
0.00458408
0.00456301
0.00454173
0.00452197
0.00450184
0.00448334
0.00446435
0.00444711
0.00442934
0.00441345
0.00439698
0.00438259
0.00436752
0.00435479
0.00434143
0.00433061
0.00431937
0.00431096
0.0043024
0.00429697
0.00429218
0.00429035
0.00429053
0.00429388
0.00430012
0.00431148
0.00432829
0.0043501
0.0043824
0.0044192
0.00448136
0.00454436
0.00466382
0.00476917
0.00505574
0.0050985
0.00700989
0.00240724
0.000374754
0.000402531
0.000429077
0.00043791
0.000450097
0.000468585
0.00045512
0.000499134
0.000422181
0.000580654
0.00072433
9.0986e-05
0.000158017
0.000100522
0.000111131
0.000542784
0.000325638
0.000560267
8.81222e-05
0.000112962
6.8215e-05
5.12582e-05
0.000557544
0.000344534
0.000419284
9.26288e-05
7.41008e-05
9.72477e-05
0.000424123
0.000580358
0.00029859
8.15991e-05
9.37844e-05
0.000305402
0.000454946
0.000322416
0.000168718
7.00248e-05
9.41756e-05
0.000304006
0.000228446
0.000485929
0.000477839
9.65592e-05
7.09113e-05
6.04812e-05
0.000416676
0.000238071
0.000709317
0.000344911
8.38997e-05
0.000105211
7.37949e-05
0.000388263
0.000268477
0.000631327
0.00037209
7.64706e-05
0.000125917
8.20983e-05
0.000458273
0.000352255
0.000538073
0.000382751
0.000105645
0.00013232
0.000101182
0.000126633
0.000335626
0.000404433
0.000474395
0.000461851
0.000130468
0.000144817
0.00010211
0.000109452
0.000391651
0.00032575
0.000485322
0.000525926
0.000214797
0.000104836
0.0001713
7.79142e-05
0.000377434
0.000377959
0.000336703
0.000433286
0.000128608
0.000136455
0.000108794
0.000106113
0.000421027
0.000363006
0.000383412
0.000348157
0.000393173
9.49777e-05
0.000119146
0.000154859
0.000500753
0.000395906
0.000347382
0.000433566
9.3626e-05
0.000134426
0.000110669
0.000154524
0.000597097
0.000532047
0.000386201
0.000432168
0.000130168
0.000135649
9.73283e-05
0.000105202
0.000388546
0.000376729
0.000396047
0.000481901
0.000111769
0.000130102
0.000118168
0.000407412
0.00033395
0.00041714
0.00033413
0.000131499
0.000154731
0.000134973
0.000127309
0.000496745
0.000580519
0.00050336
0.000536256
0.000114434
0.000128846
0.000112848
0.000130095
0.000408565
0.000480153
0.000569435
0.000444012
0.000102718
0.000118585
0.000136088
0.000115496
0.000532811
0.000410815
0.000484135
0.000430634
0.000115142
0.000136921
0.000107338
0.000130389
0.000121694
0.000135177
0.000508267
0.000398432
0.000387454
0.00045233
9.4063e-05
0.000136026
0.000116323
0.000136885
0.000571545
0.000480035
0.000515576
0.000517084
0.000114062
9.65082e-05
0.000146013
0.00011795
0.000435597
0.000410775
0.000417952
0.000133921
0.000114871
0.000131159
0.000137695
0.000161688
0.000108334
0.00016552
0.000128557
0.000156987
0.000145501
0.000134587
0.000146185
0.000148418
0.000153026
0.00016076
0.000160869
0.00017451
0.00018063
0.000198054
0.000230025
0.00131411
0.00751317
0.00287955
0.0023352
)
;

boundaryField
{
    inlet
    {
        type            calculated;
        value           uniform 0;
    }
    outlet
    {
        type            calculated;
        value           uniform 0;
    }
    sideWall
    {
        type            empty;
    }
}


// ************************************************************************* //
