/*--------------------------------*- C++ -*----------------------------------*\
| =========                 |                                                 |
| \\      /  F ield         | foam-extend: Open Source CFD                    |
|  \\    /   O peration     | Version:     3.2                                |
|   \\  /    A nd           | Web:         http://www.foam-extend.org         |
|    \\/     M anipulation  | For copyright notice see file Copyright         |
\*---------------------------------------------------------------------------*/
FoamFile
{
    version     2.0;
    format      ascii;
    class       areaScalarField;
    location    "160";
    object      tau;
}
// * * * * * * * * * * * * * * * * * * * * * * * * * * * * * * * * * * * * * //

dimensions      [1 1 2 0 0 0 0];

internalField   nonuniform List<scalar> 
300
(
53.2817
42.4321
29.4366
24.1719
22.1872
21.1464
20.3927
19.7331
19.1259
18.5749
18.0832
17.6435
17.2458
16.8909
16.5716
16.2812
16.0158
15.7707
15.5463
15.3416
15.1516
14.973
14.8054
14.6479
14.5004
14.3606
14.2286
14.1029
13.984
13.8713
13.7637
13.6611
13.5628
13.4689
13.3789
13.293
13.2101
13.1306
13.0538
12.9799
12.9089
12.8402
12.7739
12.7098
12.6476
12.5877
12.5295
12.4733
12.4184
12.3656
12.3137
12.2639
12.215
12.1679
12.1217
12.0771
12.0332
11.991
11.9488
11.9086
11.8684
11.8305
11.7923
11.7565
11.7203
11.6866
11.6522
11.6205
11.588
11.5584
11.5279
11.5006
11.4722
11.4474
11.4214
11.3994
11.3763
11.3576
11.3381
11.3235
11.3087
11.2992
11.2909
11.2877
11.2881
11.2939
11.3047
11.3244
11.3536
11.3913
11.4471
11.5105
11.6171
11.7247
11.9274
12.1047
12.5806
12.6535
15.6198
13.5169
4.54515
4.56465
5.04341
5.09304
5.43034
5.65058
5.78718
6.23574
5.97931
6.76978
8.54001
5.87997
7.6599
6.78371
6.56562
8.20888
5.23314
8.56913
6.1107
8.49685
6.57604
4.53014
8.97178
5.08664
8.04133
6.02775
7.95342
7.6695
5.2915
7.65286
4.40224
7.66007
6.01938
7.55838
7.51658
5.59568
9.14403
4.63065
8.11863
5.52309
6.55981
7.97945
4.34718
8.42247
4.85222
7.44507
6.82521
5.84679
8.31563
4.62556
8.15517
6.09353
7.56974
7.11761
5.852
8.22213
4.99806
8.75632
7.07676
8.0273
8.04729
6.7039
8.25577
5.63877
8.49628
6.79192
8.6094
7.59131
7.81201
8.22301
6.05817
8.62702
6.76543
8.76369
6.73948
7.56273
7.05217
7.38327
8.16121
6.67923
8.70636
6.33927
7.97071
5.58901
7.23512
6.49052
6.86337
7.47296
5.78139
8.08862
5.80592
7.85146
6.19918
8.14487
6.97232
7.20898
7.49238
6.03125
8.73126
6.87009
8.36115
6.26346
8.31256
7.23448
8.0119
7.93748
7.43647
8.35122
7.06646
8.11095
6.1605
8.05939
6.98536
8.18458
6.55912
7.64733
7.04947
7.31977
7.75549
5.9484
8.36089
6.59236
8.67321
6.61042
8.26335
7.34179
7.65657
8.12755
6.84541
7.76366
6.64266
7.12345
6.82883
7.96581
6.89333
8.50727
7.35895
8.25281
7.64644
8.01486
8.17029
7.27586
7.87376
6.33249
7.67486
7.13133
8.06218
7.24457
8.60081
7.67634
8.26357
7.8668
7.33449
7.61309
6.37439
8.13623
7.13173
8.18206
6.70613
7.86414
7.17762
8.13951
8.07484
7.82787
8.17686
7.46335
7.92582
7.0094
8.23169
6.77289
7.98515
7.50075
8.41388
7.37687
8.08678
7.70572
7.4297
7.53931
7.0431
7.88304
7.09553
8.09132
7.55289
8.1557
7.33376
8.20296
6.96079
5.95
6.66715
6.86115
6.93575
7.27348
7.17841
8.05655
7.54946
10.9851
19.7105
16.3531
8.67976
7.56099
)
;

boundaryField
{
    inlet
    {
        type            calculated;
        value           uniform 0;
    }
    outlet
    {
        type            calculated;
        value           uniform 0;
    }
    sideWall
    {
        type            empty;
    }
}


// ************************************************************************* //
