/*--------------------------------*- C++ -*----------------------------------*\
| =========                 |                                                 |
| \\      /  F ield         | foam-extend: Open Source CFD                    |
|  \\    /   O peration     | Version:     3.2                                |
|   \\  /    A nd           | Web:         http://www.foam-extend.org         |
|    \\/     M anipulation  | For copyright notice see file Copyright         |
\*---------------------------------------------------------------------------*/
FoamFile
{
    version     2.0;
    format      ascii;
    class       areaScalarField;
    location    "160";
    object      tauCSS2;
}
// * * * * * * * * * * * * * * * * * * * * * * * * * * * * * * * * * * * * * //

dimensions      [1 1 2 0 0 0 0];

internalField   nonuniform List<scalar> 
300
(
0.126764
0.126764
0.126764
0.126764
0.126764
0.126764
0.126764
0.126764
0.126764
0.126764
0.126764
0.126764
0.126764
0.126764
0.126764
0.126764
0.126764
0.126764
0.126764
0.126764
0.126764
0.126764
0.126764
0.126764
0.126764
0.126764
0.126764
0.126764
0.126764
0.126764
0.126764
0.126764
0.126764
0.126764
0.126764
0.126764
0.126764
0.126764
0.126764
0.126764
0.126764
0.126764
0.126764
0.126764
0.126764
0.126764
0.126764
0.126764
0.126764
0.126764
0.126764
0.126764
0.126764
0.126764
0.126764
0.126764
0.126764
0.126764
0.126764
0.126764
0.126764
0.126764
0.126764
0.126764
0.126764
0.126764
0.126764
0.126764
0.126764
0.126764
0.126764
0.126764
0.126764
0.126764
0.126764
0.126764
0.126764
0.126764
0.126764
0.126764
0.126764
0.126764
0.126764
0.126764
0.126764
0.126764
0.126764
0.126764
0.126764
0.126764
0.126764
0.126764
0.126764
0.126764
0.126764
0.126764
0.126764
0.126764
0.126764
0.100152
0.0912122
0.10543
0.106607
0.111196
0.112845
0.115595
0.117042
0.119246
0.119175
0.128361
0.123414
0.268451
0.303422
0.273819
0.320192
0.120625
0.119375
0.131756
0.290154
0.340233
0.266565
0.353817
0.131759
0.119194
0.134825
0.302266
0.358862
0.285515
0.129984
0.124395
0.118906
0.358996
0.312046
0.140923
0.114897
0.134794
0.330425
0.303885
0.350018
0.112322
0.144679
0.116333
0.12668
0.346381
0.298929
0.362791
0.115022
0.140914
0.125094
0.122008
0.336735
0.291519
0.338392
0.116123
0.137198
0.127103
0.123719
0.326449
0.278352
0.317471
0.118992
0.133338
0.124112
0.123551
0.301806
0.274045
0.301618
0.262908
0.135789
0.117349
0.127558
0.130943
0.271249
0.28794
0.26116
0.296614
0.118757
0.13507
0.120248
0.127705
0.286341
0.271856
0.292204
0.272796
0.133362
0.116786
0.135664
0.11768
0.311423
0.310155
0.293794
0.318521
0.121472
0.136311
0.118125
0.13647
0.118567
0.316806
0.30875
0.290645
0.129933
0.122158
0.135405
0.121042
0.311013
0.273855
0.302442
0.277403
0.12586
0.124645
0.121553
0.130457
0.283587
0.303374
0.279741
0.314626
0.119169
0.134774
0.118283
0.128508
0.310489
0.29271
0.309102
0.120742
0.135319
0.11926
0.135653
0.277235
0.298842
0.289542
0.290574
0.126114
0.126433
0.129318
0.125473
0.312677
0.289608
0.311465
0.285849
0.133122
0.121019
0.127901
0.122032
0.293633
0.309942
0.300011
0.311426
0.125402
0.132511
0.122606
0.131783
0.283056
0.306292
0.289025
0.304844
0.31082
0.300713
0.128533
0.12261
0.132211
0.124123
0.320691
0.291365
0.310015
0.289598
0.127888
0.124769
0.125836
0.127982
0.292831
0.311308
0.294127
0.307049
0.122761
0.132771
0.121478
0.303388
0.28652
0.30317
0.293354
0.294084
0.298133
0.288517
0.292304
0.282172
0.290061
0.268613
0.291765
0.292029
0.293295
0.287378
0.287074
0.276887
0.273383
0.253501
0.246006
0.18333
0.126764
0.126764
0.126764
)
;

boundaryField
{
    inlet
    {
        type            calculated;
        value           uniform 0;
    }
    outlet
    {
        type            calculated;
        value           uniform 0;
    }
    sideWall
    {
        type            empty;
    }
}


// ************************************************************************* //
