/*--------------------------------*- C++ -*----------------------------------*\
| =========                 |                                                 |
| \\      /  F ield         | foam-extend: Open Source CFD                    |
|  \\    /   O peration     | Version:     3.2                                |
|   \\  /    A nd           | Web:         http://www.foam-extend.org         |
|    \\/     M anipulation  | For copyright notice see file Copyright         |
\*---------------------------------------------------------------------------*/
FoamFile
{
    version     2.0;
    format      ascii;
    class       areaScalarField;
    location    "160";
    object      tauCSS1;
}
// * * * * * * * * * * * * * * * * * * * * * * * * * * * * * * * * * * * * * //

dimensions      [1 1 2 0 0 0 0];

internalField   nonuniform List<scalar> 
300
(
0.108551
0.108551
0.108551
0.108551
0.108551
0.108551
0.108551
0.108551
0.108551
0.108551
0.108551
0.108551
0.108551
0.108551
0.108551
0.108551
0.108551
0.108551
0.108551
0.108551
0.108551
0.108551
0.108551
0.108551
0.108551
0.108551
0.108551
0.108551
0.108551
0.108551
0.108551
0.108551
0.108551
0.108551
0.108551
0.108551
0.108551
0.108551
0.108551
0.108551
0.108551
0.108551
0.108551
0.108551
0.108551
0.108551
0.108551
0.108551
0.108551
0.108551
0.108551
0.108551
0.108551
0.108551
0.108551
0.108551
0.108551
0.108551
0.108551
0.108551
0.108551
0.108551
0.108551
0.108551
0.108551
0.108551
0.108551
0.108551
0.108551
0.108551
0.108551
0.108551
0.108551
0.108551
0.108551
0.108551
0.108551
0.108551
0.108551
0.108551
0.108551
0.108551
0.108551
0.108551
0.108551
0.108551
0.108551
0.108551
0.108551
0.108551
0.108551
0.108551
0.108551
0.108551
0.108551
0.108551
0.108551
0.108551
0.108551
0.0857626
0.0781071
0.0902821
0.0912902
0.09522
0.0966321
0.0989868
0.100226
0.102113
0.102052
0.109919
0.105682
0.229881
0.259827
0.234478
0.274188
0.103294
0.102224
0.112826
0.248465
0.291349
0.228266
0.302982
0.112828
0.102069
0.115454
0.258837
0.307301
0.244493
0.111308
0.106522
0.101822
0.307416
0.267212
0.120675
0.0983889
0.115427
0.28295
0.260224
0.299728
0.0961842
0.123892
0.0996186
0.108479
0.296614
0.25598
0.310666
0.098496
0.120668
0.107121
0.104479
0.288354
0.249634
0.289773
0.099439
0.117486
0.108841
0.105943
0.279546
0.23836
0.271858
0.101896
0.11418
0.10628
0.1058
0.258443
0.234671
0.258282
0.225134
0.116279
0.100489
0.109231
0.11213
0.232277
0.24657
0.223638
0.253998
0.101694
0.115663
0.102971
0.109357
0.2452
0.232796
0.250221
0.233602
0.114201
0.100006
0.116172
0.100772
0.266679
0.265593
0.251583
0.272757
0.104019
0.116726
0.101153
0.116862
0.101532
0.271289
0.26439
0.248886
0.111264
0.104607
0.11595
0.103651
0.266327
0.234508
0.258988
0.237547
0.107777
0.106736
0.104089
0.111713
0.242842
0.259786
0.239548
0.269422
0.102047
0.11541
0.101289
0.110044
0.265879
0.250654
0.264691
0.103394
0.115877
0.102125
0.116163
0.237403
0.255905
0.247941
0.248825
0.107994
0.108267
0.110738
0.107445
0.267753
0.247998
0.266714
0.244779
0.113996
0.103631
0.109524
0.104499
0.251445
0.265411
0.256906
0.266681
0.107385
0.113472
0.10499
0.112849
0.242388
0.262285
0.247498
0.261045
0.266162
0.257508
0.110066
0.104994
0.113215
0.106289
0.274615
0.249502
0.265473
0.24799
0.109514
0.106843
0.107756
0.109594
0.250758
0.26658
0.251868
0.262933
0.105123
0.113695
0.104025
0.259798
0.245354
0.259611
0.251205
0.25183
0.255299
0.247064
0.250306
0.24163
0.248386
0.23002
0.249845
0.250071
0.251155
0.246089
0.245828
0.237105
0.234104
0.217078
0.21066
0.156989
0.108551
0.108551
0.108551
)
;

boundaryField
{
    inlet
    {
        type            calculated;
        value           uniform 0;
    }
    outlet
    {
        type            calculated;
        value           uniform 0;
    }
    sideWall
    {
        type            empty;
    }
}


// ************************************************************************* //
