/*--------------------------------*- C++ -*----------------------------------*\
| =========                 |                                                 |
| \\      /  F ield         | foam-extend: Open Source CFD                    |
|  \\    /   O peration     | Version:     3.2                                |
|   \\  /    A nd           | Web:         http://www.foam-extend.org         |
|    \\/     M anipulation  | For copyright notice see file Copyright         |
\*---------------------------------------------------------------------------*/
FoamFile
{
    version     2.0;
    format      ascii;
    class       volScalarField;
    location    "160";
    object      testS;
}
// * * * * * * * * * * * * * * * * * * * * * * * * * * * * * * * * * * * * * //

dimensions      [0 0 0 0 0 0 0];

internalField   uniform 0;

boundaryField
{
    inlet
    {
        type            calculated;
        value           uniform 0;
    }
    outlet
    {
        type            calculated;
        value           uniform 0;
    }
    sideWall
    {
        type            empty;
    }
    bed
    {
        type            calculated;
        value           nonuniform List<scalar> 
300
(
5.38826
3.82633
2.20716
1.64038
1.44168
1.34094
1.26953
1.20811
1.15248
1.10276
1.05901
1.02039
0.985872
0.955407
0.928269
0.903823
0.881661
0.861361
0.842917
0.826208
0.810798
0.796404
0.782971
0.770423
0.758721
0.747695
0.73733
0.727512
0.718259
0.709521
0.701217
0.693332
0.685799
0.678633
0.671792
0.665275
0.65901
0.65302
0.647254
0.641722
0.636417
0.631302
0.62638
0.621627
0.617034
0.612612
0.60833
0.60421
0.600189
0.59633
0.592548
0.588923
0.585374
0.581966
0.57862
0.575403
0.57224
0.569207
0.566173
0.563297
0.560421
0.557711
0.554989
0.552439
0.549863
0.54747
0.545033
0.542793
0.540494
0.538406
0.536256
0.534332
0.532337
0.530596
0.528771
0.527229
0.525612
0.524302
0.522941
0.521923
0.520887
0.520229
0.51965
0.519428
0.51945
0.519856
0.520611
0.521987
0.524021
0.526663
0.530572
0.535028
0.542554
0.55018
0.564644
0.577398
0.612093
0.61727
0.848679
0.291442
0.0521195
0.0596707
0.0710875
0.0789506
0.0907148
0.104152
0.113288
0.137799
0.128974
0.204888
0.272226
0.0303412
0.0640593
0.0348045
0.0363957
0.223095
0.106195
0.222124
0.0288636
0.0414825
0.0242381
0.0145253
0.237989
0.101227
0.162734
0.0285803
0.0271768
0.0355176
0.122278
0.244845
0.0800772
0.030689
0.0294154
0.103823
0.158497
0.0935231
0.0712497
0.0189566
0.036514
0.0924004
0.0693685
0.181543
0.120211
0.0396708
0.0199616
0.0215987
0.137411
0.0700742
0.291238
0.09915
0.0360983
0.0340221
0.0280904
0.151491
0.08627
0.311288
0.122527
0.0372653
0.0501668
0.0345798
0.202264
0.136071
0.270059
0.145773
0.0528907
0.053932
0.048373
0.0563209
0.146302
0.196432
0.186337
0.238441
0.0554382
0.0750597
0.0424158
0.0506569
0.163805
0.140484
0.217576
0.213504
0.0994721
0.0394056
0.0806317
0.027274
0.152818
0.134414
0.121058
0.171883
0.0396692
0.0657382
0.0356046
0.0489839
0.15135
0.150927
0.157228
0.1241
0.17837
0.031116
0.0611912
0.0584344
0.24673
0.15897
0.164662
0.187744
0.041852
0.0602139
0.0455625
0.07291
0.238215
0.27104
0.150183
0.223491
0.0501852
0.0655557
0.0393294
0.0444797
0.166377
0.141342
0.185867
0.16567
0.0584419
0.0523476
0.060093
0.161289
0.164117
0.177691
0.143037
0.0588744
0.0585377
0.0647069
0.0470706
0.245665
0.236244
0.241163
0.22378
0.0560481
0.0571617
0.0524244
0.0587743
0.181384
0.225477
0.23898
0.223592
0.0431876
0.0602605
0.0603136
0.0591011
0.24028
0.210852
0.221847
0.209458
0.0546159
0.0584614
0.052889
0.0536611
0.0661106
0.0591328
0.269435
0.18048
0.188035
0.218282
0.0435568
0.0680839
0.0512595
0.0706187
0.24849
0.263894
0.235029
0.285999
0.0513963
0.0528884
0.0680437
0.0597001
0.21048
0.188447
0.210757
0.0538581
0.0614141
0.0494259
0.0801959
0.0642297
0.0623523
0.0753367
0.068391
0.0737304
0.0695052
0.0480036
0.0454365
0.0490492
0.0425947
0.0438041
0.0379685
0.03753
0.0345098
0.0327723
0.034647
0.159097
0.909612
0.348624
0.282721
)
;
    }
    topWall
    {
        type            calculated;
        value           uniform 0;
    }
}


// ************************************************************************* //
