/*--------------------------------*- C++ -*----------------------------------*\
| =========                 |                                                 |
| \\      /  F ield         | foam-extend: Open Source CFD                    |
|  \\    /   O peration     | Version:     3.2                                |
|   \\  /    A nd           | Web:         http://www.foam-extend.org         |
|    \\/     M anipulation  | For copyright notice see file Copyright         |
\*---------------------------------------------------------------------------*/
FoamFile
{
    version     2.0;
    format      ascii;
    class       areaScalarField;
    location    "160";
    object      thetaSS2init;
}
// * * * * * * * * * * * * * * * * * * * * * * * * * * * * * * * * * * * * * //

dimensions      [0 0 0 0 0 0 0];

internalField   nonuniform List<scalar> 
300
(
13.5108
10.7597
7.46437
6.12937
5.62611
5.36218
5.17106
5.0038
4.84983
4.71012
4.58541
4.47393
4.37307
4.28309
4.20211
4.12851
4.06118
3.99903
3.94213
3.89023
3.84205
3.79677
3.75425
3.71434
3.6769
3.64146
3.60798
3.57613
3.54598
3.51738
3.4901
3.46409
3.43915
3.41534
3.39254
3.37073
3.34972
3.32954
3.31009
3.29134
3.27335
3.25591
3.23912
3.22282
3.20709
3.19183
3.1771
3.16281
3.14892
3.13546
3.12234
3.10962
3.09727
3.08524
3.07354
3.06211
3.051
3.04012
3.02946
3.01906
3.00889
2.99899
2.98932
2.97987
2.97065
2.96165
2.95285
2.94424
2.93582
2.92758
2.91953
2.91165
2.90394
2.8964
2.88901
2.8818
2.87474
2.86784
2.86111
2.85452
2.84812
2.84185
2.83577
2.82987
2.82417
2.81865
2.81342
2.80836
2.80369
2.79929
2.79536
2.79199
2.78921
2.78763
2.78697
2.78816
2.79608
2.79792
2.87024
2.80039
2.53816
2.54917
2.6525
2.66276
2.66786
2.66586
2.66419
2.6603
2.65553
2.65243
2.64942
2.6441
2.63888
2.63429
2.62962
2.62513
2.62061
2.61618
2.61177
2.60739
2.60307
2.59878
2.59452
2.5903
2.58612
2.58195
2.57783
2.57375
2.5697
2.56568
2.56169
2.55775
2.55383
2.54994
2.54606
2.54222
2.5384
2.53462
2.53087
2.52714
2.52344
2.51978
2.51616
2.51259
2.50907
2.5056
2.50218
2.49881
2.49547
2.49216
2.48886
2.48557
2.48229
2.47903
2.47579
2.47257
2.46938
2.4662
2.46305
2.45992
2.4568
2.45372
2.45066
2.44761
2.44459
2.4416
2.43863
2.43568
2.43276
2.42986
2.42698
2.42412
2.42128
2.41846
2.41565
2.41286
2.4101
2.40735
2.40461
2.4019
2.3992
2.39652
2.39386
2.39122
2.38859
2.38598
2.38339
2.38082
2.37825
2.37571
2.37318
2.37067
2.36816
2.36568
2.36321
2.36076
2.35833
2.35591
2.3535
2.35111
2.34872
2.34634
2.34399
2.34164
2.33931
2.33699
2.33469
2.33239
2.33011
2.32784
2.32558
2.32333
2.3211
2.31887
2.31667
2.31447
2.31229
2.31012
2.30795
2.3058
2.30366
2.30152
2.2994
2.2973
2.29519
2.29311
2.29102
2.28895
2.28689
2.28484
2.2828
2.28077
2.27874
2.27673
2.27473
2.27274
2.27075
2.26878
2.26681
2.26486
2.26291
2.26098
2.25905
2.25713
2.25521
2.25331
2.25141
2.24953
2.24765
2.24579
2.24394
2.24211
2.24028
2.23847
2.23666
2.23487
2.23309
2.23131
2.22954
2.22778
2.22603
2.22428
2.22255
2.22081
2.2191
2.21737
2.21568
2.21397
2.21228
2.21056
2.2089
2.20718
2.20551
2.20375
2.20206
2.20025
2.19851
2.19663
2.19482
2.19285
2.19092
2.1888
2.18666
2.18437
2.18205
2.17929
2.17497
2.17235
2.16846
2.16471
2.15898
2.15314
2.14398
2.13645
2.1045
2.14251
2.24868
2.24856
2.20992
2.20753
)
;

boundaryField
{
    inlet
    {
        type            calculated;
        value           uniform 0;
    }
    outlet
    {
        type            calculated;
        value           uniform 0;
    }
    sideWall
    {
        type            empty;
    }
}


// ************************************************************************* //
