/*--------------------------------*- C++ -*----------------------------------*\
| =========                 |                                                 |
| \\      /  F ield         | foam-extend: Open Source CFD                    |
|  \\    /   O peration     | Version:     3.2                                |
|   \\  /    A nd           | Web:         http://www.foam-extend.org         |
|    \\/     M anipulation  | For copyright notice see file Copyright         |
\*---------------------------------------------------------------------------*/
FoamFile
{
    version     2.0;
    format      ascii;
    class       areaScalarField;
    location    "160";
    object      thetaSS1init;
}
// * * * * * * * * * * * * * * * * * * * * * * * * * * * * * * * * * * * * * //

dimensions      [0 0 0 0 0 0 0];

internalField   nonuniform List<scalar> 
300
(
27.0486
21.5408
14.9436
12.271
11.2634
10.7351
10.3524
10.0176
9.70933
9.42962
9.17996
8.95678
8.75486
8.57472
8.41259
8.26524
8.13045
8.00603
7.89212
7.7882
7.69175
7.6011
7.51599
7.43607
7.36112
7.29017
7.22314
7.15939
7.09901
7.04177
6.98716
6.93508
6.88516
6.83749
6.79183
6.74818
6.70611
6.66571
6.62677
6.58924
6.55321
6.5183
6.48469
6.45205
6.42056
6.39003
6.36053
6.33192
6.30411
6.27716
6.2509
6.22544
6.2007
6.17662
6.1532
6.13033
6.10809
6.08629
6.06496
6.04413
6.02378
6.00396
5.9846
5.96568
5.94722
5.92921
5.91159
5.89435
5.87749
5.861
5.84487
5.8291
5.81367
5.79857
5.78378
5.76935
5.75521
5.74139
5.72791
5.71472
5.70191
5.68935
5.6772
5.66537
5.65397
5.64292
5.63245
5.62232
5.61296
5.60416
5.59628
5.58953
5.58397
5.58082
5.57949
5.58188
5.59773
5.60142
5.7462
5.60637
5.08138
5.10342
5.31028
5.33083
5.34103
5.33703
5.33368
5.32591
5.31634
5.31013
5.30411
5.29346
5.28302
5.27382
5.26448
5.25549
5.24645
5.23757
5.22874
5.21998
5.21133
5.20274
5.19421
5.18576
5.17739
5.16905
5.1608
5.15262
5.14451
5.13647
5.12847
5.1206
5.11274
5.10496
5.09718
5.0895
5.08186
5.07428
5.06677
5.05931
5.05192
5.04457
5.03734
5.03018
5.02315
5.0162
5.00935
5.0026
4.99591
4.98928
4.98268
4.97609
4.96953
4.96301
4.95652
4.95007
4.94368
4.93732
4.93102
4.92475
4.9185
4.91233
4.90619
4.9001
4.89405
4.88806
4.88212
4.87621
4.87036
4.86455
4.85879
4.85307
4.84738
4.84173
4.83611
4.83053
4.82499
4.81949
4.81402
4.80858
4.80318
4.79782
4.79249
4.78721
4.78194
4.77671
4.77153
4.76638
4.76124
4.75615
4.75108
4.74606
4.74104
4.73607
4.73113
4.72623
4.72136
4.71651
4.71169
4.7069
4.70213
4.69736
4.69264
4.68794
4.68327
4.67864
4.67402
4.66943
4.66485
4.66032
4.65578
4.65128
4.64682
4.64236
4.63796
4.63355
4.62918
4.62483
4.6205
4.6162
4.6119
4.60763
4.60338
4.59917
4.59496
4.59078
4.5866
4.58246
4.57833
4.57422
4.57014
4.56608
4.56202
4.55799
4.55398
4.55
4.54603
4.54209
4.53815
4.53424
4.53033
4.52647
4.5226
4.51875
4.51492
4.51111
4.5073
4.50354
4.49979
4.49606
4.49235
4.48868
4.48501
4.48139
4.47777
4.4742
4.47062
4.46707
4.46352
4.45999
4.45649
4.45298
4.44953
4.44604
4.44262
4.43917
4.43578
4.43235
4.42897
4.42553
4.4222
4.41876
4.41541
4.41189
4.4085
4.40487
4.4014
4.39764
4.39401
4.39006
4.3862
4.38196
4.37769
4.3731
4.36845
4.36292
4.35428
4.34903
4.34123
4.33373
4.32226
4.31057
4.29223
4.27715
4.21319
4.28928
4.50185
4.5016
4.42425
4.41946
)
;

boundaryField
{
    inlet
    {
        type            calculated;
        value           uniform 0;
    }
    outlet
    {
        type            calculated;
        value           uniform 0;
    }
    sideWall
    {
        type            empty;
    }
}


// ************************************************************************* //
