/*--------------------------------*- C++ -*----------------------------------*\
| =========                 |                                                 |
| \\      /  F ield         | foam-extend: Open Source CFD                    |
|  \\    /   O peration     | Version:     3.2                                |
|   \\  /    A nd           | Web:         http://www.foam-extend.org         |
|    \\/     M anipulation  | For copyright notice see file Copyright         |
\*---------------------------------------------------------------------------*/
FoamFile
{
    version     2.0;
    format      ascii;
    class       areaScalarField;
    location    "160";
    object      thetaC2SS2;
}
// * * * * * * * * * * * * * * * * * * * * * * * * * * * * * * * * * * * * * //

dimensions      [0 0 0 0 0 0 0];

internalField   nonuniform List<scalar> 
300
(
0.032144
0.032144
0.032144
0.032144
0.032144
0.032144
0.032144
0.032144
0.032144
0.032144
0.032144
0.032144
0.032144
0.032144
0.032144
0.032144
0.032144
0.032144
0.032144
0.032144
0.032144
0.032144
0.032144
0.032144
0.032144
0.032144
0.032144
0.032144
0.032144
0.032144
0.032144
0.032144
0.032144
0.032144
0.032144
0.032144
0.032144
0.032144
0.032144
0.032144
0.032144
0.032144
0.032144
0.032144
0.032144
0.032144
0.032144
0.032144
0.032144
0.032144
0.032144
0.032144
0.032144
0.032144
0.032144
0.032144
0.032144
0.032144
0.032144
0.032144
0.032144
0.032144
0.032144
0.032144
0.032144
0.032144
0.032144
0.032144
0.032144
0.032144
0.032144
0.032144
0.032144
0.032144
0.032144
0.032144
0.032144
0.032144
0.032144
0.032144
0.032144
0.032144
0.032144
0.032144
0.032144
0.032144
0.032144
0.032144
0.032144
0.032144
0.032144
0.032144
0.032144
0.032144
0.032144
0.032144
0.032144
0.032144
0.032144
0.032144
0.032144
0.032144
0.032144
0.032144
0.032144
0.032144
0.032144
0.032144
0.032144
0.032144
0.032144
0.0746281
0.0757311
0.0769904
0.0778138
0.032144
0.032144
0.032144
0.0805205
0.0807643
0.0824137
0.0840821
0.032144
0.032144
0.032144
0.0827335
0.0821341
0.0822319
0.032144
0.032144
0.032144
0.0845437
0.0842632
0.032144
0.032144
0.032144
0.0821682
0.0829575
0.0829401
0.032144
0.032144
0.032144
0.032144
0.0821979
0.0823307
0.0814626
0.032144
0.032144
0.032144
0.032144
0.0788911
0.0784743
0.0776952
0.032144
0.032144
0.032144
0.032144
0.0749666
0.0740111
0.0731057
0.032144
0.032144
0.032144
0.032144
0.0722327
0.0717854
0.0710677
0.0707457
0.032144
0.032144
0.032144
0.032144
0.070891
0.0708793
0.0715553
0.072
0.032144
0.032144
0.032144
0.032144
0.0725028
0.0734272
0.0744487
0.0758862
0.032144
0.032144
0.032144
0.032144
0.0777639
0.0772319
0.0775566
0.0775032
0.032144
0.032144
0.032144
0.032144
0.032144
0.0766328
0.0752226
0.0748092
0.032144
0.032144
0.032144
0.032144
0.0734363
0.0730178
0.072969
0.0726561
0.032144
0.032144
0.032144
0.032144
0.0748704
0.075102
0.0756919
0.075841
0.032144
0.032144
0.032144
0.032144
0.0759147
0.0756158
0.075244
0.032144
0.032144
0.032144
0.032144
0.0743572
0.0750509
0.0752848
0.0761817
0.032144
0.032144
0.032144
0.032144
0.075916
0.0756736
0.0753769
0.0751772
0.032144
0.032144
0.032144
0.032144
0.0769323
0.0771358
0.0770328
0.0767768
0.032144
0.032144
0.032144
0.032144
0.0758238
0.0763883
0.076843
0.0776269
0.0774062
0.0773391
0.032144
0.032144
0.032144
0.032144
0.0764078
0.075775
0.075516
0.0752424
0.032144
0.032144
0.032144
0.032144
0.076144
0.0758971
0.075441
0.0750208
0.032144
0.032144
0.032144
0.0747381
0.0747026
0.0746622
0.074143
0.0739619
0.0733484
0.072783
0.0723063
0.0720107
0.0717045
0.0721695
0.0727805
0.0720921
0.0708841
0.0692833
0.0671072
0.0642721
0.0603817
0.0553259
0.0469498
0.0366817
0.032144
0.032144
0.032144
)
;

boundaryField
{
    inlet
    {
        type            calculated;
        value           uniform 0;
    }
    outlet
    {
        type            calculated;
        value           uniform 0;
    }
    sideWall
    {
        type            empty;
    }
}


// ************************************************************************* //
