/*--------------------------------*- C++ -*----------------------------------*\
| =========                 |                                                 |
| \\      /  F ield         | foam-extend: Open Source CFD                    |
|  \\    /   O peration     | Version:     3.2                                |
|   \\  /    A nd           | Web:         http://www.foam-extend.org         |
|    \\/     M anipulation  | For copyright notice see file Copyright         |
\*---------------------------------------------------------------------------*/
FoamFile
{
    version     2.0;
    format      ascii;
    class       areaScalarField;
    location    "160";
    object      thetaSS2;
}
// * * * * * * * * * * * * * * * * * * * * * * * * * * * * * * * * * * * * * //

dimensions      [0 0 0 0 0 0 0];

internalField   nonuniform List<scalar> 
300
(
13.5109
10.7597
7.46436
6.12937
5.6261
5.36217
5.17105
5.00379
4.84984
4.71012
4.58542
4.47393
4.37308
4.28309
4.20212
4.1285
4.06119
3.99903
3.94214
3.89023
3.84205
3.79677
3.75426
3.71434
3.67691
3.64147
3.60799
3.57614
3.54599
3.51739
3.49011
3.4641
3.43917
3.41536
3.39255
3.37075
3.34973
3.32957
3.3101
3.29137
3.27336
3.25595
3.23914
3.22287
3.20712
3.19191
3.17715
3.16291
3.14898
3.13559
3.12243
3.1098
3.0974
3.08547
3.07374
3.06244
3.05131
3.04061
3.0299
3.01972
3.00953
2.99991
2.99023
2.98115
2.97196
2.96341
2.95469
2.94666
2.93842
2.93092
2.92318
2.91625
2.90906
2.90277
2.89617
2.89059
2.88473
2.87999
2.87505
2.87135
2.86758
2.86519
2.86309
2.86228
2.86236
2.86384
2.86658
2.87158
2.87897
2.88854
2.90268
2.91876
2.94581
2.97309
3.02449
3.06945
3.19012
3.2086
3.96079
3.42754
1.15253
1.15748
1.27888
1.29146
1.37699
1.43284
1.46748
1.58122
1.5162
1.71664
2.16553
1.49101
1.94235
1.72017
1.66487
2.08156
1.32699
2.17291
1.54951
2.15458
1.66751
1.14873
2.27501
1.28984
2.03907
1.52848
2.01678
1.94479
1.34179
1.94057
1.11629
1.9424
1.52636
1.91661
1.90601
1.41892
2.31869
1.17421
2.05867
1.40051
1.6634
2.02338
1.10233
2.13572
1.2304
1.88788
1.7307
1.4826
2.10863
1.17292
2.06794
1.54516
1.91949
1.80484
1.48392
2.08492
1.26738
2.22038
1.79448
2.03552
2.04058
1.69994
2.09345
1.42985
2.15444
1.72226
2.18312
1.92496
1.98092
2.08514
1.5362
2.18759
1.71554
2.22225
1.70896
1.91771
1.78825
1.87221
2.06947
1.69368
2.20771
1.60747
2.02116
1.41723
1.83464
1.64583
1.74037
1.89495
1.46601
2.05106
1.47223
1.99093
1.57195
2.06533
1.768
1.82801
1.89987
1.52937
2.21402
1.74208
2.12017
1.58825
2.10785
1.83448
2.03161
2.01274
1.8857
2.11765
1.79187
2.05673
1.56214
2.04365
1.77131
2.0754
1.66322
1.93917
1.78756
1.85611
1.96659
1.50836
2.12011
1.67165
2.1993
1.67623
2.09537
1.86169
1.94151
2.06094
1.73582
1.96866
1.68441
1.80632
1.73162
2.01992
1.74797
2.15722
1.86604
2.0927
1.93894
2.03236
2.07178
1.84497
1.99658
1.60576
1.94615
1.80832
2.04436
1.83704
2.18094
1.94652
2.09543
1.99482
1.85984
1.93048
1.61638
2.06314
1.80842
2.07476
1.7005
1.99414
1.82006
2.06397
2.04757
1.98494
2.07344
1.89251
2.00978
1.7774
2.08734
1.71743
2.02483
1.902
2.13354
1.87058
2.0506
1.95397
1.88398
1.91177
1.78595
1.99893
1.79924
2.05175
1.91522
2.06807
1.85965
2.08006
1.76508
1.50877
1.69062
1.73981
1.75873
1.84437
1.82026
2.04293
1.91435
2.78555
4.99806
4.14672
2.20096
1.91727
)
;

boundaryField
{
    inlet
    {
        type            calculated;
        value           uniform 0;
    }
    outlet
    {
        type            calculated;
        value           uniform 0;
    }
    sideWall
    {
        type            empty;
    }
}


// ************************************************************************* //
