/*--------------------------------*- C++ -*----------------------------------*\
| =========                 |                                                 |
| \\      /  F ield         | foam-extend: Open Source CFD                    |
|  \\    /   O peration     | Version:     3.2                                |
|   \\  /    A nd           | Web:         http://www.foam-extend.org         |
|    \\/     M anipulation  | For copyright notice see file Copyright         |
\*---------------------------------------------------------------------------*/
FoamFile
{
    version     2.0;
    format      ascii;
    class       areaScalarField;
    location    "160";
    object      thetaCB;
}
// * * * * * * * * * * * * * * * * * * * * * * * * * * * * * * * * * * * * * //

dimensions      [0 0 0 0 0 0 0];

internalField   nonuniform List<scalar> 
300
(
0.0497301
0.0497301
0.0497301
0.0497301
0.0497301
0.0497301
0.0497301
0.0497301
0.0497301
0.0497301
0.0497301
0.0497301
0.0497301
0.0497301
0.0497301
0.0497301
0.0497301
0.0497301
0.0497301
0.0497301
0.0497301
0.0497301
0.0497301
0.0497301
0.0497301
0.0497301
0.0497301
0.0497301
0.0497301
0.0497301
0.0497301
0.0497301
0.0497301
0.0497301
0.0497301
0.0497301
0.0497301
0.0497301
0.0497301
0.0497301
0.0497301
0.0497301
0.0497301
0.0497301
0.0497301
0.0497301
0.0497301
0.0497301
0.0497301
0.0497301
0.0497301
0.0497301
0.0497301
0.0497301
0.0497301
0.0497301
0.0497301
0.0497301
0.0497301
0.0497301
0.0497301
0.0497301
0.0497301
0.0497301
0.0497301
0.0497301
0.0497301
0.0497301
0.0497301
0.0497301
0.0497301
0.0497301
0.0497301
0.0497301
0.0497301
0.0497301
0.0497301
0.0497301
0.0497301
0.0497301
0.0497301
0.0497301
0.0497301
0.0497301
0.0497301
0.0497301
0.0497301
0.0497301
0.0497301
0.0497301
0.0497301
0.0497301
0.0497301
0.0497301
0.0497301
0.0497301
0.0497301
0.0497301
0.0497301
0.0392903
0.0357831
0.0413608
0.0418227
0.043623
0.04427
0.0453487
0.0459162
0.046781
0.0467531
0.050357
0.048416
0.105315
0.119034
0.107421
0.125613
0.0473218
0.0468317
0.0516888
0.113829
0.133475
0.104575
0.138805
0.0516898
0.0467607
0.0528926
0.118581
0.140784
0.112009
0.0509933
0.048801
0.0466474
0.140836
0.122417
0.0552849
0.0450748
0.0528805
0.129628
0.119216
0.137314
0.0440647
0.0567583
0.0456381
0.0496974
0.135888
0.117272
0.142325
0.0451239
0.0552813
0.0490751
0.0478646
0.132103
0.114365
0.132753
0.0455558
0.0538237
0.0498631
0.0485357
0.128068
0.109199
0.124546
0.0466813
0.0523092
0.0486901
0.04847
0.1184
0.107509
0.118327
0.10314
0.0532709
0.0460369
0.0500419
0.0513698
0.106413
0.112961
0.102455
0.116364
0.0465891
0.0529886
0.0471739
0.0500994
0.112333
0.106651
0.114633
0.10702
0.0523188
0.0458157
0.0532217
0.0461666
0.122173
0.121676
0.115257
0.124958
0.0476543
0.0534756
0.0463413
0.0535379
0.0465145
0.124285
0.121124
0.114022
0.0509734
0.0479234
0.0531202
0.0474857
0.122012
0.107435
0.11865
0.108827
0.0493757
0.0488988
0.0476861
0.051179
0.111253
0.119016
0.109744
0.12343
0.0467508
0.0528725
0.0464032
0.0504143
0.121807
0.114832
0.121262
0.0473679
0.0530864
0.0467865
0.0532174
0.108761
0.117237
0.113589
0.113994
0.0494753
0.0496004
0.0507323
0.0492238
0.122665
0.113615
0.12219
0.11214
0.0522246
0.0474764
0.0501762
0.0478738
0.115194
0.121592
0.117696
0.122174
0.0491961
0.051985
0.048099
0.0516991
0.111045
0.12016
0.113386
0.119592
0.121937
0.117972
0.0504243
0.0481008
0.0518673
0.0486941
0.125809
0.114304
0.121621
0.113611
0.0501713
0.0489478
0.0493661
0.0502082
0.114879
0.122128
0.115388
0.120457
0.0481598
0.0520869
0.0476566
0.119021
0.112404
0.118935
0.115084
0.115371
0.11696
0.113187
0.114673
0.110698
0.113793
0.105379
0.114461
0.114565
0.115061
0.11274
0.112621
0.108624
0.10725
0.0994498
0.0965096
0.0719213
0.0497301
0.0497301
0.0497301
)
;

boundaryField
{
    inlet
    {
        type            calculated;
        value           uniform 0;
    }
    outlet
    {
        type            calculated;
        value           uniform 0;
    }
    sideWall
    {
        type            empty;
    }
}


// ************************************************************************* //
