/*--------------------------------*- C++ -*----------------------------------*\
| =========                 |                                                 |
| \\      /  F ield         | foam-extend: Open Source CFD                    |
|  \\    /   O peration     | Version:     3.2                                |
|   \\  /    A nd           | Web:         http://www.foam-extend.org         |
|    \\/     M anipulation  | For copyright notice see file Copyright         |
\*---------------------------------------------------------------------------*/
FoamFile
{
    version     2.0;
    format      ascii;
    class       areaScalarField;
    location    "160";
    object      thetaCSS1;
}
// * * * * * * * * * * * * * * * * * * * * * * * * * * * * * * * * * * * * * //

dimensions      [0 0 0 0 0 0 0];

internalField   nonuniform List<scalar> 
300
(
0.0551061
0.0551061
0.0551061
0.0551061
0.0551061
0.0551061
0.0551061
0.0551061
0.0551061
0.0551061
0.0551061
0.0551061
0.0551061
0.0551061
0.0551061
0.0551061
0.0551061
0.0551061
0.0551061
0.0551061
0.0551061
0.0551061
0.0551061
0.0551061
0.0551061
0.0551061
0.0551061
0.0551061
0.0551061
0.0551061
0.0551061
0.0551061
0.0551061
0.0551061
0.0551061
0.0551061
0.0551061
0.0551061
0.0551061
0.0551061
0.0551061
0.0551061
0.0551061
0.0551061
0.0551061
0.0551061
0.0551061
0.0551061
0.0551061
0.0551061
0.0551061
0.0551061
0.0551061
0.0551061
0.0551061
0.0551061
0.0551061
0.0551061
0.0551061
0.0551061
0.0551061
0.0551061
0.0551061
0.0551061
0.0551061
0.0551061
0.0551061
0.0551061
0.0551061
0.0551061
0.0551061
0.0551061
0.0551061
0.0551061
0.0551061
0.0551061
0.0551061
0.0551061
0.0551061
0.0551061
0.0551061
0.0551061
0.0551061
0.0551061
0.0551061
0.0551061
0.0551061
0.0551061
0.0551061
0.0551061
0.0551061
0.0551061
0.0551061
0.0551061
0.0551061
0.0551061
0.0551061
0.0551061
0.0551061
0.0435377
0.0396513
0.045832
0.0463438
0.0483388
0.0490556
0.050251
0.0508798
0.0518381
0.0518072
0.0558007
0.0536499
0.1167
0.131902
0.119033
0.139192
0.0524374
0.0518943
0.0572765
0.126134
0.147904
0.11588
0.15381
0.0572776
0.0518156
0.0586104
0.1314
0.156003
0.124118
0.0565058
0.0540765
0.0516901
0.156061
0.135651
0.0612613
0.0499475
0.058597
0.143641
0.132104
0.152158
0.0488282
0.062894
0.0505717
0.0550698
0.150577
0.129949
0.157711
0.0500018
0.0612573
0.0543802
0.0530389
0.146384
0.126728
0.147104
0.0504805
0.0596422
0.0552535
0.0537825
0.141912
0.121004
0.13801
0.0517277
0.0579639
0.0539536
0.0537097
0.131199
0.119131
0.131118
0.11429
0.0590296
0.0510136
0.0554515
0.0569229
0.117916
0.125172
0.11353
0.128943
0.0516255
0.0587168
0.0522736
0.0555152
0.124477
0.11818
0.127025
0.118589
0.0579746
0.0507685
0.0589751
0.0511574
0.13538
0.134829
0.127717
0.138466
0.0528058
0.0592565
0.0513508
0.0593255
0.0515428
0.137721
0.134218
0.126348
0.0564837
0.0531041
0.0588626
0.052619
0.135202
0.119049
0.131476
0.120591
0.0547134
0.0541849
0.0528411
0.0567116
0.12328
0.131881
0.121608
0.136773
0.0518047
0.0585881
0.0514195
0.0558642
0.134974
0.127245
0.134371
0.0524885
0.0588252
0.0518443
0.0589703
0.120518
0.129911
0.125868
0.126317
0.0548237
0.0549623
0.0562165
0.0545449
0.135926
0.125897
0.135398
0.124263
0.0578702
0.0526087
0.0556004
0.0530491
0.127647
0.134737
0.130419
0.135381
0.0545143
0.0576047
0.0532986
0.0572879
0.123049
0.13315
0.125643
0.13252
0.135118
0.130725
0.0558753
0.0533005
0.0574742
0.0539581
0.139409
0.126661
0.134768
0.125893
0.0555949
0.0542391
0.0547026
0.0556358
0.127298
0.13533
0.127862
0.133479
0.053366
0.0577176
0.0528084
0.131887
0.124555
0.131793
0.127525
0.127843
0.129603
0.125423
0.127069
0.122664
0.126094
0.11677
0.126835
0.126949
0.1275
0.124928
0.124795
0.120367
0.118844
0.110201
0.106942
0.0796962
0.0551061
0.0551061
0.0551061
)
;

boundaryField
{
    inlet
    {
        type            calculated;
        value           uniform 0;
    }
    outlet
    {
        type            calculated;
        value           uniform 0;
    }
    sideWall
    {
        type            empty;
    }
}


// ************************************************************************* //
