/*--------------------------------*- C++ -*----------------------------------*\
| =========                 |                                                 |
| \\      /  F ield         | foam-extend: Open Source CFD                    |
|  \\    /   O peration     | Version:     3.2                                |
|   \\  /    A nd           | Web:         http://www.foam-extend.org         |
|    \\/     M anipulation  | For copyright notice see file Copyright         |
\*---------------------------------------------------------------------------*/
FoamFile
{
    version     2.0;
    format      ascii;
    class       areaScalarField;
    location    "160";
    object      thetaC2B;
}
// * * * * * * * * * * * * * * * * * * * * * * * * * * * * * * * * * * * * * //

dimensions      [0 0 0 0 0 0 0];

internalField   nonuniform List<scalar> 
300
(
0.0497301
0.0497301
0.0497301
0.0497301
0.0497301
0.0497301
0.0497301
0.0497301
0.0497301
0.0497301
0.0497301
0.0497301
0.0497301
0.0497301
0.0497301
0.0497301
0.0497301
0.0497301
0.0497301
0.0497301
0.0497301
0.0497301
0.0497301
0.0497301
0.0497301
0.0497301
0.0497301
0.0497301
0.0497301
0.0497301
0.0497301
0.0497301
0.0497301
0.0497301
0.0497301
0.0497301
0.0497301
0.0497301
0.0497301
0.0497301
0.0497301
0.0497301
0.0497301
0.0497301
0.0497301
0.0497301
0.0497301
0.0497301
0.0497301
0.0497301
0.0497301
0.0497301
0.0497301
0.0497301
0.0497301
0.0497301
0.0497301
0.0497301
0.0497301
0.0497301
0.0497301
0.0497301
0.0497301
0.0497301
0.0497301
0.0497301
0.0497301
0.0497301
0.0497301
0.0497301
0.0497301
0.0497301
0.0497301
0.0497301
0.0497301
0.0497301
0.0497301
0.0497301
0.0497301
0.0497301
0.0497301
0.0497301
0.0497301
0.0497301
0.0497301
0.0497301
0.0497301
0.0497301
0.0497301
0.0497301
0.0497301
0.0497301
0.0497301
0.0497301
0.0497301
0.0497301
0.0497301
0.0497301
0.0497301
0.0497301
0.0497301
0.0497301
0.0497301
0.0497301
0.0497301
0.0497301
0.0497301
0.0497301
0.0497301
0.0497301
0.0497301
0.115458
0.117164
0.119112
0.120386
0.0497301
0.0497301
0.0497301
0.124574
0.124951
0.127503
0.130084
0.0497301
0.0497301
0.0497301
0.127997
0.12707
0.127221
0.0497301
0.0497301
0.0497301
0.130798
0.130364
0.0497301
0.0497301
0.0497301
0.127123
0.128344
0.128317
0.0497301
0.0497301
0.0497301
0.0497301
0.127169
0.127374
0.126031
0.0497301
0.0497301
0.0497301
0.0497301
0.122053
0.121408
0.120203
0.0497301
0.0497301
0.0497301
0.0497301
0.115981
0.114503
0.113102
0.0497301
0.0497301
0.0497301
0.0497301
0.111752
0.11106
0.109949
0.109451
0.0497301
0.0497301
0.0497301
0.0497301
0.109676
0.109658
0.110704
0.111392
0.0497301
0.0497301
0.0497301
0.0497301
0.11217
0.1136
0.11518
0.117404
0.0497301
0.0497301
0.0497301
0.0497301
0.120309
0.119486
0.119988
0.119906
0.0497301
0.0497301
0.0497301
0.0497301
0.0497301
0.118559
0.116377
0.115738
0.0497301
0.0497301
0.0497301
0.0497301
0.113614
0.112966
0.112891
0.112407
0.0497301
0.0497301
0.0497301
0.0497301
0.115832
0.116191
0.117103
0.117334
0.0497301
0.0497301
0.0497301
0.0497301
0.117448
0.116986
0.11641
0.0497301
0.0497301
0.0497301
0.0497301
0.115038
0.116112
0.116474
0.117861
0.0497301
0.0497301
0.0497301
0.0497301
0.11745
0.117075
0.116616
0.116307
0.0497301
0.0497301
0.0497301
0.0497301
0.119022
0.119337
0.119178
0.118782
0.0497301
0.0497301
0.0497301
0.0497301
0.117308
0.118181
0.118884
0.120097
0.119756
0.119652
0.0497301
0.0497301
0.0497301
0.0497301
0.118211
0.117232
0.116831
0.116408
0.0497301
0.0497301
0.0497301
0.0497301
0.117803
0.117421
0.116715
0.116065
0.0497301
0.0497301
0.0497301
0.115628
0.115573
0.11551
0.114707
0.114427
0.113478
0.112603
0.111865
0.111408
0.110934
0.111654
0.112599
0.111534
0.109665
0.107189
0.103822
0.0994357
0.093417
0.0855951
0.0726364
0.0567505
0.0497301
0.0497301
0.0497301
)
;

boundaryField
{
    inlet
    {
        type            calculated;
        value           uniform 0;
    }
    outlet
    {
        type            calculated;
        value           uniform 0;
    }
    sideWall
    {
        type            empty;
    }
}


// ************************************************************************* //
