/*--------------------------------*- C++ -*----------------------------------*\
| =========                 |                                                 |
| \\      /  F ield         | foam-extend: Open Source CFD                    |
|  \\    /   O peration     | Version:     3.2                                |
|   \\  /    A nd           | Web:         http://www.foam-extend.org         |
|    \\/     M anipulation  | For copyright notice see file Copyright         |
\*---------------------------------------------------------------------------*/
FoamFile
{
    version     2.0;
    format      ascii;
    class       areaScalarField;
    location    "160";
    object      thetaCSS2;
}
// * * * * * * * * * * * * * * * * * * * * * * * * * * * * * * * * * * * * * //

dimensions      [0 0 0 0 0 0 0];

internalField   nonuniform List<scalar> 
300
(
0.032144
0.032144
0.032144
0.032144
0.032144
0.032144
0.032144
0.032144
0.032144
0.032144
0.032144
0.032144
0.032144
0.032144
0.032144
0.032144
0.032144
0.032144
0.032144
0.032144
0.032144
0.032144
0.032144
0.032144
0.032144
0.032144
0.032144
0.032144
0.032144
0.032144
0.032144
0.032144
0.032144
0.032144
0.032144
0.032144
0.032144
0.032144
0.032144
0.032144
0.032144
0.032144
0.032144
0.032144
0.032144
0.032144
0.032144
0.032144
0.032144
0.032144
0.032144
0.032144
0.032144
0.032144
0.032144
0.032144
0.032144
0.032144
0.032144
0.032144
0.032144
0.032144
0.032144
0.032144
0.032144
0.032144
0.032144
0.032144
0.032144
0.032144
0.032144
0.032144
0.032144
0.032144
0.032144
0.032144
0.032144
0.032144
0.032144
0.032144
0.032144
0.032144
0.032144
0.032144
0.032144
0.032144
0.032144
0.032144
0.032144
0.032144
0.032144
0.032144
0.032144
0.032144
0.032144
0.032144
0.032144
0.032144
0.032144
0.025396
0.023129
0.0267343
0.0270328
0.0281965
0.0286147
0.0293119
0.0296788
0.0302377
0.0302197
0.0325491
0.0312946
0.0680723
0.07694
0.0694335
0.0811924
0.0305873
0.0302705
0.03341
0.0735755
0.0862742
0.0675941
0.0897189
0.0334106
0.0302246
0.0341881
0.0766468
0.090998
0.0723991
0.0329605
0.0315434
0.0301514
0.0910321
0.0791268
0.0357344
0.0291349
0.0341803
0.0837871
0.0770574
0.0887555
0.028482
0.0366868
0.029499
0.0321228
0.0878333
0.0758006
0.0919945
0.0291666
0.0357321
0.0317206
0.0309382
0.0853874
0.0739216
0.0858075
0.0294458
0.03479
0.0322299
0.0313719
0.082779
0.070583
0.0805025
0.0301733
0.033811
0.0314717
0.0313295
0.0765301
0.0694907
0.0764825
0.0666666
0.0344326
0.0297568
0.0323455
0.0332038
0.0687818
0.0730141
0.0662235
0.0752137
0.0301137
0.0342502
0.0304917
0.0323826
0.0726086
0.0689356
0.0740953
0.069174
0.0338172
0.0296138
0.0344008
0.0298406
0.0789689
0.0786472
0.0744986
0.0807686
0.0308022
0.0345649
0.0299535
0.0346052
0.0300655
0.0803339
0.078291
0.0737002
0.0329476
0.0309762
0.0343352
0.0306932
0.0788648
0.0694425
0.0766915
0.0703423
0.0319149
0.0316066
0.0308228
0.0330805
0.0719103
0.0769278
0.070935
0.0797811
0.0302183
0.0341751
0.0299936
0.0325862
0.0787319
0.0742237
0.0783802
0.0306171
0.0343134
0.0302413
0.034398
0.0702997
0.0757786
0.0734203
0.0736819
0.0319793
0.0320601
0.0327917
0.0318167
0.0792869
0.0734371
0.0789794
0.072484
0.0337563
0.0306872
0.0324323
0.0309441
0.0744577
0.0785934
0.0760749
0.0789695
0.0317988
0.0336014
0.0310897
0.0334167
0.0717758
0.0776676
0.0732892
0.0773006
0.0788159
0.0762531
0.0325927
0.0310908
0.0335253
0.0314743
0.0813189
0.0738826
0.0786118
0.0734346
0.0324291
0.0316383
0.0319086
0.032453
0.0742543
0.0789397
0.0745831
0.0778597
0.031129
0.0336673
0.0308037
0.0769312
0.072654
0.076876
0.0743869
0.074572
0.0755989
0.0731604
0.0741207
0.0715514
0.0735521
0.0681134
0.0739842
0.0740509
0.074372
0.0728717
0.0727945
0.0702114
0.0693228
0.0642812
0.0623807
0.0464876
0.032144
0.032144
0.032144
)
;

boundaryField
{
    inlet
    {
        type            calculated;
        value           uniform 0;
    }
    outlet
    {
        type            calculated;
        value           uniform 0;
    }
    sideWall
    {
        type            empty;
    }
}


// ************************************************************************* //
