/*--------------------------------*- C++ -*----------------------------------*\
| =========                 |                                                 |
| \\      /  F ield         | foam-extend: Open Source CFD                    |
|  \\    /   O peration     | Version:     3.2                                |
|   \\  /    A nd           | Web:         http://www.foam-extend.org         |
|    \\/     M anipulation  | For copyright notice see file Copyright         |
\*---------------------------------------------------------------------------*/
FoamFile
{
    version     2.0;
    format      ascii;
    class       areaScalarField;
    location    "160";
    object      thetaC2SS1;
}
// * * * * * * * * * * * * * * * * * * * * * * * * * * * * * * * * * * * * * //

dimensions      [0 0 0 0 0 0 0];

internalField   nonuniform List<scalar> 
300
(
0.0551061
0.0551061
0.0551061
0.0551061
0.0551061
0.0551061
0.0551061
0.0551061
0.0551061
0.0551061
0.0551061
0.0551061
0.0551061
0.0551061
0.0551061
0.0551061
0.0551061
0.0551061
0.0551061
0.0551061
0.0551061
0.0551061
0.0551061
0.0551061
0.0551061
0.0551061
0.0551061
0.0551061
0.0551061
0.0551061
0.0551061
0.0551061
0.0551061
0.0551061
0.0551061
0.0551061
0.0551061
0.0551061
0.0551061
0.0551061
0.0551061
0.0551061
0.0551061
0.0551061
0.0551061
0.0551061
0.0551061
0.0551061
0.0551061
0.0551061
0.0551061
0.0551061
0.0551061
0.0551061
0.0551061
0.0551061
0.0551061
0.0551061
0.0551061
0.0551061
0.0551061
0.0551061
0.0551061
0.0551061
0.0551061
0.0551061
0.0551061
0.0551061
0.0551061
0.0551061
0.0551061
0.0551061
0.0551061
0.0551061
0.0551061
0.0551061
0.0551061
0.0551061
0.0551061
0.0551061
0.0551061
0.0551061
0.0551061
0.0551061
0.0551061
0.0551061
0.0551061
0.0551061
0.0551061
0.0551061
0.0551061
0.0551061
0.0551061
0.0551061
0.0551061
0.0551061
0.0551061
0.0551061
0.0551061
0.0551061
0.0551061
0.0551061
0.0551061
0.0551061
0.0551061
0.0551061
0.0551061
0.0551061
0.0551061
0.0551061
0.0551061
0.127939
0.12983
0.131989
0.1334
0.0551061
0.0551061
0.0551061
0.138041
0.138458
0.141286
0.144146
0.0551061
0.0551061
0.0551061
0.141834
0.140807
0.140974
0.0551061
0.0551061
0.0551061
0.144938
0.144457
0.0551061
0.0551061
0.0551061
0.140865
0.142218
0.142189
0.0551061
0.0551061
0.0551061
0.0551061
0.140916
0.141144
0.139656
0.0551061
0.0551061
0.0551061
0.0551061
0.135247
0.134533
0.133197
0.0551061
0.0551061
0.0551061
0.0551061
0.128519
0.126881
0.125329
0.0551061
0.0551061
0.0551061
0.0551061
0.123832
0.123065
0.121835
0.121283
0.0551061
0.0551061
0.0551061
0.0551061
0.121532
0.121512
0.122671
0.123433
0.0551061
0.0551061
0.0551061
0.0551061
0.124295
0.12588
0.127631
0.130096
0.0551061
0.0551061
0.0551061
0.0551061
0.133315
0.132403
0.132959
0.132868
0.0551061
0.0551061
0.0551061
0.0551061
0.0551061
0.131376
0.128958
0.128249
0.0551061
0.0551061
0.0551061
0.0551061
0.125896
0.125178
0.125095
0.124558
0.0551061
0.0551061
0.0551061
0.0551061
0.128354
0.128751
0.129762
0.130018
0.0551061
0.0551061
0.0551061
0.0551061
0.130145
0.129632
0.128995
0.0551061
0.0551061
0.0551061
0.0551061
0.127474
0.128664
0.129065
0.130602
0.0551061
0.0551061
0.0551061
0.0551061
0.130147
0.129731
0.129222
0.12888
0.0551061
0.0551061
0.0551061
0.0551061
0.131889
0.132238
0.132061
0.131623
0.0551061
0.0551061
0.0551061
0.0551061
0.129989
0.130956
0.131736
0.13308
0.132701
0.132586
0.0551061
0.0551061
0.0551061
0.0551061
0.13099
0.129905
0.129461
0.128992
0.0551061
0.0551061
0.0551061
0.0551061
0.130538
0.130114
0.129332
0.128612
0.0551061
0.0551061
0.0551061
0.128127
0.128067
0.127997
0.127107
0.126797
0.125745
0.124776
0.123958
0.123452
0.122927
0.123724
0.124771
0.123591
0.12152
0.118776
0.115045
0.110185
0.103516
0.0948481
0.0804885
0.0628854
0.0551061
0.0551061
0.0551061
)
;

boundaryField
{
    inlet
    {
        type            calculated;
        value           uniform 0;
    }
    outlet
    {
        type            calculated;
        value           uniform 0;
    }
    sideWall
    {
        type            empty;
    }
}


// ************************************************************************* //
