/*--------------------------------*- C++ -*----------------------------------*\
| =========                 |                                                 |
| \\      /  F ield         | foam-extend: Open Source CFD                    |
|  \\    /   O peration     | Version:     3.2                                |
|   \\  /    A nd           | Web:         http://www.foam-extend.org         |
|    \\/     M anipulation  | For copyright notice see file Copyright         |
\*---------------------------------------------------------------------------*/
FoamFile
{
    version     2.0;
    format      ascii;
    class       areaScalarField;
    location    "160";
    object      thetaBinit;
}
// * * * * * * * * * * * * * * * * * * * * * * * * * * * * * * * * * * * * * //

dimensions      [0 0 0 0 0 0 0];

internalField   nonuniform List<scalar> 
300
(
0.990735
0.788995
0.547354
0.44946
0.412556
0.393203
0.379188
0.366923
0.355633
0.345388
0.336243
0.328069
0.320673
0.314075
0.308136
0.302739
0.297802
0.293245
0.289072
0.285266
0.281733
0.278413
0.275295
0.272368
0.269623
0.267024
0.264569
0.262234
0.260022
0.257926
0.255925
0.254018
0.252189
0.250443
0.248771
0.247172
0.245631
0.244152
0.242725
0.241351
0.240031
0.238752
0.237521
0.236326
0.235172
0.234054
0.232973
0.231925
0.230907
0.22992
0.228958
0.228025
0.227119
0.226237
0.225379
0.224541
0.223727
0.222929
0.222147
0.221384
0.220639
0.219913
0.219204
0.218511
0.217835
0.217175
0.21653
0.215898
0.21528
0.214676
0.214086
0.213508
0.212943
0.21239
0.211848
0.211319
0.210802
0.210296
0.209802
0.209318
0.208849
0.208389
0.207944
0.207511
0.207094
0.206689
0.206305
0.205934
0.205591
0.205269
0.204981
0.204733
0.20453
0.204414
0.204365
0.204453
0.205033
0.205169
0.210471
0.20535
0.186121
0.186928
0.194505
0.195258
0.195631
0.195484
0.195362
0.195077
0.194727
0.194499
0.194279
0.193889
0.193506
0.193169
0.192827
0.192498
0.192167
0.191842
0.191518
0.191197
0.190881
0.190566
0.190253
0.189944
0.189637
0.189332
0.189029
0.18873
0.188433
0.188138
0.187846
0.187557
0.187269
0.186984
0.186699
0.186418
0.186138
0.185861
0.185586
0.185312
0.185041
0.184772
0.184507
0.184245
0.183988
0.183733
0.183482
0.183235
0.18299
0.182747
0.182505
0.182264
0.182024
0.181785
0.181547
0.181311
0.181077
0.180844
0.180613
0.180383
0.180155
0.179929
0.179704
0.179481
0.179259
0.17904
0.178822
0.178606
0.178391
0.178179
0.177968
0.177758
0.17755
0.177343
0.177137
0.176932
0.17673
0.176528
0.176328
0.176128
0.175931
0.175734
0.175539
0.175346
0.175153
0.174961
0.174771
0.174583
0.174395
0.174208
0.174022
0.173838
0.173655
0.173473
0.173292
0.173112
0.172934
0.172756
0.17258
0.172404
0.172229
0.172055
0.171882
0.17171
0.171539
0.171369
0.1712
0.171032
0.170864
0.170698
0.170532
0.170367
0.170203
0.17004
0.169879
0.169718
0.169557
0.169398
0.16924
0.169082
0.168925
0.168768
0.168612
0.168458
0.168304
0.168151
0.167998
0.167846
0.167695
0.167544
0.167395
0.167246
0.167097
0.16695
0.166803
0.166657
0.166512
0.166367
0.166223
0.16608
0.165937
0.165795
0.165654
0.165513
0.165372
0.165233
0.165093
0.164955
0.164818
0.164682
0.164546
0.164411
0.164277
0.164144
0.164012
0.163881
0.16375
0.16362
0.16349
0.16336
0.163232
0.163104
0.162977
0.162849
0.162724
0.162598
0.162474
0.162348
0.162224
0.162098
0.161976
0.16185
0.161727
0.161598
0.161474
0.161342
0.161214
0.161077
0.160944
0.160799
0.160658
0.160502
0.160346
0.160178
0.160007
0.159805
0.159488
0.159296
0.15901
0.158736
0.158316
0.157888
0.157216
0.156663
0.15432
0.157108
0.164894
0.164884
0.162051
0.161876
)
;

boundaryField
{
    inlet
    {
        type            calculated;
        value           uniform 0;
    }
    outlet
    {
        type            calculated;
        value           uniform 0;
    }
    sideWall
    {
        type            empty;
    }
}


// ************************************************************************* //
