/*--------------------------------*- C++ -*----------------------------------*\
| =========                 |                                                 |
| \\      /  F ield         | foam-extend: Open Source CFD                    |
|  \\    /   O peration     | Version:     3.2                                |
|   \\  /    A nd           | Web:         http://www.foam-extend.org         |
|    \\/     M anipulation  | For copyright notice see file Copyright         |
\*---------------------------------------------------------------------------*/
FoamFile
{
    version     2.0;
    format      ascii;
    class       areaScalarField;
    location    "160";
    object      thetaSS1;
}
// * * * * * * * * * * * * * * * * * * * * * * * * * * * * * * * * * * * * * //

dimensions      [0 0 0 0 0 0 0];

internalField   nonuniform List<scalar> 
300
(
27.0487
21.5408
14.9436
12.2709
11.2634
10.735
10.3524
10.0176
9.70933
9.42962
9.17998
8.95678
8.75488
8.57472
8.41262
8.26523
8.13047
8.00604
7.89213
7.78821
7.69176
7.6011
7.51601
7.43608
7.36115
7.29019
7.22317
7.1594
7.09904
7.04179
6.98717
6.93511
6.88518
6.83752
6.79186
6.74822
6.70613
6.66577
6.6268
6.58931
6.55324
6.51838
6.48474
6.45217
6.42062
6.39018
6.36062
6.33211
6.30423
6.27742
6.25109
6.22579
6.20098
6.17709
6.15361
6.13099
6.1087
6.08729
6.06584
6.04546
6.02505
6.00579
5.98642
5.96823
5.94983
5.93272
5.91527
5.8992
5.88269
5.86767
5.85218
5.83831
5.82391
5.81132
5.79811
5.78694
5.77522
5.76571
5.75582
5.74842
5.74088
5.7361
5.73188
5.73026
5.73042
5.73338
5.73888
5.74888
5.76367
5.78284
5.81114
5.84333
5.89748
5.9521
6.055
6.14502
6.38659
6.4236
7.92947
6.86191
2.30736
2.31726
2.5603
2.5855
2.75673
2.86854
2.93788
3.1656
3.03542
3.4367
4.33536
2.98499
3.88857
3.44378
3.33306
4.16727
2.65662
4.35015
3.10212
4.31346
3.33835
2.29974
4.55455
2.58225
4.08221
3.06001
4.03758
3.89345
2.68625
3.885
2.23481
3.88866
3.05576
3.83704
3.81582
2.84067
4.642
2.35076
4.12145
2.80382
3.33011
4.05079
2.20686
4.2757
2.46324
3.77951
3.46484
2.96814
4.22146
2.34818
4.14
3.0934
3.8428
3.61328
2.97079
4.17399
2.53728
4.44518
3.59254
4.07509
4.08523
3.40326
4.19107
2.86254
4.31316
3.44794
4.37059
3.85375
3.96579
4.17444
3.07545
4.37954
3.43449
4.44892
3.42132
3.83924
3.58006
3.74814
4.14307
3.39073
4.41982
3.21815
4.04636
2.83728
3.67293
3.29494
3.48421
3.79367
2.93494
4.10621
2.94739
3.98582
3.14704
4.13477
3.53952
3.65966
3.80353
3.06178
4.43245
3.48762
4.24457
3.17966
4.2199
3.67261
4.06727
4.02949
3.77515
4.23952
3.58731
4.11755
3.1274
4.09138
3.54614
4.15493
3.32976
3.88219
3.57869
3.71591
3.9371
3.01973
4.24443
3.34663
4.40298
3.3558
4.19492
3.72708
3.88688
4.12598
3.4751
3.94125
3.37217
3.61625
3.46668
4.04387
3.49942
4.31875
3.73579
4.18957
3.88174
4.06877
4.14768
3.69361
3.99714
3.21471
3.89617
3.62024
4.09279
3.67773
4.36623
3.89692
4.19503
3.99361
3.72338
3.86481
3.23598
4.13038
3.62044
4.15365
3.40439
3.99226
3.64375
4.13205
4.09922
3.97384
4.15101
3.78879
4.02357
3.55835
4.17885
3.43828
4.05369
3.80778
4.27134
3.74489
4.10528
3.91183
3.77171
3.82735
3.57545
4.00185
3.60207
4.10758
3.83425
4.14027
3.72301
4.16426
3.53367
3.02054
3.3846
3.48308
3.52096
3.6924
3.64414
4.08993
3.83251
5.57665
10.0061
8.30171
4.40631
3.83836
)
;

boundaryField
{
    inlet
    {
        type            calculated;
        value           uniform 0;
    }
    outlet
    {
        type            calculated;
        value           uniform 0;
    }
    sideWall
    {
        type            empty;
    }
}


// ************************************************************************* //
