/*--------------------------------*- C++ -*----------------------------------*\
| =========                 |                                                 |
| \\      /  F ield         | foam-extend: Open Source CFD                    |
|  \\    /   O peration     | Version:     3.2                                |
|   \\  /    A nd           | Web:         http://www.foam-extend.org         |
|    \\/     M anipulation  | For copyright notice see file Copyright         |
\*---------------------------------------------------------------------------*/
FoamFile
{
    version     2.0;
    format      ascii;
    class       areaScalarField;
    location    "160";
    object      thetaB;
}
// * * * * * * * * * * * * * * * * * * * * * * * * * * * * * * * * * * * * * //

dimensions      [0 0 0 0 0 0 0];

internalField   nonuniform List<scalar> 
300
(
0.990737
0.788995
0.547353
0.44946
0.412556
0.393202
0.379187
0.366923
0.355633
0.345388
0.336244
0.328069
0.320673
0.314075
0.308137
0.302739
0.297802
0.293245
0.289072
0.285266
0.281733
0.278413
0.275296
0.272369
0.269624
0.267025
0.26457
0.262234
0.260023
0.257926
0.255926
0.254019
0.25219
0.250445
0.248772
0.247174
0.245632
0.244154
0.242726
0.241353
0.240032
0.238755
0.237523
0.23633
0.235174
0.234059
0.232977
0.231932
0.230911
0.229929
0.228965
0.228038
0.227129
0.226254
0.225394
0.224566
0.223749
0.222965
0.222179
0.221433
0.220686
0.21998
0.21927
0.218604
0.21793
0.217304
0.216664
0.216076
0.215471
0.214921
0.214354
0.213845
0.213318
0.212857
0.212373
0.211964
0.211534
0.211186
0.210824
0.210553
0.210277
0.210101
0.209947
0.209888
0.209894
0.210002
0.210203
0.21057
0.211111
0.211813
0.21285
0.214029
0.216013
0.218013
0.221782
0.225079
0.233928
0.235283
0.29044
0.251338
0.0845139
0.0848765
0.0937787
0.0947016
0.100973
0.105069
0.107609
0.115949
0.111181
0.125879
0.158796
0.109334
0.142431
0.126138
0.122083
0.152638
0.0973067
0.159337
0.113624
0.157993
0.122277
0.0842349
0.166824
0.0945827
0.149523
0.112082
0.147888
0.142609
0.0983918
0.1423
0.0818565
0.142434
0.111926
0.140543
0.139766
0.104048
0.170027
0.0861037
0.15096
0.102698
0.121975
0.148372
0.0808328
0.15661
0.0902236
0.138436
0.12691
0.108717
0.154623
0.0860091
0.15164
0.113305
0.140754
0.132347
0.108814
0.152885
0.0929355
0.162818
0.131587
0.149262
0.149634
0.124654
0.15351
0.104849
0.157982
0.126291
0.160086
0.141155
0.145259
0.152901
0.112647
0.160414
0.125799
0.162955
0.125316
0.140624
0.13113
0.137287
0.151752
0.124196
0.161889
0.117874
0.14821
0.103924
0.134532
0.120687
0.12762
0.138954
0.107501
0.150402
0.107957
0.145992
0.11527
0.151448
0.129646
0.134046
0.139316
0.112147
0.162352
0.127744
0.15547
0.116465
0.154566
0.13452
0.148976
0.147592
0.138276
0.155285
0.131396
0.150818
0.11455
0.149859
0.129888
0.152187
0.121962
0.142197
0.13108
0.136106
0.144208
0.110606
0.155465
0.12258
0.161272
0.122916
0.153651
0.136515
0.142369
0.151126
0.127286
0.14436
0.123516
0.132456
0.126977
0.148119
0.128177
0.158187
0.136835
0.153455
0.14218
0.149031
0.151921
0.13529
0.146407
0.117748
0.142709
0.132602
0.149911
0.134708
0.159926
0.142736
0.153655
0.146278
0.13638
0.14156
0.118527
0.151288
0.13261
0.15214
0.124696
0.146228
0.133463
0.151349
0.150146
0.145554
0.152043
0.138776
0.147375
0.130335
0.153063
0.125937
0.148478
0.139471
0.15645
0.137168
0.150368
0.143283
0.13815
0.140188
0.130962
0.14658
0.131936
0.150452
0.140441
0.15165
0.136366
0.152528
0.129431
0.110636
0.123971
0.127578
0.128965
0.135245
0.133478
0.149806
0.140377
0.204261
0.366503
0.304075
0.161394
0.140591
)
;

boundaryField
{
    inlet
    {
        type            calculated;
        value           uniform 0;
    }
    outlet
    {
        type            calculated;
        value           uniform 0;
    }
    sideWall
    {
        type            empty;
    }
}


// ************************************************************************* //
