/*--------------------------------*- C++ -*----------------------------------*\
| =========                 |                                                 |
| \\      /  F ield         | foam-extend: Open Source CFD                    |
|  \\    /   O peration     | Version:     3.2                                |
|   \\  /    A nd           | Web:         http://www.foam-extend.org         |
|    \\/     M anipulation  | For copyright notice see file Copyright         |
\*---------------------------------------------------------------------------*/
FoamFile
{
    version     2.0;
    format      ascii;
    class       areaScalarField;
    location    "160";
    object      totH1;
}
// * * * * * * * * * * * * * * * * * * * * * * * * * * * * * * * * * * * * * //

dimensions      [0 0 0 0 0 0 0];

internalField   nonuniform List<scalar> 
300
(
0
0
0
0
0
0
0
0
0
0
0
0
0
0
0
0
0
0
0
0
0
0
0
0
0
0
0
0
0
0
0
0
0
0
0
0
0
0
0
0
0
0
0
0
0
0
0
0
0
0
0
0
0
0
0
0
0
0
0
0
0
0
0
0
0
0
0
0
0
0
0
0
0
0
0
0
0
0
0
0
0
0
0
0
0
0
0
0
0
0
0
0
0
0
0
0
0
0
0
-0.00330027
-0.0109803
-0.0180189
-0.0231927
-0.0276601
-0.0313613
-0.0345185
-0.037155
-0.0393358
-0.0412499
-0.0420065
-0.0422317
-0.044056
-0.0451803
-0.0464803
-0.0473458
-0.0474367
-0.0491718
-0.0494562
-0.050166
-0.0504032
-0.0521146
-0.0538448
-0.0521096
-0.0524507
-0.0523566
-0.0524572
-0.0518134
-0.0519218
-0.053428
-0.0533336
-0.0546333
-0.0543283
-0.0540266
-0.0531715
-0.0528161
-0.0532475
-0.0518611
-0.052672
-0.0526671
-0.0533421
-0.0527832
-0.0517198
-0.0530351
-0.0518943
-0.0520202
-0.0511288
-0.0504616
-0.0500906
-0.0484376
-0.04924
-0.0484576
-0.048017
-0.0472253
-0.0468521
-0.046843
-0.0454306
-0.0457621
-0.0443979
-0.0433868
-0.0424482
-0.041781
-0.0419397
-0.0414227
-0.0421531
-0.0415618
-0.0410759
-0.0403338
-0.040021
-0.0397884
-0.0398243
-0.0409137
-0.0402495
-0.0401732
-0.0401477
-0.0408482
-0.0413221
-0.0416173
-0.041567
-0.041317
-0.0420078
-0.0418464
-0.0427906
-0.0438532
-0.0453576
-0.0459246
-0.0463446
-0.0464466
-0.0464211
-0.0473045
-0.0467363
-0.0470665
-0.0470233
-0.0470205
-0.0464691
-0.046325
-0.0461338
-0.0458925
-0.0461263
-0.0446433
-0.0442138
-0.0440773
-0.0442823
-0.0437387
-0.0433233
-0.0428121
-0.0423584
-0.0423046
-0.0419992
-0.0426497
-0.0430567
-0.0439922
-0.0441577
-0.0443013
-0.0445262
-0.0451334
-0.0453022
-0.0454284
-0.0453675
-0.0454029
-0.0462352
-0.0453801
-0.0450488
-0.0446669
-0.0447761
-0.0444533
-0.0442942
-0.0440684
-0.0437695
-0.0444717
-0.0447134
-0.0456607
-0.0462861
-0.0464267
-0.0461436
-0.0459637
-0.0453812
-0.0451096
-0.0448012
-0.0446125
-0.044385
-0.0443155
-0.044905
-0.0453421
-0.0464421
-0.0466274
-0.0465148
-0.0462674
-0.0459927
-0.045447
-0.0452403
-0.0451023
-0.0452925
-0.0458679
-0.0463458
-0.0471545
-0.0469132
-0.0468547
-0.0468789
-0.047201
-0.0470216
-0.0466325
-0.0458902
-0.0452138
-0.0449446
-0.0446821
-0.0449471
-0.0450777
-0.0454534
-0.0453977
-0.045622
-0.0453399
-0.0448621
-0.0444505
-0.0443625
-0.0441139
-0.0440029
-0.0441576
-0.0441062
-0.0440783
-0.0435473
-0.0433587
-0.0427219
-0.0421379
-0.041646
-0.0413397
-0.0410226
-0.0415044
-0.0421368
-0.0414228
-0.0401701
-0.0385101
-0.0362537
-0.0333138
-0.0292798
-0.0240374
-0.0153522
-0.00470524
0
0
0
)
;

boundaryField
{
    inlet
    {
        type            calculated;
        value           uniform 0;
    }
    outlet
    {
        type            calculated;
        value           uniform 0;
    }
    sideWall
    {
        type            empty;
    }
}


// ************************************************************************* //
