/*--------------------------------*- C++ -*----------------------------------*\
| =========                 |                                                 |
| \\      /  F ield         | foam-extend: Open Source CFD                    |
|  \\    /   O peration     | Version:     3.2                                |
|   \\  /    A nd           | Web:         http://www.foam-extend.org         |
|    \\/     M anipulation  | For copyright notice see file Copyright         |
\*---------------------------------------------------------------------------*/
FoamFile
{
    version     2.0;
    format      ascii;
    class       areaScalarField;
    location    "160";
    object      totH;
}
// * * * * * * * * * * * * * * * * * * * * * * * * * * * * * * * * * * * * * //

dimensions      [0 0 0 0 0 0 0];

internalField   nonuniform List<scalar> 
300
(
0
0
0
0
0
0
0
0
0
0
0
0
0
0
0
0
0
0
0
0
0
0
0
0
0
0
0
0
0
0
0
0
0
0
0
0
0
0
0
0
0
0
0
0
0
0
0
0
0
0
0
0
0
0
0
0
0
0
0
0
0
0
0
0
0
0
0
0
0
0
0
0
0
0
0
0
0
0
0
0
0
0
0
0
0
0
0
0
0
0
0
0
0
0
0
0
0
0
0
-0.00329999
-0.0109793
-0.0180172
-0.0231907
-0.0276578
-0.0313588
-0.0345159
-0.0371522
-0.039333
-0.041247
-0.0420031
-0.0422248
-0.0440561
-0.0451999
-0.0465059
-0.0473597
-0.0474267
-0.0491425
-0.0494332
-0.0501666
-0.0504194
-0.0521298
-0.0538599
-0.0521076
-0.0524207
-0.0523312
-0.0524614
-0.0518399
-0.0519413
-0.0534279
-0.0533153
-0.054613
-0.0543386
-0.0540477
-0.0531613
-0.0527909
-0.0532413
-0.0518752
-0.0526937
-0.0526757
-0.0533311
-0.0527641
-0.0517001
-0.0530272
-0.051906
-0.0520438
-0.0511435
-0.050453
-0.0500683
-0.0484177
-0.0492361
-0.0484768
-0.0480447
-0.0472367
-0.0468391
-0.0468179
-0.0454106
-0.0457555
-0.0444072
-0.0434163
-0.0424774
-0.041777
-0.0419087
-0.0413944
-0.0421425
-0.0415721
-0.0411082
-0.040364
-0.04003
-0.0397802
-0.0397937
-0.0408815
-0.0402398
-0.0401807
-0.0401686
-0.0408696
-0.0413307
-0.041612
-0.0415449
-0.0412908
-0.0419968
-0.0418522
-0.0428107
-0.04387
-0.0453607
-0.0459185
-0.0463227
-0.0464232
-0.046412
-0.0473079
-0.0467563
-0.047093
-0.0470376
-0.0470191
-0.0464462
-0.0462935
-0.0461197
-0.0458907
-0.046135
-0.0446727
-0.0442439
-0.0440756
-0.0442532
-0.0437139
-0.0433154
-0.0428203
-0.0423862
-0.0423356
-0.0420112
-0.042641
-0.0430273
-0.0439605
-0.0441464
-0.0443073
-0.0445476
-0.0451592
-0.0453139
-0.0454219
-0.0453423
-0.0453737
-0.0462226
-0.0453904
-0.0450804
-0.0446948
-0.0447758
-0.0444266
-0.0442634
-0.0440561
-0.0437752
-0.0444946
-0.0447371
-0.0456672
-0.0462801
-0.0464056
-0.0461191
-0.0459553
-0.0453916
-0.0451403
-0.0448326
-0.0446255
-0.0443791
-0.0442845
-0.0448683
-0.0453243
-0.0464456
-0.0466566
-0.0465498
-0.0462844
-0.0459915
-0.0454212
-0.0452064
-0.0450867
-0.0452961
-0.0458814
-0.046353
-0.0471659
-0.046937
-0.0468674
-0.0468674
-0.0471688
-0.0469926
-0.0466246
-0.0459017
-0.0452454
-0.0449769
-0.0446931
-0.0449372
-0.0450475
-0.0454211
-0.0453834
-0.0456281
-0.045372
-0.0448991
-0.0444634
-0.0443531
-0.0440846
-0.0439782
-0.0441702
-0.0441334
-0.0440915
-0.0435531
-0.0433653
-0.0427291
-0.0421428
-0.0416484
-0.0413419
-0.0410243
-0.0415066
-0.0421402
-0.0414263
-0.0401736
-0.0385135
-0.036257
-0.0333169
-0.0292826
-0.0240397
-0.0153537
-0.00470566
0
0
0
)
;

boundaryField
{
    inlet
    {
        type            calculated;
        value           uniform 0;
    }
    outlet
    {
        type            calculated;
        value           uniform 0;
    }
    sideWall
    {
        type            empty;
    }
}


// ************************************************************************* //
