/*--------------------------------*- C++ -*----------------------------------*\
| =========                 |                                                 |
| \\      /  F ield         | foam-extend: Open Source CFD                    |
|  \\    /   O peration     | Version:     3.2                                |
|   \\  /    A nd           | Web:         http://www.foam-extend.org         |
|    \\/     M anipulation  | For copyright notice see file Copyright         |
\*---------------------------------------------------------------------------*/
FoamFile
{
    version     2.0;
    format      ascii;
    class       areaScalarField;
    location    "160";
    object      tVolC;
}
// * * * * * * * * * * * * * * * * * * * * * * * * * * * * * * * * * * * * * //

dimensions      [0 3 0 0 0 0 0];

internalField   nonuniform List<scalar> 
300
(
0
0
0
0
0
0
0
0
0
0
0
0
0
0
0
0
0
0
0
0
0
0
0
0
0
0
0
0
0
0
0
0
0
0
0
0
0
0
0
0
0
0
0
0
0
0
0
0
0
0
0
0
0
0
0
0
0
0
0
0
0
0
0
0
0
0
0
0
0
0
0
0
0
0
0
0
0
0
0
0
0
0
0
0
0
0
0
0
0
0
0
0
0
0
0
0
0
0
0
0
4.22263e-05
3.614e-05
3.02782e-05
2.61536e-05
2.21853e-05
1.91752e-05
1.64267e-05
1.42902e-05
1.25068e-05
1.06811e-05
9.99142e-06
1.09212e-05
8.7787e-06
1.00547e-05
1.04446e-05
8.31681e-06
1.01495e-05
8.29411e-06
9.9024e-06
8.77594e-06
8.81034e-06
1.05851e-05
7.29119e-06
1.0543e-05
7.99109e-06
1.00238e-05
8.54646e-06
8.57215e-06
1.04984e-05
7.19291e-06
1.10169e-05
7.89527e-06
9.51901e-06
8.98139e-06
8.82898e-06
1.04829e-05
7.40403e-06
1.1359e-05
7.93772e-06
1.00081e-05
1.01566e-05
8.41753e-06
1.21345e-05
7.6125e-06
1.10772e-05
8.91915e-06
9.78292e-06
1.10593e-05
8.16726e-06
1.14802e-05
7.78911e-06
1.04402e-05
9.02631e-06
8.86921e-06
1.07763e-05
7.19732e-06
1.0706e-05
7.43025e-06
9.22733e-06
8.88673e-06
8.58058e-06
9.78392e-06
7.59276e-06
9.87354e-06
7.58891e-06
9.38428e-06
8.10983e-06
8.76918e-06
8.98503e-06
8.06995e-06
9.78724e-06
7.52298e-06
9.14957e-06
7.4987e-06
9.2563e-06
8.23982e-06
9.0791e-06
8.8193e-06
8.52001e-06
9.28445e-06
8.15934e-06
9.88918e-06
7.7451e-06
1.01611e-05
8.68259e-06
9.82673e-06
9.69833e-06
8.78756e-06
1.11015e-05
7.17909e-06
1.05005e-05
7.45711e-06
9.57941e-06
8.38363e-06
8.52657e-06
9.8347e-06
7.75754e-06
1.06886e-05
6.99823e-06
9.59418e-06
7.37679e-06
9.03091e-06
7.72727e-06
8.5104e-06
8.32132e-06
8.35744e-06
9.09912e-06
7.98762e-06
9.34237e-06
7.27203e-06
9.37515e-06
7.01917e-06
9.3899e-06
7.4533e-06
8.8203e-06
8.40827e-06
8.28886e-06
9.47929e-06
7.57649e-06
1.01655e-05
6.78858e-06
8.86255e-06
7.06482e-06
9.0695e-06
7.35869e-06
8.5161e-06
8.50031e-06
8.16608e-06
9.52841e-06
7.48657e-06
9.55214e-06
7.05777e-06
8.56181e-06
7.31324e-06
8.41558e-06
7.24782e-06
8.03099e-06
7.7141e-06
7.96684e-06
8.14392e-06
7.71879e-06
8.54372e-06
7.05824e-06
8.2798e-06
6.81676e-06
7.82966e-06
6.82174e-06
7.7806e-06
6.91688e-06
7.77911e-06
7.33862e-06
7.49961e-06
8.23156e-06
7.07835e-06
8.34177e-06
6.34207e-06
7.89219e-06
6.51341e-06
7.58705e-06
7.1047e-06
7.18794e-06
7.59763e-06
7.10446e-06
8.10971e-06
6.96709e-06
8.22969e-06
6.50034e-06
7.78612e-06
6.41706e-06
7.84275e-06
6.4747e-06
7.67597e-06
7.13192e-06
7.48526e-06
7.92831e-06
7.22807e-06
9.01708e-06
6.78688e-06
9.64114e-06
6.2972e-06
9.26314e-06
6.46615e-06
8.25921e-06
7.12833e-06
8.11504e-06
8.02344e-06
1.06629e-05
1.20963e-05
1.1518e-05
1.39727e-05
1.46706e-05
1.75761e-05
2.01851e-05
2.41709e-05
3.00072e-05
3.75336e-05
0
0
0
0
)
;

boundaryField
{
    inlet
    {
        type            calculated;
        value           uniform 0;
    }
    outlet
    {
        type            calculated;
        value           uniform 0;
    }
    sideWall
    {
        type            empty;
    }
}


// ************************************************************************* //
