/*--------------------------------*- C++ -*----------------------------------*\
| =========                 |                                                 |
| \\      /  F ield         | foam-extend: Open Source CFD                    |
|  \\    /   O peration     | Version:     3.2                                |
|   \\  /    A nd           | Web:         http://www.foam-extend.org         |
|    \\/     M anipulation  | For copyright notice see file Copyright         |
\*---------------------------------------------------------------------------*/
FoamFile
{
    version     2.0;
    format      ascii;
    class       areaScalarField;
    location    "160";
    object      tVolA;
}
// * * * * * * * * * * * * * * * * * * * * * * * * * * * * * * * * * * * * * //

dimensions      [0 3 0 0 0 0 0];

internalField   nonuniform List<scalar> 
300
(
0
0
0
0
0
0
0
0
0
0
0
0
0
0
0
0
0
0
0
0
0
0
0
0
0
0
0
0
0
0
0
0
0
0
0
0
0
0
0
0
0
0
0
0
0
0
0
0
0
0
0
0
0
0
0
0
0
0
0
0
0
0
0
0
0
0
0
0
0
0
0
0
0
0
0
0
0
0
0
0
0
0
0
0
0
0
0
0
0
0
0
0
0
0
0
0
0
0
0
0
4.81511e-05
4.63068e-05
4.69208e-05
4.64111e-05
4.66261e-05
4.64154e-05
4.64997e-05
4.64237e-05
4.62927e-05
4.73203e-05
4.77974e-05
4.51256e-05
4.59898e-05
4.35206e-05
4.21971e-05
4.42902e-05
4.07876e-05
4.23108e-05
4.00123e-05
4.08203e-05
3.9366e-05
3.55764e-05
4.06049e-05
3.71275e-05
3.97398e-05
3.75728e-05
3.9691e-05
3.96091e-05
3.6082e-05
3.95077e-05
3.44522e-05
3.78017e-05
3.64282e-05
3.80067e-05
3.85072e-05
3.63129e-05
4.07146e-05
3.5964e-05
3.94254e-05
3.68051e-05
3.73057e-05
3.99791e-05
3.48451e-05
4.05188e-05
3.69109e-05
4.00987e-05
3.98664e-05
3.90367e-05
4.34396e-05
3.93075e-05
4.37857e-05
4.15154e-05
4.38506e-05
4.43868e-05
4.25139e-05
4.74164e-05
4.3548e-05
4.82931e-05
4.73486e-05
4.87175e-05
4.97013e-05
4.83786e-05
5.10536e-05
4.79967e-05
5.08814e-05
4.94792e-05
5.1557e-05
5.1252e-05
5.12901e-05
5.22497e-05
4.93749e-05
5.22482e-05
5.0682e-05
5.23145e-05
4.99161e-05
5.04493e-05
4.93586e-05
4.97136e-05
5.02619e-05
4.872e-05
4.9991e-05
4.73156e-05
4.83595e-05
4.4578e-05
4.54185e-05
4.39549e-05
4.39635e-05
4.486e-05
4.1596e-05
4.60466e-05
4.23848e-05
4.55189e-05
4.34157e-05
4.52588e-05
4.52835e-05
4.41142e-05
4.64034e-05
4.32012e-05
4.83138e-05
4.61198e-05
4.85589e-05
4.67748e-05
4.86412e-05
4.82028e-05
4.89234e-05
4.92542e-05
4.85514e-05
5.00128e-05
4.80171e-05
4.97395e-05
4.67307e-05
4.88428e-05
4.63229e-05
4.79796e-05
4.60307e-05
4.63017e-05
4.63331e-05
4.52527e-05
4.71437e-05
4.36169e-05
4.78383e-05
4.60151e-05
4.82254e-05
4.61862e-05
4.82954e-05
4.73113e-05
4.75001e-05
4.80992e-05
4.59473e-05
4.77479e-05
4.47999e-05
4.66578e-05
4.50589e-05
4.66087e-05
4.56294e-05
4.73827e-05
4.67999e-05
4.74365e-05
4.74236e-05
4.74969e-05
4.80634e-05
4.66371e-05
4.7641e-05
4.52941e-05
4.64929e-05
4.55729e-05
4.68996e-05
4.62179e-05
4.77172e-05
4.70789e-05
4.75935e-05
4.72459e-05
4.58568e-05
4.65958e-05
4.44906e-05
4.668e-05
4.52386e-05
4.66233e-05
4.53025e-05
4.5958e-05
4.61934e-05
4.65448e-05
4.76194e-05
4.68871e-05
4.83476e-05
4.6834e-05
4.84938e-05
4.68366e-05
4.82044e-05
4.65427e-05
4.81312e-05
4.73734e-05
4.84209e-05
4.81765e-05
4.8046e-05
4.8864e-05
4.67902e-05
4.90539e-05
4.62712e-05
5.01449e-05
4.73659e-05
5.0808e-05
4.95927e-05
5.12315e-05
5.05389e-05
5.09607e-05
4.78659e-05
4.57634e-05
4.70615e-05
4.58814e-05
4.6848e-05
4.62643e-05
4.66203e-05
4.68962e-05
4.64066e-05
4.94693e-05
0
0
0
0
)
;

boundaryField
{
    inlet
    {
        type            calculated;
        value           uniform 0;
    }
    outlet
    {
        type            calculated;
        value           uniform 0;
    }
    sideWall
    {
        type            empty;
    }
}


// ************************************************************************* //
