/*--------------------------------*- C++ -*----------------------------------*\
| =========                 |                                                 |
| \\      /  F ield         | foam-extend: Open Source CFD                    |
|  \\    /   O peration     | Version:     3.2                                |
|   \\  /    A nd           | Web:         http://www.foam-extend.org         |
|    \\/     M anipulation  | For copyright notice see file Copyright         |
\*---------------------------------------------------------------------------*/
FoamFile
{
    version     2.0;
    format      ascii;
    class       areaScalarField;
    location    "160";
    object      tVol;
}
// * * * * * * * * * * * * * * * * * * * * * * * * * * * * * * * * * * * * * //

dimensions      [0 3 0 0 0 0 0];

internalField   nonuniform List<scalar> 
300
(
0.0001
0.0001
0.0001
0.0001
0.0001
0.0001
0.0001
0.0001
0.0001
0.0001
0.0001
0.0001
0.0001
0.0001
0.0001
0.0001
0.0001
0.0001
0.0001
0.0001
0.0001
0.0001
0.0001
0.0001
0.0001
0.0001
0.0001
0.0001
0.0001
0.0001
0.0001
0.0001
0.0001
0.0001
0.0001
0.0001
0.0001
0.0001
0.0001
0.0001
0.0001
0.0001
0.0001
0.0001
0.0001
0.0001
0.0001
0.0001
0.0001
0.0001
0.0001
0.0001
0.0001
0.0001
0.0001
0.0001
0.0001
0.0001
0.0001
0.0001
0.0001
0.0001
0.0001
0.0001
0.0001
0.0001
0.0001
0.0001
0.0001
0.0001
0.0001
0.0001
0.0001
0.0001
0.0001
0.0001
0.0001
0.0001
0.0001
0.0001
0.0001
0.0001
0.0001
0.0001
0.0001
0.0001
0.0001
0.0001
0.0001
0.0001
0.0001
0.0001
0.0001
0.0001
0.0001
0.0001
0.0001
0.0001
0.0001
9.75388e-05
9.03762e-05
8.2445e-05
7.71969e-05
7.25624e-05
6.88089e-05
6.55879e-05
6.29236e-05
6.07111e-05
5.87964e-05
5.79988e-05
5.77836e-05
5.60321e-05
5.48031e-05
5.3599e-05
5.26617e-05
5.25988e-05
5.08931e-05
5.05836e-05
4.99092e-05
4.96309e-05
4.81774e-05
4.61852e-05
4.79084e-05
4.76143e-05
4.77107e-05
4.75914e-05
4.82849e-05
4.81976e-05
4.65785e-05
4.66881e-05
4.5423e-05
4.57203e-05
4.59875e-05
4.69689e-05
4.72934e-05
4.67995e-05
4.81288e-05
4.73555e-05
4.7375e-05
4.67915e-05
4.74496e-05
4.83668e-05
4.69728e-05
4.81432e-05
4.8018e-05
4.90402e-05
4.96337e-05
5.00703e-05
5.15842e-05
5.07788e-05
5.15998e-05
5.19914e-05
5.2891e-05
5.32375e-05
5.32612e-05
5.45895e-05
5.42511e-05
5.57268e-05
5.66089e-05
5.76531e-05
5.82681e-05
5.8125e-05
5.86109e-05
5.78653e-05
5.84728e-05
5.89043e-05
5.97118e-05
6.00111e-05
6.02864e-05
6.02744e-05
5.9119e-05
5.97741e-05
5.98303e-05
5.9843e-05
5.91977e-05
5.86945e-05
5.8436e-05
5.85097e-05
5.87413e-05
5.80039e-05
5.81478e-05
5.72334e-05
5.61302e-05
5.47265e-05
5.41132e-05
5.37455e-05
5.36345e-05
5.36445e-05
5.26948e-05
5.32475e-05
5.29241e-05
5.29827e-05
5.30001e-05
5.36202e-05
5.37578e-05
5.39494e-05
5.41559e-05
5.38922e-05
5.53471e-05
5.57586e-05
5.59318e-05
5.57621e-05
5.63431e-05
5.67085e-05
5.7248e-05
5.76424e-05
5.76968e-05
5.80011e-05
5.73596e-05
5.6976e-05
5.60592e-05
5.58637e-05
5.57108e-05
5.54594e-05
5.48854e-05
5.4718e-05
5.46185e-05
5.47051e-05
5.46766e-05
5.37796e-05
5.46258e-05
5.49235e-05
5.53259e-05
5.525e-05
5.56286e-05
5.57769e-05
5.60039e-05
5.62594e-05
5.55065e-05
5.527e-05
5.4345e-05
5.37202e-05
5.35945e-05
5.38856e-05
5.40459e-05
5.46316e-05
5.48697e-05
5.51946e-05
5.53893e-05
5.56511e-05
5.57392e-05
5.51326e-05
5.46916e-05
5.35659e-05
5.33475e-05
5.34519e-05
5.3725e-05
5.40098e-05
5.46029e-05
5.48059e-05
5.49318e-05
5.47361e-05
5.41218e-05
5.36708e-05
5.28343e-05
5.30668e-05
5.31348e-05
5.31348e-05
5.28431e-05
5.30285e-05
5.33803e-05
5.41469e-05
5.47617e-05
5.5043e-05
5.53136e-05
5.50637e-05
5.49553e-05
5.45795e-05
5.46177e-05
5.43789e-05
5.46468e-05
5.51024e-05
5.55537e-05
5.56584e-05
5.59425e-05
5.60421e-05
5.58401e-05
5.58754e-05
5.5919e-05
5.64471e-05
5.66355e-05
5.72825e-05
5.78576e-05
5.83595e-05
5.86586e-05
5.8984e-05
5.85316e-05
5.78632e-05
5.8583e-05
5.98577e-05
6.15221e-05
6.38436e-05
6.68087e-05
7.10699e-05
7.64163e-05
8.70047e-05
9.69677e-05
0.0001
0.0001
0.0001
)
;

boundaryField
{
    inlet
    {
        type            calculated;
        value           uniform 0;
    }
    outlet
    {
        type            calculated;
        value           uniform 0;
    }
    sideWall
    {
        type            empty;
    }
}


// ************************************************************************* //
