/*--------------------------------*- C++ -*----------------------------------*\
| =========                 |                                                 |
| \\      /  F ield         | foam-extend: Open Source CFD                    |
|  \\    /   O peration     | Version:     3.2                                |
|   \\  /    A nd           | Web:         http://www.foam-extend.org         |
|    \\/     M anipulation  | For copyright notice see file Copyright         |
\*---------------------------------------------------------------------------*/
FoamFile
{
    version     2.0;
    format      ascii;
    class       volVectorField;
    location    "160";
    object      U;
}
// * * * * * * * * * * * * * * * * * * * * * * * * * * * * * * * * * * * * * //

dimensions      [0 1 -1 0 0 0 0];

internalField   nonuniform List<vector> 
96000
(
(1.32717 0 0.0321532)
(0.866773 0 0.0115996)
(0.682511 0 0.00215822)
(0.62946 0 -0.000474671)
(0.610066 0 -0.000492656)
(0.597607 0 -0.000216265)
(0.587444 0 -0.000121831)
(0.577914 0 -5.61259e-05)
(0.568829 0 -1.26526e-05)
(0.560457 0 4.19747e-06)
(0.552983 0 9.42828e-06)
(0.546238 0 1.89509e-05)
(0.540038 0 2.37556e-05)
(0.534484 0 2.67578e-05)
(0.529438 0 2.74713e-05)
(0.524819 0 2.73578e-05)
(0.520559 0 2.82945e-05)
(0.516578 0 2.81187e-05)
(0.51292 0 2.91656e-05)
(0.509601 0 2.94536e-05)
(0.5065 0 2.90947e-05)
(0.503553 0 2.85297e-05)
(0.500768 0 2.77658e-05)
(0.498135 0 2.64796e-05)
(0.495661 0 2.54817e-05)
(0.4933 0 2.46431e-05)
(0.491063 0 2.38773e-05)
(0.488916 0 2.32266e-05)
(0.486879 0 2.20878e-05)
(0.48494 0 2.14715e-05)
(0.483081 0 2.06317e-05)
(0.481302 0 2.01956e-05)
(0.479587 0 1.9481e-05)
(0.477945 0 1.89302e-05)
(0.476364 0 1.8156e-05)
(0.474853 0 1.771e-05)
(0.473385 1.37113e-39 1.71976e-05)
(0.471978 0 1.66951e-05)
(0.470609 0 1.63613e-05)
(0.469291 0 1.56974e-05)
(0.46802 -4.66846e-39 1.53643e-05)
(0.466786 -4.5022e-39 1.48855e-05)
(0.465594 -8.66899e-39 1.45484e-05)
(0.464435 0 1.42157e-05)
(0.463309 1.61702e-38 1.37916e-05)
(0.462221 -1.56752e-38 1.34586e-05)
(0.461161 0 1.30231e-05)
(0.460139 0 1.28493e-05)
(0.459132 0 1.24333e-05)
(0.458168 0 1.22326e-05)
(0.457211 -5.3431e-38 1.19222e-05)
(0.456297 5.18095e-38 1.15819e-05)
(0.455393 5.02623e-38 1.13444e-05)
(0.454527 9.7687e-38 1.10493e-05)
(0.453668 -9.48699e-38 1.08521e-05)
(0.452844 0 1.06027e-05)
(0.452025 0 1.03137e-05)
(0.451244 0 1.05544e-05)
(0.450447 0 1.0451e-05)
(0.449703 0 1.02403e-05)
(0.448942 0 9.95596e-06)
(0.44824 0 9.69972e-06)
(0.447515 -5.89513e-37 9.46131e-06)
(0.446852 0 9.18207e-06)
(0.446161 0 8.9328e-06)
(0.445539 0 8.65682e-06)
(0.44488 0 8.43559e-06)
(0.444299 0 8.10191e-06)
(0.443674 0 7.90363e-06)
(0.443134 0 7.46155e-06)
(0.442548 0 7.26836e-06)
(0.442054 0 6.75815e-06)
(0.44151 6.68733e-36 6.51732e-06)
(0.44107 6.29493e-36 5.93436e-06)
(0.440573 -6.01519e-36 5.68032e-06)
(0.440195 1.09873e-35 4.85637e-06)
(0.439759 0 4.62236e-06)
(0.439452 0 3.49417e-06)
(0.439096 1.66662e-35 3.17097e-06)
(0.438883 1.30849e-35 1.69853e-06)
(0.43863 0 1.52013e-06)
(0.438534 0 -6.99674e-07)
(0.438438 0 -7.18789e-07)
(0.438478 -9.36872e-36 -3.02958e-06)
(0.438584 0 -4.70368e-06)
(0.438834 0 -8.35855e-06)
(0.439187 1.47221e-34 -9.82094e-06)
(0.439777 0 -1.53784e-05)
(0.440572 -6.07078e-34 -1.72742e-05)
(0.441578 2.1261e-33 -2.45824e-05)
(0.443025 0 -2.62599e-05)
(0.444587 0 -4.22546e-05)
(0.447368 0 -4.86612e-05)
(0.449866 -2.39655e-32 -7.16978e-05)
(0.455157 0 -9.32267e-05)
(0.458932 0 -0.000141669)
(0.471822 0 -0.000176541)
(0.469162 0 -0.00072489)
(0.553561 -3.39054e-26 -0.000532314)
(0.477152 3.21299e-23 -0.0543634)
(0.0960606 -1.31698e-23 -0.0140586)
(0.17999 0 -0.0226183)
(0.240267 1.06747e-24 -0.025411)
(0.250408 0 -0.0204426)
(0.275747 -1.49322e-28 -0.0199209)
(0.288202 -2.67634e-25 -0.0167611)
(0.295223 -2.39e-25 -0.0150047)
(0.316712 -3.78098e-25 -0.0123388)
(0.30022 8.2111e-26 -0.0118695)
(0.334105 -4.86656e-25 0.00134011)
(0.409567 0 -0.00406663)
(0.276287 9.26552e-24 -0.0123053)
(0.379671 -1.05128e-24 0.0022704)
(0.329808 1.0573e-24 -0.0187769)
(0.318526 0 0.00525733)
(0.390875 6.70162e-24 -0.0109182)
(0.231853 5.61825e-24 -0.00884627)
(0.417357 -1.10334e-24 0.0103892)
(0.284674 0 -0.0123356)
(0.412091 -3.7423e-24 0.0161903)
(0.320639 1.97468e-23 -0.0305362)
(0.20751 1.46402e-24 0.00406678)
(0.430305 -5.5939e-24 0.0106719)
(0.223415 0 -0.00682928)
(0.402049 -1.6451e-27 0.0156556)
(0.289819 0 -0.0101274)
(0.388911 0 0.0258473)
(0.369356 0 -0.0255697)
(0.249924 -1.63612e-25 0.00120469)
(0.386087 -4.83638e-25 -0.00303423)
(0.196905 0 -0.00602726)
(0.393362 0 0.0171865)
(0.291729 0 -0.0109601)
(0.367688 0 0.0244948)
(0.362428 0 -0.0179791)
(0.268447 0 0.00972571)
(0.442067 1.92498e-24 0.00832929)
(0.197379 -2.63593e-24 -0.00762284)
(0.406994 0 0.014921)
(0.263298 0 -0.0160581)
(0.327064 1.33543e-24 0.0260996)
(0.390507 0 -0.014772)
(0.191772 -8.05417e-26 -0.000282504)
(0.426397 -1.58851e-26 0.0189088)
(0.2253 0 -0.0094079)
(0.375399 0 0.0274631)
(0.335993 0 -0.0165693)
(0.285381 1.15669e-24 0.017975)
(0.405281 -7.18804e-25 -0.000287314)
(0.204912 0 -0.00367257)
(0.412945 0 0.0206311)
(0.295587 0 -0.00891816)
(0.37219 -4.36519e-24 0.0218303)
(0.345255 0 -0.0155178)
(0.281632 -7.62402e-25 0.0129374)
(0.400076 -1.50037e-25 0.00301138)
(0.222395 1.90543e-24 -0.00218558)
(0.427789 -9.02477e-24 0.0272398)
(0.334578 0 -0.00774649)
(0.377142 2.04715e-24 0.021118)
(0.373547 0 -0.0128772)
(0.311826 -1.05567e-26 0.00910573)
(0.39106 -1.41215e-24 -0.0023926)
(0.256984 1.92668e-24 -0.00306996)
(0.412386 5.05881e-24 0.0149547)
(0.31894 -1.8801e-24 -0.00541775)
(0.406447 -4.23304e-24 0.0171731)
(0.350131 -4.52571e-24 -0.0116713)
(0.360095 2.75138e-24 0.0136982)
(0.380339 0 -0.014418)
(0.274593 0 0.000503063)
(0.409253 0 0.00953147)
(0.312017 0 -0.00425922)
(0.416301 0 0.00723413)
(0.316607 7.76436e-25 -0.0127001)
(0.363032 0 0.00748628)
(0.331951 -5.44135e-24 -0.0126732)
(0.345913 0 0.0119707)
(0.381403 -2.07999e-27 -0.00978097)
(0.311914 0 0.00171339)
(0.414544 0 0.00204639)
(0.296082 -6.89998e-24 -0.0100919)
(0.390032 -1.20913e-25 -0.00219787)
(0.263054 6.87142e-24 -0.0137974)
(0.35712 0 0.00869199)
(0.313923 8.46682e-24 -0.013493)
(0.335312 -1.93808e-25 0.0133476)
(0.366561 0 -0.0128469)
(0.282306 -1.69374e-24 0.00259154)
(0.402174 0 0.00553953)
(0.2772 0 -0.00677874)
(0.387456 -2.23075e-24 0.00762957)
(0.291097 0 -0.00808004)
(0.389209 0 0.0166942)
(0.329747 -4.2823e-24 -0.0109332)
(0.346008 -4.36411e-24 0.015633)
(0.365176 1.2833e-25 -0.0109765)
(0.295546 -7.62461e-24 0.00867563)
(0.419309 -2.45362e-24 0.0109381)
(0.315518 0 -0.00437709)
(0.393987 0 0.00471503)
(0.286179 -2.34378e-24 -0.00563273)
(0.39233 0 0.0159093)
(0.337683 5.73383e-24 -0.00621911)
(0.380798 6.87201e-24 0.0182513)
(0.376479 0 -0.0100979)
(0.350984 0 0.00906458)
(0.389153 0 -0.00811263)
(0.32427 5.80423e-25 -0.00307442)
(0.381248 0 -0.00312528)
(0.280068 1.92084e-24 -0.00615701)
(0.386046 -1.4925e-24 0.00668973)
(0.330618 4.84584e-24 -0.00600634)
(0.395478 2.24564e-24 0.00571345)
(0.313335 6.33214e-27 -0.0110681)
(0.369189 0 0.00917581)
(0.333202 5.64323e-24 -0.0118711)
(0.346511 0 0.0120449)
(0.36987 0 -0.0119365)
(0.281742 1.23683e-24 0.00261686)
(0.408674 0 0.0105144)
(0.31001 1.98285e-24 -0.00367391)
(0.410125 -2.8035e-24 0.00812584)
(0.301589 0 -0.00876921)
(0.385926 0 0.0146192)
(0.340146 2.55283e-24 -0.0093721)
(0.361628 -5.39101e-24 0.0157599)
(0.386656 1.62588e-24 -0.00971167)
(0.328031 -7.70106e-25 0.00162057)
(0.37611 3.49264e-25 -0.00581624)
(0.317698 0 -0.00754377)
(0.342746 -6.22451e-25 -0.00279508)
(0.321612 -1.31319e-25 -0.00158054)
(0.377804 0 0.00511359)
(0.323143 8.92834e-25 -0.000558513)
(0.405146 -5.58997e-24 0.011419)
(0.346814 0 -0.00490926)
(0.389636 0 0.00977988)
(0.353761 0 -0.00813186)
(0.367047 3.99691e-24 0.00892829)
(0.373029 0 -0.00895507)
(0.335757 7.41404e-26 0.00233098)
(0.373595 0 -0.00576106)
(0.302102 -2.95328e-24 -0.00468138)
(0.376011 -1.40936e-24 0.00362702)
(0.341451 -5.5592e-25 -0.00346012)
(0.382102 2.66383e-27 0.00440946)
(0.331498 0 -0.00354481)
(0.392631 0 0.00987224)
(0.347657 -1.38707e-24 -0.00487923)
(0.382794 -7.2994e-24 0.0103475)
(0.368552 4.22573e-24 -0.008846)
(0.347878 1.47041e-24 0.0034493)
(0.36743 0 -0.00901321)
(0.305642 0 -0.00180769)
(0.392594 -2.78554e-25 0.00320347)
(0.332088 0 -0.00422713)
(0.383755 -1.39394e-24 0.0020225)
(0.309703 0 -0.00534389)
(0.372646 -1.2274e-24 0.0097318)
(0.338203 1.70219e-24 -0.00216386)
(0.38629 -2.61317e-27 0.0160481)
(0.380325 0 -0.00499513)
(0.366851 -4.11615e-24 0.00770107)
(0.379228 2.71548e-24 -0.00617029)
(0.342408 1.78522e-24 0.000314312)
(0.366313 -1.38457e-24 -0.00306637)
(0.322449 -2.67e-25 -0.00129596)
(0.389759 -7.94085e-25 0.0039367)
(0.320534 5.80305e-24 -0.00279959)
(0.383603 0 0.00852421)
(0.352179 1.09657e-27 -0.002796)
(0.391147 1.51877e-24 0.00714241)
(0.335131 0 -0.00660161)
(0.371764 -2.78278e-24 0.0104771)
(0.360091 -5.41433e-25 -0.00560661)
(0.350828 -4.03198e-24 0.00711906)
(0.36052 0 -0.00499581)
(0.33831 0 0.00564249)
(0.376173 0 0.00143327)
(0.333656 -1.74746e-25 0.00147583)
(0.382914 0 0.00704427)
(0.352509 -9.73725e-26 0.00157177)
(0.382801 0 0.00607522)
(0.341647 0 -0.000679177)
(0.385549 0 0.0062194)
(0.330671 1.30267e-24 -0.00947996)
(0.29231 -5.65073e-25 0.00228619)
(0.336618 7.02547e-25 0.00564651)
(0.339843 2.68213e-24 0.0107944)
(0.341479 1.27513e-24 0.0118048)
(0.354372 -2.63048e-24 0.0197056)
(0.346627 0 0.0213199)
(0.380607 -6.22682e-24 0.0376761)
(0.35102 1.8609e-23 0.0373237)
(0.466708 0 0.105655)
(0.658312 0 0.124325)
(0.537859 0 0.0106848)
(0.305856 5.62769e-28 0.00115673)
(0.32572 3.75458e-29 -0.000471237)
(1.70578 0 0.0462011)
(1.46484 0 0.0262866)
(1.26354 0 0.0112044)
(1.15627 0 0.00443932)
(1.09376 0 0.00223491)
(1.05073 0 0.00149982)
(1.01871 0 0.00123663)
(0.9923 0 0.00111526)
(0.969884 0 0.00100514)
(0.951119 0 0.000888227)
(0.934837 0 0.000786339)
(0.92059 0 0.000708106)
(0.907865 0 0.000635308)
(0.896693 0 0.00056858)
(0.886716 0 0.00051544)
(0.87762 0 0.000471228)
(0.869358 0 0.000435552)
(0.861718 0 0.000401423)
(0.854787 0 0.000366638)
(0.848307 0 0.000337367)
(0.842262 0 0.000317201)
(0.83658 0 0.000299223)
(0.831269 0 0.000282107)
(0.826282 0 0.000265214)
(0.821611 0 0.000250775)
(0.817175 0 0.000238082)
(0.812994 0 0.000226345)
(0.809011 0 0.000215879)
(0.805242 0 0.000204576)
(0.801668 -9.21955e-39 0.000195532)
(0.798247 -8.74863e-39 0.000186723)
(0.794993 -1.66711e-38 0.000179346)
(0.791862 0 0.000171899)
(0.78888 3.03564e-38 0.000164978)
(0.786014 0 0.000158019)
(0.783278 2.77097e-38 0.000152231)
(0.780631 3.32515e-39 0.000146798)
(0.778094 0 0.000141487)
(0.775642 0 0.000136936)
(0.773281 9.42986e-38 0.000131745)
(0.771008 -1.92722e-37 0.000127474)
(0.768809 -1.85898e-37 0.000123321)
(0.766682 -2.1058e-38 0.000119446)
(0.764628 0 0.000116038)
(0.762626 3.93317e-38 0.00011227)
(0.760706 2.66695e-37 0.000109011)
(0.758824 -5.87371e-37 0.000105457)
(0.757026 0 0.000102893)
(0.755243 0 9.9755e-05)
(0.753552 1.07145e-36 9.72767e-05)
(0.751864 9.10113e-37 9.46061e-05)
(0.750267 1.13516e-36 9.19356e-05)
(0.748672 1.22342e-37 8.95132e-05)
(0.747163 2.37796e-37 8.71766e-05)
(0.745649 -2.30927e-37 8.50198e-05)
(0.744219 0 8.29529e-05)
(0.742778 0 8.07708e-05)
(0.741424 0 7.92106e-05)
(0.740054 0 7.71086e-05)
(0.738782 0 7.52697e-05)
(0.737478 -1.23351e-35 7.32154e-05)
(0.736276 0 7.13914e-05)
(0.735033 -1.45852e-36 6.94806e-05)
(0.733899 0 6.76893e-05)
(0.732714 0 6.57355e-05)
(0.73165 0 6.39775e-05)
(0.730521 0 6.21297e-05)
(0.729525 0 6.02422e-05)
(0.728453 0 5.84295e-05)
(0.727525 0 5.62327e-05)
(0.726516 0 5.42738e-05)
(0.725663 -7.02706e-35 5.18518e-05)
(0.724721 -1.17891e-34 4.95897e-05)
(0.723954 1.60113e-35 4.68232e-05)
(0.723088 -1.52988e-35 4.43757e-05)
(0.722416 2.84766e-35 4.07253e-05)
(0.721646 2.15249e-34 3.79804e-05)
(0.721085 3.88535e-34 3.32152e-05)
(0.720437 4.01993e-34 2.96863e-05)
(0.720017 3.39099e-34 2.349e-05)
(0.719529 0 1.90825e-05)
(0.719281 3.83849e-34 1.00776e-05)
(0.719021 0 4.77727e-06)
(0.718997 3.02228e-36 -7.0959e-06)
(0.719069 -1.1458e-34 -1.42072e-05)
(0.719318 0 -2.9425e-05)
(0.719763 2.38884e-34 -4.20129e-05)
(0.720499 0 -6.85411e-05)
(0.721668 -1.15502e-33 -8.24936e-05)
(0.722933 -2.79815e-32 -0.000122464)
(0.725244 0 -0.000142389)
(0.727328 1.09176e-31 -0.000213957)
(0.731592 0 -0.000253949)
(0.735031 -4.68785e-32 -0.000373019)
(0.742893 -1.59913e-30 -0.000456007)
(0.748457 0 -0.000746189)
(0.765843 0 -0.000712236)
(0.771063 0 -0.0030997)
(0.857891 -5.34765e-26 -0.000797713)
(0.82254 7.15578e-23 -0.086757)
(0.367918 -1.12022e-25 -0.0512149)
(0.378928 1.94411e-24 -0.0464574)
(0.419435 0 -0.0449371)
(0.425919 0 -0.0352355)
(0.452236 -1.25013e-28 -0.03334)
(0.469632 -1.11265e-24 -0.0277855)
(0.477168 -1.34414e-28 -0.024852)
(0.507909 -6.60585e-25 -0.0201422)
(0.490579 -3.12786e-27 -0.0196208)
(0.533015 -8.94724e-25 -0.000131256)
(0.613901 0 -0.00577927)
(0.502488 1.51652e-23 -0.0223075)
(0.591582 0 0.00303199)
(0.546975 0 -0.0303848)
(0.534577 0 0.00717587)
(0.610813 1.19181e-23 -0.0163353)
(0.466843 1.37789e-26 -0.0175816)
(0.620021 -2.80851e-24 0.0139038)
(0.496613 0 -0.0207659)
(0.629547 0 0.0234186)
(0.537161 7.51977e-23 -0.0491413)
(0.42447 0 0.0078353)
(0.620578 -4.20168e-24 0.0137053)
(0.46587 -7.39919e-24 -0.0138081)
(0.614783 2.50014e-24 0.022918)
(0.495306 -6.96221e-24 -0.0163983)
(0.600865 -2.33782e-23 0.0336468)
(0.593647 0 -0.0358384)
(0.477338 0 0.0026193)
(0.588643 0 -0.00328252)
(0.419577 2.36374e-24 -0.0129114)
(0.590538 0 0.0232487)
(0.499376 -4.77065e-24 -0.0174855)
(0.579731 0 0.0324928)
(0.581193 2.81469e-23 -0.0244642)
(0.492233 0 0.0172141)
(0.640473 7.48177e-24 0.0128215)
(0.447694 3.34341e-24 -0.0165241)
(0.62152 1.21874e-24 0.0213086)
(0.469931 0 -0.0286562)
(0.529689 1.85682e-24 0.0387485)
(0.602828 -2.40244e-23 -0.0210103)
(0.429907 -1.31515e-25 0.00026022)
(0.613277 -9.18593e-24 0.0262369)
(0.436003 0 -0.0167221)
(0.578864 0 0.0385127)
(0.548833 0 -0.0263355)
(0.500986 4.36411e-24 0.0291297)
(0.620093 0 0.00134008)
(0.440123 0 -0.00766331)
(0.611176 2.34136e-23 0.0288375)
(0.506576 0 -0.0142725)
(0.586079 0 0.0320531)
(0.565188 3.32098e-23 -0.0247411)
(0.503509 4.62588e-25 0.0209958)
(0.61566 -3.09777e-25 0.00596327)
(0.447844 2.70199e-24 -0.00493582)
(0.636519 -1.84201e-23 0.038065)
(0.558458 0 -0.0118391)
(0.60372 -3.69718e-26 0.031033)
(0.60504 0 -0.0190176)
(0.547304 -1.68749e-24 0.0148914)
(0.617533 -2.97537e-24 -0.00296537)
(0.494953 -7.39301e-27 -0.00581712)
(0.62337 1.00602e-23 0.0217305)
(0.541421 0 -0.00796243)
(0.634964 0 0.0258656)
(0.584987 -9.4529e-24 -0.0196102)
(0.592419 -3.15688e-24 0.0208026)
(0.612485 1.60867e-23 -0.022344)
(0.514112 0 0.000765325)
(0.620817 0 0.01343)
(0.551583 -3.4654e-24 -0.00700246)
(0.648556 0 0.011573)
(0.542697 0 -0.0212402)
(0.587253 0 0.010905)
(0.556258 -1.07763e-23 -0.0217513)
(0.569365 0 0.018299)
(0.607246 9.8786e-24 -0.0147789)
(0.543755 0 0.00279189)
(0.633303 0 0.00350043)
(0.541794 3.05305e-27 -0.0176932)
(0.615278 0 -0.00283375)
(0.469887 1.0471e-23 -0.024053)
(0.567702 0 0.0117628)
(0.527414 9.78059e-24 -0.0235154)
(0.547078 -2.27277e-26 0.0202724)
(0.580997 0 -0.0189117)
(0.502843 3.01985e-24 0.0046042)
(0.603811 -2.00065e-24 0.00785786)
(0.510755 -2.89553e-24 -0.0117299)
(0.604637 -2.44181e-24 0.011361)
(0.50407 9.43033e-24 -0.0136071)
(0.609243 0 0.0241955)
(0.553488 0 -0.0188677)
(0.56598 -9.48889e-24 0.0245322)
(0.585249 1.38048e-24 -0.0160666)
(0.52132 0 0.0143005)
(0.630845 5.36925e-24 0.015019)
(0.566036 9.8838e-25 -0.00629985)
(0.623462 0 0.00786372)
(0.507403 4.50002e-24 -0.00990335)
(0.616761 0 0.0234786)
(0.563438 -2.23119e-26 -0.00982415)
(0.606696 0 0.0260129)
(0.607747 -1.3266e-24 -0.013195)
(0.586967 0 0.0148932)
(0.623061 0 -0.0123628)
(0.563035 9.79392e-25 -0.0053533)
(0.602129 0 -0.00500453)
(0.518168 0 -0.0117205)
(0.607444 -2.60873e-24 0.0104247)
(0.552267 0 -0.00979614)
(0.624387 4.27928e-24 0.00908112)
(0.532318 -3.57597e-24 -0.0180904)
(0.591079 -3.10072e-24 0.0133152)
(0.557509 -1.14659e-23 -0.0204527)
(0.569149 0 0.0184245)
(0.593002 0 -0.0181414)
(0.512448 4.19463e-24 0.00467292)
(0.615 0 0.0149297)
(0.546941 1.01331e-24 -0.00594036)
(0.64119 -8.48529e-25 0.0128941)
(0.524906 0 -0.0149312)
(0.613435 0 0.0213679)
(0.569557 0 -0.0164407)
(0.588594 1.01985e-23 0.0247883)
(0.614887 3.59552e-24 -0.0139637)
(0.562336 0 0.00296937)
(0.602291 0 -0.0088279)
(0.549574 0 -0.0127022)
(0.562861 0 -0.00496657)
(0.541937 0 -0.00319534)
(0.593733 1.40318e-24 0.00739154)
(0.550239 0 -0.000720414)
(0.631188 -2.08448e-23 0.018011)
(0.575473 0 -0.00753003)
(0.621437 0 0.0151657)
(0.588298 3.69061e-24 -0.0136663)
(0.601738 4.94443e-27 0.0135571)
(0.608369 0 -0.0143071)
(0.57262 2.01029e-25 0.00335534)
(0.602359 0 -0.00857053)
(0.533681 -4.9228e-24 -0.00810936)
(0.592021 7.97901e-28 0.00549796)
(0.566642 -1.1228e-24 -0.00501763)
(0.610821 -4.34073e-24 0.00693286)
(0.558844 0 -0.00629606)
(0.625927 0 0.0147466)
(0.581718 -3.13038e-24 -0.00832762)
(0.61569 -1.24451e-23 0.0163149)
(0.602364 1.22358e-23 -0.0136171)
(0.581971 0 0.00567103)
(0.596851 0 -0.0139769)
(0.546868 3.17209e-25 -0.00286395)
(0.605165 7.60836e-25 0.00406481)
(0.569007 0 -0.00723864)
(0.614174 0 0.0030741)
(0.535478 0 -0.00942103)
(0.597785 -5.94321e-24 0.0147545)
(0.560387 1.36026e-24 -0.00305232)
(0.61264 4.13146e-27 0.0232741)
(0.613831 0 -0.00559353)
(0.604592 -1.71131e-23 0.0127092)
(0.616293 4.6896e-24 -0.00967735)
(0.582226 9.94387e-25 0.000185707)
(0.599745 -2.62421e-24 -0.0053911)
(0.563881 0 -0.00227903)
(0.609285 -2.7403e-24 0.00634)
(0.548908 4.92069e-24 -0.00429913)
(0.609831 -1.10068e-23 0.0136591)
(0.578952 -1.23444e-24 -0.00442593)
(0.627892 0 0.0109806)
(0.568285 0 -0.0110907)
(0.604004 -5.12088e-24 0.0158826)
(0.591908 0 -0.009149)
(0.581703 0 0.0117644)
(0.588504 -2.85452e-24 -0.00701507)
(0.568494 0 0.00904128)
(0.602538 0 0.00232922)
(0.56843 0 0.00269994)
(0.60709 0 0.0109889)
(0.585267 -1.49841e-25 0.00276641)
(0.615725 6.87636e-25 0.00991841)
(0.574717 -1.10442e-25 -0.00113345)
(0.619958 0 0.00971431)
(0.556974 0 -0.0140389)
(0.515414 1.10799e-24 0.00445515)
(0.544544 1.47034e-24 0.00867499)
(0.552358 2.70289e-24 0.0173769)
(0.554198 0 0.018835)
(0.572059 0 0.0316894)
(0.562665 -8.1273e-24 0.034076)
(0.605984 -1.32166e-23 0.0598543)
(0.5701 7.60934e-23 0.0598557)
(0.704453 9.15879e-23 0.152332)
(0.954524 0 0.176652)
(0.878283 0 0.0147906)
(0.649014 8.40987e-27 0.00673168)
(0.590785 1.08601e-28 0.0017129)
(1.79256 0 0.0536381)
(1.73299 0 0.0366392)
(1.59333 0 0.0192324)
(1.46852 0 0.00965789)
(1.37904 0 0.00580162)
(1.31285 0 0.00415539)
(1.26267 0 0.00326436)
(1.22332 0 0.00273858)
(1.19139 0 0.00234261)
(1.16526 0 0.00201869)
(1.14267 0 0.00177252)
(1.12312 0 0.00157728)
(1.1059 0 0.00140065)
(1.09088 0 0.00124403)
(1.07751 0 0.00112341)
(1.06537 0 0.00102352)
(1.0544 0 0.000940631)
(1.04434 0 0.000863085)
(1.03523 0 0.000793011)
(1.02677 0 0.000736839)
(1.01892 0 0.000691049)
(1.01157 0 0.000648921)
(1.00474 0 0.000609301)
(0.998333 0 0.000571728)
(0.99234 0 0.000539635)
(0.986664 -2.71068e-38 0.000511209)
(0.981321 1.27704e-38 0.000484756)
(0.976251 0 0.000461111)
(0.971457 2.28697e-38 0.000436587)
(0.966917 -1.08327e-38 0.000416629)
(0.962576 -5.14231e-38 0.000397425)
(0.958454 5.87445e-38 0.000380875)
(0.954496 0 0.000364544)
(0.950733 3.56955e-38 0.000349288)
(0.947119 0 0.000334443)
(0.943669 3.25661e-38 0.000321742)
(0.940339 2.50066e-37 0.000309923)
(0.93715 -2.39681e-37 0.000298355)
(0.934073 -4.61402e-37 0.000288257)
(0.931113 1.10915e-37 0.000277308)
(0.928264 -2.13121e-37 0.00026799)
(0.925512 2.05552e-37 0.000259143)
(0.92285 0 0.000250702)
(0.920283 7.66033e-37 0.000243309)
(0.917784 0 0.000235244)
(0.915389 3.57932e-37 0.000228275)
(0.913042 -6.90335e-37 0.000220791)
(0.910801 0 0.000215141)
(0.908583 2.59284e-36 0.000208552)
(0.906477 1.2569e-36 0.00020314)
(0.904381 1.22102e-36 0.000197449)
(0.902395 1.18487e-36 0.00019186)
(0.900415 0 0.000186677)
(0.898541 0 0.000181775)
(0.896663 -8.67272e-36 0.000177115)
(0.89489 0 0.000172752)
(0.893103 -1.64045e-35 0.000168182)
(0.891427 0 0.000164417)
(0.889731 0 0.000159798)
(0.888153 0 0.000155902)
(0.88654 1.46952e-35 0.000151631)
(0.885049 0 0.000147871)
(0.883512 5.56554e-35 0.000143856)
(0.882107 5.42841e-35 0.000140203)
(0.880642 -1.054e-34 0.000136143)
(0.879321 0 0.000132567)
(0.877926 0 0.000128718)
(0.876688 -1.93914e-34 0.000124937)
(0.875363 0 0.000121152)
(0.874208 0 0.000116855)
(0.872958 -3.53764e-34 0.000112768)
(0.871894 -8.55759e-35 0.000108081)
(0.870725 -1.64778e-34 0.000103436)
(0.869762 0 9.80731e-05)
(0.868683 0 9.30815e-05)
(0.867831 1.15024e-33 8.61119e-05)
(0.866866 1.37048e-33 8.04868e-05)
(0.866142 5.09828e-34 7.14961e-05)
(0.865319 4.7755e-34 6.43761e-05)
(0.864756 4.26449e-34 5.26352e-05)
(0.864118 0 4.40135e-05)
(0.86375 6.41538e-34 2.73142e-05)
(0.863372 0 1.65928e-05)
(0.86325 -2.5616e-33 -7.17362e-06)
(0.863271 2.0828e-34 -2.06315e-05)
(0.863467 2.28908e-33 -4.84663e-05)
(0.863891 -1.20517e-33 -7.34235e-05)
(0.864626 0 -0.000124336)
(0.865875 -2.23618e-32 -0.000150429)
(0.867192 -2.19098e-32 -0.000227985)
(0.869733 0 -0.000268091)
(0.871975 -2.34863e-31 -0.000400658)
(0.876635 0 -0.000477677)
(0.880389 1.10952e-30 -0.000700036)
(0.888963 8.95444e-31 -0.000859358)
(0.8951 0 -0.00137608)
(0.913639 -1.07996e-28 -0.00153224)
(0.920609 -1.0895e-27 -0.00518381)
(1.00023 1.02703e-25 -0.00637892)
(0.970342 -8.25615e-23 -0.0901121)
(0.603726 3.68922e-23 -0.0793705)
(0.526694 7.27649e-24 -0.0619045)
(0.535292 0 -0.0570805)
(0.533283 0 -0.0448098)
(0.552937 2.57537e-28 -0.0414633)
(0.56881 -5.38133e-25 -0.0342248)
(0.575002 6.37922e-25 -0.0307332)
(0.606671 -5.16496e-25 -0.0245435)
(0.591593 -3.04924e-25 -0.0239944)
(0.631055 -8.30815e-25 -0.00292074)
(0.709537 0 -0.00748565)
(0.631442 -2.22029e-26 -0.0277213)
(0.688149 0 0.000641562)
(0.661497 0 -0.033566)
(0.64531 -4.39708e-24 0.00740365)
(0.719951 -1.0412e-23 -0.0178164)
(0.607863 -8.23434e-24 -0.0218657)
(0.707201 0 0.0130269)
(0.624454 5.31987e-24 -0.0256377)
(0.720256 9.16705e-24 0.0226686)
(0.658725 4.4916e-23 -0.0529976)
(0.547521 0 0.00966566)
(0.718705 0 0.0151642)
(0.606879 -1.96182e-23 -0.0180216)
(0.699591 -4.60314e-24 0.0226577)
(0.623497 2.25052e-26 -0.0188213)
(0.701957 -2.48762e-23 0.0365683)
(0.706107 0 -0.0392515)
(0.599282 0 0.00328122)
(0.695279 0 -0.0029711)
(0.561897 -8.84187e-25 -0.0173921)
(0.676387 0 0.023149)
(0.616312 2.62559e-27 -0.019397)
(0.680075 -1.93158e-24 0.0359296)
(0.691242 6.07814e-23 -0.0271332)
(0.609306 1.25572e-23 0.0193033)
(0.741035 1.74826e-24 0.0150282)
(0.6006 -4.82148e-26 -0.0211173)
(0.702609 -2.9491e-24 0.0210881)
(0.603339 -2.73112e-23 -0.0314347)
(0.631878 0 0.0417546)
(0.709368 -2.48104e-23 -0.0220508)
(0.557445 -1.09826e-25 -0.00047722)
(0.702105 -1.02968e-23 0.0287013)
(0.569907 -3.77935e-25 -0.0202078)
(0.67247 0 0.039525)
(0.659367 0 -0.0264321)
(0.611815 0 0.0332477)
(0.726206 0 0.00256398)
(0.586954 0 -0.00940374)
(0.695369 -4.19002e-26 0.029273)
(0.629158 -5.05942e-25 -0.0157111)
(0.686348 0 0.0338473)
(0.678584 1.71853e-23 -0.0248233)
(0.61895 -2.97955e-24 0.0243233)
(0.723557 -3.20506e-25 0.00781461)
(0.594674 0 -0.00611418)
(0.722516 -2.15099e-23 0.038284)
(0.67935 0 -0.011944)
(0.712723 -1.14365e-23 0.0352384)
(0.72154 0 -0.0201784)
(0.667664 4.94259e-25 0.0168887)
(0.732791 1.58944e-24 -0.00272548)
(0.636879 -2.16863e-24 -0.00709195)
(0.719952 -5.24605e-27 0.0225585)
(0.666682 0 -0.00889824)
(0.738233 0 0.0266797)
(0.709178 0 -0.0187402)
(0.708696 4.14557e-25 0.0226637)
(0.731441 1.57884e-23 -0.0244398)
(0.641111 -1.83619e-25 0.000255949)
(0.730272 0 0.014493)
(0.684907 -1.72546e-24 -0.00896956)
(0.746874 4.65126e-24 0.0117841)
(0.675667 0 -0.0231405)
(0.697578 0 0.0110818)
(0.677612 -1.19176e-23 -0.0225516)
(0.682399 0 0.0188898)
(0.722066 -1.03023e-23 -0.0166896)
(0.664168 0 0.00207638)
(0.739142 0 0.0030132)
(0.675779 5.00289e-24 -0.0209264)
(0.716908 0 -0.0028852)
(0.604746 -1.01725e-23 -0.0283525)
(0.669842 0 0.0107091)
(0.645532 -9.07089e-27 -0.0246132)
(0.654237 3.10797e-24 0.0206807)
(0.690848 0 -0.0211458)
(0.619303 5.41546e-24 0.00443227)
(0.707875 -1.93006e-24 0.00886076)
(0.64057 -1.17117e-24 -0.0136817)
(0.698195 1.84397e-24 0.0120225)
(0.631066 8.96114e-24 -0.0149984)
(0.70754 0 0.0242581)
(0.674366 -1.35803e-23 -0.0185564)
(0.676912 6.1851e-24 0.0262099)
(0.698757 5.84378e-24 -0.0175765)
(0.639073 0 0.0159341)
(0.737234 -6.20177e-27 0.0169591)
(0.690765 -3.90623e-28 -0.0066491)
(0.726376 0 0.00950116)
(0.644752 4.59254e-24 -0.0114049)
(0.720048 0 0.0237794)
(0.688343 -4.74969e-25 -0.0105168)
(0.71869 -1.2768e-23 0.0289713)
(0.725144 2.31993e-25 -0.0145954)
(0.705154 0 0.0167657)
(0.740867 0 -0.0130807)
(0.686041 7.71633e-25 -0.00587557)
(0.718002 0 -0.00542248)
(0.653633 0 -0.014558)
(0.709724 -2.72692e-24 0.00971471)
(0.677708 0 -0.0115892)
(0.727457 4.41664e-24 0.00959654)
(0.66071 2.36096e-24 -0.020194)
(0.698308 2.28852e-25 0.0137612)
(0.677859 -1.25034e-23 -0.0206018)
(0.681412 0 0.0192395)
(0.707782 0 -0.0201872)
(0.6338 2.56933e-27 0.00453148)
(0.722032 0 0.0163757)
(0.676941 5.38917e-25 -0.00688735)
(0.735811 0 0.0138805)
(0.660867 0 -0.0161613)
(0.71987 0 0.0218023)
(0.69406 -1.06824e-23 -0.0161146)
(0.702491 1.06124e-23 0.0258023)
(0.731439 1.01175e-26 -0.015653)
(0.683186 1.39059e-24 0.00303417)
(0.718222 9.70047e-25 -0.00965611)
(0.670847 0 -0.01417)
(0.677725 -7.73952e-25 -0.00540224)
(0.661052 0 -0.00382561)
(0.701485 2.53626e-24 0.0077793)
(0.671946 0 -0.00155255)
(0.732211 -1.98516e-23 0.0183068)
(0.699707 0 -0.00767987)
(0.731923 6.25574e-24 0.0166425)
(0.711714 3.77645e-24 -0.0134481)
(0.718255 -5.14763e-27 0.0147612)
(0.728104 1.38097e-23 -0.0159225)
(0.694219 -2.0398e-25 0.0031384)
(0.72071 0 -0.00996472)
(0.663686 3.58464e-24 -0.00983312)
(0.700749 5.33633e-24 0.00548607)
(0.684251 0 -0.00574842)
(0.718005 -9.14356e-25 0.00776971)
(0.684218 0 -0.0061709)
(0.734149 0 0.015178)
(0.707524 0 -0.00897126)
(0.729846 -6.506e-24 0.0165669)
(0.72387 -5.74242e-27 -0.0146035)
(0.702259 0 0.00612883)
(0.715785 5.20101e-25 -0.0155016)
(0.669556 9.52753e-25 -0.00360664)
(0.716741 9.17491e-25 0.00473784)
(0.692028 1.5174e-24 -0.00790714)
(0.720266 1.61215e-24 0.00363607)
(0.665749 -4.73819e-24 -0.0107486)
(0.706512 -3.7746e-24 0.0154316)
(0.682282 7.50961e-25 -0.00331519)
(0.725125 -1.13312e-23 0.0254898)
(0.731433 0 -0.0060385)
(0.723063 -8.94103e-24 0.0145555)
(0.736084 0 -0.00996797)
(0.704467 -7.68776e-25 0.000606379)
(0.71965 -2.43632e-24 -0.00596344)
(0.686925 0 -0.00309183)
(0.720092 -1.21899e-24 0.00682868)
(0.67822 3.53079e-24 -0.00540581)
(0.719177 -1.1035e-23 0.0144562)
(0.700952 -9.75117e-25 -0.00407998)
(0.738515 0 0.0124837)
(0.69535 0 -0.0116998)
(0.718587 0 0.0166668)
(0.712783 0 -0.00966201)
(0.70046 0 0.0129771)
(0.706987 -2.42204e-24 -0.00750064)
(0.687069 0 0.010343)
(0.718378 0 0.00302936)
(0.690393 -2.69687e-25 0.00340438)
(0.71881 -1.68227e-24 0.0123042)
(0.706782 -6.62248e-26 0.00355107)
(0.727301 1.02116e-24 0.0111875)
(0.701024 9.87735e-27 -0.000761743)
(0.731959 0 0.0112868)
(0.678565 -1.87318e-24 -0.0146286)
(0.635778 1.162e-24 0.00556479)
(0.656578 0 0.0103006)
(0.66249 0 0.0203373)
(0.66495 0 0.0223969)
(0.682446 0 0.0373247)
(0.674821 -9.36899e-24 0.0403435)
(0.717434 0 0.0702991)
(0.687178 3.96875e-23 0.0709704)
(0.800384 -1.70108e-25 0.163587)
(1.06873 -1.26249e-23 0.185245)
(1.03654 2.25274e-24 0.0309621)
(0.861523 9.35476e-27 0.01396)
(0.751667 0 0.00518592)
(1.81929 0 0.0517659)
(1.81904 0 0.0393096)
(1.77529 0 0.0256073)
(1.68193 0 0.0157438)
(1.59188 0 0.0106345)
(1.51468 0 0.00790675)
(1.45128 0 0.00619254)
(1.39989 0 0.00506982)
(1.35846 0 0.00423184)
(1.32433 0 0.00358884)
(1.29548 0 0.00310827)
(1.27103 0 0.00273341)
(1.24967 0 0.00241228)
(1.23111 0 0.00213677)
(1.21458 0 0.00192897)
(1.19959 0 0.00175308)
(1.18614 0 0.00160229)
(1.17387 0 0.00146435)
(1.16278 0 0.0013429)
(1.15251 0 0.0012462)
(1.14301 0 0.0011645)
(1.13417 3.59028e-38 0.00108963)
(1.12597 3.35308e-38 0.00102021)
(1.11832 1.56874e-38 0.000956067)
(1.11115 -2.9395e-38 0.000901201)
(1.10438 -2.76557e-38 0.00085228)
(1.09802 6.5111e-38 0.000806673)
(1.09201 0 0.000765826)
(1.08633 1.16589e-37 0.00072467)
(1.08096 0 0.000690761)
(1.07583 -4.19185e-38 0.000658326)
(1.07096 -7.97594e-38 0.000629888)
(1.0663 0 0.000602198)
(1.06188 0 0.000576318)
(1.05763 -2.77539e-37 0.00055167)
(1.05358 5.3003e-37 0.00053018)
(1.04968 -2.54292e-37 0.000510242)
(1.04595 -7.30897e-37 0.000490755)
(1.04235 -4.68564e-37 0.000473538)
(1.0389 -9.01469e-37 0.000455482)
(1.03557 0 0.000439807)
(1.03236 4.17242e-37 0.000425086)
(1.02926 0 0.000410904)
(1.02628 -2.3294e-36 0.000398451)
(1.02337 0 0.000385045)
(1.02059 0 0.000373435)
(1.01787 -5.59636e-36 0.000361148)
(1.01527 -5.41809e-36 0.000351553)
(1.0127 -2.62506e-36 0.000340735)
(1.01026 0 0.000331607)
(1.00784 -9.8786e-36 0.000322167)
(1.00554 0 0.000313001)
(1.00325 0 0.000304403)
(1.00108 1.80589e-35 0.000296341)
(0.99892 -8.76348e-36 0.000288565)
(0.996872 0 0.00028137)
(0.994815 -1.65792e-35 0.000273829)
(0.992881 0 0.000267281)
(0.990927 0 0.000259668)
(0.989105 0 0.000253281)
(0.987246 2.98464e-35 0.000246339)
(0.985525 1.16343e-34 0.000240221)
(0.983755 1.69696e-34 0.00023364)
(0.982132 -1.65607e-34 0.000227736)
(0.980446 1.07321e-34 0.000221138)
(0.978921 2.09119e-34 0.000215378)
(0.977316 0 0.000209109)
(0.975884 -5.94473e-34 0.000203088)
(0.97436 0 0.000196907)
(0.973023 0 0.000190185)
(0.971584 3.64727e-34 0.000183528)
(0.970349 0 0.000176258)
(0.969 -1.37341e-33 0.000168776)
(0.967876 -1.32474e-33 0.000160471)
(0.966629 -2.57134e-33 0.00015245)
(0.965626 1.22961e-33 0.000141797)
(0.964503 1.1877e-33 0.000132726)
(0.96364 0 0.000119122)
(0.962671 0 0.00010775)
(0.961979 0 9.00071e-05)
(0.961209 0 7.62467e-05)
(0.960725 0 5.12128e-05)
(0.96023 0 3.4125e-05)
(0.960006 -5.07094e-33 -1.81086e-06)
(0.959928 0 -2.47827e-05)
(0.960066 2.70092e-32 -6.49874e-05)
(0.960418 2.18092e-32 -0.000103655)
(0.961089 0 -0.000180938)
(0.962302 -3.78922e-34 -0.000221449)
(0.963589 5.79092e-32 -0.000339435)