/*--------------------------------*- C++ -*----------------------------------*\
| =========                 |                                                 |
| \\      /  F ield         | foam-extend: Open Source CFD                    |
|  \\    /   O peration     | Version:     3.2                                |
|   \\  /    A nd           | Web:         http://www.foam-extend.org         |
|    \\/     M anipulation  | For copyright notice see file Copyright         |
\*---------------------------------------------------------------------------*/
FoamFile
{
    version     2.0;
    format      ascii;
    class       areaVectorField;
    location    "160";
    object      Ub2;
}
// * * * * * * * * * * * * * * * * * * * * * * * * * * * * * * * * * * * * * //

dimensions      [0 1 -1 0 0 0 0];

internalField   nonuniform List<vector> 
300
(
(1.94961 0 0)
(1.70115 0 0)
(1.35641 0 0)
(1.19512 0 0)
(1.12979 0 0)
(1.09436 0 0)
(1.06816 0 0)
(1.04483 0 0)
(1.02301 0 0)
(1.0029 0 0)
(0.9847 0 0)
(0.968219 0 0)
(0.953132 0 0)
(0.939523 0 0)
(0.927155 0 0)
(0.915806 0 0)
(0.90534 0 0)
(0.895599 0 0)
(0.886615 0 0)
(0.878363 0 0)
(0.870653 0 0)
(0.863364 0 0)
(0.856481 0 0)
(0.849981 0 0)
(0.843856 0 0)
(0.838026 0 0)
(0.832494 0 0)
(0.827206 0 0)
(0.822179 0 0)
(0.817392 0 0)
(0.812806 0 0)
(0.808418 0 0)
(0.804195 0 0)
(0.800149 0 0)
(0.79626 0 0)
(0.792531 0 0)
(0.788922 2.28505e-39 0)
(0.785451 0 0)
(0.78209 0 0)
(0.778847 0 0)
(0.775718 -7.73767e-39 0)
(0.772686 -7.45262e-39 0)
(0.769752 -1.43321e-38 0)
(0.766905 0 0)
(0.76414 2.66695e-38 0)
(0.761465 -2.58231e-38 0)
(0.758862 0 0)
(0.756346 0 0)
(0.75388 0 0)
(0.751502 0 0)
(0.749163 0 0)
(0.746911 8.48045e-38 0)
(0.744697 8.21887e-38 0)
(0.742563 0 0)
(0.74046 -1.54833e-37 0)
(0.73843 1.50689e-37 0)
(0.736426 0 0)
(0.734498 -2.79374e-37 0)
(0.732563 0 0)
(0.730722 0 0)
(0.728875 0 0)
(0.727129 9.84867e-37 0)
(0.72537 0 0)
(0.723715 0 0)
(0.72204 0 0)
(0.720479 1.74647e-36 0)
(0.718884 0 0)
(0.717414 0 0)
(0.715901 0 0)
(0.714524 0 0)
(0.713101 0 0)
(0.711825 5.60601e-36 0)
(0.710499 1.07357e-35 0)
(0.709338 0 0)
(0.70812 0 0)
(0.707088 0 0)
(0.706003 0 0)
(0.705123 1.44271e-35 0)
(0.704207 0 0)
(0.703521 2.06391e-35 0)
(0.702821 0 0)
(0.702377 2.22958e-35 0)
(0.701985 0 0)
(0.701835 -1.74789e-35 0)
(0.70185 -3.34624e-35 0)
(0.702124 0 0)
(0.702635 2.4557e-34 0)
(0.703563 -4.65917e-34 0)
(0.704933 0 0)
(0.706707 3.48292e-33 0)
(0.709321 3.75229e-33 0)
(0.712286 0 0)
(0.717255 1.32459e-32 0)
(0.722244 -3.94551e-32 0)
(0.731582 0 0)
(0.739684 0 0)
(0.761143 1.38388e-29 0)
(0.76439 1.99603e-28 0)
(0.889549 -5.41863e-26 0)
(0.835132 -1.10309e-22 -0.110237)
(0.362149 4.24301e-23 -0.063439)
(0.344171 -1.13773e-23 -0.0366003)
(0.377045 0 -0.0379292)
(0.374227 3.7091e-24 -0.0292225)
(0.395201 3.91173e-21 -0.0276456)
(0.406209 -2.83321e-21 -0.022881)
(0.413264 0 -0.0203022)
(0.439155 1.48847e-24 -0.0167331)
(0.42292 -2.04642e-24 -0.0162653)
(0.459462 1.82456e-21 0.00377468)
(0.568414 -3.85133e-21 -0.00971072)
(0.240372 0 -0.0135005)
(0.315578 0 0.00328592)
(0.291327 1.27283e-23 -0.018252)
(0.441403 0 0.0124382)
(0.553375 4.01877e-24 -0.0172528)
(0.372665 0 -0.0139581)
(0.558047 0 0.0144124)
(0.234965 0 -0.0127264)
(0.328923 7.27065e-25 0.0148173)
(0.284687 -7.18876e-20 -0.0323012)
(0.299593 0 0.0132917)
(0.578573 7.49235e-25 0.01495)
(0.362954 1.38526e-20 -0.013924)
(0.524613 7.4309e-24 0.0220038)
(0.429516 1.37525e-20 -0.0199651)
(0.282354 0 0.0203331)
(0.33206 0 -0.0252597)
(0.36128 -2.88529e-25 0.00599828)
(0.517352 2.35495e-21 -0.00625859)
(0.313407 -8.50473e-24 -0.0124767)
(0.266115 0 0.0135152)
(0.425828 -1.48332e-20 -0.0168537)
(0.487124 0 0.0363454)
(0.522801 -1.45055e-24 -0.0312611)
(0.375283 -1.30244e-20 0.0156796)
(0.372601 -1.2442e-21 0.00479225)
(0.331979 0 -0.0151331)
(0.299532 0 0.0138745)
(0.401912 0 -0.0291533)
(0.421861 0 0.0401686)
(0.547123 5.16745e-24 -0.0288103)
(0.298218 1.20854e-25 -0.000127476)
(0.319771 4.52543e-21 0.0144776)
(0.349555 9.34344e-24 -0.0177154)
(0.477567 6.10486e-24 0.0412327)
(0.481106 0 -0.0284692)
(0.382589 1.67447e-20 0.028527)
(0.553774 0 -0.00472813)
(0.325922 -2.01315e-22 -0.00788722)
(0.313218 -1.87016e-20 0.0170926)
(0.430128 0 -0.0160842)
(0.278127 0 0.019359)
(0.497177 4.64449e-20 -0.0266995)
(0.388531 0 0.0211951)
(0.545757 0 0.000949459)
(0.350184 0 -0.00544023)
(0.354779 -2.17618e-20 0.0246453)
(0.30527 0 -0.00910678)
(0.322528 1.96385e-20 0.0217352)
(0.546582 0 -0.0215225)
(0.448151 2.144e-22 0.0152854)
(0.551848 0 -0.00746955)
(0.394611 8.40133e-24 -0.00646585)
(0.363767 8.44435e-21 0.0142596)
(0.29235 0 -0.00603527)
(0.369394 -2.37757e-20 0.0186225)
(0.350074 -8.84259e-21 -0.0129728)
(0.509216 -6.94342e-21 0.023959)
(0.559033 -2.46293e-20 -0.0266054)
(0.416155 0 0.00169796)
(0.562347 3.36937e-24 0.0121396)
(0.293733 0 -0.00564637)
(0.391346 1.27179e-24 0.00771242)
(0.301575 6.04386e-21 -0.0143997)
(0.316059 0 0.00926199)
(0.48945 3.11043e-24 -0.0198494)
(0.485949 6.95269e-21 0.0210114)
(0.552023 0 -0.0182573)
(0.455231 0 0.00220055)
(0.390069 3.40813e-26 0.000370023)
(0.266511 2.82358e-22 -0.0104712)
(0.34369 0 -0.00105928)
(0.402107 3.73113e-20 -0.0227923)
(0.479515 9.07335e-21 0.0164167)
(0.458349 3.56202e-20 -0.0231024)
(0.454581 7.29617e-21 0.0210855)
(0.516583 1.41419e-20 -0.0237319)
(0.397091 0 0.00405778)
(0.333787 0 0.00399169)
(0.408132 6.86604e-21 -0.0104399)
(0.31244 -3.46697e-24 0.00863761)
(0.433135 0 -0.0116545)
(0.527381 -1.13123e-20 0.0262757)
(0.486438 0 -0.021265)
(0.474097 1.80808e-20 0.0240212)
(0.516529 1.31615e-20 -0.0214392)
(0.407173 0 0.0130496)
(0.369868 -3.2521e-21 0.00989605)
(0.280938 -6.70566e-22 -0.00269893)
(0.548577 -8.15363e-22 0.00896312)
(0.436697 -6.77153e-21 -0.0102371)
(0.538415 -7.4053e-24 0.0242359)
(0.498065 0 -0.0144807)
(0.328509 0 0.0160581)
(0.359428 0 -0.0113292)
(0.303353 -9.96964e-21 0.0101757)
(0.378587 -3.33715e-24 -0.00778653)
(0.480501 -2.01373e-22 -0.00222239)
(0.542797 -3.01434e-21 -0.00587737)
(0.431276 0 -0.0114279)
(0.531782 0 0.0101353)
(0.295037 0 -0.00752202)
(0.34544 1.18096e-24 0.0054878)
(0.272301 -5.37818e-24 -0.0109884)
(0.304246 -6.59479e-21 0.0103953)
(0.48876 0 -0.0188116)
(0.482761 6.77318e-24 0.0201176)
(0.531963 0 -0.022835)
(0.407853 -1.20137e-21 0.00365809)
(0.348641 0 0.00847923)
(0.262291 7.42626e-22 -0.00312699)
(0.366256 0 0.0100153)
(0.45998 1.14911e-20 -0.0140689)
(0.535389 -4.8355e-24 0.0238553)
(0.506745 0 -0.0192725)
(0.501422 1.03952e-20 0.0232292)
(0.367 -1.89072e-24 -0.0128783)
(0.272138 -1.43032e-21 0.00171859)
(0.334381 -2.6291e-24 -0.0053557)
(0.267226 -4.83753e-22 -0.00566185)
(0.483447 -2.797e-25 -0.00160849)
(0.465567 0 -0.00078896)
(0.528328 -1.54954e-21 0.00695076)
(0.471493 -1.80414e-24 -0.00311395)
(0.354632 0 0.0103376)
(0.311318 0 -0.00594458)
(0.341211 -8.96886e-21 0.0107145)
(0.330999 2.53025e-24 -0.00765224)
(0.524522 -7.85294e-25 0.0172964)
(0.551035 0 -0.0160861)
(0.490804 6.60023e-22 0.00286723)
(0.53373 0 -0.0128528)
(0.245494 0 -0.00509951)
(0.3105 0 0.00382942)
(0.287847 0 -0.00232057)
(0.330743 0 0.00617823)
(0.491425 -1.15568e-21 -0.00342239)
(0.558068 -5.87686e-22 0.0166156)
(0.521518 0 -0.0110449)
(0.541456 -4.41875e-21 0.0140584)
(0.346785 -3.82488e-25 -0.0119083)
(0.294308 -1.29077e-21 0.00321543)
(0.326521 0 -0.00972577)
(0.438541 -1.14252e-22 -0.000880529)
(0.335468 -8.02945e-25 0.00398683)
(0.287163 0 -0.00261335)
(0.540836 0 0.0049221)
(0.463754 0 -0.00981121)
(0.518344 8.1138e-24 0.0146189)
(0.490407 2.69463e-21 -0.00661226)
(0.326992 0 0.0138645)
(0.350489 0 -0.0056606)
(0.318904 -8.41298e-21 0.00857587)
(0.357386 3.22233e-24 -0.00555386)
(0.500924 -2.07147e-25 0.00289409)
(0.53214 -2.87353e-21 -0.00542374)
(0.477824 0 -0.00227027)
(0.545351 -1.60926e-24 0.00341481)
(0.273623 -4.49886e-22 -0.00439162)
(0.326775 9.55125e-21 0.00859147)
(0.314929 0 -0.00232253)
(0.354192 4.19662e-21 0.00878534)
(0.503213 1.99477e-24 -0.0102624)
(0.529733 4.66636e-24 0.0164927)
(0.52501 1.57885e-20 -0.0141104)
(0.30254 2.67246e-21 0.00580796)
(0.324502 0 -0.00575196)
(0.279862 -2.10489e-21 0.00542902)
(0.337712 1.54479e-25 0.000722531)
(0.291402 0 0.00156501)
(0.34481 -1.51141e-21 0.00692336)
(0.323486 1.04462e-25 0.00109154)
(0.353988 -3.74889e-25 0.00580548)
(0.316819 9.5412e-26 -0.00131177)
(0.358708 -7.91729e-22 0.00604157)
(0.307692 2.59023e-24 -0.0111174)
(0.407106 0 0.00439506)
(0.267501 1.16636e-25 0.00475262)
(0.278015 2.90292e-25 0.00899109)
(0.288085 -3.21422e-22 0.00981293)
(0.308125 2.7889e-21 0.0173165)
(0.312189 1.34386e-21 0.0191693)
(0.364774 0 0.0364662)
(0.355424 0 0.0390062)
(0.529934 1.5794e-19 0.125963)
(0.953539 7.16247e-21 0.179481)
(0.918191 1.39726e-25 0)
(0.570608 -1.08196e-27 0)
(0.508415 0 0)
)
;

boundaryField
{
    inlet
    {
        type            calculated;
        value           uniform (0 0 0);
    }
    outlet
    {
        type            calculated;
        value           uniform (0 0 0);
    }
    sideWall
    {
        type            empty;
    }
}


// ************************************************************************* //
