/*--------------------------------*- C++ -*----------------------------------*\
| =========                 |                                                 |
| \\      /  F ield         | foam-extend: Open Source CFD                    |
|  \\    /   O peration     | Version:     3.2                                |
|   \\  /    A nd           | Web:         http://www.foam-extend.org         |
|    \\/     M anipulation  | For copyright notice see file Copyright         |
\*---------------------------------------------------------------------------*/
FoamFile
{
    version     2.0;
    format      ascii;
    class       areaScalarField;
    location    "160";
    object      Uf;
}
// * * * * * * * * * * * * * * * * * * * * * * * * * * * * * * * * * * * * * //

dimensions      [0 1 -1 0 0 0 0];

internalField   nonuniform List<scalar> 
300
(
0.231291
0.206404
0.171915
0.155785
0.149252
0.14571
0.143089
0.140756
0.138574
0.136563
0.134743
0.133095
0.131587
0.130226
0.128989
0.127854
0.126807
0.125833
0.124935
0.12411
0.123339
0.12261
0.121922
0.121271
0.120659
0.120076
0.119523
0.118994
0.118491
0.118013
0.117554
0.117115
0.116693
0.116288
0.115899
0.115526
0.115166
0.114818
0.114482
0.114158
0.113845
0.113542
0.113249
0.112964
0.112687
0.11242
0.11216
0.111908
0.111661
0.111424
0.11119
0.110964
0.110743
0.11053
0.110319
0.110116
0.109916
0.109723
0.10953
0.109346
0.109161
0.108986
0.10881
0.108645
0.108477
0.108321
0.108162
0.108015
0.107864
0.107726
0.107583
0.107456
0.107323
0.107207
0.107085
0.106982
0.106874
0.106786
0.106694
0.106625
0.106555
0.106511
0.106472
0.106457
0.106458
0.106486
0.106537
0.10663
0.106767
0.106944
0.107205
0.107502
0.107999
0.108498
0.109431
0.110242
0.112387
0.112712
0.125228
0.116492
0.0675498
0.0676972
0.0711603
0.0715111
0.0738428
0.0753262
0.0762351
0.0791317
0.077505
0.0824543
0.0926684
0.0769217
0.0876512
0.0824531
0.0810841
0.0907279
0.072501
0.0928366
0.0783659
0.0923354
0.0812604
0.0673318
0.0948248
0.0715314
0.0899622
0.0778315
0.0892986
0.0877251
0.0728409
0.0876842
0.0665136
0.0876723
0.0776579
0.0870783
0.0869361
0.074981
0.0958433
0.068207
0.0902149
0.0744327
0.0811094
0.0895658
0.0661065
0.0919952
0.0697984
0.0863512
0.0827323
0.0766029
0.0914422
0.0682323
0.0904946
0.0781686
0.0870774
0.0844954
0.076644
0.090926
0.0708771
0.0937947
0.0842919
0.089654
0.0898207
0.0820447
0.09111
0.075309
0.0923989
0.0825687
0.0928914
0.0872238
0.08849
0.0908774
0.0780137
0.0931447
0.0824802
0.0938254
0.082254
0.0870503
0.0840603
0.0860724
0.0905906
0.0819646
0.0935644
0.0798171
0.0894159
0.0748542
0.0851515
0.0807029
0.0830499
0.0866941
0.0762386
0.0901245
0.0763229
0.0886986
0.0787934
0.09041
0.0837408
0.0851329
0.0868123
0.077877
0.0935822
0.0829586
0.0915665
0.0792848
0.0914063
0.0853081
0.0897412
0.0892826
0.0863361
0.0914669
0.0841673
0.0902605
0.0786783
0.0900087
0.0838072
0.0906865
0.0811112
0.0875233
0.0840514
0.0857145
0.0883178
0.0773349
0.0916806
0.0813406
0.0932291
0.0813872
0.0910586
0.0859274
0.0877528
0.0904137
0.0829223
0.0882223
0.0816082
0.084492
0.0827676
0.0895051
0.0832738
0.092493
0.0859793
0.0909477
0.0875134
0.089616
0.0905714
0.0855525
0.0890239
0.0798179
0.0877553
0.084536
0.0898759
0.0851752
0.0929125
0.0878724
0.091191
0.0889497
0.0858245
0.0874567
0.0799893
0.0902933
0.084522
0.0905949
0.0820671
0.0889294
0.0849742
0.090465
0.0900569
0.0885865
0.0905111
0.0865005
0.0892042
0.0839488
0.0910322
0.0825671
0.0895261
0.0866889
0.0918414
0.0860066
0.0901324
0.0880804
0.0863908
0.0869662
0.0840809
0.0889313
0.0843634
0.0900911
0.0870571
0.0904781
0.0857867
0.0907372
0.0835818
0.0772709
0.0817975
0.0829772
0.0834273
0.0854342
0.0848732
0.0899143
0.087037
0.10499
0.140639
0.128101
0.0933234
0.0871054
)
;

boundaryField
{
    inlet
    {
        type            calculated;
        value           uniform 0;
    }
    outlet
    {
        type            calculated;
        value           uniform 0;
    }
    sideWall
    {
        type            empty;
    }
}


// ************************************************************************* //
