/*--------------------------------*- C++ -*----------------------------------*\
| =========                 |                                                 |
| \\      /  F ield         | foam-extend: Open Source CFD                    |
|  \\    /   O peration     | Version:     3.2                                |
|   \\  /    A nd           | Web:         http://www.foam-extend.org         |
|    \\/     M anipulation  | For copyright notice see file Copyright         |
\*---------------------------------------------------------------------------*/
FoamFile
{
    version     2.0;
    format      ascii;
    class       areaScalarField;
    location    "160";
    object      Uf2;
}
// * * * * * * * * * * * * * * * * * * * * * * * * * * * * * * * * * * * * * //

dimensions      [0 1 -1 0 0 0 0];

internalField   nonuniform List<scalar> 
300
(
0.132756
0.0866851
0.0682514
0.0629461
0.0610066
0.0597607
0.0587444
0.0577914
0.0568829
0.0560457
0.0552983
0.0546238
0.0540038
0.0534484
0.0529438
0.0524819
0.0520559
0.0516578
0.051292
0.0509601
0.05065
0.0503553
0.0500768
0.0498135
0.0495661
0.04933
0.0491063
0.0488916
0.0486879
0.048494
0.0483081
0.0481302
0.0479587
0.0477945
0.0476364
0.0474853
0.0473385
0.0471978
0.0470609
0.0469291
0.046802
0.0466786
0.0465594
0.0464435
0.0463309
0.0462221
0.0461161
0.0460139
0.0459132
0.0458168
0.0457211
0.0456297
0.0455393
0.0454527
0.0453668
0.0452844
0.0452025
0.0451244
0.0450447
0.0449703
0.0448942
0.044824
0.0447515
0.0446852
0.0446161
0.0445539
0.044488
0.0444298
0.0443674
0.0443134
0.0442548
0.0442054
0.044151
0.044107
0.0440573
0.0440194
0.0439758
0.0439451
0.0439095
0.0438882
0.0438629
0.0438533
0.0438435
0.0438476
0.0438581
0.043883
0.0439183
0.0439772
0.0440565
0.0441569
0.0443014
0.0444574
0.044735
0.0449842
0.0455125
0.0458885
0.0471751
0.0469047
0.0553358
0.0479998
0.00968231
0.0181334
0.0241759
0.02516
0.027707
0.0289586
0.0296828
0.0318729
0.0303112
0.0337969
0.0411149
0.0274557
0.037411
0.0323577
0.0314524
0.0391806
0.0236233
0.0422357
0.0285397
0.0407379
0.0317039
0.0206192
0.0431978
0.0226609
0.0406511
0.0290025
0.0384429
0.0365525
0.0249825
0.0388261
0.0197336
0.0389637
0.0289133
0.0372643
0.0368947
0.027133
0.0438685
0.019131
0.0402026
0.0262768
0.0333189
0.0396155
0.0194085
0.0423431
0.0220159
0.0372337
0.0336284
0.0290715
0.0411662
0.0207508
0.0408919
0.0288808
0.0368261
0.0345676
0.0286479
0.0406172
0.0225697
0.0426473
0.0329578
0.0373677
0.0373559
0.0316434
0.0397623
0.0260993
0.0411828
0.0314338
0.0398897
0.0345606
0.0361232
0.0384706
0.0281717
0.0414646
0.0312416
0.0410964
0.0309655
0.0358527
0.0332375
0.0351394
0.0388862
0.031643
0.0413674
0.0291424
0.0383238
0.0259279
0.0357826
0.0318012
0.0342238
0.0371398
0.0282494
0.0397769
0.0270263
0.0382039
0.0290291
0.0393636
0.0336336
0.0353712
0.0368894
0.0294055
0.0413894
0.0310675
0.039335
0.0290379
0.0400713
0.0342685
0.0380395
0.0371354
0.0343328
0.0383944
0.0324202
0.0385735
0.0287317
0.0391662
0.0331067
0.0390296
0.0306319
0.036442
0.0333629
0.0351888
0.0376598
0.0285764
0.0407208
0.0304574
0.04048
0.0300874
0.0391794
0.0348137
0.0367121
0.0386382
0.0323058
0.0368771
0.0312693
0.0343286
0.0327047
0.0386158
0.0328694
0.040463
0.0341331
0.0381209
0.034858
0.0368097
0.0378549
0.0343886
0.0379423
0.0302709
0.0371002
0.0333273
0.0376426
0.0331991
0.0399351
0.0356846
0.0389008
0.0368409
0.0344602
0.0364244
0.0301509
0.0385816
0.0327707
0.0385123
0.0315508
0.0381726
0.0344187
0.038638
0.0374914
0.0358741
0.0374022
0.0342998
0.0372136
0.0331554
0.0396568
0.0321747
0.0379166
0.0344986
0.0387129
0.0338369
0.0380743
0.0366893
0.0351216
0.0356463
0.0334281
0.0373204
0.0330984
0.0380242
0.0349907
0.0380403
0.0339523
0.0383545
0.0328935
0.0290468
0.0334658
0.0337899
0.0339465
0.0352582
0.0344852
0.0379866
0.035031
0.0475485
0.0666843
0.0535167
0.0303405
0.0323383
)
;

boundaryField
{
    inlet
    {
        type            calculated;
        value           uniform 0;
    }
    outlet
    {
        type            calculated;
        value           uniform 0;
    }
    sideWall
    {
        type            empty;
    }
}


// ************************************************************************* //
