/*--------------------------------*- C++ -*----------------------------------*\
| =========                 |                                                 |
| \\      /  F ield         | foam-extend: Open Source CFD                    |
|  \\    /   O peration     | Version:     3.2                                |
|   \\  /    A nd           | Web:         http://www.foam-extend.org         |
|    \\/     M anipulation  | For copyright notice see file Copyright         |
\*---------------------------------------------------------------------------*/
FoamFile
{
    version     2.0;
    format      ascii;
    class       areaVectorField;
    location    "160";
    object      uNormal;
}
// * * * * * * * * * * * * * * * * * * * * * * * * * * * * * * * * * * * * * //

dimensions      [0 0 0 0 0 0 0];

internalField   nonuniform List<vector> 
300
(
(-0 -0 1)
(-0 -0 1)
(-0 -0 1)
(-0 -0 1)
(-0 -0 1)
(-0 -0 1)
(-0 -0 1)
(-0 -0 1)
(-0 -0 1)
(-0 -0 1)
(-0 -0 1)
(-0 -0 1)
(-0 -0 1)
(-0 -0 1)
(-0 -0 1)
(-0 -0 1)
(-0 -0 1)
(-0 -0 1)
(-0 -0 1)
(-0 -0 1)
(-0 -0 1)
(-0 -0 1)
(-0 -0 1)
(-0 -0 1)
(-0 -0 1)
(-0 -0 1)
(-0 -0 1)
(-0 -0 1)
(-0 -0 1)
(-0 -0 1)
(-0 -0 1)
(-0 -0 1)
(-0 -0 1)
(-0 -0 1)
(-0 -0 1)
(-0 -0 1)
(-0 -0 1)
(-0 -0 1)
(-0 -0 1)
(-0 -0 1)
(-0 -0 1)
(-0 -0 1)
(-0 -0 1)
(-0 -0 1)
(-0 -0 1)
(-0 -0 1)
(-0 -0 1)
(-0 -0 1)
(-0 -0 1)
(-0 -0 1)
(-0 -0 1)
(-0 -0 1)
(-0 -0 1)
(-0 -0 1)
(-0 -0 1)
(-0 -0 1)
(-0 -0 1)
(-0 -0 1)
(-0 -0 1)
(-0 -0 1)
(-0 -0 1)
(-0 -0 1)
(-0 -0 1)
(-0 -0 1)
(-0 -0 1)
(-0 -0 1)
(-0 -0 1)
(-0 -0 1)
(-0 -0 1)
(-0 -0 1)
(-0 -0 1)
(-0 -0 1)
(-0 -0 1)
(-0 -0 1)
(-0 -0 1)
(-0 -0 1)
(-0 -0 1)
(-0 -0 1)
(-0 -0 1)
(-0 -0 1)
(-0 -0 1)
(-0 -0 1)
(-0 -0 1)
(-0 -0 1)
(-0 -0 1)
(-0 -0 1)
(-0 -0 1)
(-0 -0 1)
(-0 -0 1)
(-0 -0 1)
(-0 -0 1)
(-0 -0 1)
(-0 -0 1)
(-0 -0 1)
(-0 -0 1)
(-0 -0 1)
(-0 -0 1)
(-0 -0 1)
(-0 -0 1)
(0.130865 -0 0.9914)
(0.172546 -0 0.985001)
(0.105747 -0 0.994393)
(0.100091 -0 0.994978)
(0.0778504 -0 0.996965)
(0.0697828 6.75974e-18 0.997562)
(0.0562391 -6.76554e-18 0.998417)
(0.0490672 -0 0.998795)
(0.0380752 -0 0.999275)
(0.0384311 -0 0.999261)
(-0.00821516 8.47004e-19 0.999966)
(0.0170814 1.69382e-18 0.999854)
(0.0560767 -0 0.998426)
(-0.0104118 -0 0.999946)
(0.0625286 -0 0.998043)
(-0.0284857 -3.38676e-18 0.999594)
(0.0311623 -0 0.999514)
(0.0374285 -0 0.999299)
(-0.0258179 -0 0.999667)
(0.0550772 6.76598e-18 0.998482)
(-0.0450023 -0 0.998987)
(0.112739 1.34661e-17 0.993625)
(-0.044211 -3.38482e-18 0.999022)
(-0.0258308 -0 0.999666)
(0.0383348 -3.38564e-18 0.999265)
(-0.0419061 -0 0.999122)
(0.0470986 -3.38437e-18 0.99889)
(-0.0718267 -0 0.997417)
(0.0758504 -0 0.997119)
(-0.0166006 -0 0.999862)
(0.0120965 -8.46971e-19 0.999927)
(0.0397784 -0 0.999209)
(-0.0507216 -0 0.998713)
(0.0391247 -0 0.999234)
(-0.0744053 -0 0.997228)
(0.0596887 -0 0.998217)
(-0.0417444 -3.38518e-18 0.999128)
(-0.0128605 1.69393e-18 0.999917)
(0.0455542 -0 0.998962)
(-0.046271 -0 0.998929)
(0.0723465 -0 0.99738)
(-0.0947889 -0 0.995497)
(0.052585 -0 0.998616)
(0.000427459 -0 1)
(-0.0452286 3.38466e-18 0.998977)
(0.0507186 -0 0.998713)
(-0.0864696 6.75088e-18 0.996254)
(0.0590713 -0 0.998254)
(-0.0743566 6.7575e-18 0.997232)
(0.0085377 -0 0.999964)
(0.0241927 -1.69357e-18 0.999707)
(-0.0544899 -6.7662e-18 0.998514)
(0.0372591 3.38578e-18 0.999306)
(-0.0694369 -0 0.997586)
(0.0536249 -6.76651e-18 0.998561)
(-0.054471 -0 0.998515)
(-0.00173971 -0 0.999998)
(0.0155335 -0 0.999879)
(-0.0692995 -6.75997e-18 0.997596)
(0.0298186 -0 0.999555)
(-0.0672376 6.76093e-18 0.997737)
(0.0393459 -0 0.999226)
(-0.0340878 3.38616e-18 0.999419)
(0.0135343 -0 0.999908)
(0.0163832 -1.69384e-18 0.999866)
(-0.0391696 3.38553e-18 0.999233)
(0.0206396 -0 0.999787)
(-0.0503497 -6.76767e-18 0.998732)
(0.0370318 3.38581e-18 0.999314)
(-0.0469988 -3.38439e-18 0.998895)
(0.047538 3.3843e-18 0.998869)
(-0.00408008 -0 0.999992)
(-0.0215824 -0 0.999767)
(0.0192193 -0 0.999815)
(-0.0197036 -0 0.999806)
(0.047694 -3.38428e-18 0.998862)
(-0.0292921 -0 0.999571)
(0.0405212 -0 0.999179)
(-0.0431975 3.38497e-18 0.999067)
(0.0330553 -0 0.999454)
(-0.00483386 -0 0.999988)
(-0.000948609 -0 1)
(0.0392598 -3.38552e-18 0.999229)
(0.00308207 -0 0.999995)
(0.0564559 -0 0.998405)
(-0.034216 3.38615e-18 0.999414)
(0.0503397 -6.76767e-18 0.998732)
(-0.0463347 3.38449e-18 0.998926)
(0.0458917 -3.38456e-18 0.998946)
(-0.0101056 -8.4699e-19 0.999949)
(-0.011958 -0 0.999929)
(0.0254196 -3.38704e-18 0.999677)
(-0.0276351 -0 0.999618)
(0.0268975 -0 0.999638)
(-0.0497613 -6.76787e-18 0.998761)
(0.0436741 -0 0.999046)
(-0.0506025 6.76758e-18 0.998719)
(0.0414705 -3.38522e-18 0.99914)
(-0.0317201 -0 0.999497)
(-0.0267461 -3.38692e-18 0.999642)
(0.00960641 -8.46994e-19 0.999954)
(-0.0163367 -1.69384e-18 0.999867)
(0.0234357 1.6936e-18 0.999725)
(-0.0449679 -0 0.998988)
(0.0290616 -0 0.999578)
(-0.0488234 -0 0.998807)
(0.0315045 -0 0.999504)
(-0.0335253 -3.38623e-18 0.999438)
(0.020563 -0 0.999789)
(0.0046251 4.23512e-19 0.999989)
(0.0108273 8.46983e-19 0.999941)
(0.0264885 -0 0.999649)
(-0.0190557 -0 0.999818)
(0.0254869 -0 0.999675)
(-0.0158844 -0 0.999874)
(0.0403209 -0 0.999187)
(-0.0341474 -3.38616e-18 0.999417)
(0.0384599 -0 0.99926)
(-0.0416359 -0 0.999133)
(0.0428864 -0 0.99908)
(-0.00896877 -8.46999e-19 0.99996)
(-0.0243136 -0 0.999704)
(0.011921 8.46973e-19 0.999929)
(-0.0273347 -0 0.999626)
(0.0305717 -3.38655e-18 0.999533)
(-0.0445128 -0 0.999009)
(0.0380045 -0 0.999278)
(-0.0462771 3.3845e-18 0.998929)
(0.0350693 -0 0.999385)
(-0.00631499 -8.47016e-19 0.99998)
(0.0160147 -0 0.999872)
(0.0211828 1.69369e-18 0.999776)
(0.00332711 -0 0.999994)
(0.00169462 -0 0.999999)
(-0.013155 1.69392e-18 0.999913)
(0.00660431 -0 0.999978)
(-0.0291378 -0 0.999575)
(0.0190914 -0 0.999818)
(-0.031386 -3.38646e-18 0.999507)
(0.0231124 -0 0.999733)
(-0.0329577 -0 0.999457)
(0.0291801 -0 0.999574)
(-0.00584181 -4.23509e-19 0.999983)
(0.0240741 -0 0.99971)
(0.020768 -0 0.999784)
(-0.0123321 -0 0.999924)
(0.00806155 -0 0.999968)
(-0.0186766 -0 0.999826)
(0.00696406 8.47012e-19 0.999976)
(-0.0297604 -3.38663e-18 0.999557)
(0.0211737 -0 0.999776)
(-0.0259552 -3.38699e-18 0.999663)
(0.034319 -0 0.999411)
(-0.0109247 -8.46982e-19 0.99994)
(0.0297729 -0 0.999557)
(0.00272973 -0 0.999996)
(-0.0118835 -0 0.999929)
(0.00910019 -0 0.999959)
(-0.00910055 -0 0.999959)
(0.0211513 -0 0.999776)
(-0.028192 -0 0.999603)
(0.013482 -1.69391e-18 0.999909)
(-0.0423622 -0 0.999102)
(0.0161485 -0 0.99987)
(-0.026882 -3.38691e-18 0.999639)
(0.0155383 -0 0.999879)
(-0.00577741 -0 0.999983)
(0.0101918 8.46989e-19 0.999948)
(0.00475122 -0 0.999989)
(-0.00626155 -0 0.99998)
(0.0160478 1.69385e-18 0.999871)
(-0.0262826 3.38696e-18 0.999655)
(0.00737456 -0 0.999973)
(-0.0247963 3.38709e-18 0.999693)
(0.0203894 -0 0.999792)
(-0.031119 -0 0.999516)
(0.0268668 -3.38691e-18 0.999639)
(-0.0191938 1.69375e-18 0.999816)
(0.0177227 -0 0.999843)
(-0.0193953 -1.69375e-18 0.999812)
(-0.00213948 -0 0.999998)
(-0.00537055 -0 0.999986)
(-0.0200747 -1.69372e-18 0.999798)
(-0.00337428 -0 0.999994)
(-0.016398 -0 0.999866)
(0.00414042 -0 0.999991)
(-0.0168402 -1.69383e-18 0.999858)
(0.0361081 -0 0.999348)
(-0.0107877 -8.46984e-19 0.999942)
(-0.017764 -0 0.999842)
(-0.0323234 -0 0.999477)
(-0.0340429 -3.38617e-18 0.99942)
(-0.0561109 6.76559e-18 0.998425)
(-0.0612874 6.76353e-18 0.99812)
(-0.0994733 -0 0.99504)
(-0.109091 -0 0.994032)
(-0.231253 2.63703e-17 0.972894)
(-0.184978 -1.33186e-17 0.982743)
(-0 -0 1)
(-0 -0 1)
(-0 -0 1)
)
;

boundaryField
{
    inlet
    {
        type            calculated;
        value           uniform (0 0 0);
    }
    outlet
    {
        type            calculated;
        value           uniform (0 0 0);
    }
    sideWall
    {
        type            empty;
    }
}


// ************************************************************************* //
