/*--------------------------------*- C++ -*----------------------------------*\
| =========                 |                                                 |
| \\      /  F ield         | foam-extend: Open Source CFD                    |
|  \\    /   O peration     | Version:     3.2                                |
|   \\  /    A nd           | Web:         http://www.foam-extend.org         |
|    \\/     M anipulation  | For copyright notice see file Copyright         |
\*---------------------------------------------------------------------------*/
FoamFile
{
    version     2.0;
    format      ascii;
    class       areaVectorField;
    location    "160";
    object      Utau;
}
// * * * * * * * * * * * * * * * * * * * * * * * * * * * * * * * * * * * * * //

dimensions      [0 1 -1 0 0 0 0];

internalField   nonuniform List<vector> 
300
(
(2.31224 0 0)
(2.06385 0 0)
(1.71914 0 0)
(1.55785 0 0)
(1.49252 0 0)
(1.4571 0 0)
(1.43089 0 0)
(1.40756 0 0)
(1.38574 0 0)
(1.36563 0 0)
(1.34743 0 0)
(1.33095 0 0)
(1.31587 0 0)
(1.30226 0 0)
(1.28989 0 0)
(1.27854 0 0)
(1.26807 0 0)
(1.25833 0 0)
(1.24935 0 0)
(1.2411 0 0)
(1.23339 0 0)
(1.2261 0 0)
(1.21922 0 0)
(1.21271 0 0)
(1.20659 0 0)
(1.20076 0 0)
(1.19523 0 0)
(1.18994 0 0)
(1.18491 0 0)
(1.18013 0 0)
(1.17554 0 0)
(1.17115 0 0)
(1.16693 0 0)
(1.16288 0 0)
(1.15899 0 0)
(1.15526 0 0)
(1.15166 3.33569e-39 0)
(1.14818 0 0)
(1.14482 0 0)
(1.14158 0 0)
(1.13845 -1.13559e-38 0)
(1.13542 -1.09512e-38 0)
(1.13249 -2.10858e-38 0)
(1.12964 0 0)
(1.12687 3.93294e-38 0)
(1.1242 -3.81242e-38 0)
(1.1216 0 0)
(1.11908 0 0)
(1.11661 0 0)
(1.11424 0 0)
(1.1119 0 0)
(1.10964 1.25989e-37 0)
(1.10743 1.22222e-37 0)
(1.1053 0 0)
(1.10319 -2.30682e-37 0)
(1.10116 2.24711e-37 0)
(1.09916 0 0)
(1.09723 -4.17344e-37 0)
(1.0953 0 0)
(1.09346 0 0)
(1.09161 0 0)
(1.08986 1.47617e-36 0)
(1.0881 0 0)
(1.08645 0 0)
(1.08477 0 0)
(1.08321 2.62575e-36 0)
(1.08162 0 0)
(1.08015 0 0)
(1.07864 0 0)
(1.07726 0 0)
(1.07583 0 0)
(1.07456 8.46273e-36 0)
(1.07323 1.62166e-35 0)
(1.07207 0 0)
(1.07085 0 0)
(1.06982 0 0)
(1.06874 0 0)
(1.06786 2.18487e-35 0)
(1.06694 0 0)
(1.06625 3.12806e-35 0)
(1.06555 0 0)
(1.06511 3.38102e-35 0)
(1.06472 0 0)
(1.06457 -2.65127e-35 0)
(1.06458 -5.07567e-35 0)
(1.06486 0 0)
(1.06537 3.72345e-34 0)
(1.0663 -7.06128e-34 0)
(1.06767 0 0)
(1.06944 5.27061e-33 0)
(1.07205 5.67114e-33 0)
(1.07502 0 0)
(1.07999 1.99447e-32 0)
(1.08498 -5.92706e-32 0)
(1.09431 0 0)
(1.10242 0 0)
(1.12387 2.04338e-29 0)
(1.12712 2.94322e-28 0)
(1.25228 -7.62815e-26 0)
(1.15472 -1.52522e-22 -0.152422)
(0.665084 7.79226e-23 -0.116505)
(0.673064 -2.22495e-23 -0.0715759)
(0.708022 0 -0.0712242)
(0.712938 7.06619e-24 -0.0556715)
(0.736627 7.29119e-21 -0.0515295)
(0.75207 -5.24551e-21 -0.0423628)
(0.761432 0 -0.0374064)
(0.790743 2.68014e-24 -0.0301296)
(0.774478 -3.74753e-24 -0.029786)
(0.824506 3.27418e-21 0.00677367)
(0.926541 -6.27786e-21 -0.0158289)
(0.767996 0 -0.0431346)
(0.876435 0 0.00912579)
(0.82291 3.59535e-23 -0.0515563)
(0.810481 -2.40151e-20 0.0230965)
(0.906814 6.58555e-24 -0.0282722)
(0.724493 0 -0.0271357)
(0.928055 0 0.0239684)
(0.782455 -3.26863e-20 -0.0431609)
(0.92238 2.03887e-24 0.0415513)
(0.807283 -2.0385e-19 -0.091596)
(0.672533 -4.41931e-20 0.0297625)
(0.947931 1.22754e-24 0.024494)
(0.714743 2.72791e-20 -0.0274197)
(0.898823 1.27314e-23 0.0376993)
(0.777434 1.7326e-20 -0.0366568)
(0.890645 0 0.0641378)
(0.874696 0 -0.0665377)
(0.728293 -5.81637e-25 0.0120918)
(0.876766 3.99097e-21 -0.0106065)
(0.664598 -1.80348e-23 -0.0264576)
(0.87556 0 0.0444671)
(0.775977 0 -0.0303831)
(0.868365 0 0.0647906)
(0.867757 -2.40766e-24 -0.0518877)
(0.749117 -2.59986e-20 0.0312987)
(0.958352 -3.20016e-21 0.0123259)
(0.681361 0 -0.0310711)
(0.901152 0 0.0417419)
(0.742253 0 -0.0538405)
(0.807395 0 0.0768783)
(0.894323 8.44668e-24 -0.0470932)
(0.661049 2.67893e-25 -0.000282571)
(0.919002 1.30058e-20 0.0416078)
(0.697074 3.42522e-23 -0.0354001)
(0.86022 6.75318e-20 0.0746625)
(0.825791 0 -0.0488659)
(0.763892 3.3433e-20 0.0569581)
(0.91436 0 -0.00780682)
(0.682124 -4.21333e-22 -0.0165072)
(0.903567 -5.39501e-20 0.0493085)
(0.781135 -1.17407e-20 -0.0291246)
(0.868642 0 0.0604618)
(0.843658 7.88122e-20 -0.0453063)
(0.765298 0 0.0417485)
(0.909241 0 0.00158181)
(0.708686 0 -0.0110097)
(0.935654 -5.73921e-20 0.0649966)
(0.842535 0 -0.0251344)
(0.894475 5.4464e-20 0.0602788)
(0.897479 0 -0.0353395)
(0.81997 3.92281e-22 0.0279672)
(0.910986 0 -0.0123307)
(0.752988 1.60312e-23 -0.012338)
(0.923258 2.14321e-20 0.0361914)
(0.82551 0 -0.0170418)
(0.927694 -5.97102e-20 0.0467684)
(0.871615 -2.20163e-20 -0.0322996)
(0.883915 -1.20526e-20 0.0415889)
(0.90767 -3.99892e-20 -0.0431976)
(0.78013 0 0.00318302)
(0.931229 5.57957e-24 0.0201029)
(0.82465 0 -0.0158521)
(0.938055 3.04847e-24 0.0184866)
(0.82159 1.64655e-20 -0.0392296)
(0.870115 0 0.0254984)
(0.839886 5.33743e-24 -0.0340611)
(0.859913 1.23032e-20 0.0371808)
(0.905379 0 -0.029944)
(0.819633 0 0.00396204)
(0.935643 8.17494e-26 0.00088756)
(0.797556 8.44979e-22 -0.031336)
(0.894149 0 -0.00275584)
(0.747321 2.50215e-23 -0.0422581)
(0.851003 1.61026e-20 0.029135)
(0.805953 6.26339e-20 -0.0406229)
(0.829597 1.33153e-20 0.0384804)
(0.866 2.37074e-20 -0.0397841)
(0.762329 -4.44203e-21 0.00770417)
(0.901179 0 0.010777)
(0.762981 -4.46867e-21 -0.0194009)
(0.886634 -9.83847e-24 0.0245116)
(0.787636 0 -0.0211931)
(0.902976 -1.93688e-20 0.044989)
(0.836533 0 -0.0365697)
(0.850225 3.24253e-20 0.0430787)
(0.867352 2.21007e-20 -0.0360005)
(0.778354 -7.30423e-24 0.0247019)
(0.935484 -8.22535e-21 0.0250295)
(0.829544 -1.98003e-21 -0.00796931)
(0.915542 -1.36079e-21 0.0149589)
(0.792597 -1.22902e-20 -0.0185801)
(0.913133 -1.25591e-23 0.0411033)
(0.852701 0 -0.0247913)
(0.896325 0 0.0438139)
(0.892383 0 -0.028128)
(0.862835 -2.83569e-20 0.0289431)
(0.914472 -8.06084e-24 -0.0188083)
(0.841664 -3.52732e-22 -0.00389283)
(0.902533 -5.01208e-21 -0.00977258)
(0.786488 0 -0.0208402)
(0.899915 0 0.0171516)
(0.837798 0 -0.0213598)
(0.906738 3.09989e-24 0.0144048)
(0.810449 -1.6007e-23 -0.0327046)
(0.874705 -1.896e-20 0.0298864)
(0.839861 0 -0.0323249)
(0.856398 1.20153e-23 0.0356879)
(0.882311 0 -0.037874)
(0.773313 -2.27788e-21 0.00693595)
(0.916532 0 0.0222908)
(0.813343 2.30282e-21 -0.00969654)
(0.931925 0 0.0254834)
(0.813469 2.0322e-20 -0.0248808)
(0.909681 -8.21602e-24 0.0405326)
(0.858592 0 -0.032654)
(0.876572 1.81725e-20 0.0406087)
(0.903571 -4.65505e-24 -0.0317071)
(0.82919 -4.3581e-21 0.00523644)
(0.88211 -6.93565e-24 -0.0141285)
(0.815899 -1.47701e-21 -0.0172869)
(0.844915 -4.88828e-25 -0.00281114)
(0.827673 0 -0.00140259)
(0.894973 -2.62487e-21 0.0117744)
(0.83272 -3.18635e-24 -0.00549966)
(0.924521 0 0.02695)
(0.859636 0 -0.0164147)
(0.909002 -2.38935e-20 0.028544)
(0.874893 6.68792e-24 -0.0202263)
(0.895669 -1.34096e-24 0.0295352)
(0.905289 0 -0.0264277)
(0.855506 1.15047e-21 0.00499779)
(0.889968 0 -0.0214314)
(0.798006 0 -0.0165765)
(0.877464 0 0.0108218)
(0.845324 0 -0.00681484)
(0.898595 0 0.0167856)
(0.851728 -2.003e-21 -0.00593163)
(0.928714 -9.78004e-22 0.0276511)
(0.878493 0 -0.0186051)
(0.9116 -7.43944e-21 0.0236688)
(0.888963 -9.80484e-25 -0.0305263)
(0.858182 -3.7638e-21 0.00937598)
(0.874173 0 -0.0260382)
(0.79988 0 -0.00218346)
(0.902862 -2.16101e-24 0.0107299)
(0.845185 0 -0.00769166)
(0.905911 0 0.00824463)
(0.820454 0 -0.0173576)
(0.888941 1.39149e-23 0.025071)
(0.849661 4.66862e-21 -0.0114562)
(0.903821 0 0.0383222)
(0.90045 0 -0.0145428)
(0.885518 -2.33608e-20 0.0238131)
(0.904998 8.15981e-24 -0.0140639)
(0.86499 -3.57698e-25 0.00499749)
(0.891978 -4.81664e-21 -0.00909132)
(0.839474 0 -0.00398857)
(0.910304 -2.68619e-24 0.00570002)
(0.825564 -1.35738e-21 -0.0132502)
(0.894919 2.61574e-20 0.0235289)
(0.866861 0 -0.00639289)
(0.918126 1.08783e-20 0.0227731)
(0.859866 3.40857e-24 -0.0175358)
(0.900887 7.93583e-24 0.0280483)
(0.880452 2.64777e-20 -0.0236635)
(0.863737 7.62973e-21 0.0165814)
(0.869525 0 -0.0154127)
(0.840642 -6.32262e-21 0.0163076)
(0.889311 4.06797e-25 0.00190267)
(0.84362 0 0.00453077)
(0.900726 -3.94817e-21 0.0180854)
(0.870566 2.81129e-25 0.00293755)
(0.904659 -9.58074e-25 0.0148366)
(0.857859 2.5835e-25 -0.00355193)
(0.907242 -2.00243e-21 0.0152803)
(0.835254 7.03139e-24 -0.0301791)
(0.772657 -2.59556e-21 0.0083357)
(0.817844 3.56598e-25 0.0145304)
(0.829338 8.65962e-25 0.026821)
(0.833789 -9.30275e-22 0.028401)
(0.852995 7.72061e-21 0.0479378)
(0.847137 3.64662e-21 0.0520166)
(0.894683 0 0.0894407)
(0.865168 0 0.0949484)
(1.02138 3.0441e-19 0.242779)
(1.38212 1.03817e-20 0.260152)
(1.28075 1.94899e-25 0)
(0.933227 -1.76954e-27 0)
(0.871053 0 0)
)
;

boundaryField
{
    inlet
    {
        type            calculated;
        value           uniform (0 0 0);
    }
    outlet
    {
        type            calculated;
        value           uniform (0 0 0);
    }
    sideWall
    {
        type            empty;
    }
}


// ************************************************************************* //
