/*--------------------------------*- C++ -*----------------------------------*\
| =========                 |                                                 |
| \\      /  F ield         | foam-extend: Open Source CFD                    |
|  \\    /   O peration     | Version:     3.2                                |
|   \\  /    A nd           | Web:         http://www.foam-extend.org         |
|    \\/     M anipulation  | For copyright notice see file Copyright         |
\*---------------------------------------------------------------------------*/
FoamFile
{
    version     2.0;
    format      ascii;
    class       areaScalarField;
    location    "160";
    object      volA;
}
// * * * * * * * * * * * * * * * * * * * * * * * * * * * * * * * * * * * * * //

dimensions      [0 3 0 0 0 0 0];

internalField   nonuniform List<scalar> 
300
(
4.63285e-05
4.63285e-05
4.63285e-05
4.63285e-05
4.63285e-05
4.63285e-05
4.63285e-05
4.63285e-05
4.63285e-05
4.63285e-05
4.63285e-05
4.63285e-05
4.63285e-05
4.63285e-05
4.63285e-05
4.63285e-05
4.63285e-05
4.63285e-05
4.63285e-05
4.63285e-05
4.63285e-05
4.63285e-05
4.63285e-05
4.63285e-05
4.63285e-05
4.63285e-05
4.63285e-05
4.63285e-05
4.63285e-05
4.63285e-05
4.63285e-05
4.63285e-05
4.63285e-05
4.63285e-05
4.63285e-05
4.63285e-05
4.63285e-05
4.63285e-05
4.63285e-05
4.63285e-05
4.63285e-05
4.63285e-05
4.63285e-05
4.63285e-05
4.63285e-05
4.63285e-05
4.63285e-05
4.63285e-05
4.63285e-05
4.63285e-05
4.63285e-05
4.63285e-05
4.63285e-05
4.63285e-05
4.63285e-05
4.63285e-05
4.63285e-05
4.63285e-05
4.63285e-05
4.63285e-05
4.63285e-05
4.63285e-05
4.63285e-05
4.63285e-05
4.63285e-05
4.63285e-05
4.63285e-05
4.63285e-05
4.63285e-05
4.63285e-05
4.63285e-05
4.63285e-05
4.63285e-05
4.63285e-05
4.63285e-05
4.63285e-05
4.63285e-05
4.63285e-05
4.63285e-05
4.63285e-05
4.63285e-05
4.63285e-05
4.63285e-05
4.63285e-05
4.63285e-05
4.63285e-05
4.63285e-05
4.63285e-05
4.63285e-05
4.63285e-05
4.63285e-05
4.63285e-05
4.63285e-05
4.63285e-05
4.63285e-05
4.63285e-05
4.63285e-05
4.63285e-05
4.63285e-05
4.51882e-05
4.81511e-05
4.63068e-05
4.69208e-05
4.64111e-05
4.66261e-05
4.64154e-05
4.64997e-05
4.64237e-05
4.62927e-05
4.73203e-05
4.77951e-05
4.51147e-05
4.60274e-05
4.3543e-05
4.22148e-05
4.42781e-05
4.0743e-05
4.22924e-05
4.00102e-05
4.08582e-05
3.93671e-05
3.56009e-05
4.06127e-05
3.70706e-05
3.9723e-05
3.75711e-05
3.97421e-05
3.96234e-05
3.60776e-05
3.94908e-05
3.44098e-05
3.78287e-05
3.64664e-05
3.79871e-05
3.84676e-05
3.63202e-05
4.07277e-05
3.59964e-05
3.94355e-05
3.6783e-05
3.72939e-05
3.99523e-05
3.48415e-05
4.05342e-05
3.69404e-05
4.01215e-05
3.98485e-05
3.90116e-05
4.34194e-05
3.93023e-05
4.38143e-05
4.15491e-05
4.38646e-05
4.43665e-05
4.2485e-05
4.73947e-05
4.35483e-05
4.83001e-05
4.73843e-05
4.87662e-05
4.96847e-05
4.83399e-05
5.10207e-05
4.79949e-05
5.08871e-05
4.9523e-05
5.1601e-05
5.12397e-05
5.13005e-05
5.22025e-05
4.93344e-05
5.22538e-05
5.06837e-05
5.23471e-05
4.99405e-05
5.04531e-05
4.93551e-05
4.96896e-05
5.0224e-05
4.87221e-05
4.99911e-05
4.73477e-05
4.83802e-05
4.45654e-05
4.5429e-05
4.39172e-05
4.39395e-05
4.48599e-05
4.15964e-05
4.60715e-05
4.24215e-05
4.55236e-05
4.34184e-05
4.52353e-05
4.52344e-05
4.4118e-05
4.64017e-05
4.32068e-05
4.83517e-05
4.61601e-05
4.85515e-05
4.67294e-05
4.86191e-05
4.8201e-05
4.893e-05
4.92878e-05
4.8596e-05
5.00096e-05
4.80124e-05
4.97003e-05
4.66873e-05
4.88476e-05
4.63239e-05
4.80092e-05
4.60639e-05
4.6308e-05
4.63279e-05
4.52242e-05
4.71032e-05
4.3617e-05
4.78404e-05
4.60639e-05
4.82587e-05
4.61785e-05
4.8269e-05
4.72638e-05
4.75069e-05
4.80962e-05
4.5981e-05
4.77802e-05
4.47899e-05
4.66591e-05
4.50281e-05
4.65754e-05
4.56333e-05
4.73871e-05
4.68419e-05
4.74785e-05
4.74195e-05
4.75052e-05
4.80174e-05
4.65917e-05
4.76365e-05
4.52895e-05
4.65339e-05
4.56187e-05
4.69009e-05
4.62254e-05
4.7684e-05
4.70298e-05
4.75963e-05
4.72397e-05
4.58933e-05
4.65909e-05
4.44958e-05
4.67219e-05
4.52391e-05
4.66178e-05
4.52542e-05
4.5927e-05
4.61953e-05
4.65527e-05
4.76602e-05
4.6931e-05
4.83432e-05
4.68295e-05
4.8452e-05
4.67963e-05
4.82036e-05
4.65395e-05
4.81755e-05
4.74225e-05
4.84195e-05
4.81708e-05
4.80121e-05
4.8817e-05
4.68257e-05
4.90867e-05
4.62748e-05
5.01466e-05
4.73678e-05
5.08148e-05
4.95939e-05
5.12287e-05
5.05397e-05
5.09574e-05
4.78659e-05
4.57634e-05
4.70615e-05
4.58814e-05
4.6848e-05
4.62643e-05
4.66203e-05
4.68962e-05
4.64066e-05
4.94693e-05
4.49237e-05
4.63285e-05
4.63285e-05
4.63285e-05
)
;

boundaryField
{
    inlet
    {
        type            calculated;
        value           uniform 0;
    }
    outlet
    {
        type            calculated;
        value           uniform 0;
    }
    sideWall
    {
        type            empty;
    }
}


// ************************************************************************* //
