/*--------------------------------*- C++ -*----------------------------------*\
| =========                 |                                                 |
| \\      /  F ield         | foam-extend: Open Source CFD                    |
|  \\    /   O peration     | Version:     3.2                                |
|   \\  /    A nd           | Web:         http://www.foam-extend.org         |
|    \\/     M anipulation  | For copyright notice see file Copyright         |
\*---------------------------------------------------------------------------*/
FoamFile
{
    version     2.0;
    format      ascii;
    class       areaScalarField;
    location    "160";
    object      volC;
}
// * * * * * * * * * * * * * * * * * * * * * * * * * * * * * * * * * * * * * //

dimensions      [0 3 0 0 0 0 0];

internalField   nonuniform List<scalar> 
300
(
5.36715e-05
5.36715e-05
5.36715e-05
5.36715e-05
5.36715e-05
5.36715e-05
5.36715e-05
5.36715e-05
5.36715e-05
5.36715e-05
5.36715e-05
5.36715e-05
5.36715e-05
5.36715e-05
5.36715e-05
5.36715e-05
5.36715e-05
5.36715e-05
5.36715e-05
5.36715e-05
5.36715e-05
5.36715e-05
5.36715e-05
5.36715e-05
5.36715e-05
5.36715e-05
5.36715e-05
5.36715e-05
5.36715e-05
5.36715e-05
5.36715e-05
5.36715e-05
5.36715e-05
5.36715e-05
5.36715e-05
5.36715e-05
5.36715e-05
5.36715e-05
5.36715e-05
5.36715e-05
5.36715e-05
5.36715e-05
5.36715e-05
5.36715e-05
5.36715e-05
5.36715e-05
5.36715e-05
5.36715e-05
5.36715e-05
5.36715e-05
5.36715e-05
5.36715e-05
5.36715e-05
5.36715e-05
5.36715e-05
5.36715e-05
5.36715e-05
5.36715e-05
5.36715e-05
5.36715e-05
5.36715e-05
5.36715e-05
5.36715e-05
5.36715e-05
5.36715e-05
5.36715e-05
5.36715e-05
5.36715e-05
5.36715e-05
5.36715e-05
5.36715e-05
5.36715e-05
5.36715e-05
5.36715e-05
5.36715e-05
5.36715e-05
5.36715e-05
5.36715e-05
5.36715e-05
5.36715e-05
5.36715e-05
5.36715e-05
5.36715e-05
5.36715e-05
5.36715e-05
5.36715e-05
5.36715e-05
5.36715e-05
5.36715e-05
5.36715e-05
5.36715e-05
5.36715e-05
5.36715e-05
5.36715e-05
5.36715e-05
5.36715e-05
5.36715e-05
5.36715e-05
5.36715e-05
5.23506e-05
4.22251e-05
3.61382e-05
3.02762e-05
2.61513e-05
2.21828e-05
1.91726e-05
1.64239e-05
1.42874e-05
1.25037e-05
1.06785e-05
9.98854e-06
1.09174e-05
8.77567e-06
1.0056e-05
1.04468e-05
8.32079e-06
1.01501e-05
8.2912e-06
9.89903e-06
8.77267e-06
8.81034e-06
1.05843e-05
7.2957e-06
1.05437e-05
7.98772e-06
1.00203e-05
8.54279e-06
8.57415e-06
1.05009e-05
7.19729e-06
1.10131e-05
7.89162e-06
9.52111e-06
8.98179e-06
8.82579e-06
1.04794e-05
7.40106e-06
1.13591e-05
7.93956e-06
1.00085e-05
1.01557e-05
8.41449e-06
1.21313e-05
7.60906e-06
1.10776e-05
8.91872e-06
9.78517e-06
1.10587e-05
8.1648e-06
1.14764e-05
7.78556e-06
1.04424e-05
9.0264e-06
8.871e-06
1.07762e-05
7.19479e-06
1.07028e-05
7.42671e-06
9.2246e-06
8.88688e-06
8.58341e-06
9.78515e-06
7.59025e-06
9.87046e-06
7.58572e-06
9.38139e-06
8.11076e-06
8.77139e-06
8.98595e-06
8.07193e-06
9.78454e-06
7.52024e-06
9.14663e-06
7.49586e-06
9.25728e-06
8.24135e-06
9.0809e-06
8.8201e-06
8.51737e-06
9.28178e-06
8.15678e-06
9.88569e-06
7.74999e-06
1.01611e-05
8.68415e-06
9.82827e-06
9.69497e-06
8.78454e-06
1.10984e-05
7.17599e-06
1.05026e-05
7.45911e-06
9.58166e-06
8.38497e-06
8.5234e-06
9.8314e-06
7.75422e-06
1.06853e-05
6.99542e-06
9.59852e-06
7.38032e-06
9.0327e-06
7.724e-06
8.50751e-06
8.31801e-06
8.35462e-06
9.10085e-06
7.99152e-06
9.34719e-06
7.27575e-06
9.3719e-06
7.01611e-06
9.38686e-06
7.45021e-06
8.82148e-06
8.40999e-06
8.29058e-06
9.48085e-06
7.57339e-06
1.01626e-05
6.78537e-06
8.85965e-06
7.06718e-06
9.07149e-06
7.35959e-06
8.51311e-06
8.49702e-06
8.1632e-06
9.52552e-06
7.48976e-06
9.55508e-06
7.06112e-06
8.56634e-06
7.3102e-06
8.41264e-06
7.24449e-06
8.02788e-06
7.71614e-06
7.96978e-06
8.14593e-06
7.72186e-06
8.54096e-06
7.05512e-06
8.27645e-06
6.81356e-06
7.83325e-06
6.82413e-06
7.78448e-06
6.9189e-06
7.77617e-06
7.33551e-06
7.49642e-06
8.22849e-06
7.07997e-06
8.33853e-06
6.34484e-06
7.89571e-06
6.517e-06
7.58885e-06
7.10146e-06
7.18493e-06
7.59422e-06
7.1015e-06
8.11202e-06
6.97041e-06
8.23424e-06
6.50333e-06
7.78317e-06
6.4141e-06
7.83944e-06
6.4713e-06
7.67985e-06
7.1342e-06
7.48767e-06
7.93039e-06
7.22505e-06
9.01447e-06
6.78876e-06
9.64422e-06
6.3005e-06
9.26767e-06
6.46765e-06
8.26372e-06
7.13075e-06
8.11893e-06
8.02664e-06
1.06657e-05
1.20998e-05
1.15215e-05
1.39762e-05
1.46742e-05
1.75793e-05
2.01884e-05
2.41737e-05
3.00097e-05
3.75353e-05
5.20441e-05
5.36715e-05
5.36715e-05
5.36715e-05
)
;

boundaryField
{
    inlet
    {
        type            calculated;
        value           uniform 0;
    }
    outlet
    {
        type            calculated;
        value           uniform 0;
    }
    sideWall
    {
        type            empty;
    }
}


// ************************************************************************* //
