/*--------------------------------*- C++ -*----------------------------------*\
| =========                 |                                                 |
| \\      /  F ield         | foam-extend: Open Source CFD                    |
|  \\    /   O peration     | Version:     3.2                                |
|   \\  /    A nd           | Web:         http://www.foam-extend.org         |
|    \\/     M anipulation  | For copyright notice see file Copyright         |
\*---------------------------------------------------------------------------*/
FoamFile
{
    version     2.0;
    format      ascii;
    class       areaVectorField;
    location    "160";
    object      Wt;
}
// * * * * * * * * * * * * * * * * * * * * * * * * * * * * * * * * * * * * * //

dimensions      [1 1 -2 0 0 0 0];

internalField   nonuniform List<vector> 
300
(
(-0 0 0)
(-0 0 0)
(-0 0 0)
(-0 0 0)
(-0 0 0)
(-0 0 0)
(-0 0 0)
(-0 0 0)
(-0 0 0)
(-0 0 0)
(-0 0 0)
(-0 0 0)
(-0 0 0)
(-0 0 0)
(-0 0 0)
(-0 0 0)
(-0 0 0)
(-0 0 0)
(-0 0 0)
(-0 0 0)
(-0 0 0)
(-0 0 0)
(-0 0 0)
(-0 0 0)
(-0 0 0)
(-0 0 0)
(-0 0 0)
(-0 0 0)
(-0 0 0)
(-0 0 0)
(-0 0 0)
(-0 0 0)
(-0 0 0)
(-0 0 0)
(-0 0 0)
(-0 0 0)
(-0 0 0)
(-0 0 0)
(-0 0 0)
(-0 0 0)
(-0 0 0)
(-0 0 0)
(-0 0 0)
(-0 0 0)
(-0 0 0)
(-0 0 0)
(-0 0 0)
(-0 0 0)
(-0 0 0)
(-0 0 0)
(-0 0 0)
(-0 0 0)
(-0 0 0)
(-0 0 0)
(-0 0 0)
(-0 0 0)
(-0 0 0)
(-0 0 0)
(-0 0 0)
(-0 0 0)
(-0 0 0)
(-0 0 0)
(-0 0 0)
(-0 0 0)
(-0 0 0)
(-0 0 0)
(-0 0 0)
(-0 0 0)
(-0 0 0)
(-0 0 0)
(-0 0 0)
(-0 0 0)
(-0 0 0)
(-0 0 0)
(-0 0 0)
(-0 0 0)
(-0 0 0)
(-0 0 0)
(-0 0 0)
(-0 0 0)
(-0 0 0)
(-0 0 0)
(-0 0 0)
(-0 0 0)
(-0 0 0)
(-0 0 0)
(-0 0 0)
(-0 0 0)
(-0 0 0)
(-0 0 0)
(-0 0 0)
(-0 0 0)
(-0 0 0)
(-0 0 0)
(-0 0 0)
(-0 0 0)
(-0 0 0)
(-0 0 0)
(-0 0 0)
(6.29196e-05 0 -8.30536e-06)
(8.24247e-05 0 -1.44386e-05)
(5.09966e-05 0 -5.42315e-06)
(4.82972e-05 0 -4.8585e-06)
(3.76405e-05 0 -2.93925e-06)
(3.37601e-05 3.27028e-21 -2.36163e-06)
(2.72311e-05 -3.27589e-21 -1.53388e-06)
(2.37674e-05 0 -1.16761e-06)
(1.84519e-05 0 -7.03072e-07)
(1.86241e-05 0 -7.16275e-07)
(-3.98397e-06 4.10758e-22 -3.273e-08)
(8.28276e-06 8.21331e-22 -1.41502e-07)
(2.71527e-05 0 -1.52504e-06)
(-5.04915e-06 0 -5.25737e-08)
(3.02651e-05 0 -1.89615e-06)
(-1.38091e-05 -1.64181e-21 -3.93521e-07)
(1.51054e-05 0 -4.7095e-07)
(1.8139e-05 0 -6.79392e-07)
(-1.25167e-05 0 -3.23263e-07)
(2.66702e-05 3.27631e-21 -1.47115e-06)
(-2.18026e-05 0 -9.82164e-07)
(5.43263e-05 6.48903e-21 -6.16397e-06)
(-2.14201e-05 -1.63993e-21 -9.47929e-07)
(-1.2523e-05 0 -3.23588e-07)
(1.85775e-05 -1.64073e-21 -7.12689e-07)
(-2.03053e-05 0 -8.51665e-07)
(2.28161e-05 -1.6395e-21 -1.0758e-06)
(-3.47438e-05 0 -2.502e-06)
(3.66792e-05 0 -2.79017e-06)
(-8.04967e-06 0 -1.33648e-07)
(5.86599e-06 -4.10725e-22 -7.09629e-08)
(1.92761e-05 0 -7.67379e-07)
(-2.45668e-05 0 -1.24767e-06)
(1.89598e-05 0 -7.42362e-07)
(-3.59843e-05 0 -2.68487e-06)
(2.88956e-05 0 -1.72782e-06)
(-2.02271e-05 -1.64028e-21 -8.45106e-07)
(-6.23645e-06 8.21435e-22 -8.02107e-08)
(2.20695e-05 0 -1.0064e-06)
(-2.2416e-05 0 -1.03832e-06)
(3.49939e-05 0 -2.53834e-06)
(-4.57628e-05 0 -4.35742e-06)
(2.54669e-05 0 -1.34103e-06)
(2.07305e-07 0 -8.86143e-11)
(-2.1912e-05 1.63978e-21 -9.92066e-07)
(2.45653e-05 0 -1.24752e-06)
(-4.17781e-05 3.26171e-21 -3.62611e-06)
(2.85978e-05 0 -1.69226e-06)
(-3.59609e-05 3.26811e-21 -2.68135e-06)
(4.14038e-06 0 -3.53506e-08)
(1.17293e-05 -8.2109e-22 -2.83846e-07)
(-2.63867e-05 -3.27653e-21 -1.43995e-06)
(1.8057e-05 1.64086e-21 -6.73253e-07)
(-3.35935e-05 0 -2.33828e-06)
(2.59691e-05 -3.27683e-21 -1.3946e-06)
(-2.63776e-05 0 -1.43895e-06)
(-8.43704e-07 0 -1.4678e-09)
(7.53237e-06 0 -1.17018e-07)
(-3.35274e-05 -3.2705e-21 -2.32903e-06)
(1.44547e-05 0 -4.31211e-07)
(-3.25344e-05 3.27143e-21 -2.1925e-06)
(1.90668e-05 0 -7.50783e-07)
(-1.65219e-05 1.64123e-21 -5.63524e-07)
(6.56312e-06 0 -8.88352e-08)
(7.94428e-06 -8.2135e-22 -1.3017e-07)
(-1.89815e-05 1.64062e-21 -7.4407e-07)
(1.00074e-05 0 -2.06593e-07)
(-2.43871e-05 -3.27795e-21 -1.22944e-06)
(1.7947e-05 1.64089e-21 -6.65065e-07)
(-2.27678e-05 -1.63951e-21 -1.07124e-06)
(2.30284e-05 1.63943e-21 -1.09596e-06)
(-1.9787e-06 0 -8.07333e-09)
(-1.04644e-05 0 -2.25899e-07)
(9.31904e-06 0 -1.79138e-07)
(-9.55379e-06 0 -1.88281e-07)
(2.31038e-05 -1.6394e-21 -1.10317e-06)
(-1.41997e-05 0 -4.16117e-07)
(1.96354e-05 0 -7.96303e-07)
(-2.09299e-05 1.64008e-21 -9.04964e-07)
(1.60221e-05 0 -5.29904e-07)
(-2.34425e-06 0 -1.13319e-08)
(-4.60046e-07 0 -4.36404e-10)
(1.90251e-05 -1.64061e-21 -7.47498e-07)
(1.49471e-06 0 -4.60681e-09)
(2.73357e-05 0 -1.54573e-06)
(-1.6584e-05 1.64122e-21 -5.67772e-07)
(2.43823e-05 -3.27796e-21 -1.22895e-06)
(-2.24468e-05 1.63961e-21 -1.04118e-06)
(2.22327e-05 -1.63968e-21 -1.02137e-06)
(-4.90065e-06 -4.10743e-22 -4.95265e-08)
(-5.79884e-06 0 -6.93472e-08)
(1.23237e-05 -1.64208e-21 -3.13366e-07)
(-1.33971e-05 0 -3.70371e-07)
(1.30398e-05 0 -3.50864e-07)
(-2.41028e-05 -3.27815e-21 -1.20087e-06)
(2.11604e-05 0 -9.25045e-07)
(-2.45092e-05 3.27787e-21 -1.24182e-06)
(2.00946e-05 -1.64032e-21 -8.34052e-07)
(-1.53756e-05 0 -4.87961e-07)
(-1.29664e-05 -1.64197e-21 -3.46925e-07)
(4.6586e-06 -4.10748e-22 -4.47545e-08)
(-7.92174e-06 -8.21352e-22 -1.29432e-07)
(1.13625e-05 8.2112e-22 -2.6636e-07)
(-2.1786e-05 0 -9.80664e-07)
(1.4088e-05 0 -4.09594e-07)
(-2.36496e-05 0 -1.15603e-06)
(1.52711e-05 0 -4.81349e-07)
(-1.62496e-05 -1.64129e-21 -5.45081e-07)
(9.97033e-06 0 -2.05064e-07)
(2.24301e-06 2.05388e-22 -1.03743e-08)
(5.25061e-06 4.10737e-22 -5.68533e-08)
(1.28416e-05 0 -3.40275e-07)
(-9.23974e-06 0 -1.76101e-07)
(1.23564e-05 0 -3.15027e-07)
(-7.70248e-06 0 -1.22365e-07)
(1.95385e-05 0 -7.88452e-07)
(-1.65508e-05 -1.64123e-21 -5.65498e-07)
(1.86381e-05 0 -7.1735e-07)
(-2.01746e-05 0 -8.40719e-07)
(2.07795e-05 0 -8.91979e-07)
(-4.34941e-06 -4.10752e-22 -3.90104e-08)
(-1.17879e-05 0 -2.86691e-07)
(5.78091e-06 4.10727e-22 -6.89191e-08)
(-1.32516e-05 0 -3.62363e-07)
(1.48194e-05 -1.64161e-21 -4.53267e-07)
(-2.1566e-05 0 -9.60915e-07)
(1.84177e-05 0 -7.00463e-07)
(-2.2419e-05 1.63962e-21 -1.0386e-06)
(1.69971e-05 0 -5.96442e-07)
(-3.06252e-06 -4.10769e-22 -1.93402e-08)
(7.76565e-06 0 -1.2438e-07)
(1.02707e-05 8.21202e-22 -2.1761e-07)
(1.61354e-06 0 -5.36846e-09)
(8.21838e-07 0 -1.39271e-09)
(-6.37922e-06 8.21429e-22 -8.39259e-08)
(3.20282e-06 0 -2.11529e-08)
(-1.4125e-05 0 -4.11746e-07)
(9.25707e-06 0 -1.76763e-07)
(-1.52138e-05 -1.64152e-21 -4.77734e-07)
(1.12058e-05 0 -2.59064e-07)
(-1.59748e-05 0 -5.26779e-07)
(1.41455e-05 0 -4.12943e-07)
(-2.83305e-06 -2.05386e-22 -1.65504e-08)
(1.16718e-05 0 -2.8107e-07)
(1.00697e-05 0 -2.09171e-07)
(-5.98025e-06 0 -7.37549e-08)
(3.90948e-06 0 -3.15175e-08)
(-9.05601e-06 0 -1.69165e-07)
(3.37728e-06 4.10766e-22 -2.35201e-08)
(-1.44265e-05 -1.64169e-21 -4.29527e-07)
(1.02663e-05 0 -2.17423e-07)
(-1.25833e-05 -1.64203e-21 -3.26712e-07)
(1.66339e-05 0 -5.71195e-07)
(-5.29785e-06 -4.10736e-22 -5.78812e-08)
(1.44325e-05 0 -4.29889e-07)
(1.32383e-06 0 -3.61372e-09)
(-5.76275e-06 0 -6.84867e-08)
(4.41313e-06 0 -4.0162e-08)
(-4.41331e-06 0 -4.01652e-08)
(1.02555e-05 0 -2.16965e-07)
(-1.36668e-05 0 -3.85448e-07)
(6.53777e-06 -8.21422e-22 -8.81502e-08)
(-2.05259e-05 0 -8.70304e-07)
(7.8305e-06 0 -1.26467e-07)
(-1.30323e-05 -1.64195e-21 -3.5046e-07)
(7.53471e-06 0 -1.17091e-07)
(-2.80182e-06 0 -1.61876e-08)
(4.94245e-06 4.10743e-22 -5.0375e-08)
(2.30417e-06 0 -1.09477e-08)
(-3.0366e-06 0 -1.90142e-08)
(7.7817e-06 8.21359e-22 -1.24895e-07)
(-1.27419e-05 1.64201e-21 -3.35005e-07)
(3.57634e-06 0 -2.63747e-08)
(-1.20218e-05 1.64213e-21 -2.98186e-07)
(9.88619e-06 0 -2.01616e-07)
(-1.50845e-05 0 -4.6964e-07)
(1.30249e-05 -1.64196e-21 -3.50064e-07)
(-9.30669e-06 8.21268e-22 -1.78664e-07)
(8.59363e-06 0 -1.52326e-07)
(-9.40437e-06 -8.21262e-22 -1.82435e-07)
(-1.03758e-06 0 -2.21989e-09)
(-2.60452e-06 0 -1.39879e-08)
(-9.73366e-06 -8.2124e-22 -1.9544e-07)
(-1.63642e-06 0 -5.52176e-09)
(-7.95147e-06 0 -1.30406e-07)
(2.00796e-06 0 -8.31388e-09)
(-8.16582e-06 -8.21338e-22 -1.37533e-07)
(1.74999e-05 0 -6.32302e-07)
(-5.23142e-06 -4.10738e-22 -5.64384e-08)
(-8.61362e-06 0 -1.53036e-07)
(-1.56677e-05 0 -5.06698e-07)
(-1.65002e-05 -1.64124e-21 -5.6204e-07)
(-2.71692e-05 3.27594e-21 -1.5269e-06)
(-2.96667e-05 3.27394e-21 -1.82162e-06)
(-4.80023e-05 0 -4.79875e-06)
(-5.25899e-05 0 -5.77151e-06)
(-0.000109111 1.24422e-20 -2.59351e-05)
(-8.81607e-05 -6.34767e-21 -1.65942e-05)
(-0 0 0)
(-0 0 0)
(-0 0 0)
)
;

boundaryField
{
    inlet
    {
        type            calculated;
        value           uniform (0 0 0);
    }
    outlet
    {
        type            calculated;
        value           uniform (0 0 0);
    }
    sideWall
    {
        type            empty;
    }
}


// ************************************************************************* //
