/*--------------------------------*- C++ -*----------------------------------*\
| =========                 |                                                 |
| \\      /  F ield         | foam-extend: Open Source CFD                    |
|  \\    /   O peration     | Version:     3.2                                |
|   \\  /    A nd           | Web:         http://www.foam-extend.org         |
|    \\/     M anipulation  | For copyright notice see file Copyright         |
\*---------------------------------------------------------------------------*/
FoamFile
{
    version     2.0;
    format      ascii;
    class       volScalarField;
    location    "160";
    object      zDim;
}
// * * * * * * * * * * * * * * * * * * * * * * * * * * * * * * * * * * * * * //

dimensions      [0 1 0 0 0 0 0];

internalField   nonuniform List<scalar> 
96000
(
0.0028125
0.0028125
0.0028125
0.0028125
0.0028125
0.0028125
0.0028125
0.0028125
0.0028125
0.0028125
0.0028125
0.0028125
0.0028125
0.0028125
0.0028125
0.0028125
0.0028125
0.0028125
0.0028125
0.0028125
0.0028125
0.0028125
0.0028125
0.0028125
0.0028125
0.0028125
0.0028125
0.0028125
0.0028125
0.0028125
0.0028125
0.0028125
0.0028125
0.0028125
0.0028125
0.0028125
0.0028125
0.0028125
0.0028125
0.0028125
0.0028125
0.0028125
0.0028125
0.0028125
0.0028125
0.0028125
0.0028125
0.0028125
0.0028125
0.0028125
0.0028125
0.0028125
0.0028125
0.0028125
0.0028125
0.0028125
0.0028125
0.0028125
0.0028125
0.0028125
0.0028125
0.0028125
0.0028125
0.0028125
0.0028125
0.0028125
0.0028125
0.0028125
0.0028125
0.0028125
0.0028125
0.0028125
0.0028125
0.0028125
0.0028125
0.0028125
0.0028125
0.0028125
0.0028125
0.0028125
0.0028125
0.0028125
0.0028125
0.0028125
0.0028125
0.0028125
0.0028125
0.0028125
0.0028125
0.0028125
0.0028125
0.0028125
0.0028125
0.0028125
0.0028125
0.0028125
0.0028125
0.00281339
0.00281339
0.00939985
0.0115996
0.00817305
0.00785611
0.00673245
0.00631877
0.00563695
0.00527371
0.00472235
0.00473669
0.00321753
0.00366095
0.00561367
0.00331661
0.00592855
0.00422137
0.00435538
0.00468071
0.00408331
0.00555003
0.00503642
0.00845713
0.00501502
0.00408639
0.00471256
0.00488576
0.00514616
0.00638363
0.00658647
0.00362937
0.00340409
0.00479123
0.00532775
0.00474613
0.00651459
0.00577375
0.00488955
0.00343821
0.0050752
0.00510055
0.00641135
0.00754469
0.0054167
0.0028401
0.00505237
0.00532783
0.00712225
0.00574124
0.00652075
0.0032195
0.0040131
0.00551788
0.00465358
0.00626612
0.00547098
0.0055253
0.00288998
0.00357977
0.00626344
0.0042817
0.0061592
0.00475852
0.00450402
0.00347542
0.00362647
0.00475601
0.00382823
0.00531278
0.00464496
0.00514422
0.00517127
0.00301502
0.00387934
0.00376111
0.00378071
0.00518276
0.00425921
0.0048217
0.00495583
0.00444761
0.00304868
0.00284848
0.00476555
0.00297116
0.00562571
0.00450375
0.00531212
0.00511084
0.00508862
0.00331359
0.00339915
0.0040726
0.00417952
0.0041426
0.00528267
0.00497731
0.00532514
0.00486708
0.0043949
0.00413979
0.00328235
0.00361715
0.00397231
0.00504544
0.00424846
0.0052383
0.00437023
0.0044759
0.00382706
0.00304426
0.0033491
0.00413092
0.00375314
0.00407494
0.0035925
0.00481587
0.00450339
0.00471944
0.00487764
0.00494033
0.00326056
0.00401816
0.00339821
0.00416483
0.00432689
0.00502153
0.00469528
0.00511087
0.00454907
0.00312015
0.00360523
0.00386814
0.00297913
0.00289369
0.00346274
0.00313515
0.00425737
0.0037546
0.00436867
0.00395453
0.00444663
0.00425748
0.00309576
0.00400772
0.00384942
0.00342151
0.00320795
0.00373794
0.00315216
0.00428839
0.00385863
0.00409641
0.00451517
0.00334776
0.00429079
0.00295213
0.00339959
0.0032604
0.00325827
0.00386103
0.00421097
0.00347497
0.00491867
0.00360619
0.00414605
0.00357847
0.00309535
0.00331609
0.00304857
0.00311822
0.00360763
0.00411767
0.00317183
0.00404128
0.00382077
0.00435601
0.00414314
0.00376284
0.00368925
0.00377737
0.00291876
0.0030831
0.00381213
0.00298355
0.00362767
0.00301469
0.00364475
0.0046092
0.00335249
0.0037045
0.00443081
0.00452276
0.00562723
0.00589961
0.00782363
0.00837308
0.0147573
0.0122129
0.00281325
0.00281325
0.0028125
0.0028125
0.0028125
0.0028125
0.0028125
0.0028125
0.0028125
0.0028125
0.0028125
0.0028125
0.0028125
0.0028125
0.0028125
0.0028125
0.0028125
0.0028125
0.0028125
0.0028125
0.0028125
0.0028125
0.0028125
0.0028125
0.0028125
0.0028125
0.0028125
0.0028125
0.0028125
0.0028125
0.0028125
0.0028125
0.0028125
0.0028125
0.0028125
0.0028125
0.0028125
0.0028125
0.0028125
0.0028125
0.0028125
0.0028125
0.0028125
0.0028125
0.0028125
0.0028125
0.0028125
0.0028125
0.0028125
0.0028125
0.0028125
0.0028125
0.0028125
0.0028125
0.0028125
0.0028125
0.0028125
0.0028125
0.0028125
0.0028125
0.0028125
0.0028125
0.0028125
0.0028125
0.0028125
0.0028125
0.0028125
0.0028125
0.0028125
0.0028125
0.0028125
0.0028125
0.0028125
0.0028125
0.0028125
0.0028125
0.0028125
0.0028125
0.0028125
0.0028125
0.0028125
0.0028125
0.0028125
0.0028125
0.0028125
0.0028125
0.0028125
0.0028125
0.0028125
0.0028125
0.0028125
0.0028125
0.0028125
0.0028125
0.00281249
0.00281249
0.00281249
0.00281248
0.00281246
0.00281253
0.00281544
0.00282798
0.0093378
0.0115785
0.00821394
0.00785439
0.00674319
0.00632045
0.00564232
0.00527497
0.00472777
0.00472782
0.00319779
0.00365789
0.00558689
0.00327374
0.0058807
0.00417707
0.00433397
0.0046665
0.00403966
0.00549601
0.00496095
0.0083645
0.00496504
0.0040682
0.00467174
0.00483342
0.00508257
0.00630499
0.00651455
0.00359433
0.00339781
0.00476048
0.00527294
0.00468349
0.00644048
0.0057041
0.00485533
0.0034234
0.00503287
0.00503562
0.00632323
0.00745185
0.00535636
0.00285236
0.00500805
0.00525752
0.00703646
0.00565755
0.00645907
0.00319503
0.00398971
0.00546626
0.00459306
0.00619672
0.00540186
0.00548115
0.00289292
0.00355211
0.00620781
0.00422209
0.00609822
0.00470439
0.00446936
0.00345898
0.00361352
0.00472146
0.00378862
0.00526422
0.00459294
0.00509133
0.00512681
0.00300856
0.00386155
0.0037373
0.00374765
0.00514033
0.00421425
0.00477512
0.00490882
0.00441177
0.00303861
0.00283606
0.00474306
0.00299707
0.00558469
0.00445063
0.00525714
0.0050544
0.00504265
0.00330092
0.00338615
0.00404717
0.00414648
0.00410302
0.00523048
0.00492054
0.00526903
0.00481739
0.00437689
0.00412822
0.00326416
0.00359565
0.00394049
0.00500221
0.00420229
0.00519065
0.00432607
0.00444097
0.00380361
0.0030531
0.00335013
0.00411539
0.00372673
0.00404867
0.00356199
0.00477729
0.00445849
0.00467289
0.0048286
0.00489873
0.00325423
0.0040023
0.00337613
0.00413394
0.00428712
0.00497346
0.00464466
0.00506183
0.00451059
0.00310172
0.00359724
0.0038637
0.00298617
0.00289058
0.0034521
0.00311937
0.00423146
0.00372508
0.00433648
0.00392089
0.00441135
0.00422691
0.00307677
0.00399586
0.00384503
0.00340674
0.00319394
0.00372212
0.00313357
0.00426138
0.00382912
0.00406364
0.00448275
0.00332199
0.00426971
0.00296064
0.00338965
0.0032488
0.00324243
0.00383827
0.00418364
0.00344549
0.00488441
0.00357508
0.00412054
0.00355796
0.00308456
0.00330906
0.0030487
0.00310756
0.00358981
0.0040956
0.00315144
0.00401677
0.00379154
0.00432287
0.00411106
0.00373798
0.00366662
0.00376274
0.00292384
0.00308845
0.00380284
0.00299276
0.00361682
0.00300143
0.00362099
0.00457981
0.0033432
0.00371002
0.00442846
0.00453228
0.00562521
0.00591824
0.00781922
0.00845444
0.014737
0.0121119
0.00282649
0.00281563
0.00281258
0.0028125
0.0028125
0.0028125
0.0028125
0.0028125
0.0028125
0.0028125
0.0028125
0.0028125
0.0028125
0.0028125
0.0028125
0.0028125
0.0028125
0.0028125
0.0028125
0.0028125
0.0028125
0.0028125
0.0028125
0.0028125
0.0028125
0.0028125
0.0028125
0.0028125
0.0028125
0.0028125
0.0028125
0.0028125
0.0028125
0.0028125
0.0028125
0.0028125
0.0028125
0.0028125
0.0028125
0.0028125
0.0028125
0.0028125
0.0028125
0.0028125
0.0028125
0.0028125
0.0028125
0.0028125
0.0028125
0.0028125
0.0028125
0.0028125
0.0028125
0.0028125
0.0028125
0.0028125
0.0028125
0.0028125
0.0028125
0.0028125
0.0028125
0.0028125
0.0028125
0.0028125
0.0028125
0.0028125
0.0028125
0.0028125
0.0028125
0.0028125
0.0028125
0.0028125
0.0028125
0.0028125
0.0028125
0.0028125
0.0028125
0.0028125
0.0028125
0.0028125
0.0028125
0.0028125
0.0028125
0.0028125
0.0028125
0.0028125
0.0028125
0.0028125
0.0028125
0.0028125
0.0028125
0.00281249
0.00281249
0.00281249
0.00281248
0.00281248
0.00281247
0.00281246
0.0028124
0.00281272
0.00281786
0.00286365
0.00926395
0.0115401
0.00826403
0.0078497
0.00675621
0.00632123
0.00564877
0.00527552
0.0047355
0.00471161
0.00316695
0.00365741
0.00554298
0.00320848
0.00580634
0.0041087
0.00430563
0.00464035
0.00397371
0.00541202
0.0048444
0.00822234
0.0048856
0.00404519
0.00460807
0.00475396
0.00498448
0.00618393
0.00640515
0.00353869
0.00339252
0.00471055
0.00518939
0.00458745
0.00632734
0.00559775
0.00479944
0.00340545
0.00496617
0.00493721
0.00618844
0.00730896
0.00526609
0.00286451
0.00494264
0.00514953
0.00690539
0.00552949
0.00636223
0.00316124
0.00395093
0.00538804
0.00450033
0.00609043
0.00529601
0.0054112
0.00290313
0.00350807
0.00612323
0.00413058
0.00600467
0.00462196
0.00441494
0.00343659
0.00359081
0.00466893
0.003728
0.0051904
0.004513
0.00501033
0.00506061
0.00299499
0.00383555
0.00370016
0.00369813
0.00507506
0.00414551
0.00470379
0.00483638
0.0043583
0.00302107
0.00281868
0.00470813
0.00303802
0.00552035
0.0043698
0.00517309
0.00496724
0.00497358
0.00327886
0.00336845
0.00400735
0.00409628
0.0040421
0.00515113
0.00483355
0.0051831
0.00474209
0.00434567
0.00411319
0.00323637
0.00356358
0.00389094
0.00493655
0.00413158
0.00511775
0.004259
0.00438669
0.00376965
0.0030654
0.00335325
0.00408981
0.00368646
0.00400857
0.00351591
0.00471772
0.00439002
0.00460161
0.00475345
0.00483642
0.00324115
0.00397942
0.00334204
0.0040876
0.00422573
0.00490036
0.00456712
0.00498647
0.00445326
0.00307238
0.00358708
0.00385571
0.00299567
0.00288512
0.00343637
0.00309468
0.00419242
0.00367986
0.00428739
0.00386941
0.00435749
0.00418115
0.00304723
0.00397964
0.00383586
0.00338376
0.00317237
0.00369817
0.00310478
0.00422073
0.00378407
0.00401367
0.00443366
0.00328233
0.00423834
0.00297083
0.00337492
0.00323121
0.00321882
0.00380264
0.0041419
0.00340014
0.004832
0.00352798
0.00408116
0.00352755
0.00306769
0.00329903
0.0030478
0.00309208
0.00356168
0.00406139
0.00312041
0.00397988
0.00374671
0.00427233
0.00406241
0.00369955
0.00363236
0.00373917
0.00293262
0.00309519
0.00378865
0.00300677
0.00360048
0.00298106
0.00358575
0.00453501
0.0033267
0.00371724
0.00442403
0.00454504
0.00562037
0.00594218
0.00780966
0.00855309
0.014689
0.0119923
0.00287015
0.00281869
0.00281296
0.0028125
0.0028125
0.0028125
0.0028125
0.0028125
0.0028125
0.0028125
0.0028125
0.0028125
0.0028125
0.0028125
0.0028125
0.0028125
0.0028125
0.0028125
0.0028125
0.0028125
0.0028125
0.0028125
0.0028125
0.0028125
0.0028125
0.0028125
0.0028125
0.0028125
0.0028125
0.0028125
0.0028125
0.0028125
0.0028125
0.0028125
0.0028125
0.0028125
0.0028125
0.0028125
0.0028125
0.0028125
0.0028125
0.0028125
0.0028125
0.0028125
0.0028125
0.0028125
0.0028125
0.0028125
0.0028125
0.0028125
0.0028125
0.0028125
0.0028125
0.0028125
0.0028125
0.0028125
0.0028125
0.0028125
0.0028125
0.0028125
0.0028125
0.0028125
0.0028125
0.0028125
0.0028125
0.0028125
0.0028125
0.0028125
0.0028125
0.0028125
0.0028125
0.0028125
0.0028125
0.0028125
0.0028125
0.0028125
0.0028125
0.0028125
0.0028125
0.0028125
0.0028125
0.0028125
0.0028125
0.0028125
0.0028125
0.0028125
0.0028125
0.0028125
0.0028125
0.00281249
0.00281249
0.00281249
0.00281249
0.00281248
0.00281248
0.00281247
0.00281245
0.00281244
0.00281237
0.00281307
0.00281971
0.00291636
0.00918164
0.0114868
0.0083201
0.00784318
0.00677081
0.00632141
0.00565597
0.00527558
0.00474486
0.00469005
0.00312729
0.00365888
0.00548603
0.00312739
0.00571293
0.00402239
0.00427306
0.00460537
0.00389205
0.00530658
0.00469828
0.00804345
0.00478457
0.00401909
0.00452789
0.00465588
0.00486166
0.00603185
0.0062691
0.00346895
0.0033893
0.00464651
0.00508538
0.00446809
0.00618639
0.00546464
0.00472766
0.00338622
0.00488178
0.00481551
0.0060199
0.0071292
0.00515438
0.00287618
0.00486269
0.0050144
0.00674136
0.00536925
0.00623979
0.00312201
0.00390059
0.00529076
0.00438468
0.00595762
0.00516348
0.00532249
0.00291957
0.00345193
0.0060178
0.00401624
0.00588803
0.00451953
0.00434601
0.00341033
0.00356084
0.00460338
0.00365249
0.00509872
0.00441294
0.00490904
0.00497893
0.0029758
0.00380403
0.00365362
0.00363755
0.00499336
0.00405941
0.00461474
0.00474593
0.00429268
0.00299788
0.00280745
0.00466428
0.00309061
0.00543895
0.00426877
0.00506836
0.00485756
0.00488794
0.00325034
0.00334804
0.00395703
0.00403381
0.0039661
0.00505214
0.00472461
0.00507574
0.0046482
0.00430458
0.00409592
0.00320195
0.00352456
0.0038287
0.00485489
0.00404316
0.00502661
0.00417554
0.00431822
0.00372872
0.00308055
0.00335841
0.00405677
0.00363637
0.00395871
0.00345885
0.00464303
0.00430462
0.00451264
0.00465929
0.00475902
0.00322313
0.00395152
0.00329945
0.00403054
0.00414876
0.00480934
0.00447004
0.00489188
0.0043826
0.003035
0.00357607
0.00384514
0.00300721
0.00287837
0.00341729
0.00306372
0.00414399
0.00362345
0.00422621
0.00380518
0.00429045
0.00412469
0.00300997
0.00396054
0.00382307
0.00335504
0.00314567
0.00366882
0.00306892
0.00417028
0.00372796
0.0039512
0.00437262
0.00323292
0.00419965
0.00298219
0.00335681
0.0032097
0.00318998
0.00375772
0.00409004
0.00334355
0.00476645
0.0034696
0.00403185
0.00349032
0.00304672
0.00328713
0.00304628
0.00307358
0.00352618
0.00401843
0.00308217
0.00393431
0.00369059
0.00420925
0.00400184
0.00365139
0.00358982
0.00370904
0.00294431
0.00310295
0.00377093
0.0030245
0.00358037
0.00295566
0.00354228
0.00447856
0.00330491
0.00372551
0.00441813
0.00456024
0.00561366
0.00596997
0.00779726
0.00866335
0.0146169
0.0118593
0.00293841
0.00282111
0.00281373
0.0028125
0.0028125
0.0028125
0.0028125
0.0028125
0.0028125
0.0028125
0.0028125
0.0028125
0.0028125
0.0028125
0.0028125
0.0028125
0.0028125
0.0028125
0.0028125
0.0028125
0.0028125
0.0028125
0.0028125
0.0028125
0.0028125
0.0028125
0.0028125
0.0028125
0.0028125
0.0028125
0.0028125
0.0028125
0.0028125
0.0028125
0.0028125
0.0028125
0.0028125
0.0028125
0.0028125
0.0028125
0.0028125
0.0028125
0.0028125
0.0028125
0.0028125
0.0028125
0.0028125
0.0028125
0.0028125
0.0028125
0.0028125
0.0028125
0.0028125
0.0028125
0.0028125
0.0028125
0.0028125
0.0028125
0.0028125
0.0028125
0.0028125
0.0028125
0.0028125
0.0028125
0.0028125
0.0028125
0.0028125
0.0028125
0.0028125
0.0028125
0.0028125
0.0028125
0.0028125
0.0028125
0.0028125
0.0028125
0.0028125
0.0028125
0.0028125
0.0028125
0.0028125
0.0028125
0.0028125
0.0028125
0.0028125
0.0028125
0.0028125
0.0028125
0.00281249
0.00281249
0.00281249
0.00281249
0.00281248
0.00281248
0.00281247
0.00281246
0.00281245
0.00281245
0.00281238
0.0028136
0.0028201
0.00298161
0.00909351
0.0114211
0.00837922
0.0078359
0.00678626
0.00632121
0.00566358
0.00527531
0.00475504
0.00466502
0.00308105
0.00366129
0.00541918
0.00303591
0.0056068
0.00392346
0.00423734
0.00456312
0.0037998
0.0051876
0.00453194
0.00783786
0.00466837
0.0039896
0.00443624
0.00454538
0.00472226
0.00585813
0.00611401
0.00338906
0.00338688
0.00457291
0.00496726
0.0043329
0.00602637
0.00531272
0.00464442
0.00336551
0.00478539
0.00467816
0.00582793
0.00692377
0.0050277
0.0028862
0.00477253
0.00486119
0.00655495
0.00518692
0.00609928
0.0030786
0.00384193
0.00518038
0.00425372
0.00580644
0.00501182
0.00522088
0.00294043
0.00338805
0.00589786
0.00388618
0.00575537
0.00440315
0.00426734
0.00338132
0.00352522
0.00452888
0.00356775
0.00499446
0.00429811
0.00479397
0.00488721
0.00295296
0.00376812
0.00359969
0.00356947
0.00490084
0.0039617
0.00451353
0.00464288
0.00421866
0.00297084
0.00281812
0.00461333
0.00314916
0.00534577
0.00415435
0.00495025
0.00473268
0.00479113
0.00321695
0.00332512
0.00389887
0.0039631
0.00388039
0.00494012
0.00460119
0.0049541
0.00454141
0.00425635
0.0040762
0.00316248
0.0034809
0.00375787
0.00476263
0.00394297
0.0049233
0.00408117
0.00423989
0.00368307
0.00309674
0.00336445
0.0040184
0.00357953
0.00390239
0.0033945
0.00455815
0.00420778
0.0044118
0.00455242
0.0046713
0.00320171
0.00391973
0.00325108
0.00396611
0.00406114
0.00470631
0.0043597
0.0047845
0.00430341
0.00299217
0.00356454
0.00383179
0.00301911
0.00287022
0.00339603
0.00302887
0.00408921
0.00355966
0.0041567
0.00373212
0.00421418
0.00406072
0.00296774
0.00393967
0.00380755
0.00332206
0.00311527
0.00363543
0.0030278
0.00411324
0.00366484
0.00388057
0.00430379
0.0031768
0.00415535
0.00299345
0.00333584
0.00318549
0.00315762
0.00370637
0.00403152
0.00327953
0.00469197
0.00340383
0.0039755
0.00344812
0.00302272
0.00327355
0.00304402
0.00305317
0.00348572
0.00396937
0.00303927
0.00388267
0.00362664
0.00413765
0.00393321
0.00359692
0.00354178
0.0036741
0.00295757
0.00311099
0.00375037
0.00304421
0.00355756
0.00292693
0.00349321
0.00441363
0.00327969
0.00373397
0.00441116
0.00457687
0.00560582
0.00600013
0.00778404
0.00877989
0.0145249
0.011717
0.00302473
0.00282169
0.00281493
0.0028125
0.0028125
0.0028125
0.0028125
0.0028125
0.0028125
0.0028125
0.0028125
0.0028125
0.0028125
0.0028125
0.0028125
0.0028125
0.0028125
0.0028125
0.0028125
0.0028125
0.0028125
0.0028125
0.0028125
0.0028125
0.0028125
0.0028125
0.0028125
0.0028125
0.0028125
0.0028125
0.0028125
0.0028125
0.0028125
0.0028125
0.0028125
0.0028125
0.0028125
0.0028125
0.0028125
0.0028125
0.0028125
0.0028125
0.0028125
0.0028125
0.0028125
0.0028125
0.0028125
0.0028125
0.0028125
0.0028125
0.0028125
0.0028125
0.0028125
0.0028125
0.0028125
0.0028125
0.0028125
0.0028125
0.0028125
0.0028125
0.0028125
0.0028125
0.0028125
0.0028125
0.0028125
0.0028125
0.0028125
0.0028125
0.0028125
0.0028125
0.0028125
0.0028125
0.0028125
0.0028125
0.0028125
0.0028125
0.0028125
0.0028125
0.0028125
0.0028125
0.0028125
0.0028125
0.0028125
0.0028125
0.0028125
0.0028125
0.0028125
0.00281249
0.00281249
0.00281249
0.00281249
0.00281248
0.00281248
0.00281247
0.00281246
0.00281246
0.00281245
0.00281248
0.00281249
0.00281432
0.00281832
0.00305574
0.00900151
0.0113457
0.0084394
0.00782908
0.00680248
0.00632126
0.00567174
0.00527525
0.0047658
0.00463827
0.00303052
0.00366506
0.00534675
0.00293922
0.00549329
0.00381681
0.00420067
0.00451678
0.00370169
0.0050614
0.00435473
0.00761671
0.00454396
0.0039574
0.00433827
0.00442915
0.00457446
0.005672
0.00594838
0.00330481
0.00338557
0.00449339
0.00484129
0.00419031
0.0058564
0.00515004
0.0045545
0.00334405
0.00468229
0.00453339
0.00562377
0.00670371
0.00489242
0.00289499
0.00467667
0.00469802
0.00635609
0.00499291
0.00594893
0.00303306
0.00377784
0.00506265
0.00411524
0.00564583
0.00484984
0.00511216
0.00296378
0.00331965
0.00577
0.00374842
0.00561464
0.00427921
0.00418314
0.00335075
0.00348598
0.00444899
0.00347873
0.00488457
0.00417634
0.00467144
0.00478874
0.00292728
0.00372982
0.0035426
0.00349822
0.00480214
0.00385778
0.00440692
0.0045336
0.00413966
0.00294093
0.00284418
0.00455938
0.00321148
0.00524633
0.00403255
0.00482496
0.0045987
0.0046882
0.00318196
0.0033018
0.00383677
0.00388824
0.00378983
0.00482085
0.00446994
0.00482497
0.00442729
0.00420428
0.00405516
0.00312077
0.00343568
0.00368263
0.00466473
0.00383652
0.00481343
0.0039811
0.00415622
0.00363569
0.00311392
0.00337125
0.00397706
0.00351916
0.00384288
0.00332663
0.00446813
0.00410524
0.00430515
0.00443858
0.00457741
0.00317854
0.0038856
0.00320021
0.00389861
0.0039684
0.00459728
0.00424223
0.0046697
0.00421928
0.00294626
0.00355367
0.00381737
0.00303201
0.002862
0.00337373
0.00299194
0.00403091
0.00349226
0.00408336
0.00365534
0.0041336
0.00399272
0.00292244
0.00391751
0.00379014
0.0032871
0.00308387
0.00360091
0.00298466
0.00405262
0.00359778
0.00380516
0.00423079
0.00311772
0.00410842
0.00300506
0.00331342
0.00316038
0.00312387
0.00365159
0.0039697
0.00321177
0.00461256
0.00333457
0.00391589
0.0034041
0.00299789
0.00325938
0.00304149
0.00303194
0.00344228
0.00391685
0.0029947
0.00382851
0.00355924
0.00406185
0.00386013
0.00353922
0.0034911
0.00363679
0.00297224
0.00311974
0.00372868
0.0030656
0.00353393
0.00289718
0.00344162
0.00434376
0.00325337
0.0037427
0.00440419
0.00459493
0.0055982
0.00603222
0.0077723
0.0088992
0.0144171
0.0115689
0.00312405
0.00281951
0.00281661
0.0028125
0.0028125
0.0028125
0.0028125
0.0028125
0.0028125
0.0028125
0.0028125
0.0028125
0.0028125
0.0028125
0.0028125
0.0028125
0.0028125
0.0028125
0.0028125
0.0028125
0.0028125
0.0028125
0.0028125
0.0028125
0.0028125
0.0028125
0.0028125
0.0028125
0.0028125
0.0028125
0.0028125
0.0028125
0.0028125
0.0028125
0.0028125
0.0028125
0.0028125
0.0028125
0.0028125
0.0028125
0.0028125
0.0028125
0.0028125
0.0028125
0.0028125
0.0028125
0.0028125
0.0028125
0.0028125
0.0028125
0.0028125
0.0028125
0.0028125
0.0028125
0.0028125
0.0028125
0.0028125
0.0028125
0.0028125
0.0028125
0.0028125
0.0028125
0.0028125
0.0028125
0.0028125
0.0028125
0.0028125
0.0028125
0.0028125
0.0028125
0.0028125
0.0028125
0.0028125
0.0028125
0.0028125
0.0028125
0.0028125
0.0028125
0.0028125
0.0028125
0.0028125
0.0028125
0.0028125
0.0028125
0.0028125
0.0028125
0.00281249
0.00281249
0.00281249
0.00281249
0.00281249
0.00281248
0.00281248
0.00281247
0.00281247
0.00281247
0.00281249
0.00281257
0.00281271
0.00281526
0.00281391
0.00313599
0.00890715
0.0112618
0.0084985
0.00782298
0.00681879
0.00632144
0.00568001
0.00527528
0.00477646
0.00461069
0.00297682
0.00366902
0.00527095
0.00286614
0.00537681
0.00370595
0.00416348
0.00446808
0.00360116
0.00493299
0.0041729
0.00738665
0.00441573
0.00392273
0.00423708
0.00431136
0.00442367
0.00547989
0.00577753
0.00321916
0.0033855
0.00441142
0.00471209
0.00404515
0.00568206
0.00498217
0.00446155
0.00332212
0.00457569
0.00438607
0.00541432
0.00647652
0.00475305
0.0029024
0.00457835
0.00453105
0.00615167
0.00479337
0.00579386
0.00298721
0.0037107
0.00494176
0.00397415
0.00548101
0.00468253
0.00500036
0.00298884
0.00324922
0.00563826
0.00360696
0.00547044
0.00415245
0.00409653
0.00331939
0.00344489
0.00436657
0.00338831
0.00477226
0.00405122
0.00454575
0.00468806
0.0029003
0.00369004
0.0034836
0.00342625
0.00470138
0.00375121
0.00429769
0.00442163
0.00405927
0.00290958
0.00287205
0.00450323
0.00327482
0.00514436
0.00390784
0.00469765
0.00446052
0.00458199
0.00314646
0.00327823
0.00377292
0.00381184
0.00369804
0.00469851
0.0043354
0.00469307
0.00430966
0.00415026
0.00403281
0.0030779
0.00339023
0.00360559
0.00456459
0.00372761
0.00470097
0.00387888
0.00406995
0.00358781
0.00313109
0.0033782
0.00393398
0.00345743
0.00378261
0.00325776
0.00437601
0.00400026
0.00419634
0.00432161
0.00448045
0.00315491
0.00384993
0.00314829
0.00382998
0.00387338
0.00448579
0.00412193
0.00455194
0.00413371
0.00289911
0.00354302
0.0038013
0.0030447
0.00285412
0.00335129
0.00295469
0.00397122
0.0034234
0.00400817
0.0035767
0.00405113
0.00392348
0.00287614
0.00389493
0.00377128
0.00325097
0.00305184
0.00356596
0.00294103
0.00399046
0.0035297
0.00372784
0.00415584
0.00305754
0.00405974
0.00301635
0.0032899
0.00313528
0.00308982
0.00359525
0.00390685
0.00314286
0.00453087
0.0032639
0.00385465
0.00335915
0.00297276
0.00324496
0.00303885
0.00301084
0.00339768
0.00386266
0.00294972
0.00377315
0.0034902
0.00398418
0.00378527
0.00348041
0.00343922
0.00359807
0.0029872
0.00312836
0.00370589
0.00308718
0.00350971
0.00286703
0.0033888
0.0042706
0.0032267
0.0037508
0.00439705
0.00461342
0.00559083
0.00606499
0.00776266
0.00901757
0.0142959
0.0114172
0.00323217
0.00281384
0.00281886
0.0028125
0.0028125
0.0028125
0.0028125
0.0028125
0.0028125
0.0028125
0.0028125
0.0028125
0.0028125
0.0028125
0.0028125
0.0028125
0.0028125
0.0028125
0.0028125
0.0028125
0.0028125
0.0028125
0.0028125
0.0028125
0.0028125
0.0028125
0.0028125
0.0028125
0.0028125
0.0028125
0.0028125
0.0028125
0.0028125
0.0028125
0.0028125
0.0028125
0.0028125
0.0028125
0.0028125
0.0028125
0.0028125
0.0028125
0.0028125
0.0028125
0.0028125
0.0028125
0.0028125
0.0028125
0.0028125
0.0028125
0.0028125
0.0028125
0.0028125
0.0028125
0.0028125
0.0028125
0.0028125
0.0028125
0.0028125
0.0028125
0.0028125
0.0028125
0.0028125
0.0028125
0.0028125
0.0028125
0.0028125
0.0028125
0.0028125
0.0028125
0.0028125
0.0028125
0.0028125
0.0028125
0.0028125
0.0028125
0.0028125
0.0028125
0.0028125
0.0028125
0.0028125
0.0028125
0.0028125
0.0028125
0.0028125
0.0028125
0.00281249
0.00281249
0.00281249
0.00281249
0.00281249
0.00281248
0.00281248
0.00281248
0.00281248
0.0028125
0.00281255
0.00281271
0.00281307
0.00281647
0.00280873
0.00322018
0.00881185
0.0111712
0.00855508
0.00781778
0.00683474
0.0063217
0.0056881
0.00527532
0.00478653
0.00458294
0.0029209
0.00367266
0.00519277
0.00289205
0.00526053
0.00359367
0.0041262
0.00441722
0.00350046
0.00480654
0.00399087
0.00715206
0.00428652
0.00388561
0.00413545
0.00419464
0.00427341
0.0052862
0.00560532
0.00313384
0.00338522
0.00432916
0.00458246
0.00390088
0.00550732
0.00481259
0.00436748
0.00329967
0.004469
0.00423981
0.005204
0.00624728
0.00461247
0.0029079
0.00447959
0.00436458
0.00594668
0.00459313
0.00563745
0.00294133
0.00364227
0.00482056
0.00383411
0.00531568
0.00451315
0.00488805
0.00301486
0.00317946
0.0055057
0.00346537
0.00532601
0.00402523
0.00400988
0.00328788
0.00340249
0.00428361
0.00329981
0.00465981
0.00392459
0.00441986
0.00458763
0.00287356
0.00364939
0.00342344
0.00335498
0.00460101
0.00364474
0.00418856
0.00430923
0.00397871
0.00287802
0.00290186
0.0044456
0.00333596
0.00504176
0.0037833
0.00457171
0.00432191
0.00447565
0.00311105
0.00325419
0.00370809
0.0037356
0.00360749
0.00457636
0.00420125
0.00456166
0.00419105
0.00409546
0.00400903
0.00303465
0.00334564
0.0035287
0.0044648
0.00361902
0.00458869
0.00377704
0.00398312
0.00354053
0.00314751
0.00338477
0.00389023
0.00339565
0.0037229
0.00318948
0.00428411
0.00389537
0.00408794
0.00420451
0.00438266
0.0031315
0.00381324
0.00309676
0.00376162
0.00377833
0.00437457
0.0040014
0.00443412
0.00404895
0.00285202
0.00353314
0.00378371
0.00305617
0.00284603
0.00332916
0.00291821
0.00391154
0.00335508
0.00393294
0.00349807
0.00396839
0.003854
0.00284455
0.0038726
0.00375183
0.00321447
0.00302
0.00353104
0.00289727
0.0039282
0.00346248
0.00365079
0.00408132
0.00299768
0.00400999
0.00302647
0.00326542
0.00311073
0.0030563
0.00353868
0.00384456
0.0030745
0.0044489
0.0031939
0.00379313
0.00331408
0.00294776
0.00323014
0.00303592
0.00299032
0.00335316
0.0038082
0.00290579
0.00371778
0.00342102
0.00390644
0.00371035
0.00342219
0.00338761
0.00355879
0.00300186
0.00313662
0.00368238
0.00310823
0.00348547
0.0028373
0.00333598
0.00419567
0.00320048
0.0037579
0.00438991
0.00463185
0.00558397
0.00609774
0.00775571
0.00913233
0.0141636
0.0112639
0.00334596
0.00280887
0.00282174
0.0028125
0.0028125
0.0028125
0.0028125
0.0028125
0.0028125
0.0028125
0.0028125
0.0028125
0.0028125
0.0028125
0.0028125
0.0028125
0.0028125
0.0028125
0.0028125
0.0028125
0.0028125
0.0028125
0.0028125
0.0028125
0.0028125
0.0028125
0.0028125
0.0028125
0.0028125
0.0028125
0.0028125
0.0028125
0.0028125
0.0028125
0.0028125
0.0028125
0.0028125
0.0028125
0.0028125
0.0028125
0.0028125
0.0028125
0.0028125
0.0028125
0.0028125
0.0028125
0.0028125
0.0028125
0.0028125
0.0028125
0.0028125
0.0028125
0.0028125
0.0028125
0.0028125
0.0028125
0.0028125
0.0028125
0.0028125
0.0028125
0.0028125
0.0028125
0.0028125
0.0028125
0.0028125
0.0028125
0.0028125
0.0028125
0.0028125
0.0028125
0.0028125
0.0028125
0.0028125
0.0028125
0.0028125
0.0028125
0.0028125
0.0028125
0.0028125
0.0028125
0.0028125
0.0028125
0.0028125
0.0028125
0.0028125
0.0028125
0.00281249
0.00281249
0.00281249
0.00281249
0.00281249
0.00281249
0.00281249
0.00281249
0.00281251
0.00281255
0.00281265
0.00281293
0.00281361
0.00281802
0.00280999
0.00330651
0.00871655
0.0110756
0.0086087
0.00781436
0.0068508
0.00632273
0.0056965
0.00527599
0.00479632
0.00455603
0.0028644
0.00367699
0.00511482
0.00299053
0.00514678
0.00348247
0.00409059
0.00436635
0.00340214
0.00468471
0.00381334
0.00691944
0.00416027
0.00384708
0.00403623
0.00408246
0.00412808
0.00509577
0.00543632
0.00305237
0.00338544
0.00424799
0.00445538
0.00376208
0.0053371
0.00464559
0.00427453
0.00327777
0.00436501
0.00409888
0.00499902
0.00602168
0.00447391
0.00291216
0.00438269
0.00420215
0.00574607
0.00439787
0.00548405
0.00289655
0.00357405
0.00470175
0.00369887
0.00515471
0.00434696
0.00477799
0.00304099
0.00311136
0.00537587
0.00332857
0.00518557
0.0039007
0.00392532
0.00325694
0.00335968
0.00420193
0.00321542
0.00455089
0.00380146
0.00429681
0.00448776
0.00286003
0.00360897
0.00336535
0.00328677
0.00450271
0.00354103
0.00408356
0.00419986
0.00389943
0.00284918
0.00293358
0.00438962
0.00339497
0.00494116
0.00366128
0.00444931
0.00418583
0.00437202
0.00307784
0.00323132
0.00364444
0.00366149
0.0035201
0.00445706
0.00407061
0.00443384
0.00407421
0.0040416
0.00398488
0.00299278
0.00330375
0.00345411
0.00436773
0.00351351
0.00447926
0.003678
0.00389809
0.00349555
0.00316374
0.00339131
0.00384739
0.00333534
0.00366517
0.00312353
0.00419484
0.00379355
0.00398312
0.00409014
0.00428599
0.00310893
0.00377663
0.00304744
0.00369603
0.00368638
0.00426662
0.00388369
0.00431844
0.00396597
0.00284995
0.00352502
0.00376648
0.00306789
0.00283877
0.0033078
0.00288302
0.00385315
0.00328912
0.00386032
0.00342271
0.00388797
0.00378588
0.00285957
0.00385027
0.00373221
0.00317922
0.00299042
0.00349792
0.00285536
0.0038673
0.00339705
0.00357551
0.00400898
0.00294025
0.0039613
0.00303629
0.00324095
0.00308761
0.00302446
0.00348341
0.00378439
0.00300839
0.00436869
0.0031266
0.00373358
0.00327107
0.00292433
0.00321571
0.00303305
0.00297078
0.00330936
0.00375481
0.00286465
0.00366465
0.00335444
0.00383096
0.00363702
0.00336602
0.00333786
0.00352054
0.00301673
0.00314534
0.00365962
0.00312945
0.0034627
0.00282591
0.0032851
0.00412123
0.00317636
0.00376471
0.00438379
0.00465085
0.00557881
0.00613097
0.00775276
0.0092425
0.0140231
0.0111111
0.00346311
0.00281266
0.00282537
0.0028125
0.0028125
0.0028125
0.0028125
0.0028125
0.0028125
0.0028125
0.0028125
0.0028125
0.0028125
0.0028125
0.0028125
0.0028125
0.0028125
0.0028125
0.0028125
0.0028125
0.0028125
0.0028125
0.0028125
0.0028125
0.0028125
0.0028125
0.0028125
0.0028125
0.0028125
0.0028125
0.0028125
0.0028125
0.0028125
0.0028125
0.0028125
0.0028125
0.0028125
0.0028125
0.0028125
0.0028125
0.0028125
0.0028125
0.0028125
0.0028125
0.0028125
0.0028125
0.0028125
0.0028125
0.0028125
0.0028125