/*--------------------------------*- C++ -*----------------------------------*\
| =========                 |                                                 |
| \\      /  F ield         | foam-extend: Open Source CFD                    |
|  \\    /   O peration     | Version:     3.2                                |
|   \\  /    A nd           | Web:         http://www.foam-extend.org         |
|    \\/     M anipulation  | For copyright notice see file Copyright         |
\*---------------------------------------------------------------------------*/
FoamFile
{
    version     2.0;
    format      ascii;
    class       areaScalarField;
    location    "160";
    object      zDimA;
}
// * * * * * * * * * * * * * * * * * * * * * * * * * * * * * * * * * * * * * //

dimensions      [0 1 0 0 0 0 0];

internalField   nonuniform List<scalar> 
300
(
0.0028125
0.0028125
0.0028125
0.0028125
0.0028125
0.0028125
0.0028125
0.0028125
0.0028125
0.0028125
0.0028125
0.0028125
0.0028125
0.0028125
0.0028125
0.0028125
0.0028125
0.0028125
0.0028125
0.0028125
0.0028125
0.0028125
0.0028125
0.0028125
0.0028125
0.0028125
0.0028125
0.0028125
0.0028125
0.0028125
0.0028125
0.0028125
0.0028125
0.0028125
0.0028125
0.0028125
0.0028125
0.0028125
0.0028125
0.0028125
0.0028125
0.0028125
0.0028125
0.0028125
0.0028125
0.0028125
0.0028125
0.0028125
0.0028125
0.0028125
0.0028125
0.0028125
0.0028125
0.0028125
0.0028125
0.0028125
0.0028125
0.0028125
0.0028125
0.0028125
0.0028125
0.0028125
0.0028125
0.0028125
0.0028125
0.0028125
0.0028125
0.0028125
0.0028125
0.0028125
0.0028125
0.0028125
0.0028125
0.0028125
0.0028125
0.0028125
0.0028125
0.0028125
0.0028125
0.0028125
0.0028125
0.0028125
0.0028125
0.0028125
0.0028125
0.0028125
0.0028125
0.0028125
0.0028125
0.0028125
0.0028125
0.0028125
0.0028125
0.0028125
0.0028125
0.0028125
0.0028125
0.00281339
0.00281339
0.00939985
0.0115996
0.00817305
0.00785611
0.00673245
0.00631877
0.00563695
0.00527371
0.00472235
0.00473669
0.00321753
0.00366095
0.00561367
0.00331661
0.00592855
0.00422137
0.00435538
0.00468071
0.00408331
0.00555003
0.00503642
0.00845713
0.00501502
0.00408639
0.00471256
0.00488576
0.00514616
0.00638363
0.00658647
0.00362937
0.00340409
0.00479123
0.00532775
0.00474613
0.00651459
0.00577375
0.00488955
0.00343821
0.0050752
0.00510055
0.00641135
0.00754469
0.0054167
0.0028401
0.00505237
0.00532783
0.00712225
0.00574124
0.00652075
0.0032195
0.0040131
0.00551788
0.00465358
0.00626612
0.00547098
0.0055253
0.00288998
0.00357977
0.00626344
0.0042817
0.0061592
0.00475852
0.00450402
0.00347542
0.00362647
0.00475601
0.00382823
0.00531278
0.00464496
0.00514422
0.00517127
0.00301502
0.00387934
0.00376111
0.00378071
0.00518276
0.00425921
0.0048217
0.00495583
0.00444761
0.00304868
0.00284848
0.00476555
0.00297116
0.00562571
0.00450375
0.00531212
0.00511084
0.00508862
0.00331359
0.00339915
0.0040726
0.00417952
0.0041426
0.00528267
0.00497731
0.00532514
0.00486708
0.0043949
0.00413979
0.00328235
0.00361715
0.00397231
0.00504544
0.00424846
0.0052383
0.00437023
0.0044759
0.00382706
0.00304426
0.0033491
0.00413092
0.00375314
0.00407494
0.0035925
0.00481587
0.00450339
0.00471944
0.00487764
0.00494033
0.00326056
0.00401816
0.00339821
0.00416483
0.00432689
0.00502153
0.00469528
0.00511087
0.00454907
0.00312015
0.00360523
0.00386814
0.00297913
0.00289369
0.00346274
0.00313515
0.00425737
0.0037546
0.00436867
0.00395453
0.00444663
0.00425748
0.00309576
0.00400772
0.00384942
0.00342151
0.00320795
0.00373794
0.00315216
0.00428839
0.00385863
0.00409641
0.00451517
0.00334776
0.00429079
0.00295213
0.00339959
0.0032604
0.00325827
0.00386103
0.00421097
0.00347497
0.00491867
0.00360619
0.00414605
0.00357847
0.00309535
0.00331609
0.00304857
0.00311822
0.00360763
0.00411767
0.00317183
0.00404128
0.00382077
0.00435601
0.00414314
0.00376284
0.00368925
0.00377737
0.00291876
0.0030831
0.00381213
0.00298355
0.00362767
0.00301469
0.00364475
0.0046092
0.00335249
0.0037045
0.00443081
0.00452276
0.00562723
0.00589961
0.00782363
0.00837308
0.0147573
0.0122129
0.00281325
0.00281325
0.0028125
)
;

boundaryField
{
    inlet
    {
        type            calculated;
        value           uniform 0;
    }
    outlet
    {
        type            calculated;
        value           uniform 0;
    }
    sideWall
    {
        type            empty;
    }
}


// ************************************************************************* //
