/*--------------------------------*- C++ -*----------------------------------*\
| =========                 |                                                 |
| \\      /  F ield         | foam-extend: Open Source CFD                    |
|  \\    /   O peration     | Version:     3.2                                |
|   \\  /    A nd           | Web:         http://www.foam-extend.org         |
|    \\/     M anipulation  | For copyright notice see file Copyright         |
\*---------------------------------------------------------------------------*/
FoamFile
{
    version     2.0;
    format      ascii;
    class       surfaceScalarField;
    location    "79";
    object      AdSS2;
}
// * * * * * * * * * * * * * * * * * * * * * * * * * * * * * * * * * * * * * //

dimensions      [0 3 -1 0 0 0 0];

internalField   nonuniform List<scalar> 
10482
(
9.61082e-06
1.05247e-05
6.86743e-06
4.20528e-07
6.51675e-06
-1.97218e-06
6.47618e-06
-2.2823e-06
6.45238e-06
-2.29906e-06
6.40863e-06
-2.27911e-06
6.39187e-06
-2.30611e-06
6.37228e-06
-2.30327e-06
6.37115e-06
-2.32173e-06
6.36987e-06
-2.32158e-06
6.37799e-06
-2.33098e-06
6.38565e-06
-2.33053e-06
6.4011e-06
-2.3383e-06
6.41662e-06
-2.33838e-06
6.43535e-06
-2.3416e-06
6.45578e-06
-2.34329e-06
6.47833e-06
-2.34541e-06
6.50141e-06
-2.34594e-06
6.52604e-06
-2.3475e-06
6.55276e-06
-2.34958e-06
6.5807e-06
-2.3508e-06
6.60936e-06
-2.35153e-06
6.63881e-06
-2.35231e-06
6.66854e-06
-2.35259e-06
6.69893e-06
-2.35325e-06
6.72863e-06
-2.35256e-06
6.7556e-06
-2.34983e-06
6.77867e-06
-2.34593e-06
6.79812e-06
-2.34231e-06
6.81433e-06
-2.33907e-06
6.82787e-06
-2.3364e-06
6.83911e-06
-2.33409e-06
6.84846e-06
-2.33222e-06
6.85621e-06
-2.33061e-06
6.86267e-06
-2.32932e-06
6.86804e-06
-2.32823e-06
6.87253e-06
-2.32735e-06
6.87628e-06
-2.32661e-06
6.87943e-06
-2.32602e-06
6.88209e-06
-2.32551e-06
6.88433e-06
-2.32511e-06
6.88624e-06
-2.32477e-06
6.88788e-06
-2.32451e-06
6.88929e-06
-2.32427e-06
6.89047e-06
-2.32404e-06
6.89146e-06
-2.32385e-06
6.8923e-06
-2.32371e-06
6.89303e-06
-2.32359e-06
6.89366e-06
-2.32349e-06
6.89421e-06
-2.32341e-06
6.89469e-06
-2.32334e-06
6.89511e-06
-2.32328e-06
6.89547e-06
-2.32322e-06
6.89578e-06
-2.32318e-06
6.89606e-06
-2.32314e-06
6.8963e-06
-2.3231e-06
6.89651e-06
-2.32307e-06
6.89669e-06
-2.32304e-06
6.89684e-06
-2.32302e-06
6.89698e-06
-2.323e-06
6.8971e-06
-2.32298e-06
6.8972e-06
-2.32296e-06
6.89729e-06
-2.32295e-06
6.89737e-06
-2.32294e-06
6.89743e-06
-2.32293e-06
6.89749e-06
-2.32292e-06
6.89754e-06
-2.32291e-06
6.89759e-06
-2.32291e-06
6.89762e-06
-2.3229e-06
6.89765e-06
-2.32289e-06
6.89768e-06
-2.32289e-06
6.89771e-06
-2.32289e-06
6.89773e-06
-2.32288e-06
6.89775e-06
-2.32288e-06
6.89776e-06
-2.32288e-06
6.89777e-06
-2.32288e-06
6.89779e-06
-2.32287e-06
6.8978e-06
-2.32287e-06
6.8978e-06
-2.32287e-06
6.89781e-06
-2.32287e-06
6.89782e-06
-2.32287e-06
6.89782e-06
-2.32287e-06
6.89783e-06
-2.32287e-06
6.89783e-06
-2.32287e-06
6.89784e-06
-2.32287e-06
6.89784e-06
-2.32286e-06
6.89784e-06
-2.32286e-06
6.89784e-06
-2.32286e-06
6.89785e-06
-2.32286e-06
6.89785e-06
-2.32286e-06
6.89785e-06
-2.32286e-06
6.89785e-06
-2.32286e-06
6.89785e-06
-2.32286e-06
6.89785e-06
-2.32286e-06
6.89785e-06
-2.32286e-06
6.89785e-06
-2.32286e-06
6.89785e-06
-2.32286e-06
6.89785e-06
-2.32286e-06
6.89786e-06
-2.32286e-06
6.89786e-06
-2.32286e-06
6.89786e-06
-2.32286e-06
6.89786e-06
-2.32286e-06
6.89786e-06
-2.32286e-06
6.89786e-06
-2.32286e-06
6.89786e-06
-2.32286e-06
6.89786e-06
-2.32286e-06
6.89786e-06
-2.32286e-06
6.89786e-06
-2.32286e-06
6.89786e-06
-2.32286e-06
6.89786e-06
-2.32286e-06
6.89786e-06
-2.32286e-06
6.89786e-06
-2.32286e-06
6.89786e-06
-2.32286e-06
6.89786e-06
-2.32286e-06
6.89786e-06
-2.32286e-06
6.89786e-06
-2.32286e-06
6.89786e-06
-2.32286e-06
6.89786e-06
-2.32286e-06
6.89786e-06
-2.32286e-06
6.89786e-06
-2.32286e-06
6.89786e-06
-2.32286e-06
6.89786e-06
-2.32286e-06
6.89786e-06
-2.32286e-06
6.89786e-06
-2.32286e-06
6.89786e-06
-2.32286e-06
6.89786e-06
-2.32286e-06
6.89786e-06
-2.32286e-06
6.89786e-06
-2.32286e-06
6.89786e-06
-2.32286e-06
6.89786e-06
-2.32286e-06
6.89786e-06
-2.32286e-06
6.89786e-06
-2.32286e-06
6.89786e-06
-2.32286e-06
6.89786e-06
-2.32286e-06
6.89786e-06
-2.32286e-06
6.89786e-06
-2.32286e-06
6.89786e-06
-2.32286e-06
6.89786e-06
-2.32286e-06
6.89786e-06
-2.32286e-06
6.89786e-06
-2.32286e-06
6.89786e-06
-2.32286e-06
6.89786e-06
-2.32286e-06
6.89786e-06
-2.32286e-06
6.89786e-06
-2.32286e-06
6.89786e-06
-2.32286e-06
6.89786e-06
-2.32286e-06
6.89786e-06
-2.32286e-06
6.89786e-06
-2.32286e-06
6.89786e-06
-2.32286e-06
6.89786e-06
-2.32286e-06
6.89786e-06
-2.32286e-06
6.89786e-06
-2.32286e-06
6.89786e-06
-2.32286e-06
6.89786e-06
-2.32286e-06
6.89786e-06
-2.32286e-06
6.89786e-06
-2.32286e-06
6.89786e-06
-2.32286e-06
6.89786e-06
-2.32286e-06
6.89786e-06
-2.32286e-06
6.89786e-06
-2.32286e-06
6.89786e-06
-2.32286e-06
6.89786e-06
-2.32286e-06
6.89786e-06
-2.32286e-06
6.89786e-06
-2.32286e-06
6.89786e-06
-2.32286e-06
6.89786e-06
-2.32286e-06
6.89786e-06
-2.32286e-06
6.89786e-06
-2.32286e-06
6.89786e-06
-2.32286e-06
6.89786e-06
-2.32286e-06
6.89786e-06
-2.32286e-06
6.89786e-06
-2.32286e-06
6.89786e-06
-2.32286e-06
6.89786e-06
-2.32286e-06
6.89786e-06
-2.32286e-06
6.89786e-06
-2.32286e-06
6.89786e-06
-2.32286e-06
6.89786e-06
-2.32286e-06
6.89786e-06
-2.32286e-06
6.89786e-06
-2.32286e-06
6.89786e-06
-2.32286e-06
6.89786e-06
-2.32286e-06
6.89786e-06
-2.32286e-06
6.89786e-06
-2.32286e-06
6.89786e-06
-2.32286e-06
6.89786e-06
-2.32286e-06
6.89786e-06
-2.32286e-06
6.89786e-06
-2.32286e-06
6.89786e-06
-2.32286e-06
6.89786e-06
-2.32286e-06
6.89786e-06
-2.32286e-06
6.89786e-06
-2.32286e-06
6.89786e-06
-2.32286e-06
6.89786e-06
-2.32286e-06
6.89786e-06
-2.32286e-06
6.89786e-06
-2.32286e-06
6.89786e-06
-2.32286e-06
6.89786e-06
-2.32286e-06
6.89786e-06
-2.32286e-06
6.89786e-06
-2.32286e-06
6.89786e-06
-2.32286e-06
6.89786e-06
-2.32286e-06
6.89786e-06
-2.32286e-06
6.89786e-06
-2.32286e-06
6.89786e-06
-2.32286e-06
6.89786e-06
-2.32286e-06
6.89786e-06
-2.32286e-06
6.89786e-06
-2.32286e-06
6.89786e-06
-2.32286e-06
6.89786e-06
-2.32286e-06
6.89786e-06
-2.32286e-06
6.89786e-06
-2.32286e-06
6.89786e-06
-2.32286e-06
6.89786e-06
-2.32286e-06
6.89786e-06
-2.32286e-06
6.89786e-06
-2.32286e-06
6.89786e-06
-2.32286e-06
6.89786e-06
-2.32286e-06
6.89786e-06
-2.32286e-06
6.89786e-06
-2.32286e-06
6.89786e-06
-2.32286e-06
6.89786e-06
-2.32286e-06
6.89786e-06
-2.32286e-06
6.89786e-06
-2.32286e-06
6.89786e-06
-2.32286e-06
6.89786e-06
-2.32286e-06
6.89786e-06
-2.32286e-06
6.89786e-06
-2.32286e-06
6.89786e-06
-2.32286e-06
6.89786e-06
-2.32286e-06
6.89786e-06
-2.32286e-06
6.89786e-06
-2.32286e-06
6.89786e-06
-2.32286e-06
6.89786e-06
-2.32286e-06
6.89786e-06
-2.32286e-06
6.89786e-06
-2.32286e-06
6.89786e-06
-2.32286e-06
6.89786e-06
-2.32286e-06
6.89786e-06
-2.32286e-06
6.89786e-06
-2.32286e-06
6.89786e-06
-2.32286e-06
6.89786e-06
-2.32286e-06
6.89786e-06
-2.32286e-06
6.89786e-06
-2.32286e-06
6.89786e-06
-2.32286e-06
6.89786e-06
-2.32286e-06
6.89786e-06
-2.32286e-06
6.89786e-06
-2.32286e-06
6.89786e-06
-2.32286e-06
6.89786e-06
-2.32286e-06
6.89786e-06
-2.32286e-06
6.89786e-06
-2.32286e-06
6.89786e-06
-2.32286e-06
6.89786e-06
-2.32286e-06
6.89786e-06
-2.32286e-06
6.89786e-06
-2.32286e-06
6.89786e-06
-2.32286e-06
6.89786e-06
-2.32286e-06
6.89786e-06
-2.32286e-06
6.89786e-06
-2.32286e-06
6.89786e-06
-2.32286e-06
6.89786e-06
-2.32286e-06
6.89786e-06
-2.32286e-06
6.89786e-06
-2.32286e-06
6.89786e-06
-2.32286e-06
6.89786e-06
-2.32286e-06
6.89786e-06
-2.32286e-06
6.89786e-06
-2.32286e-06
6.89786e-06
-2.32286e-06
6.89786e-06
-2.32286e-06
6.89786e-06
-2.32286e-06
6.89786e-06
-2.32286e-06
6.89786e-06
-2.32286e-06
6.89786e-06
-2.32286e-06
6.89786e-06
-2.32286e-06
6.89786e-06
-2.32286e-06
6.89786e-06
-2.32286e-06
6.89786e-06
-2.32286e-06
6.89786e-06
-2.32286e-06
6.89786e-06
-2.32286e-06
6.89786e-06
-2.32286e-06
6.89786e-06
-2.32286e-06
6.89786e-06
-2.32286e-06
6.89786e-06
-2.32286e-06
6.89786e-06
-2.32286e-06
6.89786e-06
-2.32286e-06
6.89786e-06
-2.32286e-06
6.89786e-06
-2.32286e-06
6.89786e-06
-2.32286e-06
6.89786e-06
-2.32286e-06
6.89786e-06
-2.32286e-06
6.89786e-06
-2.32286e-06
6.89786e-06
-2.32286e-06
6.89786e-06
-2.32286e-06
6.89786e-06
-2.32286e-06
6.89786e-06
-2.32286e-06
6.89786e-06
-2.32286e-06
6.89786e-06
-2.32287e-06
6.89786e-06
-2.32286e-06
-2.32285e-06
1.68776e-05
1.61054e-05
1.40455e-05
3.25268e-06
1.30682e-05
-9.9497e-07
1.28018e-05
-2.01588e-06
1.26155e-05
-2.11272e-06
1.2475e-05
-2.13864e-06
1.2388e-05
-2.2191e-06
1.23319e-05
-2.2472e-06
1.23031e-05
-2.29291e-06
1.22925e-05
-2.311e-06
1.2294e-05
-2.33241e-06
1.23029e-05
-2.33949e-06
1.23234e-05
-2.35876e-06
1.23476e-05
-2.36258e-06
1.23783e-05
-2.37237e-06
1.24134e-05
-2.3783e-06
1.24527e-05
-2.38478e-06
1.24944e-05
-2.38759e-06
1.25384e-05
-2.39154e-06
1.25866e-05
-2.39779e-06
1.26376e-05
-2.40178e-06
1.26905e-05
-2.4044e-06
1.2745e-05
-2.40685e-06
1.28005e-05
-2.40807e-06
1.28576e-05
-2.41038e-06
1.29139e-05
-2.40881e-06
1.29652e-05
-2.40113e-06
1.30098e-05
-2.39052e-06
1.30479e-05
-2.38044e-06
1.30802e-05
-2.37137e-06
1.31075e-05
-2.36366e-06
1.31303e-05
-2.35699e-06
1.31495e-05
-2.35141e-06
1.31656e-05
-2.34667e-06
1.3179e-05
-2.34275e-06
1.31903e-05
-2.33946e-06
1.31997e-05
-2.33676e-06
1.32075e-05
-2.3345e-06
1.32142e-05
-2.33265e-06
1.32198e-05
-2.33111e-06
1.32245e-05
-2.32984e-06
1.32285e-05
-2.32878e-06
1.3232e-05
-2.32796e-06
1.32349e-05
-2.32723e-06
1.32374e-05
-2.32654e-06
1.32395e-05
-2.32594e-06
1.32413e-05
-2.32548e-06
1.32428e-05
-2.32512e-06
1.32442e-05
-2.32482e-06
1.32453e-05
-2.32456e-06
1.32463e-05
-2.32434e-06
1.32472e-05
-2.32414e-06
1.32479e-05
-2.32398e-06
1.32486e-05
-2.32383e-06
1.32491e-05
-2.3237e-06
1.32496e-05
-2.32359e-06
1.32501e-05
-2.3235e-06
1.32504e-05
-2.32341e-06
1.32507e-05
-2.32334e-06
1.3251e-05
-2.32328e-06
1.32513e-05
-2.32322e-06
1.32515e-05
-2.32317e-06
1.32517e-05
-2.32313e-06
1.32518e-05
-2.3231e-06
1.3252e-05
-2.32307e-06
1.32521e-05
-2.32304e-06
1.32522e-05
-2.32301e-06
1.32523e-05
-2.32299e-06
1.32523e-05
-2.32298e-06
1.32524e-05
-2.32296e-06
1.32525e-05
-2.32295e-06
1.32525e-05
-2.32294e-06
1.32526e-05
-2.32293e-06
1.32526e-05
-2.32292e-06
1.32526e-05
-2.32291e-06
1.32527e-05
-2.3229e-06
1.32527e-05
-2.3229e-06
1.32527e-05
-2.32289e-06
1.32527e-05
-2.32289e-06
1.32527e-05
-2.32288e-06
1.32527e-05
-2.32288e-06
1.32528e-05
-2.32288e-06
1.32528e-05
-2.32288e-06
1.32528e-05
-2.32287e-06
1.32528e-05
-2.32287e-06
1.32528e-05
-2.32287e-06
1.32528e-05
-2.32287e-06
1.32528e-05
-2.32287e-06
1.32528e-05
-2.32287e-06
1.32528e-05
-2.32287e-06
1.32528e-05
-2.32287e-06
1.32528e-05
-2.32287e-06
1.32528e-05
-2.32287e-06
1.32528e-05
-2.32286e-06
1.32528e-05
-2.32286e-06
1.32528e-05
-2.32286e-06
1.32528e-05
-2.32286e-06
1.32528e-05
-2.32286e-06
1.32528e-05
-2.32286e-06
1.32528e-05
-2.32286e-06
1.32528e-05
-2.32286e-06
1.32528e-05
-2.32286e-06
1.32528e-05
-2.32286e-06
1.32528e-05
-2.32286e-06
1.32528e-05
-2.32286e-06
1.32528e-05
-2.32286e-06
1.32528e-05
-2.32286e-06
1.32528e-05
-2.32286e-06
1.32528e-05
-2.32286e-06
1.32528e-05
-2.32286e-06
1.32528e-05
-2.32286e-06
1.32528e-05
-2.32286e-06
1.32528e-05
-2.32286e-06
1.32528e-05
-2.32286e-06
1.32528e-05
-2.32286e-06
1.32528e-05
-2.32286e-06
1.32528e-05
-2.32286e-06
1.32528e-05
-2.32286e-06
1.32528e-05
-2.32286e-06
1.32528e-05
-2.32286e-06
1.32528e-05
-2.32286e-06
1.32528e-05
-2.32286e-06
1.32528e-05
-2.32286e-06
1.32528e-05
-2.32286e-06
1.32528e-05
-2.32286e-06
1.32528e-05
-2.32286e-06
1.32528e-05
-2.32286e-06
1.32528e-05
-2.32286e-06
1.32528e-05
-2.32286e-06
1.32528e-05
-2.32286e-06
1.32528e-05
-2.32286e-06
1.32528e-05
-2.32286e-06
1.32528e-05
-2.32286e-06
1.32528e-05
-2.32286e-06
1.32528e-05
-2.32286e-06
1.32528e-05
-2.32286e-06
1.32528e-05
-2.32286e-06
1.32528e-05
-2.32286e-06
1.32528e-05
-2.32286e-06
1.32528e-05
-2.32286e-06
1.32528e-05
-2.32286e-06
1.32528e-05
-2.32286e-06
1.32528e-05
-2.32286e-06
1.32528e-05
-2.32286e-06
1.32528e-05
-2.32286e-06
1.32528e-05
-2.32286e-06
1.32528e-05
-2.32286e-06
1.32528e-05
-2.32286e-06
1.32528e-05
-2.32286e-06
1.32528e-05
-2.32286e-06
1.32528e-05
-2.32286e-06
1.32528e-05
-2.32286e-06
1.32528e-05
-2.32286e-06
1.32528e-05
-2.32286e-06
1.32528e-05
-2.32286e-06
1.32528e-05
-2.32286e-06
1.32528e-05
-2.32286e-06
1.32528e-05
-2.32286e-06
1.32528e-05
-2.32286e-06
1.32528e-05
-2.32286e-06
1.32528e-05
-2.32286e-06
1.32528e-05
-2.32286e-06
1.32528e-05
-2.32286e-06
1.32528e-05
-2.32286e-06
1.32528e-05
-2.32286e-06
1.32528e-05
-2.32286e-06
1.32528e-05
-2.32286e-06
1.32528e-05
-2.32286e-06
1.32528e-05
-2.32286e-06
1.32528e-05
-2.32286e-06
1.32528e-05
-2.32286e-06
1.32528e-05
-2.32286e-06
1.32528e-05
-2.32286e-06
1.32528e-05
-2.32286e-06
1.32528e-05
-2.32286e-06
1.32528e-05
-2.32286e-06
1.32528e-05
-2.32286e-06
1.32528e-05
-2.32286e-06
1.32528e-05
-2.32286e-06
1.32528e-05
-2.32286e-06
1.32528e-05
-2.32286e-06
1.32528e-05
-2.32286e-06
1.32528e-05
-2.32286e-06
1.32528e-05
-2.32286e-06
1.32528e-05
-2.32286e-06
1.32528e-05
-2.32286e-06
1.32528e-05
-2.32286e-06
1.32528e-05
-2.32286e-06
1.32528e-05
-2.32286e-06
1.32528e-05
-2.32286e-06
1.32528e-05
-2.32286e-06
1.32528e-05
-2.32286e-06
1.32528e-05
-2.32286e-06
1.32528e-05
-2.32286e-06
1.32528e-05
-2.32286e-06
1.32528e-05
-2.32286e-06
1.32528e-05
-2.32286e-06
1.32528e-05
-2.32286e-06
1.32528e-05
-2.32286e-06
1.32528e-05
-2.32286e-06
1.32528e-05
-2.32286e-06
1.32528e-05
-2.32286e-06
1.32528e-05
-2.32286e-06
1.32528e-05
-2.32286e-06
1.32528e-05
-2.32286e-06
1.32528e-05
-2.32286e-06
1.32528e-05
-2.32286e-06
1.32528e-05
-2.32286e-06
1.32528e-05
-2.32286e-06
1.32528e-05
-2.32286e-06
1.32528e-05
-2.32286e-06
1.32528e-05
-2.32286e-06
1.32528e-05
-2.32286e-06
1.32528e-05
-2.32286e-06
1.32528e-05
-2.32286e-06
1.32528e-05
-2.32286e-06
1.32528e-05
-2.32286e-06
1.32528e-05
-2.32286e-06
1.32528e-05
-2.32286e-06
1.32528e-05
-2.32286e-06
1.32528e-05
-2.32286e-06
1.32528e-05
-2.32286e-06
1.32528e-05
-2.32286e-06
1.32528e-05
-2.32286e-06
1.32528e-05
-2.32286e-06
1.32528e-05
-2.32286e-06
1.32528e-05
-2.32286e-06
1.32528e-05
-2.32286e-06
1.32528e-05
-2.32286e-06
1.32528e-05
-2.32286e-06
1.32528e-05
-2.32286e-06
1.32528e-05
-2.32286e-06
1.32528e-05
-2.32286e-06
1.32528e-05
-2.32286e-06
1.32528e-05
-2.32286e-06
1.32528e-05
-2.32286e-06
1.32528e-05
-2.32286e-06
1.32528e-05
-2.32286e-06
1.32528e-05
-2.32286e-06
1.32528e-05
-2.32286e-06
1.32528e-05
-2.32286e-06
1.32528e-05
-2.32286e-06
1.32528e-05
-2.32286e-06
1.32528e-05
-2.32286e-06
1.32528e-05
-2.32286e-06
1.32528e-05
-2.32286e-06
1.32528e-05
-2.32286e-06
1.32528e-05
-2.32286e-06
1.32528e-05
-2.32286e-06
1.32528e-05
-2.32286e-06
1.32528e-05
-2.32286e-06
1.32528e-05
-2.32286e-06
1.32528e-05
-2.32286e-06
1.32528e-05
-2.32286e-06
1.32528e-05
-2.32286e-06
1.32528e-05
-2.32286e-06
1.32528e-05
-2.32286e-06
1.32528e-05
-2.32286e-06
1.32528e-05
-2.32286e-06
1.32528e-05
-2.32286e-06
1.32528e-05
-2.32286e-06
1.32528e-05
-2.32286e-06
1.32528e-05
-2.32286e-06
1.32528e-05
-2.32286e-06
1.32528e-05
-2.32286e-06
1.32528e-05
-2.32286e-06
1.32528e-05
-2.32286e-06
1.32528e-05
-2.32286e-06
1.32528e-05
-2.32286e-06
1.32528e-05
-2.32286e-06
1.32528e-05
-2.32286e-06
1.32528e-05
-2.32286e-06
1.32528e-05
-2.32286e-06
1.32528e-05
-2.32286e-06
1.32528e-05
-2.32286e-06
1.32528e-05
-2.32286e-06
1.32528e-05
-2.32286e-06
1.32528e-05
-2.32286e-06
1.32528e-05
-2.32286e-06
1.32528e-05
-2.32286e-06
1.32528e-05
-2.32286e-06
1.32528e-05
-2.32286e-06
1.32528e-05
-2.32286e-06
1.32528e-05
-2.32286e-06
1.32528e-05
-2.32286e-06
1.32528e-05
-2.32286e-06
1.32528e-05
-2.32286e-06
1.32528e-05
-2.32286e-06
1.32528e-05
-2.32286e-06
1.32528e-05
-2.32286e-06
1.32528e-05
-2.32286e-06
1.32528e-05
-2.32286e-06
1.32528e-05
-2.32286e-06
1.32528e-05
-2.32286e-06
1.32528e-05
-2.32286e-06
1.32528e-05
-2.32286e-06
1.32528e-05
-2.32286e-06
1.32528e-05
-2.32287e-06
1.32528e-05
-2.32286e-06
-2.32284e-06
2.05334e-05
1.80303e-05
1.81926e-05
5.59345e-06
1.69495e-05
2.48192e-07
1.63977e-05
-1.4641e-06
1.60115e-05
-1.72658e-06
1.57843e-05
-1.91138e-06
1.56307e-05
-2.0655e-06
1.55347e-05
-2.15122e-06
1.54756e-05
-2.2338e-06
1.54476e-05
-2.28306e-06
1.54357e-05
-2.32047e-06
1.54394e-05
-2.34317e-06
1.54557e-05
-2.37512e-06
1.54792e-05
-2.38605e-06
1.55121e-05
-2.40523e-06
1.55509e-05
-2.41709e-06
1.55958e-05
-2.42973e-06
1.56445e-05
-2.43626e-06
1.56962e-05
-2.44329e-06
1.57532e-05
-2.45477e-06
1.5814e-05
-2.46256e-06
1.58775e-05
-2.4679e-06
1.59433e-05
-2.47264e-06
1.60106e-05
-2.47539e-06
1.60802e-05
-2.47997e-06
1.61487e-05
-2.47731e-06
1.62112e-05
-2.46364e-06
1.6266e-05
-2.44527e-06
1.63131e-05
-2.42762e-06
1.63534e-05
-2.41165e-06
1.63876e-05
-2.39786e-06
1.64165e-05
-2.38587e-06
1.64408e-05
-2.37574e-06
1.64612e-05
-2.36709e-06
1.64784e-05
-2.35989e-06
1.64928e-05
-2.35383e-06
1.65048e-05
-2.34883e-06
1.6515e-05
-2.34464e-06
1.65235e-05
-2.34119e-06
1.65307e-05
-2.33832e-06
1.65368e-05
-2.33594e-06
1.6542e-05
-2.33395e-06
1.65464e-05
-2.33239e-06
1.65502e-05
-2.33103e-06
1.65534e-05
-2.32976e-06
1.65561e-05
-2.32863e-06
1.65584e-05
-2.32777e-06
1.65604e-05
-2.32708e-06
1.65621e-05
-2.32651e-06
1.65635e-05
-2.32602e-06
1.65648e-05
-2.32561e-06
1.65659e-05
-2.32524e-06
1.65669e-05
-2.32493e-06
1.65677e-05
-2.32466e-06
1.65684e-05
-2.32442e-06
1.6569e-05
-2.32422e-06
1.65696e-05
-2.32404e-06
1.65701e-05
-2.32388e-06
1.65705e-05
-2.32375e-06
1.65708e-05
-2.32363e-06
1.65711e-05
-2.32353e-06
1.65714e-05
-2.32344e-06
1.65716e-05
-2.32336e-06
1.65718e-05
-2.3233e-06
1.6572e-05
-2.32324e-06
1.65721e-05
-2.32319e-06
1.65723e-05
-2.32314e-06
1.65724e-05
-2.32311e-06
1.65725e-05
-2.32307e-06
1.65726e-05
-2.32304e-06
1.65726e-05
-2.32302e-06
1.65727e-05
-2.323e-06
1.65727e-05
-2.32298e-06
1.65728e-05
-2.32296e-06
1.65728e-05
-2.32295e-06
1.65729e-05
-2.32294e-06
1.65729e-05
-2.32293e-06
1.65729e-05
-2.32292e-06
1.65729e-05
-2.32291e-06
1.6573e-05
-2.3229e-06
1.6573e-05
-2.3229e-06
1.6573e-05
-2.32289e-06
1.6573e-05
-2.32289e-06
1.6573e-05
-2.32288e-06
1.6573e-05
-2.32288e-06
1.6573e-05
-2.32288e-06
1.6573e-05
-2.32288e-06
1.6573e-05
-2.32287e-06
1.65731e-05
-2.32287e-06
1.65731e-05
-2.32287e-06
1.65731e-05
-2.32287e-06
1.65731e-05
-2.32287e-06
1.65731e-05
-2.32287e-06
1.65731e-05
-2.32287e-06
1.65731e-05
-2.32287e-06
1.65731e-05
-2.32287e-06
1.65731e-05
-2.32287e-06
1.65731e-05
-2.32286e-06
1.65731e-05
-2.32286e-06
1.65731e-05
-2.32286e-06
1.65731e-05
-2.32286e-06
1.65731e-05
-2.32286e-06
1.65731e-05
-2.32286e-06
1.65731e-05
-2.32286e-06
1.65731e-05
-2.32286e-06
1.65731e-05
-2.32286e-06
1.65731e-05
-2.32286e-06
1.65731e-05
-2.32286e-06
1.65731e-05
-2.32286e-06
1.65731e-05
-2.32286e-06
1.65731e-05
-2.32286e-06
1.65731e-05
-2.32286e-06
1.65731e-05
-2.32286e-06
1.65731e-05
-2.32286e-06
1.65731e-05
-2.32286e-06
1.65731e-05
-2.32286e-06
1.65731e-05
-2.32286e-06
1.65731e-05
-2.32286e-06
1.65731e-05
-2.32286e-06
1.65731e-05
-2.32286e-06
1.65731e-05
-2.32286e-06
1.65731e-05
-2.32286e-06
1.65731e-05
-2.32286e-06
1.65731e-05
-2.32286e-06
1.65731e-05
-2.32286e-06
1.65731e-05
-2.32286e-06
1.65731e-05
-2.32286e-06
1.65731e-05
-2.32286e-06
1.65731e-05
-2.32286e-06
1.65731e-05
-2.32286e-06
1.65731e-05
-2.32286e-06
1.65731e-05
-2.32286e-06
1.65731e-05
-2.32286e-06
1.65731e-05
-2.32286e-06
1.65731e-05
-2.32286e-06
1.65731e-05
-2.32286e-06
1.65731e-05
-2.32286e-06
1.65731e-05
-2.32286e-06
1.65731e-05
-2.32286e-06
1.65731e-05
-2.32286e-06
1.65731e-05
-2.32286e-06
1.65731e-05
-2.32286e-06
1.65731e-05
-2.32286e-06
1.65731e-05
-2.32286e-06
1.65731e-05
-2.32286e-06
1.65731e-05
-2.32286e-06
1.65731e-05
-2.32286e-06
1.65731e-05
-2.32286e-06
1.65731e-05
-2.32286e-06
1.65731e-05
-2.32286e-06
1.65731e-05
-2.32286e-06
1.65731e-05
-2.32286e-06
1.65731e-05
-2.32286e-06
1.65731e-05
-2.32286e-06
1.65731e-05
-2.32286e-06
1.65731e-05
-2.32286e-06
1.65731e-05
-2.32286e-06
1.65731e-05
-2.32286e-06
1.65731e-05
-2.32286e-06
1.65731e-05
-2.32286e-06
1.65731e-05
-2.32286e-06
1.65731e-05
-2.32286e-06
1.65731e-05
-2.32286e-06
1.65731e-05
-2.32286e-06
1.65731e-05
-2.32286e-06
1.65731e-05
-2.32286e-06
1.65731e-05
-2.32286e-06
1.65731e-05
-2.32286e-06
1.65731e-05
-2.32286e-06
1.65731e-05
-2.32286e-06
1.65731e-05
-2.32286e-06
1.65731e-05
-2.32286e-06
1.65731e-05
-2.32286e-06
1.65731e-05
-2.32286e-06
1.65731e-05
-2.32286e-06
1.65731e-05
-2.32286e-06
1.65731e-05
-2.32286e-06
1.65731e-05
-2.32286e-06
1.65731e-05
-2.32286e-06
1.65731e-05
-2.32286e-06
1.65731e-05
-2.32286e-06
1.65731e-05
-2.32286e-06
1.65731e-05
-2.32286e-06
1.65731e-05
-2.32286e-06
1.65731e-05
-2.32286e-06
1.65731e-05
-2.32286e-06
1.65731e-05
-2.32286e-06
1.65731e-05
-2.32286e-06
1.65731e-05
-2.32286e-06
1.65731e-05
-2.32286e-06
1.65731e-05
-2.32286e-06
1.65731e-05
-2.32286e-06
1.65731e-05
-2.32286e-06
1.65731e-05
-2.32286e-06
1.65731e-05
-2.32286e-06
1.65731e-05
-2.32286e-06
1.65731e-05
-2.32286e-06
1.65731e-05
-2.32286e-06
1.65731e-05
-2.32286e-06
1.65731e-05
-2.32286e-06
1.65731e-05
-2.32286e-06
1.65731e-05
-2.32286e-06
1.65731e-05
-2.32286e-06
1.65731e-05
-2.32286e-06
1.65731e-05
-2.32286e-06
1.65731e-05
-2.32286e-06
1.65731e-05
-2.32286e-06
1.65731e-05
-2.32286e-06
1.65731e-05
-2.32286e-06
1.65731e-05
-2.32286e-06
1.65731e-05
-2.32286e-06
1.65731e-05
-2.32286e-06
1.65731e-05
-2.32286e-06
1.65731e-05
-2.32286e-06
1.65731e-05
-2.32286e-06
1.65731e-05
-2.32286e-06
1.65731e-05
-2.32286e-06
1.65731e-05
-2.32286e-06
1.65731e-05
-2.32286e-06
1.65731e-05
-2.32286e-06
1.65731e-05
-2.32286e-06
1.65731e-05
-2.32286e-06
1.65731e-05
-2.32286e-06
1.65731e-05
-2.32286e-06
1.65731e-05
-2.32286e-06
1.65731e-05
-2.32286e-06
1.65731e-05
-2.32286e-06
1.65731e-05
-2.32286e-06
1.65731e-05
-2.32286e-06
1.65731e-05
-2.32286e-06
1.65731e-05
-2.32286e-06
1.65731e-05
-2.32286e-06
1.65731e-05
-2.32286e-06
1.65731e-05
-2.32286e-06
1.65731e-05
-2.32286e-06
1.65731e-05
-2.32286e-06
1.65731e-05
-2.32286e-06
1.65731e-05
-2.32286e-06
1.65731e-05
-2.32286e-06
1.65731e-05
-2.32286e-06
1.65731e-05
-2.32286e-06
1.65731e-05
-2.32286e-06
1.65731e-05
-2.32286e-06
1.65731e-05
-2.32286e-06
1.65731e-05
-2.32286e-06
1.65731e-05
-2.32286e-06
1.65731e-05
-2.32286e-06
1.65731e-05
-2.32286e-06
1.65731e-05
-2.32286e-06
1.65731e-05
-2.32286e-06
1.65731e-05
-2.32286e-06
1.65731e-05
-2.32286e-06
1.65731e-05
-2.32286e-06
1.65731e-05
-2.32286e-06
1.65731e-05
-2.32286e-06
1.65731e-05
-2.32286e-06
1.65731e-05
-2.32286e-06
1.65731e-05
-2.32286e-06
1.65731e-05
-2.32286e-06
1.65731e-05
-2.32286e-06
1.65731e-05
-2.32286e-06
1.65731e-05
-2.32286e-06
1.65731e-05
-2.32286e-06
1.65731e-05
-2.32286e-06
1.65731e-05
-2.32286e-06
1.65731e-05
-2.32286e-06
1.65731e-05
-2.32286e-06
1.65731e-05
-2.32286e-06
1.65731e-05
-2.32286e-06
1.65731e-05
-2.32286e-06
1.65731e-05
-2.32286e-06
1.65731e-05
-2.32286e-06
1.65731e-05
-2.32286e-06
1.65731e-05
-2.32286e-06
1.65731e-05
-2.32286e-06
1.65731e-05
-2.32286e-06
1.65731e-05
-2.32286e-06
1.65731e-05
-2.32286e-06
1.65731e-05
-2.32286e-06
1.65731e-05
-2.32286e-06
1.65731e-05
-2.32286e-06
1.65731e-05
-2.32286e-06
1.65731e-05
-2.32286e-06
1.65731e-05
-2.32286e-06
1.65731e-05
-2.32286e-06
1.65731e-05
-2.32286e-06
1.65731e-05
-2.32286e-06
1.65731e-05
-2.32286e-06
1.65731e-05
-2.32286e-06
1.65731e-05
-2.32286e-06
1.65731e-05
-2.32286e-06
1.65731e-05
-2.32286e-06
1.65731e-05
-2.32286e-06
1.65731e-05
-2.32286e-06
1.65731e-05
-2.32286e-06
1.65731e-05
-2.32286e-06
1.65731e-05
-2.32286e-06
1.65731e-05
-2.32287e-06
1.65731e-05
-2.32286e-06
-2.32284e-06
2.24117e-05
1.80769e-05
2.10149e-05
6.99026e-06
1.98784e-05
1.38475e-06
1.90546e-05
-6.40311e-07
1.84708e-05
-1.14279e-06
1.81326e-05
-1.57315e-06
1.79008e-05
-1.83369e-06
1.77582e-05
-2.00872e-06
1.7665e-05
-2.14055e-06
1.76128e-05
-2.23089e-06
1.75825e-05
-2.2902e-06
1.75752e-05
-2.3358e-06
1.75827e-05
-2.38265e-06
1.76007e-05
-2.40401e-06
1.76303e-05
-2.43489e-06
1.76676e-05
-2.45441e-06
1.77131e-05
-2.47515e-06
1.77636e-05
-2.48679e-06
1.7818e-05
-2.49768e-06
1.78784e-05
-2.51518e-06
1.79434e-05
-2.5276e-06
1.80119e-05
-2.53639e-06
1.80833e-05
-2.54398e-06
1.81568e-05
-2.5489e-06
1.82329e-05
-2.55611e-06
1.83074e-05
-2.55178e-06
1.8375e-05
-2.53124e-06
1.84344e-05
-2.50469e-06
1.84859e-05
-2.4791e-06
1.85301e-05
-2.45584e-06
1.85678e-05
-2.43556e-06
1.85998e-05
-2.41787e-06
1.86268e-05
-2.40279e-06
1.86496e-05
-2.3899e-06
1.86688e-05
-2.37909e-06
1.8685e-05
-2.36997e-06
1.86986e-05
-2.3624e-06
1.871e-05
-2.35607e-06
1.87196e-05
-2.35083e-06
1.87278e-05
-2.34645e-06
1.87346e-05
-2.34282e-06
1.87405e-05
-2.33979e-06
1.87455e-05
-2.33739e-06
1.87498e-05
-2.33532e-06
1.87534e-05
-2.33339e-06
1.87564e-05
-2.33168e-06
1.8759e-05
-2.33034e-06
1.87612e-05
-2.32929e-06
1.87631e-05
-2.32841e-06
1.87648e-05
-2.32767e-06
1.87662e-05
-2.32703e-06
1.87674e-05
-2.32648e-06
1.87685e-05
-2.326e-06
1.87694e-05
-2.32559e-06
1.87702e-05
-2.32523e-06
1.87709e-05
-2.32491e-06
1.87715e-05
-2.32464e-06
1.87721e-05
-2.32441e-06
1.87725e-05
-2.3242e-06
1.87729e-05
-2.32402e-06
1.87732e-05
-2.32387e-06
1.87735e-05
-2.32374e-06
1.87738e-05
-2.32362e-06
1.8774e-05
-2.32352e-06
1.87742e-05
-2.32343e-06
1.87744e-05
-2.32335e-06
1.87745e-05
-2.32329e-06
1.87746e-05
-2.32323e-06
1.87747e-05
-2.32318e-06
1.87748e-05
-2.32314e-06
1.87749e-05
-2.3231e-06
1.8775e-05
-2.32307e-06
1.8775e-05
-2.32304e-06
1.87751e-05
-2.32301e-06
1.87751e-05
-2.32299e-06
1.87752e-05
-2.32298e-06
1.87752e-05
-2.32296e-06
1.87752e-05
-2.32295e-06
1.87753e-05
-2.32293e-06
1.87753e-05
-2.32292e-06
1.87753e-05
-2.32292e-06
1.87753e-05
-2.32291e-06
1.87753e-05
-2.3229e-06
1.87753e-05
-2.3229e-06
1.87754e-05
-2.32289e-06
1.87754e-05
-2.32289e-06
1.87754e-05
-2.32288e-06
1.87754e-05
-2.32288e-06
1.87754e-05
-2.32288e-06
1.87754e-05
-2.32288e-06
1.87754e-05
-2.32287e-06
1.87754e-05
-2.32287e-06
1.87754e-05
-2.32287e-06
1.87754e-05
-2.32287e-06
1.87754e-05
-2.32287e-06
1.87754e-05
-2.32287e-06
1.87754e-05
-2.32287e-06
1.87754e-05
-2.32287e-06
1.87754e-05
-2.32287e-06
1.87754e-05
-2.32287e-06
1.87754e-05
-2.32286e-06
1.87754e-05
-2.32286e-06
1.87754e-05
-2.32286e-06
1.87754e-05
-2.32286e-06
1.87754e-05
-2.32286e-06
1.87754e-05
-2.32286e-06
1.87754e-05
-2.32286e-06
1.87754e-05
-2.32286e-06
1.87754e-05
-2.32286e-06
1.87754e-05
-2.32286e-06
1.87754e-05
-2.32286e-06
1.87754e-05
-2.32286e-06
1.87754e-05
-2.32286e-06
1.87754e-05
-2.32286e-06
1.87754e-05
-2.32286e-06
1.87754e-05
-2.32286e-06
1.87754e-05
-2.32286e-06
1.87754e-05
-2.32286e-06
1.87754e-05
-2.32286e-06
1.87754e-05
-2.32286e-06
1.87754e-05
-2.32286e-06
1.87754e-05
-2.32286e-06
1.87754e-05
-2.32286e-06
1.87754e-05
-2.32286e-06
1.87754e-05
-2.32286e-06
1.87754e-05
-2.32286e-06
1.87754e-05
-2.32286e-06
1.87754e-05
-2.32286e-06
1.87754e-05
-2.32286e-06
1.87754e-05
-2.32286e-06
1.87754e-05
-2.32286e-06
1.87754e-05
-2.32286e-06
1.87754e-05
-2.32286e-06
1.87754e-05
-2.32286e-06
1.87754e-05
-2.32286e-06
1.87754e-05
-2.32286e-06
1.87754e-05
-2.32286e-06
1.87754e-05
-2.32286e-06
1.87754e-05
-2.32286e-06
1.87754e-05
-2.32286e-06
1.87754e-05
-2.32286e-06
1.87754e-05
-2.32286e-06
1.87754e-05
-2.32286e-06
1.87754e-05
-2.32286e-06
1.87754e-05
-2.32286e-06
1.87754e-05
-2.32286e-06
1.87754e-05
-2.32286e-06
1.87754e-05
-2.32286e-06
1.87754e-05
-2.32286e-06
1.87754e-05
-2.32286e-06
1.87754e-05
-2.32286e-06
1.87754e-05
-2.32286e-06
1.87754e-05
-2.32286e-06
1.87754e-05
-2.32286e-06
1.87754e-05
-2.32286e-06
1.87754e-05
-2.32286e-06
1.87754e-05
-2.32286e-06
1.87754e-05
-2.32286e-06
1.87754e-05
-2.32286e-06
1.87754e-05
-2.32286e-06
1.87754e-05
-2.32286e-06
1.87754e-05
-2.32286e-06
1.87754e-05
-2.32286e-06
1.87754e-05
-2.32286e-06
1.87754e-05
-2.32286e-06
1.87754e-05
-2.32286e-06
1.87754e-05
-2.32286e-06
1.87754e-05
-2.32286e-06
1.87754e-05
-2.32286e-06
1.87754e-05
-2.32286e-06
1.87754e-05
-2.32286e-06
1.87754e-05
-2.32286e-06
1.87754e-05
-2.32286e-06
1.87754e-05
-2.32286e-06
1.87754e-05
-2.32286e-06
1.87754e-05
-2.32286e-06
1.87754e-05
-2.32286e-06
1.87754e-05
-2.32286e-06
1.87754e-05
-2.32286e-06
1.87754e-05
-2.32286e-06
1.87754e-05
-2.32286e-06
1.87754e-05
-2.32286e-06
1.87754e-05
-2.32286e-06
1.87754e-05
-2.32286e-06
1.87754e-05
-2.32286e-06
1.87754e-05
-2.32286e-06
1.87754e-05
-2.32286e-06
1.87754e-05
-2.32286e-06
1.87754e-05
-2.32286e-06
1.87754e-05
-2.32286e-06
1.87754e-05
-2.32286e-06
1.87754e-05
-2.32286e-06
1.87754e-05
-2.32286e-06
1.87754e-05
-2.32286e-06
1.87754e-05
-2.32286e-06
1.87754e-05
-2.32286e-06
1.87754e-05
-2.32286e-06
1.87754e-05
-2.32286e-06
1.87754e-05
-2.32286e-06
1.87754e-05
-2.32286e-06
1.87754e-05
-2.32286e-06
1.87754e-05
-2.32286e-06
1.87754e-05
-2.32286e-06
1.87754e-05
-2.32286e-06
1.87754e-05
-2.32286e-06
1.87754e-05
-2.32286e-06
1.87754e-05
-2.32286e-06
1.87754e-05
-2.32286e-06
1.87754e-05
-2.32286e-06
1.87754e-05
-2.32286e-06
1.87754e-05
-2.32286e-06
1.87754e-05
-2.32286e-06
1.87754e-05
-2.32286e-06
1.87754e-05
-2.32286e-06
1.87754e-05
-2.32286e-06
1.87754e-05
-2.32286e-06
1.87754e-05
-2.32286e-06
1.87754e-05
-2.32286e-06
1.87754e-05
-2.32286e-06
1.87754e-05
-2.32286e-06
1.87754e-05
-2.32286e-06
1.87754e-05
-2.32286e-06
1.87754e-05
-2.32286e-06
1.87754e-05
-2.32286e-06
1.87754e-05
-2.32286e-06
1.87754e-05
-2.32286e-06
1.87754e-05
-2.32286e-06
1.87754e-05
-2.32286e-06
1.87754e-05
-2.32286e-06
1.87754e-05
-2.32286e-06
1.87754e-05
-2.32286e-06
1.87754e-05
-2.32286e-06
1.87754e-05
-2.32286e-06
1.87754e-05
-2.32286e-06
1.87754e-05
-2.32286e-06
1.87754e-05
-2.32286e-06
1.87754e-05
-2.32286e-06
1.87754e-05
-2.32286e-06
1.87754e-05
-2.32286e-06
1.87754e-05
-2.32286e-06
1.87754e-05
-2.32286e-06
1.87754e-05
-2.32286e-06
1.87754e-05
-2.32286e-06
1.87754e-05
-2.32286e-06
1.87754e-05
-2.32286e-06
1.87754e-05
-2.32286e-06
1.87754e-05
-2.32286e-06
1.87754e-05
-2.32286e-06
1.87754e-05
-2.32286e-06
1.87754e-05
-2.32286e-06
1.87754e-05
-2.32286e-06
1.87754e-05
-2.32286e-06
1.87754e-05
-2.32286e-06
1.87754e-05
-2.32286e-06
1.87754e-05
-2.32286e-06
1.87754e-05
-2.32286e-06
1.87754e-05
-2.32286e-06
1.87754e-05
-2.32286e-06
1.87754e-05
-2.32286e-06
1.87754e-05
-2.32286e-06
1.87754e-05
-2.32286e-06
1.87754e-05
-2.32286e-06
1.87754e-05
-2.32286e-06
1.87754e-05
-2.32286e-06
1.87754e-05
-2.32286e-06
1.87754e-05
-2.32286e-06
1.87754e-05
-2.32286e-06
1.87754e-05
-2.32286e-06
1.87754e-05
-2.32286e-06
1.87754e-05
-2.32286e-06
1.87754e-05