/*--------------------------------*- C++ -*----------------------------------*\
| =========                 |                                                 |
| \\      /  F ield         | foam-extend: Open Source CFD                    |
|  \\    /   O peration     | Version:     3.2                                |
|   \\  /    A nd           | Web:         http://www.foam-extend.org         |
|    \\/     M anipulation  | For copyright notice see file Copyright         |
\*---------------------------------------------------------------------------*/
FoamFile
{
    version     2.0;
    format      ascii;
    class       surfaceScalarField;
    location    "79";
    object      AdSS1;
}
// * * * * * * * * * * * * * * * * * * * * * * * * * * * * * * * * * * * * * //

dimensions      [0 3 -1 0 0 0 0];

internalField   nonuniform List<scalar> 
10482
(
9.61082e-06
1.10353e-05
6.86743e-06
9.3116e-07
6.51675e-06
-1.46155e-06
6.47618e-06
-1.77166e-06
6.45238e-06
-1.78843e-06
6.40863e-06
-1.76847e-06
6.39187e-06
-1.79548e-06
6.37228e-06
-1.79264e-06
6.37115e-06
-1.8111e-06
6.36987e-06
-1.81095e-06
6.37799e-06
-1.82035e-06
6.38565e-06
-1.81989e-06
6.4011e-06
-1.82767e-06
6.41662e-06
-1.82775e-06
6.43535e-06
-1.83097e-06
6.45578e-06
-1.83266e-06
6.47833e-06
-1.83477e-06
6.50141e-06
-1.83531e-06
6.52604e-06
-1.83686e-06
6.55276e-06
-1.83895e-06
6.5807e-06
-1.84017e-06
6.60936e-06
-1.8409e-06
6.63881e-06
-1.84168e-06
6.66854e-06
-1.84196e-06
6.69893e-06
-1.84262e-06
6.72863e-06
-1.84193e-06
6.7556e-06
-1.8392e-06
6.77867e-06
-1.8353e-06
6.79812e-06
-1.83168e-06
6.81433e-06
-1.82844e-06
6.82787e-06
-1.82577e-06
6.83911e-06
-1.82346e-06
6.84846e-06
-1.82158e-06
6.85621e-06
-1.81998e-06
6.86267e-06
-1.81869e-06
6.86804e-06
-1.8176e-06
6.87253e-06
-1.81672e-06
6.87628e-06
-1.81598e-06
6.87943e-06
-1.81538e-06
6.88209e-06
-1.81488e-06
6.88433e-06
-1.81448e-06
6.88624e-06
-1.81414e-06
6.88788e-06
-1.81387e-06
6.88929e-06
-1.81363e-06
6.89047e-06
-1.81341e-06
6.89146e-06
-1.81322e-06
6.8923e-06
-1.81307e-06
6.89303e-06
-1.81296e-06
6.89366e-06
-1.81286e-06
6.89421e-06
-1.81278e-06
6.89469e-06
-1.81271e-06
6.89511e-06
-1.81265e-06
6.89547e-06
-1.81259e-06
6.89578e-06
-1.81255e-06
6.89606e-06
-1.81251e-06
6.8963e-06
-1.81247e-06
6.89651e-06
-1.81244e-06
6.89669e-06
-1.81241e-06
6.89684e-06
-1.81239e-06
6.89698e-06
-1.81237e-06
6.8971e-06
-1.81235e-06
6.8972e-06
-1.81233e-06
6.89729e-06
-1.81232e-06
6.89737e-06
-1.81231e-06
6.89743e-06
-1.8123e-06
6.89749e-06
-1.81229e-06
6.89754e-06
-1.81228e-06
6.89759e-06
-1.81227e-06
6.89762e-06
-1.81227e-06
6.89765e-06
-1.81226e-06
6.89768e-06
-1.81226e-06
6.89771e-06
-1.81225e-06
6.89773e-06
-1.81225e-06
6.89775e-06
-1.81225e-06
6.89776e-06
-1.81225e-06
6.89777e-06
-1.81224e-06
6.89779e-06
-1.81224e-06
6.8978e-06
-1.81224e-06
6.8978e-06
-1.81224e-06
6.89781e-06
-1.81224e-06
6.89782e-06
-1.81224e-06
6.89782e-06
-1.81224e-06
6.89783e-06
-1.81223e-06
6.89783e-06
-1.81223e-06
6.89784e-06
-1.81223e-06
6.89784e-06
-1.81223e-06
6.89784e-06
-1.81223e-06
6.89784e-06
-1.81223e-06
6.89785e-06
-1.81223e-06
6.89785e-06
-1.81223e-06
6.89785e-06
-1.81223e-06
6.89785e-06
-1.81223e-06
6.89785e-06
-1.81223e-06
6.89785e-06
-1.81223e-06
6.89785e-06
-1.81223e-06
6.89785e-06
-1.81223e-06
6.89785e-06
-1.81223e-06
6.89785e-06
-1.81223e-06
6.89786e-06
-1.81223e-06
6.89786e-06
-1.81223e-06
6.89786e-06
-1.81223e-06
6.89786e-06
-1.81223e-06
6.89786e-06
-1.81223e-06
6.89786e-06
-1.81223e-06
6.89786e-06
-1.81223e-06
6.89786e-06
-1.81223e-06
6.89786e-06
-1.81223e-06
6.89786e-06
-1.81223e-06
6.89786e-06
-1.81223e-06
6.89786e-06
-1.81223e-06
6.89786e-06
-1.81223e-06
6.89786e-06
-1.81223e-06
6.89786e-06
-1.81223e-06
6.89786e-06
-1.81223e-06
6.89786e-06
-1.81223e-06
6.89786e-06
-1.81223e-06
6.89786e-06
-1.81223e-06
6.89786e-06
-1.81223e-06
6.89786e-06
-1.81223e-06
6.89786e-06
-1.81223e-06
6.89786e-06
-1.81223e-06
6.89786e-06
-1.81223e-06
6.89786e-06
-1.81223e-06
6.89786e-06
-1.81223e-06
6.89786e-06
-1.81223e-06
6.89786e-06
-1.81223e-06
6.89786e-06
-1.81223e-06
6.89786e-06
-1.81223e-06
6.89786e-06
-1.81223e-06
6.89786e-06
-1.81223e-06
6.89786e-06
-1.81223e-06
6.89786e-06
-1.81223e-06
6.89786e-06
-1.81223e-06
6.89786e-06
-1.81223e-06
6.89786e-06
-1.81223e-06
6.89786e-06
-1.81223e-06
6.89786e-06
-1.81223e-06
6.89786e-06
-1.81223e-06
6.89786e-06
-1.81223e-06
6.89786e-06
-1.81223e-06
6.89786e-06
-1.81223e-06
6.89786e-06
-1.81223e-06
6.89786e-06
-1.81223e-06
6.89786e-06
-1.81223e-06
6.89786e-06
-1.81223e-06
6.89786e-06
-1.81223e-06
6.89786e-06
-1.81223e-06
6.89786e-06
-1.81223e-06
6.89786e-06
-1.81223e-06
6.89786e-06
-1.81223e-06
6.89786e-06
-1.81223e-06
6.89786e-06
-1.81223e-06
6.89786e-06
-1.81223e-06
6.89786e-06
-1.81223e-06
6.89786e-06
-1.81223e-06
6.89786e-06
-1.81223e-06
6.89786e-06
-1.81223e-06
6.89786e-06
-1.81223e-06
6.89786e-06
-1.81223e-06
6.89786e-06
-1.81223e-06
6.89786e-06
-1.81223e-06
6.89786e-06
-1.81223e-06
6.89786e-06
-1.81223e-06
6.89786e-06
-1.81223e-06
6.89786e-06
-1.81223e-06
6.89786e-06
-1.81223e-06
6.89786e-06
-1.81223e-06
6.89786e-06
-1.81223e-06
6.89786e-06
-1.81223e-06
6.89786e-06
-1.81223e-06
6.89786e-06
-1.81223e-06
6.89786e-06
-1.81223e-06
6.89786e-06
-1.81223e-06
6.89786e-06
-1.81223e-06
6.89786e-06
-1.81223e-06
6.89786e-06
-1.81223e-06
6.89786e-06
-1.81223e-06
6.89786e-06
-1.81223e-06
6.89786e-06
-1.81223e-06
6.89786e-06
-1.81223e-06
6.89786e-06
-1.81223e-06
6.89786e-06
-1.81223e-06
6.89786e-06
-1.81223e-06
6.89786e-06
-1.81223e-06
6.89786e-06
-1.81223e-06
6.89786e-06
-1.81223e-06
6.89786e-06
-1.81223e-06
6.89786e-06
-1.81223e-06
6.89786e-06
-1.81223e-06
6.89786e-06
-1.81223e-06
6.89786e-06
-1.81223e-06
6.89786e-06
-1.81223e-06
6.89786e-06
-1.81223e-06
6.89786e-06
-1.81223e-06
6.89786e-06
-1.81223e-06
6.89786e-06
-1.81223e-06
6.89786e-06
-1.81223e-06
6.89786e-06
-1.81223e-06
6.89786e-06
-1.81223e-06
6.89786e-06
-1.81223e-06
6.89786e-06
-1.81223e-06
6.89786e-06
-1.81223e-06
6.89786e-06
-1.81223e-06
6.89786e-06
-1.81223e-06
6.89786e-06
-1.81223e-06
6.89786e-06
-1.81223e-06
6.89786e-06
-1.81223e-06
6.89786e-06
-1.81223e-06
6.89786e-06
-1.81223e-06
6.89786e-06
-1.81223e-06
6.89786e-06
-1.81223e-06
6.89786e-06
-1.81223e-06
6.89786e-06
-1.81223e-06
6.89786e-06
-1.81223e-06
6.89786e-06
-1.81223e-06
6.89786e-06
-1.81223e-06
6.89786e-06
-1.81223e-06
6.89786e-06
-1.81223e-06
6.89786e-06
-1.81223e-06
6.89786e-06
-1.81223e-06
6.89786e-06
-1.81223e-06
6.89786e-06
-1.81223e-06
6.89786e-06
-1.81223e-06
6.89786e-06
-1.81223e-06
6.89786e-06
-1.81223e-06
6.89786e-06
-1.81223e-06
6.89786e-06
-1.81223e-06
6.89786e-06
-1.81223e-06
6.89786e-06
-1.81223e-06
6.89786e-06
-1.81223e-06
6.89786e-06
-1.81223e-06
6.89786e-06
-1.81223e-06
6.89786e-06
-1.81223e-06
6.89786e-06
-1.81223e-06
6.89786e-06
-1.81223e-06
6.89786e-06
-1.81223e-06
6.89786e-06
-1.81223e-06
6.89786e-06
-1.81223e-06
6.89786e-06
-1.81223e-06
6.89786e-06
-1.81223e-06
6.89786e-06
-1.81223e-06
6.89786e-06
-1.81223e-06
6.89786e-06
-1.81223e-06
6.89786e-06
-1.81223e-06
6.89786e-06
-1.81223e-06
6.89786e-06
-1.81223e-06
6.89786e-06
-1.81223e-06
6.89786e-06
-1.81223e-06
6.89786e-06
-1.81223e-06
6.89786e-06
-1.81223e-06
6.89786e-06
-1.81223e-06
6.89786e-06
-1.81223e-06
6.89786e-06
-1.81223e-06
6.89786e-06
-1.81223e-06
6.89786e-06
-1.81223e-06
6.89786e-06
-1.81223e-06
6.89786e-06
-1.81223e-06
6.89786e-06
-1.81223e-06
6.89786e-06
-1.81223e-06
6.89786e-06
-1.81223e-06
6.89786e-06
-1.81223e-06
6.89786e-06
-1.81223e-06
6.89786e-06
-1.81223e-06
6.89786e-06
-1.81223e-06
6.89786e-06
-1.81223e-06
6.89786e-06
-1.81223e-06
6.89786e-06
-1.81223e-06
6.89786e-06
-1.81223e-06
6.89786e-06
-1.81223e-06
6.89786e-06
-1.81223e-06
6.89786e-06
-1.81223e-06
6.89786e-06
-1.81223e-06
6.89786e-06
-1.81223e-06
6.89786e-06
-1.81223e-06
6.89786e-06
-1.81223e-06
6.89786e-06
-1.81223e-06
6.89786e-06
-1.81223e-06
6.89786e-06
-1.81223e-06
6.89786e-06
-1.81223e-06
6.89786e-06
-1.81223e-06
6.89786e-06
-1.81223e-06
6.89786e-06
-1.81223e-06
6.89786e-06
-1.81223e-06
6.89786e-06
-1.81223e-06
6.89786e-06
-1.81223e-06
6.89786e-06
-1.81223e-06
6.89786e-06
-1.81223e-06
6.89786e-06
-1.81223e-06
6.89786e-06
-1.81223e-06
6.89786e-06
-1.81223e-06
6.89786e-06
-1.81223e-06
6.89786e-06
-1.81223e-06
6.89786e-06
-1.81223e-06
6.89786e-06
-1.81223e-06
6.89786e-06
-1.81223e-06
6.89786e-06
-1.81223e-06
6.89786e-06
-1.81223e-06
6.89786e-06
-1.81223e-06
6.89786e-06
-1.81223e-06
-1.81222e-06
1.68776e-05
1.6616e-05
1.40455e-05
3.76331e-06
1.30682e-05
-4.84338e-07
1.28018e-05
-1.50525e-06
1.26155e-05
-1.60209e-06
1.2475e-05
-1.628e-06
1.2388e-05
-1.70847e-06
1.23319e-05
-1.73657e-06
1.23031e-05
-1.78227e-06
1.22925e-05
-1.80037e-06
1.2294e-05
-1.82178e-06
1.23029e-05
-1.82886e-06
1.23234e-05
-1.84813e-06
1.23476e-05
-1.85195e-06
1.23783e-05
-1.86174e-06
1.24134e-05
-1.86767e-06
1.24527e-05
-1.87415e-06
1.24944e-05
-1.87696e-06
1.25384e-05
-1.88091e-06
1.25866e-05
-1.88715e-06
1.26376e-05
-1.89115e-06
1.26905e-05
-1.89377e-06
1.2745e-05
-1.89622e-06
1.28005e-05
-1.89743e-06
1.28576e-05
-1.89975e-06
1.29139e-05
-1.89818e-06
1.29652e-05
-1.8905e-06
1.30098e-05
-1.87989e-06
1.30479e-05
-1.86981e-06
1.30802e-05
-1.86074e-06
1.31075e-05
-1.85303e-06
1.31303e-05
-1.84636e-06
1.31495e-05
-1.84078e-06
1.31656e-05
-1.83603e-06
1.3179e-05
-1.83212e-06
1.31903e-05
-1.82882e-06
1.31997e-05
-1.82613e-06
1.32075e-05
-1.82387e-06
1.32142e-05
-1.82202e-06
1.32198e-05
-1.82048e-06
1.32245e-05
-1.81921e-06
1.32285e-05
-1.81815e-06
1.3232e-05
-1.81733e-06
1.32349e-05
-1.81659e-06
1.32374e-05
-1.81591e-06
1.32395e-05
-1.81531e-06
1.32413e-05
-1.81485e-06
1.32428e-05
-1.81449e-06
1.32442e-05
-1.81419e-06
1.32453e-05
-1.81393e-06
1.32463e-05
-1.8137e-06
1.32472e-05
-1.81351e-06
1.32479e-05
-1.81334e-06
1.32486e-05
-1.8132e-06
1.32491e-05
-1.81307e-06
1.32496e-05
-1.81296e-06
1.32501e-05
-1.81287e-06
1.32504e-05
-1.81278e-06
1.32507e-05
-1.81271e-06
1.3251e-05
-1.81265e-06
1.32513e-05
-1.81259e-06
1.32515e-05
-1.81254e-06
1.32517e-05
-1.8125e-06
1.32518e-05
-1.81246e-06
1.3252e-05
-1.81243e-06
1.32521e-05
-1.81241e-06
1.32522e-05
-1.81238e-06
1.32523e-05
-1.81236e-06
1.32523e-05
-1.81234e-06
1.32524e-05
-1.81233e-06
1.32525e-05
-1.81232e-06
1.32525e-05
-1.8123e-06
1.32526e-05
-1.81229e-06
1.32526e-05
-1.81228e-06
1.32526e-05
-1.81228e-06
1.32527e-05
-1.81227e-06
1.32527e-05
-1.81227e-06
1.32527e-05
-1.81226e-06
1.32527e-05
-1.81226e-06
1.32527e-05
-1.81225e-06
1.32527e-05
-1.81225e-06
1.32528e-05
-1.81225e-06
1.32528e-05
-1.81224e-06
1.32528e-05
-1.81224e-06
1.32528e-05
-1.81224e-06
1.32528e-05
-1.81224e-06
1.32528e-05
-1.81224e-06
1.32528e-05
-1.81224e-06
1.32528e-05
-1.81224e-06
1.32528e-05
-1.81224e-06
1.32528e-05
-1.81223e-06
1.32528e-05
-1.81223e-06
1.32528e-05
-1.81223e-06
1.32528e-05
-1.81223e-06
1.32528e-05
-1.81223e-06
1.32528e-05
-1.81223e-06
1.32528e-05
-1.81223e-06
1.32528e-05
-1.81223e-06
1.32528e-05
-1.81223e-06
1.32528e-05
-1.81223e-06
1.32528e-05
-1.81223e-06
1.32528e-05
-1.81223e-06
1.32528e-05
-1.81223e-06
1.32528e-05
-1.81223e-06
1.32528e-05
-1.81223e-06
1.32528e-05
-1.81223e-06
1.32528e-05
-1.81223e-06
1.32528e-05
-1.81223e-06
1.32528e-05
-1.81223e-06
1.32528e-05
-1.81223e-06
1.32528e-05
-1.81223e-06
1.32528e-05
-1.81223e-06
1.32528e-05
-1.81223e-06
1.32528e-05
-1.81223e-06
1.32528e-05
-1.81223e-06
1.32528e-05
-1.81223e-06
1.32528e-05
-1.81223e-06
1.32528e-05
-1.81223e-06
1.32528e-05
-1.81223e-06
1.32528e-05
-1.81223e-06
1.32528e-05
-1.81223e-06
1.32528e-05
-1.81223e-06
1.32528e-05
-1.81223e-06
1.32528e-05
-1.81223e-06
1.32528e-05
-1.81223e-06
1.32528e-05
-1.81223e-06
1.32528e-05
-1.81223e-06
1.32528e-05
-1.81223e-06
1.32528e-05
-1.81223e-06
1.32528e-05
-1.81223e-06
1.32528e-05
-1.81223e-06
1.32528e-05
-1.81223e-06
1.32528e-05
-1.81223e-06
1.32528e-05
-1.81223e-06
1.32528e-05
-1.81223e-06
1.32528e-05
-1.81223e-06
1.32528e-05
-1.81223e-06
1.32528e-05
-1.81223e-06
1.32528e-05
-1.81223e-06
1.32528e-05
-1.81223e-06
1.32528e-05
-1.81223e-06
1.32528e-05
-1.81223e-06
1.32528e-05
-1.81223e-06
1.32528e-05
-1.81223e-06
1.32528e-05
-1.81223e-06
1.32528e-05
-1.81223e-06
1.32528e-05
-1.81223e-06
1.32528e-05
-1.81223e-06
1.32528e-05
-1.81223e-06
1.32528e-05
-1.81223e-06
1.32528e-05
-1.81223e-06
1.32528e-05
-1.81223e-06
1.32528e-05
-1.81223e-06
1.32528e-05
-1.81223e-06
1.32528e-05
-1.81223e-06
1.32528e-05
-1.81223e-06
1.32528e-05
-1.81223e-06
1.32528e-05
-1.81223e-06
1.32528e-05
-1.81223e-06
1.32528e-05
-1.81223e-06
1.32528e-05
-1.81223e-06
1.32528e-05
-1.81223e-06
1.32528e-05
-1.81223e-06
1.32528e-05
-1.81223e-06
1.32528e-05
-1.81223e-06
1.32528e-05
-1.81223e-06
1.32528e-05
-1.81223e-06
1.32528e-05
-1.81223e-06
1.32528e-05
-1.81223e-06
1.32528e-05
-1.81223e-06
1.32528e-05
-1.81223e-06
1.32528e-05
-1.81223e-06
1.32528e-05
-1.81223e-06
1.32528e-05
-1.81223e-06
1.32528e-05
-1.81223e-06
1.32528e-05
-1.81223e-06
1.32528e-05
-1.81223e-06
1.32528e-05
-1.81223e-06
1.32528e-05
-1.81223e-06
1.32528e-05
-1.81223e-06
1.32528e-05
-1.81223e-06
1.32528e-05
-1.81223e-06
1.32528e-05
-1.81223e-06
1.32528e-05
-1.81223e-06
1.32528e-05
-1.81223e-06
1.32528e-05
-1.81223e-06
1.32528e-05
-1.81223e-06
1.32528e-05
-1.81223e-06
1.32528e-05
-1.81223e-06
1.32528e-05
-1.81223e-06
1.32528e-05
-1.81223e-06
1.32528e-05
-1.81223e-06
1.32528e-05
-1.81223e-06
1.32528e-05
-1.81223e-06
1.32528e-05
-1.81223e-06
1.32528e-05
-1.81223e-06
1.32528e-05
-1.81223e-06
1.32528e-05
-1.81223e-06
1.32528e-05
-1.81223e-06
1.32528e-05
-1.81223e-06
1.32528e-05
-1.81223e-06
1.32528e-05
-1.81223e-06
1.32528e-05
-1.81223e-06
1.32528e-05
-1.81223e-06
1.32528e-05
-1.81223e-06
1.32528e-05
-1.81223e-06
1.32528e-05
-1.81223e-06
1.32528e-05
-1.81223e-06
1.32528e-05
-1.81223e-06
1.32528e-05
-1.81223e-06
1.32528e-05
-1.81223e-06
1.32528e-05
-1.81223e-06
1.32528e-05
-1.81223e-06
1.32528e-05
-1.81223e-06
1.32528e-05
-1.81223e-06
1.32528e-05
-1.81223e-06
1.32528e-05
-1.81223e-06
1.32528e-05
-1.81223e-06
1.32528e-05
-1.81223e-06
1.32528e-05
-1.81223e-06
1.32528e-05
-1.81223e-06
1.32528e-05
-1.81223e-06
1.32528e-05
-1.81223e-06
1.32528e-05
-1.81223e-06
1.32528e-05
-1.81223e-06
1.32528e-05
-1.81223e-06
1.32528e-05
-1.81223e-06
1.32528e-05
-1.81223e-06
1.32528e-05
-1.81223e-06
1.32528e-05
-1.81223e-06
1.32528e-05
-1.81223e-06
1.32528e-05
-1.81223e-06
1.32528e-05
-1.81223e-06
1.32528e-05
-1.81223e-06
1.32528e-05
-1.81223e-06
1.32528e-05
-1.81223e-06
1.32528e-05
-1.81223e-06
1.32528e-05
-1.81223e-06
1.32528e-05
-1.81223e-06
1.32528e-05
-1.81223e-06
1.32528e-05
-1.81223e-06
1.32528e-05
-1.81223e-06
1.32528e-05
-1.81223e-06
1.32528e-05
-1.81223e-06
1.32528e-05
-1.81223e-06
1.32528e-05
-1.81223e-06
1.32528e-05
-1.81223e-06
1.32528e-05
-1.81223e-06
1.32528e-05
-1.81223e-06
1.32528e-05
-1.81223e-06
1.32528e-05
-1.81223e-06
1.32528e-05
-1.81223e-06
1.32528e-05
-1.81223e-06
1.32528e-05
-1.81223e-06
1.32528e-05
-1.81223e-06
1.32528e-05
-1.81223e-06
1.32528e-05
-1.81223e-06
1.32528e-05
-1.81223e-06
1.32528e-05
-1.81223e-06
1.32528e-05
-1.81223e-06
1.32528e-05
-1.81223e-06
1.32528e-05
-1.81223e-06
1.32528e-05
-1.81223e-06
1.32528e-05
-1.81223e-06
1.32528e-05
-1.81223e-06
1.32528e-05
-1.81223e-06
1.32528e-05
-1.81223e-06
1.32528e-05
-1.81223e-06
1.32528e-05
-1.81223e-06
1.32528e-05
-1.81223e-06
1.32528e-05
-1.81223e-06
1.32528e-05
-1.81223e-06
1.32528e-05
-1.81223e-06
1.32528e-05
-1.81223e-06
1.32528e-05
-1.81223e-06
1.32528e-05
-1.81223e-06
1.32528e-05
-1.81223e-06
1.32528e-05
-1.81223e-06
1.32528e-05
-1.81223e-06
1.32528e-05
-1.81223e-06
1.32528e-05
-1.81223e-06
1.32528e-05
-1.81223e-06
1.32528e-05
-1.81223e-06
1.32528e-05
-1.81223e-06
1.32528e-05
-1.81223e-06
1.32528e-05
-1.81223e-06
1.32528e-05
-1.81223e-06
1.32528e-05
-1.81223e-06
1.32528e-05
-1.81223e-06
1.32528e-05
-1.81223e-06
1.32528e-05
-1.81223e-06
1.32528e-05
-1.81223e-06
1.32528e-05
-1.81223e-06
1.32528e-05
-1.81223e-06
1.32528e-05
-1.81223e-06
1.32528e-05
-1.81223e-06
1.32528e-05
-1.81223e-06
1.32528e-05
-1.81224e-06
1.32528e-05
-1.81223e-06
-1.81221e-06
2.05334e-05
1.8541e-05
1.81926e-05
6.10408e-06
1.69495e-05
7.58824e-07
1.63977e-05
-9.53466e-07
1.60115e-05
-1.21595e-06
1.57843e-05
-1.40075e-06
1.56307e-05
-1.55487e-06
1.55347e-05
-1.64059e-06
1.54756e-05
-1.72316e-06
1.54476e-05
-1.77243e-06
1.54357e-05
-1.80984e-06
1.54394e-05
-1.83254e-06
1.54557e-05
-1.86448e-06
1.54792e-05
-1.87542e-06
1.55121e-05
-1.8946e-06
1.55509e-05
-1.90646e-06
1.55958e-05
-1.9191e-06
1.56445e-05
-1.92563e-06
1.56962e-05
-1.93265e-06
1.57532e-05
-1.94414e-06
1.5814e-05
-1.95193e-06
1.58775e-05
-1.95727e-06
1.59433e-05
-1.96201e-06
1.60106e-05
-1.96476e-06
1.60802e-05
-1.96934e-06
1.61487e-05
-1.96668e-06
1.62112e-05
-1.953e-06
1.6266e-05
-1.93464e-06
1.63131e-05
-1.91699e-06
1.63534e-05
-1.90101e-06
1.63876e-05
-1.88723e-06
1.64165e-05
-1.87524e-06
1.64408e-05
-1.86511e-06
1.64612e-05
-1.85646e-06
1.64784e-05
-1.84926e-06
1.64928e-05
-1.8432e-06
1.65048e-05
-1.8382e-06
1.6515e-05
-1.83401e-06
1.65235e-05
-1.83056e-06
1.65307e-05
-1.82768e-06
1.65368e-05
-1.82531e-06
1.6542e-05
-1.82332e-06
1.65464e-05
-1.82176e-06
1.65502e-05
-1.8204e-06
1.65534e-05
-1.81913e-06
1.65561e-05
-1.818e-06
1.65584e-05
-1.81714e-06
1.65604e-05
-1.81645e-06
1.65621e-05
-1.81588e-06
1.65635e-05
-1.81539e-06
1.65648e-05
-1.81497e-06
1.65659e-05
-1.81461e-06
1.65669e-05
-1.8143e-06
1.65677e-05
-1.81403e-06
1.65684e-05
-1.81379e-06
1.6569e-05
-1.81359e-06
1.65696e-05
-1.81341e-06
1.65701e-05
-1.81325e-06
1.65705e-05
-1.81312e-06
1.65708e-05
-1.813e-06
1.65711e-05
-1.8129e-06
1.65714e-05
-1.81281e-06
1.65716e-05
-1.81273e-06
1.65718e-05
-1.81266e-06
1.6572e-05
-1.81261e-06
1.65721e-05
-1.81256e-06
1.65723e-05
-1.81251e-06
1.65724e-05
-1.81247e-06
1.65725e-05
-1.81244e-06
1.65726e-05
-1.81241e-06
1.65726e-05
-1.81239e-06
1.65727e-05
-1.81237e-06
1.65727e-05
-1.81235e-06
1.65728e-05
-1.81233e-06
1.65728e-05
-1.81232e-06
1.65729e-05
-1.81231e-06
1.65729e-05
-1.8123e-06
1.65729e-05
-1.81229e-06
1.65729e-05
-1.81228e-06
1.6573e-05
-1.81227e-06
1.6573e-05
-1.81227e-06
1.6573e-05
-1.81226e-06
1.6573e-05
-1.81226e-06
1.6573e-05
-1.81225e-06
1.6573e-05
-1.81225e-06
1.6573e-05
-1.81225e-06
1.6573e-05
-1.81224e-06
1.6573e-05
-1.81224e-06
1.65731e-05
-1.81224e-06
1.65731e-05
-1.81224e-06
1.65731e-05
-1.81224e-06
1.65731e-05
-1.81224e-06
1.65731e-05
-1.81224e-06
1.65731e-05
-1.81224e-06
1.65731e-05
-1.81223e-06
1.65731e-05
-1.81223e-06
1.65731e-05
-1.81223e-06
1.65731e-05
-1.81223e-06
1.65731e-05
-1.81223e-06
1.65731e-05
-1.81223e-06
1.65731e-05
-1.81223e-06
1.65731e-05
-1.81223e-06
1.65731e-05
-1.81223e-06
1.65731e-05
-1.81223e-06
1.65731e-05
-1.81223e-06
1.65731e-05
-1.81223e-06
1.65731e-05
-1.81223e-06
1.65731e-05
-1.81223e-06
1.65731e-05
-1.81223e-06
1.65731e-05
-1.81223e-06
1.65731e-05
-1.81223e-06
1.65731e-05
-1.81223e-06
1.65731e-05
-1.81223e-06
1.65731e-05
-1.81223e-06
1.65731e-05
-1.81223e-06
1.65731e-05
-1.81223e-06
1.65731e-05
-1.81223e-06
1.65731e-05
-1.81223e-06
1.65731e-05
-1.81223e-06
1.65731e-05
-1.81223e-06
1.65731e-05
-1.81223e-06
1.65731e-05
-1.81223e-06
1.65731e-05
-1.81223e-06
1.65731e-05
-1.81223e-06
1.65731e-05
-1.81223e-06
1.65731e-05
-1.81223e-06
1.65731e-05
-1.81223e-06
1.65731e-05
-1.81223e-06
1.65731e-05
-1.81223e-06
1.65731e-05
-1.81223e-06
1.65731e-05
-1.81223e-06
1.65731e-05
-1.81223e-06
1.65731e-05
-1.81223e-06
1.65731e-05
-1.81223e-06
1.65731e-05
-1.81223e-06
1.65731e-05
-1.81223e-06
1.65731e-05
-1.81223e-06
1.65731e-05
-1.81223e-06
1.65731e-05
-1.81223e-06
1.65731e-05
-1.81223e-06
1.65731e-05
-1.81223e-06
1.65731e-05
-1.81223e-06
1.65731e-05
-1.81223e-06
1.65731e-05
-1.81223e-06
1.65731e-05
-1.81223e-06
1.65731e-05
-1.81223e-06
1.65731e-05
-1.81223e-06
1.65731e-05
-1.81223e-06
1.65731e-05
-1.81223e-06
1.65731e-05
-1.81223e-06
1.65731e-05
-1.81223e-06
1.65731e-05
-1.81223e-06
1.65731e-05
-1.81223e-06
1.65731e-05
-1.81223e-06
1.65731e-05
-1.81223e-06
1.65731e-05
-1.81223e-06
1.65731e-05
-1.81223e-06
1.65731e-05
-1.81223e-06
1.65731e-05
-1.81223e-06
1.65731e-05
-1.81223e-06
1.65731e-05
-1.81223e-06
1.65731e-05
-1.81223e-06
1.65731e-05
-1.81223e-06
1.65731e-05
-1.81223e-06
1.65731e-05
-1.81223e-06
1.65731e-05
-1.81223e-06
1.65731e-05
-1.81223e-06
1.65731e-05
-1.81223e-06
1.65731e-05
-1.81223e-06
1.65731e-05
-1.81223e-06
1.65731e-05
-1.81223e-06
1.65731e-05
-1.81223e-06
1.65731e-05
-1.81223e-06
1.65731e-05
-1.81223e-06
1.65731e-05
-1.81223e-06
1.65731e-05
-1.81223e-06
1.65731e-05
-1.81223e-06
1.65731e-05
-1.81223e-06
1.65731e-05
-1.81223e-06
1.65731e-05
-1.81223e-06
1.65731e-05
-1.81223e-06
1.65731e-05
-1.81223e-06
1.65731e-05
-1.81223e-06
1.65731e-05
-1.81223e-06
1.65731e-05
-1.81223e-06
1.65731e-05
-1.81223e-06
1.65731e-05
-1.81223e-06
1.65731e-05
-1.81223e-06
1.65731e-05
-1.81223e-06
1.65731e-05
-1.81223e-06
1.65731e-05
-1.81223e-06
1.65731e-05
-1.81223e-06
1.65731e-05
-1.81223e-06
1.65731e-05
-1.81223e-06
1.65731e-05
-1.81223e-06
1.65731e-05
-1.81223e-06
1.65731e-05
-1.81223e-06
1.65731e-05
-1.81223e-06
1.65731e-05
-1.81223e-06
1.65731e-05
-1.81223e-06
1.65731e-05
-1.81223e-06
1.65731e-05
-1.81223e-06
1.65731e-05
-1.81223e-06
1.65731e-05
-1.81223e-06
1.65731e-05
-1.81223e-06
1.65731e-05
-1.81223e-06
1.65731e-05
-1.81223e-06
1.65731e-05
-1.81223e-06
1.65731e-05
-1.81223e-06
1.65731e-05
-1.81223e-06
1.65731e-05
-1.81223e-06
1.65731e-05
-1.81223e-06
1.65731e-05
-1.81223e-06
1.65731e-05
-1.81223e-06
1.65731e-05
-1.81223e-06
1.65731e-05
-1.81223e-06
1.65731e-05
-1.81223e-06
1.65731e-05
-1.81223e-06
1.65731e-05
-1.81223e-06
1.65731e-05
-1.81223e-06
1.65731e-05
-1.81223e-06
1.65731e-05
-1.81223e-06
1.65731e-05
-1.81223e-06
1.65731e-05
-1.81223e-06
1.65731e-05
-1.81223e-06
1.65731e-05
-1.81223e-06
1.65731e-05
-1.81223e-06
1.65731e-05
-1.81223e-06
1.65731e-05
-1.81223e-06
1.65731e-05
-1.81223e-06
1.65731e-05
-1.81223e-06
1.65731e-05
-1.81223e-06
1.65731e-05
-1.81223e-06
1.65731e-05
-1.81223e-06
1.65731e-05
-1.81223e-06
1.65731e-05
-1.81223e-06
1.65731e-05
-1.81223e-06
1.65731e-05
-1.81223e-06
1.65731e-05
-1.81223e-06
1.65731e-05
-1.81223e-06
1.65731e-05
-1.81223e-06
1.65731e-05
-1.81223e-06
1.65731e-05
-1.81223e-06
1.65731e-05
-1.81223e-06
1.65731e-05
-1.81223e-06
1.65731e-05
-1.81223e-06
1.65731e-05
-1.81223e-06
1.65731e-05
-1.81223e-06
1.65731e-05
-1.81223e-06
1.65731e-05
-1.81223e-06
1.65731e-05
-1.81223e-06
1.65731e-05
-1.81223e-06
1.65731e-05
-1.81223e-06
1.65731e-05
-1.81223e-06
1.65731e-05
-1.81223e-06
1.65731e-05
-1.81223e-06
1.65731e-05
-1.81223e-06
1.65731e-05
-1.81223e-06
1.65731e-05
-1.81223e-06
1.65731e-05
-1.81223e-06
1.65731e-05
-1.81223e-06
1.65731e-05
-1.81223e-06
1.65731e-05
-1.81223e-06
1.65731e-05
-1.81223e-06
1.65731e-05
-1.81223e-06
1.65731e-05
-1.81223e-06
1.65731e-05
-1.81223e-06
1.65731e-05
-1.81223e-06
1.65731e-05
-1.81223e-06
1.65731e-05
-1.81223e-06
1.65731e-05
-1.81223e-06
1.65731e-05
-1.81223e-06
1.65731e-05
-1.81223e-06
1.65731e-05
-1.81223e-06
1.65731e-05
-1.81223e-06
1.65731e-05
-1.81223e-06
1.65731e-05
-1.81223e-06
1.65731e-05
-1.81223e-06
1.65731e-05
-1.81223e-06
1.65731e-05
-1.81223e-06
1.65731e-05
-1.81223e-06
1.65731e-05
-1.81223e-06
1.65731e-05
-1.81223e-06
1.65731e-05
-1.81223e-06
1.65731e-05
-1.81223e-06
1.65731e-05
-1.81223e-06
1.65731e-05
-1.81223e-06
1.65731e-05
-1.81223e-06
1.65731e-05
-1.81223e-06
1.65731e-05
-1.81223e-06
1.65731e-05
-1.81223e-06
1.65731e-05
-1.81223e-06
1.65731e-05
-1.81223e-06
1.65731e-05
-1.81223e-06
1.65731e-05
-1.81223e-06
1.65731e-05
-1.81223e-06
1.65731e-05
-1.81223e-06
1.65731e-05
-1.81224e-06
1.65731e-05
-1.81223e-06
-1.81221e-06
2.24117e-05
1.85876e-05
2.10149e-05
7.50089e-06
1.98784e-05
1.89538e-06
1.90546e-05
-1.2968e-07
1.84708e-05
-6.32156e-07
1.81326e-05
-1.06252e-06
1.79008e-05
-1.32306e-06
1.77582e-05
-1.49808e-06
1.7665e-05
-1.62991e-06
1.76128e-05
-1.72026e-06
1.75825e-05
-1.77957e-06
1.75752e-05
-1.82517e-06
1.75827e-05
-1.87202e-06
1.76007e-05
-1.89338e-06
1.76303e-05
-1.92425e-06
1.76676e-05
-1.94378e-06
1.77131e-05
-1.96452e-06
1.77636e-05
-1.97616e-06
1.7818e-05
-1.98705e-06
1.78784e-05
-2.00455e-06
1.79434e-05
-2.01697e-06
1.80119e-05
-2.02576e-06
1.80833e-05
-2.03335e-06
1.81568e-05
-2.03827e-06
1.82329e-05
-2.04548e-06
1.83074e-05
-2.04115e-06
1.8375e-05
-2.02061e-06
1.84344e-05
-1.99406e-06
1.84859e-05
-1.96847e-06
1.85301e-05
-1.94521e-06
1.85678e-05
-1.92493e-06
1.85998e-05
-1.90723e-06
1.86268e-05
-1.89216e-06
1.86496e-05
-1.87926e-06
1.86688e-05
-1.86846e-06
1.8685e-05
-1.85934e-06
1.86986e-05
-1.85177e-06
1.871e-05
-1.84544e-06
1.87196e-05
-1.8402e-06
1.87278e-05
-1.83582e-06
1.87346e-05
-1.83219e-06
1.87405e-05
-1.82916e-06
1.87455e-05
-1.82676e-06
1.87498e-05
-1.82468e-06
1.87534e-05
-1.82276e-06
1.87564e-05
-1.82105e-06
1.8759e-05
-1.81971e-06
1.87612e-05
-1.81866e-06
1.87631e-05
-1.81778e-06
1.87648e-05
-1.81704e-06
1.87662e-05
-1.8164e-06
1.87674e-05
-1.81585e-06
1.87685e-05
-1.81537e-06
1.87694e-05
-1.81495e-06
1.87702e-05
-1.81459e-06
1.87709e-05
-1.81428e-06
1.87715e-05
-1.81401e-06
1.87721e-05
-1.81378e-06
1.87725e-05
-1.81357e-06
1.87729e-05
-1.81339e-06
1.87732e-05
-1.81324e-06
1.87735e-05
-1.8131e-06
1.87738e-05
-1.81299e-06
1.8774e-05
-1.81289e-06
1.87742e-05
-1.8128e-06
1.87744e-05
-1.81272e-06
1.87745e-05
-1.81266e-06
1.87746e-05
-1.8126e-06
1.87747e-05
-1.81255e-06
1.87748e-05
-1.8125e-06
1.87749e-05
-1.81247e-06
1.8775e-05
-1.81244e-06
1.8775e-05
-1.81241e-06
1.87751e-05
-1.81238e-06
1.87751e-05
-1.81236e-06
1.87752e-05
-1.81234e-06
1.87752e-05
-1.81233e-06
1.87752e-05
-1.81231e-06
1.87753e-05
-1.8123e-06
1.87753e-05
-1.81229e-06
1.87753e-05
-1.81228e-06
1.87753e-05
-1.81228e-06
1.87753e-05
-1.81227e-06
1.87753e-05
-1.81226e-06
1.87754e-05
-1.81226e-06
1.87754e-05
-1.81226e-06
1.87754e-05
-1.81225e-06
1.87754e-05
-1.81225e-06
1.87754e-05
-1.81225e-06
1.87754e-05
-1.81224e-06
1.87754e-05
-1.81224e-06
1.87754e-05
-1.81224e-06
1.87754e-05
-1.81224e-06
1.87754e-05
-1.81224e-06
1.87754e-05
-1.81224e-06
1.87754e-05
-1.81224e-06
1.87754e-05
-1.81224e-06
1.87754e-05
-1.81223e-06
1.87754e-05
-1.81223e-06
1.87754e-05
-1.81223e-06
1.87754e-05
-1.81223e-06
1.87754e-05
-1.81223e-06
1.87754e-05
-1.81223e-06
1.87754e-05
-1.81223e-06
1.87754e-05
-1.81223e-06
1.87754e-05
-1.81223e-06
1.87754e-05
-1.81223e-06
1.87754e-05
-1.81223e-06
1.87754e-05
-1.81223e-06
1.87754e-05
-1.81223e-06
1.87754e-05
-1.81223e-06
1.87754e-05
-1.81223e-06
1.87754e-05
-1.81223e-06
1.87754e-05
-1.81223e-06
1.87754e-05
-1.81223e-06
1.87754e-05
-1.81223e-06
1.87754e-05
-1.81223e-06
1.87754e-05
-1.81223e-06
1.87754e-05
-1.81223e-06
1.87754e-05
-1.81223e-06
1.87754e-05
-1.81223e-06
1.87754e-05
-1.81223e-06
1.87754e-05
-1.81223e-06
1.87754e-05
-1.81223e-06
1.87754e-05
-1.81223e-06
1.87754e-05
-1.81223e-06
1.87754e-05
-1.81223e-06
1.87754e-05
-1.81223e-06
1.87754e-05
-1.81223e-06
1.87754e-05
-1.81223e-06
1.87754e-05
-1.81223e-06
1.87754e-05
-1.81223e-06
1.87754e-05
-1.81223e-06
1.87754e-05
-1.81223e-06
1.87754e-05
-1.81223e-06
1.87754e-05
-1.81223e-06
1.87754e-05
-1.81223e-06
1.87754e-05
-1.81223e-06
1.87754e-05
-1.81223e-06
1.87754e-05
-1.81223e-06
1.87754e-05
-1.81223e-06
1.87754e-05
-1.81223e-06
1.87754e-05
-1.81223e-06
1.87754e-05
-1.81223e-06
1.87754e-05
-1.81223e-06
1.87754e-05
-1.81223e-06
1.87754e-05
-1.81223e-06
1.87754e-05
-1.81223e-06
1.87754e-05
-1.81223e-06
1.87754e-05
-1.81223e-06
1.87754e-05
-1.81223e-06
1.87754e-05
-1.81223e-06
1.87754e-05
-1.81223e-06
1.87754e-05
-1.81223e-06
1.87754e-05
-1.81223e-06
1.87754e-05
-1.81223e-06
1.87754e-05
-1.81223e-06
1.87754e-05
-1.81223e-06
1.87754e-05
-1.81223e-06
1.87754e-05
-1.81223e-06
1.87754e-05
-1.81223e-06
1.87754e-05
-1.81223e-06
1.87754e-05
-1.81223e-06
1.87754e-05
-1.81223e-06
1.87754e-05
-1.81223e-06
1.87754e-05
-1.81223e-06
1.87754e-05
-1.81223e-06
1.87754e-05
-1.81223e-06
1.87754e-05
-1.81223e-06
1.87754e-05
-1.81223e-06
1.87754e-05
-1.81223e-06
1.87754e-05
-1.81223e-06
1.87754e-05
-1.81223e-06
1.87754e-05
-1.81223e-06
1.87754e-05
-1.81223e-06
1.87754e-05
-1.81223e-06
1.87754e-05
-1.81223e-06
1.87754e-05
-1.81223e-06
1.87754e-05
-1.81223e-06
1.87754e-05
-1.81223e-06
1.87754e-05
-1.81223e-06
1.87754e-05
-1.81223e-06
1.87754e-05
-1.81223e-06
1.87754e-05
-1.81223e-06
1.87754e-05
-1.81223e-06
1.87754e-05
-1.81223e-06
1.87754e-05
-1.81223e-06
1.87754e-05
-1.81223e-06
1.87754e-05
-1.81223e-06
1.87754e-05
-1.81223e-06
1.87754e-05
-1.81223e-06
1.87754e-05
-1.81223e-06
1.87754e-05
-1.81223e-06
1.87754e-05
-1.81223e-06
1.87754e-05
-1.81223e-06
1.87754e-05
-1.81223e-06
1.87754e-05
-1.81223e-06
1.87754e-05
-1.81223e-06
1.87754e-05
-1.81223e-06
1.87754e-05
-1.81223e-06
1.87754e-05
-1.81223e-06
1.87754e-05
-1.81223e-06
1.87754e-05
-1.81223e-06
1.87754e-05
-1.81223e-06
1.87754e-05
-1.81223e-06
1.87754e-05
-1.81223e-06
1.87754e-05
-1.81223e-06
1.87754e-05
-1.81223e-06
1.87754e-05
-1.81223e-06
1.87754e-05
-1.81223e-06
1.87754e-05
-1.81223e-06
1.87754e-05
-1.81223e-06
1.87754e-05
-1.81223e-06
1.87754e-05
-1.81223e-06
1.87754e-05
-1.81223e-06
1.87754e-05
-1.81223e-06
1.87754e-05
-1.81223e-06
1.87754e-05
-1.81223e-06
1.87754e-05
-1.81223e-06
1.87754e-05
-1.81223e-06
1.87754e-05
-1.81223e-06
1.87754e-05
-1.81223e-06
1.87754e-05
-1.81223e-06
1.87754e-05
-1.81223e-06
1.87754e-05
-1.81223e-06
1.87754e-05
-1.81223e-06
1.87754e-05
-1.81223e-06
1.87754e-05
-1.81223e-06
1.87754e-05
-1.81223e-06
1.87754e-05
-1.81223e-06
1.87754e-05
-1.81223e-06
1.87754e-05
-1.81223e-06
1.87754e-05
-1.81223e-06
1.87754e-05
-1.81223e-06
1.87754e-05
-1.81223e-06
1.87754e-05
-1.81223e-06
1.87754e-05
-1.81223e-06
1.87754e-05
-1.81223e-06
1.87754e-05
-1.81223e-06
1.87754e-05
-1.81223e-06
1.87754e-05
-1.81223e-06
1.87754e-05
-1.81223e-06
1.87754e-05
-1.81223e-06
1.87754e-05
-1.81223e-06
1.87754e-05
-1.81223e-06
1.87754e-05
-1.81223e-06
1.87754e-05
-1.81223e-06
1.87754e-05
-1.81223e-06
1.87754e-05
-1.81223e-06
1.87754e-05
-1.81223e-06
1.87754e-05
-1.81223e-06
1.87754e-05
-1.81223e-06
1.87754e-05
-1.81223e-06
1.87754e-05
-1.81223e-06
1.87754e-05
-1.81223e-06
1.87754e-05
-1.81223e-06
1.87754e-05
-1.81223e-06
1.87754e-05
-1.81223e-06
1.87754e-05
-1.81223e-06
1.87754e-05
-1.81223e-06
1.87754e-05
-1.81223e-06
1.87754e-05
-1.81223e-06
1.87754e-05
-1.81223e-06
1.87754e-05
-1.81223e-06
1.87754e-05
-1.81223e-06
1.87754e-05
-1.81223e-06
1.87754e-05
-1.81223e-06
1.87754e-05
-1.81223e-06
1.87754e-05
-1.81223e-06
1.87754e-05
-1.81223e-06
1.87754e-05