/*--------------------------------*- C++ -*----------------------------------*\
| =========                 |                                                 |
| \\      /  F ield         | foam-extend: Open Source CFD                    |
|  \\    /   O peration     | Version:     3.2                                |
|   \\  /    A nd           | Web:         http://www.foam-extend.org         |
|    \\/     M anipulation  | For copyright notice see file Copyright         |
\*---------------------------------------------------------------------------*/
FoamFile
{
    version     2.0;
    format      ascii;
    class       areaVectorField;
    location    "79";
    object      aUf;
}
// * * * * * * * * * * * * * * * * * * * * * * * * * * * * * * * * * * * * * //

dimensions      [0 1 -1 0 0 0 0];

internalField   nonuniform List<vector> 
300
(
(0.969774 -1.60184e-25 0.0225766)
(0.775538 2.45911e-25 9.42064e-05)
(0.667775 9.90261e-26 -0.00357481)
(0.668869 0 -0.00358007)
(0.658453 -1.19171e-26 -0.00345655)
(0.658435 -9.77604e-27 -0.00333427)
(0.653336 -1.25732e-26 -0.00332813)
(0.653094 -3.92053e-27 -0.00327803)
(0.651266 0 -0.00329117)
(0.651959 -1.01651e-27 -0.00327015)
(0.652125 0 -0.00328577)
(0.653315 5.4273e-29 -0.0032806)
(0.654514 -7.22939e-28 -0.00329593)
(0.656413 -1.84612e-27 -0.00330036)
(0.65819 0 -0.00331125)
(0.660437 0 -0.00332194)
(0.662715 0 -0.00333439)
(0.665268 2.10509e-27 -0.00334583)
(0.66779 0 -0.00336025)
(0.670555 0 -0.00337497)
(0.673456 0 -0.00338951)
(0.676444 2.94163e-27 -0.00340417)
(0.679503 0 -0.00341963)
(0.682602 0 -0.00343467)
(0.685718 0 -0.00344992)
(0.688877 3.4113e-27 -0.00346413)
(0.691811 -3.179e-27 -0.00347621)
(0.69438 0 -0.00348539)
(0.696538 0 -0.00349329)
(0.69835 2.09335e-27 -0.00349986)
(0.699851 -1.78529e-27 -0.00350563)
(0.701104 0 -0.00351043)
(0.702139 0 -0.00351461)
(0.703003 0 -0.00351807)
(0.703718 -8.96568e-28 -0.00352107)
(0.704317 0 -0.00352355)
(0.704814 0 -0.0035257)
(0.705232 0 -0.00352748)
(0.705581 0 -0.00352902)
(0.705876 0 -0.0035303)
(0.706124 0 -0.00353141)
(0.706334 -9.78433e-43 -0.00353234)
(0.706513 0 -0.00353317)
(0.706668 0 -0.00353384)
(0.706799 0 -0.0035344)
(0.706909 0 -0.00353489)
(0.707002 6.79355e-35 -0.00353532)
(0.707081 0 -0.00353568)
(0.70715 0 -0.00353599)
(0.70721 0 -0.00353626)
(0.707262 0 -0.0035365)
(0.707307 -9.837e-43 -0.0035367)
(0.707346 0 -0.00353688)
(0.707381 4.30473e-29 -0.00353703)
(0.707411 0 -0.00353717)
(0.707437 0 -0.00353728)
(0.707459 -9.84481e-43 -0.00353739)
(0.707479 0 -0.00353747)
(0.707496 -2.11239e-29 -0.00353755)
(0.707511 0 -0.00353761)
(0.707524 0 -0.00353767)
(0.707535 1.37529e-29 -0.00353772)
(0.707545 0 -0.00353776)
(0.707553 -9.84958e-43 -0.0035378)
(0.707561 0 -0.00353783)
(0.707567 0 -0.00353786)
(0.707572 -9.85055e-43 -0.00353788)
(0.707577 0 -0.00353791)
(0.707581 -9.851e-43 -0.00353792)
(0.707585 0 -0.00353794)
(0.707588 -3.73657e-30 -0.00353795)
(0.707591 -9.85147e-43 -0.00353796)
(0.707593 0 -0.00353797)
(0.707595 2.40599e-30 -0.00353798)
(0.707597 0 -0.00353799)
(0.707598 0 -0.003538)
(0.707599 -9.85191e-43 -0.003538)
(0.7076 0 -0.00353801)
(0.707601 -9.85202e-43 -0.00353801)
(0.707602 0 -0.00353801)
(0.707603 0 -0.00353802)
(0.707603 0 -0.00353802)
(0.707604 0 -0.00353802)
(0.707604 0 -0.00353802)
(0.707605 0 -0.00353803)
(0.707605 -4.05848e-31 -0.00353803)
(0.707605 0 -0.00353803)
(0.707606 0 -0.00353803)
(0.707606 2.58653e-31 -0.00353803)
(0.707606 0 -0.00353803)
(0.707606 0 -0.00353803)
(0.707606 0 -0.00353803)
(0.707606 0 -0.00353803)
(0.707607 0 -0.00353803)
(0.707607 0 -0.00353803)
(0.707607 0 -0.00353803)
(0.707607 0 -0.00353803)
(0.707607 0 -0.00353803)
(0.707607 0 -0.00353803)
(0.707607 0 -0.00353803)
(0.707607 0 -0.00353803)
(0.707607 -3.38105e-32 -0.00353803)
(0.707607 0 -0.00353803)
(0.707607 0 -0.00353804)
(0.707607 2.20642e-32 -0.00353804)
(0.707607 0 -0.00353804)
(0.707607 0 -0.00353804)
(0.707607 0 -0.00353804)
(0.707607 0 -0.00353804)
(0.707607 0 -0.00353804)
(0.707607 0 -0.00353804)
(0.707607 0 -0.00353804)
(0.707607 0 -0.00353804)
(0.707607 0 -0.00353804)
(0.707607 0 -0.00353804)
(0.707607 0 -0.00353804)
(0.707607 0 -0.00353804)
(0.707607 -3.53944e-33 -0.00353804)
(0.707607 0 -0.00353804)
(0.707607 2.62164e-33 -0.00353804)
(0.707607 0 -0.00353804)
(0.707607 0 -0.00353804)
(0.707607 0 -0.00353804)
(0.707607 0 -0.00353804)
(0.707607 0 -0.00353804)
(0.707607 0 -0.00353804)
(0.707607 0 -0.00353804)
(0.707607 0 -0.00353804)
(0.707607 0 -0.00353804)
(0.707607 0 -0.00353804)
(0.707607 0 -0.00353804)
(0.707607 4.12625e-34 -0.00353804)
(0.707607 0 -0.00353804)
(0.707607 0 -0.00353804)
(0.707607 0 -0.00353804)
(0.707607 0 -0.00353804)
(0.707607 0 -0.00353804)
(0.707607 0 -0.00353804)
(0.707607 0 -0.00353804)
(0.707607 0 -0.00353804)
(0.707607 0 -0.00353804)
(0.707607 0 -0.00353804)
(0.707607 0 -0.00353804)
(0.707607 0 -0.00353804)
(0.707607 0 -0.00353804)
(0.707607 0 -0.00353804)
(0.707607 0 -0.00353804)
(0.707607 0 -0.00353804)
(0.707607 0 -0.00353804)
(0.707607 0 -0.00353804)
(0.707607 0 -0.00353804)
(0.707607 0 -0.00353804)
(0.707607 0 -0.00353804)
(0.707607 0 -0.00353804)
(0.707607 0 -0.00353804)
(0.707607 0 -0.00353804)
(0.707607 0 -0.00353804)
(0.707607 0 -0.00353804)
(0.707607 0 -0.00353804)
(0.707607 0 -0.00353804)
(0.707607 0 -0.00353804)
(0.707607 0 -0.00353804)
(0.707607 0 -0.00353804)
(0.707607 0 -0.00353804)
(0.707607 0 -0.00353804)
(0.707607 0 -0.00353804)
(0.707607 0 -0.00353804)
(0.707607 0 -0.00353804)
(0.707607 0 -0.00353804)
(0.707607 0 -0.00353804)
(0.707607 0 -0.00353804)
(0.707607 0 -0.00353804)
(0.707607 0 -0.00353804)
(0.707607 0 -0.00353804)
(0.707607 0 -0.00353804)
(0.707607 0 -0.00353804)
(0.707607 0 -0.00353804)
(0.707607 0 -0.00353804)
(0.707607 0 -0.00353804)
(0.707607 0 -0.00353804)
(0.707607 0 -0.00353804)
(0.707607 0 -0.00353804)
(0.707607 0 -0.00353804)
(0.707607 0 -0.00353804)
(0.707607 0 -0.00353804)
(0.707607 0 -0.00353804)
(0.707607 0 -0.00353804)
(0.707607 0 -0.00353804)
(0.707607 0 -0.00353804)
(0.707607 0 -0.00353804)
(0.707607 0 -0.00353804)
(0.707607 0 -0.00353804)
(0.707607 0 -0.00353804)
(0.707607 0 -0.00353804)
(0.707607 0 -0.00353804)
(0.707607 0 -0.00353804)
(0.707607 0 -0.00353804)
(0.707607 0 -0.00353804)
(0.707607 0 -0.00353804)
(0.707607 0 -0.00353804)
(0.707607 0 -0.00353804)
(0.707607 0 -0.00353804)
(0.707607 0 -0.00353804)
(0.707607 0 -0.00353804)
(0.707607 0 -0.00353804)
(0.707607 0 -0.00353804)
(0.707607 0 -0.00353804)
(0.707607 0 -0.00353804)
(0.707607 0 -0.00353804)
(0.707607 0 -0.00353804)
(0.707607 0 -0.00353804)
(0.707607 0 -0.00353804)
(0.707607 0 -0.00353804)
(0.707607 0 -0.00353804)
(0.707607 0 -0.00353804)
(0.707607 0 -0.00353804)
(0.707607 0 -0.00353804)
(0.707607 0 -0.00353804)
(0.707607 0 -0.00353804)
(0.707607 0 -0.00353804)
(0.707607 0 -0.00353804)
(0.707607 0 -0.00353804)
(0.707607 0 -0.00353804)
(0.707607 0 -0.00353804)
(0.707607 0 -0.00353804)
(0.707607 0 -0.00353804)
(0.707607 0 -0.00353804)
(0.707607 0 -0.00353804)
(0.707607 0 -0.00353804)
(0.707607 0 -0.00353804)
(0.707607 0 -0.00353804)
(0.707607 0 -0.00353804)
(0.707607 0 -0.00353804)
(0.707607 0 -0.00353804)
(0.707607 0 -0.00353804)
(0.707607 0 -0.00353804)
(0.707607 0 -0.00353804)
(0.707607 0 -0.00353804)
(0.707607 0 -0.00353804)
(0.707607 0 -0.00353804)
(0.707607 0 -0.00353804)
(0.707607 0 -0.00353804)
(0.707607 0 -0.00353804)
(0.707607 0 -0.00353804)
(0.707607 0 -0.00353804)
(0.707607 0 -0.00353804)
(0.707607 0 -0.00353804)
(0.707607 0 -0.00353804)
(0.707607 0 -0.00353804)
(0.707607 0 -0.00353804)
(0.707607 0 -0.00353804)
(0.707607 0 -0.00353804)
(0.707607 0 -0.00353804)
(0.707607 0 -0.00353804)
(0.707607 0 -0.00353804)
(0.707607 0 -0.00353804)
(0.707607 0 -0.00353804)
(0.707607 0 -0.00353804)
(0.707607 0 -0.00353804)
(0.707607 0 -0.00353804)
(0.707607 0 -0.00353804)
(0.707607 0 -0.00353804)
(0.707607 0 -0.00353804)
(0.707607 0 -0.00353804)
(0.707607 0 -0.00353804)
(0.707607 0 -0.00353804)
(0.707607 0 -0.00353804)
(0.707607 0 -0.00353804)
(0.707607 1.04509e-35 -0.00353804)
(0.707607 0 -0.00353804)
(0.707607 0 -0.00353804)
(0.707607 0 -0.00353804)
(0.707607 0 -0.00353804)
(0.707607 0 -0.00353804)
(0.707607 0 -0.00353804)
(0.707607 0 -0.00353804)
(0.707607 0 -0.00353804)
(0.707607 0 -0.00353804)
(0.707607 0 -0.00353804)
(0.707607 0 -0.00353804)
(0.707607 0 -0.00353804)
(0.707607 3.171e-35 -0.00353804)
(0.707607 0 -0.00353804)
(0.707607 0 -0.00353804)
(0.707607 0 -0.00353804)
(0.707607 0 -0.00353804)
(0.707607 0 -0.00353804)
(0.707607 0 -0.00353804)
(0.707607 0 -0.00353804)
(0.707607 0 -0.00353804)
(0.707607 0 -0.00353804)
(0.707607 0 -0.00353804)
(0.707607 0 -0.00353804)
(0.707607 0 -0.00353804)
(0.707607 0 -0.00353804)
(0.707607 0 -0.00353804)
(0.707607 0 -0.00353804)
(0.707607 0 -0.00353804)
(0.707608 0 -0.00353803)
(0.707607 0 -0.00354514)
)
;

boundaryField
{
    inlet
    {
        type            calculated;
        value           uniform (0 0 0);
    }
    outlet
    {
        type            calculated;
        value           uniform (0 0 0);
    }
    sideWall
    {
        type            empty;
    }
}


// ************************************************************************* //
