/*--------------------------------*- C++ -*----------------------------------*\
| =========                 |                                                 |
| \\      /  F ield         | foam-extend: Open Source CFD                    |
|  \\    /   O peration     | Version:     3.2                                |
|   \\  /    A nd           | Web:         http://www.foam-extend.org         |
|    \\/     M anipulation  | For copyright notice see file Copyright         |
\*---------------------------------------------------------------------------*/
FoamFile
{
    version     2.0;
    format      ascii;
    class       areaScalarField;
    location    "79";
    object      Ce1;
}
// * * * * * * * * * * * * * * * * * * * * * * * * * * * * * * * * * * * * * //

dimensions      [1 -3 0 0 0 0 0];

internalField   nonuniform List<scalar> 
300
(
2.09256
1.06399
0.67595
0.679321
0.647686
0.647631
0.632508
0.631796
0.626435
0.628464
0.628951
0.632446
0.635981
0.641604
0.646898
0.653633
0.660506
0.668268
0.675994
0.684533
0.693568
0.702955
0.712654
0.722569
0.732629
0.742921
0.752568
0.761082
0.768283
0.774365
0.779426
0.783667
0.787184
0.790126
0.792568
0.794613
0.796317
0.79775
0.798949
0.799963
0.800816
0.80154
0.802157
0.80269
0.803142
0.803522
0.80384
0.804115
0.804352
0.804558
0.804737
0.804893
0.805029
0.805148
0.805251
0.805341
0.805419
0.805487
0.805546
0.805598
0.805643
0.805681
0.805715
0.805744
0.805769
0.805791
0.80581
0.805827
0.805841
0.805853
0.805864
0.805873
0.805881
0.805887
0.805893
0.805898
0.805903
0.805906
0.80591
0.805913
0.805915
0.805917
0.805919
0.80592
0.805922
0.805923
0.805924
0.805925
0.805925
0.805926
0.805927
0.805927
0.805927
0.805928
0.805928
0.805928
0.805929
0.805929
0.805929
0.805929
0.805929
0.805929
0.805929
0.805929
0.80593
0.80593
0.80593
0.80593
0.80593
0.80593
0.80593
0.80593
0.80593
0.80593
0.80593
0.80593
0.80593
0.80593
0.80593
0.80593
0.80593
0.80593
0.80593
0.80593
0.80593
0.80593
0.80593
0.80593
0.80593
0.80593
0.80593
0.80593
0.80593
0.80593
0.80593
0.80593
0.80593
0.80593
0.80593
0.80593
0.80593
0.80593
0.80593
0.80593
0.80593
0.80593
0.80593
0.80593
0.80593
0.80593
0.80593
0.80593
0.80593
0.80593
0.80593
0.80593
0.80593
0.80593
0.80593
0.80593
0.80593
0.80593
0.80593
0.80593
0.80593
0.80593
0.80593
0.80593
0.80593
0.80593
0.80593
0.80593
0.80593
0.80593
0.80593
0.80593
0.80593
0.80593
0.80593
0.80593
0.80593
0.80593
0.80593
0.80593
0.80593
0.80593
0.80593
0.80593
0.80593
0.80593
0.80593
0.80593
0.80593
0.80593
0.80593
0.80593
0.80593
0.80593
0.80593
0.80593
0.80593
0.80593
0.80593
0.80593
0.80593
0.80593
0.80593
0.80593
0.80593
0.80593
0.80593
0.80593
0.80593
0.80593
0.80593
0.80593
0.80593
0.80593
0.80593
0.80593
0.80593
0.80593
0.80593
0.80593
0.80593
0.80593
0.80593
0.80593
0.80593
0.80593
0.80593
0.80593
0.80593
0.80593
0.80593
0.80593
0.80593
0.80593
0.80593
0.80593
0.80593
0.80593
0.80593
0.80593
0.80593
0.80593
0.80593
0.80593
0.80593
0.80593
0.80593
0.80593
0.80593
0.80593
0.80593
0.80593
0.80593
0.80593
0.80593
0.80593
0.80593
0.80593
0.80593
0.80593
0.80593
0.80593
0.80593
0.80593
0.80593
0.80593
0.80593
0.80593
0.80593
0.80593
0.80593
0.80593
0.80593
0.80593
0.80593
0.80593
0.80593
0.80593
0.80593
0.80593
0.80593
0.80593
0.80593
0.80593
0.80593
0.80593
0.80593
0.80593
0.80593
0.80593
0.80593
0.80593
0.80593
0.80593
0.805932
0.805928
)
;

boundaryField
{
    inlet
    {
        type            calculated;
        value           uniform 0;
    }
    outlet
    {
        type            calculated;
        value           uniform 0;
    }
    sideWall
    {
        type            empty;
    }
}


// ************************************************************************* //
