/*--------------------------------*- C++ -*----------------------------------*\
| =========                 |                                                 |
| \\      /  F ield         | foam-extend: Open Source CFD                    |
|  \\    /   O peration     | Version:     3.2                                |
|   \\  /    A nd           | Web:         http://www.foam-extend.org         |
|    \\/     M anipulation  | For copyright notice see file Copyright         |
\*---------------------------------------------------------------------------*/
FoamFile
{
    version     2.0;
    format      ascii;
    class       areaScalarField;
    location    "79";
    object      Ce2;
}
// * * * * * * * * * * * * * * * * * * * * * * * * * * * * * * * * * * * * * //

dimensions      [1 -3 0 0 0 0 0];

internalField   nonuniform List<scalar> 
300
(
0.932909
0.473148
0.29985
0.301355
0.287234
0.287209
0.280459
0.280141
0.277748
0.278654
0.278871
0.280431
0.282009
0.284519
0.286882
0.289888
0.292955
0.296421
0.299869
0.303681
0.307715
0.311905
0.316235
0.320662
0.325153
0.329748
0.334056
0.337857
0.341072
0.343788
0.346048
0.347942
0.349512
0.350826
0.351916
0.35283
0.35359
0.35423
0.354766
0.355218
0.355599
0.355923
0.356198
0.356436
0.356638
0.356808
0.35695
0.357072
0.357178
0.35727
0.35735
0.35742
0.357481
0.357534
0.35758
0.35762
0.357655
0.357685
0.357712
0.357735
0.357755
0.357772
0.357787
0.3578
0.357811
0.357821
0.357829
0.357837
0.357843
0.357849
0.357853
0.357857
0.357861
0.357864
0.357867
0.357869
0.357871
0.357872
0.357874
0.357875
0.357876
0.357877
0.357878
0.357879
0.357879
0.35788
0.35788
0.357881
0.357881
0.357881
0.357881
0.357882
0.357882
0.357882
0.357882
0.357882
0.357882
0.357882
0.357882
0.357883
0.357883
0.357883
0.357883
0.357883
0.357883
0.357883
0.357883
0.357883
0.357883
0.357883
0.357883
0.357883
0.357883
0.357883
0.357883
0.357883
0.357883
0.357883
0.357883
0.357883
0.357883
0.357883
0.357883
0.357883
0.357883
0.357883
0.357883
0.357883
0.357883
0.357883
0.357883
0.357883
0.357883
0.357883
0.357883
0.357883
0.357883
0.357883
0.357883
0.357883
0.357883
0.357883
0.357883
0.357883
0.357883
0.357883
0.357883
0.357883
0.357883
0.357883
0.357883
0.357883
0.357883
0.357883
0.357883
0.357883
0.357883
0.357883
0.357883
0.357883
0.357883
0.357883
0.357883
0.357883
0.357883
0.357883
0.357883
0.357883
0.357883
0.357883
0.357883
0.357883
0.357883
0.357883
0.357883
0.357883
0.357883
0.357883
0.357883
0.357883
0.357883
0.357883
0.357883
0.357883
0.357883
0.357883
0.357883
0.357883
0.357883
0.357883
0.357883
0.357883
0.357883
0.357883
0.357883
0.357883
0.357883
0.357883
0.357883
0.357883
0.357883
0.357883
0.357883
0.357883
0.357883
0.357883
0.357883
0.357883
0.357883
0.357883
0.357883
0.357883
0.357883
0.357883
0.357883
0.357883
0.357883
0.357883
0.357883
0.357883
0.357883
0.357883
0.357883
0.357883
0.357883
0.357883
0.357883
0.357883
0.357883
0.357883
0.357883
0.357883
0.357883
0.357883
0.357883
0.357883
0.357883
0.357883
0.357883
0.357883
0.357883
0.357883
0.357883
0.357883
0.357883
0.357883
0.357883
0.357883
0.357883
0.357883
0.357883
0.357883
0.357883
0.357883
0.357883
0.357883
0.357883
0.357883
0.357883
0.357883
0.357883
0.357883
0.357883
0.357883
0.357883
0.357883
0.357883
0.357883
0.357883
0.357883
0.357883
0.357883
0.357883
0.357883
0.357883
0.357883
0.357883
0.357883
0.357883
0.357883
0.357883
0.357883
0.357883
0.357883
0.357883
0.357883
0.357883
0.357883
0.357883
0.357883
0.357883
0.357883
0.357883
0.357883
0.357883
0.357883
0.357883
0.357883
0.357884
0.357882
)
;

boundaryField
{
    inlet
    {
        type            calculated;
        value           uniform 0;
    }
    outlet
    {
        type            calculated;
        value           uniform 0;
    }
    sideWall
    {
        type            empty;
    }
}


// ************************************************************************* //
