/*--------------------------------*- C++ -*----------------------------------*\
| =========                 |                                                 |
| \\      /  F ield         | foam-extend: Open Source CFD                    |
|  \\    /   O peration     | Version:     3.2                                |
|   \\  /    A nd           | Web:         http://www.foam-extend.org         |
|    \\/     M anipulation  | For copyright notice see file Copyright         |
\*---------------------------------------------------------------------------*/
FoamFile
{
    version     2.0;
    format      ascii;
    class       areaScalarField;
    location    "79";
    object      deltaHs;
}
// * * * * * * * * * * * * * * * * * * * * * * * * * * * * * * * * * * * * * //

dimensions      [0 1 -1 0 0 0 0];

internalField   nonuniform List<scalar> 
300
(
-4.34536e-05
-1.88808e-05
-9.61061e-06
-9.69116e-06
-8.9354e-06
-8.93407e-06
-8.57279e-06
-8.55577e-06
-8.42771e-06
-8.47618e-06
-8.48782e-06
-8.57131e-06
-8.65575e-06
-8.79009e-06
-8.91657e-06
-9.07746e-06
-9.24165e-06
-9.42711e-06
-9.61166e-06
-9.81567e-06
-1.00315e-05
-1.02558e-05
-1.04875e-05
-1.07243e-05
-1.09647e-05
-1.12106e-05
-1.1441e-05
-1.16444e-05
-1.18165e-05
-1.19617e-05
-1.20827e-05
-1.2184e-05
-1.2268e-05
-1.23383e-05
-1.23966e-05
-1.24455e-05
-1.24862e-05
-1.25204e-05
-1.25491e-05
-1.25733e-05
-1.25937e-05
-1.2611e-05
-1.26257e-05
-1.26384e-05
-1.26492e-05
-1.26583e-05
-1.26659e-05
-1.26725e-05
-1.26781e-05
-1.26831e-05
-1.26873e-05
-1.26911e-05
-1.26943e-05
-1.26972e-05
-1.26996e-05
-1.27018e-05
-1.27036e-05
-1.27053e-05
-1.27067e-05
-1.27079e-05
-1.2709e-05
-1.27099e-05
-1.27107e-05
-1.27114e-05
-1.2712e-05
-1.27125e-05
-1.2713e-05
-1.27134e-05
-1.27137e-05
-1.2714e-05
-1.27143e-05
-1.27145e-05
-1.27147e-05
-1.27148e-05
-1.2715e-05
-1.27151e-05
-1.27152e-05
-1.27153e-05
-1.27154e-05
-1.27154e-05
-1.27155e-05
-1.27155e-05
-1.27156e-05
-1.27156e-05
-1.27157e-05
-1.27157e-05
-1.27157e-05
-1.27157e-05
-1.27157e-05
-1.27158e-05
-1.27158e-05
-1.27158e-05
-1.27158e-05
-1.27158e-05
-1.27158e-05
-1.27158e-05
-1.27158e-05
-1.27158e-05
-1.27158e-05
-1.27158e-05
-1.27158e-05
-1.27158e-05
-1.27158e-05
-1.27158e-05
-1.27158e-05
-1.27158e-05
-1.27158e-05
-1.27158e-05
-1.27158e-05
-1.27158e-05
-1.27158e-05
-1.27158e-05
-1.27158e-05
-1.27158e-05
-1.27158e-05
-1.27158e-05
-1.27158e-05
-1.27158e-05
-1.27158e-05
-1.27158e-05
-1.27158e-05
-1.27158e-05
-1.27158e-05
-1.27158e-05
-1.27158e-05
-1.27158e-05
-1.27158e-05
-1.27158e-05
-1.27158e-05
-1.27158e-05
-1.27158e-05
-1.27158e-05
-1.27158e-05
-1.27158e-05
-1.27158e-05
-1.27158e-05
-1.27158e-05
-1.27158e-05
-1.27158e-05
-1.27158e-05
-1.27158e-05
-1.27158e-05
-1.27158e-05
-1.27158e-05
-1.27158e-05
-1.27158e-05
-1.27158e-05
-1.27158e-05
-1.27158e-05
-1.27158e-05
-1.27158e-05
-1.27158e-05
-1.27158e-05
-1.27158e-05
-1.27158e-05
-1.27158e-05
-1.27158e-05
-1.27158e-05
-1.27158e-05
-1.27158e-05
-1.27158e-05
-1.27158e-05
-1.27158e-05
-1.27158e-05
-1.27158e-05
-1.27158e-05
-1.27158e-05
-1.27158e-05
-1.27158e-05
-1.27158e-05
-1.27158e-05
-1.27158e-05
-1.27158e-05
-1.27158e-05
-1.27158e-05
-1.27158e-05
-1.27158e-05
-1.27158e-05
-1.27158e-05
-1.27158e-05
-1.27158e-05
-1.27158e-05
-1.27158e-05
-1.27158e-05
-1.27158e-05
-1.27158e-05
-1.27158e-05
-1.27158e-05
-1.27158e-05
-1.27158e-05
-1.27158e-05
-1.27158e-05
-1.27158e-05
-1.27158e-05
-1.27158e-05
-1.27158e-05
-1.27158e-05
-1.27158e-05
-1.27158e-05
-1.27158e-05
-1.27158e-05
-1.27158e-05
-1.27158e-05
-1.27158e-05
-1.27158e-05
-1.27158e-05
-1.27158e-05
-1.27158e-05
-1.27158e-05
-1.27158e-05
-1.27158e-05
-1.27158e-05
-1.27158e-05
-1.27158e-05
-1.27158e-05
-1.27158e-05
-1.27158e-05
-1.27158e-05
-1.27158e-05
-1.27158e-05
-1.27158e-05
-1.27158e-05
-1.27158e-05
-1.27158e-05
-1.27158e-05
-1.27158e-05
-1.27158e-05
-1.27158e-05
-1.27158e-05
-1.27158e-05
-1.27158e-05
-1.27158e-05
-1.27158e-05
-1.27158e-05
-1.27158e-05
-1.27158e-05
-1.27158e-05
-1.27158e-05
-1.27158e-05
-1.27158e-05
-1.27158e-05
-1.27158e-05
-1.27158e-05
-1.27158e-05
-1.27158e-05
-1.27158e-05
-1.27158e-05
-1.27158e-05
-1.27158e-05
-1.27158e-05
-1.27158e-05
-1.27158e-05
-1.27158e-05
-1.27158e-05
-1.27158e-05
-1.27158e-05
-1.27158e-05
-1.27158e-05
-1.27158e-05
-1.27158e-05
-1.27158e-05
-1.27158e-05
-1.27158e-05
-1.27158e-05
-1.27158e-05
-1.27158e-05
-1.27158e-05
-1.27158e-05
-1.27158e-05
-1.27158e-05
-1.27158e-05
-1.27158e-05
-1.27158e-05
-1.27158e-05
-1.27158e-05
-1.27158e-05
-1.27158e-05
-1.27158e-05
-1.27158e-05
-1.27158e-05
-1.27158e-05
-1.27158e-05
-1.27158e-05
-1.27158e-05
-1.27158e-05
-1.27158e-05
-1.27158e-05
-1.27158e-05
-1.27158e-05
-1.27158e-05
-1.27158e-05
-1.27158e-05
-1.27158e-05
-1.27158e-05
-1.27158e-05
-1.27158e-05
-1.27158e-05
-1.27158e-05
-1.27159e-05
-1.27158e-05
)
;

boundaryField
{
    inlet
    {
        type            calculated;
        value           uniform 0;
    }
    outlet
    {
        type            calculated;
        value           uniform 0;
    }
    sideWall
    {
        type            empty;
    }
}


// ************************************************************************* //
