/*--------------------------------*- C++ -*----------------------------------*\
| =========                 |                                                 |
| \\      /  F ield         | foam-extend: Open Source CFD                    |
|  \\    /   O peration     | Version:     3.2                                |
|   \\  /    A nd           | Web:         http://www.foam-extend.org         |
|    \\/     M anipulation  | For copyright notice see file Copyright         |
\*---------------------------------------------------------------------------*/
FoamFile
{
    version     2.0;
    format      ascii;
    class       areaScalarField;
    location    "79";
    object      deltaHb;
}
// * * * * * * * * * * * * * * * * * * * * * * * * * * * * * * * * * * * * * //

dimensions      [0 1 -1 0 0 0 0];

internalField   nonuniform List<scalar> 
300
(
0
0
0
0
0
0
0
0
0
0
0
0
0
0
0
0
0
0
0
0
0
0
0
0
0
0
0
0
0
0
0
0
0
0
0
0
0
0
0
0
0
0
0
0
0
0
0
0
0
0
0
0
0
0
0
0
0
0
0
0
0
0
0
0
0
0
0
0
0
0
-2.0872e-10
-1.80269e-10
-1.55631e-10
-1.34325e-10
-1.15902e-10
-9.99894e-11
-8.62237e-11
-7.43297e-11
-6.40588e-11
-5.5211e-11
-4.75866e-11
-4.10067e-11
-3.53275e-11
-3.04317e-11
-2.62106e-11
-2.25714e-11
-1.9443e-11
-1.67202e-11
-1.44032e-11
-1.2491e-11
-1.07816e-11
-9.19169e-12
-7.80075e-12
-6.72995e-12
-5.87963e-12
-5.07026e-12
-4.35726e-12
-3.77537e-12
-3.32012e-12
-2.85396e-12
-2.32321e-12
-1.87177e-12
-1.59238e-12
-1.41697e-12
-1.25227e-12
-1.1012e-12
-9.6364e-13
-8.40396e-13
-7.30497e-13
-6.33585e-13
-5.48292e-13
-4.74116e-13
-4.09938e-13
-3.54146e-13
-3.05981e-13
-2.64307e-13
-2.27979e-13
-1.96329e-13
-1.68638e-13
-1.44515e-13
-1.23527e-13
-1.05618e-13
-9.05556e-14
-7.77075e-14
-6.66855e-14
-5.72775e-14
-4.91222e-14
-4.16821e-14
-3.48037e-14
-2.84048e-14
-2.22455e-14
-1.65492e-14
-1.13777e-14
-6.45739e-15
-2.1323e-15
1.41548e-15
4.18242e-15
6.11372e-15
7.33054e-15
7.88913e-15
7.95978e-15
7.50076e-15
6.55227e-15
5.46406e-15
4.29081e-15
2.92978e-15
1.46512e-15
4.06922e-17
-1.33579e-15
-2.6278e-15
-3.64163e-15
-4.43122e-15
-4.96525e-15
-4.89366e-15
-4.26324e-15
-3.19429e-15
-1.65598e-15
2.49557e-16
2.42428e-15
4.57154e-15
6.48806e-15
8.31279e-15
9.87678e-15
1.09475e-14
1.15036e-14
1.15526e-14
1.11727e-14
1.04645e-14
9.60154e-15
8.5323e-15
7.28318e-15
6.23957e-15
5.40166e-15
4.65594e-15
4.06331e-15
3.60323e-15
3.29724e-15
3.14397e-15
3.16752e-15
3.14941e-15
2.97145e-15
2.9461e-15
3.0014e-15
2.95401e-15
2.84916e-15
2.69487e-15
2.53005e-15
2.363e-15
2.26061e-15
2.05433e-15
1.66074e-15
1.42673e-15
1.29951e-15
1.10942e-15
9.12391e-16
7.04219e-16
5.24264e-16
3.88871e-16
3.5909e-16
2.63668e-16
1.3077e-17
-4.706e-17
2.82756e-17
6.00796e-17
9.30002e-17
1.03653e-16
1.14496e-16
1.39183e-16
2.29838e-16
2.05136e-16
-1.64779e-17
-9.84907e-17
-1.07104e-16
-2.42915e-16
-5.10348e-16
-9.65628e-16
-1.64082e-15
-2.58694e-15
-3.76538e-15
-5.35475e-15
-7.40821e-15
-9.51445e-15
-1.16023e-14
-1.37063e-14
-1.56206e-14
-1.7171e-14
-1.8156e-14
-1.84207e-14
-1.77925e-14
-1.63751e-14
-1.4303e-14
-1.13675e-14
-7.7856e-15
-3.93227e-15
-5.66532e-17
3.50833e-15
6.54637e-15
8.95357e-15
1.07751e-14
1.18741e-14
1.22453e-14
1.23413e-14
1.22139e-14
1.1772e-14
1.11241e-14
1.03108e-14
9.38888e-15
8.39422e-15
7.43835e-15
6.39804e-15
5.25888e-15
4.43698e-15
3.92025e-15
3.54061e-15
3.31782e-15
3.2058e-15
3.17398e-15
3.16713e-15
3.2012e-15
3.07505e-15
2.69788e-15
2.42953e-15
2.24544e-15
1.98938e-15
1.71681e-15
1.4469e-15
1.21641e-15
1.02799e-15
9.40227e-16
7.75183e-16
4.52087e-16
3.20318e-16
3.16439e-16
2.88016e-16
2.43719e-16
2.16697e-16
1.67717e-16
2.05812e-16
2.01837e-16
2.7826e-16
-1.06549e-16
1.27988e-16
-2.71328e-16
5.00292e-16
-7.03488e-16
1.26328e-15
0
0
0
0
0
0
0
0
0
0
0
0
0
0
)
;

boundaryField
{
    inlet
    {
        type            zeroGradient;
    }
    outlet
    {
        type            zeroGradient;
    }
    sideWall
    {
        type            empty;
    }
}


// ************************************************************************* //
