/*--------------------------------*- C++ -*----------------------------------*\
| =========                 |                                                 |
| \\      /  F ield         | foam-extend: Open Source CFD                    |
|  \\    /   O peration     | Version:     3.2                                |
|   \\  /    A nd           | Web:         http://www.foam-extend.org         |
|    \\/     M anipulation  | For copyright notice see file Copyright         |
\*---------------------------------------------------------------------------*/
FoamFile
{
    version     2.0;
    format      ascii;
    class       volScalarField;
    location    "79";
    object      DiSS;
}
// * * * * * * * * * * * * * * * * * * * * * * * * * * * * * * * * * * * * * //

dimensions      [0 2 -1 0 0 0 0];

internalField   nonuniform List<scalar> 
5400
(
3.38997e-05
2.71953e-05
2.34671e-05
2.35051e-05
2.31439e-05
2.31433e-05
2.29664e-05
2.2958e-05
2.28946e-05
2.29187e-05
2.29244e-05
2.29657e-05
2.30073e-05
2.30732e-05
2.31348e-05
2.32127e-05
2.32917e-05
2.33802e-05
2.34676e-05
2.35635e-05
2.3664e-05
2.37676e-05
2.38736e-05
2.39809e-05
2.40889e-05
2.41983e-05
2.42999e-05
2.43889e-05
2.44636e-05
2.45264e-05
2.45783e-05
2.46217e-05
2.46576e-05
2.46875e-05
2.47122e-05
2.47329e-05
2.47501e-05
2.47646e-05
2.47767e-05
2.47869e-05
2.47955e-05
2.48028e-05
2.4809e-05
2.48143e-05
2.48189e-05
2.48227e-05
2.48259e-05
2.48286e-05
2.4831e-05
2.48331e-05
2.48349e-05
2.48364e-05
2.48378e-05
2.4839e-05
2.484e-05
2.48409e-05
2.48417e-05
2.48424e-05
2.4843e-05
2.48435e-05
2.4844e-05
2.48443e-05
2.48447e-05
2.4845e-05
2.48452e-05
2.48454e-05
2.48456e-05
2.48458e-05
2.48459e-05
2.48461e-05
2.48462e-05
2.48463e-05
2.48463e-05
2.48464e-05
2.48465e-05
2.48465e-05
2.48466e-05
2.48466e-05
2.48466e-05
2.48467e-05
2.48467e-05
2.48467e-05
2.48467e-05
2.48467e-05
2.48468e-05
2.48468e-05
2.48468e-05
2.48468e-05
2.48468e-05
2.48468e-05
2.48468e-05
2.48468e-05
2.48468e-05
2.48468e-05
2.48468e-05
2.48468e-05
2.48468e-05
2.48468e-05
2.48468e-05
2.48468e-05
2.48468e-05
2.48468e-05
2.48468e-05
2.48468e-05
2.48468e-05
2.48468e-05
2.48468e-05
2.48468e-05
2.48468e-05
2.48468e-05
2.48468e-05
2.48468e-05
2.48468e-05
2.48468e-05
2.48468e-05
2.48468e-05
2.48468e-05
2.48468e-05
2.48468e-05
2.48468e-05
2.48468e-05
2.48468e-05
2.48468e-05
2.48468e-05
2.48468e-05
2.48468e-05
2.48468e-05
2.48468e-05
2.48468e-05
2.48468e-05
2.48468e-05
2.48468e-05
2.48468e-05
2.48468e-05
2.48468e-05
2.48468e-05
2.48468e-05
2.48468e-05
2.48468e-05
2.48468e-05
2.48468e-05
2.48468e-05
2.48468e-05
2.48468e-05
2.48468e-05
2.48468e-05
2.48468e-05
2.48468e-05
2.48468e-05
2.48468e-05
2.48468e-05
2.48468e-05
2.48468e-05
2.48468e-05
2.48468e-05
2.48468e-05
2.48468e-05
2.48468e-05
2.48468e-05
2.48468e-05
2.48468e-05
2.48468e-05
2.48468e-05
2.48468e-05
2.48468e-05
2.48468e-05
2.48468e-05
2.48468e-05
2.48468e-05
2.48468e-05
2.48468e-05
2.48468e-05
2.48468e-05
2.48468e-05
2.48468e-05
2.48468e-05
2.48468e-05
2.48468e-05
2.48468e-05
2.48468e-05
2.48468e-05
2.48468e-05
2.48468e-05
2.48468e-05
2.48468e-05
2.48468e-05
2.48468e-05
2.48468e-05
2.48468e-05
2.48468e-05
2.48468e-05
2.48468e-05
2.48468e-05
2.48468e-05
2.48468e-05
2.48468e-05
2.48468e-05
2.48468e-05
2.48468e-05
2.48468e-05
2.48468e-05
2.48468e-05
2.48468e-05
2.48468e-05
2.48468e-05
2.48468e-05
2.48468e-05
2.48468e-05
2.48468e-05
2.48468e-05
2.48468e-05
2.48468e-05
2.48468e-05
2.48468e-05
2.48468e-05
2.48468e-05
2.48468e-05
2.48468e-05
2.48468e-05
2.48468e-05
2.48468e-05
2.48468e-05
2.48468e-05
2.48468e-05
2.48468e-05
2.48468e-05
2.48468e-05
2.48468e-05
2.48468e-05
2.48468e-05
2.48468e-05
2.48468e-05
2.48468e-05
2.48468e-05
2.48468e-05
2.48468e-05
2.48468e-05
2.48468e-05
2.48468e-05
2.48468e-05
2.48468e-05
2.48468e-05
2.48468e-05
2.48468e-05
2.48468e-05
2.48468e-05
2.48468e-05
2.48468e-05
2.48468e-05
2.48468e-05
2.48468e-05
2.48468e-05
2.48468e-05
2.48468e-05
2.48468e-05
2.48468e-05
2.48468e-05
2.48468e-05
2.48468e-05
2.48468e-05
2.48468e-05
2.48468e-05
2.48468e-05
2.48468e-05
2.48468e-05
2.48468e-05
2.48468e-05
2.48468e-05
2.48468e-05
2.48468e-05
2.48468e-05
2.48468e-05
2.48468e-05
2.48468e-05
2.48468e-05
2.48468e-05
2.48468e-05
2.48468e-05
2.48468e-05
2.48468e-05
2.48468e-05
2.48468e-05
2.48468e-05
2.48468e-05
2.48468e-05
2.48468e-05
2.48468e-05
2.48468e-05
2.48468e-05
2.48468e-05
2.48468e-05
2.48468e-05
2.48468e-05
2.48468e-05
2.48468e-05
2.48468e-05
2.48468e-05
2.48468e-05
2.48469e-05
2.48468e-05
3.23089e-05
4.26987e-05
4.63696e-05
4.91185e-05
5.08853e-05
5.17396e-05
5.23841e-05
5.27724e-05
5.31772e-05
5.34909e-05
5.3808e-05
5.41135e-05
5.44153e-05
5.47286e-05
5.50296e-05
5.53314e-05
5.56363e-05
5.59395e-05
5.62464e-05
5.65515e-05
5.6853e-05
5.71512e-05
5.7444e-05
5.77286e-05
5.80034e-05
5.82554e-05
5.84707e-05
5.86422e-05
5.87756e-05
5.88784e-05
5.89582e-05
5.90201e-05
5.90687e-05
5.91071e-05
5.91379e-05
5.91628e-05
5.91832e-05
5.92e-05
5.92141e-05
5.92259e-05
5.92359e-05
5.92444e-05
5.92517e-05
5.9258e-05
5.92634e-05
5.92681e-05
5.92721e-05
5.92755e-05
5.92786e-05
5.92813e-05
5.92837e-05
5.92858e-05
5.92877e-05
5.92894e-05
5.92909e-05
5.92922e-05
5.92933e-05
5.92943e-05
5.92952e-05
5.92959e-05
5.92966e-05
5.92972e-05
5.92977e-05
5.92981e-05
5.92985e-05
5.92988e-05
5.92991e-05
5.92994e-05
5.92996e-05
5.92998e-05
5.92999e-05
5.93001e-05
5.93002e-05
5.93003e-05
5.93004e-05
5.93004e-05
5.93005e-05
5.93006e-05
5.93006e-05
5.93006e-05
5.93007e-05
5.93007e-05
5.93007e-05
5.93008e-05
5.93008e-05
5.93008e-05
5.93008e-05
5.93008e-05
5.93008e-05
5.93008e-05
5.93009e-05
5.93009e-05
5.93009e-05
5.93009e-05
5.93009e-05
5.93009e-05
5.93009e-05
5.93009e-05
5.93009e-05
5.93009e-05
5.93009e-05
5.93009e-05
5.93009e-05
5.93009e-05
5.93009e-05
5.93009e-05
5.93009e-05
5.93009e-05
5.93009e-05
5.93009e-05
5.93009e-05
5.93009e-05
5.93009e-05
5.93009e-05
5.93009e-05
5.93009e-05
5.93009e-05
5.93009e-05
5.93009e-05
5.93009e-05
5.93009e-05
5.93009e-05
5.93009e-05
5.93009e-05
5.93009e-05
5.93009e-05
5.93009e-05
5.93009e-05
5.93009e-05
5.93009e-05
5.93009e-05
5.93009e-05
5.93009e-05
5.93009e-05
5.93009e-05
5.93009e-05
5.93009e-05
5.93009e-05
5.93009e-05
5.93009e-05
5.93009e-05
5.93009e-05
5.93009e-05
5.93009e-05
5.93009e-05
5.93009e-05
5.93009e-05
5.93009e-05
5.93009e-05
5.93009e-05
5.93009e-05
5.93009e-05
5.93009e-05
5.93009e-05
5.93009e-05
5.93009e-05
5.93009e-05
5.93009e-05
5.93009e-05
5.93009e-05
5.93009e-05
5.93009e-05
5.93009e-05
5.93009e-05
5.93009e-05
5.93009e-05
5.93009e-05
5.93009e-05
5.93009e-05
5.93009e-05
5.93009e-05
5.93009e-05
5.93009e-05
5.93009e-05
5.93009e-05
5.93009e-05
5.93009e-05
5.93009e-05
5.93009e-05
5.93009e-05
5.93009e-05
5.93009e-05
5.93009e-05
5.93009e-05
5.93009e-05
5.93009e-05
5.93009e-05
5.93009e-05
5.93009e-05
5.93009e-05
5.93009e-05
5.93009e-05
5.93009e-05
5.93009e-05
5.93009e-05
5.93009e-05
5.93009e-05
5.93009e-05
5.93009e-05
5.93009e-05
5.93009e-05
5.93009e-05
5.93009e-05
5.93009e-05
5.93009e-05
5.93009e-05
5.93009e-05
5.93009e-05
5.93009e-05
5.93009e-05
5.93009e-05
5.93009e-05
5.93009e-05
5.93009e-05
5.93009e-05
5.93009e-05
5.93009e-05
5.93009e-05
5.93009e-05
5.93009e-05
5.93009e-05
5.93009e-05
5.93009e-05
5.93009e-05
5.93009e-05
5.93009e-05
5.93009e-05
5.93009e-05
5.93009e-05
5.93009e-05
5.93009e-05
5.93009e-05
5.93009e-05
5.93009e-05
5.93009e-05
5.93009e-05
5.93009e-05
5.93009e-05
5.93009e-05
5.93009e-05
5.93009e-05
5.93009e-05
5.93009e-05
5.93009e-05
5.93009e-05
5.93009e-05
5.93009e-05
5.93009e-05
5.93009e-05
5.93009e-05
5.93009e-05
5.93009e-05
5.93009e-05
5.93009e-05
5.93009e-05
5.93009e-05
5.93009e-05
5.93009e-05
5.93009e-05
5.93009e-05
5.93009e-05
5.93009e-05
5.93009e-05
5.93009e-05
5.93009e-05
5.93009e-05
5.93009e-05
5.93009e-05
5.93009e-05
5.93009e-05
5.93009e-05
5.93009e-05
5.93009e-05
5.93009e-05
5.93009e-05
5.93009e-05
5.93009e-05
5.93009e-05
5.93009e-05
5.93009e-05
5.93009e-05
5.93009e-05
5.93009e-05
5.93009e-05
5.93009e-05
5.93009e-05
5.93009e-05
5.93009e-05
5.93009e-05
5.93009e-05
5.93009e-05
5.93009e-05
5.93009e-05
5.93009e-05
5.93009e-05
5.93009e-05
5.93009e-05
5.93009e-05
5.93009e-05
5.93008e-05
2.9509e-05
4.63221e-05
5.43723e-05
6.33143e-05
7.01946e-05
7.36419e-05
7.59228e-05
7.77532e-05
7.91501e-05
8.03956e-05
8.1404e-05
8.23495e-05
8.32075e-05
8.3998e-05
8.47558e-05
8.54625e-05
8.61456e-05
8.68076e-05
8.74463e-05
8.80637e-05
8.86573e-05
8.92276e-05
8.97712e-05
9.02843e-05
9.07661e-05
9.11857e-05
9.15006e-05
9.17245e-05
9.18811e-05
9.19907e-05
9.20667e-05
9.21193e-05
9.21553e-05
9.21801e-05
9.21971e-05
9.22092e-05
9.2218e-05
9.22248e-05
9.22303e-05
9.2235e-05
9.22391e-05
9.22429e-05
9.22464e-05
9.22498e-05
9.22528e-05
9.22555e-05
9.2258e-05
9.22603e-05
9.22626e-05
9.22648e-05
9.22668e-05
9.22687e-05
9.22705e-05
9.22721e-05
9.22735e-05
9.22747e-05
9.22759e-05
9.22769e-05
9.22777e-05
9.22785e-05
9.22792e-05
9.22798e-05
9.22803e-05
9.22807e-05
9.22811e-05
9.22815e-05
9.22817e-05
9.2282e-05
9.22822e-05
9.22824e-05
9.22826e-05
9.22827e-05
9.22828e-05
9.22829e-05
9.2283e-05
9.22831e-05
9.22832e-05
9.22832e-05
9.22833e-05
9.22833e-05
9.22833e-05
9.22834e-05
9.22834e-05
9.22834e-05
9.22834e-05
9.22835e-05
9.22835e-05
9.22835e-05
9.22835e-05
9.22835e-05
9.22835e-05
9.22835e-05
9.22835e-05
9.22835e-05
9.22835e-05
9.22835e-05
9.22835e-05
9.22835e-05
9.22835e-05
9.22835e-05
9.22835e-05
9.22835e-05
9.22835e-05
9.22835e-05
9.22835e-05
9.22835e-05
9.22835e-05
9.22835e-05
9.22835e-05
9.22836e-05
9.22836e-05
9.22836e-05
9.22836e-05
9.22836e-05
9.22836e-05
9.22836e-05
9.22836e-05
9.22836e-05
9.22836e-05
9.22836e-05
9.22836e-05
9.22836e-05
9.22836e-05
9.22836e-05
9.22836e-05
9.22836e-05
9.22836e-05
9.22836e-05
9.22836e-05
9.22836e-05
9.22836e-05
9.22836e-05
9.22836e-05
9.22836e-05
9.22836e-05
9.22836e-05
9.22836e-05
9.22836e-05
9.22836e-05
9.22836e-05
9.22836e-05
9.22836e-05
9.22836e-05
9.22836e-05
9.22836e-05
9.22836e-05
9.22836e-05
9.22836e-05
9.22836e-05
9.22836e-05
9.22836e-05
9.22836e-05
9.22836e-05
9.22836e-05
9.22836e-05
9.22836e-05
9.22836e-05
9.22836e-05
9.22836e-05
9.22836e-05
9.22836e-05
9.22836e-05
9.22836e-05
9.22836e-05
9.22836e-05
9.22836e-05
9.22836e-05
9.22836e-05
9.22836e-05
9.22836e-05
9.22836e-05
9.22836e-05
9.22836e-05
9.22836e-05
9.22836e-05
9.22836e-05
9.22836e-05
9.22836e-05
9.22836e-05
9.22836e-05
9.22836e-05
9.22836e-05
9.22836e-05
9.22836e-05
9.22836e-05
9.22836e-05
9.22836e-05
9.22836e-05
9.22836e-05
9.22836e-05
9.22836e-05
9.22836e-05
9.22836e-05
9.22836e-05
9.22836e-05
9.22836e-05
9.22836e-05
9.22836e-05
9.22836e-05
9.22836e-05
9.22836e-05
9.22836e-05
9.22836e-05
9.22836e-05
9.22836e-05
9.22836e-05
9.22836e-05
9.22836e-05
9.22836e-05
9.22836e-05
9.22836e-05
9.22836e-05
9.22836e-05
9.22836e-05
9.22836e-05
9.22836e-05
9.22836e-05
9.22836e-05
9.22836e-05
9.22836e-05
9.22836e-05
9.22836e-05
9.22836e-05
9.22836e-05
9.22836e-05
9.22836e-05
9.22836e-05
9.22836e-05
9.22836e-05
9.22836e-05
9.22836e-05
9.22836e-05
9.22836e-05
9.22836e-05
9.22836e-05
9.22836e-05
9.22836e-05
9.22836e-05
9.22836e-05
9.22836e-05
9.22836e-05
9.22836e-05
9.22836e-05
9.22836e-05
9.22836e-05
9.22836e-05
9.22836e-05
9.22836e-05
9.22836e-05
9.22836e-05
9.22836e-05
9.22836e-05
9.22836e-05
9.22836e-05
9.22836e-05
9.22836e-05
9.22836e-05
9.22836e-05
9.22836e-05
9.22836e-05
9.22836e-05
9.22836e-05
9.22836e-05
9.22836e-05
9.22836e-05
9.22836e-05
9.22836e-05
9.22836e-05
9.22836e-05
9.22836e-05
9.22836e-05
9.22836e-05
9.22836e-05
9.22836e-05
9.22836e-05
9.22836e-05
9.22836e-05
9.22836e-05
9.22836e-05
9.22836e-05
9.22836e-05
9.22836e-05
9.22836e-05
9.22836e-05
9.22836e-05
9.22836e-05
9.22836e-05
9.22836e-05
9.22836e-05
9.22836e-05
9.22836e-05
9.22836e-05
9.22836e-05
9.22836e-05
9.22836e-05
9.22836e-05
9.22836e-05
9.22836e-05
9.22835e-05
9.22835e-05
2.79991e-05
4.02626e-05
5.0852e-05
6.40565e-05
7.53327e-05
8.35709e-05
9.01204e-05
9.42283e-05
9.7504e-05
0.000100312
0.000102624
0.000104675
0.000106484
0.000108129
0.000109639
0.000111015
0.000112311
0.00011353
0.000114681
0.000115769
0.000116793
0.000117755
0.00011865
0.000119476
0.000120229
0.000120854
0.000121298
0.000121596
0.000121787
0.000121906
0.000121975
0.00012201
0.000122024
0.000122025
0.000122018
0.000122007
0.000121996
0.000121985
0.000121975
0.000121967
0.000121961
0.000121956
0.000121952
0.00012195
0.000121948
0.000121947
0.000121946
0.000121946
0.000121947
0.000121948
0.000121949
0.00012195
0.000121951
0.000121953
0.000121954
0.000121955
0.000121956
0.000121957
0.000121958
0.000121958
0.000121959
0.000121959
0.00012196
0.00012196
0.000121961
0.000121961
0.000121961
0.000121962
0.000121962
0.000121962
0.000121962
0.000121962
0.000121962
0.000121962
0.000121963
0.000121963
0.000121963
0.000121963
0.000121963
0.000121963
0.000121963
0.000121963
0.000121963
0.000121963
0.000121963
0.000121963
0.000121963
0.000121963
0.000121963
0.000121963
0.000121963
0.000121963
0.000121963
0.000121963
0.000121963
0.000121963
0.000121963
0.000121963
0.000121963
0.000121963
0.000121963
0.000121963
0.000121963
0.000121963
0.000121963
0.000121963
0.000121963
0.000121963
0.000121963
0.000121963
0.000121963
0.000121963
0.000121963
0.000121963
0.000121963
0.000121963
0.000121963
0.000121963
0.000121963
0.000121963
0.000121963
0.000121963
0.000121963
0.000121963
0.000121963
0.000121963
0.000121963
0.000121963
0.000121963
0.000121963
0.000121963
0.000121963
0.000121963
0.000121963
0.000121963
0.000121963
0.000121963
0.000121963
0.000121963
0.000121963
0.000121963
0.000121963
0.000121963
0.000121963
0.000121963
0.000121963
0.000121963
0.000121963
0.000121963
0.000121963
0.000121963
0.000121963
0.000121963
0.000121963
0.000121963
0.000121963
0.000121963
0.000121963
0.000121963
0.000121963
0.000121963
0.000121963
0.000121963
0.000121963
0.000121963
0.000121963
0.000121963
0.000121963
0.000121963
0.000121963
0.000121963
0.000121963
0.000121963
0.000121963
0.000121963
0.000121963
0.000121963
0.000121963
0.000121963
0.000121963
0.000121963
0.000121963
0.000121963
0.000121963
0.000121963
0.000121963
0.000121963
0.000121963
0.000121963
0.000121963
0.000121963
0.000121963
0.000121963
0.000121963
0.000121963
0.000121963
0.000121963
0.000121963
0.000121963
0.000121963
0.000121963
0.000121963
0.000121963
0.000121963
0.000121963
0.000121963
0.000121963
0.000121963
0.000121963
0.000121963
0.000121963
0.000121963
0.000121963
0.000121963
0.000121963
0.000121963
0.000121963
0.000121963
0.000121963
0.000121963
0.000121963
0.000121963
0.000121963
0.000121963
0.000121963
0.000121963
0.000121963
0.000121963
0.000121963
0.000121963
0.000121963
0.000121963
0.000121963
0.000121963
0.000121963
0.000121963
0.000121963
0.000121963
0.000121963
0.000121963
0.000121963
0.000121963
0.000121963
0.000121963
0.000121963
0.000121963
0.000121963
0.000121963
0.000121963
0.000121963
0.000121963
0.000121963
0.000121963
0.000121963
0.000121963
0.000121963
0.000121963
0.000121963
0.000121963
0.000121963
0.000121963
0.000121963
0.000121963
0.000121963
0.000121963
0.000121963
0.000121963
0.000121963
0.000121963
0.000121963
0.000121963
0.000121963
0.000121963
0.000121963
0.000121963
0.000121963
0.000121963
0.000121963
0.000121963
0.000121963
0.000121963
0.000121963
0.000121963
0.000121963
0.000121963
0.000121963
0.000121963
0.000121963
0.000121963
0.000121963
0.000121963
0.000121963
0.000121963
0.000121963
0.000121963
0.000121963
0.000121963
0.000121963
0.000121963
0.000121963
2.91567e-05
3.45502e-05
4.73405e-05
5.92837e-05
6.96827e-05
8.15324e-05
9.2011e-05
0.000100249
0.000107171
0.000112864
0.000116933
0.00012051
0.000123654
0.000126489
0.000129043
0.000131353
0.000133496
0.000135481
0.000137332
0.000139057
0.000140658
0.000142143
0.000143506
0.000144744
0.000145852
0.000146755
0.000147399
0.000147836
0.000148123
0.000148304
0.000148411
0.000148468
0.000148493
0.000148497
0.000148489
0.000148476
0.000148461
0.000148446
0.000148434
0.000148423
0.000148415
0.000148408
0.000148404
0.000148402
0.0001484
0.000148399
0.000148399
0.0001484
0.000148402
0.000148404
0.000148406
0.000148408
0.000148411
0.000148413
0.000148415
0.000148417
0.000148419
0.00014842
0.000148422
0.000148423
0.000148424
0.000148425
0.000148426
0.000148427
0.000148428
0.000148428
0.000148429
0.000148429
0.00014843
0.00014843
0.00014843
0.000148431
0.000148431
0.000148431
0.000148431
0.000148431
0.000148431
0.000148431
0.000148432
0.000148432
0.000148432
0.000148432
0.000148432
0.000148432
0.000148432
0.000148432
0.000148432
0.000148432
0.000148432
0.000148432
0.000148432
0.000148432
0.000148432
0.000148432
0.000148432
0.000148432
0.000148432
0.000148432
0.000148432
0.000148432
0.000148432
0.000148432
0.000148432
0.000148432
0.000148432
0.000148432
0.000148432
0.000148432
0.000148432
0.000148432
0.000148432
0.000148432
0.000148432
0.000148432
0.000148432
0.000148432
0.000148432
0.000148432
0.000148432
0.000148432
0.000148432
0.000148432
0.000148432
0.000148432
0.000148432
0.000148432
0.000148432
0.000148432
0.000148432
0.000148432
0.000148432
0.000148432
0.000148432
0.000148432
0.000148432
0.000148432
0.000148432
0.000148432
0.000148432
0.000148432
0.000148432
0.000148432
0.000148432
0.000148432
0.000148432
0.000148432
0.000148432
0.000148432
0.000148432
0.000148432
0.000148432
0.000148432
0.000148432
0.000148432
0.000148432
0.000148432
0.000148432
0.000148432
0.000148432
0.000148432
0.000148432
0.000148432
0.000148432
0.000148432
0.000148432
0.000148432
0.000148432
0.000148432
0.000148432
0.000148432
0.000148432
0.000148432
0.000148432
0.000148432
0.000148432
0.000148432
0.000148432
0.000148432
0.000148432
0.000148432
0.000148432
0.000148432
0.000148432
0.000148432
0.000148432
0.000148432
0.000148432
0.000148432
0.000148432
0.000148432
0.000148432
0.000148432
0.000148432
0.000148432
0.000148432
0.000148432
0.000148432
0.000148432
0.000148432
0.000148432
0.000148432
0.000148432
0.000148432
0.000148432
0.000148432
0.000148432
0.000148432
0.000148432
0.000148432
0.000148432
0.000148432
0.000148432
0.000148432
0.000148432
0.000148432
0.000148432
0.000148432
0.000148432
0.000148432
0.000148432
0.000148432
0.000148432
0.000148432
0.000148432
0.000148432
0.000148432
0.000148432
0.000148432
0.000148432
0.000148432
0.000148432
0.000148432
0.000148432
0.000148432
0.000148432
0.000148432
0.000148432
0.000148432
0.000148432
0.000148432
0.000148432
0.000148432
0.000148432
0.000148432
0.000148432
0.000148432
0.000148432
0.000148432
0.000148432
0.000148432
0.000148432
0.000148432
0.000148432
0.000148432
0.000148432
0.000148432
0.000148432
0.000148432
0.000148432
0.000148432
0.000148432
0.000148432
0.000148432
0.000148432
0.000148432
0.000148432
0.000148432
0.000148432
0.000148432
0.000148432
0.000148432
0.000148432
0.000148432
0.000148432
0.000148432
0.000148432
0.000148432
0.000148432
0.000148432
0.000148432
0.000148432
0.000148432
0.000148432
0.000148432
0.000148432
0.000148432
0.000148432
0.000148432
0.000148432
0.000148432
0.000148432
0.000148432
0.000148432
0.000148432
0.000148432
0.000148432
0.000148432
0.000148432
0.000148432
0.000148432
3.56388e-05
3.23152e-05
4.02349e-05
5.30572e-05
6.08459e-05
7.33447e-05
8.52452e-05
9.62709e-05
0.000106339
0.000114898
0.000122344
0.000128516
0.000134177
0.000138795
0.000142648
0.000146134
0.000149341
0.000152299
0.000155037
0.000157564
0.000159894
0.000162039
0.000163992
0.000165755
0.000167323
0.000168612
0.000169567
0.000170253
0.000170737
0.000171072
0.000171301
0.000171454
0.000171554
0.000171618
0.00017166
0.000171687
0.000171705
0.000171719
0.00017173
0.000171741
0.000171751
0.000171761
0.000171771
0.000171781
0.00017179
0.000171799
0.000171807
0.000171816
0.000171825
0.000171833
0.000171841
0.000171849
0.000171855
0.000171862
0.000171867
0.000171872
0.000171877
0.000171881
0.000171884
0.000171887
0.00017189
0.000171893
0.000171895
0.000171896
0.000171898
0.000171899
0.000171901
0.000171902
0.000171903
0.000171903
0.000171904
0.000171905
0.000171905
0.000171905
0.000171906
0.000171906
0.000171906
0.000171907
0.000171907
0.000171907
0.000171907
0.000171907
0.000171907
0.000171907
0.000171908
0.000171908
0.000171908
0.000171908
0.000171908
0.000171908
0.000171908
0.000171908
0.000171908
0.000171908
0.000171908
0.000171908
0.000171908
0.000171908
0.000171908
0.000171908
0.000171908
0.000171908
0.000171908
0.000171908
0.000171908
0.000171908
0.000171908
0.000171908
0.000171908
0.000171908
0.000171908
0.000171908
0.000171908
0.000171908
0.000171908
0.000171908
0.000171908
0.000171908
0.000171908
0.000171908
0.000171908
0.000171908
0.000171908
0.000171908
0.000171908
0.000171908
0.000171908
0.000171908
0.000171908
0.000171908
0.000171908
0.000171908
0.000171908
0.000171908
0.000171908
0.000171908
0.000171908
0.000171908
0.000171908
0.000171908
0.000171908
0.000171908
0.000171908
0.000171908
0.000171908
0.000171908
0.000171908
0.000171908
0.000171908
0.000171908
0.000171908
0.000171908
0.000171908
0.000171908
0.000171908
0.000171908
0.000171908
0.000171908
0.000171908
0.000171908
0.000171908
0.000171908
0.000171908
0.000171908
0.000171908
0.000171908
0.000171908
0.000171908
0.000171908
0.000171908
0.000171908
0.000171908
0.000171908
0.000171908
0.000171908
0.000171908
0.000171908
0.000171908
0.000171908
0.000171908
0.000171908
0.000171908
0.000171908
0.000171908
0.000171908
0.000171908
0.000171908
0.000171908
0.000171908
0.000171908
0.000171908
0.000171908
0.000171908
0.000171908
0.000171908
0.000171908
0.000171908
0.000171908
0.000171908
0.000171908
0.000171908
0.000171908
0.000171908
0.000171908
0.000171908
0.000171908
0.000171908
0.000171908
0.000171908
0.000171908
0.000171908
0.000171908
0.000171908
0.000171908
0.000171908
0.000171908
0.000171908
0.000171908
0.000171908
0.000171908
0.000171908
0.000171908
0.000171908
0.000171908
0.000171908
0.000171908
0.000171908
0.000171908
0.000171908
0.000171908
0.000171908
0.000171908
0.000171908
0.000171908
0.000171908
0.000171908
0.000171908
0.000171908
0.000171908
0.000171908
0.000171908
0.000171908
0.000171908
0.000171908
0.000171908
0.000171908
0.000171908
0.000171908
0.000171908
0.000171908
0.000171908
0.000171908
0.000171908
0.000171908
0.000171908
0.000171908
0.000171908
0.000171908
0.000171908
0.000171908
0.000171908
0.000171908
0.000171908
0.000171908
0.000171908
0.000171908
0.000171908
0.000171908
0.000171908
0.000171908
0.000171908
0.000171908
0.000171908
0.000171908
0.000171908
0.000171908
0.000171908
0.000171908
0.000171908
0.000171908
0.000171908
0.000171908
0.000171908
0.000171908
0.000171908
0.000171908
0.000171908
0.000171908
0.000171908
0.000171908
0.000171908
0.000171908
0.000171908
0.000171908
0.000171908
0.000171908
0.000171908
0.000171908
0.000171908
0.000171908
5.08333e-05
3.48484e-05
3.53528e-05
4.34876e-05
5.52791e-05
6.54665e-05
7.49668e-05
8.65899e-05
9.83391e-05
0.000108963
0.000119082
0.00012773
0.000135762
0.000142626
0.000148798
0.000154096
0.000158964
0.000163637
0.000167682
0.000171161
0.000174363
0.000177299
0.000179967
0.000182373
0.000184536
0.000186374
0.000187789
0.000188861
0.000189671
0.000190282
0.000190742
0.000191091
0.000191356
0.000191561
0.000191722
0.000191851
0.000191957
0.000192045
0.000192121
0.000192187
0.000192245
0.000192296
0.000192343
0.000192384
0.00019242
0.000192452
0.000192481
0.000192508
0.000192533
0.000192555
0.000192575
0.000192593
0.000192609
0.000192623
0.000192636
0.000192647
0.000192657
0.000192666
0.000192673
0.00019268
0.000192686
0.000192691
0.000192695
0.000192699
0.000192703
0.000192705
0.000192708
0.00019271
0.000192712
0.000192714
0.000192715
0.000192716
0.000192717
0.000192718
0.000192719
0.00019272
0.00019272
0.000192721
0.000192721
0.000192721
0.000192722
0.000192722
0.000192722
0.000192722
0.000192723
0.000192723
0.000192723
0.000192723
0.000192723
0.000192723
0.000192723
0.000192723
0.000192723
0.000192723
0.000192723
0.000192723
0.000192723
0.000192723
0.000192723
0.000192723
0.000192723
0.000192723
0.000192723
0.000192723
0.000192723
0.000192724
0.000192724
0.000192724
0.000192724
0.000192724
0.000192724
0.000192724
0.000192724
0.000192724
0.000192724
0.000192724
0.000192724
0.000192724
0.000192724
0.000192724
0.000192724
0.000192724
0.000192724
0.000192724
0.000192724
0.000192724
0.000192724
0.000192724
0.000192724
0.000192724
0.000192724
0.000192724
0.000192724
0.000192724
0.000192724
0.000192724
0.000192724
0.000192724
0.000192724
0.000192724
0.000192724
0.000192724
0.000192724
0.000192724
0.000192724
0.000192724
0.000192724
0.000192724
0.000192724
0.000192724
0.000192724
0.000192724
0.000192724
0.000192724
0.000192724
0.000192724
0.000192724
0.000192724
0.000192724
0.000192724
0.000192724
0.000192724
0.000192724
0.000192724
0.000192724
0.000192724
0.000192724
0.000192724
0.000192724
0.000192724
0.000192724
0.000192724
0.000192724
0.000192724
0.000192724
0.000192724
0.000192724
0.000192724
0.000192724
0.000192724
0.000192724
0.000192724
0.000192724
0.000192724
0.000192724
0.000192724
0.000192724
0.000192724
0.000192724
0.000192724
0.000192724
0.000192724
0.000192724
0.000192724
0.000192724
0.000192724
0.000192724
0.000192724
0.000192724
0.000192724
0.000192724
0.000192724
0.000192724
0.000192724
0.000192724
0.000192724
0.000192724
0.000192724
0.000192724
0.000192724
0.000192724
0.000192724
0.000192724
0.000192724
0.000192724
0.000192724
0.000192724
0.000192724
0.000192724
0.000192724
0.000192724
0.000192724
0.000192724
0.000192724
0.000192724
0.000192724
0.000192724
0.000192724
0.000192724
0.000192724
0.000192724
0.000192724
0.000192724
0.000192724
0.000192724
0.000192724
0.000192724
0.000192724
0.000192724
0.000192724
0.000192724
0.000192724
0.000192724
0.000192724
0.000192724
0.000192724
0.000192724
0.000192724
0.000192724
0.000192724
0.000192724
0.000192724
0.000192724
0.000192724
0.000192724
0.000192724
0.000192724
0.000192724
0.000192724
0.000192724
0.000192724
0.000192724
0.000192724
0.000192724
0.000192724
0.000192724
0.000192724
0.000192724
0.000192724
0.000192724
0.000192724
0.000192724
0.000192724
0.000192724
0.000192724
0.000192724
0.000192724
0.000192724
0.000192724
0.000192724
0.000192724
0.000192724
0.000192724
0.000192724
0.000192724
0.000192724
0.000192724
0.000192724
0.000192724
0.000192724
0.000192724
0.000192724
0.000192724
0.000192724
0.000192724
0.000192724
0.000192724
0.000192724
0.000192724
0.000192724
7.92308e-05
4.57865e-05
3.72482e-05
3.85115e-05
4.66158e-05
5.86759e-05
6.60337e-05
7.65885e-05
8.71795e-05
9.83005e-05
0.000109847
0.000120271
0.000130309
0.00013923
0.000147567
0.000154867
0.000161392
0.000167592
0.000173146
0.00017822
0.000182786
0.000186723
0.000190183
0.000193075
0.000196354
0.000200148
0.000202183
0.000203794
0.000205074
0.000206096
0.000206915
0.000207576
0.000208112
0.000208552
0.000208916
0.000209221
0.000209478
0.000209698
0.000209887
0.000210051
0.000210193
0.000210318
0.000210427
0.000210522
0.000210605
0.000210678
0.000210742
0.0002108
0.000210851
0.000210896
0.000210936
0.000210971
0.000211003
0.00021103
0.000211054
0.000211076
0.000211094
0.00021111
0.000211124
0.000211137
0.000211148
0.000211157
0.000211165
0.000211172
0.000211178
0.000211183
0.000211188
0.000211192
0.000211195
0.000211198
0.000211201
0.000211203
0.000211205
0.000211206
0.000211208
0.000211209
0.00021121
0.000211211
0.000211212
0.000211212
0.000211213
0.000211213
0.000211214
0.000211214
0.000211214
0.000211215
0.000211215
0.000211215
0.000211215
0.000211215
0.000211216
0.000211216
0.000211216
0.000211216
0.000211216
0.000211216
0.000211216
0.000211216
0.000211216
0.000211216
0.000211216
0.000211216
0.000211216
0.000211216
0.000211216
0.000211216
0.000211216
0.000211216
0.000211216
0.000211216
0.000211216
0.000211216
0.000211216
0.000211216
0.000211216
0.000211216
0.000211216
0.000211216
0.000211216
0.000211216
0.000211216
0.000211216
0.000211216
0.000211216
0.000211216
0.000211216
0.000211216
0.000211216
0.000211216
0.000211216
0.000211216
0.000211216
0.000211216
0.000211216
0.000211216
0.000211216
0.000211216
0.000211216
0.000211216
0.000211216
0.000211216
0.000211216
0.000211216
0.000211216
0.000211216
0.000211216
0.000211216
0.000211216
0.000211216
0.000211216
0.000211216
0.000211216
0.000211216
0.000211216
0.000211216
0.000211216
0.000211216
0.000211216
0.000211216
0.000211216
0.000211216
0.000211216
0.000211216
0.000211216
0.000211216
0.000211216
0.000211216
0.000211216
0.000211216
0.000211216
0.000211216
0.000211216
0.000211216
0.000211216
0.000211216
0.000211216
0.000211216
0.000211216
0.000211216
0.000211216
0.000211216
0.000211216
0.000211216
0.000211216
0.000211216
0.000211216
0.000211216
0.000211216
0.000211216
0.000211216
0.000211216
0.000211216
0.000211216
0.000211216
0.000211216
0.000211216
0.000211216
0.000211216
0.000211216
0.000211216
0.000211216
0.000211216
0.000211216
0.000211216
0.000211216
0.000211216
0.000211216
0.000211216
0.000211216
0.000211216
0.000211216
0.000211216
0.000211216
0.000211216
0.000211216
0.000211216
0.000211216
0.000211216
0.000211216
0.000211216
0.000211216
0.000211216
0.000211216
0.000211216
0.000211216
0.000211216
0.000211216
0.000211216
0.000211216
0.000211216
0.000211216
0.000211216
0.000211216
0.000211216
0.000211216
0.000211216
0.000211216
0.000211216
0.000211216
0.000211216
0.000211216
0.000211216
0.000211216
0.000211216
0.000211216
0.000211216
0.000211216
0.000211216
0.000211216
0.000211216
0.000211216
0.000211216
0.000211216
0.000211216
0.000211216
0.000211216
0.000211216
0.000211216
0.000211216
0.000211216
0.000211216
0.000211216
0.000211216
0.000211216
0.000211216
0.000211216
0.000211216
0.000211216
0.000211216
0.000211216
0.000211216
0.000211216
0.000211216
0.000211216
0.000211216
0.000211216
0.000211216
0.000211216
0.000211216
0.000211216
0.000211216
0.000211216
0.000211216
0.000211216
0.000211216
0.000211216
0.000211216
0.000211216
0.000211216
0.000211216
0.000211216
0.000211216
0.000211216
0.000211216
0.000211216
0.000211216
0.000211216
0.000211216
0.000211216
0.000211216
0.000130986
6.75993e-05
4.86059e-05
4.10529e-05
4.17642e-05
4.92144e-05
6.04522e-05
6.98489e-05
7.74073e-05
8.72447e-05
9.79175e-05
0.000108732
0.000119912
0.000130274
0.000140326
0.000149516
0.00015785
0.000165395
0.000172331
0.000178919
0.000184754
0.000189701
0.00019418
0.000198492
0.000204379
0.000210171
0.000212971
0.000215269
0.000217166
0.00021874
0.000220051
0.000221146
0.000222066