/*--------------------------------*- C++ -*----------------------------------*\
| =========                 |                                                 |
| \\      /  F ield         | foam-extend: Open Source CFD                    |
|  \\    /   O peration     | Version:     3.2                                |
|   \\  /    A nd           | Web:         http://www.foam-extend.org         |
|    \\/     M anipulation  | For copyright notice see file Copyright         |
\*---------------------------------------------------------------------------*/
FoamFile
{
    version     2.0;
    format      ascii;
    class       volScalarField;
    location    "79";
    object      k;
}
// * * * * * * * * * * * * * * * * * * * * * * * * * * * * * * * * * * * * * //

dimensions      [0 2 -2 0 0 0 0];

internalField   nonuniform List<scalar> 
5400
(
0.0313657
0.0200486
0.0148645
0.0149133
0.0144524
0.0144516
0.0142286
0.0142181
0.0141386
0.0141687
0.0141759
0.0142277
0.01428
0.014363
0.0144408
0.0145396
0.0146401
0.0147531
0.0148652
0.0149885
0.0151185
0.0152529
0.0153912
0.0155319
0.0156741
0.0158188
0.0159538
0.0160725
0.0161726
0.0162568
0.0163268
0.0163853
0.0164337
0.0164742
0.0165077
0.0165358
0.0165592
0.0165788
0.0165952
0.0166091
0.0166208
0.0166307
0.0166391
0.0166464
0.0166526
0.0166578
0.0166621
0.0166659
0.0166691
0.0166719
0.0166744
0.0166765
0.0166784
0.01668
0.0166814
0.0166826
0.0166837
0.0166846
0.0166854
0.0166861
0.0166868
0.0166873
0.0166877
0.0166881
0.0166885
0.0166888
0.016689
0.0166893
0.0166895
0.0166896
0.0166898
0.0166899
0.01669
0.0166901
0.0166902
0.0166902
0.0166903
0.0166904
0.0166904
0.0166904
0.0166905
0.0166905
0.0166905
0.0166905
0.0166906
0.0166906
0.0166906
0.0166906
0.0166906
0.0166906
0.0166906
0.0166906
0.0166906
0.0166906
0.0166907
0.0166907
0.0166907
0.0166907
0.0166907
0.0166907
0.0166907
0.0166907
0.0166907
0.0166907
0.0166907
0.0166907
0.0166907
0.0166907
0.0166907
0.0166907
0.0166907
0.0166907
0.0166907
0.0166907
0.0166907
0.0166907
0.0166907
0.0166907
0.0166907
0.0166907
0.0166907
0.0166907
0.0166907
0.0166907
0.0166907
0.0166907
0.0166907
0.0166907
0.0166907
0.0166907
0.0166907
0.0166907
0.0166907
0.0166907
0.0166907
0.0166907
0.0166907
0.0166907
0.0166907
0.0166907
0.0166907
0.0166907
0.0166907
0.0166907
0.0166907
0.0166907
0.0166907
0.0166907
0.0166907
0.0166907
0.0166907
0.0166907
0.0166907
0.0166907
0.0166907
0.0166907
0.0166907
0.0166907
0.0166907
0.0166907
0.0166907
0.0166907
0.0166907
0.0166907
0.0166907
0.0166907
0.0166907
0.0166907
0.0166907
0.0166907
0.0166907
0.0166907
0.0166907
0.0166907
0.0166907
0.0166907
0.0166907
0.0166907
0.0166907
0.0166907
0.0166907
0.0166907
0.0166907
0.0166907
0.0166907
0.0166907
0.0166907
0.0166907
0.0166907
0.0166907
0.0166907
0.0166907
0.0166907
0.0166907
0.0166907
0.0166907
0.0166907
0.0166907
0.0166907
0.0166907
0.0166907
0.0166907
0.0166907
0.0166907
0.0166907
0.0166907
0.0166907
0.0166907
0.0166907
0.0166907
0.0166907
0.0166907
0.0166907
0.0166907
0.0166907
0.0166907
0.0166907
0.0166907
0.0166907
0.0166907
0.0166907
0.0166907
0.0166907
0.0166907
0.0166907
0.0166907
0.0166907
0.0166907
0.0166907
0.0166907
0.0166907
0.0166907
0.0166907
0.0166907
0.0166907
0.0166907
0.0166907
0.0166907
0.0166907
0.0166907
0.0166907
0.0166907
0.0166907
0.0166907
0.0166907
0.0166907
0.0166907
0.0166907
0.0166907
0.0166907
0.0166907
0.0166907
0.0166907
0.0166907
0.0166907
0.0166907
0.0166907
0.0166907
0.0166907
0.0166907
0.0166907
0.0166907
0.0166907
0.0166907
0.0166907
0.0166907
0.0166907
0.0166907
0.0166907
0.0166907
0.0166907
0.0166907
0.0166907
0.0166907
0.0166907
0.0166907
0.0166907
0.0166907
0.0166907
0.0166907
0.0166907
0.0166907
0.0166907
0.0166907
0.0166907
0.0166907
0.0166907
0.0166907
0.0166907
0.0166907
0.0166907
0.0166907
0.0166907
0.0166907
0.0166907
0.0166907
0.0166907
0.0166907
0.0166907
0.0166907
0.0117155
0.0144739
0.0140583
0.0142415
0.0139676
0.0139607
0.0138323
0.0138391
0.0138103
0.0138576
0.0138932
0.013962
0.0140391
0.0141277
0.0142248
0.0143313
0.0144425
0.0145634
0.0146857
0.0148132
0.0149451
0.0150802
0.0152173
0.0153551
0.0154926
0.015628
0.015749
0.0158526
0.0159388
0.0160107
0.0160701
0.0161195
0.0161603
0.0161942
0.0162223
0.0162458
0.0162653
0.0162818
0.0162956
0.0163072
0.0163171
0.0163254
0.0163325
0.0163387
0.0163439
0.0163484
0.0163521
0.0163554
0.0163581
0.0163606
0.0163627
0.0163645
0.0163661
0.0163675
0.0163687
0.0163698
0.0163707
0.0163715
0.0163722
0.0163728
0.0163734
0.0163738
0.0163742
0.0163746
0.0163749
0.0163751
0.0163753
0.0163755
0.0163757
0.0163759
0.016376
0.0163761
0.0163762
0.0163763
0.0163763
0.0163764
0.0163764
0.0163765
0.0163765
0.0163766
0.0163766
0.0163766
0.0163766
0.0163767
0.0163767
0.0163767
0.0163767
0.0163767
0.0163767
0.0163767
0.0163767
0.0163767
0.0163767
0.0163767
0.0163767
0.0163767
0.0163767
0.0163767
0.0163768
0.0163768
0.0163768
0.0163768
0.0163768
0.0163768
0.0163768
0.0163768
0.0163768
0.0163768
0.0163768
0.0163768
0.0163768
0.0163768
0.0163768
0.0163768
0.0163768
0.0163768
0.0163768
0.0163768
0.0163768
0.0163768
0.0163768
0.0163768
0.0163768
0.0163768
0.0163768
0.0163768
0.0163768
0.0163768
0.0163768
0.0163768
0.0163768
0.0163768
0.0163768
0.0163768
0.0163768
0.0163768
0.0163768
0.0163768
0.0163768
0.0163768
0.0163768
0.0163768
0.0163768
0.0163768
0.0163768
0.0163768
0.0163768
0.0163768
0.0163768
0.0163768
0.0163768
0.0163768
0.0163768
0.0163768
0.0163768
0.0163768
0.0163768
0.0163768
0.0163768
0.0163768
0.0163768
0.0163768
0.0163768
0.0163768
0.0163768
0.0163768
0.0163768
0.0163768
0.0163768
0.0163768
0.0163768
0.0163768
0.0163768
0.0163768
0.0163768
0.0163768
0.0163768
0.0163768
0.0163768
0.0163768
0.0163768
0.0163768
0.0163768
0.0163768
0.0163768
0.0163768
0.0163768
0.0163768
0.0163768
0.0163768
0.0163768
0.0163768
0.0163768
0.0163768
0.0163768
0.0163768
0.0163768
0.0163768
0.0163768
0.0163768
0.0163768
0.0163768
0.0163768
0.0163768
0.0163768
0.0163768
0.0163768
0.0163768
0.0163768
0.0163768
0.0163768
0.0163768
0.0163768
0.0163768
0.0163768
0.0163768
0.0163768
0.0163768
0.0163768
0.0163768
0.0163768
0.0163768
0.0163768
0.0163768
0.0163768
0.0163768
0.0163768
0.0163768
0.0163768
0.0163768
0.0163768
0.0163768
0.0163768
0.0163768
0.0163768
0.0163768
0.0163768
0.0163768
0.0163768
0.0163768
0.0163768
0.0163768
0.0163768
0.0163768
0.0163768
0.0163768
0.0163768
0.0163768
0.0163768
0.0163768
0.0163768
0.0163768
0.0163768
0.0163768
0.0163768
0.0163768
0.0163768
0.0163768
0.0163768
0.0163768
0.0163768
0.0163768
0.0163768
0.0163768
0.0163768
0.0163768
0.0163768
0.0163768
0.0163768
0.0163768
0.0163768
0.0163768
0.0163768
0.0163768
0.0163768
0.0163768
0.0163768
0.0163768
0.0163768
0.0163768
0.0163768
0.0163768
0.0163768
0.0163768
0.0163768
0.0163768
0.0163768
0.0163768
0.0163768
0.0163768
0.0163768
0.0163768
0.0163768
0.0163768
0.0163768
0.0163768
0.0163768
0.0163768
0.0163768
0.0163768
0.00535859
0.00905143
0.0109639
0.0118385
0.0120202
0.0122202
0.0122563
0.0123527
0.0124066
0.012502
0.012577
0.0126773
0.0127791
0.0128843
0.0129974
0.0131121
0.0132313
0.0133564
0.0134826
0.0136103
0.0137394
0.0138696
0.0139993
0.0141274
0.0142534
0.0143719
0.0144709
0.0145512
0.0146156
0.0146677
0.0147096
0.0147437
0.0147713
0.014794
0.0148125
0.0148278
0.0148406
0.0148512
0.0148602
0.0148677
0.0148741
0.0148796
0.0148843
0.0148883
0.0148918
0.0148948
0.0148973
0.0148995
0.0149014
0.0149031
0.0149045
0.0149058
0.014907
0.0149079
0.0149088
0.0149096
0.0149102
0.0149108
0.0149113
0.0149117
0.0149121
0.0149124
0.0149127
0.014913
0.0149132
0.0149134
0.0149135
0.0149137
0.0149138
0.0149139
0.014914
0.0149141
0.0149141
0.0149142
0.0149142
0.0149143
0.0149143
0.0149143
0.0149144
0.0149144
0.0149144
0.0149144
0.0149144
0.0149145
0.0149145
0.0149145
0.0149145
0.0149145
0.0149145
0.0149145
0.0149145
0.0149145
0.0149145
0.0149145
0.0149145
0.0149145
0.0149145
0.0149145
0.0149145
0.0149145
0.0149145
0.0149145
0.0149145
0.0149145
0.0149145
0.0149145
0.0149145
0.0149145
0.0149145
0.0149145
0.0149145
0.0149145
0.0149145
0.0149145
0.0149145
0.0149145
0.0149145
0.0149145
0.0149145
0.0149145
0.0149145
0.0149145
0.0149145
0.0149145
0.0149145
0.0149145
0.0149145
0.0149145
0.0149145
0.0149145
0.0149145
0.0149145
0.0149145
0.0149145
0.0149145
0.0149145
0.0149145
0.0149145
0.0149145
0.0149145
0.0149145
0.0149145
0.0149145
0.0149145
0.0149145
0.0149145
0.0149145
0.0149145
0.0149145
0.0149145
0.0149145
0.0149145
0.0149145
0.0149145
0.0149145
0.0149145
0.0149145
0.0149145
0.0149145
0.0149145
0.0149145
0.0149145
0.0149145
0.0149145
0.0149145
0.0149145
0.0149145
0.0149145
0.0149145
0.0149145
0.0149145
0.0149145
0.0149145
0.0149145
0.0149145
0.0149145
0.0149145
0.0149145
0.0149145
0.0149145
0.0149145
0.0149145
0.0149145
0.0149145
0.0149145
0.0149145
0.0149145
0.0149145
0.0149145
0.0149145
0.0149145
0.0149145
0.0149145
0.0149145
0.0149145
0.0149145
0.0149145
0.0149145
0.0149145
0.0149145
0.0149145
0.0149145
0.0149145
0.0149145
0.0149145
0.0149145
0.0149145
0.0149145
0.0149145
0.0149145
0.0149145
0.0149145
0.0149145
0.0149145
0.0149145
0.0149145
0.0149145
0.0149145
0.0149145
0.0149145
0.0149145
0.0149145
0.0149145
0.0149145
0.0149145
0.0149145
0.0149145
0.0149145
0.0149145
0.0149145
0.0149145
0.0149145
0.0149145
0.0149145
0.0149145
0.0149145
0.0149145
0.0149145
0.0149145
0.0149145
0.0149145
0.0149145
0.0149145
0.0149145
0.0149145
0.0149145
0.0149145
0.0149145
0.0149145
0.0149145
0.0149145
0.0149145
0.0149145
0.0149145
0.0149145
0.0149145
0.0149145
0.0149145
0.0149145
0.0149145
0.0149145
0.0149145
0.0149145
0.0149145
0.0149145
0.0149145
0.0149145
0.0149145
0.0149145
0.0149145
0.0149145
0.0149145
0.0149145
0.0149145
0.0149145
0.0149145
0.0149145
0.0149145
0.0149145
0.0149145
0.0149145
0.0149145
0.0149145
0.0149145
0.0149145
0.0149145
0.0149145
0.0149145
0.0149145
0.0149145
0.0149145
0.0149145
0.0149145
0.0149145
0.0149145
0.0149145
0.0149145
0.0149145
0.0149145
0.0149145
0.00276137
0.00514247
0.00763323
0.00913232
0.00997268
0.0104957
0.0107703
0.01099
0.0111448
0.0113001
0.0114292
0.0115681
0.0116985
0.0118306
0.0119629
0.0120915
0.012223
0.0123561
0.0124892
0.0126208
0.012751
0.0128799
0.0130057
0.0131276
0.0132446
0.013348
0.0134272
0.0134864
0.0135305
0.0135638
0.013589
0.0136081
0.0136227
0.013634
0.0136428
0.0136498
0.0136554
0.0136601
0.0136639
0.0136672
0.01367
0.0136725
0.0136746
0.0136764
0.0136781
0.0136795
0.0136807
0.0136818
0.0136828
0.0136837
0.0136845
0.0136852
0.0136858
0.0136864
0.0136869
0.0136873
0.0136877
0.0136881
0.0136884
0.0136886
0.0136888
0.013689
0.0136892
0.0136894
0.0136895
0.0136896
0.0136897
0.0136898
0.0136898
0.0136899
0.01369
0.01369
0.01369
0.0136901
0.0136901
0.0136901
0.0136901
0.0136902
0.0136902
0.0136902
0.0136902
0.0136902
0.0136902
0.0136902
0.0136902
0.0136902
0.0136902
0.0136903
0.0136903
0.0136903
0.0136903
0.0136903
0.0136903
0.0136903
0.0136903
0.0136903
0.0136903
0.0136903
0.0136903
0.0136903
0.0136903
0.0136903
0.0136903
0.0136903
0.0136903
0.0136903
0.0136903
0.0136903
0.0136903
0.0136903
0.0136903
0.0136903
0.0136903
0.0136903
0.0136903
0.0136903
0.0136903
0.0136903
0.0136903
0.0136903
0.0136903
0.0136903
0.0136903
0.0136903
0.0136903
0.0136903
0.0136903
0.0136903
0.0136903
0.0136903
0.0136903
0.0136903
0.0136903
0.0136903
0.0136903
0.0136903
0.0136903
0.0136903
0.0136903
0.0136903
0.0136903
0.0136903
0.0136903
0.0136903
0.0136903
0.0136903
0.0136903
0.0136903
0.0136903
0.0136903
0.0136903
0.0136903
0.0136903
0.0136903
0.0136903
0.0136903
0.0136903
0.0136903
0.0136903
0.0136903
0.0136903
0.0136903
0.0136903
0.0136903
0.0136903
0.0136903
0.0136903
0.0136903
0.0136903
0.0136903
0.0136903
0.0136903
0.0136903
0.0136903
0.0136903
0.0136903
0.0136903
0.0136903
0.0136903
0.0136903
0.0136903
0.0136903
0.0136903
0.0136903
0.0136903
0.0136903
0.0136903
0.0136903
0.0136903
0.0136903
0.0136903
0.0136903
0.0136903
0.0136903
0.0136903
0.0136903
0.0136903
0.0136903
0.0136903
0.0136903
0.0136903
0.0136903
0.0136903
0.0136903
0.0136903
0.0136903
0.0136903
0.0136903
0.0136903
0.0136903
0.0136903
0.0136903
0.0136903
0.0136903
0.0136903
0.0136903
0.0136903
0.0136903
0.0136903
0.0136903
0.0136903
0.0136903
0.0136903
0.0136903
0.0136903
0.0136903
0.0136903
0.0136903
0.0136903
0.0136903
0.0136903
0.0136903
0.0136903
0.0136903
0.0136903
0.0136903
0.0136903
0.0136903
0.0136903
0.0136903
0.0136903
0.0136903
0.0136903
0.0136903
0.0136903
0.0136903
0.0136903
0.0136903
0.0136903
0.0136903
0.0136903
0.0136903
0.0136903
0.0136903
0.0136903
0.0136903
0.0136903
0.0136903
0.0136903
0.0136903
0.0136903
0.0136903
0.0136903
0.0136903
0.0136903
0.0136903
0.0136903
0.0136903
0.0136903
0.0136903
0.0136903
0.0136903
0.0136903
0.0136903
0.0136903
0.0136903
0.0136903
0.0136903
0.0136903
0.0136903
0.0136903
0.0136903
0.0136903
0.0136903
0.0136903
0.0136903
0.0136903
0.0136903
0.0136903
0.0136903
0.0136903
0.0136903
0.0136903
0.0136903
0.0136903
0.0136903
0.0136903
0.0136903
0.0136903
0.0136903
0.00159821
0.0029052
0.00480226
0.00640698
0.00776648
0.00866943
0.00924122
0.00964697
0.00993636
0.0101791
0.0103724
0.0105573
0.0107215
0.0108843
0.01104
0.0111873
0.0113343
0.0114783
0.0116204
0.0117584
0.0118922
0.0120222
0.0121463
0.0122637
0.0123723
0.0124608
0.0125214
0.0125612
0.0125868
0.0126029
0.0126124
0.0126176
0.0126199
0.0126204
0.0126199
0.0126189
0.0126178
0.0126166
0.0126156
0.0126147
0.012614
0.0126135
0.0126131
0.0126128
0.0126127
0.0126126
0.0126125
0.0126125
0.0126126
0.0126127
0.0126129
0.012613
0.0126132
0.0126134
0.0126135
0.0126136
0.0126138
0.0126139
0.012614
0.0126141
0.0126141
0.0126142
0.0126143
0.0126143
0.0126144
0.0126144
0.0126144
0.0126145
0.0126145
0.0126145
0.0126145
0.0126145
0.0126146
0.0126146
0.0126146
0.0126146
0.0126146
0.0126146
0.0126146
0.0126146
0.0126146
0.0126146
0.0126146
0.0126146
0.0126146
0.0126146
0.0126146
0.0126146
0.0126146
0.0126146
0.0126146
0.0126146
0.0126146
0.0126146
0.0126146
0.0126146
0.0126146
0.0126146
0.0126146
0.0126146
0.0126146
0.0126146
0.0126146
0.0126146
0.0126146
0.0126146
0.0126146
0.0126146
0.0126146
0.0126146
0.0126146
0.0126146
0.0126146
0.0126146
0.0126146
0.0126146
0.0126146
0.0126146
0.0126146
0.0126146
0.0126146
0.0126146
0.0126146
0.0126146
0.0126146
0.0126146
0.0126146
0.0126146
0.0126146
0.0126146
0.0126146
0.0126146
0.0126146
0.0126146
0.0126146
0.0126146
0.0126146
0.0126146
0.0126146
0.0126146
0.0126146
0.0126146
0.0126146
0.0126146
0.0126146
0.0126146
0.0126146
0.0126146
0.0126146
0.0126146
0.0126146
0.0126146
0.0126146
0.0126146
0.0126146
0.0126146
0.0126146
0.0126146
0.0126146
0.0126146
0.0126146
0.0126146
0.0126146
0.0126146
0.0126146
0.0126146
0.0126146
0.0126146
0.0126146
0.0126146
0.0126146
0.0126146
0.0126146
0.0126146
0.0126146
0.0126146
0.0126146
0.0126146
0.0126146
0.0126146
0.0126146
0.0126146
0.0126146
0.0126146
0.0126146
0.0126146
0.0126146
0.0126146
0.0126146
0.0126146
0.0126146
0.0126146
0.0126146
0.0126146
0.0126146
0.0126146
0.0126146
0.0126146
0.0126146
0.0126146
0.0126146
0.0126146
0.0126146
0.0126146
0.0126146
0.0126146
0.0126146
0.0126146
0.0126146
0.0126146
0.0126146
0.0126146
0.0126146
0.0126146
0.0126146
0.0126146
0.0126146
0.0126146
0.0126146
0.0126146
0.0126146
0.0126146
0.0126146
0.0126146
0.0126146
0.0126146
0.0126146
0.0126146
0.0126146
0.0126146
0.0126146
0.0126146
0.0126146
0.0126146
0.0126146
0.0126146
0.0126146
0.0126146
0.0126146
0.0126146
0.0126146
0.0126146
0.0126146
0.0126146
0.0126146
0.0126146
0.0126146
0.0126146
0.0126146
0.0126146
0.0126146
0.0126146
0.0126146
0.0126146
0.0126146
0.0126146
0.0126146
0.0126146
0.0126146
0.0126146
0.0126146
0.0126146
0.0126146
0.0126146
0.0126146
0.0126146
0.0126146
0.0126146
0.0126146
0.0126146
0.0126146
0.0126146
0.0126146
0.0126146
0.0126146
0.0126146
0.0126146
0.0126146
0.0126146
0.0126146
0.0126146
0.0126146
0.0126146
0.0126146
0.0126146
0.0126146
0.0126146
0.0126146
0.0126146
0.0126146
0.0126146
0.0126146
0.0126146
0.0126146
0.0126146
0.0126146
0.0126146
0.0126146
0.0126146
0.0126146
0.00109024
0.00173576
0.00283457
0.00414382
0.00556043
0.00669444
0.00758402
0.00822216
0.00868434
0.009047
0.00932951
0.00957771
0.0097904
0.00998963
0.0101729
0.0103441
0.0105092
0.0106664
0.0108194
0.0109658
0.0111051
0.0112378
0.0113615
0.0114751
0.0115745
0.0116469
0.0116899
0.0117125
0.0117219
0.0117229
0.0117188
0.0117116
0.011703
0.0116939
0.0116851
0.0116769
0.0116695
0.0116631
0.0116576
0.011653
0.0116491
0.0116458
0.0116432
0.011641
0.0116392
0.0116377
0.0116365
0.0116355
0.0116348
0.0116342
0.0116338
0.0116334
0.0116332
0.0116329
0.0116328
0.0116326
0.0116325
0.0116324
0.0116324
0.0116323
0.0116323
0.0116322
0.0116322
0.0116321
0.0116321
0.0116321
0.0116321
0.0116321
0.011632
0.011632
0.011632
0.011632
0.011632
0.011632
0.011632
0.011632
0.011632
0.011632
0.011632
0.011632
0.011632
0.011632
0.011632
0.011632
0.011632
0.011632
0.011632
0.011632
0.011632
0.011632
0.011632
0.0116319
0.0116319
0.0116319
0.0116319
0.0116319
0.0116319
0.0116319
0.0116319
0.0116319
0.0116319
0.0116319
0.0116319
0.0116319
0.0116319
0.0116319
0.0116319
0.0116319
0.0116319
0.0116319
0.0116319
0.0116319
0.0116319
0.0116319
0.0116319
0.0116319
0.0116319
0.0116319
0.0116319
0.0116319
0.0116319
0.0116319
0.0116319
0.0116319
0.0116319
0.0116319
0.0116319
0.0116319
0.0116319
0.0116319
0.0116319
0.0116319
0.0116319
0.0116319
0.0116319
0.0116319
0.0116319
0.0116319
0.0116319
0.0116319
0.0116319
0.0116319
0.0116319
0.0116319
0.0116319
0.0116319
0.0116319
0.0116319
0.0116319
0.0116319
0.0116319
0.0116319
0.0116319
0.0116319
0.0116319
0.0116319
0.0116319
0.0116319
0.0116319
0.0116319
0.0116319
0.0116319
0.0116319
0.0116319
0.0116319
0.0116319
0.0116319
0.0116319
0.0116319
0.0116319
0.0116319
0.0116319
0.0116319
0.0116319
0.0116319
0.0116319
0.0116319
0.0116319
0.0116319
0.0116319
0.0116319
0.0116319
0.0116319
0.0116319
0.0116319
0.0116319
0.0116319
0.0116319
0.0116319
0.0116319
0.0116319
0.0116319
0.0116319
0.0116319
0.0116319
0.0116319
0.0116319
0.0116319
0.0116319
0.0116319
0.0116319
0.0116319
0.0116319
0.0116319
0.0116319
0.0116319
0.0116319
0.0116319
0.0116319
0.0116319
0.0116319
0.0116319
0.0116319
0.0116319
0.0116319
0.0116319
0.0116319
0.0116319
0.0116319
0.0116319
0.0116319
0.0116319
0.0116319
0.0116319
0.0116319
0.0116319
0.0116319
0.0116319
0.0116319
0.0116319
0.0116319
0.0116319
0.0116319
0.0116319
0.0116319
0.0116319
0.0116319
0.0116319
0.0116319
0.0116319
0.0116319
0.0116319
0.0116319
0.0116319
0.0116319
0.0116319
0.0116319
0.0116319
0.0116319
0.0116319
0.0116319
0.0116319
0.0116319
0.0116319
0.0116319
0.0116319
0.0116319
0.0116319
0.0116319
0.0116319
0.0116319
0.0116319
0.0116319
0.0116319
0.0116319
0.0116319
0.0116319
0.0116319
0.0116319
0.0116319
0.0116319
0.0116319
0.0116319
0.0116319
0.0116319
0.0116319
0.0116319
0.0116319
0.0116319
0.0116319
0.0116319
0.0116319
0.0116319
0.0116319
0.0116319
0.0116319
0.0116319
0.0116319
0.0116319
0.0116319
0.0116319
0.0116319
0.0116319
0.0116319
0.0116319
0.0116319
0.0116319
0.0116319
0.0116319
0.0116319
0.00087089
0.00113579
0.00166547
0.00253296
0.0037038
0.00479956
0.00583595
0.00666633
0.00732939
0.0078433
0.00824319
0.00857662
0.00885499
0.0091031
0.00932344
0.00952583
0.00971485
0.00989076
0.0100582
0.0102147
0.0103609
0.0104975
0.0106213
0.010731
0.0108187
0.0108733
0.0109005
0.0109089
0.0109052
0.0108941
0.0108788
0.0108617
0.0108442
0.0108273
0.0108117
0.0107976
0.0107853
0.0107745
0.0107654
0.0107576
0.0107511
0.0107456
0.0107411
0.0107373
0.0107341
0.0107315
0.0107293
0.0107276
0.0107262
0.0107251
0.0107241
0.0107234
0.0107228
0.0107223
0.0107218
0.0107215
0.0107212
0.0107209
0.0107207
0.0107206
0.0107204
0.0107203
0.0107202
0.0107201
0.01072
0.0107199
0.0107199
0.0107198
0.0107198
0.0107197
0.0107197
0.0107197
0.0107196
0.0107196
0.0107196
0.0107196
0.0107196
0.0107196
0.0107195
0.0107195
0.0107195
0.0107195
0.0107195
0.0107195
0.0107195
0.0107195
0.0107195
0.0107195
0.0107195
0.0107195
0.0107195
0.0107195
0.0107195
0.0107195
0.0107195
0.0107195
0.0107195
0.0107195
0.0107195
0.0107195
0.0107195
0.0107195
0.0107195
0.0107195
0.0107195
0.0107195
0.0107195
0.0107195
0.0107195
0.0107195
0.0107195
0.0107195
0.0107195
0.0107195
0.0107195
0.0107195
0.0107195
0.0107195
0.0107195
0.0107195
0.0107195
0.0107195
0.0107195
0.0107195
0.0107195
0.0107195
0.0107195
0.0107195
0.0107195
0.0107195
0.0107195
0.0107195
0.0107195
0.0107195
0.0107195
0.0107195
0.0107195
0.0107195
0.0107195
0.0107195
0.0107195
0.0107195
0.0107195
0.0107195
0.0107195
0.0107195
0.0107195
0.0107195
0.0107195
0.0107195
0.0107195
0.0107195
0.0107195
0.0107195
0.0107195
0.0107195
0.0107195
0.0107195
0.0107195
0.0107195
0.0107195
0.0107195
0.0107195
0.0107195
0.0107195
0.0107195
0.0107195
0.0107195
0.0107195
0.0107195
0.0107195
0.0107195
0.0107195
0.0107195
0.0107195
0.0107195
0.0107195
0.0107195
0.0107195
0.0107195
0.0107195
0.0107195
0.0107195
0.0107195
0.0107195
0.0107195
0.0107195
0.0107195
0.0107195
0.0107195
0.0107195
0.0107195
0.0107195
0.0107195
0.0107195
0.0107195
0.0107195
0.0107195
0.0107195
0.0107195
0.0107195
0.0107195
0.0107195
0.0107195
0.0107195
0.0107195
0.0107195
0.0107195
0.0107195
0.0107195
0.0107195
0.0107195
0.0107195
0.0107195
0.0107195
0.0107195
0.0107195
0.0107195
0.0107195
0.0107195
0.0107195
0.0107195
0.0107195
0.0107195
0.0107195
0.0107195
0.0107195
0.0107195
0.0107195
0.0107195
0.0107195
0.0107195
0.0107195
0.0107195
0.0107195
0.0107195
0.0107195
0.0107195
0.0107195
0.0107195
0.0107195
0.0107195
0.0107195
0.0107195
0.0107195
0.0107195
0.0107195
0.0107195
0.0107195
0.0107195
0.0107195
0.0107195
0.0107195
0.0107195
0.0107195
0.0107195
0.0107195
0.0107195
0.0107195
0.0107195
0.0107195
0.0107195
0.0107195
0.0107195
0.0107195
0.0107195
0.0107195
0.0107195
0.0107195
0.0107195
0.0107195
0.0107195
0.0107195
0.0107195
0.0107195
0.0107195
0.0107195
0.0107195
0.0107195
0.0107195
0.0107195
0.0107195
0.0107195
0.0107195
0.0107195
0.0107195
0.0107195
0.0107195
0.0107195
0.0107195
0.0107195
0.0107195
0.0107195
0.0107195
0.0107195
0.0107195
0.0107195
0.0107195
0.0107195
0.0107195
0.000778804
0.000883513
0.00109315
0.00154751
0.00231903
0.00324525
0.00421221
0.00508797
0.00587426
0.00653011
0.00707051
0.00751145
0.00787573
0.00818959
0.00846058
0.00870287
0.00892306
0.00912476
0.00931139
0.009482
0.00963788
0.00977974
0.0099034
0.0100064
0.01008
0.0101204
0.0101358
0.0101339
0.010121
0.0101014
0.0100785
0.0100544
0.0100308
0.0100086
0.00998824
0.00997012
0.00995424
0.00994054
0.00992882
0.00991891
0.00991057
0.00990358
0.00989774
0.00989286
0.00988875
0.00988533
0.00988252
0.00988024
0.00987838
0.00987686
0.00987562
0.0098746
0.00987375
0.00987305
0.00987246
0.00987197
0.00987156
0.00987121
0.00987092
0.00987067
0.00987046
0.00987028
0.00987012
0.00986999
0.00986988
0.00986978
0.00986969
0.00986962
0.00986956
0.0098695
0.00986946
0.00986942
0.00986938
0.00986935
0.00986932
0.0098693
0.00986928
0.00986926
0.00986925
0.00986924
0.00986922
0.00986922
0.00986921
0.0098692
0.00986919
0.00986919
0.00986918
0.00986918
0.00986918
0.00986917
0.00986917
0.00986917
0.00986917
0.00986916
0.00986916
0.00986916
0.00986916
0.00986916
0.00986916
0.00986916
0.00986916
0.00986916
0.00986916
0.00986916
0.00986916
0.00986915
0.00986915
0.00986915
0.00986915
0.00986915
0.00986915
0.00986915
0.00986915
0.00986915
0.00986915
0.00986915
0.00986915
0.00986915
0.00986915
0.00986915
0.00986915
0.00986915
0.00986915
0.00986915
0.00986915
0.00986915
0.00986915
0.00986915
0.00986915
0.00986915
0.00986915
0.00986915
0.00986915
0.00986915
0.00986915
0.00986915
0.00986915
0.00986915
0.00986915
0.00986915
0.00986915
0.00986915
0.00986915
0.00986915
0.00986915
0.00986915
0.00986915
0.00986915
0.00986915
0.00986915
0.00986915
0.00986915
0.00986915
0.00986915
0.00986915
0.00986915
0.00986915
0.00986915
0.00986915
0.00986915
0.00986915
0.00986915
0.00986915
0.00986915
0.00986915
0.00986915
0.00986915
0.00986915
0.00986915
0.00986915
0.00986915
0.00986915
0.00986915
0.00986915
0.00986915
0.00986915
0.00986915
0.00986915
0.00986915
0.00986915
0.00986915
0.00986915
0.00986915
0.00986915
0.00986915
0.00986915
0.00986915
0.00986915
0.00986915
0.00986915
0.00986915
0.00986915
0.00986915
0.00986915
0.00986915
0.00986915
0.00986915
0.00986915
0.00986915
0.00986915
0.00986915
0.00986915
0.00986915
0.00986915
0.00986915
0.00986915
0.00986915
0.00986915
0.00986915
0.00986915
0.00986915
0.00986915
0.00986915
0.00986915
0.00986915
0.00986915
0.00986915
0.00986915
0.00986915
0.00986915
0.00986915
0.00986915
0.00986915
0.00986915
0.00986915
0.00986915
0.00986915
0.00986915
0.00986915
0.00986915
0.00986915
0.00986915
0.00986915
0.00986915
0.00986915
0.00986915
0.00986915
0.00986915
0.00986915
0.00986915
0.00986915
0.00986915
0.00986915
0.00986915
0.00986915
0.00986915
0.00986915
0.00986915
0.00986915
0.00986915
0.00986915
0.00986915
0.00986915
0.00986915
0.00986915
0.00986915
0.00986915
0.00986915
0.00986915
0.00986915
0.00986915
0.00986915
0.00986915
0.00986915
0.00986915
0.00986915
0.00986915
0.00986915
0.00986915
0.00986915
0.00986915
0.00986915
0.00986915
0.00986915
0.00986915
0.00986915
0.00986915
0.00986915
0.00986915
0.00986915
0.00986915
0.00986915
0.00986915
0.00986915
0.00986915
0.00986915
0.00986915
0.00986915
0.00986915
0.00986915
0.00986915
0.00986915
0.00986915
0.00986915
0.00986915
0.00986915
0.00986915
0.00986915
0.00986915
0.00986915
0.000741693
0.000784426
0.000858117
0.0010503
0.00145047
0.00209286
0.00288796
0.00369115
0.00446646
0.00517365
0.00580885
0.00635542
0.00682177
0.00721703
0.00755468
0.00784965
0.00811019
0.00834523
0.00855704
0.00874677
0.00891554
0.0090633
0.00918569
0.00927983
0.009342
0.0093765
0.00938612
0.00937928
0.00936183
0.00933824
0.0093117
0.00928446
0.009258
0.00923327
0.00921079
0.00919081
0.00917333
0.00915826
0.00914539
0.0091345
0.00912533
0.00911764
0.00911122
0.00910584
0.0091013
0.00909753
0.00909444
0.00909193
0.00908988
0.00908821
0.00908685
0.00908572
0.0090848
0.00908403
0.00908338
0.00908285
0.0090824
0.00908203
0.00908171
0.00908144
0.00908121
0.00908102
0.00908085
0.00908071
0.00908059
0.00908049
0.0090804
0.00908032
0.00908026
0.0090802
0.00908015
0.00908011
0.00908007
0.00908004
0.00908001
0.00907998
0.00907996
0.00907995
0.00907993
0.00907992
0.0090799
0.00907989
0.00907989
0.00907988
0.00907987
0.00907987
0.00907986
0.00907986
0.00907985
0.00907985
0.00907985
0.00907984
0.00907984
0.00907984
0.00907984
0.00907984
0.00907984
0.00907983
0.00907983
0.00907983
0.00907983
0.00907983
0.00907983
0.00907983
0.00907983
0.00907983
0.00907983
0.00907983
0.00907983
0.00907983
0.00907983
0.00907983
0.00907983
0.00907983
0.00907983
0.00907983
0.00907983
0.00907983
0.00907983
0.00907983
0.00907983
0.00907983
0.00907983
0.00907983
0.00907983
0.00907983
0.00907983
0.00907983
0.00907983
0.00907983
0.00907983
0.00907983
0.00907983
0.00907983
0.00907983
0.00907983
0.00907983
0.00907983
0.00907983
0.00907983
0.00907983
0.00907983
0.00907983
0.00907983
0.00907983
0.00907983
0.00907983
0.00907983
0.00907983
0.00907983
0.00907983
0.00907983
0.00907983
0.00907983
0.00907983
0.00907983
0.00907983
0.00907983
0.00907983
0.00907983
0.00907983
0.00907983
0.00907983
0.00907983
0.00907983
0.00907983
0.00907983
0.00907983
0.00907983
0.00907983
0.00907983
0.00907983
0.00907983
0.00907983
0.00907983
0.00907983
0.00907983
0.00907983
0.00907983
0.00907983
0.00907983
0.00907983
0.00907983
0.00907983
0.00907983
0.00907983
0.00907983
0.00907983
0.00907983
0.00907983
0.00907983
0.00907983
0.00907983
0.00907983
0.00907983
0.00907983
0.00907983
0.00907983
0.00907983
0.00907983
0.00907983
0.00907983
0.00907983
0.00907983
0.00907983
0.00907983
0.00907983
0.00907983
0.00907983
0.00907983
0.00907983
0.00907983
0.00907983
0.00907983
0.00907983
0.00907983
0.00907983
0.00907983
0.00907983
0.00907983
0.00907983
0.00907983
0.00907983
0.00907983
0.00907983
0.00907983
0.00907983
0.00907983
0.00907983
0.00907983
0.00907983
0.00907983
0.00907983
0.00907983
0.00907983
0.00907983
0.00907983
0.00907983
0.00907983
0.00907983
0.00907983
0.00907983
0.00907983
0.00907983
0.00907983
0.00907983
0.00907983
0.00907983
0.00907983
0.00907983
0.00907983
0.00907983
0.00907983
0.00907983
0.00907983
0.00907983
0.00907983
0.00907983
0.00907983
0.00907983
0.00907983
0.00907983
0.00907983
0.00907983
0.00907983
0.00907983
0.00907983
0.00907983
0.00907983
0.00907983
0.00907983
0.00907983
0.00907983
0.00907983
0.00907983
0.00907983
0.00907983
0.00907983
0.00907983
0.00907983
0.00907983
0.00907983
0.00907983
0.00907983
0.00907983
0.00907983
0.00907983
0.00907983
0.00907983
0.00907983
0.00907983
0.00907983
0.00907983
0.00907983
0.00907983
0.00907983
0.00907983
0.00907983
0.00907983
0.00907983
0.000727192
0.000746123
0.00077137
0.000841847
0.00101256
0.00136367
0.00190027
0.00255203
0.00325287
0.0039224
0.00456613
0.00515686
0.00569312
0.00616695
0.0065824
0.00694276
0.00725451
0.00753067
0.00777377
0.00798791
0.00817297
0.00832738
0.00844884
0.00853749
0.00859956
0.00863711
0.00864805
0.00864225
0.00862582
0.00860326
0.00857773
0.00855144
0.00852585
0.0085019
0.00848009
0.00846069
0.00844371
0.00842907
0.00841656
0.00840599
0.00839708
0.00838963
0.00838341
0.00837818
0.00837379
0.00837015
0.00836718
0.00836479
0.00836285
0.00836128
0.00836
0.00835896
0.00835811
0.00835741
0.00835683
0.00835635
0.00835596
0.00835563
0.00835535
0.00835512
0.00835493
0.00835477
0.00835463
0.00835451
0.00835441
0.00835432
0.00835425
0.00835419
0.00835413
0.00835409
0.00835405
0.00835401
0.00835398
0.00835395
0.00835393
0.00835391
0.0083539
0.00835388
0.00835387
0.00835386
0.00835385
0.00835384
0.00835383
0.00835383
0.00835382
0.00835381
0.00835381
0.00835381
0.0083538
0.0083538
0.0083538
0.0083538
0.0083538
0.00835379
0.00835379
0.00835379
0.00835379
0.00835379
0.00835379
0.00835379
0.00835379
0.00835379
0.00835379
0.00835379
0.00835379
0.00835379
0.00835379
0.00835379
0.00835379
0.00835379
0.00835379
0.00835379
0.00835379
0.00835379
0.00835379
0.00835379
0.00835379
0.00835379
0.00835379
0.00835379
0.00835379
0.00835379
0.00835379
0.00835379
0.00835379
0.00835379
0.00835379
0.00835379
0.00835379
0.00835379
0.00835379
0.00835378
0.00835378
0.00835378
0.00835378
0.00835378
0.00835378
0.00835378
0.00835378
0.00835378
0.00835378
0.00835378
0.00835378
0.00835378
0.00835378
0.00835378