/*--------------------------------*- C++ -*----------------------------------*\
| =========                 |                                                 |
| \\      /  F ield         | foam-extend: Open Source CFD                    |
|  \\    /   O peration     | Version:     3.2                                |
|   \\  /    A nd           | Web:         http://www.foam-extend.org         |
|    \\/     M anipulation  | For copyright notice see file Copyright         |
\*---------------------------------------------------------------------------*/
FoamFile
{
    version     2.0;
    format      ascii;
    class       volScalarField;
    location    "79";
    object      nut;
}
// * * * * * * * * * * * * * * * * * * * * * * * * * * * * * * * * * * * * * //

dimensions      [0 2 -1 0 0 0 0];

internalField   nonuniform List<scalar> 
5400
(
3.28997e-05
2.61953e-05
2.24671e-05
2.25051e-05
2.21439e-05
2.21433e-05
2.19664e-05
2.1958e-05
2.18946e-05
2.19187e-05
2.19244e-05
2.19657e-05
2.20073e-05
2.20732e-05
2.21348e-05
2.22127e-05
2.22917e-05
2.23802e-05
2.24676e-05
2.25635e-05
2.2664e-05
2.27676e-05
2.28736e-05
2.29809e-05
2.30889e-05
2.31983e-05
2.32999e-05
2.33889e-05
2.34636e-05
2.35264e-05
2.35783e-05
2.36217e-05
2.36576e-05
2.36875e-05
2.37122e-05
2.37329e-05
2.37501e-05
2.37646e-05
2.37767e-05
2.37869e-05
2.37955e-05
2.38028e-05
2.3809e-05
2.38143e-05
2.38189e-05
2.38227e-05
2.38259e-05
2.38286e-05
2.3831e-05
2.38331e-05
2.38349e-05
2.38364e-05
2.38378e-05
2.3839e-05
2.384e-05
2.38409e-05
2.38417e-05
2.38424e-05
2.3843e-05
2.38435e-05
2.3844e-05
2.38443e-05
2.38447e-05
2.3845e-05
2.38452e-05
2.38454e-05
2.38456e-05
2.38458e-05
2.38459e-05
2.38461e-05
2.38462e-05
2.38463e-05
2.38463e-05
2.38464e-05
2.38465e-05
2.38465e-05
2.38466e-05
2.38466e-05
2.38466e-05
2.38467e-05
2.38467e-05
2.38467e-05
2.38467e-05
2.38467e-05
2.38468e-05
2.38468e-05
2.38468e-05
2.38468e-05
2.38468e-05
2.38468e-05
2.38468e-05
2.38468e-05
2.38468e-05
2.38468e-05
2.38468e-05
2.38468e-05
2.38468e-05
2.38468e-05
2.38468e-05
2.38468e-05
2.38468e-05
2.38468e-05
2.38468e-05
2.38468e-05
2.38468e-05
2.38468e-05
2.38468e-05
2.38468e-05
2.38468e-05
2.38468e-05
2.38468e-05
2.38468e-05
2.38468e-05
2.38468e-05
2.38468e-05
2.38468e-05
2.38468e-05
2.38468e-05
2.38468e-05
2.38468e-05
2.38468e-05
2.38468e-05
2.38468e-05
2.38468e-05
2.38468e-05
2.38468e-05
2.38468e-05
2.38468e-05
2.38468e-05
2.38468e-05
2.38468e-05
2.38468e-05
2.38468e-05
2.38468e-05
2.38468e-05
2.38468e-05
2.38468e-05
2.38468e-05
2.38468e-05
2.38468e-05
2.38468e-05
2.38468e-05
2.38468e-05
2.38468e-05
2.38468e-05
2.38468e-05
2.38468e-05
2.38468e-05
2.38468e-05
2.38468e-05
2.38468e-05
2.38468e-05
2.38468e-05
2.38468e-05
2.38468e-05
2.38468e-05
2.38468e-05
2.38468e-05
2.38468e-05
2.38468e-05
2.38468e-05
2.38468e-05
2.38468e-05
2.38468e-05
2.38468e-05
2.38468e-05
2.38468e-05
2.38468e-05
2.38468e-05
2.38468e-05
2.38468e-05
2.38468e-05
2.38468e-05
2.38468e-05
2.38468e-05
2.38468e-05
2.38468e-05
2.38468e-05
2.38468e-05
2.38468e-05
2.38468e-05
2.38468e-05
2.38468e-05
2.38468e-05
2.38468e-05
2.38468e-05
2.38468e-05
2.38468e-05
2.38468e-05
2.38468e-05
2.38468e-05
2.38468e-05
2.38468e-05
2.38468e-05
2.38468e-05
2.38468e-05
2.38468e-05
2.38468e-05
2.38468e-05
2.38468e-05
2.38468e-05
2.38468e-05
2.38468e-05
2.38468e-05
2.38468e-05
2.38468e-05
2.38468e-05
2.38468e-05
2.38468e-05
2.38468e-05
2.38468e-05
2.38468e-05
2.38468e-05
2.38468e-05
2.38468e-05
2.38468e-05
2.38468e-05
2.38468e-05
2.38468e-05
2.38468e-05
2.38468e-05
2.38468e-05
2.38468e-05
2.38468e-05
2.38468e-05
2.38468e-05
2.38468e-05
2.38468e-05
2.38468e-05
2.38468e-05
2.38468e-05
2.38468e-05
2.38468e-05
2.38468e-05
2.38468e-05
2.38468e-05
2.38468e-05
2.38468e-05
2.38468e-05
2.38468e-05
2.38468e-05
2.38468e-05
2.38468e-05
2.38468e-05
2.38468e-05
2.38468e-05
2.38468e-05
2.38468e-05
2.38468e-05
2.38468e-05
2.38468e-05
2.38468e-05
2.38468e-05
2.38468e-05
2.38468e-05
2.38468e-05
2.38468e-05
2.38468e-05
2.38468e-05
2.38468e-05
2.38468e-05
2.38468e-05
2.38468e-05
2.38468e-05
2.38468e-05
2.38468e-05
2.38468e-05
2.38468e-05
2.38468e-05
2.38468e-05
2.38468e-05
2.38468e-05
2.38468e-05
2.38468e-05
2.38468e-05
2.38468e-05
2.38468e-05
2.38468e-05
2.38468e-05
2.38468e-05
2.38468e-05
2.38468e-05
2.38468e-05
2.38468e-05
2.38468e-05
2.38468e-05
2.38468e-05
2.38468e-05
2.38468e-05
2.38468e-05
2.38468e-05
2.38468e-05
2.38468e-05
2.38468e-05
2.38468e-05
2.38468e-05
2.38468e-05
2.38468e-05
2.38469e-05
2.38468e-05
3.13089e-05
4.16987e-05
4.53696e-05
4.81185e-05
4.98853e-05
5.07396e-05
5.13841e-05
5.17724e-05
5.21772e-05
5.24909e-05
5.2808e-05
5.31135e-05
5.34153e-05
5.37286e-05
5.40296e-05
5.43314e-05
5.46363e-05
5.49395e-05
5.52464e-05
5.55515e-05
5.5853e-05
5.61512e-05
5.6444e-05
5.67286e-05
5.70034e-05
5.72554e-05
5.74707e-05
5.76422e-05
5.77756e-05
5.78784e-05
5.79582e-05
5.80201e-05
5.80687e-05
5.81071e-05
5.81379e-05
5.81628e-05
5.81832e-05
5.82e-05
5.82141e-05
5.82259e-05
5.82359e-05
5.82444e-05
5.82517e-05
5.8258e-05
5.82634e-05
5.82681e-05
5.82721e-05
5.82755e-05
5.82786e-05
5.82813e-05
5.82837e-05
5.82858e-05
5.82877e-05
5.82894e-05
5.82909e-05
5.82922e-05
5.82933e-05
5.82943e-05
5.82952e-05
5.82959e-05
5.82966e-05
5.82972e-05
5.82977e-05
5.82981e-05
5.82985e-05
5.82988e-05
5.82991e-05
5.82994e-05
5.82996e-05
5.82998e-05
5.82999e-05
5.83001e-05
5.83002e-05
5.83003e-05
5.83004e-05
5.83004e-05
5.83005e-05
5.83006e-05
5.83006e-05
5.83006e-05
5.83007e-05
5.83007e-05
5.83007e-05
5.83008e-05
5.83008e-05
5.83008e-05
5.83008e-05
5.83008e-05
5.83008e-05
5.83008e-05
5.83009e-05
5.83009e-05
5.83009e-05
5.83009e-05
5.83009e-05
5.83009e-05
5.83009e-05
5.83009e-05
5.83009e-05
5.83009e-05
5.83009e-05
5.83009e-05
5.83009e-05
5.83009e-05
5.83009e-05
5.83009e-05
5.83009e-05
5.83009e-05
5.83009e-05
5.83009e-05
5.83009e-05
5.83009e-05
5.83009e-05
5.83009e-05
5.83009e-05
5.83009e-05
5.83009e-05
5.83009e-05
5.83009e-05
5.83009e-05
5.83009e-05
5.83009e-05
5.83009e-05
5.83009e-05
5.83009e-05
5.83009e-05
5.83009e-05
5.83009e-05
5.83009e-05
5.83009e-05
5.83009e-05
5.83009e-05
5.83009e-05
5.83009e-05
5.83009e-05
5.83009e-05
5.83009e-05
5.83009e-05
5.83009e-05
5.83009e-05
5.83009e-05
5.83009e-05
5.83009e-05
5.83009e-05
5.83009e-05
5.83009e-05
5.83009e-05
5.83009e-05
5.83009e-05
5.83009e-05
5.83009e-05
5.83009e-05
5.83009e-05
5.83009e-05
5.83009e-05
5.83009e-05
5.83009e-05
5.83009e-05
5.83009e-05
5.83009e-05
5.83009e-05
5.83009e-05
5.83009e-05
5.83009e-05
5.83009e-05
5.83009e-05
5.83009e-05
5.83009e-05
5.83009e-05
5.83009e-05
5.83009e-05
5.83009e-05
5.83009e-05
5.83009e-05
5.83009e-05
5.83009e-05
5.83009e-05
5.83009e-05
5.83009e-05
5.83009e-05
5.83009e-05
5.83009e-05
5.83009e-05
5.83009e-05
5.83009e-05
5.83009e-05
5.83009e-05
5.83009e-05
5.83009e-05
5.83009e-05
5.83009e-05
5.83009e-05
5.83009e-05
5.83009e-05
5.83009e-05
5.83009e-05
5.83009e-05
5.83009e-05
5.83009e-05
5.83009e-05
5.83009e-05
5.83009e-05
5.83009e-05
5.83009e-05
5.83009e-05
5.83009e-05
5.83009e-05
5.83009e-05
5.83009e-05
5.83009e-05
5.83009e-05
5.83009e-05
5.83009e-05
5.83009e-05
5.83009e-05
5.83009e-05
5.83009e-05
5.83009e-05
5.83009e-05
5.83009e-05
5.83009e-05
5.83009e-05
5.83009e-05
5.83009e-05
5.83009e-05
5.83009e-05
5.83009e-05
5.83009e-05
5.83009e-05
5.83009e-05
5.83009e-05
5.83009e-05
5.83009e-05
5.83009e-05
5.83009e-05
5.83009e-05
5.83009e-05
5.83009e-05
5.83009e-05
5.83009e-05
5.83009e-05
5.83009e-05
5.83009e-05
5.83009e-05
5.83009e-05
5.83009e-05
5.83009e-05
5.83009e-05
5.83009e-05
5.83009e-05
5.83009e-05
5.83009e-05
5.83009e-05
5.83009e-05
5.83009e-05
5.83009e-05
5.83009e-05
5.83009e-05
5.83009e-05
5.83009e-05
5.83009e-05
5.83009e-05
5.83009e-05
5.83009e-05
5.83009e-05
5.83009e-05
5.83009e-05
5.83009e-05
5.83009e-05
5.83009e-05
5.83009e-05
5.83009e-05
5.83009e-05
5.83009e-05
5.83009e-05
5.83009e-05
5.83009e-05
5.83009e-05
5.83009e-05
5.83009e-05
5.83009e-05
5.83009e-05
5.83009e-05
5.83009e-05
5.83009e-05
5.83009e-05
5.83009e-05
5.83009e-05
5.83009e-05
5.83009e-05
5.83009e-05
5.83009e-05
5.83009e-05
5.83009e-05
5.83009e-05
5.83009e-05
5.83009e-05
5.83009e-05
5.83009e-05
5.83008e-05
2.8509e-05
4.53221e-05
5.33723e-05
6.23143e-05
6.91946e-05
7.26419e-05
7.49228e-05
7.67532e-05
7.81501e-05
7.93956e-05
8.0404e-05
8.13495e-05
8.22075e-05
8.2998e-05
8.37558e-05
8.44625e-05
8.51456e-05
8.58076e-05
8.64463e-05
8.70637e-05
8.76573e-05
8.82276e-05
8.87712e-05
8.92843e-05
8.97661e-05
9.01857e-05
9.05006e-05
9.07245e-05
9.08811e-05
9.09907e-05
9.10667e-05
9.11193e-05
9.11553e-05
9.11801e-05
9.11971e-05
9.12092e-05
9.1218e-05
9.12248e-05
9.12303e-05
9.1235e-05
9.12391e-05
9.12429e-05
9.12464e-05
9.12498e-05
9.12528e-05
9.12555e-05
9.1258e-05
9.12603e-05
9.12626e-05
9.12648e-05
9.12668e-05
9.12687e-05
9.12705e-05
9.12721e-05
9.12735e-05
9.12747e-05
9.12759e-05
9.12769e-05
9.12777e-05
9.12785e-05
9.12792e-05
9.12798e-05
9.12803e-05
9.12807e-05
9.12811e-05
9.12815e-05
9.12817e-05
9.1282e-05
9.12822e-05
9.12824e-05
9.12826e-05
9.12827e-05
9.12828e-05
9.12829e-05
9.1283e-05
9.12831e-05
9.12832e-05
9.12832e-05
9.12833e-05
9.12833e-05
9.12833e-05
9.12834e-05
9.12834e-05
9.12834e-05
9.12834e-05
9.12835e-05
9.12835e-05
9.12835e-05
9.12835e-05
9.12835e-05
9.12835e-05
9.12835e-05
9.12835e-05
9.12835e-05
9.12835e-05
9.12835e-05
9.12835e-05
9.12835e-05
9.12835e-05
9.12835e-05
9.12835e-05
9.12835e-05
9.12835e-05
9.12835e-05
9.12835e-05
9.12835e-05
9.12835e-05
9.12835e-05
9.12835e-05
9.12836e-05
9.12836e-05
9.12836e-05
9.12836e-05
9.12836e-05
9.12836e-05
9.12836e-05
9.12836e-05
9.12836e-05
9.12836e-05
9.12836e-05
9.12836e-05
9.12836e-05
9.12836e-05
9.12836e-05
9.12836e-05
9.12836e-05
9.12836e-05
9.12836e-05
9.12836e-05
9.12836e-05
9.12836e-05
9.12836e-05
9.12836e-05
9.12836e-05
9.12836e-05
9.12836e-05
9.12836e-05
9.12836e-05
9.12836e-05
9.12836e-05
9.12836e-05
9.12836e-05
9.12836e-05
9.12836e-05
9.12836e-05
9.12836e-05
9.12836e-05
9.12836e-05
9.12836e-05
9.12836e-05
9.12836e-05
9.12836e-05
9.12836e-05
9.12836e-05
9.12836e-05
9.12836e-05
9.12836e-05
9.12836e-05
9.12836e-05
9.12836e-05
9.12836e-05
9.12836e-05
9.12836e-05
9.12836e-05
9.12836e-05
9.12836e-05
9.12836e-05
9.12836e-05
9.12836e-05
9.12836e-05
9.12836e-05
9.12836e-05
9.12836e-05
9.12836e-05
9.12836e-05
9.12836e-05
9.12836e-05
9.12836e-05
9.12836e-05
9.12836e-05
9.12836e-05
9.12836e-05
9.12836e-05
9.12836e-05
9.12836e-05
9.12836e-05
9.12836e-05
9.12836e-05
9.12836e-05
9.12836e-05
9.12836e-05
9.12836e-05
9.12836e-05
9.12836e-05
9.12836e-05
9.12836e-05
9.12836e-05
9.12836e-05
9.12836e-05
9.12836e-05
9.12836e-05
9.12836e-05
9.12836e-05
9.12836e-05
9.12836e-05
9.12836e-05
9.12836e-05
9.12836e-05
9.12836e-05
9.12836e-05
9.12836e-05
9.12836e-05
9.12836e-05
9.12836e-05
9.12836e-05
9.12836e-05
9.12836e-05
9.12836e-05
9.12836e-05
9.12836e-05
9.12836e-05
9.12836e-05
9.12836e-05
9.12836e-05
9.12836e-05
9.12836e-05
9.12836e-05
9.12836e-05
9.12836e-05
9.12836e-05
9.12836e-05
9.12836e-05
9.12836e-05
9.12836e-05
9.12836e-05
9.12836e-05
9.12836e-05
9.12836e-05
9.12836e-05
9.12836e-05
9.12836e-05
9.12836e-05
9.12836e-05
9.12836e-05
9.12836e-05
9.12836e-05
9.12836e-05
9.12836e-05
9.12836e-05
9.12836e-05
9.12836e-05
9.12836e-05
9.12836e-05
9.12836e-05
9.12836e-05
9.12836e-05
9.12836e-05
9.12836e-05
9.12836e-05
9.12836e-05
9.12836e-05
9.12836e-05
9.12836e-05
9.12836e-05
9.12836e-05
9.12836e-05
9.12836e-05
9.12836e-05
9.12836e-05
9.12836e-05
9.12836e-05
9.12836e-05
9.12836e-05
9.12836e-05
9.12836e-05
9.12836e-05
9.12836e-05
9.12836e-05
9.12836e-05
9.12836e-05
9.12836e-05
9.12836e-05
9.12836e-05
9.12836e-05
9.12836e-05
9.12836e-05
9.12836e-05
9.12836e-05
9.12836e-05
9.12836e-05
9.12836e-05
9.12836e-05
9.12836e-05
9.12836e-05
9.12836e-05
9.12836e-05
9.12836e-05
9.12836e-05
9.12835e-05
9.12835e-05
2.69991e-05
3.92626e-05
4.9852e-05
6.30565e-05
7.43327e-05
8.25709e-05
8.91204e-05
9.32283e-05
9.6504e-05
9.93117e-05
0.000101624
0.000103675
0.000105484
0.000107129
0.000108639
0.000110015
0.000111311
0.00011253
0.000113681
0.000114769
0.000115793
0.000116755
0.00011765
0.000118476
0.000119229
0.000119854
0.000120298
0.000120596
0.000120787
0.000120906
0.000120975
0.00012101
0.000121024
0.000121025
0.000121018
0.000121007
0.000120996
0.000120985
0.000120975
0.000120967
0.000120961
0.000120956
0.000120952
0.00012095
0.000120948
0.000120947
0.000120946
0.000120946
0.000120947
0.000120948
0.000120949
0.00012095
0.000120951
0.000120953
0.000120954
0.000120955
0.000120956
0.000120957
0.000120958
0.000120958
0.000120959
0.000120959
0.00012096
0.00012096
0.000120961
0.000120961
0.000120961
0.000120962
0.000120962
0.000120962
0.000120962
0.000120962
0.000120962
0.000120962
0.000120963
0.000120963
0.000120963
0.000120963
0.000120963
0.000120963
0.000120963
0.000120963
0.000120963
0.000120963
0.000120963
0.000120963
0.000120963
0.000120963
0.000120963
0.000120963
0.000120963
0.000120963
0.000120963
0.000120963
0.000120963
0.000120963
0.000120963
0.000120963
0.000120963
0.000120963
0.000120963
0.000120963
0.000120963
0.000120963
0.000120963
0.000120963
0.000120963
0.000120963
0.000120963
0.000120963
0.000120963
0.000120963
0.000120963
0.000120963
0.000120963
0.000120963
0.000120963
0.000120963
0.000120963
0.000120963
0.000120963
0.000120963
0.000120963
0.000120963
0.000120963
0.000120963
0.000120963
0.000120963
0.000120963
0.000120963
0.000120963
0.000120963
0.000120963
0.000120963
0.000120963
0.000120963
0.000120963
0.000120963
0.000120963
0.000120963
0.000120963
0.000120963
0.000120963
0.000120963
0.000120963
0.000120963
0.000120963
0.000120963
0.000120963
0.000120963
0.000120963
0.000120963
0.000120963
0.000120963
0.000120963
0.000120963
0.000120963
0.000120963
0.000120963
0.000120963
0.000120963
0.000120963
0.000120963
0.000120963
0.000120963
0.000120963
0.000120963
0.000120963
0.000120963
0.000120963
0.000120963
0.000120963
0.000120963
0.000120963
0.000120963
0.000120963
0.000120963
0.000120963
0.000120963
0.000120963
0.000120963
0.000120963
0.000120963
0.000120963
0.000120963
0.000120963
0.000120963
0.000120963
0.000120963
0.000120963
0.000120963
0.000120963
0.000120963
0.000120963
0.000120963
0.000120963
0.000120963
0.000120963
0.000120963
0.000120963
0.000120963
0.000120963
0.000120963
0.000120963
0.000120963
0.000120963
0.000120963
0.000120963
0.000120963
0.000120963
0.000120963
0.000120963
0.000120963
0.000120963
0.000120963
0.000120963
0.000120963
0.000120963
0.000120963
0.000120963
0.000120963
0.000120963
0.000120963
0.000120963
0.000120963
0.000120963
0.000120963
0.000120963
0.000120963
0.000120963
0.000120963
0.000120963
0.000120963
0.000120963
0.000120963
0.000120963
0.000120963
0.000120963
0.000120963
0.000120963
0.000120963
0.000120963
0.000120963
0.000120963
0.000120963
0.000120963
0.000120963
0.000120963
0.000120963
0.000120963
0.000120963
0.000120963
0.000120963
0.000120963
0.000120963
0.000120963
0.000120963
0.000120963
0.000120963
0.000120963
0.000120963
0.000120963
0.000120963
0.000120963
0.000120963
0.000120963
0.000120963
0.000120963
0.000120963
0.000120963
0.000120963
0.000120963
0.000120963
0.000120963
0.000120963
0.000120963
0.000120963
0.000120963
0.000120963
0.000120963
0.000120963
0.000120963
0.000120963
0.000120963
0.000120963
0.000120963
0.000120963
0.000120963
0.000120963
0.000120963
0.000120963
0.000120963
0.000120963
0.000120963
0.000120963
0.000120963
0.000120963
0.000120963
0.000120963
0.000120963
2.81567e-05
3.35502e-05
4.63405e-05
5.82837e-05
6.86827e-05
8.05324e-05
9.1011e-05
9.92492e-05
0.000106171
0.000111864
0.000115933
0.00011951
0.000122654
0.000125489
0.000128043
0.000130353
0.000132496
0.000134481
0.000136332
0.000138057
0.000139658
0.000141143
0.000142506
0.000143744
0.000144852
0.000145755
0.000146399
0.000146836
0.000147123
0.000147304
0.000147411
0.000147468
0.000147493
0.000147497
0.000147489
0.000147476
0.000147461
0.000147446
0.000147434
0.000147423
0.000147415
0.000147408
0.000147404
0.000147402
0.0001474
0.000147399
0.000147399
0.0001474
0.000147402
0.000147404
0.000147406
0.000147408
0.000147411
0.000147413
0.000147415
0.000147417
0.000147419
0.00014742
0.000147422
0.000147423
0.000147424
0.000147425
0.000147426
0.000147427
0.000147428
0.000147428
0.000147429
0.000147429
0.00014743
0.00014743
0.00014743
0.000147431
0.000147431
0.000147431
0.000147431
0.000147431
0.000147431
0.000147431
0.000147432
0.000147432
0.000147432
0.000147432
0.000147432
0.000147432
0.000147432
0.000147432
0.000147432
0.000147432
0.000147432
0.000147432
0.000147432
0.000147432
0.000147432
0.000147432
0.000147432
0.000147432
0.000147432
0.000147432
0.000147432
0.000147432
0.000147432
0.000147432
0.000147432
0.000147432
0.000147432
0.000147432
0.000147432
0.000147432
0.000147432
0.000147432
0.000147432
0.000147432
0.000147432
0.000147432
0.000147432
0.000147432
0.000147432
0.000147432
0.000147432
0.000147432
0.000147432
0.000147432
0.000147432
0.000147432
0.000147432
0.000147432
0.000147432
0.000147432
0.000147432
0.000147432
0.000147432
0.000147432
0.000147432
0.000147432
0.000147432
0.000147432
0.000147432
0.000147432
0.000147432
0.000147432
0.000147432
0.000147432
0.000147432
0.000147432
0.000147432
0.000147432
0.000147432
0.000147432
0.000147432
0.000147432
0.000147432
0.000147432
0.000147432
0.000147432
0.000147432
0.000147432
0.000147432
0.000147432
0.000147432
0.000147432
0.000147432
0.000147432
0.000147432
0.000147432
0.000147432
0.000147432
0.000147432
0.000147432
0.000147432
0.000147432
0.000147432
0.000147432
0.000147432
0.000147432
0.000147432
0.000147432
0.000147432
0.000147432
0.000147432
0.000147432
0.000147432
0.000147432
0.000147432
0.000147432
0.000147432
0.000147432
0.000147432
0.000147432
0.000147432
0.000147432
0.000147432
0.000147432
0.000147432
0.000147432
0.000147432
0.000147432
0.000147432
0.000147432
0.000147432
0.000147432
0.000147432
0.000147432
0.000147432
0.000147432
0.000147432
0.000147432
0.000147432
0.000147432
0.000147432
0.000147432
0.000147432
0.000147432
0.000147432
0.000147432
0.000147432
0.000147432
0.000147432
0.000147432
0.000147432
0.000147432
0.000147432
0.000147432
0.000147432
0.000147432
0.000147432
0.000147432
0.000147432
0.000147432
0.000147432
0.000147432
0.000147432
0.000147432
0.000147432
0.000147432
0.000147432
0.000147432
0.000147432
0.000147432
0.000147432
0.000147432
0.000147432
0.000147432
0.000147432
0.000147432
0.000147432
0.000147432
0.000147432
0.000147432
0.000147432
0.000147432
0.000147432
0.000147432
0.000147432
0.000147432
0.000147432
0.000147432
0.000147432
0.000147432
0.000147432
0.000147432
0.000147432
0.000147432
0.000147432
0.000147432
0.000147432
0.000147432
0.000147432
0.000147432
0.000147432
0.000147432
0.000147432
0.000147432
0.000147432
0.000147432
0.000147432
0.000147432
0.000147432
0.000147432
0.000147432
0.000147432
0.000147432
0.000147432
0.000147432
0.000147432
0.000147432
0.000147432
0.000147432
0.000147432
0.000147432
0.000147432
0.000147432
0.000147432
0.000147432
0.000147432
0.000147432
0.000147432
0.000147432
0.000147432
0.000147432
0.000147432
3.46388e-05
3.13152e-05
3.92349e-05
5.20572e-05
5.98459e-05
7.23447e-05
8.42452e-05
9.52709e-05
0.000105339
0.000113898
0.000121344
0.000127516
0.000133177
0.000137795
0.000141648
0.000145134
0.000148341
0.000151299
0.000154037
0.000156564
0.000158894
0.000161039
0.000162992
0.000164755
0.000166323
0.000167612
0.000168567
0.000169253
0.000169737
0.000170072
0.000170301
0.000170454
0.000170554
0.000170618
0.00017066
0.000170687
0.000170705
0.000170719
0.00017073
0.000170741
0.000170751
0.000170761
0.000170771
0.000170781
0.00017079
0.000170799
0.000170807
0.000170816
0.000170825
0.000170833
0.000170841
0.000170849
0.000170855
0.000170862
0.000170867
0.000170872
0.000170877
0.000170881
0.000170884
0.000170887
0.00017089
0.000170893
0.000170895
0.000170896
0.000170898
0.000170899
0.000170901
0.000170902
0.000170903
0.000170903
0.000170904
0.000170905
0.000170905
0.000170905
0.000170906
0.000170906
0.000170906
0.000170907
0.000170907
0.000170907
0.000170907
0.000170907
0.000170907
0.000170907
0.000170908
0.000170908
0.000170908
0.000170908
0.000170908
0.000170908
0.000170908
0.000170908
0.000170908
0.000170908
0.000170908
0.000170908
0.000170908
0.000170908
0.000170908
0.000170908
0.000170908
0.000170908
0.000170908
0.000170908
0.000170908
0.000170908
0.000170908
0.000170908
0.000170908
0.000170908
0.000170908
0.000170908
0.000170908
0.000170908
0.000170908
0.000170908
0.000170908
0.000170908
0.000170908
0.000170908
0.000170908
0.000170908
0.000170908
0.000170908
0.000170908
0.000170908
0.000170908
0.000170908
0.000170908
0.000170908
0.000170908
0.000170908
0.000170908
0.000170908
0.000170908
0.000170908
0.000170908
0.000170908
0.000170908
0.000170908
0.000170908
0.000170908
0.000170908
0.000170908
0.000170908
0.000170908
0.000170908
0.000170908
0.000170908
0.000170908
0.000170908
0.000170908
0.000170908
0.000170908
0.000170908
0.000170908
0.000170908
0.000170908
0.000170908
0.000170908
0.000170908
0.000170908
0.000170908
0.000170908
0.000170908
0.000170908
0.000170908
0.000170908
0.000170908
0.000170908
0.000170908
0.000170908
0.000170908
0.000170908
0.000170908
0.000170908
0.000170908
0.000170908
0.000170908
0.000170908
0.000170908
0.000170908
0.000170908
0.000170908
0.000170908
0.000170908
0.000170908
0.000170908
0.000170908
0.000170908
0.000170908
0.000170908
0.000170908
0.000170908
0.000170908
0.000170908
0.000170908
0.000170908
0.000170908
0.000170908
0.000170908
0.000170908
0.000170908
0.000170908
0.000170908
0.000170908
0.000170908
0.000170908
0.000170908
0.000170908
0.000170908
0.000170908
0.000170908
0.000170908
0.000170908
0.000170908
0.000170908
0.000170908
0.000170908
0.000170908
0.000170908
0.000170908
0.000170908
0.000170908
0.000170908
0.000170908
0.000170908
0.000170908
0.000170908
0.000170908
0.000170908
0.000170908
0.000170908
0.000170908
0.000170908
0.000170908
0.000170908
0.000170908
0.000170908
0.000170908
0.000170908
0.000170908
0.000170908
0.000170908
0.000170908
0.000170908
0.000170908
0.000170908
0.000170908
0.000170908
0.000170908
0.000170908
0.000170908
0.000170908
0.000170908
0.000170908
0.000170908
0.000170908
0.000170908
0.000170908
0.000170908
0.000170908
0.000170908
0.000170908
0.000170908
0.000170908
0.000170908
0.000170908
0.000170908
0.000170908
0.000170908
0.000170908
0.000170908
0.000170908
0.000170908
0.000170908
0.000170908
0.000170908
0.000170908
0.000170908
0.000170908
0.000170908
0.000170908
0.000170908
0.000170908
0.000170908
0.000170908
0.000170908
0.000170908
0.000170908
0.000170908
0.000170908
0.000170908
0.000170908
0.000170908
0.000170908
0.000170908
0.000170908
0.000170908
0.000170908
4.98333e-05
3.38484e-05
3.43528e-05
4.24876e-05
5.42791e-05
6.44665e-05
7.39668e-05
8.55899e-05
9.73391e-05
0.000107963
0.000118082
0.00012673
0.000134762
0.000141626
0.000147798
0.000153096
0.000157964
0.000162637
0.000166682
0.000170161
0.000173363
0.000176299
0.000178967
0.000181373
0.000183536
0.000185374
0.000186789
0.000187861
0.000188671
0.000189282
0.000189742
0.000190091
0.000190356
0.000190561
0.000190722
0.000190851
0.000190957
0.000191045
0.000191121
0.000191187
0.000191245
0.000191296
0.000191343
0.000191384
0.00019142
0.000191452
0.000191481
0.000191508
0.000191533
0.000191555
0.000191575
0.000191593
0.000191609
0.000191623
0.000191636
0.000191647
0.000191657
0.000191666
0.000191673
0.00019168
0.000191686
0.000191691
0.000191695
0.000191699
0.000191703
0.000191705
0.000191708
0.00019171
0.000191712
0.000191714
0.000191715
0.000191716
0.000191717
0.000191718
0.000191719
0.00019172
0.00019172
0.000191721
0.000191721
0.000191721
0.000191722
0.000191722
0.000191722
0.000191722
0.000191723
0.000191723
0.000191723
0.000191723
0.000191723
0.000191723
0.000191723
0.000191723
0.000191723
0.000191723
0.000191723
0.000191723
0.000191723
0.000191723
0.000191723
0.000191723
0.000191723
0.000191723
0.000191723
0.000191723
0.000191723
0.000191724
0.000191724
0.000191724
0.000191724
0.000191724
0.000191724
0.000191724
0.000191724
0.000191724
0.000191724
0.000191724
0.000191724
0.000191724
0.000191724
0.000191724
0.000191724
0.000191724
0.000191724
0.000191724
0.000191724
0.000191724
0.000191724
0.000191724
0.000191724
0.000191724
0.000191724
0.000191724
0.000191724
0.000191724
0.000191724
0.000191724
0.000191724
0.000191724
0.000191724
0.000191724
0.000191724
0.000191724
0.000191724
0.000191724
0.000191724
0.000191724
0.000191724
0.000191724
0.000191724
0.000191724
0.000191724
0.000191724
0.000191724
0.000191724
0.000191724
0.000191724
0.000191724
0.000191724
0.000191724
0.000191724
0.000191724
0.000191724
0.000191724
0.000191724
0.000191724
0.000191724
0.000191724
0.000191724
0.000191724
0.000191724
0.000191724
0.000191724
0.000191724
0.000191724
0.000191724
0.000191724
0.000191724
0.000191724
0.000191724
0.000191724
0.000191724
0.000191724
0.000191724
0.000191724
0.000191724
0.000191724
0.000191724
0.000191724
0.000191724
0.000191724
0.000191724
0.000191724
0.000191724
0.000191724
0.000191724
0.000191724
0.000191724
0.000191724
0.000191724
0.000191724
0.000191724
0.000191724
0.000191724
0.000191724
0.000191724
0.000191724
0.000191724
0.000191724
0.000191724
0.000191724
0.000191724
0.000191724
0.000191724
0.000191724
0.000191724
0.000191724
0.000191724
0.000191724
0.000191724
0.000191724
0.000191724
0.000191724
0.000191724
0.000191724
0.000191724
0.000191724
0.000191724
0.000191724
0.000191724
0.000191724
0.000191724
0.000191724
0.000191724
0.000191724
0.000191724
0.000191724
0.000191724
0.000191724
0.000191724
0.000191724
0.000191724
0.000191724
0.000191724
0.000191724
0.000191724
0.000191724
0.000191724
0.000191724
0.000191724
0.000191724
0.000191724
0.000191724
0.000191724
0.000191724
0.000191724
0.000191724
0.000191724
0.000191724
0.000191724
0.000191724
0.000191724
0.000191724
0.000191724
0.000191724
0.000191724
0.000191724
0.000191724
0.000191724
0.000191724
0.000191724
0.000191724
0.000191724
0.000191724
0.000191724
0.000191724
0.000191724
0.000191724
0.000191724
0.000191724
0.000191724
0.000191724
0.000191724
0.000191724
0.000191724
0.000191724
0.000191724
0.000191724
0.000191724
0.000191724
0.000191724
0.000191724
0.000191724
0.000191724
0.000191724
0.000191724
0.000191724
0.000191724
0.000191724
0.000191724
0.000191724
7.82308e-05
4.47865e-05
3.62482e-05
3.75115e-05
4.56158e-05
5.76759e-05
6.50337e-05
7.55885e-05
8.61795e-05
9.73005e-05
0.000108847
0.000119271
0.000129309
0.00013823
0.000146567
0.000153867
0.000160392
0.000166592
0.000172146
0.00017722
0.000181786
0.000185723
0.000189183
0.000192075
0.000195354
0.000199148
0.000201183
0.000202794
0.000204074
0.000205096
0.000205915
0.000206576
0.000207112
0.000207552
0.000207916
0.000208221
0.000208478
0.000208698
0.000208887
0.000209051
0.000209193
0.000209318
0.000209427
0.000209522
0.000209605
0.000209678
0.000209742
0.0002098
0.000209851
0.000209896
0.000209936
0.000209971
0.000210003
0.00021003
0.000210054
0.000210076
0.000210094
0.00021011
0.000210124
0.000210137
0.000210148
0.000210157
0.000210165
0.000210172
0.000210178
0.000210183
0.000210188
0.000210192
0.000210195
0.000210198
0.000210201
0.000210203
0.000210205
0.000210206
0.000210208
0.000210209
0.00021021
0.000210211
0.000210212
0.000210212
0.000210213
0.000210213
0.000210214
0.000210214
0.000210214
0.000210215
0.000210215
0.000210215
0.000210215
0.000210215
0.000210216
0.000210216
0.000210216
0.000210216
0.000210216
0.000210216
0.000210216
0.000210216
0.000210216
0.000210216
0.000210216
0.000210216
0.000210216
0.000210216
0.000210216
0.000210216
0.000210216
0.000210216
0.000210216
0.000210216
0.000210216
0.000210216
0.000210216
0.000210216
0.000210216
0.000210216
0.000210216
0.000210216
0.000210216
0.000210216
0.000210216
0.000210216
0.000210216
0.000210216
0.000210216
0.000210216
0.000210216
0.000210216
0.000210216
0.000210216
0.000210216
0.000210216
0.000210216
0.000210216
0.000210216
0.000210216
0.000210216
0.000210216
0.000210216
0.000210216
0.000210216
0.000210216
0.000210216
0.000210216
0.000210216
0.000210216
0.000210216
0.000210216
0.000210216
0.000210216
0.000210216
0.000210216
0.000210216
0.000210216
0.000210216
0.000210216
0.000210216
0.000210216
0.000210216
0.000210216
0.000210216
0.000210216
0.000210216
0.000210216
0.000210216
0.000210216
0.000210216
0.000210216
0.000210216
0.000210216
0.000210216
0.000210216
0.000210216
0.000210216
0.000210216
0.000210216
0.000210216
0.000210216
0.000210216
0.000210216
0.000210216
0.000210216
0.000210216
0.000210216
0.000210216
0.000210216
0.000210216
0.000210216
0.000210216
0.000210216
0.000210216
0.000210216
0.000210216
0.000210216
0.000210216
0.000210216
0.000210216
0.000210216
0.000210216
0.000210216
0.000210216
0.000210216
0.000210216
0.000210216
0.000210216
0.000210216
0.000210216
0.000210216
0.000210216
0.000210216
0.000210216
0.000210216
0.000210216
0.000210216
0.000210216
0.000210216
0.000210216
0.000210216
0.000210216
0.000210216
0.000210216
0.000210216
0.000210216
0.000210216
0.000210216
0.000210216
0.000210216
0.000210216
0.000210216
0.000210216
0.000210216
0.000210216
0.000210216
0.000210216
0.000210216
0.000210216
0.000210216
0.000210216
0.000210216
0.000210216
0.000210216
0.000210216
0.000210216
0.000210216
0.000210216
0.000210216
0.000210216
0.000210216
0.000210216
0.000210216
0.000210216
0.000210216
0.000210216
0.000210216
0.000210216
0.000210216
0.000210216
0.000210216
0.000210216
0.000210216
0.000210216
0.000210216
0.000210216
0.000210216
0.000210216
0.000210216
0.000210216
0.000210216
0.000210216
0.000210216
0.000210216
0.000210216
0.000210216
0.000210216
0.000210216
0.000210216
0.000210216
0.000210216
0.000210216
0.000210216
0.000210216
0.000210216
0.000210216
0.000210216
0.000210216
0.000210216
0.000210216
0.000210216
0.000210216
0.000210216
0.000210216
0.000210216
0.000210216
0.000210216
0.000210216
0.000210216
0.000210216
0.000210216
0.000210216
0.000210216
0.000129986
6.65993e-05
4.76059e-05
4.00529e-05
4.07642e-05
4.82144e-05
5.94522e-05
6.88489e-05
7.64073e-05
8.62447e-05
9.69175e-05
0.000107732
0.000118912
0.000129274
0.000139326
0.000148516
0.00015685
0.000164395
0.000171331
0.000177919
0.000183754
0.000188701
0.00019318
0.000197492
0.000203379
0.000209171
0.000211971
0.000214269
0.000216166
0.00021774
0.000219051
0.000220146
0.000221066
0.000221841