/*--------------------------------*- C++ -*----------------------------------*\
| =========                 |                                                 |
| \\      /  F ield         | foam-extend: Open Source CFD                    |
|  \\    /   O peration     | Version:     3.2                                |
|   \\  /    A nd           | Web:         http://www.foam-extend.org         |
|    \\/     M anipulation  | For copyright notice see file Copyright         |
\*---------------------------------------------------------------------------*/
FoamFile
{
    version     2.0;
    format      ascii;
    class       volScalarField;
    location    "79";
    object      omega;
}
// * * * * * * * * * * * * * * * * * * * * * * * * * * * * * * * * * * * * * //

dimensions      [0 0 -1 0 0 0 0];

internalField   nonuniform List<scalar> 
5400
(
953.375
765.352
661.612
662.664
652.658
652.64
647.744
647.512
645.757
646.422
646.582
647.724
648.875
650.698
652.405
654.563
656.75
659.203
661.626
664.283
667.07
669.942
672.882
675.861
678.857
681.894
684.716
687.186
689.262
691.005
692.449
693.654
694.651
695.482
696.17
696.745
697.224
697.626
697.962
698.246
698.485
698.687
698.859
699.008
699.134
699.24
699.329
699.406
699.472
699.529
699.579
699.623
699.661
699.694
699.723
699.748
699.769
699.788
699.805
699.819
699.832
699.842
699.852
699.86
699.867
699.873
699.878
699.883
699.887
699.89
699.893
699.896
699.898
699.9
699.902
699.903
699.904
699.905
699.906
699.907
699.908
699.908
699.909
699.909
699.909
699.91
699.91
699.91
699.91
699.911
699.911
699.911
699.911
699.911
699.911
699.911
699.911
699.911
699.911
699.912
699.912
699.912
699.912
699.912
699.912
699.912
699.912
699.912
699.912
699.912
699.912
699.912
699.912
699.912
699.912
699.912
699.912
699.912
699.912
699.912
699.912
699.912
699.912
699.912
699.912
699.912
699.912
699.912
699.912
699.912
699.912
699.912
699.912
699.912
699.912
699.912
699.912
699.912
699.912
699.912
699.912
699.912
699.912
699.912
699.912
699.912
699.912
699.912
699.912
699.912
699.912
699.912
699.912
699.912
699.912
699.912
699.912
699.912
699.912
699.912
699.912
699.912
699.912
699.912
699.912
699.912
699.912
699.912
699.912
699.912
699.912
699.912
699.912
699.912
699.912
699.912
699.912
699.912
699.912
699.912
699.912
699.912
699.912
699.912
699.912
699.912
699.912
699.912
699.912
699.912
699.912
699.912
699.912
699.912
699.912
699.912
699.912
699.912
699.912
699.912
699.912
699.912
699.912
699.912
699.912
699.912
699.912
699.912
699.912
699.912
699.912
699.912
699.912
699.912
699.912
699.912
699.912
699.912
699.912
699.912
699.912
699.912
699.912
699.912
699.912
699.912
699.912
699.912
699.912
699.912
699.912
699.912
699.912
699.912
699.912
699.912
699.912
699.912
699.912
699.912
699.912
699.912
699.912
699.912
699.912
699.912
699.912
699.912
699.912
699.912
699.912
699.912
699.912
699.912
699.912
699.912
699.912
699.912
699.912
699.912
699.912
699.912
699.912
699.912
699.912
699.912
699.912
699.912
699.912
699.912
699.912
699.912
699.912
699.912
699.912
699.912
699.912
699.912
699.912
699.912
699.912
699.912
699.912
699.912
699.912
699.912
699.912
699.912
699.912
699.912
699.912
699.912
699.912
699.912
699.912
699.912
699.912
699.912
699.912
699.911
374.193
345.005
302.785
288.412
276.261
271.691
266.984
265.03
262.954
262.219
261.537
261.378
261.388
261.632
262.002
262.546
263.163
263.924
264.709
265.577
266.521
267.524
268.572
269.655
270.762
271.91
273.001
273.986
274.842
275.58
276.206
276.738
277.186
277.565
277.882
278.15
278.374
278.563
278.721
278.855
278.968
279.064
279.145
279.214
279.274
279.324
279.366
279.401
279.432
279.458
279.481
279.501
279.518
279.533
279.546
279.557
279.567
279.576
279.583
279.589
279.595
279.6
279.604
279.607
279.61
279.613
279.615
279.617
279.619
279.621
279.622
279.623
279.624
279.625
279.626
279.626
279.627
279.627
279.628
279.628
279.628
279.629
279.629
279.629
279.629
279.629
279.63
279.63
279.63
279.63
279.63
279.63
279.63
279.63
279.63
279.63
279.63
279.63
279.63
279.63
279.63
279.63
279.63
279.63
279.63
279.63
279.63
279.63
279.63
279.63
279.63
279.63
279.63
279.63
279.63
279.63
279.63
279.63
279.63
279.63
279.63
279.63
279.63
279.63
279.63
279.63
279.63
279.63
279.63
279.63
279.63
279.63
279.63
279.63
279.63
279.63
279.63
279.63
279.63
279.63
279.63
279.63
279.63
279.63
279.63
279.63
279.63
279.63
279.63
279.63
279.63
279.63
279.63
279.63
279.63
279.63
279.63
279.63
279.63
279.63
279.63
279.63
279.63
279.63
279.63
279.63
279.63
279.63
279.63
279.63
279.63
279.63
279.63
279.63
279.63
279.63
279.63
279.63
279.63
279.63
279.63
279.63
279.63
279.63
279.63
279.63
279.63
279.63
279.63
279.63
279.63
279.63
279.63
279.63
279.63
279.63
279.63
279.63
279.63
279.63
279.63
279.63
279.63
279.63
279.63
279.63
279.63
279.63
279.63
279.63
279.63
279.63
279.63
279.63
279.63
279.63
279.63
279.63
279.63
279.63
279.63
279.63
279.63
279.63
279.63
279.63
279.63
279.63
279.63
279.63
279.63
279.63
279.63
279.63
279.63
279.63
279.63
279.63
279.63
279.63
279.63
279.63
279.63
279.63
279.63
279.63
279.63
279.63
279.63
279.63
279.63
279.63
279.63
279.63
279.63
279.63
279.63
279.63
279.63
279.63
279.63
279.63
279.63
279.63
279.63
279.63
279.63
279.63
279.63
279.63
279.63
279.63
279.63
279.63
279.63
279.63
279.63
279.63
279.63
279.63
279.63
279.63
279.63
279.63
279.63
279.63
279.63
279.63
279.63
279.63
279.63
279.63
279.63
279.63
279.63
279.63
279.63
279.63
279.63
279.63
187.962
199.714
194.472
184.186
173.716
168.225
163.585
160.94
158.753
157.464
156.422
155.838
155.449
155.236
155.182
155.242
155.397
155.655
155.965
156.326
156.74
157.202
157.701
158.23
158.784
159.358
159.898
160.389
160.821
161.2
161.526
161.807
162.046
162.25
162.423
162.57
162.693
162.798
162.886
162.961
163.024
163.077
163.122
163.16
163.193
163.221
163.244
163.264
163.281
163.295
163.307
163.318
163.327
163.335
163.342
163.348
163.353
163.358
163.362
163.365
163.368
163.371
163.373
163.375
163.376
163.378
163.379
163.38
163.381
163.382
163.382
163.383
163.384
163.384
163.384
163.385
163.385
163.385
163.386
163.386
163.386
163.386
163.386
163.386
163.386
163.386
163.386
163.386
163.387
163.387
163.387
163.387
163.387
163.387
163.387
163.387
163.387
163.387
163.387
163.387
163.387
163.387
163.387
163.387
163.387
163.387
163.387
163.387
163.387
163.387
163.387
163.387
163.387
163.387
163.387
163.387
163.387
163.387
163.387
163.387
163.387
163.387
163.387
163.387
163.387
163.387
163.387
163.387
163.387
163.387
163.387
163.387
163.387
163.387
163.387
163.387
163.387
163.387
163.387
163.387
163.387
163.387
163.387
163.387
163.387
163.387
163.387
163.387
163.387
163.387
163.387
163.387
163.387
163.387
163.387
163.387
163.387
163.387
163.387
163.387
163.387
163.387
163.387
163.387
163.387
163.387
163.387
163.387
163.387
163.387
163.387
163.387
163.387
163.387
163.387
163.387
163.387
163.387
163.387
163.387
163.387
163.387
163.387
163.387
163.387
163.387
163.387
163.387
163.387
163.387
163.387
163.387
163.387
163.387
163.387
163.387
163.387
163.387
163.387
163.387
163.387
163.387
163.387
163.387
163.387
163.387
163.387
163.387
163.387
163.387
163.387
163.387
163.387
163.387
163.387
163.387
163.387
163.387
163.387
163.387
163.387
163.387
163.387
163.387
163.387
163.387
163.387
163.387
163.387
163.387
163.387
163.387
163.387
163.387
163.387
163.387
163.387
163.387
163.387
163.387
163.387
163.387
163.387
163.387
163.387
163.387
163.387
163.387
163.387
163.387
163.387
163.387
163.387
163.387
163.387
163.387
163.387
163.387
163.387
163.387
163.387
163.387
163.387
163.387
163.387
163.387
163.387
163.387
163.387
163.387
163.387
163.387
163.387
163.387
163.387
163.387
163.387
163.387
163.387
163.387
163.387
163.387
163.387
163.387
163.387
163.387
163.387
163.387
163.387
163.387
163.387
163.387
163.387
163.387
163.387
163.387
163.387
163.387
163.387
163.387
102.276
130.976
137.042
134.43
129.561
125.096
120.851
117.883
115.485
113.784
112.466
111.58
110.903
110.433
110.116
109.908
109.809
109.803
109.861
109.967
110.119
110.316
110.546
110.804
111.085
111.369
111.616
111.832
112.02
112.185
112.329
112.454
112.562
112.654
112.734
112.801
112.858
112.907
112.948
112.983
113.012
113.037
113.058
113.075
113.09
113.103
113.114
113.123
113.131
113.137
113.143
113.148
113.152
113.155
113.158
113.161
113.163
113.165
113.167
113.168
113.169
113.17
113.171
113.172
113.173
113.174
113.174
113.175
113.175
113.175
113.176
113.176
113.176
113.176
113.176
113.176
113.177
113.177
113.177
113.177
113.177
113.177
113.177
113.177
113.177
113.177
113.177
113.177
113.177
113.177
113.177
113.177
113.177
113.177
113.177
113.177
113.177
113.177
113.177
113.177
113.177
113.177
113.177
113.177
113.177
113.177
113.177
113.177
113.177
113.177
113.177
113.177
113.177
113.177
113.177
113.177
113.177
113.177
113.177
113.177
113.177
113.177
113.177
113.177
113.177
113.177
113.177
113.177
113.177
113.177
113.177
113.177
113.177
113.177
113.177
113.177
113.177
113.177
113.177
113.177
113.177
113.177
113.177
113.177
113.177
113.177
113.177
113.177
113.177
113.177
113.177
113.177
113.177
113.177
113.177
113.177
113.177
113.177
113.177
113.177
113.177
113.177
113.177
113.177
113.177
113.177
113.177
113.177
113.177
113.177
113.177
113.177
113.177
113.177
113.177
113.177
113.177
113.177
113.177
113.177
113.177
113.177
113.177
113.177
113.177
113.177
113.177
113.177
113.177
113.177
113.177
113.177
113.177
113.177
113.177
113.177
113.177
113.177
113.177
113.177
113.177
113.177
113.177
113.177
113.177
113.177
113.177
113.177
113.177
113.177
113.177
113.177
113.177
113.177
113.177
113.177
113.177
113.177
113.177
113.177
113.177
113.177
113.177
113.177
113.177
113.177
113.177
113.177
113.177
113.177
113.177
113.177
113.177
113.177
113.177
113.177
113.177
113.177
113.177
113.177
113.177
113.177
113.177
113.177
113.177
113.177
113.177
113.177
113.177
113.177
113.177
113.177
113.177
113.177
113.177
113.177
113.177
113.177
113.177
113.177
113.177
113.177
113.177
113.177
113.177
113.177
113.177
113.177
113.177
113.177
113.177
113.177
113.177
113.177
113.177
113.177
113.177
113.177
113.177
113.177
113.177
113.177
113.177
113.177
113.177
113.177
113.177
113.177
113.177
113.177
113.177
113.177
113.177
113.177
113.177
113.177
113.177
113.177
113.177
113.177
56.7612
86.5926
100.567
102.4
102.461
100.702
97.8318
95.2156
92.8644
90.9935
89.4687
88.3379
87.4126
86.7351
86.2214
85.823
85.5441
85.3529
85.2357
85.1709
85.1525
85.1772
85.2337
85.316
85.413
85.4916
85.5292
85.5458
85.5531
85.5572
85.5596
85.5616
85.563
85.5643
85.5652
85.5662
85.5669
85.5675
85.5678
85.5681
85.5682
85.5682
85.568
85.5677
85.5675
85.5674
85.5671
85.5668
85.5664
85.566
85.5657
85.5654
85.5651
85.5648
85.5645
85.5643
85.5641
85.5639
85.5637
85.5635
85.5634
85.5633
85.5632
85.5631
85.563
85.5629
85.5629
85.5628
85.5628
85.5627
85.5627
85.5626
85.5626
85.5626
85.5626
85.5626
85.5625
85.5625
85.5625
85.5625
85.5625
85.5625
85.5625
85.5625
85.5625
85.5625
85.5625
85.5625
85.5625
85.5625
85.5625
85.5625
85.5625
85.5625
85.5625
85.5625
85.5625
85.5625
85.5625
85.5625
85.5625
85.5625
85.5625
85.5624
85.5624
85.5624
85.5624
85.5624
85.5624
85.5624
85.5624
85.5624
85.5624
85.5624
85.5624
85.5624
85.5624
85.5624
85.5624
85.5624
85.5624
85.5624
85.5624
85.5624
85.5624
85.5624
85.5624
85.5624
85.5624
85.5624
85.5624
85.5624
85.5624
85.5624
85.5624
85.5624
85.5624
85.5624
85.5624
85.5624
85.5624
85.5624
85.5624
85.5624
85.5624
85.5624
85.5624
85.5624
85.5624
85.5624
85.5624
85.5624
85.5624
85.5624
85.5624
85.5624
85.5624
85.5624
85.5624
85.5624
85.5624
85.5624
85.5624
85.5624
85.5624
85.5624
85.5624
85.5624
85.5624
85.5624
85.5624
85.5624
85.5624
85.5624
85.5624
85.5624
85.5624
85.5624
85.5624
85.5624
85.5624
85.5624
85.5624
85.5624
85.5624
85.5624
85.5624
85.5624
85.5624
85.5624
85.5624
85.5624
85.5624
85.5624
85.5624
85.5624
85.5624
85.5624
85.5624
85.5624
85.5624
85.5624
85.5624
85.5624
85.5624
85.5624
85.5624
85.5624
85.5624
85.5624
85.5624
85.5624
85.5624
85.5624
85.5624
85.5624
85.5624
85.5624
85.5624
85.5624
85.5624
85.5624
85.5624
85.5624
85.5624
85.5624
85.5624
85.5624
85.5624
85.5624
85.5624
85.5624
85.5624
85.5624
85.5624
85.5624
85.5624
85.5624
85.5624
85.5624
85.5624
85.5624
85.5624
85.5624
85.5624
85.5624
85.5624
85.5624
85.5624
85.5624
85.5624
85.5624
85.5624
85.5624
85.5624
85.5624
85.5624
85.5624
85.5624
85.5624
85.5624
85.5624
85.5624
85.5624
85.5624
85.5624
85.5624
85.5624
85.5624
85.5624
85.5624
85.5624
85.5624
85.5624
85.5624
85.5624
85.5624
85.5624
85.5624
85.5624
85.5624
85.5624
85.5624
85.5624
85.5624
85.5624
85.5624
85.5624
85.5624
85.5624
85.5624
85.5624
85.5624
85.5624
85.5624
85.5624
85.5624
85.5624
85.5624
85.5625
31.4745
55.4288
72.2461
79.6012
82.9339
82.666
82.0452
80.6442
78.8625
77.1896
75.6523
74.4069
73.3351
72.4964
71.8186
71.2729
70.8446
70.4992
70.2389
70.0405
69.89
69.7831
69.7058
69.6498
69.5904
69.4874
69.3484
69.2011
69.0594
68.9292
68.8121
68.7084
68.6175
68.5384
68.47
68.4112
68.3608
68.3177
68.2809
68.2495
68.2227
68.1998
68.1802
68.1633
68.149
68.1368
68.1263
68.1173
68.1095
68.1028
68.0971
68.0921
68.0878
68.084
68.0808
68.078
68.0755
68.0734
68.0716
68.07
68.0686
68.0674
68.0663
68.0654
68.0647
68.064
68.0634
68.0629
68.0624
68.0621
68.0617
68.0615
68.0612
68.061
68.0608
68.0607
68.0605
68.0604
68.0603
68.0602
68.0602
68.0601
68.06
68.06
68.0599
68.0599
68.0599
68.0598
68.0598
68.0598
68.0598
68.0598
68.0598
68.0598
68.0597
68.0597
68.0597
68.0597
68.0597
68.0597
68.0597
68.0597
68.0597
68.0597
68.0597
68.0597
68.0597
68.0597
68.0597
68.0597
68.0597
68.0597
68.0597
68.0597
68.0597
68.0597
68.0597
68.0597
68.0597
68.0597
68.0597
68.0597
68.0597
68.0597
68.0597
68.0597
68.0597
68.0597
68.0597
68.0597
68.0597
68.0597
68.0597
68.0597
68.0597
68.0597
68.0597
68.0597
68.0597
68.0597
68.0597
68.0597
68.0597
68.0597
68.0597
68.0597
68.0597
68.0597
68.0597
68.0597
68.0597
68.0597
68.0597
68.0597
68.0597
68.0597
68.0597
68.0597
68.0597
68.0597
68.0597
68.0597
68.0597
68.0597
68.0597
68.0597
68.0597
68.0597
68.0597
68.0597
68.0597
68.0597
68.0597
68.0597
68.0597
68.0597
68.0597
68.0597
68.0597
68.0597
68.0597
68.0597
68.0597
68.0597
68.0597
68.0597
68.0597
68.0597
68.0597
68.0597
68.0597
68.0597
68.0597
68.0597
68.0597
68.0597
68.0597
68.0597
68.0597
68.0597
68.0597
68.0597
68.0597
68.0597
68.0597
68.0597
68.0597
68.0597
68.0597
68.0597
68.0597
68.0597
68.0597
68.0597
68.0597
68.0597
68.0597
68.0597
68.0597
68.0597
68.0597
68.0597
68.0597
68.0597
68.0597
68.0597
68.0597
68.0597
68.0597
68.0597
68.0597
68.0597
68.0597
68.0597
68.0597
68.0597
68.0597
68.0597
68.0597
68.0597
68.0597
68.0597
68.0597
68.0597
68.0597
68.0597
68.0597
68.0597
68.0597
68.0597
68.0597
68.0597
68.0597
68.0597
68.0597
68.0597
68.0597
68.0597
68.0597
68.0597
68.0597
68.0597
68.0597
68.0597
68.0597
68.0597
68.0597
68.0597
68.0597
68.0597
68.0597
68.0597
68.0597
68.0597
68.0597
68.0597
68.0597
68.0597
68.0597
68.0597
68.0597
68.0597
68.0597
68.0597
68.0597
68.0597
68.0597
68.0597
68.0597
68.0597
68.0597
68.0597
68.0597
68.0597
68.0597
68.0597
68.0597
68.0597
68.0597
68.0597
17.4761
33.5551
48.4815
59.6165
66.6683
68.8374
69.4839
69.1594
68.5062
67.4675
66.2429
65.1052
64.0421
63.1434
62.3634
61.7161
61.1782
60.7176
60.3436
60.0297
59.764
59.5436
59.3482
59.1652
58.9459
58.6561
58.3576
58.0689
57.7998
57.5547
57.3346
57.1394
56.9678
56.8181
56.6882
56.5763
56.4801
56.3978
56.3275
56.2675
56.2163
56.1727
56.1354
56.1036
56.0763
56.0531
56.0334
56.0164
56.002
55.9895
55.9789
55.9697
55.9617
55.9549
55.949
55.9438
55.9394
55.9356
55.9323
55.9294
55.9269
55.9248
55.9229
55.9213
55.9199
55.9187
55.9177
55.9168
55.916
55.9153
55.9147
55.9142
55.9138
55.9134
55.9131
55.9128
55.9126
55.9124
55.9122
55.9121
55.9119
55.9118
55.9117
55.9116
55.9115
55.9115
55.9114
55.9114
55.9113
55.9113
55.9113
55.9113
55.9112
55.9112
55.9112
55.9112
55.9112
55.9112
55.9111
55.9111
55.9111
55.9111
55.9111
55.9111
55.9111
55.9111
55.9111
55.9111
55.9111
55.9111
55.9111
55.9111
55.9111
55.9111
55.9111
55.9111
55.9111
55.9111
55.9111
55.9111
55.9111
55.9111
55.9111
55.9111
55.9111
55.9111
55.9111
55.9111
55.9111
55.9111
55.9111
55.9111
55.9111
55.9111
55.9111
55.9111
55.9111
55.9111
55.9111
55.9111
55.9111
55.9111
55.9111
55.9111
55.9111
55.9111
55.9111
55.9111
55.9111
55.9111
55.9111
55.9111
55.9111
55.9111
55.9111
55.9111
55.9111
55.9111
55.9111
55.9111
55.9111
55.9111
55.9111
55.9111
55.9111
55.9111
55.9111
55.9111
55.9111
55.9111
55.9111
55.9111
55.9111
55.9111
55.9111
55.9111
55.9111
55.9111
55.9111
55.9111
55.9111
55.9111
55.9111
55.9111
55.9111
55.9111
55.9111
55.9111
55.9111
55.9111
55.9111
55.9111
55.9111
55.9111
55.9111
55.9111
55.9111
55.9111
55.9111
55.9111
55.9111
55.9111
55.9111
55.9111
55.9111
55.9111
55.9111
55.9111
55.9111
55.9111
55.9111
55.9111
55.9111
55.9111
55.9111
55.9111
55.9111
55.9111
55.9111
55.9111
55.9111
55.9111
55.9111
55.9111
55.9111
55.9111
55.9111
55.9111
55.9111
55.9111
55.9111
55.9111
55.9111
55.9111
55.9111
55.9111
55.9111
55.9111
55.9111
55.9111
55.9111
55.9111
55.9111
55.9111
55.9111
55.9111
55.9111
55.9111
55.9111
55.9111
55.9111
55.9111
55.9111
55.9111
55.9111
55.9111
55.9111
55.9111
55.9111
55.9111
55.9111
55.9111
55.9111
55.9111
55.9111
55.9111
55.9111
55.9111
55.9111
55.9111
55.9111
55.9111
55.9111
55.9111
55.9111
55.9111
55.9111
55.9111
55.9111
55.9111
55.9111
55.9111
55.9111
55.9111
55.9111
55.9111
55.9111
55.9111
55.9111
55.9111
55.9111
55.9111
55.9111
55.9111
55.9111
55.9111
55.9111
55.9111
55.9111
55.9111
9.9552
19.7272
30.1573
41.2542
50.8383
56.267
58.9947
59.724
59.6805
59.3812
58.8434
58.0895
57.2377
56.4286
55.6581
54.9772
54.3831
53.8605
53.4082
53.0028
52.6397
52.3155
52.0016
51.6762
51.279
50.8184
50.3809
49.9715
49.5945
49.252
48.9448
48.6719
48.4317
48.2219
48.0398
47.8825
47.7472
47.6312
47.532
47.4474
47.3752
47.3137
47.2611
47.2163
47.178
47.1453
47.1175
47.0937
47.0734
47.056
47.0411
47.0283
47.0173
47.0077
46.9995
46.9925
46.9864
46.9811
46.9765
46.9726
46.9692
46.9662
46.9637
46.9615
46.9596
46.958
46.9566
46.9553
46.9543
46.9534
46.9526
46.9519
46.9513
46.9508
46.9503
46.95
46.9496
46.9494
46.9491
46.9489
46.9487
46.9486
46.9484
46.9483
46.9482
46.9481
46.9481
46.948
46.9479
46.9479
46.9479
46.9478
46.9478
46.9478
46.9477
46.9477
46.9477
46.9477
46.9477
46.9477
46.9477
46.9477
46.9476
46.9476
46.9476
46.9476
46.9476
46.9476
46.9476
46.9476
46.9476
46.9476
46.9476
46.9476
46.9476
46.9476
46.9476
46.9476
46.9476
46.9476
46.9476
46.9476
46.9476
46.9476
46.9476
46.9476
46.9476
46.9476
46.9476
46.9476
46.9476
46.9476
46.9476
46.9476
46.9476
46.9476
46.9476
46.9476
46.9476
46.9476
46.9476
46.9476
46.9476
46.9476
46.9476
46.9476
46.9476
46.9476
46.9476
46.9476
46.9476
46.9476
46.9476
46.9476
46.9476
46.9476
46.9476
46.9476
46.9476
46.9476
46.9476
46.9476
46.9476
46.9476
46.9476
46.9476
46.9476
46.9476
46.9476
46.9476
46.9476
46.9476
46.9476
46.9476
46.9476
46.9476
46.9476
46.9476
46.9476
46.9476
46.9476
46.9476
46.9476
46.9476
46.9476
46.9476
46.9476
46.9476
46.9476
46.9476
46.9476
46.9476
46.9476
46.9476
46.9476
46.9476
46.9476
46.9476
46.9476
46.9476
46.9476
46.9476
46.9476
46.9476
46.9476
46.9476
46.9476
46.9476
46.9476
46.9476
46.9476
46.9476
46.9476
46.9476
46.9476
46.9476
46.9476
46.9476
46.9476
46.9476
46.9476
46.9476
46.9476
46.9476
46.9476
46.9476
46.9476
46.9476
46.9476
46.9476
46.9476
46.9476
46.9476
46.9476
46.9476
46.9476
46.9476
46.9476
46.9476
46.9476
46.9476
46.9476
46.9476
46.9476
46.9476
46.9476
46.9476
46.9476
46.9476
46.9476
46.9476
46.9476
46.9476
46.9476
46.9476
46.9476
46.9476
46.9476
46.9476
46.9476
46.9476
46.9476
46.9476
46.9476
46.9476
46.9476
46.9476
46.9476
46.9476
46.9476
46.9476
46.9476
46.9476
46.9476
46.9476
46.9476
46.9476
46.9476
46.9476
46.9476
46.9476
46.9476
46.9476
46.9476
46.9476
46.9476
46.9476
46.9476
46.9476
46.9476
46.9476
46.9476
46.9476
46.9476
46.9476
46.9476
46.9476
46.9476
46.9476
46.9476
5.70596
11.7783
18.0254
26.2227
35.5819
43.4073
48.5761
51.1439
52.1906
52.4333
52.2712
52.0134
51.6124
51.0724
50.4587
49.8515
49.2705
48.7395
48.2496
47.7861
47.3454
46.9192
46.4739
45.981
45.4092
44.8269
44.2802
43.7733
43.3085
42.8871
42.5094
42.1741
41.8789
41.6211
41.3971
41.2037
41.0371
40.8943
40.7722
40.6678
40.5788
40.5029
40.4382
40.3829
40.3357
40.2954
40.2611
40.2318
40.2069
40.1855
40.1672
40.1515
40.138
40.1264
40.1164
40.1078
40.1004
40.094
40.0885
40.0837
40.0796
40.076
40.073
40.0703
40.068
40.066
40.0643
40.0629
40.0616
40.0605
40.0595
40.0587
40.058
40.0574
40.0569
40.0564
40.056
40.0557
40.0554
40.0552
40.0549
40.0548
40.0546
40.0545
40.0543
40.0542
40.0542
40.0541
40.054
40.054
40.0539
40.0539
40.0538
40.0538
40.0538
40.0537
40.0537
40.0537
40.0537
40.0537
40.0537
40.0537
40.0537
40.0536
40.0536
40.0536
40.0536
40.0536
40.0536
40.0536
40.0536
40.0536
40.0536
40.0536
40.0536
40.0536
40.0536
40.0536
40.0536
40.0536
40.0536
40.0536
40.0536
40.0536
40.0536
40.0536
40.0536
40.0536
40.0536
40.0536
40.0536
40.0536
40.0536
40.0536
40.0536
40.0536
40.0536
40.0536
40.0536
40.0536
40.0536
40.0536
40.0536
40.0536
40.0536
40.0536
40.0536
40.0536
40.0536
40.0536
40.0536
40.0536
40.0536
40.0536
40.0536
40.0536
40.0536
40.0536
40.0536
40.0536
40.0536
40.0536
40.0536
40.0536
40.0536
40.0536
40.0536
40.0536
40.0536
40.0536
40.0536
40.0536
40.0536
40.0536
40.0536
40.0536
40.0536
40.0536
40.0536
40.0536
40.0536
40.0536
40.0536
40.0536
40.0536
40.0536
40.0536
40.0536
40.0536
40.0536
40.0536
40.0536
40.0536
40.0536
40.0536
40.0536
40.0536
40.0536
40.0536
40.0536
40.0536
40.0536
40.0536
40.0536
40.0536
40.0536
40.0536
40.0536
40.0536
40.0536
40.0536
40.0536
40.0536
40.0536
40.0536
40.0536
40.0536
40.0536
40.0536
40.0536
40.0536
40.0536
40.0536
40.0536
40.0536
40.0536
40.0536
40.0536
40.0536
40.0536
40.0536
40.0536
40.0536
40.0536
40.0536
40.0536
40.0536
40.0536
40.0536
40.0536
40.0536
40.0536
40.0536
40.0536
40.0536
40.0536
40.0536
40.0536
40.0536
40.0536
40.0536
40.0536
40.0536
40.0536
40.0536
40.0536
40.0536
40.0536
40.0536
40.0536
40.0536
40.0536
40.0536
40.0536
40.0536
40.0536
40.0536
40.0536
40.0536
40.0536
40.0536
40.0536
40.0536
40.0536
40.0536
40.0536
40.0536
40.0536
40.0536
40.0536
40.0536
40.0536
40.0536
40.0536
40.0536
40.0536
40.0536
40.0536
40.0536
40.0536
40.0536
40.0536
40.0536
40.0536
40.0536
40.0536
40.0536
40.0536
40.0536
40.0536
3.53513
6.92845
10.987
15.9999
22.8815
30.7191
37.5516
42.1587
44.8732
46.1094
46.5781
46.6448
46.4849
46.2689
45.9695
45.5735
45.1025
44.6278
44.1449
43.6586
43.158
42.6259
42.0368
41.378
40.6863
40.0315
39.4085
38.8295
38.2988
37.8186
37.3888
37.0079
36.673
36.3807
36.1269
35.9076
35.7189
35.557
35.4184
35.3001
35.199
35.1129
35.0394
34.9766
34.923
34.8773
34.8383
34.8052
34.7769
34.7527
34.732
34.7142
34.699
34.6859
34.6746
34.665
34.6566
34.6494
34.6433
34.6379
34.6333
34.6294
34.6259
34.623
34.6204
34.6183
34.6164
34.6147
34.6133
34.6121
34.611
34.6101
34.6094
34.6087
34.6081
34.6076
34.6072
34.6068
34.6065
34.6062
34.6059
34.6057
34.6056
34.6054
34.6053
34.6052
34.6051
34.605
34.6049
34.6048
34.6048
34.6047
34.6047
34.6047
34.6046
34.6046
34.6046
34.6046
34.6046
34.6045
34.6045
34.6045
34.6045
34.6045
34.6045
34.6045
34.6045
34.6045
34.6045
34.6045
34.6045
34.6045
34.6045
34.6045
34.6045
34.6045
34.6045
34.6045
34.6045
34.6045
34.6045
34.6045
34.6045
34.6045
34.6045
34.6045
34.6045
34.6045
34.6045
34.6045
34.6045
34.6045
34.6045
34.6045
34.6045
34.6045
34.6045
34.6045
34.6045
34.6045
34.6045
34.6045
34.6045
34.6045
34.6045
34.6045
34.6045
34.6045
34.6045
34.6045
34.6045
34.6045
34.6045
34.6045
34.6045
34.6045
34.6045
34.6045
34.6045
34.6045
34.6045
34.6045
34.6045
34.6045
34.6045
34.6045
34.6045
34.6045
34.6045
34.6045
34.6045
34.6045
34.6045
34.6045
34.6045
34.6045
34.6045
34.6045
34.6045
34.6045
34.6045
34.6045
34.6045
34.6045
34.6045
34.6045
34.6045
34.6045
34.6045
34.6045
34.6045
34.6045
34.6045
34.6045
34.6045
34.6045
34.6045
34.6045
34.6045
34.6045
34.6045
34.6045
34.6045
34.6045
34.6045
34.6045
34.6045
34.6045
34.6045
34.6045
34.6045
34.6045
34.6045
34.6045
34.6045
34.6045
34.6045
34.6045
34.6045
34.6045
34.6045
34.6045
34.6045
34.6045
34.6045
34.6045
34.6045
34.6045
34.6045
34.6045
34.6045
34.6045
34.6045
34.6045
34.6045
34.6045
34.6045
34.6045
34.6045
34.6045
34.6045
34.6045
34.6045
34.6045
34.6045
34.6045
34.6045
34.6045
34.6045
34.6045
34.6045
34.6045
34.6045
34.6045
34.6045
34.6045
34.6045
34.6045
34.6045
34.6045
34.6045
34.6045
34.6045
34.6045
34.6045
34.6045
34.6045
34.6045
34.6045
34.6045
34.6045
34.6045
34.6045
34.6045
34.6045
34.6045
34.6045
34.6045
34.6045
34.6045
34.6045
34.6045
34.6045
34.6045
34.6045
34.6045
34.6045
34.6045
34.6045
34.6045
34.6045
34.6045
34.6045
34.6045
34.6045
34.6045
34.6045
34.6045
34.6045
34.6045
2.36125
4.26759
6.61783
10.0144
14.2576
20.0762
26.6543
32.5485
36.9019
39.5488
41.0639
41.7357
41.9654
41.9628
41.82
41.6214
41.3559
41.0194
40.5982
40.1177
39.5767
38.9482
38.2359
37.475
36.7442
36.0477
35.3788
34.7543
34.1817
33.6646
33.2029
32.7947
32.4366
32.1243
31.8533
31.6193
31.4179
31.2451
31.0971
30.9707
30.8627
30.7706
30.692
30.6248
30.5674
30.5185
30.4768
30.4413
30.4111
30.3852
30.3631
30.3442
30.328
30.314
30.3021
30.2918
30.283
30.2754
30.2689
30.2632
30.2584
30.2542
30.2506
30.2475
30.2448
30.2425
30.2405
30.2388
30.2373
30.2361
30.235
30.234
30.2332
30.2325
30.2319
30.2314
30.2309
30.2305
30.2302
30.2299
30.2296
30.2294
30.2292
30.2291
30.2289
30.2288
30.2287
30.2286
30.2286
30.2285
30.2284
30.2284
30.2283
30.2283
30.2283
30.2283
30.2282
30.2282
30.2282
30.2282
30.2282
30.2282
30.2281
30.2281
30.2281
30.2281
30.2281
30.2281
30.2281
30.2281
30.2281
30.2281
30.2281
30.2281
30.2281
30.2281
30.2281
30.2281
30.2281
30.2281
30.2281
30.2281
30.2281
30.2281
30.2281
30.2281
30.2281
30.2281
30.2281
30.2281
30.2281
30.2281
30.2281
30.2281
30.2281
30.2281
30.2281
30.2281
30.2281
30.2281
30.2281
30.2281
30.2281
30.2281
30.2281
30.2281
30.2281
30.2281
30.2281
30.2281
30.2281
30.2281
30.2281
30.2281
30.2281
30.2281
30.2281
30.2281
30.2281
30.2281
30.2281
30.2281
30.2281
30.2281
30.2281
30.2281
30.2281
30.2281
30.2281
30.2281
30.2281
30.2281
30.2281
30.2281
30.2281
30.2281
30.2281
30.2281
30.2281
30.2281
30.2281
30.2281
30.2281
30.2281
30.2281
30.2281
30.2281
30.2281
30.2281
30.2281
30.2281
30.2281
30.2281
30.2281
30.2281
30.2281
30.2281
30.2281
30.2281
30.2281
30.2281
30.2281
30.2281
30.2281
30.2281
30.2281
30.2281
30.2281
30.2281
30.2281
30.2281
30.2281
30.2281
30.2281
30.2281
30.2281
30.2281
30.2281
30.2281
30.2281
30.2281
30.2281
30.2281
30.2281
30.2281
30.2281
30.2281
30.2281
30.2281
30.2281
30.2281
30.2281
30.2281
30.2281
30.2281
30.2281
30.2281
30.2281
30.2281
30.2281
30.2281
30.2281
30.2281
30.2281
30.2281
30.2281
30.2281
30.2281
30.2281
30.2281
30.2281
30.2281
30.2281
30.2281
30.2281
30.2281
30.2281
30.2281
30.2281
30.2281
30.2281
30.2281
30.2281
30.2281
30.2281
30.2281
30.2281
30.2281
30.2281
30.2281
30.2281
30.2281
30.2281
30.2281
30.2281
30.2281
30.2281
30.2281
30.2281
30.2281
30.2281
30.2281
30.2281
30.2281
30.2281
30.2281
30.2281
30.2281
30.2281
30.2281
30.2281
30.2281
30.2281
30.2281
30.2281
30.2281
30.2281
30.2281
30.2281
30.2281
1.63163
2.92192
4.20354
6.24528
9.1915
12.8462
17.6742
23.2008
28.3708
32.3891
35.0889
36.7035
37.6043
38.0093
38.1203
38.0622
37.8892
37.6194
37.2534
36.8011
36.2455
35.5805
34.8355
34.0826
33.3548
32.6426
31.9565
31.3135
30.7244
30.1936
29.7214
29.3049
28.9403
28.6226
28.3472
28.1093
27.9045
27.7287
27.5781
27.4492
27.3391
27.2451
27.1649
27.0962
27.0376
26.9875
26.945
26.9087
26.8778
26.8514
26.8289
26.8096
26.793
26.7789
26.7667
26.7563
26.7474
26.7397
26.7331
26.7274
26.7225
26.7183
26.7147
26.7116
26.7089
26.7066
26.7046
26.7029
26.7014
26.7002
26.6991
26.6981
26.6973
26.6966
26.696
26.6955
26.695
26.6946
26.6943
26.694
26.6937
26.6935
26.6933
26.6932
26.693
26.6929
26.6928
26.6927
26.6927
26.6926
26.6925
26.6925
26.6924
26.6924
26.6924
26.6923
26.6923
26.6923
26.6923
26.6923
26.6923
26.6922
26.6922
26.6922
26.6922
26.6922
26.6922
26.6922
26.6922
26.6922
26.6922
26.6922
26.6922
26.6922
26.6922
26.6922
26.6922
26.6922
26.6922
26.6922
26.6922
26.6922
26.6922
26.6922
26.6922
26.6922
26.6922
26.6922
26.6922
26.6922
26.6922
26.6922
26.6922
26.6922
26.6922
26.6922
26.6922
26.6922
26.6922
26.6922
26.6922
26.6922
26.6922
26.6922
26.6922
26.6922
26.6922
26.6922
26.6922
26.6922
26.6922
26.6922
26.6922
26.6922
26.6922
26.6922
26.6922
26.6922
26.6922
26.6922
26.6922
26.6922
26.6922
26.6922
26.6922
26.6922
26.6922
26.6922
26.6922
26.6922
26.6922
26.6922
26.6922
26.6922
26.6922
26.6922
26.6922
26.6922
26.6922
26.6922
26.6922
26.6922
26.6922
26.6922
26.6922
26.6922
26.6922
26.6922
26.6922
26.6922
26.6922
26.6922
26.6922
26.6922
26.6922
26.6922
26.6922
26.6922
26.6922
26.6922
26.6922
26.6922
26.6922
26.6922
26.6922
26.6922
26.6922
26.6922
26.6922
26.6922
26.6922
26.6922
26.6922
26.6922
26.6922
26.6922
26.6922
26.6922
26.6922
26.6922
26.6922
26.6922
26.6922
26.6922
26.6922
26.6922
26.6922
26.6922
26.6922
26.6922
26.6922
26.6922
26.6922
26.6922
26.6922
26.6922
26.6922
26.6922
26.6922
26.6922
26.6922
26.6922
26.6922
26.6922
26.6922
26.6922
26.6922
26.6922
26.6922
26.6922
26.6922
26.6922
26.6922
26.6922
26.6922
26.6922
26.6922
26.6922
26.6922
26.6922
26.6922
26.6922
26.6922
26.6922
26.6922
26.6922
26.6922
26.6922
26.6922
26.6922
26.6922
26.6922
26.6922
26.6922
26.6922
26.6922
26.6922
26.6922
26.6922
26.6922
26.6922
26.6922
26.6922
26.6922
26.6922
26.6922
26.6922
26.6922
26.6922
26.6922
26.6922
26.6922
26.6922
26.6922
26.6922
26.6922
26.6922
26.6922
26.6922
26.6922
1.17465
2.13684
2.95436
4.12217
5.96014
8.55753
11.6379
15.6691
20.2912
24.8169
28.5312
31.2172
32.9469
33.987
34.548
34.7656
34.7568
34.5616
34.2194
33.7595
33.1756
32.5215
31.8143
31.1006
30.3873
29.6847
29.007
28.3717
27.791
27.2699
26.8079
26.4014
26.046
25.7365
25.468
25.2359
25.0359
24.864
24.7165
24.5902
24.4821
24.3897
24.3107
24.2431
24.1853
24.136
24.094
24.0583
24.0278
24.0018
23.9795
23.9606
23.9443
23.9304
23.9185
23.9083
23.8996
23.8921
23.8857
23.8801
23.8754
23.8713
23.8678
23.8648
23.8622
23.86
23.858
23.8564
23.855
23.8537
23.8527
23.8518
23.851
23.8503
23.8497
23.8492
23.8488
23.8484
23.8481
23.8478
23.8476
23.8473
23.8472
23.847
23.8469