/*--------------------------------*- C++ -*----------------------------------*\
| =========                 |                                                 |
| \\      /  F ield         | foam-extend: Open Source CFD                    |
|  \\    /   O peration     | Version:     3.2                                |
|   \\  /    A nd           | Web:         http://www.foam-extend.org         |
|    \\/     M anipulation  | For copyright notice see file Copyright         |
\*---------------------------------------------------------------------------*/
FoamFile
{
    version     2.0;
    format      ascii;
    class       volScalarField;
    location    "79";
    object      p;
}
// * * * * * * * * * * * * * * * * * * * * * * * * * * * * * * * * * * * * * //

dimensions      [1 -1 -2 0 0 0 0];

internalField   nonuniform List<scalar> 
5400
(
2545.12
2488.51
2499.91
2481.48
2480.55
2470.39
2466.63
2459.09
2454.67
2448.39
2443.76
2438.19
2433.5
2428.37
2423.65
2418.77
2414.07
2409.28
2404.62
2399.91
2395.19
2390.42
2385.62
2380.74
2375.81
2370.76
2365.61
2360.31
2354.91
2349.41
2343.83
2338.17
2332.46
2326.7
2320.9
2315.06
2309.2
2303.31
2297.4
2291.47
2285.53
2279.58
2273.62
2267.65
2261.68
2255.7
2249.71
2243.72
2237.72
2231.73
2225.73
2219.73
2213.72
2207.72
2201.71
2195.7
2189.69
2183.68
2177.67
2171.66
2165.65
2159.63
2153.62
2147.61
2141.59
2135.58
2129.56
2123.55
2117.53
2111.51
2105.5
2099.48
2093.47
2087.45
2081.43
2075.42
2069.4
2063.39
2057.37
2051.35
2045.34
2039.32
2033.3
2027.29
2021.27
2015.25
2009.24
2003.22
1997.2
1991.19
1985.17
1979.15
1973.14
1967.12
1961.1
1955.09
1949.07
1943.05
1937.04
1931.02
1925
1918.99
1912.97
1906.95
1900.94
1894.92
1888.9
1882.89
1876.87
1870.85
1864.84
1858.82
1852.8
1846.79
1840.77
1834.75
1828.74
1822.72
1816.7
1810.68
1804.67
1798.65
1792.63
1786.62
1780.6
1774.58
1768.57
1762.55
1756.53
1750.52
1744.5
1738.48
1732.47
1726.45
1720.43
1714.42
1708.4
1702.38
1696.37
1690.35
1684.33
1678.32
1672.3
1666.28
1660.27
1654.25
1648.23
1642.22
1636.2
1630.18
1624.17
1618.15
1612.13
1606.12
1600.1
1594.08
1588.07
1582.05
1576.03
1570.02
1564
1557.98
1551.97
1545.95
1539.93
1533.92
1527.9
1521.88
1515.87
1509.85
1503.83
1497.81
1491.8
1485.78
1479.76
1473.75
1467.73
1461.71
1455.7
1449.68
1443.66
1437.65
1431.63
1425.61
1419.6
1413.58
1407.56
1401.55
1395.53
1389.51
1383.5
1377.48
1371.46
1365.45
1359.43
1353.41
1347.4
1341.38
1335.36
1329.35
1323.33
1317.31
1311.3
1305.28
1299.26
1293.25
1287.23
1281.21
1275.2
1269.18
1263.16
1257.15
1251.13
1245.11
1239.1
1233.08
1227.06
1221.05
1215.03
1209.01
1202.99
1196.98
1190.96
1184.94
1178.93
1172.91
1166.89
1160.88
1154.86
1148.84
1142.83
1136.81
1130.79
1124.78
1118.76
1112.74
1106.73
1100.71
1094.69
1088.68
1082.66
1076.64
1070.63
1064.61
1058.59
1052.58
1046.56
1040.54
1034.53
1028.51
1022.49
1016.48
1010.46
1004.44
998.426
992.409
986.393
980.376
974.359
968.342
962.326
956.309
950.292
944.275
938.259
932.242
926.225
920.209
914.192
908.175
902.158
896.142
890.125
884.108
878.091
872.075
866.058
860.041
854.024
848.008
841.991
835.974
829.958
823.941
817.924
811.907
805.891
799.874
793.857
787.84
781.824
775.807
769.79
763.773
757.757
751.74
745.723
739.707
733.69
727.672
2528.73
2472.34
2483.67
2465.21
2464.27
2454.11
2450.35
2442.8
2438.39
2432.11
2427.48
2421.91
2417.22
2412.08
2407.36
2402.49
2397.78
2393
2388.33
2383.62
2378.91
2374.14
2369.34
2364.46
2359.52
2354.47
2349.32
2344.02
2338.63
2333.12
2327.54
2321.89
2316.18
2310.41
2304.61
2298.77
2292.91
2287.02
2281.11
2275.19
2269.25
2263.3
2257.34
2251.37
2245.39
2239.41
2233.42
2227.43
2221.44
2215.44
2209.44
2203.44
2197.44
2191.43
2185.43
2179.42
2173.41
2167.4
2161.39
2155.37
2149.36
2143.35
2137.33
2131.32
2125.31
2119.29
2113.28
2107.26
2101.25
2095.23
2089.21
2083.2
2077.18
2071.17
2065.15
2059.13
2053.12
2047.1
2041.08
2035.07
2029.05
2023.03
2017.02
2011
2004.99
1998.97
1992.95
1986.94
1980.92
1974.9
1968.89
1962.87
1956.85
1950.84
1944.82
1938.8
1932.79
1926.77
1920.75
1914.73
1908.72
1902.7
1896.68
1890.67
1884.65
1878.63
1872.62
1866.6
1860.58
1854.57
1848.55
1842.53
1836.52
1830.5
1824.48
1818.47
1812.45
1806.43
1800.42
1794.4
1788.38
1782.37
1776.35
1770.33
1764.32
1758.3
1752.28
1746.27
1740.25
1734.23
1728.22
1722.2
1716.18
1710.17
1704.15
1698.13
1692.12
1686.1
1680.08
1674.07
1668.05
1662.03
1656.02
1650
1643.98
1637.97
1631.95
1625.93
1619.92
1613.9
1607.88
1601.86
1595.85
1589.83
1583.81
1577.8
1571.78
1565.76
1559.75
1553.73
1547.71
1541.7
1535.68
1529.66
1523.65
1517.63
1511.61
1505.6
1499.58
1493.56
1487.55
1481.53
1475.51
1469.5
1463.48
1457.46
1451.45
1445.43
1439.41
1433.4
1427.38
1421.36
1415.35
1409.33
1403.31
1397.3
1391.28
1385.26
1379.25
1373.23
1367.21
1361.2
1355.18
1349.16
1343.15
1337.13
1331.11
1325.1
1319.08
1313.06
1307.04
1301.03
1295.01
1288.99
1282.98
1276.96
1270.94
1264.93
1258.91
1252.89
1246.88
1240.86
1234.84
1228.83
1222.81
1216.79
1210.78
1204.76
1198.74
1192.73
1186.71
1180.69
1174.68
1168.66
1162.64
1156.63
1150.61
1144.59
1138.58
1132.56
1126.54
1120.53
1114.51
1108.49
1102.48
1096.46
1090.44
1084.43
1078.41
1072.39
1066.38
1060.36
1054.34
1048.33
1042.31
1036.29
1030.28
1024.26
1018.24
1012.23
1006.21
1000.19
994.175
988.158
982.141
976.125
970.108
964.091
958.075
952.058
946.041
940.024
934.008
927.991
921.974
915.957
909.941
903.924
897.907
891.89
885.874
879.857
873.84
867.824
861.807
855.79
849.773
843.757
837.74
831.723
825.706
819.69
813.673
807.656
801.639
795.623
789.606
783.589
777.573
771.556
765.539
759.522
753.506
747.489
741.472
735.455
729.439
723.422
717.405
711.388
2512.12
2456.23
2467.46
2448.96
2448.01
2437.84
2434.07
2426.52
2422.11
2415.83
2411.2
2405.62
2400.93
2395.8
2391.08
2386.2
2381.5
2376.71
2372.04
2367.34
2362.62
2357.85
2353.05
2348.17
2343.23
2338.19
2333.03
2327.74
2322.34
2316.83
2311.26
2305.6
2299.89
2294.13
2288.33
2282.49
2276.63
2270.74
2264.83
2258.9
2252.96
2247.01
2241.05
2235.08
2229.11
2223.13
2217.14
2211.15
2205.16
2199.16
2193.16
2187.16
2181.15
2175.15
2169.14
2163.13
2157.12
2151.11
2145.1
2139.09
2133.08
2127.06
2121.05
2115.04
2109.02
2103.01
2096.99
2090.98
2084.96
2078.95
2072.93
2066.91
2060.9
2054.88
2048.87
2042.85
2036.83
2030.82
2024.8
2018.78
2012.77
2006.75
2000.73
1994.72
1988.7
1982.68
1976.67
1970.65
1964.63
1958.62
1952.6
1946.58
1940.57
1934.55
1928.53
1922.52
1916.5
1910.48
1904.47
1898.45
1892.43
1886.42
1880.4
1874.38
1868.37
1862.35
1856.33
1850.32
1844.3
1838.28
1832.27
1826.25
1820.23
1814.22
1808.2
1802.18
1796.17
1790.15
1784.13
1778.12
1772.1
1766.08
1760.07
1754.05
1748.03
1742.02
1736
1729.98
1723.97
1717.95
1711.93
1705.91
1699.9
1693.88
1687.86
1681.85
1675.83
1669.81
1663.8
1657.78
1651.76
1645.75
1639.73
1633.71
1627.7
1621.68
1615.66
1609.65
1603.63
1597.61
1591.6
1585.58
1579.56
1573.55
1567.53
1561.51
1555.5
1549.48
1543.46
1537.45
1531.43
1525.41
1519.4
1513.38
1507.36
1501.35
1495.33
1489.31
1483.3
1477.28
1471.26
1465.25
1459.23
1453.21
1447.2
1441.18
1435.16
1429.15
1423.13
1417.11
1411.1
1405.08
1399.06
1393.04
1387.03
1381.01
1374.99
1368.98
1362.96
1356.94
1350.93
1344.91
1338.89
1332.88
1326.86
1320.84
1314.83
1308.81
1302.79
1296.78
1290.76
1284.74
1278.73
1272.71
1266.69
1260.68
1254.66
1248.64
1242.63
1236.61
1230.59
1224.58
1218.56
1212.54
1206.53
1200.51
1194.49
1188.48
1182.46
1176.44
1170.43
1164.41
1158.39
1152.38
1146.36
1140.34
1134.33
1128.31
1122.29
1116.28
1110.26
1104.24
1098.22
1092.21
1086.19
1080.17
1074.16
1068.14
1062.12
1056.11
1050.09
1044.07
1038.06
1032.04
1026.02
1020.01
1013.99
1007.97
1001.96
995.94
989.924
983.907
977.89
971.874
965.857
959.84
953.823
947.807
941.79
935.773
929.756
923.74
917.723
911.706
905.69
899.673
893.656
887.639
881.623
875.606
869.589
863.572
857.556
851.539
845.522
839.505
833.489
827.472
821.455
815.439
809.422
803.405
797.388
791.372
785.355
779.338
773.321
767.305
761.288
755.271
749.254
743.238
737.221
731.204
725.188
719.171
713.154
707.137
701.121
695.104
2495.52
2440.16
2451.26
2432.73
2431.76
2421.58
2417.8
2410.25
2405.83
2399.55
2394.91
2389.34
2384.65
2379.52
2374.79
2369.92
2365.21
2360.43
2355.76
2351.05
2346.34
2341.56
2336.76
2331.88
2326.95
2321.9
2316.75
2311.45
2306.05
2300.55
2294.97
2289.31
2283.6
2277.84
2272.04
2266.2
2260.34
2254.45
2248.54
2242.62
2236.68
2230.73
2224.77
2218.8
2212.82
2206.84
2200.86
2194.86
2188.87
2182.87
2176.87
2170.87
2164.87
2158.86
2152.86
2146.85
2140.84
2134.83
2128.82
2122.8
2116.79
2110.78
2104.77
2098.75
2092.74
2086.72
2080.71
2074.69
2068.68
2062.66
2056.64
2050.63
2044.61
2038.6
2032.58
2026.56
2020.55
2014.53
2008.52
2002.5
1996.48
1990.47
1984.45
1978.43
1972.42
1966.4
1960.38
1954.37
1948.35
1942.33
1936.32
1930.3
1924.28
1918.27
1912.25
1906.23
1900.22
1894.2
1888.18
1882.17
1876.15
1870.13
1864.12
1858.1
1852.08
1846.07
1840.05
1834.03
1828.02
1822
1815.98
1809.96
1803.95
1797.93
1791.91
1785.9
1779.88
1773.86
1767.85
1761.83
1755.81
1749.8
1743.78
1737.76
1731.75
1725.73
1719.71
1713.7
1707.68
1701.66
1695.65
1689.63
1683.61
1677.6
1671.58
1665.56
1659.55
1653.53
1647.51
1641.5
1635.48
1629.46
1623.45
1617.43
1611.41
1605.4
1599.38
1593.36
1587.35
1581.33
1575.31
1569.3
1563.28
1557.26
1551.25
1545.23
1539.21
1533.2
1527.18
1521.16
1515.15
1509.13
1503.11
1497.09
1491.08
1485.06
1479.04
1473.03
1467.01
1460.99
1454.98
1448.96
1442.94
1436.93
1430.91
1424.89
1418.88
1412.86
1406.84
1400.83
1394.81
1388.79
1382.78
1376.76
1370.74
1364.73
1358.71
1352.69
1346.68
1340.66
1334.64
1328.63
1322.61
1316.59
1310.58
1304.56
1298.54
1292.53
1286.51
1280.49
1274.48
1268.46
1262.44
1256.43
1250.41
1244.39
1238.38
1232.36
1226.34
1220.33
1214.31
1208.29
1202.27
1196.26
1190.24
1184.22
1178.21
1172.19
1166.17
1160.16
1154.14
1148.12
1142.11
1136.09
1130.07
1124.06
1118.04
1112.02
1106.01
1099.99
1093.97
1087.96
1081.94
1075.92
1069.91
1063.89
1057.87
1051.86
1045.84
1039.82
1033.81
1027.79
1021.77
1015.76
1009.74
1003.72
997.706
991.689
985.673
979.656
973.639
967.622
961.606
955.589
949.572
943.555
937.539
931.522
925.505
919.489
913.472
907.455
901.438
895.422
889.405
883.388
877.371
871.355
865.338
859.321
853.305
847.288
841.271
835.254
829.238
823.221
817.204
811.187
805.171
799.154
793.137
787.12
781.104
775.087
769.07
763.054
757.037
751.02
745.003
738.987
732.97
726.953
720.936
714.92
708.903
702.886
696.869
690.853
684.836
678.819
2478.79
2424.16
2435.1
2416.48
2415.5
2405.31
2401.54
2393.98
2389.56
2383.27
2378.64
2373.06
2368.37
2363.23
2358.51
2353.63
2348.93
2344.14
2339.47
2334.77
2330.05
2325.28
2320.48
2315.6
2310.66
2305.61
2300.46
2295.16
2289.77
2284.26
2278.68
2273.03
2267.32
2261.56
2255.76
2249.92
2244.05
2238.17
2232.26
2226.33
2220.39
2214.44
2208.48
2202.51
2196.54
2190.56
2184.57
2178.58
2172.59
2166.59
2160.59
2154.59
2148.58
2142.58
2136.57
2130.56
2124.55
2118.54
2112.53
2106.52
2100.51
2094.49
2088.48
2082.47
2076.45
2070.44
2064.42
2058.41
2052.39
2046.38
2040.36
2034.34
2028.33
2022.31
2016.3
2010.28
2004.26
1998.25
1992.23
1986.21
1980.2
1974.18
1968.16
1962.15
1956.13
1950.11
1944.1
1938.08
1932.06
1926.05
1920.03
1914.01
1908
1901.98
1895.96
1889.95
1883.93
1877.91
1871.9
1865.88
1859.86
1853.85
1847.83
1841.81
1835.8
1829.78
1823.76
1817.75
1811.73
1805.71
1799.7
1793.68
1787.66
1781.65
1775.63
1769.61
1763.6
1757.58
1751.56
1745.55
1739.53
1733.51
1727.5
1721.48
1715.46
1709.45
1703.43
1697.41
1691.4
1685.38
1679.36
1673.35
1667.33
1661.31
1655.3
1649.28
1643.26
1637.25
1631.23
1625.21
1619.2
1613.18
1607.16
1601.14
1595.13
1589.11
1583.09
1577.08
1571.06
1565.04
1559.03
1553.01
1546.99
1540.98
1534.96
1528.94
1522.93
1516.91
1510.89
1504.88
1498.86
1492.84
1486.83
1480.81
1474.79
1468.78
1462.76
1456.74
1450.73
1444.71
1438.69
1432.68
1426.66
1420.64
1414.63
1408.61
1402.59
1396.58
1390.56
1384.54
1378.53
1372.51
1366.49
1360.48
1354.46
1348.44
1342.43
1336.41
1330.39
1324.38
1318.36
1312.34
1306.33
1300.31
1294.29
1288.27
1282.26
1276.24
1270.22
1264.21
1258.19
1252.17
1246.16
1240.14
1234.12
1228.11
1222.09
1216.07
1210.06
1204.04
1198.02
1192.01
1185.99
1179.97
1173.96
1167.94
1161.92
1155.91
1149.89
1143.87
1137.86
1131.84
1125.82
1119.81
1113.79
1107.77
1101.76
1095.74
1089.72
1083.71
1077.69
1071.67
1065.66
1059.64
1053.62
1047.61
1041.59
1035.57
1029.56
1023.54
1017.52
1011.51
1005.49
999.472
993.455
987.438
981.421
975.405
969.388
963.371
957.355
951.338
945.321
939.304
933.288
927.271
921.254
915.237
909.221
903.204
897.187
891.171
885.154
879.137
873.12
867.104
861.087
855.07
849.053
843.037
837.02
831.003
824.986
818.97
812.953
806.936
800.92
794.903
788.886
782.869
776.853
770.836
764.819
758.802
752.786
746.769
740.752
734.735
728.719
722.702
716.685
710.669
704.652
698.635
692.618
686.602
680.585
674.568
668.551
662.535
2462.2
2408.02
2418.97
2400.22
2399.23
2389.05
2385.27
2377.71
2373.29
2367
2362.36
2356.78
2352.09
2346.95
2342.23
2337.35
2332.64
2327.86
2323.19
2318.48
2313.77
2308.99
2304.19
2299.31
2294.37
2289.33
2284.17
2278.88
2273.48
2267.98
2262.4
2256.74
2251.03
2245.27
2239.47
2233.63
2227.77
2221.88
2215.97
2210.05
2204.11
2198.16
2192.2
2186.23
2180.25
2174.27
2168.29
2162.3
2156.3
2150.3
2144.3
2138.3
2132.3
2126.29
2120.29
2114.28
2108.27
2102.26
2096.25
2090.24
2084.22
2078.21
2072.2
2066.18
2060.17
2054.15
2048.14
2042.12
2036.11
2030.09
2024.08
2018.06
2012.04
2006.03
2000.01
1994
1987.98
1981.96
1975.95
1969.93
1963.91
1957.9
1951.88
1945.86
1939.85
1933.83
1927.81
1921.8
1915.78
1909.76
1903.75
1897.73
1891.71
1885.7
1879.68
1873.66
1867.65
1861.63
1855.61
1849.6
1843.58
1837.56
1831.55
1825.53
1819.51
1813.5
1807.48
1801.46
1795.45
1789.43
1783.41
1777.4
1771.38
1765.36
1759.35
1753.33
1747.31
1741.3
1735.28
1729.26
1723.25
1717.23
1711.21
1705.19
1699.18
1693.16
1687.14
1681.13
1675.11
1669.09
1663.08
1657.06
1651.04
1645.03
1639.01
1632.99
1626.98
1620.96
1614.94
1608.93
1602.91
1596.89
1590.88
1584.86
1578.84
1572.83
1566.81
1560.79
1554.78
1548.76
1542.74
1536.73
1530.71
1524.69
1518.68
1512.66
1506.64
1500.63
1494.61
1488.59
1482.58
1476.56
1470.54
1464.53
1458.51
1452.49
1446.48
1440.46
1434.44
1428.43
1422.41
1416.39
1410.38
1404.36
1398.34
1392.32
1386.31
1380.29
1374.27
1368.26
1362.24
1356.22
1350.21
1344.19
1338.17
1332.16
1326.14
1320.12
1314.11
1308.09
1302.07
1296.06
1290.04
1284.02
1278.01
1271.99
1265.97
1259.96
1253.94
1247.92
1241.91
1235.89
1229.87
1223.86
1217.84
1211.82
1205.81
1199.79
1193.77
1187.76
1181.74
1175.72
1169.71
1163.69
1157.67
1151.66
1145.64
1139.62
1133.61
1127.59
1121.57
1115.56
1109.54
1103.52
1097.5
1091.49
1085.47
1079.45
1073.44
1067.42
1061.4
1055.39
1049.37
1043.35
1037.34
1031.32
1025.3
1019.29
1013.27
1007.25
1001.24
995.221
989.204
983.187
977.17
971.154
965.137
959.12
953.103
947.087
941.07
935.053
929.036
923.02
917.003
910.986
904.97
898.953
892.936
886.919
880.903
874.886
868.869
862.852
856.836
850.819
844.802
838.786
832.769
826.752
820.735
814.719
808.702
802.685
796.668
790.652
784.635
778.618
772.601
766.585
760.568
754.551
748.535
742.518
736.501
730.484
724.468
718.451
712.434
706.417
700.401
694.384
688.367
682.35
676.334
670.317
664.3
658.284
652.267
646.25
2445.71
2391.8
2402.82
2383.95
2382.96
2372.79
2369
2361.44
2357.02
2350.73
2346.09
2340.51
2335.81
2330.68
2325.95
2321.07
2316.36
2311.58
2306.91
2302.2
2297.48
2292.71
2287.91
2283.03
2278.09
2273.04
2267.89
2262.59
2257.19
2251.69
2246.11
2240.46
2234.75
2228.99
2223.19
2217.35
2211.48
2205.6
2199.69
2193.76
2187.82
2181.87
2175.91
2169.94
2163.97
2157.99
2152
2146.01
2140.02
2134.02
2128.02
2122.02
2116.01
2110.01
2104
2097.99
2091.98
2085.97
2079.96
2073.95
2067.94
2061.93
2055.91
2049.9
2043.88
2037.87
2031.85
2025.84
2019.82
2013.81
2007.79
2001.78
1995.76
1989.74
1983.73
1977.71
1971.69
1965.68
1959.66
1953.64
1947.63
1941.61
1935.6
1929.58
1923.56
1917.55
1911.53
1905.51
1899.5
1893.48
1887.46
1881.45
1875.43
1869.41
1863.4
1857.38
1851.36
1845.35
1839.33
1833.31
1827.3
1821.28
1815.26
1809.24
1803.23
1797.21
1791.19
1785.18
1779.16
1773.14
1767.13
1761.11
1755.09
1749.08
1743.06
1737.04
1731.03
1725.01
1718.99
1712.98
1706.96
1700.94
1694.93
1688.91
1682.89
1676.88
1670.86
1664.84
1658.83
1652.81
1646.79
1640.78
1634.76
1628.74
1622.73
1616.71
1610.69
1604.68
1598.66
1592.64
1586.63
1580.61
1574.59
1568.58
1562.56
1556.54
1550.53
1544.51
1538.49
1532.48
1526.46
1520.44
1514.43
1508.41
1502.39
1496.37
1490.36
1484.34
1478.32
1472.31
1466.29
1460.27
1454.26
1448.24
1442.22
1436.21
1430.19
1424.17
1418.16
1412.14
1406.12
1400.11
1394.09
1388.07
1382.06
1376.04
1370.02
1364.01
1357.99
1351.97
1345.96
1339.94
1333.92
1327.91
1321.89
1315.87
1309.86
1303.84
1297.82
1291.81
1285.79
1279.77
1273.76
1267.74
1261.72
1255.71
1249.69
1243.67
1237.66
1231.64
1225.62
1219.61
1213.59
1207.57
1201.56
1195.54
1189.52
1183.5
1177.49
1171.47
1165.45
1159.44
1153.42
1147.4
1141.39
1135.37
1129.35
1123.34
1117.32
1111.3
1105.29
1099.27
1093.25
1087.24
1081.22
1075.2
1069.19
1063.17
1057.15
1051.14
1045.12
1039.1
1033.09
1027.07
1021.05
1015.04
1009.02
1003
996.986
990.969
984.953
978.936
972.919
966.902
960.886
954.869
948.852
942.836
936.819
930.802
924.785
918.769
912.752
906.735
900.718
894.702
888.685
882.668
876.652
870.635
864.618
858.601
852.585
846.568
840.551
834.534
828.518
822.501
816.484
810.467
804.451
798.434
792.417
786.401
780.384
774.367
768.35
762.334
756.317
750.3
744.283
738.267
732.25
726.233
720.216
714.2
708.183
702.166
696.15
690.133
684.116
678.099
672.083
666.066
660.049
654.032
648.016
641.999
635.982
629.966
2429.2
2375.63
2386.63
2367.68
2366.69
2356.51
2352.73
2345.17
2340.75
2334.46
2329.82
2324.24
2319.54
2314.4
2309.67
2304.79
2300.09
2295.3
2290.63
2285.92
2281.2
2276.43
2271.63
2266.74
2261.8
2256.76
2251.6
2246.3
2240.91
2235.4
2229.83
2224.17
2218.46
2212.7
2206.9
2201.06
2195.2
2189.31
2183.4
2177.48
2171.54
2165.59
2159.63
2153.66
2147.68
2141.7
2135.72
2129.73
2123.73
2117.74
2111.74
2105.73
2099.73
2093.72
2087.72
2081.71
2075.7
2069.69
2063.68
2057.67
2051.65
2045.64
2039.63
2033.61
2027.6
2021.58
2015.57
2009.55
2003.54
1997.52
1991.51
1985.49
1979.47
1973.46
1967.44
1961.43
1955.41
1949.39
1943.38
1937.36
1931.34
1925.33
1919.31
1913.29
1907.28
1901.26
1895.24
1889.23
1883.21
1877.19
1871.18
1865.16
1859.14
1853.13
1847.11
1841.09
1835.08
1829.06
1823.04
1817.03
1811.01
1804.99
1798.98
1792.96
1786.94
1780.93
1774.91
1768.89
1762.88
1756.86
1750.84
1744.83
1738.81
1732.79
1726.78
1720.76
1714.74
1708.73
1702.71
1696.69
1690.68
1684.66
1678.64
1672.63
1666.61
1660.59
1654.58
1648.56
1642.54
1636.53
1630.51
1624.49
1618.48
1612.46
1606.44
1600.42
1594.41
1588.39
1582.37
1576.36
1570.34
1564.32
1558.31
1552.29
1546.27
1540.26
1534.24
1528.22
1522.21
1516.19
1510.17
1504.16
1498.14
1492.12
1486.11
1480.09
1474.07
1468.06
1462.04
1456.02
1450.01
1443.99
1437.97
1431.96
1425.94
1419.92
1413.91
1407.89
1401.87
1395.86
1389.84
1383.82
1377.81
1371.79
1365.77
1359.76
1353.74
1347.72
1341.71
1335.69
1329.67
1323.66
1317.64
1311.62
1305.61
1299.59
1293.57
1287.55
1281.54
1275.52
1269.5
1263.49
1257.47
1251.45
1245.44
1239.42
1233.4
1227.39
1221.37
1215.35
1209.34
1203.32
1197.3
1191.29
1185.27
1179.25
1173.24
1167.22
1161.2
1155.19
1149.17
1143.15
1137.14
1131.12
1125.1
1119.09
1113.07
1107.05
1101.04
1095.02
1089
1082.99
1076.97
1070.95
1064.94
1058.92
1052.9
1046.89
1040.87
1034.85
1028.84
1022.82
1016.8
1010.79
1004.77
998.752
992.735
986.718
980.702
974.685
968.668
962.651
956.635
950.618
944.601
938.584
932.568
926.551
920.534
914.517
908.501
902.484
896.467
890.451
884.434
878.417
872.4
866.384
860.367
854.35
848.333
842.317
836.3
830.283
824.267
818.25
812.233
806.216
800.2
794.183
788.166
782.149
776.133
770.116
764.099
758.082
752.066
746.049
740.032
734.016
727.999
721.982
715.965
709.949
703.932
697.915
691.898
685.882
679.865
673.848
667.831
661.815
655.798
649.781
643.765
637.748
631.731
625.714
619.698
613.681
2412.67
2359.48
2370.38
2351.41
2350.42
2340.24
2336.46
2328.9
2324.47
2318.18
2313.54
2307.96
2303.26
2298.12
2293.4
2288.52
2283.81
2279.02
2274.35
2269.64
2264.92
2260.15
2255.34
2250.46
2245.52
2240.47
2235.32
2230.02
2224.62
2219.12
2213.54
2207.89
2202.18
2196.42
2190.62
2184.78
2178.92
2173.03
2167.12
2161.19
2155.26
2149.3
2143.35
2137.38
2131.4
2125.42
2119.43
2113.44
2107.45
2101.45
2095.45
2089.45
2083.45
2077.44
2071.43
2065.42
2059.42
2053.4
2047.39
2041.38
2035.37
2029.36
2023.34
2017.33
2011.31
2005.3
1999.28
1993.27
1987.25
1981.24
1975.22
1969.21
1963.19
1957.17
1951.16
1945.14
1939.13
1933.11
1927.09
1921.08
1915.06
1909.04
1903.03
1897.01
1890.99
1884.98
1878.96
1872.94
1866.93
1860.91
1854.89
1848.88
1842.86
1836.84
1830.83
1824.81
1818.79
1812.78
1806.76
1800.74
1794.73
1788.71
1782.69
1776.68
1770.66
1764.64
1758.63
1752.61
1746.59
1740.58
1734.56
1728.54
1722.53
1716.51
1710.49
1704.48
1698.46
1692.44
1686.42
1680.41
1674.39
1668.37
1662.36
1656.34
1650.32
1644.31
1638.29
1632.27
1626.26
1620.24
1614.22
1608.21
1602.19
1596.17
1590.16
1584.14
1578.12
1572.11
1566.09
1560.07
1554.06
1548.04
1542.02
1536.01
1529.99
1523.97
1517.96
1511.94
1505.92
1499.91
1493.89
1487.87
1481.86
1475.84
1469.82
1463.81
1457.79
1451.77
1445.76
1439.74
1433.72
1427.71
1421.69
1415.67
1409.66
1403.64
1397.62
1391.6
1385.59
1379.57
1373.55
1367.54
1361.52
1355.5
1349.49
1343.47
1337.45
1331.44
1325.42
1319.4
1313.39
1307.37
1301.35
1295.34
1289.32
1283.3
1277.29
1271.27
1265.25
1259.24
1253.22
1247.2
1241.19
1235.17
1229.15
1223.14
1217.12
1211.1
1205.09
1199.07
1193.05
1187.04
1181.02
1175
1168.99
1162.97
1156.95
1150.94
1144.92
1138.9
1132.89
1126.87
1120.85
1114.84
1108.82
1102.8
1096.79
1090.77
1084.75
1078.73
1072.72
1066.7
1060.68
1054.67
1048.65
1042.63
1036.62
1030.6
1024.58
1018.57
1012.55
1006.53
1000.52
994.501
988.484
982.467
976.45
970.434
964.417
958.4
952.383
946.367
940.35
934.333
928.317
922.3
916.283
910.266
904.25
898.233
892.216
886.199
880.183
874.166
868.149
862.132
856.116
850.099
844.082
838.066
832.049
826.032
820.015
813.999
807.982
801.965
795.948
789.932
783.915
777.898
771.882
765.865
759.848
753.831
747.815
741.798
735.781
729.764
723.748
717.731
711.714
705.697
699.681
693.664
687.647
681.631
675.614
669.597
663.58
657.564
651.547
645.53
639.513
633.497
627.48
621.463
615.446
609.43
603.413
597.396
2396.18
2343.29
2354.14
2335.14
2334.13
2323.95
2320.19
2312.63
2308.2
2301.91
2297.27
2291.69
2286.99
2281.85
2277.12
2272.24
2267.53
2262.74
2258.07
2253.36
2248.64
2243.87
2239.06
2234.18
2229.24
2224.19
2219.03
2213.74
2208.34
2202.84
2197.26
2191.6
2185.89
2180.13
2174.33
2168.49
2162.63
2156.74
2150.83
2144.91
2138.97
2133.02
2127.06
2121.09
2115.12
2109.13
2103.15
2097.16
2091.16
2085.17
2079.17
2073.16
2067.16
2061.16
2055.15
2049.14
2043.13
2037.12
2031.11
2025.1
2019.08
2013.07
2007.06
2001.04
1995.03
1989.01
1983
1976.98
1970.97
1964.95
1958.94
1952.92
1946.91
1940.89
1934.87
1928.86
1922.84
1916.82
1910.81
1904.79
1898.77
1892.76
1886.74
1880.72
1874.71
1868.69
1862.68
1856.66
1850.64
1844.63
1838.61
1832.59
1826.58
1820.56
1814.54
1808.52
1802.51
1796.49
1790.47
1784.46
1778.44
1772.42
1766.41
1760.39
1754.37
1748.36
1742.34
1736.32
1730.31
1724.29
1718.27
1712.26
1706.24
1700.22
1694.21
1688.19
1682.17
1676.16
1670.14
1664.12
1658.11
1652.09
1646.07
1640.06
1634.04
1628.02
1622.01
1615.99
1609.97
1603.96
1597.94
1591.92
1585.91
1579.89
1573.87
1567.86
1561.84
1555.82
1549.81
1543.79
1537.77
1531.76
1525.74
1519.72
1513.71
1507.69
1501.67
1495.65
1489.64
1483.62
1477.6
1471.59
1465.57
1459.55
1453.54
1447.52
1441.5
1435.49
1429.47
1423.45
1417.44
1411.42
1405.4
1399.39
1393.37
1387.35
1381.34
1375.32
1369.3
1363.29
1357.27
1351.25
1345.24
1339.22
1333.2
1327.19
1321.17
1315.15
1309.14
1303.12
1297.1
1291.09
1285.07
1279.05
1273.04
1267.02
1261
1254.99
1248.97
1242.95
1236.94
1230.92
1224.9
1218.89
1212.87
1206.85
1200.84
1194.82
1188.8
1182.78
1176.77
1170.75
1164.73
1158.72
1152.7
1146.68
1140.67
1134.65
1128.63
1122.62
1116.6
1110.58
1104.57
1098.55
1092.53
1086.52
1080.5
1074.48
1068.47
1062.45
1056.43
1050.42
1044.4
1038.38
1032.37
1026.35
1020.33
1014.32
1008.3
1002.28
996.266
990.249
984.233
978.216
972.199
966.183
960.166
954.149
948.132
942.116
936.099
930.082
924.065
918.049
912.032
906.015
899.998
893.982
887.965
881.948
875.932
869.915
863.898
857.881
851.865
845.848
839.831
833.814
827.798
821.781
815.764
809.748
803.731
797.714
791.697
785.681
779.664
773.647
767.63
761.614
755.597
749.58
743.563
737.547
731.53
725.513
719.497
713.48
707.463
701.446
695.43
689.413
683.396
677.379
671.363
665.346
659.329
653.312
647.296
641.279
635.262
629.246
623.229
617.212
611.195
605.179
599.162
593.145
587.128
581.112
2379.77
2327.05
2337.88
2318.85
2317.85
2307.67
2303.92
2296.35
2291.92
2285.63
2280.99
2275.41
2270.71
2265.58
2260.85
2255.97
2251.26
2246.47
2241.79
2237.09
2232.36
2227.59
2222.79
2217.91
2212.97
2207.91
2202.75
2197.45
2192.06
2186.55
2180.97
2175.32
2169.61
2163.85
2158.05
2152.21
2146.35
2140.46
2134.55
2128.62
2122.69
2116.74
2110.78
2104.81
2098.83
2092.85
2086.86
2080.87
2074.88
2068.88
2062.88
2056.88
2050.88
2044.87
2038.86
2032.86
2026.85
2020.84
2014.82
2008.81
2002.8
1996.79
1990.77
1984.76
1978.74
1972.73
1966.71
1960.7
1954.68
1948.67
1942.65
1936.64
1930.62
1924.6
1918.59
1912.57
1906.56
1900.54
1894.52
1888.51
1882.49
1876.47
1870.46
1864.44
1858.42
1852.41
1846.39
1840.37
1834.36
1828.34
1822.32
1816.31
1810.29
1804.27
1798.26
1792.24
1786.22
1780.21
1774.19
1768.17
1762.16
1756.14
1750.12
1744.11
1738.09
1732.07
1726.06
1720.04
1714.02
1708.01
1701.99
1695.97
1689.96
1683.94
1677.92
1671.91
1665.89
1659.87
1653.86
1647.84
1641.82
1635.81
1629.79
1623.77
1617.76
1611.74
1605.72
1599.71
1593.69
1587.67
1581.65
1575.64
1569.62
1563.6
1557.59
1551.57
1545.55
1539.54
1533.52
1527.5
1521.49
1515.47
1509.45
1503.44
1497.42
1491.4
1485.39
1479.37
1473.35
1467.34
1461.32
1455.3
1449.29
1443.27
1437.25
1431.24
1425.22
1419.2
1413.19
1407.17
1401.15
1395.14
1389.12
1383.1
1377.09
1371.07
1365.05
1359.04
1353.02
1347
1340.99
1334.97
1328.95
1322.94
1316.92
1310.9
1304.89
1298.87
1292.85
1286.83
1280.82
1274.8
1268.78
1262.77
1256.75
1250.73
1244.72
1238.7
1232.68
1226.67
1220.65
1214.63
1208.62
1202.6
1196.58
1190.57
1184.55
1178.53
1172.52
1166.5
1160.48
1154.47
1148.45
1142.43
1136.42
1130.4
1124.38
1118.37
1112.35
1106.33
1100.32
1094.3
1088.28
1082.27
1076.25
1070.23
1064.22
1058.2
1052.18
1046.17
1040.15
1034.13
1028.12
1022.1
1016.08
1010.07
1004.05
998.032
992.015
985.998
979.982
973.965
967.948
961.931
955.915
949.898
943.881
937.864
931.848
925.831
919.814
913.798
907.781
901.764
895.747
889.731
883.714
877.697
871.68
865.664
859.647
853.63
847.613
841.597
835.58
829.563
823.547
817.53
811.513
805.496
799.48
793.463
787.446
781.429
775.413
769.396
763.379
757.363
751.346
745.329
739.312
733.296
727.279
721.262
715.245
709.229
703.212
697.195
691.178
685.162
679.145
673.128
667.112
661.095
655.078
649.061
643.045
637.028
631.011
624.994
618.978
612.961
606.944
600.927
594.911
588.894
582.877
576.861
570.844
564.827
2363.42
2310.79
2321.61
2302.56
2301.56
2291.38
2287.63
2280.06
2275.65
2269.35
2264.71
2259.13
2254.44
2249.3
2244.57
2239.69
2234.98
2230.19
2225.52
2220.81
2216.09
2211.31
2206.51
2201.63
2196.69
2191.63
2186.47
2181.17
2175.77
2170.27
2164.69
2159.04
2153.33
2147.56
2141.76
2135.93
2130.06
2124.17
2118.27
2112.34
2106.4
2100.45
2094.49
2088.52
2082.55
2076.56
2070.58
2064.59
2058.59
2052.6
2046.6
2040.6
2034.59
2028.59
2022.58
2016.57
2010.56
2004.55
1998.54
1992.53
1986.52
1980.5
1974.49
1968.47
1962.46
1956.45
1950.43
1944.42
1938.4
1932.38
1926.37
1920.35
1914.34
1908.32
1902.3
1896.29
1890.27
1884.25
1878.24
1872.22
1866.21
1860.19
1854.17
1848.16
1842.14
1836.12
1830.11
1824.09
1818.07
1812.06
1806.04
1800.02
1794.01
1787.99
1781.97
1775.96
1769.94
1763.92
1757.91
1751.89
1745.87
1739.86
1733.84
1727.82
1721.81
1715.79
1709.77
1703.76
1697.74
1691.72
1685.7
1679.69
1673.67
1667.65
1661.64
1655.62
1649.6
1643.59
1637.57
1631.55
1625.54
1619.52
1613.5
1607.49
1601.47
1595.45
1589.44
1583.42
1577.4
1571.39
1565.37
1559.35
1553.34
1547.32
1541.3
1535.29
1529.27
1523.25
1517.24
1511.22
1505.2
1499.19
1493.17
1487.15
1481.14
1475.12
1469.1
1463.09
1457.07
1451.05
1445.04
1439.02
1433
1426.99
1420.97
1414.95
1408.94
1402.92
1396.9
1390.88
1384.87
1378.85
1372.83
1366.82
1360.8
1354.78
1348.77
1342.75
1336.73
1330.72
1324.7
1318.68
1312.67
1306.65
1300.63
1294.62
1288.6
1282.58
1276.57
1270.55
1264.53
1258.52
1252.5
1246.48
1240.47
1234.45
1228.43
1222.42
1216.4
1210.38
1204.37
1198.35
1192.33
1186.32
1180.3
1174.28
1168.27
1162.25
1156.23
1150.22
1144.2
1138.18
1132.17
1126.15
1120.13
1114.12
1108.1
1102.08
1096.07
1090.05
1084.03
1078.01
1072
1065.98
1059.96
1053.95
1047.93
1041.91
1035.9
1029.88
1023.86
1017.85
1011.83
1005.81
999.797
993.781
987.764
981.747
975.73
969.714
963.697
957.68
951.664
945.647
939.63
933.613
927.597
921.58
915.563
909.546
903.53
897.513
891.496
885.479
879.463
873.446
867.429
861.413
855.396
849.379
843.362
837.346
831.329
825.312
819.295
813.279
807.262
801.245
795.229
789.212
783.195
777.178
771.162
765.145
759.128
753.111
747.095
741.078
735.061
729.044
723.028
717.011
710.994
704.978
698.961
692.944
686.927
680.911
674.894
668.877
662.86
656.844
650.827
644.81
638.793
632.777
626.76
620.743
614.727
608.71
602.693
596.676
590.66
584.643
578.626
572.609
566.593
560.576
554.559
548.543
2347.1
2294.56
2305.33
2286.26
2285.26
2275.09
2271.35
2263.78
2259.36
2253.08
2248.44
2242.86
2238.16
2233.02
2228.29
2223.41
2218.7
2213.91
2209.24
2204.53
2199.81
2195.04
2190.24
2185.35
2180.41
2175.35
2170.19
2164.89
2159.49
2153.99
2148.41
2142.75
2137.04
2131.28
2125.48
2119.64
2113.78
2107.89
2101.98
2096.06
2090.12
2084.17
2078.21
2072.24
2066.26
2060.28
2054.29
2048.3
2042.31
2036.31
2030.31
2024.31
2018.31
2012.3
2006.29
2000.29
1994.28
1988.27
1982.26
1976.24
1970.23
1964.22
1958.2
1952.19
1946.18
1940.16
1934.15
1928.13
1922.11
1916.1
1910.08
1904.07
1898.05
1892.04
1886.02
1880
1873.99
1867.97
1861.95
1855.94
1849.92
1843.9
1837.89
1831.87
1825.85
1819.84
1813.82
1807.8
1801.79
1795.77
1789.75
1783.74