/*--------------------------------*- C++ -*----------------------------------*\
| =========                 |                                                 |
| \\      /  F ield         | foam-extend: Open Source CFD                    |
|  \\    /   O peration     | Version:     3.2                                |
|   \\  /    A nd           | Web:         http://www.foam-extend.org         |
|    \\/     M anipulation  | For copyright notice see file Copyright         |
\*---------------------------------------------------------------------------*/
FoamFile
{
    version     2.0;
    format      ascii;
    class       areaScalarField;
    location    "79";
    object      Pef;
}
// * * * * * * * * * * * * * * * * * * * * * * * * * * * * * * * * * * * * * //

dimensions      [0 0 0 0 0 0 0];

internalField   nonuniform List<scalar> 
300
(
0.98635
0.920979
0.796334
0.798107
0.780816
0.780784
0.771984
0.77156
0.768349
0.76957
0.769862
0.771947
0.774036
0.777319
0.780366
0.784179
0.788001
0.792233
0.796357
0.800815
0.805421
0.810086
0.81478
0.81945
0.824059
0.828641
0.832817
0.83641
0.839381
0.841844
0.843862
0.845531
0.846899
0.848034
0.848968
0.849745
0.85039
0.850929
0.851379
0.851758
0.852076
0.852345
0.852574
0.852772
0.852939
0.85308
0.853197
0.853299
0.853386
0.853462
0.853528
0.853585
0.853635
0.853679
0.853717
0.85375
0.853779
0.853804
0.853826
0.853845
0.853861
0.853875
0.853888
0.853898
0.853908
0.853916
0.853922
0.853929
0.853934
0.853938
0.853942
0.853945
0.853948
0.853951
0.853953
0.853955
0.853956
0.853958
0.853959
0.85396
0.853961
0.853962
0.853962
0.853963
0.853963
0.853964
0.853964
0.853965
0.853965
0.853965
0.853965
0.853965
0.853966
0.853966
0.853966
0.853966
0.853966
0.853966
0.853966
0.853966
0.853966
0.853966
0.853966
0.853966
0.853966
0.853966
0.853966
0.853966
0.853966
0.853966
0.853966
0.853966
0.853966
0.853966
0.853966
0.853966
0.853966
0.853966
0.853966
0.853966
0.853966
0.853966
0.853966
0.853966
0.853966
0.853966
0.853966
0.853966
0.853966
0.853966
0.853966
0.853966
0.853966
0.853966
0.853966
0.853966
0.853966
0.853966
0.853966
0.853966
0.853966
0.853966
0.853966
0.853966
0.853966
0.853966
0.853966
0.853966
0.853966
0.853966
0.853966
0.853966
0.853966
0.853966
0.853966
0.853966
0.853966
0.853966
0.853966
0.853966
0.853966
0.853966
0.853966
0.853966
0.853966
0.853966
0.853966
0.853966
0.853966
0.853966
0.853966
0.853966
0.853966
0.853966
0.853966
0.853966
0.853966
0.853966
0.853966
0.853966
0.853966
0.853966
0.853966
0.853966
0.853966
0.853966
0.853966
0.853966
0.853966
0.853966
0.853966
0.853966
0.853966
0.853966
0.853966
0.853966
0.853966
0.853966
0.853966
0.853966
0.853966
0.853966
0.853966
0.853966
0.853966
0.853966
0.853966
0.853966
0.853966
0.853966
0.853966
0.853966
0.853966
0.853966
0.853966
0.853966
0.853966
0.853966
0.853966
0.853966
0.853966
0.853966
0.853966
0.853966
0.853966
0.853966
0.853966
0.853966
0.853966
0.853966
0.853966
0.853966
0.853966
0.853966
0.853966
0.853966
0.853966
0.853966
0.853966
0.853966
0.853966
0.853966
0.853966
0.853966
0.853966
0.853966
0.853966
0.853966
0.853966
0.853966
0.853966
0.853966
0.853966
0.853966
0.853966
0.853966
0.853966
0.853966
0.853966
0.853966
0.853966
0.853966
0.853966
0.853966
0.853966
0.853966
0.853966
0.853966
0.853966
0.853966
0.853966
0.853966
0.853966
0.853966
0.853966
0.853966
0.853966
0.853966
0.853966
0.853966
0.853966
0.853966
0.853966
0.853966
0.853966
0.853966
0.853966
0.853966
0.853966
0.853966
0.853966
0.853966
0.853966
0.853966
0.853966
0.853966
0.853966
0.853967
0.853967
0.853966
)
;

boundaryField
{
    inlet
    {
        type            calculated;
        value           uniform 0;
    }
    outlet
    {
        type            calculated;
        value           uniform 0;
    }
    sideWall
    {
        type            empty;
    }
}


// ************************************************************************* //
