/*--------------------------------*- C++ -*----------------------------------*\
| =========                 |                                                 |
| \\      /  F ield         | foam-extend: Open Source CFD                    |
|  \\    /   O peration     | Version:     3.2                                |
|   \\  /    A nd           | Web:         http://www.foam-extend.org         |
|    \\/     M anipulation  | For copyright notice see file Copyright         |
\*---------------------------------------------------------------------------*/
FoamFile
{
    version     2.0;
    format      ascii;
    class       surfaceScalarField;
    location    "79";
    object      phi;
}
// * * * * * * * * * * * * * * * * * * * * * * * * * * * * * * * * * * * * * //

dimensions      [0 3 -1 0 0 0 0];

internalField   nonuniform List<scalar> 
10482
(
9.61082e-06
1.28475e-05
6.86743e-06
2.74339e-06
6.51675e-06
3.50681e-07
6.47618e-06
4.05658e-08
6.45238e-06
2.3797e-08
6.40863e-06
4.37553e-08
6.39187e-06
1.67538e-08
6.37228e-06
1.95921e-08
6.37115e-06
1.13077e-09
6.36987e-06
1.28367e-09
6.37799e-06
-8.12252e-09
6.38565e-06
-7.66315e-09
6.4011e-06
-1.54423e-08
6.41662e-06
-1.55209e-08
6.43535e-06
-1.87371e-08
6.45578e-06
-2.04297e-08
6.47833e-06
-2.25448e-08
6.50141e-06
-2.30776e-08
6.52604e-06
-2.46333e-08
6.55276e-06
-2.67216e-08
6.5807e-06
-2.79357e-08
6.60936e-06
-2.86692e-08
6.63881e-06
-2.94495e-08
6.66854e-06
-2.97277e-08
6.69893e-06
-3.03887e-08
6.72863e-06
-2.97003e-08
6.7556e-06
-2.69704e-08
6.77867e-06
-2.30674e-08
6.79812e-06
-1.94519e-08
6.81433e-06
-1.62127e-08
6.82787e-06
-1.35399e-08
6.83911e-06
-1.1233e-08
6.84846e-06
-9.35383e-09
6.85621e-06
-7.75267e-09
6.86267e-06
-6.45963e-09
6.86804e-06
-5.36773e-09
6.87253e-06
-4.4894e-09
6.87628e-06
-3.75011e-09
6.87943e-06
-3.15445e-09
6.88209e-06
-2.65237e-09
6.88433e-06
-2.2458e-09
6.88624e-06
-1.90513e-09
6.88788e-06
-1.64469e-09
6.88929e-06
-1.40457e-09
6.89047e-06
-1.18137e-09
6.89146e-06
-9.87273e-10
6.8923e-06
-8.44863e-10
6.89303e-06
-7.29398e-10
6.89366e-06
-6.32568e-10
6.89421e-06
-5.49163e-10
6.89469e-06
-4.78504e-10
6.89511e-06
-4.16389e-10
6.89547e-06
-3.62904e-10
6.89578e-06
-3.1571e-10
6.89606e-06
-2.74908e-10
6.8963e-06
-2.38984e-10
6.89651e-06
-2.07894e-10
6.89669e-06
-1.8059e-10
6.89684e-06
-1.56943e-10
6.89698e-06
-1.3622e-10
6.8971e-06
-1.18265e-10
6.8972e-06
-1.02559e-10
6.89729e-06
-8.89495e-11
6.89737e-06
-7.70667e-11
6.89743e-06
-6.6772e-11
6.89749e-06
-5.77992e-11
6.89754e-06
-5.00293e-11
6.89759e-06
-4.32684e-11
6.89762e-06
-3.74177e-11
6.89765e-06
-3.2335e-11
6.89768e-06
-2.79397e-11
6.89771e-06
-2.41269e-11
6.89773e-06
-2.08324e-11
6.89775e-06
-1.79781e-11
6.89776e-06
-1.55145e-11
6.89777e-06
-1.33837e-11
6.89779e-06
-1.1542e-11
6.8978e-06
-9.94855e-12
6.8978e-06
-8.57453e-12
6.89781e-06
-7.3898e-12
6.89782e-06
-6.3708e-12
6.89782e-06
-5.48921e-12
6.89783e-06
-4.72989e-12
6.89783e-06
-4.07389e-12
6.89784e-06
-3.50968e-12
6.89784e-06
-3.02178e-12
6.89784e-06
-2.60408e-12
6.89784e-06
-2.23813e-12
6.89785e-06
-1.92828e-12
6.89785e-06
-1.67931e-12
6.89785e-06
-1.44823e-12
6.89785e-06
-1.23106e-12
6.89785e-06
-1.03727e-12
6.89785e-06
-9.00738e-13
6.89785e-06
-7.90626e-13
6.89785e-06
-6.82616e-13
6.89785e-06
-5.81291e-13
6.89785e-06
-5.02192e-13
6.89786e-06
-4.50057e-13
6.89786e-06
-3.92172e-13
6.89786e-06
-3.17951e-13
6.89786e-06
-2.47027e-13
6.89786e-06
-2.12884e-13
6.89786e-06
-1.90693e-13
6.89786e-06
-1.69202e-13
6.89786e-06
-1.48826e-13
6.89786e-06
-1.3047e-13
6.89786e-06
-1.13854e-13
6.89786e-06
-9.912e-14
6.89786e-06
-8.6054e-14
6.89786e-06
-7.45797e-14
6.89786e-06
-6.45291e-14
6.89786e-06
-5.57944e-14
6.89786e-06
-4.8149e-14
6.89786e-06
-4.16121e-14
6.89786e-06
-3.59019e-14
6.89786e-06
-3.09488e-14
6.89786e-06
-2.6635e-14
6.89786e-06
-2.28728e-14
6.89786e-06
-1.96084e-14
6.89786e-06
-1.67825e-14
6.89786e-06
-1.43547e-14
6.89786e-06
-1.22666e-14
6.89786e-06
-1.04967e-14
6.89786e-06
-8.99708e-15
6.89786e-06
-7.69976e-15
6.89786e-06
-6.61602e-15
6.89786e-06
-5.60841e-15
6.89786e-06
-4.72553e-15
6.89786e-06
-3.91919e-15
6.89786e-06
-3.18111e-15
6.89786e-06
-2.50098e-15
6.89786e-06
-1.88306e-15
6.89786e-06
-1.29901e-15
6.89786e-06
-8.28614e-16
6.89786e-06
-4.21377e-16
6.89786e-06
-9.89704e-17
6.89786e-06
1.30477e-16
6.89786e-06
2.89652e-16
6.89786e-06
3.70957e-16
6.89786e-06
4.00987e-16
6.89786e-06
3.7939e-16
6.89786e-06
3.3995e-16
6.89786e-06
2.69784e-16
6.89786e-06
1.81125e-16
6.89786e-06
7.92755e-17
6.89786e-06
-3.60355e-17
6.89786e-06
-1.37667e-16
6.89786e-06
-2.37033e-16
6.89786e-06
-3.33733e-16
6.89786e-06
-4.09819e-16
6.89786e-06
-4.63307e-16
6.89786e-06
-4.72121e-16
6.89786e-06
-4.41642e-16
6.89786e-06
-3.79037e-16
6.89786e-06
-2.80256e-16
6.89786e-06
-1.35904e-16
6.89786e-06
2.99865e-17
6.89786e-06
2.20775e-16
6.89786e-06
4.04763e-16
6.89786e-06
5.93939e-16
6.89786e-06
7.52712e-16
6.89786e-06
8.81951e-16
6.89786e-06
9.59355e-16
6.89786e-06
9.99843e-16
6.89786e-06
9.86285e-16
6.89786e-06
9.42295e-16
6.89786e-06
8.56577e-16
6.89786e-06
7.58559e-16
6.89786e-06
6.46216e-16
6.89786e-06
5.50269e-16
6.89786e-06
4.53775e-16
6.89786e-06
3.7156e-16
6.89786e-06
2.92336e-16
6.89786e-06
2.38151e-16
6.89786e-06
1.90357e-16
6.89786e-06
1.69954e-16
6.89786e-06
1.52245e-16
6.89786e-06
1.50019e-16
6.89786e-06
1.49474e-16
6.89786e-06
1.7278e-16
6.89786e-06
1.86868e-16
6.89786e-06
2.01436e-16
6.89786e-06
2.029e-16
6.89786e-06
2.09779e-16
6.89786e-06
2.03634e-16
6.89786e-06
2.04815e-16
6.89786e-06
1.9167e-16
6.89786e-06
1.80923e-16
6.89786e-06
1.6352e-16
6.89786e-06
1.63415e-16
6.89786e-06
1.51875e-16
6.89786e-06
1.40246e-16
6.89786e-06
1.1604e-16
6.89786e-06
1.01359e-16
6.89786e-06
7.89057e-17
6.89786e-06
6.72843e-17
6.89786e-06
4.71499e-17
6.89786e-06
3.57899e-17
6.89786e-06
2.15345e-17
6.89786e-06
3.05433e-17
6.89786e-06
3.31553e-17
6.89786e-06
3.96896e-17
6.89786e-06
3.7743e-17
6.89786e-06
4.62658e-17
6.89786e-06
4.57724e-17
6.89786e-06
5.46978e-17
6.89786e-06
5.27598e-17
6.89786e-06
5.56037e-17
6.89786e-06
5.18011e-17
6.89786e-06
6.62106e-17
6.89786e-06
6.8946e-17
6.89786e-06
7.06585e-17
6.89786e-06
5.56755e-17
6.89786e-06
4.14335e-17
6.89786e-06
1.46921e-18
6.89786e-06
-4.82241e-17
6.89786e-06
-1.33696e-16
6.89786e-06
-2.40544e-16
6.89786e-06
-3.81556e-16
6.89786e-06
-5.28124e-16
6.89786e-06
-7.03477e-16
6.89786e-06
-8.86687e-16
6.89786e-06
-1.07805e-15
6.89786e-06
-1.24337e-15
6.89786e-06
-1.38835e-15
6.89786e-06
-1.47596e-15
6.89786e-06
-1.5155e-15
6.89786e-06
-1.48016e-15
6.89786e-06
-1.37825e-15
6.89786e-06
-1.18755e-15
6.89786e-06
-9.48921e-16
6.89786e-06
-6.63665e-16
6.89786e-06
-3.63541e-16
6.89786e-06
-4.91741e-17
6.89786e-06
2.28363e-16
6.89786e-06
4.64121e-16
6.89786e-06
6.24307e-16
6.89786e-06
7.15765e-16
6.89786e-06
7.1029e-16
6.89786e-06
5.59952e-16
6.89786e-06
-5.47183e-17
6.89786e-06
-1.47967e-15
6.89786e-06
-4.0443e-15
6.89786e-06
-7.54187e-15
6.89786e-06
-9.46569e-15
6.89786e-06
-6.43025e-15
6.89786e-06
-1.2209e-15
6.89786e-06
2.12898e-15
6.89786e-06
5.215e-15
6.89786e-06
8.89344e-15
6.89786e-06
1.0456e-14
6.89786e-06
7.93712e-15
6.89786e-06
3.63305e-15
6.89786e-06
1.272e-15
6.89786e-06
8.30901e-16
6.89786e-06
7.5976e-16
6.89786e-06
7.23829e-16
6.89786e-06
6.98091e-16
6.89786e-06
6.5899e-16
6.89786e-06
6.29182e-16
6.89786e-06
5.81345e-16
6.89786e-06
5.27516e-16
6.89786e-06
4.57707e-16
6.89786e-06
3.94534e-16
6.89786e-06
3.20996e-16
6.89786e-06
2.57495e-16
6.89786e-06
1.85208e-16
6.89786e-06
1.20608e-16
6.89786e-06
5.45441e-17
6.89786e-06
1.27109e-17
6.89786e-06
-3.38874e-17
6.89786e-06
-7.24318e-17
6.89786e-06
-1.17679e-16
6.89786e-06
-1.44984e-16
6.89786e-06
-1.8134e-16
6.89786e-06
-1.95176e-16
6.89786e-06
-2.26213e-16
6.89786e-06
-2.29985e-16
6.89786e-06
-2.64074e-16
6.89786e-06
-2.28495e-16
6.89786e-06
-2.72569e-16
6.89786e-06
-1.92925e-16
6.89786e-06
-3.1275e-16
6.89786e-06
-1.07719e-16
6.89786e-06
-4.14165e-16
6.89786e-06
1.07177e-16
6.89786e-06
-6.99145e-16
6.89786e-06
6.35324e-16
6.89786e-06
-1.4837e-15
6.89786e-06
2.00393e-15
6.89786e-06
-3.54271e-15
6.89786e-06
5.51985e-15
6.89786e-06
-9.13035e-15
6.89786e-06
1.37465e-14
6.89786e-06
-3.31018e-14
6.89786e-06
-7.37675e-14
6.89786e-06
-3.67061e-12
6.89786e-06
1.95508e-12
1.40471e-11
1.68776e-05
1.84283e-05
1.40455e-05
5.57554e-06
1.30682e-05
1.32789e-06
1.28018e-05
3.06981e-07
1.26155e-05
2.10141e-07
1.2475e-05
1.84226e-07
1.2388e-05
1.03761e-07
1.23319e-05
7.56597e-08
1.23031e-05
2.99557e-08
1.22925e-05
1.18603e-08
1.2294e-05
-9.54669e-09
1.23029e-05
-1.66304e-08
1.23234e-05
-3.58957e-08
1.23476e-05
-3.97213e-08
1.23783e-05
-4.95058e-08
1.24134e-05
-5.544e-08
1.24527e-05
-6.19189e-08
1.24944e-05
-6.47262e-08
1.25384e-05
-6.8676e-08
1.25866e-05
-7.4924e-08
1.26376e-05
-7.89156e-08
1.26905e-05
-8.15393e-08
1.2745e-05
-8.39861e-08
1.28005e-05
-8.52048e-08
1.28576e-05
-8.75231e-08
1.29139e-05
-8.5947e-08
1.29652e-05
-7.82667e-08
1.30098e-05
-6.76594e-08
1.30479e-05
-5.75831e-08
1.30802e-05
-4.8512e-08
1.31075e-05
-4.0803e-08
1.31303e-05
-3.41269e-08
1.31495e-05
-2.85527e-08
1.31656e-05
-2.38047e-08
1.3179e-05
-1.98893e-08
1.31903e-05
-1.65941e-08
1.31997e-05
-1.38959e-08
1.32075e-05
-1.16386e-08
1.32142e-05
-9.7915e-09
1.32198e-05
-8.24719e-09
1.32245e-05
-6.97909e-09
1.32285e-05
-5.91991e-09
1.3232e-05
-5.09587e-09
1.32349e-05
-4.36419e-09
1.32374e-05
-3.68033e-09
1.32395e-05
-3.07838e-09
1.32413e-05
-2.6218e-09
1.32428e-05
-2.25945e-09
1.32442e-05
-1.95554e-09
1.32453e-05
-1.69563e-09
1.32463e-05
-1.47398e-09
1.32472e-05
-1.28091e-09
1.32479e-05
-1.11414e-09
1.32486e-05
-9.68215e-10
1.32491e-05
-8.41825e-10
1.32496e-05
-7.31276e-10
1.32501e-05
-6.35414e-10
1.32504e-05
-5.51673e-10
1.32507e-05
-4.79027e-10
1.3251e-05
-4.15628e-10
1.32513e-05
-3.60617e-10
1.32515e-05
-3.12658e-10
1.32517e-05
-2.71047e-10
1.32518e-05
-2.34811e-10
1.3252e-05
-2.03383e-10
1.32521e-05
-1.76048e-10
1.32522e-05
-1.52353e-10
1.32523e-05
-1.31769e-10
1.32523e-05
-1.1394e-10
1.32524e-05
-9.84708e-11
1.32525e-05
-8.50826e-11
1.32525e-05
-7.348e-11
1.32526e-05
-6.3447e-11
1.32526e-05
-5.47608e-11
1.32526e-05
-4.72583e-11
1.32527e-05
-4.07727e-11
1.32527e-05
-3.51654e-11
1.32527e-05
-3.03161e-11
1.32527e-05
-2.61312e-11
1.32527e-05
-2.25233e-11
1.32527e-05
-1.94176e-11
1.32528e-05
-1.67334e-11
1.32528e-05
-1.44194e-11
1.32528e-05
-1.24217e-11
1.32528e-05
-1.07018e-11
1.32528e-05
-9.21569e-12
1.32528e-05
-7.94221e-12
1.32528e-05
-6.82907e-12
1.32528e-05
-5.88004e-12
1.32528e-05
-5.0964e-12
1.32528e-05
-4.39865e-12
1.32528e-05
-3.76485e-12
1.32528e-05
-3.19881e-12
1.32528e-05
-2.774e-12
1.32528e-05
-2.42547e-12
1.32528e-05
-2.09635e-12
1.32528e-05
-1.79318e-12
1.32528e-05
-1.53699e-12
1.32528e-05
-1.34737e-12
1.32528e-05
-1.16118e-12
1.32528e-05
-9.52238e-13
1.32528e-05
-7.66886e-13
1.32528e-05
-6.58688e-13
1.32528e-05
-5.84101e-13
1.32528e-05
-5.16231e-13
1.32528e-05
-4.53675e-13
1.32528e-05
-3.97529e-13
1.32528e-05
-3.47017e-13
1.32528e-05
-3.02212e-13
1.32528e-05
-2.62546e-13
1.32528e-05
-2.27675e-13
1.32528e-05
-1.97124e-13
1.32528e-05
-1.70524e-13
1.32528e-05
-1.47263e-13
1.32528e-05
-1.27263e-13
1.32528e-05
-1.09839e-13
1.32528e-05
-9.47185e-14
1.32528e-05
-8.15673e-14
1.32528e-05
-7.01247e-14
1.32528e-05
-6.01863e-14
1.32528e-05
-5.1583e-14
1.32528e-05
-4.41714e-14
1.32528e-05
-3.77952e-14
1.32528e-05
-3.23603e-14
1.32528e-05
-2.7737e-14
1.32528e-05
-2.37445e-14
1.32528e-05
-2.03904e-14
1.32528e-05
-1.73425e-14
1.32528e-05
-1.46841e-14
1.32528e-05
-1.22842e-14
1.32528e-05
-1.01159e-14
1.32528e-05
-8.14204e-15
1.32528e-05
-6.35967e-15
1.32528e-05
-4.69586e-15
1.32528e-05
-3.32262e-15
1.32528e-05
-2.12636e-15
1.32528e-05
-1.15807e-15
1.32528e-05
-4.2311e-16
1.32528e-05
1.11003e-16
1.32528e-05
4.47018e-16
1.32528e-05
6.27926e-16
1.32528e-05
6.72339e-16
1.32528e-05
6.43951e-16
1.32528e-05
5.31638e-16
1.32528e-05
3.5843e-16
1.32528e-05
1.48107e-16
1.32528e-05
-1.131e-16
1.32528e-05
-3.42614e-16
1.32528e-05
-5.80653e-16
1.32528e-05
-8.06381e-16
1.32528e-05
-9.96479e-16
1.32528e-05
-1.13087e-15
1.32528e-05
-1.17188e-15
1.32528e-05
-1.11473e-15
1.32528e-05
-9.83438e-16
1.32528e-05
-7.55944e-16
1.32528e-05
-4.26534e-16
1.32528e-05
-3.04961e-17
1.32528e-05
4.19225e-16
1.32528e-05
8.74298e-16
1.32528e-05
1.33791e-15
1.32528e-05
1.74604e-15
1.32528e-05
2.08246e-15
1.32528e-05
2.31029e-15
1.32528e-05
2.44017e-15
1.32528e-05
2.44963e-15
1.32528e-05
2.3693e-15
1.32528e-05
2.19774e-15
1.32528e-05
1.97295e-15
1.32528e-05
1.71371e-15
1.32528e-05
1.47598e-15
1.32528e-05
1.23786e-15
1.32528e-05
1.0224e-15
1.32528e-05
8.23874e-16
1.32528e-05
6.7016e-16
1.32528e-05
5.43833e-16
1.32528e-05
4.67483e-16
1.32528e-05
4.12797e-16
1.32528e-05
3.89874e-16
1.32528e-05
3.82647e-16
1.32528e-05
4.21197e-16
1.32528e-05
4.54995e-16
1.32528e-05
4.869e-16
1.32528e-05
5.01534e-16
1.32528e-05
5.18169e-16
1.32528e-05
5.16938e-16
1.32528e-05
5.18382e-16
1.32528e-05
4.99552e-16
1.32528e-05
4.76865e-16
1.32528e-05
4.43778e-16
1.32528e-05
4.34993e-16
1.32528e-05
4.09566e-16
1.32528e-05
3.75739e-16
1.32528e-05
3.2593e-16
1.32528e-05
2.84389e-16
1.32528e-05
2.32024e-16
1.32528e-05
1.91995e-16
1.32528e-05
1.45108e-16
1.32528e-05
1.09245e-16
1.32528e-05
7.49655e-17
1.32528e-05
8.04814e-17
1.32528e-05
8.17688e-17
1.32528e-05
8.84203e-17
1.32528e-05
8.68435e-17
1.32528e-05
9.76378e-17
1.32528e-05
9.80278e-17
1.32528e-05
1.09901e-16
1.32528e-05
1.09298e-16
1.32528e-05
1.0791e-16
1.32528e-05
1.00608e-16
1.32528e-05
1.21628e-16
1.32528e-05
1.2728e-16
1.32528e-05
1.22681e-16
1.32528e-05
9.28425e-17
1.32528e-05
5.09726e-17
1.32528e-05
-3.64796e-17
1.32528e-05
-1.59387e-16
1.32528e-05
-3.53218e-16
1.32528e-05
-6.09729e-16
1.32528e-05
-9.3749e-16
1.32528e-05
-1.29408e-15
1.32528e-05
-1.71402e-15
1.32528e-05
-2.1621e-15
1.32528e-05
-2.62309e-15
1.32528e-05
-3.03984e-15
1.32528e-05
-3.40028e-15
1.32528e-05
-3.64271e-15
1.32528e-05
-3.75958e-15
1.32528e-05
-3.70875e-15
1.32528e-05
-3.48697e-15
1.32528e-05
-3.06133e-15
1.32528e-05
-2.49905e-15
1.32528e-05
-1.82217e-15
1.32528e-05
-1.08388e-15
1.32528e-05
-3.14341e-16
1.32528e-05
3.95457e-16
1.32528e-05
1.00504e-15
1.32528e-05
1.44602e-15
1.32528e-05
1.70259e-15
1.32528e-05
1.71419e-15
1.32528e-05
1.37389e-15
1.32528e-05
1.92087e-16
1.32528e-05
-2.3049e-15
1.32528e-05
-6.42424e-15
1.32528e-05
-1.15264e-14
1.32528e-05
-1.38683e-14
1.32528e-05
-9.0072e-15
1.32528e-05
-9.72253e-16
1.32528e-05
4.59758e-15
1.32528e-05
9.59994e-15
1.32528e-05
1.50012e-14
1.32528e-05
1.69591e-14
1.32528e-05
1.28976e-14
1.32528e-05
6.30099e-15
1.32528e-05
2.55064e-15
1.32528e-05
1.69125e-15
1.32528e-05
1.49389e-15
1.32528e-05
1.40848e-15
1.32528e-05
1.3507e-15
1.32528e-05
1.28258e-15
1.32528e-05
1.23078e-15
1.32528e-05
1.15116e-15
1.32528e-05
1.05372e-15
1.32528e-05
9.31951e-16
1.32528e-05
8.13027e-16
1.32528e-05
6.80165e-16
1.32528e-05
5.5769e-16
1.32528e-05
4.25408e-16
1.32528e-05
2.99467e-16
1.32528e-05
1.75436e-16
1.32528e-05
9.30739e-17
1.32528e-05
7.25108e-18
1.32528e-05
-6.89085e-17
1.32528e-05
-1.49331e-16
1.32528e-05
-2.05481e-16
1.32528e-05
-2.68619e-16
1.32528e-05
-3.01369e-16
1.32528e-05
-3.54113e-16
1.32528e-05
-3.71519e-16
1.32528e-05
-4.27748e-16
1.32528e-05
-3.77701e-16
1.32528e-05
-4.39815e-16
1.32528e-05
-3.26833e-16
1.32528e-05
-4.97226e-16
1.32528e-05
-2.02534e-16
1.32528e-05
-6.40284e-16
1.32528e-05
1.11031e-16
1.32528e-05
-1.04514e-15
1.32528e-05
8.74957e-16
1.32528e-05
-2.17154e-15
1.32528e-05
2.85844e-15
1.32528e-05
-5.11323e-15
1.32528e-05
7.92558e-15
1.32528e-05
-1.33076e-14
1.32528e-05
1.81653e-14
1.32528e-05
-6.29224e-14
1.32528e-05
-2.69636e-13
1.32528e-05
-5.83469e-12
1.32528e-05
2.22408e-12
2.00948e-11
2.05334e-05
2.03532e-05
1.81926e-05
7.91631e-06
1.69495e-05
2.57105e-06
1.63977e-05
8.58765e-07
1.60115e-05
5.96279e-07
1.57843e-05
4.11479e-07
1.56307e-05
2.57359e-07
1.55347e-05
1.71637e-07
1.54756e-05
8.90667e-08
1.54476e-05
3.98002e-08
1.54357e-05
2.39073e-09
1.54394e-05
-2.03076e-08
1.54557e-05
-5.22539e-08
1.54792e-05
-6.31874e-08
1.55121e-05
-8.23696e-08
1.55509e-05
-9.42251e-08
1.55958e-05
-1.06872e-07
1.56445e-05
-1.13401e-07
1.56962e-05
-1.20424e-07
1.57532e-05
-1.31909e-07
1.5814e-05
-1.39698e-07
1.58775e-05
-1.4504e-07
1.59433e-05
-1.4978e-07
1.60106e-05
-1.5253e-07
1.60802e-05
-1.57108e-07
1.61487e-05
-1.54445e-07
1.62112e-05
-1.40774e-07
1.6266e-05
-1.22408e-07
1.63131e-05
-1.04759e-07
1.63534e-05
-8.87838e-08
1.63876e-05
-7.49956e-08
1.64165e-05
-6.30079e-08
1.64408e-05
-5.2877e-08
1.64612e-05
-4.42328e-08
1.64784e-05
-3.70328e-08
1.64928e-05
-3.09713e-08
1.65048e-05
-2.59654e-08
1.6515e-05
-2.17811e-08
1.65235e-05
-1.83319e-08
1.65307e-05
-1.54536e-08
1.65368e-05
-1.30753e-08
1.6542e-05
-1.10887e-08
1.65464e-05
-9.52918e-09
1.65502e-05
-8.16737e-09
1.65534e-05
-6.89693e-09
1.65561e-05
-5.77289e-09
1.65584e-05
-4.90593e-09
1.65604e-05
-4.22185e-09
1.65621e-05
-3.64899e-09
1.65635e-05
-3.16087e-09
1.65648e-05
-2.74393e-09
1.65659e-05
-2.38231e-09
1.65669e-05
-2.06987e-09
1.65677e-05
-1.79758e-09
1.65684e-05
-1.5616e-09
1.6569e-05
-1.35588e-09
1.65696e-05
-1.17742e-09
1.65701e-05
-1.0219e-09
1.65705e-05
-8.86933e-10
1.65708e-05
-7.69366e-10
1.65711e-05
-6.67317e-10
1.65714e-05
-5.78479e-10
1.65716e-05
-5.01376e-10
1.65718e-05
-4.34308e-10
1.6572e-05
-3.76122e-10
1.65721e-05
-3.25556e-10
1.65723e-05
-2.81714e-10
1.65724e-05
-2.43651e-10
1.65725e-05
-2.10675e-10
1.65726e-05
-1.82078e-10
1.65726e-05
-1.57321e-10
1.65727e-05
-1.35874e-10
1.65727e-05
-1.17324e-10
1.65728e-05
-1.01268e-10
1.65728e-05
-8.73959e-11
1.65729e-05
-7.54066e-11
1.65729e-05
-6.504e-11
1.65729e-05
-5.60765e-11
1.65729e-05
-4.83386e-11
1.6573e-05
-4.16673e-11
1.6573e-05
-3.59224e-11
1.6573e-05
-3.09592e-11
1.6573e-05
-2.66788e-11
1.6573e-05
-2.29847e-11
1.6573e-05
-1.9803e-11
1.6573e-05
-1.70547e-11
1.6573e-05
-1.4698e-11
1.6573e-05
-1.26411e-11
1.65731e-05
-1.0883e-11
1.65731e-05
-9.41719e-12
1.65731e-05
-8.12918e-12
1.65731e-05
-6.97294e-12
1.65731e-05
-5.94288e-12
1.65731e-05
-5.14324e-12
1.65731e-05
-4.47838e-12
1.65731e-05
-3.88173e-12
1.65731e-05
-3.3502e-12
1.65731e-05
-2.8782e-12
1.65731e-05
-2.48927e-12
1.65731e-05
-2.11093e-12
1.65731e-05
-1.73888e-12
1.65731e-05
-1.42842e-12
1.65731e-05
-1.22652e-12
1.65731e-05
-1.08242e-12
1.65731e-05
-9.54332e-13
1.65731e-05
-8.37942e-13
1.65731e-05
-7.33853e-13
1.65731e-05
-6.40555e-13
1.65731e-05
-5.57859e-13
1.65731e-05
-4.84725e-13
1.65731e-05
-4.20429e-13
1.65731e-05
-3.64104e-13
1.65731e-05
-3.15041e-13
1.65731e-05
-2.72166e-13
1.65731e-05
-2.35228e-13
1.65731e-05
-2.0308e-13
1.65731e-05
-1.75185e-13
1.65731e-05
-1.50936e-13
1.65731e-05
-1.29849e-13
1.65731e-05
-1.11532e-13
1.65731e-05
-9.56655e-14
1.65731e-05
-8.19794e-14
1.65731e-05
-7.02036e-14
1.65731e-05
-6.01414e-14
1.65731e-05
-5.15631e-14
1.65731e-05
-4.41693e-14
1.65731e-05
-3.79352e-14
1.65731e-05
-3.23275e-14
1.65731e-05
-2.74331e-14
1.65731e-05
-2.3037e-14
1.65731e-05
-1.90731e-14
1.65731e-05
-1.54737e-14
1.65731e-05
-1.22335e-14
1.65731e-05
-9.21524e-15
1.65731e-05
-6.68652e-15
1.65731e-05
-4.47272e-15
1.65731e-05
-2.65475e-15
1.65731e-05
-1.23247e-15
1.65731e-05
-1.76877e-16
1.65731e-05
5.36036e-16
1.65731e-05
9.58916e-16
1.65731e-05
1.13636e-15
1.65731e-05
1.14844e-15
1.65731e-05
1.00689e-15
1.65731e-05
7.44397e-16
1.65731e-05
4.09743e-16
1.65731e-05
-2.73171e-17
1.65731e-05
-4.2882e-16
1.65731e-05
-8.55846e-16
1.65731e-05
-1.25971e-15
1.65731e-05
-1.61348e-15
1.65731e-05
-1.87498e-15
1.65731e-05
-1.99484e-15
1.65731e-05
-1.94313e-15
1.65731e-05
-1.75989e-15
1.65731e-05
-1.40381e-15
1.65731e-05
-8.79678e-16
1.65731e-05
-2.2429e-16
1.65731e-05
5.30127e-16
1.65731e-05
1.31789e-15
1.65731e-05
2.12097e-15
1.65731e-05
2.85457e-15
1.65731e-05
3.47371e-15
1.65731e-05
3.92806e-15
1.65731e-05
4.21295e-15
1.65731e-05
4.29951e-15
1.65731e-05
4.21915e-15
1.65731e-05
3.98321e-15
1.65731e-05
3.63916e-15
1.65731e-05
3.22874e-15
1.65731e-05
2.82641e-15
1.65731e-05
2.42002e-15
1.65731e-05
2.04056e-15
1.65731e-05
1.69384e-15
1.65731e-05
1.4085e-15
1.65731e-05
1.17548e-15
1.65731e-05
1.01403e-15
1.65731e-05
9.00196e-16
1.65731e-05
8.35179e-16
1.65731e-05
8.07122e-16
1.65731e-05
8.39806e-16
1.65731e-05
8.78546e-16
1.65731e-05
9.15635e-16
1.65731e-05
9.36201e-16
1.65731e-05
9.55188e-16
1.65731e-05
9.5151e-16
1.65731e-05
9.43807e-16
1.65731e-05
9.14203e-16
1.65731e-05
8.7392e-16
1.65731e-05
8.20569e-16
1.65731e-05
7.91096e-16
1.65731e-05
7.43247e-16
1.65731e-05
6.81263e-16
1.65731e-05
6.00417e-16
1.65731e-05
5.22281e-16
1.65731e-05
4.3414e-16
1.65731e-05
3.57856e-16
1.65731e-05
2.78935e-16
1.65731e-05
2.10348e-16
1.65731e-05
1.52206e-16
1.65731e-05
1.42159e-16
1.65731e-05
1.36523e-16
1.65731e-05
1.38073e-16
1.65731e-05
1.35222e-16
1.65731e-05
1.44432e-16
1.65731e-05
1.47422e-16
1.65731e-05
1.59632e-16
1.65731e-05
1.58888e-16
1.65731e-05
1.549e-16
1.65731e-05
1.44362e-16
1.65731e-05
1.63744e-16
1.65731e-05
1.69155e-16
1.65731e-05
1.54821e-16
1.65731e-05
1.07313e-16
1.65731e-05
3.25657e-17
1.65731e-05
-1.08714e-16
1.65731e-05
-3.18775e-16
1.65731e-05
-6.36996e-16
1.65731e-05
-1.06757e-15
1.65731e-05
-1.6142e-15
1.65731e-05
-2.23586e-15
1.65731e-05
-2.95537e-15
1.65731e-05
-3.73512e-15
1.65731e-05
-4.5353e-15
1.65731e-05
-5.28109e-15
1.65731e-05
-5.9292e-15
1.65731e-05
-6.39563e-15
1.65731e-05
-6.64316e-15
1.65731e-05
-6.61203e-15
1.65731e-05
-6.27951e-15
1.65731e-05
-5.60978e-15
1.65731e-05
-4.67969e-15
1.65731e-05
-3.53636e-15
1.65731e-05
-2.25951e-15
1.65731e-05
-9.21323e-16
1.65731e-05
3.50225e-16
1.65731e-05
1.46571e-15
1.65731e-05
2.32033e-15
1.65731e-05
2.8591e-15
1.65731e-05
2.98789e-15
1.65731e-05
2.54576e-15
1.65731e-05
9.91808e-16
1.65731e-05
-2.14134e-15
1.65731e-05
-6.98336e-15
1.65731e-05
-1.2464e-14
1.65731e-05
-1.43872e-14
1.65731e-05
-8.49794e-15
1.65731e-05
6.35975e-16
1.65731e-05
7.245e-15
1.65731e-05
1.31101e-14
1.65731e-05
1.8869e-14
1.65731e-05
2.0434e-14
1.65731e-05
1.54548e-14
1.65731e-05
8.00124e-15
1.65731e-05
3.70719e-15
1.65731e-05
2.57115e-15
1.65731e-05
2.24605e-15
1.65731e-05
2.10138e-15
1.65731e-05
2.00605e-15
1.65731e-05
1.90963e-15
1.65731e-05
1.82901e-15
1.65731e-05
1.71885e-15
1.65731e-05
1.58041e-15
1.65731e-05
1.41334e-15
1.65731e-05
1.2427e-15
1.65731e-05
1.05765e-15
1.65731e-05
8.80607e-16
1.65731e-05
6.96735e-16
1.65731e-05
5.17635e-16
1.65731e-05
3.46139e-16
1.65731e-05
2.2258e-16
1.65731e-05
1.03004e-16
1.65731e-05
-5.45994e-18
1.65731e-05
-1.13145e-16
1.65731e-05
-1.94226e-16
1.65731e-05
-2.77408e-16
1.65731e-05
-3.27752e-16
1.65731e-05
-3.95431e-16
1.65731e-05
-4.2634e-16
1.65731e-05
-4.95533e-16
1.65731e-05
-4.47084e-16
1.65731e-05
-5.16639e-16
1.65731e-05
-3.94077e-16
1.65731e-05
-5.81539e-16
1.65731e-05
-2.56886e-16
1.65731e-05
-7.38506e-16
1.65731e-05
9.19509e-17
1.65731e-05
-1.18387e-15
1.65731e-05
9.38463e-16
1.65731e-05
-2.42787e-15
1.65731e-05
3.13547e-15
1.65731e-05
-5.67437e-15
1.65731e-05
8.7263e-15
1.65731e-05
-1.49394e-14
1.65731e-05
1.8152e-14
1.65731e-05
-8.64791e-14
1.65731e-05
-4.54601e-13
1.65731e-05
-6.22678e-12
1.65731e-05
2.91619e-12
1.85565e-11
2.24117e-05
2.03998e-05
2.10149e-05
9.31312e-06
1.98784e-05
3.70761e-06
1.90546e-05
1.68255e-06
1.84708e-05
1.18007e-06
1.81326e-05
7.4971e-07
1.79008e-05
4.89172e-07
1.77582e-05
3.14146e-07
1.7665e-05
1.82316e-07
1.76128e-05
9.19702e-08
1.75825e-05
3.26645e-08
1.75752e-05
-1.29353e-08
1.75827e-05
-5.97859e-08
1.76007e-05
-8.11471e-08
1.76303e-05
-1.12024e-07
1.76676e-05
-1.31548e-07
1.77131e-05
-1.52288e-07
1.77636e-05
-1.63933e-07
1.7818e-05
-1.74823e-07
1.78784e-05
-1.92319e-07
1.79434e-05
-2.04742e-07
1.80119e-05
-2.13527e-07
1.80833e-05
-2.21123e-07
1.81568e-05
-2.26037e-07
1.82329e-05
-2.33249e-07
1.83074e-05
-2.28919e-07
1.8375e-05
-2.08378e-07
1.84344e-05
-1.81826e-07
1.84859e-05
-1.56238e-07
1.85301e-05
-1.3298e-07
1.85678e-05
-1.12701e-07
1.85998e-05
-9.50033e-08
1.86268e-05
-7.99273e-08
1.86496e-05
-6.70344e-08
1.86688e-05
-5.6225e-08
1.8685e-05
-4.71116e-08
1.86986e-05
-3.95428e-08
1.871e-05
-3.32117e-08
1.87196e-05
-2.79676e-08
1.87278e-05
-2.35913e-08
1.87346e-05
-1.99605e-08
1.87405e-05
-1.69254e-08
1.87455e-05
-1.4528e-08
1.87498e-05
-1.24541e-08
1.87534e-05
-1.05256e-08
1.87564e-05
-8.8152e-09
1.8759e-05
-7.48173e-09
1.87612e-05
-6.43108e-09
1.87631e-05
-5.5524e-09
1.87648e-05
-4.80536e-09
1.87662e-05
-4.16704e-09
1.87674e-05
-3.61495e-09
1.87685e-05
-3.13812e-09
1.87694e-05
-2.72365e-09
1.87702e-05
-2.36457e-09
1.87709e-05
-2.05215e-09
1.87715e-05
-1.7812e-09
1.87721e-05
-1.54543e-09
1.87725e-05
-1.34084e-09
1.87729e-05
-1.16283e-09
1.87732e-05
-1.00833e-09
1.87735e-05
-8.7395e-10
1.87738e-05
-7.5732e-10
1.8774e-05
-6.55945e-10
1.87742e-05
-5.6799e-10
1.87744e-05
-4.916e-10
1.87745e-05
-4.25397e-10
1.87746e-05
-3.67882e-10
1.87747e-05
-3.18078e-10
1.87748e-05
-2.74902e-10
1.87749e-05
-2.37521e-10
1.8775e-05
-2.05146e-10
1.8775e-05
-1.77139e-10
1.87751e-05
-1.52903e-10
1.87751e-05
-1.3196e-10
1.87752e-05
-1.13861e-10
1.87752e-05
-9.82122e-11
1.87752e-05
-8.46829e-11
1.87753e-05
-7.30015e-11
1.87753e-05
-6.29297e-11
1.87753e-05
-5.4254e-11
1.87753e-05
-4.67604e-11
1.87753e-05
-4.02967e-11
1.87753e-05
-3.47192e-11
1.87754e-05
-2.99138e-11
1.87754e-05
-2.57643e-11
1.87754e-05
-2.22038e-11
1.87754e-05
-1.91002e-11
1.87754e-05
-1.6444e-11
1.87754e-05
-1.42175e-11
1.87754e-05
-1.22722e-11
1.87754e-05
-1.05367e-11
1.87754e-05
-8.99614e-12
1.87754e-05
-7.77627e-12
1.87754e-05
-6.75434e-12
1.87754e-05
-5.85178e-12
1.87754e-05
-5.08169e-12
1.87754e-05
-4.38905e-12
1.87754e-05
-3.77272e-12
1.87754e-05
-3.16028e-12
1.87754e-05
-2.60016e-12
1.87754e-05
-2.16564e-12
1.87754e-05
-1.86023e-12
1.87754e-05
-1.63658e-12
1.87754e-05
-1.44016e-12
1.87754e-05
-1.26333e-12
1.87754e-05
-1.10574e-12
1.87754e-05
-9.64909e-13
1.87754e-05
-8.40218e-13
1.87754e-05
-7.30066e-13
1.87754e-05
-6.33255e-13
1.87754e-05
-5.48479e-13
1.87754e-05
-4.74625e-13
1.87754e-05
-4.10126e-13
1.87754e-05
-3.54501e-13
1.87754e-05
-3.06127e-13
1.87754e-05
-2.64162e-13
1.87754e-05
-2.27695e-13
1.87754e-05
-1.95992e-13
1.87754e-05
-1.68451e-13
1.87754e-05
-1.44578e-13
1.87754e-05
-1.23968e-13
1.87754e-05
-1.06228e-13
1.87754e-05
-9.10533e-14
1.87754e-05
-7.80966e-14
1.87754e-05
-6.69403e-14
1.87754e-05
-5.75129e-14
1.87754e-05
-4.90806e-14
1.87754e-05
-4.17148e-14
1.87754e-05
-3.51157e-14
1.87754e-05
-2.91657e-14
1.87754e-05
-2.37615e-14
1.87754e-05
-1.88923e-14
1.87754e-05
-1.43652e-14
1.87754e-05
-1.05261e-14
1.87754e-05
-7.1544e-15
1.87754e-05
-4.35322e-15
1.87754e-05
-2.12377e-15
1.87754e-05
-4.3963e-16
1.87754e-05
7.3801e-16
1.87754e-05
1.47213e-15
1.87754e-05
1.83113e-15
1.87754e-05
1.91488e-15
1.87754e-05
1.7526e-15
1.87754e-05
1.39809e-15
1.87754e-05
9.21678e-16
1.87754e-05
2.81277e-16
1.87754e-05
-3.32984e-16
1.87754e-05
-9.91509e-16
1.87754e-05
-1.62505e-15
1.87754e-05
-2.19159e-15
1.87754e-05
-2.62986e-15
1.87754e-05
-2.87564e-15
1.87754e-05
-2.86989e-15
1.87754e-05
-2.66304e-15
1.87754e-05
-2.19334e-15
1.87754e-05
-1.47538e-15
1.87754e-05
-5.4998e-16
1.87754e-05
5.34849e-16
1.87754e-05
1.69756e-15
1.87754e-05
2.89276e-15
1.87754e-05
4.00844e-15
1.87754e-05
4.97683e-15
1.87754e-05
5.72389e-15
1.87754e-05
6.22506e-15
1.87754e-05
6.44471e-15
1.87754e-05
6.40908e-15
1.87754e-05
6.1415e-15
1.87754e-05
5.69949e-15
1.87754e-05
5.14682e-15
1.87754e-05
4.5745e-15
1.87754e-05
3.98663e-15
1.87754e-05
3.42752e-15
1.87754e-05
2.911e-15
1.87754e-05
2.47244e-15
1.87754e-05
2.10886e-15
1.87754e-05
1.83994e-15
1.87754e-05
1.64328e-15
1.87754e-05
1.51767e-15
1.87754e-05
1.44838e-15
1.87754e-05
1.45623e-15
1.87754e-05
1.47806e-15
1.87754e-05
1.50408e-15
1.87754e-05
1.51477e-15
1.87754e-05
1.52032e-15
1.87754e-05
1.50079e-15
1.87754e-05
1.47316e-15
1.87754e-05
1.41975e-15
1.87754e-05
1.35402e-15
1.87754e-05
1.27261e-15
1.87754e-05
1.21393e-15
1.87754e-05
1.13438e-15
1.87754e-05
1.03782e-15
1.87754e-05
9.19933e-16
1.87754e-05
8.01615e-16
1.87754e-05
6.71755e-16
1.87754e-05
5.54815e-16
1.87754e-05
4.37028e-16
1.87754e-05
3.33647e-16
1.87754e-05
2.46659e-16
1.87754e-05
2.15692e-16
1.87754e-05
1.95985e-16
1.87754e-05
1.88578e-16
1.87754e-05
1.82666e-16
1.87754e-05
1.90295e-16
1.87754e-05
1.93352e-16
1.87754e-05
2.0621e-16
1.87754e-05
2.05116e-16
1.87754e-05
1.99243e-16
1.87754e-05
1.86857e-16
1.87754e-05
2.02926e-16
1.87754e-05
2.02773e-16
1.87754e-05
1.78209e-16
1.87754e-05
1.11606e-16
1.87754e-05
1.31897e-18
1.87754e-05
-1.98846e-16
1.87754e-05
-5.02193e-16
1.87754e-05
-9.57398e-16
1.87754e-05
-1.57614e-15
1.87754e-05
-2.368e-15
1.87754e-05
-3.28816e-15
1.87754e-05
-4.35472e-15
1.87754e-05
-5.51678e-15
1.87754e-05
-6.71603e-15
1.87754e-05
-7.8545e-15
1.87754e-05
-8.8576e-15
1.87754e-05
-9.61094e-15
1.87754e-05
-1.00461e-14
1.87754e-05
-1.00758e-14
1.87754e-05
-9.65881e-15
1.87754e-05
-8.74985e-15
1.87754e-05
-7.43333e-15
1.87754e-05
-5.77865e-15
1.87754e-05
-3.89696e-15
1.87754e-05
-1.90263e-15
1.87754e-05
2.96239e-17
1.87754e-05
1.76156e-15
1.87754e-05
3.14372e-15
1.87754e-05
4.08112e-15
1.87754e-05
4.43955e-15
1.87754e-05
4.02194e-15
1.87754e-05
2.27352e-15
1.87754e-05
-1.21263e-15
1.87754e-05
-6.37656e-15
1.87754e-05
-1.18096e-14
1.87754e-05
-1.31828e-14
1.87754e-05
-6.67172e-15
1.87754e-05
2.91778e-15
1.87754e-05
1.00254e-14
1.87754e-05
1.62433e-14
1.87754e-05
2.18804e-14
1.87754e-05
2.28791e-14
1.87754e-05
1.72798e-14
1.87754e-05
9.44559e-15
1.87754e-05
4.89684e-15
1.87754e-05
3.55583e-15
1.87754e-05
3.10753e-15
1.87754e-05
2.89217e-15
1.87754e-05
2.74941e-15
1.87754e-05
2.61384e-15
1.87754e-05
2.49495e-15
1.87754e-05
2.34191e-15
1.87754e-05
2.15589e-15
1.87754e-05
1.9366e-15
1.87754e-05
1.71054e-15
1.87754e-05
1.46915e-15
1.87754e-05
1.23541e-15
1.87754e-05
9.9796e-16
1.87754e-05
7.68009e-16
1.87754e-05
5.50092e-16
1.87754e-05
3.86012e-16
1.87754e-05
2.30567e-16
1.87754e-05
9.11479e-17
1.87754e-05
-4.22792e-17
1.87754e-05
-1.4575e-16
1.87754e-05
-2.47401e-16
1.87754e-05
-3.1372e-16
1.87754e-05
-3.95085e-16
1.87754e-05
-4.37642e-16
1.87754e-05
-5.17199e-16
1.87754e-05
-4.74642e-16
1.87754e-05
-5.5014e-16
1.87754e-05
-4.28628e-16
1.87754e-05
-6.19806e-16
1.87754e-05
-2.90995e-16
1.87754e-05
-7.79183e-16
1.87754e-05
6.37702e-17
1.87754e-05
-1.23015e-15
1.87754e-05
9.23706e-16
1.87754e-05
-2.4922e-15
1.87754e-05
3.15429e-15
1.87754e-05
-5.78822e-15
1.87754e-05