/*--------------------------------*- C++ -*----------------------------------*\
| =========                 |                                                 |
| \\      /  F ield         | foam-extend: Open Source CFD                    |
|  \\    /   O peration     | Version:     3.2                                |
|   \\  /    A nd           | Web:         http://www.foam-extend.org         |
|    \\/     M anipulation  | For copyright notice see file Copyright         |
\*---------------------------------------------------------------------------*/
FoamFile
{
    version     2.0;
    format      ascii;
    class       volVectorField;
    location    "79";
    object      q_b_slide;
}
// * * * * * * * * * * * * * * * * * * * * * * * * * * * * * * * * * * * * * //

dimensions      [0 2 -1 0 0 0 0];

internalField   uniform (0 0 0);

boundaryField
{
    inlet
    {
        type            calculated;
        value           uniform (0 0 0);
    }
    outlet
    {
        type            calculated;
        value           uniform (0 0 0);
    }
    sideWall
    {
        type            empty;
    }
    bed
    {
        type            calculated;
        value           nonuniform List<vector> 
300
(
(0.000499673 -8.25458e-29 -2.49836e-06)
(0.00035419 1.12311e-28 -1.77095e-06)
(0.000252343 3.74206e-29 -1.26172e-06)
(0.000253454 0 -1.26727e-06)
(0.000242853 -2.56646e-26 -1.21427e-06)
(0.000242834 -6.57793e-27 -1.21417e-06)
(0.000237624 -9.46999e-27 -1.18812e-06)
(0.000237376 -1.93515e-27 -1.18688e-06)
(0.000235505 0 -1.17753e-06)
(0.000236215 -1.58959e-27 -1.18107e-06)
(0.000236385 0 -1.18192e-06)
(0.000237602 2.16062e-27 -1.18801e-06)
(0.000238828 -2.63796e-31 -1.19414e-06)
(0.000240769 2.8414e-27 -1.20384e-06)
(0.000242584 0 -1.21292e-06)
(0.000244876 0 -1.22438e-06)
(0.000247197 3.28785e-27 -1.23599e-06)
(0.000249796 -3.09775e-27 -1.24898e-06)
(0.000252358 3.40872e-27 -1.26179e-06)
(0.000255162 0 -1.27581e-06)
(0.000258098 0 -1.29049e-06)
(0.000261113 -3.58729e-27 -1.30557e-06)
(0.000264193 0 -1.32096e-06)
(0.000267303 0 -1.33651e-06)
(0.000270419 0 -1.3521e-06)
(0.000273567 -3.3197e-27 -1.36784e-06)
(0.000276482 -1.27048e-30 -1.38241e-06)
(0.000279024 0 -1.39512e-06)
(0.000281154 0 -1.40577e-06)
(0.000282937 -1.3902e-27 -1.41469e-06)
(0.000284411 -7.2552e-31 -1.42206e-06)
(0.000285639 0 -1.4282e-06)
(0.000286653 0 -1.43326e-06)
(0.000287497 0 -1.43748e-06)
(0.000288195 -3.67173e-31 -1.44097e-06)
(0.000288778 0 -1.44389e-06)
(0.000289263 0 -1.44631e-06)
(0.00028967 0 -1.44835e-06)
(0.00029001 0 -1.45005e-06)
(0.000290297 0 -1.45148e-06)
(0.000290538 0 -1.45269e-06)
(0.000290742 -1.17178e-28 -1.45371e-06)
(0.000290916 0 -1.45458e-06)
(0.000291067 -8.65741e-29 -1.45533e-06)
(0.000291194 0 -1.45597e-06)
(0.000291301 0 -1.45651e-06)
(0.000291391 -5.38426e-29 -1.45695e-06)
(0.000291468 0 -1.45734e-06)
(0.000291535 -4.21679e-29 -1.45767e-06)
(0.000291593 0 -1.45796e-06)
(0.000291643 0 -1.45822e-06)
(0.000291687 -2.93097e-29 -1.45844e-06)
(0.000291725 0 -1.45863e-06)
(0.000291759 -2.2902e-29 -1.45879e-06)
(0.000291788 0 -1.45894e-06)
(0.000291813 0 -1.45906e-06)
(0.000291835 -1.55971e-29 -1.45917e-06)
(0.000291854 0 -1.45927e-06)
(0.000291871 -8.71447e-33 -1.45935e-06)
(0.000291885 0 -1.45943e-06)
(0.000291898 0 -1.45949e-06)
(0.000291909 -7.8664e-30 -1.45954e-06)
(0.000291918 0 -1.45959e-06)
(0.000291926 -5.9424e-30 -1.45963e-06)
(0.000291933 0 -1.45967e-06)
(0.000291939 0 -1.4597e-06)
(0.000291945 -3.87257e-30 -1.45972e-06)
(0.000291949 0 -1.45975e-06)
(0.000291953 -2.89627e-30 -1.45977e-06)
(0.000291957 0 -1.45978e-06)
(0.00029196 2.15896e-30 -1.4598e-06)
(0.000291962 -1.8632e-30 -1.45981e-06)
(0.000291964 0 -1.45982e-06)
(0.000291966 -1.38496e-30 -1.45983e-06)
(0.000291968 0 -1.45984e-06)
(0.000291969 0 -1.45985e-06)
(0.000291971 -8.87178e-31 -1.45985e-06)
(0.000291972 0 -1.45986e-06)
(0.000291973 -6.57373e-31 -1.45986e-06)
(0.000291973 0 -1.45987e-06)
(0.000291974 0 -1.45987e-06)
(0.000291975 0 -1.45987e-06)
(0.000291975 0 -1.45988e-06)
(0.000291976 0 -1.45988e-06)
(0.000291976 0 -1.45988e-06)
(0.000291976 2.29764e-31 -1.45988e-06)
(0.000291977 0 -1.45988e-06)
(0.000291977 0 -1.45988e-06)
(0.000291977 1.06727e-34 -1.45989e-06)
(0.000291977 0 -1.45989e-06)
(0.000291977 0 -1.45989e-06)
(0.000291978 0 -1.45989e-06)
(0.000291978 0 -1.45989e-06)
(0.000291978 0 -1.45989e-06)
(0.000291978 0 -1.45989e-06)
(0.000291978 0 -1.45989e-06)
(0.000291978 0 -1.45989e-06)
(0.000291978 0 -1.45989e-06)
(0.000291978 0 -1.45989e-06)
(0.000291978 0 -1.45989e-06)
(0.000291978 0 -1.45989e-06)
(0.000291978 1.5476e-32 -1.45989e-06)
(0.000291978 0 -1.45989e-06)
(0.000291978 0 -1.45989e-06)
(0.000291978 9.10429e-36 -1.45989e-06)
(0.000291978 0 -1.45989e-06)
(0.000291978 0 -1.45989e-06)
(0.000291978 0 -1.45989e-06)
(0.000291978 0 -1.45989e-06)
(0.000291978 0 -1.45989e-06)
(0.000291978 0 -1.45989e-06)
(0.000291978 0 -1.45989e-06)
(0.000291978 0 -1.45989e-06)
(0.000291978 0 -1.45989e-06)
(0.000291978 0 -1.45989e-06)
(0.000291978 0 -1.45989e-06)
(0.000291978 0 -1.45989e-06)
(0.000291978 1.94852e-33 -1.45989e-06)
(0.000291978 0 -1.45989e-06)
(0.000291978 1.08176e-36 -1.45989e-06)
(0.000291978 0 -1.45989e-06)
(0.000291978 0 -1.45989e-06)
(0.000291978 0 -1.45989e-06)
(0.000291978 0 -1.45989e-06)
(0.000291978 0 -1.45989e-06)
(0.000291978 0 -1.45989e-06)
(0.000291978 0 -1.45989e-06)
(0.000291978 0 -1.45989e-06)
(0.000291978 0 -1.45989e-06)
(0.000291978 0 -1.45989e-06)
(0.000291978 0 -1.45989e-06)
(0.000291978 1.7026e-37 -1.45989e-06)
(0.000291978 0 -1.45989e-06)
(0.000291978 0 -1.45989e-06)
(0.000291978 0 -1.45989e-06)
(0.000291978 0 -1.45989e-06)
(0.000291978 0 -1.45989e-06)
(0.000291978 0 -1.45989e-06)
(0.000291978 0 -1.45989e-06)
(0.000291978 0 -1.45989e-06)
(0.000291978 0 -1.45989e-06)
(0.000291978 0 -1.45989e-06)
(0.000291978 0 -1.45989e-06)
(0.000291978 0 -1.45989e-06)
(0.000291978 0 -1.45989e-06)
(0.000291978 0 -1.45989e-06)
(0.000291978 0 -1.45989e-06)
(0.000291978 0 -1.45989e-06)
(0.000291978 0 -1.45989e-06)
(0.000291978 0 -1.45989e-06)
(0.000291978 0 -1.45989e-06)
(0.000291978 0 -1.45989e-06)
(0.000291978 0 -1.45989e-06)
(0.000291978 0 -1.45989e-06)
(0.000291978 0 -1.45989e-06)
(0.000291978 0 -1.45989e-06)
(0.000291978 0 -1.45989e-06)
(0.000291978 0 -1.45989e-06)
(0.000291978 0 -1.45989e-06)
(0.000291978 0 -1.45989e-06)
(0.000291978 0 -1.45989e-06)
(0.000291978 0 -1.45989e-06)
(0.000291978 0 -1.45989e-06)
(0.000291978 0 -1.45989e-06)
(0.000291978 0 -1.45989e-06)
(0.000291978 0 -1.45989e-06)
(0.000291978 0 -1.45989e-06)
(0.000291978 0 -1.45989e-06)
(0.000291978 0 -1.45989e-06)
(0.000291978 0 -1.45989e-06)
(0.000291978 0 -1.45989e-06)
(0.000291978 0 -1.45989e-06)
(0.000291978 0 -1.45989e-06)
(0.000291978 0 -1.45989e-06)
(0.000291978 0 -1.45989e-06)
(0.000291978 0 -1.45989e-06)
(0.000291978 0 -1.45989e-06)
(0.000291978 0 -1.45989e-06)
(0.000291978 0 -1.45989e-06)
(0.000291978 0 -1.45989e-06)
(0.000291978 0 -1.45989e-06)
(0.000291978 0 -1.45989e-06)
(0.000291978 0 -1.45989e-06)
(0.000291978 0 -1.45989e-06)
(0.000291978 0 -1.45989e-06)
(0.000291978 0 -1.45989e-06)
(0.000291978 0 -1.45989e-06)
(0.000291978 0 -1.45989e-06)
(0.000291978 0 -1.45989e-06)
(0.000291978 0 -1.45989e-06)
(0.000291978 0 -1.45989e-06)
(0.000291978 0 -1.45989e-06)
(0.000291978 0 -1.45989e-06)
(0.000291978 0 -1.45989e-06)
(0.000291978 0 -1.45989e-06)
(0.000291978 0 -1.45989e-06)
(0.000291978 0 -1.45989e-06)
(0.000291978 0 -1.45989e-06)
(0.000291978 0 -1.45989e-06)
(0.000291978 0 -1.45989e-06)
(0.000291978 0 -1.45989e-06)
(0.000291978 0 -1.45989e-06)
(0.000291978 0 -1.45989e-06)
(0.000291978 0 -1.45989e-06)
(0.000291978 0 -1.45989e-06)
(0.000291978 0 -1.45989e-06)
(0.000291978 0 -1.45989e-06)
(0.000291978 0 -1.45989e-06)
(0.000291978 0 -1.45989e-06)
(0.000291978 0 -1.45989e-06)
(0.000291978 0 -1.45989e-06)
(0.000291978 0 -1.45989e-06)
(0.000291978 0 -1.45989e-06)
(0.000291978 0 -1.45989e-06)
(0.000291978 0 -1.45989e-06)
(0.000291978 0 -1.45989e-06)
(0.000291978 0 -1.45989e-06)
(0.000291978 0 -1.45989e-06)
(0.000291978 0 -1.45989e-06)
(0.000291978 0 -1.45989e-06)
(0.000291978 0 -1.45989e-06)
(0.000291978 0 -1.45989e-06)
(0.000291978 0 -1.45989e-06)
(0.000291978 0 -1.45989e-06)
(0.000291978 0 -1.45989e-06)
(0.000291978 0 -1.45989e-06)
(0.000291978 0 -1.45989e-06)
(0.000291978 0 -1.45989e-06)
(0.000291978 0 -1.45989e-06)
(0.000291978 0 -1.45989e-06)
(0.000291978 0 -1.45989e-06)
(0.000291978 0 -1.45989e-06)
(0.000291978 0 -1.45989e-06)
(0.000291978 0 -1.45989e-06)
(0.000291978 0 -1.45989e-06)
(0.000291978 0 -1.45989e-06)
(0.000291978 0 -1.45989e-06)
(0.000291978 0 -1.45989e-06)
(0.000291978 0 -1.45989e-06)
(0.000291978 0 -1.45989e-06)
(0.000291978 0 -1.45989e-06)
(0.000291978 0 -1.45989e-06)
(0.000291978 0 -1.45989e-06)
(0.000291978 0 -1.45989e-06)
(0.000291978 0 -1.45989e-06)
(0.000291978 0 -1.45989e-06)
(0.000291978 0 -1.45989e-06)
(0.000291978 0 -1.45989e-06)
(0.000291978 0 -1.45989e-06)
(0.000291978 0 -1.45989e-06)
(0.000291978 0 -1.45989e-06)
(0.000291978 0 -1.45989e-06)
(0.000291978 0 -1.45989e-06)
(0.000291978 0 -1.45989e-06)
(0.000291978 0 -1.45989e-06)
(0.000291978 0 -1.45989e-06)
(0.000291978 0 -1.45989e-06)
(0.000291978 0 -1.45989e-06)
(0.000291978 0 -1.45989e-06)
(0.000291978 0 -1.45989e-06)
(0.000291978 0 -1.45989e-06)
(0.000291978 0 -1.45989e-06)
(0.000291978 0 -1.45989e-06)
(0.000291978 0 -1.45989e-06)
(0.000291978 0 -1.45989e-06)
(0.000291978 0 -1.45989e-06)
(0.000291978 0 -1.45989e-06)
(0.000291978 0 -1.45989e-06)
(0.000291978 4.31233e-39 -1.45989e-06)
(0.000291978 0 -1.45989e-06)
(0.000291978 0 -1.45989e-06)
(0.000291978 0 -1.45989e-06)
(0.000291978 0 -1.45989e-06)
(0.000291978 0 -1.45989e-06)
(0.000291978 0 -1.45989e-06)
(0.000291978 0 -1.45989e-06)
(0.000291978 0 -1.45989e-06)
(0.000291978 0 -1.45989e-06)
(0.000291978 0 -1.45989e-06)
(0.000291978 0 -1.45989e-06)
(0.000291978 0 -1.45989e-06)
(0.000291978 -1.5113e-34 -1.45989e-06)
(0.000291978 0 -1.45989e-06)
(0.000291978 0 -1.45989e-06)
(0.000291978 0 -1.45989e-06)
(0.000291978 0 -1.45989e-06)
(0.000291978 0 -1.45989e-06)
(0.000291978 0 -1.45989e-06)
(0.000291978 0 -1.45989e-06)
(0.000291978 0 -1.45989e-06)
(0.000291978 0 -1.45989e-06)
(0.000291978 0 -1.45989e-06)
(0.000291978 0 -1.45989e-06)
(0.000291978 0 -1.45989e-06)
(0.000291978 0 -1.45989e-06)
(0.000291978 0 -1.45989e-06)
(0.000291978 0 -1.45989e-06)
(0.000291978 0 -1.45989e-06)
(0.000291979 0 -1.45989e-06)
(0.000291978 0 -1.45989e-06)
)
;
    }
    topWall
    {
        type            calculated;
        value           uniform (0 0 0);
    }
}


// ************************************************************************* //
