/*--------------------------------*- C++ -*----------------------------------*\
| =========                 |                                                 |
| \\      /  F ield         | foam-extend: Open Source CFD                    |
|  \\    /   O peration     | Version:     3.2                                |
|   \\  /    A nd           | Web:         http://www.foam-extend.org         |
|    \\/     M anipulation  | For copyright notice see file Copyright         |
\*---------------------------------------------------------------------------*/
FoamFile
{
    version     2.0;
    format      ascii;
    class       edgeScalarField;
    location    "79";
    object      q_f;
}
// * * * * * * * * * * * * * * * * * * * * * * * * * * * * * * * * * * * * * //

dimensions      [0 3 -1 0 0 0 0];

internalField   nonuniform List<scalar> 
299
(
8.53873e-06
6.06541e-06
5.05804e-06
4.96313e-06
4.85693e-06
4.80464e-06
4.75006e-06
4.72887e-06
4.71726e-06
4.72606e-06
4.73993e-06
4.76436e-06
4.79603e-06
4.83358e-06
4.87466e-06
4.9208e-06
4.96999e-06
5.0216e-06
5.07527e-06
5.13267e-06
5.19218e-06
5.25313e-06
5.31502e-06
5.37729e-06
5.43994e-06
5.50056e-06
5.55513e-06
5.60185e-06
5.64098e-06
5.67356e-06
5.70057e-06
5.72299e-06
5.74156e-06
5.75699e-06
5.7698e-06
5.78048e-06
5.7894e-06
5.79687e-06
5.80314e-06
5.80842e-06
5.81288e-06
5.81666e-06
5.8199e-06
5.82268e-06
5.82503e-06
5.82699e-06
5.82866e-06
5.8301e-06
5.83135e-06
5.83243e-06
5.83338e-06
5.8342e-06
5.83491e-06
5.83554e-06
5.83608e-06
5.83655e-06
5.83696e-06
5.83732e-06
5.83763e-06
5.8379e-06
5.83813e-06
5.83834e-06
5.83851e-06
5.83867e-06
5.8388e-06
5.83891e-06
5.83901e-06
5.8391e-06
5.83917e-06
5.83924e-06
5.83929e-06
5.83934e-06
5.83938e-06
5.83942e-06
5.83945e-06
5.83948e-06
5.8395e-06
5.83952e-06
5.83953e-06
5.83955e-06
5.83956e-06
5.83957e-06
5.83958e-06
5.83959e-06
5.8396e-06
5.8396e-06
5.83961e-06
5.83961e-06
5.83962e-06
5.83962e-06
5.83962e-06
5.83963e-06
5.83963e-06
5.83963e-06
5.83963e-06
5.83963e-06
5.83963e-06
5.83963e-06
5.83964e-06
5.83964e-06
5.83964e-06
5.83964e-06
5.83964e-06
5.83964e-06
5.83964e-06
5.83964e-06
5.83964e-06
5.83964e-06
5.83964e-06
5.83964e-06
5.83964e-06
5.83964e-06
5.83964e-06
5.83964e-06
5.83964e-06
5.83964e-06
5.83964e-06
5.83964e-06
5.83964e-06
5.83964e-06
5.83964e-06
5.83964e-06
5.83964e-06
5.83964e-06
5.83964e-06
5.83964e-06
5.83964e-06
5.83964e-06
5.83964e-06
5.83964e-06
5.83964e-06
5.83964e-06
5.83964e-06
5.83964e-06
5.83964e-06
5.83964e-06
5.83964e-06
5.83964e-06
5.83964e-06
5.83964e-06
5.83964e-06
5.83964e-06
5.83964e-06
5.83964e-06
5.83964e-06
5.83964e-06
5.83964e-06
5.83964e-06
5.83964e-06
5.83964e-06
5.83964e-06
5.83964e-06
5.83964e-06
5.83964e-06
5.83964e-06
5.83964e-06
5.83964e-06
5.83964e-06
5.83964e-06
5.83964e-06
5.83964e-06
5.83964e-06
5.83964e-06
5.83964e-06
5.83964e-06
5.83964e-06
5.83964e-06
5.83964e-06
5.83964e-06
5.83964e-06
5.83964e-06
5.83964e-06
5.83964e-06
5.83964e-06
5.83964e-06
5.83964e-06
5.83964e-06
5.83964e-06
5.83964e-06
5.83964e-06
5.83964e-06
5.83964e-06
5.83964e-06
5.83964e-06
5.83964e-06
5.83964e-06
5.83964e-06
5.83964e-06
5.83964e-06
5.83964e-06
5.83964e-06
5.83964e-06
5.83964e-06
5.83964e-06
5.83964e-06
5.83964e-06
5.83964e-06
5.83964e-06
5.83964e-06
5.83964e-06
5.83964e-06
5.83964e-06
5.83964e-06
5.83964e-06
5.83964e-06
5.83964e-06
5.83964e-06
5.83964e-06
5.83964e-06
5.83964e-06
5.83964e-06
5.83964e-06
5.83964e-06
5.83964e-06
5.83964e-06
5.83964e-06
5.83964e-06
5.83964e-06
5.83964e-06
5.83964e-06
5.83964e-06
5.83964e-06
5.83964e-06
5.83964e-06
5.83964e-06
5.83964e-06
5.83964e-06
5.83964e-06
5.83964e-06
5.83964e-06
5.83964e-06
5.83964e-06
5.83964e-06
5.83964e-06
5.83964e-06
5.83964e-06
5.83964e-06
5.83964e-06
5.83964e-06
5.83964e-06
5.83964e-06
5.83964e-06
5.83964e-06
5.83964e-06
5.83964e-06
5.83964e-06
5.83964e-06
5.83964e-06
5.83964e-06
5.83964e-06
5.83964e-06
5.83964e-06
5.83964e-06
5.83964e-06
5.83964e-06
5.83964e-06
5.83964e-06
5.83964e-06
5.83964e-06
5.83964e-06
5.83964e-06
5.83964e-06
5.83964e-06
5.83964e-06
5.83964e-06
5.83964e-06
5.83964e-06
5.83964e-06
5.83964e-06
5.83964e-06
5.83964e-06
5.83964e-06
5.83964e-06
5.83964e-06
5.83964e-06
5.83964e-06
5.83964e-06
5.83964e-06
5.83964e-06
5.83964e-06
5.83964e-06
5.83964e-06
5.83964e-06
5.83964e-06
5.83964e-06
5.83964e-06
5.83964e-06
5.83964e-06
5.83964e-06
5.83964e-06
5.83964e-06
5.83964e-06
5.83964e-06
5.83964e-06
5.83964e-06
5.83964e-06
5.83964e-06
5.83965e-06
5.83964e-06
)
;

boundaryField
{
    inlet
    {
        type            calculated;
        value           uniform 0;
    }
    outlet
    {
        type            calculated;
        value           uniform 0;
    }
    sideWall
    {
        type            empty;
    }
}


// ************************************************************************* //
