/*--------------------------------*- C++ -*----------------------------------*\
| =========                 |                                                 |
| \\      /  F ield         | foam-extend: Open Source CFD                    |
|  \\    /   O peration     | Version:     3.2                                |
|   \\  /    A nd           | Web:         http://www.foam-extend.org         |
|    \\/     M anipulation  | For copyright notice see file Copyright         |
\*---------------------------------------------------------------------------*/
FoamFile
{
    version     2.0;
    format      ascii;
    class       areaScalarField;
    location    "79";
    object      SSe1;
}
// * * * * * * * * * * * * * * * * * * * * * * * * * * * * * * * * * * * * * //

dimensions      [0 1 -2 -1 0 0 0];

internalField   nonuniform List<scalar> 
300
(
0.00294949
0.0014997
0.000952759
0.000957512
0.000912922
0.000912843
0.000891528
0.000890524
0.000882968
0.000885828
0.000886515
0.000891441
0.000896422
0.000904349
0.000911811
0.000921303
0.000930991
0.000941933
0.000952821
0.000964858
0.000977593
0.000990824
0.00100449
0.00101847
0.00103265
0.00104716
0.00106075
0.00107275
0.0010829
0.00109148
0.00109861
0.00110459
0.00110955
0.00111369
0.00111713
0.00112002
0.00112242
0.00112444
0.00112613
0.00112756
0.00112876
0.00112978
0.00113065
0.0011314
0.00113204
0.00113257
0.00113302
0.00113341
0.00113374
0.00113403
0.00113429
0.00113451
0.0011347
0.00113487
0.00113501
0.00113514
0.00113525
0.00113534
0.00113543
0.0011355
0.00113556
0.00113562
0.00113567
0.00113571
0.00113574
0.00113577
0.0011358
0.00113582
0.00113584
0.00113586
0.00113587
0.00113589
0.0011359
0.00113591
0.00113592
0.00113592
0.00113593
0.00113594
0.00113594
0.00113594
0.00113595
0.00113595
0.00113595
0.00113595
0.00113596
0.00113596
0.00113596
0.00113596
0.00113596
0.00113596
0.00113596
0.00113596
0.00113596
0.00113597
0.00113597
0.00113597
0.00113597
0.00113597
0.00113597
0.00113597
0.00113597
0.00113597
0.00113597
0.00113597
0.00113597
0.00113597
0.00113597
0.00113597
0.00113597
0.00113597
0.00113597
0.00113597
0.00113597
0.00113597
0.00113597
0.00113597
0.00113597
0.00113597
0.00113597
0.00113597
0.00113597
0.00113597
0.00113597
0.00113597
0.00113597
0.00113597
0.00113597
0.00113597
0.00113597
0.00113597
0.00113597
0.00113597
0.00113597
0.00113597
0.00113597
0.00113597
0.00113597
0.00113597
0.00113597
0.00113597
0.00113597
0.00113597
0.00113597
0.00113597
0.00113597
0.00113597
0.00113597
0.00113597
0.00113597
0.00113597
0.00113597
0.00113597
0.00113597
0.00113597
0.00113597
0.00113597
0.00113597
0.00113597
0.00113597
0.00113597
0.00113597
0.00113597
0.00113597
0.00113597
0.00113597
0.00113597
0.00113597
0.00113597
0.00113597
0.00113597
0.00113597
0.00113597
0.00113597
0.00113597
0.00113597
0.00113597
0.00113597
0.00113597
0.00113597
0.00113597
0.00113597
0.00113597
0.00113597
0.00113597
0.00113597
0.00113597
0.00113597
0.00113597
0.00113597
0.00113597
0.00113597
0.00113597
0.00113597
0.00113597
0.00113597
0.00113597
0.00113597
0.00113597
0.00113597
0.00113597
0.00113597
0.00113597
0.00113597
0.00113597
0.00113597
0.00113597
0.00113597
0.00113597
0.00113597
0.00113597
0.00113597
0.00113597
0.00113597
0.00113597
0.00113597
0.00113597
0.00113597
0.00113597
0.00113597
0.00113597
0.00113597
0.00113597
0.00113597
0.00113597
0.00113597
0.00113597
0.00113597
0.00113597
0.00113597
0.00113597
0.00113597
0.00113597
0.00113597
0.00113597
0.00113597
0.00113597
0.00113597
0.00113597
0.00113597
0.00113597
0.00113597
0.00113597
0.00113597
0.00113597
0.00113597
0.00113597
0.00113597
0.00113597
0.00113597
0.00113597
0.00113597
0.00113597
0.00113597
0.00113597
0.00113597
0.00113597
0.00113597
0.00113597
0.00113597
0.00113597
0.00113597
0.00113597
0.00113597
0.00113597
0.00113597
0.00113597
0.00113597
0.00113597
0.00113597
0.00113597
0.00113597
0.00113597
0.00113597
0.00113597
0.00113597
0.00113597
0.00113597
0.00113597
0.00113597
0.00113597
0.00113597
0.00113597
0.00113597
0.00113597
0.00113597
0.00113597
0.00113597
0.00113597
0.00113597
0.00113597
0.00113597
0.00113597
0.00113597
0.00113597
0.00113597
0.00113597
0.00113597
0.00113597
0.00113597
0.00113597
)
;

boundaryField
{
    inlet
    {
        type            calculated;
        value           uniform 0;
    }
    outlet
    {
        type            calculated;
        value           uniform 0;
    }
    sideWall
    {
        type            empty;
    }
}


// ************************************************************************* //
