/*--------------------------------*- C++ -*----------------------------------*\
| =========                 |                                                 |
| \\      /  F ield         | foam-extend: Open Source CFD                    |
|  \\    /   O peration     | Version:     3.2                                |
|   \\  /    A nd           | Web:         http://www.foam-extend.org         |
|    \\/     M anipulation  | For copyright notice see file Copyright         |
\*---------------------------------------------------------------------------*/
FoamFile
{
    version     2.0;
    format      ascii;
    class       areaScalarField;
    location    "79";
    object      tau;
}
// * * * * * * * * * * * * * * * * * * * * * * * * * * * * * * * * * * * * * //

dimensions      [1 1 2 0 0 0 0];

internalField   nonuniform List<scalar> 
300
(
9.37208
5.99053
4.44152
4.45609
4.31838
4.31814
4.25152
4.24837
4.22462
4.23361
4.23577
4.25124
4.26686
4.29165
4.31492
4.34444
4.37445
4.40823
4.44171
4.47857
4.51741
4.55758
4.5989
4.64094
4.68341
4.72665
4.767
4.80247
4.83237
4.85754
4.87845
4.89593
4.9104
4.92249
4.93251
4.9409
4.94788
4.95375
4.95866
4.9628
4.96629
4.96925
4.97177
4.97395
4.9758
4.97735
4.97865
4.97977
4.98073
4.98158
4.98231
4.98294
4.9835
4.98398
4.9844
4.98477
4.98509
4.98537
4.98561
4.98582
4.986
4.98616
4.9863
4.98642
4.98652
4.98661
4.98669
4.98675
4.98681
4.98686
4.9869
4.98694
4.98697
4.987
4.98703
4.98705
4.98706
4.98708
4.98709
4.9871
4.98711
4.98712
4.98713
4.98714
4.98714
4.98715
4.98715
4.98715
4.98716
4.98716
4.98716
4.98716
4.98716
4.98717
4.98717
4.98717
4.98717
4.98717
4.98717
4.98717
4.98717
4.98717
4.98717
4.98717
4.98717
4.98717
4.98717
4.98717
4.98717
4.98717
4.98717
4.98717
4.98717
4.98717
4.98717
4.98717
4.98717
4.98717
4.98717
4.98717
4.98717
4.98717
4.98717
4.98717
4.98717
4.98717
4.98717
4.98717
4.98717
4.98717
4.98717
4.98717
4.98717
4.98717
4.98717
4.98717
4.98717
4.98717
4.98717
4.98717
4.98717
4.98717
4.98717
4.98717
4.98717
4.98717
4.98717
4.98717
4.98717
4.98717
4.98717
4.98717
4.98717
4.98717
4.98717
4.98717
4.98717
4.98717
4.98717
4.98717
4.98717
4.98717
4.98717
4.98717
4.98717
4.98717
4.98717
4.98717
4.98717
4.98717
4.98717
4.98717
4.98717
4.98717
4.98717
4.98717
4.98717
4.98717
4.98717
4.98717
4.98717
4.98717
4.98717
4.98717
4.98717
4.98717
4.98717
4.98717
4.98717
4.98717
4.98717
4.98717
4.98717
4.98717
4.98717
4.98717
4.98717
4.98717
4.98717
4.98717
4.98717
4.98717
4.98717
4.98717
4.98717
4.98717
4.98717
4.98717
4.98717
4.98717
4.98717
4.98717
4.98717
4.98717
4.98717
4.98717
4.98717
4.98717
4.98717
4.98717
4.98717
4.98717
4.98717
4.98717
4.98717
4.98717
4.98717
4.98717
4.98717
4.98717
4.98717
4.98717
4.98717
4.98717
4.98717
4.98717
4.98717
4.98717
4.98717
4.98717
4.98717
4.98717
4.98717
4.98717
4.98717
4.98717
4.98717
4.98717
4.98717
4.98717
4.98717
4.98717
4.98717
4.98717
4.98717
4.98717
4.98717
4.98717
4.98717
4.98717
4.98717
4.98717
4.98717
4.98717
4.98717
4.98717
4.98717
4.98717
4.98717
4.98717
4.98717
4.98717
4.98717
4.98717
4.98717
4.98717
4.98717
4.98717
4.98717
4.98717
4.98717
4.98717
4.98717
4.98717
4.98717
4.98717
4.98717
4.98717
4.98717
4.98717
4.98717
4.98717
4.98717
4.98717
4.98717
4.98717
4.98717
4.98718
4.98718
4.98717
)
;

boundaryField
{
    inlet
    {
        type            calculated;
        value           uniform 0;
    }
    outlet
    {
        type            calculated;
        value           uniform 0;
    }
    sideWall
    {
        type            empty;
    }
}


// ************************************************************************* //
