/*--------------------------------*- C++ -*----------------------------------*\
| =========                 |                                                 |
| \\      /  F ield         | foam-extend: Open Source CFD                    |
|  \\    /   O peration     | Version:     3.2                                |
|   \\  /    A nd           | Web:         http://www.foam-extend.org         |
|    \\/     M anipulation  | For copyright notice see file Copyright         |
\*---------------------------------------------------------------------------*/
FoamFile
{
    version     2.0;
    format      ascii;
    class       areaScalarField;
    location    "79";
    object      thetaSS2;
}
// * * * * * * * * * * * * * * * * * * * * * * * * * * * * * * * * * * * * * //

dimensions      [0 0 0 0 0 0 0];

internalField   nonuniform List<scalar> 
300
(
15.8434
10.127
7.50836
7.533
7.3002
7.29979
7.18717
7.18184
7.14169
7.1569
7.16055
7.1867
7.21311
7.25501
7.29435
7.34424
7.39498
7.45208
7.50868
7.571
7.63665
7.70456
7.77441
7.84548
7.91727
7.99038
8.05859
8.11855
8.16909
8.21165
8.24698
8.27654
8.301
8.32144
8.33838
8.35256
8.36436
8.37428
8.38258
8.38959
8.39549
8.40049
8.40475
8.40843
8.41155
8.41417
8.41637
8.41827
8.4199
8.42133
8.42256
8.42364
8.42458
8.4254
8.42611
8.42673
8.42727
8.42774
8.42815
8.4285
8.42881
8.42907
8.42931
8.42951
8.42968
8.42983
8.42996
8.43008
8.43017
8.43026
8.43033
8.43039
8.43045
8.4305
8.43054
8.43057
8.4306
8.43063
8.43065
8.43067
8.43069
8.4307
8.43071
8.43072
8.43073
8.43074
8.43075
8.43075
8.43076
8.43076
8.43077
8.43077
8.43077
8.43078
8.43078
8.43078
8.43078
8.43078
8.43078
8.43078
8.43079
8.43079
8.43079
8.43079
8.43079
8.43079
8.43079
8.43079
8.43079
8.43079
8.43079
8.43079
8.43079
8.43079
8.43079
8.43079
8.43079
8.43079
8.43079
8.43079
8.43079
8.43079
8.43079
8.43079
8.43079
8.43079
8.43079
8.43079
8.43079
8.43079
8.43079
8.43079
8.43079
8.43079
8.43079
8.43079
8.43079
8.43079
8.43079
8.43079
8.43079
8.43079
8.43079
8.43079
8.43079
8.43079
8.43079
8.43079
8.43079
8.43079
8.43079
8.43079
8.43079
8.43079
8.43079
8.43079
8.43079
8.43079
8.43079
8.43079
8.43079
8.43079
8.43079
8.43079
8.43079
8.43079
8.43079
8.43079
8.43079
8.43079
8.43079
8.43079
8.43079
8.43079
8.43079
8.43079
8.43079
8.43079
8.43079
8.43079
8.43079
8.43079
8.43079
8.43079
8.43079
8.43079
8.43079
8.43079
8.43079
8.43079
8.43079
8.43079
8.43079
8.43079
8.43079
8.43079
8.43079
8.43079
8.43079
8.43079
8.43079
8.43079
8.43079
8.43079
8.43079
8.43079
8.43079
8.43079
8.43079
8.43079
8.43079
8.43079
8.43079
8.43079
8.43079
8.43079
8.43079
8.43079
8.43079
8.43079
8.43079
8.43079
8.43079
8.43079
8.43079
8.43079
8.43079
8.43079
8.43079
8.43079
8.43079
8.43079
8.43079
8.43079
8.43079
8.43079
8.43079
8.43079
8.43079
8.43079
8.43079
8.43079
8.43079
8.43079
8.43079
8.43079
8.43079
8.43079
8.43079
8.43079
8.43079
8.43079
8.43079
8.43079
8.43079
8.43079
8.43079
8.43079
8.43079
8.43079
8.43079
8.43079
8.43079
8.43079
8.43079
8.43079
8.43079
8.43079
8.43079
8.43079
8.43079
8.43079
8.43079
8.43079
8.43079
8.43079
8.43079
8.43079
8.43079
8.43079
8.43079
8.43079
8.43079
8.43079
8.43079
8.43079
8.43079
8.43079
8.43079
8.43079
8.43079
8.43079
8.43079
8.43079
8.43079
8.43079
8.43079
8.43079
8.4308
8.43078
)
;

boundaryField
{
    inlet
    {
        type            calculated;
        value           uniform 0;
    }
    outlet
    {
        type            calculated;
        value           uniform 0;
    }
    sideWall
    {
        type            empty;
    }
}


// ************************************************************************* //
