/*--------------------------------*- C++ -*----------------------------------*\
| =========                 |                                                 |
| \\      /  F ield         | foam-extend: Open Source CFD                    |
|  \\    /   O peration     | Version:     3.2                                |
|   \\  /    A nd           | Web:         http://www.foam-extend.org         |
|    \\/     M anipulation  | For copyright notice see file Copyright         |
\*---------------------------------------------------------------------------*/
FoamFile
{
    version     2.0;
    format      ascii;
    class       areaScalarField;
    location    "79";
    object      thetaSS1init;
}
// * * * * * * * * * * * * * * * * * * * * * * * * * * * * * * * * * * * * * //

dimensions      [0 0 0 0 0 0 0];

internalField   nonuniform List<scalar> 
300
(
23.921
15.2337
11.3715
11.425
11.0808
11.0471
10.8605
10.8419
10.7831
10.8012
10.8093
10.8457
10.8891
10.9482
11.0116
11.0836
11.1627
11.2471
11.3335
11.427
11.5265
11.6287
11.7343
11.8413
11.9499
12.06
12.1628
12.2529
12.3289
12.3929
12.4462
12.4906
12.5275
12.5583
12.5838
12.605
12.6227
12.6375
12.6499
12.6603
12.6692
12.6766
12.683
12.6885
12.6932
12.6971
12.7004
12.7032
12.7057
12.7078
12.7097
12.7113
12.7128
12.714
12.7151
12.716
12.7168
12.7175
12.7181
12.7187
12.7191
12.7195
12.7199
12.7202
12.7205
12.7207
12.7209
12.7211
12.7212
12.7213
12.7214
12.7215
12.7216
12.7217
12.7218
12.7218
12.7219
12.7219
12.7219
12.7219
12.722
12.722
12.722
12.722
12.722
12.722
12.7221
12.7221
12.7221
12.7221
12.7221
12.7221
12.7221
12.7221
12.7221
12.7221
12.7221
12.7221
12.7221
12.7221
12.7221
12.7221
12.7221
12.7221
12.7221
12.7221
12.7221
12.7221
12.7221
12.7221
12.7221
12.7221
12.7221
12.7221
12.7221
12.7221
12.7221
12.7221
12.7221
12.7221
12.7221
12.7221
12.7221
12.7221
12.7221
12.7221
12.7221
12.7221
12.7221
12.7221
12.7221
12.7221
12.7221
12.7221
12.7221
12.7221
12.7221
12.7221
12.7221
12.7221
12.7221
12.7221
12.7221
12.7221
12.7221
12.7221
12.7221
12.7221
12.7221
12.7221
12.7221
12.7221
12.7221
12.7221
12.7221
12.7221
12.7221
12.7221
12.7221
12.7221
12.7221
12.7221
12.7221
12.7221
12.7221
12.7221
12.7221
12.7221
12.7221
12.7221
12.7221
12.7221
12.7221
12.7221
12.7221
12.7221
12.7221
12.7221
12.7221
12.7221
12.7221
12.7221
12.7221
12.7221
12.7221
12.7221
12.7221
12.7221
12.7221
12.7221
12.7221
12.7221
12.7221
12.7221
12.7221
12.7221
12.7221
12.7221
12.7221
12.7221
12.7221
12.7221
12.7221
12.7221
12.7221
12.7221
12.7221
12.7221
12.7221
12.7221
12.7221
12.7221
12.7221
12.7221
12.7221
12.7221
12.7221
12.7221
12.7221
12.7221
12.7221
12.7221
12.7221
12.7221
12.7221
12.7221
12.7221
12.7221
12.7221
12.7221
12.7221
12.7221
12.7221
12.7221
12.7221
12.7221
12.7221
12.7221
12.7221
12.7221
12.7221
12.7221
12.7221
12.7221
12.7221
12.7221
12.7221
12.7221
12.7221
12.7221
12.7221
12.7221
12.7221
12.7221
12.7221
12.7221
12.7221
12.7221
12.7221
12.7221
12.7221
12.7221
12.7221
12.7221
12.7221
12.7221
12.7221
12.7221
12.7221
12.7221
12.7221
12.7221
12.7221
12.7221
12.7221
12.7221
12.7221
12.7221
12.7221
12.7221
12.7221
12.7221
12.7221
12.7221
12.7221
12.7221
12.7221
12.7221
12.7221
12.7221
12.7221
12.7221
12.7221
12.7221
12.7221
12.7221
12.7221
12.7221
12.7221
12.7221
)
;

boundaryField
{
    inlet
    {
        type            calculated;
        value           uniform 0;
    }
    outlet
    {
        type            calculated;
        value           uniform 0;
    }
    sideWall
    {
        type            empty;
    }
}


// ************************************************************************* //
