/*--------------------------------*- C++ -*----------------------------------*\
| =========                 |                                                 |
| \\      /  F ield         | foam-extend: Open Source CFD                    |
|  \\    /   O peration     | Version:     3.2                                |
|   \\  /    A nd           | Web:         http://www.foam-extend.org         |
|    \\/     M anipulation  | For copyright notice see file Copyright         |
\*---------------------------------------------------------------------------*/
FoamFile
{
    version     2.0;
    format      ascii;
    class       areaScalarField;
    location    "79";
    object      thetaSS2init;
}
// * * * * * * * * * * * * * * * * * * * * * * * * * * * * * * * * * * * * * //

dimensions      [0 0 0 0 0 0 0];

internalField   nonuniform List<scalar> 
300
(
15.8521
10.0951
7.53574
7.57122
7.34307
7.32079
7.19712
7.18481
7.14583
7.1578
7.16317
7.18729
7.21606
7.2552
7.29726
7.34494
7.39734
7.45333
7.51057
7.5725
7.63845
7.70615
7.77614
7.84707
7.91903
7.99201
8.06011
8.11981
8.17022
8.21262
8.2479
8.27737
8.30182
8.32219
8.33908
8.35317
8.36489
8.37471
8.38293
8.38984
8.39568
8.40062
8.40484
8.40849
8.41159
8.41418
8.41637
8.41826
8.41989
8.42132
8.42255
8.42363
8.42457
8.42539
8.4261
8.42673
8.42726
8.42773
8.42814
8.4285
8.42881
8.42907
8.4293
8.42951
8.42969
8.42983
8.42996
8.43008
8.43018
8.43026
8.43033
8.43039
8.43045
8.4305
8.43054
8.43057
8.4306
8.43062
8.43065
8.43067
8.43068
8.43069
8.4307
8.43071
8.43072
8.43072
8.43073
8.43074
8.43075
8.43075
8.43075
8.43075
8.43076
8.43076
8.43076
8.43076
8.43076
8.43076
8.43076
8.43077
8.43077
8.43077
8.43077
8.43077
8.43077
8.43077
8.43077
8.43077
8.43077
8.43077
8.43077
8.43078
8.43078
8.43078
8.43078
8.43078
8.43078
8.43077
8.43077
8.43077
8.43077
8.43077
8.43077
8.43077
8.43077
8.43077
8.43077
8.43077
8.43077
8.43077
8.43077
8.43077
8.43077
8.43077
8.43077
8.43077
8.43077
8.43077
8.43077
8.43077
8.43077
8.43077
8.43077
8.43077
8.43077
8.43077
8.43077
8.43077
8.43077
8.43077
8.43077
8.43077
8.43077
8.43077
8.43077
8.43077
8.43077
8.43077
8.43077
8.43077
8.43077
8.43077
8.43077
8.43077
8.43077
8.43077
8.43077
8.43077
8.43077
8.43077
8.43077
8.43077
8.43077
8.43077
8.43077
8.43077
8.43077
8.43077
8.43077
8.43077
8.43077
8.43077
8.43077
8.43077
8.43077
8.43077
8.43077
8.43077
8.43077
8.43077
8.43077
8.43077
8.43077
8.43077
8.43077
8.43077
8.43077
8.43077
8.43077
8.43077
8.43077
8.43077
8.43077
8.43077
8.43077
8.43077
8.43077
8.43077
8.43077
8.43077
8.43077
8.43077
8.43077
8.43077
8.43077
8.43077
8.43077
8.43077
8.43077
8.43077
8.43077
8.43077
8.43077
8.43077
8.43077
8.43077
8.43077
8.43077
8.43077
8.43077
8.43077
8.43077
8.43077
8.43077
8.43077
8.43077
8.43077
8.43077
8.43077
8.43077
8.43077
8.43077
8.43077
8.43077
8.43077
8.43077
8.43077
8.43077
8.43077
8.43077
8.43077
8.43077
8.43077
8.43077
8.43077
8.43077
8.43077
8.43077
8.43077
8.43077
8.43077
8.43077
8.43077
8.43077
8.43077
8.43077
8.43077
8.43077
8.43077
8.43077
8.43077
8.43077
8.43077
8.43077
8.43077
8.43077
8.43077
8.43077
8.43077
8.43077
8.43077
8.43077
8.43077
8.43077
8.43077
8.43077
8.43077
8.43077
8.43077
8.43077
8.43077
8.43077
8.43077
8.43077
8.43077
8.43077
8.43077
8.43077
8.43078
8.43076
)
;

boundaryField
{
    inlet
    {
        type            calculated;
        value           uniform 0;
    }
    outlet
    {
        type            calculated;
        value           uniform 0;
    }
    sideWall
    {
        type            empty;
    }
}


// ************************************************************************* //
