/*--------------------------------*- C++ -*----------------------------------*\
| =========                 |                                                 |
| \\      /  F ield         | foam-extend: Open Source CFD                    |
|  \\    /   O peration     | Version:     3.2                                |
|   \\  /    A nd           | Web:         http://www.foam-extend.org         |
|    \\/     M anipulation  | For copyright notice see file Copyright         |
\*---------------------------------------------------------------------------*/
FoamFile
{
    version     2.0;
    format      ascii;
    class       areaScalarField;
    location    "79";
    object      thetaSS1;
}
// * * * * * * * * * * * * * * * * * * * * * * * * * * * * * * * * * * * * * //

dimensions      [0 0 0 0 0 0 0];

internalField   nonuniform List<scalar> 
300
(
23.9079
15.2817
11.3302
11.3674
11.0161
11.0154
10.8455
10.8375
10.7769
10.7998
10.8053
10.8448
10.8846
10.9479
11.0072
11.0825
11.1591
11.2453
11.3307
11.4247
11.5238
11.6263
11.7316
11.8389
11.9472
12.0575
12.1605
12.251
12.3272
12.3915
12.4448
12.4894
12.5263
12.5571
12.5827
12.6041
12.6219
12.6369
12.6494
12.66
12.6689
12.6764
12.6828
12.6884
12.6931
12.6971
12.7004
12.7032
12.7057
12.7079
12.7097
12.7113
12.7128
12.714
12.7151
12.716
12.7168
12.7175
12.7181
12.7187
12.7191
12.7196
12.7199
12.7202
12.7205
12.7207
12.7209
12.7211
12.7212
12.7213
12.7214
12.7215
12.7216
12.7217
12.7218
12.7218
12.7219
12.7219
12.7219
12.722
12.722
12.722
12.722
12.722
12.7221
12.7221
12.7221
12.7221
12.7221
12.7221
12.7221
12.7221
12.7221
12.7221
12.7221
12.7221
12.7221
12.7221
12.7221
12.7221
12.7221
12.7221
12.7221
12.7221
12.7221
12.7221
12.7221
12.7221
12.7221
12.7221
12.7221
12.7221
12.7221
12.7221
12.7221
12.7221
12.7221
12.7221
12.7221
12.7221
12.7221
12.7221
12.7221
12.7221
12.7221
12.7221
12.7221
12.7221
12.7221
12.7221
12.7221
12.7221
12.7221
12.7221
12.7221
12.7221
12.7221
12.7221
12.7221
12.7221
12.7221
12.7221
12.7221
12.7221
12.7221
12.7221
12.7221
12.7221
12.7221
12.7221
12.7221
12.7221
12.7221
12.7221
12.7221
12.7221
12.7221
12.7221
12.7221
12.7221
12.7221
12.7221
12.7221
12.7221
12.7221
12.7221
12.7221
12.7221
12.7221
12.7221
12.7221
12.7221
12.7221
12.7221
12.7221
12.7221
12.7221
12.7221
12.7221
12.7221
12.7221
12.7221
12.7221
12.7221
12.7221
12.7221
12.7221
12.7221
12.7221
12.7221
12.7221
12.7221
12.7221
12.7221
12.7221
12.7221
12.7221
12.7221
12.7221
12.7221
12.7221
12.7221
12.7221
12.7221
12.7221
12.7221
12.7221
12.7221
12.7221
12.7221
12.7221
12.7221
12.7221
12.7221
12.7221
12.7221
12.7221
12.7221
12.7221
12.7221
12.7221
12.7221
12.7221
12.7221
12.7221
12.7221
12.7221
12.7221
12.7221
12.7221
12.7221
12.7221
12.7221
12.7221
12.7221
12.7221
12.7221
12.7221
12.7221
12.7221
12.7221
12.7221
12.7221
12.7221
12.7221
12.7221
12.7221
12.7221
12.7221
12.7221
12.7221
12.7221
12.7221
12.7221
12.7221
12.7221
12.7221
12.7221
12.7221
12.7221
12.7221
12.7221
12.7221
12.7221
12.7221
12.7221
12.7221
12.7221
12.7221
12.7221
12.7221
12.7221
12.7221
12.7221
12.7221
12.7221
12.7221
12.7221
12.7221
12.7221
12.7221
12.7221
12.7221
12.7221
12.7221
12.7221
12.7221
12.7221
12.7221
12.7221
12.7221
12.7221
12.7221
12.7221
12.7221
12.7221
12.7221
12.7221
12.7222
12.7221
)
;

boundaryField
{
    inlet
    {
        type            calculated;
        value           uniform 0;
    }
    outlet
    {
        type            calculated;
        value           uniform 0;
    }
    sideWall
    {
        type            empty;
    }
}


// ************************************************************************* //
