/*--------------------------------*- C++ -*----------------------------------*\
| =========                 |                                                 |
| \\      /  F ield         | foam-extend: Open Source CFD                    |
|  \\    /   O peration     | Version:     3.2                                |
|   \\  /    A nd           | Web:         http://www.foam-extend.org         |
|    \\/     M anipulation  | For copyright notice see file Copyright         |
\*---------------------------------------------------------------------------*/
FoamFile
{
    version     2.0;
    format      ascii;
    class       areaScalarField;
    location    "79";
    object      thetaB;
}
// * * * * * * * * * * * * * * * * * * * * * * * * * * * * * * * * * * * * * //

dimensions      [0 0 0 0 0 0 0];

internalField   nonuniform List<scalar> 
300
(
0.683963
0.437182
0.324137
0.3252
0.315151
0.315133
0.310271
0.310041
0.308307
0.308964
0.309122
0.310251
0.311391
0.3132
0.314898
0.317052
0.319242
0.321707
0.324151
0.326841
0.329675
0.332607
0.335622
0.33869
0.341789
0.344945
0.34789
0.350479
0.35266
0.354498
0.356023
0.357299
0.358355
0.359237
0.359969
0.360581
0.36109
0.361519
0.361877
0.362179
0.362434
0.36265
0.362834
0.362993
0.363128
0.363241
0.363336
0.363418
0.363488
0.363549
0.363603
0.363649
0.36369
0.363725
0.363756
0.363783
0.363806
0.363826
0.363844
0.363859
0.363872
0.363884
0.363894
0.363903
0.36391
0.363917
0.363922
0.363927
0.363931
0.363935
0.363938
0.363941
0.363943
0.363945
0.363947
0.363949
0.36395
0.363951
0.363952
0.363953
0.363954
0.363954
0.363955
0.363955
0.363956
0.363956
0.363956
0.363957
0.363957
0.363957
0.363957
0.363957
0.363957
0.363957
0.363958
0.363958
0.363958
0.363958
0.363958
0.363958
0.363958
0.363958
0.363958
0.363958
0.363958
0.363958
0.363958
0.363958
0.363958
0.363958
0.363958
0.363958
0.363958
0.363958
0.363958
0.363958
0.363958
0.363958
0.363958
0.363958
0.363958
0.363958
0.363958
0.363958
0.363958
0.363958
0.363958
0.363958
0.363958
0.363958
0.363958
0.363958
0.363958
0.363958
0.363958
0.363958
0.363958
0.363958
0.363958
0.363958
0.363958
0.363958
0.363958
0.363958
0.363958
0.363958
0.363958
0.363958
0.363958
0.363958
0.363958
0.363958
0.363958
0.363958
0.363958
0.363958
0.363958
0.363958
0.363958
0.363958
0.363958
0.363958
0.363958
0.363958
0.363958
0.363958
0.363958
0.363958
0.363958
0.363958
0.363958
0.363958
0.363958
0.363958
0.363958
0.363958
0.363958
0.363958
0.363958
0.363958
0.363958
0.363958
0.363958
0.363958
0.363958
0.363958
0.363958
0.363958
0.363958
0.363958
0.363958
0.363958
0.363958
0.363958
0.363958
0.363958
0.363958
0.363958
0.363958
0.363958
0.363958
0.363958
0.363958
0.363958
0.363958
0.363958
0.363958
0.363958
0.363958
0.363958
0.363958
0.363958
0.363958
0.363958
0.363958
0.363958
0.363958
0.363958
0.363958
0.363958
0.363958
0.363958
0.363958
0.363958
0.363958
0.363958
0.363958
0.363958
0.363958
0.363958
0.363958
0.363958
0.363958
0.363958
0.363958
0.363958
0.363958
0.363958
0.363958
0.363958
0.363958
0.363958
0.363958
0.363958
0.363958
0.363958
0.363958
0.363958
0.363958
0.363958
0.363958
0.363958
0.363958
0.363958
0.363958
0.363958
0.363958
0.363958
0.363958
0.363958
0.363958
0.363958
0.363958
0.363958
0.363958
0.363958
0.363958
0.363958
0.363958
0.363958
0.363958
0.363958
0.363958
0.363958
0.363958
0.363958
0.363958
0.363958
0.363958
0.363958
0.363958
0.363958
0.363958
0.363958
0.363958
0.363958
0.363958
0.363958
0.363958
0.363958
0.363958
0.363958
0.363958
0.363958
0.363958
0.363958
0.363958
0.363958
0.363959
0.363958
)
;

boundaryField
{
    inlet
    {
        type            calculated;
        value           uniform 0;
    }
    outlet
    {
        type            calculated;
        value           uniform 0;
    }
    sideWall
    {
        type            empty;
    }
}


// ************************************************************************* //
