/*--------------------------------*- C++ -*----------------------------------*\
| =========                 |                                                 |
| \\      /  F ield         | foam-extend: Open Source CFD                    |
|  \\    /   O peration     | Version:     3.2                                |
|   \\  /    A nd           | Web:         http://www.foam-extend.org         |
|    \\/     M anipulation  | For copyright notice see file Copyright         |
\*---------------------------------------------------------------------------*/
FoamFile
{
    version     2.0;
    format      ascii;
    class       areaScalarField;
    location    "79";
    object      thetaBinit;
}
// * * * * * * * * * * * * * * * * * * * * * * * * * * * * * * * * * * * * * //

dimensions      [0 0 0 0 0 0 0];

internalField   nonuniform List<scalar> 
300
(
0.684339
0.435809
0.325318
0.32685
0.317001
0.316039
0.3107
0.310169
0.308486
0.309003
0.309235
0.310276
0.311518
0.313208
0.315024
0.317082
0.319344
0.321761
0.324232
0.326906
0.329753
0.332675
0.335697
0.338759
0.341865
0.345016
0.347956
0.350533
0.352709
0.35454
0.356063
0.357335
0.35839
0.35927
0.359999
0.360607
0.361113
0.361537
0.361892
0.36219
0.362442
0.362656
0.362838
0.362995
0.363129
0.363241
0.363336
0.363417
0.363488
0.363549
0.363602
0.363649
0.36369
0.363725
0.363756
0.363783
0.363806
0.363826
0.363844
0.363859
0.363872
0.363884
0.363894
0.363903
0.36391
0.363917
0.363922
0.363927
0.363932
0.363935
0.363938
0.363941
0.363943
0.363945
0.363947
0.363949
0.36395
0.363951
0.363952
0.363953
0.363953
0.363954
0.363954
0.363955
0.363955
0.363955
0.363956
0.363956
0.363956
0.363956
0.363956
0.363957
0.363957
0.363957
0.363957
0.363957
0.363957
0.363957
0.363957
0.363957
0.363957
0.363957
0.363957
0.363957
0.363957
0.363957
0.363957
0.363957
0.363957
0.363957
0.363957
0.363957
0.363957
0.363957
0.363957
0.363957
0.363957
0.363957
0.363957
0.363957
0.363957
0.363957
0.363957
0.363957
0.363957
0.363957
0.363957
0.363957
0.363957
0.363957
0.363957
0.363957
0.363957
0.363957
0.363957
0.363957
0.363957
0.363957
0.363957
0.363957
0.363957
0.363957
0.363957
0.363957
0.363957
0.363957
0.363957
0.363957
0.363957
0.363957
0.363957
0.363957
0.363957
0.363957
0.363957
0.363957
0.363957
0.363957
0.363957
0.363957
0.363957
0.363957
0.363957
0.363957
0.363957
0.363957
0.363957
0.363957
0.363957
0.363957
0.363957
0.363957
0.363957
0.363957
0.363957
0.363957
0.363957
0.363957
0.363957
0.363957
0.363957
0.363957
0.363957
0.363957
0.363957
0.363957
0.363957
0.363957
0.363957
0.363957
0.363957
0.363957
0.363957
0.363957
0.363957
0.363957
0.363957
0.363957
0.363957
0.363957
0.363957
0.363957
0.363957
0.363957
0.363957
0.363957
0.363957
0.363957
0.363957
0.363957
0.363957
0.363957
0.363957
0.363957
0.363957
0.363957
0.363957
0.363957
0.363957
0.363957
0.363957
0.363957
0.363957
0.363957
0.363957
0.363957
0.363957
0.363957
0.363957
0.363957
0.363957
0.363957
0.363957
0.363957
0.363957
0.363957
0.363957
0.363957
0.363957
0.363957
0.363957
0.363957
0.363957
0.363957
0.363957
0.363957
0.363957
0.363957
0.363957
0.363957
0.363957
0.363957
0.363957
0.363957
0.363957
0.363957
0.363957
0.363957
0.363957
0.363957
0.363957
0.363957
0.363957
0.363957
0.363957
0.363957
0.363957
0.363957
0.363957
0.363957
0.363957
0.363957
0.363957
0.363957
0.363957
0.363957
0.363957
0.363957
0.363957
0.363957
0.363957
0.363957
0.363957
0.363957
0.363957
0.363957
0.363957
0.363957
0.363957
0.363957
0.363957
0.363957
0.363957
0.363957
0.363957
0.363957
0.363957
0.363957
0.363958
0.363957
)
;

boundaryField
{
    inlet
    {
        type            calculated;
        value           uniform 0;
    }
    outlet
    {
        type            calculated;
        value           uniform 0;
    }
    sideWall
    {
        type            empty;
    }
}


// ************************************************************************* //
