/*--------------------------------*- C++ -*----------------------------------*\
| =========                 |                                                 |
| \\      /  F ield         | foam-extend: Open Source CFD                    |
|  \\    /   O peration     | Version:     3.2                                |
|   \\  /    A nd           | Web:         http://www.foam-extend.org         |
|    \\/     M anipulation  | For copyright notice see file Copyright         |
\*---------------------------------------------------------------------------*/
FoamFile
{
    version     2.0;
    format      ascii;
    class       volVectorField;
    location    "79";
    object      U;
}
// * * * * * * * * * * * * * * * * * * * * * * * * * * * * * * * * * * * * * //

dimensions      [0 1 -1 0 0 0 0];

internalField   nonuniform List<vector> 
5400
(
(0.346281 -5.71974e-26 0.00806149)
(0.224626 7.12255e-26 2.72859e-05)
(0.191998 2.84719e-26 -0.00102783)
(0.196804 0 -0.00105338)
(0.192997 -3.49298e-27 -0.00101313)
(0.193428 -2.87189e-27 -0.000979504)
(0.191558 -3.68645e-27 -0.000975806)
(0.191637 -1.1504e-27 -0.000961871)
(0.190929 0 -0.000964859)
(0.191179 -2.9808e-28 -0.000958931)
(0.191132 0 -0.00096303)
(0.191463 1.59055e-29 -0.000961428)
(0.191738 -2.11782e-28 -0.000965529)
(0.192288 -5.40797e-28 -0.000966799)
(0.192736 0 -0.000969622)
(0.19337 0 -0.000972634)
(0.193989 0 -0.000976035)
(0.194702 6.16092e-28 -0.000979213)
(0.195389 0 -0.000983178)
(0.196172 0 -0.000987352)
(0.196996 0 -0.00099148)
(0.197845 8.60362e-28 -0.000995645)
(0.198719 0 -0.00100006)
(0.199608 0 -0.00100438)
(0.200506 0 -0.00100877)
(0.201429 9.97474e-28 -0.00101292)
(0.20229 -9.29561e-28 -0.00101647)
(0.203044 0 -0.00101916)
(0.203676 0 -0.00102148)
(0.204209 6.12129e-28 -0.00102342)
(0.204651 -5.22055e-28 -0.00102512)
(0.205021 0 -0.00102654)
(0.205326 0 -0.00102777)
(0.205581 0 -0.0010288)
(0.205792 -2.62188e-28 -0.00102968)
(0.205968 0 -0.00103042)
(0.206114 0 -0.00103105)
(0.206237 0 -0.00103157)
(0.20634 0 -0.00103202)
(0.206426 0 -0.0010324)
(0.206499 0 -0.00103273)
(0.206561 -2.86133e-43 -0.001033)
(0.206613 0 -0.00103324)
(0.206659 0 -0.00103344)
(0.206698 0 -0.00103361)
(0.20673 0 -0.00103375)
(0.206757 1.98672e-35 -0.00103388)
(0.206781 0 -0.00103398)
(0.206801 0 -0.00103408)
(0.206819 0 -0.00103416)
(0.206834 0 -0.00103423)
(0.206847 -2.87677e-43 -0.00103429)
(0.206859 0 -0.00103434)
(0.206869 1.25889e-29 -0.00103438)
(0.206878 0 -0.00103442)
(0.206886 0 -0.00103446)
(0.206892 -2.87906e-43 -0.00103449)
(0.206898 0 -0.00103451)
(0.206903 -6.17757e-30 -0.00103454)
(0.206908 0 -0.00103455)
(0.206911 0 -0.00103457)
(0.206915 4.02195e-30 -0.00103459)
(0.206917 0 -0.0010346)
(0.20692 -2.88045e-43 -0.00103461)
(0.206922 0 -0.00103462)
(0.206924 0 -0.00103463)
(0.206926 -2.88074e-43 -0.00103463)
(0.206927 0 -0.00103464)
(0.206928 -2.88087e-43 -0.00103465)
(0.206929 0 -0.00103465)
(0.20693 -1.09274e-30 -0.00103465)
(0.206931 -2.88101e-43 -0.00103466)
(0.206932 0 -0.00103466)
(0.206932 7.03617e-31 -0.00103466)
(0.206933 0 -0.00103467)
(0.206933 0 -0.00103467)
(0.206933 -2.88114e-43 -0.00103467)
(0.206934 0 -0.00103467)
(0.206934 -2.88117e-43 -0.00103467)
(0.206934 0 -0.00103467)
(0.206934 0 -0.00103467)
(0.206935 0 -0.00103467)
(0.206935 0 -0.00103467)
(0.206935 0 -0.00103468)
(0.206935 0 -0.00103468)
(0.206935 -1.18688e-31 -0.00103468)
(0.206935 0 -0.00103468)
(0.206935 0 -0.00103468)
(0.206935 7.56414e-32 -0.00103468)
(0.206935 0 -0.00103468)
(0.206935 0 -0.00103468)
(0.206935 0 -0.00103468)
(0.206936 0 -0.00103468)
(0.206936 0 -0.00103468)
(0.206936 0 -0.00103468)
(0.206936 0 -0.00103468)
(0.206936 0 -0.00103468)
(0.206936 0 -0.00103468)
(0.206936 0 -0.00103468)
(0.206936 0 -0.00103468)
(0.206936 0 -0.00103468)
(0.206936 -9.88748e-33 -0.00103468)
(0.206936 0 -0.00103468)
(0.206936 0 -0.00103468)
(0.206936 6.4527e-33 -0.00103468)
(0.206936 0 -0.00103468)
(0.206936 0 -0.00103468)
(0.206936 0 -0.00103468)
(0.206936 0 -0.00103468)
(0.206936 0 -0.00103468)
(0.206936 0 -0.00103468)
(0.206936 0 -0.00103468)
(0.206936 0 -0.00103468)
(0.206936 0 -0.00103468)
(0.206936 0 -0.00103468)
(0.206936 0 -0.00103468)
(0.206936 0 -0.00103468)
(0.206936 -1.03461e-33 -0.00103468)
(0.206936 0 -0.00103468)
(0.206936 7.66362e-34 -0.00103468)
(0.206936 0 -0.00103468)
(0.206936 0 -0.00103468)
(0.206936 0 -0.00103468)
(0.206936 0 -0.00103468)
(0.206936 0 -0.00103468)
(0.206936 0 -0.00103468)
(0.206936 0 -0.00103468)
(0.206936 0 -0.00103468)
(0.206936 0 -0.00103468)
(0.206936 0 -0.00103468)
(0.206936 0 -0.00103468)
(0.206936 1.20546e-34 -0.00103468)
(0.206936 0 -0.00103468)
(0.206936 0 -0.00103468)
(0.206936 0 -0.00103468)
(0.206936 0 -0.00103468)
(0.206936 0 -0.00103468)
(0.206936 0 -0.00103468)
(0.206936 0 -0.00103468)
(0.206936 0 -0.00103468)
(0.206936 0 -0.00103468)
(0.206936 0 -0.00103468)
(0.206936 0 -0.00103468)
(0.206936 0 -0.00103468)
(0.206936 0 -0.00103468)
(0.206936 0 -0.00103468)
(0.206936 0 -0.00103468)
(0.206936 0 -0.00103468)
(0.206936 0 -0.00103468)
(0.206936 0 -0.00103468)
(0.206936 0 -0.00103468)
(0.206936 0 -0.00103468)
(0.206936 0 -0.00103468)
(0.206936 0 -0.00103468)
(0.206936 0 -0.00103468)
(0.206936 0 -0.00103468)
(0.206936 0 -0.00103468)
(0.206936 0 -0.00103468)
(0.206936 0 -0.00103468)
(0.206936 0 -0.00103468)
(0.206936 0 -0.00103468)
(0.206936 0 -0.00103468)
(0.206936 0 -0.00103468)
(0.206936 0 -0.00103468)
(0.206936 0 -0.00103468)
(0.206936 0 -0.00103468)
(0.206936 0 -0.00103468)
(0.206936 0 -0.00103468)
(0.206936 0 -0.00103468)
(0.206936 0 -0.00103468)
(0.206936 0 -0.00103468)
(0.206936 0 -0.00103468)
(0.206936 0 -0.00103468)
(0.206936 0 -0.00103468)
(0.206936 0 -0.00103468)
(0.206936 0 -0.00103468)
(0.206936 0 -0.00103468)
(0.206936 0 -0.00103468)
(0.206936 0 -0.00103468)
(0.206936 0 -0.00103468)
(0.206936 0 -0.00103468)
(0.206936 0 -0.00103468)
(0.206936 0 -0.00103468)
(0.206936 0 -0.00103468)
(0.206936 0 -0.00103468)
(0.206936 0 -0.00103468)
(0.206936 0 -0.00103468)
(0.206936 0 -0.00103468)
(0.206936 0 -0.00103468)
(0.206936 0 -0.00103468)
(0.206936 0 -0.00103468)
(0.206936 0 -0.00103468)
(0.206936 0 -0.00103468)
(0.206936 0 -0.00103468)
(0.206936 0 -0.00103468)
(0.206936 0 -0.00103468)
(0.206936 0 -0.00103468)
(0.206936 0 -0.00103468)
(0.206936 0 -0.00103468)
(0.206936 0 -0.00103468)
(0.206936 0 -0.00103468)
(0.206936 0 -0.00103468)
(0.206936 0 -0.00103468)
(0.206936 0 -0.00103468)
(0.206936 0 -0.00103468)
(0.206936 0 -0.00103468)
(0.206936 0 -0.00103468)
(0.206936 0 -0.00103468)
(0.206936 0 -0.00103468)
(0.206936 0 -0.00103468)
(0.206936 0 -0.00103468)
(0.206936 0 -0.00103468)
(0.206936 0 -0.00103468)
(0.206936 0 -0.00103468)
(0.206936 0 -0.00103468)
(0.206936 0 -0.00103468)
(0.206936 0 -0.00103468)
(0.206936 0 -0.00103468)
(0.206936 0 -0.00103468)
(0.206936 0 -0.00103468)
(0.206936 0 -0.00103468)
(0.206936 0 -0.00103468)
(0.206936 0 -0.00103468)
(0.206936 0 -0.00103468)
(0.206936 0 -0.00103468)
(0.206936 0 -0.00103468)
(0.206936 0 -0.00103468)
(0.206936 0 -0.00103468)
(0.206936 0 -0.00103468)
(0.206936 0 -0.00103468)
(0.206936 0 -0.00103468)
(0.206936 0 -0.00103468)
(0.206936 0 -0.00103468)
(0.206936 0 -0.00103468)
(0.206936 0 -0.00103468)
(0.206936 0 -0.00103468)
(0.206936 0 -0.00103468)
(0.206936 0 -0.00103468)
(0.206936 0 -0.00103468)
(0.206936 0 -0.00103468)
(0.206936 0 -0.00103468)
(0.206936 0 -0.00103468)
(0.206936 0 -0.00103468)
(0.206936 0 -0.00103468)
(0.206936 0 -0.00103468)
(0.206936 0 -0.00103468)
(0.206936 0 -0.00103468)
(0.206936 0 -0.00103468)
(0.206936 0 -0.00103468)
(0.206936 0 -0.00103468)
(0.206936 0 -0.00103468)
(0.206936 0 -0.00103468)
(0.206936 0 -0.00103468)
(0.206936 0 -0.00103468)
(0.206936 0 -0.00103468)
(0.206936 0 -0.00103468)
(0.206936 0 -0.00103468)
(0.206936 0 -0.00103468)
(0.206936 0 -0.00103468)
(0.206936 0 -0.00103468)
(0.206936 0 -0.00103468)
(0.206936 0 -0.00103468)
(0.206936 0 -0.00103468)
(0.206936 0 -0.00103468)
(0.206936 0 -0.00103468)
(0.206936 0 -0.00103468)
(0.206936 0 -0.00103468)
(0.206936 0 -0.00103468)
(0.206936 2.42062e-36 -0.00103468)
(0.206936 0 -0.00103468)
(0.206936 0 -0.00103468)
(0.206936 0 -0.00103468)
(0.206936 0 -0.00103468)
(0.206936 0 -0.00103468)
(0.206936 0 -0.00103468)
(0.206936 0 -0.00103468)
(0.206936 0 -0.00103468)
(0.206936 0 -0.00103468)
(0.206936 0 -0.00103468)
(0.206936 0 -0.00103468)
(0.206936 0 -0.00103468)
(0.206936 8.52939e-36 -0.00103468)
(0.206936 0 -0.00103468)
(0.206936 0 -0.00103468)
(0.206936 0 -0.00103468)
(0.206936 0 -0.00103468)
(0.206936 0 -0.00103468)
(0.206936 0 -0.00103468)
(0.206936 0 -0.00103468)
(0.206936 0 -0.00103468)
(0.206936 0 -0.00103468)
(0.206936 0 -0.00103468)
(0.206936 0 -0.00103468)
(0.206936 0 -0.00103468)
(0.206936 0 -0.00103468)
(0.206936 0 -0.00103468)
(0.206936 0 -0.00103468)
(0.206936 0 -0.00103468)
(0.206936 0 -0.00103468)
(0.206935 0 -0.00103676)
(0.551294 -2.56414e-25 0.013327)
(0.455461 1.73406e-25 0.00215455)
(0.391809 7.36453e-26 -0.00116437)
(0.390136 0 -0.001824)
(0.379153 0 -0.00181384)
(0.377091 9.53306e-27 -0.00178832)
(0.371857 -6.85248e-27 -0.00181129)
(0.371121 4.52774e-27 -0.00181556)
(0.36901 3.15418e-27 -0.00183519)
(0.369029 0 -0.00184174)
(0.36863 0 -0.00185388)
(0.368932 0 -0.00185745)
(0.3693 2.15366e-28 -0.00187247)
(0.370065 1.62155e-37 -0.00187755)
(0.370814 4.83993e-28 -0.00188718)
(0.371873 0 -0.00189595)
(0.372939 9.92351e-28 -0.00190519)
(0.374217 1.15259e-27 -0.00191293)
(0.375453 1.26717e-27 -0.00192172)
(0.376852 0 -0.00193268)
(0.378348 0 -0.00194256)
(0.379908 0 -0.00195188)
(0.381523 0 -0.00196145)
(0.383177 0 -0.00197037)
(0.384855 0 -0.00198016)
(0.386602 0 -0.00198784)
(0.388231 -2.21493e-27 -0.00199105)
(0.389677 0 -0.00199131)
(0.390909 0 -0.00199093)
(0.391963 0 -0.00199032)
(0.392848 -1.32174e-27 -0.00198981)
(0.393598 0 -0.0019893)
(0.394223 -9.56416e-28 -0.0019889)
(0.394749 0 -0.00198854)
(0.395187 -6.79743e-28 -0.00198827)
(0.395554 0 -0.00198805)
(0.395861 -4.79672e-28 -0.0019879)
(0.396119 0 -0.00198778)
(0.396334 0 -0.00198772)
(0.396517 0 -0.00198767)
(0.39667 -2.41345e-28 -0.00198766)
(0.3968 -4.07994e-28 -0.00198766)
(0.396911 0 -0.00198771)
(0.397007 -3.005e-28 -0.00198773)
(0.397089 -1.27196e-28 -0.00198771)
(0.397157 0 -0.00198768)
(0.397214 -1.78787e-28 -0.00198769)
(0.397264 0 -0.00198772)
(0.397306 -1.31725e-28 -0.00198774)
(0.397343 0 -0.00198777)
(0.397375 0 -0.00198779)
(0.397403 -8.49075e-29 -0.00198781)
(0.397427 0 -0.00198783)
(0.397448 -3.18341e-29 -0.00198784)
(0.397466 0 -0.00198785)
(0.397482 0 -0.00198786)
(0.397496 -4.1436e-29 -0.00198787)
(0.397508 0 -0.00198788)
(0.397518 -3.11291e-29 -0.00198789)
(0.397527 0 -0.00198789)
(0.397535 0 -0.0019879)
(0.397541 -1.01279e-29 -0.0019879)
(0.397547 0 -0.00198791)
(0.397552 -1.51961e-29 -0.00198791)
(0.397557 0 -0.00198791)
(0.397561 0 -0.00198791)
(0.397564 -9.85429e-30 -0.00198791)
(0.397567 0 -0.00198792)
(0.397569 -3.6857e-30 -0.00198792)
(0.397571 0 -0.00198792)
(0.397573 0 -0.00198792)
(0.397575 -4.75798e-30 -0.00198792)
(0.397576 0 -0.00198792)
(0.397577 -1.77419e-30 -0.00198792)
(0.397578 0 -0.00198792)
(0.397579 0 -0.00198792)
(0.39758 -2.28143e-30 -0.00198792)
(0.397581 0 -0.00198792)
(0.397581 -1.69669e-30 -0.00198792)
(0.397582 0 -0.00198792)
(0.397582 0 -0.00198792)
(0.397582 0 -0.00198792)
(0.397583 0 -0.00198792)
(0.397583 0 -0.00198792)
(0.397583 0 -0.00198792)
(0.397583 0 -0.00198792)
(0.397584 0 -0.00198792)
(0.397584 2.2249e-31 -0.00198792)
(0.397584 1.91205e-31 -0.00198792)
(0.397584 0 -0.00198792)
(0.397584 0 -0.00198792)
(0.397584 0 -0.00198792)
(0.397584 0 -0.00198792)
(0.397584 0 -0.00198792)
(0.397584 0 -0.00198792)
(0.397584 0 -0.00198792)
(0.397584 0 -0.00198792)
(0.397585 0 -0.00198792)
(0.397585 0 -0.00198792)
(0.397585 0 -0.00198792)
(0.397585 0 -0.00198792)
(0.397585 0 -0.00198792)
(0.397585 0 -0.00198792)
(0.397585 1.78718e-32 -0.00198792)
(0.397585 1.57402e-32 -0.00198792)
(0.397585 0 -0.00198792)
(0.397585 0 -0.00198792)
(0.397585 0 -0.00198792)
(0.397585 0 -0.00198792)
(0.397585 0 -0.00198792)
(0.397585 0 -0.00198792)
(0.397585 0 -0.00198792)
(0.397585 0 -0.00198792)
(0.397585 0 -0.00198792)
(0.397585 0 -0.00198792)
(0.397585 0 -0.00198792)
(0.397585 0 -0.00198792)
(0.397585 0 -0.00198792)
(0.397585 2.20169e-33 -0.00198792)
(0.397585 1.89608e-33 -0.00198792)
(0.397585 0 -0.00198792)
(0.397585 0 -0.00198792)
(0.397585 0 -0.00198792)
(0.397585 0 -0.00198792)
(0.397585 0 -0.00198792)
(0.397585 0 -0.00198792)
(0.397585 0 -0.00198792)
(0.397585 0 -0.00198792)
(0.397585 0 -0.00198792)
(0.397585 0 -0.00198792)
(0.397585 0 -0.00198792)
(0.397585 3.06505e-34 -0.00198792)
(0.397585 0 -0.00198792)
(0.397585 0 -0.00198792)
(0.397585 1.85676e-34 -0.00198792)
(0.397585 0 -0.00198792)
(0.397585 0 -0.00198792)
(0.397585 0 -0.00198792)
(0.397585 -7.12163e-35 -0.00198792)
(0.397585 0 -0.00198792)
(0.397585 0 -0.00198792)
(0.397585 0 -0.00198792)
(0.397585 0 -0.00198792)
(0.397585 0 -0.00198792)
(0.397585 0 -0.00198792)
(0.397585 0 -0.00198792)
(0.397585 0 -0.00198792)
(0.397585 0 -0.00198792)
(0.397585 0 -0.00198792)
(0.397585 0 -0.00198792)
(0.397585 0 -0.00198792)
(0.397585 0 -0.00198792)
(0.397585 0 -0.00198792)
(0.397585 0 -0.00198792)
(0.397585 0 -0.00198792)
(0.397585 0 -0.00198792)
(0.397585 0 -0.00198792)
(0.397585 0 -0.00198792)
(0.397585 0 -0.00198792)
(0.397585 0 -0.00198792)
(0.397585 0 -0.00198792)
(0.397585 0 -0.00198792)
(0.397585 0 -0.00198792)
(0.397585 0 -0.00198792)
(0.397585 0 -0.00198792)
(0.397585 0 -0.00198792)
(0.397585 0 -0.00198792)
(0.397585 0 -0.00198792)
(0.397585 0 -0.00198792)
(0.397585 0 -0.00198792)
(0.397585 0 -0.00198792)
(0.397585 0 -0.00198792)
(0.397585 0 -0.00198792)
(0.397585 0 -0.00198792)
(0.397585 0 -0.00198792)
(0.397585 0 -0.00198792)
(0.397585 0 -0.00198792)
(0.397585 0 -0.00198792)
(0.397585 0 -0.00198792)
(0.397585 0 -0.00198792)
(0.397585 0 -0.00198792)
(0.397585 0 -0.00198792)
(0.397585 0 -0.00198792)
(0.397585 0 -0.00198792)
(0.397585 0 -0.00198792)
(0.397585 0 -0.00198792)
(0.397585 0 -0.00198792)
(0.397585 0 -0.00198792)
(0.397585 0 -0.00198792)
(0.397585 0 -0.00198792)
(0.397585 0 -0.00198792)
(0.397585 0 -0.00198792)
(0.397585 0 -0.00198792)
(0.397585 0 -0.00198792)
(0.397585 0 -0.00198792)
(0.397585 0 -0.00198792)
(0.397585 0 -0.00198792)
(0.397585 0 -0.00198792)
(0.397585 0 -0.00198792)
(0.397585 0 -0.00198792)
(0.397585 0 -0.00198792)
(0.397585 0 -0.00198792)
(0.397585 0 -0.00198792)
(0.397585 0 -0.00198792)
(0.397585 0 -0.00198792)
(0.397585 0 -0.00198792)
(0.397585 0 -0.00198792)
(0.397585 0 -0.00198792)
(0.397585 0 -0.00198792)
(0.397585 0 -0.00198792)
(0.397585 0 -0.00198792)
(0.397585 0 -0.00198792)
(0.397585 0 -0.00198792)
(0.397585 0 -0.00198792)
(0.397585 0 -0.00198792)
(0.397585 0 -0.00198792)
(0.397585 0 -0.00198792)
(0.397585 0 -0.00198792)
(0.397585 0 -0.00198792)
(0.397585 0 -0.00198792)
(0.397585 0 -0.00198792)
(0.397585 0 -0.00198792)
(0.397585 0 -0.00198792)
(0.397585 0 -0.00198792)
(0.397585 0 -0.00198792)
(0.397585 0 -0.00198792)
(0.397585 0 -0.00198792)
(0.397585 0 -0.00198792)
(0.397585 0 -0.00198792)
(0.397585 0 -0.00198792)
(0.397585 0 -0.00198792)
(0.397585 0 -0.00198792)
(0.397585 0 -0.00198792)
(0.397585 0 -0.00198792)
(0.397585 0 -0.00198792)
(0.397585 0 -0.00198792)
(0.397585 0 -0.00198792)
(0.397585 0 -0.00198792)
(0.397585 0 -0.00198792)
(0.397585 0 -0.00198792)
(0.397585 0 -0.00198792)
(0.397585 0 -0.00198792)
(0.397585 0 -0.00198792)
(0.397585 0 -0.00198792)
(0.397585 0 -0.00198792)
(0.397585 0 -0.00198792)
(0.397585 0 -0.00198792)
(0.397585 0 -0.00198792)
(0.397585 0 -0.00198792)
(0.397585 0 -0.00198792)
(0.397585 0 -0.00198792)
(0.397585 0 -0.00198792)
(0.397585 0 -0.00198792)
(0.397585 0 -0.00198792)
(0.397585 0 -0.00198792)
(0.397585 0 -0.00198792)
(0.397585 0 -0.00198792)
(0.397585 0 -0.00198792)
(0.397585 0 -0.00198792)
(0.397585 0 -0.00198792)
(0.397585 0 -0.00198792)
(0.397585 0 -0.00198792)
(0.397585 0 -0.00198792)
(0.397585 0 -0.00198792)
(0.397585 0 -0.00198792)
(0.397585 0 -0.00198792)
(0.397585 0 -0.00198792)
(0.397585 0 -0.00198792)
(0.397585 5.23185e-36 -0.00198792)
(0.397585 0 -0.00198792)
(0.397585 0 -0.00198792)
(0.397585 0 -0.00198792)
(0.397585 0 -0.00198792)
(0.397585 0 -0.00198792)
(0.397585 0 -0.00198792)
(0.397585 0 -0.00198792)
(0.397585 0 -0.00198792)
(0.397585 0 -0.00198792)
(0.397585 0 -0.00198792)
(0.397585 0 -0.00198792)
(0.397585 0 -0.00198792)
(0.397585 0 -0.00198792)
(0.397585 0 -0.00198792)
(0.397585 0 -0.00198792)
(0.397585 0 -0.00198792)
(0.397585 0 -0.00198792)
(0.397585 0 -0.00198792)
(0.397585 0 -0.00198792)
(0.397585 0 -0.00198792)
(0.397585 0 -0.00198792)
(0.397585 0 -0.00198792)
(0.397585 0 -0.00198792)
(0.397585 0 -0.00198792)
(0.397585 0 -0.00198792)
(0.397585 0 -0.00198792)
(0.397585 0 -0.00198792)
(0.397585 0 -0.00198792)
(0.397585 0 -0.00198793)
(0.397585 0 -0.00198792)
(0.397585 0 -0.00198567)
(0.642532 0 0.0172211)
(0.58366 0 0.00382162)
(0.512274 0 -0.000665058)
(0.50265 0 -0.00200187)
(0.482321 2.64297e-26 -0.00205802)
(0.47774 1.57446e-26 -0.00211599)
(0.469721 1.14335e-26 -0.00218658)
(0.467849 7.63989e-27 -0.00222594)
(0.464427 1.14673e-26 -0.00227055)
(0.463973 0 -0.00229934)
(0.462984 0 -0.00232304)
(0.463091 0 -0.00233608)
(0.463321 1.31649e-27 -0.00236243)
(0.463992 -8.15968e-28 -0.00237266)
(0.464782 -2.86372e-28 -0.00239033)
(0.46593 -8.40241e-29 -0.00240456)
(0.467131 0 -0.00241968)
(0.468611 7.3286e-28 -0.00243139)
(0.470064 0 -0.00244396)
(0.471709 -1.16588e-27 -0.00246083)
(0.473486 2.86203e-27 -0.00247537)
(0.475354 1.63508e-27 -0.00248851)
(0.477298 0 -0.00250167)
(0.479299 0 -0.0025135)
(0.481341 0 -0.00252703)
(0.483472 0 -0.00253566)
(0.485452 0 -0.00253511)
(0.48722 2.19972e-27 -0.0025296)
(0.488739 0 -0.00252347)
(0.490049 0 -0.00251763)
(0.491156 0 -0.00251255)
(0.492099 0 -0.00250807)
(0.49289 -1.10889e-27 -0.0025043)
(0.493558 0 -0.00250106)
(0.494116 0 -0.0024984)
(0.494586 0 -0.00249617)
(0.494979 -5.66795e-28 -0.00249436)
(0.49531 -4.77242e-28 -0.00249286)
(0.495588 0 -0.00249166)
(0.495823 0 -0.00249068)
(0.49602 -2.85512e-28 -0.00248989)
(0.496188 -4.81196e-28 -0.00248924)
(0.496331 0 -0.00248879)
(0.496454 -3.52222e-28 -0.00248839)
(0.496559 -1.49804e-28 -0.00248796)
(0.496647 -1.25165e-28 -0.00248755)
(0.496721 -2.09471e-28 -0.00248728)
(0.496784 0 -0.00248708)
(0.496839 -1.52354e-28 -0.00248693)
(0.496886 -6.5432e-29 -0.0024868)
(0.496926 0 -0.00248669)
(0.496962 -9.72324e-29 -0.0024866)
(0.496993 0 -0.00248652)
(0.497019 -7.26326e-29 -0.00248645)
(0.497042 0 -0.00248639)
(0.497062 0 -0.00248633)
(0.49708 -4.71025e-29 -0.00248629)
(0.497095 0 -0.00248624)
(0.497108 -3.53381e-29 -0.00248621)
(0.497119 0 -0.00248618)
(0.497129 0 -0.00248615)
(0.497138 -2.29708e-29 -0.00248613)
(0.497145 0 -0.0024861)
(0.497152 -1.72278e-29 -0.00248609)
(0.497157 0 -0.00248607)
(0.497162 0 -0.00248606)
(0.497166 -1.11717e-29 -0.00248604)
(0.49717 0 -0.00248603)
(0.497173 -4.17945e-30 -0.00248602)
(0.497176 0 -0.00248602)
(0.497178 0 -0.00248601)
(0.49718 -5.39848e-30 -0.002486)
(0.497182 0 -0.002486)
(0.497183 -4.02779e-30 -0.00248599)
(0.497184 0 -0.00248599)
(0.497186 0 -0.00248598)
(0.497187 -2.59142e-30 -0.00248598)
(0.497187 0 -0.00248598)
(0.497188 -9.64143e-31 -0.00248598)
(0.497189 0 -0.00248597)
(0.497189 0 -0.00248597)
(0.49719 0 -0.00248597)
(0.49719 0 -0.00248597)
(0.49719 0 -0.00248597)
(0.497191 0 -0.00248597)
(0.497191 0 -0.00248597)
(0.497191 0 -0.00248597)
(0.497191 2.53344e-31 -0.00248597)
(0.497192 0 -0.00248597)
(0.497192 0 -0.00248597)
(0.497192 1.62657e-31 -0.00248596)
(0.497192 0 -0.00248596)
(0.497192 0 -0.00248596)
(0.497192 0 -0.00248596)
(0.497192 0 -0.00248596)
(0.497192 0 -0.00248596)
(0.497192 0 -0.00248596)
(0.497192 0 -0.00248596)
(0.497192 0 -0.00248596)
(0.497192 0 -0.00248596)
(0.497192 0 -0.00248596)
(0.497192 0 -0.00248596)
(0.497192 0 -0.00248596)
(0.497192 2.00337e-32 -0.00248596)
(0.497192 0 -0.00248596)
(0.497192 1.54119e-32 -0.00248596)
(0.497192 0 -0.00248596)
(0.497192 0 -0.00248596)
(0.497192 0 -0.00248596)
(0.497192 0 -0.00248596)
(0.497192 0 -0.00248596)
(0.497192 0 -0.00248596)
(0.497192 0 -0.00248596)
(0.497192 0 -0.00248596)
(0.497192 0 -0.00248596)
(0.497192 0 -0.00248596)
(0.497192 0 -0.00248596)
(0.497192 0 -0.00248596)
(0.497192 2.48375e-33 -0.00248596)
(0.497193 0 -0.00248596)
(0.497193 0 -0.00248596)
(0.497193 1.59572e-33 -0.00248596)
(0.497193 0 -0.00248596)
(0.497193 0 -0.00248596)
(0.497193 0 -0.00248596)
(0.497193 0 -0.00248596)
(0.497193 0 -0.00248596)
(0.497193 0 -0.00248596)
(0.497193 0 -0.00248596)
(0.497193 0 -0.00248596)
(0.497193 0 -0.00248596)
(0.497193 0 -0.00248596)
(0.497193 0 -0.00248596)
(0.497193 0 -0.00248596)
(0.497193 2.129e-34 -0.00248596)
(0.497193 0 -0.00248596)
(0.497193 0 -0.00248596)
(0.497193 9.19623e-35 -0.00248596)
(0.497193 -6.17336e-35 -0.00248596)
(0.497193 0 -0.00248596)
(0.497193 0 -0.00248596)
(0.497193 0 -0.00248596)
(0.497193 0 -0.00248596)
(0.497193 0 -0.00248596)
(0.497193 0 -0.00248596)
(0.497193 0 -0.00248596)
(0.497193 0 -0.00248596)
(0.497193 0 -0.00248596)
(0.497193 0 -0.00248596)
(0.497193 0 -0.00248596)
(0.497193 0 -0.00248596)
(0.497193 0 -0.00248596)
(0.497193 0 -0.00248596)
(0.497193 0 -0.00248596)
(0.497193 0 -0.00248596)
(0.497193 0 -0.00248596)
(0.497193 0 -0.00248596)
(0.497193 0 -0.00248596)
(0.497193 0 -0.00248596)
(0.497193 0 -0.00248596)
(0.497193 0 -0.00248596)
(0.497193 0 -0.00248596)
(0.497193 0 -0.00248596)
(0.497193 0 -0.00248596)
(0.497193 0 -0.00248596)
(0.497193 0 -0.00248596)
(0.497193 0 -0.00248596)
(0.497193 0 -0.00248596)
(0.497193 0 -0.00248596)
(0.497193 0 -0.00248596)
(0.497193 0 -0.00248596)
(0.497193 0 -0.00248596)
(0.497193 0 -0.00248596)
(0.497193 0 -0.00248596)
(0.497193 0 -0.00248596)
(0.497193 0 -0.00248596)
(0.497193 0 -0.00248596)
(0.497193 0 -0.00248596)
(0.497193 0 -0.00248596)
(0.497193 0 -0.00248596)
(0.497193 0 -0.00248596)
(0.497193 0 -0.00248596)
(0.497193 0 -0.00248596)
(0.497193 0 -0.00248596)
(0.497193 0 -0.00248596)
(0.497193 0 -0.00248596)
(0.497193 0 -0.00248596)
(0.497193 0 -0.00248596)
(0.497193 0 -0.00248596)
(0.497193 0 -0.00248596)
(0.497193 0 -0.00248596)
(0.497193 0 -0.00248596)
(0.497193 0 -0.00248596)
(0.497193 0 -0.00248596)
(0.497193 0 -0.00248596)
(0.497193 0 -0.00248596)
(0.497193 0 -0.00248596)
(0.497193 0 -0.00248596)
(0.497193 0 -0.00248596)
(0.497193 0 -0.00248596)
(0.497193 0 -0.00248596)
(0.497193 0 -0.00248596)
(0.497193 0 -0.00248596)
(0.497193 0 -0.00248596)
(0.497193 0 -0.00248596)
(0.497193 0 -0.00248596)
(0.497193 0 -0.00248596)
(0.497193 0 -0.00248596)
(0.497193 0 -0.00248596)
(0.497193 0 -0.00248596)
(0.497193 0 -0.00248596)
(0.497193 0 -0.00248596)
(0.497193 0 -0.00248596)
(0.497193 0 -0.00248596)
(0.497193 0 -0.00248596)
(0.497193 0 -0.00248596)
(0.497193 0 -0.00248596)
(0.497193 0 -0.00248596)
(0.497193 0 -0.00248596)
(0.497193 0 -0.00248596)
(0.497193 0 -0.00248596)
(0.497193 0 -0.00248596)
(0.497193 0 -0.00248596)
(0.497193 0 -0.00248596)
(0.497193 0 -0.00248596)
(0.497193 0 -0.00248596)
(0.497193 0 -0.00248596)
(0.497193 0 -0.00248596)
(0.497193 0 -0.00248596)
(0.497193 0 -0.00248596)
(0.497193 0 -0.00248596)
(0.497193 0 -0.00248596)
(0.497193 0 -0.00248596)
(0.497193 0 -0.00248596)
(0.497193 0 -0.00248596)
(0.497193 0 -0.00248596)
(0.497193 0 -0.00248596)
(0.497193 0 -0.00248596)
(0.497193 0 -0.00248596)
(0.497193 0 -0.00248596)
(0.497193 0 -0.00248596)
(0.497193 0 -0.00248596)
(0.497193 0 -0.00248596)
(0.497193 0 -0.00248596)
(0.497193 0 -0.00248596)
(0.497193 0 -0.00248596)
(0.497193 0 -0.00248596)
(0.497193 0 -0.00248596)
(0.497193 0 -0.00248596)
(0.497193 0 -0.00248596)
(0.497193 0 -0.00248596)
(0.497193 0 -0.00248596)
(0.497193 0 -0.00248596)
(0.497193 0 -0.00248596)
(0.497193 -6.03854e-35 -0.00248596)
(0.497193 0 -0.00248596)
(0.497193 0 -0.00248596)
(0.497193 0 -0.00248596)
(0.497193 0 -0.00248596)
(0.497193 0 -0.00248596)
(0.497193 0 -0.00248596)
(0.497193 0 -0.00248596)
(0.497193 0 -0.00248596)
(0.497193 0 -0.00248596)
(0.497193 0 -0.00248596)
(0.497193 0 -0.00248596)
(0.497193 0 -0.00248596)
(0.497193 0 -0.00248596)
(0.497193 0 -0.00248596)
(0.497193 0 -0.00248596)
(0.497193 0 -0.00248596)
(0.497193 0 -0.00248596)
(0.497193 0 -0.00248596)
(0.497193 0 -0.00248596)
(0.497193 0 -0.00248596)
(0.497193 0 -0.00248596)
(0.497193 0 -0.00248596)
(0.497193 0 -0.00248596)
(0.497193 0 -0.00248596)
(0.497193 0 -0.00248596)
(0.497193 0 -0.00248596)
(0.497193 0 -0.00248596)
(0.497193 0 -0.00248596)
(0.497193 0 -0.00248596)
(0.497193 0 -0.00248596)
(0.497193 0 -0.00248596)
(0.497193 0 -0.00248596)
(0.497193 0 -0.00248596)
(0.497193 0 -0.00248596)
(0.497193 0 -0.00248596)
(0.497193 0 -0.00248596)
(0.497193 0 -0.00248596)
(0.497193 0 -0.00248596)
(0.497193 0 -0.00248596)
(0.497193 0 -0.00248596)
(0.497193 0 -0.00248596)
(0.497193 0 -0.00248596)
(0.497193 0 -0.00248597)
(0.497193 0 -0.00248596)
(0.497193 0 -0.00248704)
(0.678356 0 0.0170687)
(0.660851 0 0.00573792)
(0.604232 0 0.00017429)
(0.586456 0 -0.00170088)
(0.557912 5.31613e-26 -0.00193913)
(0.549727 2.07272e-26 -0.00219594)
(0.538611 3.05037e-26 -0.00234055)
(0.535181 1.05973e-26 -0.00244738)
(0.530494 1.63571e-26 -0.0025274)
(0.529281 5.91523e-27 -0.00258769)
(0.527579 0 -0.00262512)
(0.527311 0 -0.00265661)
(0.527245 2.26301e-27 -0.00269478)
(0.527689 0 -0.0027123)
(0.52837 0 -0.00274055)
(0.529439 8.06563e-28 -0.00276097)
(0.530629 -3.58166e-28 -0.00278311)
(0.532149 0 -0.00279948)
(0.533672 1.9567e-28 -0.00281586)
(0.535407 -4.69674e-28 -0.00283886)
(0.537299 1.55684e-27 -0.00285823)
(0.539307 1.02487e-27 -0.00287516)
(0.54141 0 -0.00289171)
(0.543586 1.4308e-27 -0.00290626)
(0.545823 1.67771e-27 -0.00292329)
(0.548152 1.90829e-27 -0.00293166)
(0.550293 -1.97002e-27 -0.00292549)
(0.552206 1.88773e-27 -0.00291265)
(0.553859 1.72644e-27 -0.00289932)
(0.555294 1.54178e-27 -0.00288689)
(0.556512 0 -0.00287598)
(0.557555 0 -0.00286638)
(0.558433 1.01625e-27 -0.00285821)
(0.559178 0 -0.0028512)
(0.559801 0 -0.00284535)
(0.560329 0 -0.00284044)
(0.56077 0 -0.00283639)
(0.561143 -4.47773e-28 -0.00283303)
(0.561456 0 -0.00283027)
(0.561721 0 -0.00282799)
(0.561945 0 -0.00282612)
(0.562134 -4.50371e-28 -0.00282458)
(0.562295 0 -0.00282342)
(0.562434 -3.28202e-28 -0.00282241)
(0.562552 0 -0.00282141)
(0.562652 -1.17364e-28 -0.0028205)
(0.562735 -1.9508e-28 -0.00281983)
(0.562806 0 -0.00281932)
(0.562867 -1.40123e-28 -0.00281891)
(0.56292 -5.9922e-29 -0.00281856)
(0.562966 -5.14082e-29 -0.00281826)
(0.563006 -8.84403e-29 -0.00281801)
(0.56304 0 -0.00281779)
(0.56307 -6.57343e-29 -0.0028176)
(0.563096 -2.83786e-29 -0.00281743)
(0.563118 0 -0.00281728)
(0.563137 -4.24066e-29 -0.00281716)
(0.563154 0 -0.00281705)
(0.563169 -3.17407e-29 -0.00281695)
(0.563181 0 -0.00281687)
(0.563192 0 -0.0028168)
(0.563202 -2.05863e-29 -0.00281673)
(0.56321 0 -0.00281668)
(0.563217 -1.54265e-29 -0.00281663)
(0.563223 0 -0.00281659)
(0.563229 0 -0.00281655)
(0.563233 -9.99811e-30 -0.00281652)
(0.563237 0 -0.00281649)
(0.563241 -7.48089e-30 -0.00281647)
(0.563244 0 -0.00281645)
(0.563246 0 -0.00281643)
(0.563249 -4.83315e-30 -0.00281641)
(0.563251 0 -0.0028164)
(0.563252 -1.8037e-30 -0.00281639)
(0.563254 0 -0.00281638)
(0.563255 0 -0.00281637)
(0.563256 -2.3225e-30 -0.00281636)
(0.563257 0 -0.00281635)
(0.563258 -8.6459e-31 -0.00281635)
(0.563258 0 -0.00281634)
(0.563259 0 -0.00281634)
(0.56326 0 -0.00281634)
(0.56326 0 -0.00281633)
(0.56326 0 -0.00281633)
(0.563261 0 -0.00281633)
(0.563261 0 -0.00281633)
(0.563261 0 -0.00281632)
(0.563261 0 -0.00281632)
(0.563262 0 -0.00281632)
(0.563262 0 -0.00281632)
(0.563262 1.4603e-31 -0.00281632)
(0.563262 0 -0.00281632)
(0.563262 0 -0.00281632)
(0.563262 9.22069e-32 -0.00281632)
(0.563262 0 -0.00281632)
(0.563262 0 -0.00281632)
(0.563262 0 -0.00281632)
(0.563262 0 -0.00281632)
(0.563262 0 -0.00281632)
(0.563262 0 -0.00281631)
(0.563262 0 -0.00281631)
(0.563263 0 -0.00281631)
(0.563263 0 -0.00281631)
(0.563263 0 -0.00281631)
(0.563263 0 -0.00281631)
(0.563263 1.36416e-32 -0.00281631)
(0.563263 0 -0.00281631)
(0.563263 0 -0.00281631)
(0.563263 9.14349e-33 -0.00281631)
(0.563263 0 -0.00281631)
(0.563263 0 -0.00281631)
(0.563263 0 -0.00281631)
(0.563263 0 -0.00281631)
(0.563263 0 -0.00281631)
(0.563263 0 -0.00281631)
(0.563263 0 -0.00281631)
(0.563263 0 -0.00281631)
(0.563263 0 -0.00281631)
(0.563263 0 -0.00281631)
(0.563263 0 -0.00281631)
(0.563263 0 -0.00281631)
(0.563263 1.44363e-33 -0.00281631)
(0.563263 0 -0.00281631)
(0.563263 0 -0.00281631)
(0.563263 9.19782e-34 -0.00281631)
(0.563263 0 -0.00281631)
(0.563263 0 -0.00281631)
(0.563263 0 -0.00281631)
(0.563263 0 -0.00281631)
(0.563263 0 -0.00281631)
(0.563263 0 -0.00281631)
(0.563263 0 -0.00281631)
(0.563263 0 -0.00281631)
(0.563263 0 -0.00281631)
(0.563263 0 -0.00281631)
(0.563263 0 -0.00281631)
(0.563263 0 -0.00281631)
(0.563263 9.71652e-35 -0.00281631)
(0.563263 0 -0.00281631)
(0.563263 3.38255e-35 -0.00281631)
(0.563263 0 -0.00281631)
(0.563263 0 -0.00281631)
(0.563263 0 -0.00281631)
(0.563263 0 -0.00281631)
(0.563263 0 -0.00281631)
(0.563263 0 -0.00281631)
(0.563263 0 -0.00281631)
(0.563263 0 -0.00281631)
(0.563263 0 -0.00281631)
(0.563263 0 -0.00281631)
(0.563263 0 -0.00281631)
(0.563263 -9.14853e-36 -0.00281631)
(0.563263 0 -0.00281631)
(0.563263 0 -0.00281631)
(0.563263 0 -0.00281631)
(0.563263 0 -0.00281631)
(0.563263 0 -0.00281631)
(0.563263 0 -0.00281631)
(0.563263 0 -0.00281631)
(0.563263 0 -0.00281631)
(0.563263 0 -0.00281631)
(0.563263 0 -0.00281631)
(0.563263 0 -0.00281631)
(0.563263 0 -0.00281631)
(0.563263 0 -0.00281631)
(0.563263 0 -0.00281631)
(0.563263 0 -0.00281631)
(0.563263 0 -0.00281631)
(0.563263 0 -0.00281631)
(0.563263 0 -0.00281631)
(0.563263 0 -0.00281631)
(0.563263 0 -0.00281631)
(0.563263 0 -0.00281631)
(0.563263 0 -0.00281631)
(0.563263 0 -0.00281631)
(0.563263 0 -0.00281631)
(0.563263 0 -0.00281631)
(0.563263 0 -0.00281631)
(0.563263 0 -0.00281631)
(0.563263 0 -0.00281631)
(0.563263 0 -0.00281631)
(0.563263 0 -0.00281631)
(0.563263 0 -0.00281631)
(0.563263 0 -0.00281631)
(0.563263 0 -0.00281631)
(0.563263 0 -0.00281631)
(0.563263 0 -0.00281631)
(0.563263 0 -0.00281631)
(0.563263 0 -0.00281631)
(0.563263 0 -0.00281631)