/*--------------------------------*- C++ -*----------------------------------*\
| =========                 |                                                 |
| \\      /  F ield         | foam-extend: Open Source CFD                    |
|  \\    /   O peration     | Version:     3.2                                |
|   \\  /    A nd           | Web:         http://www.foam-extend.org         |
|    \\/     M anipulation  | For copyright notice see file Copyright         |
\*---------------------------------------------------------------------------*/
FoamFile
{
    version     2.0;
    format      ascii;
    class       areaScalarField;
    location    "79";
    object      Uf;
}
// * * * * * * * * * * * * * * * * * * * * * * * * * * * * * * * * * * * * * //

dimensions      [0 1 -1 0 0 0 0];

internalField   nonuniform List<scalar> 
300
(
0.0970037
0.0775538
0.0667784
0.0668879
0.0658462
0.0658444
0.0653345
0.0653102
0.0651274
0.0651967
0.0652134
0.0653324
0.0654523
0.0656421
0.0658199
0.0660446
0.0662723
0.0665277
0.0667798
0.0670564
0.0673465
0.0676453
0.0679512
0.0682611
0.0685727
0.0688886
0.069182
0.0694389
0.0696547
0.0698359
0.069986
0.0701113
0.0702148
0.0703012
0.0703727
0.0704325
0.0704823
0.070524
0.070559
0.0705885
0.0706133
0.0706343
0.0706522
0.0706677
0.0706808
0.0706918
0.0707011
0.070709
0.0707159
0.0707219
0.0707271
0.0707316
0.0707355
0.070739
0.0707419
0.0707445
0.0707468
0.0707488
0.0707505
0.070752
0.0707533
0.0707544
0.0707554
0.0707562
0.0707569
0.0707576
0.0707581
0.0707586
0.070759
0.0707594
0.0707597
0.0707599
0.0707602
0.0707604
0.0707605
0.0707607
0.0707608
0.0707609
0.070761
0.0707611
0.0707612
0.0707612
0.0707613
0.0707613
0.0707614
0.0707614
0.0707614
0.0707614
0.0707615
0.0707615
0.0707615
0.0707615
0.0707615
0.0707615
0.0707615
0.0707616
0.0707616
0.0707616
0.0707616
0.0707616
0.0707616
0.0707616
0.0707616
0.0707616
0.0707616
0.0707616
0.0707616
0.0707616
0.0707616
0.0707616
0.0707616
0.0707616
0.0707616
0.0707616
0.0707616
0.0707616
0.0707616
0.0707616
0.0707616
0.0707616
0.0707616
0.0707616
0.0707616
0.0707616
0.0707616
0.0707616
0.0707616
0.0707616
0.0707616
0.0707616
0.0707616
0.0707616
0.0707616
0.0707616
0.0707616
0.0707616
0.0707616
0.0707616
0.0707616
0.0707616
0.0707616
0.0707616
0.0707616
0.0707616
0.0707616
0.0707616
0.0707616
0.0707616
0.0707616
0.0707616
0.0707616
0.0707616
0.0707616
0.0707616
0.0707616
0.0707616
0.0707616
0.0707616
0.0707616
0.0707616
0.0707616
0.0707616
0.0707616
0.0707616
0.0707616
0.0707616
0.0707616
0.0707616
0.0707616
0.0707616
0.0707616
0.0707616
0.0707616
0.0707616
0.0707616
0.0707616
0.0707616
0.0707616
0.0707616
0.0707616
0.0707616
0.0707616
0.0707616
0.0707616
0.0707616
0.0707616
0.0707616
0.0707616
0.0707616
0.0707616
0.0707616
0.0707616
0.0707616
0.0707616
0.0707616
0.0707616
0.0707616
0.0707616
0.0707616
0.0707616
0.0707616
0.0707616
0.0707616
0.0707616
0.0707616
0.0707616
0.0707616
0.0707616
0.0707616
0.0707616
0.0707616
0.0707616
0.0707616
0.0707616
0.0707616
0.0707616
0.0707616
0.0707616
0.0707616
0.0707616
0.0707616
0.0707616
0.0707616
0.0707616
0.0707616
0.0707616
0.0707616
0.0707616
0.0707616
0.0707616
0.0707616
0.0707616
0.0707616
0.0707616
0.0707616
0.0707616
0.0707616
0.0707616
0.0707616
0.0707616
0.0707616
0.0707616
0.0707616
0.0707616
0.0707616
0.0707616
0.0707616
0.0707616
0.0707616
0.0707616
0.0707616
0.0707616
0.0707616
0.0707616
0.0707616
0.0707616
0.0707616
0.0707616
0.0707616
0.0707616
0.0707616
0.0707616
0.0707616
0.0707616
0.0707616
0.0707616
0.0707616
0.0707616
0.0707616
0.0707616
0.0707616
0.0707616
0.0707616
0.0707616
0.0707616
0.0707616
0.0707616
0.0707616
0.0707616
0.0707616
0.0707616
0.0707616
0.0707616
0.0707616
0.0707616
0.0707616
0.0707616
0.0707616
0.0707616
0.0707616
0.0707616
0.0707616
0.0707616
0.0707616
0.0707616
0.0707616
0.0707616
0.0707616
0.0707617
0.0707615
)
;

boundaryField
{
    inlet
    {
        type            calculated;
        value           uniform 0;
    }
    outlet
    {
        type            calculated;
        value           uniform 0;
    }
    sideWall
    {
        type            empty;
    }
}


// ************************************************************************* //
