/*--------------------------------*- C++ -*----------------------------------*\
| =========                 |                                                 |
| \\      /  F ield         | foam-extend: Open Source CFD                    |
|  \\    /   O peration     | Version:     3.2                                |
|   \\  /    A nd           | Web:         http://www.foam-extend.org         |
|    \\/     M anipulation  | For copyright notice see file Copyright         |
\*---------------------------------------------------------------------------*/
FoamFile
{
    version     2.0;
    format      ascii;
    class       areaScalarField;
    location    "79";
    object      Uf2;
}
// * * * * * * * * * * * * * * * * * * * * * * * * * * * * * * * * * * * * * //

dimensions      [0 1 -1 0 0 0 0];

internalField   nonuniform List<scalar> 
300
(
0.0346374
0.0224626
0.0192001
0.0196806
0.0192999
0.019343
0.019156
0.0191639
0.0190932
0.0191181
0.0191134
0.0191466
0.019174
0.019229
0.0192738
0.0193373
0.0193991
0.0194705
0.0195392
0.0196175
0.0196998
0.0197848
0.0198722
0.0199611
0.0200509
0.0201432
0.0202293
0.0203047
0.0203679
0.0204212
0.0204653
0.0205023
0.0205328
0.0205584
0.0205794
0.0205971
0.0206117
0.020624
0.0206342
0.0206429
0.0206502
0.0206563
0.0206616
0.0206662
0.02067
0.0206733
0.020676
0.0206783
0.0206804
0.0206821
0.0206837
0.020685
0.0206862
0.0206872
0.0206881
0.0206888
0.0206895
0.0206901
0.0206906
0.020691
0.0206914
0.0206917
0.020692
0.0206923
0.0206925
0.0206927
0.0206928
0.020693
0.0206931
0.0206932
0.0206933
0.0206933
0.0206934
0.0206935
0.0206935
0.0206936
0.0206936
0.0206936
0.0206937
0.0206937
0.0206937
0.0206937
0.0206937
0.0206938
0.0206938
0.0206938
0.0206938
0.0206938
0.0206938
0.0206938
0.0206938
0.0206938
0.0206938
0.0206938
0.0206938
0.0206938
0.0206938
0.0206938
0.0206938
0.0206938
0.0206938
0.0206938
0.0206938
0.0206938
0.0206938
0.0206938
0.0206938
0.0206938
0.0206938
0.0206938
0.0206938
0.0206938
0.0206938
0.0206938
0.0206938
0.0206938
0.0206938
0.0206938
0.0206938
0.0206938
0.0206938
0.0206938
0.0206938
0.0206938
0.0206938
0.0206938
0.0206938
0.0206938
0.0206938
0.0206938
0.0206938
0.0206938
0.0206938
0.0206938
0.0206938
0.0206938
0.0206938
0.0206938
0.0206938
0.0206938
0.0206938
0.0206938
0.0206938
0.0206938
0.0206938
0.0206938
0.0206938
0.0206938
0.0206938
0.0206938
0.0206938
0.0206938
0.0206938
0.0206938
0.0206938
0.0206938
0.0206938
0.0206938
0.0206938
0.0206938
0.0206938
0.0206938
0.0206938
0.0206938
0.0206938
0.0206938
0.0206938
0.0206938
0.0206938
0.0206938
0.0206938
0.0206938
0.0206938
0.0206938
0.0206938
0.0206938
0.0206938
0.0206938
0.0206938
0.0206938
0.0206938
0.0206938
0.0206938
0.0206938
0.0206938
0.0206938
0.0206938
0.0206938
0.0206938
0.0206938
0.0206938
0.0206938
0.0206938
0.0206938
0.0206938
0.0206938
0.0206938
0.0206938
0.0206938
0.0206938
0.0206938
0.0206938
0.0206938
0.0206938
0.0206938
0.0206938
0.0206938
0.0206938
0.0206938
0.0206938
0.0206938
0.0206938
0.0206938
0.0206938
0.0206938
0.0206938
0.0206938
0.0206938
0.0206938
0.0206938
0.0206938
0.0206938
0.0206938
0.0206938
0.0206938
0.0206938
0.0206938
0.0206938
0.0206938
0.0206938
0.0206938
0.0206938
0.0206938
0.0206938
0.0206938
0.0206938
0.0206938
0.0206938
0.0206938
0.0206938
0.0206938
0.0206938
0.0206938
0.0206938
0.0206938
0.0206938
0.0206938
0.0206938
0.0206938
0.0206938
0.0206938
0.0206938
0.0206938
0.0206938
0.0206938
0.0206938
0.0206938
0.0206938
0.0206938
0.0206938
0.0206938
0.0206938
0.0206938
0.0206938
0.0206938
0.0206938
0.0206938
0.0206938
0.0206938
0.0206938
0.0206938
0.0206938
0.0206938
0.0206938
0.0206938
0.0206938
0.0206938
0.0206938
0.0206938
0.0206938
0.0206938
0.0206938
0.0206938
0.0206938
0.0206938
0.0206938
0.0206938
0.0206938
0.0206938
0.0206938
0.0206938
0.0206938
0.0206938
0.0206938
0.0206938
0.0206938
0.0206938
0.0206938
0.0206939
0.0206938
)
;

boundaryField
{
    inlet
    {
        type            calculated;
        value           uniform 0;
    }
    outlet
    {
        type            calculated;
        value           uniform 0;
    }
    sideWall
    {
        type            empty;
    }
}


// ************************************************************************* //
