/*--------------------------------*- C++ -*----------------------------------*\
| =========                 |                                                 |
| \\      /  F ield         | foam-extend: Open Source CFD                    |
|  \\    /   O peration     | Version:     3.2                                |
|   \\  /    A nd           | Web:         http://www.foam-extend.org         |
|    \\/     M anipulation  | For copyright notice see file Copyright         |
\*---------------------------------------------------------------------------*/
FoamFile
{
    version     2.0;
    format      ascii;
    class       areaVectorField;
    location    "79";
    object      Utau;
}
// * * * * * * * * * * * * * * * * * * * * * * * * * * * * * * * * * * * * * //

dimensions      [0 1 -1 0 0 0 0];

internalField   nonuniform List<vector> 
300
(
(0.969637 -1.60184e-25 -0.00484818)
(0.775518 2.45911e-25 -0.00387759)
(0.667776 9.90261e-26 -0.00333888)
(0.66887 0 -0.00334435)
(0.658454 -6.95851e-23 -0.00329227)
(0.658435 -1.78358e-23 -0.00329218)
(0.653336 -2.60373e-23 -0.00326668)
(0.653094 -5.32419e-24 -0.00326547)
(0.651266 0 -0.00325633)
(0.651959 -4.38731e-24 -0.0032598)
(0.652126 0 -0.00326063)
(0.653315 5.94088e-24 -0.00326658)
(0.654514 -7.22939e-28 -0.00327257)
(0.656413 7.74658e-24 -0.00328207)
(0.65819 0 -0.00329095)
(0.660437 0 -0.00330219)
(0.662715 8.81444e-24 -0.00331357)
(0.665268 -8.25008e-24 -0.00332634)
(0.66779 9.02015e-24 -0.00333895)
(0.670555 0 -0.00335278)
(0.673456 0 -0.00336728)
(0.676444 -9.29329e-24 -0.00338222)
(0.679503 0 -0.00339752)
(0.682603 0 -0.00341301)
(0.685719 0 -0.00342859)
(0.688877 -8.35942e-24 -0.00344438)
(0.691811 -3.179e-27 -0.00345906)
(0.69438 0 -0.0034719)
(0.696538 0 -0.00348269)
(0.69835 -3.43131e-24 -0.00349175)
(0.699851 -1.78529e-27 -0.00349926)
(0.701104 0 -0.00350552)
(0.702139 0 -0.0035107)
(0.703003 0 -0.00351502)
(0.703718 -8.96568e-28 -0.00351859)
(0.704317 0 -0.00352158)
(0.704814 0 -0.00352407)
(0.705232 0 -0.00352616)
(0.705581 0 -0.0035279)
(0.705876 0 -0.00352938)
(0.706124 0 -0.00353062)
(0.706334 -2.84675e-25 -0.00353167)
(0.706513 0 -0.00353257)
(0.706668 -2.10189e-25 -0.00353334)
(0.706799 0 -0.003534)
(0.706909 0 -0.00353455)
(0.707002 -1.30638e-25 -0.00353501)
(0.707081 0 -0.00353541)
(0.70715 -1.02283e-25 -0.00353575)
(0.70721 0 -0.00353605)
(0.707262 0 -0.00353631)
(0.707307 -7.10726e-26 -0.00353653)
(0.707346 0 -0.00353673)
(0.707381 -5.55269e-26 -0.0035369)
(0.707411 0 -0.00353705)
(0.707437 0 -0.00353718)
(0.707459 -3.78101e-26 -0.0035373)
(0.707479 0 -0.0035374)
(0.707496 -2.11239e-29 -0.00353748)
(0.707511 0 -0.00353756)
(0.707524 0 -0.00353762)
(0.707535 -1.90668e-26 -0.00353768)
(0.707545 0 -0.00353772)
(0.707553 -1.44028e-26 -0.00353777)
(0.707561 0 -0.0035378)
(0.707567 0 -0.00353783)
(0.707572 -9.38577e-27 -0.00353786)
(0.707577 0 -0.00353789)
(0.707581 -7.01943e-27 -0.00353791)
(0.707585 0 -0.00353792)
(0.707588 5.23241e-27 -0.00353794)
(0.707591 -4.5156e-27 -0.00353795)
(0.707593 0 -0.00353796)
(0.707595 -3.35651e-27 -0.00353797)
(0.707597 0 -0.00353798)
(0.707598 0 -0.00353799)
(0.707599 -2.1501e-27 -0.003538)
(0.7076 0 -0.003538)
(0.707601 -1.59316e-27 -0.00353801)
(0.707602 0 -0.00353801)
(0.707603 0 -0.00353801)
(0.707603 0 -0.00353802)
(0.707604 0 -0.00353802)
(0.707604 0 -0.00353802)
(0.707605 0 -0.00353802)
(0.707605 5.56834e-28 -0.00353803)
(0.707605 0 -0.00353803)
(0.707606 0 -0.00353803)
(0.707606 2.58653e-31 -0.00353803)
(0.707606 0 -0.00353803)
(0.707606 0 -0.00353803)
(0.707606 0 -0.00353803)
(0.707606 0 -0.00353803)
(0.707607 0 -0.00353803)
(0.707607 0 -0.00353803)
(0.707607 0 -0.00353803)
(0.707607 0 -0.00353803)
(0.707607 0 -0.00353803)
(0.707607 0 -0.00353803)
(0.707607 0 -0.00353803)
(0.707607 0 -0.00353803)
(0.707607 3.75059e-29 -0.00353803)
(0.707607 0 -0.00353803)
(0.707607 0 -0.00353803)
(0.707607 2.20642e-32 -0.00353804)
(0.707607 0 -0.00353804)
(0.707607 0 -0.00353804)
(0.707607 0 -0.00353804)
(0.707607 0 -0.00353804)
(0.707607 0 -0.00353804)
(0.707607 0 -0.00353804)
(0.707607 0 -0.00353804)
(0.707607 0 -0.00353804)
(0.707607 0 -0.00353804)
(0.707607 0 -0.00353804)
(0.707607 0 -0.00353804)
(0.707607 0 -0.00353804)
(0.707607 4.72222e-30 -0.00353804)
(0.707607 0 -0.00353804)
(0.707607 2.62164e-33 -0.00353804)
(0.707607 0 -0.00353804)
(0.707607 0 -0.00353804)
(0.707607 0 -0.00353804)
(0.707607 0 -0.00353804)
(0.707607 0 -0.00353804)
(0.707607 0 -0.00353804)
(0.707607 0 -0.00353804)
(0.707607 0 -0.00353804)
(0.707607 0 -0.00353804)
(0.707607 0 -0.00353804)
(0.707607 0 -0.00353804)
(0.707607 4.12625e-34 -0.00353804)
(0.707607 0 -0.00353804)
(0.707607 0 -0.00353804)
(0.707607 0 -0.00353804)
(0.707607 0 -0.00353804)
(0.707607 0 -0.00353804)
(0.707607 0 -0.00353804)
(0.707607 0 -0.00353804)
(0.707607 0 -0.00353804)
(0.707607 0 -0.00353804)
(0.707607 0 -0.00353804)
(0.707607 0 -0.00353804)
(0.707607 0 -0.00353804)
(0.707607 0 -0.00353804)
(0.707607 0 -0.00353804)
(0.707607 0 -0.00353804)
(0.707607 0 -0.00353804)
(0.707607 0 -0.00353804)
(0.707607 0 -0.00353804)
(0.707607 0 -0.00353804)
(0.707607 0 -0.00353804)
(0.707607 0 -0.00353804)
(0.707607 0 -0.00353804)
(0.707607 0 -0.00353804)
(0.707607 0 -0.00353804)
(0.707607 0 -0.00353804)
(0.707607 0 -0.00353804)
(0.707607 0 -0.00353804)
(0.707607 0 -0.00353804)
(0.707607 0 -0.00353804)
(0.707607 0 -0.00353804)
(0.707607 0 -0.00353804)
(0.707607 0 -0.00353804)
(0.707607 0 -0.00353804)
(0.707607 0 -0.00353804)
(0.707607 0 -0.00353804)
(0.707607 0 -0.00353804)
(0.707607 0 -0.00353804)
(0.707607 0 -0.00353804)
(0.707607 0 -0.00353804)
(0.707607 0 -0.00353804)
(0.707607 0 -0.00353804)
(0.707607 0 -0.00353804)
(0.707607 0 -0.00353804)
(0.707607 0 -0.00353804)
(0.707607 0 -0.00353804)
(0.707607 0 -0.00353804)
(0.707607 0 -0.00353804)
(0.707607 0 -0.00353804)
(0.707607 0 -0.00353804)
(0.707607 0 -0.00353804)
(0.707607 0 -0.00353804)
(0.707607 0 -0.00353804)
(0.707607 0 -0.00353804)
(0.707607 0 -0.00353804)
(0.707607 0 -0.00353804)
(0.707607 0 -0.00353804)
(0.707607 0 -0.00353804)
(0.707607 0 -0.00353804)
(0.707607 0 -0.00353804)
(0.707607 0 -0.00353804)
(0.707607 0 -0.00353804)
(0.707607 0 -0.00353804)
(0.707607 0 -0.00353804)
(0.707607 0 -0.00353804)
(0.707607 0 -0.00353804)
(0.707607 0 -0.00353804)
(0.707607 0 -0.00353804)
(0.707607 0 -0.00353804)
(0.707607 0 -0.00353804)
(0.707607 0 -0.00353804)
(0.707607 0 -0.00353804)
(0.707607 0 -0.00353804)
(0.707607 0 -0.00353804)
(0.707607 0 -0.00353804)
(0.707607 0 -0.00353804)
(0.707607 0 -0.00353804)
(0.707607 0 -0.00353804)
(0.707607 0 -0.00353804)
(0.707607 0 -0.00353804)
(0.707607 0 -0.00353804)
(0.707607 0 -0.00353804)
(0.707607 0 -0.00353804)
(0.707607 0 -0.00353804)
(0.707607 0 -0.00353804)
(0.707607 0 -0.00353804)
(0.707607 0 -0.00353804)
(0.707607 0 -0.00353804)
(0.707607 0 -0.00353804)
(0.707607 0 -0.00353804)
(0.707607 0 -0.00353804)
(0.707607 0 -0.00353804)
(0.707607 0 -0.00353804)
(0.707607 0 -0.00353804)
(0.707607 0 -0.00353804)
(0.707607 0 -0.00353804)
(0.707607 0 -0.00353804)
(0.707607 0 -0.00353804)
(0.707607 0 -0.00353804)
(0.707607 0 -0.00353804)
(0.707607 0 -0.00353804)
(0.707607 0 -0.00353804)
(0.707607 0 -0.00353804)
(0.707607 0 -0.00353804)
(0.707607 0 -0.00353804)
(0.707607 0 -0.00353804)
(0.707607 0 -0.00353804)
(0.707607 0 -0.00353804)
(0.707607 0 -0.00353804)
(0.707607 0 -0.00353804)
(0.707607 0 -0.00353804)
(0.707607 0 -0.00353804)
(0.707607 0 -0.00353804)
(0.707607 0 -0.00353804)
(0.707607 0 -0.00353804)
(0.707607 0 -0.00353804)
(0.707607 0 -0.00353804)
(0.707607 0 -0.00353804)
(0.707607 0 -0.00353804)
(0.707607 0 -0.00353804)
(0.707607 0 -0.00353804)
(0.707607 0 -0.00353804)
(0.707607 0 -0.00353804)
(0.707607 0 -0.00353804)
(0.707607 0 -0.00353804)
(0.707607 0 -0.00353804)
(0.707607 0 -0.00353804)
(0.707607 0 -0.00353804)
(0.707607 0 -0.00353804)
(0.707607 0 -0.00353804)
(0.707607 0 -0.00353804)
(0.707607 0 -0.00353804)
(0.707607 0 -0.00353804)
(0.707607 0 -0.00353804)
(0.707607 0 -0.00353804)
(0.707607 0 -0.00353804)
(0.707607 0 -0.00353804)
(0.707607 1.04509e-35 -0.00353804)
(0.707607 0 -0.00353804)
(0.707607 0 -0.00353804)
(0.707607 0 -0.00353804)
(0.707607 0 -0.00353804)
(0.707607 0 -0.00353804)
(0.707607 0 -0.00353804)
(0.707607 0 -0.00353804)
(0.707607 0 -0.00353804)
(0.707607 0 -0.00353804)
(0.707607 0 -0.00353804)
(0.707607 0 -0.00353804)
(0.707607 0 -0.00353804)
(0.707607 -3.66262e-31 -0.00353804)
(0.707607 0 -0.00353804)
(0.707607 0 -0.00353804)
(0.707607 0 -0.00353804)
(0.707607 0 -0.00353804)
(0.707607 0 -0.00353804)
(0.707607 0 -0.00353804)
(0.707607 0 -0.00353804)
(0.707607 0 -0.00353804)
(0.707607 0 -0.00353804)
(0.707607 0 -0.00353804)
(0.707607 0 -0.00353804)
(0.707607 0 -0.00353804)
(0.707607 0 -0.00353804)
(0.707607 0 -0.00353804)
(0.707607 0 -0.00353804)
(0.707607 0 -0.00353804)
(0.707608 0 -0.00353804)
(0.707607 0 -0.00353803)
)
;

boundaryField
{
    inlet
    {
        type            calculated;
        value           uniform (0 0 0);
    }
    outlet
    {
        type            calculated;
        value           uniform (0 0 0);
    }
    sideWall
    {
        type            empty;
    }
}


// ************************************************************************* //
