/*--------------------------------*- C++ -*----------------------------------*\
| =========                 |                                                 |
| \\      /  F ield         | foam-extend: Open Source CFD                    |
|  \\    /   O peration     | Version:     3.2                                |
|   \\  /    A nd           | Web:         http://www.foam-extend.org         |
|    \\/     M anipulation  | For copyright notice see file Copyright         |
\*---------------------------------------------------------------------------*/
FoamFile
{
    version     2.0;
    format      ascii;
    class       areaScalarField;
    location    "840";
    object      a;
}
// * * * * * * * * * * * * * * * * * * * * * * * * * * * * * * * * * * * * * //

dimensions      [1 -1 0 0 0 0 0];

internalField   nonuniform List<scalar> 
550
(
2.78678e-05
2.7842e-05
2.78678e-05
2.78678e-05
2.78678e-05
2.78678e-05
2.76951e-05
2.78678e-05
2.78678e-05
2.75814e-05
2.78678e-05
2.78678e-05
1.52253e-05
1.38371e-05
2.77523e-05
2.78428e-05
2.78678e-05
2.78678e-05
2.78678e-05
2.78678e-05
1.43584e-05
1.64644e-05
1.56569e-05
1.90276e-05
2.78678e-05
2.78678e-05
2.78678e-05
2.78678e-05
2.18291e-05
2.33948e-05
2.60415e-05
2.78678e-05
2.78902e-05
2.77102e-05
2.73476e-05
2.70039e-05
2.67316e-05
2.6709e-05
2.65507e-05
2.64753e-05
2.63982e-05
2.63763e-05
2.6395e-05
2.64458e-05
2.64245e-05
2.6352e-05
2.62605e-05
2.61736e-05
2.60939e-05
2.60187e-05
2.59435e-05
2.58683e-05
2.57952e-05
2.57237e-05
2.56555e-05
2.5587e-05
2.55213e-05
2.54574e-05
2.53918e-05
2.53241e-05
2.52564e-05
2.51896e-05
2.51229e-05
2.50569e-05
2.49931e-05
2.49323e-05
2.48762e-05
2.48252e-05
2.47815e-05
2.47451e-05
2.4717e-05
2.46957e-05
2.46817e-05
2.46732e-05
2.46689e-05
2.46675e-05
2.46695e-05
2.46742e-05
2.468e-05
2.46876e-05
2.46955e-05
2.47046e-05
2.47146e-05
2.47254e-05
2.47351e-05
2.47463e-05
2.4756e-05
2.47656e-05
2.47752e-05
2.47848e-05
2.47945e-05
2.48028e-05
2.48128e-05
2.48217e-05
2.48308e-05
2.48403e-05
2.48503e-05
2.48608e-05
2.487e-05
2.4881e-05
2.48905e-05
2.49014e-05
2.49101e-05
2.49201e-05
2.49278e-05
2.49368e-05
2.49453e-05
2.49515e-05
2.49589e-05
2.49642e-05
2.49708e-05
2.49771e-05
2.49811e-05
2.49867e-05
2.49899e-05
2.49948e-05
2.49975e-05
2.50019e-05
2.50042e-05
2.50063e-05
2.50083e-05
2.50103e-05
2.50122e-05
2.50142e-05
2.50162e-05
2.50182e-05
2.50182e-05
2.50204e-05
2.50206e-05
2.50209e-05
2.50213e-05
2.5022e-05
2.5023e-05
2.50242e-05
2.50258e-05
2.50252e-05
2.50276e-05
2.50277e-05
2.50282e-05
2.5029e-05
2.50303e-05
2.50319e-05
2.50338e-05
2.50334e-05
2.50361e-05
2.50364e-05
2.50398e-05
2.50407e-05
2.5042e-05
2.50435e-05
2.50453e-05
2.50473e-05
2.50465e-05
2.50489e-05
2.50486e-05
2.50514e-05
2.50514e-05
2.50516e-05
2.50551e-05
2.50558e-05
2.50567e-05
2.50548e-05
2.50564e-05
2.50583e-05
2.50606e-05
2.50601e-05
2.50632e-05
2.50635e-05
2.50642e-05
2.50653e-05
2.50667e-05
2.50718e-05
2.5074e-05
2.50734e-05
2.50761e-05
2.50792e-05
2.50823e-05
2.50856e-05
2.50889e-05
2.50889e-05
2.50921e-05
2.5092e-05
2.50949e-05
2.50977e-05
2.5097e-05
2.50993e-05
2.50981e-05
2.50999e-05
2.50981e-05
2.50961e-05
2.50971e-05
2.50945e-05
2.50949e-05
2.50919e-05
2.50886e-05
2.50885e-05
2.50849e-05
2.50812e-05
2.50808e-05
2.5077e-05
2.50733e-05
2.50695e-05
2.5069e-05
2.50653e-05
2.50616e-05
2.5061e-05
2.50572e-05
2.50563e-05
2.50517e-05
2.50499e-05
2.50444e-05
2.50417e-05
2.50352e-05
2.50316e-05
2.50276e-05
2.50199e-05
2.50152e-05
2.50102e-05
2.50017e-05
2.49963e-05
2.49908e-05
2.49852e-05
2.49763e-05
2.49708e-05
2.49654e-05
2.49568e-05
2.49518e-05
2.4947e-05
2.49393e-05
2.49352e-05
2.49316e-05
2.49251e-05
2.49224e-05
2.49169e-05
2.49153e-05
2.49109e-05
2.49072e-05
2.49073e-05
2.49048e-05
2.49028e-05
2.49049e-05
2.49041e-05
2.4904e-05
2.49044e-05
2.49088e-05
2.49103e-05
2.49124e-05
2.4915e-05
2.49181e-05
2.49216e-05
2.49256e-05
2.49302e-05
2.4935e-05
2.49403e-05
2.49459e-05
2.49486e-05
2.49549e-05
2.49615e-05
2.49684e-05
2.49755e-05
2.49795e-05
2.49872e-05
2.49952e-05
2.5e-05
2.50085e-05
2.50173e-05
2.5023e-05
2.50324e-05
2.50386e-05
2.50486e-05
2.50555e-05
2.50626e-05
2.50735e-05
2.50812e-05
2.50891e-05
2.50973e-05
2.51091e-05
2.51176e-05
2.51262e-05
2.51349e-05
2.51436e-05
2.51522e-05
2.5164e-05
2.51722e-05
2.518e-05
2.51874e-05
2.51976e-05
2.5204e-05
2.52097e-05
2.52179e-05
2.52222e-05
2.52288e-05
2.52313e-05
2.52362e-05
2.5237e-05
2.52403e-05
2.52427e-05
2.52442e-05
2.52419e-05
2.5242e-05
2.52414e-05
2.52401e-05
2.52381e-05
2.52356e-05
2.52292e-05
2.52255e-05
2.52212e-05
2.52163e-05
2.52109e-05
2.5205e-05
2.51987e-05
2.5192e-05
2.51848e-05
2.51771e-05
2.51722e-05
2.51638e-05
2.5155e-05
2.51458e-05
2.51363e-05
2.51266e-05
2.51196e-05
2.51094e-05
2.50988e-05
2.50913e-05
2.50805e-05
2.50695e-05
2.50615e-05
2.50503e-05
2.5039e-05
2.50307e-05
2.50192e-05
2.50077e-05
2.49993e-05
2.49878e-05
2.49795e-05
2.49682e-05
2.496e-05
2.49488e-05
2.4941e-05
2.49302e-05
2.49228e-05
2.49157e-05
2.49058e-05
2.48995e-05
2.48902e-05
2.48846e-05
2.48794e-05
2.48714e-05
2.4867e-05
2.48631e-05
2.48563e-05
2.48533e-05
2.48506e-05
2.4845e-05
2.48431e-05
2.48383e-05
2.48372e-05
2.48332e-05
2.48328e-05
2.48294e-05
2.48298e-05
2.48271e-05
2.48283e-05
2.48263e-05
2.4828e-05
2.48264e-05
2.4825e-05
2.48273e-05
2.4826e-05
2.48284e-05
2.48272e-05
2.48296e-05
2.48284e-05
2.48307e-05
2.48295e-05
2.48318e-05
2.48305e-05
2.48327e-05
2.48314e-05
2.48338e-05
2.48327e-05
2.48353e-05
2.48344e-05
2.48376e-05
2.48372e-05
2.48372e-05
2.48413e-05
2.4842e-05
2.4847e-05
2.48485e-05
2.48504e-05
2.48528e-05
2.48557e-05
2.4863e-05
2.4867e-05
2.48713e-05
2.48762e-05
2.48816e-05
2.48875e-05
2.48938e-05
2.49004e-05
2.49074e-05
2.49149e-05
2.49226e-05
2.49305e-05
2.49385e-05
2.49428e-05
2.4951e-05
2.49591e-05
2.49672e-05
2.4975e-05
2.49827e-05
2.49938e-05
2.50007e-05
2.5007e-05
2.50129e-05
2.50181e-05
2.50228e-05
2.50269e-05
2.50305e-05
2.50373e-05
2.50398e-05
2.50419e-05
2.50435e-05
2.50448e-05
2.50457e-05
2.50499e-05
2.505e-05
2.50498e-05
2.50493e-05
2.50486e-05
2.50474e-05
2.50461e-05
2.50444e-05
2.50461e-05
2.50437e-05
2.50409e-05
2.50377e-05
2.5034e-05
2.50336e-05
2.5029e-05
2.50238e-05
2.50217e-05
2.50154e-05
2.50086e-05
2.5005e-05
2.49971e-05
2.49888e-05
2.49837e-05
2.49744e-05
2.49683e-05
2.49581e-05
2.49474e-05
2.49399e-05
2.49285e-05
2.49203e-05
2.49082e-05
2.48995e-05
2.4887e-05
2.48782e-05
2.48655e-05
2.48566e-05
2.48439e-05
2.48351e-05
2.48227e-05
2.48139e-05
2.48015e-05
2.4793e-05
2.47843e-05
2.47719e-05
2.47633e-05
2.47507e-05
2.47419e-05
2.4733e-05
2.47202e-05
2.47112e-05
2.46982e-05
2.46893e-05
2.46804e-05
2.46675e-05
2.46589e-05
2.46464e-05
2.46382e-05
2.46304e-05
2.46189e-05
2.46076e-05
2.4601e-05
2.45907e-05
2.45849e-05
2.45755e-05
2.45665e-05
2.45624e-05
2.45547e-05
2.45475e-05
2.45451e-05
2.45391e-05
2.45336e-05
2.45327e-05
2.4528e-05
2.45235e-05
2.45236e-05
2.45196e-05
2.45159e-05
2.45167e-05
2.45134e-05
2.45102e-05
2.45118e-05
2.45091e-05
2.45066e-05
2.45085e-05
2.45061e-05
2.45036e-05
2.45055e-05
2.45028e-05
2.44999e-05
2.45014e-05
2.44982e-05
2.44996e-05
2.44965e-05
2.44935e-05
2.44951e-05
2.44926e-05
2.44901e-05
2.44926e-05
2.44907e-05
2.44935e-05
2.44917e-05
2.44944e-05
2.44965e-05
2.44973e-05
2.45017e-05
2.45046e-05
2.45119e-05
2.45042e-05
2.45068e-05
2.445e-05
2.43611e-05
2.40215e-05
2.26799e-05
2.78462e-05
2.78678e-05
2.78678e-05
2.78678e-05
2.78678e-05
2.78678e-05
2.78678e-05
2.78678e-05
2.78678e-05
1.47805e-05
1.58414e-05
)
;

boundaryField
{
    inlet
    {
        type            calculated;
        value           uniform 0;
    }
    endWall
    {
        type            calculated;
        value           uniform 0;
    }
    sideWall
    {
        type            empty;
    }
}


// ************************************************************************* //
