/*--------------------------------*- C++ -*----------------------------------*\
| =========                 |                                                 |
| \\      /  F ield         | foam-extend: Open Source CFD                    |
|  \\    /   O peration     | Version:     3.2                                |
|   \\  /    A nd           | Web:         http://www.foam-extend.org         |
|    \\/     M anipulation  | For copyright notice see file Copyright         |
\*---------------------------------------------------------------------------*/
FoamFile
{
    version     2.0;
    format      ascii;
    class       areaVectorField;
    location    "840";
    object      aMeshCentreN;
}
// * * * * * * * * * * * * * * * * * * * * * * * * * * * * * * * * * * * * * //

dimensions      [0 0 0 0 0 0 0];

internalField   nonuniform List<vector> 
550
(
(0.0090909 0.01 -1.81818e-05)
(0.0272727 0.01 -5.45454e-05)
(0.0454545 0.01 -9.09091e-05)
(0.0636364 0.01 -0.000127273)
(0.0818182 0.01 -0.000163636)
(0.1 0.01 -0.0002)
(0.118182 0.01 -0.000236364)
(0.136364 0.01 -0.000272727)
(0.154545 0.01 -0.000309091)
(0.172727 0.01 -0.000345454)
(0.190909 0.01 -0.000434947)
(0.209091 0.01 -0.00042305)
(0.227273 0.01 -0.000469902)
(0.245455 0.01 -0.000499235)
(0.263636 0.01 -0.000527089)
(0.281818 0.01 -0.000559981)
(0.3 0.01 -0.000568045)
(0.318182 0.01 -0.000591199)
(0.336364 0.01 -0.000655961)
(0.354546 0.01 -0.000571231)
(0.372727 0.01 -0.000416801)
(0.390909 0.01 -0.000359461)
(0.409091 0.01 -0.00034381)
(0.427273 0.01 -0.000343929)
(0.445454 0.01 -0.000288671)
(0.463636 0.01 -9.48317e-05)
(0.481818 0.01 0.00018796)
(0.5 0.01 0.000301776)
(0.518182 0.01 0.000469753)
(0.536364 0.01 0.000668217)
(0.554546 0.01 0.00103175)
(0.572727 0.01 0.0015118)
(0.590909 0.01 0.00203348)
(0.609091 0.01 0.00257712)
(0.627273 0.01 0.00306724)
(0.645455 0.01 0.0034934)
(0.663636 0.01 0.00386082)
(0.681818 0.01 0.0042112)
(0.7 0.01 0.00455773)
(0.718182 0.01 0.00488036)
(0.736364 0.01 0.00518882)
(0.754545 0.01 0.00548532)
(0.772727 0.01 0.00578096)
(0.790909 0.01 0.00608984)
(0.809091 0.01 0.00640751)
(0.827273 0.01 0.00672085)
(0.845455 0.01 0.00702009)
(0.863636 0.01 0.00730721)
(0.881818 0.01 0.00758194)
(0.9 0.01 0.00784821)
(0.918182 0.01 0.00810458)
(0.936364 0.01 0.00835318)
(0.954545 0.01 0.00859264)
(0.972727 0.01 0.00882514)
(0.990909 0.01 0.00905021)
(1.00909 0.01 0.0092695)
(1.02727 0.01 0.00948234)
(1.04546 0.01 0.00969045)
(1.06364 0.01 0.00989308)
(1.08182 0.01 0.0100902)
(1.1 0.01 0.0102807)
(1.11818 0.01 0.010465)
(1.13636 0.01 0.0106422)
(1.15455 0.01 0.0108118)
(1.17273 0.01 0.0109728)
(1.19091 0.01 0.0111248)
(1.20909 0.01 0.0112677)
(1.22727 0.01 0.0114015)
(1.24545 0.01 0.0115265)
(1.26364 0.01 0.0116431)
(1.28182 0.01 0.011752)
(1.3 0.01 0.0118535)
(1.31818 0.01 0.0119484)
(1.33636 0.01 0.0120369)
(1.35454 0.01 0.0121201)
(1.37273 0.01 0.0121975)
(1.39091 0.01 0.0122703)
(1.40909 0.01 0.0123381)
(1.42727 0.01 0.0124025)
(1.44545 0.01 0.0124626)
(1.46364 0.01 0.0125201)
(1.48182 0.01 0.0125739)
(1.5 0.01 0.0126259)
(1.51818 0.01 0.012675)
(1.53636 0.01 0.0127227)
(1.55454 0.01 0.0127676)
(1.57273 0.01 0.0128117)
(1.59091 0.01 0.012853)
(1.60909 0.01 0.0128936)
(1.62727 0.01 0.012932)
(1.64545 0.01 0.0129705)
(1.66364 0.01 0.0130068)
(1.68182 0.01 0.0130434)
(1.7 0.01 0.0130778)
(1.71818 0.01 0.0131131)
(1.73636 0.01 0.013146)
(1.75454 0.01 0.0131808)
(1.77273 0.01 0.0132131)
(1.79091 0.01 0.0132482)
(1.80909 0.01 0.0132799)
(1.82727 0.01 0.0133164)
(1.84545 0.01 0.0133487)
(1.86364 0.01 0.0133862)
(1.88182 0.01 0.0134191)
(1.9 0.01 0.0134569)
(1.91818 0.01 0.01349)
(1.93636 0.01 0.013527)
(1.95454 0.01 0.0135595)
(1.97273 0.01 0.0135945)
(1.99091 0.01 0.0136256)
(2.00909 0.01 0.0136579)
(2.02727 0.01 0.0136872)
(2.04545 0.01 0.013717)
(2.06364 0.01 0.0137441)
(2.08182 0.01 0.0137707)
(2.1 0.01 0.0137953)
(2.11818 0.01 0.0138185)
(2.13636 0.01 0.0138407)
(2.15454 0.01 0.0138609)
(2.17273 0.01 0.0138806)
(2.19091 0.01 0.0138971)
(2.20909 0.01 0.013914)
(2.22727 0.01 0.0139273)
(2.24545 0.01 0.0139417)
(2.26364 0.01 0.0139523)
(2.28182 0.01 0.0139649)
(2.3 0.01 0.0139735)
(2.31818 0.01 0.0139842)
(2.33636 0.01 0.0139913)
(2.35454 0.01 0.0140006)
(2.37273 0.01 0.014006)
(2.39091 0.01 0.014014)
(2.40909 0.01 0.0140185)
(2.42727 0.01 0.0140258)
(2.44545 0.01 0.0140303)
(2.46364 0.01 0.0140372)
(2.48182 0.01 0.0140414)
(2.5 0.01 0.0140484)
(2.51818 0.01 0.0140528)
(2.53636 0.01 0.0140597)
(2.55455 0.01 0.0140646)
(2.57273 0.01 0.014072)
(2.59091 0.01 0.0140782)
(2.60909 0.01 0.0140866)
(2.62727 0.01 0.0140939)
(2.64545 0.01 0.0141037)
(2.66364 0.01 0.0141131)
(2.68182 0.01 0.0141258)
(2.7 0.01 0.0141372)
(2.71818 0.01 0.0141531)
(2.73636 0.01 0.0141657)
(2.75454 0.01 0.0141857)
(2.77273 0.01 0.0141992)
(2.79091 0.01 0.0142238)
(2.80909 0.01 0.0142388)
(2.82727 0.01 0.0142639)
(2.84546 0.01 0.0142785)
(2.86364 0.01 0.0142996)
(2.88182 0.01 0.014311)
(2.9 0.01 0.0143263)
(2.91818 0.01 0.0143331)
(2.93636 0.01 0.0143391)
(2.95454 0.01 0.0143388)
(2.97273 0.01 0.0143341)
(2.99091 0.01 0.0143273)
(3.00909 0.01 0.0143128)
(3.02727 0.01 0.0142994)
(3.04545 0.01 0.0142763)
(3.06364 0.01 0.014258)
(3.08182 0.01 0.014228)
(3.1 0.01 0.0142067)
(3.11818 0.01 0.014175)
(3.13636 0.01 0.0141544)
(3.15455 0.01 0.0141258)
(3.17273 0.01 0.0141034)
(3.19091 0.01 0.0140751)
(3.20909 0.01 0.0140512)
(3.22727 0.01 0.0140234)
(3.24545 0.01 0.0139993)
(3.26364 0.01 0.0139729)
(3.28182 0.01 0.0139487)
(3.3 0.01 0.0139227)
(3.31818 0.01 0.0138983)
(3.33636 0.01 0.0138732)
(3.35454 0.01 0.0138499)
(3.37273 0.01 0.013826)
(3.39091 0.01 0.0138042)
(3.40909 0.01 0.0137818)
(3.42727 0.01 0.0137621)
(3.44545 0.01 0.0137412)
(3.46364 0.01 0.0137232)
(3.48182 0.01 0.0137037)
(3.5 0.01 0.0136877)
(3.51818 0.01 0.0136696)
(3.53636 0.01 0.0136547)
(3.55455 0.01 0.013637)
(3.57273 0.01 0.0136232)
(3.59091 0.01 0.0136057)
(3.60909 0.01 0.0135915)
(3.62727 0.01 0.013574)
(3.64545 0.01 0.013559)
(3.66364 0.01 0.0135403)
(3.68182 0.01 0.0135232)
(3.7 0.01 0.0135035)
(3.71818 0.01 0.0134838)
(3.73636 0.01 0.0134624)
(3.75455 0.01 0.0134402)
(3.77273 0.01 0.0134172)
(3.79091 0.01 0.013392)
(3.80909 0.01 0.0133674)
(3.82727 0.01 0.0133391)
(3.84545 0.01 0.0133128)
(3.86364 0.01 0.0132816)
(3.88182 0.01 0.0132541)
(3.9 0.01 0.0132216)
(3.91818 0.01 0.0131944)
(3.93636 0.01 0.0131616)
(3.95455 0.01 0.0131352)
(3.97273 0.01 0.0131046)
(3.99091 0.01 0.0130786)
(4.00909 0.01 0.0130499)
(4.02727 0.01 0.0130251)
(4.04546 0.01 0.0129983)
(4.06364 0.01 0.0129737)
(4.08182 0.01 0.012948)
(4.1 0.01 0.0129242)
(4.11818 0.01 0.012899)
(4.13636 0.01 0.0128754)
(4.15454 0.01 0.0128509)
(4.17273 0.01 0.0128269)
(4.19091 0.01 0.0128026)
(4.20909 0.01 0.0127788)
(4.22727 0.01 0.0127542)
(4.24545 0.01 0.0127299)
(4.26364 0.01 0.0127049)
(4.28182 0.01 0.0126802)
(4.3 0.01 0.0126546)
(4.31818 0.01 0.0126288)
(4.33636 0.01 0.012603)
(4.35454 0.01 0.0125767)
(4.37273 0.01 0.0125501)
(4.39091 0.01 0.0125238)
(4.40909 0.01 0.012497)
(4.42727 0.01 0.0124695)
(4.44545 0.01 0.0124418)
(4.46364 0.01 0.0124143)
(4.48182 0.01 0.0123864)
(4.5 0.01 0.0123581)
(4.51818 0.01 0.0123294)
(4.53636 0.01 0.0123003)
(4.55454 0.01 0.0122708)
(4.57273 0.01 0.012241)
(4.59091 0.01 0.0122107)
(4.60909 0.01 0.0121802)
(4.62727 0.01 0.0121497)
(4.64546 0.01 0.0121187)
(4.66364 0.01 0.0120867)
(4.68182 0.01 0.0120543)
(4.7 0.01 0.0120217)
(4.71818 0.01 0.0119891)
(4.73636 0.01 0.011956)
(4.75455 0.01 0.0119219)
(4.77273 0.01 0.0118878)
(4.79091 0.01 0.0118531)
(4.80909 0.01 0.0118174)
(4.82727 0.01 0.0117816)
(4.84545 0.01 0.0117453)
(4.86364 0.01 0.0117082)
(4.88182 0.01 0.0116707)
(4.9 0.01 0.0116324)
(4.91818 0.01 0.0115939)
(4.93636 0.01 0.0115542)
(4.95454 0.01 0.0115138)
(4.97273 0.01 0.0114732)
(4.99091 0.01 0.0114318)
(5.00909 0.01 0.0113892)
(5.02727 0.01 0.0113461)
(5.04546 0.01 0.0113029)
(5.06364 0.01 0.011259)
(5.08182 0.01 0.0112145)
(5.1 0.01 0.0111694)
(5.11818 0.01 0.0111234)
(5.13636 0.01 0.0110772)
(5.15455 0.01 0.0110312)
(5.17273 0.01 0.0109848)
(5.19091 0.01 0.0109379)
(5.20909 0.01 0.010891)
(5.22727 0.01 0.0108444)
(5.24545 0.01 0.0107975)
(5.26364 0.01 0.0107506)
(5.28182 0.01 0.010704)
(5.3 0.01 0.0106575)
(5.31818 0.01 0.0106113)
(5.33636 0.01 0.0105651)
(5.35454 0.01 0.0105192)
(5.37273 0.01 0.0104731)
(5.39091 0.01 0.0104274)
(5.40909 0.01 0.0103823)
(5.42727 0.01 0.0103374)
(5.44545 0.01 0.0102923)
(5.46364 0.01 0.0102476)
(5.48182 0.01 0.0102033)
(5.5 0.01 0.0101595)
(5.51818 0.01 0.0101164)
(5.53636 0.01 0.0100737)
(5.55454 0.01 0.0100309)
(5.57273 0.01 0.00998864)
(5.59091 0.01 0.00994703)
(5.60909 0.01 0.00990601)
(5.62727 0.01 0.00986572)
(5.64546 0.01 0.00982611)
(5.66364 0.01 0.00978732)
(5.68182 0.01 0.00974931)
(5.7 0.01 0.00971195)
(5.71818 0.01 0.00967573)
(5.73636 0.01 0.00964111)
(5.75454 0.01 0.00960754)
(5.77273 0.01 0.00957504)
(5.79091 0.01 0.00954359)
(5.80909 0.01 0.00951304)
(5.82727 0.01 0.00948384)
(5.84545 0.01 0.00945635)
(5.86364 0.01 0.00942976)
(5.88182 0.01 0.00940452)
(5.9 0.01 0.00938112)
(5.91818 0.01 0.00935864)
(5.93636 0.01 0.00933749)
(5.95454 0.01 0.00931813)
(5.97273 0.01 0.00929963)
(5.99091 0.01 0.00928245)
(6.00909 0.01 0.009267)
(6.02727 0.01 0.00925231)
(6.04545 0.01 0.00923873)
(6.06364 0.01 0.00922641)
(6.08182 0.01 0.0092151)
(6.1 0.01 0.00920498)
(6.11818 0.01 0.00919585)
(6.13636 0.01 0.00918775)
(6.15454 0.01 0.00918049)
(6.17273 0.01 0.00917414)
(6.19091 0.01 0.00916827)
(6.20909 0.01 0.00916357)
(6.22727 0.01 0.00915973)
(6.24545 0.01 0.00915635)
(6.26364 0.01 0.00915365)
(6.28182 0.01 0.00915112)
(6.3 0.01 0.00914964)
(6.31818 0.01 0.0091487)
(6.33636 0.01 0.00914794)
(6.35454 0.01 0.00914827)
(6.37273 0.01 0.00914894)
(6.39091 0.01 0.00914991)
(6.40909 0.01 0.00915178)
(6.42727 0.01 0.00915382)
(6.44545 0.01 0.00915596)
(6.46364 0.01 0.00915817)
(6.48182 0.01 0.00916045)
(6.5 0.01 0.00916277)
(6.51818 0.01 0.0091651)
(6.53636 0.01 0.00916739)
(6.55454 0.01 0.00916966)
(6.57273 0.01 0.00917188)
(6.59091 0.01 0.00917414)
(6.60909 0.01 0.00917637)
(6.62727 0.01 0.00917878)
(6.64546 0.01 0.00918126)
(6.66364 0.01 0.0091832)
(6.68182 0.01 0.00918528)
(6.7 0.01 0.00918744)
(6.71818 0.01 0.00918967)
(6.73636 0.01 0.00919194)
(6.75454 0.01 0.00919427)
(6.77273 0.01 0.00919662)
(6.79091 0.01 0.00919897)
(6.80909 0.01 0.00920131)
(6.82727 0.01 0.00920361)
(6.84545 0.01 0.00920585)
(6.86364 0.01 0.009208)
(6.88182 0.01 0.00921003)
(6.9 0.01 0.00921193)
(6.91818 0.01 0.00921365)
(6.93636 0.01 0.0092152)
(6.95454 0.01 0.00921654)
(6.97273 0.01 0.00921773)
(6.99091 0.01 0.00921888)
(7.00909 0.01 0.00921905)
(7.02727 0.01 0.00921911)
(7.04545 0.01 0.00921897)
(7.06364 0.01 0.00921867)
(7.08182 0.01 0.00921856)
(7.1 0.01 0.00921798)
(7.11818 0.01 0.00921678)
(7.13636 0.01 0.0092147)
(7.15454 0.01 0.00921212)
(7.17273 0.01 0.00920962)
(7.19091 0.01 0.00920659)
(7.20909 0.01 0.00920294)
(7.22727 0.01 0.00919873)
(7.24545 0.01 0.00919395)
(7.26364 0.01 0.00918865)
(7.28182 0.01 0.00918282)
(7.3 0.01 0.00917651)
(7.31818 0.01 0.00916981)
(7.33636 0.01 0.00916283)
(7.35454 0.01 0.00915565)
(7.37273 0.01 0.00914858)
(7.39091 0.01 0.00914109)
(7.40909 0.01 0.00913268)
(7.42727 0.01 0.00912411)
(7.44545 0.01 0.00911542)
(7.46364 0.01 0.00910657)
(7.48182 0.01 0.00909736)
(7.5 0.01 0.00908842)
(7.51818 0.01 0.00908031)
(7.53636 0.01 0.00907232)
(7.55454 0.01 0.00906447)
(7.57273 0.01 0.00905679)
(7.59091 0.01 0.00904926)
(7.60909 0.01 0.00904184)
(7.62727 0.01 0.0090343)
(7.64545 0.01 0.00902715)
(7.66364 0.01 0.00902091)
(7.68182 0.01 0.0090149)
(7.7 0.01 0.00900906)
(7.71818 0.01 0.00900339)
(7.73636 0.01 0.00899764)
(7.75455 0.01 0.00899237)
(7.77273 0.01 0.00898807)
(7.79091 0.01 0.00898415)
(7.80909 0.01 0.00898054)
(7.82727 0.01 0.00897738)
(7.84545 0.01 0.00897458)
(7.86364 0.01 0.00897221)
(7.88182 0.01 0.00897009)
(7.9 0.01 0.00896879)
(7.91818 0.01 0.00896887)
(7.93636 0.01 0.00896991)
(7.95454 0.01 0.0089717)
(7.97273 0.01 0.00897396)
(7.99091 0.01 0.00897747)
(8.00909 0.01 0.00898209)
(8.02727 0.01 0.00898691)
(8.04546 0.01 0.00899277)
(8.06364 0.01 0.00899952)
(8.08182 0.01 0.00900632)
(8.1 0.01 0.00901398)
(8.11818 0.01 0.00902235)
(8.13636 0.01 0.00903065)
(8.15455 0.01 0.00903959)
(8.17273 0.01 0.00904898)
(8.19091 0.01 0.00905896)
(8.20909 0.01 0.00906934)
(8.22727 0.01 0.00907942)
(8.24545 0.01 0.00908979)
(8.26364 0.01 0.00910035)
(8.28182 0.01 0.00911104)
(8.3 0.01 0.00912179)
(8.31818 0.01 0.00913255)
(8.33636 0.01 0.00914329)
(8.35454 0.01 0.009154)
(8.37273 0.01 0.00916467)
(8.39091 0.01 0.00917527)
(8.40909 0.01 0.00918578)
(8.42727 0.01 0.00919624)
(8.44545 0.01 0.00920661)
(8.46364 0.01 0.00921698)
(8.48182 0.01 0.00922713)
(8.5 0.01 0.00923722)
(8.51818 0.01 0.00924794)
(8.53636 0.01 0.00925852)
(8.55455 0.01 0.00926909)
(8.57273 0.01 0.0092794)
(8.59091 0.01 0.00928957)
(8.60909 0.01 0.0093003)
(8.62727 0.01 0.00931076)
(8.64546 0.01 0.00932106)
(8.66364 0.01 0.00933095)
(8.68182 0.01 0.00934052)
(8.7 0.01 0.00935051)
(8.71818 0.01 0.00936008)
(8.73636 0.01 0.00936927)
(8.75454 0.01 0.00937792)
(8.77273 0.01 0.00938603)
(8.79091 0.01 0.0093946)
(8.80909 0.01 0.00940272)
(8.82727 0.01 0.00940961)
(8.84546 0.01 0.00941614)
(8.86364 0.01 0.00942218)
(8.88182 0.01 0.00942792)
(8.9 0.01 0.00943328)
(8.91818 0.01 0.00943741)
(8.93636 0.01 0.00944136)
(8.95454 0.01 0.00944509)
(8.97273 0.01 0.00944775)
(8.99091 0.01 0.0094504)
(9.00909 0.01 0.00945302)
(9.02727 0.01 0.00945477)
(9.04546 0.01 0.00945672)
(9.06364 0.01 0.00945886)
(9.08182 0.01 0.00946031)
(9.1 0.01 0.00946217)
(9.11818 0.01 0.00946445)
(9.13636 0.01 0.00946629)
(9.15454 0.01 0.00946879)
(9.17273 0.01 0.00947198)
(9.19091 0.01 0.00947505)
(9.20909 0.01 0.00947921)
(9.22727 0.01 0.00948463)
(9.24545 0.01 0.00949053)
(9.26364 0.01 0.00949811)
(9.28182 0.01 0.00950775)
(9.3 0.01 0.00951856)
(9.31818 0.01 0.00953226)
(9.33636 0.01 0.00954896)
(9.35454 0.01 0.00956841)
(9.37273 0.01 0.00959203)
(9.39091 0.01 0.00961964)
(9.40909 0.01 0.00965317)
(9.42727 0.01 0.00969048)
(9.44545 0.01 0.00973719)
(9.46364 0.01 0.00978474)
(9.48182 0.01 0.00985273)
(9.5 0.01 0.00991025)
(9.51818 0.01 0.0100112)
(9.53636 0.01 0.0100781)
(9.55455 0.01 0.0102198)
(9.57273 0.01 0.0102888)
(9.59091 0.01 0.0104403)
(9.60909 0.01 0.0104726)
(9.62727 0.01 0.0105665)
(9.64545 0.01 0.0104884)
(9.66364 0.01 0.0103985)
(9.68182 0.01 0.0100891)
(9.7 0.01 0.00962254)
(9.71818 0.01 0.00890207)
(9.73636 0.01 0.00778454)
(9.75455 0.01 0.00610129)
(9.77273 0.01 0.00325751)
(9.79091 0.01 -0.00177208)
(9.80909 0.01 -0.0125113)
(9.82727 0.01 -0.0196545)
(9.84545 0.01 -0.0196909)
(9.86364 0.01 -0.0197273)
(9.88182 0.01 -0.0197636)
(9.9 0.01 -0.0198)
(9.91818 0.01 -0.0198363)
(9.93636 0.01 -0.0198727)
(9.95454 0.01 -0.0199091)
(9.97273 0.01 -0.0199454)
(9.99091 0.01 -0.0199818)
)
;

boundaryField
{
    inlet
    {
        type            calculated;
        value           uniform (0 0 0);
    }
    endWall
    {
        type            calculated;
        value           uniform (0 0 0);
    }
    sideWall
    {
        type            empty;
    }
}


// ************************************************************************* //
