/*--------------------------------*- C++ -*----------------------------------*\
| =========                 |                                                 |
| \\      /  F ield         | foam-extend: Open Source CFD                    |
|  \\    /   O peration     | Version:     3.2                                |
|   \\  /    A nd           | Web:         http://www.foam-extend.org         |
|    \\/     M anipulation  | For copyright notice see file Copyright         |
\*---------------------------------------------------------------------------*/
FoamFile
{
    version     2.0;
    format      ascii;
    class       areaScalarField;
    location    "840";
    object      angBeta;
}
// * * * * * * * * * * * * * * * * * * * * * * * * * * * * * * * * * * * * * //

dimensions      [0 0 0 0 0 0 0];

internalField   nonuniform List<scalar> 
550
(
0.002
0.002
0.00199999
0.00200002
0.00199996
0.00200001
0.00199994
0.002
0.00200011
0.00199994
0.00784398
0.00915252
0.0143055
0.01108
0.0141428
0.0105253
0.0114123
0.00886558
0.0159881
0.0253057
0.0083224
0.0146289
0.0129077
0.0128947
0.00681734
0.0281317
0.00296759
0.00955174
0.00892503
0.0129049
0.0270773
0.0257174
0.0316498
0.0281325
0.0257671
0.0211021
0.01931
0.0192258
0.0188883
0.0165966
0.0173307
0.0152817
0.0172356
0.0167378
0.0182021
0.0162619
0.0166513
0.0149308
0.0152859
0.0140022
0.0141961
0.0131479
0.0131918
0.0123816
0.0123749
0.011747
0.0116664
0.0112214
0.0110633
0.0106195
0.0103423
0.00993157
0.00956134
0.00908444
0.00862167
0.00810279
0.00761495
0.00710735
0.00664398
0.00617885
0.00579967
0.00536457
0.00507414
0.00466347
0.00448414
0.00402509
0.00398498
0.00347992
0.00359812
0.00301608
0.00330985
0.00260885
0.00311038
0.0022911
0.00295758
0.0019828
0.00286531
0.0016727
0.00280095
0.00142274
0.00281119
0.00117761
0.00284597
0.000942357
0.00293731
0.000686751
0.00313413
0.000418584
0.0034433
5.12457e-05
0.00395659
0.000395171
0.00451419
0.000893215
0.00505128
0.00141496
0.00548747
0.00190701
0.00575657
0.00233832
0.00589135
0.00266579
0.00593834
0.00295286
0.00587028
0.00315459
0.00570756
0.00326707
0.00548268
0.00332063
0.00513926
0.00328025
0.00474211
0.0031541
0.00431968
0.00293727
0.00388415
0.00270181
0.00348331
0.00245964
0.00305578
0.00217526
0.00267002
0.00186896
0.00235768
0.00159004
0.0020493
0.00128457
0.00177497
0.00101772
0.00155633
0.000740941
0.00142284
0.00049944
0.00130007
0.000225511
0.00126675
0.000129921
0.00112142
0.000623898
0.000762634
0.00144234
3.50825e-05
0.00267006
0.00101762
0.00377693
0.00216855
0.00449699
0.00324673
0.00492932
0.00418108
0.00484642
0.00488393
0.00437645
0.00513108
0.00353745
0.00500579
0.00246166
0.00447697
0.00117001
0.00350825
2.27253e-05
0.00229481
0.000846466
0.00161425
0.00150731
0.00111268
0.00195491
0.000689001
0.00221655
0.000443925
0.00241815
0.000264337
0.00249852
6.41647e-05
0.00256272
0.000159149
0.00261744
0.000448847
0.00274487
0.000760096
0.00289807
0.00113445
0.00312794
0.00148727
0.00343538
0.00192866
0.00386122
0.00229868
0.00422166
0.00257127
0.00463433
0.00275254
0.00491459
0.00274966
0.00510972
0.00266431
0.00518853
0.00241511
0.00512525
0.0020121
0.00489994
0.00147264
0.00449642
0.000914325
0.00390415
0.000298964
0.00320463
0.000160877
0.00269603
0.000466813
0.00225845
0.000694106
0.0020103
0.000814135
0.00180363
0.000973502
0.00162241
0.00106339
0.00157747
0.00109909
0.00151805
0.00118542
0.00149061
0.00126046
0.00145433
0.00136754
0.00146865
0.00136998
0.00152078
0.00140841
0.00148098
0.00146867
0.00154951
0.00150236
0.00151899
0.00154936
0.00156257
0.00159527
0.00160525
0.00164021
0.00164614
0.00167773
0.00167789
0.00167929
0.00173338
0.00178611
0.0017723
0.00181617
0.00177383
0.00186623
0.00188131
0.00187575
0.00194215
0.00198521
0.0019513
0.00203962
0.00203532
0.0020972
0.00211124
0.00212845
0.00223655
0.00220516
0.00225694
0.00230206
0.00238004
0.00236599
0.00238647
0.0024386
0.00245958
0.00250628
0.00254971
0.00253564
0.00252429
0.00257365
0.00258752
0.00257516
0.00254349
0.00261632
0.00254584
0.00258193
0.00253294
0.00255027
0.0025247
0.00252585
0.00254788
0.00247997
0.00247561
0.00246263
0.00249805
0.00242412
0.00244918
0.00237274
0.00236426
0.0023352
0.00236952
0.00227824
0.00230003
0.0022119
0.00222124
0.0021342
0.0021328
0.00204834
0.00206124
0.00192393
0.00188406
0.00180812
0.00176709
0.00169184
0.00166891
0.00154437
0.00147842
0.00144601
0.00133088
0.00124331
0.0012299
0.00109607
0.00103416
0.000999758
0.00089002
0.000810606
0.000804976
0.000688547
0.000666652
0.000577726
0.000535049
0.000469067
0.00042298
0.000375142
0.000322989
0.000322719
0.000194102
0.000229004
0.000141922
0.000155709
0.000122656
4.03108e-05
6.32251e-05
1.98956e-05
5.61071e-05
1.7432e-05
8.92573e-05
0.000116473
0.000107643
0.00012811
0.000115324
0.000135578
0.00011959
0.000136423
0.000115825
0.000133645
0.000109913
0.000139031
0.000106553
0.000157949
0.000114925
9.84179e-05
0.000130908
0.000106854
0.000138509
0.000111422
0.000144267
0.000114399
0.000144508
0.00011203
0.000141032
0.000105759
0.0001311
9.22426e-05
0.0001159
7.3835e-05
9.62956e-05
5.13154e-05
7.91214e-05
4.73636e-05
2.76822e-05
3.33325e-05
4.81181e-05
1.54151e-05
2.74117e-05
3.6647e-05
9.52107e-05
0.000134222
0.000149457
0.000124957
0.000208259
0.000193567
0.000270005
0.00025603
0.000326798
0.000314445
0.000378975
0.000359049
0.000408846
0.000380321
0.000397542
0.000426583
0.000497623
0.000445313
0.000510379
0.000463852
0.000548502
0.000435768
0.000456418
0.000422051
0.00044146
0.00040284
0.000425749
0.000390771
0.000438979
0.000347116
0.000338893
0.000322163
0.000320303
0.000303246
0.000329597
0.000249946
0.000223165
0.000208209
0.000188565
0.000159861
0.000147346
0.000113129
0.000119976
2.406e-05
3.31948e-05
8.12137e-05
0.000115732
0.000132566
0.000254126
0.00025345
0.000276965
0.000367508
0.000374751
0.000373333
0.000469868
0.000451334
0.00046146
0.000521534
0.00051125
0.000587035
0.000554573
0.00055438
0.000586021
0.000575818
0.000599473
0.000583053
0.000600673
0.000580617
0.00059816
0.000575003
0.000591212
0.000564538
0.000586477
0.000554561
0.000585372
0.000531204
0.000578853
0.000600472
0.000563605
0.000598337
0.000536026
0.000582287
0.000598463
0.000552499
0.000580639
0.000506146
0.000546691
0.000553027
0.000499231
0.000511958
0.000439277
0.00045294
0.000489784
0.000403853
0.000354248
0.00036333
0.000301573
0.000329338
0.000260327
0.000194005
0.000240482
0.000169971
0.000122724
0.000168396
0.000119959
7.25534e-05
0.000142353
9.23165e-05
6.78514e-05
0.000136056
0.000114956
8.76178e-05
0.000186885
0.00016447
0.000173326
0.000284508
0.00031094
0.000337953
0.000496501
0.000563971
0.000625447
0.000881182
0.000955468
0.00118385
0.0014143
0.00162281
0.00206553
0.00204004
0.00309635
0.00213307
0.00534671
0.000980406
0.0101226
0.00276257
0.0183391
0.0107634
0.0274276
0.0238717
0.0341926
0.0427541
0.0329036
0.0668551
0.0156293
0.0946064
0.0280433
0.155767
0.154481
0.378426
0.66481
0.0019967
0.0020011
0.0020022
0.0019967
0.0020022
0.0019967
0.0020022
0.0020011
0.0019967
0.0020022
)
;

boundaryField
{
    inlet
    {
        type            calculated;
        value           uniform 0;
    }
    endWall
    {
        type            calculated;
        value           uniform 0;
    }
    sideWall
    {
        type            empty;
    }
}


// ************************************************************************* //
