/*--------------------------------*- C++ -*----------------------------------*\
| =========                 |                                                 |
| \\      /  F ield         | foam-extend: Open Source CFD                    |
|  \\    /   O peration     | Version:     3.2                                |
|   \\  /    A nd           | Web:         http://www.foam-extend.org         |
|    \\/     M anipulation  | For copyright notice see file Copyright         |
\*---------------------------------------------------------------------------*/
FoamFile
{
    version     2.0;
    format      ascii;
    class       areaVectorField;
    location    "840";
    object      aUf;
}
// * * * * * * * * * * * * * * * * * * * * * * * * * * * * * * * * * * * * * //

dimensions      [0 1 -1 0 0 0 0];

internalField   nonuniform List<vector> 
550
(
(0.0695301 0 7.49575e-05)
(0.0809961 0 8.29274e-05)
(0.092776 1.337e-34 0.000143466)
(0.10461 -2.14846e-29 0.000165349)
(0.116192 -4.01697e-31 0.000212204)
(0.127212 4.89174e-29 0.000216477)
(0.137443 4.56863e-29 0.000224153)
(0.146668 4.39182e-29 0.000256118)
(0.154739 6.44596e-29 0.000236912)
(0.161836 -5.64496e-29 0.000296412)
(0.167354 0 -0.000533401)
(0.172156 7.31884e-27 0.00170227)
(0.175593 -3.31166e-26 -0.00125353)
(0.178188 -1.24567e-26 0.00191037)
(0.17952 1.88876e-26 -0.00150335)
(0.180265 -1.19357e-26 0.0018912)
(0.180094 8.36249e-27 -0.00122491)
(0.179742 -1.21333e-26 0.00173649)
(0.178167 0 -0.00167707)
(0.176894 -8.82942e-26 0.00380066)
(0.175971 7.63751e-27 -0.000669245)
(0.174987 1.51979e-26 0.00264692)
(0.173729 -8.97917e-27 -0.00134217)
(0.172294 1.18957e-26 0.00229806)
(0.170577 0 -0.000484011)
(0.168907 1.69396e-25 0.0039252)
(0.168255 0 0.000984623)
(0.167077 -1.2461e-27 0.00194743)
(0.166102 4.32684e-28 0.00185926)
(0.164695 0 0.00211489)
(0.163645 1.33108e-26 0.00411332)
(0.162789 2.12285e-27 0.00393449)
(0.162298 -5.56673e-27 0.00473768)
(0.162273 -4.56412e-27 0.00440779)
(0.162441 1.21988e-30 0.00422489)
(0.162585 2.86868e-27 0.00360676)
(0.162615 0 0.00331336)
(0.162604 0 0.00320977)
(0.162636 8.23074e-28 0.00314683)
(0.162601 0 0.00281789)
(0.162568 -1.38557e-28 0.00287506)
(0.162469 -1.19918e-27 0.00260368)
(0.16236 0 0.00281896)
(0.162272 8.48848e-29 0.00273291)
(0.162247 8.6192e-28 0.00290956)
(0.16228 1.40729e-27 0.0026671)
(0.162323 0 0.00270182)
(0.162381 0 0.00246884)
(0.162419 1.82807e-28 0.0024964)
(0.162469 -1.10412e-27 0.00231035)
(0.162512 0 0.00231727)
(0.162573 0 0.0021648)
(0.16263 0 0.00215365)
(0.1627 -7.24041e-28 0.0020331)
(0.162768 7.40948e-29 0.00201734)
(0.162844 6.34009e-28 0.00192633)
(0.162919 9.94399e-29 0.00189434)
(0.162999 -2.01694e-28 0.00182748)
(0.163079 0 0.00179269)
(0.163163 1.91048e-28 0.00173331)
(0.163243 -3.4092e-28 0.00168163)
(0.163324 0 0.00163066)
(0.163399 2.21219e-28 0.00157052)
(0.16347 -4.94838e-28 0.00149829)
(0.163535 -2.48773e-28 0.00142629)
(0.163591 2.57232e-28 0.00134742)
(0.163641 -2.55916e-28 0.00126943)
(0.163682 -2.87259e-33 0.00118994)
(0.163715 0 0.00111521)
(0.163735 2.23889e-28 0.001042)
(0.163746 0 0.000975772)
(0.163742 0 0.000908149)
(0.163727 -9.55321e-29 0.000852789)
(0.163694 0 0.000791654)
(0.163655 -8.57781e-29 0.000751122)
(0.163598 0 0.000688058)
(0.163542 0 0.00066552)
(0.163469 0 0.000600721)
(0.163404 0 0.000596702)
(0.163324 -1.63215e-28 0.000527942)
(0.163256 3.30251e-29 0.000544267)
(0.163173 -8.98106e-29 0.000462466)
(0.163106 0 0.000507597)
(0.163023 -5.95219e-29 0.000401677)
(0.162956 0 0.000485478)
(0.162872 8.78326e-29 0.000342073)
(0.162807 6.22412e-29 0.000473722)
(0.162725 0 0.000299969)
(0.162665 0 0.000462005)
(0.162588 1.85258e-28 0.000266977)
(0.162534 0 0.000452877)
(0.162465 6.97333e-29 0.000229292)
(0.162417 -1.25712e-28 0.000446277)
(0.162354 0 0.000190915)
(0.162313 0 0.00045135)
(0.162253 5.18205e-29 0.000154452)
(0.162217 -6.70319e-28 0.000471484)
(0.162158 -6.44728e-29 0.000121757)
(0.162128 5.47603e-28 0.000508974)
(0.162065 8.98335e-29 7.28597e-05)
(0.162041 0 0.00057271)
(0.161981 -5.04525e-29 1.66249e-05)
(0.161965 0 0.000642845)
(0.161912 -2.49326e-28 -4.5048e-05)
(0.161903 0 0.000709378)
(0.16186 -2.96688e-28 -0.000110997)
(0.161854 -2.49568e-27 0.00076144)
(0.16182 0 -0.000174834)
(0.161812 -1.38306e-27 0.00079155)
(0.161783 -7.38654e-28 -0.000231782)
(0.16177 2.96641e-27 0.000804377)
(0.161742 0 -0.000276749)
(0.161722 -3.09737e-27 0.0008058)
(0.161695 0 -0.000316147)
(0.161669 1.58642e-27 0.000792024)
(0.161642 -1.64072e-27 -0.000345918)
(0.161608 1.59086e-27 0.000765804)
(0.161581 1.62996e-27 -0.000365156)
(0.161542 1.56739e-27 0.000731235)
(0.161516 7.98228e-28 -0.000376662)
(0.16147 0 0.000681788)
(0.161443 0 -0.000376959)
(0.161391 0 0.000626058)
(0.161362 0 -0.000365924)
(0.161304 0 0.00056791)
(0.161274 6.56397e-28 -0.000342879)
(0.161214 0 0.000509551)
(0.161182 0 -0.000316625)
(0.161121 -5.4874e-28 0.000455609)
(0.161089 0 -0.000288645)
(0.161028 -9.75901e-28 0.000399486)
(0.160996 0 -0.000255174)
(0.160935 0 0.000349369)
(0.160902 0 -0.00021859)
(0.160845 0 0.000308764)
(0.160815 -1.78164e-28 -0.000184168)
(0.16076 0 0.00026943)
(0.160731 0 -0.000146753)
(0.16068 2.68241e-28 0.000235102)
(0.160653 1.26211e-28 -0.000113144)
(0.160606 0 0.000208307)
(0.160579 0 -7.79711e-05)
(0.160537 -9.43066e-29 0.000192485)
(0.160514 0 -4.56577e-05)
(0.160475 0 0.000179226)
(0.160456 -1.59956e-29 -8.91469e-06)
(0.16042 6.40038e-29 0.000175885)
(0.160412 6.26953e-30 4.07873e-05)
(0.160377 8.17192e-29 0.000159395)
(0.160386 1.01913e-29 0.000109618)
(0.160346 -6.01829e-34 0.000117524)
(0.160374 3.39056e-29 0.000218157)
(0.160328 0 2.89602e-05)
(0.160373 2.39907e-28 0.000372599)
(0.160337 1.67422e-28 -9.7293e-05)
(0.160388 0 0.00050944)
(0.160365 0 -0.000239483)
(0.160408 0 0.000595467)
(0.160393 0 -0.000377094)
(0.160422 0 0.000640144)
(0.160416 -1.62355e-27 -0.000499894)
(0.160421 -1.5873e-27 0.000618149)
(0.160417 1.72982e-27 -0.000597214)
(0.160392 -1.62023e-27 0.00054424)
(0.160388 0 -0.000640336)
(0.160334 0 0.000425162)
(0.160328 0 -0.000636435)
(0.160248 -6.45888e-28 0.000277605)
(0.160238 -1.22407e-27 -0.000580438)
(0.160137 1.2105e-28 0.00010822)
(0.16012 0 -0.000468473)
(0.160014 0 -3.97717e-05)
(0.15999 0 -0.000325832)
(0.159903 6.39983e-29 -0.000148748)
(0.159872 0 -0.00024077)
(0.159796 0 -0.000232538)
(0.159763 -9.99573e-33 -0.000182477)
(0.159699 0 -0.000291032)
(0.15967 0 -0.000127464)
(0.159617 1.293e-28 -0.000319923)
(0.159586 7.73579e-29 -0.000101066)
(0.159541 0 -0.000344737)
(0.159511 0 -7.73071e-05)
(0.159472 0 -0.00035461)
(0.159448 4.65118e-29 -5.07863e-05)
(0.159414 -2.23163e-28 -0.000361285)
(0.159397 0 -2.07172e-05)
(0.159369 0 -0.000366885)
(0.159362 0 1.7814e-05)
(0.15934 0 -0.000380616)
(0.159341 -1.52364e-28 5.90532e-05)
(0.159325 0 -0.000398184)
(0.159335 -1.75579e-28 0.000107224)
(0.159324 0 -0.000425265)
(0.159342 0 0.000153168)
(0.159333 0 -0.000462963)
(0.159357 -2.3372e-28 0.000207967)
(0.159353 0 -0.000514247)
(0.159376 2.67845e-28 0.000253257)
(0.159377 1.14452e-27 -0.000559668)
(0.159398 5.90518e-28 0.000286147)
(0.159401 0 -0.000610835)
(0.159414 0 0.000305632)
(0.159419 0 -0.000647562)
(0.159422 0 0.000302932)
(0.159425 0 -0.000674024)
(0.159418 6.7256e-28 0.000288346)
(0.15942 0 -0.000686196)
(0.159401 0 0.000252989)
(0.159403 0 -0.00068127)
(0.159372 3.07326e-28 0.000198596)
(0.159374 -1.20084e-27 -0.000656351)
(0.159333 -6.84241e-28 0.000128128)
(0.159333 2.072e-27 -0.000608702)
(0.159285 0 5.61932e-05)
(0.159285 0 -0.000536684)
(0.159236 0 -2.0305e-05)
(0.159235 0 -0.000451908)
(0.159195 0 -7.60745e-05)
(0.159193 2.20428e-28 -0.000387421)
(0.159162 -4.89241e-29 -0.000112672)
(0.159161 -1.55848e-28 -0.000332205)
(0.159141 7.00654e-29 -0.000138392)
(0.15914 -2.44663e-32 -0.000299292)
(0.159126 0 -0.000152412)
(0.159128 0 -0.000272197)
(0.159117 0 -0.000170447)
(0.159119 -9.59079e-33 -0.000249942)
(0.159114 -2.63742e-29 -0.000179343)
(0.159114 -4.65075e-29 -0.000243324)
(0.15911 2.1973e-29 -0.000183418)
(0.159112 -4.50367e-33 -0.000235599)
(0.159108 0 -0.000193107)
(0.159108 5.71695e-29 -0.000232058)
(0.159105 -9.62576e-30 -0.000202363)
(0.159105 2.86614e-29 -0.000228065)
(0.159101 0 -0.000215679)
(0.159098 0 -0.000230532)
(0.159094 1.50218e-30 -0.00021862)
(0.159089 0 -0.000237052)
(0.159082 0 -0.000224341)
(0.159074 5.2917e-30 -0.000233044)
(0.159065 2.30276e-30 -0.000231987)
(0.159054 0 -0.000241771)
(0.159041 5.27074e-31 -0.000237915)
(0.159027 -7.75526e-35 -0.000239676)
(0.159012 -4.72382e-30 -0.000243755)
(0.158996 0 -0.0002459)
(0.158979 -4.95256e-30 -0.000250221)
(0.15896 0 -0.000252183)
(0.15894 0 -0.000256693)
(0.158919 0 -0.000258187)
(0.158897 0 -0.000262413)
(0.158874 0 -0.000263369)
(0.158851 0 -0.000263842)
(0.158828 0 -0.000270627)
(0.158802 6.51697e-30 -0.000277489)
(0.158776 0 -0.000277714)
(0.158748 0 -0.000283461)
(0.158721 4.42967e-34 -0.00027913)
(0.158692 -8.79312e-30 -0.000289898)
(0.158661 0 -0.000293574)
(0.15863 0 -0.000293769)
(0.158597 -8.3312e-30 -0.000302326)
(0.158561 -6.31588e-30 -0.000308563)
(0.158525 0 -0.00030598)
(0.158486 0 -0.00031631)
(0.158447 3.83769e-30 -0.000317676)
(0.158405 0 -0.000325723)
(0.158362 0 -0.000328633)
(0.158319 5.39048e-30 -0.00033157)
(0.158273 -2.37076e-29 -0.000344815)
(0.158225 5.28078e-30 -0.000343506)
(0.158178 0 -0.000349928)
(0.15813 8.19269e-30 -0.000356175)
(0.158081 1.0627e-29 -0.000366337)
(0.158032 -4.10921e-30 -0.000366569)
(0.157984 6.45041e-35 -0.000369622)
(0.157937 8.44523e-30 -0.00037643)
(0.157892 6.20896e-30 -0.000379973)
(0.157847 0 -0.000386261)
(0.157803 0 -0.000392473)
(0.15776 -3.3576e-30 -0.000392003)
(0.15772 3.2574e-30 -0.000391226)
(0.157683 -7.43413e-30 -0.000396896)
(0.157646 -5.4564e-30 -0.000399631)
(0.157612 2.27554e-30 -0.000398595)
(0.157581 0 -0.00039556)
(0.157551 -7.84124e-30 -0.000403401)
(0.157523 2.71444e-30 -0.000396726)
(0.157497 -4.66005e-30 -0.000400155)
(0.157473 -6.36954e-31 -0.000395217)
(0.15745 2.99242e-30 -0.000396666)
(0.157429 1.07097e-35 -0.000393763)
(0.15741 0 -0.000393581)
(0.15739 -3.1733e-30 -0.000395964)
(0.157372 -6.16536e-30 -0.000388671)
(0.157356 -3.09949e-31 -0.000386978)
(0.157341 0 -0.000385176)
(0.157325 0 -0.000388425)
(0.157311 0 -0.000380444)
(0.157298 8.24772e-35 -0.000381887)
(0.157285 3.99421e-30 -0.000373281)
(0.157276 -6.18437e-31 -0.000370537)
(0.157267 0 -0.000366847)
(0.157258 0 -0.00036954)
(0.157251 4.94026e-30 -0.00035945)
(0.157245 0 -0.000359969)
(0.15724 -5.17196e-30 -0.000349844)
(0.157237 -1.09688e-33 -0.000348533)
(0.157235 0 -0.000338393)
(0.157234 1.11571e-30 -0.000335497)
(0.157235 -1.16463e-29 -0.000324971)
(0.157236 -8.10887e-31 -0.00032469)
(0.157239 -1.2365e-29 -0.00030636)
(0.157244 5.51506e-30 -0.000300127)
(0.157251 -1.31988e-34 -0.000288063)
(0.15726 5.51182e-30 -0.000281478)
(0.15727 5.97132e-30 -0.000269837)
(0.157281 3.02411e-30 -0.000266414)
(0.157294 2.33749e-29 -0.000247579)
(0.157309 9.90686e-36 -0.000237465)
(0.157324 5.17086e-30 -0.000232304)
(0.157341 0 -0.000216203)
(0.15736 0 -0.000202651)
(0.157378 -2.74489e-30 -0.000198832)
(0.157397 0 -0.000181136)
(0.157416 9.73197e-35 -0.000170232)
(0.157435 0 -0.000164346)
(0.157454 0 -0.000149012)
(0.157473 4.79563e-30 -0.000136358)
(0.15749 3.29345e-34 -0.000133606)
(0.157508 -2.81259e-30 -0.000117655)
(0.157524 1.45291e-30 -0.000112533)
(0.15754 0 -0.000100024)
(0.157555 -1.83267e-30 -9.22379e-05)
(0.15757 0 -8.25661e-05)
(0.157584 0 -7.48197e-05)
(0.157597 0 -6.68976e-05)
(0.157609 8.86979e-31 -5.85136e-05)
(0.157619 4.8388e-31 -5.69936e-05)
(0.15763 -3.03419e-30 -4.06892e-05)
(0.15764 -1.28101e-34 -4.16716e-05)
(0.157649 5.19838e-31 -3.083e-05)
(0.157658 0 -3.01253e-05)
(0.157664 3.28085e-31 -2.52545e-05)
(0.157671 1.41118e-31 -1.4331e-05)
(0.157677 -3.93512e-32 -1.51107e-05)
(0.157681 0 -8.94648e-06)
(0.157685 0 1.14588e-06)
(0.157688 -1.2893e-33 -1.56958e-06)
(0.15769 -4.17868e-31 7.26075e-06)
(0.157693 0 1.18649e-05)
(0.157694 0 1.23319e-05)
(0.157694 -1.95747e-31 1.49668e-05)
(0.157693 -4.6849e-32 1.43931e-05)
(0.15769 1.79358e-31 1.65973e-05)
(0.157687 -4.41708e-35 1.55597e-05)
(0.157681 0 1.72429e-05)
(0.157674 0 1.57109e-05)
(0.157666 1.36825e-31 1.73224e-05)
(0.157656 0 1.56108e-05)
(0.157645 -1.71518e-31 1.85238e-05)
(0.157633 -8.50332e-32 1.57143e-05)
(0.157621 2.61778e-31 2.12241e-05)
(0.157609 -1.50626e-31 1.74622e-05)
(0.157595 0 1.56453e-05)
(0.157582 1.59253e-31 1.88736e-05)
(0.157569 -5.2513e-32 1.67896e-05)
(0.157556 0 2.01982e-05)
(0.157544 6.58546e-32 1.77666e-05)
(0.157532 -1.36165e-31 2.13913e-05)
(0.157521 7.13771e-32 1.862e-05)
(0.15751 0 2.18773e-05)
(0.1575 -5.20491e-35 1.87289e-05)
(0.15749 0 2.17689e-05)
(0.157481 -1.31766e-31 1.83091e-05)
(0.157473 -1.201e-31 2.08412e-05)
(0.157465 -2.05235e-31 1.63463e-05)
(0.157457 0 1.9116e-05)
(0.157449 1.39381e-31 1.3404e-05)
(0.157442 1.36572e-31 1.64705e-05)
(0.157434 -1.43956e-31 1.02501e-05)
(0.157426 0 1.28985e-05)
(0.157419 -8.06699e-32 9.62835e-06)
(0.15741 -1.07608e-31 -1.884e-07)
(0.1574 6.45196e-32 6.95704e-06)
(0.15739 0 -3.98147e-06)
(0.157379 0 2.85324e-06)
(0.15737 -3.58931e-36 -3.12861e-06)
(0.157359 -4.22202e-32 -3.40078e-06)
(0.157348 -1.8977e-31 -1.17667e-05)
(0.157334 4.71789e-31 -1.8014e-05)
(0.157318 6.03721e-36 -2.19513e-05)
(0.157303 0 -1.83092e-05)
(0.157286 -7.84009e-35 -2.99386e-05)
(0.157268 0 -2.88242e-05)
(0.157248 -6.71742e-31 -3.87354e-05)
(0.157227 -1.1782e-31 -3.83549e-05)
(0.157205 6.57351e-31 -4.68739e-05)
(0.157181 0 -4.66943e-05)
(0.157157 1.33182e-30 -5.42551e-05)
(0.157132 0 -5.32733e-05)
(0.157107 0 -5.88176e-05)
(0.157082 0 -5.68545e-05)
(0.157058 5.0727e-31 -5.85699e-05)
(0.157035 0 -6.24743e-05)
(0.157011 0 -7.08061e-05)
(0.156987 2.86086e-31 -6.6506e-05)
(0.156963 1.32193e-30 -7.31271e-05)
(0.156939 -2.32795e-31 -6.93538e-05)
(0.156914 1.81664e-30 -7.8461e-05)
(0.156889 1.87359e-30 -6.63096e-05)
(0.156866 0 -6.73294e-05)
(0.156843 2.58421e-31 -6.36317e-05)
(0.156822 0 -6.51812e-05)
(0.156801 2.93546e-31 -6.13775e-05)
(0.156781 -5.17604e-31 -6.32049e-05)
(0.156762 -5.07031e-31 -5.97105e-05)
(0.156743 -1.16567e-30 -6.50067e-05)
(0.156724 -9.42625e-31 -5.45509e-05)
(0.156708 3.49506e-32 -5.23113e-05)
(0.156692 0 -5.03168e-05)
(0.156677 2.46601e-32 -4.9739e-05)
(0.156663 0 -4.74204e-05)
(0.156648 0 -5.02594e-05)
(0.156634 0 -4.06026e-05)
(0.156622 -3.5134e-31 -3.70858e-05)
(0.156611 -1.95203e-31 -3.44119e-05)
(0.156601 2.45327e-31 -3.14027e-05)
(0.156592 0 -2.73461e-05)
(0.156584 0 -2.51349e-05)
(0.156577 2.14933e-31 -2.01474e-05)
(0.156569 -1.20305e-31 -2.13187e-05)
(0.156561 0 -9.24438e-06)
(0.156556 0 -8.49463e-07)
(0.156553 -1.73669e-31 6.97061e-06)
(0.156552 -5.3569e-31 1.26309e-05)
(0.15655 -2.04348e-31 1.55457e-05)
(0.156552 0 3.05366e-05)
(0.156557 -4.18892e-35 3.31935e-05)
(0.156562 -4.36015e-31 3.75962e-05)
(0.15657 0 4.8842e-05)
(0.15658 8.04607e-31 5.13028e-05)
(0.15659 -3.73818e-34 5.3204e-05)
(0.156603 0 6.4599e-05)
(0.156618 0 6.44065e-05)
(0.156633 -8.69189e-31 6.70234e-05)
(0.156651 -1.65468e-30 7.42754e-05)
(0.156669 -5.54552e-31 7.50878e-05)
(0.15669 0 8.42347e-05)
(0.156712 -1.37472e-31 8.21614e-05)
(0.156736 0 8.26975e-05)
(0.15676 0 8.66336e-05)
(0.156787 -4.49922e-31 8.63901e-05)
(0.156814 -9.30401e-31 8.93773e-05)
(0.156844 -2.98671e-31 8.82997e-05)
(0.156874 0 9.0365e-05)
(0.156906 0 8.86608e-05)
(0.156939 0 9.05939e-05)
(0.156973 8.89038e-32 8.8511e-05)
(0.157009 1.25352e-30 9.00528e-05)
(0.157045 0 8.75056e-05)
(0.157082 6.79628e-31 8.949e-05)
(0.157119 2.83707e-32 8.64621e-05)
(0.157157 8.90264e-31 8.9682e-05)
(0.157195 -5.03342e-31 8.36608e-05)
(0.157233 1.21523e-30 8.87518e-05)
(0.157271 -8.7697e-31 9.16416e-05)
(0.15731 -6.06157e-32 8.8224e-05)
(0.157348 2.00869e-30 9.21187e-05)
(0.157384 1.31683e-30 8.50683e-05)
(0.15742 2.23346e-30 9.00463e-05)
(0.157457 6.91044e-31 9.2352e-05)
(0.157492 3.10391e-31 8.7893e-05)
(0.157526 0 9.10173e-05)
(0.157559 1.24442e-30 8.2399e-05)
(0.15759 -9.12728e-31 8.62286e-05)
(0.157622 6.87491e-31 8.70573e-05)
(0.157652 9.53282e-31 8.10099e-05)
(0.157681 -3.43303e-31 8.27352e-05)
(0.157708 1.48319e-30 7.28658e-05)
(0.157732 -1.40101e-32 7.30192e-05)
(0.157757 -1.61987e-30 7.7548e-05)
(0.157781 0 6.68448e-05)
(0.157801 6.52594e-31 5.96903e-05)
(0.15782 0 6.01628e-05)
(0.157837 0 5.1221e-05)
(0.157851 -8.97049e-33 5.43447e-05)
(0.157864 0 4.4716e-05)
(0.157873 9.31252e-31 3.51788e-05)
(0.157882 0 3.96603e-05)
(0.157889 -3.64858e-31 3.08338e-05)
(0.157892 7.50367e-31 2.38633e-05)
(0.157896 4.4827e-32 2.80759e-05)
(0.157898 4.90723e-31 2.26112e-05)
(0.157898 0 1.57096e-05)
(0.157899 1.88056e-31 2.30392e-05)
(0.157899 2.23362e-31 1.72941e-05)
(0.157897 -1.136e-31 1.3562e-05)
(0.157895 -2.43408e-31 2.045e-05)
(0.157895 9.95747e-32 1.94125e-05)
(0.157892 0 1.59847e-05)
(0.15789 0 2.73397e-05)
(0.157889 0 2.609e-05)
(0.157887 0 2.61066e-05)
(0.157886 0 4.19503e-05)
(0.157887 5.20243e-31 4.75067e-05)
(0.157887 0 5.01383e-05)
(0.15789 -3.13059e-30 7.14401e-05)
(0.157896 2.60884e-30 8.34086e-05)
(0.157901 -2.49177e-30 9.19109e-05)
(0.157912 0 0.000128758)
(0.157927 0 0.000139732)
(0.157943 0 0.000173896)
(0.157972 0 0.000212423)
(0.157989 -3.431e-29 0.000239306)
(0.15804 0 0.000310069)
(0.158051 -2.0401e-33 0.000304377)
(0.158144 1.4798e-31 0.000465703)
(0.158128 0 0.000325763)
(0.158301 0 0.00078627)
(0.158225 0 0.000192138)
(0.158521 1.12771e-29 0.00143072)
(0.158371 -1.19351e-27 -0.000253304)
(0.158808 0 0.00249429)
(0.158621 -1.0583e-26 -0.00120779)
(0.159121 2.65677e-26 0.0036456)
(0.158887 0 -0.00281225)
(0.159283 0 0.00441414)
(0.158956 0 -0.00521564)
(0.159006 -1.02388e-25 0.00398155)
(0.158468 -2.7866e-25 -0.00844407)
(0.157881 6.80815e-27 0.00129643)
(0.156843 0 -0.0124274)
(0.155248 0 -0.00492966)
(0.152687 6.16174e-25 -0.0198881)
(0.146336 3.34922e-25 -0.0181304)
(0.132781 -1.64854e-24 -0.0405674)
(0.0748603 -1.28268e-23 0.0684158)
(-0.0741997 0 0.00267509)
(0.0129474 -4.14071e-26 -0.0770439)
(-0.0791836 0 -0.00193526)
(0.0723907 8.00687e-31 -0.0153433)
(-0.0681981 0 0.00413911)
(-0.0633576 -8.50253e-28 -0.000158145)
(-0.0563292 -1.20235e-27 0.00303791)
(-0.0587585 0 0.00236331)
(-0.0679392 0 0.000721292)
(-0.085822 3.7018e-27 -0.0152312)
)
;

boundaryField
{
    inlet
    {
        type            calculated;
        value           uniform (0 0 0);
    }
    endWall
    {
        type            calculated;
        value           uniform (0 0 0);
    }
    sideWall
    {
        type            empty;
    }
}


// ************************************************************************* //
