/*--------------------------------*- C++ -*----------------------------------*\
| =========                 |                                                 |
| \\      /  F ield         | foam-extend: Open Source CFD                    |
|  \\    /   O peration     | Version:     3.2                                |
|   \\  /    A nd           | Web:         http://www.foam-extend.org         |
|    \\/     M anipulation  | For copyright notice see file Copyright         |
\*---------------------------------------------------------------------------*/
FoamFile
{
    version     2.0;
    format      ascii;
    class       volScalarField;
    location    "840";
    object      C;
}
// * * * * * * * * * * * * * * * * * * * * * * * * * * * * * * * * * * * * * //

dimensions      [1 -3 0 0 0 0 0];

internalField   nonuniform List<scalar> 
33000
(
0.0261
0.0261
0.0261
0.0261
0.0261
0.0261
0.0261
0.0261
0.0261
0.0260986
0.0261025
0.0261151
0.0261365
0.0261774
0.026215
0.0262653
0.0262803
0.0263065
0.026309
0.0263086
0.0263207
0.026326
0.0263363
0.0263408
0.026339
0.02633
0.0263375
0.0263383
0.0263426
0.0263468
0.026341
0.02634
0.0263352
0.0263297
0.0263222
0.0263168
0.0263114
0.026307
0.0263028
0.0263006
0.0262974
0.0262955
0.0262916
0.0262882
0.0262831
0.0262793
0.0262747
0.0262713
0.0262672
0.026264
0.0262603
0.0262573
0.0262539
0.026251
0.0262478
0.026245
0.0262419
0.026239
0.0262359
0.026233
0.0262299
0.0262269
0.0262239
0.026221
0.0262183
0.0262156
0.0262132
0.0262109
0.0262088
0.026207
0.0262054
0.0262041
0.0262029
0.026202
0.0262011
0.0262005
0.0261997
0.0261992
0.0261984
0.0261979
0.0261969
0.0261964
0.0261952
0.0261946
0.0261932
0.0261924
0.0261905
0.0261896
0.0261873
0.0261861
0.0261834
0.0261821
0.0261789
0.0261774
0.0261738
0.0261722
0.026168
0.0261663
0.0261616
0.0261598
0.0261543
0.0261524
0.026146
0.0261439
0.0261369
0.0261345
0.0261269
0.0261243
0.0261163
0.0261135
0.0261052
0.0261021
0.0260935
0.0260902
0.0260814
0.0260777
0.0260688
0.0260647
0.0260556
0.0260512
0.0260421
0.0260373
0.0260282
0.026023
0.0260139
0.0260083
0.0259991
0.0259931
0.0259839
0.0259776
0.0259684
0.0259616
0.0259524
0.0259453
0.025936
0.0259286
0.0259193
0.0259116
0.0259023
0.0258944
0.025885
0.0258769
0.0258675
0.0258592
0.0258497
0.0258413
0.0258316
0.025823
0.0258134
0.0258043
0.025795
0.0257852
0.0257766
0.0257658
0.0257574
0.0257458
0.0257376
0.0257258
0.0257177
0.0257058
0.0256979
0.0256863
0.0256785
0.0256674
0.0256596
0.0256493
0.0256414
0.0256319
0.0256237
0.0256151
0.0256067
0.0255985
0.0255898
0.0255812
0.0255724
0.0255634
0.0255546
0.0255454
0.0255365
0.0255273
0.0255183
0.025509
0.0255001
0.0254909
0.025482
0.0254727
0.0254638
0.0254547
0.0254457
0.0254366
0.0254275
0.0254186
0.0254093
0.0254005
0.0253912
0.0253826
0.0253731
0.0253647
0.0253552
0.025347
0.0253375
0.0253296
0.0253201
0.0253124
0.0253032
0.0252956
0.0252866
0.0252792
0.0252705
0.0252632
0.0252549
0.0252476
0.0252398
0.0252325
0.0252251
0.0252177
0.0252106
0.0252032
0.0251962
0.0251888
0.0251816
0.0251743
0.0251671
0.0251599
0.0251528
0.0251456
0.0251386
0.0251316
0.0251247
0.0251177
0.025111
0.0251042
0.0250976
0.0250909
0.0250844
0.0250779
0.0250715
0.0250652
0.025059
0.0250528
0.0250467
0.0250406
0.0250346
0.0250287
0.0250228
0.0250169
0.0250111
0.0250053
0.0249995
0.0249938
0.024988
0.0249822
0.0249765
0.0249707
0.024965
0.0249592
0.0249533
0.0249475
0.0249416
0.0249358
0.0249298
0.0249238
0.0249177
0.0249116
0.0249054
0.0248992
0.0248928
0.0248864
0.0248799
0.0248734
0.0248668
0.0248601
0.0248533
0.0248465
0.0248397
0.0248328
0.024826
0.0248191
0.0248122
0.0248053
0.0247984
0.0247915
0.0247846
0.0247778
0.0247709
0.0247641
0.0247574
0.0247506
0.0247438
0.0247371
0.0247304
0.0247237
0.024717
0.0247103
0.0247036
0.0246969
0.0246902
0.0246835
0.0246768
0.0246701
0.0246634
0.0246567
0.02465
0.0246433
0.0246366
0.0246299
0.0246232
0.0246166
0.0246099
0.0246033
0.0245967
0.0245902
0.0245836
0.0245771
0.0245707
0.0245643
0.0245579
0.0245516
0.0245453
0.024539
0.0245329
0.0245267
0.0245206
0.0245146
0.0245087
0.0245028
0.0244969
0.0244912
0.0244854
0.0244798
0.0244742
0.0244686
0.0244631
0.0244576
0.0244522
0.0244469
0.0244416
0.0244364
0.0244312
0.0244261
0.024421
0.024416
0.024411
0.0244062
0.0244013
0.0243965
0.0243918
0.0243872
0.0243826
0.024378
0.0243735
0.024369
0.0243646
0.0243602
0.0243558
0.0243515
0.0243473
0.0243431
0.0243389
0.0243348
0.0243307
0.0243267
0.0243227
0.0243187
0.0243148
0.0243109
0.024307
0.0243032
0.0242994
0.0242956
0.0242919
0.0242882
0.0242845
0.0242809
0.0242773
0.0242737
0.0242702
0.0242667
0.0242633
0.0242599
0.0242565
0.0242532
0.0242499
0.0242467
0.0242435
0.0242404
0.0242372
0.0242341
0.0242311
0.024228
0.024225
0.0242219
0.0242189
0.0242159
0.0242129
0.0242099
0.0242069
0.0242038
0.0242008
0.0241978
0.0241948
0.0241917
0.0241887
0.0241856
0.0241826
0.0241796
0.0241765
0.0241734
0.0241704
0.0241674
0.0241643
0.0241613
0.0241583
0.0241553
0.0241523
0.0241493
0.0241462
0.0241432
0.0241402
0.0241371
0.024134
0.0241309
0.0241279
0.0241247
0.0241216
0.0241184
0.0241153
0.0241121
0.0241089
0.0241056
0.0241024
0.0240991
0.0240958
0.0240925
0.0240892
0.0240858
0.0240824
0.0240789
0.0240754
0.0240718
0.0240683
0.0240646
0.024061
0.0240573
0.0240536
0.0240499
0.0240462
0.0240425
0.0240388
0.0240351
0.0240314
0.0240277
0.024024
0.0240203
0.0240167
0.0240131
0.0240095
0.0240059
0.0240023
0.0239988
0.0239953
0.0239919
0.0239885
0.0239851
0.0239817
0.0239784
0.0239751
0.0239718
0.0239685
0.0239653
0.0239621
0.0239589
0.0239557
0.0239525
0.0239493
0.0239461
0.0239429
0.0239397
0.0239365
0.0239333
0.0239301
0.0239269
0.0239236
0.0239204
0.0239172
0.023914
0.0239107
0.0239075
0.0239042
0.023901
0.0238977
0.0238944
0.023891
0.0238877
0.0238843
0.0238809
0.0238775
0.023874
0.0238706
0.0238671
0.0238635
0.0238599
0.0238563
0.0238526
0.023849
0.0238452
0.0238414
0.0238376
0.0238337
0.0238297
0.0238257
0.0238217
0.0238174
0.0238132
0.0238088
0.0238043
0.0237998
0.023795
0.0237903
0.0237851
0.0237806
0.0237742
0.023771
0.0237617
0.0237606
0.0237465
0.0237461
0.0237279
0.0237283
0.0237077
0.0237085
0.0236893
0.0236897
0.0236802
0.0236772
0.0236644
0.0236588
0.0236345
0.0236568
0.0236538
0.023645
0.0236419
0.0236375
0.0236327
0.0236216
0.0236126
0.0236033
0.0236008
0.0236005
0.023601
0.0261
0.0261
0.0261
0.0261
0.0261
0.0261
0.0261
0.0261
0.0260999
0.0260987
0.0261034
0.026106
0.0260954
0.0261014
0.026116
0.026119
0.0261246
0.0261375
0.0261417
0.0261426
0.0261465
0.026153
0.0261607
0.0261713
0.0261724
0.026174
0.0261805
0.0261842
0.0261867
0.0261909
0.026193
0.0261949
0.0261996
0.0262032
0.0262049
0.0262059
0.0262064
0.0262064
0.0262067
0.0262071
0.0262078
0.0262084
0.0262089
0.0262089
0.0262086
0.026208
0.0262073
0.0262065
0.0262057
0.0262048
0.0262039
0.026203
0.026202
0.026201
0.0262
0.026199
0.026198
0.0261969
0.0261959
0.0261948
0.0261937
0.0261925
0.0261913
0.02619
0.0261887
0.0261873
0.0261859
0.0261844
0.0261829
0.0261814
0.0261799
0.0261784
0.0261769
0.0261755
0.0261741
0.0261726
0.0261712
0.0261698
0.0261683
0.0261667
0.0261651
0.0261634
0.0261616
0.0261596
0.0261576
0.0261554
0.0261531
0.0261506
0.026148
0.0261451
0.0261421
0.0261388
0.0261353
0.0261316
0.0261278
0.0261237
0.0261195
0.026115
0.0261104
0.0261055
0.0261006
0.0260953
0.02609
0.0260842
0.0260786
0.0260724
0.0260664
0.0260598
0.0260535
0.0260465
0.0260399
0.0260326
0.0260258
0.0260182
0.0260111
0.0260032
0.0259958
0.0259878
0.0259801
0.0259718
0.025964
0.0259556
0.0259476
0.0259389
0.0259308
0.025922
0.0259137
0.0259048
0.0258964
0.0258874
0.0258788
0.0258697
0.025861
0.0258518
0.0258429
0.0258337
0.0258247
0.0258155
0.0258064
0.0257971
0.0257879
0.0257785
0.0257693
0.0257599
0.0257506
0.0257412
0.0257319
0.0257225
0.025713
0.0257036
0.0256941
0.0256847
0.0256752
0.0256658
0.0256561
0.0256468
0.025637
0.0256278
0.025618
0.0256088
0.025599
0.02559
0.0255802
0.0255712
0.0255616
0.0255528
0.0255433
0.0255345
0.0255253
0.0255167
0.0255077
0.025499
0.0254902
0.0254816
0.0254729
0.0254643
0.0254557
0.025447
0.0254385
0.0254299
0.0254214
0.0254128
0.0254044
0.0253958
0.0253874
0.0253788
0.0253705
0.025362
0.0253537
0.0253452
0.025337
0.0253285
0.0253204
0.0253119
0.0253039
0.0252954
0.0252875
0.0252791
0.0252712
0.0252629
0.0252552
0.025247
0.0252393
0.0252312
0.0252237
0.0252158
0.0252084
0.0252006
0.0251933
0.0251857
0.0251786
0.0251711
0.0251642
0.0251569
0.0251501
0.025143
0.0251363
0.0251294
0.0251228
0.025116
0.0251095
0.0251029
0.0250964
0.0250899
0.0250836
0.0250772
0.0250709
0.0250646
0.0250585
0.0250523
0.0250462
0.0250402
0.0250343
0.0250283
0.0250225
0.0250167
0.0250109
0.0250052
0.0249995
0.0249939
0.0249883
0.0249827
0.0249772
0.0249716
0.024966
0.0249605
0.0249549
0.0249493
0.0249436
0.0249379
0.0249322
0.0249264
0.0249205
0.0249146
0.0249087
0.0249026
0.0248966
0.0248904
0.0248842
0.024878
0.0248717
0.0248653
0.0248589
0.0248524
0.0248459
0.0248393
0.0248326
0.0248259
0.0248191
0.0248123
0.0248054
0.0247985
0.0247916
0.0247846
0.0247776
0.0247706
0.0247636
0.0247566
0.0247496
0.0247427
0.0247357
0.0247288
0.0247218
0.0247149
0.024708
0.0247012
0.0246943
0.0246875
0.0246807
0.024674
0.0246672
0.0246605
0.0246538
0.0246471
0.0246405
0.0246338
0.0246272
0.0246206
0.0246141
0.0246075
0.024601
0.0245945
0.0245881
0.0245817
0.0245753
0.024569
0.0245627
0.0245564
0.0245502
0.024544
0.0245379
0.0245318
0.0245257
0.0245197
0.0245138
0.0245079
0.024502
0.0244962
0.0244904
0.0244847
0.024479
0.0244734
0.0244678
0.0244623
0.0244568
0.0244514
0.0244461
0.0244408
0.0244355
0.0244303
0.0244252
0.0244202
0.0244152
0.0244102
0.0244053
0.0244005
0.0243958
0.0243911
0.0243864
0.0243819
0.0243773
0.0243729
0.0243685
0.0243641
0.0243598
0.0243556
0.0243514
0.0243473
0.0243432
0.0243392
0.0243352
0.0243312
0.0243273
0.0243235
0.0243196
0.0243159
0.0243121
0.0243084
0.0243047
0.0243011
0.0242975
0.024294
0.0242904
0.0242869
0.0242834
0.02428
0.0242765
0.0242731
0.0242697
0.0242663
0.0242629
0.0242596
0.0242562
0.0242529
0.0242496
0.0242463
0.024243
0.0242398
0.0242365
0.0242333
0.0242301
0.0242269
0.0242237
0.0242205
0.0242173
0.0242142
0.0242111
0.0242079
0.0242048
0.0242017
0.0241986
0.0241955
0.0241925
0.0241894
0.0241863
0.0241832
0.0241801
0.024177
0.024174
0.0241709
0.0241678
0.0241647
0.0241616
0.0241585
0.0241553
0.0241522
0.0241491
0.0241459
0.0241428
0.0241396
0.0241364
0.0241332
0.0241301
0.0241269
0.0241237
0.0241205
0.0241173
0.0241141
0.0241109
0.0241077
0.0241045
0.0241013
0.0240981
0.0240948
0.0240916
0.0240884
0.0240851
0.0240819
0.0240786
0.0240753
0.0240721
0.0240688
0.0240655
0.0240622
0.0240589
0.0240556
0.0240523
0.024049
0.0240456
0.0240422
0.0240389
0.0240355
0.0240321
0.0240287
0.0240253
0.0240218
0.0240184
0.0240149
0.0240115
0.024008
0.0240045
0.024001
0.0239976
0.0239941
0.0239906
0.0239871
0.0239836
0.0239801
0.0239766
0.0239731
0.0239696
0.0239661
0.0239626
0.0239591
0.0239556
0.0239521
0.0239486
0.0239451
0.0239416
0.0239381
0.0239346
0.0239311
0.0239277
0.0239242
0.0239207
0.0239172
0.0239137
0.0239101
0.0239066
0.0239031
0.0238995
0.023896
0.0238924
0.0238889
0.0238853
0.0238817
0.0238781
0.0238744
0.0238708
0.0238672
0.0238635
0.0238599
0.0238562
0.0238525
0.0238488
0.023845
0.0238413
0.0238375
0.0238337
0.0238299
0.0238261
0.0238222
0.0238184
0.0238145
0.0238105
0.0238066
0.0238026
0.0237986
0.0237946
0.0237906
0.0237865
0.0237824
0.0237783
0.0237741
0.0237699
0.0237656
0.0237613
0.023757
0.0237527
0.0237483
0.0237437
0.0237393
0.0237346
0.02373
0.0237251
0.0237202
0.0237147
0.0237095
0.0237035
0.023698
0.0236917
0.0236861
0.0236801
0.0236751
0.02367
0.023665
0.0236604
0.0236537
0.0236529
0.0236528
0.0236502
0.0236444
0.0236406
0.0236364
0.0236295
0.0236222
0.0236101
0.023604
0.0236016
0.0236015
0.0261
0.0261
0.0261
0.0261
0.0261
0.0261
0.0261
0.0261
0.0260998
0.0260993
0.0261038
0.0261046
0.0260929
0.0260947
0.0261048
0.0261029
0.0261034
0.0261098
0.0261096
0.0261058
0.026105
0.0261069
0.0261112
0.0261184
0.0261178
0.026117
0.0261203
0.0261218
0.0261221
0.0261241
0.026125
0.0261266
0.0261312
0.0261355
0.0261382
0.0261401
0.0261413
0.0261421
0.0261429
0.026144
0.0261454
0.0261469
0.0261485
0.0261499
0.0261511
0.0261522
0.0261531
0.026154
0.0261548
0.0261554
0.026156
0.0261564
0.0261567
0.0261569
0.0261571
0.0261572
0.0261572
0.0261572
0.0261572
0.0261571
0.0261569
0.0261567
0.0261563
0.0261559
0.0261554
0.0261547
0.0261539
0.0261529
0.0261518
0.0261506
0.0261491
0.0261476
0.0261459
0.0261442
0.0261423
0.0261403
0.0261382
0.0261358
0.0261334
0.0261307
0.0261279
0.0261249
0.0261217
0.0261183
0.0261148
0.0261109
0.026107
0.0261027
0.0260983
0.0260935
0.0260886
0.0260834
0.0260781
0.0260723
0.0260666
0.0260604
0.0260543
0.0260478
0.0260413
0.0260344
0.0260277
0.0260203
0.0260133
0.0260055
0.0259982
0.0259901
0.0259825
0.025974
0.0259663
0.0259575
0.0259495
0.0259405
0.0259323
0.0259231
0.0259148
0.0259054
0.0258969
0.0258873
0.0258787
0.0258691
0.0258603
0.0258506
0.0258418
0.025832
0.0258231
0.0258133
0.0258044
0.0257945
0.0257855
0.0257757
0.0257666
0.0257568
0.0257476
0.0257378
0.0257286
0.0257188
0.0257095
0.0256997
0.0256904
0.0256807
0.0256714
0.0256617
0.0256524
0.0256428
0.0256334
0.0256239
0.0256145
0.0256051
0.0255957
0.0255864
0.025577
0.0255678
0.0255583
0.0255492
0.0255397
0.0255308
0.0255212
0.0255125
0.0255029
0.0254944
0.0254848
0.0254764
0.0254669
0.0254586
0.0254493
0.0254411
0.025432
0.0254238
0.025415
0.0254069
0.0253984
0.0253902
0.0253818
0.0253736
0.0253655
0.0253573
0.0253493
0.0253411
0.0253332
0.0253251
0.0253173
0.0253093
0.0253015
0.0252936
0.0252859
0.025278
0.0252703
0.0252625
0.0252549
0.0252471
0.0252396
0.0252318
0.0252245
0.0252167
0.0252095
0.0252017
0.0251946
0.025187
0.02518
0.0251724
0.0251655
0.0251581
0.0251513
0.025144
0.0251373
0.0251301
0.0251236
0.0251165
0.0251101
0.0251032
0.025097
0.0250902
0.0250841
0.0250775
0.0250715
0.0250651
0.0250591
0.0250529
0.0250471
0.025041
0.0250352
0.0250293
0.0250236
0.0250179
0.0250123
0.0250066
0.0250011
0.0249956
0.0249902
0.0249848
0.0249794
0.0249741
0.0249689
0.0249637
0.0249586
0.0249534
0.0249483
0.0249432
0.0249381
0.024933
0.0249278
0.0249227
0.0249174
0.0249122
0.0249068
0.0249014
0.0248958
0.0248902
0.0248845
0.0248786
0.0248726
0.0248666
0.0248604
0.0248541
0.0248477
0.0248413
0.0248347
0.0248281
0.0248215
0.0248148
0.024808
0.0248012
0.0247943
0.0247874
0.0247805
0.0247735
0.0247665
0.0247594
0.0247523
0.0247452
0.0247381
0.0247309
0.0247238
0.0247167
0.0247095
0.0247024
0.0246954
0.0246883
0.0246813
0.0246743
0.0246673
0.0246604
0.0246535
0.0246467
0.0246399
0.0246331
0.0246264
0.0246197
0.0246131
0.0246065
0.0246
0.0245934
0.024587
0.0245805
0.0245741
0.0245677
0.0245614
0.0245551
0.0245489
0.0245427
0.0245365
0.0245304
0.0245244
0.0245183
0.0245124
0.0245065
0.0245006
0.0244948
0.0244891
0.0244834
0.0244777
0.0244721
0.0244666
0.0244611
0.0244557
0.0244504
0.0244451
0.0244399
0.0244347
0.0244295
0.0244244
0.0244194
0.0244144
0.0244095
0.0244046
0.0243997
0.024395
0.0243903
0.0243856
0.024381
0.0243764
0.0243719
0.0243675
0.0243631
0.0243588
0.0243546
0.0243504
0.0243462
0.0243421
0.0243381
0.0243341
0.0243302
0.0243263
0.0243225
0.0243187
0.0243149
0.0243112
0.0243076
0.0243039
0.0243004
0.0242968
0.0242933
0.0242899
0.0242864
0.024283
0.0242797
0.0242763
0.024273
0.0242697
0.0242665
0.0242632
0.02426
0.0242568
0.0242536
0.0242505
0.0242473
0.0242442
0.024241
0.0242379
0.0242348
0.0242317
0.0242285
0.0242254
0.0242223
0.0242192
0.0242161
0.024213
0.0242099
0.0242068
0.0242037
0.0242006
0.0241975
0.0241943
0.0241912
0.0241881
0.024185
0.0241819
0.0241788
0.0241757
0.0241726
0.0241695
0.0241663
0.0241632
0.0241601
0.0241569
0.0241538
0.0241507
0.0241475
0.0241443
0.0241412
0.024138
0.0241348
0.0241316
0.0241284
0.0241252
0.024122
0.0241188
0.0241155
0.0241123
0.024109
0.0241058
0.0241025
0.0240992
0.024096
0.0240927
0.0240894
0.0240861
0.0240828
0.0240795
0.0240762
0.0240729
0.0240695
0.0240662
0.0240629
0.0240596
0.0240563
0.024053
0.0240496
0.0240463
0.024043
0.0240397
0.0240363
0.024033
0.0240297
0.0240264
0.0240231
0.0240197
0.0240164
0.0240131
0.0240098
0.0240064
0.0240031
0.0239997
0.0239964
0.023993
0.0239897
0.0239863
0.0239829
0.0239795
0.0239762
0.0239728
0.0239694
0.0239659
0.0239625
0.0239591
0.0239556
0.0239522
0.0239487
0.0239453
0.0239418
0.0239383
0.0239348
0.0239312
0.0239277
0.0239242
0.0239206
0.023917
0.0239134
0.0239098
0.0239062
0.0239026
0.023899
0.0238953
0.0238917
0.023888
0.0238844
0.0238807
0.023877
0.0238733
0.0238695
0.0238658
0.023862
0.0238582
0.0238544
0.0238506
0.0238468
0.0238429
0.0238391
0.0238352
0.0238313
0.0238274
0.0238235
0.0238195
0.0238156
0.0238116
0.0238076
0.0238036
0.0237995
0.0237954
0.0237914
0.0237873
0.0237831
0.023779
0.0237748
0.0237706
0.0237664
0.0237622
0.023758
0.0237537
0.0237495
0.0237452
0.0237409
0.0237366
0.0237323
0.0237279
0.0237235
0.0237192
0.0237148
0.0237103
0.0237059
0.0237014
0.023697
0.0236922
0.0236879
0.0236828
0.0236786
0.0236731
0.0236691
0.0236631
0.0236595
0.0236533
0.02365
0.0236443
0.0236414
0.0236368
0.0236347
0.0236331
0.0236344
0.0236395
0.0236459
0.0236457
0.0236428
0.0236398
0.0236363
0.0236317
0.0236259
0.0236165
0.0236083
0.0236032
0.0236019
0.0261
0.0261
0.0261
0.0261
0.0261
0.0261
0.0261
0.0261
0.0260998
0.0260999
0.0261037
0.0261034
0.0260934
0.0260943
0.0261023
0.0261011
0.0261014
0.026106
0.0261054
0.026101
0.0260991
0.0260994
0.0261025
0.0261073
0.0261061
0.0261043
0.0261055
0.0261053
0.0261041
0.0261041
0.0261036
0.0261041
0.0261073
0.0261106
0.0261124
0.0261132
0.0261131
0.0261126
0.0261121
0.0261119
0.0261122
0.0261127
0.0261134
0.0261142
0.0261149
0.0261156
0.0261163
0.0261169
0.0261175
0.0261181
0.0261186
0.026119
0.0261192
0.0261194
0.0261195
0.0261195
0.0261195
0.0261194
0.0261192
0.026119
0.0261187
0.0261183
0.0261177
0.0261171
0.0261162
0.0261151
0.0261139
0.0261123
0.0261105
0.0261084
0.0261061
0.0261034
0.0261006
0.0260975
0.0260942
0.0260906
0.0260868
0.0260827
0.0260784
0.0260737
0.0260689
0.0260637
0.0260584
0.0260527
0.0260469
0.0260407
0.0260344
0.0260278
0.0260211
0.026014
0.0260069
0.0259994
0.0259919
0.025984
0.0259762
0.0259679
0.0259598
0.0259512
0.0259429
0.025934
0.0259255
0.0259163
0.0259077
0.0258982
0.0258893
0.0258796
0.0258706
0.0258607
0.0258516
0.0258415
0.0258324
0.0258221
0.025813
0.0258026
0.0257934
0.0257831
0.0257738
0.0257634
0.0257541
0.0257437
0.0257344
0.0257241
0.0257148
0.0257045
0.0256952
0.0256849
0.0256757
0.0256655
0.0256562
0.0256462
0.025637
0.0256271
0.0256178
0.025608
0.0255988
0.0255891
0.0255799
0.0255703
0.0255611
0.0255516
0.0255425
0.0255331
0.025524
0.0255148
0.0255058
0.0254966
0.0254877
0.0254787
0.0254698
0.0254609
0.025452
0.0254433
0.0254344
0.0254259
0.0254169
0.0254087
0.0253997
0.0253916
0.0253827
0.0253748
0.0253659
0.0253582
0.0253495
0.0253419
0.0253334
0.0253259
0.0253176
0.0253102
0.0253021
0.0252947
0.0252869
0.0252795
0.0252719
0.0252645
0.025257
0.0252496
0.0252423
0.0252349
0.0252277
0.0252204
0.0252133
0.0252061
0.0251991
0.0251919
0.025185
0.0251779
0.0251711
0.025164
0.0251573
0.0251502
0.0251436
0.0251366
0.0251301
0.0251232
0.0251168
0.0251099
0.0251036
0.0250968
0.0250907
0.025084
0.025078
0.0250714
0.0250655
0.025059
0.0250533
0.0250469
0.0250413
0.0250351
0.0250296
0.0250236
0.0250182
0.0250123
0.025007
0.0250013
0.0249961
0.0249906
0.0249854
0.0249801
0.024975
0.0249697
0.0249647
0.0249596
0.0249547
0.0249497
0.0249449
0.02494
0.0249353
0.0249305
0.0249259
0.0249212
0.0249166
0.024912
0.0249075
0.024903
0.0248984
0.0248939
0.0248893
0.0248846
0.0248799
0.0248751
0.0248702
0.0248651
0.02486
0.0248547
0.0248492
0.0248436
0.0248378
0.0248318
0.0248257
0.0248194
0.0248129
0.0248063
0.0247996
0.0247927
0.0247857
0.0247787
0.0247716
0.0247644
0.0247572
0.02475
0.0247428
0.0247355
0.0247282
0.024721
0.0247137
0.0247064
0.0246992
0.0246919
0.0246846
0.0246774
0.0246701
0.0246629
0.0246557
0.0246486
0.0246415
0.0246344
0.0246274
0.0246204
0.0246135
0.0246066
0.0245998
0.0245931
0.0245864
0.0245798
0.0245732
0.0245667
0.0245603
0.0245539
0.0245476
0.0245413
0.0245351
0.0245289
0.0245228
0.0245167
0.0245107
0.0245047
0.0244988
0.024493
0.0244872
0.0244814
0.0244757
0.0244701
0.0244645
0.024459
0.0244535
0.0244481
0.0244428
0.0244375
0.0244323
0.0244271
0.024422
0.024417
0.0244121
0.0244072
0.0244023
0.0243976
0.0243928
0.0243882
0.0243836
0.024379
0.0243745
0.0243701
0.0243657
0.0243613
0.024357
0.0243528
0.0243486
0.0243444
0.0243403
0.0243363
0.0243323
0.0243283
0.0243245
0.0243206
0.0243169
0.0243131
0.0243095
0.0243058
0.0243022
0.0242987
0.0242952
0.0242917
0.0242883
0.0242849
0.0242816
0.0242783
0.024275
0.0242717
0.0242685
0.0242653
0.0242621
0.024259
0.0242559
0.0242528
0.0242497
0.0242467
0.0242437
0.0242407
0.0242377
0.0242347
0.0242317
0.0242287
0.0242258
0.0242229
0.0242199
0.024217
0.024214
0.0242111
0.0242081
0.0242051
0.0242022
0.0241992
0.0241962
0.0241932
0.0241902
0.0241872
0.0241842
0.0241812
0.0241781
0.0241751
0.024172
0.024169
0.0241659
0.0241628
0.0241597
0.0241566
0.0241535
0.0241504
0.0241473
0.0241441
0.024141
0.0241378
0.0241346
0.0241314
0.0241282
0.024125
0.0241217
0.0241185
0.0241152
0.024112
0.0241087
0.0241054
0.0241022
0.0240989
0.0240956
0.0240922
0.0240889
0.0240856
0.0240822
0.0240789
0.0240756
0.0240722
0.0240688
0.0240655
0.0240621
0.0240587
0.0240554
0.024052
0.0240486
0.0240452
0.0240418
0.0240384
0.0240351
0.0240317
0.0240283
0.0240249
0.0240215
0.0240182
0.0240148
0.0240114
0.0240081
0.0240047
0.0240014
0.023998
0.0239947
0.0239913
0.023988
0.0239846
0.0239813
0.023978
0.0239746
0.0239713
0.023968
0.0239646
0.0239613
0.0239579
0.0239546
0.0239512
0.0239478
0.0239445
0.0239411
0.0239377
0.0239343
0.0239309
0.0239274
0.023924
0.0239205
0.0239171
0.0239136
0.02391
0.0239065
0.023903
0.0238994
0.0238958
0.0238922
0.0238885
0.0238849
0.0238812
0.0238775
0.0238738
0.0238701
0.0238663
0.0238625
0.0238588
0.023855
0.0238511
0.0238473
0.0238434
0.0238396
0.0238357
0.0238317
0.0238278
0.0238238
0.0238198
0.0238158
0.0238118
0.0238077
0.0238036
0.0237995
0.0237954
0.0237913
0.0237871
0.023783
0.0237788
0.0237746
0.0237703
0.0237661
0.0237618
0.0237575
0.0237532
0.0237488
0.0237445
0.0237401
0.0237357
0.0237313
0.0237268
0.0237224
0.0237179
0.0237135
0.023709
0.0237045
0.0237
0.0236955
0.023691
0.0236865
0.023682
0.0236775
0.023673
0.0236684
0.0236639
0.0236592
0.0236547
0.0236499
0.0236455
0.0236403
0.0236361
0.0236305
0.0236268
0.0236208
0.0236177
0.0236116
0.0236091
0.0236036
0.0236019
0.0235976
0.0235975
0.0235978
0.0236045
0.0236174
0.0236319
0.0236351
0.0236338
0.0236324
0.0236308
0.0236289
0.0236256
0.0236193
0.0236119
0.0236055
0.0236022
0.0261
0.0261
0.0261
0.0261
0.0261
0.0261
0.0261
0.0261
0.0260999
0.0261004
0.0261033
0.0261021
0.026094
0.0260944
0.026101
0.0261011
0.0261018
0.0261056
0.0261048
0.0261004
0.0260979
0.0260979
0.0261008
0.0261047
0.0261038
0.0261019
0.0261021
0.0261012
0.0260996
0.0260989
0.026098
0.0260983
0.0261008
0.0261035
0.0261049
0.0261051
0.0261044
0.0261031
0.0261018
0.0261007
0.0261
0.0260996
0.0260995
0.0260993
0.0260992
0.026099
0.0260988
0.0260985
0.0260982
0.0260977
0.0260972
0.0260964
0.0260955
0.0260944
0.0260932
0.0260918
0.0260903
0.0260886
0.0260868
0.0260848
0.0260826
0.0260802
0.0260776
0.0260747
0.0260716
0.0260681
0.0260643
0.0260601
0.0260556
0.0260507
0.0260456
0.0260401
0.0260343
0.0260282
0.0260219
0.0260153
0.0260086
0.0260016
0.0259944
0.0259869
0.0259793
0.0259715
0.0259635
0.0259554
0.0259471
0.0259386
0.0259301
0.0259213
0.0259125
0.0259034
0.0258944
0.0258851
0.0258758
0.0258662
0.0258568
0.0258471
0.0258375
0.0258276
0.025818
0.0258079
0.0257982
0.025788
0.0257783
0.0257678
0.0257581
0.0257475
0.0257377
0.025727
0.0257173
0.0257065
0.0256968
0.025686
0.0256764
0.0256657
0.0256561
0.0256454
0.025636
0.0256253
0.025616
0.0256054
0.0255961
0.0255858
0.0255765
0.0255663
0.0255571
0.0255471
0.025538
0.0255281
0.0255191
0.0255094
0.0255004
0.0254909
0.0254821
0.0254727
0.0254639
0.0254547
0.0254461
0.025437
0.0254285
0.0254196
0.0254111
0.0254024
0.0253941
0.0253855
0.0253773
0.0253689
0.0253607
0.0253524
0.0253443
0.0253362
0.0253282
0.0253203
0.0253122
0.0253045
0.0252964
0.025289
0.0252808
0.0252736
0.0252656
0.0252585
0.0252506
0.0252437
0.0252359
0.0252292
0.0252216
0.025215
0.0252076
0.025201
0.0251938
0.0251872
0.0251803
0.0251737
0.0251669
0.0251603
0.0251537
0.0251471
0.0251406
0.0251341
0.0251277
0.0251212
0.025115
0.0251086
0.0251024
0.0250961
0.02509
0.0250837
0.0250777
0.0250715
0.0250656
0.0250595
0.0250537
0.0250476
0.0250419
0.0250359
0.0250303
0.0250244
0.0250189
0.0250131
0.0250078
0.025002
0.0249968
0.0249912
0.0249861
0.0249806
0.0249757
0.0249703
0.0249655
0.0249602
0.0249555
0.0249504
0.0249458
0.0249408
0.0249363
0.0249314
0.024927
0.0249223
0.0249179
0.0249134
0.0249091
0.0249046
0.0249004
0.024896
0.0248919
0.0248876
0.0248835
0.0248794
0.0248754
0.0248714
0.0248674
0.0248634
0.0248595
0.0248556
0.0248517
0.0248477
0.0248436
0.0248394
0.0248351
0.0248306
0.0248259
0.0248211
0.024816
0.0248107
0.0248052
0.0247995
0.0247935
0.0247873
0.024781
0.0247744
0.0247676
0.0247606
0.0247534
0.0247461
0.0247386
0.0247311
0.0247234
0.0247157
0.024708
0.0247003
0.0246926
0.0246849
0.0246773
0.0246697
0.0246622
0.0246547
0.0246472
0.0246398
0.0246324
0.0246251
0.0246179
0.0246106
0.0246035
0.0245963
0.0245893
0.0245823
0.0245753
0.0245685
0.0245617
0.0245549
0.0245482
0.0245417
0.0245351
0.0245287
0.0245224
0.0245161
0.0245099
0.0245038
0.0244977
0.0244917
0.0244858
0.02448
0.0244742
0.0244684
0.0244628
0.0244572
0.0244516
0.0244462
0.0244407
0.0244354
0.0244301
0.0244249
0.0244197
0.0244146
0.0244095
0.0244046
0.0243996
0.0243948
0.02439
0.0243853
0.0243806
0.024376
0.0243715
0.024367
0.0243627
0.0243583
0.0243541
0.0243499
0.0243457
0.0243416
0.0243376
0.0243336
0.0243297
0.0243258
0.0243219
0.0243181
0.0243144
0.0243107
0.024307
0.0243034
0.0242998
0.0242963
0.0242929
0.0242894
0.0242861
0.0242827
0.0242794
0.0242762
0.024273
0.0242698
0.0242667
0.0242636
0.0242605
0.0242574
0.0242544
0.0242514
0.0242484
0.0242455
0.0242426
0.0242396
0.0242368
0.0242339
0.024231
0.0242282
0.0242253
0.0242225
0.0242197
0.0242169
0.0242141
0.0242113
0.0242086
0.0242058
0.024203
0.0242002
0.0241974
0.0241946
0.0241918
0.024189
0.0241862
0.0241834
0.0241805
0.0241776
0.0241747
0.0241718
0.0241689
0.024166
0.024163
0.0241601
0.0241571
0.0241541
0.0241511
0.024148
0.024145
0.0241419
0.0241388
0.0241357
0.0241326
0.0241295
0.0241263
0.0241232
0.02412
0.0241168
0.0241135
0.0241103
0.024107
0.0241037
0.0241004
0.0240971
0.0240938
0.0240905
0.0240871
0.0240837
0.0240804
0.024077
0.0240736
0.0240702
0.0240668
0.0240634
0.02406
0.0240566
0.0240532
0.0240497
0.0240463
0.0240429
0.0240394
0.024036
0.0240326
0.0240291
0.0240257
0.0240222
0.0240188
0.0240153
0.0240119
0.0240085
0.024005
0.0240016
0.0239982
0.0239948
0.0239913
0.0239879
0.0239845
0.0239811
0.0239778
0.0239744
0.023971
0.0239676
0.0239643
0.0239609
0.0239575
0.0239542
0.0239509
0.0239475
0.0239442
0.0239408
0.0239375
0.0239341
0.0239307
0.0239274
0.023924
0.0239206
0.0239172
0.0239138
0.0239104
0.023907
0.0239036
0.0239001
0.0238967
0.0238932
0.0238897
0.0238862
0.0238826
0.0238791
0.0238755
0.0238718
0.0238682
0.0238645
0.0238608
0.0238571
0.0238533
0.0238495
0.0238457
0.0238419
0.023838
0.0238341
0.0238302
0.0238263
0.0238224
0.0238184
0.0238144
0.0238104
0.0238063
0.0238023
0.0237982
0.023794
0.0237899
0.0237857
0.0237814
0.0237772
0.0237729
0.0237687
0.0237644
0.02376
0.0237557
0.0237513
0.023747
0.0237426
0.0237382
0.0237337
0.0237292
0.0237248
0.0237202
0.0237157
0.0237111
0.0237065
0.0237019
0.0236973
0.0236927
0.0236881
0.0236834
0.0236788
0.0236741
0.0236695
0.0236648
0.0236602
0.0236555
0.0236509
0.0236462
0.0236416
0.0236369
0.0236323
0.0236276
0.023623
0.0236182
0.0236136
0.0236086
0.0236041
0.0235988
0.0235946
0.0235889
0.0235851
0.0235791
0.023576
0.0235701
0.0235678
0.0235625
0.0235613
0.0235574
0.0235586
0.0235604
0.0235705
0.0235892
0.0236108
0.0236187
0.023619
0.0236191
0.0236195
0.0236206
0.0236204
0.0236182
0.0236132
0.0236073
0.0236024
0.0261
0.0261
0.0261
0.0261
0.0261
0.0261
0.0261
0.0261
0.0261001
0.0261008
0.0261029
0.0261011
0.0260947
0.0260948
0.0261001
0.026101
0.0261021
0.0261053
0.0261047
0.0261007
0.0260979
0.0260975
0.0260998
0.0261027
0.026102
0.0261002
0.0260999
0.0260988
0.0260971
0.026096
0.0260949
0.026095
0.026097
0.0260993
0.0261004
0.0261003
0.0260992
0.0260974
0.0260956
0.0260939
0.0260925
0.0260914
0.0260905
0.0260897
0.0260887
0.0260877
0.0260865
0.0260851
0.0260837
0.026082
0.0260801
0.0260779
0.0260753
0.0260725
0.0260694
0.0260659
0.0260622
0.0260581
0.0260537
0.026049
0.0260439
0.0260384
0.0260326
0.0260265
0.0260199
0.026013
0.0260056
0.0259979
0.0259899
0.0259814
0.0259727
0.0259637
0.0259545
0.0259451
0.0259356
0.0259258
0.025916
0.0259061
0.025896
0.0258858
0.0258756
0.0258651
0.0258548
0.0258443
0.0258338
0.0258232
0.0258127
0.0258021
0.0257915
0.0257808
0.0257702
0.0257594
0.0257488
0.025738
0.0257274
0.0257165
0.0257059
0.0256951
0.0256845
0.0256736
0.0256632
0.0256523
0.0256419
0.0256309
0.0256206
0.0256095
0.0255994
0.0255883
0.0255782
0.0255672
0.0255573
0.0255464
0.0255367
0.025526
0.0255164
0.0255058
0.0254965
0.0254861
0.0254769
0.0254667
0.0254577
0.0254477
0.0254388
0.0254291
0.0254203
0.0254108
0.0254022
0.0253929
0.0253845
0.0253754
0.0253671
0.0253582
0.02535
0.0253414
0.0253333
0.0253249
0.025317
0.0253088
0.025301
0.025293
0.0252854
0.0252776
0.0252701
0.0252625
0.0252551
0.0252476
0.0252403
0.025233
0.0252258
0.0252187
0.0252115
0.0252045
0.0251974
0.0251906
0.0251834
0.0251769
0.0251697
0.0251633
0.0251563
0.0251501
0.0251431
0.0251371
0.0251302
0.0251244
0.0251177
0.0251119
0.0251054
0.0250996
0.0250933
0.0250876
0.0250815
0.0250757
0.0250697
0.0250639
0.0250581
0.0250523
0.0250467
0.0250409
0.0250354
0.0250297
0.0250242
0.0250187
0.0250133
0.0250078
0.0250025
0.0249971
0.024992
0.0249866
0.0249815
0.0249762
0.0249713
0.0249661
0.0249612
0.0249561
0.0249513
0.0249463
0.0249417
0.0249367
0.0249322
0.0249273
0.024923
0.0249182
0.024914
0.0249093
0.0249052
0.0249006
0.0248966
0.0248922
0.0248883
0.024884
0.0248801