/*--------------------------------*- C++ -*----------------------------------*\
| =========                 |                                                 |
| \\      /  F ield         | foam-extend: Open Source CFD                    |
|  \\    /   O peration     | Version:     3.2                                |
|   \\  /    A nd           | Web:         http://www.foam-extend.org         |
|    \\/     M anipulation  | For copyright notice see file Copyright         |
\*---------------------------------------------------------------------------*/
FoamFile
{
    version     2.0;
    format      ascii;
    class       areaScalarField;
    location    "840";
    object      Cpost;
}
// * * * * * * * * * * * * * * * * * * * * * * * * * * * * * * * * * * * * * //

dimensions      [1 -3 0 0 0 0 0];

internalField   nonuniform List<scalar> 
550
(
0.0261
0.0261
0.0261
0.0261
0.0261
0.0261
0.0261
0.0261
0.0261
0.0260986
0.0261025
0.0261151
0.0261365
0.0261774
0.026215
0.0262653
0.0262803
0.0263065
0.026309
0.0263086
0.0263207
0.026326
0.0263363
0.0263408
0.026339
0.02633
0.0263375
0.0263383
0.0263426
0.0263468
0.026341
0.02634
0.0263352
0.0263297
0.0263222
0.0263168
0.0263114
0.026307
0.0263028
0.0263006
0.0262974
0.0262955
0.0262916
0.0262882
0.0262831
0.0262793
0.0262747
0.0262713
0.0262672
0.026264
0.0262603
0.0262573
0.0262539
0.026251
0.0262478
0.026245
0.0262419
0.026239
0.0262359
0.026233
0.0262299
0.0262269
0.0262239
0.026221
0.0262183
0.0262156
0.0262132
0.0262109
0.0262088
0.026207
0.0262054
0.0262041
0.0262029
0.026202
0.0262011
0.0262005
0.0261997
0.0261992
0.0261984
0.0261979
0.0261969
0.0261964
0.0261952
0.0261946
0.0261932
0.0261924
0.0261905
0.0261896
0.0261873
0.0261861
0.0261834
0.0261821
0.0261789
0.0261774
0.0261738
0.0261722
0.026168
0.0261663
0.0261616
0.0261598
0.0261543
0.0261524
0.026146
0.0261439
0.0261369
0.0261345
0.0261269
0.0261243
0.0261163
0.0261135
0.0261052
0.0261021
0.0260935
0.0260902
0.0260814
0.0260777
0.0260688
0.0260647
0.0260556
0.0260512
0.0260421
0.0260373
0.0260282
0.026023
0.0260139
0.0260083
0.0259991
0.0259931
0.0259839
0.0259776
0.0259684
0.0259616
0.0259524
0.0259453
0.025936
0.0259286
0.0259193
0.0259116
0.0259023
0.0258944
0.025885
0.0258769
0.0258675
0.0258592
0.0258497
0.0258413
0.0258316
0.025823
0.0258134
0.0258043
0.025795
0.0257852
0.0257766
0.0257658
0.0257574
0.0257458
0.0257376
0.0257258
0.0257177
0.0257058
0.0256979
0.0256863
0.0256785
0.0256674
0.0256596
0.0256493
0.0256414
0.0256319
0.0256237
0.0256151
0.0256067
0.0255985
0.0255898
0.0255812
0.0255724
0.0255634
0.0255546
0.0255454
0.0255365
0.0255273
0.0255183
0.025509
0.0255001
0.0254909
0.025482
0.0254727
0.0254638
0.0254547
0.0254457
0.0254366
0.0254275
0.0254186
0.0254093
0.0254005
0.0253912
0.0253826
0.0253731
0.0253647
0.0253552
0.025347
0.0253375
0.0253296
0.0253201
0.0253124
0.0253032
0.0252956
0.0252866
0.0252792
0.0252705
0.0252632
0.0252549
0.0252476
0.0252398
0.0252325
0.0252251
0.0252177
0.0252106
0.0252032
0.0251962
0.0251888
0.0251816
0.0251743
0.0251671
0.0251599
0.0251528
0.0251456
0.0251386
0.0251316
0.0251247
0.0251177
0.025111
0.0251042
0.0250976
0.0250909
0.0250844
0.0250779
0.0250715
0.0250652
0.025059
0.0250528
0.0250467
0.0250406
0.0250346
0.0250287
0.0250228
0.0250169
0.0250111
0.0250053
0.0249995
0.0249938
0.024988
0.0249822
0.0249765
0.0249707
0.024965
0.0249592
0.0249533
0.0249475
0.0249416
0.0249358
0.0249298
0.0249238
0.0249177
0.0249116
0.0249054
0.0248992
0.0248928
0.0248864
0.0248799
0.0248734
0.0248668
0.0248601
0.0248533
0.0248465
0.0248397
0.0248328
0.024826
0.0248191
0.0248122
0.0248053
0.0247984
0.0247915
0.0247846
0.0247778
0.0247709
0.0247641
0.0247574
0.0247506
0.0247438
0.0247371
0.0247304
0.0247237
0.024717
0.0247103
0.0247036
0.0246969
0.0246902
0.0246835
0.0246768
0.0246701
0.0246634
0.0246567
0.02465
0.0246433
0.0246366
0.0246299
0.0246232
0.0246166
0.0246099
0.0246033
0.0245967
0.0245902
0.0245836
0.0245771
0.0245707
0.0245643
0.0245579
0.0245516
0.0245453
0.024539
0.0245329
0.0245267
0.0245206
0.0245146
0.0245087
0.0245028
0.0244969
0.0244912
0.0244854
0.0244798
0.0244742
0.0244686
0.0244631
0.0244576
0.0244522
0.0244469
0.0244416
0.0244364
0.0244312
0.0244261
0.024421
0.024416
0.024411
0.0244062
0.0244013
0.0243965
0.0243918
0.0243872
0.0243826
0.024378
0.0243735
0.024369
0.0243646
0.0243602
0.0243558
0.0243515
0.0243473
0.0243431
0.0243389
0.0243348
0.0243307
0.0243267
0.0243227
0.0243187
0.0243148
0.0243109
0.024307
0.0243032
0.0242994
0.0242956
0.0242919
0.0242882
0.0242845
0.0242809
0.0242773
0.0242737
0.0242702
0.0242667
0.0242633
0.0242599
0.0242565
0.0242532
0.0242499
0.0242467
0.0242435
0.0242404
0.0242372
0.0242341
0.0242311
0.024228
0.024225
0.0242219
0.0242189
0.0242159
0.0242129
0.0242099
0.0242069
0.0242038
0.0242008
0.0241978
0.0241948
0.0241917
0.0241887
0.0241856
0.0241826
0.0241796
0.0241765
0.0241734
0.0241704
0.0241674
0.0241643
0.0241613
0.0241583
0.0241553
0.0241523
0.0241493
0.0241462
0.0241432
0.0241402
0.0241371
0.024134
0.0241309
0.0241279
0.0241247
0.0241216
0.0241184
0.0241153
0.0241121
0.0241089
0.0241056
0.0241024
0.0240991
0.0240958
0.0240925
0.0240892
0.0240858
0.0240824
0.0240789
0.0240754
0.0240718
0.0240683
0.0240646
0.024061
0.0240573
0.0240536
0.0240499
0.0240462
0.0240425
0.0240388
0.0240351
0.0240314
0.0240277
0.024024
0.0240203
0.0240167
0.0240131
0.0240095
0.0240059
0.0240023
0.0239988
0.0239953
0.0239919
0.0239885
0.0239851
0.0239817
0.0239784
0.0239751
0.0239718
0.0239685
0.0239653
0.0239621
0.0239589
0.0239557
0.0239525
0.0239493
0.0239461
0.0239429
0.0239397
0.0239365
0.0239333
0.0239301
0.0239269
0.0239236
0.0239204
0.0239172
0.023914
0.0239107
0.0239075
0.0239042
0.023901
0.0238977
0.0238944
0.023891
0.0238877
0.0238843
0.0238809
0.0238775
0.023874
0.0238706
0.0238671
0.0238635
0.0238599
0.0238563
0.0238526
0.023849
0.0238452
0.0238414
0.0238376
0.0238337
0.0238297
0.0238257
0.0238217
0.0238174
0.0238132
0.0238088
0.0238043
0.0237998
0.023795
0.0237903
0.0237851
0.0237806
0.0237742
0.023771
0.0237617
0.0237606
0.0237465
0.0237461
0.0237279
0.0237283
0.0237077
0.0237085
0.0236893
0.0236897
0.0236802
0.0236772
0.0236644
0.0236588
0.0236345
0.0236568
0.0236538
0.023645
0.0236419
0.0236375
0.0236327
0.0236216
0.0236126
0.0236033
0.0236008
0.0236005
0.023601
)
;

boundaryField
{
    inlet
    {
        type            calculated;
        value           uniform 0;
    }
    endWall
    {
        type            calculated;
        value           uniform 0;
    }
    sideWall
    {
        type            empty;
    }
}


// ************************************************************************* //
