/*--------------------------------*- C++ -*----------------------------------*\
| =========                 |                                                 |
| \\      /  F ield         | foam-extend: Open Source CFD                    |
|  \\    /   O peration     | Version:     3.2                                |
|   \\  /    A nd           | Web:         http://www.foam-extend.org         |
|    \\/     M anipulation  | For copyright notice see file Copyright         |
\*---------------------------------------------------------------------------*/
FoamFile
{
    version     2.0;
    format      ascii;
    class       areaScalarField;
    location    "840";
    object      Cpre;
}
// * * * * * * * * * * * * * * * * * * * * * * * * * * * * * * * * * * * * * //

dimensions      [1 -3 0 0 0 0 0];

internalField   nonuniform List<scalar> 
550
(
0.0261
0.0261
0.0261
0.0261
0.0261
0.0261
0.0261
0.0261
0.0261
0.0260986
0.0261025
0.0261189
0.0261365
0.0261726
0.0262092
0.0262596
0.026274
0.0263008
0.0263132
0.0263117
0.0263241
0.0263283
0.026332
0.0263376
0.0263353
0.0263285
0.0263391
0.0263398
0.0263436
0.0263454
0.0263404
0.0263396
0.0263351
0.0263296
0.026322
0.0263166
0.0263112
0.0263068
0.0263027
0.0263004
0.0262973
0.0262954
0.0262915
0.0262881
0.0262831
0.0262792
0.0262747
0.0262712
0.0262672
0.0262639
0.0262603
0.0262572
0.0262538
0.0262509
0.0262478
0.0262449
0.0262419
0.026239
0.0262359
0.026233
0.0262299
0.0262269
0.0262239
0.026221
0.0262183
0.0262156
0.0262132
0.0262109
0.0262088
0.026207
0.0262054
0.026204
0.0262029
0.0262019
0.0262011
0.0262004
0.0261996
0.0261991
0.0261983
0.0261978
0.0261969
0.0261963
0.0261952
0.0261945
0.0261931
0.0261923
0.0261905
0.0261895
0.0261873
0.026186
0.0261834
0.026182
0.0261789
0.0261773
0.0261738
0.026172
0.026168
0.0261662
0.0261616
0.0261597
0.0261543
0.0261522
0.0261461
0.0261438
0.0261369
0.0261344
0.026127
0.0261242
0.0261164
0.0261134
0.0261053
0.026102
0.0260937
0.02609
0.0260815
0.0260776
0.0260689
0.0260646
0.0260557
0.0260511
0.0260422
0.0260372
0.0260283
0.0260229
0.0260139
0.0260082
0.0259992
0.025993
0.025984
0.0259775
0.0259684
0.0259615
0.0259524
0.0259452
0.025936
0.0259285
0.0259193
0.0259116
0.0259023
0.0258943
0.025885
0.0258769
0.0258675
0.0258592
0.0258497
0.0258413
0.0258316
0.025823
0.0258134
0.0258043
0.025795
0.0257852
0.0257765
0.0257658
0.0257573
0.0257459
0.0257375
0.0257258
0.0257176
0.0257059
0.0256978
0.0256864
0.0256784
0.0256675
0.0256595
0.0256493
0.0256413
0.0256318
0.0256236
0.025615
0.0256066
0.0255984
0.0255898
0.0255811
0.0255723
0.0255634
0.0255545
0.0255454
0.0255364
0.0255272
0.0255183
0.025509
0.0255001
0.0254908
0.0254819
0.0254727
0.0254638
0.0254546
0.0254457
0.0254366
0.0254275
0.0254185
0.0254093
0.0254005
0.0253912
0.0253826
0.0253731
0.0253647
0.0253552
0.025347
0.0253375
0.0253295
0.0253202
0.0253123
0.0253032
0.0252956
0.0252866
0.0252791
0.0252706
0.0252632
0.0252549
0.0252476
0.0252398
0.0252324
0.0252251
0.0252177
0.0252106
0.0252032
0.0251961
0.0251887
0.0251816
0.0251743
0.0251671
0.0251599
0.0251528
0.0251456
0.0251386
0.0251316
0.0251246
0.0251177
0.025111
0.0251042
0.0250975
0.0250909
0.0250844
0.0250779
0.0250715
0.0250652
0.025059
0.0250528
0.0250467
0.0250406
0.0250346
0.0250287
0.0250228
0.0250169
0.0250111
0.0250053
0.0249995
0.0249937
0.024988
0.0249822
0.0249765
0.0249707
0.0249649
0.0249591
0.0249533
0.0249475
0.0249416
0.0249357
0.0249298
0.0249238
0.0249177
0.0249116
0.0249054
0.0248991
0.0248928
0.0248864
0.0248799
0.0248733
0.0248667
0.02486
0.0248533
0.0248465
0.0248397
0.0248328
0.024826
0.0248191
0.0248122
0.0248053
0.0247984
0.0247915
0.0247846
0.0247778
0.0247709
0.0247641
0.0247573
0.0247506
0.0247438
0.0247371
0.0247304
0.0247237
0.024717
0.0247103
0.0247036
0.0246969
0.0246902
0.0246835
0.0246768
0.02467
0.0246633
0.0246566
0.0246499
0.0246433
0.0246366
0.0246299
0.0246232
0.0246165
0.0246099
0.0246033
0.0245967
0.0245902
0.0245836
0.0245771
0.0245707
0.0245643
0.0245579
0.0245516
0.0245453
0.024539
0.0245329
0.0245267
0.0245206
0.0245146
0.0245087
0.0245028
0.0244969
0.0244912
0.0244854
0.0244798
0.0244741
0.0244686
0.0244631
0.0244576
0.0244522
0.0244469
0.0244416
0.0244364
0.0244312
0.0244261
0.024421
0.024416
0.024411
0.0244062
0.0244013
0.0243965
0.0243918
0.0243872
0.0243826
0.024378
0.0243735
0.024369
0.0243646
0.0243602
0.0243558
0.0243515
0.0243473
0.0243431
0.0243389
0.0243348
0.0243307
0.0243267
0.0243227
0.0243187
0.0243148
0.0243109
0.024307
0.0243032
0.0242994
0.0242956
0.0242919
0.0242882
0.0242845
0.0242809
0.0242773
0.0242737
0.0242702
0.0242667
0.0242633
0.0242599
0.0242565
0.0242532
0.02425
0.0242467
0.0242435
0.0242404
0.0242372
0.0242341
0.0242311
0.024228
0.024225
0.0242219
0.0242189
0.0242159
0.0242129
0.0242099
0.0242069
0.0242038
0.0242008
0.0241978
0.0241948
0.0241917
0.0241887
0.0241856
0.0241826
0.0241796
0.0241765
0.0241734
0.0241704
0.0241674
0.0241643
0.0241613
0.0241583
0.0241553
0.0241523
0.0241493
0.0241462
0.0241432
0.0241401
0.0241371
0.024134
0.0241309
0.0241278
0.0241247
0.0241216
0.0241184
0.0241152
0.0241121
0.0241089
0.0241056
0.0241024
0.0240991
0.0240958
0.0240925
0.0240892
0.0240858
0.0240824
0.0240789
0.0240754
0.0240718
0.0240683
0.0240646
0.024061
0.0240573
0.0240536
0.0240499
0.0240462
0.0240425
0.0240388
0.0240351
0.0240314
0.0240277
0.024024
0.0240204
0.0240167
0.0240131
0.0240095
0.0240059
0.0240023
0.0239988
0.0239953
0.0239919
0.0239885
0.0239851
0.0239817
0.0239784
0.0239751
0.0239718
0.0239685
0.0239653
0.0239621
0.0239589
0.0239557
0.0239524
0.0239492
0.023946
0.0239429
0.0239397
0.0239364
0.0239332
0.02393
0.0239268
0.0239236
0.0239204
0.0239172
0.0239139
0.0239107
0.0239075
0.0239042
0.0239009
0.0238977
0.0238943
0.023891
0.0238877
0.0238843
0.0238809
0.0238775
0.023874
0.0238705
0.023867
0.0238635
0.0238599
0.0238563
0.0238526
0.0238489
0.0238452
0.0238414
0.0238376
0.0238337
0.0238297
0.0238257
0.0238216
0.0238174
0.0238132
0.0238088
0.0238044
0.0237998
0.0237951
0.0237904
0.0237852
0.0237807
0.0237744
0.023771
0.023762
0.0237605
0.023747
0.0237459
0.0237286
0.0237281
0.0237085
0.0237085
0.0236901
0.0236896
0.0236805
0.0236773
0.023665
0.023659
0.0236355
0.0236561
0.0236538
0.023645
0.0236419
0.0236375
0.0236327
0.0236216
0.0236126
0.0236033
0.0236008
0.0236005
0.023601
)
;

boundaryField
{
    inlet
    {
        type            calculated;
        value           uniform 0;
    }
    endWall
    {
        type            calculated;
        value           uniform 0;
    }
    sideWall
    {
        type            empty;
    }
}


// ************************************************************************* //
