/*--------------------------------*- C++ -*----------------------------------*\
| =========                 |                                                 |
| \\      /  F ield         | foam-extend: Open Source CFD                    |
|  \\    /   O peration     | Version:     3.2                                |
|   \\  /    A nd           | Web:         http://www.foam-extend.org         |
|    \\/     M anipulation  | For copyright notice see file Copyright         |
\*---------------------------------------------------------------------------*/
FoamFile
{
    version     2.0;
    format      ascii;
    class       areaScalarField;
    location    "840";
    object      Cs;
}
// * * * * * * * * * * * * * * * * * * * * * * * * * * * * * * * * * * * * * //

dimensions      [0 0 0 0 0 0 0];

internalField   nonuniform List<scalar> 
550
(
0.434383
0.433982
0.434383
0.434383
0.434383
0.434383
0.431692
0.434383
0.434383
0.429919
0.434383
0.434383
0.237321
0.215682
0.432584
0.433993
0.434383
0.434383
0.434383
0.434383
0.223809
0.256636
0.244049
0.296588
0.434383
0.434383
0.434383
0.434383
0.340257
0.364661
0.405917
0.434383
0.434733
0.431927
0.426275
0.420918
0.416673
0.416322
0.413853
0.412678
0.411477
0.411136
0.411427
0.412219
0.411886
0.410756
0.40933
0.407976
0.406734
0.405561
0.404389
0.403217
0.402077
0.400963
0.3999
0.398832
0.397808
0.396813
0.39579
0.394734
0.393678
0.392637
0.391599
0.390569
0.389574
0.388627
0.387752
0.386958
0.386277
0.385708
0.385272
0.38494
0.384722
0.384588
0.384521
0.3845
0.384531
0.384605
0.384694
0.384813
0.384936
0.385078
0.385234
0.385402
0.385553
0.385728
0.385879
0.386028
0.386178
0.386327
0.386479
0.386608
0.386765
0.386903
0.387045
0.387193
0.387349
0.387513
0.387655
0.387828
0.387975
0.388145
0.388281
0.388437
0.388558
0.388697
0.388829
0.388926
0.389042
0.389124
0.389228
0.389326
0.389388
0.389474
0.389525
0.389602
0.389643
0.389712
0.389747
0.389781
0.389812
0.389842
0.389872
0.389903
0.389935
0.389967
0.389965
0.390001
0.390003
0.390008
0.390015
0.390026
0.390041
0.39006
0.390085
0.390076
0.390112
0.390114
0.390122
0.390135
0.390154
0.390179
0.390209
0.390202
0.390245
0.390249
0.390303
0.390317
0.390336
0.39036
0.390388
0.390419
0.390407
0.390445
0.390439
0.390483
0.390484
0.390487
0.390541
0.390552
0.390566
0.390537
0.390562
0.390592
0.390627
0.390619
0.390667
0.390673
0.390683
0.3907
0.390723
0.390802
0.390837
0.390826
0.390869
0.390916
0.390965
0.391016
0.391068
0.391068
0.391118
0.391116
0.391162
0.391205
0.391194
0.39123
0.391212
0.391239
0.391212
0.39118
0.391195
0.391155
0.391162
0.391114
0.391064
0.391061
0.391006
0.390949
0.390942
0.390882
0.390824
0.390765
0.390759
0.3907
0.390642
0.390634
0.390574
0.39056
0.390488
0.390461
0.390374
0.390332
0.390231
0.390175
0.390112
0.389992
0.389919
0.389841
0.389709
0.389625
0.389539
0.389452
0.389313
0.389227
0.389142
0.389008
0.38893
0.388857
0.388736
0.388673
0.388616
0.388515
0.388473
0.388388
0.388362
0.388294
0.388236
0.388238
0.388198
0.388168
0.388199
0.388188
0.388186
0.388193
0.38826
0.388284
0.388317
0.388357
0.388405
0.38846
0.388523
0.388594
0.388669
0.388752
0.38884
0.388881
0.388979
0.389082
0.389189
0.389301
0.389364
0.389483
0.389607
0.389682
0.389815
0.389952
0.39004
0.390187
0.390284
0.390439
0.390547
0.390659
0.390828
0.390948
0.391072
0.3912
0.391383
0.391516
0.39165
0.391785
0.391921
0.392055
0.392239
0.392366
0.392488
0.392604
0.392763
0.392862
0.39295
0.393079
0.393145
0.393248
0.393288
0.393364
0.393377
0.393428
0.393465
0.393489
0.393453
0.393455
0.393445
0.393425
0.393394
0.393354
0.393256
0.393197
0.39313
0.393053
0.39297
0.392878
0.39278
0.392675
0.392562
0.392443
0.392367
0.392235
0.392098
0.391955
0.391807
0.391655
0.391547
0.391387
0.391223
0.391106
0.390937
0.390766
0.390641
0.390466
0.39029
0.390161
0.389982
0.389803
0.389672
0.389492
0.389363
0.389186
0.389058
0.388884
0.388762
0.388594
0.388479
0.388369
0.388214
0.388115
0.387971
0.387884
0.387803
0.387678
0.38761
0.387549
0.387443
0.387395
0.387354
0.387267
0.387237
0.387161
0.387145
0.387082
0.387077
0.387024
0.38703
0.386988
0.387006
0.386974
0.387002
0.386976
0.386955
0.38699
0.386971
0.387008
0.386989
0.387027
0.387008
0.387044
0.387024
0.38706
0.38704
0.387075
0.387055
0.387092
0.387074
0.387115
0.387102
0.387151
0.387145
0.387145
0.387209
0.38722
0.387297
0.38732
0.38735
0.387388
0.387434
0.387547
0.387609
0.387677
0.387753
0.387838
0.387929
0.388027
0.388129
0.388239
0.388356
0.388475
0.388599
0.388724
0.38879
0.388919
0.389045
0.389171
0.389293
0.389412
0.389586
0.389693
0.389792
0.389883
0.389964
0.390038
0.390102
0.390157
0.390264
0.390303
0.390336
0.390361
0.39038
0.390394
0.390461
0.390462
0.390459
0.390451
0.390439
0.390422
0.390401
0.390374
0.3904
0.390364
0.39032
0.39027
0.390212
0.390206
0.390134
0.390053
0.39002
0.389923
0.389816
0.38976
0.389638
0.389508
0.389428
0.389284
0.389188
0.389029
0.388863
0.388746
0.388567
0.38844
0.388251
0.388116
0.387921
0.387783
0.387586
0.387447
0.38725
0.387113
0.386918
0.386782
0.386589
0.386455
0.38632
0.386127
0.385992
0.385796
0.385659
0.385521
0.38532
0.385181
0.384978
0.384839
0.3847
0.3845
0.384365
0.384171
0.384043
0.383922
0.383741
0.383567
0.383463
0.383302
0.383212
0.383065
0.382926
0.382861
0.382741
0.382629
0.382592
0.382499
0.382412
0.382399
0.382325
0.382255
0.382256
0.382195
0.382136
0.382149
0.382097
0.382048
0.382072
0.382031
0.381992
0.382022
0.381984
0.381945
0.381975
0.381932
0.381887
0.38191
0.381861
0.381883
0.381834
0.381788
0.381813
0.381773
0.381735
0.381774
0.381743
0.381788
0.38176
0.381801
0.381834
0.381847
0.381915
0.38196
0.382074
0.381955
0.381994
0.381109
0.379724
0.374431
0.353519
0.434047
0.434383
0.434383
0.434383
0.434383
0.434383
0.434383
0.434383
0.434383
0.230387
0.246925
)
;

boundaryField
{
    inlet
    {
        type            calculated;
        value           uniform 0;
    }
    endWall
    {
        type            calculated;
        value           uniform 0;
    }
    sideWall
    {
        type            empty;
    }
}


// ************************************************************************* //
