/*--------------------------------*- C++ -*----------------------------------*\
| =========                 |                                                 |
| \\      /  F ield         | foam-extend: Open Source CFD                    |
|  \\    /   O peration     | Version:     3.2                                |
|   \\  /    A nd           | Web:         http://www.foam-extend.org         |
|    \\/     M anipulation  | For copyright notice see file Copyright         |
\*---------------------------------------------------------------------------*/
FoamFile
{
    version     2.0;
    format      ascii;
    class       areaScalarField;
    location    "840";
    object      dd;
}
// * * * * * * * * * * * * * * * * * * * * * * * * * * * * * * * * * * * * * //

dimensions      [0 1 0 0 0 0 0];

internalField   nonuniform List<scalar> 
550
(
0.000405
0.000405
0.000405
0.000405
0.000404999
0.000405
0.000405
0.000405
0.000405
0.000405
0.000351871
0.000400132
0.000389643
0.000396674
0.000405184
0.000408655
0.000436955
0.000450165
0.000421766
0.00054286
0.000733654
0.000827357
0.000879372
0.000915616
0.00100724
0.00123744
0.0015566
0.00170678
0.00191111
0.00214595
0.00254584
0.00306225
0.0036203
0.0042003
0.00472679
0.00518931
0.00559309
0.00597984
0.00636273
0.00672172
0.00706655
0.00739941
0.00773141
0.00807666
0.00843069
0.0087804
0.009116
0.00943948
0.00975058
0.0100532
0.0103459
0.0106309
0.0109067
0.0111756
0.011437
0.0116927
0.0119419
0.0121864
0.0124254
0.0126588
0.0128857
0.0131064
0.01332
0.0135259
0.0137232
0.0139116
0.0140909
0.0142611
0.0144224
0.0145754
0.0147207
0.0148585
0.0149898
0.0151146
0.0152342
0.0153479
0.0154571
0.0155613
0.015662
0.0157585
0.0158524
0.0159426
0.0160309
0.0161164
0.0162004
0.0162817
0.0163622
0.0164398
0.0165168
0.0165916
0.0166664
0.0167391
0.016812
0.0168828
0.0169544
0.0170237
0.0170949
0.0171635
0.017235
0.0173031
0.0173759
0.0174447
0.0175185
0.0175877
0.0176619
0.0177313
0.0178047
0.0178736
0.0179449
0.0180124
0.018081
0.0181467
0.0182129
0.0182764
0.0183393
0.0184003
0.0184599
0.0185185
0.018575
0.018631
0.0186839
0.0187372
0.0187868
0.0188376
0.0188846
0.0189335
0.0189785
0.0190256
0.019069
0.0191147
0.0191565
0.0192008
0.0192417
0.0192854
0.0193262
0.0193695
0.0194101
0.0194534
0.0194942
0.0195374
0.0195787
0.0196225
0.0196651
0.0197098
0.0197535
0.0197996
0.0198454
0.0198945
0.0199422
0.0199944
0.0200434
0.0200998
0.0201496
0.0202106
0.020262
0.0203234
0.0203744
0.0204319
0.0204796
0.0205313
0.0205744
0.0206169
0.0206529
0.0206846
0.0207141
0.020736
0.020759
0.0207722
0.0207903
0.0207966
0.0208117
0.0208164
0.0208321
0.0208399
0.0208539
0.0208619
0.0208744
0.0208829
0.0208952
0.0209052
0.0209174
0.0209277
0.0209397
0.0209509
0.020964
0.0209765
0.020991
0.021005
0.0210217
0.0210371
0.0210555
0.0210724
0.0210927
0.021111
0.0211324
0.021151
0.0211737
0.0211925
0.0212147
0.0212335
0.0212549
0.0212725
0.0212918
0.0213085
0.0213252
0.0213401
0.0213542
0.0213677
0.0213788
0.0213906
0.0213986
0.0214087
0.0214139
0.0214228
0.0214266
0.0214358
0.0214394
0.0214493
0.021455
0.0214654
0.0214731
0.0214846
0.0214942
0.0215059
0.0215166
0.0215292
0.0215403
0.0215531
0.021565
0.0215774
0.0215894
0.021602
0.0216138
0.0216258
0.0216372
0.0216488
0.0216596
0.0216701
0.0216807
0.0216908
0.0217005
0.0217106
0.0217202
0.0217291
0.0217377
0.0217466
0.0217551
0.0217631
0.0217708
0.0217781
0.0217849
0.0217914
0.0217976
0.0218034
0.0218093
0.0218146
0.021819
0.021823
0.0218267
0.0218305
0.0218337
0.021836
0.0218382
0.0218399
0.0218405
0.0218411
0.0218412
0.0218405
0.0218393
0.0218374
0.0218352
0.0218319
0.0218279
0.0218237
0.0218186
0.0218124
0.0218056
0.0217988
0.0217913
0.0217831
0.0217744
0.0217648
0.0217549
0.0217453
0.0217353
0.0217247
0.0217142
0.0217039
0.0216934
0.0216829
0.0216726
0.0216625
0.0216527
0.0216428
0.0216333
0.0216236
0.0216142
0.0216055
0.0215969
0.0215882
0.0215799
0.0215719
0.0215645
0.0215578
0.0215514
0.021545
0.0215391
0.0215338
0.0215292
0.0215252
0.021522
0.0215196
0.0215179
0.021517
0.0215171
0.0215188
0.0215216
0.0215255
0.0215304
0.0215362
0.0215433
0.0215523
0.0215621
0.0215731
0.0215861
0.0216
0.0216152
0.0216322
0.0216501
0.0216693
0.0216902
0.0217118
0.0217346
0.0217587
0.0217837
0.02181
0.0218373
0.0218654
0.0218946
0.0219246
0.0219551
0.0219868
0.0220192
0.0220523
0.0220859
0.0221197
0.0221546
0.0221901
0.0222256
0.0222624
0.0222994
0.0223367
0.022375
0.0224133
0.0224519
0.0224905
0.0225291
0.0225678
0.0226065
0.0226451
0.0226838
0.0227224
0.0227609
0.0227996
0.0228383
0.0228772
0.0229155
0.0229539
0.0229924
0.0230311
0.0230696
0.0231084
0.0231471
0.0231858
0.0232245
0.0232631
0.0233018
0.0233403
0.0233786
0.0234169
0.0234551
0.0234929
0.0235306
0.0235682
0.0236057
0.0236423
0.0236786
0.0237149
0.023751
0.0237872
0.023823
0.0238582
0.0238924
0.0239262
0.0239601
0.0239934
0.0240261
0.0240582
0.0240898
0.0241209
0.0241514
0.0241815
0.0242112
0.0242405
0.0242697
0.0242991
0.0243279
0.0243559
0.0243836
0.0244113
0.0244389
0.024466
0.0244934
0.0245217
0.02455
0.0245786
0.0246073
0.0246361
0.024665
0.0246938
0.024723
0.0247532
0.0247835
0.0248141
0.0248448
0.0248753
0.0249065
0.0249386
0.0249709
0.0250037
0.0250369
0.0250705
0.0251045
0.0251387
0.0251738
0.0252103
0.0252476
0.0252858
0.0253245
0.0253643
0.0254053
0.0254464
0.0254887
0.0255318
0.0255749
0.025619
0.0256638
0.0257084
0.0257537
0.0257995
0.0258458
0.0258925
0.0259389
0.0259857
0.0260327
0.0260796
0.0261268
0.0261739
0.026221
0.0262681
0.0263152
0.0263621
0.026409
0.0264557
0.0265025
0.0265493
0.0265957
0.0266422
0.0266893
0.0267362
0.0267832
0.0268299
0.0268764
0.0269235
0.0269703
0.027017
0.0270632
0.0271091
0.0271555
0.0272015
0.027247
0.027292
0.0273365
0.0273814
0.0274259
0.0274691
0.027512
0.0275545
0.0275965
0.0276383
0.0276788
0.0277191
0.0277592
0.0277983
0.0278372
0.0278762
0.0279143
0.0279526
0.0279912
0.0280289
0.0280672
0.0281058
0.028144
0.0281829
0.0282225
0.0282619
0.0283024
0.0283441
0.0283864
0.0284304
0.0284764
0.0285236
0.0285737
0.0286267
0.0286825
0.0287425
0.0288064
0.0288764
0.02895
0.0290331
0.029117
0.0292213
0.0293152
0.0294526
0.0295558
0.0297339
0.0298393
0.0300271
0.0300958
0.030226
0.0301843
0.0301308
0.0298577
0.0294275
0.0287435
0.0276622
0.0260154
0.023208
0.0182147
0.00751192
0.00040495
0.000405
0.000405
0.00040495
0.000405
0.00040505
0.000405
0.000405
0.00040505
0.000405
)
;

boundaryField
{
    inlet
    {
        type            calculated;
        value           uniform 0;
    }
    endWall
    {
        type            calculated;
        value           uniform 0;
    }
    sideWall
    {
        type            empty;
    }
}


// ************************************************************************* //
