/*--------------------------------*- C++ -*----------------------------------*\
| =========                 |                                                 |
| \\      /  F ield         | foam-extend: Open Source CFD                    |
|  \\    /   O peration     | Version:     3.2                                |
|   \\  /    A nd           | Web:         http://www.foam-extend.org         |
|    \\/     M anipulation  | For copyright notice see file Copyright         |
\*---------------------------------------------------------------------------*/
FoamFile
{
    version     2.0;
    format      ascii;
    class       areaScalarField;
    location    "840";
    object      ddmax;
}
// * * * * * * * * * * * * * * * * * * * * * * * * * * * * * * * * * * * * * //

dimensions      [0 1 0 0 0 0 0];

internalField   nonuniform List<scalar> 
550
(
0.000405
0.000405
0.000405
0.000405
0.000405
0.000405
0.000405
0.000405
0.000405
0.000405
0.000426546
0.00043552
0.000429246
0.00044704
0.000451814
0.000475622
0.000484773
0.000476858
0.000464504
0.000582538
0.000819305
0.000896336
0.000962804
0.000965455
0.00106962
0.00127047
0.00161975
0.00177013
0.00197172
0.00219253
0.00256583
0.00306694
0.0036822
0.00425902
0.00478881
0.00526483
0.00567843
0.00608497
0.00647899
0.00685204
0.00720822
0.00755344
0.00789809
0.00825812
0.00862248
0.00898136
0.00932354
0.00965162
0.00996802
0.0102769
0.0105745
0.0108644
0.0111436
0.0114184
0.0116843
0.011945
0.0121976
0.0124464
0.0126891
0.0129267
0.0131579
0.0133832
0.0135993
0.0138072
0.0140058
0.0141966
0.0143787
0.0145544
0.0147182
0.0148748
0.0150206
0.0151655
0.0153004
0.0154352
0.0155602
0.015684
0.0157988
0.0159148
0.0160235
0.0161313
0.016234
0.0163352
0.0164323
0.0165277
0.0166203
0.0167134
0.016801
0.0168872
0.0169728
0.0170574
0.0171379
0.0172164
0.0172928
0.0173672
0.0174417
0.0175118
0.0175806
0.0176487
0.0177149
0.0177807
0.0178466
0.0179075
0.0179667
0.0180207
0.0180844
0.018142
0.0181988
0.0182546
0.0183154
0.0183696
0.0184234
0.018476
0.0185326
0.0185825
0.0186352
0.0186881
0.0187428
0.0187917
0.0188472
0.0188996
0.0189518
0.0190003
0.0190536
0.0191005
0.0191537
0.0192034
0.0192546
0.0193014
0.0193518
0.0193994
0.0194495
0.0194966
0.019545
0.0195947
0.0196459
0.0196908
0.0197411
0.0197894
0.0198368
0.0198814
0.0199295
0.0199731
0.0200189
0.0200597
0.0201026
0.0201435
0.0201859
0.0202224
0.0202589
0.0202898
0.0203298
0.0203659
0.0204046
0.0204393
0.0204751
0.0205054
0.0205388
0.0205655
0.0205949
0.0206154
0.0206393
0.0206634
0.0206892
0.0207052
0.0207258
0.0207372
0.0207592
0.020775
0.0208084
0.020839
0.0208683
0.0208957
0.0209235
0.0209491
0.0209728
0.0209948
0.0210149
0.0210338
0.021057
0.0210781
0.0211018
0.0211238
0.0211441
0.0211628
0.0211791
0.0211947
0.0212076
0.021221
0.021232
0.0212424
0.021249
0.0212588
0.0212711
0.0212843
0.0212935
0.0213029
0.0213099
0.0213183
0.0213212
0.0213267
0.0213295
0.0213362
0.0213411
0.0213499
0.0213536
0.0213641
0.0213714
0.0213804
0.0213847
0.0213925
0.0213986
0.0214087
0.0214139
0.0214228
0.0214266
0.0214358
0.0214394
0.0214493
0.021455
0.0214654
0.0214731
0.0214846
0.0214942
0.0215059
0.0215166
0.0215292
0.0215403
0.0215534
0.0215656
0.0215782
0.0215905
0.0216033
0.0216152
0.0216274
0.0216388
0.0216506
0.0216613
0.021672
0.0216826
0.0216927
0.0217024
0.0217124
0.021722
0.0217308
0.0217394
0.0217483
0.0217567
0.0217647
0.0217723
0.0217795
0.0217863
0.0217927
0.0217988
0.0218045
0.0218102
0.0218154
0.0218196
0.0218235
0.0218271
0.0218307
0.0218339
0.0218361
0.0218382
0.0218399
0.0218405
0.0218411
0.0218412
0.0218405
0.0218393
0.0218374
0.0218352
0.0218319
0.0218279
0.0218237
0.0218186
0.0218124
0.0218056
0.0217988
0.0217913
0.0217831
0.0217765
0.0217693
0.0217618
0.0217547
0.0217472
0.021739
0.0217309
0.0217229
0.0217146
0.0217061
0.0216977
0.0216894
0.0216812
0.0216728
0.0216646
0.0216559
0.0216475
0.0216396
0.0216316
0.0216234
0.0216153
0.0216074
0.0215999
0.0215929
0.021586
0.0215789
0.0215721
0.0215656
0.0215595
0.0215538
0.0215486
0.0215444
0.021542
0.02154
0.0215387
0.0215385
0.0215391
0.0215431
0.0215485
0.0215547
0.0215618
0.0215706
0.02158
0.0215905
0.0216027
0.0216157
0.0216298
0.0216456
0.0216622
0.02168
0.0216996
0.0217198
0.0217414
0.0217643
0.021788
0.0218132
0.0218393
0.0218664
0.0218946
0.0219246
0.0219551
0.0219868
0.0220192
0.0220523
0.022095
0.0221392
0.0221834
0.022227
0.0222697
0.0223126
0.0223549
0.0223965
0.0224383
0.0224795
0.0225207
0.0225614
0.0226016
0.0226415
0.022681
0.0227202
0.0227593
0.0227981
0.0228366
0.0228752
0.0229135
0.0229518
0.0229894
0.0230269
0.0230643
0.0231017
0.0231388
0.0231759
0.0232129
0.0232499
0.0232868
0.0233235
0.0233602
0.0233966
0.0234333
0.0234697
0.0235061
0.0235421
0.0235779
0.0236133
0.0236486
0.0236831
0.0237171
0.023751
0.0237845
0.0238181
0.0238511
0.0238833
0.0239143
0.0239449
0.0239754
0.0240052
0.0240343
0.0240626
0.0240909
0.0241217
0.0241519
0.0241817
0.0242112
0.0242405
0.0242697
0.0242991
0.0243279
0.0243559
0.0243836
0.0244113
0.0244389
0.024466
0.0244934
0.0245217
0.02455
0.0245786
0.0246073
0.0246361
0.024665
0.0246942
0.0247241
0.024755
0.0247862
0.0248177
0.0248495
0.0248812
0.0249136
0.024947
0.0249807
0.0250149
0.0250495
0.0250846
0.0251202
0.0251561
0.0251935
0.025232
0.025271
0.0253105
0.0253502
0.0253909
0.0254326
0.0254743
0.025517
0.0255606
0.025604
0.0256492
0.0256951
0.0257409
0.0257875
0.0258345
0.0258819
0.0259299
0.0259776
0.0260258
0.0260742
0.0261227
0.0261715
0.0262203
0.0262691
0.0263178
0.0263665
0.026415
0.0264634
0.0265116
0.0265598
0.026608
0.0266559
0.0267038
0.0267524
0.0268005
0.0268487
0.0268965
0.026944
0.0269921
0.0270396
0.027087
0.0271337
0.0271799
0.0272263
0.0272721
0.0273171
0.0273615
0.0274052
0.0274489
0.0274921
0.0275338
0.027575
0.0276156
0.0276557
0.0276954
0.0277338
0.0277719
0.0278115
0.02785
0.0278882
0.0279263
0.0279634
0.0280005
0.0280377
0.028074
0.0281105
0.0281474
0.0281836
0.0282202
0.0282576
0.0282949
0.0283334
0.0283738
0.0284149
0.0284578
0.0285027
0.028549
0.0285982
0.0286504
0.0287054
0.0287648
0.0288281
0.0288977
0.0289709
0.0290537
0.0291374
0.0292415
0.0293351
0.0294724
0.0295753
0.029753
0.0298579
0.0300451
0.0301132
0.0302422
0.0301994
0.0301441
0.0298695
0.0294365
0.0287505
0.0276658
0.0260154
0.023208
0.0182155
0.00751257
0.000405
0.000405
0.000405
0.000405
0.000405
0.00040505
0.000405
0.000405
0.00040505
0.000405
)
;

boundaryField
{
    inlet
    {
        type            calculated;
        value           uniform 0;
    }
    endWall
    {
        type            calculated;
        value           uniform 0;
    }
    sideWall
    {
        type            empty;
    }
}


// ************************************************************************* //
