/*--------------------------------*- C++ -*----------------------------------*\
| =========                 |                                                 |
| \\      /  F ield         | foam-extend: Open Source CFD                    |
|  \\    /   O peration     | Version:     3.2                                |
|   \\  /    A nd           | Web:         http://www.foam-extend.org         |
|    \\/     M anipulation  | For copyright notice see file Copyright         |
\*---------------------------------------------------------------------------*/
FoamFile
{
    version     2.0;
    format      ascii;
    class       areaScalarField;
    location    "840";
    object      deltaH;
}
// * * * * * * * * * * * * * * * * * * * * * * * * * * * * * * * * * * * * * //

dimensions      [0 1 -1 0 0 0 0];

internalField   nonuniform List<scalar> 
550
(
0
0
0
0
0
0
0
0
0
0
0
9.62599e-06
2.1823e-05
0
-3.13024e-05
-5.55775e-06
-5.27503e-06
-3.4916e-06
-1.71455e-06
2.12368e-05
2.15993e-05
8.18629e-07
-3.32522e-07
-1.37578e-05
-1.1884e-05
8.12182e-07
-1.94772e-06
6.6995e-06
7.74947e-06
-1.80964e-06
-2.67263e-06
-1.16195e-06
4.69984e-07
2.88284e-08
6.13891e-08
3.38918e-08
3.77532e-08
-1.33561e-08
1.936e-08
-3.02771e-08
3.18709e-08
-2.40598e-08
4.04952e-08
-2.34304e-08
3.24338e-08
-3.51982e-08
1.69895e-08
-3.11894e-08
1.97302e-08
-2.00269e-08
1.51762e-08
-1.9614e-08
3.68556e-09
-2.18636e-08
-2.97844e-09
-1.88138e-08
-3.74921e-09
-1.15788e-08
4.35069e-10
-1.88528e-09
7.43368e-09
7.8378e-09
1.45105e-08
1.34938e-08
1.57558e-08
1.39439e-08
1.12659e-08
5.54618e-09
8.2572e-10
-4.60342e-09
-9.34784e-09
-1.20032e-08
-1.0938e-08
-1.03156e-08
-5.43019e-09
-6.17212e-09
4.05125e-10
-4.68411e-09
3.93739e-09
-6.50381e-09
5.68212e-09
-9.71359e-09
8.19514e-09
-1.17961e-08
1.28288e-08
-1.33905e-08
1.80315e-08
-1.66188e-08
2.11341e-08
-2.31129e-08
2.17814e-08
-3.17034e-08
2.17262e-08
-4.18512e-08
2.27123e-08
-5.1232e-08
2.7205e-08
-5.91771e-08
3.63708e-08
-6.68916e-08
4.84326e-08
-7.81864e-08
5.98e-08
-9.19018e-08
6.97781e-08
-1.03985e-07
7.88408e-08
-1.12588e-07
8.80413e-08
-1.16719e-07
9.74243e-08
-1.17031e-07
1.05989e-07
-1.14813e-07
1.12432e-07
-1.11133e-07
1.16284e-07
-1.06266e-07
1.17714e-07
-1.0003e-07
1.17251e-07
-9.20973e-08
1.15514e-07
-8.27818e-08
1.12423e-07
-7.28657e-08
1.07796e-07
-6.32062e-08
1.0174e-07
-5.42826e-08
9.44906e-08
-4.65729e-08
8.61978e-08
-4.04863e-08
7.72632e-08
-3.59118e-08
6.82438e-08
-3.26015e-08
5.96645e-08
-3.04134e-08
5.17747e-08
-2.93193e-08
4.46042e-08
-2.95736e-08
3.78636e-08
-3.17316e-08
3.08614e-08
-3.47901e-08
2.20864e-08
-3.36894e-08
8.61606e-09
-2.72251e-08
-1.22765e-08
-1.43166e-08
-3.87316e-08
3.87813e-09
-6.07916e-08
2.35235e-08
-7.70681e-08
4.18645e-08
-8.66703e-08
5.67732e-08
-8.92009e-08
6.6899e-08
-8.48317e-08
7.12825e-08
-7.47499e-08
6.95171e-08
-6.05789e-08
6.1477e-08
-4.46929e-08
4.75529e-08
-3.19489e-08
3.73447e-08
-2.2764e-08
3.08104e-08
-1.53321e-08
2.58724e-08
-1.14193e-08
2.2207e-08
-8.61427e-09
1.93458e-08
-7.31529e-09
1.61927e-08
-7.7085e-09
1.24151e-08
-9.81487e-09
7.66216e-09
-1.2177e-08
1.62252e-09
-1.30162e-08
-5.44102e-09
-1.223e-08
-1.31108e-08
-9.63619e-09
-2.09408e-08
-5.28627e-09
-2.84742e-08
5.09925e-10
-3.53196e-08
7.16898e-09
-4.07477e-08
1.44388e-08
-4.42819e-08
2.17439e-08
-4.52779e-08
2.82967e-08
-4.37064e-08
3.32861e-08
-3.96559e-08
3.60663e-08
-3.35304e-08
3.60935e-08
-2.60919e-08
3.31308e-08
-1.83363e-08
2.72695e-08
-1.17186e-08
2.0873e-08
-7.36002e-09
1.5554e-08
-5.0651e-09
1.08899e-08
-4.16463e-09
6.87741e-09
-4.16155e-09
3.42951e-09
-4.67077e-09
5.67212e-10
-5.37447e-09
-1.72912e-09
-6.08664e-09
-3.48265e-09
-6.68429e-09
-4.78576e-09
-7.17481e-09
-5.73409e-09
-7.32642e-09
-6.48036e-09
-7.66288e-09
-6.91034e-09
-7.40249e-09
-6.79546e-09
-7.13266e-09
-6.56788e-09
-6.66613e-09
-6.16536e-09
-6.11427e-09
-5.68011e-09
-5.6151e-09
-5.32887e-09
-5.32502e-09
-5.15988e-09
-5.17437e-09
-5.07107e-09
-5.09326e-09
-5.02848e-09
-4.9279e-09
-4.651e-09
-4.18359e-09
-3.40807e-09
-2.45787e-09
-1.24685e-09
2.05587e-10
1.81274e-09
3.65079e-09
5.68402e-09
7.81296e-09
1.00317e-08
1.23686e-08
1.46938e-08
1.70076e-08
1.9135e-08
2.10492e-08
2.25513e-08
2.36551e-08
2.42599e-08
2.44917e-08
2.43005e-08
2.38662e-08
2.30812e-08
2.20753e-08
2.0691e-08
1.90791e-08
1.71576e-08
1.51748e-08
1.30852e-08
1.1144e-08
9.26297e-09
7.64413e-09
6.13976e-09
4.92384e-09
3.83912e-09
3.0664e-09
2.47424e-09
2.26378e-09
2.25293e-09
2.55311e-09
2.93208e-09
3.51158e-09
4.07849e-09
4.75175e-09
5.36889e-09
6.09863e-09
6.75207e-09
7.45425e-09
8.01206e-09
8.52739e-09
8.90854e-09
9.2307e-09
9.40164e-09
9.55182e-09
9.49368e-09
9.35063e-09
8.91142e-09
8.48018e-09
7.93075e-09
7.12619e-09
5.93681e-09
4.51634e-09
3.04334e-09
1.44047e-09
-1.03199e-10
-1.34372e-09
-2.43446e-09
-3.14795e-09
-3.75039e-09
-3.96124e-09
-4.18024e-09
-4.04498e-09
-4.00028e-09
-3.59324e-09
-3.32862e-09
-2.70004e-09
-2.30708e-09
-1.57637e-09
-1.10658e-09
-2.92518e-10
2.50289e-10
1.12184e-09
1.63878e-09
2.33228e-09
2.63799e-09
3.19195e-09
3.38236e-09
3.90357e-09
4.22646e-09
4.89159e-09
5.11433e-09
6.96385e-09
7.25255e-09
8.67083e-09
9.32136e-09
1.05345e-08
1.1373e-08
1.26363e-08
1.36667e-08
1.51404e-08
1.64086e-08
1.80059e-08
1.94301e-08
2.09869e-08
2.23586e-08
2.36313e-08
2.45816e-08
2.53986e-08
2.57459e-08
2.61857e-08
2.60765e-08
2.62689e-08
2.58861e-08
2.59101e-08
2.52662e-08
2.51003e-08
2.42088e-08
2.3824e-08
2.26376e-08
2.20313e-08
2.06312e-08
1.99302e-08
1.85097e-08
1.78737e-08
1.65562e-08
1.59986e-08
1.49598e-08
1.43536e-08
1.35933e-08
1.29069e-08
1.21681e-08
1.1598e-08
1.09961e-08
1.10364e-08
1.06631e-08
1.09469e-08
1.10841e-08
1.17358e-08
1.22255e-08
1.30681e-08
1.35662e-08
1.41536e-08
1.42528e-08
1.43524e-08
1.39365e-08
1.35614e-08
1.27291e-08
1.20139e-08
1.09189e-08
1.0148e-08
9.09783e-09
8.40162e-09
7.47386e-09
6.97466e-09
6.29734e-09
5.90128e-09
5.37646e-09
5.09593e-09
4.65394e-09
4.45699e-09
4.13848e-09
4.127e-09
3.94083e-09
4.04567e-09
3.97274e-09
4.1143e-09
3.97436e-09
4.40708e-09
4.38318e-09
4.60667e-09
4.39712e-09
4.96e-09
4.76836e-09
5.24371e-09
5.22449e-09
5.38597e-09
5.46884e-09
7.39606e-09
7.86636e-09
8.67022e-09
8.54937e-09
9.0703e-09
8.8263e-09
9.57544e-09
9.40724e-09
9.50868e-09
9.12284e-09
9.36265e-09
8.88999e-09
8.86346e-09
8.33226e-09
7.95439e-09
7.25181e-09
6.40366e-09
5.30948e-09
4.01808e-09
2.53623e-09
7.93987e-10
-1.05189e-09
-3.14539e-09
-5.22752e-09
-7.52855e-09
-9.79699e-09
-1.22729e-08
-1.46536e-08
-1.71585e-08
-1.94671e-08
-2.17385e-08
-2.376e-08
-2.56673e-08
-2.70924e-08
-2.83918e-08
-2.93195e-08
-3.02463e-08
-3.09693e-08
-3.14026e-08
-3.1706e-08
-3.18532e-08
-3.19999e-08
-3.22577e-08
-3.22889e-08
-3.21611e-08
-3.20562e-08
-3.16339e-08
-3.13523e-08
-3.12592e-08
-3.07202e-08
-2.98062e-08
-2.90469e-08
-2.7575e-08
-2.63737e-08
-2.49577e-08
-2.39486e-08
-2.25932e-08
-2.15181e-08
-2.05875e-08
-1.9971e-08
-1.88626e-08
-1.84722e-08
-1.75381e-08
-1.69056e-08
-1.58459e-08
-1.54223e-08
-1.44085e-08
-1.36463e-08
-1.26273e-08
-1.22713e-08
-1.05673e-08
-9.61184e-09
-8.13915e-09
-7.54305e-09
-5.83974e-09
-4.54853e-09
-2.56553e-09
-1.05438e-09
4.80009e-10
1.074e-09
3.84739e-09
5.70314e-09
8.55545e-09
1.03589e-08
1.27761e-08
1.4367e-08
1.68006e-08
1.82634e-08
2.04758e-08
2.09906e-08
2.31677e-08
2.31944e-08
2.44834e-08
2.42496e-08
2.53921e-08
2.5301e-08
2.66257e-08
2.70312e-08
2.8327e-08
3.07298e-08
2.99838e-08
2.62391e-08
3.24648e-08
-9.78557e-09
0
0
0
0
0
0
0
0
0
0
0
)
;

boundaryField
{
    inlet
    {
        type            zeroGradient;
    }
    endWall
    {
        type            zeroGradient;
    }
    sideWall
    {
        type            empty;
    }
}


// ************************************************************************* //
