/*--------------------------------*- C++ -*----------------------------------*\
| =========                 |                                                 |
| \\      /  F ield         | foam-extend: Open Source CFD                    |
|  \\    /   O peration     | Version:     3.2                                |
|   \\  /    A nd           | Web:         http://www.foam-extend.org         |
|    \\/     M anipulation  | For copyright notice see file Copyright         |
\*---------------------------------------------------------------------------*/
FoamFile
{
    version     2.0;
    format      ascii;
    class       areaScalarField;
    location    "840";
    object      deltaHb;
}
// * * * * * * * * * * * * * * * * * * * * * * * * * * * * * * * * * * * * * //

dimensions      [0 1 -1 0 0 0 0];

internalField   nonuniform List<scalar> 
550
(
0
0
0
-1.18666e-08
-3.76344e-08
-5.95046e-08
-7.5905e-08
-8.64472e-08
-8.73987e-08
-8.84165e-08
-7.61822e-08
1.27448e-07
1.89458e-07
-2.33416e-07
-2.6029e-07
-5.35707e-09
3.44112e-09
1.51886e-08
3.37992e-08
2.4427e-07
1.84112e-07
-1.83856e-08
-3.13228e-08
-1.54829e-07
-8.56054e-08
2.2587e-08
6.63727e-09
8.7131e-08
6.65238e-08
-2.55898e-08
-2.9435e-08
-7.37524e-09
5.84085e-09
2.02845e-09
2.06954e-09
2.43726e-09
2.06572e-09
1.48939e-09
1.35267e-09
1.39984e-09
1.37315e-09
1.38541e-09
1.17351e-09
8.18112e-10
7.00147e-10
5.41312e-10
6.05733e-10
5.23724e-10
6.2121e-10
4.88882e-10
5.15071e-10
3.52184e-10
3.43142e-10
2.05369e-10
2.06021e-10
1.13783e-10
1.21571e-10
5.84738e-11
7.62812e-11
5.8163e-11
8.47588e-11
8.06937e-11
1.15795e-10
1.13582e-10
1.42942e-10
1.53404e-10
1.55497e-10
1.44538e-10
1.4649e-10
1.56074e-10
1.64319e-10
2.22786e-10
2.78708e-10
3.76565e-10
4.34929e-10
5.37935e-10
5.61175e-10
6.41286e-10
6.24283e-10
6.83887e-10
6.3848e-10
6.98907e-10
6.34435e-10
7.04056e-10
6.38651e-10
7.09229e-10
6.28557e-10
6.98472e-10
5.86936e-10
6.43828e-10
5.08527e-10
5.81231e-10
4.28736e-10
5.20532e-10
3.54331e-10
4.90015e-10
2.91895e-10
4.95235e-10
2.4218e-10
5.45728e-10
1.4895e-10
5.02936e-10
4.55063e-11
4.22181e-10
-4.85034e-11
3.0438e-10
-9.04728e-11
2.3134e-10
-6.87577e-11
2.02593e-10
6.37807e-13
2.12275e-10
8.47166e-11
2.26983e-10
1.79564e-10
2.44376e-10
2.71114e-10
2.64178e-10
3.52048e-10
2.82807e-10
4.43977e-10
3.1052e-10
5.33024e-10
3.4485e-10
6.0849e-10
3.84095e-10
6.60587e-10
4.0778e-10
6.83693e-10
4.1679e-10
6.98465e-10
4.20312e-10
6.91066e-10
4.16148e-10
6.57305e-10
3.99582e-10
6.24172e-10
3.85957e-10
5.85198e-10
3.62755e-10
5.44169e-10
3.44597e-10
4.91458e-10
3.18827e-10
4.42048e-10
2.94391e-10
3.6804e-10
1.88239e-10
3.32301e-10
2.46462e-11
3.54466e-10
-1.8685e-10
4.60551e-10
-4.86145e-10
3.14775e-10
-6.52731e-10
1.44574e-10
-6.44393e-10
3.84524e-11
-5.27252e-10
-1.54983e-11
-2.83039e-10
-3.23293e-11
4.08097e-11
1.88906e-11
4.03172e-10
8.92753e-11
7.61022e-10
1.70809e-10
1.09823e-09
2.58214e-10
1.21654e-09
3.38321e-10
9.80982e-10
3.48424e-10
8.07772e-10
3.6701e-10
6.78604e-10
3.72952e-10
5.81915e-10
3.5866e-10
5.0225e-10
3.37527e-10
4.47702e-10
3.15015e-10
3.85878e-10
2.50658e-10
3.27828e-10
1.67928e-10
2.55836e-10
5.06374e-11
2.02844e-10
-5.94068e-11
1.55982e-10
-1.41344e-10
1.11726e-10
-2.16041e-10
6.36474e-11
-2.43675e-10
4.27788e-11
-2.34568e-10
1.67349e-11
-1.78477e-10
2.21111e-11
-7.51377e-11
3.71925e-11
4.66693e-11
6.41633e-11
1.94123e-10
9.61065e-11
3.52445e-10
1.28502e-10
5.11765e-10
1.57411e-10
6.3961e-10
1.83434e-10
6.7674e-10
2.0828e-10
5.9424e-10
1.94988e-10
4.74665e-10
1.86679e-10
3.66651e-10
1.537e-10
2.92962e-10
1.25054e-10
2.19511e-10
1.12673e-10
1.65831e-10
8.53036e-11
1.40175e-10
7.03014e-11
1.11704e-10
6.04514e-11
9.55143e-11
6.17636e-11
7.39655e-11
6.65173e-11
8.07332e-11
6.14582e-11
8.99029e-11
8.53906e-11
9.49224e-11
8.88549e-11
1.13801e-10
1.17602e-10
1.24735e-10
1.29342e-10
1.37139e-10
1.42035e-10
1.48565e-10
1.54569e-10
1.60958e-10
1.68071e-10
1.77875e-10
1.6908e-10
1.73918e-10
1.83696e-10
1.91838e-10
2.08783e-10
2.06068e-10
2.19977e-10
2.40932e-10
2.43553e-10
2.60741e-10
2.86237e-10
2.90902e-10
3.14575e-10
3.21293e-10
3.45077e-10
3.54555e-10
3.56723e-10
3.7862e-10
3.82144e-10
3.80402e-10
3.72424e-10
3.80481e-10
3.71267e-10
3.57812e-10
3.451e-10
3.29428e-10
3.11316e-10
3.08413e-10
2.92735e-10
2.71526e-10
2.50846e-10
2.4599e-10
2.32159e-10
2.10694e-10
2.14231e-10
1.99319e-10
2.01997e-10
1.89904e-10
1.951e-10
1.84115e-10
1.86859e-10
1.93601e-10
2.00615e-10
1.93259e-10
1.94534e-10
2.00667e-10
2.01693e-10
2.05409e-10
2.08555e-10
1.95909e-10
1.91354e-10
1.92517e-10
1.86985e-10
1.84709e-10
1.77156e-10
1.72506e-10
1.64051e-10
1.56287e-10
1.43238e-10
1.46686e-10
1.36242e-10
1.25161e-10
1.11074e-10
9.52565e-11
7.45975e-11
7.23309e-11
5.62795e-11
3.62026e-11
3.99176e-11
3.14564e-11
2.05236e-11
3.12588e-11
2.98382e-11
2.39833e-11
3.73428e-11
3.71918e-11
3.27569e-11
4.52391e-11
4.30827e-11
5.49142e-11
5.27744e-11
6.1411e-11
5.95094e-11
6.78603e-11
6.41686e-11
6.62722e-11
7.9287e-11
6.66378e-11
7.57978e-11
6.2558e-11
6.91246e-11
7.80322e-11
7.07965e-11
7.44173e-11
7.47169e-11
7.84687e-11
6.6079e-11
6.6066e-11
7.02228e-11
7.58353e-11
8.24693e-11
8.89797e-11
9.78707e-11
1.07399e-10
1.1822e-10
1.27881e-10
1.38425e-10
1.423e-10
1.52074e-10
1.4456e-10
1.58325e-10
1.53802e-10
1.48192e-10
1.43127e-10
1.36698e-10
1.31585e-10
1.23851e-10
1.17701e-10
1.11207e-10
1.04915e-10
9.76113e-11
9.02824e-11
8.31975e-11
7.67161e-11
7.07637e-11
6.64481e-11
6.27773e-11
6.22989e-11
5.77725e-11
5.97779e-11
6.64061e-11
6.08919e-11
6.1545e-11
6.57138e-11
6.5373e-11
6.09626e-11
6.10887e-11
5.51302e-11
7.43798e-11
8.34911e-11
8.79935e-11
9.81692e-11
1.06759e-10
1.1602e-10
1.21976e-10
1.27678e-10
1.30918e-10
1.34206e-10
1.33684e-10
1.34349e-10
1.37582e-10
1.19656e-10
1.17601e-10
1.19939e-10
1.20425e-10
1.22154e-10
1.20344e-10
1.40348e-10
1.43712e-10
1.44874e-10
1.45974e-10
1.45834e-10
1.45348e-10
1.44293e-10
1.38107e-10
1.53217e-10
1.53929e-10
1.49945e-10
1.46999e-10
1.41106e-10
1.37465e-10
1.49097e-10
1.47409e-10
1.4023e-10
1.40439e-10
1.34356e-10
1.3297e-10
1.28509e-10
1.21257e-10
1.34646e-10
1.35059e-10
1.13958e-10
1.02006e-10
8.55918e-11
5.32539e-11
4.73845e-11
3.81983e-11
1.28392e-11
8.25154e-12
-9.06714e-13
-2.31295e-11
-2.35994e-11
-3.33976e-11
-4.99818e-11
-5.52829e-11
-7.8539e-11
-7.70626e-11
-9.19338e-11
-1.05556e-10
-1.19388e-10
-1.33101e-10
-1.47021e-10
-1.5974e-10
-1.72538e-10
-1.8628e-10
-1.97785e-10
-2.09671e-10
-2.18464e-10
-2.29842e-10
-2.34506e-10
-2.44766e-10
-2.37336e-10
-2.5211e-10
-2.49785e-10
-2.41164e-10
-2.39406e-10
-2.20798e-10
-2.26853e-10
-2.16469e-10
-2.00931e-10
-1.94733e-10
-1.71077e-10
-1.76446e-10
-1.64854e-10
-1.49423e-10
-1.41116e-10
-1.17712e-10
-1.14008e-10
-1.16124e-10
-8.50676e-11
-6.87645e-11
-5.78866e-11
-3.33991e-11
-2.74647e-11
1.15078e-12
1.93738e-11
1.86586e-11
4.23813e-11
5.27551e-11
4.58399e-11
6.36912e-11
7.03695e-11
5.93956e-11
7.5153e-11
8.17051e-11
6.83132e-11
7.88195e-11
8.53855e-11
6.83488e-11
7.56492e-11
8.16266e-11
6.3274e-11
6.78097e-11
5.95656e-11
3.82192e-11
3.24306e-11
3.16386e-11
-1.90847e-11
-1.6052e-11
-8.03554e-11
-8.72868e-11
-1.34337e-10
-1.88112e-10
-1.64234e-10
-4.0123e-10
-7.43792e-11
-9.55411e-10
4.61681e-10
-2.28938e-09
1.27184e-09
-4.6077e-09
1.36109e-09
-6.95754e-09
1.35949e-09
-8.55412e-09
1.13371e-09
-8.1117e-09
5.20343e-10
-3.42514e-09
-1.05577e-09
-5.26939e-09
-3.36437e-09
-1.37469e-08
1.40415e-08
1.79369e-07
1.0588e-07
0
0
0
0
0
0
0
0
0
)
;

boundaryField
{
    inlet
    {
        type            zeroGradient;
    }
    endWall
    {
        type            zeroGradient;
    }
    sideWall
    {
        type            empty;
    }
}


// ************************************************************************* //
