/*--------------------------------*- C++ -*----------------------------------*\
| =========                 |                                                 |
| \\      /  F ield         | foam-extend: Open Source CFD                    |
|  \\    /   O peration     | Version:     3.2                                |
|   \\  /    A nd           | Web:         http://www.foam-extend.org         |
|    \\/     M anipulation  | For copyright notice see file Copyright         |
\*---------------------------------------------------------------------------*/
FoamFile
{
    version     2.0;
    format      ascii;
    class       areaScalarField;
    location    "840";
    object      deltaHs1;
}
// * * * * * * * * * * * * * * * * * * * * * * * * * * * * * * * * * * * * * //

dimensions      [0 1 -1 0 0 0 0];

internalField   nonuniform List<scalar> 
550
(
6.79319e-08
6.40783e-08
5.85922e-08
5.13526e-08
4.23628e-08
3.18704e-08
2.07989e-08
8.17182e-09
-3.80398e-09
-1.40076e-08
-2.49739e-08
-3.11884e-08
2.87715e-08
3.4304e-08
-5.27334e-08
-5.02204e-08
-5.61914e-08
-5.01046e-08
-5.09447e-08
-3.19016e-08
3.18801e-08
2.65719e-08
2.79975e-08
1.72509e-08
-3.32345e-08
-1.44652e-08
-2.61145e-08
-2.0136e-08
1.09709e-08
7.49335e-09
2.70863e-09
-4.24431e-09
-1.14101e-09
-1.74016e-09
-1.45565e-09
-2.09834e-09
-1.68819e-09
-1.62295e-09
-1.15907e-09
-1.70261e-09
-1.05444e-09
-1.62601e-09
-7.6856e-10
-1.05242e-09
-3.75809e-10
-8.93293e-10
-4.35838e-10
-8.35618e-10
-4.23908e-10
-6.8915e-10
-3.63309e-10
-5.48324e-10
-3.06287e-10
-4.24005e-10
-2.35806e-10
-3.01921e-10
-1.59063e-10
-1.74262e-10
-7.19306e-11
-7.70158e-11
-1.0422e-11
-2.31577e-12
2.93099e-11
2.13566e-11
1.4616e-11
-1.39651e-11
-4.28383e-11
-8.90762e-11
-1.38233e-10
-2.02109e-10
-2.57797e-10
-3.42818e-10
-3.88089e-10
-4.79722e-10
-4.89231e-10
-5.99656e-10
-5.57124e-10
-6.88127e-10
-5.84909e-10
-7.48925e-10
-5.81658e-10
-7.96043e-10
-5.52484e-10
-8.22017e-10
-5.10363e-10
-8.43134e-10
-4.48242e-10
-8.6466e-10
-3.75595e-10
-8.74957e-10
-2.90713e-10
-8.98264e-10
-2.11474e-10
-9.39044e-10
-1.27208e-10
-1.00234e-09
-1.98447e-11
-1.08701e-09
1.21528e-10
-1.21464e-09
3.35376e-10
-1.2848e-09
5.52494e-10
-1.3412e-09
7.46285e-10
-1.34423e-09
8.78881e-10
-1.35722e-09
9.49171e-10
-1.36979e-09
9.73606e-10
-1.38259e-09
9.7517e-10
-1.37511e-09
9.44757e-10
-1.35571e-09
8.91728e-10
-1.32684e-09
8.25096e-10
-1.28311e-09
7.28531e-10
-1.23149e-09
6.22113e-10
-1.17267e-09
5.1574e-10
-1.11275e-09
4.17375e-10
-1.03984e-09
3.3371e-10
-9.59616e-10
2.4644e-10
-8.86042e-10
1.70911e-10
-8.21011e-10
1.15327e-10
-7.587e-10
5.82652e-11
-7.11972e-10
1.1447e-11
-6.66888e-10
-2.6422e-11
-6.3779e-10
-4.54158e-11
-6.14563e-10
-6.34114e-11
-6.11707e-10
-5.94261e-11
-5.3614e-10
-1.11437e-10
-3.6154e-10
-2.68305e-10
-8.54011e-11
-5.83316e-10
3.4298e-10
-7.02091e-10
6.91513e-10
-7.5249e-10
8.79627e-10
-8.09134e-10
9.45897e-10
-8.51205e-10
8.50771e-10
-8.5968e-10
6.28181e-10
-8.67208e-10
3.09654e-10
-8.36774e-10
-6.58515e-11
-7.76598e-10
-4.8346e-10
-7.05143e-10
-7.41012e-10
-6.57809e-10
-6.07535e-10
-5.76063e-10
-4.99667e-10
-5.20331e-10
-4.1988e-10
-4.87145e-10
-3.59845e-10
-4.44803e-10
-3.08792e-10
-4.1068e-10
-2.85774e-10
-3.921e-10
-2.61727e-10
-3.48807e-10
-2.51206e-10
-2.89698e-10
-2.39611e-10
-1.80799e-10
-2.57254e-10
-6.28932e-11
-2.87089e-10
4.49825e-11
-3.21134e-10
1.63178e-10
-3.48389e-10
2.48774e-10
-3.95975e-10
3.06258e-10
-4.24212e-10
3.22865e-10
-4.6493e-10
2.92577e-10
-4.89972e-10
2.36298e-10
-5.01227e-10
1.38738e-10
-4.92665e-10
8.21834e-12
-4.63807e-10
-1.5083e-10
-4.1833e-10
-3.08302e-10
-3.66797e-10
-4.04046e-10
-3.25467e-10
-3.8551e-10
-2.68588e-10
-3.19125e-10
-2.3733e-10
-2.57752e-10
-1.95346e-10
-2.24188e-10
-1.6667e-10
-1.85216e-10
-1.59381e-10
-1.60159e-10
-1.39048e-10
-1.57466e-10
-1.31168e-10
-1.4653e-10
-1.27294e-10
-1.43372e-10
-1.33512e-10
-1.31306e-10
-1.39781e-10
-1.45537e-10
-1.38087e-10
-1.59006e-10
-1.59415e-10
-1.62877e-10
-1.60181e-10
-1.7948e-10
-1.84263e-10
-1.86388e-10
-1.90485e-10
-1.9394e-10
-1.98186e-10
-2.01854e-10
-2.07819e-10
-2.12556e-10
-2.19814e-10
-2.28586e-10
-2.20013e-10
-2.24203e-10
-2.32975e-10
-2.38348e-10
-2.50619e-10
-2.40148e-10
-2.44556e-10
-2.53401e-10
-2.41497e-10
-2.42614e-10
-2.49729e-10
-2.34062e-10
-2.36445e-10
-2.20976e-10
-2.21391e-10
-2.07618e-10
-1.86647e-10
-1.8727e-10
-1.71652e-10
-1.54889e-10
-1.35873e-10
-1.37882e-10
-1.2635e-10
-1.14807e-10
-1.06439e-10
-9.86159e-11
-9.05627e-11
-1.01502e-10
-1.01944e-10
-9.99503e-11
-9.90978e-11
-1.15138e-10
-1.2072e-10
-1.18064e-10
-1.3779e-10
-1.37922e-10
-1.52759e-10
-1.51513e-10
-1.64436e-10
-1.59373e-10
-1.64221e-10
-1.71072e-10
-1.75084e-10
-1.63939e-10
-1.59418e-10
-1.59882e-10
-1.54175e-10
-1.5172e-10
-1.47569e-10
-1.28388e-10
-1.16812e-10
-1.12396e-10
-1.01711e-10
-9.56238e-11
-8.48488e-11
-7.84898e-11
-6.85329e-11
-6.13507e-11
-4.9732e-11
-5.7572e-11
-5.14402e-11
-4.58538e-11
-3.98124e-11
-3.58884e-11
-2.94341e-11
-4.18975e-11
-4.18748e-11
-3.72346e-11
-5.33547e-11
-5.5801e-11
-5.20031e-11
-6.87627e-11
-6.94505e-11
-6.57857e-11
-7.77926e-11
-7.71946e-11
-6.86893e-11
-7.85253e-11
-7.00831e-11
-7.79851e-11
-6.85381e-11
-7.24768e-11
-6.24346e-11
-6.53575e-11
-5.29502e-11
-4.98844e-11
-5.59642e-11
-4.0258e-11
-4.38783e-11
-2.87343e-11
-3.00889e-11
-3.57676e-11
-2.18806e-11
-2.3274e-11
-5.07844e-12
-5.94321e-12
2.06293e-11
2.71476e-11
3.51219e-11
3.78947e-11
4.38935e-11
4.76868e-11
5.35331e-11
5.66867e-11
6.18386e-11
6.64198e-11
7.14433e-11
8.12859e-11
8.42397e-11
1.01256e-10
9.56607e-11
1.03657e-10
1.13665e-10
1.17638e-10
1.25991e-10
1.27276e-10
1.3525e-10
1.34961e-10
1.39796e-10
1.37173e-10
1.40629e-10
1.36094e-10
1.37116e-10
1.29596e-10
1.28538e-10
1.18649e-10
1.1596e-10
1.03263e-10
1.02214e-10
8.982e-11
7.71299e-11
7.50416e-11
6.75245e-11
5.59673e-11
5.06073e-11
4.89984e-11
4.92755e-11
5.15012e-11
3.50889e-11
2.73499e-11
2.93644e-11
2.40854e-11
2.39213e-11
1.96427e-11
1.95605e-11
1.48502e-11
1.26054e-11
5.1589e-12
1.92979e-12
-7.05872e-12
-1.74434e-11
-1.04672e-11
-1.61216e-11
-2.89606e-11
-3.64087e-11
-4.74152e-11
-5.05979e-11
-7.73743e-11
-8.46995e-11
-9.11098e-11
-9.50143e-11
-9.92945e-11
-1.00779e-10
-1.02908e-10
-9.68369e-11
-1.13808e-10
-1.13472e-10
-1.10218e-10
-1.05856e-10
-1.01362e-10
-9.33942e-11
-1.05265e-10
-1.01342e-10
-9.62589e-11
-9.08395e-11
-8.66729e-11
-8.05329e-11
-7.62636e-11
-6.73969e-11
-7.99578e-11
-6.10982e-11
-3.52943e-11
-1.53037e-11
-9.80903e-14
3.74491e-11
4.08786e-11
5.7556e-11
8.12332e-11
8.68352e-11
9.21351e-11
1.16756e-10
1.12499e-10
1.22032e-10
1.33304e-10
1.34827e-10
1.51057e-10
1.41099e-10
1.45029e-10
1.45737e-10
1.44751e-10
1.41041e-10
1.36502e-10
1.28286e-10
1.20263e-10
1.10994e-10
9.98147e-11
8.69421e-11
7.19271e-11
5.82569e-11
3.98346e-11
2.73814e-11
-2.63894e-13
-4.56232e-12
-2.11389e-11
-4.27538e-11
-5.37889e-11
-8.16648e-11
-8.28408e-11
-9.7557e-11
-1.16129e-10
-1.23799e-10
-1.48922e-10
-1.46131e-10
-1.58035e-10
-1.72187e-10
-1.79447e-10
-1.98628e-10
-1.99515e-10
-1.96469e-10
-2.22135e-10
-2.29297e-10
-2.32582e-10
-2.42351e-10
-2.36272e-10
-2.50728e-10
-2.5886e-10
-2.4459e-10
-2.57562e-10
-2.5863e-10
-2.4555e-10
-2.52317e-10
-2.55091e-10
-2.34777e-10
-2.44209e-10
-2.40164e-10
-2.22536e-10
-2.22905e-10
-2.21848e-10
-1.94622e-10
-1.98362e-10
-1.873e-10
-1.59392e-10
-1.49201e-10
-1.34996e-10
-9.66166e-11
-7.79158e-11
-5.7294e-11
8.54097e-12
2.08521e-11
9.10953e-11
1.25761e-10
1.91368e-10
2.73666e-10
2.67823e-10
5.28991e-10
2.18049e-10
1.12342e-09
-2.79047e-10
2.49414e-09
-1.06193e-09
4.83938e-09
-1.12915e-09
7.20237e-09
-1.117e-09
8.80804e-09
-8.80704e-10
8.37796e-09
-2.50031e-10
3.70841e-09
1.36307e-09
5.56922e-09
3.62676e-09
1.40715e-08
-1.41393e-08
-0.112753
6.13065e-08
5.82789e-08
5.79905e-08
5.97023e-08
6.14075e-08
6.25948e-08
6.39144e-08
6.34875e-08
6.48779e-08
6.20132e-08
)
;

boundaryField
{
    inlet
    {
        type            zeroGradient;
    }
    endWall
    {
        type            zeroGradient;
    }
    sideWall
    {
        type            empty;
    }
}


// ************************************************************************* //
