/*--------------------------------*- C++ -*----------------------------------*\
| =========                 |                                                 |
| \\      /  F ield         | foam-extend: Open Source CFD                    |
|  \\    /   O peration     | Version:     3.2                                |
|   \\  /    A nd           | Web:         http://www.foam-extend.org         |
|    \\/     M anipulation  | For copyright notice see file Copyright         |
\*---------------------------------------------------------------------------*/
FoamFile
{
    version     2.0;
    format      ascii;
    class       volScalarField;
    location    "840";
    object      DiSSt;
}
// * * * * * * * * * * * * * * * * * * * * * * * * * * * * * * * * * * * * * //

dimensions      [0 2 -1 0 0 0 0];

internalField   nonuniform List<scalar> 
33000
(
7.20204e-06
8.4671e-06
9.75428e-06
1.10356e-05
1.22801e-05
1.34567e-05
1.45432e-05
1.55176e-05
1.63687e-05
1.70802e-05
1.7621e-05
1.79511e-05
1.81058e-05
1.81088e-05
1.80681e-05
1.80601e-05
1.79878e-05
1.79785e-05
1.78978e-05
1.73514e-05
1.71571e-05
1.66382e-05
1.59573e-05
1.5558e-05
1.48193e-05
1.45068e-05
1.48533e-05
1.40863e-05
1.38941e-05
1.32332e-05
1.34585e-05
1.32782e-05
1.34969e-05
1.36028e-05
1.36319e-05
1.35177e-05
1.34382e-05
1.3415e-05
1.34367e-05
1.33868e-05
1.34058e-05
1.33606e-05
1.33749e-05
1.33441e-05
1.33799e-05
1.34091e-05
1.34299e-05
1.34561e-05
1.34733e-05
1.34914e-05
1.35288e-05
1.35475e-05
1.35886e-05
1.36079e-05
1.36513e-05
1.36738e-05
1.3716e-05
1.3753e-05
1.38e-05
1.38463e-05
1.38832e-05
1.39388e-05
1.39575e-05
1.40081e-05
1.40174e-05
1.40594e-05
1.40569e-05
1.40929e-05
1.40841e-05
1.41163e-05
1.41044e-05
1.41392e-05
1.41272e-05
1.41632e-05
1.41563e-05
1.41867e-05
1.41869e-05
1.42063e-05
1.42176e-05
1.42238e-05
1.42445e-05
1.42407e-05
1.42678e-05
1.42697e-05
1.42894e-05
1.4296e-05
1.43157e-05
1.4312e-05
1.43416e-05
1.43262e-05
1.43572e-05
1.43391e-05
1.43686e-05
1.43543e-05
1.43864e-05
1.43769e-05
1.44126e-05
1.44073e-05
1.44509e-05
1.44392e-05
1.44918e-05
1.4477e-05
1.45345e-05
1.45208e-05
1.45789e-05
1.45679e-05
1.46255e-05
1.46207e-05
1.46748e-05
1.4676e-05
1.47244e-05
1.47305e-05
1.47747e-05
1.47846e-05
1.48225e-05
1.4837e-05
1.48689e-05
1.48879e-05
1.49153e-05
1.49397e-05
1.49608e-05
1.499e-05
1.5006e-05
1.50385e-05
1.505e-05
1.50851e-05
1.50939e-05
1.51289e-05
1.51362e-05
1.51718e-05
1.5176e-05
1.52111e-05
1.5214e-05
1.52476e-05
1.52514e-05
1.52841e-05
1.52868e-05
1.53189e-05
1.53226e-05
1.53524e-05
1.53565e-05
1.53839e-05
1.53896e-05
1.54157e-05
1.54194e-05
1.5445e-05
1.54459e-05
1.54791e-05
1.54694e-05
1.55168e-05
1.54857e-05
1.5556e-05
1.55022e-05
1.55933e-05
1.55342e-05
1.5625e-05
1.55725e-05
1.56515e-05
1.56089e-05
1.56719e-05
1.56479e-05
1.5686e-05
1.56812e-05
1.56906e-05
1.57099e-05
1.56926e-05
1.57324e-05
1.56917e-05
1.5751e-05
1.56886e-05
1.57583e-05
1.56917e-05
1.57612e-05
1.57173e-05
1.57703e-05
1.57387e-05
1.57811e-05
1.57611e-05
1.58039e-05
1.57852e-05
1.58163e-05
1.58119e-05
1.58364e-05
1.58355e-05
1.58605e-05
1.58598e-05
1.5887e-05
1.58849e-05
1.59177e-05
1.59132e-05
1.59502e-05
1.59431e-05
1.59861e-05
1.59772e-05
1.60248e-05
1.60113e-05
1.60656e-05
1.60513e-05
1.61034e-05
1.6093e-05
1.61426e-05
1.61344e-05
1.61748e-05
1.61753e-05
1.6205e-05
1.62099e-05
1.623e-05
1.62422e-05
1.62503e-05
1.62716e-05
1.62671e-05
1.62977e-05
1.62814e-05
1.6319e-05
1.62933e-05
1.63385e-05
1.63081e-05
1.63523e-05
1.63307e-05
1.63664e-05
1.63519e-05
1.63828e-05
1.63769e-05
1.64003e-05
1.63987e-05
1.64209e-05
1.64199e-05
1.6439e-05
1.64437e-05
1.64569e-05
1.64625e-05
1.64762e-05
1.64814e-05
1.6493e-05
1.6498e-05
1.65093e-05
1.65097e-05
1.65178e-05
1.65286e-05
1.65327e-05
1.65457e-05
1.65474e-05
1.65598e-05
1.6559e-05
1.65718e-05
1.65737e-05
1.65823e-05
1.6586e-05
1.65917e-05
1.65959e-05
1.65995e-05
1.6604e-05
1.6606e-05
1.6611e-05
1.66146e-05
1.66163e-05
1.66182e-05
1.66209e-05
1.66223e-05
1.66299e-05
1.66261e-05
1.66313e-05
1.66334e-05
1.66343e-05
1.66372e-05
1.66417e-05
1.66413e-05
1.66458e-05
1.66454e-05
1.66503e-05
1.66509e-05
1.66504e-05
1.66542e-05
1.66541e-05
1.66555e-05
1.66533e-05
1.66557e-05
1.66546e-05
1.66538e-05
1.66536e-05
1.66506e-05
1.66491e-05
1.66483e-05
1.6649e-05
1.66466e-05
1.66466e-05
1.66473e-05
1.66491e-05
1.66475e-05
1.66528e-05
1.66521e-05
1.66592e-05
1.66566e-05
1.66543e-05
1.66522e-05
1.66504e-05
1.66486e-05
1.66467e-05
1.6645e-05
1.66436e-05
1.66421e-05
1.66406e-05
1.66394e-05
1.66383e-05
1.66373e-05
1.66365e-05
1.66358e-05
1.66351e-05
1.66346e-05
1.66342e-05
1.6634e-05
1.6634e-05
1.6634e-05
1.66343e-05
1.66347e-05
1.66351e-05
1.66358e-05
1.66367e-05
1.66377e-05
1.66391e-05
1.66405e-05
1.66419e-05
1.66436e-05
1.66456e-05
1.66474e-05
1.66493e-05
1.66513e-05
1.66531e-05
1.66552e-05
1.66574e-05
1.66592e-05
1.66612e-05
1.6663e-05
1.66646e-05
1.66662e-05
1.66679e-05
1.66694e-05
1.66707e-05
1.66722e-05
1.66735e-05
1.66747e-05
1.66757e-05
1.66767e-05
1.66777e-05
1.66784e-05
1.66793e-05
1.66798e-05
1.66803e-05
1.6681e-05
1.66813e-05
1.66817e-05
1.66821e-05
1.66822e-05
1.66824e-05
1.66823e-05
1.6682e-05
1.66817e-05
1.66814e-05
1.66809e-05
1.66802e-05
1.66793e-05
1.66782e-05
1.66771e-05
1.6676e-05
1.66747e-05
1.66731e-05
1.66717e-05
1.66703e-05
1.6669e-05
1.66677e-05
1.66664e-05
1.66651e-05
1.6664e-05
1.66629e-05
1.66618e-05
1.66608e-05
1.66598e-05
1.66589e-05
1.66581e-05
1.66572e-05
1.66564e-05
1.66556e-05
1.66547e-05
1.66539e-05
1.66529e-05
1.66522e-05
1.66512e-05
1.66501e-05
1.66491e-05
1.66479e-05
1.66467e-05
1.66455e-05
1.66442e-05
1.66426e-05
1.66409e-05
1.66391e-05
1.66372e-05
1.66351e-05
1.6633e-05
1.66307e-05
1.66281e-05
1.66254e-05
1.66229e-05
1.66205e-05
1.66179e-05
1.66153e-05
1.66127e-05
1.66103e-05
1.66077e-05
1.66051e-05
1.66026e-05
1.66001e-05
1.65977e-05
1.65951e-05
1.65927e-05
1.65904e-05
1.65882e-05
1.6586e-05
1.6584e-05
1.65822e-05
1.65803e-05
1.65783e-05
1.65767e-05
1.65752e-05
1.65736e-05
1.65722e-05
1.65708e-05
1.65694e-05
1.65683e-05
1.65673e-05
1.65663e-05
1.65654e-05
1.65646e-05
1.65639e-05
1.65633e-05
1.65626e-05
1.65623e-05
1.6562e-05
1.65619e-05
1.65621e-05
1.65625e-05
1.65633e-05
1.65641e-05
1.65649e-05
1.65662e-05
1.65676e-05
1.6569e-05
1.65707e-05
1.65725e-05
1.65745e-05
1.65766e-05
1.65788e-05
1.65814e-05
1.6584e-05
1.65867e-05
1.65896e-05
1.65927e-05
1.65959e-05
1.65991e-05
1.66026e-05
1.66064e-05
1.661e-05
1.66139e-05
1.66177e-05
1.66217e-05
1.66257e-05
1.66296e-05
1.66338e-05
1.66377e-05
1.66417e-05
1.66457e-05
1.66495e-05
1.66535e-05
1.66571e-05
1.66608e-05
1.66644e-05
1.66679e-05
1.66713e-05
1.66744e-05
1.66776e-05
1.66806e-05
1.66834e-05
1.66862e-05
1.66886e-05
1.6691e-05
1.66933e-05
1.66953e-05
1.6697e-05
1.66985e-05
1.66997e-05
1.67009e-05
1.67018e-05
1.67023e-05
1.67029e-05
1.67033e-05
1.67033e-05
1.67036e-05
1.67036e-05
1.67035e-05
1.67035e-05
1.67033e-05
1.67031e-05
1.6703e-05
1.67028e-05
1.67026e-05
1.67026e-05
1.67025e-05
1.67025e-05
1.67027e-05
1.67031e-05
1.67035e-05
1.67045e-05
1.67057e-05
1.67072e-05
1.67093e-05
1.67123e-05
1.67145e-05
1.67194e-05
1.67218e-05
1.67296e-05
1.67325e-05
1.67435e-05
1.66923e-05
1.67614e-05
1.66224e-05
1.67832e-05
1.6585e-05
1.68073e-05
1.6564e-05
1.68164e-05
1.65369e-05
1.67845e-05
1.6491e-05
1.63421e-05
1.63122e-05
1.56393e-05
1.59908e-05
1.25045e-05
1.20984e-05
1.02261e-05
9.17551e-06
8.14432e-06
8.27858e-06
7.69886e-06
7.06934e-06
6.51693e-06
5.74223e-06
6.00932e-06
7.02614e-06
3.2325e-05
5.23894e-05
3.19346e-05
2.32295e-05
1.86999e-05
1.59843e-05
1.43184e-05
1.32519e-05
1.25713e-05
1.20946e-05
1.19208e-05
1.184e-05
1.19456e-05
1.21228e-05
1.24195e-05
1.2608e-05
1.29446e-05
1.32214e-05
1.36464e-05
1.40587e-05
1.45038e-05
1.49142e-05
1.54431e-05
1.60024e-05
1.66622e-05
1.73798e-05
1.81106e-05
1.87781e-05
1.89745e-05
1.95296e-05
1.9285e-05
2.01944e-05
2.03624e-05
2.10636e-05
2.1555e-05
2.18949e-05
2.21341e-05
2.2315e-05
2.25826e-05
2.29937e-05
2.32289e-05
2.35988e-05
2.3826e-05
2.41405e-05
2.44192e-05
2.47771e-05
2.50951e-05
2.53745e-05
2.56483e-05
2.59151e-05
2.61703e-05
2.64448e-05
2.66854e-05
2.69518e-05
2.71834e-05
2.74437e-05
2.76717e-05
2.7923e-05
2.81588e-05
2.84071e-05
2.86483e-05
2.88724e-05
2.91199e-05
2.93146e-05
2.95514e-05
2.97243e-05
2.99419e-05
3.00893e-05
3.02912e-05
3.04236e-05
3.06143e-05
3.07371e-05
3.09273e-05
3.10464e-05
3.12365e-05
3.13608e-05
3.15437e-05
3.16742e-05
3.18421e-05
3.19855e-05
3.21332e-05
3.22857e-05
3.24123e-05
3.25734e-05
3.26859e-05
3.28514e-05
3.29503e-05
3.31239e-05
3.32204e-05
3.3383e-05
3.34756e-05
3.36296e-05
3.37081e-05
3.38595e-05
3.39295e-05
3.40825e-05
3.41524e-05
3.4313e-05
3.43737e-05
3.45461e-05
3.45884e-05
3.47717e-05
3.48056e-05
3.49848e-05
3.50189e-05
3.51893e-05
3.52221e-05
3.53842e-05
3.54212e-05
3.55714e-05
3.56146e-05
3.57508e-05
3.58005e-05
3.59257e-05
3.59802e-05
3.60916e-05
3.61531e-05
3.62515e-05
3.632e-05
3.64077e-05
3.64848e-05
3.65592e-05
3.66452e-05
3.67089e-05
3.68018e-05
3.68568e-05
3.6955e-05
3.70042e-05
3.7103e-05
3.71493e-05
3.72496e-05
3.72901e-05
3.73903e-05
3.74282e-05
3.75261e-05
3.75657e-05
3.76619e-05
3.76992e-05
3.77946e-05
3.78333e-05
3.79243e-05
3.79631e-05
3.80511e-05
3.80918e-05
3.81792e-05
3.82139e-05
3.83034e-05
3.83314e-05
3.84399e-05
3.84407e-05
3.85856e-05
3.85341e-05
3.87328e-05
3.86454e-05
3.88546e-05
3.877e-05
3.89733e-05
3.88975e-05
3.90771e-05
3.90207e-05
3.91707e-05
3.91515e-05
3.92554e-05
3.92786e-05
3.9332e-05
3.94088e-05
3.94153e-05
3.95389e-05
3.95052e-05
3.96726e-05
3.96034e-05
3.9796e-05
3.97235e-05
3.99171e-05
3.98845e-05
4.00418e-05
4.00169e-05
4.01773e-05
4.01858e-05
4.03258e-05
4.03412e-05
4.04529e-05
4.04986e-05
4.05985e-05
4.06512e-05
4.07514e-05
4.0804e-05
4.09073e-05
4.09563e-05
4.1069e-05
4.11113e-05
4.12303e-05
4.12655e-05
4.13939e-05
4.14223e-05
4.15561e-05
4.15728e-05
4.1717e-05
4.17286e-05
4.18658e-05
4.18831e-05
4.19881e-05
4.203e-05
4.2069e-05
4.21712e-05
4.21417e-05
4.22401e-05
4.22078e-05
4.23008e-05
4.22696e-05
4.23559e-05
4.23291e-05
4.24075e-05
4.23881e-05
4.24587e-05
4.24519e-05
4.25142e-05
4.25184e-05
4.25754e-05
4.25892e-05
4.26412e-05
4.26638e-05
4.2712e-05
4.27381e-05
4.27826e-05
4.28117e-05
4.28524e-05
4.28809e-05
4.29195e-05
4.29463e-05
4.29832e-05
4.30102e-05
4.30451e-05
4.30694e-05
4.31016e-05
4.31267e-05
4.31562e-05
4.31781e-05
4.32065e-05
4.3225e-05
4.32483e-05
4.32653e-05
4.32849e-05
4.32983e-05
4.33144e-05
4.33287e-05
4.33429e-05
4.33561e-05
4.33682e-05
4.33803e-05
4.33915e-05
4.34032e-05
4.34143e-05
4.34261e-05
4.3439e-05
4.34505e-05
4.34605e-05
4.34715e-05
4.34809e-05
4.34941e-05
4.35023e-05
4.35105e-05
4.35187e-05
4.3525e-05
4.35294e-05
4.35352e-05
4.35371e-05
4.35404e-05
4.35408e-05
4.35421e-05
4.35436e-05
4.35417e-05
4.35428e-05
4.35432e-05
4.35453e-05
4.35458e-05
4.35505e-05
4.35579e-05
4.35682e-05
4.35814e-05
4.35965e-05
4.36136e-05
4.36345e-05
4.36596e-05
4.36864e-05
4.37152e-05
4.37464e-05
4.37817e-05
4.38155e-05
4.38523e-05
4.38881e-05
4.39273e-05
4.39633e-05
4.40001e-05
4.40368e-05
4.40717e-05
4.41087e-05
4.41446e-05
4.41798e-05
4.42134e-05
4.42484e-05
4.42815e-05
4.43175e-05
4.43534e-05
4.43904e-05
4.44241e-05
4.44596e-05
4.44933e-05
4.45288e-05
4.45615e-05
4.4596e-05
4.46287e-05
4.46604e-05
4.46901e-05
4.47198e-05
4.47487e-05
4.47776e-05
4.48054e-05
4.48336e-05
4.486e-05
4.48868e-05
4.49125e-05
4.49364e-05
4.49593e-05
4.49802e-05
4.4997e-05
4.50125e-05
4.50244e-05
4.50327e-05
4.50388e-05
4.50416e-05
4.50396e-05
4.50361e-05
4.50279e-05
4.50185e-05
4.50053e-05
4.4991e-05
4.49731e-05
4.49539e-05
4.49327e-05
4.49088e-05
4.48853e-05
4.48584e-05
4.48321e-05
4.48028e-05
4.47731e-05
4.4743e-05
4.47109e-05
4.46785e-05
4.46459e-05
4.46109e-05
4.45764e-05
4.45399e-05
4.45025e-05
4.44637e-05
4.44232e-05
4.43823e-05
4.43399e-05
4.42975e-05
4.42535e-05
4.42098e-05
4.41648e-05
4.4121e-05
4.40762e-05
4.40339e-05
4.39907e-05
4.39489e-05
4.39092e-05
4.38708e-05
4.38353e-05
4.38005e-05
4.37685e-05
4.37372e-05
4.37088e-05
4.36807e-05
4.36553e-05
4.36301e-05
4.36073e-05
4.35844e-05
4.35637e-05
4.35427e-05
4.35236e-05
4.3504e-05
4.34859e-05
4.3468e-05
4.34489e-05
4.34321e-05
4.34132e-05
4.33966e-05
4.33796e-05
4.3362e-05
4.3343e-05
4.33229e-05
4.33022e-05
4.3284e-05
4.32649e-05
4.32452e-05
4.32224e-05
4.3202e-05
4.31797e-05
4.3159e-05
4.31361e-05
4.31167e-05
4.30981e-05
4.30816e-05
4.30667e-05
4.30532e-05
4.30386e-05
4.30271e-05
4.30142e-05
4.30056e-05
4.29938e-05
4.29873e-05
4.29803e-05
4.29756e-05
4.29702e-05
4.29663e-05
4.29606e-05
4.29569e-05
4.29507e-05
4.29465e-05
4.29414e-05
4.29375e-05
4.29324e-05
4.29271e-05
4.2919e-05
4.29119e-05
4.29051e-05
4.28981e-05
4.28902e-05
4.28817e-05
4.28722e-05
4.28625e-05
4.28511e-05
4.28401e-05
4.28283e-05
4.28164e-05
4.28036e-05
4.27887e-05
4.27753e-05
4.27601e-05
4.27448e-05
4.27301e-05
4.27156e-05
4.2701e-05
4.26885e-05
4.26753e-05
4.26631e-05
4.2652e-05
4.26413e-05
4.2633e-05
4.26243e-05
4.26175e-05
4.26122e-05
4.2608e-05
4.26063e-05
4.26061e-05
4.26085e-05
4.26124e-05
4.26189e-05
4.26268e-05
4.26373e-05
4.26486e-05
4.2662e-05
4.26755e-05
4.26908e-05
4.27051e-05
4.27213e-05
4.27368e-05
4.27518e-05
4.27668e-05
4.27775e-05
4.27909e-05
4.28039e-05
4.28146e-05
4.28264e-05
4.28332e-05
4.28426e-05
4.28528e-05
4.28619e-05
4.28717e-05
4.28782e-05
4.28852e-05
4.28944e-05
4.29024e-05
4.29075e-05
4.29135e-05
4.29186e-05
4.29245e-05
4.29296e-05
4.29317e-05
4.29364e-05
4.29398e-05
4.29417e-05
4.29471e-05
4.2952e-05
4.29552e-05
4.29617e-05
4.29679e-05
4.29723e-05
4.29791e-05
4.29863e-05
4.29909e-05
4.29972e-05
4.30043e-05
4.30091e-05
4.30153e-05
4.30218e-05
4.30263e-05
4.30319e-05
4.30365e-05
4.3039e-05
4.30448e-05
4.30473e-05
4.30516e-05
4.30553e-05
4.30555e-05
4.30659e-05
4.3059e-05
4.30814e-05
4.30589e-05
4.31147e-05
4.3035e-05
4.31688e-05
4.29809e-05
4.32513e-05
4.29081e-05
4.33264e-05
4.27337e-05
4.30683e-05
4.23972e-05
4.26394e-05
4.18859e-05
4.22588e-05
4.11695e-05
4.09642e-05
3.93772e-05
3.64978e-05
3.25708e-05
2.56653e-05
1.91468e-05
2.38405e-05
3.2911e-05
3.26605e-05
3.78333e-05
3.5389e-05
3.6738e-05
2.74164e-05
2.56123e-05
2.50598e-05
3.08445e-05
0.000147908
0.000112904
8.5627e-05
6.77882e-05
5.52387e-05
4.63774e-05
3.86849e-05
3.27322e-05
2.85031e-05
2.47283e-05
2.22082e-05
1.96937e-05
1.80031e-05
1.6491e-05
1.5605e-05
1.48361e-05
1.43608e-05
1.39843e-05
1.38843e-05
1.37625e-05
1.36872e-05
1.36662e-05
1.36877e-05
1.38327e-05
1.40047e-05
1.42556e-05
1.44767e-05
1.48668e-05
1.52645e-05
1.56505e-05
1.60301e-05
1.64394e-05
1.68439e-05
1.72189e-05
1.75857e-05
1.79745e-05
1.83955e-05
1.8826e-05
1.92851e-05
1.97614e-05
2.02724e-05
2.07906e-05
2.13159e-05
2.18183e-05
2.23318e-05
2.28524e-05
2.34073e-05
2.39731e-05
2.45684e-05
2.51677e-05
2.57914e-05
2.64191e-05
2.69173e-05
2.7469e-05
2.79305e-05
2.8476e-05
2.89758e-05
2.95083e-05
3.00286e-05
3.05399e-05
3.10534e-05
3.15532e-05
3.20711e-05
3.25578e-05
3.30654e-05
3.3535e-05
3.40285e-05
3.44899e-05
3.49844e-05
3.54479e-05
3.59473e-05
3.64201e-05
3.69216e-05
3.73996e-05
3.79002e-05
3.83781e-05
3.88658e-05
3.93503e-05
3.98225e-05
4.03175e-05
4.07837e-05
4.12794e-05
4.17569e-05
4.22111e-05
4.27273e-05
4.31434e-05
4.36827e-05
4.41088e-05
4.46393e-05
4.50813e-05
4.56307e-05
4.60976e-05
4.66401e-05
4.71265e-05
4.76522e-05
4.81191e-05
4.8631e-05
4.90344e-05
4.93877e-05
4.97868e-05
5.01098e-05
5.05e-05
5.07981e-05
5.11792e-05
5.14522e-05
5.18241e-05
5.20733e-05
5.24364e-05
5.26633e-05
5.30166e-05
5.32231e-05
5.35668e-05
5.37547e-05
5.40873e-05
5.42583e-05
5.45796e-05
5.47371e-05
5.50475e-05
5.5195e-05
5.54941e-05
5.56341e-05
5.59221e-05
5.6058e-05
5.63358e-05
5.64708e-05
5.67388e-05
5.68743e-05
5.71336e-05
5.72715e-05
5.75218e-05
5.76626e-05
5.79049e-05
5.805e-05
5.82864e-05
5.84369e-05
5.86669e-05
5.88221e-05
5.90461e-05
5.92052e-05
5.94237e-05
5.95865e-05
5.97997e-05
5.99657e-05
6.01738e-05
6.03422e-05
6.05468e-05
6.07233e-05
6.09211e-05
6.11096e-05
6.12884e-05
6.14945e-05
6.16465e-05
6.1869e-05
6.19961e-05
6.22369e-05
6.23311e-05
6.25857e-05
6.26482e-05
6.29124e-05
6.29525e-05
6.32191e-05
6.3243e-05
6.35059e-05
6.35293e-05
6.37823e-05
6.38162e-05
6.40536e-05
6.41099e-05
6.43269e-05
6.44143e-05
6.46144e-05
6.47422e-05
6.4934e-05
6.50899e-05
6.52581e-05
6.54407e-05
6.55967e-05
6.57972e-05
6.59482e-05
6.61541e-05
6.62976e-05
6.6513e-05
6.66539e-05
6.68722e-05
6.70132e-05
6.72388e-05
6.73782e-05
6.7612e-05
6.77474e-05
6.79886e-05
6.81163e-05
6.83646e-05
6.84815e-05
6.87352e-05
6.8835e-05
6.90951e-05
6.91766e-05
6.94403e-05
6.95026e-05
6.97686e-05
6.98112e-05
7.00757e-05
7.01031e-05
7.0363e-05
7.03776e-05
7.06314e-05
7.06398e-05
7.08838e-05
7.08907e-05
7.11216e-05
7.11335e-05
7.13492e-05
7.13728e-05
7.15731e-05
7.16174e-05
7.18023e-05
7.18685e-05
7.20423e-05
7.21284e-05
7.22929e-05
7.23955e-05
7.25538e-05
7.26653e-05
7.28175e-05
7.29349e-05
7.30806e-05
7.31988e-05
7.33403e-05
7.34558e-05
7.3593e-05
7.37062e-05
7.38359e-05
7.39437e-05
7.40655e-05
7.41694e-05
7.42825e-05
7.43777e-05
7.44807e-05
7.45683e-05
7.4662e-05
7.47461e-05
7.48319e-05
7.49089e-05
7.49869e-05
7.50625e-05
7.5137e-05
7.52098e-05
7.52806e-05
7.53505e-05
7.54188e-05
7.54875e-05
7.5555e-05
7.5623e-05
7.56925e-05
7.57603e-05
7.58253e-05
7.58905e-05
7.59526e-05
7.60183e-05
7.60777e-05
7.61344e-05
7.61895e-05
7.62404e-05
7.6286e-05
7.63318e-05
7.63709e-05
7.64102e-05
7.6444e-05
7.64775e-05
7.65111e-05
7.654e-05
7.65725e-05
7.66046e-05
7.66406e-05
7.66763e-05
7.67198e-05
7.67701e-05
7.68282e-05
7.6894e-05
7.69668e-05
7.70455e-05
7.71332e-05
7.72303e-05
7.73342e-05
7.74441e-05
7.75604e-05
7.76855e-05
7.7811e-05
7.79432e-05
7.80747e-05
7.82117e-05
7.83456e-05
7.8481e-05
7.86153e-05
7.87468e-05
7.88799e-05
7.90112e-05
7.91424e-05
7.92694e-05
7.93991e-05
7.95254e-05
7.96566e-05
7.97872e-05
7.99201e-05
8.00473e-05
8.01768e-05
8.03011e-05
8.04277e-05
8.05481e-05
8.06708e-05
8.07872e-05
8.09053e-05
8.10139e-05
8.11259e-05
8.12336e-05
8.13394e-05
8.14419e-05
8.15419e-05
8.16379e-05
8.17312e-05
8.18211e-05
8.19055e-05
8.19855e-05
8.20601e-05
8.21251e-05
8.21834e-05
8.22335e-05
8.22734e-05
8.23054e-05
8.23286e-05
8.23409e-05
8.23459e-05
8.23417e-05
8.23307e-05
8.23126e-05
8.22886e-05
8.22581e-05
8.22219e-05
8.21815e-05
8.21338e-05
8.20849e-05
8.20298e-05
8.19728e-05
8.19111e-05
8.1846e-05
8.17794e-05
8.17086e-05
8.16352e-05
8.15605e-05
8.14806e-05
8.13995e-05
8.13145e-05
8.12263e-05
8.11344e-05
8.10381e-05
8.09397e-05
8.08375e-05
8.07337e-05
8.06262e-05
8.05177e-05
8.04062e-05
8.02956e-05
8.01829e-05
8.00732e-05
7.9963e-05
7.98545e-05
7.97498e-05
7.96477e-05
7.95514e-05
7.94573e-05
7.93688e-05
7.92824e-05
7.92014e-05
7.91216e-05
7.9047e-05
7.89727e-05
7.89031e-05
7.88332e-05
7.87675e-05
7.87011e-05
7.86387e-05
7.85751e-05
7.8515e-05
7.84553e-05
7.83942e-05
7.83373e-05
7.82767e-05
7.82219e-05
7.81663e-05
7.81125e-05
7.80569e-05
7.80004e-05
7.79422e-05
7.78886e-05
7.78344e-05
7.77803e-05
7.77224e-05
7.76667e-05
7.76088e-05
7.75532e-05
7.74958e-05
7.74431e-05
7.73917e-05
7.73448e-05
7.73006e-05
7.72607e-05
7.72189e-05
7.71819e-05
7.7143e-05
7.71106e-05
7.70739e-05
7.70445e-05
7.70156e-05
7.69908e-05
7.69648e-05
7.6942e-05
7.69165e-05
7.68945e-05
7.68682e-05
7.68452e-05
7.68217e-05
7.67994e-05
7.67754e-05
7.67516e-05
7.67239e-05
7.66968e-05
7.66717e-05
7.66467e-05
7.66203e-05
7.65929e-05
7.65637e-05
7.65339e-05
7.65011e-05
7.64683e-05
7.64344e-05
7.63997e-05
7.63637e-05
7.63241e-05
7.62863e-05
7.6247e-05
7.62068e-05
7.6168e-05
7.61306e-05
7.60935e-05
7.60598e-05
7.60264e-05
7.5994e-05
7.59638e-05
7.59344e-05
7.59093e-05
7.5885e-05
7.58639e-05
7.58463e-05
7.58324e-05
7.58243e-05
7.58209e-05
7.58242e-05
7.58326e-05
7.58477e-05
7.58677e-05
7.58935e-05
7.59225e-05
7.59559e-05
7.59901e-05
7.60274e-05
7.60631e-05
7.61002e-05
7.61365e-05
7.61702e-05
7.62029e-05
7.62304e-05
7.62575e-05
7.62834e-05
7.63065e-05
7.633e-05
7.63484e-05
7.63689e-05
7.63886e-05
7.64052e-05
7.64235e-05
7.64349e-05
7.64451e-05
7.64578e-05
7.64677e-05
7.64732e-05
7.64782e-05
7.64809e-05
7.64843e-05
7.64846e-05
7.64811e-05
7.6479e-05
7.64762e-05
7.64716e-05
7.64701e-05
7.64701e-05
7.64674e-05
7.6469e-05
7.64714e-05
7.64721e-05
7.64745e-05
7.6478e-05
7.64787e-05
7.64814e-05
7.64835e-05
7.64838e-05
7.64852e-05
7.64857e-05
7.64837e-05
7.64824e-05
7.64799e-05
7.64746e-05
7.64715e-05
7.64671e-05
7.64617e-05
7.64612e-05
7.64526e-05
7.64601e-05
7.6443e-05
7.64699e-05
7.64367e-05
7.65244e-05
7.64008e-05
7.66243e-05
7.63087e-05
7.67741e-05
7.61365e-05
7.68786e-05
7.57252e-05
7.67004e-05
7.49141e-05
7.5949e-05
7.356e-05
7.43311e-05
7.15125e-05
7.1358e-05
6.75784e-05
6.27274e-05
5.31059e-05
4.00371e-05
2.39197e-05
2.68676e-05
3.56751e-05
3.68638e-05
4.60948e-05
4.6315e-05
5.41499e-05
4.95141e-05
4.79855e-05
4.26702e-05
3.97907e-05
0.000183106
0.00017002
9.81178e-05
9.13509e-05
9.83427e-05
0.000104319
9.2474e-05
8.07786e-05
7.1994e-05
6.34863e-05
5.7643e-05
5.04853e-05
4.51028e-05
3.81968e-05
3.47348e-05
3.05092e-05
2.86741e-05
2.67544e-05
2.66578e-05
2.60988e-05
2.61211e-05
2.46943e-05
2.38942e-05
2.27797e-05
2.22804e-05
2.1685e-05
2.12955e-05
2.07889e-05
2.0369e-05
2.01262e-05
1.99272e-05
1.99074e-05
1.98392e-05
1.97726e-05
1.96272e-05
1.94578e-05
1.9329e-05
1.92295e-05
1.91737e-05
1.91526e-05
1.91729e-05
1.92285e-05
1.93081e-05
1.94124e-05
1.95458e-05
1.97328e-05
1.99539e-05
2.02169e-05
2.0517e-05
2.085e-05
2.12145e-05
2.16139e-05
2.20498e-05
2.25068e-05
2.30011e-05
2.35198e-05
2.40739e-05
2.46506e-05
2.5254e-05
2.58753e-05
2.65161e-05
2.7174e-05
2.78479e-05
2.85404e-05
2.92474e-05
2.9974e-05
3.0713e-05
3.14761e-05
3.22575e-05
3.30683e-05
3.39001e-05
3.47646e-05
3.56498e-05
3.65663e-05
3.74998e-05
3.84593e-05
3.94311e-05
4.0427e-05
4.14342e-05
4.2466e-05
4.3508e-05
4.45736e-05
4.56456e-05
4.67364e-05
4.78233e-05
4.8923e-05
5.00019e-05
5.10895e-05
5.21388e-05
5.31937e-05
5.41971e-05
5.52046e-05
5.61553e-05
5.71196e-05
5.80171e-05
5.8937e-05
5.97804e-05
6.06589e-05
6.14442e-05
6.22816e-05
6.30086e-05
6.38038e-05
6.44736e-05
6.52363e-05
6.58519e-05
6.65871e-05
6.71552e-05
6.78656e-05
6.83905e-05
6.90756e-05
6.95594e-05
7.02197e-05
7.06657e-05
7.13003e-05
7.17118e-05
7.23205e-05
7.27025e-05
7.32872e-05
7.36466e-05
7.42078e-05
7.45483e-05
7.50875e-05
7.54156e-05
7.59356e-05
7.6257e-05
7.67599e-05
7.70791e-05
7.75676e-05
7.78875e-05
7.83627e-05
7.8686e-05
7.91497e-05
7.94788e-05
7.99339e-05
8.02707e-05
8.07173e-05
8.10591e-05
8.14973e-05
8.18442e-05
8.2276e-05
8.26254e-05
8.30493e-05
8.33991e-05
8.38131e-05
8.4163e-05
8.45661e-05
8.4924e-05
8.53133e-05
8.56845e-05
8.60504e-05
8.6447e-05
8.67806e-05
8.71992e-05
8.74997e-05
8.79438e-05
8.81996e-05
8.86616e-05
8.88716e-05
8.93453e-05
8.95193e-05
8.99948e-05
9.01416e-05
9.06092e-05
9.07479e-05
9.11977e-05
9.13437e-05
9.1767e-05
9.19359e-05
9.2328e-05
9.25334e-05
9.29063e-05
9.31648e-05
9.35175e-05
9.38171e-05
9.4139e-05
9.44746e-05
9.47779e-05
9.51391e-05
9.54364e-05
9.58067e-05
9.6095e-05
9.64795e-05
9.67664e-05
9.71646e-05
9.74528e-05
9.78563e-05
9.8146e-05
9.85623e-05
9.8849e-05
9.92769e-05
9.95544e-05
9.99922e-05
0.000100254
0.000100698
0.000100937
0.000101387
0.000101597
0.000102049
0.000102229
0.00010268
0.000102829
0.000103273
0.000103395
0.00010383
0.000103929
0.00010435
0.000104435
0.000104839
0.000104917
0.000105299
0.00010538
0.000105739
0.000105834
0.00010617
0.000106291
0.000106606
0.000106758
0.00010706
0.00010724
0.000107532
0.000107738
0.000108023
0.000108244
0.000108524
0.000108754
0.000109029
0.000109259
0.000109525
0.000109753
0.000110009
0.000110231
0.000110474
0.000110687
0.000110917
0.000111119
0.000111331
0.000111523
0.00011172
0.000111899
0.000112084
0.000112256
0.00011243
0.000112593
0.000112756
0.000112915
0.000113074
0.00011323
0.000113384
0.000113537
0.000113689
0.000113841
0.000113992
0.000114144
0.000114297
0.000114448
0.000114596
0.000114742
0.000114883
0.000115025
0.000115158
0.000115286
0.000115408
0.000115521
0.000115625
0.000115725
0.000115814
0.000115901
0.000115979
0.000116056
0.000116132
0.000116203
0.000116279
0.000116357
0.000116442
0.000116531
0.000116633
0.000116749
0.00011688
0.000117027
0.000117188
0.000117363
0.000117554
0.000117761
0.000117983
0.000118216
0.000118462
0.000118722
0.000118986
0.00011926
0.000119535
0.000119816
0.000120095
0.000120374
0.00012065
0.000120922
0.000121193
0.00012146
0.000121727
0.000121986
0.000122248
0.000122506
0.000122769
0.000123031
0.000123295
0.000123551
0.000123808
0.000124055
0.000124302
0.000124538
0.000124772
0.000124996
0.000125218
0.000125426
0.000125635
0.000125836
0.000126036
0.000126228
0.000126416
0.000126595
0.000126769
0.000126935
0.000127089
0.000127232
0.000127364
0.00012748
0.000127581
0.000127666
0.000127734
0.000127785
0.000127821
0.000127838
0.000127841
0.000127829
0.000127806
0.00012777
0.000127726
0.000127671
0.000127608
0.000127538
0.000127457
0.000127374
0.000127282
0.000127187
0.000127085
0.000126978
0.000126868
0.000126752
0.000126631
0.000126508
0.000126376
0.000126241
0.0001261
0.000125952
0.000125799
0.000125638
0.000125473
0.000125302
0.000125127
0.000124946
0.000124763
0.000124575
0.000124388
0.000124198
0.000124011
0.000123824
0.00012364
0.000123462
0.000123288
0.000123123
0.000122962
0.00012281
0.000122661
0.00012252
0.000122382
0.000122251
0.00012212
0.000121995
0.00012187
0.000121749
0.000121628
0.000121511
0.000121393
0.00012128
0.000121169
0.000121057
0.000120951
0.000120842
0.000120742
0.000120643
0.000120549
0.000120454
0.00012036
0.000120265
0.000120176
0.000120087
0.00012
0.000119909
0.000119821
0.000119731
0.000119644
0.000119555
0.000119471
0.000119388
0.00011931
0.000119235
0.000119165
0.000119093
0.000119026
0.000118956
0.000118893
0.000118825
0.000118764
0.000118704
0.00011865
0.000118593
0.000118542
0.000118486
0.000118436
0.00011838
0.000118327
0.000118273
0.000118221
0.000118165
0.00011811
0.00011805
0.00011799
0.000117932
0.000117874
0.000117815
0.000117755
0.000117692
0.000117628
0.000117559
0.00011749
0.000117418
0.000117345
0.000117271
0.000117192
0.000117116
0.000117039
0.000116962
0.000116889
0.000116819
0.000116751
0.000116689
0.000116629
0.000116571
0.000116516
0.000116464
0.000116418
0.000116375
0.000116338
0.000116308
0.000116286
0.000116276
0.000116276
0.000116289
0.000116314
0.000116352
0.0001164
0.000116459
0.000116525
0.000116598
0.000116672
0.000116749
0.000116823
0.000116897
0.000116967
0.000117031
0.000117091
0.000117142
0.00011719
0.000117234
0.000117274
0.000117314
0.000117348
0.000117383
0.000117417
0.000117449
0.00011748
0.000117503
0.000117524
0.000117545
0.000117561
0.00011757
0.000117577
0.000117579
0.00011758
0.000117576
0.000117567
0.000117558
0.000117547
0.000117535
0.000117527
0.00011752
0.000117512
0.000117509
0.000117507
0.000117503
0.000117501
0.000117498
0.000117493
0.000117489
0.000117481
0.000117471
0.00011746
0.000117446
0.000117427
0.000117407
0.000117383
0.000117356
0.000117329
0.0001173
0.000117269
0.000117246
0.000117214
0.000117202
0.000117163
0.000117185
0.000117133
0.000117239
0.00011709
0.000117373
0.000116994
0.000117585
0.000116779
0.000117727
0.000116206
0.000117428
0.000114949
0.000116145
0.000112654
0.000113375
0.000108999
0.000108499
0.000102246
9.53045e-05
8.00838e-05
5.78944e-05
3.22726e-05
3.3505e-05
3.77848e-05
3.91503e-05
4.45104e-05
4.82632e-05
5.41903e-05
6.05106e-05
6.26236e-05
5.85195e-05
4.32998e-05
0.000189538
0.000164031
9.48994e-05
8.53736e-05
9.2961e-05
9.45698e-05
0.000118259
0.000117653
0.000123804
0.000114914
0.000108937
9.99014e-05
9.24664e-05
8.01508e-05
7.14826e-05
6.17564e-05
5.71859e-05
5.29333e-05
5.35842e-05
5.36158e-05
5.39511e-05
5.19735e-05
5.03316e-05
4.70789e-05
4.58289e-05
4.40428e-05
4.33295e-05
4.23022e-05
4.1503e-05
4.1002e-05
4.05989e-05
4.04998e-05
4.03204e-05
4.00874e-05
3.96788e-05
3.92009e-05
3.86134e-05
3.81576e-05
3.76623e-05
3.72764e-05
3.68012e-05
3.64374e-05
3.60935e-05
3.59284e-05
3.57735e-05
3.56907e-05
3.55794e-05
3.55481e-05
3.5492e-05
3.5525e-05
3.55644e-05
3.56948e-05
3.58469e-05
3.60842e-05
3.63506e-05
3.66875e-05
3.70581e-05
3.74878e-05
3.79591e-05
3.84855e-05
3.90562e-05
3.96808e-05
4.03513e-05
4.1075e-05
4.1842e-05
4.26569e-05
4.35158e-05
4.44174e-05
4.53562e-05
4.63334e-05
4.73422e-05
4.83871e-05
4.94574e-05
5.05621e-05
5.1688e-05
5.28456e-05
5.40218e-05
5.52331e-05
5.64626e-05
5.77353e-05
5.90191e-05
6.03487e-05
6.16779e-05
6.30525e-05
6.44103e-05
6.58149e-05
6.71765e-05
6.85856e-05
6.99296e-05
7.13161e-05
7.26208e-05
7.39727e-05
7.52342e-05
7.65411e-05
7.77185e-05
7.89503e-05
8.00485e-05
8.12203e-05
8.22398e-05
8.3368e-05
8.43144e-05
8.54048e-05
8.62816e-05
8.7323e-05
8.81375e-05
8.91482e-05
8.99052e-05
9.08857e-05
9.15849e-05
9.25309e-05
9.3176e-05
9.40866e-05
9.46827e-05
9.5557e-05
9.6109e-05
9.69478e-05
9.74642e-05
9.82697e-05
9.87571e-05
9.95305e-05
9.99964e-05
0.000100741
0.000101194
0.000101915
0.000102366
0.000103067
0.000103521
0.000104208
0.00010467
0.000105344
0.000105816
0.00010648
0.000106964
0.000107623
0.000108119
0.00010877
0.000109272
0.000109915
0.000110421
0.000111046
0.000111556
0.000112165
0.000112676
0.000113268
0.00011378
0.000114359
0.000114881
0.000115444
0.000115983
0.00011652
0.000117091
0.000117595
0.000118199
0.000118665
0.000119304
0.000119717
0.000120382
0.000120744
0.000121423
0.000121741
0.000122421
0.000122704
0.00012337
0.000123636
0.000124274
0.000124543
0.000125142
0.00012543
0.000125987
0.000126316
0.000126851
0.000127238
0.000127738
0.000128172
0.000128638
0.000129116
0.000129558
0.000130069
0.000130506
0.000131027
0.000131455
0.000131994
0.000132423
0.000132983
0.000133416
0.000133996
0.000134433
0.000135022
0.000135458
0.000136059
0.000136487
0.000137099
0.000137509
0.000138125
0.000138504
0.000139123
0.000139465
0.000140079
0.000140381
0.000140989
0.00014125
0.000141844
0.000142067
0.000142644
0.000142835
0.00014339
0.000143559
0.000144088
0.000144243
0.000144742
0.000144897
0.000145366
0.000145532
0.000145975
0.000146172
0.000146592
0.000146827
0.000147234
0.000147505
0.000147905
0.000148208
0.000148608
0.000148929
0.000149325
0.000149655
0.000150039
0.000150371
0.000150743
0.000151072
0.000151432
0.000151751
0.000152094
0.000152399
0.000152723
0.000153015
0.000153316
0.000153596
0.00015388
0.000154144
0.000154413
0.000154669
0.000154926
0.000155171
0.000155419
0.000155662
0.000155906
0.000156148
0.00015639
0.000156632
0.000156875
0.000157119