/*--------------------------------*- C++ -*----------------------------------*\
| =========                 |                                                 |
| \\      /  F ield         | foam-extend: Open Source CFD                    |
|  \\    /   O peration     | Version:     3.2                                |
|   \\  /    A nd           | Web:         http://www.foam-extend.org         |
|    \\/     M anipulation  | For copyright notice see file Copyright         |
\*---------------------------------------------------------------------------*/
FoamFile
{
    version     2.0;
    format      ascii;
    class       areaScalarField;
    location    "840";
    object      Fi;
}
// * * * * * * * * * * * * * * * * * * * * * * * * * * * * * * * * * * * * * //

dimensions      [0 1 -1 0 0 0 0];

internalField   nonuniform List<scalar> 
550
(
6.79319e-08
6.40783e-08
5.85922e-08
3.94859e-08
4.72838e-09
-2.76342e-08
-5.51061e-08
-7.82754e-08
-9.12027e-08
-1.02424e-07
-1.01156e-07
9.62599e-08
2.1823e-07
-1.99112e-07
-3.13024e-07
-5.55775e-08
-5.27503e-08
-3.4916e-08
-1.71455e-08
2.12368e-07
2.15993e-07
8.18629e-09
-3.32522e-09
-1.37578e-07
-1.1884e-07
8.12182e-09
-1.94772e-08
6.6995e-08
7.74947e-08
-1.80964e-08
-2.67263e-08
-1.16195e-08
4.69984e-09
2.88284e-10
6.13891e-10
3.38918e-10
3.77532e-10
-1.33561e-10
1.936e-10
-3.02771e-10
3.18709e-10
-2.40598e-10
4.04952e-10
-2.34304e-10
3.24338e-10
-3.51982e-10
1.69895e-10
-3.11894e-10
1.97302e-10
-2.00269e-10
1.51762e-10
-1.9614e-10
3.68556e-11
-2.18636e-10
-2.97844e-11
-1.88138e-10
-3.74921e-11
-1.15788e-10
4.35069e-12
-1.88528e-11
7.43368e-11
7.8378e-11
1.45105e-10
1.34938e-10
1.57558e-10
1.39439e-10
1.12659e-10
5.54618e-11
8.2572e-12
-4.60342e-11
-9.34784e-11
-1.20032e-10
-1.0938e-10
-1.03156e-10
-5.43019e-11
-6.17212e-11
4.05125e-12
-4.68411e-11
3.93739e-11
-6.50381e-11
5.68212e-11
-9.71359e-11
8.19514e-11
-1.17961e-10
1.28288e-10
-1.33905e-10
1.80315e-10
-1.66188e-10
2.11341e-10
-2.31129e-10
2.17814e-10
-3.17034e-10
2.17262e-10
-4.18512e-10
2.27123e-10
-5.1232e-10
2.7205e-10
-5.91771e-10
3.63708e-10
-6.68916e-10
4.84326e-10
-7.81864e-10
5.98e-10
-9.19018e-10
6.97781e-10
-1.03985e-09
7.88408e-10
-1.12588e-09
8.80413e-10
-1.16719e-09
9.74243e-10
-1.17031e-09
1.05989e-09
-1.14813e-09
1.12432e-09
-1.11133e-09
1.16284e-09
-1.06266e-09
1.17714e-09
-1.0003e-09
1.17251e-09
-9.20973e-10
1.15514e-09
-8.27818e-10
1.12423e-09
-7.28657e-10
1.07796e-09
-6.32062e-10
1.0174e-09
-5.42826e-10
9.44906e-10
-4.65729e-10
8.61978e-10
-4.04863e-10
7.72632e-10
-3.59118e-10
6.82438e-10
-3.26015e-10
5.96645e-10
-3.04134e-10
5.17747e-10
-2.93193e-10
4.46042e-10
-2.95736e-10
3.78636e-10
-3.17316e-10
3.08614e-10
-3.47901e-10
2.20864e-10
-3.36894e-10
8.61606e-11
-2.72251e-10
-1.22765e-10
-1.43166e-10
-3.87316e-10
3.87813e-11
-6.07916e-10
2.35235e-10
-7.70681e-10
4.18645e-10
-8.66703e-10
5.67732e-10
-8.92009e-10
6.6899e-10
-8.48317e-10
7.12825e-10
-7.47499e-10
6.95171e-10
-6.05789e-10
6.1477e-10
-4.46929e-10
4.75529e-10
-3.19489e-10
3.73447e-10
-2.2764e-10
3.08104e-10
-1.53321e-10
2.58724e-10
-1.14193e-10
2.2207e-10
-8.61427e-11
1.93458e-10
-7.31529e-11
1.61927e-10
-7.7085e-11
1.24151e-10
-9.81487e-11
7.66216e-11
-1.2177e-10
1.62252e-11
-1.30162e-10
-5.44102e-11
-1.223e-10
-1.31108e-10
-9.63619e-11
-2.09408e-10
-5.28627e-11
-2.84742e-10
5.09925e-12
-3.53196e-10
7.16898e-11
-4.07477e-10
1.44388e-10
-4.42819e-10
2.17439e-10
-4.52779e-10
2.82967e-10
-4.37064e-10
3.32861e-10
-3.96559e-10
3.60663e-10
-3.35304e-10
3.60935e-10
-2.60919e-10
3.31308e-10
-1.83363e-10
2.72695e-10
-1.17186e-10
2.0873e-10
-7.36002e-11
1.5554e-10
-5.0651e-11
1.08899e-10
-4.16463e-11
6.87741e-11
-4.16155e-11
3.42951e-11
-4.67077e-11
5.67212e-12
-5.37447e-11
-1.72912e-11
-6.08664e-11
-3.48265e-11
-6.68429e-11
-4.78576e-11
-7.17481e-11
-5.73409e-11
-7.32642e-11
-6.48036e-11
-7.66288e-11
-6.91034e-11
-7.40249e-11
-6.79546e-11
-7.13266e-11
-6.56788e-11
-6.66613e-11
-6.16536e-11
-6.11427e-11
-5.68011e-11
-5.6151e-11
-5.32887e-11
-5.32502e-11
-5.15988e-11
-5.17437e-11
-5.07107e-11
-5.09326e-11
-5.02848e-11
-4.9279e-11
-4.651e-11
-4.18359e-11
-3.40807e-11
-2.45787e-11
-1.24685e-11
2.05587e-12
1.81274e-11
3.65079e-11
5.68402e-11
7.81296e-11
1.00317e-10
1.23686e-10
1.46938e-10
1.70076e-10
1.9135e-10
2.10492e-10
2.25513e-10
2.36551e-10
2.42599e-10
2.44917e-10
2.43005e-10
2.38662e-10
2.30812e-10
2.20753e-10
2.0691e-10
1.90791e-10
1.71576e-10
1.51748e-10
1.30852e-10
1.1144e-10
9.26297e-11
7.64413e-11
6.13976e-11
4.92384e-11
3.83912e-11
3.0664e-11
2.47424e-11
2.26378e-11
2.25293e-11
2.55311e-11
2.93208e-11
3.51158e-11
4.07849e-11
4.75175e-11
5.36889e-11
6.09863e-11
6.75207e-11
7.45425e-11
8.01206e-11
8.52739e-11
8.90854e-11
9.2307e-11
9.40164e-11
9.55182e-11
9.49368e-11
9.35063e-11
8.91142e-11
8.48018e-11
7.93075e-11
7.12619e-11
5.93681e-11
4.51634e-11
3.04334e-11
1.44047e-11
-1.03199e-12
-1.34372e-11
-2.43446e-11
-3.14795e-11
-3.75039e-11
-3.96124e-11
-4.18024e-11
-4.04498e-11
-4.00028e-11
-3.59324e-11
-3.32862e-11
-2.70004e-11
-2.30708e-11
-1.57637e-11
-1.10658e-11
-2.92518e-12
2.50289e-12
1.12184e-11
1.63878e-11
2.33228e-11
2.63799e-11
3.19195e-11
3.38236e-11
3.90357e-11
4.22646e-11
4.89159e-11
5.11433e-11
6.96385e-11
7.25255e-11
8.67083e-11
9.32136e-11
1.05345e-10
1.1373e-10
1.26363e-10
1.36667e-10
1.51404e-10
1.64086e-10
1.80059e-10
1.94301e-10
2.09869e-10
2.23586e-10
2.36313e-10
2.45816e-10
2.53986e-10
2.57459e-10
2.61857e-10
2.60765e-10
2.62689e-10
2.58861e-10
2.59101e-10
2.52662e-10
2.51003e-10
2.42088e-10
2.3824e-10
2.26376e-10
2.20313e-10
2.06312e-10
1.99302e-10
1.85097e-10
1.78737e-10
1.65562e-10
1.59986e-10
1.49598e-10
1.43536e-10
1.35933e-10
1.29069e-10
1.21681e-10
1.1598e-10
1.09961e-10
1.10364e-10
1.06631e-10
1.09469e-10
1.10841e-10
1.17358e-10
1.22255e-10
1.30681e-10
1.35662e-10
1.41536e-10
1.42528e-10
1.43524e-10
1.39365e-10
1.35614e-10
1.27291e-10
1.20139e-10
1.09189e-10
1.0148e-10
9.09783e-11
8.40162e-11
7.47386e-11
6.97466e-11
6.29734e-11
5.90128e-11
5.37646e-11
5.09593e-11
4.65394e-11
4.45699e-11
4.13848e-11
4.127e-11
3.94083e-11
4.04567e-11
3.97274e-11
4.1143e-11
3.97436e-11
4.40708e-11
4.38318e-11
4.60667e-11
4.39712e-11
4.96e-11
4.76836e-11
5.24371e-11
5.22449e-11
5.38597e-11
5.46884e-11
7.39606e-11
7.86636e-11
8.67022e-11
8.54937e-11
9.0703e-11
8.8263e-11
9.57544e-11
9.40724e-11
9.50868e-11
9.12284e-11
9.36265e-11
8.88999e-11
8.86346e-11
8.33226e-11
7.95439e-11
7.25181e-11
6.40366e-11
5.30948e-11
4.01808e-11
2.53623e-11
7.93987e-12
-1.05189e-11
-3.14539e-11
-5.22752e-11
-7.52855e-11
-9.79699e-11
-1.22729e-10
-1.46536e-10
-1.71585e-10
-1.94671e-10
-2.17385e-10
-2.376e-10
-2.56673e-10
-2.70924e-10
-2.83918e-10
-2.93195e-10
-3.02463e-10
-3.09693e-10
-3.14026e-10
-3.1706e-10
-3.18532e-10
-3.19999e-10
-3.22577e-10
-3.22889e-10
-3.21611e-10
-3.20562e-10
-3.16339e-10
-3.13523e-10
-3.12592e-10
-3.07202e-10
-2.98062e-10
-2.90469e-10
-2.7575e-10
-2.63737e-10
-2.49577e-10
-2.39486e-10
-2.25932e-10
-2.15181e-10
-2.05875e-10
-1.9971e-10
-1.88626e-10
-1.84722e-10
-1.75381e-10
-1.69056e-10
-1.58459e-10
-1.54223e-10
-1.44085e-10
-1.36463e-10
-1.26273e-10
-1.22713e-10
-1.05673e-10
-9.61184e-11
-8.13915e-11
-7.54305e-11
-5.83974e-11
-4.54853e-11
-2.56553e-11
-1.05438e-11
4.80009e-12
1.074e-11
3.84739e-11
5.70314e-11
8.55545e-11
1.03589e-10
1.27761e-10
1.4367e-10
1.68006e-10
1.82634e-10
2.04758e-10
2.09906e-10
2.31677e-10
2.31944e-10
2.44834e-10
2.42496e-10
2.53921e-10
2.5301e-10
2.66257e-10
2.70312e-10
2.8327e-10
3.07298e-10
2.99838e-10
2.62391e-10
3.24648e-10
-9.78557e-11
-0.112753
1.67186e-07
5.82789e-08
5.79905e-08
5.97023e-08
6.14075e-08
6.25948e-08
6.39144e-08
6.34875e-08
6.48779e-08
6.20132e-08
)
;

boundaryField
{
    inlet
    {
        type            calculated;
        value           uniform 6.79321e-08;
    }
    endWall
    {
        type            calculated;
        value           uniform 5.63336e-08;
    }
    sideWall
    {
        type            empty;
    }
}


// ************************************************************************* //
