/*--------------------------------*- C++ -*----------------------------------*\
| =========                 |                                                 |
| \\      /  F ield         | foam-extend: Open Source CFD                    |
|  \\    /   O peration     | Version:     3.2                                |
|   \\  /    A nd           | Web:         http://www.foam-extend.org         |
|    \\/     M anipulation  | For copyright notice see file Copyright         |
\*---------------------------------------------------------------------------*/
FoamFile
{
    version     2.0;
    format      ascii;
    class       areaScalarField;
    location    "840";
    object      Fi1;
}
// * * * * * * * * * * * * * * * * * * * * * * * * * * * * * * * * * * * * * //

dimensions      [0 1 -1 0 0 0 0];

internalField   nonuniform List<scalar> 
550
(
6.79319e-08
6.40783e-08
5.85922e-08
3.94859e-08
4.7284e-09
-2.76342e-08
-5.51059e-08
-7.82751e-08
-9.12055e-08
-1.02576e-07
9.75321e-08
1.52135e-07
-2.20918e-07
-2.66042e-07
-7.50558e-08
-5.63343e-08
-5.30678e-08
2.33879e-07
2.53653e-07
-3.09019e-09
6.67495e-09
-1.74584e-07
-1.64375e-07
-5.21638e-10
5.66961e-11
1.04916e-07
1.02492e-07
3.61982e-10
-5.26265e-08
-5.33251e-08
1.28742e-08
6.52183e-09
4.73177e-09
2.92916e-10
6.0831e-10
3.32963e-10
3.69374e-10
-1.39569e-10
1.91486e-10
-3.01973e-10
3.21293e-10
-2.38686e-10
4.05379e-10
-2.35897e-10
3.21388e-10
-3.5431e-10
1.69382e-10
-3.11038e-10
1.98194e-10
-2.00042e-10
1.50919e-10
-1.97322e-10
3.56091e-11
-2.19398e-10
-3.00966e-11
-1.87881e-10
-3.6837e-11
-1.14598e-10
5.78552e-12
-1.723e-11
7.58925e-11
7.97211e-11
1.45907e-10
1.35115e-10
1.57196e-10
1.38399e-10
1.10844e-10
5.33446e-11
6.13005e-12
-4.80778e-11
-9.50676e-11
-1.20881e-10
-1.09543e-10
-1.02881e-10
-5.38346e-11
-6.13069e-11
4.31285e-12
-4.68162e-11
3.92585e-11
-6.52345e-11
5.67747e-11
-9.703e-11
8.23459e-11
-1.17471e-10
1.28912e-10
-1.33357e-10
1.8083e-10
-1.65928e-10
2.11412e-10
-2.31297e-10
2.17599e-10
-3.1742e-10
2.16942e-10
-4.18868e-10
2.27103e-10
-5.12259e-10
2.72477e-10
-5.91249e-10
3.64455e-10
-6.68404e-10
4.84842e-10
-7.8176e-10
5.98005e-10
-9.19384e-10
6.97437e-10
-1.04039e-09
7.88035e-10
-1.12627e-09
8.80242e-10
-1.16731e-09
9.74244e-10
-1.17031e-09
1.05988e-09
-1.1482e-09
1.12416e-09
-1.11156e-09
1.16254e-09
-1.063e-09
1.17676e-09
-1.00062e-09
1.17221e-09
-9.21137e-10
1.15498e-09
-8.27859e-10
1.12414e-09
-7.28661e-10
1.07788e-09
-6.32056e-10
1.01733e-09
-5.42823e-10
9.44806e-10
-4.65796e-10
8.61817e-10
-4.04984e-10
7.72464e-10
-3.59224e-10
6.82325e-10
-3.26056e-10
5.9662e-10
-3.04079e-10
5.17844e-10
-2.93024e-10
4.46237e-10
-2.95535e-10
3.78832e-10
-3.17164e-10
3.08803e-10
-3.47688e-10
2.2107e-10
-3.36643e-10
8.63008e-11
-2.7205e-10
-1.22823e-10
-1.42963e-10
-3.87338e-10
3.90227e-11
-6.07892e-10
2.35492e-10
-7.70656e-10
4.18838e-10
-8.66718e-10
5.67855e-10
-8.92007e-10
6.69095e-10
-8.48268e-10
7.12909e-10
-7.47415e-10
6.95229e-10
-6.05697e-10
6.14787e-10
-4.4683e-10
4.75501e-10
-3.19371e-10
3.73502e-10
-2.2755e-10
3.08113e-10
-1.533e-10
2.58704e-10
-1.14166e-10
2.22098e-10
-8.6092e-11
1.93478e-10
-7.31656e-11
1.61856e-10
-7.71935e-11
1.23987e-10
-9.83187e-11
7.64097e-11
-1.2195e-10
1.59978e-11
-1.30327e-10
-5.461e-11
-1.22415e-10
-1.31259e-10
-9.64302e-11
-2.09521e-10
-5.28998e-11
-2.84834e-10
5.07769e-12
-3.53266e-10
7.17009e-11
-4.07507e-10
1.44423e-10
-4.42821e-10
2.17481e-10
-4.52758e-10
2.83027e-10
-4.36995e-10
3.32955e-10
-3.96441e-10
3.60778e-10
-3.35159e-10
3.6105e-10
-2.60764e-10
3.31432e-10
-1.83173e-10
2.72865e-10
-1.16981e-10
2.08882e-10
-7.34638e-11
1.55619e-10
-5.05696e-11
1.08956e-10
-4.15904e-11
6.88009e-11
-4.15991e-11
3.4279e-11
-4.67381e-11
5.60912e-12
-5.3821e-11
-1.74004e-11
-6.09936e-11
-3.49826e-11
-6.70162e-11
-4.80475e-11
-7.19291e-11
-5.75266e-11
-7.34668e-11
-6.49903e-11
-7.68e-11
-6.92522e-11
-7.41601e-11
-6.80759e-11
-7.14222e-11
-6.57463e-11
-6.67016e-11
-6.16578e-11
-6.11134e-11
-5.67501e-11
-5.60908e-11
-5.32265e-11
-5.31851e-11
-5.15233e-11
-5.16527e-11
-5.06097e-11
-5.08252e-11
-5.01562e-11
-4.91092e-11
-4.62948e-11
-4.15754e-11
-3.37779e-11
-2.42394e-11
-1.20939e-11
2.46208e-12
1.85549e-11
3.69487e-11
5.72917e-11
7.85913e-11
1.00787e-10
1.24161e-10
1.47403e-10
1.70517e-10
1.91752e-10
2.10834e-10
2.25777e-10
2.36727e-10
2.42696e-10
2.44957e-10
2.43015e-10
2.38661e-10
2.308e-10
2.20718e-10
2.06837e-10
1.90682e-10
1.71444e-10
1.51614e-10
1.30737e-10
1.11359e-10
9.25874e-11
7.64325e-11
6.14161e-11
4.92766e-11
3.84419e-11
3.07299e-11
2.48362e-11
2.27668e-11
2.26811e-11
2.56832e-11
2.94618e-11
3.52438e-11
4.08913e-11
4.75966e-11
5.37531e-11
6.10474e-11
6.7578e-11
7.459e-11
8.01539e-11
8.5302e-11
8.91122e-11
9.23342e-11
9.40512e-11
9.55623e-11
9.4994e-11
9.35675e-11
8.91586e-11
8.48511e-11
7.93459e-11
7.12395e-11
5.92832e-11
4.50155e-11
3.02601e-11
1.4243e-11
-1.15698e-12
-1.35045e-11
-2.43505e-11
-3.14436e-11
-3.74401e-11
-3.95264e-11
-4.17096e-11
-4.03601e-11
-3.99165e-11
-3.58449e-11
-3.31998e-11
-2.69239e-11
-2.30039e-11
-1.57031e-11
-1.10106e-11
-2.87411e-12
2.55312e-12
1.12546e-11
1.63891e-11
2.32865e-11
2.63223e-11
3.18621e-11
3.37726e-11
3.89912e-11
4.22262e-11
4.88843e-11
5.11527e-11
6.96698e-11
7.25849e-11
8.67888e-11
9.33076e-11
1.05424e-10
1.13805e-10
1.2645e-10
1.36779e-10
1.51546e-10
1.6426e-10
1.8026e-10
1.94522e-10
2.10085e-10
2.23782e-10
2.36473e-10
2.4592e-10
2.5404e-10
2.57472e-10
2.61852e-10
2.60758e-10
2.62689e-10
2.58867e-10
2.59091e-10
2.52628e-10
2.50949e-10
2.4201e-10
2.3813e-10
2.26217e-10
2.20123e-10
2.061e-10
1.99072e-10
1.84855e-10
1.78479e-10
1.65291e-10
1.59723e-10
1.49335e-10
1.43244e-10
1.35641e-10
1.28734e-10
1.2138e-10
1.15713e-10
1.0973e-10
1.10158e-10
1.06502e-10
1.0944e-10
1.10915e-10
1.17525e-10
1.22495e-10
1.30962e-10
1.35951e-10
1.41807e-10
1.42761e-10
1.43706e-10
1.395e-10
1.35705e-10
1.27351e-10
1.2018e-10
1.09225e-10
1.01524e-10
9.10214e-11
8.40567e-11
7.47879e-11
6.9815e-11
6.3065e-11
5.91145e-11
5.38749e-11
5.1074e-11
4.66581e-11
4.47172e-11
4.1574e-11
4.14999e-11
3.96914e-11
4.07899e-11
4.01051e-11
4.15715e-11
4.02296e-11
4.46163e-11
4.44327e-11
4.67479e-11
4.47578e-11
5.04495e-11
4.85669e-11
5.3371e-11
5.3256e-11
5.50307e-11
5.60325e-11
7.53542e-11
8.01319e-11
8.82163e-11
8.70188e-11
9.22445e-11
8.98537e-11
9.73884e-11
9.5724e-11
9.67592e-11
9.29291e-11
9.53363e-11
9.05884e-11
9.02748e-11
8.48973e-11
8.10369e-11
7.39292e-11
6.5364e-11
5.43357e-11
4.13245e-11
2.64022e-11
8.87498e-12
-9.67898e-12
-3.06964e-11
-5.15949e-11
-7.46899e-11
-9.74663e-11
-1.22316e-10
-1.46212e-10
-1.7135e-10
-1.94519e-10
-2.17317e-10
-2.37593e-10
-2.56715e-10
-2.7104e-10
-2.84107e-10
-2.9348e-10
-3.02843e-10
-3.10171e-10
-3.14639e-10
-3.17814e-10
-3.1942e-10
-3.2108e-10
-3.23812e-10
-3.24206e-10
-3.23026e-10
-3.22059e-10
-3.17954e-10
-3.15254e-10
-3.14367e-10
-3.09e-10
-2.99877e-10
-2.9225e-10
-2.77478e-10
-2.65431e-10
-2.51267e-10
-2.41174e-10
-2.27594e-10
-2.16861e-10
-2.07573e-10
-2.01359e-10
-1.90231e-10
-1.86292e-10
-1.76832e-10
-1.70386e-10
-1.59746e-10
-1.55404e-10
-1.45164e-10
-1.37517e-10
-1.27237e-10
-1.23547e-10
-1.06334e-10
-9.66918e-11
-8.19799e-11
-7.59314e-11
-5.87965e-11
-4.5766e-11
-2.58368e-11
-1.0763e-11
4.58843e-12
1.06293e-11
3.84489e-11
5.70435e-11
8.55603e-11
1.03598e-10
1.27783e-10
1.43691e-10
1.68041e-10
1.82656e-10
2.04742e-10
2.09859e-10
2.31567e-10
2.31819e-10
2.44681e-10
2.42346e-10
2.53736e-10
2.52825e-10
2.66042e-10
2.70112e-10
2.83054e-10
3.07213e-10
2.99634e-10
2.62821e-10
3.2499e-10
-9.79971e-11
-0.112753
1.67186e-07
5.82788e-08
5.79901e-08
5.97021e-08
6.14076e-08
6.25949e-08
6.39144e-08
6.34875e-08
6.48779e-08
6.20132e-08
)
;

boundaryField
{
    inlet
    {
        type            calculated;
        value           uniform 6.79321e-08;
    }
    endWall
    {
        type            calculated;
        value           uniform 5.63336e-08;
    }
    sideWall
    {
        type            empty;
    }
}


// ************************************************************************* //
