/*--------------------------------*- C++ -*----------------------------------*\
| =========                 |                                                 |
| \\      /  F ield         | foam-extend: Open Source CFD                    |
|  \\    /   O peration     | Version:     3.2                                |
|   \\  /    A nd           | Web:         http://www.foam-extend.org         |
|    \\/     M anipulation  | For copyright notice see file Copyright         |
\*---------------------------------------------------------------------------*/
FoamFile
{
    version     2.0;
    format      ascii;
    class       areaScalarField;
    location    "840";
    object      Fi2;
}
// * * * * * * * * * * * * * * * * * * * * * * * * * * * * * * * * * * * * * //

dimensions      [0 1 -1 0 0 0 0];

internalField   nonuniform List<scalar> 
550
(
6.79319e-08
6.40783e-08
5.85922e-08
3.94859e-08
4.72841e-09
-2.76342e-08
-5.51058e-08
-7.8275e-08
-9.12029e-08
1.43808e-07
1.52049e-07
-2.83699e-07
-2.65007e-07
-8.23642e-08
-7.55109e-08
2.35941e-07
2.75878e-07
1.24385e-09
-3.43971e-08
-2.0615e-07
-1.64468e-07
-1.78845e-08
-1.82738e-08
1.48117e-07
1.34232e-07
-2.03958e-08
-5.70356e-08
-9.12224e-08
1.09811e-10
3.01265e-08
2.56982e-08
-1.06305e-08
4.69203e-10
3.02632e-10
6.0616e-10
3.26812e-10
3.61211e-10
-1.45467e-10
1.89516e-10
-3.01073e-10
3.23892e-10
-2.36815e-10
4.05753e-10
-2.37555e-10
3.18407e-10
-3.56597e-10
1.68927e-10
-3.10151e-10
1.9908e-10
-1.99839e-10
1.50054e-10
-1.98514e-10
3.43714e-11
-2.20142e-10
-3.03887e-11
-1.87601e-10
-3.61582e-11
-1.13388e-10
7.232e-12
-1.56033e-11
7.74467e-11
8.10537e-11
1.46688e-10
1.3527e-10
1.5681e-10
1.37334e-10
1.09011e-10
5.12213e-11
4.00379e-12
-5.0113e-11
-9.66387e-11
-1.2171e-10
-1.09689e-10
-1.02596e-10
-5.33656e-11
-6.08976e-11
4.56561e-12
-4.6801e-11
3.91359e-11
-6.54325e-11
5.67309e-11
-9.69197e-11
8.27438e-11
-1.16982e-10
1.29532e-10
-1.32816e-10
1.81336e-10
-1.65679e-10
2.11471e-10
-2.31473e-10
2.17378e-10
-3.17811e-10
2.16623e-10
-4.1922e-10
2.27089e-10
-5.1219e-10
2.72912e-10
-5.90719e-10
3.65205e-10
-6.67894e-10
4.85353e-10
-7.81662e-10
5.98005e-10
-9.19753e-10
6.97093e-10
-1.04092e-09
7.87668e-10
-1.12664e-09
8.8008e-10
-1.16742e-09
9.74251e-10
-1.1703e-09
1.05988e-09
-1.14827e-09
1.12401e-09
-1.11178e-09
1.16223e-09
-1.06334e-09
1.17638e-09
-1.00093e-09
1.17192e-09
-9.21299e-10
1.15481e-09
-8.27901e-10
1.12404e-09
-7.28668e-10
1.07779e-09
-6.32051e-10
1.01726e-09
-5.42823e-10
9.44701e-10
-4.65868e-10
8.61653e-10
-4.05108e-10
7.72292e-10
-3.59332e-10
6.82211e-10
-3.26099e-10
5.96594e-10
-3.04025e-10
5.1794e-10
-2.92857e-10
4.4643e-10
-2.95336e-10
3.79025e-10
-3.17014e-10
3.08992e-10
-3.47476e-10
2.21276e-10
-3.36394e-10
8.64394e-11
-2.71852e-10
-1.22882e-10
-1.42758e-10
-3.87357e-10
3.92673e-11
-6.07865e-10
2.35752e-10
-7.7063e-10
4.19031e-10
-8.66731e-10
5.6798e-10
-8.92001e-10
6.69203e-10
-8.48216e-10
7.12994e-10
-7.4733e-10
6.95289e-10
-6.05604e-10
6.14804e-10
-4.46731e-10
4.75472e-10
-3.19253e-10
3.73557e-10
-2.27462e-10
3.08119e-10
-1.5328e-10
2.58682e-10
-1.14141e-10
2.22125e-10
-8.60428e-11
1.93496e-10
-7.31811e-11
1.61781e-10
-7.73051e-11
1.2382e-10
-9.84905e-11
7.61965e-11
-1.2213e-10
1.57703e-11
-1.30492e-10
-5.48082e-11
-1.22529e-10
-1.31408e-10
-9.64969e-11
-2.09632e-10
-5.29355e-11
-2.84925e-10
5.05776e-12
-3.53334e-10
7.1714e-11
-4.07535e-10
1.4446e-10
-4.42822e-10
2.17524e-10
-4.52736e-10
2.83086e-10
-4.36925e-10
3.33049e-10
-3.96324e-10
3.60891e-10
-3.35015e-10
3.61164e-10
-2.60611e-10
3.31555e-10
-1.82983e-10
2.73034e-10
-1.16778e-10
2.09031e-10
-7.33298e-11
1.55697e-10
-5.04877e-11
1.09014e-10
-4.1533e-11
6.88295e-11
-4.15807e-11
3.4265e-11
-4.67662e-11
5.54879e-12
-5.38945e-11
-1.75063e-11
-6.11178e-11
-3.51359e-11
-6.71869e-11
-4.82346e-11
-7.21066e-11
-5.77091e-11
-7.36666e-11
-6.51742e-11
-7.69695e-11
-6.94e-11
-7.42947e-11
-6.81966e-11
-7.15172e-11
-6.58134e-11
-6.67413e-11
-6.16614e-11
-6.1084e-11
-5.66998e-11
-5.60318e-11
-5.31657e-11
-5.3121e-11
-5.14482e-11
-5.15615e-11
-5.05086e-11
-5.07172e-11
-5.00258e-11
-4.89371e-11
-4.60774e-11
-4.1313e-11
-3.34732e-11
-2.38982e-11
-1.17172e-11
2.87018e-12
1.89837e-11
3.739e-11
5.77433e-11
7.90525e-11
1.01257e-10
1.24634e-10
1.47866e-10
1.70955e-10
1.92149e-10
2.1117e-10
2.26036e-10
2.36897e-10
2.42787e-10
2.44992e-10
2.43021e-10
2.38658e-10
2.30786e-10
2.20678e-10
2.06761e-10
1.9057e-10
1.7131e-10
1.5148e-10
1.30623e-10
1.1128e-10
9.2548e-11
7.6427e-11
6.14384e-11
4.93186e-11
3.84966e-11
3.08007e-11
2.49358e-11
2.29016e-11
2.2838e-11
2.58393e-11
2.96066e-11
3.53751e-11
4.10001e-11
4.76777e-11
5.38194e-11
6.11105e-11
6.76364e-11
7.46376e-11
8.01869e-11
8.53295e-11
8.91378e-11
9.23601e-11
9.40852e-11
9.56058e-11
9.50507e-11
9.36282e-11
8.92022e-11
8.48991e-11
7.93819e-11
7.12142e-11
5.91951e-11
4.48651e-11
3.00858e-11
1.40817e-11
-1.28063e-12
-1.35699e-11
-2.43548e-11
-3.14068e-11
-3.73756e-11
-3.944e-11
-4.16167e-11
-4.02705e-11
-3.983e-11
-3.57573e-11
-3.31138e-11
-2.68484e-11
-2.29378e-11
-1.56435e-11
-1.09564e-11
-2.82384e-12
2.60245e-12
1.1289e-11
1.63878e-11
2.3248e-11
2.62637e-11
3.18042e-11
3.37209e-11
3.89455e-11
4.21868e-11
4.88526e-11
5.11625e-11
6.97015e-11
7.26448e-11
8.68697e-11
9.34009e-11
1.05503e-10
1.1388e-10
1.26537e-10
1.36892e-10
1.51689e-10
1.64433e-10
1.80461e-10
1.94742e-10
2.10299e-10
2.23975e-10
2.36628e-10
2.4602e-10
2.5409e-10
2.5748e-10
2.61843e-10
2.60749e-10
2.62687e-10
2.58869e-10
2.59077e-10
2.52591e-10
2.50892e-10
2.41929e-10
2.38017e-10
2.26057e-10
2.19932e-10
2.05888e-10
1.98842e-10
1.84614e-10
1.78221e-10
1.6502e-10
1.59461e-10
1.49073e-10
1.42952e-10
1.35349e-10
1.28398e-10
1.21081e-10
1.15447e-10
1.095e-10
1.09953e-10
1.06375e-10
1.09414e-10
1.10991e-10
1.17695e-10
1.22737e-10
1.31243e-10
1.36239e-10
1.42077e-10
1.42992e-10
1.43887e-10
1.39635e-10
1.35795e-10
1.27412e-10
1.20222e-10
1.09263e-10
1.01569e-10
9.10651e-11
8.40976e-11
7.48378e-11
6.98839e-11
6.31564e-11
5.92151e-11
5.39831e-11
5.1186e-11
4.67742e-11
4.4862e-11
4.17606e-11
4.17271e-11
3.99713e-11
4.1119e-11
4.04778e-11
4.19947e-11
4.07106e-11
4.51562e-11
4.50277e-11
4.74239e-11
4.55383e-11
5.12906e-11
4.94415e-11
5.42979e-11
5.42617e-11
5.61969e-11
5.73714e-11
7.67418e-11
8.1594e-11
8.97236e-11
8.85367e-11
9.37799e-11
9.14401e-11
9.9019e-11
9.73728e-11
9.84299e-11
9.46283e-11
9.70445e-11
9.22752e-11
9.1914e-11
8.64716e-11
8.25301e-11
7.53415e-11
6.66935e-11
5.5579e-11
4.2471e-11
2.74453e-11
9.81433e-12
-8.83364e-12
-2.99323e-11
-5.09077e-11
-7.40873e-11
-9.69554e-11
-1.21896e-10
-1.45879e-10
-1.71105e-10
-1.94355e-10
-2.17237e-10
-2.37572e-10
-2.56743e-10
-2.71141e-10
-2.84281e-10
-2.93751e-10
-3.03209e-10
-3.10634e-10
-3.15238e-10
-3.18554e-10
-3.20295e-10
-3.22148e-10
-3.25032e-10
-3.2551e-10
-3.24429e-10
-3.23544e-10
-3.1956e-10
-3.16977e-10
-3.16135e-10
-3.10792e-10
-3.01687e-10
-2.94026e-10
-2.79202e-10
-2.67124e-10
-2.52957e-10
-2.42863e-10
-2.29259e-10
-2.18547e-10
-2.09276e-10
-2.03013e-10
-1.91841e-10
-1.87866e-10
-1.78288e-10
-1.71722e-10
-1.61039e-10
-1.56592e-10
-1.46252e-10
-1.38579e-10
-1.28207e-10
-1.24384e-10
-1.07001e-10
-9.72736e-11
-8.25766e-11
-7.64385e-11
-5.91998e-11
-4.60517e-11
-2.60252e-11
-1.09896e-11
4.372e-12
1.05167e-11
3.84219e-11
5.70533e-11
8.55636e-11
1.03604e-10
1.27802e-10
1.43708e-10
1.68073e-10
1.82675e-10
2.04723e-10
2.09808e-10
2.31456e-10
2.31692e-10
2.44527e-10
2.42194e-10
2.5355e-10
2.52638e-10
2.65827e-10
2.6991e-10
2.82836e-10
3.07127e-10
2.99429e-10
2.63252e-10
3.25332e-10
-9.81376e-11
-0.112753
1.67186e-07
5.82787e-08
5.79898e-08
5.97019e-08
6.14076e-08
6.2595e-08
6.39144e-08
6.34876e-08
6.48779e-08
6.20132e-08
)
;

boundaryField
{
    inlet
    {
        type            calculated;
        value           uniform 6.79321e-08;
    }
    endWall
    {
        type            calculated;
        value           uniform 5.63336e-08;
    }
    sideWall
    {
        type            empty;
    }
}


// ************************************************************************* //
