/*--------------------------------*- C++ -*----------------------------------*\
| =========                 |                                                 |
| \\      /  F ield         | foam-extend: Open Source CFD                    |
|  \\    /   O peration     | Version:     3.2                                |
|   \\  /    A nd           | Web:         http://www.foam-extend.org         |
|    \\/     M anipulation  | For copyright notice see file Copyright         |
\*---------------------------------------------------------------------------*/
FoamFile
{
    version     2.0;
    format      ascii;
    class       areaScalarField;
    location    "840";
    object      Hdep;
}
// * * * * * * * * * * * * * * * * * * * * * * * * * * * * * * * * * * * * * //

dimensions      [0 0 0 0 0 0 0];

internalField   nonuniform List<scalar> 
550
(
0
0
0
0
0
0
0
0
0
0
0
0
0
0
2.28164e-05
1.68064e-05
0.00390466
0.00358224
1.84526e-05
0.811962
0.76879
0.732334
0.674835
0.581668
0.528085
0.444208
0.430903
0.350555
0.285688
0.215012
0.161257
0.0938532
0.0757927
0.0252762
0.010577
0.00747073
0.00752913
0.00710328
0.00761876
0.00738341
0.00786793
0.00767704
0.00814851
0.00801264
0.00861482
0.008598
0.00917092
0.00913532
0.00970718
0.00965886
0.0102363
0.0102055
0.0107489
0.0107399
0.0112294
0.0112505
0.0116726
0.0117344
0.0121117
0.0121772
0.0125401
0.0126033
0.0129562
0.0130194
0.0133458
0.0134096
0.0137
0.0137693
0.0140235
0.0140793
0.0143052
0.0143478
0.0145639
0.0145969
0.0147996
0.0148435
0.0150141
0.0150802
0.0152121
0.0153006
0.0154168
0.0155137
0.0155812
0.0157049
0.0157366
0.0158893
0.0158922
0.0160526
0.0160342
0.0161956
0.0161644
0.0163409
0.0163155
0.0164883
0.0164451
0.0166206
0.0165974
0.0167311
0.0167304
0.0168759
0.0168795
0.0169672
0.0170126
0.0170921
0.0171516
0.0171925
0.0173093
0.0173255
0.017439
0.0174368
0.0175873
0.0175562
0.0177204
0.0176891
0.0178479
0.0178079
0.0179767
0.0179281
0.0180789
0.0180511
0.018198
0.0181512
0.0183252
0.0182815
0.0184183
0.0183826
0.018539
0.0184969
0.0186607
0.0185995
0.0187587
0.0186957
0.0188281
0.01879
0.0188779
0.0189167
0.0189729
0.0190307
0.0190642
0.0191113
0.0191903
0.0192114
0.0193128
0.0193054
0.0194136
0.0193894
0.0195089
0.0194784
0.0196209
0.0195565
0.0197431
0.0196609
0.0198726
0.0197325
0.019939
0.0198114
0.0200235
0.0199464
0.0200778
0.0200532
0.0201509
0.0201534
0.0202232
0.0202459
0.0202795
0.0203041
0.0203326
0.0203501
0.0203732
0.0203913
0.0204312
0.0204262
0.0205074
0.0204724
0.0205586
0.0205184
0.0206058
0.0205577
0.0206561
0.0205999
0.0206942
0.0206353
0.0207456
0.0206656
0.0207927
0.0207116
0.020826
0.0207894
0.020873
0.0208509
0.0209105
0.0208927
0.0209539
0.0209298
0.0209872
0.0209661
0.0210067
0.0210087
0.0210317
0.0210452
0.0210819
0.0210709
0.0211402
0.0211064
0.0212081
0.0211526
0.0212597
0.0212077
0.0212982
0.0212492
0.0213372
0.0212906
0.021372
0.0213378
0.0213983
0.0213889
0.0214226
0.02142
0.0214506
0.0214558
0.0214831
0.0214923
0.0215162
0.0215284
0.0215487
0.0215625
0.0215806
0.0215967
0.0216125
0.0216282
0.0216433
0.0216576
0.0216713
0.0216846
0.0216977
0.0217115
0.0217245
0.0217373
0.0217502
0.0217623
0.0217743
0.0217877
0.021801
0.0218134
0.0218254
0.0218379
0.0218502
0.0218622
0.021874
0.021885
0.0218949
0.0219037
0.021912
0.0219198
0.0219276
0.0219348
0.0219407
0.0219459
0.0219505
0.0219548
0.0219586
0.0219613
0.0219637
0.0219658
0.0219675
0.0219701
0.0219724
0.021974
0.0219746
0.0219744
0.0219738
0.0219719
0.021969
0.0219658
0.0219614
0.0219559
0.0219498
0.0219436
0.0219369
0.0219298
0.0219222
0.0219136
0.0219045
0.0218952
0.0218854
0.0218747
0.0218645
0.0218547
0.0218449
0.0218357
0.0218272
0.0218186
0.0218105
0.0218025
0.0217957
0.0217899
0.0217852
0.0217811
0.0217771
0.0217723
0.0217673
0.0217618
0.0217563
0.021751
0.0217458
0.0217405
0.0217357
0.0217309
0.0217261
0.0217217
0.0217181
0.0217154
0.0217132
0.0217117
0.0217115
0.0217121
0.0217126
0.0217135
0.0217147
0.0217161
0.0217189
0.0217236
0.0217295
0.0217371
0.0217465
0.0217575
0.021771
0.0217874
0.0218053
0.0218252
0.0218465
0.0218685
0.0218931
0.0219212
0.0219524
0.0219849
0.0220185
0.0220541
0.0220909
0.0221286
0.0221668
0.0222066
0.0222471
0.0222871
0.0223262
0.0223633
0.0223999
0.0224361
0.0224715
0.022507
0.022543
0.0225792
0.0226169
0.0226558
0.0226951
0.0227344
0.0227729
0.0228112
0.0228489
0.0228868
0.0229244
0.0229617
0.0229986
0.0230357
0.0230724
0.023109
0.0231446
0.0231807
0.0232174
0.023254
0.0232903
0.0233268
0.0233637
0.0234007
0.0234376
0.0234743
0.0235117
0.0235493
0.023588
0.0236271
0.0236662
0.0237049
0.023744
0.0237827
0.0238216
0.02386
0.0238979
0.0239361
0.0239738
0.0240117
0.0240488
0.0240853
0.0241202
0.0241542
0.0241884
0.0242212
0.0242524
0.0242823
0.0243114
0.0243396
0.0243681
0.0243957
0.0244224
0.0244482
0.0244729
0.0244969
0.0245205
0.0245425
0.0245638
0.0245851
0.0246067
0.0246284
0.0246501
0.0246728
0.0246958
0.0247196
0.0247445
0.0247699
0.0247961
0.0248224
0.0248499
0.0248794
0.0249101
0.0249418
0.0249742
0.0250064
0.0250391
0.0250735
0.0251083
0.0251436
0.0251787
0.0252134
0.0252473
0.0252798
0.0253106
0.025342
0.0253749
0.0254091
0.0254438
0.02548
0.0255176
0.0255552
0.0255936
0.0256328
0.0256726
0.0257133
0.0257546
0.0257963
0.0258398
0.025884
0.0259287
0.0259742
0.0260196
0.0260659
0.0261125
0.026159
0.0262055
0.0262516
0.0262972
0.0263423
0.026387
0.0264319
0.0264768
0.0265213
0.0265666
0.026613
0.0266595
0.0267067
0.0267548
0.0268034
0.0268521
0.0269005
0.0269486
0.0269969
0.0270446
0.0270921
0.0271389
0.0271856
0.0272336
0.0272817
0.0273299
0.0273787
0.0274271
0.0274751
0.0275223
0.0275678
0.0276129
0.0276577
0.0277021
0.0277466
0.027791
0.0278349
0.0278786
0.0279214
0.0279631
0.0280052
0.0280461
0.0280857
0.0281263
0.028165
0.0282018
0.0282395
0.028277
0.0283141
0.0283523
0.0283908
0.0284306
0.0284713
0.0285125
0.0285554
0.0286016
0.0286488
0.0286986
0.0287523
0.0288088
0.0288696
0.0289349
0.0290061
0.0290811
0.0291663
0.0292528
0.0293607
0.0294544
0.0296017
0.0296936
0.0298909
0.0299625
0.0301819
0.0301991
0.0303678
0.0302662
0.0302501
0.0299234
0.0295129
0.0287795
0.0272714
0.0258974
0.0230032
0.0183136
0
0
0
0
0
0
0
0
0
0
0
)
;

boundaryField
{
    inlet
    {
        type            calculated;
        value           uniform 0;
    }
    endWall
    {
        type            calculated;
        value           uniform 0;
    }
    sideWall
    {
        type            empty;
    }
}


// ************************************************************************* //
