/*--------------------------------*- C++ -*----------------------------------*\
| =========                 |                                                 |
| \\      /  F ield         | foam-extend: Open Source CFD                    |
|  \\    /   O peration     | Version:     3.2                                |
|   \\  /    A nd           | Web:         http://www.foam-extend.org         |
|    \\/     M anipulation  | For copyright notice see file Copyright         |
\*---------------------------------------------------------------------------*/
FoamFile
{
    version     2.0;
    format      ascii;
    class       areaScalarField;
    location    "840";
    object      He;
}
// * * * * * * * * * * * * * * * * * * * * * * * * * * * * * * * * * * * * * //

dimensions      [0 0 0 0 0 0 0];

internalField   nonuniform List<scalar> 
550
(
0
0
0
0
0
0
0
0
0
0
0
0
2.06638e-05
2.78098e-05
1.18123e-05
6.0198e-06
0
0
0
0
1.79323e-05
1.81344e-05
1.25964e-05
4.13403e-06
0
0
0
0
5.47731e-06
3.66015e-06
5.26457e-07
0
0
0
0
0
0
0
1.14771e-07
2.49906e-08
0
0
0
0
0
9.00803e-07
5.34618e-07
2.15862e-06
1.95228e-06
1.87745e-06
1.8447e-06
1.71607e-06
1.53957e-06
1.25906e-06
9.64017e-07
6.49569e-07
3.80622e-07
1.58215e-07
3.17399e-08
0
0
0
0
0
0
0
0
0
0
3.68598e-06
3.32438e-06
2.77823e-06
2.23849e-06
1.71599e-06
1.32695e-06
9.86067e-07
7.48381e-07
5.22361e-07
3.54265e-07
1.93087e-07
1.00443e-07
4.73067e-08
2.1833e-08
3.82529e-09
0
0
0
0
0
1.22674e-05
1.33439e-05
4.2816e-05
4.60244e-05
4.81484e-05
5.22144e-05
5.47438e-05
5.92591e-05
6.17861e-05
6.55738e-05
6.79636e-05
6.90111e-05
6.97527e-05
6.79699e-05
6.67711e-05
6.23684e-05
5.91436e-05
5.29496e-05
2.27039e-05
1.96512e-05
1.73746e-05
1.40646e-05
1.16051e-05
8.25833e-06
5.80488e-06
4.46008e-07
0
0
0
0
0
0
0
0
0
0
0
0
0
0
0
0
0
0
0
0
0
0
0
0
0
0
0
0
0
0
0
4.13042e-08
0.000307219
0.000305989
0.000293696
0.000286436
0.000265416
0.00025503
0.000228748
0.000213185
0.000124624
0.00011467
0.000100334
9.12166e-05
7.44471e-05
6.38829e-05
4.6499e-05
3.63009e-05
2.06074e-05
2.16195e-06
5.20155e-07
1.73262e-07
0
0
0
0
0
0
0
0
0
0
0
0
0
0
0
0
0
0
0
0
1.91577e-06
2.66429e-05
3.03025e-05
3.51013e-05
3.81969e-05
4.2065e-05
4.43995e-05
4.69506e-05
4.82651e-05
4.91624e-05
4.93525e-05
4.84721e-05
4.74008e-05
5.94107e-06
5.46867e-06
4.76137e-06
4.13831e-06
3.26746e-06
2.58254e-06
1.73353e-06
1.19072e-06
6.07007e-07
2.66617e-07
2.86159e-09
0
0
0
0
0
0
0
0
0
0
0
0
0
0
0
2.76389e-08
2.86441e-07
5.96977e-07
8.50493e-07
1.10009e-06
1.28228e-06
1.44362e-06
1.54715e-06
1.64043e-06
1.70777e-06
1.77113e-06
1.8142e-06
1.85703e-06
1.87223e-06
1.8625e-06
1.82811e-06
1.79389e-06
1.75539e-06
1.72026e-06
1.68042e-06
1.63833e-06
1.58909e-06
1.53505e-06
1.472e-06
1.39948e-06
1.31397e-06
1.21457e-06
1.0999e-06
9.69459e-07
8.22872e-07
6.65659e-07
5.12011e-07
3.77038e-07
2.59286e-07
1.56909e-07
7.41019e-08
1.7315e-08
0
0
0
0
0
0
0
0
0
0
0
0
0
0
0
0
0
0
0
0
0
0
0
0
0
0
0
0
0
0
0
0
0
0
0
0
0
0
0
0
0
0
0
0
0
0
0
0
0
0
0
0
0
0
0
0
0
0
0
7.7097e-07
1.04149e-06
1.24435e-06
1.38416e-06
1.46141e-06
1.4801e-06
1.44962e-06
1.37587e-06
1.26526e-06
1.12609e-06
9.6534e-07
7.90352e-07
6.1095e-07
4.32819e-07
2.59607e-07
9.13545e-08
0
0
0
0
0
0
0
0
0
0
0
0
0
0
0
0
0
0
0
0
0
0
0
0
0
0
0
0
0
0
0
0
0
0
0
0
0
0
0
0
0
0
0
0
0
0
0
0
0
0
0
0
0
0
0
0
0
0
0
0
0
0
0
0
0
0
0
0
0
0
0
0
0
0
0
0
0
0
0
0
0
0
0
0
0
0
0
0
0
0
0
0
0
0
0
0
0
0
0
0
0
0
0
0
0
0
0
0
0
0
0
0
0
0
0
0
0
0
6.63744e-09
5.81034e-08
1.72526e-07
3.64617e-07
6.44206e-07
1.00945e-06
1.44156e-06
1.91465e-06
2.41001e-06
2.91582e-06
3.41859e-06
3.91322e-06
4.40686e-06
4.91048e-06
5.44062e-06
6.01367e-06
6.64772e-06
7.36683e-06
8.15983e-06
2.59531e-05
2.29691e-05
2.39293e-05
2.47743e-05
2.54873e-05
2.60597e-05
2.64949e-05
2.6797e-05
2.69741e-05
2.70397e-05
2.69996e-05
2.68637e-05
2.6647e-05
2.63641e-05
2.60492e-05
2.56725e-05
2.5206e-05
2.47662e-05
2.43922e-05
2.40383e-05
2.36454e-05
2.32172e-05
2.26691e-05
2.20576e-05
2.14465e-05
2.08498e-05
2.03318e-05
1.97968e-05
1.91497e-05
1.8403e-05
1.75921e-05
1.67136e-05
1.57851e-05
1.47737e-05
1.37285e-05
1.27165e-05
1.17066e-05
1.06939e-05
0
0
0
0
0
0
0
0
0
0
0
0
0
0
0
0
0
0
0
0
0
0
0
0
0
0
6.39932e-07
0
0
0
0
0
0
0
0
0
0
)
;

boundaryField
{
    inlet
    {
        type            calculated;
        value           uniform 0;
    }
    endWall
    {
        type            calculated;
        value           uniform 0;
    }
    sideWall
    {
        type            empty;
    }
}


// ************************************************************************* //
