/*--------------------------------*- C++ -*----------------------------------*\
| =========                 |                                                 |
| \\      /  F ield         | foam-extend: Open Source CFD                    |
|  \\    /   O peration     | Version:     3.2                                |
|   \\  /    A nd           | Web:         http://www.foam-extend.org         |
|    \\/     M anipulation  | For copyright notice see file Copyright         |
\*---------------------------------------------------------------------------*/
FoamFile
{
    version     2.0;
    format      ascii;
    class       volScalarField;
    location    "840";
    object      k;
}
// * * * * * * * * * * * * * * * * * * * * * * * * * * * * * * * * * * * * * //

dimensions      [0 2 -2 0 0 0 0];

internalField   nonuniform List<scalar> 
33000
(
0.000161148
0.000218679
0.000286914
0.000364775
0.000450023
0.000539434
0.000629685
0.000717053
0.000798143
0.000873019
0.000933559
0.000988009
0.00102778
0.00105852
0.00107439
0.00108343
0.0010815
0.00107721
0.00105829
0.00104301
0.00103162
0.00102097
0.00100624
0.000989725
0.000969978
0.000951635
0.000943749
0.000930582
0.000919724
0.000904297
0.000893238
0.000883887
0.000878784
0.000878411
0.000880178
0.000881575
0.000881826
0.000881679
0.000882012
0.00088156
0.000881214
0.000880101
0.000878957
0.000877995
0.000877753
0.000878055
0.000878536
0.000879117
0.000879536
0.000880053
0.00088052
0.000881148
0.000881764
0.000882506
0.000883244
0.000884064
0.000884875
0.000885731
0.000886604
0.000887508
0.000888378
0.000889252
0.000890056
0.000890824
0.000891528
0.000892132
0.00089267
0.000893107
0.000893462
0.000893669
0.000893787
0.000893732
0.000893565
0.000893206
0.000892779
0.000892161
0.000891544
0.000890747
0.000890035
0.00088916
0.000888429
0.000887524
0.000886794
0.000885888
0.00088516
0.000884248
0.000883547
0.000882653
0.000881999
0.000881166
0.000880589
0.000879834
0.000879315
0.000878625
0.000878188
0.000877533
0.000877155
0.000876505
0.000876188
0.0008755
0.000875256
0.000874595
0.000874439
0.000873855
0.000873774
0.000873293
0.000873245
0.000872859
0.000872794
0.000872461
0.000872334
0.000872016
0.000871826
0.000871517
0.000871245
0.00087094
0.000870592
0.000870288
0.000869878
0.000869586
0.000869101
0.000868802
0.000868245
0.000867928
0.000867311
0.00086698
0.000866337
0.000865991
0.000865339
0.000864996
0.000864335
0.000863988
0.000863336
0.000862988
0.000862372
0.000862045
0.000861458
0.000861149
0.000860608
0.000860312
0.00085981
0.000859525
0.000859073
0.000858825
0.000858409
0.000858204
0.00085782
0.000857738
0.000857366
0.000857453
0.000857028
0.000857327
0.000856841
0.000857327
0.000856933
0.000857482
0.000857228
0.000857707
0.00085754
0.000857856
0.000857782
0.000857844
0.000857799
0.000857527
0.000857491
0.000856907
0.000856847
0.00085598
0.000855891
0.000854801
0.000854625
0.000853483
0.000853233
0.000852298
0.000851971
0.000851162
0.000850813
0.000850124
0.000849815
0.000849252
0.000848921
0.000848449
0.000848127
0.000847717
0.000847451
0.000847103
0.000846914
0.000846625
0.000846539
0.000846315
0.000846321
0.000846153
0.000846254
0.000846147
0.000846327
0.000846245
0.000846489
0.000846456
0.000846695
0.000846709
0.000846931
0.000846966
0.000847096
0.000847157
0.000847185
0.00084723
0.000847139
0.000847179
0.00084696
0.000846996
0.000846653
0.000846683
0.000846231
0.000846243
0.000845719
0.000845737
0.000845207
0.000845202
0.000844772
0.000844752
0.000844419
0.000844412
0.000844193
0.00084419
0.000844036
0.000844062
0.000843947
0.00084397
0.000843907
0.000843915
0.000843868
0.000843886
0.000843847
0.000843852
0.000843814
0.000843813
0.000843776
0.000843737
0.0008437
0.00084364
0.000843566
0.000843487
0.000843392
0.000843271
0.000843131
0.000842991
0.000842832
0.000842663
0.000842478
0.000842281
0.000842069
0.000841847
0.000841612
0.000841369
0.000841129
0.000840878
0.000840608
0.000840326
0.000840034
0.000839747
0.000839444
0.000839115
0.000838784
0.000838433
0.000838056
0.000837673
0.000837271
0.00083685
0.000836413
0.000835959
0.000835499
0.000835013
0.000834513
0.000834017
0.00083351
0.000832991
0.000832472
0.000831971
0.000831478
0.000830998
0.000830529
0.000830063
0.000829614
0.000829196
0.0008288
0.000828416
0.000828057
0.00082773
0.000827416
0.00082712
0.000826849
0.000826593
0.000826359
0.000826137
0.000825933
0.000825728
0.000825538
0.000825368
0.000825208
0.000825048
0.000824897
0.000824757
0.000824629
0.000824526
0.000824434
0.000824345
0.000824269
0.000824205
0.000824155
0.000824119
0.000824097
0.000824093
0.000824099
0.000824114
0.000824139
0.000824197
0.000824267
0.000824357
0.000824463
0.00082458
0.000824712
0.00082487
0.000825031
0.000825211
0.000825408
0.000825595
0.000825794
0.000825999
0.000826192
0.000826389
0.000826591
0.000826774
0.000826956
0.000827129
0.000827295
0.000827458
0.00082761
0.000827758
0.000827895
0.000828025
0.000828131
0.000828244
0.000828346
0.000828441
0.000828531
0.0008286
0.000828672
0.000828731
0.000828775
0.000828822
0.000828853
0.000828876
0.000828902
0.000828914
0.000828915
0.000828903
0.000828876
0.000828835
0.000828778
0.000828707
0.000828618
0.000828515
0.000828401
0.000828274
0.000828147
0.000828019
0.000827877
0.000827738
0.000827599
0.000827467
0.000827337
0.000827214
0.000827095
0.000826984
0.000826876
0.000826775
0.000826679
0.000826589
0.000826503
0.000826422
0.000826342
0.000826263
0.000826183
0.0008261
0.000826028
0.000825927
0.000825828
0.00082572
0.000825606
0.000825504
0.000825395
0.000825273
0.000825127
0.000824961
0.000824804
0.000824628
0.000824441
0.000824232
0.000824013
0.000823777
0.000823532
0.000823276
0.000823016
0.000822753
0.000822492
0.000822243
0.000822001
0.000821746
0.000821495
0.000821242
0.000820992
0.000820731
0.00082047
0.000820229
0.000819994
0.000819769
0.000819553
0.000819347
0.000819149
0.000818946
0.00081875
0.000818577
0.000818411
0.000818256
0.000818111
0.00081796
0.00081781
0.000817687
0.000817575
0.000817471
0.000817377
0.000817289
0.000817212
0.000817129
0.000817054
0.000817001
0.00081697
0.000816955
0.000816941
0.000816964
0.000817012
0.000817064
0.000817145
0.00081725
0.000817361
0.000817496
0.000817652
0.000817813
0.000817992
0.000818185
0.000818401
0.000818638
0.000818879
0.000819138
0.000819411
0.000819701
0.000820007
0.000820326
0.00082066
0.000821006
0.000821364
0.000821732
0.00082211
0.000822495
0.000822887
0.000823286
0.00082368
0.000824074
0.00082448
0.00082488
0.00082528
0.000825664
0.00082604
0.000826421
0.00082679
0.000827153
0.000827493
0.000827821
0.000828154
0.000828468
0.000828772
0.000829052
0.000829307
0.000829571
0.000829823
0.000830035
0.000830234
0.000830403
0.000830556
0.000830694
0.000830789
0.000830878
0.00083095
0.000830987
0.000831023
0.000831052
0.00083105
0.000831055
0.000831058
0.000831035
0.000831019
0.000831014
0.000830984
0.000830963
0.000830959
0.000830935
0.000830924
0.000830936
0.000830932
0.000830966
0.000831026
0.000831085
0.000831197
0.000831358
0.000831532
0.00083184
0.000832017
0.000832553
0.00083267
0.000833655
0.000833479
0.000835322
0.000834505
0.000837698
0.00083605
0.000840872
0.000838738
0.000844421
0.000841767
0.000846345
0.000843143
0.000843292
0.000839444
0.000830934
0.000825134
0.00080421
0.000790295
0.000724767
0.00064255
0.000342825
0.000183754
0.000203445
0.000209122
0.000182525
0.000155605
0.000133809
0.000106074
0.000115273
0.000153877
0.000253249
0.000113234
0.000116391
0.000121672
0.000128272
0.000136809
0.000146625
0.000157369
0.00016903
0.000179574
0.000195423
0.000209416
0.00022828
0.000248919
0.000273368
0.000288609
0.000308398
0.000320788
0.000338898
0.000349069
0.000360929
0.000369377
0.000384538
0.000396394
0.000411472
0.000423655
0.000436701
0.000446971
0.000464914
0.000480769
0.0004955
0.000505681
0.000513402
0.000520806
0.000528965
0.000539324
0.000550534
0.000562025
0.000572914
0.000583219
0.000593473
0.00060337
0.000613104
0.000622359
0.000630993
0.000638972
0.000646326
0.000653609
0.000660582
0.000667359
0.000673842
0.000680053
0.00068605
0.000691859
0.000697526
0.000703017
0.000708382
0.00071356
0.000718601
0.000723467
0.000728198
0.000732872
0.000737375
0.000741891
0.000746197
0.000750504
0.000754582
0.000758665
0.000762481
0.000766278
0.000769774
0.000773225
0.000776352
0.000779461
0.00078227
0.00078508
0.00078765
0.000790226
0.00079263
0.000794991
0.000797245
0.000799393
0.000801484
0.000803405
0.000805318
0.000807016
0.000808764
0.000810251
0.000811782
0.000813087
0.000814424
0.000815553
0.000816752
0.000817725
0.000818767
0.000819563
0.000820419
0.000821025
0.00082173
0.000822218
0.00082283
0.000823249
0.000823747
0.000824128
0.000824496
0.00082483
0.000825078
0.000825367
0.0008255
0.000825752
0.000825798
0.000826029
0.00082601
0.000826218
0.000826149
0.000826338
0.000826218
0.000826381
0.000826214
0.000826343
0.000826135
0.000826238
0.000826004
0.000826088
0.000825846
0.000825918
0.000825681
0.000825741
0.000825523
0.00082558
0.000825388
0.00082545
0.000825294
0.000825364
0.000825246
0.000825323
0.000825241
0.000825335
0.000825292
0.000825399
0.000825402
0.000825536
0.000825586
0.00082575
0.000825844
0.000826056
0.0008262
0.000826483
0.000826649
0.000827042
0.000827196
0.000827736
0.000827858
0.000828426
0.00082861
0.000829176
0.00082943
0.000829994
0.000830345
0.000830914
0.000831372
0.000831921
0.000832482
0.000833014
0.000833679
0.000834172
0.000834904
0.000835359
0.000836134
0.000836547
0.000837345
0.000837752
0.000838536
0.00083895
0.000839645
0.00084007
0.000840785
0.000841218
0.000841876
0.000842324
0.000842984
0.000843509
0.000844173
0.000844736
0.000845415
0.000846004
0.000846705
0.00084731
0.000848033
0.000848639
0.000849376
0.000849977
0.000850721
0.000851303
0.000852042
0.000852592
0.000853331
0.000853843
0.000854556
0.000855051
0.000855727
0.000856137
0.00085678
0.000857089
0.000857693
0.000857901
0.000858364
0.000858529
0.000858862
0.000859021
0.000859236
0.000859414
0.000859525
0.000859737
0.00085978
0.000860044
0.000860036
0.000860335
0.000860351
0.000860626
0.000860697
0.000860993
0.000861106
0.000861401
0.000861556
0.000861847
0.000862011
0.000862296
0.00086248
0.000862712
0.000862921
0.000863159
0.000863356
0.000863577
0.000863778
0.00086402
0.000864225
0.000864397
0.00086461
0.000864683
0.000864822
0.000864841
0.0008649
0.000864856
0.000864876
0.000864821
0.00086478
0.000864709
0.000864644
0.000864571
0.000864495
0.000864426
0.000864348
0.000864282
0.000864211
0.000864122
0.000864033
0.000863955
0.000863853
0.000863765
0.000863601
0.000863463
0.000863293
0.000863084
0.00086285
0.000862606
0.000862294
0.000861993
0.000861642
0.0008613
0.00086093
0.000860535
0.000860183
0.000859812
0.000859464
0.000859123
0.000858866
0.000858642
0.000858476
0.000858378
0.000858336
0.000858362
0.000858463
0.000858623
0.000858817
0.000859069
0.000859372
0.000859715
0.00086005
0.000860438
0.000860797
0.000861187
0.000861528
0.000861882
0.000862193
0.000862502
0.000862806
0.000863096
0.000863357
0.000863608
0.000863872
0.00086412
0.000864385
0.000864645
0.0008649
0.000865141
0.000865398
0.000865627
0.000865863
0.000866066
0.000866279
0.000866467
0.000866654
0.000866813
0.000866995
0.00086716
0.000867318
0.000867472
0.000867633
0.000867781
0.000867944
0.000868081
0.000868192
0.000868293
0.000868337
0.000868315
0.000868284
0.000868164
0.000867991
0.00086778
0.000867493
0.000867125
0.000866744
0.000866266
0.000865782
0.000865214
0.000864637
0.000863993
0.000863346
0.00086265
0.000861945
0.000861252
0.000860491
0.000859762
0.000858976
0.000858211
0.000857436
0.000856637
0.000855847
0.000855056
0.000854225
0.000853414
0.000852567
0.000851703
0.000850826
0.000849935
0.00084904
0.000848127
0.000847214
0.000846289
0.000845369
0.000844446
0.000843544
0.000842641
0.000841787
0.00084092
0.000840106
0.000839338
0.000838609
0.000837933
0.00083729
0.000836707
0.000836154
0.000835657
0.000835186
0.000834765
0.000834367
0.000834009
0.000833674
0.00083337
0.000833084
0.000832824
0.000832575
0.000832349
0.000832127
0.000831899
0.000831708
0.000831502
0.000831297
0.000831083
0.000830825
0.000830553
0.000830267
0.000829991
0.00082972
0.000829399
0.000829083
0.00082873
0.000828403
0.00082805
0.000827735
0.000827403
0.00082712
0.000826841
0.00082661
0.000826402
0.000826211
0.000826047
0.000825938
0.000825837
0.000825768
0.000825694
0.000825661
0.000825621
0.000825579
0.000825539
0.00082549
0.000825431
0.000825354
0.000825261
0.000825173
0.000825063
0.000824932
0.000824791
0.000824631
0.000824452
0.000824275
0.000824103
0.000823901
0.00082369
0.000823469
0.00082323
0.00082298
0.000822698
0.00082243
0.000822127
0.000821797
0.000821433
0.000821056
0.000820704
0.000820284
0.00081989
0.00081952
0.000819144
0.000818792
0.000818497
0.000818187
0.000817938
0.000817724
0.000817529
0.000817392
0.000817253
0.000817183
0.000817159
0.00081718
0.000817255
0.000817377
0.000817562
0.000817797
0.000818097
0.00081844
0.000818841
0.000819276
0.000819756
0.000820253
0.000820785
0.000821308
0.000821877
0.00082242
0.000822961
0.000823492
0.000823998
0.00082453
0.000825031
0.00082552
0.000826009
0.000826471
0.000826965
0.000827441
0.000827902
0.000828361
0.000828798
0.000829239
0.000829692
0.000830095
0.000830475
0.000830877
0.000831252
0.00083162
0.000831957
0.000832259
0.000832587
0.000832865
0.000833141
0.000833453
0.000833721
0.000833976
0.000834258
0.000834499
0.000834726
0.000834984
0.000835205
0.000835386
0.0008356
0.000835781
0.000835915
0.000836075
0.000836192
0.000836283
0.000836399
0.000836454
0.00083645
0.000836527
0.000836469
0.000836495
0.000836429
0.000836388
0.000836497
0.000836245
0.000836525
0.000836031
0.000836757
0.000835675
0.000837333
0.000835277
0.000838562
0.000835411
0.000840314
0.000836523
0.000842534
0.000839225
0.000845767
0.000844324
0.000850017
0.000850986
0.000850151
0.000846911
0.000822535
0.000809931
0.000715242
0.000566526
0.000627365
0.000656249
0.000754832
0.000641974
0.000588332
0.00051856
0.000349621
0.000287579
0.000242411
0.000303628
0.000111182
0.000111486
0.00011238
0.000113365
0.000114436
0.000115574
0.000116797
0.000118151
0.000119161
0.00012082
0.000122347
0.000125381
0.000128428
0.000134047
0.000136636
0.000142069
0.000143321
0.000146885
0.000146497
0.000148273
0.000148116
0.000153077
0.000155501
0.000161158
0.000163662
0.000168698
0.000171754
0.000179822
0.000187411
0.000193929
0.000199459
0.000204051
0.000209078
0.000214098
0.000220168
0.000227259
0.000235247
0.000243224
0.000251722
0.000260427
0.000269944
0.00027947
0.000289104
0.000297831
0.000306631
0.000315199
0.000324414
0.000333442
0.000342957
0.00035211
0.000361614
0.00037074
0.000379986
0.000388891
0.000397843
0.000406564
0.000415296
0.000423858
0.000432344
0.000440663
0.000448842
0.000456831
0.000464626
0.000472228
0.00047963
0.00048685
0.00049385
0.000500686
0.000507342
0.000513853
0.000520205
0.000526433
0.000532537
0.0005385
0.000544356
0.000550027
0.000555601
0.000560937
0.000566199
0.000571187
0.000576159
0.000580831
0.000585541
0.000589969
0.000594417
0.000598592
0.000602766
0.000606632
0.000610514
0.000614055
0.000617641
0.000620882
0.000624232
0.000627217
0.00063039
0.000633207
0.000636226
0.000638952
0.000641731
0.000644267
0.000646868
0.00064918
0.000651641
0.00065373
0.000656077
0.000657958
0.000660227
0.000661928
0.000664146
0.00066571
0.000667889
0.00066934
0.000671463
0.000672813
0.000674877
0.000676131
0.000678128
0.000679304
0.00068123
0.000682337
0.000684206
0.000685275
0.000687092
0.000688142
0.00068991
0.000690954
0.000692668
0.000693723
0.000695388
0.00069646
0.000698094
0.000699197
0.000700802
0.00070194
0.000703514
0.000704681
0.000706238
0.000707438
0.00070897
0.000710206
0.000711725
0.000712995
0.000714492
0.000715781
0.000717279
0.000718592
0.000720105
0.000721408
0.000722965
0.000724255
0.000725886
0.00072714
0.000728844
0.000730123
0.000731788
0.000733088
0.000734691
0.000736114
0.000737672
0.000739228
0.000740711
0.000742414
0.000743845
0.000745705
0.000747077
0.000749047
0.000750376
0.000752422
0.000753714
0.000755804
0.000757123
0.00075917
0.000760561
0.000762489
0.000763993
0.00076588
0.000767458
0.000769239
0.00077086
0.000772601
0.000774252
0.000775994
0.000777705
0.000779466
0.000781201
0.000782982
0.000784724
0.000786524
0.000788243
0.000790045
0.000791735
0.000793528
0.000795165
0.000796926
0.0007985
0.000800237
0.000801734
0.000803407
0.00080486
0.000806452
0.000807834
0.000809335
0.000810668
0.00081205
0.000813323
0.000814581
0.000815794
0.000816912
0.000818077
0.000819059
0.000820189
0.000821054
0.000822167
0.000822954
0.000824066
0.000824795
0.000825893
0.000826634
0.000827672
0.000828451
0.000829465
0.00083028
0.000831256
0.000832108
0.00083307
0.000833924
0.000834867
0.000835729
0.000836623
0.00083748
0.000838354
0.000839181
0.000840031
0.000840842
0.000841631
0.000842392
0.000843035
0.000843716
0.000844287
0.000844895
0.000845431
0.000845947
0.000846408
0.000846864
0.000847305
0.000847717
0.000848123
0.000848523
0.000848921
0.000849318
0.000849717
0.000850117
0.000850514
0.00085092
0.000851305
0.000851675
0.000852055
0.00085241
0.000852762
0.00085307
0.000853337
0.000853596
0.000853802
0.00085396
0.000854107
0.000854193
0.000854255
0.000854278
0.000854279
0.000854278
0.000854249
0.000854252
0.000854267
0.000854299
0.000854369
0.000854519
0.000854743
0.000855035
0.000855417
0.00085589
0.000856447
0.000857112
0.000857866
0.000858686
0.00085957
0.00086053
0.000861546
0.000862578
0.000863651
0.000864736
0.00086582
0.000866891
0.000867943
0.000868969
0.000869963
0.000870943
0.000871907
0.000872835
0.000873742
0.000874651
0.000875555
0.000876454
0.000877359
0.000878241
0.000879099
0.000879951
0.000880772
0.000881562
0.000882314
0.000883035
0.000883712
0.000884367
0.000884962
0.000885567
0.000886135
0.000886678
0.000887191
0.000887687
0.000888141
0.000888578
0.000888981
0.000889305
0.000889584
0.000889802
0.000889909
0.000889946
0.000889902
0.000889732
0.000889483
0.000889139
0.000888677
0.000888131
0.000887508
0.000886796
0.000886027
0.000885184
0.000884288
0.000883335
0.000882346
0.000881298
0.000880254
0.00087916
0.000878035
0.000876899
0.000875727
0.000874567
0.000873372
0.000872157
0.000870951
0.000869699
0.000868437
0.000867161
0.000865847
0.000864509
0.000863149
0.00086177
0.000860376
0.000858966
0.000857546
0.000856122
0.000854695
0.000853285
0.000851882
0.000850517
0.000849172
0.000847859
0.000846606
0.000845402
0.000844262
0.000843175
0.000842156
0.000841187
0.000840282
0.000839419
0.000838613
0.000837836
0.00083711
0.000836401
0.000835742
0.000835094
0.000834494
0.000833899
0.000833345
0.000832804
0.000832273
0.000831781
0.000831288
0.000830808
0.000830335
0.000829846
0.00082936
0.000828864
0.000828373
0.000827912
0.00082743
0.000826933
0.000826435
0.000825931
0.000825442
0.000824961
0.000824511
0.000824083
0.000823688
0.000823324
0.000822996
0.000822702
0.000822414
0.000822188
0.000821977
0.0008218
0.000821629
0.000821496
0.000821387
0.000821259
0.000821136
0.000821007
0.000820867
0.000820718
0.000820541
0.000820367
0.000820181
0.000819961
0.000819724
0.000819474
0.000819198
0.000818926
0.000818653
0.000818357
0.000818047
0.000817727
0.000817385
0.000817029
0.000816636
0.00081623
0.000815817
0.000815366
0.000814878
0.000814354
0.00081384
0.000813299
0.000812734
0.000812195
0.000811664
0.000811138
0.000810663
0.000810205
0.000809765
0.000809376
0.000809011
0.000808693
0.000808403
0.000808151
0.000807966
0.000807837
0.000807776
0.000807787
0.000807874
0.00080804
0.000808286
0.000808606
0.000808993
0.000809438
0.000809932
0.000810457
0.000811009
0.000811563
0.000812127
0.000812698
0.000813234
0.000813764
0.000814261
0.000814752
0.000815244
0.000815704
0.000816168
0.00081661
0.000817064
0.000817522
0.000817962
0.0008184
0.000818807
0.000819213
0.00081962
0.00081999
0.000820338
0.000820694
0.000821031
0.000821345
0.000821646
0.000821905
0.000822182
0.000822471
0.00082273
0.000823015
0.000823293
0.000823542
0.000823817
0.000824092
0.000824329
0.000824581
0.000824829
0.000825035
0.000825245
0.00082542
0.000825562
0.000825706
0.000825827
0.000825895
0.000825961
0.000826003
0.000825975
0.000825946
0.000825882
0.000825756
0.000825675
0.000825514
0.000825474
0.000825164
0.000825156
0.000824745
0.000825146
0.000824312
0.000825592
0.000824003
0.000826858
0.000824338
0.000828725
0.000825735
0.000831342
0.000828831
0.000834805
0.000833943
0.000838557
0.000840079
0.000839917
0.000842422
0.000829178
0.000830891
0.000780085
0.000700264
0.000763764
0.00081291
0.000931743
0.000936586
0.000897382
0.000819727
0.000639854
0.000511668
0.000351478
0.000364948
0.000111027
0.000111111
0.000111547
0.000112053
0.000112539
0.000113008
0.00011321
0.000113398
0.000113329
0.000113283
0.000113107
0.000113139
0.000113166
0.000113884
0.000113978
0.000114851
0.000114546
0.000114424
0.000113451
0.000112709
0.000111752
0.00011194
0.000111542
0.00011218
0.000111666
0.000112241
0.000111817
0.000112861
0.00011336
0.000113843
0.000114017
0.000114548
0.000115029
0.000115872
0.000116763
0.000118042
0.000119918
0.000121696
0.000123938
0.000126356
0.000129395
0.000132587
0.000136041
0.000139232
0.000142745
0.000146519
0.000150803
0.000155386
0.000160406
0.00016564
0.00017119
0.000176946
0.000183008
0.000189031
0.000195333
0.000201664
0.000208263
0.000214914
0.000221744
0.00022861
0.000235575
0.000242592
0.000249661
0.000256806
0.000263978
0.000271239
0.000278454
0.000285795
0.00029314
0.000300654
0.000308179
0.000315888
0.000323593
0.00033144
0.000339234
0.000347072
0.000354814
0.000362524
0.00037013
0.000377652
0.000385115
0.000392443
0.000399801
0.000406952
0.000414187
0.00042116
0.00042822
0.000435005
0.000441831
0.000448346
0.000454873
0.000461045
0.000467289
0.000473135
0.0004791
0.000484643
0.000490339
0.000495584
0.000501007
0.000505982
0.000511122
0.000515783
0.000520625
0.000524942
0.000529527
0.000533536
0.000537928
0.000541673
0.000545905
0.000549423
0.000553494
0.000556819
0.000560732
0.000563875
0.000567629
0.000570607
0.00057421
0.000577046
0.000580506
0.00058322
0.000586558
0.000589182
0.000592413
0.000594977
0.000598116
0.000600639
0.000603699
0.000606204
0.000609198
0.000611695
0.000614644
0.000617146
0.000620059
0.000622573
0.000625447
0.000627968
0.000630809
0.000633334
0.000636132
0.000638661
0.000641422
0.000643948
0.000646662
0.000649173
0.000651854
0.000654357
0.000657013
0.000659482
0.00066214
0.000664579
0.000667262
0.000669674
0.000672414
0.000674881
0.000677595
0.000680085
0.000682734
0.000685268
0.000687874
0.000690466
0.000693008
0.000695676
0.000698167
0.00070093
0.00070336
0.000706193
0.000708566
0.000711435
0.000713757
0.000716621
0.000718971
0.000721833
0.000724259
0.000727082
0.000729597
0.000732386
0.000734944
0.000737669
0.000740254
0.000742934
0.00074554
0.000748222
0.000750882
0.000753594
0.000756292
0.000759033
0.000761743
0.00076451
0.000767206
0.000769977
0.000772636
0.00077539
0.000777974
0.000780681
0.000783172
0.000785831
0.000788209
0.000790779
0.000793066
0.000795529
0.000797705
0.000800047
0.00080213
0.000804327
0.000806311
0.000808365
0.000810254
0.000812149
0.000813951
0.000815691
0.000817426
0.000819028
0.00082072
0.000822224
0.00082389
0.000825325
0.000826956
0.000828391
0.000829982
0.000831439
0.000833015
0.000834493
0.00083605
0.000837545
0.000839085
0.000840564
0.000842085
0.000843545
0.000845025
0.000846456
0.000847886
0.000849256
0.000850623
0.000851938
0.000853174
0.000854375
0.000855508
0.000856622
0.000857675
0.000858712
0.000859721
0.00086068
0.000861608
0.00086251
0.000863408
0.000864272
0.000865132
0.000865985
0.000866839
0.000867695
0.000868555
0.000869419
0.000870281
0.00087115
0.000872
0.000872828
0.000873654
0.000874451
0.000875228
0.000875961
0.000876631
0.000877277
0.000877855
0.000878366
0.000878843
0.000879257
0.000879622
0.000879951
0.000880246
0.000880543
0.000880816
0.000881116
0.000881455
0.000881828
0.000882262
0.00088279
0.000883424
0.000884155
0.000885001
0.00088597
0.00088705
0.000888262
0.000889595
0.000891024
0.000892537
0.000894145
0.000895832
0.000897557
0.000899325
0.000901118
0.000902908
0.00090469
0.00090644
0.000908164
0.000909835
0.000911479
0.000913096
0.000914669
0.00091621
0.000917739
0.000919259
0.000920763
0.000922267
0.00092374
0.000925175
0.000926578
0.000927936
0.00092923
0.000930467
0.000931629
0.000932731
0.000933763
0.000934735
0.000935652
0.000936546
0.000937385
0.000938178
0.000938927
0.00093962
0.000940264
0.000940851
0.000941338
0.000941741
0.000942058
0.000942238
0.000942305
0.000942259
0.000942059
0.000941738
0.0009413
0.000940716
0.00094002
0.000939227
0.000938323
0.000937348
0.000936288
0.000935169
0.00093398
0.000932751
0.000931453
0.000930136
0.000928785
0.00092739
0.000925981
0.000924527
0.000923081
0.000921601
0.000920089
0.000918576
0.000917019
0.000915435
0.000913834
0.00091219
0.000910513
0.000908806
0.000907073
0.000905318
0.000903545
0.000901755
0.000899958
0.000898155
0.000896365
0.000894585
0.000892836
0.00089112
0.000889431
0.000887812
0.000886248
0.000884755
0.000883325
0.000881966
0.000880669
0.000879438
0.000878258
0.000877135
0.00087605
0.000875011
0.000874
0.000873028
0.000872078
0.000871168
0.000870274
0.000869422
0.000868594
0.000867781
0.000867019
0.000866275
0.000865567
0.000864883
0.000864217
0.00086356
0.000862916
0.000862283
0.000861675
0.000861067
0.000860463
0.00085987
0.000859281
0.000858706
0.000858143
0.0008576
0.000857081
0.000856591
0.000856127
0.000855693
0.000855284
0.000854883
0.000854526
0.000854183
0.00085387
0.000853569
0.000853291
0.000853043
0.00085279
0.000852542
0.000852294
0.000852038
0.000851777
0.000851492
0.000851197
0.000850896
0.000850562
0.000850207
0.000849838
0.000849441
0.000849041
0.000848636
0.000848212
0.000847772
0.000847321
0.000846848
0.000846355
0.000845828
0.000845277
0.000844709
0.000844109
0.000843478
0.000842811
0.000842145
0.000841472
0.000840775
0.000840105
0.000839456
0.000838812
0.000838217
0.000837651
0.000837097
0.000836594
0.000836118
0.000835687
0.0008353
0.000834951
0.00083468
0.000834481
0.000834368
0.000834349
0.000834432
0.000834619
0.000834909
0.000835298
0.000835772
0.000836317
0.000836918
0.000837553
0.00083821
0.000838864
0.000839507
0.000840148
0.000840739
0.000841307
0.000841836
0.000842338
0.00084284
0.000843307
0.000843772
0.000844224
0.000844672
0.000845133
0.000845575
0.000846011
0.000846424
0.000846823
0.000847217
0.00084758
0.000847909
0.000848229
0.000848526
0.000848796
0.000849057
0.000849281
0.000849517
0.000849767
0.000849994
0.000850238
0.000850494
0.00085073
0.000850987
0.000851255
0.00085149
0.000851732
0.000851965
0.000852165
0.000852354
0.000852502
0.000852615
0.000852714
0.000852781
0.000852793
0.000852775
0.000852729
0.000852612
0.00085247
0.000852296
0.000852053
0.00085185
0.00085157
0.000851384
0.000851007
0.000850913
0.000850473
0.000850714
0.000850004
0.000850942
0.000849748
0.000851871
0.000849975
0.000853428
0.000850914
0.000855545
0.000852731
0.000856875
0.000854772
0.000857349
0.00085693
0.000856672
0.000857229
0.000848453
0.0008467
0.000815851
0.000779258
0.000824622
0.000892621
0.000996823
0.00106918
0.00109033
0.00106175
0.000899816
0.000735692
0.000507691
0.00043321
0.000111061
0.000111154
0.000111535
0.000112001
0.000112418
0.000112825
0.000113072
0.000113291
0.000113292
0.000113228
0.000113036
0.000112818
0.000112632
0.000112392
0.000112121
0.000111882
0.000111449
0.00011096
0.000110659
0.000110554
0.000110687
0.000110517
0.000110386
0.000110234
0.000110026
0.00010997
0.000109871
0.000109838
0.000109788
0.00010996
0.000110188
0.000110682
0.000111188
0.000111723
0.000112131
0.000112533
0.00011298
0.000113569
0.000114206
0.000114946
0.000115839
0.000116797
0.000117885
0.000119118
0.000120472
0.000121993
0.000123653
0.000125479
0.000127508
0.000129715
0.000132139
0.000134766
0.000137633
0.000140729
0.000144079
0.000147662
0.000151514
0.000155601
0.000159943
0.000164517
0.000169348
0.000174418
0.000179743
0.000185308
0.000191118
0.000197156
0.000203413
0.000209884
0.00021656
0.000223422
0.000230463
0.000237666
0.00024502
0.000252479
0.000260066
0.000267646
0.000275338
0.000282956
0.000290685
0.000298312
0.000306081
0.000313726
0.000321544
0.000329228
0.000337088
0.000344815
0.000352659
0.000360382
0.000368125
0.000375712
0.000383333
0.000390854
0.000398509
0.000405889
0.000413077
0.000419931
0.000426662
0.000433058
0.000439406
0.000445439
0.000451473
0.00045719
0.000462948
0.000468391
0.000473902
0.000479105
0.000484401
0.000489372
0.000494452
0.000499188
0.000504061
0.000508579
0.000513247
0.000517561
0.00052204
0.000526166
0.000530473
0.000534434
0.000538588
0.000542401
0.000546424
0.000550121
0.000554043
0.000557661
0.00056151
0.000565076
0.000568875
0.000572418
0.000576182
0.000579714
0.000583457
0.000586987
0.000590714
0.000594251
0.000597958
0.000601492
0.000605174
0.000608696
0.00061234
0.000615841
0.000619439
0.00062291
0.00062645
0.00062988
0.000633372
0.000636768
0.000640231
0.000643581
0.000647042
0.000650354
0.000653841
0.000657121
0.000660671
0.00066398
0.00066757
0.000670845
0.000674443
0.00067774
0.000681327
0.000684651
0.000688187
0.000691541
0.000695012
0.000698406
0.000701784
0.000705202
0.00070848
0.000711918
0.000715104
0.000718557
0.00072173
0.000725194
0.000728401
0.000731846
0.000735105
0.00073854
0.000741815
0.000745275
0.000748565
0.000751964
0.000755266
0.000758681
0.000762026
0.000765481
0.000768866
0.000772365
0.000775772
0.000779303
0.000782705
0.000786246
0.000789608
0.00079313
0.000796404
0.000799865
0.000803017
0.000806405
0.000809411
0.000812687
0.000815552
0.000818698
0.000821411
0.000824413
0.000826986
0.000829823
0.000832256
0.000834929
0.000837233
0.000839729
0.000841917
0.000844239
0.00084634
0.000848509
0.000850556
0.000852612
0.000854643
0.000856619
0.000858645
0.0008606
0.000862616
0.000864581
0.000866601
0.000868584
0.000870596
0.000872582
0.000874572
0.000876526
0.000878486
0.000880409
0.000882322
0.000884195
0.000886029
0.000887814
0.000889541
0.000891229
0.000892835
0.000894407
0.00089593
0.000897412
0.000898847
0.000900245
0.000901625
0.000902958
0.000904268
0.000905554
0.000906838
0.000908101
0.000909363
0.000910623
0.000911891
0.000913166
0.00091445
0.000915741
0.000917033