/*--------------------------------*- C++ -*----------------------------------*\
| =========                 |                                                 |
| \\      /  F ield         | foam-extend: Open Source CFD                    |
|  \\    /   O peration     | Version:     3.2                                |
|   \\  /    A nd           | Web:         http://www.foam-extend.org         |
|    \\/     M anipulation  | For copyright notice see file Copyright         |
\*---------------------------------------------------------------------------*/
FoamFile
{
    version     2.0;
    format      ascii;
    class       volScalarField;
    location    "840";
    object      Ktemp;
}
// * * * * * * * * * * * * * * * * * * * * * * * * * * * * * * * * * * * * * //

dimensions      [0 2 -2 0 0 0 0];

internalField   nonuniform List<scalar> 
33000
(
0.000161148
0.000218679
0.000286914
0.000364775
0.000450023
0.000539434
0.000629685
0.000717053
0.000798142
0.000873033
0.000933584
0.000988023
0.00102782
0.00105848
0.00107433
0.0010833
0.00108117
0.001077
0.00105821
0.00104353
0.00103221
0.00102092
0.00100612
0.000989683
0.000969888
0.000951503
0.000943688
0.000930615
0.000919778
0.000904299
0.000893222
0.00088386
0.000878764
0.000878395
0.000880161
0.000881562
0.000881821
0.00088168
0.000882016
0.000881564
0.000881215
0.000880101
0.000878956
0.000877994
0.000877754
0.000878059
0.00087854
0.00087912
0.000879538
0.000880054
0.000880522
0.000881151
0.000881767
0.00088251
0.000883248
0.000884067
0.000884877
0.000885733
0.000886604
0.000887506
0.000888375
0.000889249
0.000890052
0.000890819
0.000891524
0.000892129
0.000892669
0.000893108
0.000893465
0.000893673
0.000893792
0.000893737
0.00089357
0.00089321
0.000892783
0.000892164
0.000891546
0.000890749
0.000890037
0.000889162
0.000888431
0.000887526
0.000886796
0.000885889
0.00088516
0.000884248
0.000883546
0.000882652
0.000881999
0.000881166
0.000880589
0.000879834
0.000879316
0.000878625
0.000878189
0.000877534
0.000877156
0.000876505
0.000876188
0.000875499
0.000875255
0.000874594
0.000874438
0.000873854
0.000873774
0.000873293
0.000873246
0.00087286
0.000872795
0.000872462
0.000872335
0.000872017
0.000871826
0.000871517
0.000871246
0.00087094
0.000870593
0.000870289
0.000869879
0.000869588
0.000869102
0.000868803
0.000868246
0.000867929
0.000867312
0.000866981
0.000866338
0.000865991
0.000865339
0.000864997
0.000864336
0.000863988
0.000863337
0.000862988
0.000862372
0.000862045
0.000861459
0.00086115
0.000860609
0.000860313
0.00085981
0.000859525
0.000859073
0.000858825
0.000858409
0.000858203
0.00085782
0.000857738
0.000857365
0.000857452
0.000857027
0.000857326
0.00085684
0.000857327
0.000856932
0.000857481
0.000857228
0.000857707
0.000857539
0.000857855
0.000857782
0.000857844
0.000857799
0.000857527
0.000857491
0.000856907
0.000856847
0.000855979
0.00085589
0.0008548
0.000854624
0.000853483
0.000853232
0.000852297
0.00085197
0.000851161
0.000850813
0.000850123
0.000849815
0.000849251
0.000848921
0.000848448
0.000848127
0.000847716
0.000847451
0.000847103
0.000846914
0.000846625
0.000846539
0.000846316
0.000846321
0.000846153
0.000846255
0.000846148
0.000846327
0.000846246
0.00084649
0.000846457
0.000846696
0.000846709
0.000846932
0.000846966
0.000847097
0.000847158
0.000847186
0.00084723
0.000847139
0.000847179
0.00084696
0.000846996
0.000846652
0.000846683
0.00084623
0.000846243
0.000845719
0.000845736
0.000845206
0.000845201
0.000844772
0.000844751
0.000844418
0.000844411
0.000844192
0.00084419
0.000844035
0.000844061
0.000843947
0.000843969
0.000843906
0.000843915
0.000843867
0.000843886
0.000843847
0.000843852
0.000843815
0.000843814
0.000843777
0.000843738
0.000843701
0.000843641
0.000843567
0.000843488
0.000843393
0.000843271
0.000843132
0.000842991
0.000842833
0.000842664
0.000842479
0.000842281
0.00084207
0.000841847
0.000841612
0.000841369
0.000841129
0.000840878
0.000840608
0.000840326
0.000840034
0.000839747
0.000839443
0.000839114
0.000838783
0.000838432
0.000838054
0.000837671
0.000837269
0.000836848
0.000836411
0.000835956
0.000835496
0.00083501
0.000834511
0.000834014
0.000833508
0.000832989
0.00083247
0.000831969
0.000831476
0.000830996
0.000830527
0.000830061
0.000829613
0.000829195
0.000828799
0.000828415
0.000828056
0.00082773
0.000827416
0.00082712
0.000826849
0.000826593
0.000826358
0.000826137
0.000825933
0.000825728
0.000825538
0.000825367
0.000825207
0.000825047
0.000824896
0.000824756
0.000824629
0.000824525
0.000824434
0.000824345
0.000824268
0.000824205
0.000824154
0.000824119
0.000824097
0.000824092
0.000824099
0.000824114
0.000824139
0.000824196
0.000824267
0.000824357
0.000824463
0.00082458
0.000824712
0.00082487
0.000825032
0.000825211
0.000825408
0.000825595
0.000825794
0.000825999
0.000826192
0.000826388
0.00082659
0.000826774
0.000826956
0.000827128
0.000827295
0.000827457
0.00082761
0.000827757
0.000827895
0.000828025
0.00082813
0.000828243
0.000828346
0.000828441
0.000828531
0.0008286
0.000828672
0.000828731
0.000828775
0.000828822
0.000828853
0.000828876
0.000828901
0.000828914
0.000828914
0.000828902
0.000828875
0.000828835
0.000828778
0.000828706
0.000828617
0.000828514
0.0008284
0.000828273
0.000828146
0.000828018
0.000827875
0.000827737
0.000827598
0.000827466
0.000827336
0.000827214
0.000827095
0.000826983
0.000826875
0.000826775
0.000826679
0.000826589
0.000826504
0.000826422
0.000826342
0.000826264
0.000826184
0.000826101
0.000826029
0.000825928
0.000825829
0.000825722
0.000825608
0.000825505
0.000825397
0.000825275
0.000825128
0.000824963
0.000824806
0.000824629
0.000824442
0.000824233
0.000824013
0.000823777
0.000823532
0.000823276
0.000823016
0.000822753
0.000822491
0.000822243
0.000822001
0.000821745
0.000821495
0.000821242
0.000820991
0.00082073
0.00082047
0.000820229
0.000819993
0.000819768
0.000819553
0.000819346
0.000819148
0.000818945
0.000818749
0.000818575
0.00081841
0.000818254
0.000818109
0.000817958
0.000817808
0.000817684
0.000817572
0.000817468
0.000817373
0.000817285
0.000817207
0.000817124
0.000817048
0.000816995
0.000816963
0.000816947
0.000816933
0.000816956
0.000817003
0.000817055
0.000817136
0.000817241
0.00081735
0.000817486
0.000817641
0.000817801
0.000817981
0.000818173
0.00081839
0.000818626
0.000818868
0.000819127
0.000819401
0.000819691
0.000819997
0.000820317
0.000820651
0.000820997
0.000821356
0.000821724
0.000822103
0.000822489
0.000822881
0.00082328
0.000823675
0.00082407
0.000824476
0.000824877
0.000825277
0.000825662
0.000826039
0.000826421
0.00082679
0.000827153
0.000827495
0.000827824
0.000828157
0.000828471
0.000828776
0.000829057
0.000829313
0.000829578
0.000829831
0.000830043
0.000830243
0.000830412
0.000830566
0.000830704
0.000830799
0.000830888
0.000830961
0.000830998
0.000831035
0.000831063
0.000831062
0.000831066
0.000831069
0.000831046
0.00083103
0.000831025
0.000830995
0.000830973
0.000830969
0.000830944
0.000830933
0.000830944
0.00083094
0.000830973
0.000831033
0.000831091
0.000831203
0.000831364
0.000831537
0.000831844
0.000832021
0.000832557
0.000832673
0.000833657
0.000833481
0.000835324
0.000834506
0.0008377
0.000836051
0.000840874
0.000838739
0.000844422
0.000841768
0.000846347
0.000843144
0.000843294
0.000839446
0.000830936
0.000825136
0.000804212
0.000790297
0.000724768
0.000642552
0.000342826
0.000183758
0.000203447
0.000209126
0.000182528
0.000155604
0.000133807
0.000106073
0.000115272
0.000153875
0.000253247
0.000113234
0.000116391
0.000121672
0.000128272
0.000136809
0.000146625
0.000157369
0.00016903
0.000179574
0.000195444
0.000209619
0.000228918
0.000249623
0.000273252
0.000287647
0.000307675
0.000320619
0.000338874
0.000349477
0.000361465
0.000369915
0.000384956
0.000396311
0.000411032
0.00042324
0.000436626
0.000447047
0.000465064
0.000480909
0.000495544
0.000505633
0.000513378
0.000520808
0.000528974
0.000539331
0.000550536
0.000562023
0.00057291
0.000583215
0.00059347
0.000603369
0.000613103
0.00062236
0.000630993
0.000638971
0.000646324
0.000653607
0.00066058
0.000667357
0.00067384
0.00068005
0.000686048
0.000691856
0.000697524
0.000703015
0.00070838
0.000713557
0.000718599
0.000723466
0.000728199
0.000732874
0.000737379
0.000741897
0.000746204
0.000750511
0.00075459
0.000758671
0.000762486
0.000766282
0.000769775
0.000773224
0.000776348
0.000779456
0.000782264
0.000785074
0.000787645
0.000790221
0.000792627
0.000794989
0.000797244
0.000799393
0.000801484
0.000803405
0.000805318
0.000807017
0.000808765
0.000810252
0.000811784
0.000813089
0.000814426
0.000815555
0.000816754
0.000817726
0.000818768
0.000819562
0.000820418
0.000821024
0.000821728
0.000822217
0.000822829
0.000823248
0.000823747
0.000824128
0.000824497
0.000824831
0.000825079
0.000825367
0.0008255
0.000825753
0.000825799
0.00082603
0.000826011
0.000826219
0.00082615
0.000826338
0.000826219
0.000826381
0.000826214
0.000826343
0.000826135
0.000826238
0.000826004
0.000826087
0.000825846
0.000825918
0.000825681
0.000825741
0.000825524
0.00082558
0.000825389
0.000825451
0.000825295
0.000825365
0.000825247
0.000825325
0.000825243
0.000825337
0.000825293
0.000825401
0.000825404
0.000825537
0.000825587
0.00082575
0.000825845
0.000826056
0.000826201
0.000826483
0.00082665
0.000827043
0.000827197
0.000827736
0.000827859
0.000828427
0.000828611
0.000829177
0.00082943
0.000829994
0.000830346
0.000830915
0.000831373
0.000831922
0.000832483
0.000833015
0.00083368
0.000834172
0.000834904
0.000835358
0.000836134
0.000836546
0.000837344
0.00083775
0.000838535
0.000838948
0.000839644
0.000840069
0.000840783
0.000841217
0.000841875
0.000842324
0.000842984
0.000843509
0.000844173
0.000844737
0.000845417
0.000846006
0.000846707
0.000847312
0.000848036
0.000848642
0.000849379
0.000849979
0.000850724
0.000851305
0.000852044
0.000852594
0.000853332
0.000853845
0.000854557
0.000855052
0.000855727
0.000856137
0.000856779
0.000857088
0.000857692
0.0008579
0.000858362
0.000858526
0.000858859
0.000859019
0.000859233
0.000859411
0.000859522
0.000859733
0.000859776
0.000860041
0.000860033
0.000860332
0.000860349
0.000860624
0.000860696
0.000860992
0.000861106
0.000861401
0.000861556
0.000861847
0.000862012
0.000862296
0.000862481
0.000862713
0.000862922
0.000863161
0.000863357
0.000863578
0.000863779
0.00086402
0.000864225
0.000864398
0.00086461
0.000864683
0.000864822
0.000864841
0.000864899
0.000864855
0.000864875
0.00086482
0.000864779
0.000864707
0.000864642
0.000864569
0.000864494
0.000864424
0.000864346
0.00086428
0.000864209
0.00086412
0.00086403
0.000863952
0.00086385
0.000863762
0.000863597
0.000863458
0.000863288
0.000863078
0.000862843
0.000862598
0.000862286
0.000861985
0.000861633
0.000861292
0.000860922
0.000860527
0.000860176
0.000859805
0.000859457
0.000859118
0.000858862
0.000858639
0.000858474
0.000858378
0.000858338
0.000858366
0.000858467
0.000858629
0.000858824
0.000859077
0.000859381
0.000859723
0.000860059
0.000860447
0.000860806
0.000861195
0.000861535
0.000861887
0.000862198
0.000862506
0.000862809
0.000863099
0.000863359
0.000863609
0.000863873
0.00086412
0.000864386
0.000864645
0.0008649
0.000865141
0.000865398
0.000865626
0.000865862
0.000866065
0.000866278
0.000866466
0.000866653
0.000866812
0.000866995
0.00086716
0.000867318
0.000867473
0.000867635
0.000867783
0.000867947
0.000868084
0.000868195
0.000868296
0.00086834
0.000868317
0.000868286
0.000868165
0.000867992
0.000867781
0.000867493
0.000867125
0.000866743
0.000866264
0.00086578
0.000865212
0.000864636
0.000863991
0.000863344
0.000862648
0.000861943
0.00086125
0.00086049
0.00085976
0.000858974
0.000858209
0.000857434
0.000856636
0.000855846
0.000855054
0.000854222
0.000853412
0.000852564
0.000851699
0.000850822
0.00084993
0.000849035
0.000848122
0.000847209
0.000846283
0.000845363
0.00084444
0.000843537
0.000842635
0.000841781
0.000840914
0.000840101
0.000839334
0.000838606
0.00083793
0.000837288
0.000836706
0.000836153
0.000835657
0.000835187
0.000834766
0.00083437
0.000834012
0.000833677
0.000833374
0.000833088
0.000832829
0.00083258
0.000832355
0.000832133
0.000831904
0.000831714
0.000831508
0.000831303
0.000831088
0.00083083
0.000830558
0.000830271
0.000829994
0.000829722
0.000829401
0.000829084
0.00082873
0.000828402
0.000828049
0.000827733
0.000827401
0.000827118
0.000826839
0.000826609
0.000826401
0.00082621
0.000826047
0.000825938
0.000825838
0.000825769
0.000825695
0.000825663
0.000825623
0.000825581
0.00082554
0.000825491
0.000825432
0.000825355
0.000825262
0.000825173
0.000825062
0.000824932
0.00082479
0.000824629
0.00082445
0.000824273
0.000824101
0.000823899
0.000823688
0.000823466
0.000823226
0.000822976
0.000822694
0.000822425
0.000822121
0.00082179
0.000821426
0.000821048
0.000820696
0.000820275
0.000819881
0.000819511
0.000819135
0.000818784
0.000818489
0.000818179
0.00081793
0.000817716
0.000817522
0.000817385
0.000817246
0.000817177
0.000817154
0.000817175
0.000817251
0.000817374
0.00081756
0.000817795
0.000818096
0.00081844
0.000818842
0.000819276
0.000819756
0.000820253
0.000820785
0.000821309
0.000821877
0.00082242
0.00082296
0.000823491
0.000823997
0.000824528
0.000825029
0.000825518
0.000826007
0.000826469
0.000826964
0.00082744
0.000827902
0.000828361
0.000828797
0.000829239
0.000829692
0.000830095
0.000830475
0.000830877
0.000831253
0.000831621
0.000831957
0.00083226
0.000832587
0.000832865
0.000833143
0.000833454
0.000833723
0.000833977
0.00083426
0.000834501
0.000834728
0.000834986
0.000835206
0.000835388
0.000835602
0.000835782
0.000835916
0.000836075
0.000836192
0.000836283
0.000836398
0.000836453
0.000836447
0.000836524
0.000836466
0.000836492
0.000836425
0.000836384
0.000836493
0.000836241
0.000836521
0.000836026
0.000836752
0.000835672
0.00083733
0.000835275
0.00083856
0.00083541
0.000840314
0.000836524
0.000842535
0.000839227
0.00084577
0.000844327
0.000850021
0.00085099
0.000850156
0.000846916
0.000822539
0.000809936
0.000715246
0.000566528
0.000627373
0.000656256
0.00075484
0.000641973
0.000588334
0.000518558
0.000349622
0.000287578
0.000242409
0.000303626
0.000111182
0.000111486
0.00011238
0.000113365
0.000114436
0.000115574
0.000116797
0.000118151
0.000119162
0.000120827
0.000122378
0.000125464
0.000128526
0.000134014
0.000136472
0.000141891
0.000143272
0.000146873
0.000146577
0.000148417
0.000148223
0.000153221
0.000155482
0.000160968
0.000163531
0.000168647
0.000171808
0.000179932
0.000187506
0.000193962
0.000199458
0.000204049
0.000209083
0.000214103
0.000220167
0.000227253
0.000235236
0.000243215
0.000251718
0.000260427
0.000269949
0.000279476
0.000289105
0.000297826
0.000306624
0.000315194
0.000324412
0.000333444
0.000342961
0.000352114
0.000361616
0.000370741
0.000379985
0.000388891
0.000397843
0.000406567
0.0004153
0.000423864
0.000432351
0.00044067
0.000448847
0.000456835
0.000464628
0.000472227
0.000479628
0.000486845
0.000493844
0.000500679
0.000507335
0.000513845
0.000520199
0.000526428
0.000532534
0.000538498
0.000544356
0.000550028
0.000555602
0.000560938
0.0005662
0.000571188
0.00057616
0.000580832
0.000585542
0.00058997
0.000594419
0.000598594
0.000602767
0.000606633
0.000610514
0.000614054
0.00061764
0.00062088
0.00062423
0.000627215
0.000630389
0.000633206
0.000636225
0.000638952
0.000641731
0.000644268
0.000646868
0.00064918
0.000651642
0.00065373
0.000656078
0.000657958
0.000660227
0.000661928
0.000664146
0.000665711
0.00066789
0.000669341
0.000671464
0.000672814
0.000674877
0.000676131
0.000678128
0.000679303
0.00068123
0.000682337
0.000684205
0.000685274
0.000687091
0.000688142
0.000689909
0.000690954
0.000692667
0.000693724
0.000695389
0.00069646
0.000698095
0.000699197
0.000700803
0.000701941
0.000703515
0.000704682
0.000706239
0.000707439
0.000708971
0.000710207
0.000711726
0.000712996
0.000714493
0.000715782
0.00071728
0.000718593
0.000720105
0.000721408
0.000722965
0.000724255
0.000725886
0.00072714
0.000728844
0.000730123
0.000731789
0.000733088
0.000734691
0.000736115
0.000737672
0.000739229
0.000740711
0.000742415
0.000743845
0.000745705
0.000747077
0.000749047
0.000750376
0.000752421
0.000753713
0.000755803
0.000757121
0.000759169
0.00076056
0.000762487
0.000763991
0.000765878
0.000767457
0.000769238
0.000770859
0.0007726
0.000774252
0.000775994
0.000777706
0.000779468
0.000781203
0.000782985
0.000784727
0.000786527
0.000788247
0.000790049
0.000791739
0.000793532
0.000795169
0.000796929
0.000798503
0.00080024
0.000801736
0.000803409
0.000804862
0.000806453
0.000807834
0.000809336
0.000810668
0.000812049
0.000813322
0.000814579
0.000815792
0.00081691
0.000818074
0.000819056
0.000820186
0.00082105
0.000822164
0.000822951
0.000824063
0.000824792
0.000825891
0.000826632
0.00082767
0.00082845
0.000829464
0.00083028
0.000831257
0.000832109
0.000833072
0.000833926
0.000834869
0.000835731
0.000836626
0.000837482
0.000838356
0.000839184
0.000840033
0.000840844
0.000841633
0.000842393
0.000843037
0.000843717
0.000844287
0.000844896
0.000845431
0.000845947
0.000846407
0.000846863
0.000847303
0.000847716
0.000848122
0.000848522
0.00084892
0.000849317
0.000849716
0.000850115
0.000850513
0.000850919
0.000851303
0.000851673
0.000852052
0.000852407
0.000852758
0.000853066
0.000853332
0.00085359
0.000853795
0.000853952
0.000854099
0.000854184
0.000854245
0.000854268
0.000854269
0.000854268
0.000854239
0.000854242
0.000854258
0.000854291
0.000854362
0.000854514
0.00085474
0.000855034
0.000855417
0.000855893
0.000856451
0.000857117
0.000857873
0.000858695
0.00085958
0.000860541
0.000861557
0.00086259
0.000863663
0.000864747
0.00086583
0.0008669
0.000867951
0.000868976
0.000869969
0.000870948
0.000871911
0.000872838
0.000873745
0.000874653
0.000875557
0.000876456
0.00087736
0.000878243
0.000879101
0.000879952
0.000880772
0.000881562
0.000882314
0.000883034
0.000883711
0.000884366
0.000884961
0.000885566
0.000886134
0.000886678
0.000887193
0.000887689
0.000888144
0.000888581
0.000888985
0.000889309
0.000889588
0.000889806
0.000889913
0.000889949
0.000889905
0.000889734
0.000889484
0.00088914
0.000888677
0.00088813
0.000887507
0.000886795
0.000886025
0.000885182
0.000884285
0.000883332
0.000882344
0.000881295
0.000880251
0.000879157
0.000878032
0.000876897
0.000875725
0.000874564
0.000873369
0.000872155
0.000870948
0.000869695
0.000868433
0.000867156
0.000865843
0.000864504
0.000863143
0.000861764
0.000860369
0.000858959
0.000857538
0.000856113
0.000854686
0.000853276
0.000851873
0.000850509
0.000849164
0.000847851
0.000846599
0.000845396
0.000844257
0.000843171
0.000842153
0.000841186
0.000840281
0.00083942
0.000838614
0.000837837
0.000837112
0.000836404
0.000835746
0.000835098
0.000834498
0.000833904
0.000833351
0.00083281
0.00083228
0.000831787
0.000831295
0.000830815
0.000830341
0.000829853
0.000829366
0.000828869
0.000828378
0.000827916
0.000827433
0.000826935
0.000826436
0.000825931
0.000825441
0.00082496
0.00082451
0.000824081
0.000823686
0.000823323
0.000822995
0.000822701
0.000822413
0.000822188
0.000821978
0.000821801
0.00082163
0.000821498
0.000821389
0.000821261
0.000821138
0.000821009
0.000820869
0.000820719
0.000820541
0.000820368
0.000820181
0.00081996
0.000819723
0.000819472
0.000819196
0.000818924
0.000818651
0.000818354
0.000818044
0.000817724
0.000817382
0.000817025
0.000816631
0.000816225
0.000815811
0.000815359
0.00081487
0.000814346
0.000813831
0.00081329
0.000812724
0.000812186
0.000811656
0.00081113
0.000810654
0.000810197
0.000809758
0.000809369
0.000809004
0.000808686
0.000808398
0.000808147
0.000807962
0.000807834
0.000807775
0.000807787
0.000807876
0.000808043
0.00080829
0.000808612
0.000809
0.000809446
0.00080994
0.000810465
0.000811017
0.000811571
0.000812135
0.000812704
0.00081324
0.000813769
0.000814266
0.000814757
0.000815248
0.000815708
0.000816172
0.000816614
0.000817068
0.000817526
0.000817966
0.000818404
0.000818811
0.000819217
0.000819624
0.000819993
0.000820341
0.000820697
0.000821034
0.000821347
0.000821648
0.000821907
0.000822184
0.000822473
0.000822733
0.000823018
0.000823295
0.000823544
0.00082382
0.000824094
0.000824331
0.000824583
0.000824831
0.000825036
0.000825245
0.000825419
0.000825561
0.000825704
0.000825824
0.000825891
0.000825956
0.000825997
0.000825969
0.000825939
0.000825874
0.000825747
0.000825665
0.000825504
0.000825464
0.000825154
0.000825146
0.000824735
0.000825136
0.000824303
0.000825584
0.000823995
0.000826851
0.000824333
0.000828721
0.000825733
0.000831341
0.00082883
0.000834806
0.000833945
0.000838559
0.000840082
0.00083992
0.000842426
0.000829181
0.000830894
0.000780088
0.000700266
0.000763769
0.000812915
0.000931748
0.000936591
0.000897386
0.000819728
0.000639855
0.000511667
0.000351476
0.000364945
0.000111027
0.000111111
0.000111547
0.000112053
0.000112539
0.000113008
0.00011321
0.000113398
0.00011333
0.000113286
0.000113113
0.00011314
0.000113162
0.000113881
0.000113969
0.000114831
0.000114535
0.000114424
0.000113455
0.00011271
0.000111743
0.00011196
0.000111542
0.000112152
0.000111651
0.000112228
0.000111823
0.00011288
0.000113378
0.00011385
0.00011402
0.000114549
0.00011503
0.000115871
0.000116762
0.000118039
0.000119914
0.000121693
0.00012394
0.000126354
0.000129396
0.000132591
0.00013604
0.000139228
0.000142742
0.000146518
0.000150806
0.00015539
0.00016041
0.000165644
0.000171191
0.000176946
0.000183008
0.000189032
0.000195335
0.000201667
0.000208268
0.00021492
0.00022175
0.000228615
0.000235577
0.000242592
0.000249658
0.000256801
0.000263971
0.00027123
0.000278443
0.000285784
0.00029313
0.000300645
0.000308173
0.000315884
0.000323592
0.000331442
0.000339238
0.000347076
0.000354818
0.000362527
0.000370133
0.000377654
0.000385117
0.000392445
0.000399802
0.000406954
0.000414189
0.000421162
0.000428221
0.000435005
0.000441831
0.000448344
0.00045487
0.000461042
0.000467287
0.000473133
0.000479098
0.000484642
0.000490339
0.000495584
0.000501008
0.000505984
0.000511123
0.000515784
0.000520626
0.000524942
0.000529527
0.000533536
0.000537927
0.000541673
0.000545904
0.000549423
0.000553494
0.000556819
0.000560732
0.000563874
0.000567628
0.000570606
0.000574209
0.000577045
0.000580505
0.000583219
0.000586557
0.000589181
0.000592412
0.000594975
0.000598115
0.000600638
0.000603698
0.000606204
0.000609198
0.000611695
0.000614644
0.000617147
0.00062006
0.000622574
0.000625449
0.000627969
0.00063081
0.000633336
0.000636134
0.000638662
0.000641423
0.000643949
0.000646663
0.000649174
0.000651854
0.000654357
0.000657013
0.000659482
0.000662139
0.000664578
0.000667262
0.000669674
0.000672414
0.000674881
0.000677595
0.000680085
0.000682734
0.000685269
0.000687874
0.000690467
0.000693009
0.000695677
0.000698168
0.000700931
0.000703361
0.000706193
0.000708565
0.000711434
0.000713756
0.000716619
0.000718969
0.00072183
0.000724257
0.00072708
0.000729595
0.000732384
0.000734942
0.000737667
0.000740253
0.000742933
0.00074554
0.000748223
0.000750883
0.000753596
0.000756295
0.000759036
0.000761747
0.000764515
0.000767211
0.000769982
0.000772642
0.000775395
0.000777979
0.000780686
0.000783176
0.000785835
0.000788213
0.000790782
0.000793069
0.000795531
0.000797707
0.000800048
0.00080213
0.000804326
0.00080631
0.000808363
0.000810251
0.000812147
0.000813948
0.000815687
0.000817422
0.000819024
0.000820716
0.00082222
0.000823887
0.000825321
0.000826953
0.000828388
0.000829981
0.000831438
0.000833015
0.000834494
0.000836051
0.000837547
0.000839088
0.000840566
0.000842088
0.000843548
0.000845028
0.000846459
0.00084789
0.000849259
0.000850626
0.000851941
0.000853176
0.000854377
0.00085551
0.000856623
0.000857676
0.000858712
0.000859721
0.00086068
0.000861608
0.000862509
0.000863407
0.000864271
0.000865131
0.000865984
0.000866838
0.000867694
0.000868554
0.000869418
0.00087028
0.000871149
0.000871998
0.000872826
0.000873651
0.000874448
0.000875224
0.000875956
0.000876625
0.00087727
0.000877847
0.000878356
0.000878833
0.000879245
0.00087961
0.000879938
0.000880233
0.00088053
0.000880803
0.000881103
0.000881444
0.000881818
0.000882254
0.000882783
0.00088342
0.000884153
0.000885001
0.000885973
0.000887055
0.000888269
0.000889604
0.000891035
0.00089255
0.000894159
0.000895847
0.000897571
0.00089934
0.000901132
0.000902921
0.000904702
0.00090645
0.000908172
0.000909842
0.000911485
0.0009131
0.000914672
0.000916213
0.000917741
0.000919261
0.000920765
0.00092227
0.000923742
0.000925177
0.000926579
0.000927937
0.00092923
0.000930466
0.000931629
0.00093273
0.000933762
0.000934734
0.000935652
0.000936546
0.000937386
0.00093818
0.00093893
0.000939624
0.000940268
0.000940856
0.000941344
0.000941746
0.000942064
0.000942242
0.000942309
0.000942262
0.000942061
0.000941738
0.0009413
0.000940715
0.000940019
0.000939225
0.000938321
0.000937346
0.000936285
0.000935166
0.000933977
0.000932747
0.000931449
0.000930133
0.000928782
0.000927387
0.000925977
0.000924524
0.000923078
0.000921598
0.000920085
0.000918572
0.000917014
0.00091543
0.000913829
0.000912184
0.000910507
0.000908798
0.000907065
0.00090531
0.000903535
0.000901745
0.000899948
0.000898145
0.000896355
0.000894574
0.000892825
0.000891109
0.000889421
0.000887804
0.00088624
0.000884749
0.000883319
0.000881962
0.000880666
0.000879436
0.000878257
0.000877135
0.000876051
0.000875013
0.000874002
0.000873031
0.000872082
0.000871172
0.000870279
0.000869427
0.0008686
0.000867787
0.000867025
0.000866282
0.000865575
0.00086489
0.000864225
0.000863567
0.000862923
0.00086229
0.00086168
0.000861072
0.000860467
0.000859873
0.000859282
0.000858707
0.000858143
0.0008576
0.000857081
0.000856591
0.000856126
0.000855692
0.000855283
0.000854883
0.000854526
0.000854184
0.000853871
0.00085357
0.000853293
0.000853045
0.000852793
0.000852544
0.000852296
0.00085204
0.000851778
0.000851493
0.000851198
0.000850895
0.000850561
0.000850205
0.000849836
0.000849438
0.000849038
0.000848632
0.000848208
0.000847768
0.000847317
0.000846843
0.00084635
0.000845822
0.00084527
0.000844701
0.0008441
0.000843469
0.000842801
0.000842135
0.000841461
0.000840764
0.000840094
0.000839445
0.000838802
0.000838207
0.000837641
0.000837088
0.000836585
0.000836109
0.000835679
0.000835293
0.000834945
0.000834675
0.000834477
0.000834366
0.00083435
0.000834434
0.000834624
0.000834916
0.000835307
0.000835782
0.000836329
0.000836931
0.000837566
0.000838223
0.000838877
0.000839519
0.000840159
0.00084075
0.000841317
0.000841845
0.000842347
0.000842848
0.000843315
0.000843781
0.000844232
0.000844681
0.000845142
0.000845584
0.000846019
0.000846432
0.000846831
0.000847225
0.000847587
0.000847915
0.000848235
0.000848531
0.000848801
0.000849061
0.000849286
0.000849521
0.000849772
0.000849999
0.000850243
0.000850499
0.000850734
0.000850992
0.000851259
0.000851494
0.000851734
0.000851967
0.000852166
0.000852354
0.000852501
0.000852613
0.000852711
0.000852777
0.000852788
0.000852768
0.000852721
0.000852603
0.00085246
0.000852285
0.000852041
0.000851837
0.000851556
0.00085137
0.000850992
0.000850899
0.000850459
0.000850701
0.000849992
0.000850931
0.000849739
0.000851863
0.000849969
0.000853423
0.000850911
0.000855543
0.000852731
0.000856876
0.000854774
0.000857352
0.000856934
0.000856675
0.000857233
0.000848456
0.000846702
0.000815853
0.00077926
0.000824624
0.000892623
0.000996824
0.00106918
0.00109033
0.00106175
0.000899817
0.000735691
0.00050769
0.000433206
0.000111061
0.000111154
0.000111535
0.000112001
0.000112418
0.000112825
0.000113072
0.000113291
0.000113293
0.00011323
0.000113037
0.000112809
0.000112618
0.000112393
0.000112135
0.000111889
0.00011145
0.000110964
0.000110658
0.000110538
0.000110667
0.000110513
0.000110392
0.000110242
0.000110033
0.000109971
0.00010987
0.000109834
0.000109782
0.000109959
0.000110191
0.000110684
0.000111188
0.000111722
0.00011213
0.000112532
0.00011298
0.000113568
0.000114204
0.000114946
0.000115841
0.000116797
0.000117884
0.000119117
0.000120472
0.000121994
0.000123653
0.00012548
0.000127509
0.000129716
0.00013214
0.000134766
0.000137633
0.00014073
0.000144079
0.000147663
0.000151515
0.000155602
0.000159944
0.000164518
0.000169349
0.000174417
0.000179742
0.000185306
0.000191115
0.000197153
0.000203409
0.00020988
0.000216556
0.000223419
0.000230461
0.000237665
0.00024502
0.000252479
0.000260067
0.000267647
0.000275339
0.000282957
0.000290685
0.000298313
0.000306081
0.000313727
0.000321545
0.000329229
0.000337089
0.000344816
0.00035266
0.000360383
0.000368125
0.000375712
0.000383332
0.000390853
0.000398508
0.000405888
0.000413076
0.000419931
0.000426662
0.000433058
0.000439407
0.00044544
0.000451474
0.00045719
0.000462949
0.000468391
0.000473902
0.000479104
0.000484401
0.000489371
0.000494452
0.000499188
0.000504061
0.000508578
0.000513247
0.00051756
0.00052204
0.000526165
0.000530472
0.000534432
0.000538586
0.000542399
0.000546422
0.000550119
0.000554041
0.000557659
0.000561508
0.000565075
0.000568873
0.000572417
0.000576181
0.000579714
0.000583458
0.000586988
0.000590715
0.000594252
0.00059796
0.000601494
0.000605177
0.000608698
0.000612342
0.000615844
0.000619441
0.000622912
0.000626451
0.000629881
0.000633372
0.000636768
0.00064023
0.00064358
0.000647042
0.000650353
0.00065384
0.00065712
0.00066067
0.00066398
0.00066757
0.000670845
0.000674444
0.000677741
0.000681328
0.000684652
0.000688189
0.000691543
0.000695013
0.000698407
0.000701785
0.000705202
0.000708479
0.000711917
0.000715102
0.000718554
0.000721727
0.000725191
0.000728397
0.000731843
0.000735102
0.000738537
0.000741813
0.000745273
0.000748563
0.000751962
0.000755266
0.000758681
0.000762027
0.000765483
0.000768869
0.000772369
0.000775777
0.000779309
0.000782711
0.000786252
0.000789615
0.000793137
0.00079641
0.000799872
0.000803023
0.000806411
0.000809416
0.000812691
0.000815556
0.000818701
0.000821413
0.000824414
0.000826986
0.000829822
0.000832255
0.000834927
0.000837231
0.000839725
0.000841914
0.000844235
0.000846335
0.000848504
0.000850551
0.000852607
0.000854638
0.000856615
0.000858642
0.000860598
0.000862615
0.000864581
0.000866601
0.000868585
0.000870598
0.000872585
0.000874575
0.00087653
0.00087849
0.000880413
0.000882326
0.000884199
0.000886033
0.000887818
0.000889544
0.000891232
0.000892837
0.000894409
0.000895932
0.000897413
0.000898848
0.000900245
0.000901625
0.000902957
0.000904267
0.000905553
0.000906837
0.000908099
0.000909361
0.000910622
0.00091189
0.000913165
0.000914449