/*--------------------------------*- C++ -*----------------------------------*\
| =========                 |                                                 |
| \\      /  F ield         | foam-extend: Open Source CFD                    |
|  \\    /   O peration     | Version:     3.2                                |
|   \\  /    A nd           | Web:         http://www.foam-extend.org         |
|    \\/     M anipulation  | For copyright notice see file Copyright         |
\*---------------------------------------------------------------------------*/
FoamFile
{
    version     2.0;
    format      ascii;
    class       areaScalarField;
    location    "840";
    object      kTempA;
}
// * * * * * * * * * * * * * * * * * * * * * * * * * * * * * * * * * * * * * //

dimensions      [0 2 -2 0 0 0 0];

internalField   nonuniform List<scalar> 
550
(
0.000161148
0.000218679
0.000286914
0.000364775
0.000450023
0.000539434
0.000629685
0.000717053
0.000798142
0.000873033
0.000933584
0.000988023
0.00102782
0.00105848
0.00107433
0.0010833
0.00108117
0.001077
0.00105821
0.00104353
0.00103221
0.00102092
0.00100612
0.000989683
0.000969888
0.000951503
0.000943688
0.000930615
0.000919778
0.000904299
0.000893222
0.00088386
0.000878764
0.000878395
0.000880161
0.000881562
0.000881821
0.00088168
0.000882016
0.000881564
0.000881215
0.000880101
0.000878956
0.000877994
0.000877754
0.000878059
0.00087854
0.00087912
0.000879538
0.000880054
0.000880522
0.000881151
0.000881767
0.00088251
0.000883248
0.000884067
0.000884877
0.000885733
0.000886604
0.000887506
0.000888375
0.000889249
0.000890052
0.000890819
0.000891524
0.000892129
0.000892669
0.000893108
0.000893465
0.000893673
0.000893792
0.000893737
0.00089357
0.00089321
0.000892783
0.000892164
0.000891546
0.000890749
0.000890037
0.000889162
0.000888431
0.000887526
0.000886796
0.000885889
0.00088516
0.000884248
0.000883546
0.000882652
0.000881999
0.000881166
0.000880589
0.000879834
0.000879316
0.000878625
0.000878189
0.000877534
0.000877156
0.000876505
0.000876188
0.000875499
0.000875255
0.000874594
0.000874438
0.000873854
0.000873774
0.000873293
0.000873246
0.00087286
0.000872795
0.000872462
0.000872335
0.000872017
0.000871826
0.000871517
0.000871246
0.00087094
0.000870593
0.000870289
0.000869879
0.000869588
0.000869102
0.000868803
0.000868246
0.000867929
0.000867312
0.000866981
0.000866338
0.000865991
0.000865339
0.000864997
0.000864336
0.000863988
0.000863337
0.000862988
0.000862372
0.000862045
0.000861459
0.00086115
0.000860609
0.000860313
0.00085981
0.000859525
0.000859073
0.000858825
0.000858409
0.000858203
0.00085782
0.000857738
0.000857365
0.000857452
0.000857027
0.000857326
0.00085684
0.000857327
0.000856932
0.000857481
0.000857228
0.000857707
0.000857539
0.000857855
0.000857782
0.000857844
0.000857799
0.000857527
0.000857491
0.000856907
0.000856847
0.000855979
0.00085589
0.0008548
0.000854624
0.000853483
0.000853232
0.000852297
0.00085197
0.000851161
0.000850813
0.000850123
0.000849815
0.000849251
0.000848921
0.000848448
0.000848127
0.000847716
0.000847451
0.000847103
0.000846914
0.000846625
0.000846539
0.000846316
0.000846321
0.000846153
0.000846255
0.000846148
0.000846327
0.000846246
0.00084649
0.000846457
0.000846696
0.000846709
0.000846932
0.000846966
0.000847097
0.000847158
0.000847186
0.00084723
0.000847139
0.000847179
0.00084696
0.000846996
0.000846652
0.000846683
0.00084623
0.000846243
0.000845719
0.000845736
0.000845206
0.000845201
0.000844772
0.000844751
0.000844418
0.000844411
0.000844192
0.00084419
0.000844035
0.000844061
0.000843947
0.000843969
0.000843906
0.000843915
0.000843867
0.000843886
0.000843847
0.000843852
0.000843815
0.000843814
0.000843777
0.000843738
0.000843701
0.000843641
0.000843567
0.000843488
0.000843393
0.000843271
0.000843132
0.000842991
0.000842833
0.000842664
0.000842479
0.000842281
0.00084207
0.000841847
0.000841612
0.000841369
0.000841129
0.000840878
0.000840608
0.000840326
0.000840034
0.000839747
0.000839443
0.000839114
0.000838783
0.000838432
0.000838054
0.000837671
0.000837269
0.000836848
0.000836411
0.000835956
0.000835496
0.00083501
0.000834511
0.000834014
0.000833508
0.000832989
0.00083247
0.000831969
0.000831476
0.000830996
0.000830527
0.000830061
0.000829613
0.000829195
0.000828799
0.000828415
0.000828056
0.00082773
0.000827416
0.00082712
0.000826849
0.000826593
0.000826358
0.000826137
0.000825933
0.000825728
0.000825538
0.000825367
0.000825207
0.000825047
0.000824896
0.000824756
0.000824629
0.000824525
0.000824434
0.000824345
0.000824268
0.000824205
0.000824154
0.000824119
0.000824097
0.000824092
0.000824099
0.000824114
0.000824139
0.000824196
0.000824267
0.000824357
0.000824463
0.00082458
0.000824712
0.00082487
0.000825032
0.000825211
0.000825408
0.000825595
0.000825794
0.000825999
0.000826192
0.000826388
0.00082659
0.000826774
0.000826956
0.000827128
0.000827295
0.000827457
0.00082761
0.000827757
0.000827895
0.000828025
0.00082813
0.000828243
0.000828346
0.000828441
0.000828531
0.0008286
0.000828672
0.000828731
0.000828775
0.000828822
0.000828853
0.000828876
0.000828901
0.000828914
0.000828914
0.000828902
0.000828875
0.000828835
0.000828778
0.000828706
0.000828617
0.000828514
0.0008284
0.000828273
0.000828146
0.000828018
0.000827875
0.000827737
0.000827598
0.000827466
0.000827336
0.000827214
0.000827095
0.000826983
0.000826875
0.000826775
0.000826679
0.000826589
0.000826504
0.000826422
0.000826342
0.000826264
0.000826184
0.000826101
0.000826029
0.000825928
0.000825829
0.000825722
0.000825608
0.000825505
0.000825397
0.000825275
0.000825128
0.000824963
0.000824806
0.000824629
0.000824442
0.000824233
0.000824013
0.000823777
0.000823532
0.000823276
0.000823016
0.000822753
0.000822491
0.000822243
0.000822001
0.000821745
0.000821495
0.000821242
0.000820991
0.00082073
0.00082047
0.000820229
0.000819993
0.000819768
0.000819553
0.000819346
0.000819148
0.000818945
0.000818749
0.000818575
0.00081841
0.000818254
0.000818109
0.000817958
0.000817808
0.000817684
0.000817572
0.000817468
0.000817373
0.000817285
0.000817207
0.000817124
0.000817048
0.000816995
0.000816963
0.000816947
0.000816933
0.000816956
0.000817003
0.000817055
0.000817136
0.000817241
0.00081735
0.000817486
0.000817641
0.000817801
0.000817981
0.000818173
0.00081839
0.000818626
0.000818868
0.000819127
0.000819401
0.000819691
0.000819997
0.000820317
0.000820651
0.000820997
0.000821356
0.000821724
0.000822103
0.000822489
0.000822881
0.00082328
0.000823675
0.00082407
0.000824476
0.000824877
0.000825277
0.000825662
0.000826039
0.000826421
0.00082679
0.000827153
0.000827495
0.000827824
0.000828157
0.000828471
0.000828776
0.000829057
0.000829313
0.000829578
0.000829831
0.000830043
0.000830243
0.000830412
0.000830566
0.000830704
0.000830799
0.000830888
0.000830961
0.000830998
0.000831035
0.000831063
0.000831062
0.000831066
0.000831069
0.000831046
0.00083103
0.000831025
0.000830995
0.000830973
0.000830969
0.000830944
0.000830933
0.000830944
0.00083094
0.000830973
0.000831033
0.000831091
0.000831203
0.000831364
0.000831537
0.000831844
0.000832021
0.000832557
0.000832673
0.000833657
0.000833481
0.000835324
0.000834506
0.0008377
0.000836051
0.000840874
0.000838739
0.000844422
0.000841768
0.000846347
0.000843144
0.000843294
0.000839446
0.000830936
0.000825136
0.000804212
0.000790297
0.000724768
0.000642552
0.000342826
0.000183758
0.000203447
0.000209126
0.000182528
0.000155604
0.000133807
0.000106073
0.000115272
0.000153875
0.000253247
)
;

boundaryField
{
    inlet
    {
        type            calculated;
        value           uniform 0;
    }
    endWall
    {
        type            calculated;
        value           uniform 0;
    }
    sideWall
    {
        type            empty;
    }
}


// ************************************************************************* //
