/*--------------------------------*- C++ -*----------------------------------*\
| =========                 |                                                 |
| \\      /  F ield         | foam-extend: Open Source CFD                    |
|  \\    /   O peration     | Version:     3.2                                |
|   \\  /    A nd           | Web:         http://www.foam-extend.org         |
|    \\/     M anipulation  | For copyright notice see file Copyright         |
\*---------------------------------------------------------------------------*/
FoamFile
{
    version     2.0;
    format      ascii;
    class       surfaceScalarField;
    location    "840";
    object      meshPhi;
}
// * * * * * * * * * * * * * * * * * * * * * * * * * * * * * * * * * * * * * //

dimensions      [0 3 -1 0 0 0 0];

internalField   nonuniform List<scalar> 
65390
(
0
1.44232e-14
0
3.74196e-14
1.31086e-30
1.78443e-14
1.15648e-19
-9.75087e-14
-4.1227e-29
-1.1337e-14
1.15648e-19
1.40119e-12
2.31289e-19
7.05334e-12
0
5.56289e-11
-2.31279e-19
-1.0013e-10
-1.42179e-23
1.38206e-08
1.93941e-23
2.51802e-07
4.56901e-23
9.07688e-07
-2.25309e-19
1.10053e-06
0
-2.14551e-07
-4.42021e-19
-1.43791e-06
-4.34451e-19
-1.07202e-06
0
-4.76097e-07
-4.36003e-19
-2.86638e-07
0
3.52637e-07
-4.41636e-19
1.35511e-06
0
1.42015e-06
0
5.28643e-07
4.50653e-19
-2.95203e-07
7.71754e-23
-8.6122e-07
4.56621e-19
-8.03084e-07
-4.51562e-19
-2.89092e-07
0
8.35779e-08
0
4.15427e-07
0
4.32622e-07
9.20401e-19
4.59823e-08
0
-1.68812e-07
-9.23768e-19
-1.01482e-07
-9.23717e-19
-9.26294e-09
9.24608e-19
1.16741e-08
9.2433e-19
4.77049e-09
0
3.69496e-09
-9.2533e-19
2.1856e-09
0
7.31227e-10
0
-6.73987e-11
9.25488e-19
-1.75864e-10
1.97634e-26
2.094e-10
0
5.44064e-10
9.25186e-19
7.35998e-10
-2.65359e-26
5.72362e-10
9.24866e-19
1.27778e-10
0
-4.54709e-10
9.24895e-19
-7.09258e-10
-5.73457e-26
-5.71263e-10
9.24978e-19
-2.77222e-10
1.85063e-18
-1.33082e-10
0
-2.22211e-10
9.2527e-19
-4.68001e-10
3.06753e-26
-7.68634e-10
9.25247e-19
-9.70188e-10
1.85019e-18
-1.05088e-09
0
-1.00124e-09
-1.85027e-18
-8.52742e-10
0
-5.97196e-10
0
-2.80747e-10
-1.85032e-18
9.42402e-11
-1.85026e-18
4.74346e-10
1.85027e-18
8.49568e-10
-1.85021e-18
1.1359e-09
0
1.29403e-09
-1.85018e-18
1.33077e-09
0
1.23382e-09
-1.85017e-18
9.45087e-10
0
5.23303e-10
0
5.85387e-11
-3.70041e-18
-3.99481e-10
0
-7.89611e-10
-4.02191e-26
-9.9286e-10
0
-9.93344e-10
1.85028e-18
-8.36805e-10
0
-6.2098e-10
3.70069e-18
-3.98529e-10
-2.75886e-26
-2.31604e-10
1.85042e-18
-1.19197e-10
5.55025e-18
-7.79528e-11
0
-7.9152e-11
1.85003e-18
-1.09104e-10
0
-1.24457e-10
-1.84997e-18
-1.13084e-10
-1.85067e-18
-5.76293e-11
8.77695e-26
1.16901e-11
-3.70154e-18
9.03944e-11
-8.22333e-26
1.34457e-10
-1.2343e-25
1.29653e-10
0
5.37896e-11
-1.851e-18
-7.87145e-11
-1.84959e-18
-2.57337e-10
-1.30857e-25
-4.54947e-10
1.42775e-25
-6.82613e-10
5.55386e-18
-8.91306e-10
0
-1.07778e-09
1.8515e-18
-1.19235e-09
1.84908e-18
-1.26659e-09
-1.85177e-18
-1.24497e-09
0
-1.20745e-09
0
-1.11878e-09
3.69662e-18
-1.09651e-09
-1.85266e-18
-1.09792e-09
-3.04007e-25
-1.14947e-09
-2.86097e-25
-1.23009e-09
2.70772e-25
-1.28201e-09
1.8536e-18
-1.34366e-09
0
-1.33803e-09
-1.85395e-18
-1.31779e-09
-5.5397e-18
-1.20904e-09
0
-1.08439e-09
0
-8.85583e-10
-3.70879e-18
-6.93254e-10
0
-4.56293e-10
0
-2.52939e-10
0
-2.86873e-11
0
1.48529e-10
-3.69231e-18
3.40944e-10
0
4.89488e-10
-3.69247e-18
6.58392e-10
-7.4173e-18
7.95464e-10
-3.69282e-18
9.61097e-10
0
1.10622e-09
-3.69331e-18
1.27467e-09
3.70772e-18
1.42049e-09
3.6939e-18
1.57097e-09
-3.70711e-18
1.69269e-09
3.69453e-18
1.80515e-09
-3.89133e-25
1.88816e-09
7.39026e-18
1.95301e-09
0
1.99246e-09
0
2.00168e-09
0
1.98711e-09
3.69643e-18
1.93844e-09
0
1.872e-09
-3.69699e-18
1.77585e-09
0
1.67227e-09
0
1.54549e-09
-3.70356e-18
1.42328e-09
0
1.28088e-09
-2.32308e-25
1.14825e-09
-3.69853e-18
9.97031e-10
0
8.55319e-10
0
6.89621e-10
0
5.27017e-10
0
3.2756e-10
-3.70209e-18
1.18626e-10
-3.69962e-18
-1.1173e-10
-3.70161e-18
-3.71448e-10
-3.70022e-18
-5.59832e-10
3.70081e-18
-8.24964e-10
3.70133e-18
-1.0043e-09
-3.69936e-18
-1.31107e-09
-7.40631e-18
-1.51098e-09
3.69723e-18
-1.80203e-09
-7.41039e-18
-1.99136e-09
3.69513e-18
-2.08371e-09
-3.70696e-18
-2.13268e-09
3.69345e-18
-2.0663e-09
3.70837e-18
-2.00696e-09
-7.38436e-18
-1.8243e-09
-3.70918e-18
-1.68696e-09
-3.22681e-25
-1.42391e-09
0
-1.23297e-09
8.42461e-28
-9.2307e-10
0
-7.06313e-10
3.03487e-25
-3.96275e-10
0
-1.91367e-10
3.6942e-18
7.39818e-11
3.70599e-18
2.26333e-10
7.62338e-25
3.93061e-10
0
4.41901e-10
-3.69851e-18
4.2557e-10
-3.70205e-18
4.71469e-10
7.39993e-18
4.59682e-10
3.59963e-25
5.11199e-10
-3.70105e-18
5.37128e-10
7.39979e-18
5.85762e-10
3.70186e-18
5.70093e-10
-3.69926e-18
5.72278e-10
-3.70234e-18
5.5537e-10
-3.69884e-18
5.50385e-10
-1.14675e-25
5.16832e-10
3.69859e-18
4.72497e-10
0
3.93681e-10
-3.69834e-18
2.97413e-10
-6.79718e-26
1.6463e-10
-3.69808e-18
9.83014e-12
-7.40713e-18
-1.53518e-10
-7.39538e-18
-3.40091e-10
1.11119e-17
-5.00762e-10
-7.39451e-18
-6.75867e-10
0
-8.22043e-10
7.39338e-18
-9.74678e-10
3.70502e-18
-1.09317e-09
3.69607e-18
-1.20913e-09
-3.07935e-25
-1.29122e-09
-7.39053e-18
-1.36109e-09
-3.2778e-25
-1.40183e-09
0
-1.42543e-09
0
-1.42891e-09
3.69395e-18
-1.40313e-09
-2.80905e-25
-1.35837e-09
0
-1.27629e-09
7.41579e-18
-1.18662e-09
-1.108e-17
-1.04843e-09
-3.70799e-18
-9.17053e-10
7.38669e-18
-7.39501e-10
0
-5.83378e-10
3.69364e-18
-3.85125e-10
3.7074e-18
-2.2304e-10
3.69422e-18
-2.8058e-11
0
1.18476e-10
0
2.81134e-10
-3.70577e-18
3.87938e-10
3.69617e-18
4.91801e-10
3.70463e-18
5.37631e-10
-3.69739e-18
5.55834e-10
0
5.58505e-10
-2.48948e-25
5.17e-10
0
4.90123e-10
3.58256e-25
4.25686e-10
0
3.68538e-10
0
2.86365e-10
0
2.13065e-10
-7.39951e-18
1.24301e-10
-7.40292e-18
4.43069e-11
0
-4.38861e-11
0
-1.2176e-10
8.19222e-26
-2.01721e-10
0
-2.70688e-10
-7.40057e-18
-3.3817e-10
-7.40199e-18
-3.94883e-10
0
-4.47772e-10
0
-4.91777e-10
0
-5.3189e-10
1.48031e-17
-5.64626e-10
-7.40118e-18
-5.89823e-10
0
-6.10826e-10
7.40108e-18
-6.34657e-10
0
-6.52018e-10
-7.40123e-18
-6.55594e-10
-7.40139e-18
-6.47892e-10
7.40122e-18
-6.38985e-10
-1.20877e-26
-6.27563e-10
3.47124e-27
-6.12162e-10
0
-5.92214e-10
-7.40134e-18
-5.70529e-10
0
-5.4717e-10
0
-5.24921e-10
-7.40129e-18
-5.0571e-10
0
-4.91362e-10
-7.40131e-18
-4.80593e-10
0
-4.73235e-10
-7.40136e-18
-4.67774e-10
0
-4.63873e-10
-7.40126e-18
-4.61113e-10
0
-4.5575e-10
7.40127e-18
-4.43047e-10
0
-4.17123e-10
-2.38366e-26
-3.71794e-10
0
-3.04443e-10
0
-2.16205e-10
0
-1.06512e-10
7.40129e-18
2.33458e-11
7.40144e-18
1.712e-10
-7.40121e-18
3.37301e-10
0
5.19774e-10
0
7.12744e-10
-7.40133e-18
9.1493e-10
7.40134e-18
1.12404e-09
7.40116e-18
1.33493e-09
-7.40142e-18
1.54069e-09
7.40128e-18
1.73378e-09
1.48026e-17
1.9017e-09
0
2.03815e-09
7.4014e-18
2.13612e-09
4.0521e-26
2.19414e-09
0
2.21562e-09
0
2.20144e-09
7.40129e-18
2.15968e-09
-1.48026e-17
2.09129e-09
0
1.99625e-09
1.48028e-17
1.87397e-09
-7.40129e-18
1.72691e-09
-7.40135e-18
1.55751e-09
-7.4014e-18
1.37689e-09
-7.40144e-18
1.19332e-09
0
1.01529e-09
-7.40145e-18
8.49614e-10
7.4013e-18
6.98748e-10
0
5.66019e-10
-7.4014e-18
4.5197e-10
0
3.57576e-10
0
2.84516e-10
0
2.35505e-10
-2.5695e-26
2.12007e-10
-7.40144e-18
2.13245e-10
0
2.34887e-10
0
2.71781e-10
-1.48031e-17
3.19501e-10
7.40133e-18
3.73346e-10
1.4803e-17
4.30788e-10
7.40138e-18
4.90694e-10
0
5.52602e-10
-7.40135e-18
6.14636e-10
-7.40151e-18
6.74207e-10
9.37967e-27
7.26739e-10
0
7.7149e-10
-1.0986e-26
8.07796e-10
-8.99437e-27
8.3502e-10
0
8.53969e-10
1.48031e-17
8.62711e-10
-7.40128e-18
8.60006e-10
7.40163e-18
8.42213e-10
7.40141e-18
8.09618e-10
-1.84615e-26
7.67429e-10
7.40139e-18
7.13968e-10
-7.40146e-18
6.37138e-10
7.4014e-18
5.33077e-10
-8.15281e-27
4.08685e-10
-1.48029e-17
2.73363e-10
-7.40145e-18
1.32861e-10
-7.40156e-18
-1.19837e-12
1.48031e-17
-1.17197e-10
7.4014e-18
-2.11126e-10
-7.40159e-18
-2.82074e-10
0
-3.30626e-10
0
-3.59319e-10
0
-3.70981e-10
0
-3.68912e-10
7.40141e-18
-3.54628e-10
-1.11297e-26
-3.29182e-10
6.43696e-27
-2.93922e-10
0
-2.50431e-10
7.40144e-18
-2.01763e-10
0
-1.48978e-10
-7.40143e-18
-9.25296e-11
-1.48028e-17
-3.25639e-11
7.40147e-18
3.02814e-11
8.93098e-27
9.36036e-11
0
1.52379e-10
7.40129e-18
2.02655e-10
-7.40155e-18
2.45043e-10
-7.40138e-18
2.81813e-10
6.59461e-27
3.15126e-10
7.4015e-18
3.50762e-10
7.40125e-18
3.92023e-10
7.40142e-18
4.36245e-10
1.48029e-17
5.03774e-10
7.40128e-18
5.97304e-10
7.40153e-18
6.84843e-10
-7.4014e-18
7.70981e-10
0
8.60071e-10
7.40145e-18
9.49441e-10
1.48026e-17
1.04441e-09
1.04794e-26
1.14397e-09
-7.40126e-18
1.25306e-09
-1.48028e-17
1.37214e-09
7.40132e-18
1.49945e-09
1.48029e-17
1.63297e-09
-2.65547e-27
1.77003e-09
0
1.90298e-09
2.2204e-17
2.02905e-09
1.4803e-17
2.13941e-09
-7.40132e-18
2.2298e-09
7.40126e-18
2.2978e-09
-7.40135e-18
2.34111e-09
0
2.3667e-09
7.40141e-18
2.37638e-09
8.76553e-27
2.37407e-09
-1.34897e-26
2.36161e-09
7.40128e-18
2.34062e-09
7.40144e-18
2.30686e-09
-7.40127e-18
2.26439e-09
-1.50858e-26
2.21129e-09
-7.40126e-18
2.14658e-09
-2.22043e-17
2.0714e-09
-1.48025e-17
1.98411e-09
-1.30751e-27
1.89107e-09
-7.40126e-18
1.79535e-09
7.40142e-18
1.7006e-09
7.4012e-18
1.6095e-09
1.39038e-26
1.52361e-09
-2.80557e-27
1.44368e-09
-1.48023e-17
1.37002e-09
7.40148e-18
1.30155e-09
7.40116e-18
1.23723e-09
7.40146e-18
1.17291e-09
-7.40128e-18
1.1103e-09
-7.40133e-18
1.05468e-09
-7.4012e-18
1.01543e-09
-7.4013e-18
9.94536e-10
-2.55796e-26
9.8537e-10
-7.40134e-18
9.93632e-10
-1.48025e-17
1.02033e-09
-7.40139e-18
1.06393e-09
7.40115e-18
1.11961e-09
0
1.17967e-09
7.40126e-18
1.23487e-09
1.48028e-17
1.27411e-09
0
1.29404e-09
7.40131e-18
1.29139e-09
7.4013e-18
1.26638e-09
0
1.22118e-09
-7.40135e-18
1.15944e-09
-7.40133e-18
1.08294e-09
1.48025e-17
9.99875e-10
2.9606e-17
9.16291e-10
-6.26648e-27
8.35347e-10
-9.89998e-27
7.59358e-10
-7.40115e-18
6.89803e-10
7.4016e-18
6.30499e-10
7.40133e-18
5.79221e-10
-5.92476e-27
5.33922e-10
4.33117e-27
4.94587e-10
-7.40145e-18
4.60069e-10
-1.48025e-17
4.28937e-10
7.40138e-18
4.02859e-10
-6.70475e-27
3.83659e-10
-7.40155e-18
3.71562e-10
-7.40132e-18
3.65395e-10
7.40137e-18
3.63953e-10
-7.40137e-18
3.65958e-10
7.40141e-18
3.67941e-10
7.40128e-18
3.74913e-10
-1.01545e-26
3.90095e-10
1.48028e-17
4.03683e-10
-1.48027e-17
4.09153e-10
0
4.17809e-10
1.48028e-17
4.33616e-10
7.40136e-18
4.48753e-10
0
4.65488e-10
-4.76053e-27
4.78695e-10
8.81399e-26
4.90651e-10
0
5.42326e-10
-7.40143e-18
6.38076e-10
0
7.20047e-10
7.40137e-18
7.66226e-10
-7.40142e-18
7.91107e-10
0
8.07265e-10
0
8.25353e-10
6.43012e-26
8.487e-10
-1.48027e-17
8.60409e-10
0
8.53156e-10
-1.4803e-17
8.43566e-10
1.48026e-17
8.34333e-10
0
8.17748e-10
0
7.93595e-10
1.48026e-17
7.60502e-10
0
7.14687e-10
2.96051e-17
6.54551e-10
-1.48027e-17
5.75211e-10
0
4.76865e-10
-1.48026e-17
3.59808e-10
0
2.23349e-10
-1.48026e-17
6.86965e-11
1.48027e-17
-1.02173e-10
0
-2.86367e-10
0
-4.80779e-10
0
-6.8456e-10
0
-8.95734e-10
-1.48026e-17
-1.11368e-09
0
-1.33479e-09
0
-1.55479e-09
1.48028e-17
-1.7689e-09
1.48025e-17
-1.96937e-09
-1.48028e-17
-2.15572e-09
0
-2.32036e-09
-1.48025e-17
-2.45815e-09
1.48028e-17
-2.57102e-09
0
-2.66569e-09
1.48028e-17
-2.74368e-09
0
-2.80712e-09
0
-2.85046e-09
-1.48028e-17
-2.87783e-09
0
-2.89695e-09
0
-2.9113e-09
0
-2.9263e-09
1.48024e-17
-2.93064e-09
0
-2.9233e-09
-1.48024e-17
-2.90596e-09
1.48027e-17
-2.88052e-09
0
-2.85431e-09
0
-2.82967e-09
1.48025e-17
-2.78235e-09
-1.48027e-17
-2.71172e-09
0
-2.62407e-09
1.48027e-17
-2.51211e-09
0
-2.39286e-09
1.48024e-17
-2.27829e-09
0
-2.16906e-09
-1.48024e-17
-2.06065e-09
-1.48025e-17
-1.96172e-09
0
-1.87897e-09
-1.48024e-17
-1.80427e-09
1.78595e-26
-1.73156e-09
1.48029e-17
-1.66668e-09
0
-1.6014e-09
0
-1.52715e-09
0
-1.45525e-09
-1.48026e-17
-1.38803e-09
0
-1.31492e-09
0
-1.23523e-09
-1.48026e-17
-1.16311e-09
-5.94715e-26
-1.08286e-09
0
-9.77013e-10
-1.48027e-17
-8.62845e-10
0
-7.59951e-10
0
-6.59436e-10
0
-5.38697e-10
-2.32384e-26
-3.96958e-10
1.48036e-17
-2.44219e-10
-1.48029e-17
-9.73551e-11
1.48035e-17
2.27842e-11
0
1.51109e-10
-1.48034e-17
3.30984e-10
-1.48043e-17
5.41204e-10
0
7.53234e-10
0
9.54692e-10
0
1.14301e-09
1.48148e-17
1.32508e-09
1.47861e-17
1.50473e-09
0
1.67554e-09
0
1.8213e-09
1.48829e-17
1.94517e-09
-8.45857e-26
2.05625e-09
1.49488e-17
2.13541e-09
0
2.19036e-09
-3.00521e-17
2.23559e-09
0
2.28056e-09
0
2.33429e-09
0
2.39985e-09
0
2.47988e-09
0
2.59942e-09
0
2.70861e-09
-1.4415e-17
2.65825e-09
0
2.58186e-09
0
1.88205e-09
-1.60192e-17
4.44364e-10
-2.97377e-24
-1.91114e-10
-1.4757e-17
-4.50376e-11
1.48246e-17
5.97205e-13
0
1.24556e-14
0
4.97141e-14
8.31298e-28
3.22428e-14
0
2.10003e-14
1.48035e-17
1.34516e-14
0
8.29092e-15
-1.48031e-17
4.49874e-15
1.42543e-15
0
1.42688e-13
-5.7824e-20
3.71353e-13
-5.78239e-20
2.02148e-13
0
-9.32544e-13
-1.15651e-19
-3.84567e-13
0
1.35941e-11
2.3119e-19
6.79175e-11
-2.31012e-19
3.63945e-10
-2.30714e-19
2.23771e-09
0
3.50028e-08
-2.31188e-19
2.87346e-07
2.27364e-19
8.59861e-07
4.56169e-19
9.59511e-07
-1.69125e-22
-2.08206e-07
-4.44962e-19
-1.2929e-06
0
-1.04317e-06
-4.37228e-19
-5.05629e-07
-4.34767e-19
-2.47645e-07
0
3.80645e-07
0
1.26842e-06
9.01614e-19
1.3299e-06
0
5.30451e-07
9.07141e-19
-2.69807e-07
-9.01158e-19
-8.00047e-07
4.58485e-19
-7.57135e-07
4.52353e-19
-2.98243e-07
-4.55915e-19
7.9472e-08
0
3.84212e-07
0
3.93259e-07
0
6.02e-08
9.21598e-19
-1.42031e-07
9.24987e-19
-9.74326e-08
9.23803e-19
-1.51942e-08
9.24264e-19
8.8858e-09
-9.23938e-19
5.10492e-09
9.24677e-19
3.6384e-09
9.25167e-19
2.19899e-09
1.85017e-18
7.9651e-10
0
3.24696e-12
0
-1.23048e-10
-9.24753e-19
2.08924e-10
-9.25722e-19
5.30166e-10
0
6.99321e-10
9.25602e-19
5.41575e-10
9.24763e-19
1.12126e-10
-1.44946e-25
-4.23944e-10
0
-6.69589e-10
-1.85041e-18
-5.53719e-10
1.84969e-18
-2.90568e-10
9.25166e-19
-1.56721e-10
-9.24888e-19
-2.39474e-10
-9.25126e-19
-4.74773e-10
9.24938e-19
-7.59418e-10
-9.25117e-19
-9.57271e-10
0
-1.03615e-09
0
-9.89005e-10
0
-8.39785e-10
0
-5.88851e-10
-2.16509e-26
-2.73141e-10
0
9.60719e-11
-1.84998e-18
4.74102e-10
3.64239e-26
8.4036e-10
1.84991e-18
1.12177e-09
0
1.27975e-09
1.84985e-18
1.31454e-09
-3.69971e-18
1.21215e-09
-1.84984e-18
9.29274e-10
0
5.17019e-10
0
5.85442e-11
-1.8499e-18
-3.92066e-10
3.69976e-18
-7.69729e-10
-1.84994e-18
-9.70695e-10
0
-9.7564e-10
-1.85001e-18
-8.29097e-10
0
-6.19511e-10
1.85008e-18
-4.0374e-10
-1.36684e-26
-2.37451e-10
1.85016e-18
-1.26789e-10
1.84986e-18
-8.27792e-11
0
-8.2322e-11
1.84982e-18
-1.07803e-10
1.85036e-18
-1.21659e-10
1.84978e-18
-1.08587e-10
0
-5.60753e-11
1.84971e-18
1.23825e-11
1.85053e-18
8.65459e-11
-1.84962e-18
1.2881e-10
-1.29461e-25
1.21704e-10
0
4.7159e-11
0
-8.41325e-11
1.84943e-18
-2.5997e-10
1.85089e-18
-4.58094e-10
1.84932e-18
-6.80754e-10
1.85104e-18
-8.88571e-10
1.7951e-25
-1.07006e-09
1.85124e-18
-1.18718e-09
7.39588e-18
-1.25661e-09
0
-1.24245e-09
-1.84868e-18
-1.20242e-09
1.85189e-18
-1.1251e-09
0
-1.09933e-09
0
-1.10335e-09
2.86693e-25
-1.15255e-09
0
-1.22754e-09
0
-1.28251e-09
-1.8532e-18
-1.33676e-09
3.69377e-18
-1.33557e-09
-1.85352e-18
-1.30864e-09
1.84657e-18
-1.2063e-09
0
-1.0766e-09
0
-8.85387e-10
0
-6.88721e-10
3.69242e-18
-4.59236e-10
0
-2.51102e-10
0
-3.31942e-11
-3.70807e-18
1.49622e-10
0
3.36696e-10
3.70797e-18
4.91118e-10
0
6.55486e-10
0
7.98039e-10
-3.69282e-18
9.59269e-10
0
1.10833e-09
-3.69328e-18
1.27243e-09
-3.70685e-18
1.42081e-09
0
1.5679e-09
0
1.69134e-09
0
1.80188e-09
-3.70571e-18
1.88584e-09
3.69501e-18
1.94987e-09
0
1.98912e-09
-3.69565e-18
1.99859e-09
3.70454e-18
1.9832e-09
0
1.93607e-09
-3.704e-18
1.86854e-09
3.69679e-18
1.77479e-09
3.70348e-18
1.66961e-09
0
1.54553e-09
-3.70297e-18
1.42114e-09
3.69781e-18
1.28151e-09
3.70255e-18
1.14626e-09
0
9.97713e-10
0
8.52741e-10
0
6.89463e-10
-1.02006e-25
5.23165e-10
0
3.26188e-10
3.70163e-18
1.16306e-10
3.6993e-18
-1.14594e-10
3.70119e-18
-3.64976e-10
-3.52157e-25
-5.66803e-10
0
-8.17229e-10
3.70089e-18
-1.01582e-09
-3.69908e-18
-1.30131e-09
-7.40521e-18
-1.51857e-09
0
-1.79157e-09
-3.70446e-18
-1.98082e-09
0
-2.07784e-09
-3.70606e-18
-2.1207e-09
3.69331e-18
-2.06531e-09
-3.70735e-18
-1.99446e-09
6.10865e-25
-1.82733e-09
3.70806e-18
-1.67466e-09
3.69147e-18
-1.42973e-09
-3.70826e-18
-1.22185e-09
3.69168e-18
-9.31257e-10
1.35365e-25
-6.97915e-10
2.96536e-25
-4.06172e-10
-3.70671e-18
-1.86542e-10
-5.57506e-25
6.27756e-11
-3.70515e-18
2.26422e-10
0
3.81071e-10
0
4.35061e-10
-5.58402e-25
4.30755e-10
0
4.66072e-10
3.69955e-18
4.65458e-10
0
5.08752e-10
-3.70058e-18
5.38883e-10
-3.69949e-18
5.79481e-10
0
5.71283e-10
-3.69889e-18
5.70252e-10
-1.42519e-25
5.5604e-10
0
5.47281e-10
-3.70215e-18
5.15216e-10
3.69828e-18
4.68642e-10
9.3792e-26
3.91329e-10
-7.39613e-18
2.93409e-10
3.70266e-18
1.62018e-10
0
8.64633e-12
0
-1.55811e-10
-3.69744e-18
-3.3769e-10
-1.11101e-17
-5.01943e-10
3.69705e-18
-6.72917e-10
-3.70381e-18
-8.22228e-10
-3.69649e-18
-9.71082e-10
3.70431e-18
-1.09237e-09
3.6959e-18
-1.20537e-09
3.70497e-18
-1.28959e-09
-3.33721e-25
-1.35771e-09
0
-1.3996e-09
0
-1.42292e-09
-7.4124e-18
-1.42547e-09
-3.69384e-18
-1.40082e-09
2.51953e-25
-1.3542e-09
0
-1.27492e-09
7.4139e-18
-1.18158e-09
0
-1.04852e-09
-3.70705e-18
-9.12417e-10
3.69325e-18
-7.4125e-10
0
-5.79389e-10
-7.38706e-18
-3.88443e-10
0
-2.20258e-10
3.69409e-18
-3.28468e-11
3.70582e-18
1.19398e-10
-7.38987e-18
2.75342e-10
3.705e-18
3.86828e-10
-3.47103e-25
4.85625e-10
1.11118e-17
5.34262e-10
-3.69717e-18
5.53639e-10
-3.70292e-18
5.53925e-10
3.69801e-18
5.17788e-10
0
4.86295e-10
7.39733e-18
4.26005e-10
0
3.65988e-10
0
2.87025e-10
0
2.11546e-10
1.67116e-25
1.25069e-10
0
4.35977e-11
-1.10355e-25
-4.28526e-11
0
-1.21795e-10
-7.39952e-18
-2.00559e-10
7.40127e-18
-2.70335e-10
0
-3.36965e-10
0
-3.94304e-10
7.39986e-18
-4.46711e-10
0
-4.91248e-10
7.40005e-18
-5.30976e-10
0
-5.63739e-10
0
-5.89269e-10
0
-6.1091e-10
-3.84331e-27
-6.33818e-10
0
-6.50571e-10
7.40027e-18
-6.54295e-10
0
-6.47595e-10
0
-6.38611e-10
0
-6.27045e-10
-1.48007e-17
-6.117e-10
7.40035e-18
-5.91945e-10
0
-5.70336e-10
0
-5.47274e-10
0
-5.25239e-10
-7.40032e-18
-5.06191e-10
7.40039e-18
-4.91799e-10
7.40033e-18
-4.80919e-10
0
-4.73417e-10
0
-4.67883e-10
0
-4.63858e-10
7.40029e-18
-4.60732e-10
2.07633e-26
-4.54747e-10
3.28766e-26
-4.414e-10
4.26869e-26
-4.14803e-10
-7.4002e-18
-3.69169e-10
7.40034e-18
-3.01891e-10
-7.4004e-18
-2.13643e-10
0
-1.04068e-10
-1.48006e-17
2.55283e-11
0
1.73337e-10
0
3.39146e-10
0
5.21058e-10
-1.49057e-26
7.13715e-10
0
9.15571e-10
0
1.12404e-09
-2.14678e-26
1.33409e-09
7.40043e-18
1.53883e-09
-1.48006e-17
1.73081e-09
0
1.8977e-09
-7.40022e-18
2.03345e-09
-7.40042e-18
2.13124e-09
1.48007e-17
2.18949e-09
7.40028e-18
2.21146e-09
7.40034e-18
2.19778e-09
7.40029e-18
2.1563e-09
0
2.08797e-09
7.40044e-18
1.99296e-09
0
1.87094e-09
0
1.72453e-09
7.40039e-18
1.5561e-09
3.66636e-27
1.37656e-09
-7.40049e-18
1.19399e-09
0
1.01673e-09
7.40059e-18
8.51539e-10
0
7.00934e-10
0
5.68363e-10
-4.15776e-26
4.5445e-10
7.40052e-18
3.6025e-10
7.40044e-18
2.87453e-10
7.40043e-18
2.38605e-10
-7.40059e-18
2.14947e-10
3.51738e-26
2.15706e-10
0
2.36753e-10
0
2.73097e-10
0
3.20321e-10
-7.40043e-18
3.73794e-10
-7.40062e-18
4.31075e-10
0
4.90875e-10
-1.4801e-17
5.52543e-10
7.4004e-18
6.14231e-10
7.40067e-18
6.73416e-10
-7.40045e-18
7.25725e-10
1.82775e-26
7.70412e-10
7.40049e-18
8.06637e-10
0
8.3387e-10
-7.40051e-18
8.52741e-10
2.70332e-26
8.61206e-10
-7.40052e-18
8.58186e-10
0
8.40415e-10
-7.40062e-18
8.08287e-10
7.40067e-18
7.65866e-10
-5.13994e-26
7.11349e-10
7.40067e-18
6.34061e-10
-7.40058e-18
5.3077e-10
-1.47866e-26
4.07423e-10
0
2.72856e-10
-7.40059e-18
1.33675e-10
7.40076e-18
8.66682e-13
-1.48014e-17
-1.14608e-10
-7.40056e-18
-2.08385e-10
0
-2.79379e-10
-7.40064e-18
-3.2818e-10
-7.40061e-18
-3.57244e-10
-7.40073e-18
-3.69217e-10
0
-3.67362e-10
0
-3.53227e-10
-7.40071e-18
-3.27943e-10
7.40053e-18
-2.92927e-10
-7.40068e-18
-2.49725e-10
-7.79334e-27
-2.01216e-10
7.40061e-18
-1.4851e-10
7.40058e-18
-9.21108e-11
-7.40058e-18
-3.2255e-11
0
3.03092e-11
1.35842e-26
9.30953e-11
1.48014e-17
1.51457e-10
7.4004e-18
2.01778e-10
7.40059e-18
2.44396e-10
-1.48008e-17
2.8148e-10
7.4005e-18
3.15367e-10
7.40059e-18
3.51417e-10
0
3.92557e-10
7.46508e-26
4.38713e-10
0
5.06423e-10
0
5.97013e-10
7.40055e-18
6.84776e-10
-8.12614e-27
7.71313e-10
0
8.60183e-10
7.4004e-18
9.50015e-10
-7.40038e-18
1.04509e-09
7.40042e-18
1.14497e-09
7.40036e-18
1.25416e-09
7.40039e-18
1.37304e-09
0
1.50009e-09
7.40037e-18
1.63316e-09
7.40034e-18
1.76966e-09
2.54252e-26
1.90194e-09
-1.48006e-17
2.02713e-09
0
2.13697e-09
-7.40025e-18
2.22695e-09
-7.40033e-18
2.29508e-09
0
2.33872e-09
1.48006e-17
2.36465e-09
7.40039e-18
2.37475e-09
1.99689e-26
2.37265e-09
-2.42193e-26
2.36025e-09
1.48006e-17
2.33924e-09
0
2.3055e-09
0
2.26297e-09
-7.40037e-18
2.20979e-09
-7.40027e-18
2.14511e-09
-7.40036e-18
2.07013e-09
0
1.98319e-09
0
1.89063e-09
0
1.79533e-09
0
1.70091e-09
-7.40023e-18
1.60993e-09
-7.40034e-18
1.52437e-09
7.40021e-18
1.44425e-09
0
1.37057e-09
-7.40037e-18
1.30198e-09
1.48003e-17
1.23724e-09
2.22012e-17
1.1733e-09
-1.48004e-17
1.11109e-09
0
1.05649e-09
-1.48003e-17
1.01749e-09
0
9.9602e-10
0
9.87335e-10
7.40032e-18
9.9583e-10
7.40007e-18
1.02218e-09
-7.40025e-18
1.06525e-09
0
1.12004e-09
-7.40026e-18
1.17899e-09
3.42801e-26
1.23316e-09
-7.40025e-18
1.27176e-09
0
1.29137e-09
0
1.28873e-09
-3.70875e-26
1.26395e-09
-3.03656e-26
1.21911e-09
0
1.15782e-09
0
1.08203e-09
7.4001e-18
9.99713e-10
7.40033e-18
9.16536e-10
-7.40014e-18
8.35858e-10
0
7.60185e-10
1.9445e-26
6.909e-10
7.40048e-18
6.31442e-10
1.29978e-26
5.79967e-10
-1.48007e-17
5.3465e-10
0
4.95177e-10
0
4.60597e-10
-1.48005e-17
4.29558e-10
-1.53485e-26
4.03686e-10
0
3.84512e-10
-1.48009e-17
3.72281e-10
0
3.66036e-10
1.48006e-17
3.64399e-10
-7.40025e-18
3.66101e-10
0
3.68545e-10
0
3.75791e-10
7.40036e-18
3.90018e-10
7.40028e-18
4.03058e-10
-1.48005e-17
4.09529e-10
7.40024e-18
4.18604e-10
-7.40026e-18
4.3371e-10
7.40022e-18
4.49033e-10
-7.40027e-18
4.65447e-10
-1.48004e-17
4.78977e-10
1.48009e-17
4.94835e-10
0
5.46799e-10
0
6.3693e-10
1.48007e-17
7.16536e-10
7.40027e-18
7.64081e-10
1.48012e-17
7.90114e-10
1.48006e-17
8.07399e-10
1.48007e-17
8.25803e-10
-1.48007e-17
8.47509e-10
0
8.58647e-10
0
8.52807e-10
-1.48007e-17
8.43535e-10
-1.48004e-17
8.33579e-10
-1.48004e-17
8.16917e-10
0
7.92537e-10
-1.48005e-17
7.5914e-10
0
7.12987e-10
-1.48004e-17
6.52379e-10
0
5.73014e-10
-6.9133e-26
4.74663e-10
0
3.57595e-10
-1.48004e-17
2.21213e-10
-1.48003e-17
6.6807e-11
0
-1.03737e-10
1.48003e-17
-2.87582e-10
0
-4.81816e-10
0
-6.85464e-10
0
-8.96406e-10
1.48002e-17
-1.11395e-09
0
-1.33455e-09
0
-1.55388e-09
0
-1.76741e-09
-1.48e-17
-1.96744e-09
0
-2.15307e-09
-1.48003e-17
-2.31716e-09
0
-2.45513e-09
1.48004e-17
-2.56853e-09
-1.48e-17
-2.6638e-09
-1.48003e-17
-2.74162e-09
0
-2.80472e-09
0
-2.84851e-09
-1.48002e-17
-2.87656e-09
-2.3761e-27
-2.89652e-09
0
-2.91096e-09
-1.48002e-17
-2.92506e-09
-1.47999e-17
-2.92929e-09
0
-2.92212e-09
-1.47999e-17
-2.90486e-09
1.48001e-17
-2.88055e-09
0
-2.85405e-09
0
-2.82722e-09
0
-2.77976e-09
1.48001e-17
-2.70958e-09
-1.47998e-17
-2.62177e-09
0
-2.51114e-09
1.47997e-17
-2.39329e-09
0
-2.27891e-09
-1.48002e-17
-2.16936e-09
-1.47998e-17
-2.06172e-09
-1.47998e-17
-1.96374e-09
4.68287e-27
-1.87993e-09
1.48e-17
-1.80471e-09
0
-1.73246e-09
0
-1.66669e-09
0
-1.60082e-09
0
-1.52734e-09
0
-1.45572e-09
-3.93938e-26
-1.38751e-09
0
-1.3143e-09
0
-1.23579e-09
-8.8805e-26
-1.16231e-09
-1.48001e-17
-1.08025e-09
0
-9.76082e-10
0
-8.63765e-10
-1.48002e-17
-7.59985e-10
-1.48008e-17
-6.57387e-10
0
-5.36432e-10
1.48006e-17
-3.95748e-10
0
-2.44696e-10
1.48008e-17
-9.97049e-11
-1.48015e-17
2.38424e-11
-1.48016e-17
1.56382e-10
3.51017e-26
3.34289e-10
0
5.41659e-10
-1.4801e-17
7.52294e-10
1.48048e-17
9.53321e-10
-6.5363e-27
1.1424e-09
1.48123e-17
1.32461e-09
0
1.50362e-09
-1.48333e-17
1.67284e-09
-1.47564e-17
1.81879e-09
0
1.94334e-09
0
2.05299e-09
0
2.13256e-09
0
2.18905e-09
1.49961e-17
2.23534e-09
1.45159e-17
2.2811e-09
1.50486e-17
2.33548e-09
-1.44243e-17
2.4007e-09
1.50607e-17
2.48233e-09
1.4373e-17
2.59617e-09
0
2.69106e-09
-1.4296e-17
2.65116e-09
3.25132e-24
2.53669e-09
1.42672e-17
1.88361e-09
1.53902e-17
6.06502e-10
1.98192e-17
-1.01686e-10
-1.5491e-17
-6.89862e-11
-1.49325e-17
-1.79596e-12
0
5.85068e-13
1.48274e-17
4.80651e-13
1.48162e-17
3.22112e-13
0
2.08775e-13
1.48074e-17
1.33745e-13
-1.48056e-17
8.24503e-14
0
4.475e-14
1.41826e-14
0
4.92034e-13
-5.78242e-20
1.29413e-12
5.78235e-20
7.76404e-13
1.15645e-19
-3.05711e-12
-1.15654e-19
-2.09799e-12
-1.15665e-19
4.37673e-11
1.24832e-25
2.20341e-10
-2.30407e-19
1.10813e-09
-2.30351e-19
7.24822e-09
2.30559e-19
5.89234e-08
7.56541e-24
3.14311e-07
0
7.946e-07
2.32865e-19
8.14117e-07
-4.54036e-19
-1.98524e-07
-4.49309e-19
-1.141e-06
0
-9.95435e-07
1.05295e-23
-5.22231e-07
0
-2.09097e-07
-4.42589e-19
3.99844e-07
4.46978e-19
1.17096e-06
0
1.22543e-06
-4.55563e-19
5.21984e-07
-4.33767e-23
-2.35782e-07
-9.07781e-19
-7.28043e-07
4.5709e-19
-7.02532e-07
4.52315e-19
-3.00697e-07
0
6.97547e-08
9.17391e-19
3.47155e-07
-9.21092e-19
3.52026e-07
9.24067e-19
7.19205e-08
9.21762e-19
-1.13959e-07
0
-9.06696e-08
-9.23779e-19
-2.05794e-08
0
5.46603e-09
0
5.0112e-09
9.24439e-19
3.62707e-09
-9.24919e-19
2.23523e-09
0
8.79484e-10
0
9.12223e-11
0
-5.98486e-11
1.32764e-27
2.14668e-10
0
5.11219e-10
-9.25224e-19
6.56328e-10
-5.59791e-26
5.04106e-10
9.24706e-19
9.75172e-11
-1.43421e-25
-3.89569e-10
9.24619e-19
-6.23564e-10
-9.24943e-19
-5.32548e-10
9.24693e-19
-3.04398e-10
-9.24927e-19
-1.84334e-10
9.24722e-19
-2.60853e-10
0
-4.82411e-10
0
-7.48829e-10
0
-9.40053e-10
-1.84962e-18
-1.01656e-09
0
-9.71504e-10
-1.84969e-18
-8.22791e-10
1.84975e-18
-5.76832e-10
-3.69926e-18
-2.63821e-10
0
9.86305e-11
1.84955e-18
4.71908e-10
0
8.27821e-10
-1.84945e-18
1.1027e-09
0
1.25913e-09
0
1.29123e-09
0
1.18444e-09
-1.84938e-18
9.08462e-10
1.84936e-18
5.07958e-10
0
5.90042e-11
-1.84943e-18
-3.80863e-10
-3.69886e-18
-7.44477e-10
-1.84949e-18
-9.41979e-10
0
-9.52474e-10
-1.84954e-18
-8.17649e-10
1.84949e-18
-6.17067e-10
0
-4.09384e-10
6.85323e-27
-2.45263e-10
-6.97681e-26
-1.36199e-10
1.8495e-18
-8.94315e-11
0
-8.62128e-11
-1.84951e-18
-1.0668e-10
-1.84987e-18
-1.18108e-10
1.84947e-18
-1.03522e-10
-5.09123e-26
-5.38866e-11
0
1.25112e-11
-9.21407e-26
8.16086e-11
1.84939e-18
1.20992e-10
1.85012e-18
1.11452e-10
1.84932e-18
3.80636e-11
-1.85019e-18
-9.13781e-11
-6.31308e-26
-2.64119e-10
-1.85029e-18
-4.61354e-10
-1.84919e-18
-6.78701e-10
0
-8.84024e-10
1.84909e-18
-1.06057e-09
-3.70114e-18
-1.17878e-09
1.84895e-18
-1.24487e-09
0
-1.23726e-09
1.71305e-25
-1.19753e-09
0
-1.13076e-09
0
-1.10359e-09
-1.85135e-18
-1.1094e-09
-1.8481e-18
-1.15578e-09
1.85168e-18
-1.22515e-09
0
-1.28109e-09
3.70386e-18
-1.32887e-09
1.84739e-18
-1.33001e-09
3.70429e-18
-1.2979e-09
-1.84717e-18
-1.20035e-09
0
-1.06768e-09
0
-8.82885e-10
0
-6.84189e-10
0
-4.61067e-10
7.40989e-18
-2.50266e-10
-3.6937e-18
-3.73654e-11
0
1.49303e-10
3.69368e-18
3.32609e-10
3.70486e-18
4.91483e-10
-3.69381e-18
6.52904e-10
-3.70473e-18
7.99646e-10
-3.69405e-18
9.5778e-10
-1.8878e-25
1.1095e-09
-2.26495e-25
1.27012e-09
-3.70408e-18
1.41989e-09
-3.69476e-18
1.56413e-09
0
1.68847e-09
-3.69521e-18
1.7974e-09
-3.70331e-18
1.88187e-09
-3.69562e-18
1.94516e-09
-3.70287e-18
1.98413e-09
3.69611e-18
1.99372e-09
-3.70246e-18
1.97778e-09
-3.69653e-18
1.93196e-09
0
1.86396e-09
0
1.77229e-09
-3.70177e-18
1.66632e-09
3.69732e-18
1.54447e-09
-3.70133e-18
1.41873e-09
-3.69766e-18
1.28122e-09
0
1.14415e-09
-7.39609e-18
9.97452e-10
0
8.49939e-10
-3.69822e-18
6.88105e-10
-5.93796e-26
5.18853e-10
0
3.23719e-10
3.70045e-18
1.13299e-10
1.10964e-17
-1.16984e-10
3.70019e-18
-3.59998e-10
-3.69917e-18
-5.71713e-10
3.69961e-18
-8.11942e-10
0
-1.02449e-09
3.69864e-18
-1.29373e-09
3.70112e-18
-1.52233e-09
-8.57023e-25
-1.77961e-09
-3.70235e-18
-1.96678e-09
8.00978e-25
-2.06724e-09
0
-2.10615e-09
-6.61911e-25
-2.05931e-09
0
-1.98084e-09
3.69321e-18
-1.8256e-09
3.70468e-18
-1.6626e-09
-2.43903e-25
-1.43145e-09
-3.70484e-18
-1.21219e-09
-3.69292e-18
-9.36428e-10
0
-6.92109e-10
0
-4.14491e-10
-7.40757e-18
-1.85251e-10
3.69467e-18
5.15288e-11
3.70274e-18
2.22379e-10
5.86665e-25
3.67506e-10
-4.49192e-25
4.26619e-10
-4.04725e-25
4.33485e-10
0
4.61859e-10
3.69883e-18
4.69815e-10
0
5.07079e-10
-2.32305e-25
5.39231e-10
3.6988e-18
5.73477e-10
7.40033e-18
5.71035e-10
3.69837e-18
5.68141e-10
3.70046e-18
5.55646e-10
-3.69809e-18
5.43693e-10
3.70072e-18
5.12232e-10
-7.39592e-18
4.63796e-10
3.70092e-18
3.87425e-10
-3.69781e-18
2.88311e-10
-3.70112e-18
1.58317e-10
2.7913e-26
6.50833e-12
-6.48779e-26
-1.58081e-10
0
-3.35846e-10
3.70161e-18
-5.02283e-10
3.69708e-18
-6.69964e-10
7.40386e-18
-8.21194e-10
-3.69667e-18
-9.67026e-10
3.70226e-18
-1.09008e-09
-7.39248e-18
-1.20076e-09
-3.66764e-25
-1.28638e-09
0
-1.35319e-09
-3.70319e-18
-1.39589e-09
7.3903e-18
-1.41893e-09
0
-1.42067e-09
7.38934e-18
-1.39675e-09
-3.70391e-18
-1.34882e-09
3.69435e-18
-1.27159e-09
-3.70404e-18
-1.17578e-09
-1.51129e-25
-1.04671e-09
7.40824e-18
-9.07613e-10
-7.38842e-18
-7.41461e-10
3.704e-18
-5.75933e-10
-3.69441e-18
-3.90755e-10
-3.70371e-18
-2.18724e-10
-1.2267e-25
-3.73439e-11
-3.70326e-18
1.18453e-10
7.39094e-18
2.69051e-10
0
3.83461e-10
-3.69625e-18
4.78257e-10
3.70198e-18
5.2911e-10
-3.69714e-18
5.49737e-10
0
5.48652e-10
3.69776e-18
5.16917e-10
0
4.82263e-10
-7.39645e-18
4.25135e-10
-7.40062e-18
3.63341e-10
7.39701e-18
2.86928e-10
0
2.10103e-10
0
1.2545e-10
0
4.31151e-11
-7.39779e-18
-4.19125e-11
0
-1.21472e-10
-7.39792e-18
-1.99275e-10
7.39918e-18
-2.69548e-10
0
-3.35515e-10
0
-3.93281e-10
-7.39812e-18
-4.4536e-10
7.39881e-18
-4.90301e-10
7.39824e-18
-5.29733e-10
0
-5.62529e-10
0
-5.88462e-10
-2.30323e-26
-6.10632e-10
0
-6.32644e-10
-7.39865e-18
-6.48708e-10
7.39842e-18
-6.52621e-10
0
-6.46909e-10
-7.39837e-18
-6.37988e-10
0
-6.26307e-10
7.39849e-18
-6.11041e-10
0
-5.91511e-10
-8.69616e-28
-5.70066e-10
7.39841e-18
-5.47358e-10
-1.47969e-17
-5.25612e-10
7.39842e-18
-5.06758e-10
-9.10616e-27
-4.92329e-10
-7.39842e-18
-4.81306e-10
0
-4.73613e-10
0
-4.6793e-10
1.47967e-17
-4.63667e-10
-1.47967e-17
-4.60011e-10
1.47969e-17
-4.532e-10
0
-4.38967e-10
7.3985e-18
-4.11511e-10
0
-3.65439e-10
0
-2.98153e-10
-7.39844e-18
-2.09911e-10
0
-1.00499e-10
0
2.87903e-11
0
1.76428e-10
0