/*--------------------------------*- C++ -*----------------------------------*\
| =========                 |                                                 |
| \\      /  F ield         | foam-extend: Open Source CFD                    |
|  \\    /   O peration     | Version:     3.2                                |
|   \\  /    A nd           | Web:         http://www.foam-extend.org         |
|    \\/     M anipulation  | For copyright notice see file Copyright         |
\*---------------------------------------------------------------------------*/
FoamFile
{
    version     2.0;
    format      ascii;
    class       volVectorField;
    location    "840";
    object      meshCentreN;
}
// * * * * * * * * * * * * * * * * * * * * * * * * * * * * * * * * * * * * * //

dimensions      [0 1 0 0 0 0 0];

internalField   nonuniform List<vector> 
33000
(
(0.0090909 0.01 0.00248182)
(0.0272727 0.01 0.00244545)
(0.0454546 0.01 0.00240909)
(0.0636364 0.01 0.00237273)
(0.0818182 0.01 0.00233637)
(0.1 0.01 0.0023)
(0.118182 0.01 0.0022636)
(0.136364 0.01 0.00222693)
(0.154546 0.01 0.00219051)
(0.17272 0.01 0.00214898)
(0.190909 0.01 0.00205414)
(0.209061 0.01 0.0020418)
(0.227269 0.01 0.00196826)
(0.245414 0.01 0.00190327)
(0.263648 0.01 0.00185234)
(0.281792 0.01 0.00180835)
(0.300017 0.01 0.00179306)
(0.31817 0.01 0.00177399)
(0.336402 0.01 0.0017299)
(0.354527 0.01 0.00183023)
(0.372748 0.01 0.00198713)
(0.390893 0.01 0.0020487)
(0.409116 0.01 0.00207169)
(0.427265 0.01 0.00208492)
(0.445483 0.01 0.00215627)
(0.463619 0.01 0.00235877)
(0.481833 0.01 0.00264056)
(0.5 0.01 0.0027668)
(0.518187 0.01 0.00293934)
(0.536372 0.01 0.00314872)
(0.554544 0.01 0.0035174)
(0.572734 0.01 0.00400224)
(0.590909 0.01 0.00452959)
(0.609092 0.01 0.00507441)
(0.627273 0.01 0.00556529)
(0.645456 0.01 0.00599197)
(0.663637 0.01 0.00636073)
(0.681818 0.01 0.0067115)
(0.699999 0.01 0.00705731)
(0.718183 0.01 0.00738026)
(0.736363 0.01 0.00768873)
(0.754547 0.01 0.00798562)
(0.772726 0.01 0.00828171)
(0.79091 0.01 0.00859049)
(0.80909 0.01 0.0089077)
(0.827274 0.01 0.00922072)
(0.845454 0.01 0.00951997)
(0.863637 0.01 0.00980708)
(0.881817 0.01 0.0100819)
(0.900001 0.01 0.0103481)
(0.918182 0.01 0.0106045)
(0.936364 0.01 0.0108531)
(0.954545 0.01 0.0110926)
(0.972727 0.01 0.0113251)
(0.990909 0.01 0.0115502)
(1.00909 0.01 0.0117694)
(1.02727 0.01 0.0119823)
(1.04546 0.01 0.0121904)
(1.06364 0.01 0.012393)
(1.08182 0.01 0.0125901)
(1.1 0.01 0.0127806)
(1.11818 0.01 0.0129649)
(1.13636 0.01 0.0131421)
(1.15455 0.01 0.0133116)
(1.17273 0.01 0.0134725)
(1.19091 0.01 0.0136245)
(1.20909 0.01 0.0137674)
(1.22727 0.01 0.0139012)
(1.24545 0.01 0.0140263)
(1.26364 0.01 0.0141429)
(1.28182 0.01 0.0142518)
(1.3 0.01 0.0143533)
(1.31818 0.01 0.0144482)
(1.33636 0.01 0.0145367)
(1.35454 0.01 0.0146199)
(1.37273 0.01 0.0146973)
(1.39091 0.01 0.0147701)
(1.40909 0.01 0.014838)
(1.42727 0.01 0.0149023)
(1.44546 0.01 0.0149625)
(1.46364 0.01 0.01502)
(1.48182 0.01 0.0150738)
(1.5 0.01 0.0151258)
(1.51818 0.01 0.0151749)
(1.53636 0.01 0.0152226)
(1.55455 0.01 0.0152676)
(1.57273 0.01 0.0153116)
(1.59091 0.01 0.0153529)
(1.60909 0.01 0.0153935)
(1.62727 0.01 0.015432)
(1.64545 0.01 0.0154704)
(1.66364 0.01 0.0155068)
(1.68182 0.01 0.0155433)
(1.7 0.01 0.0155778)
(1.71818 0.01 0.015613)
(1.73636 0.01 0.0156461)
(1.75454 0.01 0.0156806)
(1.77273 0.01 0.0157131)
(1.79091 0.01 0.015748)
(1.80909 0.01 0.0157801)
(1.82727 0.01 0.0158162)
(1.84546 0.01 0.0158489)
(1.86364 0.01 0.015886)
(1.88182 0.01 0.0159192)
(1.9 0.01 0.0159567)
(1.91819 0.01 0.0159901)
(1.93635 0.01 0.0160268)
(1.95455 0.01 0.0160596)
(1.97272 0.01 0.0160943)
(1.99092 0.01 0.0161256)
(2.00908 0.01 0.0161577)
(2.02728 0.01 0.0161872)
(2.04545 0.01 0.0162168)
(2.06365 0.01 0.0162441)
(2.08181 0.01 0.0162705)
(2.10001 0.01 0.0162953)
(2.11817 0.01 0.0163185)
(2.13637 0.01 0.0163406)
(2.15454 0.01 0.0163608)
(2.17274 0.01 0.0163804)
(2.1909 0.01 0.0163971)
(2.2091 0.01 0.0164138)
(2.22726 0.01 0.0164273)
(2.24546 0.01 0.0164415)
(2.26363 0.01 0.0164523)
(2.28183 0.01 0.0164647)
(2.29999 0.01 0.0164735)
(2.31818 0.01 0.0164841)
(2.33636 0.01 0.0164914)
(2.35455 0.01 0.0165004)
(2.37273 0.01 0.0165061)
(2.39091 0.01 0.0165139)
(2.40909 0.01 0.0165186)
(2.42727 0.01 0.0165257)
(2.44545 0.01 0.0165303)
(2.46364 0.01 0.0165371)
(2.48182 0.01 0.0165415)
(2.5 0.01 0.0165482)
(2.51818 0.01 0.0165529)
(2.53636 0.01 0.0165596)
(2.55454 0.01 0.0165647)
(2.57273 0.01 0.016572)
(2.59091 0.01 0.0165783)
(2.60909 0.01 0.0165866)
(2.62727 0.01 0.016594)
(2.64546 0.01 0.0166036)
(2.66364 0.01 0.0166132)
(2.68182 0.01 0.0166257)
(2.7 0.01 0.0166373)
(2.71818 0.01 0.0166529)
(2.73636 0.01 0.0166659)
(2.75454 0.01 0.0166855)
(2.77273 0.01 0.0166995)
(2.79091 0.01 0.0167234)
(2.80909 0.01 0.0167391)
(2.82727 0.01 0.0167634)
(2.84546 0.01 0.0167787)
(2.86363 0.01 0.0167992)
(2.88183 0.01 0.0168111)
(2.89999 0.01 0.0168259)
(2.91819 0.01 0.016833)
(2.93635 0.01 0.0168389)
(2.95455 0.01 0.0168386)
(2.97272 0.01 0.016834)
(2.99092 0.01 0.016827)
(3.00908 0.01 0.0168128)
(3.02728 0.01 0.016799)
(3.04545 0.01 0.0167765)
(3.06364 0.01 0.0167576)
(3.08182 0.01 0.0167282)
(3.1 0.01 0.0167063)
(3.11818 0.01 0.0166754)
(3.13636 0.01 0.016654)
(3.15454 0.01 0.016626)
(3.17273 0.01 0.0166032)
(3.19091 0.01 0.0165752)
(3.20909 0.01 0.0165511)
(3.22727 0.01 0.0165234)
(3.24545 0.01 0.0164992)
(3.26364 0.01 0.0164729)
(3.28182 0.01 0.0164486)
(3.3 0.01 0.0164227)
(3.31818 0.01 0.0163983)
(3.33636 0.01 0.0163732)
(3.35454 0.01 0.0163498)
(3.37273 0.01 0.0163261)
(3.39091 0.01 0.0163041)
(3.40909 0.01 0.0162819)
(3.42727 0.01 0.016262)
(3.44546 0.01 0.0162413)
(3.46364 0.01 0.0162231)
(3.48182 0.01 0.0162038)
(3.5 0.01 0.0161876)
(3.51818 0.01 0.0161697)
(3.53636 0.01 0.0161545)
(3.55455 0.01 0.016137)
(3.57273 0.01 0.0161231)
(3.59091 0.01 0.0161057)
(3.60909 0.01 0.0160913)
(3.62728 0.01 0.016074)
(3.64545 0.01 0.0160588)
(3.66365 0.01 0.0160403)
(3.68181 0.01 0.016023)
(3.70001 0.01 0.0160035)
(3.71817 0.01 0.0159837)
(3.73637 0.01 0.0159623)
(3.75454 0.01 0.0159401)
(3.77274 0.01 0.0159171)
(3.7909 0.01 0.015892)
(3.8091 0.01 0.0158672)
(3.82726 0.01 0.0158391)
(3.84546 0.01 0.0158126)
(3.86364 0.01 0.0157817)
(3.88182 0.01 0.0157539)
(3.9 0.01 0.0157217)
(3.91818 0.01 0.0156942)
(3.93636 0.01 0.0156618)
(3.95455 0.01 0.015635)
(3.97273 0.01 0.0156047)
(3.99091 0.01 0.0155785)
(4.00909 0.01 0.01555)
(4.02727 0.01 0.015525)
(4.04545 0.01 0.0154983)
(4.06364 0.01 0.0154736)
(4.08182 0.01 0.015448)
(4.1 0.01 0.0154241)
(4.11818 0.01 0.015399)
(4.13636 0.01 0.0153753)
(4.15454 0.01 0.0153509)
(4.17273 0.01 0.0153269)
(4.19091 0.01 0.0153026)
(4.20909 0.01 0.0152787)
(4.22727 0.01 0.0152542)
(4.24546 0.01 0.0152298)
(4.26364 0.01 0.0152049)
(4.28182 0.01 0.0151801)
(4.3 0.01 0.0151545)
(4.31818 0.01 0.0151287)
(4.33636 0.01 0.0151029)
(4.35455 0.01 0.0150766)
(4.37273 0.01 0.01505)
(4.39091 0.01 0.0150237)
(4.40909 0.01 0.0149969)
(4.42727 0.01 0.0149695)
(4.44545 0.01 0.0149418)
(4.46364 0.01 0.0149143)
(4.48182 0.01 0.0148864)
(4.5 0.01 0.0148581)
(4.51818 0.01 0.0148294)
(4.53636 0.01 0.0148003)
(4.55455 0.01 0.0147708)
(4.57273 0.01 0.0147409)
(4.59091 0.01 0.0147107)
(4.60909 0.01 0.0146802)
(4.62727 0.01 0.0146497)
(4.64546 0.01 0.0146186)
(4.66364 0.01 0.0145866)
(4.68182 0.01 0.0145543)
(4.7 0.01 0.0145217)
(4.71818 0.01 0.014489)
(4.73636 0.01 0.0144559)
(4.75455 0.01 0.0144219)
(4.77273 0.01 0.0143877)
(4.79091 0.01 0.014353)
(4.80909 0.01 0.0143173)
(4.82727 0.01 0.0142815)
(4.84546 0.01 0.0142452)
(4.86364 0.01 0.0142082)
(4.88182 0.01 0.0141706)
(4.9 0.01 0.0141324)
(4.91818 0.01 0.0140938)
(4.93636 0.01 0.0140541)
(4.95454 0.01 0.0140138)
(4.97273 0.01 0.0139732)
(4.99091 0.01 0.0139317)
(5.00909 0.01 0.0138892)
(5.02727 0.01 0.0138461)
(5.04545 0.01 0.0138028)
(5.06364 0.01 0.013759)
(5.08182 0.01 0.0137144)
(5.1 0.01 0.0136693)
(5.11818 0.01 0.0136234)
(5.13636 0.01 0.0135771)
(5.15454 0.01 0.0135311)
(5.17273 0.01 0.0134848)
(5.19091 0.01 0.0134379)
(5.20909 0.01 0.0133909)
(5.22727 0.01 0.0133444)
(5.24546 0.01 0.0132975)
(5.26364 0.01 0.0132505)
(5.28182 0.01 0.013204)
(5.3 0.01 0.0131575)
(5.31818 0.01 0.0131112)
(5.33636 0.01 0.0130651)
(5.35454 0.01 0.0130192)
(5.37273 0.01 0.0129731)
(5.39091 0.01 0.0129274)
(5.40909 0.01 0.0128823)
(5.42727 0.01 0.0128374)
(5.44546 0.01 0.0127923)
(5.46364 0.01 0.0127476)
(5.48182 0.01 0.0127033)
(5.5 0.01 0.0126594)
(5.51818 0.01 0.0126164)
(5.53636 0.01 0.0125737)
(5.55455 0.01 0.0125309)
(5.57273 0.01 0.0124886)
(5.59091 0.01 0.012447)
(5.60909 0.01 0.012406)
(5.62727 0.01 0.0123657)
(5.64545 0.01 0.0123261)
(5.66364 0.01 0.0122873)
(5.68182 0.01 0.0122493)
(5.7 0.01 0.0122119)
(5.71818 0.01 0.0121757)
(5.73636 0.01 0.0121411)
(5.75454 0.01 0.0121075)
(5.77273 0.01 0.012075)
(5.79091 0.01 0.0120436)
(5.80909 0.01 0.0120131)
(5.82727 0.01 0.0119839)
(5.84545 0.01 0.0119563)
(5.86364 0.01 0.0119298)
(5.88182 0.01 0.0119045)
(5.9 0.01 0.0118811)
(5.91818 0.01 0.0118586)
(5.93636 0.01 0.0118375)
(5.95454 0.01 0.0118181)
(5.97273 0.01 0.0117996)
(5.99091 0.01 0.0117825)
(6.00909 0.01 0.011767)
(6.02727 0.01 0.0117523)
(6.04545 0.01 0.0117388)
(6.06364 0.01 0.0117264)
(6.08182 0.01 0.0117151)
(6.1 0.01 0.011705)
(6.11818 0.01 0.0116959)
(6.13636 0.01 0.0116877)
(6.15455 0.01 0.0116805)
(6.17273 0.01 0.0116741)
(6.19091 0.01 0.0116683)
(6.20909 0.01 0.0116636)
(6.22727 0.01 0.0116597)
(6.24545 0.01 0.0116563)
(6.26364 0.01 0.0116536)
(6.28182 0.01 0.0116511)
(6.3 0.01 0.0116496)
(6.31818 0.01 0.0116486)
(6.33636 0.01 0.0116479)
(6.35454 0.01 0.0116482)
(6.37273 0.01 0.0116489)
(6.39091 0.01 0.0116499)
(6.40909 0.01 0.0116517)
(6.42727 0.01 0.0116538)
(6.44545 0.01 0.0116559)
(6.46364 0.01 0.0116581)
(6.48182 0.01 0.0116604)
(6.5 0.01 0.0116627)
(6.51818 0.01 0.0116651)
(6.53636 0.01 0.0116674)
(6.55454 0.01 0.0116696)
(6.57273 0.01 0.0116718)
(6.59091 0.01 0.0116741)
(6.60909 0.01 0.0116763)
(6.62727 0.01 0.0116787)
(6.64545 0.01 0.0116812)
(6.66364 0.01 0.0116831)
(6.68182 0.01 0.0116852)
(6.7 0.01 0.0116874)
(6.71818 0.01 0.0116896)
(6.73636 0.01 0.0116919)
(6.75454 0.01 0.0116942)
(6.77273 0.01 0.0116966)
(6.79091 0.01 0.0116989)
(6.80909 0.01 0.0117013)
(6.82727 0.01 0.0117036)
(6.84546 0.01 0.0117058)
(6.86364 0.01 0.011708)
(6.88182 0.01 0.01171)
(6.9 0.01 0.0117119)
(6.91818 0.01 0.0117136)
(6.93636 0.01 0.0117151)
(6.95455 0.01 0.0117165)
(6.97273 0.01 0.0117177)
(6.99091 0.01 0.0117188)
(7.00909 0.01 0.011719)
(7.02727 0.01 0.011719)
(7.04546 0.01 0.0117189)
(7.06364 0.01 0.0117186)
(7.08182 0.01 0.0117185)
(7.1 0.01 0.0117179)
(7.11818 0.01 0.0117167)
(7.13636 0.01 0.0117146)
(7.15454 0.01 0.0117121)
(7.17273 0.01 0.0117096)
(7.19091 0.01 0.0117065)
(7.20909 0.01 0.0117029)
(7.22727 0.01 0.0116987)
(7.24545 0.01 0.0116939)
(7.26364 0.01 0.0116886)
(7.28182 0.01 0.0116827)
(7.3 0.01 0.0116764)
(7.31818 0.01 0.0116697)
(7.33636 0.01 0.0116628)
(7.35454 0.01 0.0116556)
(7.37273 0.01 0.0116485)
(7.39091 0.01 0.011641)
(7.40909 0.01 0.0116326)
(7.42727 0.01 0.0116241)
(7.44546 0.01 0.0116154)
(7.46364 0.01 0.0116065)
(7.48182 0.01 0.0115973)
(7.5 0.01 0.0115884)
(7.51818 0.01 0.0115803)
(7.53636 0.01 0.0115723)
(7.55455 0.01 0.0115644)
(7.57273 0.01 0.0115567)
(7.59091 0.01 0.0115492)
(7.60909 0.01 0.0115418)
(7.62727 0.01 0.0115343)
(7.64545 0.01 0.0115271)
(7.66364 0.01 0.0115209)
(7.68182 0.01 0.0115149)
(7.7 0.01 0.011509)
(7.71818 0.01 0.0115033)
(7.73636 0.01 0.0114976)
(7.75454 0.01 0.0114924)
(7.77273 0.01 0.011488)
(7.79091 0.01 0.0114841)
(7.80909 0.01 0.0114805)
(7.82727 0.01 0.0114773)
(7.84546 0.01 0.0114745)
(7.86364 0.01 0.0114722)
(7.88182 0.01 0.0114701)
(7.9 0.01 0.0114688)
(7.91818 0.01 0.0114688)
(7.93636 0.01 0.0114699)
(7.95454 0.01 0.0114717)
(7.97273 0.01 0.0114739)
(7.99091 0.01 0.0114774)
(8.00909 0.01 0.011482)
(8.02727 0.01 0.0114869)
(8.04545 0.01 0.0114927)
(8.06364 0.01 0.0114995)
(8.08182 0.01 0.0115063)
(8.1 0.01 0.011514)
(8.11818 0.01 0.0115223)
(8.13636 0.01 0.0115306)
(8.15454 0.01 0.0115396)
(8.17273 0.01 0.0115489)
(8.19091 0.01 0.0115589)
(8.20909 0.01 0.0115693)
(8.22727 0.01 0.0115794)
(8.24545 0.01 0.0115897)
(8.26364 0.01 0.0116003)
(8.28182 0.01 0.011611)
(8.3 0.01 0.0116217)
(8.31818 0.01 0.0116325)
(8.33636 0.01 0.0116432)
(8.35455 0.01 0.0116539)
(8.37273 0.01 0.0116646)
(8.39091 0.01 0.0116752)
(8.40909 0.01 0.0116857)
(8.42727 0.01 0.0116962)
(8.44546 0.01 0.0117066)
(8.46364 0.01 0.0117169)
(8.48182 0.01 0.0117271)
(8.5 0.01 0.0117372)
(8.51818 0.01 0.0117479)
(8.53636 0.01 0.0117585)
(8.55454 0.01 0.011769)
(8.57273 0.01 0.0117793)
(8.59091 0.01 0.0117895)
(8.60909 0.01 0.0118002)
(8.62727 0.01 0.0118107)
(8.64545 0.01 0.011821)
(8.66364 0.01 0.0118309)
(8.68182 0.01 0.0118405)
(8.7 0.01 0.0118504)
(8.71818 0.01 0.01186)
(8.73636 0.01 0.0118692)
(8.75455 0.01 0.0118778)
(8.77273 0.01 0.011886)
(8.79091 0.01 0.0118945)
(8.80909 0.01 0.0119026)
(8.82727 0.01 0.0119095)
(8.84545 0.01 0.0119161)
(8.86364 0.01 0.0119221)
(8.88182 0.01 0.0119279)
(8.9 0.01 0.0119332)
(8.91818 0.01 0.0119373)
(8.93636 0.01 0.0119413)
(8.95455 0.01 0.011945)
(8.97273 0.01 0.0119477)
(8.99091 0.01 0.0119503)
(9.00909 0.01 0.0119529)
(9.02727 0.01 0.0119547)
(9.04545 0.01 0.0119567)
(9.06364 0.01 0.0119588)
(9.08182 0.01 0.0119603)
(9.1 0.01 0.0119621)
(9.11818 0.01 0.0119644)
(9.13636 0.01 0.0119663)
(9.15454 0.01 0.0119688)
(9.17273 0.01 0.0119719)
(9.19091 0.01 0.011975)
(9.20909 0.01 0.0119792)
(9.22727 0.01 0.0119846)
(9.24546 0.01 0.0119905)
(9.26364 0.01 0.0119981)
(9.28182 0.01 0.0120077)
(9.3 0.01 0.0120186)
(9.31818 0.01 0.0120323)
(9.33636 0.01 0.012049)
(9.35454 0.01 0.0120685)
(9.37273 0.01 0.0120921)
(9.39091 0.01 0.0121198)
(9.40909 0.01 0.0121532)
(9.42727 0.01 0.0121908)
(9.44545 0.01 0.0122372)
(9.46364 0.01 0.0122854)
(9.48182 0.01 0.0123523)
(9.50001 0.01 0.0124117)
(9.51817 0.01 0.0125099)
(9.53637 0.01 0.0125807)
(9.55453 0.01 0.0127171)
(9.57276 0.01 0.0127917)
(9.59088 0.01 0.0129358)
(9.60913 0.01 0.0129747)
(9.62722 0.01 0.0130603)
(9.64551 0.01 0.0129874)
(9.66357 0.01 0.0128915)
(9.68189 0.01 0.0125823)
(9.69993 0.01 0.0121171)
(9.71825 0.01 0.0113879)
(9.73629 0.01 0.0102782)
(9.7546 0.01 0.00857574)
(9.77269 0.01 0.00576033)
(9.79105 0.01 0.000754394)
(9.80941 0.01 -0.00972397)
(9.82682 0.01 -0.0167086)
(9.84546 0.01 -0.017193)
(9.86364 0.01 -0.017225)
(9.88182 0.01 -0.0172629)
(9.9 0.01 -0.0172996)
(9.91818 0.01 -0.0173362)
(9.93636 0.01 -0.0173726)
(9.95454 0.01 -0.017409)
(9.97273 0.01 -0.0174454)
(9.99091 0.01 -0.0174818)
(0.0090909 0.01 0.00748182)
(0.0272727 0.01 0.00744545)
(0.0454545 0.01 0.00740908)
(0.0636364 0.01 0.00737272)
(0.0818182 0.01 0.00733639)
(0.1 0.01 0.00730009)
(0.118181 0.01 0.00726304)
(0.136363 0.01 0.00722447)
(0.154544 0.01 0.00718542)
(0.172725 0.01 0.0071352)
(0.190914 0.01 0.00703757)
(0.209066 0.01 0.00698552)
(0.227278 0.01 0.00686842)
(0.245418 0.01 0.0067428)
(0.263635 0.01 0.00663816)
(0.28178 0.01 0.00655277)
(0.300011 0.01 0.00650892)
(0.318173 0.01 0.00649538)
(0.336404 0.01 0.00649738)
(0.354533 0.01 0.00663455)
(0.372755 0.01 0.00680543)
(0.390896 0.01 0.00688311)
(0.409113 0.01 0.00692099)
(0.427263 0.01 0.00695689)
(0.445481 0.01 0.00705778)
(0.463616 0.01 0.00727408)
(0.48183 0.01 0.00754742)
(0.500002 0.01 0.00769721)
(0.518189 0.01 0.00788141)
(0.536373 0.01 0.00811489)
(0.554544 0.01 0.00849487)
(0.572733 0.01 0.0089873)
(0.590907 0.01 0.0095235)
(0.609092 0.01 0.0100685)
(0.627272 0.01 0.0105604)
(0.645456 0.01 0.0109881)
(0.663637 0.01 0.0113599)
(0.681818 0.01 0.0117117)
(0.699999 0.01 0.012056)
(0.718183 0.01 0.0123795)
(0.736363 0.01 0.0126882)
(0.754547 0.01 0.012986)
(0.772726 0.01 0.0132832)
(0.79091 0.01 0.0135917)
(0.80909 0.01 0.0139079)
(0.827274 0.01 0.0142201)
(0.845454 0.01 0.0145193)
(0.863637 0.01 0.0148064)
(0.881817 0.01 0.0150814)
(0.900001 0.01 0.0153475)
(0.918182 0.01 0.015604)
(0.936364 0.01 0.0158525)
(0.954545 0.01 0.0160921)
(0.972727 0.01 0.0163245)
(0.990909 0.01 0.0165498)
(1.00909 0.01 0.016769)
(1.02727 0.01 0.0169819)
(1.04546 0.01 0.01719)
(1.06364 0.01 0.0173926)
(1.08182 0.01 0.0175895)
(1.1 0.01 0.01778)
(1.11818 0.01 0.0179642)
(1.13636 0.01 0.0181413)
(1.15454 0.01 0.0183107)
(1.17273 0.01 0.0184716)
(1.19091 0.01 0.0186236)
(1.20909 0.01 0.0187664)
(1.22727 0.01 0.0189003)
(1.24546 0.01 0.0190253)
(1.26364 0.01 0.019142)
(1.28182 0.01 0.0192509)
(1.3 0.01 0.0193524)
(1.31818 0.01 0.0194474)
(1.33636 0.01 0.019536)
(1.35454 0.01 0.0196191)
(1.37273 0.01 0.0196966)
(1.39091 0.01 0.0197694)
(1.40909 0.01 0.0198374)
(1.42727 0.01 0.0199016)
(1.44546 0.01 0.019962)
(1.46364 0.01 0.0200194)
(1.48182 0.01 0.0200734)
(1.5 0.01 0.0201252)
(1.51818 0.01 0.0201745)
(1.53636 0.01 0.0202221)
(1.55455 0.01 0.0202672)
(1.57273 0.01 0.0203111)
(1.59091 0.01 0.0203525)
(1.60909 0.01 0.020393)
(1.62727 0.01 0.0204317)
(1.64545 0.01 0.0204699)
(1.66364 0.01 0.0205065)
(1.68182 0.01 0.0205428)
(1.7 0.01 0.0205775)
(1.71818 0.01 0.0206125)
(1.73636 0.01 0.0206459)
(1.75454 0.01 0.0206802)
(1.77273 0.01 0.020713)
(1.79091 0.01 0.0207475)
(1.80909 0.01 0.0207801)
(1.82727 0.01 0.0208156)
(1.84546 0.01 0.0208489)
(1.86364 0.01 0.0208854)
(1.88182 0.01 0.0209193)
(1.9 0.01 0.0209561)
(1.91818 0.01 0.02099)
(1.93635 0.01 0.0210262)
(1.95455 0.01 0.0210594)
(1.97272 0.01 0.0210937)
(1.99092 0.01 0.0211253)
(2.00908 0.01 0.0211572)
(2.02728 0.01 0.0211869)
(2.04545 0.01 0.0212163)
(2.06365 0.01 0.0212437)
(2.08181 0.01 0.0212701)
(2.10001 0.01 0.0212948)
(2.11817 0.01 0.0213181)
(2.13637 0.01 0.0213401)
(2.15454 0.01 0.0213605)
(2.17274 0.01 0.0213799)
(2.1909 0.01 0.0213967)
(2.2091 0.01 0.0214133)
(2.22726 0.01 0.021427)
(2.24546 0.01 0.0214409)
(2.26363 0.01 0.0214521)
(2.28183 0.01 0.0214641)
(2.3 0.01 0.0214733)
(2.31818 0.01 0.0214835)
(2.33636 0.01 0.0214911)
(2.35455 0.01 0.0214998)
(2.37273 0.01 0.0215059)
(2.39091 0.01 0.0215133)
(2.40909 0.01 0.0215184)
(2.42727 0.01 0.0215251)
(2.44545 0.01 0.0215301)
(2.46364 0.01 0.0215366)
(2.48182 0.01 0.0215413)
(2.5 0.01 0.0215477)
(2.51818 0.01 0.0215527)
(2.53636 0.01 0.0215591)
(2.55454 0.01 0.0215645)
(2.57273 0.01 0.0215715)
(2.59091 0.01 0.0215781)
(2.60909 0.01 0.0215861)
(2.62727 0.01 0.0215938)
(2.64546 0.01 0.0216033)
(2.66364 0.01 0.0216131)
(2.68182 0.01 0.0216253)
(2.7 0.01 0.0216373)
(2.71818 0.01 0.0216524)
(2.73636 0.01 0.0216661)
(2.75454 0.01 0.0216847)
(2.77273 0.01 0.0216999)
(2.79091 0.01 0.0217224)
(2.80909 0.01 0.0217394)
(2.82727 0.01 0.0217624)
(2.84546 0.01 0.0217787)
(2.86363 0.01 0.0217982)
(2.88183 0.01 0.0218109)
(2.89999 0.01 0.0218249)
(2.91819 0.01 0.0218325)
(2.93635 0.01 0.021838)
(2.95455 0.01 0.0218378)
(2.97272 0.01 0.0218334)
(2.99092 0.01 0.021826)
(3.00908 0.01 0.0218124)
(3.02728 0.01 0.0217979)
(3.04545 0.01 0.0217763)
(3.06364 0.01 0.0217563)
(3.08182 0.01 0.0217284)
(3.1 0.01 0.0217052)
(3.11818 0.01 0.0216757)
(3.13636 0.01 0.0216531)
(3.15454 0.01 0.021626)
(3.17273 0.01 0.0216024)
(3.19091 0.01 0.0215751)
(3.20909 0.01 0.0215504)
(3.22727 0.01 0.0215233)
(3.24545 0.01 0.0214987)
(3.26364 0.01 0.0214727)
(3.28182 0.01 0.0214481)
(3.3 0.01 0.0214225)
(3.31818 0.01 0.0213978)
(3.33636 0.01 0.021373)
(3.35454 0.01 0.0213494)
(3.37273 0.01 0.0213258)
(3.39091 0.01 0.0213037)
(3.40909 0.01 0.0212817)
(3.42727 0.01 0.0212616)
(3.44546 0.01 0.0212411)
(3.46364 0.01 0.0212226)
(3.48182 0.01 0.0212037)
(3.5 0.01 0.0211871)
(3.51818 0.01 0.0211695)
(3.53636 0.01 0.021154)
(3.55455 0.01 0.0211369)
(3.57273 0.01 0.0211224)
(3.59091 0.01 0.0211056)
(3.60909 0.01 0.0210907)
(3.62727 0.01 0.0210738)
(3.64545 0.01 0.0210582)
(3.66365 0.01 0.02104)
(3.68181 0.01 0.0210225)
(3.70001 0.01 0.0210031)
(3.71817 0.01 0.0209832)
(3.73637 0.01 0.0209618)
(3.75454 0.01 0.0209397)
(3.77274 0.01 0.0209165)
(3.7909 0.01 0.0208916)
(3.8091 0.01 0.0208666)
(3.82726 0.01 0.0208389)
(3.84546 0.01 0.0208119)
(3.86364 0.01 0.0207816)
(3.88182 0.01 0.0207532)
(3.9 0.01 0.0207217)
(3.91818 0.01 0.0206934)
(3.93636 0.01 0.0206619)
(3.95455 0.01 0.0206343)
(3.97273 0.01 0.0206047)
(3.99091 0.01 0.0205779)
(4.00909 0.01 0.0205499)
(4.02727 0.01 0.0205245)
(4.04545 0.01 0.0204981)
(4.06364 0.01 0.0204731)
(4.08182 0.01 0.0204478)
(4.1 0.01 0.0204236)
(4.11818 0.01 0.0203987)
(4.13636 0.01 0.0203748)
(4.15454 0.01 0.0203505)
(4.17273 0.01 0.0203265)
(4.19091 0.01 0.0203022)
(4.20909 0.01 0.0202783)
(4.22727 0.01 0.0202538)
(4.24546 0.01 0.0202294)
(4.26364 0.01 0.0202045)
(4.28182 0.01 0.0201797)
(4.3 0.01 0.0201541)
(4.31818 0.01 0.0201283)
(4.33636 0.01 0.0201025)
(4.35455 0.01 0.0200762)
(4.37273 0.01 0.0200496)
(4.39091 0.01 0.0200233)
(4.40909 0.01 0.0199965)
(4.42727 0.01 0.0199691)
(4.44545 0.01 0.0199414)
(4.46364 0.01 0.0199138)
(4.48182 0.01 0.0198859)
(4.5 0.01 0.0198576)
(4.51818 0.01 0.0198289)
(4.53636 0.01 0.0197998)
(4.55455 0.01 0.0197703)
(4.57273 0.01 0.0197405)
(4.59091 0.01 0.0197103)
(4.60909 0.01 0.0196798)
(4.62727 0.01 0.0196492)
(4.64546 0.01 0.0196181)
(4.66364 0.01 0.0195862)
(4.68182 0.01 0.0195539)
(4.7 0.01 0.0195213)
(4.71818 0.01 0.0194886)
(4.73636 0.01 0.0194554)
(4.75455 0.01 0.0194215)
(4.77273 0.01 0.0193873)
(4.79091 0.01 0.0193525)
(4.80909 0.01 0.0193169)
(4.82727 0.01 0.0192811)
(4.84546 0.01 0.0192448)
(4.86364 0.01 0.0192077)
(4.88182 0.01 0.0191702)
(4.9 0.01 0.0191319)
(4.91818 0.01 0.0190933)
(4.93636 0.01 0.0190537)
(4.95454 0.01 0.0190133)
(4.97273 0.01 0.0189727)
(4.99091 0.01 0.0189312)
(5.00909 0.01 0.0188887)
(5.02727 0.01 0.0188457)
(5.04545 0.01 0.0188024)
(5.06364 0.01 0.0187585)
(5.08182 0.01 0.018714)
(5.1 0.01 0.0186688)
(5.11818 0.01 0.0186229)
(5.13636 0.01 0.0185768)
(5.15454 0.01 0.0185307)
(5.17273 0.01 0.0184843)
(5.19091 0.01 0.0184375)
(5.20909 0.01 0.0183906)
(5.22727 0.01 0.018344)
(5.24546 0.01 0.0182971)
(5.26364 0.01 0.0182502)
(5.28182 0.01 0.0182036)
(5.3 0.01 0.0181571)
(5.31818 0.01 0.0181109)
(5.33636 0.01 0.0180647)
(5.35454 0.01 0.0180188)
(5.37273 0.01 0.0179727)
(5.39091 0.01 0.0179271)
(5.40909 0.01 0.0178819)
(5.42727 0.01 0.017837)
(5.44546 0.01 0.017792)
(5.46364 0.01 0.0177472)
(5.48182 0.01 0.0177029)
(5.5 0.01 0.0176591)
(5.51818 0.01 0.017616)
(5.53636 0.01 0.0175733)
(5.55455 0.01 0.0175305)
(5.57273 0.01 0.0174883)
(5.59091 0.01 0.0174467)
(5.60909 0.01 0.0174057)
(5.62727 0.01 0.0173653)
(5.64545 0.01 0.0173258)
(5.66364 0.01 0.017287)
(5.68182 0.01 0.017249)
(5.7 0.01 0.0172117)
(5.71818 0.01 0.0171755)
(5.73636 0.01 0.0171408)
(5.75454 0.01 0.0171072)
(5.77273 0.01 0.0170747)
(5.79091 0.01 0.0170433)
(5.80909 0.01 0.0170128)
(5.82727 0.01 0.0169836)
(5.84545 0.01 0.016956)
(5.86364 0.01 0.0169295)
(5.88182 0.01 0.0169043)
(5.9 0.01 0.0168808)
(5.91818 0.01 0.0168584)
(5.93636 0.01 0.0168372)
(5.95454 0.01 0.0168178)
(5.97273 0.01 0.0167994)
(5.99091 0.01 0.0167823)
(6.00909 0.01 0.0167667)
(6.02727 0.01 0.016752)
(6.04545 0.01 0.0167385)
(6.06364 0.01 0.0167261)
(6.08182 0.01 0.0167148)
(6.1 0.01 0.0167047)
(6.11818 0.01 0.0166955)
(6.13636 0.01 0.0166874)
(6.15454 0.01 0.0166801)
(6.17273 0.01 0.0166738)
(6.19091 0.01 0.016668)
(6.20909 0.01 0.0166632)
(6.22727 0.01 0.0166593)
(6.24545 0.01 0.016656)
(6.26364 0.01 0.0166532)
(6.28182 0.01 0.0166508)
(6.3 0.01 0.0166492)
(6.31818 0.01 0.0166482)
(6.33636 0.01 0.0166476)
(6.35454 0.01 0.0166478)
(6.37273 0.01 0.0166485)
(6.39091 0.01 0.0166496)
(6.40909 0.01 0.0166513)
(6.42727 0.01 0.0166534)
(6.44545 0.01 0.0166555)
(6.46364 0.01 0.0166577)
(6.48182 0.01 0.01666)
(6.5 0.01 0.0166623)
(6.51818 0.01 0.0166646)
(6.53636 0.01 0.0166669)
(6.55454 0.01 0.0166692)
(6.57273 0.01 0.0166714)
(6.59091 0.01 0.0166737)
(6.60909 0.01 0.0166759)
(6.62727 0.01 0.0166783)
(6.64546 0.01 0.0166807)
(6.66364 0.01 0.0166827)
(6.68182 0.01 0.0166848)
(6.7 0.01 0.016687)
(6.71818 0.01 0.0166892)
(6.73636 0.01 0.0166915)
(6.75454 0.01 0.0166938)
(6.77273 0.01 0.0166961)
(6.79091 0.01 0.0166985)
(6.80909 0.01 0.0167008)
(6.82727 0.01 0.0167031)
(6.84546 0.01 0.0167054)
(6.86364 0.01 0.0167075)
(6.88182 0.01 0.0167095)
(6.9 0.01 0.0167114)
(6.91818 0.01 0.0167131)
(6.93636 0.01 0.0167147)
(6.95455 0.01 0.016716)
(6.97273 0.01 0.0167172)
(6.99091 0.01 0.0167182)
(7.00909 0.01 0.0167185)
(7.02727 0.01 0.0167186)
(7.04546 0.01 0.0167184)
(7.06364 0.01 0.0167182)
(7.08182 0.01 0.016718)
(7.1 0.01 0.0167174)
(7.11818 0.01 0.0167162)
(7.13636 0.01 0.0167142)
(7.15455 0.01 0.0167116)
(7.17273 0.01 0.0167091)
(7.19091 0.01 0.016706)
(7.20909 0.01 0.0167024)
(7.22727 0.01 0.0166981)
(7.24545 0.01 0.0166934)
(7.26364 0.01 0.0166881)
(7.28182 0.01 0.0166822)
(7.3 0.01 0.0166759)
(7.31818 0.01 0.0166693)
(7.33636 0.01 0.0166623)
(7.35454 0.01 0.0166552)
(7.37273 0.01 0.016648)
(7.39091 0.01 0.0166405)
(7.40909 0.01 0.0166322)
(7.42727 0.01 0.0166236)
(7.44546 0.01 0.0166149)
(7.46364 0.01 0.016606)
(7.48182 0.01 0.0165969)
(7.5 0.01 0.016588)
(7.51818 0.01 0.0165798)
(7.53636 0.01 0.0165718)
(7.55455 0.01 0.016564)
(7.57273 0.01 0.0165563)
(7.59091 0.01 0.0165487)
(7.60909 0.01 0.0165413)
(7.62727 0.01 0.0165338)
(7.64545 0.01 0.0165267)
(7.66364 0.01 0.0165204)
(7.68182 0.01 0.0165144)
(7.7 0.01 0.0165086)
(7.71818 0.01 0.0165029)
(7.73636 0.01 0.0164972)
(7.75454 0.01 0.0164919)
(7.77273 0.01 0.0164876)
(7.79091 0.01 0.0164836)
(7.80909 0.01 0.0164801)
(7.82727 0.01 0.0164769)
(7.84546 0.01 0.0164741)
(7.86364 0.01 0.0164717)
(7.88182 0.01 0.0164697)
(7.9 0.01 0.0164684)
(7.91818 0.01 0.0164685)
(7.93636 0.01 0.0164695)
(7.95454 0.01 0.0164712)
(7.97273 0.01 0.0164735)
(7.99091 0.01 0.016477)
(8.00909 0.01 0.0164816)
(8.02727 0.01 0.0164865)
(8.04545 0.01 0.0164923)
(8.06364 0.01 0.016499)
(8.08182 0.01 0.0165059)
(8.1 0.01 0.0165135)
(8.11818 0.01 0.0165218)
(8.13636 0.01 0.0165302)
(8.15454 0.01 0.0165391)
(8.17273 0.01 0.0165485)
(8.19091 0.01 0.0165585)
(8.20909 0.01 0.0165688)
(8.22727 0.01 0.0165789)
(8.24545 0.01 0.0165893)
(8.26364 0.01 0.0165998)
(8.28182 0.01 0.0166105)
(8.3 0.01 0.0166212)
(8.31818 0.01 0.016632)
(8.33636 0.01 0.0166427)
(8.35454 0.01 0.0166534)
(8.37273 0.01 0.0166641)
(8.39091 0.01 0.0166747)
(8.40909 0.01 0.0166852)
(8.42727 0.01 0.0166957)
(8.44546 0.01 0.016706)
(8.46364 0.01 0.0167164)
(8.48182 0.01 0.0167266)
(8.5 0.01 0.0167367)
(8.51818 0.01 0.0167474)
(8.53636 0.01 0.016758)
(8.55454 0.01 0.0167685)
(8.57273 0.01 0.0167788)
(8.59091 0.01 0.016789)
(8.60909 0.01 0.0167997)
(8.62727 0.01 0.0168101)
(8.64545 0.01 0.0168204)
(8.66364 0.01 0.0168303)
(8.68182 0.01 0.01684)
(8.7 0.01 0.0168499)
(8.71818 0.01 0.0168594)
(8.73636 0.01 0.0168686)
(8.75455 0.01 0.0168773)
(8.77273 0.01 0.0168855)
(8.79091 0.01 0.016894)
(8.80909 0.01 0.016902)
(8.82727 0.01 0.016909)
(8.84545 0.01 0.0169155)
(8.86364 0.01 0.0169215)
(8.88182 0.01 0.0169273)
(8.9 0.01 0.0169325)
(8.91818 0.01 0.0169368)
(8.93636 0.01 0.0169407)
(8.95455 0.01 0.0169444)
(8.97273 0.01 0.0169471)
(8.99091 0.01 0.0169498)
(9.00909 0.01 0.0169523)
(9.02727 0.01 0.0169542)
(9.04545 0.01 0.0169561)
(9.06364 0.01 0.0169582)
(9.08182 0.01 0.0169597)
(9.1 0.01 0.0169616)
(9.11818 0.01 0.0169638)
(9.13636 0.01 0.0169657)
(9.15454 0.01 0.0169683)
(9.17273 0.01 0.0169714)
(9.19091 0.01 0.0169746)
(9.20909 0.01 0.0169787)
(9.22727 0.01 0.0169841)
(9.24546 0.01 0.0169901)
(9.26364 0.01 0.0169977)
(9.28182 0.01 0.0170073)
(9.3 0.01 0.0170183)
(9.31818 0.01 0.017032)
(9.33636 0.01 0.0170487)
(9.35455 0.01 0.0170683)
(9.37273 0.01 0.0170919)
(9.39091 0.01 0.0171198)
(9.40909 0.01 0.0171531)
(9.42727 0.01 0.017191)
(9.44545 0.01 0.0172369)
(9.46364 0.01 0.0172864)
(9.48182 0.01 0.0173513)
(9.5 0.01 0.0174144)
(9.51817 0.01 0.0175073)
(9.53637 0.01 0.0175855)
(9.55453 0.01 0.0177119)
(9.57275 0.01 0.0177969)
(9.59088 0.01 0.0179274)
(9.60913 0.01 0.0179783)
(9.62722 0.01 0.0180482)
(9.64551 0.01 0.0179858)
(9.66358 0.01 0.0178758)
(9.68189 0.01 0.0175706)
(9.69993 0.01 0.0170987)
(9.71824 0.01 0.01636)
(9.73629 0.01 0.015243)
(9.7546 0.01 0.0135176)
(9.77267 0.01 0.0107123)
(9.79102 0.01 0.00585507)
(9.80947 0.01 -0.00373311)
(9.8269 0.01 -0.0107743)
(9.8454 0.01 -0.0121256)
(9.86363 0.01 -0.0122073)
(9.88182 0.01 -0.0122557)
(9.9 0.01 -0.0122961)
(9.91818 0.01 -0.0123342)
(9.93636 0.01 -0.0123715)
(9.95454 0.01 -0.0124084)
(9.97273 0.01 -0.0124451)
(9.99091 0.01 -0.0124817)
(0.00909088 0.01 0.0124818)
(0.0272727 0.01 0.0124454)
(0.0454545 0.01 0.0124091)
(0.0636364 0.01 0.0123727)
(0.0818183 0.01 0.0123364)
(0.1 0.01 0.0123004)
(0.11818 0.01 0.0122615)
(0.13636 0.01 0.0122163)
(0.154545 0.01 0.0121708)
(0.172728 0.01 0.0121179)
(0.190919 0.01 0.0120323)
(0.209089 0.01 0.0119708)
(0.22728 0.01 0.0118414)
(0.245416 0.01 0.0116649)
(0.26362 0.01 0.0114854)
(0.281774 0.01 0.0113224)
(0.299986 0.01 0.0112118)
(0.318169 0.01 0.0111788)
(0.336412 0.01 0.0112332)
(0.35456 0.01 0.0114412)
(0.372765 0.01 0.0116658)
(0.3909 0.01 0.0117784)
(0.409101 0.01 0.0118246)
(0.427257 0.01 0.0118653)
(0.445465 0.01 0.0119756)
(0.46362 0.01 0.0121929)
(0.481833 0.01 0.0124589)
(0.500006 0.01 0.0126371)
(0.518188 0.01 0.0128381)
(0.536369 0.01 0.0130935)
(0.554542 0.01 0.0134804)
(0.572731 0.01 0.0139761)
(0.590908 0.01 0.0145181)
(0.609092 0.01 0.0150622)
(0.627272 0.01 0.0155543)
(0.645455 0.01 0.0159829)
(0.663637 0.01 0.0163578)
(0.681818 0.01 0.0167107)
(0.699999 0.01 0.0170537)
(0.718183 0.01 0.0173778)
(0.736363 0.01 0.017687)
(0.754547 0.01 0.017986)
(0.772726 0.01 0.0182846)
(0.790909 0.01 0.0185927)
(0.80909 0.01 0.0189075)
(0.827273 0.01 0.0192186)
(0.845454 0.01 0.0195177)
(0.863637 0.01 0.0198047)
(0.881818 0.01 0.02008)
(0.9 0.01 0.020346)
(0.918182 0.01 0.0206026)
(0.936364 0.01 0.020851)
(0.954545 0.01 0.0210908)
(0.972727 0.01 0.0213232)
(0.990909 0.01 0.0215485)
(1.00909 0.01 0.0217677)
(1.02727 0.01 0.0219808)
(1.04546 0.01 0.0221887)
(1.06364 0.01 0.0223912)
(1.08182 0.01 0.022588)
(1.1 0.01 0.0227785)
(1.11818 0.01 0.0229626)
(1.13636 0.01 0.0231395)
(1.15454 0.01 0.0233088)
(1.17273 0.01 0.0234696)
(1.19091 0.01 0.0236215)
(1.20909 0.01 0.0237644)
(1.22727 0.01 0.0238982)
(1.24546 0.01 0.0240233)
(1.26364 0.01 0.02414)
(1.28182 0.01 0.0242489)
(1.3 0.01 0.0243506)
(1.31818 0.01 0.0244455)
(1.33636 0.01 0.0245342)