/*--------------------------------*- C++ -*----------------------------------*\
| =========                 |                                                 |
| \\      /  F ield         | foam-extend: Open Source CFD                    |
|  \\    /   O peration     | Version:     3.2                                |
|   \\  /    A nd           | Web:         http://www.foam-extend.org         |
|    \\/     M anipulation  | For copyright notice see file Copyright         |
\*---------------------------------------------------------------------------*/
FoamFile
{
    version     2.0;
    format      ascii;
    class       volScalarField;
    location    "840";
    object      nut;
}
// * * * * * * * * * * * * * * * * * * * * * * * * * * * * * * * * * * * * * //

dimensions      [0 2 -1 0 0 0 0];

internalField   nonuniform List<scalar> 
33000
(
6.20204e-06
7.4671e-06
8.75428e-06
1.00356e-05
1.12801e-05
1.24567e-05
1.35432e-05
1.45176e-05
1.53687e-05
1.60806e-05
1.66218e-05
1.6949e-05
1.71001e-05
1.71101e-05
1.70721e-05
1.70613e-05
1.69897e-05
1.69865e-05
1.69354e-05
1.65058e-05
1.63172e-05
1.56903e-05
1.49313e-05
1.44803e-05
1.37576e-05
1.34881e-05
1.38602e-05
1.31172e-05
1.29256e-05
1.22351e-05
1.24464e-05
1.22716e-05
1.24952e-05
1.26023e-05
1.26327e-05
1.25187e-05
1.24395e-05
1.24158e-05
1.24369e-05
1.23868e-05
1.24057e-05
1.23604e-05
1.23743e-05
1.23444e-05
1.23802e-05
1.24092e-05
1.24299e-05
1.24561e-05
1.24732e-05
1.24914e-05
1.25286e-05
1.25473e-05
1.25885e-05
1.26078e-05
1.26512e-05
1.26737e-05
1.27158e-05
1.27527e-05
1.27997e-05
1.2846e-05
1.2883e-05
1.29387e-05
1.29576e-05
1.30083e-05
1.30176e-05
1.30598e-05
1.30573e-05
1.30933e-05
1.30845e-05
1.31166e-05
1.31046e-05
1.31392e-05
1.31271e-05
1.3163e-05
1.31561e-05
1.31865e-05
1.31867e-05
1.32061e-05
1.32175e-05
1.32237e-05
1.32445e-05
1.32407e-05
1.32677e-05
1.32697e-05
1.32893e-05
1.3296e-05
1.33157e-05
1.33121e-05
1.33417e-05
1.33263e-05
1.33573e-05
1.33393e-05
1.33687e-05
1.33543e-05
1.33864e-05
1.33768e-05
1.34126e-05
1.34073e-05
1.34509e-05
1.34391e-05
1.34918e-05
1.3477e-05
1.35345e-05
1.35209e-05
1.3579e-05
1.35679e-05
1.36256e-05
1.36207e-05
1.36748e-05
1.36759e-05
1.37244e-05
1.37305e-05
1.37747e-05
1.37847e-05
1.38225e-05
1.3837e-05
1.38689e-05
1.3888e-05
1.39153e-05
1.39397e-05
1.39608e-05
1.399e-05
1.4006e-05
1.40385e-05
1.405e-05
1.40851e-05
1.40939e-05
1.41289e-05
1.41362e-05
1.41718e-05
1.4176e-05
1.42111e-05
1.42141e-05
1.42476e-05
1.42515e-05
1.42841e-05
1.42868e-05
1.4319e-05
1.43226e-05
1.43524e-05
1.43565e-05
1.43839e-05
1.43896e-05
1.44157e-05
1.44194e-05
1.4445e-05
1.4446e-05
1.44791e-05
1.44695e-05
1.45168e-05
1.44857e-05
1.4556e-05
1.45022e-05
1.45933e-05
1.45342e-05
1.4625e-05
1.45725e-05
1.46515e-05
1.46089e-05
1.46719e-05
1.46479e-05
1.46861e-05
1.46813e-05
1.46906e-05
1.47099e-05
1.46926e-05
1.47324e-05
1.46917e-05
1.4751e-05
1.46886e-05
1.47583e-05
1.46917e-05
1.47611e-05
1.47173e-05
1.47703e-05
1.47387e-05
1.47811e-05
1.47611e-05
1.48039e-05
1.47852e-05
1.48163e-05
1.48119e-05
1.48364e-05
1.48355e-05
1.48605e-05
1.48598e-05
1.4887e-05
1.48849e-05
1.49177e-05
1.49132e-05
1.49502e-05
1.49431e-05
1.49861e-05
1.49772e-05
1.50248e-05
1.50112e-05
1.50656e-05
1.50513e-05
1.51034e-05
1.5093e-05
1.51426e-05
1.51344e-05
1.51747e-05
1.51752e-05
1.5205e-05
1.52098e-05
1.52299e-05
1.52422e-05
1.52503e-05
1.52716e-05
1.52671e-05
1.52977e-05
1.52814e-05
1.53189e-05
1.52933e-05
1.53385e-05
1.5308e-05
1.53523e-05
1.53307e-05
1.53664e-05
1.53519e-05
1.53828e-05
1.53769e-05
1.54003e-05
1.53987e-05
1.54209e-05
1.54199e-05
1.5439e-05
1.54437e-05
1.54569e-05
1.54625e-05
1.54762e-05
1.54814e-05
1.5493e-05
1.5498e-05
1.55092e-05
1.55097e-05
1.55177e-05
1.55286e-05
1.55327e-05
1.55456e-05
1.55474e-05
1.55597e-05
1.5559e-05
1.55718e-05
1.55736e-05
1.55823e-05
1.5586e-05
1.55917e-05
1.55959e-05
1.55995e-05
1.5604e-05
1.5606e-05
1.5611e-05
1.56146e-05
1.56162e-05
1.56181e-05
1.56209e-05
1.56223e-05
1.56298e-05
1.5626e-05
1.56313e-05
1.56334e-05
1.56343e-05
1.56371e-05
1.56417e-05
1.56413e-05
1.56458e-05
1.56454e-05
1.56503e-05
1.56509e-05
1.56504e-05
1.56542e-05
1.56541e-05
1.56555e-05
1.56533e-05
1.56557e-05
1.56546e-05
1.56539e-05
1.56537e-05
1.56507e-05
1.56492e-05
1.56484e-05
1.5649e-05
1.56467e-05
1.56467e-05
1.56474e-05
1.56491e-05
1.56475e-05
1.56528e-05
1.56521e-05
1.56592e-05
1.56566e-05
1.56544e-05
1.56522e-05
1.56504e-05
1.56486e-05
1.56467e-05
1.5645e-05
1.56436e-05
1.56421e-05
1.56406e-05
1.56394e-05
1.56383e-05
1.56374e-05
1.56365e-05
1.56358e-05
1.56352e-05
1.56346e-05
1.56342e-05
1.5634e-05
1.5634e-05
1.5634e-05
1.56343e-05
1.56347e-05
1.56351e-05
1.56358e-05
1.56367e-05
1.56377e-05
1.56391e-05
1.56405e-05
1.56419e-05
1.56436e-05
1.56456e-05
1.56474e-05
1.56493e-05
1.56513e-05
1.56531e-05
1.56552e-05
1.56574e-05
1.56592e-05
1.56612e-05
1.5663e-05
1.56646e-05
1.56662e-05
1.56679e-05
1.56694e-05
1.56708e-05
1.56722e-05
1.56735e-05
1.56747e-05
1.56757e-05
1.56767e-05
1.56777e-05
1.56784e-05
1.56793e-05
1.56798e-05
1.56804e-05
1.5681e-05
1.56813e-05
1.56817e-05
1.56821e-05
1.56822e-05
1.56824e-05
1.56823e-05
1.5682e-05
1.56817e-05
1.56814e-05
1.56809e-05
1.56802e-05
1.56793e-05
1.56782e-05
1.56771e-05
1.5676e-05
1.56747e-05
1.56731e-05
1.56717e-05
1.56704e-05
1.5669e-05
1.56678e-05
1.56664e-05
1.56651e-05
1.5664e-05
1.56629e-05
1.56618e-05
1.56608e-05
1.56598e-05
1.56589e-05
1.56581e-05
1.56572e-05
1.56564e-05
1.56555e-05
1.56547e-05
1.56539e-05
1.56529e-05
1.56522e-05
1.56512e-05
1.56501e-05
1.56491e-05
1.56479e-05
1.56467e-05
1.56455e-05
1.56442e-05
1.56426e-05
1.56409e-05
1.56391e-05
1.56372e-05
1.56351e-05
1.5633e-05
1.56307e-05
1.56281e-05
1.56254e-05
1.56229e-05
1.56205e-05
1.56179e-05
1.56153e-05
1.56127e-05
1.56103e-05
1.56077e-05
1.56051e-05
1.56026e-05
1.56001e-05
1.55977e-05
1.55951e-05
1.55927e-05
1.55904e-05
1.55882e-05
1.5586e-05
1.55841e-05
1.55822e-05
1.55803e-05
1.55783e-05
1.55767e-05
1.55752e-05
1.55737e-05
1.55722e-05
1.55708e-05
1.55695e-05
1.55683e-05
1.55673e-05
1.55663e-05
1.55655e-05
1.55647e-05
1.55639e-05
1.55633e-05
1.55627e-05
1.55623e-05
1.55621e-05
1.5562e-05
1.55622e-05
1.55626e-05
1.55634e-05
1.55642e-05
1.5565e-05
1.55663e-05
1.55677e-05
1.55691e-05
1.55709e-05
1.55726e-05
1.55746e-05
1.55767e-05
1.5579e-05
1.55815e-05
1.55841e-05
1.55869e-05
1.55897e-05
1.55928e-05
1.5596e-05
1.55992e-05
1.56027e-05
1.56064e-05
1.56101e-05
1.56139e-05
1.56178e-05
1.56217e-05
1.56257e-05
1.56297e-05
1.56338e-05
1.56377e-05
1.56417e-05
1.56457e-05
1.56496e-05
1.56535e-05
1.56571e-05
1.56608e-05
1.56644e-05
1.56678e-05
1.56713e-05
1.56744e-05
1.56776e-05
1.56806e-05
1.56834e-05
1.56861e-05
1.56886e-05
1.56909e-05
1.56932e-05
1.56952e-05
1.56969e-05
1.56984e-05
1.56996e-05
1.57008e-05
1.57016e-05
1.57022e-05
1.57028e-05
1.57031e-05
1.57032e-05
1.57035e-05
1.57035e-05
1.57033e-05
1.57034e-05
1.57032e-05
1.5703e-05
1.57029e-05
1.57027e-05
1.57025e-05
1.57025e-05
1.57025e-05
1.57024e-05
1.57026e-05
1.57031e-05
1.57035e-05
1.57045e-05
1.57056e-05
1.57072e-05
1.57092e-05
1.57123e-05
1.57145e-05
1.57193e-05
1.57218e-05
1.57296e-05
1.57325e-05
1.57435e-05
1.56924e-05
1.57613e-05
1.56225e-05
1.57832e-05
1.55851e-05
1.58073e-05
1.55642e-05
1.58164e-05
1.5537e-05
1.57845e-05
1.54911e-05
1.53422e-05
1.53123e-05
1.46394e-05
1.49908e-05
1.15046e-05
1.10984e-05
9.22605e-06
8.17538e-06
7.14429e-06
7.27848e-06
6.6988e-06
6.06936e-06
5.51698e-06
4.74226e-06
5.00936e-06
6.02618e-06
3.13247e-05
5.13894e-05
3.09345e-05
2.22295e-05
1.76999e-05
1.49843e-05
1.33184e-05
1.22519e-05
1.15713e-05
1.10946e-05
1.09211e-05
1.0841e-05
1.09484e-05
1.1127e-05
1.14214e-05
1.16025e-05
1.19378e-05
1.22161e-05
1.26442e-05
1.30645e-05
1.35153e-05
1.39284e-05
1.44537e-05
1.50016e-05
1.56491e-05
1.63656e-05
1.71083e-05
1.77835e-05
1.8003e-05
1.85622e-05
1.82837e-05
1.91822e-05
1.93554e-05
2.00621e-05
2.05545e-05
2.0895e-05
2.11355e-05
2.13165e-05
2.15837e-05
2.1994e-05
2.22288e-05
2.25987e-05
2.28259e-05
2.31404e-05
2.34194e-05
2.37774e-05
2.40952e-05
2.43745e-05
2.46483e-05
2.4915e-05
2.51703e-05
2.54446e-05
2.56853e-05
2.59517e-05
2.61833e-05
2.64436e-05
2.66715e-05
2.69228e-05
2.71585e-05
2.74067e-05
2.76478e-05
2.7872e-05
2.81195e-05
2.83145e-05
2.85515e-05
2.87245e-05
2.89423e-05
2.90898e-05
2.92917e-05
2.94242e-05
2.96148e-05
2.97375e-05
2.99275e-05
3.00466e-05
3.02365e-05
3.03607e-05
3.05436e-05
3.06741e-05
3.0842e-05
3.09854e-05
3.11331e-05
3.12856e-05
3.14123e-05
3.15733e-05
3.16858e-05
3.18513e-05
3.19502e-05
3.21238e-05
3.22204e-05
3.2383e-05
3.24757e-05
3.26297e-05
3.27083e-05
3.28597e-05
3.29296e-05
3.30826e-05
3.31524e-05
3.3313e-05
3.33737e-05
3.35461e-05
3.35883e-05
3.37717e-05
3.38056e-05
3.39848e-05
3.40189e-05
3.41893e-05
3.42221e-05
3.43842e-05
3.44212e-05
3.45714e-05
3.46146e-05
3.47508e-05
3.48004e-05
3.49258e-05
3.49803e-05
3.50916e-05
3.51532e-05
3.52515e-05
3.53201e-05
3.54078e-05
3.54848e-05
3.55593e-05
3.56452e-05
3.57089e-05
3.58018e-05
3.58568e-05
3.59551e-05
3.60043e-05
3.6103e-05
3.61494e-05
3.62497e-05
3.62901e-05
3.63903e-05
3.64283e-05
3.65262e-05
3.65658e-05
3.6662e-05
3.66993e-05
3.67946e-05
3.68333e-05
3.69243e-05
3.69631e-05
3.70511e-05
3.70918e-05
3.71792e-05
3.72139e-05
3.73034e-05
3.73314e-05
3.74399e-05
3.74407e-05
3.75856e-05
3.75341e-05
3.77328e-05
3.76454e-05
3.78547e-05
3.77701e-05
3.79733e-05
3.78975e-05
3.80771e-05
3.80207e-05
3.81707e-05
3.81515e-05
3.82554e-05
3.82786e-05
3.8332e-05
3.84087e-05
3.84153e-05
3.85388e-05
3.85052e-05
3.86726e-05
3.86034e-05
3.87961e-05
3.87235e-05
3.89171e-05
3.88845e-05
3.90419e-05
3.90168e-05
3.91773e-05
3.91858e-05
3.93258e-05
3.93412e-05
3.94529e-05
3.94986e-05
3.95984e-05
3.96511e-05
3.97513e-05
3.98039e-05
3.99073e-05
3.99563e-05
4.00689e-05
4.01113e-05
4.02302e-05
4.02654e-05
4.03938e-05
4.04222e-05
4.0556e-05
4.05727e-05
4.07169e-05
4.07285e-05
4.08657e-05
4.0883e-05
4.09881e-05
4.10299e-05
4.10691e-05
4.11712e-05
4.11417e-05
4.12401e-05
4.12079e-05
4.13009e-05
4.12697e-05
4.1356e-05
4.13292e-05
4.14076e-05
4.13883e-05
4.14588e-05
4.1452e-05
4.15143e-05
4.15185e-05
4.15755e-05
4.15893e-05
4.16413e-05
4.16638e-05
4.1712e-05
4.17381e-05
4.17826e-05
4.18117e-05
4.18524e-05
4.18808e-05
4.19195e-05
4.19462e-05
4.19831e-05
4.20101e-05
4.2045e-05
4.20693e-05
4.21015e-05
4.21266e-05
4.21561e-05
4.2178e-05
4.22064e-05
4.22249e-05
4.22482e-05
4.22653e-05
4.22849e-05
4.22983e-05
4.23144e-05
4.23287e-05
4.23429e-05
4.23561e-05
4.23683e-05
4.23804e-05
4.23915e-05
4.24033e-05
4.24143e-05
4.24261e-05
4.24391e-05
4.24505e-05
4.24606e-05
4.24716e-05
4.2481e-05
4.24942e-05
4.25024e-05
4.25106e-05
4.25189e-05
4.25252e-05
4.25297e-05
4.25354e-05
4.25374e-05
4.25407e-05
4.25411e-05
4.25424e-05
4.25439e-05
4.2542e-05
4.25431e-05
4.25435e-05
4.25456e-05
4.2546e-05
4.25507e-05
4.25581e-05
4.25682e-05
4.25814e-05
4.25965e-05
4.26135e-05
4.26344e-05
4.26594e-05
4.26862e-05
4.27149e-05
4.27461e-05
4.27814e-05
4.28151e-05
4.28519e-05
4.28877e-05
4.29269e-05
4.29629e-05
4.29998e-05
4.30365e-05
4.30714e-05
4.31084e-05
4.31443e-05
4.31797e-05
4.32132e-05
4.32483e-05
4.32813e-05
4.33174e-05
4.33532e-05
4.33903e-05
4.3424e-05
4.34595e-05
4.34932e-05
4.35288e-05
4.35614e-05
4.3596e-05
4.36286e-05
4.36603e-05
4.36901e-05
4.37198e-05
4.37486e-05
4.37776e-05
4.38054e-05
4.38335e-05
4.38599e-05
4.38867e-05
4.39124e-05
4.39363e-05
4.39592e-05
4.39801e-05
4.39969e-05
4.40125e-05
4.40243e-05
4.40326e-05
4.40388e-05
4.40416e-05
4.40396e-05
4.40361e-05
4.40279e-05
4.40185e-05
4.40054e-05
4.3991e-05
4.39732e-05
4.3954e-05
4.39328e-05
4.39088e-05
4.38854e-05
4.38585e-05
4.38322e-05
4.38029e-05
4.37732e-05
4.37431e-05
4.3711e-05
4.36786e-05
4.3646e-05
4.3611e-05
4.35765e-05
4.35401e-05
4.35026e-05
4.34639e-05
4.34234e-05
4.33825e-05
4.33401e-05
4.32977e-05
4.32538e-05
4.32101e-05
4.31651e-05
4.31213e-05
4.30765e-05
4.30342e-05
4.2991e-05
4.29492e-05
4.29095e-05
4.2871e-05
4.28354e-05
4.28006e-05
4.27686e-05
4.27373e-05
4.27088e-05
4.26807e-05
4.26553e-05
4.263e-05
4.26072e-05
4.25843e-05
4.25636e-05
4.25426e-05
4.25234e-05
4.25038e-05
4.24857e-05
4.24678e-05
4.24487e-05
4.24318e-05
4.24129e-05
4.23964e-05
4.23794e-05
4.23618e-05
4.23428e-05
4.23227e-05
4.2302e-05
4.22839e-05
4.22648e-05
4.22452e-05
4.22224e-05
4.22021e-05
4.21798e-05
4.21591e-05
4.21362e-05
4.21168e-05
4.20982e-05
4.20816e-05
4.20667e-05
4.20532e-05
4.20387e-05
4.20271e-05
4.20142e-05
4.20055e-05
4.19938e-05
4.19872e-05
4.19803e-05
4.19755e-05
4.19701e-05
4.19663e-05
4.19606e-05
4.19569e-05
4.19507e-05
4.19465e-05
4.19414e-05
4.19375e-05
4.19325e-05
4.19271e-05
4.19191e-05
4.1912e-05
4.19052e-05
4.18982e-05
4.18904e-05
4.18819e-05
4.18724e-05
4.18627e-05
4.18512e-05
4.18404e-05
4.18286e-05
4.18166e-05
4.18039e-05
4.1789e-05
4.17757e-05
4.17604e-05
4.17451e-05
4.17304e-05
4.17159e-05
4.17013e-05
4.16888e-05
4.16755e-05
4.16634e-05
4.16522e-05
4.16414e-05
4.16331e-05
4.16244e-05
4.16176e-05
4.16122e-05
4.1608e-05
4.16062e-05
4.1606e-05
4.16083e-05
4.16122e-05
4.16187e-05
4.16266e-05
4.1637e-05
4.16482e-05
4.16617e-05
4.16751e-05
4.16904e-05
4.17047e-05
4.17209e-05
4.17365e-05
4.17515e-05
4.17664e-05
4.17771e-05
4.17905e-05
4.18036e-05
4.18142e-05
4.18261e-05
4.18328e-05
4.18422e-05
4.18524e-05
4.18615e-05
4.18713e-05
4.18779e-05
4.18849e-05
4.18941e-05
4.19021e-05
4.19073e-05
4.19133e-05
4.19184e-05
4.19244e-05
4.19295e-05
4.19316e-05
4.19364e-05
4.19398e-05
4.19417e-05
4.19471e-05
4.1952e-05
4.19552e-05
4.19618e-05
4.1968e-05
4.19724e-05
4.19792e-05
4.19865e-05
4.19911e-05
4.19974e-05
4.20046e-05
4.20094e-05
4.20157e-05
4.20221e-05
4.20266e-05
4.20323e-05
4.20368e-05
4.20393e-05
4.20452e-05
4.20477e-05
4.2052e-05
4.20557e-05
4.20559e-05
4.20663e-05
4.20594e-05
4.20818e-05
4.20593e-05
4.21151e-05
4.20354e-05
4.21692e-05
4.19812e-05
4.22515e-05
4.19083e-05
4.23265e-05
4.17338e-05
4.20686e-05
4.13973e-05
4.16397e-05
4.08859e-05
4.1259e-05
4.01695e-05
3.99641e-05
3.83771e-05
3.54978e-05
3.15707e-05
2.46652e-05
1.81468e-05
2.28405e-05
3.1911e-05
3.16607e-05
3.68336e-05
3.43891e-05
3.57382e-05
2.64165e-05
2.46124e-05
2.406e-05
2.98443e-05
0.000146908
0.000111904
8.4627e-05
6.67884e-05
5.42387e-05
4.53773e-05
3.76849e-05
3.17323e-05
2.75035e-05
2.3734e-05
2.12348e-05
1.87515e-05
1.70557e-05
1.54836e-05
1.45661e-05
1.38052e-05
1.33511e-05
1.29814e-05
1.28958e-05
1.27839e-05
1.27078e-05
1.26749e-05
1.26863e-05
1.28269e-05
1.2998e-05
1.32531e-05
1.34769e-05
1.38681e-05
1.42656e-05
1.46506e-05
1.50288e-05
1.54377e-05
1.58428e-05
1.62185e-05
1.65861e-05
1.69752e-05
1.73963e-05
1.78266e-05
1.82853e-05
1.87613e-05
1.92722e-05
1.97905e-05
2.03161e-05
2.08187e-05
2.13323e-05
2.18527e-05
2.24073e-05
2.29728e-05
2.3568e-05
2.41673e-05
2.47911e-05
2.5419e-05
2.59173e-05
2.64688e-05
2.69301e-05
2.74755e-05
2.7975e-05
2.85077e-05
2.90282e-05
2.95397e-05
3.00533e-05
3.05533e-05
3.10715e-05
3.15583e-05
3.20661e-05
3.25358e-05
3.30293e-05
3.34906e-05
3.3985e-05
3.44483e-05
3.49475e-05
3.54202e-05
3.59215e-05
3.63994e-05
3.69e-05
3.7378e-05
3.78657e-05
3.83502e-05
3.88224e-05
3.93174e-05
3.97835e-05
4.02792e-05
4.07567e-05
4.12109e-05
4.17272e-05
4.21435e-05
4.26829e-05
4.3109e-05
4.36395e-05
4.40814e-05
4.46308e-05
4.50976e-05
4.56401e-05
4.61265e-05
4.66522e-05
4.71191e-05
4.7631e-05
4.80344e-05
4.83877e-05
4.87868e-05
4.91097e-05
4.95e-05
4.9798e-05
5.01792e-05
5.04521e-05
5.08241e-05
5.10732e-05
5.14363e-05
5.16632e-05
5.20165e-05
5.22231e-05
5.25668e-05
5.27547e-05
5.30873e-05
5.32584e-05
5.35797e-05
5.37372e-05
5.40476e-05
5.41951e-05
5.44942e-05
5.46342e-05
5.49222e-05
5.50581e-05
5.53359e-05
5.54709e-05
5.57389e-05
5.58744e-05
5.61337e-05
5.62716e-05
5.65219e-05
5.66626e-05
5.6905e-05
5.70501e-05
5.72865e-05
5.74369e-05
5.76669e-05
5.78221e-05
5.8046e-05
5.82052e-05
5.84237e-05
5.85865e-05
5.87997e-05
5.89657e-05
5.91738e-05
5.93422e-05
5.95468e-05
5.97233e-05
5.99211e-05
6.01096e-05
6.02885e-05
6.04945e-05
6.06466e-05
6.0869e-05
6.09961e-05
6.12369e-05
6.13311e-05
6.15856e-05
6.16482e-05
6.19123e-05
6.19525e-05
6.22191e-05
6.2243e-05
6.25059e-05
6.25292e-05
6.27823e-05
6.28162e-05
6.30536e-05
6.311e-05
6.3327e-05
6.34144e-05
6.36145e-05
6.37424e-05
6.39341e-05
6.409e-05
6.42583e-05
6.44408e-05
6.45968e-05
6.47973e-05
6.49483e-05
6.51541e-05
6.52977e-05
6.5513e-05
6.56538e-05
6.58721e-05
6.6013e-05
6.62386e-05
6.63779e-05
6.66118e-05
6.67471e-05
6.69883e-05
6.7116e-05
6.73643e-05
6.74811e-05
6.77349e-05
6.78347e-05
6.80949e-05
6.81763e-05
6.84401e-05
6.85024e-05
6.87685e-05
6.88111e-05
6.90757e-05
6.9103e-05
6.9363e-05
6.93777e-05
6.96315e-05
6.96399e-05
6.9884e-05
6.98909e-05
7.01219e-05
7.01338e-05
7.03494e-05
7.03731e-05
7.05733e-05
7.06176e-05
7.08025e-05
7.08688e-05
7.10425e-05
7.11285e-05
7.1293e-05
7.13955e-05
7.15538e-05
7.16652e-05
7.18174e-05
7.19347e-05
7.20804e-05
7.21986e-05
7.23401e-05
7.24556e-05
7.25928e-05
7.27059e-05
7.28357e-05
7.29435e-05
7.30652e-05
7.31692e-05
7.32822e-05
7.33775e-05
7.34805e-05
7.35681e-05
7.36618e-05
7.3746e-05
7.38318e-05
7.39088e-05
7.39868e-05
7.40625e-05
7.4137e-05
7.42098e-05
7.42806e-05
7.43505e-05
7.44189e-05
7.44876e-05
7.45551e-05
7.46231e-05
7.46926e-05
7.47604e-05
7.48254e-05
7.48907e-05
7.49528e-05
7.50185e-05
7.50779e-05
7.51347e-05
7.51899e-05
7.52408e-05
7.52865e-05
7.53324e-05
7.53716e-05
7.54109e-05
7.54447e-05
7.54782e-05
7.55118e-05
7.55407e-05
7.55733e-05
7.56054e-05
7.56413e-05
7.56769e-05
7.57203e-05
7.57705e-05
7.58284e-05
7.5894e-05
7.59667e-05
7.60453e-05
7.61329e-05
7.62298e-05
7.63336e-05
7.64434e-05
7.65596e-05
7.66846e-05
7.68101e-05
7.69423e-05
7.70738e-05
7.72108e-05
7.73448e-05
7.74802e-05
7.76146e-05
7.77462e-05
7.78794e-05
7.80108e-05
7.8142e-05
7.82691e-05
7.83988e-05
7.85251e-05
7.86562e-05
7.87869e-05
7.89198e-05
7.90471e-05
7.91766e-05
7.93009e-05
7.94276e-05
7.9548e-05
7.96707e-05
7.97872e-05
7.99053e-05
8.00139e-05
8.01259e-05
8.02336e-05
8.03393e-05
8.04418e-05
8.05417e-05
8.06376e-05
8.07309e-05
8.08208e-05
8.09052e-05
8.09851e-05
8.10598e-05
8.11248e-05
8.11832e-05
8.12333e-05
8.12733e-05
8.13053e-05
8.13286e-05
8.1341e-05
8.1346e-05
8.13418e-05
8.13308e-05
8.13128e-05
8.12888e-05
8.12583e-05
8.12221e-05
8.11817e-05
8.1134e-05
8.10851e-05
8.103e-05
8.0973e-05
8.09113e-05
8.08462e-05
8.07796e-05
8.07088e-05
8.06354e-05
8.05607e-05
8.04809e-05
8.03998e-05
8.03148e-05
8.02267e-05
8.01348e-05
8.00386e-05
7.99402e-05
7.98381e-05
7.97343e-05
7.96268e-05
7.95184e-05
7.94069e-05
7.92963e-05
7.91836e-05
7.9074e-05
7.89637e-05
7.88552e-05
7.87504e-05
7.86483e-05
7.85519e-05
7.84577e-05
7.83691e-05
7.82826e-05
7.82016e-05
7.81217e-05
7.8047e-05
7.79726e-05
7.7903e-05
7.7833e-05
7.77674e-05
7.77009e-05
7.76384e-05
7.75747e-05
7.75146e-05
7.74549e-05
7.73937e-05
7.73368e-05
7.72762e-05
7.72214e-05
7.71658e-05
7.7112e-05
7.70564e-05
7.7e-05
7.69418e-05
7.68882e-05
7.68341e-05
7.67801e-05
7.67223e-05
7.66667e-05
7.66088e-05
7.65533e-05
7.6496e-05
7.64432e-05
7.63918e-05
7.6345e-05
7.63007e-05
7.62608e-05
7.62189e-05
7.6182e-05
7.61431e-05
7.61106e-05
7.60739e-05
7.60444e-05
7.60155e-05
7.59908e-05
7.59648e-05
7.5942e-05
7.59164e-05
7.58945e-05
7.58682e-05
7.58452e-05
7.58218e-05
7.57995e-05
7.57755e-05
7.57518e-05
7.57242e-05
7.56971e-05
7.5672e-05
7.5647e-05
7.56206e-05
7.55933e-05
7.55641e-05
7.55344e-05
7.55016e-05
7.54688e-05
7.54349e-05
7.54004e-05
7.53643e-05
7.53248e-05
7.52871e-05
7.52478e-05
7.52076e-05
7.51688e-05
7.51313e-05
7.50942e-05
7.50605e-05
7.50271e-05
7.49946e-05
7.49644e-05
7.4935e-05
7.49098e-05
7.48854e-05
7.48642e-05
7.48465e-05
7.48325e-05
7.48243e-05
7.48207e-05
7.48239e-05
7.48321e-05
7.48471e-05
7.48669e-05
7.48926e-05
7.49215e-05
7.49548e-05
7.4989e-05
7.50263e-05
7.50619e-05
7.5099e-05
7.51353e-05
7.51691e-05
7.52018e-05
7.52293e-05
7.52564e-05
7.52824e-05
7.53055e-05
7.5329e-05
7.53472e-05
7.53677e-05
7.53874e-05
7.54039e-05
7.54222e-05
7.54338e-05
7.54439e-05
7.54567e-05
7.54666e-05
7.54722e-05
7.54772e-05
7.548e-05
7.54835e-05
7.54839e-05
7.54805e-05
7.54784e-05
7.54757e-05
7.54711e-05
7.54696e-05
7.54697e-05
7.5467e-05
7.54686e-05
7.54711e-05
7.54719e-05
7.54744e-05
7.5478e-05
7.54788e-05
7.54815e-05
7.54837e-05
7.54841e-05
7.54856e-05
7.54862e-05
7.54842e-05
7.5483e-05
7.54806e-05
7.54753e-05
7.54723e-05
7.5468e-05
7.54625e-05
7.54622e-05
7.54536e-05
7.54611e-05
7.5444e-05
7.54709e-05
7.54376e-05
7.55253e-05
7.54017e-05
7.56251e-05
7.53095e-05
7.57747e-05
7.5137e-05
7.58791e-05
7.47256e-05
7.57007e-05
7.39143e-05
7.49491e-05
7.256e-05
7.33312e-05
7.05125e-05
7.03579e-05
6.65784e-05
6.17274e-05
5.21061e-05
3.9037e-05
2.29198e-05
2.58677e-05
3.46752e-05
3.58639e-05
4.50952e-05
4.53156e-05
5.31504e-05
4.85146e-05
4.6986e-05
4.16705e-05
3.87909e-05
0.000182106
0.00016902
9.71156e-05
9.0351e-05
9.73315e-05
0.000103318
9.14739e-05
7.97793e-05
7.09962e-05
6.25045e-05
5.67145e-05
4.96385e-05
4.42426e-05
3.71701e-05
3.36036e-05
2.94107e-05
2.76341e-05
2.57418e-05
2.56746e-05
2.51497e-05
2.5159e-05
2.37336e-05
2.28868e-05
2.17395e-05
2.12564e-05
2.0673e-05
2.02987e-05
1.98035e-05
1.9383e-05
1.91303e-05
1.89255e-05
1.89055e-05
1.88385e-05
1.87727e-05
1.86277e-05
1.84583e-05
1.83293e-05
1.82295e-05
1.81735e-05
1.81527e-05
1.81728e-05
1.82285e-05
1.83086e-05
1.84129e-05
1.8546e-05
1.87326e-05
1.89534e-05
1.92164e-05
1.95165e-05
1.98497e-05
2.02144e-05
2.06139e-05
2.10498e-05
2.15067e-05
2.20007e-05
2.25192e-05
2.30732e-05
2.365e-05
2.42535e-05
2.4875e-05
2.5516e-05
2.61742e-05
2.68483e-05
2.75411e-05
2.82484e-05
2.89751e-05
2.97142e-05
3.04772e-05
3.12585e-05
3.20691e-05
3.29006e-05
3.37648e-05
3.46497e-05
3.5566e-05
3.64994e-05
3.74589e-05
3.84307e-05
3.94267e-05
4.04339e-05
4.14658e-05
4.25078e-05
4.35734e-05
4.46455e-05
4.57363e-05
4.68231e-05
4.7923e-05
4.9002e-05
5.00897e-05
5.1139e-05
5.2194e-05
5.31973e-05
5.42049e-05
5.51555e-05
5.61197e-05
5.70171e-05
5.79369e-05
5.87803e-05
5.96588e-05
6.0444e-05
6.12815e-05
6.20086e-05
6.28037e-05
6.34736e-05
6.42363e-05
6.48519e-05
6.55871e-05
6.61553e-05
6.68656e-05
6.73905e-05
6.80756e-05
6.85594e-05
6.92197e-05
6.96657e-05
7.03003e-05
7.07119e-05
7.13206e-05
7.17027e-05
7.22874e-05
7.26468e-05
7.32081e-05
7.35485e-05
7.40877e-05
7.44159e-05
7.49358e-05
7.52573e-05
7.57601e-05
7.60793e-05
7.65678e-05
7.68876e-05
7.73629e-05
7.76862e-05
7.81498e-05
7.84789e-05
7.89339e-05
7.92706e-05
7.97172e-05
8.0059e-05
8.04971e-05
8.0844e-05
8.12759e-05
8.16252e-05
8.20492e-05
8.23991e-05
8.28131e-05
8.3163e-05
8.35661e-05
8.3924e-05
8.43134e-05
8.46846e-05
8.50505e-05
8.54471e-05
8.57808e-05
8.61993e-05
8.64997e-05
8.69438e-05
8.71996e-05
8.76616e-05
8.78716e-05
8.83452e-05
8.85192e-05
8.89947e-05
8.91416e-05
8.96091e-05
8.97479e-05
9.01977e-05
9.03437e-05
9.07672e-05
9.09361e-05
9.13282e-05
9.15336e-05
9.19065e-05
9.21651e-05
9.25178e-05
9.28174e-05
9.31393e-05
9.34749e-05
9.37782e-05
9.41393e-05
9.44366e-05
9.48068e-05
9.50951e-05
9.54795e-05
9.57664e-05
9.61644e-05
9.64526e-05
9.6856e-05
9.71456e-05
9.75618e-05
9.78484e-05
9.82763e-05
9.85537e-05
9.89915e-05
9.92537e-05
9.96977e-05
9.99362e-05
0.000100386
0.000100597
0.000101049
0.000101229
0.00010168
0.000101829
0.000102273
0.000102395
0.00010283
0.000102929
0.00010335
0.000103436
0.00010384
0.000103918
0.0001043
0.000104381
0.00010474
0.000104834
0.000105171
0.000105291
0.000105607
0.000105758
0.00010606
0.000106241
0.000106532
0.000106738
0.000107023
0.000107244
0.000107524
0.000107753
0.000108028
0.000108259
0.000108525
0.000108752
0.000109008
0.00010923
0.000109474
0.000109686
0.000109916
0.000110119
0.000110331
0.000110522
0.00011072
0.000110899
0.000111083
0.000111256
0.00011143
0.000111593
0.000111756
0.000111915
0.000112074
0.00011223
0.000112384
0.000112537
0.000112689
0.000112841
0.000112992
0.000113144
0.000113297
0.000113449
0.000113596
0.000113742
0.000113883
0.000114026
0.000114159
0.000114287
0.000114409
0.000114522
0.000114626
0.000114726
0.000114816
0.000114903
0.000114981
0.000115057
0.000115134
0.000115205
0.000115281
0.000115358
0.000115443
0.000115532
0.000115634
0.00011575
0.000115881
0.000116027
0.000116188
0.000116363
0.000116553
0.00011676
0.000116981
0.000117215
0.00011746
0.00011772
0.000117984
0.000118259
0.000118533
0.000118815
0.000119093
0.000119372
0.000119649
0.000119921
0.000120192
0.00012046
0.000120726
0.000120986
0.000121248
0.000121506
0.000121769
0.000122031
0.000122295
0.000122551
0.000122808
0.000123055
0.000123302
0.000123537
0.000123772
0.000123996
0.000124218
0.000124426
0.000124635
0.000124836
0.000125036
0.000125227
0.000125415
0.000125594
0.000125768
0.000125934
0.000126088
0.000126231
0.000126363
0.000126479
0.000126581
0.000126666
0.000126733
0.000126785
0.000126821
0.000126838
0.000126841
0.000126829
0.000126806
0.000126771
0.000126726
0.000126672
0.000126608
0.000126538
0.000126458
0.000126374
0.000126282
0.000126187
0.000126085
0.000125978
0.000125868
0.000125752
0.000125632
0.000125508
0.000125377
0.000125242
0.0001251
0.000124953
0.0001248
0.000124639
0.000124474
0.000124303
0.000124128
0.000123947
0.000123765
0.000123577
0.000123389
0.000123199
0.000123012
0.000122825
0.000122641
0.000122463
0.000122289
0.000122124
0.000121963
0.00012181
0.000121661
0.000121521
0.000121382
0.000121251
0.00012112
0.000120995
0.000120869
0.000120749
0.000120628
0.000120511
0.000120393
0.00012028
0.000120168
0.000120056
0.00011995
0.000119841
0.000119741
0.000119642
0.000119548
0.000119453
0.000119359
0.000119264
0.000119176
0.000119086
0.000118999
0.000118909
0.000118821
0.000118731
0.000118644
0.000118555
0.000118471
0.000118388
0.00011831
0.000118235
0.000118165
0.000118093
0.000118026
0.000117956
0.000117893
0.000117825
0.000117764
0.000117703
0.000117649
0.000117593
0.000117541
0.000117486
0.000117436
0.00011738
0.000117327
0.000117273
0.000117221
0.000117166
0.00011711
0.00011705
0.000116991
0.000116932
0.000116875
0.000116816
0.000116756
0.000116693
0.000116629
0.00011656
0.000116491
0.000116419
0.000116346
0.000116272
0.000116194
0.000116117
0.00011604
0.000115964
0.00011589
0.00011582
0.000115752
0.00011569
0.00011563
0.000115572
0.000115518
0.000115465
0.000115419
0.000115376
0.000115339
0.000115309
0.000115287
0.000115276
0.000115276
0.000115289
0.000115313
0.000115351
0.000115399
0.000115458
0.000115523
0.000115596
0.00011567
0.000115747
0.000115821
0.000115895
0.000115965
0.000116029
0.000116089
0.00011614
0.000116188
0.000116232
0.000116272
0.000116312
0.000116346
0.000116381
0.000116415
0.000116447
0.000116478
0.000116501
0.000116522
0.000116543
0.000116559
0.000116568
0.000116575
0.000116577
0.000116578
0.000116574
0.000116565
0.000116557
0.000116546
0.000116534
0.000116526
0.000116519
0.000116511
0.000116508
0.000116506
0.000116503
0.000116501
0.000116498
0.000116493
0.000116488
0.000116481
0.000116472
0.000116461
0.000116446
0.000116428
0.000116408
0.000116385
0.000116357
0.00011633
0.000116301
0.000116271
0.000116248
0.000116215
0.000116204
0.000116165
0.000116186
0.000116135
0.00011624
0.000116091
0.000116375
0.000115995
0.000116586
0.00011578
0.000116728
0.000115206
0.000116428
0.000113949
0.000115145
0.000111654
0.000112375
0.000107999
0.000107498
0.000101246
9.43043e-05
7.90837e-05
5.68943e-05
3.12727e-05
3.2505e-05
3.67849e-05
3.81504e-05
4.35106e-05
4.72636e-05
5.3191e-05
5.95115e-05
6.16243e-05
5.752e-05
4.23e-05
0.000188538
0.000163023
9.38984e-05
8.43702e-05
9.19552e-05
9.35736e-05
0.000117238
0.000116689
0.000122807
0.000113935
0.000108025
9.90428e-05
9.15939e-05
7.91134e-05
7.03228e-05
6.06186e-05
5.61103e-05
5.19127e-05
5.26073e-05
5.26598e-05
5.29913e-05
5.10373e-05
4.93241e-05
4.60083e-05
4.47695e-05
4.30106e-05
4.23363e-05
4.13273e-05
4.05193e-05
4.00056e-05
3.95971e-05
3.94976e-05
3.93195e-05
3.90877e-05
3.86794e-05
3.8201e-05
3.76131e-05
3.71574e-05
3.66624e-05
3.62766e-05
3.58023e-05
3.5439e-05
3.50946e-05
3.49288e-05
3.47731e-05
3.46901e-05
3.45789e-05
3.45478e-05
3.4492e-05
3.45252e-05
3.45646e-05
3.46948e-05
3.48467e-05
3.50838e-05
3.53501e-05
3.56871e-05
3.60579e-05
3.64878e-05
3.69593e-05
3.74857e-05
3.80565e-05
3.86811e-05
3.93516e-05
4.00753e-05
4.08422e-05
4.16571e-05
4.25158e-05
4.34174e-05
4.43561e-05
4.53331e-05
4.6342e-05
4.73868e-05
4.84572e-05
4.9562e-05
5.06881e-05
5.18457e-05
5.30221e-05
5.42333e-05
5.54628e-05
5.67354e-05
5.80192e-05
5.93487e-05
6.06779e-05
6.20525e-05
6.34103e-05
6.48149e-05
6.61766e-05
6.75858e-05
6.89297e-05
7.03163e-05
7.16209e-05
7.29728e-05
7.42342e-05
7.5541e-05
7.67184e-05
7.79502e-05
7.90483e-05
8.02202e-05
8.12398e-05
8.2368e-05
8.33144e-05
8.44049e-05
8.52816e-05
8.63231e-05
8.71376e-05
8.81483e-05
8.89052e-05
8.98858e-05
9.05849e-05
9.15309e-05
9.2176e-05
9.30866e-05
9.36828e-05
9.45571e-05
9.51091e-05
9.5948e-05
9.64644e-05
9.727e-05
9.77575e-05
9.85309e-05
9.89968e-05
9.97411e-05
0.000100195
0.000100915
0.000101366
0.000102067
0.000102521
0.000103208
0.00010367
0.000104344
0.000104816
0.00010548
0.000105964
0.000106623
0.000107118
0.00010777
0.000108272
0.000108915
0.000109421
0.000110046
0.000110556
0.000111164
0.000111676
0.000112268
0.00011278
0.000113359
0.000113881
0.000114444
0.000114983
0.00011552
0.000116092
0.000116595
0.000117199
0.000117665
0.000118304
0.000118717
0.000119382
0.000119744
0.000120423
0.000120741
0.000121421
0.000121704
0.00012237
0.000122636
0.000123274
0.000123543
0.000124142
0.00012443
0.000124988
0.000125317
0.000125851
0.000126239
0.000126738
0.000127173
0.000127639
0.000128117
0.000128558
0.00012907
0.000129507
0.000130028
0.000130455
0.000130994
0.000131423
0.000131982
0.000132416
0.000132996
0.000133432
0.000134021
0.000134457
0.000135058
0.000135486
0.000136098
0.000136508
0.000137124
0.000137503
0.000138122
0.000138464
0.000139079
0.00013938
0.000139988
0.000140249
0.000140844
0.000141067
0.000141644
0.000141836
0.00014239
0.00014256
0.000143088
0.000143244
0.000143743
0.000143898
0.000144366
0.000144533
0.000144976
0.000145173
0.000145593
0.000145828
0.000146235
0.000146506
0.000146906
0.000147208
0.000147607
0.000147928
0.000148324
0.000148654
0.000149038
0.00014937
0.000149742
0.000150071
0.000150431
0.00015075
0.000151094
0.000151398
0.000151722
0.000152015
0.000152316
0.000152596
0.00015288
0.000153144
0.000153413
0.000153669
0.000153926
0.000154172
0.000154419
0.000154662
0.000154906
0.000155149
0.000155391
0.000155633
0.000155875
0.000156119