/*--------------------------------*- C++ -*----------------------------------*\
| =========                 |                                                 |
| \\      /  F ield         | foam-extend: Open Source CFD                    |
|  \\    /   O peration     | Version:     3.2                                |
|   \\  /    A nd           | Web:         http://www.foam-extend.org         |
|    \\/     M anipulation  | For copyright notice see file Copyright         |
\*---------------------------------------------------------------------------*/
FoamFile
{
    version     2.0;
    format      ascii;
    class       volScalarField;
    location    "840";
    object      omega;
}
// * * * * * * * * * * * * * * * * * * * * * * * * * * * * * * * * * * * * * //

dimensions      [0 0 -1 0 0 0 0];

internalField   nonuniform List<scalar> 
33000
(
25.9831
29.2857
32.7741
36.3479
39.8953
43.3049
46.4944
49.392
51.9331
54.2901
56.1646
58.2932
60.1034
61.8653
62.9327
63.5022
63.6563
63.4155
62.3073
61.5045
61.1097
60.6716
60.0566
59.246
58.2712
57.5528
57.3404
56.6651
56.2442
55.534
55.1031
54.7242
54.4503
54.4068
54.4357
54.4593
54.4338
54.4201
54.446
54.4238
54.4134
54.3708
54.328
54.3023
54.3067
54.3217
54.3353
54.3516
54.3615
54.3771
54.3897
54.4086
54.4252
54.447
54.4675
54.4916
54.514
54.5395
54.5649
54.5919
54.617
54.643
54.6668
54.6897
54.7104
54.7282
54.7438
54.7564
54.7664
54.7718
54.7751
54.7728
54.7678
54.7566
54.7446
54.7256
54.7081
54.6837
54.6638
54.637
54.6167
54.5889
54.5686
54.5409
54.5209
54.4927
54.474
54.446
54.4285
54.4022
54.3873
54.3631
54.3502
54.3274
54.3174
54.2948
54.2874
54.2638
54.2598
54.2329
54.2332
54.2061
54.2097
54.1845
54.1905
54.1688
54.1749
54.1572
54.1612
54.1465
54.147
54.1342
54.1318
54.1203
54.1141
54.1042
54.0943
54.0856
54.0729
54.0659
54.0494
54.0434
54.0236
54.018
53.9955
53.9902
53.9667
53.9609
53.9372
53.9319
53.9074
53.902
53.8779
53.872
53.8496
53.8442
53.8226
53.8176
53.7977
53.7925
53.7742
53.7686
53.7526
53.7479
53.7328
53.7289
53.7148
53.716
53.7004
53.7091
53.6881
53.7081
53.6796
53.7105
53.6831
53.7158
53.6945
53.722
53.7058
53.7252
53.7166
53.7231
53.7201
53.7104
53.7138
53.6893
53.6966
53.6589
53.6698
53.621
53.6314
53.5804
53.5881
53.5491
53.5491
53.5168
53.5133
53.4867
53.4823
53.4621
53.4554
53.4387
53.4309
53.4169
53.4108
53.3985
53.3947
53.3838
53.384
53.3745
53.3778
53.3692
53.3763
53.3692
53.379
53.3715
53.3847
53.3783
53.3903
53.3866
53.3977
53.3949
53.4016
53.4019
53.4036
53.4046
53.4013
53.4043
53.395
53.4
53.3847
53.3917
53.3709
53.3787
53.3544
53.364
53.3385
53.347
53.3269
53.3324
53.317
53.3217
53.3116
53.3143
53.3073
53.3107
53.3049
53.3075
53.3046
53.3055
53.3034
53.305
53.303
53.3039
53.302
53.303
53.3012
53.3
53.2992
53.2973
53.2946
53.2929
53.2901
53.2863
53.2817
53.2781
53.2734
53.2684
53.2629
53.257
53.2507
53.2439
53.2369
53.2295
53.2227
53.2156
53.207
53.1986
53.1897
53.1814
53.1727
53.1623
53.1528
53.1426
53.1306
53.1195
53.1076
53.0949
53.082
53.0681
53.055
53.0402
53.0248
53.0104
52.9954
52.9795
52.9636
52.949
52.9342
52.9198
52.9059
52.8915
52.8777
52.8656
52.8539
52.842
52.8309
52.8215
52.812
52.8031
52.7946
52.7865
52.7801
52.7737
52.7678
52.7609
52.7546
52.7502
52.7457
52.7403
52.7358
52.7317
52.7276
52.7247
52.7221
52.7192
52.7168
52.7149
52.7135
52.7126
52.7118
52.7115
52.7119
52.712
52.7122
52.7146
52.7168
52.7195
52.7227
52.7255
52.7293
52.7348
52.7392
52.7441
52.7506
52.7562
52.762
52.7691
52.7742
52.7794
52.7862
52.7914
52.7967
52.8024
52.8075
52.8122
52.8168
52.8218
52.8258
52.8297
52.8324
52.8361
52.8394
52.8419
52.8452
52.8469
52.8495
52.8516
52.8522
52.8541
52.8547
52.8549
52.8563
52.8565
52.8568
52.8569
52.8562
52.8547
52.8527
52.8504
52.8479
52.8449
52.8413
52.8372
52.8334
52.8305
52.8261
52.8219
52.8175
52.8134
52.8097
52.8062
52.8023
52.7989
52.7957
52.7927
52.7898
52.7871
52.7845
52.7821
52.7798
52.7777
52.7755
52.7728
52.7715
52.7676
52.7645
52.7614
52.7575
52.7549
52.7519
52.7484
52.7434
52.7382
52.734
52.7285
52.7232
52.717
52.7099
52.7026
52.6957
52.6883
52.68
52.6715
52.6634
52.6564
52.6495
52.6412
52.6339
52.6264
52.619
52.6106
52.6021
52.5955
52.5884
52.5815
52.5753
52.5693
52.5632
52.5565
52.5503
52.5458
52.5406
52.5357
52.5317
52.5268
52.5219
52.5186
52.5153
52.5121
52.5093
52.5066
52.5043
52.5014
52.4987
52.4974
52.4966
52.4964
52.4958
52.4967
52.4983
52.4992
52.5017
52.5055
52.5082
52.5124
52.5178
52.522
52.5276
52.5333
52.54
52.5476
52.5545
52.5624
52.5707
52.5795
52.5888
52.5985
52.6091
52.6195
52.6298
52.641
52.6523
52.664
52.6758
52.6879
52.6998
52.7111
52.7239
52.7359
52.7481
52.7595
52.7704
52.7825
52.7935
52.8046
52.8148
52.8241
52.8348
52.8441
52.8535
52.8619
52.8688
52.8774
52.8856
52.8913
52.8974
52.9024
52.907
52.9118
52.9139
52.9166
52.9194
52.9197
52.9208
52.9224
52.9215
52.9216
52.9224
52.9209
52.9204
52.9209
52.9191
52.9184
52.919
52.9173
52.9168
52.9178
52.9167
52.9174
52.9199
52.9203
52.9236
52.9286
52.9328
52.9421
52.9458
52.9636
52.9627
52.9991
52.9781
53.0582
52.9904
53.1489
53.0102
53.2764
53.0808
53.4198
53.1872
53.5106
53.2989
53.4254
53.3446
53.02
53.1668
52.3143
52.7188
50.3602
49.014
37.1584
22.4765
28.4766
28.7315
27.2474
25.6378
24.254
22.3679
23.0115
25.5347
7.85574
2.20344
3.7625
5.47346
7.24706
9.13012
11.0092
12.8445
14.6077
16.1857
17.8941
19.3171
20.8505
22.3708
23.9347
24.8748
25.8338
26.2595
26.8026
26.7188
26.7052
26.5196
26.6048
26.4235
26.2937
25.8869
25.5257
25.1341
25.1243
25.0632
24.9833
24.7027
24.3923
24.1104
23.9109
23.8439
23.8854
23.9709
24.024
24.0738
24.1291
24.1954
24.2599
24.3112
24.3289
24.3363
24.3345
24.3467
24.3524
24.3662
24.3688
24.373
24.3703
24.3701
24.365
24.361
24.3548
24.3464
24.3368
24.3243
24.3098
24.2957
24.2793
24.2687
24.2558
24.2496
24.2413
24.2379
24.2308
24.2279
24.2191
24.2126
24.1981
24.1863
24.1644
24.1463
24.1181
24.0953
24.0622
24.0346
23.9973
23.9667
23.9265
23.8932
23.8514
23.817
23.7731
23.7374
23.69
23.6527
23.6025
23.564
23.5131
23.4746
23.4207
23.3816
23.3251
23.2851
23.2266
23.1893
23.1291
23.0945
23.0316
23.0017
22.936
22.9112
22.8436
22.8238
22.7546
22.74
22.6702
22.6602
22.5902
22.5836
22.5142
22.5106
22.4419
22.44
22.3722
22.3706
22.3044
22.3029
22.2387
22.2365
22.1747
22.171
22.1119
22.1066
22.0506
22.0433
21.9907
21.9823
21.9332
21.9233
21.8773
21.8653
21.8226
21.8094
21.7697
21.7555
21.7189
21.704
21.6701
21.6543
21.6231
21.6076
21.5788
21.5614
21.5348
21.5161
21.495
21.4768
21.4619
21.4386
21.4305
21.4015
21.4034
21.3698
21.3837
21.3463
21.3684
21.3284
21.358
21.317
21.3489
21.308
21.3384
21.2994
21.3242
21.2889
21.3061
21.275
21.2802
21.2528
21.2474
21.2287
21.2162
21.2014
21.1811
21.1686
21.1485
21.1402
21.1174
21.1116
21.0878
21.0833
21.0586
21.0552
21.0295
21.0272
21.0005
21.0003
20.9722
20.9741
20.9446
20.9502
20.9189
20.9273
20.8943
20.9067
20.8716
20.8874
20.8512
20.8695
20.832
20.8523
20.8138
20.8341
20.7952
20.8148
20.7766
20.7944
20.7576
20.7725
20.7381
20.748
20.7166
20.7217
20.6937
20.6934
20.6693
20.6652
20.6441
20.6383
20.62
20.6126
20.5965
20.5893
20.5747
20.5671
20.554
20.5465
20.5341
20.5275
20.5166
20.5101
20.5006
20.494
20.4853
20.478
20.47
20.4622
20.4541
20.4466
20.4393
20.4311
20.4233
20.4152
20.4078
20.4003
20.3931
20.3858
20.3787
20.3715
20.3636
20.356
20.349
20.3419
20.335
20.3267
20.3189
20.3117
20.3037
20.2958
20.2882
20.2797
20.2714
20.2628
20.2543
20.2457
20.2363
20.2279
20.2191
20.2102
20.201
20.1928
20.1845
20.1758
20.167
20.1585
20.1504
20.143
20.1355
20.1274
20.1193
20.1117
20.1041
20.0955
20.0875
20.0793
20.071
20.0617
20.0528
20.0439
20.034
20.025
20.0148
20.0048
19.9945
19.9848
19.9747
19.9652
19.9547
19.9442
19.933
19.9231
19.9127
19.9026
19.8917
19.8815
19.8706
19.86
19.8499
19.84
19.8307
19.8214
19.8119
19.8029
19.7939
19.7853
19.7769
19.7685
19.7602
19.7523
19.7439
19.7358
19.7281
19.7201
19.7124
19.7049
19.6972
19.6897
19.6826
19.6754
19.6686
19.6615
19.6549
19.6482
19.642
19.6357
19.6303
19.625
19.6197
19.6148
19.61
19.6059
19.6016
19.5977
19.5942
19.5907
19.5874
19.5843
19.5812
19.5782
19.5755
19.5732
19.571
19.5691
19.5672
19.5657
19.5642
19.5632
19.5621
19.5615
19.5609
19.5604
19.5605
19.5607
19.5612
19.5617
19.5626
19.5636
19.565
19.5664
19.5683
19.57
19.5723
19.5744
19.577
19.5794
19.5823
19.5851
19.5883
19.5913
19.5943
19.5977
19.601
19.6049
19.6077
19.6106
19.6126
19.615
19.6175
19.6206
19.6226
19.6239
19.6255
19.6277
19.6294
19.6315
19.6336
19.6364
19.6387
19.6408
19.643
19.645
19.6468
19.6497
19.6525
19.6561
19.6586
19.6623
19.6646
19.6669
19.6681
19.6697
19.6703
19.6716
19.6715
19.6722
19.672
19.6718
19.6705
19.6695
19.6682
19.6677
19.6668
19.6659
19.6643
19.663
19.6617
19.6604
19.659
19.6577
19.6564
19.6547
19.6524
19.6497
19.6476
19.6455
19.6426
19.6404
19.6384
19.6363
19.6347
19.6335
19.6323
19.6321
19.6322
19.6326
19.6332
19.634
19.6355
19.6375
19.64
19.6426
19.6457
19.649
19.6528
19.657
19.6615
19.6662
19.6713
19.6765
19.6821
19.6876
19.6934
19.6994
19.7051
19.7109
19.7166
19.7237
19.7301
19.7359
19.7426
19.7487
19.7565
19.7639
19.7704
19.7772
19.7835
19.7908
19.7981
19.8045
19.8103
19.817
19.8237
19.8303
19.8362
19.8418
19.848
19.8535
19.8586
19.8643
19.8691
19.8732
19.8778
19.8814
19.8842
19.8875
19.8904
19.8922
19.8944
19.8965
19.8974
19.8983
19.8991
19.8989
19.8989
19.899
19.8981
19.8968
19.8959
19.8933
19.8919
19.8886
19.8875
19.8852
19.8825
19.8785
19.8775
19.8683
19.8803
19.8565
19.8965
19.8469
19.9342
19.8531
20.0442
19.9336
20.2724
20.1486
20.6508
20.542
21.1849
21.2729
22.0681
23.1714
25.6545
28.998
30.4231
25.4429
20.565
21.0583
17.429
17.1081
14.51
13.235
11.6843
10.0753
8.59076
0.756816
0.996262
1.32795
1.69738
2.10986
2.54695
3.09931
3.72336
4.33258
5.09059
5.76161
6.68645
7.52989
8.65736
9.38037
10.2909
10.7348
11.315
11.36
11.5984
11.6555
12.0772
12.2574
12.564
12.5913
12.7289
12.7443
12.9666
13.1372
13.2369
13.2718
13.2177
13.197
13.2008
13.2743
13.3877
13.5228
13.6439
13.7664
13.881
14.0069
14.1215
14.2303
14.3059
14.374
14.4238
14.478
14.5146
14.5518
14.5697
14.5864
14.5852
14.5818
14.5641
14.5443
14.5146
14.4834
14.4469
14.4104
14.3733
14.3382
14.3049
14.2745
14.2472
14.2235
14.2033
14.1851
14.1695
14.1552
14.1422
14.1294
14.1167
14.1045
14.091
14.0785
14.0632
14.0498
14.0314
14.0153
13.9922
13.9734
13.9456
13.9241
13.8931
13.8688
13.8342
13.8062
13.7664
13.7338
13.6875
13.6499
13.5977
13.5568
13.4995
13.4574
13.3985
13.3574
13.3001
13.2623
13.2058
13.1719
13.1147
13.0857
13.0279
13.004
12.9458
12.9271
12.8689
12.8553
12.7981
12.7892
12.7332
12.728
12.6737
12.6717
12.6192
12.6193
12.5686
12.57
12.5213
12.5234
12.4772
12.4794
12.4357
12.4373
12.3963
12.3969
12.3584
12.3577
12.3219
12.3202
12.2871
12.284
12.2532
12.2485
12.2199
12.214
12.1875
12.1805
12.1561
12.1483
12.1258
12.1171
12.0963
12.0872
12.0677
12.0574
12.0393
12.0274
12.0132
11.9992
11.9898
11.974
11.97
11.9501
11.953
11.9296
11.9406
11.9148
11.9322
11.9049
11.9277
11.9004
11.9257
11.8995
11.9244
11.9006
11.9224
11.9019
11.9185
11.9017
11.91
11.896
11.8972
11.8894
11.885
11.8807
11.8715
11.8688
11.8581
11.8573
11.8449
11.8455
11.833
11.834
11.8206
11.8221
11.8076
11.8094
11.7938
11.7965
11.7797
11.7835
11.7654
11.7713
11.7518
11.7597
11.7388
11.7494
11.7271
11.7399
11.7166
11.7313
11.7072
11.7231
11.6985
11.7145
11.6896
11.7051
11.6805
11.6946
11.6711
11.683
11.661
11.6694
11.6492
11.6538
11.6358
11.6363
11.6204
11.6179
11.6036
11.5992
11.5864
11.5809
11.5694
11.5635
11.5528
11.5467
11.5367
11.5308
11.5216
11.5162
11.5081
11.5025
11.4952
11.489
11.4822
11.4763
11.4699
11.4641
11.4578
11.4521
11.4461
11.4404
11.4345
11.4287
11.4232
11.4178
11.4127
11.4075
11.4025
11.3975
11.3923
11.3871
11.3822
11.3773
11.3726
11.3674
11.3625
11.3574
11.3525
11.3476
11.3428
11.3379
11.3331
11.328
11.3232
11.3182
11.3132
11.3085
11.3036
11.299
11.2941
11.2897
11.2852
11.2807
11.2759
11.2712
11.2666
11.2623
11.2581
11.2537
11.2491
11.2445
11.24
11.2349
11.23
11.2247
11.2196
11.2137
11.2081
11.2021
11.1959
11.1898
11.1832
11.1767
11.1699
11.1633
11.1564
11.15
11.1428
11.1358
11.1283
11.1212
11.1138
11.1067
11.0989
11.0916
11.0836
11.0759
11.0677
11.0601
11.0522
11.0444
11.0367
11.029
11.0215
11.014
11.0067
10.9994
10.9919
10.9845
10.9771
10.9696
10.9622
10.9549
10.9474
10.94
10.9327
10.9253
10.918
10.9108
10.9036
10.8965
10.8894
10.8824
10.8755
10.8688
10.8623
10.8559
10.8498
10.8436
10.8378
10.832
10.8266
10.8213
10.8161
10.8111
10.8063
10.8015
10.797
10.7925
10.7882
10.7842
10.7802
10.7765
10.7729
10.7696
10.7663
10.7635
10.7607
10.7583
10.756
10.7539
10.7521
10.7505
10.7491
10.7478
10.7469
10.746
10.7455
10.7451
10.745
10.745
10.7453
10.7455
10.7461
10.7467
10.7475
10.7485
10.7496
10.7508
10.7521
10.7538
10.7553
10.7574
10.7588
10.7604
10.7616
10.763
10.7645
10.7662
10.7677
10.769
10.7701
10.7718
10.773
10.7748
10.7763
10.7785
10.7803
10.7824
10.7843
10.7862
10.788
10.7901
10.7924
10.7952
10.7974
10.8004
10.8028
10.8055
10.8074
10.8094
10.811
10.8128
10.8139
10.8153
10.8163
10.8172
10.8175
10.8178
10.8179
10.8182
10.8185
10.8184
10.8181
10.8178
10.8175
10.8171
10.8166
10.8161
10.8155
10.8148
10.8138
10.8125
10.8112
10.8098
10.8083
10.8065
10.805
10.8033
10.8016
10.8001
10.7988
10.7976
10.7968
10.7962
10.7956
10.7952
10.7949
10.795
10.7953
10.7956
10.7963
10.797
10.798
10.7992
10.8006
10.802
10.8038
10.8056
10.8077
10.8097
10.8119
10.8141
10.8165
10.8187
10.8211
10.8237
10.8264
10.8292
10.8319
10.8347
10.838
10.841
10.8443
10.8477
10.8509
10.8547
10.8586
10.8621
10.8656
10.8694
10.8734
10.8775
10.8811
10.885
10.889
10.8929
10.8972
10.9013
10.9052
10.9089
10.9126
10.916
10.9193
10.9223
10.9253
10.9281
10.9307
10.9331
10.9351
10.9369
10.9386
10.9401
10.9413
10.9423
10.9432
10.9436
10.9437
10.9435
10.9426
10.9416
10.9407
10.9391
10.9374
10.9334
10.9328
10.9254
10.9323
10.9169
10.9416
10.912
10.9711
10.9217
11.0502
10.982
11.2134
11.1383
11.4931
11.4352
11.9139
11.9378
12.6531
13.4329
15.7841
19.9832
24.998
24.1764
21.7541
21.5824
19.3959
17.9514
15.4228
13.1889
10.8898
8.43469
9.40809
0.609682
0.657384
0.729232
0.822232
0.940092
1.07797
1.23762
1.42139
1.59627
1.8124
1.99433
2.27926
2.55785
3.06386
3.39183
3.90509
4.1451
4.44508
4.41881
4.48152
4.44182
4.71652
4.87362
5.16022
5.25329
5.42932
5.5086
5.69903
5.84844
5.9509
6.02452
6.05897
6.10607
6.17234
6.26826
6.39505
6.54243
6.67576
6.81974
6.96072
7.12025
7.27364
7.43042
7.56165
7.69679
7.82159
7.95653
8.0861
8.21899
8.34473
8.46868
8.5838
8.69405
8.78942
8.8785
8.95518
9.02619
9.08728
9.14278
9.19038
9.23246
9.26838
9.29892
9.32448
9.34491
9.36109
9.37107
9.37732
9.37793
9.3752
9.36699
9.35553
9.33896
9.31899
9.29422
9.26542
9.23256
9.19489
9.15396
9.10753
9.05986
9.00649
8.95502
8.89779
8.84578
8.78827
8.73884
8.68453
8.6398
8.58999
8.55066
8.50559
8.47221
8.43082
8.40273
8.365
8.3419
8.30697
8.28878
8.25669
8.24276
8.21261
8.20223
8.17204
8.16517
8.13476
8.13129
8.10093
8.10062
8.07077
8.07321
8.04422
8.04889
8.02094
8.02734
8.00059
8.00821
7.98266
7.9908
7.9666
7.97512
7.95249
7.96085
7.93981
7.94762
7.92817
7.93513
7.91722
7.92323
7.90683
7.91188
7.89696
7.90097
7.88728
7.89003
7.87745
7.87929
7.86779
7.86864
7.85794
7.85813
7.84831
7.84793
7.83902
7.83827
7.83042
7.82866
7.8218
7.81889
7.81393
7.80907
7.80681
7.8007
7.80212
7.79348
7.79918
7.78829
7.79852
7.7862
7.80019
7.78707
7.80418
7.79125
7.80999
7.79799
7.81674
7.80641
7.82347
7.8153
7.82905
7.82285
7.83195
7.82832
7.83347
7.83339
7.83511
7.83705
7.83592
7.83863
7.83629
7.83993
7.83646
7.84077
7.83651
7.84108
7.83671
7.84125
7.83616
7.84076
7.83482
7.83975
7.8329
7.83824
7.83048
7.83672
7.82806
7.83535
7.82572
7.8344
7.82386
7.83381
7.82264
7.83369
7.82191
7.83366
7.82159
7.83342
7.82119
7.83266
7.82064
7.83119
7.81965
7.82874
7.818
7.82488
7.81506
7.81932
7.81058
7.81229
7.80457
7.80433
7.7973
7.79578
7.78936
7.78709
7.78095
7.77844
7.77282
7.77018
7.76505
7.76237
7.75762
7.75506
7.7508
7.74778
7.74377
7.74059
7.73685
7.73384
7.73034
7.72739
7.72397
7.721
7.71781
7.71483
7.71164
7.70857
7.70558
7.70268
7.69991
7.69714
7.69449
7.69178
7.68906
7.6863
7.68362
7.681
7.6785
7.67572
7.67317
7.67046
7.66793
7.66537
7.66287
7.66035
7.65798
7.65538
7.65301
7.65049
7.64801
7.64566
7.64322
7.64103
7.63864
7.63653
7.63434
7.6322
7.62987
7.62753
7.6253
7.62315
7.62108
7.61898
7.6168
7.61454
7.61232
7.60986
7.60744
7.60474
7.60224
7.59928
7.59649
7.59338
7.59023
7.58696
7.58351
7.58009
7.5764
7.57287
7.56911
7.56557
7.56156
7.55768
7.55338
7.54931
7.54495
7.54084
7.53623
7.53186
7.52697
7.52227
7.51714
7.51235
7.50715
7.5022
7.49693
7.49179
7.48653
7.4814
7.47616
7.47099
7.46572
7.46044
7.45515
7.44976
7.44431
7.43893
7.4334
7.42784
7.42229
7.41669
7.411
7.40544
7.39969
7.39405
7.38828
7.38262
7.37692
7.3713
7.36572
7.36019
7.35483
7.34933
7.34409
7.33879
7.33371
7.3287
7.32369
7.31885
7.31411
7.30934
7.30481
7.30026
7.29581
7.29151
7.28725
7.28317
7.27913
7.2753
7.27153
7.268
7.26453
7.2613
7.25812
7.25519
7.25232
7.24966
7.24718
7.24475
7.24259
7.2405
7.23869
7.23694
7.23548
7.23406
7.23292
7.2318
7.23094
7.23012
7.22951
7.22897
7.22861
7.22832
7.22815
7.22813
7.22817
7.22854
7.22864
7.2289
7.22904
7.22928
7.22957
7.23001
7.2303
7.23063
7.23083
7.23136
7.23171
7.23236
7.23292
7.23379
7.23454
7.23548
7.23628
7.2372
7.23802
7.23904
7.24014
7.24154
7.24277
7.2444
7.24578
7.24739
7.24857
7.24992
7.25101
7.25223
7.25314
7.25417
7.25493
7.25568
7.25606
7.25644
7.25672
7.25707
7.25735
7.25749
7.25743
7.25733
7.25722
7.25707
7.25684
7.25658
7.25617
7.25576
7.25513
7.25435
7.25351
7.25254
7.25154
7.25033
7.24915
7.24792
7.24661
7.24535
7.24423
7.24308
7.24213
7.24129
7.24045
7.2398
7.23912
7.23865
7.2383
7.23801
7.23787
7.23777
7.23786
7.23801
7.23837
7.23877
7.23939
7.24004
7.24089
7.24172
7.24274
7.24369
7.24484
7.24594
7.2471
7.24846
7.2498
7.25134
7.25286
7.2544
7.25614
7.25782
7.25963
7.26147
7.26326
7.26538
7.26752
7.26958
7.27169
7.27392
7.27623
7.27866
7.28091
7.28339
7.28588
7.28845
7.29125
7.29393
7.29658
7.29919
7.3017
7.30411
7.30655
7.30877
7.31096
7.31313
7.31519
7.31707
7.31881
7.32037
7.3219
7.32338
7.32465
7.32575
7.32682
7.32757
7.32804
7.32836
7.32818
7.32788
7.32752
7.32666
7.32587
7.32369
7.32316
7.31858
7.32187
7.31209
7.32571
7.30683
7.34128
7.31126
7.38603
7.34826
7.48345
7.44168
7.65556
7.62939
7.93464
7.96917
8.46682
8.99697
10.7064
14.3398
19.8878
20.7123
20.0887
20.3234
19.9209
19.1147
17.4504
14.7272
11.9383
8.82634
10.2414
0.589065
0.599183
0.616672
0.642539
0.679236
0.726551
0.784656
0.854651
0.922521
0.993794
1.04639
1.13908
1.22969
1.42065
1.59438
1.84568
1.98625
2.13743
2.10349
2.0994
2.08877
2.16541
2.23798
2.39597
2.45761
2.5568
2.5952
2.65777
2.70952
2.74861
2.78272
2.80225
2.82781
2.85826
2.89898
2.94581
3.00375
3.05642
3.11506
3.16859
3.23553
3.29572
3.35906
3.4103
3.46452
3.51666
3.57596
3.63205
3.69675
3.75712
3.82298
3.88433
3.94967
4.01124
4.07576
4.13769
4.20195
4.26446
4.32755
4.3888
4.44992
4.50912
4.5676
4.624
4.67942
4.73282
4.7844
4.8341
4.8823
4.92845
4.97309
5.01545
5.05642
5.09419
5.13072
5.16236
5.1929
5.21738
5.24107
5.25796
5.27551
5.28615
5.29919
5.30563
5.31597
5.32
5.32906
5.33222
5.34058
5.34318
5.35225
5.35617
5.36828
5.3731
5.38432
5.38717
5.39749
5.39837
5.40876
5.40792
5.41891
5.41662
5.42846
5.42602
5.43855
5.43521
5.44852
5.44437
5.45844
5.45377
5.46847
5.4635
5.47857
5.47353
5.48886
5.48386
5.49916
5.49433
5.50943
5.50488
5.51961
5.51549
5.52966
5.52605
5.53942
5.53632
5.54886
5.54626
5.55785
5.55579
5.56648
5.56493
5.57465
5.57338
5.58222
5.58125
5.58939
5.58875
5.5962
5.59623
5.60296
5.6035
5.60954
5.6105
5.61597
5.61727
5.62194
5.62354
5.62729
5.62977
5.63211
5.63593
5.63719
5.64298
5.64284
5.65078
5.64944
5.65993
5.65778
5.67041
5.66779
5.68215
5.67961
5.69493
5.69288
5.70816
5.70701
5.72142
5.72139
5.73393
5.7348
5.74463
5.74729
5.75473
5.75926
5.76457
5.77026
5.77421
5.78012
5.78311
5.78946
5.79171
5.79828
5.79987
5.80645
5.80745
5.814
5.81479
5.82123
5.82153
5.82796
5.82763
5.83413
5.83315
5.83999
5.83837
5.84565
5.84336
5.85128
5.84834
5.8568
5.85338
5.86235
5.85851
5.86775
5.86367
5.87286
5.8686
5.87751
5.87326
5.88154
5.87747
5.88485
5.88106
5.88707
5.88365
5.88806
5.88506
5.88794
5.88528
5.88692
5.88442
5.88525
5.88293
5.88327
5.88123
5.88126
5.87949
5.87935
5.87774
5.87747
5.87592
5.87551
5.87408
5.87335
5.87206
5.87126
5.87004
5.86929
5.8681
5.86731
5.86618
5.86534
5.86427
5.86335
5.86226
5.86124
5.86022
5.85926
5.85831
5.85738
5.8565
5.85558
5.85465
5.85369
5.85279
5.85185
5.85101
5.85002
5.84915
5.84817
5.84731
5.8464
5.84555
5.84466
5.84387
5.84292
5.84212
5.8412
5.84031
5.83949
5.83859
5.83787
5.83704
5.83636
5.8356
5.8349
5.8341
5.8333
5.83258
5.83189
5.83125
5.83064
5.83001
5.82935
5.82871
5.82796
5.82723
5.82633
5.82557
5.82454
5.82359
5.82244
5.82125
5.81995
5.81853
5.81708
5.81545
5.81386
5.8121
5.8104
5.80841
5.80642
5.80416
5.80196
5.79956
5.79723
5.7946
5.79202
5.7891
5.7862
5.78301
5.77992
5.77657
5.77327
5.76975
5.76624
5.76262
5.75902
5.75528
5.7515
5.74759
5.74363
5.73968
5.73567
5.73161
5.72752
5.72332
5.71907
5.71478
5.71043
5.70599
5.70156
5.69701
5.69246
5.68781
5.68319
5.67852
5.67385
5.6692
5.66453
5.65994
5.65525
5.65071
5.64611
5.64162
5.63715
5.6327
5.62832
5.62401
5.61968
5.61549
5.61129
5.60717
5.60312
5.59912
5.59521
5.59132
5.58758
5.58387
5.58033
5.57683
5.57347
5.57016
5.56702
5.56392
5.56095
5.55812
5.55534
5.55274
5.55023
5.54791
5.54564
5.5436
5.5416
5.53982
5.53808
5.53654
5.53504
5.53373
5.53246
5.53135
5.5303
5.52936
5.52853
5.52776
5.52716
5.52652
5.52601
5.52548
5.52502
5.52459
5.52427
5.52387
5.52355
5.52317
5.52301
5.52278
5.52274
5.52267
5.52279
5.52286
5.52305
5.52318
5.52341
5.52358
5.5239
5.52426
5.52483
5.52534
5.52608
5.52672
5.52749
5.52808
5.52877
5.52936
5.53002
5.53054
5.53111
5.53153
5.53193
5.53215
5.53236
5.53251
5.53268
5.53279
5.53283
5.53274
5.53262
5.53246
5.53228
5.53203
5.53176
5.53139
5.53099
5.53045
5.52983
5.52914
5.52836
5.52755
5.52661
5.52565
5.52465
5.5236
5.52255
5.52157
5.52057
5.51968
5.51886
5.51804
5.51733
5.51662
5.51604
5.51554
5.5151
5.51476
5.51448
5.51434
5.51426
5.51434
5.51449
5.51481
5.5152
5.51574
5.51631
5.51701
5.51771
5.51853
5.51936
5.52023
5.52122
5.52222
5.52333
5.52445
5.52558
5.52682
5.52803
5.52931
5.53058
5.53185
5.53323
5.53462
5.53604
5.53751
5.53899
5.54052
5.54212
5.54367
5.54532
5.54702
5.54876
5.55062
5.55243
5.55423
5.55603
5.55777
5.55945
5.56113
5.56271
5.56429
5.56584
5.56731
5.56868
5.57001
5.57118
5.57233
5.57346
5.57446
5.57535
5.57619
5.57684
5.57732
5.57768
5.57774
5.57769
5.57753
5.57708
5.5768
5.57563
5.57527
5.57277
5.57382
5.56861
5.57492
5.56549
5.58302
5.56875
5.60825
5.58921
5.66327
5.64345
5.76382
5.75461
5.93765
5.97395
6.30421
6.67302
7.8609
10.6239
15.432
17.1492
17.2941
17.7176
18.1401
18.4636
18.1183
16.3896
13.5562
10.0631
11.1775
0.58603
0.588417
0.594997
0.604769
0.617221
0.633443
0.654999
0.683631
0.715081
0.744002
0.764421
0.795033
0.836706
0.921253
1.01316
1.13919
1.22366
1.28825
1.2764
1.28522
1.30941
1.35568
1.40341
1.48487
1.53487
1.59713
1.63226
1.67337
1.71279
1.74833
1.78291
1.81571
1.85056
1.88704
1.92499
1.96367
2.0037
2.04301
2.08357
2.12399
2.16742
2.20886
2.25175
2.29371
2.33599
2.37847
2.42139
2.46455
2.50845
2.55238
2.5968
2.64096
2.68512
2.7289
2.77231
2.81532
2.85805
2.90006
2.9421
2.98352
3.0249
3.06574
3.10643
3.14667
3.18678
3.22648
3.26574
3.30444
3.34274
3.38037
3.41752
3.45382
3.48964
3.5243
3.55833
3.59041
3.62173
3.65054
3.6786
3.70375
3.72856
3.75023
3.7722
3.79096
3.81061
3.82696
3.84472
3.859
3.87497
3.88739
3.90193
3.91302
3.92693
3.93731
3.95097
3.96062
3.97416
3.9832
3.99724
4.00577
4.02047
4.02836
4.04374
4.05109
4.06726
4.07468
4.09132
4.09813
4.11449
4.12055
4.13678
4.14238
4.15852
4.16382
4.17986
4.185
4.20087
4.20588
4.22141
4.22633
4.24146
4.24635
4.26095
4.26586
4.27986
4.28482
4.29818
4.30313
4.3159
4.32089
4.33309
4.33817
4.34979
4.35508
4.36606
4.37152
4.38187
4.38749
4.39725
4.40304
4.41227
4.41814
4.42687
4.43281
4.44108
4.44702
4.45471
4.46066
4.46768
4.47397
4.48012
4.48699
4.49231
4.50015
4.50476
4.51368
4.51768
4.52783
4.53143
4.54271
4.54608
4.55831
4.56167
4.57441
4.57796
4.59068
4.5946
4.60685
4.61105
4.62228
4.62734
4.63708
4.64294
4.65123
4.65789
4.66494
4.6722
4.67846
4.68575
4.6914
4.69874
4.70385
4.71121
4.71584
4.72306
4.72722
4.73426
4.73797
4.74488
4.74829
4.7551
4.75815
4.76484
4.76744
4.77414
4.77629
4.78308
4.78474
4.79171
4.79291
4.80006
4.80086
4.80815
4.80862
4.81596
4.81618
4.82342
4.82343
4.8304
4.83031
4.83689
4.83677
4.84276
4.84268
4.84787
4.84784
4.85202
4.85208
4.85536
4.85543
4.85803
4.85822
4.86028
4.86056
4.86223
4.86256
4.86402
4.8644
4.86565
4.86603
4.8671
4.86743
4.86829
4.86863
4.86932
4.86966
4.87027
4.87061
4.87117
4.87146
4.87196
4.87223
4.87263
4.8729
4.87324
4.87347
4.87371
4.87393
4.87416
4.87441
4.87464
4.87489
4.87512
4.87534
4.87555
4.87575
4.87594
4.87617
4.87631
4.87652
4.87664
4.87682
4.877
4.87716
4.87731
4.87751
4.8776
4.87776
4.87785
4.87794
4.87806
4.87813
4.87829
4.87841
4.87861
4.87877
4.87897
4.87912
4.87929
4.87949
4.87973
4.88001
4.88032
4.88064
4.88095
4.88128
4.88153
4.88181
4.88198
4.88221
4.88226
4.88234
4.88226
4.88213
4.88186
4.88148
4.88103
4.88042
4.87975
4.87893
4.87809
4.87701
4.87587
4.87451
4.87312
4.87157
4.86999
4.86818
4.86633
4.86423
4.86208
4.85969
4.85731
4.85471
4.85211
4.84931
4.84649
4.84355
4.84059
4.8375
4.83437
4.83111
4.82777
4.82438
4.82093
4.81743
4.81393
4.81035
4.80671
4.80303
4.79929
4.79547
4.79164
4.78772
4.78377
4.77977
4.77575
4.77169
4.76761
4.76354
4.75944
4.75538
4.75125
4.74721
4.74315
4.73914
4.73515
4.73117
4.72724
4.72336
4.71948
4.7157
4.71192
4.7082
4.70454
4.70092
4.69737
4.69385
4.69042
4.68703
4.68374
4.6805
4.67735
4.67425
4.67125
4.66829
4.66543
4.66266
4.65995
4.65736
4.65486
4.65249
4.65018
4.64803
4.64593
4.64398
4.64209
4.64034
4.63865
4.63708
4.63556
4.63417
4.63283
4.63158
4.63041
4.62931
4.62832
4.62736
4.62649
4.62565
4.62487
4.62413
4.62345
4.62279
4.62218
4.62158
4.62108
4.6206
4.62022
4.61988
4.61965
4.61943
4.61928
4.61912
4.61902
4.61891
4.61889
4.61891
4.61906
4.61918
4.61946
4.61968
4.61998
4.62021
4.6205
4.62076
4.62107
4.62131
4.62157
4.62176
4.62193
4.62201
4.62206
4.62208
4.62211
4.62207
4.62199
4.62183
4.62163
4.6214
4.62115
4.62084
4.62051
4.62011
4.61968
4.61916
4.61858
4.61795
4.61727
4.61656
4.61576
4.61495
4.61411
4.61325
4.61239
4.61157
4.61075
4.61001
4.6093
4.60861
4.608
4.6074
4.6069
4.60647
4.60609
4.60583
4.60563
4.60556
4.60557
4.60572
4.60596
4.60635
4.60683
4.60744
4.60809
4.60885
4.60963
4.61049
4.61136
4.61227
4.61323
4.61419
4.61522
4.61624
4.61726
4.61833
4.61937
4.62046
4.62153
4.62259
4.62369
4.6248
4.62591
4.62704
4.62816
4.62932
4.6305
4.63168
4.6329
4.63414
4.63541
4.63673
4.63802
4.63933
4.64062
4.64188
4.64311
4.64433
4.64548
4.64662
4.64774
4.64879
4.64978
4.65074
4.65161
4.65244
4.65324
4.65396
4.65462
4.65522
4.65572
4.65611
4.65643
4.65657
4.65665
4.65664
4.65647
4.6564
4.65594
4.65578
4.65467
4.65472
4.65233
4.65519
4.6509
4.65968
4.65346
4.67418
4.66627
4.70606
4.6982
4.76557
4.76468
4.87372
4.91011
5.12158
5.37851
6.17416
8.13363
11.8783
13.9121
14.4103
14.9098
15.5974
16.5389
17.1805
16.9786
14.9978
11.6488
12.2
0.585936
0.587403
0.592162
0.599202
0.606096
0.614338
0.622921
0.634879
0.648279
0.660463
0.671562
0.68452
0.703072
0.745179
0.797008
0.871429
0.9338
0.969859
1.00193
1.06973
1.15151
1.20097
1.24583
1.29614
1.33941
1.38549
1.43448
1.4827
1.52876
1.573
1.62042
1.67594
1.7324
1.78866
1.84088
1.89163
1.94135
1.99217
2.04283
2.09417
2.14453
2.19602
2.24689
2.29902
2.35007
2.40151
2.45085
2.49955
2.5457
2.59061
2.63278
2.67299
2.71022
2.74486
2.77646
2.80535
2.83167
2.8559
2.87839
2.89978
2.92066
2.94126
2.96174
2.98204
3.00212
3.02188
3.04117
3.06003
3.07839
3.09632
3.11376
3.13081
3.14742
3.16351
3.17932
3.19424
3.20895
3.22258
3.23607
3.24835
3.26066
3.27171
3.28298
3.29305
3.30354
3.31285
3.32273
3.33141
3.34056
3.34835
3.35696
3.36454
3.37339
3.38113
3.39029
3.39802
3.40741
3.41508
3.42487
3.43253
3.44283
3.45047
3.4613
3.46892
3.48021
3.4879
3.49969
3.50736
3.51953
3.52721
3.53974
3.54759
3.5604
3.56841
3.58144
3.58957
3.60269
3.61072
3.62356
3.6314
3.64398
3.65169
3.66402
3.67166
3.68373
3.69136
3.70313
3.71081
3.72225
3.72996
3.74104
3.74878
3.75949
3.76724
3.77757
3.78533
3.7953
3.80306
3.8127
3.82045
3.82977
3.83747
3.84648
3.85413
3.86283
3.8704
3.87875
3.88623
3.89419
3.90177
3.90926
3.91706
3.92401
3.93222
3.93896
3.94764
3.95415
3.96343
3.96977
3.97961
3.98581
3.99609
4.00223
4.01277
4.0189
4.02943
4.03559
4.04589
4.05217
4.0619
4.0686
4.07753
4.08449
4.09261
4.0998
4.1072
4.11463
4.12152
4.12888
4.13538
4.1426
4.1487
4.15578
4.1615
4.16836
4.17369
4.18033
4.18526
4.19167
4.19623
4.20248
4.20674
4.21282
4.2168
4.22273
4.22636
4.23219
4.23547
4.24124
4.24418
4.24992
4.25255
4.25828
4.26064
4.26631
4.26846
4.27401
4.27595
4.28131
4.28309
4.2882
4.28986
4.29461
4.29619
4.30048
4.30196
4.30569
4.30715
4.31038
4.31188
4.31467
4.31617
4.31859
4.32008
4.32225
4.32371
4.32571
4.32712
4.32894
4.33027
4.33195
4.3332
4.3347
4.33591
4.3373
4.33846
4.33975
4.34087
4.3421
4.34316
4.34431
4.34531
4.34638
4.34736
4.34835
4.34929
4.35022
4.35113
4.35203
4.35295
4.35385
4.35474
4.35563
4.35652
4.35738
4.35824
4.3591
4.35996
4.36078
4.36162
4.36242
4.36324
4.36405
4.36484
4.36563
4.36643
4.36717
4.36792
4.36863
4.36933
4.37004
4.37072
4.37144
4.37214
4.37288
4.37361
4.37436
4.37508
4.37581
4.37656
4.37733
4.37812
4.37892
4.37972
4.38051
4.38128
4.38202
4.38273
4.38335
4.38395
4.38442
4.38483
4.38509
4.38524
4.38524
4.3851
4.38483
4.38438
4.38381
4.38308
4.38226
4.38122
4.38007
4.37873
4.37731
4.37573
4.37407
4.37222
4.37028
4.36815
4.36593
4.36352
4.36106
4.35844
4.35577
4.35295
4.35009
4.34714
4.34415
4.34108
4.33795
4.33473
4.33145
4.32812
4.32474
4.32132
4.31786
4.31436
4.31085
4.30732
4.30375
4.30014
4.29652
4.29284
4.28915
4.28543
4.28169
4.27794
4.27418
4.27042
4.26665
4.2629
4.25914
4.25542
4.25171
4.24805
4.24443
4.24083
4.23729
4.23379
4.23033
4.22694
4.22359
4.22031
4.21708
4.2139
4.21079
4.20772
4.20471
4.20176
4.19887
4.19602
4.19325
4.19051
4.18784
4.18521
4.18266
4.18017
4.17775
4.17541
4.17315
4.17097
4.16887
4.16686
4.16491
4.16306
4.16127
4.15957
4.15793
4.15638
4.15488
4.15346
4.1521
4.15081
4.14958