/*--------------------------------*- C++ -*----------------------------------*\
| =========                 |                                                 |
| \\      /  F ield         | foam-extend: Open Source CFD                    |
|  \\    /   O peration     | Version:     3.2                                |
|   \\  /    A nd           | Web:         http://www.foam-extend.org         |
|    \\/     M anipulation  | For copyright notice see file Copyright         |
\*---------------------------------------------------------------------------*/
FoamFile
{
    version     2.0;
    format      ascii;
    class       volScalarField;
    location    "840";
    object      p;
}
// * * * * * * * * * * * * * * * * * * * * * * * * * * * * * * * * * * * * * //

dimensions      [1 -1 -2 0 0 0 0];

internalField   nonuniform List<scalar> 
33000
(
1160.99
1162
1162.44
1164.78
1165.31
1167.35
1167.89
1169.38
1169.88
1171.3
1171.25
1175.58
1168.9
1176.4
1171.16
1180.06
1172.61
1180.29
1173.3
1181.19
1168.52
1176.04
1168.71
1176.55
1169.87
1174.74
1164.94
1167.55
1163.87
1162.57
1159.56
1153.52
1148.47
1141.91
1136.91
1132.18
1128.59
1124.93
1121.36
1117.84
1114.87
1111.51
1108.76
1105.25
1102.16
1098.51
1095.61
1092.32
1089.65
1086.64
1084.08
1081.31
1078.86
1076.3
1073.97
1071.55
1069.33
1067.05
1064.91
1062.75
1060.72
1058.71
1056.81
1054.96
1053.23
1051.57
1050.03
1048.57
1047.22
1045.94
1044.76
1043.65
1042.61
1041.63
1040.73
1039.85
1039.06
1038.28
1037.59
1036.86
1036.26
1035.58
1035.06
1034.4
1033.95
1033.29
1032.93
1032.24
1031.98
1031.25
1031.1
1030.29
1030.26
1029.38
1029.46
1028.48
1028.7
1027.57
1027.96
1026.65
1027.25
1025.68
1026.53
1024.68
1025.81
1023.68
1025.09
1022.72
1024.36
1021.82
1023.66
1021
1022.97
1020.25
1022.32
1019.59
1021.71
1019.01
1021.14
1018.51
1020.6
1018.1
1020.12
1017.78
1019.67
1017.51
1019.24
1017.29
1018.86
1017.09
1018.5
1016.93
1018.16
1016.79
1017.84
1016.63
1017.53
1016.48
1017.22
1016.32
1016.91
1016.14
1016.59
1015.92
1016.26
1015.67
1015.88
1015.39
1015.43
1015.08
1014.88
1014.79
1014.19
1014.52
1013.37
1014.25
1012.56
1013.99
1011.87
1013.77
1011.36
1013.62
1011.11
1013.56
1011.16
1013.59
1011.48
1013.7
1012.03
1013.87
1012.75
1014.06
1013.49
1014.24
1014.13
1014.51
1014.74
1014.83
1015.3
1015.17
1015.81
1015.54
1016.29
1015.92
1016.74
1016.28
1017.17
1016.6
1017.56
1016.88
1017.93
1017.11
1018.28
1017.29
1018.6
1017.45
1018.93
1017.58
1019.27
1017.72
1019.59
1017.9
1019.94
1018.14
1020.3
1018.46
1020.67
1018.85
1021.05
1019.33
1021.45
1019.9
1021.86
1020.54
1022.27
1021.22
1022.66
1021.91
1023.03
1022.53
1023.4
1023.1
1023.77
1023.61
1024.15
1024.08
1024.53
1024.55
1024.91
1024.99
1025.31
1025.43
1025.72
1025.88
1026.14
1026.33
1026.58
1026.8
1027.04
1027.27
1027.52
1027.75
1027.99
1028.24
1028.5
1028.74
1028.99
1029.25
1029.51
1029.78
1030.04
1030.32
1030.59
1030.87
1031.15
1031.43
1031.72
1032.02
1032.32
1032.63
1032.93
1033.25
1033.57
1033.89
1034.23
1034.56
1034.9
1035.26
1035.61
1035.97
1036.34
1036.71
1037.1
1037.48
1037.88
1038.28
1038.69
1039.1
1039.52
1039.94
1040.37
1040.81
1041.25
1041.68
1042.12
1042.57
1043.02
1043.46
1043.9
1044.35
1044.79
1045.24
1045.68
1046.12
1046.56
1047.01
1047.45
1047.88
1048.31
1048.74
1049.18
1049.6
1050.03
1050.44
1050.86
1051.27
1051.68
1052.07
1052.47
1052.85
1053.23
1053.59
1053.96
1054.31
1054.65
1054.97
1055.28
1055.58
1055.87
1056.15
1056.42
1056.66
1056.89
1057.12
1057.32
1057.51
1057.69
1057.85
1058
1058.14
1058.26
1058.37
1058.47
1058.55
1058.63
1058.69
1058.75
1058.78
1058.82
1058.84
1058.86
1058.87
1058.85
1058.85
1058.83
1058.82
1058.79
1058.75
1058.71
1058.66
1058.61
1058.56
1058.49
1058.42
1058.36
1058.29
1058.22
1058.15
1058.08
1058.01
1057.94
1057.87
1057.8
1057.73
1057.66
1057.58
1057.52
1057.45
1057.38
1057.31
1057.23
1057.16
1057.08
1057.01
1056.93
1056.86
1056.79
1056.72
1056.64
1056.58
1056.51
1056.44
1056.38
1056.32
1056.26
1056.21
1056.17
1056.11
1056.08
1056.02
1055.99
1055.95
1055.93
1055.91
1055.89
1055.87
1055.87
1055.86
1055.87
1055.87
1055.89
1055.91
1055.94
1055.96
1055.99
1056.01
1056.05
1056.08
1056.14
1056.17
1056.23
1056.27
1056.33
1056.36
1056.4
1056.43
1056.47
1056.5
1056.53
1056.55
1056.59
1056.59
1056.61
1056.61
1056.62
1056.62
1056.63
1056.61
1056.59
1056.57
1056.54
1056.5
1056.46
1056.42
1056.37
1056.3
1056.22
1056.12
1056.03
1055.92
1055.79
1055.67
1055.53
1055.38
1055.24
1055.08
1054.91
1054.75
1054.58
1054.41
1054.23
1054.05
1053.87
1053.69
1053.51
1053.33
1053.15
1052.97
1052.8
1052.62
1052.45
1052.28
1052.11
1051.94
1051.78
1051.62
1051.46
1051.31
1051.15
1050.99
1050.84
1050.69
1050.55
1050.4
1050.26
1050.12
1049.99
1049.87
1049.74
1049.62
1049.5
1049.39
1049.29
1049.19
1049.08
1048.99
1048.91
1048.83
1048.76
1048.68
1048.62
1048.56
1048.5
1048.45
1048.4
1048.35
1048.3
1048.26
1048.2
1048.16
1048.11
1048.05
1048
1047.94
1047.86
1047.8
1047.72
1047.62
1047.51
1047.4
1047.24
1047.09
1046.9
1046.68
1046.42
1046.16
1045.77
1045.49
1044.84
1044.69
1043.5
1043.82
1041.47
1043
1038.34
1042.33
1033.92
1042.05
1029.09
1042.82
1025.77
1045.95
1027.43
1053.75
1039.17
1070.38
1069.8
1112.01
1160.01
1268.29
1338.91
1342.95
1344.49
1345.26
1345.7
1346.9
1346.78
1347.8
1347.41
1348.8
1112.04
1113.16
1113.57
1115.94
1116.46
1118.52
1119.06
1120.56
1121.1
1122.6
1122.67
1126.57
1121.95
1128.76
1125.06
1132.85
1127.11
1133.58
1127.23
1133.15
1122.4
1128.46
1121.96
1128.46
1122.25
1125.91
1117.49
1119.19
1115.64
1113.9
1110.75
1104.76
1099.59
1093.18
1088.17
1083.45
1079.79
1076.08
1072.54
1069.04
1066.02
1062.69
1059.86
1056.38
1053.28
1049.7
1046.76
1043.51
1040.79
1037.82
1035.23
1032.48
1030.02
1027.47
1025.12
1022.72
1020.48
1018.21
1016.06
1013.91
1011.88
1009.87
1007.97
1006.13
1004.4
1002.74
1001.2
999.737
998.384
997.108
995.927
994.811
993.779
992.796
991.889
991.015
990.223
989.437
988.744
988.023
987.415
986.743
986.211
985.559
985.094
984.457
984.063
983.416
983.116
982.425
982.226
981.474
981.379
980.563
980.571
979.67
979.801
978.776
979.055
977.865
978.323
976.914
977.588
975.938
976.846
974.961
976.101
974.015
975.363
973.13
974.646
972.318
973.955
971.576
973.301
970.916
972.688
970.339
972.116
969.838
971.588
969.424
971.108
969.085
970.668
968.806
970.26
968.569
969.885
968.362
969.54
968.189
969.218
968.029
968.908
967.864
968.607
967.7
968.306
967.525
968.009
967.332
967.699
967.107
967.369
966.854
967
966.558
966.556
966.24
966.021
965.925
965.364
965.621
964.59
965.31
963.82
965.016
963.167
964.769
962.685
964.598
962.455
964.54
962.501
964.574
962.803
964.704
963.322
964.905
963.999
965.136
964.689
965.356
965.303
965.655
965.88
965.995
966.426
966.346
966.923
966.724
967.4
967.111
967.847
967.477
968.266
967.807
968.652
968.088
969.014
968.328
969.35
968.522
969.669
968.691
969.985
968.835
970.303
968.994
970.619
969.186
970.956
969.435
971.303
969.757
971.673
970.148
972.06
970.623
972.465
971.179
972.888
971.808
973.316
972.469
973.727
973.129
974.118
973.734
974.509
974.282
974.89
974.784
975.278
975.254
975.662
975.713
976.049
976.155
976.453
976.59
976.863
977.034
977.289
977.484
977.73
977.951
978.191
978.419
978.669
978.898
979.146
979.39
979.647
979.891
980.146
980.401
980.663
980.927
981.195
981.468
981.742
982.022
982.299
982.582
982.877
983.176
983.476
983.779
984.082
984.402
984.718
985.043
985.378
985.716
986.055
986.408
986.76
987.125
987.488
987.865
988.25
988.634
989.029
989.433
989.845
990.254
990.671
991.094
991.522
991.959
992.399
992.835
993.274
993.721
994.167
994.609
995.054
995.504
995.945
996.392
996.831
997.275
997.712
998.157
998.596
999.029
999.461
999.895
1000.33
1000.75
1001.18
1001.59
1002
1002.42
1002.82
1003.22
1003.62
1004
1004.38
1004.74
1005.11
1005.45
1005.8
1006.12
1006.43
1006.73
1007.02
1007.29
1007.56
1007.8
1008.04
1008.26
1008.47
1008.66
1008.84
1009
1009.15
1009.29
1009.4
1009.51
1009.62
1009.7
1009.78
1009.84
1009.89
1009.93
1009.97
1009.99
1010
1010.01
1010
1010
1009.98
1009.96
1009.93
1009.9
1009.86
1009.81
1009.76
1009.71
1009.64
1009.57
1009.5
1009.44
1009.37
1009.3
1009.23
1009.16
1009.09
1009.02
1008.95
1008.88
1008.81
1008.73
1008.67
1008.6
1008.53
1008.46
1008.38
1008.31
1008.23
1008.16
1008.09
1008.01
1007.94
1007.87
1007.79
1007.73
1007.66
1007.59
1007.53
1007.47
1007.41
1007.36
1007.32
1007.26
1007.23
1007.18
1007.14
1007.1
1007.08
1007.06
1007.04
1007.02
1007.02
1007.01
1007.02
1007.02
1007.05
1007.06
1007.09
1007.11
1007.14
1007.16
1007.2
1007.24
1007.29
1007.33
1007.38
1007.42
1007.48
1007.51
1007.55
1007.58
1007.62
1007.65
1007.68
1007.7
1007.73
1007.74
1007.76
1007.76
1007.77
1007.77
1007.77
1007.76
1007.74
1007.72
1007.69
1007.65
1007.61
1007.57
1007.52
1007.44
1007.36
1007.27
1007.18
1007.07
1006.94
1006.82
1006.68
1006.53
1006.39
1006.23
1006.06
1005.9
1005.73
1005.56
1005.38
1005.2
1005.02
1004.84
1004.66
1004.48
1004.3
1004.12
1003.95
1003.77
1003.6
1003.43
1003.26
1003.09
1002.93
1002.77
1002.61
1002.46
1002.3
1002.14
1001.99
1001.84
1001.7
1001.55
1001.41
1001.28
1001.14
1001.02
1000.89
1000.77
1000.65
1000.54
1000.44
1000.34
1000.23
1000.15
1000.06
999.981
999.91
999.833
999.772
999.715
999.651
999.603
999.554
999.499
999.455
999.412
999.356
999.312
999.264
999.205
999.149
999.093
999.016
998.947
998.866
998.767
998.661
998.544
998.392
998.238
998.047
997.827
997.569
997.301
996.911
996.629
995.986
995.817
994.663
994.906
992.68
993.978
989.696
993.104
985.58
992.527
981.202
992.975
978.409
995.86
980.544
1003.65
992.53
1020.78
1023.47
1064.2
1110.95
1209.57
1280.91
1293.39
1295.45
1296.34
1296.83
1298.04
1297.95
1298.94
1298.45
1299.72
1063.06
1064.27
1064.68
1067.08
1067.61
1069.66
1070.21
1071.8
1072.39
1073.87
1073.87
1077.49
1073.77
1080.66
1077.99
1085.74
1081.44
1087.44
1081.16
1085.58
1075.48
1080.39
1074.5
1080.16
1074.42
1077.41
1069.76
1070.76
1067.28
1065.3
1061.87
1055.97
1050.78
1044.42
1039.39
1034.7
1030.96
1027.25
1023.72
1020.21
1017.18
1013.84
1010.98
1007.54
1004.41
1000.88
997.912
994.702
991.953
989
986.397
983.654
981.184
978.633
976.284
973.885
971.649
969.373
967.229
965.076
963.044
961.039
959.14
957.299
955.568
953.915
952.371
950.91
949.556
948.28
947.098
945.981
944.948
943.964
943.058
942.181
941.39
940.6
939.91
939.184
938.581
937.901
937.373
936.72
936.254
935.622
935.218
934.584
934.261
933.602
933.363
932.656
932.512
931.748
931.704
930.855
930.932
929.964
930.177
929.06
929.436
928.119
928.69
927.155
927.936
926.191
927.181
925.256
926.434
924.38
925.711
923.574
925.016
922.835
924.359
922.178
923.746
921.6
923.176
921.097
922.651
920.68
922.175
920.335
921.742
920.048
921.341
919.803
920.974
919.589
920.636
919.407
920.321
919.239
920.018
919.067
919.723
918.896
919.429
918.715
919.137
918.516
918.832
918.286
918.506
918.029
918.14
917.728
917.701
917.403
917.174
917.077
916.532
916.755
915.784
916.424
915.04
916.11
914.408
915.849
913.944
915.668
913.723
915.605
913.768
915.644
914.06
915.784
914.562
916.001
915.214
916.252
915.879
916.497
916.475
916.811
917.04
917.162
917.573
917.52
918.066
917.903
918.538
918.293
918.982
918.661
919.396
918.993
919.779
919.278
920.137
919.523
920.468
919.724
920.782
919.899
921.091
920.053
921.401
920.22
921.711
920.419
922.042
920.674
922.386
920.998
922.754
921.39
923.142
921.862
923.552
922.412
923.981
923.032
924.417
923.681
924.84
924.327
925.244
924.921
925.644
925.462
926.033
925.958
926.425
926.425
926.813
926.881
927.203
927.321
927.608
927.755
928.018
928.198
928.446
928.647
928.89
929.111
929.352
929.579
929.829
930.058
930.307
930.55
930.806
931.051
931.307
931.562
931.823
932.088
932.355
932.629
932.902
933.182
933.46
933.744
934.037
934.336
934.635
934.94
935.243
935.562
935.879
936.204
936.538
936.877
937.216
937.569
937.921
938.286
938.65
939.026
939.411
939.795
940.19
940.594
941.006
941.415
941.832
942.255
942.683
943.12
943.559
943.996
944.435
944.881
945.326
945.77
946.213
946.664
947.104
947.551
947.99
948.434
948.872
949.315
949.755
950.188
950.621
951.054
951.488
951.913
952.339
952.751
953.165
953.574
953.984
954.379
954.776
955.156
955.537
955.901
956.265
956.612
956.956
957.275
957.589
957.886
958.176
958.451
958.718
958.961
959.198
959.419
959.623
959.813
959.996
960.154
960.305
960.442
960.563
960.671
960.774
960.857
960.936
960.996
961.05
961.091
961.123
961.146
961.161
961.171
961.161
961.158
961.137
961.122
961.092
961.056
961.02
960.972
960.917
960.864
960.798
960.732
960.664
960.596
960.527
960.457
960.388
960.318
960.249
960.18
960.111
960.04
959.971
959.896
959.83
959.76
959.688
959.617
959.543
959.471
959.395
959.322
959.245
959.173
959.098
959.027
958.955
958.887
958.818
958.756
958.691
958.633
958.572
958.521
958.478
958.426
958.389
958.339
958.302
958.266
958.243
958.222
958.206
958.186
958.184
958.175
958.185
958.186
958.208
958.22
958.25
958.269
958.304
958.327
958.364
958.398
958.451
958.487
958.544
958.582
958.641
958.672
958.715
958.745
958.783
958.809
958.842
958.865
958.896
958.906
958.92
958.924
958.932
958.932
958.935
958.919
958.901
958.878
958.849
958.813
958.774
958.728
958.675
958.604
958.525
958.433
958.336
958.228
958.103
957.978
957.841
957.694
957.546
957.392
957.226
957.064
956.895
956.721
956.544
956.361
956.185
956.005
955.825
955.645
955.465
955.287
955.109
954.935
954.761
954.591
954.421
954.256
954.091
953.932
953.772
953.621
953.461
953.306
953.155
953.006
952.865
952.717
952.576
952.439
952.306
952.183
952.055
951.933
951.819
951.708
951.607
951.502
951.399
951.311
951.23
951.147
951.075
950.999
950.936
950.88
950.817
950.767
950.718
950.664
950.618
950.576
950.521
950.476
950.428
950.37
950.313
950.256
950.18
950.111
950.027
949.93
949.823
949.704
949.554
949.396
949.206
948.986
948.725
948.457
948.066
947.78
947.141
946.959
945.823
946.026
943.866
945.048
940.957
944.081
937.009
943.377
932.882
943.7
930.413
946.523
932.898
954.398
945.201
972.073
976.452
1016.31
1061.69
1151.06
1222.56
1242.53
1246.04
1247.28
1247.83
1249.15
1249.03
1250.09
1249.51
1250.92
1014
1015.38
1015.74
1018.24
1018.77
1020.84
1021.42
1023.16
1023.87
1025.19
1024.91
1027.75
1024.9
1031.27
1030.26
1038.09
1035.77
1041.56
1035.8
1038.23
1028.46
1031.52
1026.13
1030.96
1026.2
1028.66
1022.12
1022.35
1018.81
1016.49
1012.85
1007.15
1001.89
995.671
990.626
985.995
982.184
978.444
974.907
971.452
968.343
965.037
962.096
958.689
955.547
952.085
949.084
945.909
943.129
940.201
937.574
934.851
932.364
929.821
927.464
925.069
922.823
920.557
918.408
916.261
914.229
912.228
910.331
908.493
906.763
905.111
903.568
902.107
900.752
899.474
898.291
897.172
896.138
895.152
894.246
893.367
892.575
891.784
891.093
890.365
889.761
889.08
888.553
887.895
887.434
886.794
886.396
885.762
885.434
884.784
884.527
883.847
883.664
882.948
882.844
882.064
882.059
881.179
881.299
880.284
880.544
879.358
879.783
878.411
879.015
877.464
878.246
876.545
877.488
875.68
876.757
874.882
876.057
874.149
875.398
873.494
874.784
872.915
874.217
872.41
873.696
871.986
873.227
871.633
872.802
871.336
872.411
871.081
872.053
870.856
871.725
870.663
871.42
870.483
871.127
870.302
870.84
870.121
870.555
869.931
870.269
869.724
869.971
869.488
869.65
869.223
869.288
868.915
868.858
868.58
868.344
868.237
867.724
867.888
867.012
867.529
866.304
867.191
865.703
866.91
865.262
866.719
865.052
866.652
865.094
866.699
865.371
866.855
865.847
867.095
866.462
867.373
867.091
867.648
867.664
867.98
868.214
868.349
868.729
868.716
869.215
869.105
869.681
869.499
870.119
869.871
870.53
870.207
870.908
870.498
871.259
870.75
871.583
870.96
871.888
871.145
872.188
871.312
872.488
871.491
872.79
871.7
873.112
871.962
873.452
872.289
873.82
872.682
874.21
873.149
874.626
873.69
875.065
874.295
875.515
874.927
875.952
875.553
876.372
876.133
876.784
876.662
877.183
877.152
877.582
877.614
877.974
878.066
878.368
878.504
878.775
878.938
879.189
879.378
879.62
879.824
880.066
880.287
880.528
880.756
881.004
881.235
881.484
881.727
881.982
882.228
882.483
882.739
883
883.265
883.532
883.806
884.079
884.359
884.637
884.922
885.214
885.513
885.812
886.117
886.421
886.74
887.057
887.382
887.716
888.054
888.394
888.746
889.099
889.463
889.828
890.205
890.589
890.974
891.369
891.772
892.183
892.593
893.01
893.433
893.861
894.297
894.735
895.173
895.612
896.057
896.502
896.946
897.39
897.839
898.28
898.726
899.165
899.609
900.048
900.49
900.929
901.363
901.796
902.229
902.662
903.087
903.512
903.925
904.339
904.748
905.157
905.553
905.949
906.33
906.71
907.074
907.437
907.784
908.127
908.447
908.761
909.057
909.347
909.622
909.888
910.132
910.369
910.59
910.794
910.985
911.166
911.325
911.476
911.612
911.734
911.843
911.945
912.029
912.107
912.168
912.222
912.263
912.296
912.319
912.334
912.343
912.334
912.331
912.311
912.295
912.265
912.23
912.193
912.146
912.092
912.038
911.973
911.907
911.84
911.771
911.703
911.633
911.564
911.494
911.426
911.356
911.287
911.216
911.147
911.073
911.007
910.936
910.865
910.794
910.72
910.648
910.572
910.499
910.423
910.35
910.276
910.205
910.133
910.065
909.996
909.934
909.869
909.812
909.751
909.701
909.656
909.606
909.567
909.519
909.482
909.446
909.423
909.401
909.385
909.367
909.363
909.356
909.364
909.368
909.388
909.401
909.43
909.45
909.483
909.507
909.544
909.579
909.63
909.667
909.723
909.763
909.819
909.851
909.894
909.925
909.962
909.988
910.022
910.044
910.074
910.085
910.099
910.104
910.111
910.112
910.113
910.098
910.081
910.057
910.028
909.993
909.953
909.906
909.853
909.782
909.703
909.612
909.514
909.405
909.281
909.156
909.019
908.873
908.725
908.57
908.406
908.244
908.074
907.901
907.724
907.542
907.365
907.185
907.006
906.826
906.646
906.468
906.291
906.117
905.943
905.773
905.603
905.438
905.273
905.114
904.954
904.802
904.642
904.489
904.337
904.189
904.047
903.9
903.759
903.623
903.49
903.366
903.238
903.118
903.004
902.893
902.791
902.687
902.586
902.497
902.415
902.333
902.26
902.186
902.123
902.065
902.004
901.954
901.904
901.851
901.805
901.761
901.708
901.662
901.612
901.555
901.498
901.439
901.365
901.294
901.209
901.113
901.005
900.884
900.734
900.575
900.382
900.161
899.9
899.628
899.239
898.945
898.318
898.11
897.013
897.141
895.103
896.077
892.321
894.967
888.64
894.086
884.911
894.257
882.943
897.04
885.939
905.122
898.695
923.565
930.579
969.324
1013.87
1094.85
1164.1
1190.07
1195.97
1197.96
1198.7
1200.17
1200.1
1201.19
1200.57
1201.96
964.878
966.455
966.783
969.38
969.928
971.997
972.597
974.561
975.507
976.591
975.462
977.086
974.539
980.932
981.905
990.708
990.334
995.973
990.119
990.668
980.823
982.303
977.139
981.325
977.492
979.799
974.175
973.854
970.268
967.745
963.912
958.393
953.041
946.931
941.883
937.241
933.398
929.643
926.105
922.657
919.505
916.232
913.218
909.863
906.692
903.297
900.262
897.127
894.309
891.414
888.755
886.061
883.548
881.025
878.649
876.267
874.009
871.753
869.598
867.458
865.424
863.426
861.531
859.697
857.969
856.319
854.776
853.314
851.959
850.68
849.497
848.376
847.341
846.353
845.446
844.567
843.774
842.981
842.29
841.56
840.956
840.273
839.744
839.09
838.624
837.989
837.587
836.952
836.625
835.969
835.72
835.031
834.857
834.139
834.026
833.269
833.223
832.397
832.448
831.511
831.683
830.596
830.911
829.662
830.133
828.728
829.355
827.82
828.59
826.965
827.853
826.173
827.15
825.445
826.489
824.791
825.876
824.212
825.31
823.705
824.794
823.277
824.33
822.917
823.91
822.612
823.526
822.349
823.176
822.117
822.855
821.915
822.557
821.727
822.271
821.539
821.991
821.351
821.711
821.155
821.431
820.941
821.137
820.7
820.819
820.43
820.462
820.118
820.037
819.774
819.534
819.418
818.932
819.052
818.246
818.674
817.567
818.319
816.988
818.025
816.564
817.827
816.362
817.758
816.402
817.81
816.667
817.977
817.124
818.232
817.712
818.528
818.315
818.826
818.871
819.173
819.409
819.552
819.912
819.927
820.393
820.322
820.853
820.718
821.288
821.091
821.694
821.431
822.069
821.727
822.415
821.983
822.734
822.201
823.035
822.393
823.327
822.57
823.62
822.758
823.916
822.975
824.233
823.242
824.571
823.572
824.938
823.965
825.33
824.428
825.751
824.963
826.197
825.556
826.655
826.175
827.103
826.787
827.535
827.356
827.956
827.878
828.362
828.362
828.765
828.822
829.161
829.27
829.559
829.708
829.967
830.14
830.384
830.578
830.817
831.023
831.264
831.485
831.726
831.954
832.202
832.434
832.683
832.925
833.18
833.427
833.682
833.938
834.199
834.464
834.731
835.004
835.278
835.557
835.836
836.121
836.413
836.712
837.011
837.316
837.621
837.939
838.256
838.582
838.915
839.254
839.594
839.946
840.299
840.663
841.029
841.405
841.788
842.174
842.57
842.972
843.383
843.793
844.21
844.633
845.061
845.496
845.933
846.371
846.811
847.255
847.699
848.144
848.587
849.036
849.477
849.923
850.362
850.806
851.245
851.686
852.125
852.559
852.993
853.425
853.858
854.283
854.708
855.121
855.535
855.943
856.352
856.748
857.144
857.525
857.905
858.269
858.631
858.978
859.32
859.64
859.954
860.251
860.541
860.815
861.08
861.325
861.561
861.782
861.987
862.177
862.358
862.518
862.669
862.805
862.927
863.036
863.138
863.222
863.3
863.362
863.416
863.457
863.49
863.514
863.529
863.538
863.53
863.527
863.507
863.49
863.461
863.427
863.389
863.342
863.289
863.235
863.17
863.105
863.038
862.969
862.901
862.831
862.763
862.693
862.625
862.555
862.487
862.416
862.347
862.274
862.206
862.136
862.065
861.994
861.921
861.848
861.773
861.7
861.624
861.552
861.477
861.407
861.334
861.267
861.198
861.136
861.071
861.014
860.955
860.904
860.858
860.809
860.77
860.723
860.686
860.651
860.627
860.605
860.589
860.572
860.568
860.562
860.569
860.573
860.592
860.606
860.634
860.655
860.688
860.712
860.75
860.784
860.835
860.872
860.928
860.967
861.022
861.055
861.098
861.129
861.166
861.193
861.227
861.249
861.278
861.289
861.304
861.309
861.316
861.317
861.316
861.303
861.285
861.262
861.233
861.198
861.158
861.11
861.056
860.986
860.907
860.816
860.718
860.609
860.486
860.361
860.224
860.079
859.93
859.776
859.612
859.449
859.28
859.107
858.931
858.749
858.573
858.393
858.214
858.034
857.854
857.677
857.499
857.326
857.152
856.982
856.812
856.648
856.483
856.324
856.164
856.011
855.853
855.699
855.548
855.399
855.257
855.111
854.97
854.835
854.702
854.578
854.451
854.331
854.217
854.106
854.004
853.9
853.801
853.712
853.629
853.548
853.475
853.402
853.338
853.28
853.22
853.169
853.119
853.067
853.02
852.975
852.923
852.877
852.826
852.77
852.713
852.652
852.579
852.507
852.421
852.325
852.215
852.094
851.944
851.782
851.589
851.367
851.105
850.829
850.443
850.14
849.523
849.293
848.229
848.295
846.359
847.174
843.679
845.976
840.211
845.002
836.803
845.12
835.255
847.962
838.714
856.325
851.97
875.57
884.416
922.142
965.588
1039.23
1105.96
1136.5
1145.17
1148.21
1149.31
1151.04
1151.02
1152.26
1151.65
1153.19
915.667
917.518
917.766
920.512
921.074
923.151
923.779
926.004
927.305
928.21
925.969
925.398
922.453
928.916
932.533
943.252
946.107
951.939
944.879
942.095
931.561
931.881
927.731
931.829
928.99
930.879
925.784
924.936
921.511
918.986
915.116
909.622
904.203
898.135
893.109
888.493
884.636
880.865
877.346
873.874
870.694
867.424
864.372
861.033
857.864
854.508
851.466
848.35
845.521
842.635
839.969
837.28
834.761
832.241
829.857
827.481
825.216
822.966
820.808
818.679
816.643
814.651
812.757
810.925
809.199
807.549
806.006
804.548
803.192
801.914
800.727
799.608
798.568
797.583
796.671
795.795
794.994
794.209
793.506
792.786
792.169
791.497
790.954
790.31
789.834
789.207
788.796
788.172
787.832
787.191
786.922
786.255
786.054
785.364
785.219
784.499
784.408
783.638
783.619
782.762
782.844
781.858
782.062
780.937
781.274
780.016
780.487
779.121
779.716
778.274
778.974
777.488
778.268
776.765
777.606
776.113
776.994
775.534
776.43
775.025
775.918
774.593
775.458
774.226
775.045
773.914
774.668
773.643
774.325
773.403
774.011
773.192
773.72
772.996
773.441
772.802
773.167
772.606
772.894
772.403
772.619
772.184
772.328
771.938
772.014
771.662
771.66
771.344
771.243
770.992
770.751
770.623
770.167
770.239
769.509
769.844
768.858
769.473
768.303
769.168
767.897
768.965
767.703
768.895
767.74
768.952
767.993
769.13
768.429
769.399
768.988
769.714
769.565
770.032
770.104
770.392
770.63
770.78
771.124
771.165
771.596
771.565
772.051
771.963
772.482
772.339
772.885
772.682
773.256
772.982
773.598
773.244
773.912
773.469
774.207
773.67
774.492
773.856
774.778
774.053
775.07
774.279
775.381
774.551
775.716
774.883
776.083
775.277
776.478
775.737
776.904
776.263
777.357
776.845
777.823
777.45
778.282
778.048
778.725
778.606
779.154
779.12
779.568
779.6
779.975
780.056
780.376
780.503
780.777
780.937
781.189
781.368
781.608
781.804
782.043
782.25
782.49
782.711
782.953
783.181
783.428
783.661
783.91
784.153
784.407
784.654
784.91
785.165
785.426
785.691
785.959
786.232
786.505
786.785
787.064
787.35
787.641
787.94
788.239
788.544
788.849
789.167
789.484
789.811
790.143
790.482
790.823
791.175
791.528
791.892
792.258
792.634
793.017
793.404
793.799
794.202
794.611
795.022
795.439
795.862
796.289
796.724
797.161
797.599
798.038
798.482
798.925
799.37
799.813
800.261
800.702
801.148
801.587
802.03
802.469
802.91
803.349
803.783
804.217
804.649
805.082
805.507
805.931
806.345
806.759
807.167
807.575
807.971
808.366
808.747
809.126
809.49
809.852
810.199
810.54
810.861
811.174
811.471
811.761
812.034
812.3
812.544
812.781
813.001
813.206
813.396
813.577
813.737
813.889
814.024
814.147
814.257
814.358
814.443
814.521
814.583
814.637
814.679
814.712
814.736
814.751
814.76
814.754
814.75
814.731
814.714
814.685
814.652
814.613
814.567
814.514
814.46
814.396
814.332
814.265
814.197
814.129
814.059
813.991
813.922
813.854
813.785
813.716
813.645
813.576
813.504
813.436
813.366
813.296
813.224
813.151
813.079
813.004
812.931
812.855
812.783
812.709
812.639
812.567
812.5
812.431
812.369
812.305
812.247
812.189
812.138
812.092
812.044
812.004
811.958
811.922
811.888
811.864
811.841
811.825
811.809
811.804
811.799
811.806
811.811
811.829
811.844
811.871
811.892
811.924
811.95
811.987
812.022
812.072
812.109
812.164
812.204
812.258
812.292
812.335
812.366
812.403
812.43
812.464
812.486
812.514
812.527
812.541
812.547
812.554
812.555
812.553
812.54
812.523
812.499
812.471
812.436
812.396
812.347
812.293
812.223
812.144
812.053
811.955
811.846
811.724
811.599
811.462
811.318
811.169
811.015
810.851
810.689
810.52
810.347
810.171
809.991
809.815
809.635
809.456
809.277
809.097
808.92
808.743
808.57
808.396
808.226
808.057
807.893
807.728
807.569
807.409
807.255
807.098
806.945
806.793
806.645
806.502
806.358
806.217
806.082
805.949
805.825
805.699
805.58
805.466
805.356
805.254
805.151
805.053
804.964
804.881
804.801
804.728
804.656
804.592
804.533
804.474
804.422
804.372
804.321
804.273
804.228
804.177
804.129
804.078
804.022
803.965
803.904
803.831
803.758
803.672
803.575
803.464
803.341
803.191
803.028
802.833
802.61
802.346
802.067
801.683
801.37
800.767
800.51
799.487
799.482
797.662
798.301
795.098
797.02
791.867
795.971
788.819
796.075
787.74
799.041
791.73
807.785
805.572
827.903
838.744
875.402
917.926
985.242
1048.28
1082.04
1093.64
1098.01
1099.63
1101.68
1101.83
1103.24
1102.73
1104.49
866.38
868.588
868.777
871.68
872.252
874.328
874.929
877.446
879.176
879.922
876.551
873.609
869.108
874.813
880.879
894.481
902.03
909.729
901.781
894.761
881.502
879.535
876.265
881.212
880.244
882.387
877.787
876.336
872.796
870.146
866.267
860.831
855.365
849.334
844.336
839.742
835.879
832.101
828.576
825.098
821.909
818.607
815.553
812.209
809.069
805.723
802.698
799.578
796.755
793.866
791.201
788.51
785.992
783.469
781.086
778.709
776.443
774.195
772.037
769.913
767.879
765.893
764.001
762.173
760.449
758.801
757.261
755.804
754.447
753.169
751.981
750.86
749.82
748.831
747.92
747.039
746.243
745.449
744.754
744.023
743.416
742.732
742.198
741.545
741.076
740.442
740.036
739.409
739.065
738.438
738.139
737.515
737.266
736.628
736.427
735.763
735.613
734.902
734.822
734.031
734.039
733.137
733.249
732.227
732.453
731.318
731.66
730.432
730.884
729.594
730.139
728.813
729.432
728.094
728.769
727.445
728.157
726.866
727.596
726.356
727.088
725.92
726.632
725.548
726.223
725.23
725.853
724.952
725.516
724.706
725.208
724.489
724.922
724.286
724.649
724.086
724.38
723.885
724.112
723.676
723.841
723.452
723.554
723.202
723.243
722.922
722.892
722.599
722.481
722.24
722
721.86
721.431
721.463
720.797
721.055
720.17
720.673
719.635
720.36
719.246
720.153
719.058
720.082
719.092
720.144
719.334
720.33
719.752
720.611
720.287
720.939
720.843
721.274
721.368
721.646
721.885
722.039
722.372
722.433
722.836
722.837
723.286
723.238
723.714
723.615
724.113
723.96
724.481
724.265
724.819
724.531
725.13
724.763
725.42
724.97
725.701
725.165
725.981
725.37
726.269
725.602
726.577
725.88
726.911
726.214
727.277
726.607
727.675
727.064
728.104
727.585
728.562
728.157
729.035
728.75
729.503
729.336
729.955
729.885
730.391
730.393
730.811
730.869
731.222
731.323
731.627
731.767
732.032
732.199
732.446
732.63
732.867
733.065
733.302
733.512
733.751
733.972
734.213
734.442
734.688
734.922
735.171
735.414
735.668
735.916
736.172
736.428
736.688
736.953
737.221
737.494
737.767
738.047
738.327
738.613
738.904
739.202
739.501
739.807
740.112
740.429
740.747
741.074
741.406
741.745
742.086
742.438
742.791
743.156
743.522
743.898
744.281
744.668
745.064
745.465
745.874
746.285
746.702
747.125
747.553
747.986
748.422
748.86
749.3
749.743
750.186
750.63
751.073
751.52
751.961
752.407
752.846
753.289
753.728
754.169
754.607
755.041
755.476
755.907
756.339
756.764
757.188
757.602
758.017
758.424
758.832
759.227
759.622
760.003
760.382
760.746
761.108
761.453
761.794
762.114
762.428
762.725
763.014
763.288
763.553
763.798
764.034
764.253
764.459
764.649
764.83
764.991
765.143
765.278
765.402
765.511
765.613
765.698
765.776
765.838
765.893
765.935
765.969
765.993
766.008
766.017
766.013
766.008
765.99
765.973
765.945
765.911
765.873
765.827
765.775
765.721
765.658
765.594
765.528
765.46
765.393
765.324
765.256
765.186
765.119
765.05
764.982
764.911
764.842
764.771
764.703
764.633
764.562
764.491
764.418
764.346
764.272
764.199
764.124
764.052
763.978
763.908
763.836
763.77
763.701
763.639
763.576
763.519
763.461
763.41
763.364
763.316
763.276
763.231
763.196