/*--------------------------------*- C++ -*----------------------------------*\
| =========                 |                                                 |
| \\      /  F ield         | foam-extend: Open Source CFD                    |
|  \\    /   O peration     | Version:     3.2                                |
|   \\  /    A nd           | Web:         http://www.foam-extend.org         |
|    \\/     M anipulation  | For copyright notice see file Copyright         |
\*---------------------------------------------------------------------------*/
FoamFile
{
    version     2.0;
    format      ascii;
    class       volScalarField;
    location    "840";
    object      pd;
}
// * * * * * * * * * * * * * * * * * * * * * * * * * * * * * * * * * * * * * //

dimensions      [1 -1 -2 0 0 0 0];

internalField   nonuniform List<scalar> 
33000
(
1185.24
1185.9
1185.98
1187.97
1188.14
1189.83
1190.01
1191.14
1191.29
1192.3
1191.34
1195.63
1188.25
1194.97
1189.1
1197.61
1190.08
1197.59
1190.24
1199.22
1188.09
1196.11
1188.92
1196.83
1190.85
1197.76
1190.75
1194.63
1192.64
1193.34
1193.91
1192.62
1192.73
1191.49
1191.29
1190.73
1190.74
1190.51
1190.32
1189.95
1190
1189.54
1189.68
1189.18
1189.19
1188.6
1188.63
1188.14
1188.15
1187.75
1187.69
1187.35
1187.25
1186.95
1186.82
1186.55
1186.41
1186.16
1186
1185.76
1185.59
1185.38
1185.21
1185.03
1184.86
1184.69
1184.55
1184.39
1184.26
1184.13
1184.01
1183.89
1183.78
1183.67
1183.57
1183.46
1183.38
1183.25
1183.19
1183.06
1183.02
1182.86
1182.85
1182.67
1182.69
1182.46
1182.53
1182.25
1182.39
1182.03
1182.25
1181.81
1182.13
1181.58
1182.01
1181.35
1181.91
1181.1
1181.83
1180.83
1181.79
1180.54
1181.75
1180.23
1181.72
1179.92
1181.68
1179.63
1181.62
1179.38
1181.53
1179.16
1181.42
1178.97
1181.3
1178.8
1181.16
1178.67
1181
1178.56
1180.82
1178.48
1180.62
1178.42
1180.42
1178.38
1180.2
1178.35
1179.99
1178.31
1179.78
1178.29
1179.56
1178.26
1179.36
1178.21
1179.15
1178.17
1178.95
1178.12
1178.76
1178.06
1178.57
1177.98
1178.39
1177.9
1178.2
1177.83
1177.99
1177.79
1177.71
1177.82
1177.36
1177.92
1176.93
1178.04
1176.5
1178.13
1176.12
1178.17
1175.83
1178.15
1175.64
1178.05
1175.57
1177.86
1175.62
1177.62
1175.76
1177.31
1175.98
1176.99
1176.21
1176.69
1176.36
1176.46
1176.45
1176.28
1176.51
1176.12
1176.52
1176
1176.51
1175.9
1176.49
1175.8
1176.47
1175.69
1176.45
1175.57
1176.44
1175.43
1176.44
1175.28
1176.45
1175.12
1176.47
1174.94
1176.49
1174.78
1176.5
1174.63
1176.5
1174.5
1176.47
1174.42
1176.41
1174.37
1176.33
1174.36
1176.21
1174.4
1176.06
1174.47
1175.88
1174.57
1175.69
1174.68
1175.5
1174.75
1175.34
1174.79
1175.2
1174.8
1175.09
1174.79
1174.99
1174.78
1174.9
1174.75
1174.83
1174.72
1174.76
1174.68
1174.71
1174.65
1174.65
1174.62
1174.61
1174.58
1174.57
1174.54
1174.53
1174.5
1174.49
1174.46
1174.45
1174.42
1174.41
1174.39
1174.36
1174.35
1174.32
1174.31
1174.29
1174.26
1174.25
1174.23
1174.21
1174.2
1174.17
1174.16
1174.15
1174.13
1174.12
1174.11
1174.09
1174.08
1174.06
1174.06
1174.04
1174.03
1174.02
1174.01
1174
1173.99
1173.98
1173.97
1173.95
1173.94
1173.93
1173.92
1173.91
1173.89
1173.88
1173.87
1173.86
1173.84
1173.83
1173.82
1173.81
1173.8
1173.79
1173.78
1173.77
1173.76
1173.76
1173.75
1173.74
1173.74
1173.73
1173.72
1173.72
1173.71
1173.71
1173.7
1173.7
1173.69
1173.68
1173.67
1173.67
1173.65
1173.64
1173.63
1173.62
1173.6
1173.58
1173.56
1173.55
1173.52
1173.51
1173.48
1173.46
1173.43
1173.41
1173.38
1173.35
1173.32
1173.29
1173.26
1173.23
1173.2
1173.17
1173.13
1173.1
1173.06
1173.02
1172.98
1172.94
1172.9
1172.86
1172.83
1172.78
1172.74
1172.69
1172.66
1172.61
1172.56
1172.52
1172.48
1172.43
1172.39
1172.34
1172.29
1172.24
1172.19
1172.15
1172.1
1172.05
1172.01
1171.96
1171.91
1171.87
1171.82
1171.77
1171.72
1171.67
1171.62
1171.57
1171.52
1171.47
1171.42
1171.37
1171.32
1171.26
1171.21
1171.16
1171.11
1171.06
1171.01
1170.96
1170.91
1170.86
1170.81
1170.76
1170.71
1170.67
1170.61
1170.58
1170.52
1170.48
1170.43
1170.39
1170.35
1170.3
1170.25
1170.22
1170.16
1170.13
1170.08
1170.04
1169.99
1169.96
1169.91
1169.88
1169.83
1169.79
1169.74
1169.71
1169.66
1169.63
1169.58
1169.56
1169.51
1169.47
1169.43
1169.39
1169.34
1169.3
1169.25
1169.22
1169.16
1169.12
1169.06
1169.02
1168.96
1168.91
1168.85
1168.8
1168.74
1168.68
1168.62
1168.55
1168.49
1168.43
1168.35
1168.28
1168.21
1168.14
1168.06
1167.98
1167.9
1167.83
1167.74
1167.66
1167.58
1167.49
1167.42
1167.33
1167.25
1167.17
1167.09
1167.01
1166.93
1166.86
1166.78
1166.7
1166.63
1166.56
1166.49
1166.42
1166.35
1166.29
1166.22
1166.16
1166.1
1166.04
1165.99
1165.93
1165.88
1165.83
1165.78
1165.74
1165.7
1165.66
1165.62
1165.59
1165.56
1165.53
1165.5
1165.47
1165.45
1165.43
1165.41
1165.38
1165.36
1165.34
1165.32
1165.3
1165.27
1165.25
1165.24
1165.21
1165.19
1165.17
1165.13
1165.11
1165.09
1165.05
1165.02
1164.99
1164.95
1164.92
1164.89
1164.84
1164.8
1164.76
1164.71
1164.67
1164.63
1164.57
1164.52
1164.47
1164.41
1164.34
1164.31
1164.19
1164.24
1163.95
1164.26
1163.54
1164.51
1162.74
1165.23
1161.26
1166.59
1158.9
1168.44
1155.87
1170.43
1152.67
1171.91
1150.37
1172.15
1150.43
1170.81
1153.59
1168.29
1167.38
1173.28
1175.65
1174.96
1176.19
1176.59
1176.67
1177.51
1177.04
1177.7
1176.95
1177.99
1185.14
1185.91
1185.96
1187.98
1188.14
1189.85
1190.03
1191.15
1191.3
1192.32
1191.46
1194.92
1189.17
1194.62
1189.77
1196.76
1190.65
1197.01
1190.76
1198.12
1189.04
1195.77
1189.56
1196.35
1191.13
1196.96
1191.24
1194.44
1192.7
1193.19
1193.74
1192.56
1192.64
1191.55
1191.35
1190.81
1190.78
1190.52
1190.34
1189.99
1190
1189.57
1189.65
1189.18
1189.17
1188.64
1188.62
1188.18
1188.15
1187.78
1187.69
1187.37
1187.25
1186.97
1186.82
1186.57
1186.41
1186.17
1186
1185.77
1185.6
1185.4
1185.22
1185.04
1184.88
1184.71
1184.56
1184.41
1184.28
1184.14
1184.02
1183.9
1183.79
1183.68
1183.58
1183.47
1183.38
1183.26
1183.2
1183.07
1183.02
1182.87
1182.85
1182.68
1182.68
1182.48
1182.52
1182.28
1182.37
1182.06
1182.23
1181.84
1182.1
1181.62
1181.97
1181.4
1181.86
1181.16
1181.77
1180.9
1181.71
1180.62
1181.65
1180.34
1181.6
1180.05
1181.54
1179.78
1181.46
1179.54
1181.37
1179.33
1181.25
1179.14
1181.13
1178.98
1180.98
1178.85
1180.82
1178.73
1180.65
1178.65
1180.47
1178.58
1180.27
1178.53
1180.07
1178.48
1179.87
1178.43
1179.67
1178.39
1179.47
1178.35
1179.27
1178.29
1179.08
1178.24
1178.89
1178.17
1178.71
1178.1
1178.53
1178.02
1178.36
1177.93
1178.18
1177.85
1177.97
1177.8
1177.71
1177.8
1177.39
1177.86
1177
1177.94
1176.61
1178
1176.28
1178.02
1176
1177.97
1175.83
1177.87
1175.76
1177.7
1175.79
1177.48
1175.9
1177.21
1176.07
1176.92
1176.26
1176.66
1176.37
1176.46
1176.44
1176.29
1176.48
1176.15
1176.49
1176.04
1176.47
1175.94
1176.45
1175.85
1176.42
1175.74
1176.39
1175.63
1176.38
1175.5
1176.36
1175.36
1176.36
1175.21
1176.37
1175.05
1176.38
1174.9
1176.37
1174.76
1176.36
1174.65
1176.32
1174.57
1176.27
1174.52
1176.19
1174.5
1176.08
1174.53
1175.94
1174.58
1175.78
1174.66
1175.61
1174.74
1175.44
1174.8
1175.3
1174.82
1175.17
1174.82
1175.07
1174.81
1174.97
1174.79
1174.89
1174.76
1174.82
1174.72
1174.76
1174.69
1174.7
1174.65
1174.65
1174.62
1174.61
1174.58
1174.57
1174.54
1174.53
1174.5
1174.49
1174.46
1174.45
1174.43
1174.41
1174.39
1174.37
1174.35
1174.33
1174.31
1174.29
1174.27
1174.25
1174.23
1174.21
1174.2
1174.18
1174.16
1174.15
1174.13
1174.12
1174.11
1174.09
1174.08
1174.07
1174.06
1174.04
1174.03
1174.02
1174.01
1174
1173.99
1173.98
1173.97
1173.96
1173.94
1173.93
1173.92
1173.91
1173.89
1173.88
1173.87
1173.86
1173.84
1173.83
1173.82
1173.81
1173.8
1173.79
1173.78
1173.77
1173.76
1173.76
1173.75
1173.74
1173.74
1173.73
1173.73
1173.72
1173.71
1173.71
1173.7
1173.7
1173.69
1173.68
1173.67
1173.66
1173.65
1173.64
1173.63
1173.62
1173.6
1173.58
1173.56
1173.54
1173.52
1173.5
1173.48
1173.45
1173.43
1173.4
1173.38
1173.35
1173.32
1173.29
1173.26
1173.23
1173.19
1173.16
1173.13
1173.09
1173.06
1173.02
1172.98
1172.94
1172.9
1172.86
1172.82
1172.78
1172.74
1172.69
1172.65
1172.61
1172.56
1172.52
1172.47
1172.43
1172.38
1172.34
1172.29
1172.24
1172.19
1172.15
1172.1
1172.05
1172.01
1171.96
1171.91
1171.87
1171.82
1171.77
1171.72
1171.67
1171.62
1171.57
1171.52
1171.47
1171.42
1171.37
1171.32
1171.26
1171.21
1171.16
1171.11
1171.06
1171.01
1170.96
1170.91
1170.86
1170.81
1170.76
1170.71
1170.67
1170.62
1170.58
1170.52
1170.48
1170.43
1170.39
1170.35
1170.3
1170.25
1170.22
1170.17
1170.13
1170.08
1170.04
1170
1169.96
1169.91
1169.88
1169.83
1169.79
1169.75
1169.71
1169.67
1169.63
1169.59
1169.56
1169.51
1169.47
1169.43
1169.39
1169.34
1169.3
1169.25
1169.21
1169.16
1169.12
1169.06
1169.02
1168.96
1168.91
1168.85
1168.8
1168.74
1168.68
1168.62
1168.55
1168.49
1168.42
1168.35
1168.28
1168.21
1168.14
1168.06
1167.98
1167.9
1167.82
1167.74
1167.66
1167.58
1167.49
1167.42
1167.33
1167.25
1167.17
1167.09
1167.01
1166.93
1166.86
1166.78
1166.7
1166.63
1166.56
1166.49
1166.42
1166.35
1166.29
1166.22
1166.16
1166.1
1166.04
1165.99
1165.93
1165.88
1165.83
1165.78
1165.74
1165.7
1165.66
1165.62
1165.59
1165.56
1165.53
1165.5
1165.47
1165.45
1165.43
1165.4
1165.38
1165.36
1165.34
1165.32
1165.3
1165.28
1165.26
1165.24
1165.21
1165.19
1165.17
1165.14
1165.11
1165.09
1165.05
1165.02
1164.99
1164.95
1164.92
1164.89
1164.84
1164.8
1164.76
1164.71
1164.67
1164.62
1164.57
1164.52
1164.46
1164.41
1164.34
1164.3
1164.18
1164.23
1163.95
1164.23
1163.56
1164.44
1162.83
1165.04
1161.52
1166.16
1159.47
1167.69
1156.86
1169.32
1154.14
1170.52
1152.22
1170.71
1152.38
1169.72
1155.55
1168.87
1168.16
1173.09
1175.64
1174.91
1176.18
1176.6
1176.69
1177.53
1177.07
1177.7
1176.85
1177.77
1185.02
1185.87
1185.92
1187.97
1188.15
1189.85
1190.01
1191.17
1191.31
1192.28
1191.46
1194.54
1189.57
1194.61
1190.09
1196.26
1190.93
1196.64
1190.96
1197.5
1189.6
1195.53
1190.01
1196.01
1191.36
1196.51
1191.51
1194.27
1192.76
1193.24
1193.57
1192.52
1192.63
1191.59
1191.37
1190.87
1190.79
1190.53
1190.35
1190.01
1190
1189.58
1189.63
1189.2
1189.15
1188.66
1188.61
1188.21
1188.15
1187.8
1187.7
1187.38
1187.26
1186.98
1186.83
1186.57
1186.42
1186.17
1186.01
1185.78
1185.61
1185.4
1185.23
1185.04
1184.88
1184.71
1184.57
1184.41
1184.28
1184.15
1184.03
1183.9
1183.8
1183.68
1183.59
1183.47
1183.39
1183.27
1183.2
1183.07
1183.02
1182.87
1182.85
1182.68
1182.68
1182.49
1182.51
1182.29
1182.36
1182.08
1182.21
1181.86
1182.07
1181.65
1181.94
1181.42
1181.83
1181.19
1181.74
1180.94
1181.66
1180.67
1181.6
1180.4
1181.53
1180.12
1181.46
1179.86
1181.38
1179.63
1181.27
1179.43
1181.16
1179.24
1181.02
1179.08
1180.88
1178.95
1180.72
1178.83
1180.55
1178.74
1180.38
1178.67
1180.19
1178.61
1179.99
1178.55
1179.8
1178.5
1179.61
1178.45
1179.41
1178.4
1179.23
1178.34
1179.04
1178.27
1178.86
1178.2
1178.68
1178.13
1178.51
1178.04
1178.34
1177.95
1178.16
1177.87
1177.96
1177.8
1177.71
1177.79
1177.4
1177.83
1177.04
1177.89
1176.68
1177.93
1176.36
1177.93
1176.1
1177.87
1175.93
1177.77
1175.86
1177.61
1175.88
1177.4
1175.97
1177.15
1176.12
1176.89
1176.28
1176.64
1176.38
1176.46
1176.44
1176.3
1176.47
1176.17
1176.47
1176.06
1176.45
1175.97
1176.42
1175.87
1176.39
1175.77
1176.36
1175.66
1176.34
1175.54
1176.32
1175.41
1176.31
1175.27
1176.31
1175.11
1176.31
1174.97
1176.3
1174.84
1176.28
1174.73
1176.25
1174.65
1176.19
1174.6
1176.11
1174.58
1176
1174.6
1175.87
1174.64
1175.73
1174.71
1175.57
1174.78
1175.41
1174.82
1175.28
1174.84
1175.16
1174.84
1175.06
1174.82
1174.96
1174.8
1174.88
1174.77
1174.82
1174.73
1174.75
1174.69
1174.7
1174.66
1174.65
1174.62
1174.61
1174.58
1174.57
1174.54
1174.53
1174.5
1174.49
1174.46
1174.45
1174.43
1174.41
1174.39
1174.37
1174.35
1174.33
1174.31
1174.29
1174.27
1174.25
1174.23
1174.21
1174.2
1174.18
1174.16
1174.15
1174.13
1174.12
1174.11
1174.09
1174.08
1174.07
1174.06
1174.05
1174.03
1174.03
1174.01
1174
1173.99
1173.98
1173.97
1173.96
1173.94
1173.93
1173.92
1173.91
1173.89
1173.88
1173.87
1173.86
1173.84
1173.83
1173.82
1173.81
1173.8
1173.79
1173.78
1173.77
1173.76
1173.76
1173.75
1173.74
1173.74
1173.73
1173.72
1173.72
1173.71
1173.71
1173.7
1173.7
1173.69
1173.68
1173.67
1173.67
1173.65
1173.64
1173.62
1173.62
1173.6
1173.58
1173.56
1173.54
1173.52
1173.5
1173.48
1173.45
1173.43
1173.4
1173.38
1173.35
1173.32
1173.29
1173.26
1173.23
1173.19
1173.16
1173.12
1173.09
1173.05
1173.02
1172.98
1172.94
1172.9
1172.86
1172.83
1172.78
1172.74
1172.69
1172.65
1172.61
1172.56
1172.52
1172.47
1172.43
1172.38
1172.34
1172.29
1172.24
1172.19
1172.15
1172.1
1172.05
1172.01
1171.96
1171.91
1171.87
1171.82
1171.77
1171.72
1171.67
1171.62
1171.57
1171.52
1171.47
1171.42
1171.37
1171.32
1171.26
1171.21
1171.16
1171.11
1171.06
1171.01
1170.96
1170.91
1170.86
1170.81
1170.76
1170.71
1170.67
1170.62
1170.58
1170.52
1170.48
1170.43
1170.39
1170.35
1170.3
1170.25
1170.22
1170.17
1170.13
1170.08
1170.04
1169.99
1169.96
1169.91
1169.88
1169.83
1169.79
1169.75
1169.71
1169.66
1169.63
1169.58
1169.56
1169.51
1169.47
1169.43
1169.39
1169.34
1169.3
1169.25
1169.21
1169.16
1169.12
1169.06
1169.02
1168.96
1168.91
1168.85
1168.8
1168.74
1168.68
1168.62
1168.55
1168.49
1168.42
1168.35
1168.28
1168.21
1168.13
1168.06
1167.98
1167.9
1167.82
1167.74
1167.66
1167.58
1167.49
1167.41
1167.33
1167.25
1167.17
1167.09
1167.01
1166.93
1166.86
1166.78
1166.7
1166.63
1166.56
1166.49
1166.42
1166.35
1166.28
1166.22
1166.16
1166.1
1166.04
1165.99
1165.93
1165.88
1165.83
1165.78
1165.74
1165.7
1165.66
1165.62
1165.59
1165.56
1165.53
1165.5
1165.47
1165.45
1165.43
1165.4
1165.38
1165.36
1165.34
1165.32
1165.3
1165.28
1165.26
1165.24
1165.21
1165.19
1165.17
1165.14
1165.11
1165.09
1165.05
1165.02
1164.99
1164.95
1164.92
1164.88
1164.84
1164.8
1164.76
1164.71
1164.67
1164.62
1164.57
1164.52
1164.46
1164.4
1164.34
1164.3
1164.18
1164.22
1163.96
1164.22
1163.58
1164.4
1162.88
1164.93
1161.66
1165.93
1159.77
1167.29
1157.37
1168.72
1154.88
1169.77
1153.16
1169.94
1153.38
1169.14
1156.33
1168.62
1167.56
1172.33
1175.66
1175.06
1176.17
1176.62
1176.65
1177.56
1177.04
1177.73
1176.78
1177.82
1184.81
1185.83
1185.84
1187.98
1188.16
1189.89
1190.05
1191.21
1191.35
1192.28
1191.58
1194.1
1190.14
1194.38
1190.61
1195.72
1191.33
1196.2
1191.29
1196.73
1190.24
1195.24
1190.56
1195.61
1191.62
1195.9
1191.81
1194.1
1192.8
1193.18
1193.34
1192.47
1192.53
1191.62
1191.39
1190.96
1190.83
1190.55
1190.35
1190.07
1189.99
1189.62
1189.61
1189.21
1189.13
1188.69
1188.61
1188.24
1188.15
1187.82
1187.71
1187.41
1187.27
1186.99
1186.84
1186.58
1186.42
1186.19
1186.02
1185.79
1185.62
1185.41
1185.24
1185.06
1184.9
1184.73
1184.58
1184.43
1184.3
1184.16
1184.04
1183.92
1183.81
1183.69
1183.6
1183.48
1183.4
1183.27
1183.21
1183.08
1183.03
1182.88
1182.86
1182.69
1182.69
1182.49
1182.52
1182.29
1182.36
1182.09
1182.2
1181.88
1182.05
1181.68
1181.92
1181.47
1181.79
1181.24
1181.69
1181
1181.6
1180.75
1181.52
1180.49
1181.44
1180.23
1181.35
1179.98
1181.26
1179.76
1181.15
1179.56
1181.02
1179.38
1180.89
1179.23
1180.75
1179.09
1180.59
1178.97
1180.43
1178.87
1180.25
1178.79
1180.08
1178.72
1179.89
1178.66
1179.71
1178.59
1179.53
1178.53
1179.34
1178.47
1179.16
1178.4
1178.99
1178.33
1178.81
1178.25
1178.64
1178.16
1178.48
1178.07
1178.31
1177.97
1178.14
1177.88
1177.95
1177.81
1177.72
1177.78
1177.43
1177.79
1177.1
1177.82
1176.77
1177.83
1176.48
1177.81
1176.24
1177.74
1176.08
1177.64
1176
1177.48
1176
1177.29
1176.07
1177.07
1176.19
1176.84
1176.32
1176.62
1176.4
1176.46
1176.44
1176.32
1176.45
1176.19
1176.44
1176.09
1176.42
1176
1176.39
1175.91
1176.35
1175.82
1176.32
1175.71
1176.29
1175.6
1176.26
1175.47
1176.24
1175.34
1176.23
1175.2
1176.22
1175.06
1176.2
1174.94
1176.18
1174.84
1176.14
1174.76
1176.08
1174.71
1176
1174.69
1175.9
1174.7
1175.78
1174.73
1175.65
1174.78
1175.51
1174.83
1175.37
1174.86
1175.24
1174.87
1175.13
1174.86
1175.04
1174.83
1174.95
1174.81
1174.87
1174.77
1174.81
1174.74
1174.75
1174.7
1174.7
1174.66
1174.65
1174.62
1174.61
1174.58
1174.57
1174.54
1174.53
1174.5
1174.49
1174.46
1174.45
1174.43
1174.41
1174.39
1174.37
1174.35
1174.33
1174.31
1174.29
1174.27
1174.25
1174.23
1174.21
1174.2
1174.18
1174.17
1174.15
1174.13
1174.12
1174.11
1174.09
1174.08
1174.07
1174.06
1174.05
1174.04
1174.03
1174.01
1174
1173.99
1173.98
1173.97
1173.96
1173.95
1173.93
1173.92
1173.91
1173.9
1173.88
1173.87
1173.86
1173.85
1173.83
1173.82
1173.81
1173.8
1173.79
1173.78
1173.77
1173.76
1173.76
1173.75
1173.74
1173.74
1173.73
1173.73
1173.72
1173.71
1173.71
1173.7
1173.7
1173.69
1173.68
1173.67
1173.66
1173.65
1173.64
1173.62
1173.61
1173.59
1173.58
1173.56
1173.54
1173.52
1173.5
1173.48
1173.45
1173.43
1173.4
1173.37
1173.35
1173.32
1173.29
1173.26
1173.23
1173.19
1173.16
1173.12
1173.09
1173.05
1173.02
1172.98
1172.94
1172.9
1172.86
1172.82
1172.77
1172.74
1172.69
1172.65
1172.61
1172.56
1172.52
1172.47
1172.43
1172.38
1172.33
1172.29
1172.24
1172.19
1172.15
1172.1
1172.05
1172.01
1171.96
1171.91
1171.87
1171.82
1171.77
1171.72
1171.67
1171.62
1171.57
1171.52
1171.47
1171.42
1171.37
1171.32
1171.26
1171.21
1171.16
1171.11
1171.06
1171.01
1170.96
1170.91
1170.86
1170.81
1170.76
1170.71
1170.67
1170.62
1170.58
1170.52
1170.48
1170.43
1170.39
1170.35
1170.3
1170.26
1170.22
1170.17
1170.13
1170.08
1170.04
1170
1169.96
1169.91
1169.88
1169.83
1169.79
1169.75
1169.71
1169.67
1169.63
1169.59
1169.56
1169.51
1169.47
1169.43
1169.39
1169.34
1169.3
1169.25
1169.21
1169.16
1169.12
1169.06
1169.02
1168.96
1168.91
1168.85
1168.8
1168.74
1168.68
1168.62
1168.55
1168.49
1168.42
1168.35
1168.28
1168.21
1168.13
1168.06
1167.98
1167.9
1167.82
1167.74
1167.66
1167.58
1167.49
1167.41
1167.33
1167.25
1167.17
1167.09
1167.01
1166.93
1166.85
1166.78
1166.7
1166.63
1166.56
1166.49
1166.42
1166.35
1166.28
1166.22
1166.16
1166.1
1166.04
1165.99
1165.93
1165.88
1165.83
1165.78
1165.74
1165.7
1165.66
1165.62
1165.59
1165.56
1165.53
1165.5
1165.47
1165.45
1165.43
1165.4
1165.38
1165.36
1165.34
1165.32
1165.3
1165.28
1165.26
1165.24
1165.21
1165.19
1165.17
1165.14
1165.11
1165.09
1165.05
1165.02
1164.99
1164.95
1164.92
1164.88
1164.84
1164.8
1164.76
1164.71
1164.66
1164.62
1164.56
1164.52
1164.46
1164.4
1164.33
1164.29
1164.18
1164.21
1163.96
1164.19
1163.6
1164.33
1162.96
1164.77
1161.87
1165.59
1160.21
1166.7
1158.14
1167.88
1156.02
1168.74
1154.61
1168.92
1154.93
1168.4
1157.84
1168.77
1167.87
1172.44
1175.34
1175.08
1176.07
1176.63
1176.62
1177.56
1177.04
1177.72
1176.72
1177.72
1184.54
1185.76
1185.74
1187.98
1188.17
1189.91
1190.06
1191.25
1191.36
1192.27
1191.64
1193.82
1190.54
1194.22
1190.94
1195.33
1191.59
1195.85
1191.52
1196.2
1190.71
1195.01
1190.97
1195.29
1191.84
1195.5
1192.03
1193.95
1192.83
1193.18
1193.2
1192.48
1192.46
1191.66
1191.44
1190.99
1190.86
1190.56
1190.36
1190.09
1189.98
1189.65
1189.58
1189.23
1189.11
1188.73
1188.61
1188.27
1188.15
1187.85
1187.7
1187.43
1187.26
1187.01
1186.84
1186.6
1186.42
1186.2
1186.02
1185.8
1185.62
1185.42
1185.25
1185.07
1184.91
1184.74
1184.59
1184.44
1184.31
1184.17
1184.05
1183.92
1183.82
1183.7
1183.61
1183.49
1183.41
1183.28
1183.22
1183.08
1183.04
1182.89
1182.86
1182.69
1182.69
1182.5
1182.52
1182.3
1182.36
1182.09
1182.21
1181.88
1182.06
1181.68
1181.91
1181.49
1181.77
1181.27
1181.65
1181.04
1181.55
1180.8
1181.46
1180.55
1181.37
1180.31
1181.27
1180.07
1181.17
1179.86
1181.05
1179.66
1180.93
1179.49
1180.79
1179.33
1180.64
1179.2
1180.49
1179.08
1180.33
1178.97
1180.16
1178.88
1179.99
1178.81
1179.82
1178.73
1179.64
1178.66
1179.46
1178.59
1179.29
1178.52
1179.12
1178.44
1178.95
1178.36
1178.78
1178.28
1178.62
1178.19
1178.45
1178.09
1178.29
1177.99
1178.12
1177.89
1177.94
1177.81
1177.72
1177.77
1177.45
1177.76
1177.14
1177.77
1176.83
1177.76
1176.56
1177.72
1176.34
1177.65
1176.18
1177.54
1176.1
1177.39
1176.1
1177.21
1176.15
1177.01
1176.24
1176.8
1176.35
1176.61
1176.41
1176.46
1176.44
1176.33
1176.44
1176.21
1176.43
1176.11
1176.4
1176.02
1176.36
1175.94
1176.32
1175.85
1176.29
1175.75
1176.25
1175.64
1176.22
1175.52
1176.19
1175.39
1176.18
1175.26
1176.16
1175.13
1176.13
1175.02
1176.1
1174.92
1176.06
1174.85
1176
1174.8
1175.92
1174.77
1175.83
1174.77
1175.72
1174.79
1175.6
1174.83
1175.46
1174.87
1175.34
1174.89
1175.22
1174.89
1175.12
1174.87
1175.03
1174.84
1174.94
1174.82
1174.87
1174.78
1174.8
1174.74
1174.75
1174.7
1174.7
1174.66
1174.65
1174.62
1174.61
1174.58
1174.57
1174.54
1174.53
1174.5
1174.49
1174.47
1174.45
1174.43
1174.41
1174.39
1174.37
1174.35
1174.33
1174.31
1174.29
1174.27
1174.25
1174.23
1174.21
1174.2
1174.18
1174.17
1174.15
1174.13
1174.12
1174.11
1174.09
1174.08
1174.07
1174.06
1174.05
1174.04
1174.03
1174.02
1174.01
1173.99
1173.98
1173.97
1173.96
1173.95
1173.93
1173.92
1173.91
1173.9
1173.88
1173.87
1173.86
1173.85
1173.83
1173.82
1173.81
1173.8
1173.79
1173.78
1173.77
1173.76
1173.76
1173.75
1173.74
1173.74
1173.73
1173.73
1173.72
1173.72
1173.71
1173.7
1173.7
1173.69
1173.68
1173.67
1173.67
1173.65
1173.64
1173.63
1173.61
1173.59
1173.58
1173.56
1173.54
1173.52
1173.5
1173.48
1173.45
1173.43
1173.4
1173.37
1173.35
1173.32
1173.29
1173.26
1173.22
1173.19
1173.16
1173.12
1173.09
1173.05
1173.02
1172.98
1172.94
1172.9
1172.86
1172.82
1172.78
1172.74
1172.69
1172.65
1172.61
1172.56
1172.52
1172.47
1172.43
1172.38
1172.33
1172.29
1172.24
1172.19
1172.15
1172.1
1172.05
1172.01
1171.96
1171.91
1171.86
1171.82
1171.77
1171.72
1171.67
1171.62
1171.57
1171.52
1171.47
1171.42
1171.37
1171.32
1171.26
1171.21
1171.16
1171.11
1171.06
1171.01
1170.96
1170.91
1170.86
1170.81
1170.76
1170.71
1170.67
1170.62
1170.58
1170.53
1170.48
1170.43
1170.39
1170.35
1170.3
1170.26
1170.22
1170.17
1170.13
1170.08
1170.04
1170
1169.96
1169.91
1169.88
1169.83
1169.79
1169.75
1169.71
1169.66
1169.64
1169.59
1169.56
1169.51
1169.47
1169.43
1169.39
1169.34
1169.3
1169.25
1169.21
1169.16
1169.12
1169.06
1169.02
1168.96
1168.91
1168.85
1168.8
1168.74
1168.68
1168.62
1168.55
1168.49
1168.42
1168.35
1168.28
1168.21
1168.13
1168.06
1167.98
1167.9
1167.82
1167.74
1167.66
1167.58
1167.49
1167.41
1167.33
1167.25
1167.17
1167.09
1167.01
1166.93
1166.85
1166.78
1166.7
1166.63
1166.56
1166.49
1166.42
1166.35
1166.28
1166.22
1166.16
1166.1
1166.04
1165.99
1165.93
1165.88
1165.83
1165.78
1165.74
1165.7
1165.66
1165.62
1165.59
1165.56
1165.52
1165.5
1165.47
1165.45
1165.43
1165.4
1165.38
1165.36
1165.34
1165.32
1165.3
1165.28
1165.26
1165.24
1165.21
1165.19
1165.17
1165.14
1165.11
1165.09
1165.05
1165.02
1164.99
1164.95
1164.92
1164.88
1164.84
1164.8
1164.76
1164.71
1164.67
1164.62
1164.56
1164.51
1164.45
1164.4
1164.33
1164.29
1164.18
1164.2
1163.96
1164.17
1163.62
1164.28
1163.02
1164.65
1162.02
1165.34
1160.53
1166.28
1158.68
1167.27
1156.82
1167.99
1155.61
1168.16
1156.01
1167.85
1158.7
1168.39
1167.48
1171.78
1174.88
1175.07
1175.88
1176.52
1176.49
1177.52
1176.96
1177.73
1176.69
1177.82
1184.18
1185.68
1185.57
1187.96
1188.17
1189.94
1190.09
1191.29
1191.39
1192.26
1191.75
1193.54
1190.96
1194.03
1191.32
1194.96
1191.87
1195.52
1191.76
1195.66
1191.16
1194.77
1191.38
1194.99
1192.05
1195.08
1192.21
1193.81
1192.84
1193.12
1193.05
1192.42
1192.4
1191.67
1191.46
1191.04
1190.89
1190.59
1190.4
1190.11
1189.98
1189.67
1189.57
1189.24
1189.1
1188.74
1188.61
1188.29
1188.16
1187.87
1187.71
1187.45
1187.27
1187.02
1186.84
1186.61
1186.43
1186.21
1186.02
1185.81
1185.63
1185.44
1185.26
1185.08
1184.92
1184.75
1184.6
1184.45
1184.32
1184.18
1184.06
1183.94
1183.83
1183.71
1183.61
1183.5
1183.41
1183.3
1183.22
1183.09
1183.04
1182.9
1182.86
1182.7
1182.69
1182.51
1182.52
1182.31
1182.36
1182.1
1182.2
1181.9
1182.05
1181.7
1181.89
1181.51
1181.75
1181.31
1181.62
1181.09
1181.51
1180.86
1181.4
1180.62
1181.3
1180.38
1181.2
1180.16
1181.08
1179.95
1180.96
1179.76
1180.83
1179.59
1180.69
1179.44
1180.55
1179.3
1180.4
1179.18
1180.24
1179.07
1180.08
1178.97
1179.91
1178.89
1179.74
1178.81
1179.57
1178.73
1179.41
1178.65
1179.24
1178.57
1179.07
1178.49
1178.91
1178.4
1178.75
1178.31
1178.59
1178.22
1178.43
1178.12
1178.27
1178.01
1178.11
1177.91
1177.93
1177.81
1177.72
1177.76
1177.47
1177.73
1177.19
1177.71
1176.9
1177.68
1176.65
1177.63
1176.44
1177.55
1176.29
1177.44
1176.21
1177.3
1176.19
1177.14
1176.22
1176.95
1176.3
1176.77
1176.37
1176.59
1176.42
1176.45
1176.44
1176.34
1176.43
1176.22
1176.41
1176.13
1176.38
1176.05
1176.34
1175.97
1176.29
1175.88
1176.25
1175.78
1176.21
1175.68
1176.18
1175.57
1176.14
1175.45
1176.12
1175.32
1176.09
1175.21
1176.06
1175.1
1176.02
1175.01
1175.97
1174.93
1175.92
1174.88
1175.84
1174.85
1175.76
1174.84
1175.66
1174.86
1175.54
1174.88
1175.42
1174.91
1175.3
1174.92
1175.2
1174.91
1175.1
1174.88
1175.01
1174.86
1174.94
1174.82
1174.86
1174.79
1174.8
1174.74
1174.75
1174.7
1174.7
1174.66
1174.65
1174.62
1174.61
1174.58
1174.57
1174.54
1174.53
1174.51
1174.49
1174.47
1174.45
1174.43
1174.41
1174.39
1174.37
1174.35
1174.33
1174.31
1174.29
1174.27
1174.25
1174.23
1174.22
1174.2
1174.18
1174.17
1174.15
1174.14
1174.12
1174.11
1174.1
1174.09
1174.07
1174.06
1174.05
1174.04
1174.03
1174.02
1174.01
1174
1173.99
1173.97
1173.96
1173.95
1173.94
1173.92
1173.91
1173.9
1173.89
1173.87
1173.86
1173.85
1173.83
1173.82
1173.81
1173.8
1173.79
1173.78
1173.77
1173.76
1173.76
1173.75
1173.74
1173.74
1173.73
1173.73
1173.72
1173.71
1173.71
1173.7
1173.7
1173.69
1173.68
1173.67
1173.66
1173.65
1173.64
1173.62
1173.61
1173.6
1173.58
1173.56
1173.54
1173.52
1173.5
1173.47
1173.45
1173.43
1173.4
1173.37
1173.35
1173.32
1173.29
1173.25
1173.22
1173.19
1173.16
1173.12
1173.09
1173.05
1173.02
1172.98
1172.94
1172.9
1172.86
1172.82
1172.77
1172.74
1172.69
1172.65
1172.61
1172.56
1172.52
1172.47
1172.42
1172.38
1172.33
1172.29
1172.24
1172.19
1172.15
1172.1
1172.05
1172.01
1171.96
1171.91
1171.86
1171.81
1171.77
1171.72
1171.67
1171.62
1171.57
1171.52
1171.47
1171.42
1171.37
1171.32
1171.26
1171.21
1171.16
1171.11
1171.06
1171.01
1170.96
1170.91
1170.86
1170.81
1170.76
1170.71
1170.67
1170.62
1170.58
1170.53
1170.48
1170.43
1170.39
1170.35
1170.3
1170.26
1170.22
1170.17
1170.13
1170.08
1170.04
1170
1169.96
1169.91
1169.88
1169.83
1169.79
1169.75
1169.71
1169.67
1169.63
1169.59
1169.56
1169.51
1169.47
1169.43
1169.39
1169.34
1169.3
1169.25
1169.21
1169.16
1169.12
1169.07
1169.02
1168.96
1168.91
1168.85
1168.8
1168.74
1168.68
1168.62
1168.55
1168.49
1168.42
1168.35
1168.28
1168.21
1168.13
1168.06
1167.98
1167.9
1167.82
1167.74
1167.66
1167.58
1167.49
1167.41
1167.33
1167.25
1167.17
1167.09
1167.01
1166.93
1166.85
1166.78
1166.7
1166.63
1166.56
1166.49
1166.42
1166.35
1166.28
1166.22
1166.16
1166.1
1166.04
1165.98
1165.93
1165.88
1165.83
1165.78
1165.74
1165.7
1165.66
1165.62
1165.59
1165.56
1165.53
1165.5
1165.47
1165.45
1165.43
1165.4
1165.38
1165.36
1165.34
1165.32
1165.3
1165.28
1165.26
1165.24
1165.22
1165.19
1165.17
1165.14
1165.11
1165.08
1165.05
1165.02
1164.99
1164.96
1164.92
1164.88
1164.84
1164.8
1164.76
1164.71
1164.66
1164.62
1164.56
1164.51
1164.45
1164.39
1164.33
1164.28
1164.18
1164.19
1163.96
1164.15
1163.63
1164.23
1163.08
1164.52
1162.18
1165.08
1160.86
1165.85
1159.25
1166.66
1157.66
1167.27
1156.68
1167.46
1157.16
1167.35
1159.78
1168.27
1167.61
1171.65
1174.25
1174.86
1175.6
1176.31
1176.26
1177.36
1176.83
1177.69
1176.69
1177.99
1183.75
1185.6
1185.43
1187.98
1188.2
1189.99
1190.12
1191.33
1191.41
1192.27
1191.82
1193.34
1191.27
1193.86
1191.64
1194.64
1192.1
1195.23
1191.94
1195.27
1191.51
1194.56
1191.72
1194.73
1192.23
1194.78
1192.36
1193.7
1192.86
1193.07
1192.97
1192.39
1192.38
1191.7
1191.5
1191.07
1190.91
1190.6
1190.41
1190.12
1189.99
1189.67
1189.58
1189.23
1189.11
1188.75
1188.63
1188.3
1188.17
1187.88
1187.72
1187.46
1187.28
1187.03
1186.85
1186.62
1186.43
1186.21
1186.03
1185.82
1185.64
1185.44
1185.27
1185.09
1184.93
1184.76
1184.61
1184.46
1184.33
1184.19
1184.07
1183.95
1183.84
1183.72
1183.62
1183.5
1183.42
1183.3
1183.23
1183.09
1183.05
1182.9
1182.87
1182.7
1182.7
1182.51
1182.53
1182.31
1182.36
1182.12
1182.19
1181.92
1182.03
1181.73
1181.87
1181.54
1181.72
1181.34
1181.59
1181.13
1181.47
1180.9
1181.35
1180.67
1181.24
1180.45
1181.13
1180.23
1181.01
1180.03
1180.88
1179.85
1180.75
1179.68
1180.61
1179.52
1180.46
1179.39
1180.32
1179.26
1180.16
1179.15
1180
1179.05
1179.84
1178.96
1179.68
1178.87
1179.52
1178.78
1179.36
1178.7
1179.19
1178.61
1179.03
1178.53
1178.87
1178.44
1178.72
1178.34
1178.57
1178.24
1178.41
1178.13
1178.26
1178.02
1178.1
1177.92
1177.92
1177.82
1177.72
1177.75
1177.49
1177.7
1177.22
1177.67
1176.96
1177.62
1176.72
1177.56
1176.52
1177.47
1176.38
1177.36
1176.29
1177.23
1176.27
1177.08
1176.29
1176.91
1176.34
1176.74
1176.4
1176.58
1176.43
1176.45
1176.44
1176.34
1176.42
1176.24
1176.39
1176.15
1176.36
1176.07
1176.32
1175.99
1176.27
1175.91
1176.22
1175.81
1176.18
1175.71
1176.14
1175.61
1176.1
1175.49
1176.07
1175.38
1176.04
1175.27
1176
1175.16
1175.96
1175.07
1175.91
1175
1175.85
1174.95
1175.78
1174.92
1175.7
1174.9
1175.6
1174.91
1175.5
1174.92
1175.39
1174.94
1175.28
1174.94
1175.18
1174.92
1175.09
1174.9
1175
1174.87
1174.93
1174.83
1174.86
1174.79
1174.8
1174.75
1174.75
1174.7
1174.7
1174.66
1174.65
1174.62
1174.61
1174.58
1174.57
1174.54
1174.53
1174.51
1174.49
1174.47
1174.45
1174.43
1174.41
1174.39
1174.37
1174.35
1174.33
1174.31
1174.29
1174.27
1174.25
1174.23
1174.22
1174.2
1174.18
1174.17
1174.15
1174.14
1174.12
1174.11
1174.1
1174.09
1174.07
1174.06
1174.05
1174.04
1174.03
1174.02
1174.01
1174
1173.99
1173.97
1173.96
1173.95
1173.94
1173.93
1173.91
1173.9
1173.89
1173.87
1173.86
1173.85
1173.83
1173.83
1173.81
1173.8
1173.79
1173.78
1173.77
1173.76
1173.76
1173.75
1173.75
1173.74
1173.74
1173.73
1173.72
1173.71
1173.71
1173.7
1173.7
1173.69
1173.69
1173.67
1173.66
1173.65
1173.64
1173.62
1173.61
1173.6
1173.58
1173.56
1173.54
1173.52
1173.5
1173.47
1173.45
1173.43
1173.4
1173.37
1173.35
1173.31
1173.29
1173.25
1173.22
1173.19
1173.16
1173.12
1173.09
1173.05
1173.02
1172.98
1172.94
1172.9
1172.86
1172.82
1172.78
1172.74
1172.69
1172.65
1172.6
1172.56
1172.52
1172.47
1172.42
1172.38
1172.33
1172.29
1172.24
1172.19
1172.14
1172.1
1172.05
1172
1171.96
1171.91
1171.87
1171.82
1171.77
1171.72
1171.67
1171.62
1171.57
1171.52
1171.47
1171.42
1171.37
1171.32
1171.26
1171.21
1171.16
1171.11
1171.06
1171.01
1170.96
1170.91
1170.86
1170.81
1170.76
1170.71
1170.67
1170.62
1170.58
1170.53
1170.48
1170.44
1170.39
1170.35