/*--------------------------------*- C++ -*----------------------------------*\
| =========                 |                                                 |
| \\      /  F ield         | foam-extend: Open Source CFD                    |
|  \\    /   O peration     | Version:     3.2                                |
|   \\  /    A nd           | Web:         http://www.foam-extend.org         |
|    \\/     M anipulation  | For copyright notice see file Copyright         |
\*---------------------------------------------------------------------------*/
FoamFile
{
    version     2.0;
    format      ascii;
    class       areaScalarField;
    location    "840";
    object      Pef;
}
// * * * * * * * * * * * * * * * * * * * * * * * * * * * * * * * * * * * * * //

dimensions      [0 0 0 0 0 0 0];

internalField   nonuniform List<scalar> 
550
(
0
0
0
0
0.0179476
0.0447364
0.0710475
0.0979509
0.122242
0.143465
0.163855
0.17706
0.0980683
0.0770092
0.206563
0.205189
0.208577
0.203893
0.202843
0.190837
0.0845552
0.102959
0.0968896
0.121371
0.174526
0.162848
0.164991
0.159836
0.123851
0.128509
0.136953
0.142962
0.14048
0.140192
0.139517
0.139213
0.138353
0.138222
0.137636
0.13757
0.136958
0.136904
0.136282
0.136332
0.135883
0.135991
0.13562
0.135697
0.135364
0.135393
0.135125
0.135141
0.134952
0.134973
0.134851
0.134872
0.134795
0.134812
0.134766
0.134773
0.134736
0.134731
0.134696
0.134673
0.134639
0.134602
0.134563
0.134524
0.134491
0.134451
0.134413
0.13437
0.134303
0.134233
0.134117
0.134018
0.133851
0.13374
0.133534
0.133432
0.133196
0.133116
0.132849
0.132801
0.132499
0.132484
0.132147
0.132172
0.131799
0.13188
0.131478
0.131626
0.131187
0.131413
0.130927
0.131236
0.130682
0.131091
0.130434
0.13097
0.130159
0.130896
0.129906
0.130874
0.129694
0.130899
0.129541
0.130945
0.129424
0.13098
0.129322
0.13098
0.129215
0.130938
0.129101
0.130848
0.128978
0.130713
0.128844
0.130536
0.128702
0.130314
0.128546
0.130047
0.128372
0.12974
0.128178
0.129408
0.127971
0.129063
0.12776
0.12871
0.127547
0.128361
0.127336
0.128027
0.127133
0.127711
0.126937
0.127413
0.126752
0.127136
0.126577
0.126886
0.126414
0.12666
0.126264
0.126472
0.126168
0.126302
0.126156
0.12612
0.126252
0.125883
0.126502
0.12572
0.126836
0.125645
0.127165
0.125625
0.127434
0.125633
0.127579
0.12565
0.127558
0.125642
0.127353
0.125597
0.126966
0.125511
0.126405
0.125381
0.125782
0.125208
0.125278
0.12503
0.124863
0.124842
0.124514
0.124651
0.124213
0.124467
0.123954
0.124293
0.123723
0.124131
0.123523
0.124002
0.123353
0.123915
0.12322
0.123889
0.123114
0.12392
0.123032
0.123994
0.122973
0.124105
0.12294
0.124231
0.122916
0.124352
0.122907
0.124444
0.122896
0.124483
0.122876
0.124459
0.122843
0.124359
0.122794
0.124177
0.122727
0.123912
0.122646
0.12358
0.122551
0.123228
0.122443
0.122919
0.122342
0.122671
0.122244
0.122479
0.122164
0.122326
0.122098
0.122211
0.122039
0.122124
0.121994
0.122051
0.121958
0.121992
0.121926
0.121942
0.121893
0.121903
0.121859
0.121861
0.121827
0.121814
0.121782
0.121765
0.121736
0.121705
0.121675
0.12164
0.121608
0.121569
0.121534
0.121492
0.121454
0.121408
0.121366
0.121316
0.121279
0.121226
0.121183
0.121126
0.121074
0.121019
0.12096
0.120893
0.120833
0.120758
0.120684
0.120606
0.12052
0.120438
0.120339
0.120253
0.120153
0.120055
0.119953
0.119856
0.119758
0.119656
0.119564
0.119469
0.119383
0.119296
0.119219
0.119134
0.119066
0.118992
0.118934
0.118862
0.118812
0.118752
0.118699
0.118647
0.118593
0.118547
0.11849
0.118449
0.118391
0.118347
0.118285
0.118244
0.118181
0.118138
0.118074
0.118028
0.117963
0.117924
0.117861
0.117821
0.117761
0.117722
0.117666
0.117629
0.117577
0.117545
0.1175
0.117466
0.117426
0.117398
0.117366
0.117346
0.117325
0.117306
0.117294
0.117285
0.117271
0.117267
0.117258
0.117249
0.117241
0.117235
0.117219
0.117213
0.1172
0.117188
0.117176
0.117157
0.117146
0.117123
0.117113
0.117085
0.117078
0.117048
0.117034
0.117012
0.116992
0.116977
0.116955
0.116934
0.116916
0.116894
0.116875
0.116851
0.116839
0.116815
0.116801
0.116774
0.116757
0.116726
0.116704
0.116669
0.11664
0.1166
0.116566
0.116524
0.116485
0.116446
0.1164
0.116364
0.116321
0.116287
0.116247
0.116217
0.116181
0.116154
0.116121
0.116098
0.116069
0.116049
0.116025
0.116008
0.115987
0.115973
0.115953
0.115939
0.115922
0.115908
0.115887
0.115875
0.115854
0.11584
0.11582
0.115808
0.115788
0.115779
0.115748
0.115735
0.115702
0.115683
0.115645
0.115622
0.115581
0.115554
0.115511
0.115483
0.115441
0.115412
0.115367
0.115349
0.115305
0.115285
0.115242
0.11522
0.115178
0.115146
0.115101
0.115068
0.115023
0.11499
0.114945
0.114913
0.114872
0.114831
0.114789
0.11475
0.114709
0.114674
0.114635
0.114594
0.114556
0.114518
0.114479
0.114445
0.114407
0.114375
0.114341
0.114302
0.114268
0.114239
0.114212
0.114192
0.114182
0.114166
0.114161
0.114158
0.114155
0.114157
0.114167
0.114169
0.114184
0.114195
0.114212
0.114236
0.114253
0.114284
0.114308
0.114348
0.114379
0.114426
0.114464
0.114518
0.114563
0.114623
0.114675
0.11474
0.114798
0.114865
0.114928
0.114991
0.115063
0.115125
0.115192
0.115252
0.115309
0.115373
0.115424
0.11548
0.115528
0.115571
0.115621
0.115658
0.1157
0.115733
0.115762
0.115793
0.115824
0.115837
0.11586
0.115867
0.115876
0.115881
0.115875
0.11587
0.115864
0.115846
0.115835
0.115821
0.1158
0.115783
0.115768
0.115742
0.115723
0.115704
0.11568
0.115658
0.115643
0.115617
0.115599
0.115582
0.115562
0.115549
0.11554
0.115531
0.115522
0.11554
0.11553
0.115582
0.115575
0.115652
0.115675
0.115737
0.11589
0.115771
0.116406
0.115507
0.117641
0.114793
0.1201
0.114024
0.123752
0.113258
0.128146
0.112644
0.132199
0.112426
0.133858
0.11313
0.136284
0.114944
0.140517
0.121724
1.10885e-06
1.78381e-06
1.75799e-06
2.65244e-06
0
0
0
0
0
0
)
;

boundaryField
{
    inlet
    {
        type            calculated;
        value           uniform 0;
    }
    endWall
    {
        type            calculated;
        value           uniform 0;
    }
    sideWall
    {
        type            empty;
    }
}


// ************************************************************************* //
