/*--------------------------------*- C++ -*----------------------------------*\
| =========                 |                                                 |
| \\      /  F ield         | foam-extend: Open Source CFD                    |
|  \\    /   O peration     | Version:     3.2                                |
|   \\  /    A nd           | Web:         http://www.foam-extend.org         |
|    \\/     M anipulation  | For copyright notice see file Copyright         |
\*---------------------------------------------------------------------------*/
FoamFile
{
    version     2.0;
    format      ascii;
    class       surfaceScalarField;
    location    "840";
    object      phi;
}
// * * * * * * * * * * * * * * * * * * * * * * * * * * * * * * * * * * * * * //

dimensions      [0 3 -1 0 0 0 0];

internalField   nonuniform List<scalar> 
65390
(
3.37355e-05
4.64487e-07
3.33054e-05
4.30073e-07
3.27066e-05
5.98884e-07
3.21311e-05
5.75476e-07
3.15069e-05
6.24226e-07
3.09354e-05
5.71408e-07
3.03577e-05
5.77688e-07
2.97925e-05
5.65189e-07
2.93322e-05
4.60419e-07
2.86415e-05
6.76842e-07
2.80709e-05
3.18812e-07
2.72464e-05
-8.31927e-08
2.64342e-05
-2.88294e-07
2.54264e-05
1.2223e-06
2.50016e-05
1.86269e-06
2.43755e-05
1.69812e-06
2.417e-05
6.8159e-07
2.37118e-05
7.44917e-07
2.3705e-05
-3.4583e-07
2.35725e-05
-1.22265e-06
2.34593e-05
-1.30698e-06
2.3012e-05
-8.13493e-08
2.28081e-05
4.99192e-07
2.24725e-05
1.19677e-06
2.24526e-05
8.22966e-07
2.24786e-05
2.63134e-07
2.24327e-05
-3.7704e-08
2.21465e-05
-1.29235e-07
2.19122e-05
-1.98359e-07
2.18639e-05
2.35466e-09
2.19784e-05
5.43084e-08
2.22146e-05
-1.34667e-07
2.24403e-05
-2.16436e-07
2.25563e-05
-1.27674e-07
2.25464e-05
5.04306e-09
2.24754e-05
6.73726e-08
2.2394e-05
7.92016e-08
2.23591e-05
3.41639e-08
2.23131e-05
4.60646e-08
2.2278e-05
3.52753e-08
2.22204e-05
5.74364e-08
2.21754e-05
4.43791e-08
2.21381e-05
3.66223e-08
2.21391e-05
-1.55436e-09
2.2145e-05
-6.04147e-09
2.21544e-05
-8.95082e-09
2.21449e-05
1.01589e-08
2.21411e-05
4.38299e-09
2.21271e-05
1.43097e-08
2.21236e-05
3.5973e-09
2.21141e-05
9.73077e-09
2.21127e-05
1.84848e-09
2.21065e-05
7.03474e-09
2.21073e-05
1.78517e-10
2.2105e-05
3.35022e-09
2.21072e-05
-1.29151e-09
2.21083e-05
-2.34286e-10
2.2113e-05
-4.06011e-09
2.21162e-05
-2.89808e-09
2.21186e-05
-2.52198e-09
2.21195e-05
-1.33756e-09
2.2118e-05
6.34928e-10
2.21134e-05
3.3892e-09
2.21073e-05
4.88656e-09
2.20972e-05
8.76411e-09
2.20846e-05
1.13685e-08
2.20699e-05
1.37402e-08
2.20536e-05
1.578e-08
2.20351e-05
1.83766e-08
2.20161e-05
1.94408e-08
2.1996e-05
2.09438e-08
2.19762e-05
2.07498e-08
2.19544e-05
2.27978e-08
2.19348e-05
2.04252e-08
2.19115e-05
2.39266e-08
2.18919e-05
1.99588e-08
2.18671e-05
2.50807e-08
2.18486e-05
1.85752e-08
2.1824e-05
2.46906e-08
2.18079e-05
1.61942e-08
2.17837e-05
2.42663e-08
2.17704e-05
1.35178e-08
2.17476e-05
2.29085e-08
2.17361e-05
1.15235e-08
2.17131e-05
2.2978e-08
2.17039e-05
9.14857e-09
2.16809e-05
2.28144e-08
2.16735e-05
7.25631e-09
2.16517e-05
2.1747e-08
2.16462e-05
5.56666e-09
2.16255e-05
2.0979e-08
2.16212e-05
4.72461e-09
2.16009e-05
2.10374e-08
2.16001e-05
1.68177e-09
2.15805e-05
2.06326e-08
2.15826e-05
-9.05275e-10
2.15631e-05
2.08208e-08
2.15688e-05
-4.4725e-09
2.15467e-05
2.3334e-08
2.15563e-05
-8.51263e-09
2.15323e-05
2.51411e-08
2.15466e-05
-1.31978e-08
2.152e-05
2.77616e-08
2.1539e-05
-1.78079e-08
2.15098e-05
3.04763e-08
2.15331e-05
-2.19312e-08
2.15013e-05
3.30938e-08
2.15279e-05
-2.52291e-08
2.14932e-05
3.58363e-08
2.15215e-05
-2.72177e-08
2.14843e-05
3.8171e-08
2.15139e-05
-2.8959e-08
2.14747e-05
3.96157e-08
2.15042e-05
-2.92398e-08
2.14636e-05
4.07129e-08
2.14926e-05
-2.92333e-08
2.14514e-05
4.08489e-08
2.14799e-05
-2.89552e-08
2.14394e-05
3.98934e-08
2.14662e-05
-2.7643e-08
2.14263e-05
3.89307e-08
2.14513e-05
-2.60785e-08
2.14128e-05
3.71854e-08
2.14354e-05
-2.4039e-08
2.13992e-05
3.46489e-08
2.14197e-05
-2.21473e-08
2.13858e-05
3.21081e-08
2.14038e-05
-1.98841e-08
2.13727e-05
2.9067e-08
2.13879e-05
-1.71528e-08
2.13592e-05
2.67034e-08
2.13718e-05
-1.45531e-08
2.13458e-05
2.40786e-08
2.13565e-05
-1.2656e-08
2.13338e-05
2.10018e-08
2.13424e-05
-1.02871e-08
2.13223e-05
1.85352e-08
2.13295e-05
-8.59322e-09
2.13119e-05
1.62644e-08
2.13172e-05
-6.47706e-09
2.1302e-05
1.42406e-08
2.13065e-05
-5.30811e-09
2.12939e-05
1.18872e-08
2.1297e-05
-3.61762e-09
2.12862e-05
1.04516e-08
2.12883e-05
-2.21305e-09
2.12817e-05
6.74715e-09
2.12823e-05
-2.54132e-10
2.12804e-05
2.46626e-09
2.1277e-05
4.16683e-09
2.12815e-05
-3.46448e-09
2.12729e-05
9.94533e-09
2.12855e-05
-1.11148e-08
2.12729e-05
1.43892e-08
2.12934e-05
-1.84979e-08
2.12737e-05
2.17805e-08
2.12996e-05
-2.38036e-08
2.12707e-05
3.09806e-08
2.12998e-05
-2.7071e-08
2.12642e-05
3.73821e-08
2.12933e-05
-2.74227e-08
2.12511e-05
4.36678e-08
2.12766e-05
-2.42957e-08
2.12318e-05
4.57952e-08
2.12529e-05
-2.04304e-08
2.12084e-05
4.48875e-08
2.12227e-05
-1.40791e-08
2.11821e-05
4.05335e-08
2.1188e-05
-6.16762e-09
2.1153e-05
3.46522e-08
2.11525e-05
4.14025e-12
2.11272e-05
2.4851e-08
2.11252e-05
1.52786e-09
2.11084e-05
1.63445e-08
2.10992e-05
8.71604e-09
2.10892e-05
9.47759e-09
2.10768e-05
1.18036e-08
2.10731e-05
3.10164e-09
2.10597e-05
1.28438e-08
2.10565e-05
2.66791e-09
2.10412e-05
1.47174e-08
2.10408e-05
-1.26865e-10
2.10242e-05
1.61213e-08
2.10265e-05
-2.66921e-09
2.10097e-05
1.64855e-08
2.10144e-05
-4.87105e-09
2.09975e-05
1.6938e-08
2.10053e-05
-7.66995e-09
2.09883e-05
1.73547e-08
2.09989e-05
-1.00791e-08
2.0981e-05
1.85267e-08
2.09952e-05
-1.33405e-08
2.09765e-05
1.96316e-08
2.0994e-05
-1.63697e-08
2.09729e-05
2.23495e-08
2.09938e-05
-1.96897e-08
2.09708e-05
2.4409e-08
2.09941e-05
-2.19249e-08
2.09682e-05
2.73356e-08
2.09944e-05
-2.47575e-08
2.09655e-05
3.03287e-08
2.09922e-05
-2.5382e-08
2.0961e-05
3.24775e-08
2.09885e-05
-2.63201e-08
2.0955e-05
3.45592e-08
2.09819e-05
-2.59671e-08
2.0948e-05
3.46201e-08
2.09735e-05
-2.48708e-08
2.09401e-05
3.37917e-08
2.0963e-05
-2.27558e-08
2.09312e-05
3.18771e-08
2.09507e-05
-1.96466e-08
2.09215e-05
2.89585e-08
2.09371e-05
-1.5999e-08
2.09126e-05
2.40268e-08
2.09247e-05
-1.27007e-08
2.09049e-05
1.92929e-08
2.09151e-05
-1.07924e-08
2.09004e-05
1.42112e-08
2.09075e-05
-7.56714e-09
2.0897e-05
1.0015e-08
2.09028e-05
-6.11711e-09
2.08949e-05
7.60595e-09
2.08985e-05
-3.86266e-09
2.08929e-05
5.54161e-09
2.08952e-05
-2.38033e-09
2.08901e-05
5.09936e-09
2.08921e-05
-1.84919e-09
2.08876e-05
4.71812e-09
2.08885e-05
-6.25803e-10
2.08847e-05
4.12008e-09
2.08853e-05
-1.42452e-10
2.08813e-05
4.42578e-09
2.0881e-05
7.86762e-10
2.08776e-05
3.86407e-09
2.08768e-05
1.45858e-09
2.08731e-05
4.24371e-09
2.08721e-05
1.63233e-09
2.08687e-05
3.97385e-09
2.0867e-05
2.42398e-09
2.08641e-05
3.55043e-09
2.0862e-05
2.67475e-09
2.08586e-05
4.08365e-09
2.08557e-05
3.55165e-09
2.08528e-05
3.44828e-09
2.08499e-05
3.54001e-09
2.0847e-05
3.48687e-09
2.08436e-05
3.94035e-09
2.08402e-05
3.88095e-09
2.08365e-05
4.28144e-09
2.08327e-05
4.21856e-09
2.08287e-05
4.5528e-09
2.08246e-05
4.54799e-09
2.0821e-05
4.08934e-09
2.08169e-05
4.52679e-09
2.08122e-05
5.19019e-09
2.08076e-05
5.05316e-09
2.08025e-05
5.51372e-09
2.07988e-05
4.09572e-09
2.0794e-05
5.15461e-09
2.07889e-05
5.43159e-09
2.07841e-05
5.01906e-09
2.07789e-05
5.29002e-09
2.07732e-05
5.66875e-09
2.07682e-05
4.89765e-09
2.07622e-05
5.59095e-09
2.07566e-05
5.06678e-09
2.07503e-05
5.64102e-09
2.07441e-05
5.32091e-09
2.07381e-05
4.8766e-09
2.07307e-05
5.98719e-09
2.07239e-05
5.26659e-09
2.07167e-05
5.45121e-09
2.07097e-05
5.18519e-09
2.07014e-05
6.23801e-09
2.06934e-05
5.8884e-09
2.06855e-05
5.70549e-09
2.06775e-05
5.69956e-09
2.06696e-05
5.73267e-09
2.06614e-05
6.03383e-09
2.06528e-05
6.536e-09
2.06445e-05
6.33263e-09
2.06368e-05
5.82184e-09
2.06291e-05
5.94818e-09
2.06213e-05
6.25845e-09
2.06137e-05
6.2184e-09
2.06072e-05
5.32753e-09
2.06001e-05
6.02002e-09
2.05938e-05
5.49543e-09
2.05875e-05
5.582e-09
2.05825e-05
4.43347e-09
2.0577e-05
5.01144e-09
2.0572e-05
4.70201e-09
2.05674e-05
4.24728e-09
2.05625e-05
4.73336e-09
2.05586e-05
3.61961e-09
2.05548e-05
3.62828e-09
2.05512e-05
3.31678e-09
2.05473e-05
3.65957e-09
2.05439e-05
3.08058e-09
2.054e-05
3.56194e-09
2.05371e-05
2.45842e-09
2.05343e-05
2.30694e-09
2.05322e-05
1.50779e-09
2.05293e-05
2.32315e-09
2.05271e-05
1.47951e-09
2.05248e-05
1.6003e-09
2.05235e-05
5.48128e-10
2.05217e-05
9.52955e-10
2.05211e-05
-2.14654e-10
2.05203e-05
-4.05826e-11
2.05205e-05
-1.05089e-09
2.05196e-05
2.68754e-11
2.05202e-05
-1.45315e-09
2.05207e-05
-1.30069e-09
2.05222e-05
-2.22539e-09
2.05234e-05
-1.94087e-09
2.05252e-05
-2.45157e-09
2.05266e-05
-1.93844e-09
2.05288e-05
-2.59052e-09
2.0531e-05
-2.52613e-09
2.05336e-05
-2.68522e-09
2.05368e-05
-3.21807e-09
2.05411e-05
-4.19962e-09
2.05445e-05
-3.15944e-09
2.05489e-05
-4.11295e-09
2.05537e-05
-4.44931e-09
2.0558e-05
-3.95568e-09
2.05635e-05
-5.09393e-09
2.05692e-05
-5.36581e-09
2.05741e-05
-4.54739e-09
2.05798e-05
-5.40413e-09
2.05851e-05
-5.01532e-09
2.05907e-05
-5.27027e-09
2.05965e-05
-5.61752e-09
2.06025e-05
-5.92881e-09
2.06082e-05
-5.57173e-09
2.06139e-05
-5.62935e-09
2.062e-05
-6.17971e-09
2.06248e-05
-4.8897e-09
2.06308e-05
-6.10189e-09
2.06359e-05
-5.35959e-09
2.06417e-05
-6.06399e-09
2.06469e-05
-5.47648e-09
2.06516e-05
-4.98524e-09
2.06571e-05
-5.81473e-09
2.06616e-05
-4.95912e-09
2.06665e-05
-5.31617e-09
2.06717e-05
-5.6543e-09
2.06764e-05
-5.27888e-09
2.06816e-05
-5.88797e-09
2.06865e-05
-5.74548e-09
2.06915e-05
-5.86167e-09
2.06963e-05
-5.74779e-09
2.07002e-05
-4.8709e-09
2.07043e-05
-5.31366e-09
2.0708e-05
-4.97295e-09
2.07121e-05
-5.46771e-09
2.07153e-05
-4.68008e-09
2.07188e-05
-5.11027e-09
2.07212e-05
-4.18158e-09
2.07242e-05
-4.90322e-09
2.07263e-05
-4.09449e-09
2.0729e-05
-4.85763e-09
2.07309e-05
-4.16644e-09
2.0732e-05
-3.39743e-09
2.07335e-05
-3.78487e-09
2.07346e-05
-3.44955e-09
2.07362e-05
-3.97251e-09
2.07371e-05
-3.3007e-09
2.07382e-05
-3.44619e-09
2.0739e-05
-3.14827e-09
2.07401e-05
-3.46919e-09
2.07403e-05
-2.44161e-09
2.07412e-05
-3.10106e-09
2.07411e-05
-2.07626e-09
2.07418e-05
-2.72007e-09
2.07414e-05
-1.61816e-09
2.07418e-05
-2.24737e-09
2.07412e-05
-1.19768e-09
2.07412e-05
-1.72859e-09
2.07402e-05
-5.6261e-10
2.07398e-05
-1.12244e-09
2.07393e-05
-1.03418e-09
2.07378e-05
1.32594e-10
2.07369e-05
-3.63041e-10
2.0735e-05
6.21716e-10
2.07341e-05
-2.18686e-10
2.07331e-05
-1.48076e-10
2.07327e-05
-6.70206e-10
2.07314e-05
2.79606e-10
2.07298e-05
6.91223e-10
2.07277e-05
1.10194e-09
2.07265e-05
2.22021e-10
2.07254e-05
-3.47879e-12
2.07242e-05
1.7808e-10
2.0722e-05
1.0369e-09
2.07205e-05
4.0895e-10
2.07181e-05
1.08237e-09
2.07159e-05
9.81998e-10
2.07126e-05
2.02652e-09
2.07097e-05
1.54918e-09
2.07067e-05
1.747e-09
2.07037e-05
1.82632e-09
2.07006e-05
1.8651e-09
2.06977e-05
1.84832e-09
2.06938e-05
2.89716e-09
2.06903e-05
2.64216e-09
2.06857e-05
3.67725e-09
2.06823e-05
2.72134e-09
2.06773e-05
4.22862e-09
2.06737e-05
2.97503e-09
2.06699e-05
3.27375e-09
2.06669e-05
2.48291e-09
2.06636e-05
2.75354e-09
2.06611e-05
2.08403e-09
2.06579e-05
2.70313e-09
2.06559e-05
1.65771e-09
2.06532e-05
2.33507e-09
2.06513e-05
1.50458e-09
2.06495e-05
1.38294e-09
2.06487e-05
4.28379e-10
2.0648e-05
3.89848e-10
2.06476e-05
4.40563e-11
2.06465e-05
7.01552e-10
2.06459e-05
1.82882e-10
2.0646e-05
-4.98009e-10
2.0647e-05
-1.38441e-09
2.0648e-05
-1.41097e-09
2.06492e-05
-1.64721e-09
2.06504e-05
-1.67745e-09
2.06521e-05
-2.14743e-09
2.06533e-05
-1.66632e-09
2.06555e-05
-2.6642e-09
2.06585e-05
-3.56548e-09
2.06626e-05
-4.70071e-09
2.06668e-05
-4.96386e-09
2.06705e-05
-4.43164e-09
2.06753e-05
-5.64185e-09
2.06811e-05
-6.61842e-09
2.06863e-05
-5.97318e-09
2.06921e-05
-6.69309e-09
2.0698e-05
-6.74137e-09
2.07034e-05
-6.26274e-09
2.07097e-05
-7.11088e-09
2.07154e-05
-6.58955e-09
2.0721e-05
-6.39753e-09
2.07267e-05
-6.43064e-09
2.07317e-05
-5.7701e-09
2.07376e-05
-6.64195e-09
2.07428e-05
-5.83233e-09
2.07477e-05
-5.46277e-09
2.07523e-05
-5.16144e-09
2.07568e-05
-4.8147e-09
2.07613e-05
-4.7356e-09
2.07653e-05
-4.10175e-09
2.07695e-05
-4.04956e-09
2.07731e-05
-3.30463e-09
2.07765e-05
-2.93079e-09
2.07802e-05
-3.00312e-09
2.07836e-05
-2.50289e-09
2.07864e-05
-1.75085e-09
2.07896e-05
-1.79843e-09
2.07921e-05
-9.47493e-10
2.07952e-05
-1.33984e-09
2.07971e-05
5.99192e-11
2.07996e-05
-3.35565e-10
2.08024e-05
-5.37515e-10
2.08047e-05
1.70689e-10
2.08075e-05
-2.13593e-10
2.08089e-05
1.24736e-09
2.08109e-05
8.20045e-10
2.08129e-05
7.44912e-10
2.08143e-05
1.44889e-09
2.08159e-05
1.25859e-09
2.08161e-05
2.76391e-09
2.08164e-05
2.57762e-09
2.08169e-05
2.45318e-09
2.08169e-05
2.92726e-09
2.0817e-05
2.78633e-09
2.0816e-05
3.88258e-09
2.08149e-05
3.98689e-09
2.08145e-05
3.31686e-09
2.08141e-05
3.25708e-09
2.08126e-05
4.25543e-09
2.0811e-05
4.29237e-09
2.08092e-05
4.41483e-09
2.08078e-05
3.93477e-09
2.08063e-05
3.84708e-09
2.08039e-05
4.66265e-09
2.08022e-05
3.90497e-09
2.08003e-05
3.97742e-09
2.07975e-05
4.75485e-09
2.07954e-05
3.94135e-09
2.07934e-05
3.80002e-09
2.07908e-05
4.38582e-09
2.07891e-05
3.38867e-09
2.07877e-05
3.01269e-09
2.07858e-05
3.41276e-09
2.07845e-05
2.71134e-09
2.0784e-05
1.87654e-09
2.0783e-05
2.3405e-09
2.07823e-05
1.89048e-09
2.07825e-05
9.82266e-10
2.07825e-05
1.07316e-09
2.07832e-05
2.68906e-10
2.07848e-05
-6.85125e-10
2.07857e-05
-1.85204e-10
2.07881e-05
-1.74775e-09
2.07918e-05
-3.15863e-09
2.07948e-05
-2.51457e-09
2.08004e-05
-5.41238e-09
2.08062e-05
-5.73933e-09
2.08132e-05
-7.02009e-09
2.08229e-05
-9.8381e-09
2.08295e-05
-6.91576e-09
2.08431e-05
-1.41091e-08
2.08499e-05
-7.57409e-09
2.08722e-05
-2.3256e-08
2.08734e-05
-2.38314e-09
2.09152e-05
-4.30913e-08
2.08995e-05
1.42216e-08
2.09782e-05
-8.03697e-08
2.09296e-05
4.67404e-08
2.10667e-05
-1.38993e-07
2.09682e-05
9.63691e-08
2.11616e-05
-1.95528e-07
2.09672e-05
1.92193e-07
2.11843e-05
-2.19276e-07
2.08576e-05
3.24387e-07
2.10313e-05
-1.76055e-07
2.05568e-05
4.72167e-07
2.05881e-05
-3.3844e-08
1.99643e-05
6.212e-07
1.9755e-05
2.06651e-07
1.88388e-05
9.1353e-07
1.73157e-05
1.52056e-06
1.42236e-05
3.0902e-06
7.91231e-06
6.31082e-06
-2.00557e-06
9.91807e-06
-1.84952e-06
-1.56002e-07
-1.03436e-06
-8.1516e-07
-8.04892e-07
-2.29472e-07
-5.02415e-07
-3.02477e-07
-1.12058e-06
6.18169e-07
-1.33864e-06
2.1806e-07
-2.21386e-06
8.75217e-07
-2.81182e-06
5.97963e-07
-3.21478e-06
4.02957e-07
-3.21478e-06
3.40724e-05
5.92126e-07
3.39239e-05
5.78571e-07
3.35816e-05
9.41149e-07
3.32436e-05
9.13437e-07
3.2892e-05
9.75898e-07
3.25696e-05
8.93759e-07
3.22222e-05
9.25028e-07
3.19116e-05
8.75467e-07
3.16617e-05
7.07984e-07
3.13485e-05
9.68832e-07
3.11691e-05
4.62728e-07
3.05851e-05
5.48606e-07
3.02581e-05
1.79701e-07
2.94431e-05
2.031e-06
2.90261e-05
2.13472e-06
2.82181e-05
2.47719e-06
2.80954e-05
8.33859e-07
2.78239e-05
9.77416e-07
2.81816e-05
-7.31519e-07
2.80897e-05
-1.04407e-06
2.82913e-05
-1.41837e-06
2.79712e-05
2.36951e-07
2.79634e-05
4.81679e-07
2.76814e-05
1.41751e-06
2.78608e-05
5.97689e-07
2.76612e-05
4.71803e-07
2.76615e-05
-3.39057e-08
2.75091e-05
5.43803e-08
2.74562e-05
-1.06078e-07
2.74928e-05
-4.83888e-08
2.75444e-05
-2.40688e-08
2.77383e-05
-3.32613e-07
2.78478e-05
-3.20025e-07
2.79375e-05
-2.14628e-07
2.79548e-05
-1.25845e-08
2.79398e-05
8.24794e-08
2.78881e-05
1.30879e-07
2.78528e-05
6.93954e-08
2.78101e-05
8.86899e-08
2.77843e-05
6.09734e-08
2.77264e-05
1.15382e-07
2.76894e-05
8.13312e-08
2.76466e-05
7.9542e-08
2.76433e-05
1.69095e-09
2.76276e-05
9.68576e-09
2.7631e-05
-1.23502e-08
2.76111e-05
3.00177e-08
2.76044e-05
1.10674e-08
2.75832e-05
3.5514e-08
2.75731e-05
1.36808e-08
2.7553e-05
2.9904e-08
2.75442e-05
1.06059e-08
2.75279e-05
2.33336e-08
2.75212e-05
6.90141e-09
2.75087e-05
1.58654e-08
2.75031e-05
4.27075e-09
2.7492e-05
1.08576e-08
2.74845e-05
3.39247e-09
2.74729e-05
8.72126e-09
2.74634e-05
6.93006e-09
2.74499e-05
1.21857e-08
2.7438e-05
1.25824e-08
2.74235e-05
1.78654e-08
2.74092e-05
1.92544e-08
2.73924e-05
2.55824e-08
2.73751e-05
2.86278e-08
2.73566e-05
3.23267e-08
2.73372e-05
3.51337e-08
2.73159e-05
3.96921e-08
2.7294e-05
4.13399e-08
2.72696e-05
4.53239e-08
2.72448e-05
4.5498e-08
2.72169e-05
5.07496e-08
2.71894e-05
4.78301e-08
2.71582e-05
5.51588e-08
2.71295e-05
4.86239e-08
2.70964e-05
5.82765e-08
2.7068e-05
4.69468e-08
2.70348e-05
5.79218e-08
2.70095e-05
4.14615e-08
2.69764e-05
5.73777e-08
2.6955e-05
3.4856e-08
2.69203e-05
5.76045e-08
2.69017e-05
3.02141e-08
2.68667e-05
5.79019e-08
2.68501e-05
2.58052e-08
2.68167e-05
5.61911e-08
2.6803e-05
2.10143e-08
2.67708e-05
5.39004e-08
2.6762e-05
1.43859e-08
2.67308e-05
5.21961e-08
2.67252e-05
1.03019e-08
2.66936e-05
5.26091e-08
2.66915e-05
3.78438e-09
2.66586e-05
5.35384e-08
2.66594e-05
-1.73097e-09
2.66238e-05
5.64302e-08
2.66276e-05
-8.30801e-09
2.65877e-05
6.33188e-08
2.65971e-05
-1.7966e-08
2.65518e-05
7.04199e-08
2.65687e-05
-3.00858e-08
2.65177e-05
7.8802e-08
2.65424e-05
-4.25275e-08
2.64854e-05
8.74711e-08
2.65173e-05
-5.37827e-08
2.64545e-05
9.58551e-08
2.64918e-05
-6.24959e-08
2.6424e-05
1.03641e-07
2.64648e-05
-6.80474e-08
2.6393e-05
1.09977e-07
2.64361e-05
-7.2059e-08
2.63614e-05
1.14251e-07
2.64054e-05
-7.3183e-08
2.6329e-05
1.1709e-07
2.63729e-05
-7.31165e-08
2.62962e-05
1.1751e-07
2.63392e-05
-7.19261e-08
2.62633e-05
1.15816e-07
2.6304e-05
-6.83872e-08
2.623e-05
1.12946e-07
2.62674e-05
-6.35104e-08
2.61964e-05
1.08207e-07
2.62301e-05
-5.77232e-08
2.61632e-05
1.01597e-07
2.61927e-05
-5.17329e-08
2.61304e-05
9.44346e-08
2.6156e-05
-4.54631e-08
2.60985e-05
8.65629e-08
2.61199e-05
-3.85623e-08
2.60674e-05
7.92674e-08
2.60846e-05
-3.18008e-08
2.60372e-05
7.1531e-08
2.6051e-05
-2.6496e-08
2.60086e-05
6.33935e-08
2.60192e-05
-2.09145e-08
2.59816e-05
5.61478e-08
2.59893e-05
-1.62696e-08
2.59562e-05
4.93904e-08
2.59611e-05
-1.1416e-08
2.59322e-05
4.31928e-08
2.59353e-05
-8.44734e-09
2.59103e-05
3.69127e-08
2.59118e-05
-5.13427e-09
2.58903e-05
3.19538e-08
2.58907e-05
-2.60291e-09
2.58739e-05
2.35885e-08
2.58725e-05
1.11398e-09
2.58617e-05
1.32765e-08
2.58558e-05
1.00738e-08
2.58539e-05
-1.61851e-09
2.584e-05
2.38173e-08
2.58514e-05
-2.24806e-08
2.58263e-05
3.94751e-08
2.58526e-05
-4.48201e-08
2.58139e-05
6.05403e-08
2.58522e-05
-6.21568e-08
2.57999e-05
8.33042e-08
2.58465e-05
-7.36777e-08
2.5783e-05
1.00886e-07
2.58332e-05
-7.7668e-08
2.57615e-05
1.15399e-07
2.58102e-05
-7.30537e-08
2.57357e-05
1.20354e-07
2.57787e-05
-6.34426e-08
2.57065e-05
1.17068e-07
2.57397e-05
-4.7228e-08
2.56748e-05
1.05441e-07
2.56949e-05
-2.62585e-08
2.56419e-05
8.76652e-08
2.56486e-05
-6.7521e-09
2.56114e-05
6.20259e-08
2.56076e-05
5.40132e-09
2.55829e-05
4.10522e-08
2.55691e-05
2.24924e-08
2.55549e-05
2.36945e-08
2.55349e-05
3.17337e-08
2.55278e-05
1.02449e-08
2.55049e-05
3.57525e-08
2.55016e-05
5.91599e-09
2.54755e-05
4.08745e-08
2.54752e-05
1.47474e-10
2.54477e-05
4.36318e-08
2.54505e-05
-5.45307e-09
2.54224e-05
4.457e-08
2.54283e-05
-1.07113e-08
2.53995e-05
4.56863e-08
2.54091e-05
-1.72349e-08
2.53793e-05
4.71458e-08
2.53929e-05
-2.37189e-08
2.53614e-05
5.00943e-08
2.53795e-05
-3.14772e-08
2.53455e-05
5.36086e-08
2.53684e-05
-3.9286e-08
2.53308e-05
5.99497e-08
2.5359e-05
-4.78527e-08
2.53168e-05
6.657e-08
2.53499e-05
-5.5048e-08
2.53029e-05
7.43656e-08
2.53405e-05
-6.23338e-08
2.52888e-05
8.19556e-08
2.53295e-05
-6.6063e-08
2.52742e-05
8.77866e-08
2.53166e-05
-6.87279e-08
2.52592e-05
9.20031e-08
2.53017e-05
-6.85388e-08
2.52438e-05
9.26059e-08
2.5285e-05
-6.61606e-08
2.52282e-05
9.05992e-08
2.52663e-05
-6.08208e-08
2.52126e-05
8.56065e-08
2.52455e-05
-5.2599e-08
2.51969e-05
7.7591e-08
2.52238e-05
-4.28887e-08
2.51825e-05
6.53308e-08
2.52027e-05
-3.28954e-08
2.517e-05
5.19598e-08
2.51841e-05
-2.48838e-08
2.51593e-05
3.89946e-08
2.51687e-05
-1.69209e-08
2.515e-05
2.87419e-08
2.51559e-05
-1.20213e-08
2.51414e-05
2.20585e-08
2.51448e-05
-7.27677e-09
2.51332e-05
1.71844e-08
2.51347e-05
-3.87966e-09
2.51251e-05
1.46584e-08
2.51252e-05
-1.885e-09
2.51167e-05
1.31538e-08
2.51162e-05
-1.02614e-10
2.51086e-05
1.16947e-08
2.51074e-05
1.12264e-09
2.51002e-05
1.15824e-08
2.50983e-05
2.69911e-09
2.50921e-05
1.01111e-08
2.50898e-05
3.71414e-09
2.50846e-05
9.38745e-09
2.5081e-05
5.23402e-09
2.50752e-05
9.85297e-09
2.50711e-05
6.50855e-09
2.50656e-05
9.02489e-09
2.50612e-05
7.03834e-09
2.50556e-05
9.70103e-09
2.50506e-05
8.55044e-09
2.5045e-05
9.03327e-09
2.504e-05
8.62231e-09
2.50345e-05
8.96206e-09
2.5029e-05
9.41135e-09
2.50233e-05
9.54757e-09
2.50175e-05
1.01509e-08
2.50117e-05
1.00221e-08
2.50055e-05
1.07352e-08
2.49994e-05
1.0596e-08
2.49933e-05
1.01846e-08
2.49873e-05
1.05598e-08
2.49808e-05
1.16598e-08
2.49743e-05
1.16067e-08
2.49673e-05
1.24866e-08
2.4961e-05
1.03822e-08
2.4954e-05
1.21719e-08
2.49472e-05
1.22056e-08
2.49399e-05
1.23047e-08
2.49325e-05
1.27133e-08
2.49245e-05
1.36499e-08
2.49167e-05
1.27395e-08
2.49081e-05
1.41612e-08
2.49e-05
1.31643e-08
2.48909e-05
1.4708e-08
2.4882e-05
1.42371e-08
2.48729e-05
1.40016e-08
2.48632e-05
1.56981e-08
2.48537e-05
1.47488e-08
2.48434e-05
1.57392e-08
2.48336e-05
1.50009e-08
2.48229e-05
1.696e-08
2.48125e-05
1.63093e-08
2.48019e-05
1.63387e-08
2.47916e-05
1.59384e-08
2.47814e-05
1.59117e-08
2.47713e-05
1.61911e-08
2.4761e-05
1.68165e-08
2.47509e-05
1.6485e-08
2.47411e-05
1.56382e-08
2.47315e-05
1.55491e-08
2.47221e-05
1.56137e-08
2.47127e-05
1.56347e-08
2.47041e-05
1.38724e-08
2.46952e-05
1.49302e-08
2.46875e-05
1.32506e-08
2.46789e-05
1.41351e-08
2.46716e-05
1.17183e-08
2.46639e-05
1.27602e-08
2.4657e-05
1.15796e-08
2.46499e-05
1.1313e-08
2.46431e-05
1.1609e-08
2.46366e-05
1.01153e-08
2.46301e-05
1.00734e-08
2.46244e-05
9.02392e-09
2.46179e-05
1.01256e-08
2.46122e-05
8.80428e-09
2.46057e-05
1.00572e-08
2.46004e-05
7.81302e-09
2.45946e-05
8.0161e-09
2.45899e-05
6.23576e-09
2.45845e-05
7.74281e-09
2.45801e-05
5.85852e-09
2.45749e-05
6.82889e-09
2.45711e-05
4.29778e-09
2.45667e-05
5.41572e-09
2.45637e-05
2.75732e-09
2.456e-05
3.68202e-09
2.45578e-05
1.16391e-09
2.45547e-05
3.06002e-09
2.45529e-05
3.64053e-10
2.45512e-05
4.14827e-10
2.45504e-05
-1.4218e-09
2.45495e-05
-1.01895e-09
2.45492e-05
-2.16769e-09
2.45486e-05
-1.34347e-09
2.45486e-05
-2.53809e-09
2.45492e-05
-3.15327e-09
2.45501e-05
-3.61414e-09
2.45514e-05
-4.53625e-09
2.45533e-05
-6.05096e-09
2.45554e-05
-5.29695e-09
2.45578e-05
-6.53646e-09
2.45605e-05
-7.07551e-09
2.45636e-05
-7.13103e-09
2.45668e-05
-8.26456e-09
2.45704e-05
-8.94739e-09
2.4574e-05
-8.15463e-09
2.45779e-05
-9.35628e-09
2.45815e-05
-8.57828e-09
2.45859e-05
-9.64021e-09
2.45898e-05
-9.55727e-09
2.45943e-05
-1.04367e-08
2.45987e-05
-9.971e-09
2.46033e-05
-1.0184e-08
2.46079e-05
-1.08326e-08
2.46122e-05
-9.15257e-09
2.4617e-05
-1.08784e-08
2.46213e-05
-9.65237e-09
2.46262e-05
-1.09771e-08
2.46303e-05
-9.63547e-09
2.46351e-05
-9.70836e-09
2.46396e-05
-1.03056e-08
2.46441e-05
-9.46015e-09
2.46485e-05
-9.73668e-09
2.46532e-05
-1.04344e-08
2.46576e-05
-9.66541e-09
2.46625e-05
-1.07794e-08
2.4667e-05
-1.02495e-08
2.46718e-05
-1.06516e-08
2.46764e-05
-1.02875e-08
2.46807e-05
-9.18332e-09
2.46849e-05
-9.54721e-09
2.46887e-05
-8.77419e-09
2.46926e-05
-9.38511e-09
2.4696e-05
-8.054e-09
2.46995e-05
-8.66045e-09
2.47025e-05
-7.16793e-09
2.47057e-05
-8.08057e-09
2.47081e-05
-6.50835e-09
2.47111e-05
-7.82364e-09
2.47134e-05
-6.42258e-09
2.47157e-05
-5.75751e-09
2.47178e-05
-5.91366e-09
2.47195e-05
-5.14256e-09
2.47219e-05
-6.30564e-09
2.47236e-05
-5.04195e-09
2.4726e-05
-5.78089e-09
2.47275e-05
-4.69009e-09
2.47296e-05
-5.53813e-09
2.47309e-05
-3.77558e-09
2.47328e-05
-4.97868e-09
2.47339e-05
-3.23311e-09
2.47357e-05
-4.44653e-09
2.47367e-05
-2.64482e-09
2.47382e-05
-3.70682e-09
2.47389e-05
-1.92731e-09
2.474e-05
-2.8002e-09
2.47405e-05
-1.1031e-09
2.47412e-05
-1.87607e-09
2.47416e-05
-1.41468e-09
2.47414e-05
3.5152e-10
2.47417e-05
-6.93506e-10
2.47411e-05
1.26034e-09
2.47414e-05
-5.48733e-10
2.4741e-05
2.64871e-10
2.47411e-05
-7.31988e-10
2.47407e-05
6.39874e-10
2.47403e-05
1.14417e-09
2.4739e-05
2.31347e-09
2.47383e-05
9.93297e-10
2.47373e-05
9.19427e-10
2.47369e-05
5.87137e-10
2.47357e-05
2.28282e-09
2.47348e-05
1.32922e-09
2.47329e-05
2.91302e-09
2.47315e-05
2.46461e-09
2.47291e-05
4.37619e-09
2.47271e-05
3.55779e-09
2.47244e-05
4.47765e-09
2.47222e-05
3.97823e-09
2.47197e-05
4.42247e-09
2.47176e-05
3.95888e-09
2.47148e-05
5.64395e-09
2.47122e-05
5.23478e-09
2.47089e-05
7.01871e-09
2.47062e-05
5.41215e-09
2.47024e-05
8.00997e-09
2.46993e-05
6.08021e-09
2.46959e-05
6.67554e-09
2.46936e-05
4.76554e-09
2.46907e-05
5.64498e-09
2.46885e-05
4.28989e-09
2.46858e-05
5.444e-09
2.46838e-05
3.67173e-09
2.46811e-05
5.01867e-09
2.46792e-05
3.41031e-09
2.46775e-05
3.02729e-09
2.46766e-05
1.405e-09
2.46755e-05
1.43905e-09
2.46748e-05
7.08741e-10
2.4674e-05
1.57976e-09
2.46731e-05
1.06813e-09
2.46729e-05
-3.34839e-10
2.46735e-05
-1.92857e-09
2.46741e-05
-2.09774e-09
2.4675e-05
-2.53642e-09
2.4676e-05
-2.59992e-09
2.46773e-05
-3.51233e-09
2.46787e-05
-3.04386e-09
2.46807e-05
-4.71009e-09
2.46828e-05
-5.67518e-09
2.46857e-05
-7.59447e-09
2.46897e-05
-8.96511e-09
2.46933e-05
-8.01249e-09
2.46982e-05
-1.05289e-08
2.47027e-05
-1.11098e-08
2.47078e-05
-1.10998e-08
2.47128e-05
-1.16206e-08
2.47185e-05
-1.24514e-08
2.47242e-05
-1.20072e-08
2.47302e-05
-1.30865e-08
2.47363e-05
-1.26552e-08
2.47422e-05
-1.23424e-08
2.47481e-05
-1.22923e-08
2.4754e-05
-1.17277e-08
2.47602e-05
-1.28662e-08
2.4766e-05
-1.15603e-08
2.47719e-05
-1.13847e-08
2.47775e-05
-1.08028e-08
2.47827e-05
-9.95206e-09
2.47884e-05
-1.04172e-08
2.47938e-05
-9.49083e-09
2.47994e-05
-9.69998e-09
2.48046e-05
-8.47885e-09
2.48101e-05
-8.46401e-09
2.48146e-05
-7.4982e-09
2.48199e-05
-7.82193e-09
2.48246e-05
-6.453e-09
2.48298e-05
-6.92373e-09
2.48342e-05
-5.35433e-09
2.48387e-05
-5.91834e-09
2.48429e-05
-4.12005e-09
2.48476e-05
-4.96484e-09
2.48516e-05
-4.62564e-09
2.4856e-05
-4.24522e-09
2.48603e-05
-4.49158e-09
2.48637e-05
-2.11595e-09
2.48672e-05
-2.74282e-09
2.48705e-05
-2.52013e-09
2.48735e-05
-1.51739e-09
2.48766e-05
-1.86831e-09
2.48785e-05
8.70143e-10
2.48805e-05
5.37016e-10
2.48822e-05
7.89877e-10
2.48834e-05
1.74341e-09
2.48849e-05
1.23092e-09
2.48858e-05
3.05484e-09
2.48862e-05
3.55474e-09
2.48871e-05
2.4067e-09
2.48875e-05
2.87201e-09
2.48873e-05
4.42754e-09
2.4887e-05
4.63048e-09
2.48863e-05
5.08381e-09
2.48864e-05
3.86803e-09
2.48855e-05
4.69931e-09
2.48847e-05
5.46462e-09
2.48836e-05
5.0419e-09
2.4882e-05
5.59972e-09
2.48805e-05
6.20243e-09
2.48788e-05
5.67449e-09
2.48775e-05
5.09344e-09
2.48758e-05
6.0345e-09
2.48743e-05
4.94176e-09
2.48728e-05
4.46669e-09
2.48719e-05
4.31995e-09
2.48711e-05
3.56028e-09
2.48702e-05
2.76293e-09
2.48696e-05
2.93655e-09
2.48697e-05
1.79744e-09
2.48695e-05
1.12732e-09
2.48698e-05
7.80668e-10
2.48704e-05
-2.79971e-10
2.48714e-05
-1.72143e-09
2.4873e-05
-1.74321e-09
2.48751e-05
-3.85641e-09
2.48775e-05
-5.57812e-09
2.4881e-05
-6.03674e-09
2.48856e-05
-9.949e-09
2.48911e-05
-1.12357e-08
2.48979e-05
-1.38592e-08
2.49061e-05
-1.80835e-08
2.49137e-05
-1.4452e-08
2.49259e-05
-2.63072e-08
2.4934e-05
-1.56973e-08
2.4954e-05
-4.32303e-08
2.49576e-05
-6.02183e-09
2.49958e-05
-8.1281e-08
2.49824e-05
2.7602e-08
2.5063e-05
-1.61005e-07
2.50057e-05
1.04113e-07
2.51637e-05
-2.96986e-07
2.50189e-05
2.41138e-07
2.52745e-05
-4.51114e-07
2.49836e-05
4.83126e-07
2.53267e-05
-5.62448e-07
2.48386e-05
8.12536e-07
2.52166e-05
-5.54115e-07
2.45103e-05
1.17852e-06
2.4815e-05
-3.38595e-07
2.39128e-05
1.5234e-06
2.39326e-05
1.86874e-07
2.26592e-05
2.18694e-06
2.154e-05
2.63986e-06
1.83768e-05
6.25341e-06
1.25051e-05
1.21823e-05
4.22501e-06
1.8198e-05
1.74666e-06
2.32238e-06
2.14908e-06
-1.21759e-06
1.95387e-06
-3.42553e-08
1.61896e-06
3.2424e-08
8.72521e-07
1.36461e-06
1.93423e-07
8.97157e-07
-9.09908e-07
1.97855e-06
-1.67842e-06
1.36648e-06
-2.22223e-06
9.46761e-07
-5.43701e-06
3.40718e-05
7.20341e-07
3.39265e-05
7.2384e-07
3.36005e-05
1.26719e-06
3.32832e-05
1.23074e-06
3.29702e-05
1.28888e-06
3.26936e-05
1.17035e-06
3.24262e-05
1.19224e-06
3.21074e-05
1.19354e-06
3.19195e-05
8.90815e-07
3.17962e-05
1.06822e-06
3.18278e-05
4.04189e-07
3.18025e-05
6.39211e-07
3.16882e-05
4.39399e-07
3.09342e-05
2.77524e-06
3.03647e-05
2.55239e-06
2.95189e-05
3.27523e-06
2.90618e-05
1.30753e-06
2.88117e-05
1.189e-06
2.94891e-05
-1.42817e-06
2.99921e-05
-1.44955e-06
3.05519e-05
-1.87367e-06
3.03999e-05
3.97381e-07
3.03134e-05
5.34191e-07
2.99959e-05
1.66293e-06
3.0001e-05
5.38025e-07
2.98815e-05
5.93785e-07
3.00595e-05
-2.02207e-07
3.00816e-05
6.93226e-08
3.01009e-05
-8.41709e-08
3.01235e-05
-8.26508e-08
3.01455e-05
-7.42195e-08
3.03132e-05
-5.07021e-07
3.04351e-05
-4.36565e-07
3.05466e-05
-3.22693e-07
3.05882e-05
-5.40572e-08
3.06023e-05
6.83773e-08
3.05914e-05
1.41746e-07
3.05782e-05
8.2453e-08
3.05561e-05
1.10723e-07
3.05475e-05
6.95418e-08
3.05161e-05
1.46746e-07
3.05032e-05
9.42751e-08
3.04785e-05
1.04282e-07
3.04773e-05
2.86553e-09
3.04626e-05
2.44613e-08
3.04627e-05
-1.25059e-08
3.04481e-05
4.46068e-08
3.04402e-05
1.88969e-08
3.04209e-05
5.48397e-08
3.0409e-05
2.56084e-08
3.03892e-05
4.9695e-08
3.03779e-05
2.19622e-08
3.03607e-05
4.05504e-08
3.03496e-05
1.79604e-08
3.03348e-05
3.06708e-08
3.03243e-05
1.4681e-08
3.03097e-05
2.54457e-08
3.02975e-05
1.55885e-08
3.02818e-05
2.4383e-08
3.02677e-05
2.10752e-08
3.02504e-05
2.95311e-08
3.02343e-05
2.86685e-08
3.0216e-05
3.61306e-08
3.01983e-05
3.70113e-08
3.01783e-05
4.55731e-08
3.01583e-05
4.86464e-08
3.01375e-05
5.32182e-08
3.01148e-05
5.77913e-08
3.0091e-05
6.34936e-08
3.00653e-05
6.70074e-08
3.00372e-05
7.34507e-08
3.0008e-05
7.46652e-08
2.99758e-05
8.28787e-08
2.99428e-05
8.08825e-08
2.99071e-05
9.08746e-08
2.98725e-05
8.31883e-08
2.9834e-05
9.67734e-08
2.9799e-05
8.19659e-08
2.97607e-05
9.61889e-08
2.97277e-05
7.45562e-08
2.96903e-05
9.47485e-08
2.96592e-05
6.59273e-08
2.96216e-05
9.52541e-08
2.95931e-05
5.86204e-08
2.95547e-05
9.63714e-08
2.95277e-05
5.27431e-08
2.94865e-05
9.74391e-08
2.94616e-05
4.59128e-08
2.94207e-05
9.48272e-08
2.93981e-05
3.69765e-08
2.93601e-05
9.01667e-08
2.93399e-05
3.05291e-08
2.9302e-05
9.04899e-08
2.92854e-05
2.0467e-08
2.9246e-05
9.29007e-08
2.92301e-05
1.41849e-08
2.91889e-05
9.75238e-08
2.91756e-05
5.05214e-09
2.9132e-05
1.06903e-07
2.91229e-05
-8.84281e-09
2.90765e-05
1.16829e-07
2.90735e-05
-2.71241e-08
2.9024e-05
1.28289e-07
2.90273e-05
-4.58203e-08
2.8974e-05
1.40836e-07
2.89824e-05
-6.22568e-08