/*--------------------------------*- C++ -*----------------------------------*\
| =========                 |                                                 |
| \\      /  F ield         | foam-extend: Open Source CFD                    |
|  \\    /   O peration     | Version:     3.2                                |
|   \\  /    A nd           | Web:         http://www.foam-extend.org         |
|    \\/     M anipulation  | For copyright notice see file Copyright         |
\*---------------------------------------------------------------------------*/
FoamFile
{
    version     2.0;
    format      ascii;
    class       areaVectorField;
    location    "840";
    object      PointNormalVector;
}
// * * * * * * * * * * * * * * * * * * * * * * * * * * * * * * * * * * * * * //

dimensions      [0 0 0 0 0 0 0];

internalField   nonuniform List<vector> 
550
(
(7.27272e-07 0 0.000363636)
(7.27274e-07 0 0.000363636)
(7.27274e-07 2.64698e-23 0.000363638)
(7.2728e-07 -2.64698e-23 0.000363636)
(7.2726e-07 -2.64698e-23 0.000363636)
(7.2728e-07 0 0.000363638)
(7.2726e-07 2.64698e-23 0.00036364)
(7.2728e-07 2.64698e-23 0.00036364)
(7.2728e-07 0 0.00036362)
(7.2726e-07 0 0.00036364)
(2.85244e-06 0 0.00036364)
(-3.32832e-06 -1.05879e-22 0.00036364)
(5.20239e-06 0 0.00036364)
(-4.02908e-06 1.05879e-22 0.00036362)
(5.14324e-06 0 0.00036364)
(-3.82757e-06 1.05879e-22 0.00036364)
(4.15013e-06 0 0.00036364)
(-3.22396e-06 0 0.00036364)
(5.81441e-06 0 0.00036364)
(-9.20361e-06 4.23516e-22 0.00036362)
(3.02643e-06 0 0.00036364)
(-5.32004e-06 0 0.00036364)
(4.69402e-06 0 0.00036364)
(-4.68928e-06 -2.11758e-22 0.00036364)
(2.47896e-06 0 0.00036362)
(-1.02325e-05 -8.47033e-22 0.00036364)
(-1.07914e-06 0 0.00036364)
(-3.4735e-06 0 0.00036364)
(-3.24558e-06 1.05879e-22 0.00036364)
(-4.69299e-06 0 0.00036364)
(-9.84825e-06 0 0.00036362)
(-9.35393e-06 0 0.00036364)
(-1.1513e-05 4.23516e-22 0.00036364)
(-1.02328e-05 -4.23516e-22 0.00036364)
(-9.37204e-06 4.23516e-22 0.00036364)
(-7.67428e-06 2.11758e-22 0.00036362)
(-7.02275e-06 0 0.00036364)
(-6.99213e-06 0 0.00036364)
(-6.86937e-06 0 0.00036364)
(-6.03574e-06 0 0.00036364)
(-6.30277e-06 -2.11758e-22 0.00036364)
(-5.55717e-06 0 0.00036362)
(-6.26817e-06 0 0.00036364)
(-6.0871e-06 2.11758e-22 0.00036364)
(-6.61975e-06 -2.11758e-22 0.00036364)
(-5.91399e-06 0 0.00036364)
(-6.0553e-06 0 0.00036362)
(-5.42985e-06 0 0.00036364)
(-5.559e-06 -2.11758e-22 0.00036364)
(-5.09209e-06 0 0.00036364)
(-5.16261e-06 0 0.00036364)
(-4.78138e-06 0 0.00036364)
(-4.79707e-06 0 0.00036362)
(-4.50269e-06 0 0.00036364)
(-4.50023e-06 0 0.00036364)
(-4.2714e-06 2.11758e-22 0.0003636)
(-4.2421e-06 0 0.0003636)
(-4.0825e-06 0 0.0003638)
(-4.02279e-06 0 0.0003636)
(-3.86139e-06 0 0.0003636)
(-3.76058e-06 -1.05879e-22 0.0003636)
(-3.61124e-06 0 0.0003636)
(-3.47661e-06 0 0.0003636)
(-3.30501e-06 -1.05879e-22 0.0003638)
(-3.13492e-06 -1.05879e-22 0.0003636)
(-2.94624e-06 1.05879e-22 0.0003636)
(-2.76885e-06 -1.05879e-22 0.0003636)
(-2.58428e-06 1.05879e-22 0.0003636)
(-2.41712e-06 0 0.0003638)
(-2.24666e-06 1.05879e-22 0.0003636)
(-2.10878e-06 0 0.0003636)
(-1.95058e-06 0 0.0003636)
(-1.84497e-06 0 0.0003636)
(-1.69565e-06 0 0.0003636)
(-1.63134e-06 -5.29396e-23 0.0003638)
(-1.46353e-06 0 0.0003636)
(-1.44895e-06 0 0.0003636)
(-1.2653e-06 0 0.0003636)
(-1.30828e-06 0 0.0003636)
(-1.09725e-06 -5.29396e-23 0.0003638)
(-1.20347e-06 5.29396e-23 0.0003636)
(-9.4858e-07 -2.64698e-23 0.0003636)
(-1.13094e-06 0 0.0003636)
(-8.33046e-07 -2.64698e-23 0.0003636)
(-1.07538e-06 0 0.0003636)
(-7.21344e-07 0 0.0003638)
(-1.04183e-06 -2.64698e-23 0.0003636)
(-6.08195e-07 0 0.0003636)
(-1.01843e-06 0 0.0003636)
(-5.17309e-07 1.32349e-23 0.0003636)
(-1.02271e-06 0 0.0003638)
(-4.2818e-07 1.32349e-23 0.0003636)
(-1.0348e-06 2.64698e-23 0.0003636)
(-3.42641e-07 0 0.0003636)
(-1.06801e-06 0 0.0003636)
(-2.49703e-07 -6.61744e-24 0.0003636)
(-1.1402e-06 5.29396e-23 0.0003638)
(-1.52197e-07 6.61744e-24 0.0003636)
(-1.25199e-06 -5.29396e-23 0.0003636)
(-1.86329e-08 8.27181e-25 0.0003636)
(-1.43862e-06 0 0.0003636)
(1.43763e-07 0 0.0003638)
(-1.64137e-06 0 0.0003636)
(3.24773e-07 -1.32349e-23 0.0003636)
(-1.83666e-06 0 0.0003636)
(5.14481e-07 -1.32349e-23 0.0003636)
(-1.99526e-06 5.29396e-23 0.0003636)
(6.93771e-07 0 0.0003638)
(-2.09311e-06 5.29396e-23 0.0003636)
(8.50216e-07 -2.64698e-23 0.0003636)
(-2.14212e-06 -1.05879e-22 0.0003636)
(9.69282e-07 0 0.0003636)
(-2.16039e-06 1.05879e-22 0.0003638)
(1.07366e-06 0 0.0003636)
(-2.13446e-06 0 0.0003636)
(1.14701e-06 -5.29396e-23 0.0003636)
(-2.07529e-06 0 0.0003636)
(1.18791e-06 5.29396e-23 0.0003636)
(-1.99462e-06 0 0.0003638)
(1.20738e-06 0 0.0003636)
(-1.86865e-06 0 0.0003636)
(1.1927e-06 0 0.0003636)
(-1.72425e-06 0 0.0003636)
(1.14746e-06 0 0.0003638)
(-1.57065e-06 0 0.0003636)
(1.068e-06 0 0.0003636)
(-1.41228e-06 0 0.0003636)
(9.82381e-07 0 0.0003636)
(-1.26654e-06 0 0.0003636)
(8.94819e-07 0 0.0003638)
(-1.11109e-06 5.29396e-23 0.0003636)
(7.90926e-07 0 0.0003636)
(-9.7082e-07 0 0.0003636)
(6.79554e-07 0 0.0003636)
(-8.57724e-07 0 0.0003638)
(5.7814e-07 0 0.0003636)
(-7.45128e-07 0 0.0003636)
(4.67069e-07 0 0.0003636)
(-6.4538e-07 -2.64698e-23 0.0003636)
(3.70043e-07 1.32349e-23 0.0003636)
(-5.66192e-07 0 0.0003638)
(2.69406e-07 0 0.0003636)
(-5.17344e-07 1.32349e-23 0.0003636)
(1.81597e-07 0 0.0003636)
(-4.72706e-07 0 0.0003636)
(8.20409e-08 -3.30872e-24 0.0003638)
(-4.60592e-07 0 0.0003636)
(-4.72391e-08 1.65436e-24 0.0003636)
(-4.0775e-07 -1.32349e-23 0.0003636)
(-2.26849e-07 6.61744e-24 0.0003636)
(-2.77294e-07 -1.32349e-23 0.0003636)
(-5.24722e-07 0 0.0003638)
(-1.2756e-08 0 0.0003636)
(-9.70838e-07 -2.64698e-23 0.0003636)
(3.70007e-07 1.32349e-23 0.0003636)
(-1.3733e-06 0 0.0003636)
(7.88921e-07 0 0.0003638)
(-1.63511e-06 0 0.0003636)
(1.18052e-06 0 0.0003636)
(-1.79232e-06 0 0.0003636)
(1.52025e-06 0 0.0003636)
(-1.76217e-06 5.29396e-23 0.0003636)
(1.77679e-06 0 0.0003638)
(-1.59129e-06 5.29396e-23 0.0003636)
(1.86568e-06 0 0.0003636)
(-1.28622e-06 0 0.0003636)
(1.82012e-06 0 0.0003636)
(-8.95555e-07 2.64698e-23 0.0003638)
(1.62784e-06 0 0.0003636)
(-4.25416e-07 0 0.0003636)
(1.27561e-06 0 0.0003636)
(-8.26291e-09 0 0.0003636)
(8.34393e-07 0 0.0003636)
(3.07944e-07 0 0.0003638)
(5.86943e-07 0 0.0003636)
(5.48058e-07 0 0.0003636)
(4.04572e-07 -1.32349e-23 0.0003636)
(7.10805e-07 0 0.0003636)
(2.50659e-07 0 0.0003638)
(8.05937e-07 0 0.0003636)
(1.61411e-07 -6.61744e-24 0.0003636)
(8.79243e-07 0 0.0003636)
(9.61129e-08 0 0.0003636)
(9.08465e-07 0 0.0003636)
(2.33431e-08 8.27181e-25 0.0003638)
(9.31807e-07 -2.64698e-23 0.0003636)
(-5.78665e-08 0 0.0003636)
(9.51703e-07 0 0.0003636)
(-1.63201e-07 0 0.0003636)
(9.98586e-07 0 0.0003638)
(-2.76371e-07 1.32349e-23 0.0003636)
(1.05374e-06 0 0.0003636)
(-4.12486e-07 1.32349e-23 0.0003636)
(1.13732e-06 0 0.0003636)
(-5.40771e-07 0 0.0003636)
(1.2498e-06 0 0.0003638)
(-7.01261e-07 2.64698e-23 0.0003636)
(1.40395e-06 0 0.0003636)
(-8.35802e-07 0 0.0003636)
(1.535e-06 0 0.0003636)
(-9.35429e-07 0 0.0003638)
(1.68505e-06 0 0.0003636)
(-1.00083e-06 0 0.0003636)
(1.78696e-06 0 0.0003636)
(-9.99779e-07 0 0.0003636)
(1.85791e-06 0 0.0003636)
(-9.69279e-07 0 0.0003638)
(1.88657e-06 0 0.0003636)
(-8.78137e-07 0 0.0003636)
(1.86356e-06 0 0.0003636)
(-7.31601e-07 0 0.0003636)
(1.78261e-06 0 0.0003638)
(-5.35452e-07 2.64698e-23 0.0003636)
(1.63491e-06 5.29396e-23 0.0003636)
(-3.32449e-07 0 0.0003636)
(1.41956e-06 0 0.0003636)
(-1.08703e-07 0 0.0003636)
(1.16585e-06 0 0.0003638)
(5.84951e-08 0 0.0003636)
(9.80278e-07 0 0.0003636)
(1.69733e-07 6.61744e-24 0.0003636)
(8.21173e-07 -2.64698e-23 0.0003636)
(2.52516e-07 0 0.0003638)
(7.30947e-07 2.64698e-23 0.0003636)
(2.96019e-07 0 0.0003636)
(6.55802e-07 0 0.0003636)
(3.53966e-07 0 0.0003636)
(5.89909e-07 2.64698e-23 0.0003636)
(3.86861e-07 1.32349e-23 0.0003638)
(5.7357e-07 -2.64698e-23 0.0003636)
(3.99628e-07 0 0.0003636)
(5.51962e-07 2.64698e-23 0.0003636)
(4.31017e-07 0 0.0003636)
(5.42285e-07 2.64698e-23 0.0003638)
(4.58303e-07 1.32349e-23 0.0003636)
(5.28795e-07 2.64698e-23 0.0003636)
(4.9724e-07 0 0.0003636)
(5.34001e-07 0 0.0003636)
(4.98124e-07 -1.32349e-23 0.0003636)
(5.53261e-07 0 0.0003638)
(5.121e-07 0 0.0003636)
(5.38485e-07 0 0.0003636)
(5.34007e-07 0 0.0003636)
(5.63403e-07 0 0.0003636)
(5.46559e-07 0 0.0003638)
(5.52307e-07 -2.64698e-23 0.0003636)
(5.63348e-07 0 0.0003636)
(5.68151e-07 0 0.0003636)
(5.8004e-07 0 0.0003636)
(5.83671e-07 0 0.0003636)
(5.96711e-07 0 0.0003638)
(5.98536e-07 0 0.0003636)
(6.10024e-07 0 0.0003636)
(6.1008e-07 0 0.0003636)
(6.1059e-07 0 0.0003636)
(6.30605e-07 0 0.0003638)
(6.49431e-07 2.64698e-23 0.0003636)
(6.44409e-07 0 0.0003636)
(6.60361e-07 0 0.0003636)
(6.44965e-07 2.64698e-23 0.0003636)
(6.78561e-07 -2.64698e-23 0.0003636)
(6.84423e-07 0 0.0003638)
(6.82024e-07 0 0.0003636)
(7.06167e-07 0 0.0003636)
(7.21825e-07 0 0.0003636)
(7.09493e-07 0 0.0003636)
(7.42014e-07 0 0.0003638)
(7.40045e-07 2.64698e-23 0.0003636)
(7.62545e-07 0 0.0003636)
(7.6765e-07 0 0.0003636)
(7.73906e-07 2.64698e-23 0.0003636)
(8.13212e-07 -2.64698e-23 0.0003636)
(8.0224e-07 2.64698e-23 0.0003638)
(8.20624e-07 0 0.0003636)
(8.3703e-07 0 0.0003636)
(8.65383e-07 2.64698e-23 0.0003636)
(8.60276e-07 0 0.0003636)
(8.68201e-07 2.64698e-23 0.0003638)
(8.86676e-07 0 0.0003636)
(8.94307e-07 0 0.0003636)
(9.11286e-07 0 0.0003636)
(9.27076e-07 0 0.0003636)
(9.21959e-07 0 0.0003636)
(9.18337e-07 0 0.0003638)
(9.35783e-07 -2.64698e-23 0.0003636)
(9.40823e-07 0 0.0003636)
(9.3633e-07 0 0.0003636)
(9.24816e-07 0 0.0003636)
(9.51821e-07 0 0.0003638)
(9.25668e-07 -2.64698e-23 0.0003636)
(9.38792e-07 0 0.0003636)
(9.2098e-07 2.64698e-23 0.0003636)
(9.27278e-07 0 0.0003636)
(9.17983e-07 2.64698e-23 0.0003636)
(9.18907e-07 0 0.0003638)
(9.26412e-07 -2.64698e-23 0.0003636)
(9.01721e-07 2.64698e-23 0.0003636)
(9.00132e-07 -2.64698e-23 0.0003636)
(8.95416e-07 0 0.0003636)
(9.08794e-07 0 0.0003638)
(8.81413e-07 0 0.0003636)
(8.90522e-07 -2.64698e-23 0.0003636)
(8.62728e-07 -2.64698e-23 0.0003636)
(8.59646e-07 2.64698e-23 0.0003636)
(8.49082e-07 0 0.0003636)
(8.62035e-07 0 0.0003638)
(8.2837e-07 0 0.0003636)
(8.36292e-07 0 0.0003636)
(8.04248e-07 0 0.0003636)
(8.07645e-07 -2.64698e-23 0.0003636)
(7.76422e-07 0 0.0003638)
(7.75487e-07 -2.64698e-23 0.0003636)
(7.44777e-07 2.64698e-23 0.0003636)
(7.49468e-07 0 0.0003636)
(6.99541e-07 2.64698e-23 0.0003636)
(6.85046e-07 -2.64698e-23 0.0003636)
(6.57794e-07 -2.64698e-23 0.0003638)
(6.42515e-07 -2.64698e-23 0.0003636)
(6.15154e-07 0 0.0003636)
(6.06816e-07 -2.64698e-23 0.0003636)
(5.61532e-07 -2.64698e-23 0.0003636)
(5.37851e-07 2.64698e-23 0.0003638)
(5.25771e-07 -2.64698e-23 0.0003636)
(4.83907e-07 0 0.0003636)
(4.52067e-07 0 0.0003636)
(4.47192e-07 0 0.0003636)
(3.98532e-07 0 0.0003636)
(3.76228e-07 1.32349e-23 0.0003638)
(3.63512e-07 0 0.0003636)
(3.23611e-07 0 0.0003636)
(2.94736e-07 0 0.0003636)
(2.92689e-07 -1.32349e-23 0.0003636)
(2.50494e-07 6.61744e-24 0.0003638)
(2.42395e-07 0 0.0003636)
(2.10061e-07 0 0.0003636)
(1.94544e-07 6.61744e-24 0.0003636)
(1.70553e-07 0 0.0003636)
(1.53795e-07 0 0.0003636)
(1.36477e-07 0 0.0003638)
(1.17439e-07 0 0.0003636)
(1.1734e-07 0 0.0003636)
(7.05755e-08 3.30872e-24 0.0003636)
(8.32658e-08 3.30872e-24 0.0003636)
(5.16311e-08 -1.65436e-24 0.0003638)
(5.66159e-08 0 0.0003636)
(4.45978e-08 0 0.0003636)
(1.4657e-08 4.1359e-25 0.0003636)
(2.29887e-08 8.27181e-25 0.0003636)
(7.23405e-09 0 0.0003636)
(-2.04117e-08 0 0.0003638)
(-6.33827e-09 0 0.0003636)
(-3.2454e-08 8.27181e-25 0.0003636)
(-4.23496e-08 0 0.0003636)
(-3.91389e-08 0 0.0003636)
(-4.66065e-08 0 0.0003638)
(-4.19316e-08 1.65436e-24 0.0003636)
(-4.9296e-08 0 0.0003636)
(-4.34829e-08 1.65436e-24 0.0003636)
(-4.96033e-08 0 0.0003636)
(-4.21139e-08 0 0.0003636)
(-4.86202e-08 0 0.0003638)
(-3.99645e-08 0 0.0003636)
(-5.05515e-08 1.65436e-24 0.0003636)
(-3.87428e-08 0 0.0003636)
(-5.74304e-08 -1.65436e-24 0.0003636)
(-4.18098e-08 -1.65436e-24 0.0003638)
(-3.57847e-08 0 0.0003636)
(-4.75982e-08 -1.65436e-24 0.0003636)
(-3.88519e-08 0 0.0003636)
(-5.0362e-08 0 0.0003636)
(-4.05132e-08 0 0.0003636)
(-5.24845e-08 0 0.0003638)
(-4.15953e-08 0 0.0003636)
(-5.25432e-08 0 0.0003636)
(-4.07342e-08 1.65436e-24 0.0003636)
(-5.12793e-08 0 0.0003636)
(-3.84751e-08 -1.65436e-24 0.0003638)
(-4.7668e-08 1.65436e-24 0.0003636)
(-3.35394e-08 0 0.0003636)
(-4.21411e-08 0 0.0003636)
(-2.68464e-08 8.27181e-25 0.0003636)
(-3.50131e-08 -1.65436e-24 0.0003636)
(-1.86685e-08 0 0.0003638)
(-2.87685e-08 0 0.0003636)
(-1.72214e-08 -8.27181e-25 0.0003636)
(1.00652e-08 -4.1359e-25 0.0003636)
(-1.21197e-08 -4.1359e-25 0.0003636)
(1.75054e-08 0 0.0003638)
(-5.60495e-09 0 0.0003636)
(9.96689e-09 4.1359e-25 0.0003636)
(1.33249e-08 0 0.0003636)
(3.46186e-08 -1.65436e-24 0.0003636)
(4.8803e-08 1.65436e-24 0.0003636)
(5.43723e-08 1.65436e-24 0.0003638)
(4.54342e-08 0 0.0003636)
(7.57231e-08 3.30872e-24 0.0003636)
(7.03811e-08 0 0.0003636)
(9.81737e-08 0 0.0003636)
(9.31436e-08 0 0.0003638)
(1.18824e-07 3.30872e-24 0.0003636)
(1.14332e-07 0 0.0003636)
(1.37795e-07 0 0.0003636)
(1.3055e-07 0 0.0003636)
(1.48656e-07 0 0.0003636)
(1.38361e-07 0 0.0003638)
(1.44546e-07 6.61744e-24 0.0003636)
(1.55106e-07 0 0.0003636)
(1.80936e-07 0 0.0003636)
(1.61916e-07 0 0.0003636)
(1.85676e-07 0 0.0003638)
(1.68657e-07 6.61744e-24 0.0003636)
(1.99435e-07 0 0.0003636)
(1.58445e-07 -6.61744e-24 0.0003636)
(1.65954e-07 0 0.0003636)
(1.53458e-07 0 0.0003636)
(1.60603e-07 0 0.0003638)
(1.46473e-07 0 0.0003636)
(1.54802e-07 0 0.0003636)
(1.42084e-07 6.61744e-24 0.0003636)
(1.59613e-07 0 0.0003636)
(1.26281e-07 0 0.0003638)
(1.23222e-07 0 0.0003636)
(1.17138e-07 0 0.0003636)
(1.16462e-07 3.30872e-24 0.0003636)
(1.1026e-07 0 0.0003636)
(1.19842e-07 0 0.0003636)
(9.09305e-08 0 0.0003638)
(8.11427e-08 0 0.0003636)
(7.57048e-08 0 0.0003636)
(6.85622e-08 0 0.0003636)
(5.81256e-08 0 0.0003636)
(5.36043e-08 0 0.0003638)
(4.11338e-08 -1.65436e-24 0.0003636)
(4.36234e-08 0 0.0003636)
(8.74823e-09 0 0.0003636)
(-1.20696e-08 0 0.0003636)
(-2.95293e-08 8.27181e-25 0.0003636)
(-4.21034e-08 1.65436e-24 0.0003638)
(-4.8201e-08 1.65436e-24 0.0003636)
(-9.24001e-08 0 0.0003636)
(-9.21545e-08 3.30872e-24 0.0003636)
(-1.00704e-07 0 0.0003636)
(-1.33699e-07 0 0.0003638)
(-1.36259e-07 0 0.0003636)
(-1.35744e-07 6.61744e-24 0.0003636)
(-1.70844e-07 0 0.0003636)
(-1.64105e-07 0 0.0003636)
(-1.67787e-07 0 0.0003636)
(-1.89734e-07 6.61744e-24 0.0003638)
(-1.85891e-07 6.61744e-24 0.0003636)
(-2.13446e-07 0 0.0003636)
(-2.01643e-07 0 0.0003636)
(-2.01573e-07 0 0.0003636)
(-2.13195e-07 0 0.0003638)
(-2.09368e-07 0 0.0003636)
(-2.17969e-07 6.61744e-24 0.0003636)
(-2.11998e-07 6.61744e-24 0.0003636)
(-2.18405e-07 0 0.0003636)
(-2.11112e-07 0 0.0003636)
(-2.17611e-07 0 0.0003638)
(-2.09071e-07 -6.61744e-24 0.0003636)
(-2.14965e-07 -6.61744e-24 0.0003636)
(-2.05266e-07 0 0.0003636)
(-2.13243e-07 -6.61744e-24 0.0003636)
(-2.01749e-07 0 0.0003638)
(-2.12841e-07 -6.61744e-24 0.0003636)
(-1.93146e-07 0 0.0003636)
(-2.10471e-07 0 0.0003636)
(-2.18332e-07 0 0.0003636)
(-2.04927e-07 -6.61744e-24 0.0003636)
(-2.17675e-07 -6.61744e-24 0.0003638)
(-1.94899e-07 6.61744e-24 0.0003636)
(-2.1172e-07 -6.61744e-24 0.0003636)
(-2.17601e-07 -6.61744e-24 0.0003636)
(-2.00889e-07 0 0.0003636)
(-2.11236e-07 0 0.0003638)
(-1.84035e-07 6.61744e-24 0.0003636)
(-1.98777e-07 0 0.0003636)
(-2.01081e-07 -6.61744e-24 0.0003636)
(-1.8152e-07 6.61744e-24 0.0003636)
(-1.86148e-07 0 0.0003636)
(-1.59809e-07 0 0.0003638)
(-1.64689e-07 6.61744e-24 0.0003636)
(-1.78085e-07 6.61744e-24 0.0003636)
(-1.46841e-07 0 0.0003636)
(-1.28804e-07 0 0.0003636)
(-1.32179e-07 0 0.0003638)
(-1.09652e-07 0 0.0003636)
(-1.19747e-07 3.30872e-24 0.0003636)
(-9.4655e-08 0 0.0003636)
(-7.05402e-08 3.30872e-24 0.0003636)
(-8.74392e-08 0 0.0003636)
(-6.18354e-08 0 0.0003638)
(-4.46225e-08 1.65436e-24 0.0003636)
(-6.12287e-08 -1.65436e-24 0.0003636)
(-4.36172e-08 1.65436e-24 0.0003636)
(-2.63804e-08 0 0.0003636)
(-5.17881e-08 -1.65436e-24 0.0003638)
(-3.35663e-08 1.65436e-24 0.0003636)
(-2.46708e-08 -8.27181e-25 0.0003636)
(-4.94698e-08 1.65436e-24 0.0003636)
(-4.17979e-08 0 0.0003636)
(-3.18578e-08 0 0.0003636)
(-6.79889e-08 0 0.0003638)
(-5.98012e-08 0 0.0003636)
(-6.30212e-08 0 0.0003636)
(-1.03447e-07 0 0.0003636)
(-1.13058e-07 0 0.0003636)
(-1.22947e-07 0 0.0003638)
(-1.80528e-07 0 0.0003636)
(-2.0506e-07 0 0.0003636)
(-2.27412e-07 0 0.0003636)
(-3.20398e-07 0 0.0003636)
(-3.47408e-07 0 0.0003636)
(-4.30685e-07 0 0.0003638)
(-5.14239e-07 0 0.0003636)
(-5.90053e-07 2.64698e-23 0.0003636)
(-7.51029e-07 0 0.0003636)
(-7.41761e-07 -2.64698e-23 0.0003636)
(-1.12646e-06 5.29396e-23 0.0003638)
(-7.75585e-07 0 0.0003636)
(-1.94408e-06 0 0.0003636)
(-3.56476e-07 0 0.0003636)
(-3.68072e-06 1.05879e-22 0.0003636)
(1.00447e-06 -2.64698e-23 0.0003636)
(-6.67253e-06 0 0.0003638)
(3.91373e-06 -1.05879e-22 0.0003636)
(-9.97518e-06 -4.23516e-22 0.0003636)
(8.68141e-06 0 0.0003636)
(-1.24373e-05 0 0.0003636)
(1.55634e-05 0 0.0003638)
(-1.19681e-05 4.23516e-22 0.0003636)
(2.43448e-05 0 0.0003636)
(-5.68328e-06 0 0.0003636)
(3.45019e-05 0 0.0003636)
(1.01992e-05 0 0.0003636)
(5.71309e-05 0 0.0003638)
(5.66204e-05 1.69407e-21 0.0003636)
(0.000144563 0 0.0003636)
(0.000285005 -1.35525e-20 0.0003636)
(7.26e-07 0 0.0003636)
(7.28e-07 2.64698e-23 0.0003638)
(7.28e-07 0 0.0003636)
(7.26e-07 -2.64698e-23 0.0003636)
(7.28e-07 0 0.0003636)
(7.26e-07 -2.64698e-23 0.0003636)
(7.28e-07 -2.64698e-23 0.0003636)
(7.28e-07 0 0.0003638)
(7.26e-07 0 0.0003636)
(7.28e-07 -2.64698e-23 0.0003636)
)
;

boundaryField
{
    inlet
    {
        type            calculated;
        value           uniform (0 0 0);
    }
    endWall
    {
        type            calculated;
        value           uniform (0 0 0);
    }
    sideWall
    {
        type            empty;
    }
}


// ************************************************************************* //
