/*--------------------------------*- C++ -*----------------------------------*\
| =========                 |                                                 |
| \\      /  F ield         | foam-extend: Open Source CFD                    |
|  \\    /   O peration     | Version:     3.2                                |
|   \\  /    A nd           | Web:         http://www.foam-extend.org         |
|    \\/     M anipulation  | For copyright notice see file Copyright         |
\*---------------------------------------------------------------------------*/
FoamFile
{
    version     2.0;
    format      ascii;
    class       areaVectorField;
    location    "840";
    object      q_bed;
}
// * * * * * * * * * * * * * * * * * * * * * * * * * * * * * * * * * * * * * //

dimensions      [0 2 -1 0 0 0 0];

internalField   nonuniform List<vector> 
550
(
(0 0 0)
(0 0 0)
(0 0 0)
(0 0 0)
(1.54002e-07 4.28933e-29 -3.07999e-10)
(4.88412e-07 1.87812e-34 -9.76829e-10)
(9.26243e-07 -2.448e-28 -1.85244e-09)
(1.4735e-06 -4.01814e-28 -2.947e-09)
(2.04813e-06 8.53194e-34 -4.09649e-09)
(2.60772e-06 -9.09598e-34 -5.2153e-09)
(3.19549e-06 0 -2.50659e-08)
(3.59628e-06 7.69893e-28 3.2916e-08)
(1.54129e-06 -2.90715e-31 -2.20503e-08)
(1.13742e-06 1.18931e-28 1.26032e-08)
(4.5704e-06 4.80897e-31 -6.46428e-08)
(4.51544e-06 4.50564e-29 4.75283e-08)
(4.64009e-06 2.1547e-31 -5.29562e-08)
(4.47086e-06 -3.018e-31 3.96378e-08)
(4.44269e-06 0 -7.10364e-08)
(4.03102e-06 1.79493e-26 1.02029e-07)
(1.27261e-06 5.52359e-32 -1.05914e-08)
(1.64235e-06 1.42639e-31 2.40275e-08)
(1.51115e-06 -7.8109e-32 -1.95066e-08)
(2.04889e-06 5.2815e-28 2.64212e-08)
(3.52063e-06 0 -2.40017e-08)
(3.15876e-06 -3.60291e-26 8.88849e-08)
(3.22752e-06 0 9.57796e-09)
(3.07374e-06 -2.29242e-32 2.93605e-08)
(2.09662e-06 -1.38452e-27 1.87129e-08)
(2.21033e-06 0 2.85255e-08)
(2.42797e-06 1.97499e-31 6.57589e-08)
(2.59175e-06 3.37991e-32 6.66678e-08)
(2.52333e-06 7.24935e-27 7.98897e-08)
(2.51578e-06 -2.86067e-27 7.07939e-08)
(2.49743e-06 -6.85818e-28 6.43659e-08)
(2.48935e-06 -1.56298e-27 5.25383e-08)
(2.46617e-06 0 4.76275e-08)
(2.46264e-06 0 4.73521e-08)
(2.44686e-06 1.2383e-32 4.62225e-08)
(2.4452e-06 0 4.05857e-08)
(2.42876e-06 4.98976e-28 4.20963e-08)
(2.42743e-06 -1.79165e-32 3.70982e-08)
(2.41078e-06 0 4.15554e-08)
(2.41214e-06 -1.43418e-28 4.03778e-08)
(2.40012e-06 -3.78998e-28 4.36922e-08)
(2.40308e-06 2.08395e-32 3.9082e-08)
(2.39316e-06 0 3.9853e-08)
(2.39527e-06 0 3.5766e-08)
(2.38642e-06 1.15323e-28 3.64814e-08)
(2.38724e-06 -1.62233e-32 3.34287e-08)
(2.38011e-06 0 3.37906e-08)
(2.38058e-06 0 3.13014e-08)
(2.37558e-06 0 3.13399e-08)
(2.37615e-06 -1.05743e-32 2.94221e-08)
(2.37294e-06 1.0802e-33 2.93663e-08)
(2.37349e-06 -1.12944e-28 2.78827e-08)
(2.37148e-06 1.44746e-33 2.76679e-08)
(2.37193e-06 -2.93501e-33 2.66174e-08)
(2.37074e-06 0 2.62293e-08)
(2.37096e-06 2.77615e-33 2.51793e-08)
(2.37e-06 -2.84737e-29 2.4512e-08)
(2.36987e-06 0 2.35373e-08)
(2.36897e-06 3.20726e-33 2.26512e-08)
(2.36839e-06 5.57084e-29 2.15161e-08)
(2.36752e-06 6.87654e-29 2.04125e-08)
(2.36655e-06 -9.20415e-29 1.91761e-08)
(2.36555e-06 9.8009e-29 1.80139e-08)
(2.36455e-06 -1.11797e-28 1.6806e-08)
(2.36369e-06 0 1.57045e-08)
(2.36267e-06 -1.27289e-28 1.45988e-08)
(2.36167e-06 0 1.36971e-08)
(2.36055e-06 0 1.26634e-08)
(2.35879e-06 -1.37632e-33 1.19689e-08)
(2.35694e-06 0 1.09916e-08)
(2.35391e-06 3.61369e-29 1.05553e-08)
(2.3513e-06 0 9.46425e-09)
(2.34693e-06 0 9.35253e-09)
(2.34402e-06 0 8.15704e-09)
(2.33862e-06 0 8.41465e-09)
(2.33592e-06 7.3557e-29 7.04535e-09)
(2.32974e-06 -8.12591e-30 7.71112e-09)
(2.32764e-06 3.81835e-29 6.07247e-09)
(2.32067e-06 0 7.2182e-09)
(2.31941e-06 2.91804e-29 5.31401e-09)
(2.31154e-06 0 6.83658e-09)
(2.31112e-06 1.24633e-33 4.5825e-09)
(2.30233e-06 7.44229e-30 6.59691e-09)
(2.30296e-06 0 3.85218e-09)
(2.29327e-06 0 6.42336e-09)
(2.29535e-06 -1.83202e-29 3.26569e-09)
(2.28491e-06 0 6.42334e-09)
(2.28875e-06 -1.94698e-29 2.69526e-09)
(2.27737e-06 1.62877e-29 6.48135e-09)
(2.28319e-06 0 2.15158e-09)
(2.27062e-06 0 6.66952e-09)
(2.27859e-06 1.09973e-29 1.56482e-09)
(2.26425e-06 7.49982e-29 7.09649e-09)
(2.2748e-06 -1.37571e-29 9.52195e-10)
(2.25783e-06 -9.99187e-29 7.7744e-09)
(2.27166e-06 -2.05728e-30 1.16413e-10)
(2.25074e-06 0 8.90529e-09)
(2.26973e-06 -7.06957e-34 -8.96931e-10)
(2.24421e-06 0 1.01308e-08)
(2.26913e-06 5.07919e-29 -2.02682e-09)
(2.23872e-06 0 1.13085e-08)
(2.26976e-06 6.02416e-29 -3.21163e-09)
(2.23477e-06 2.54744e-28 1.22633e-08)
(2.27094e-06 0 -4.33071e-09)
(2.23176e-06 2.81e-28 1.28474e-08)
(2.27182e-06 1.49773e-28 -5.31226e-09)
(2.22913e-06 -5.96515e-28 1.31328e-08)
(2.27181e-06 0 -6.05617e-09)
(2.22636e-06 6.19253e-28 1.32211e-08)
(2.27071e-06 0 -6.70511e-09)
(2.22343e-06 2.18182e-32 1.30523e-08)
(2.26838e-06 3.3506e-28 -7.15583e-09)
(2.22026e-06 2.18562e-32 1.26724e-08)
(2.26486e-06 -3.32107e-28 -7.39948e-09)
(2.21682e-06 2.15092e-32 1.21543e-08)
(2.26029e-06 1.11706e-32 -7.50561e-09)
(2.21317e-06 0 1.13741e-08)
(2.25453e-06 0 -7.39544e-09)
(2.20914e-06 0 1.04761e-08)
(2.24762e-06 0 -7.08924e-09)
(2.20467e-06 0 9.52355e-09)
(2.23972e-06 9.11582e-33 -6.57868e-09)
(2.19969e-06 0 8.54398e-09)
(2.23115e-06 0 -6.02815e-09)
(2.1944e-06 -7.47364e-33 7.64383e-09)
(2.22228e-06 0 -5.46603e-09)
(2.189e-06 1.83227e-28 6.68912e-09)
(2.21321e-06 0 -4.81432e-09)
(2.18355e-06 0 5.83011e-09)
(2.20425e-06 0 -4.11965e-09)
(2.17814e-06 0 5.13536e-09)
(2.19571e-06 -2.4326e-33 -3.49128e-09)
(2.17296e-06 0 4.45306e-09)
(2.18762e-06 0 -2.81014e-09)
(2.16795e-06 -4.9208e-29 3.84806e-09)
(2.18002e-06 -2.48707e-29 -2.21865e-09)
(2.16324e-06 0 3.36671e-09)
(2.17296e-06 0 -1.61004e-09)
(2.15877e-06 1.7587e-29 3.07159e-09)
(2.16658e-06 0 -1.08208e-09)
(2.15464e-06 0 2.80118e-09)
(2.16085e-06 3.33981e-30 -4.87295e-10)
(2.15082e-06 8.58125e-34 2.72456e-09)
(2.15607e-06 -1.21974e-30 2.80118e-10)
(2.14837e-06 -9.97321e-30 2.40924e-09)
(2.15176e-06 -2.33261e-30 1.34248e-09)
(2.14806e-06 -2.32166e-30 1.63818e-09)
(2.14716e-06 4.53943e-34 3.09692e-09)
(2.15048e-06 0 7.54442e-11)
(2.14117e-06 -5.40461e-29 5.71709e-09)
(2.15679e-06 -3.22495e-29 -2.19479e-09)
(2.13708e-06 0 8.07165e-09)
(2.16526e-06 0 -4.69549e-09)
(2.1352e-06 0 9.60203e-09)
(2.17361e-06 0 -7.05716e-09)
(2.1347e-06 0 1.05227e-08)
(2.18044e-06 -2.20681e-32 -9.11665e-09)
(2.1349e-06 3.08687e-28 1.03467e-08)
(2.18412e-06 2.35521e-32 -1.06672e-08)
(2.13532e-06 3.05675e-28 9.34519e-09)
(2.18358e-06 0 -1.12042e-08)
(2.13508e-06 0 7.55279e-09)
(2.17835e-06 0 -1.09044e-08)
(2.13392e-06 1.13226e-28 5.253e-09)
(2.16847e-06 -1.65651e-32 -9.70826e-09)
(2.13172e-06 1.6114e-33 2.49413e-09)
(2.15423e-06 0 -7.55762e-09)
(2.12837e-06 0 4.83678e-11)
(2.13845e-06 0 -4.90734e-09)
(2.12397e-06 8.50084e-34 -1.79787e-09)
(2.12572e-06 0 -3.43146e-09)
(2.11945e-06 0 -3.19467e-09)
(2.11524e-06 -2.27042e-30 -2.3536e-09)
(2.11469e-06 0 -4.13402e-09)
(2.10644e-06 0 -1.45134e-09)
(2.10985e-06 1.70911e-33 -4.67658e-09)
(2.09889e-06 -7.23304e-30 -9.31747e-10)
(2.10519e-06 0 -5.09069e-09)
(2.09237e-06 0 -5.5309e-10)
(2.10081e-06 0 -5.24894e-09)
(2.08655e-06 1.2073e-30 -1.33883e-10)
(2.09672e-06 4.52393e-29 -5.37332e-09)
(2.08155e-06 0 3.31276e-10)
(2.09347e-06 0 -5.47954e-09)
(2.0773e-06 0 9.32388e-10)
(2.09129e-06 0 -5.74034e-09)
(2.07397e-06 2.94011e-29 1.57642e-09)
(2.09063e-06 0 -6.05881e-09)
(2.07134e-06 3.47931e-29 2.34983e-09)
(2.0914e-06 0 -6.54179e-09)
(2.06932e-06 0 3.07763e-09)
(2.09324e-06 0 -7.1911e-09)
(2.06786e-06 9.38761e-29 3.98821e-09)
(2.09603e-06 0 -8.09327e-09)
(2.06704e-06 3.47383e-33 4.75147e-09)
(2.09919e-06 1.50748e-32 -8.86211e-09)
(2.06647e-06 7.6556e-33 5.31346e-09)
(2.10223e-06 0 -9.7425e-09)
(2.06626e-06 0 5.68749e-09)
(2.10454e-06 0 -1.03431e-08)
(2.06598e-06 0 5.68075e-09)
(2.10552e-06 0 -1.07587e-08)
(2.06548e-06 8.71397e-33 5.5031e-09)
(2.10491e-06 0 -1.09215e-08)
(2.06466e-06 0 4.98641e-09)
(2.10239e-06 0 -1.07754e-08)
(2.06342e-06 3.979e-33 4.15181e-09)
(2.09783e-06 -1.58067e-32 -1.02793e-08)
(2.06175e-06 1.00326e-28 3.03622e-09)
(2.09118e-06 -2.05831e-28 -9.40289e-09)
(2.05971e-06 0 1.88325e-09)
(2.08289e-06 0 -8.13196e-09)
(2.05733e-06 0 6.15068e-10)
(2.07412e-06 0 -6.6468e-09)
(2.05463e-06 0 -3.30543e-10)
(2.0664e-06 2.86126e-33 -5.57109e-09)
(2.0521e-06 9.00378e-30 -9.57946e-10)
(2.06025e-06 2.5679e-29 -4.65297e-09)
(2.04967e-06 9.02416e-34 -1.42269e-09)
(2.05549e-06 -1.93968e-29 -4.13216e-09)
(2.04768e-06 0 -1.66709e-09)
(2.05169e-06 0 -3.7005e-09)
(2.04605e-06 0 -1.99184e-09)
(2.04884e-06 -7.70082e-30 -3.32406e-09)
(2.04459e-06 4.74119e-30 -2.1742e-09)
(2.04669e-06 7.18622e-30 -3.2286e-09)
(2.04348e-06 2.82205e-34 -2.24597e-09)
(2.04487e-06 -5.55791e-30 -3.10421e-09)
(2.04257e-06 0 -2.4213e-09)
(2.04342e-06 -4.77487e-30 -3.04595e-09)
(2.04179e-06 8.48753e-31 -2.57359e-09)
(2.04218e-06 -3.1072e-30 -2.97e-09)
(2.04099e-06 0 -2.79114e-09)
(2.04122e-06 0 -2.99783e-09)
(2.04012e-06 -3.10334e-31 -2.79492e-09)
(2.04017e-06 0 -3.10266e-09)
(2.03932e-06 0 -2.87222e-09)
(2.039e-06 6.78288e-35 -3.01973e-09)
(2.03822e-06 2.95069e-35 -2.99346e-09)
(2.03777e-06 0 -3.15756e-09)
(2.03706e-06 6.751e-36 -3.0604e-09)
(2.0363e-06 1.75782e-30 -3.09312e-09)
(2.03554e-06 -6.04703e-35 -3.15379e-09)
(2.03468e-06 0 -3.17933e-09)
(2.03386e-06 -6.33594e-35 -3.24455e-09)
(2.0329e-06 0 -3.26332e-09)
(2.03201e-06 0 -3.33294e-09)
(2.03097e-06 0 -3.34326e-09)
(2.03001e-06 0 -3.40581e-09)
(2.02888e-06 0 -3.40423e-09)
(2.02783e-06 0 -3.40531e-09)
(2.02657e-06 0 -3.51283e-09)
(2.02563e-06 -5.71097e-30 -3.61801e-09)
(2.02431e-06 0 -3.58769e-09)
(2.02325e-06 0 -3.67458e-09)
(2.02182e-06 -2.23904e-30 -3.58638e-09)
(2.02054e-06 5.80031e-30 -3.77079e-09)
(2.01915e-06 0 -3.79866e-09)
(2.01768e-06 0 -3.78468e-09)
(2.01602e-06 -1.05903e-34 -3.91543e-09)
(2.01452e-06 -8.02435e-35 -3.99926e-09)
(2.01264e-06 0 -3.92727e-09)
(2.01081e-06 0 -4.10128e-09)
(2.00886e-06 -4.4435e-30 -4.08869e-09)
(2.00673e-06 0 -4.20852e-09)
(2.00469e-06 0 -4.2324e-09)
(2.00225e-06 -4.97557e-30 -4.26169e-09)
(2.00009e-06 8.43645e-30 -4.47332e-09)
(1.99762e-06 -4.96704e-30 -4.40508e-09)
(1.99518e-06 0 -4.503e-09)
(1.99266e-06 1.03239e-34 -4.58722e-09)
(1.99024e-06 -9.07481e-30 -4.73685e-09)
(1.98782e-06 -5.16883e-35 -4.70318e-09)
(1.9853e-06 -6.76933e-30 -4.73788e-09)
(1.983e-06 1.06035e-34 -4.83576e-09)
(1.98066e-06 7.78879e-35 -4.87161e-09)
(1.97853e-06 0 -4.95875e-09)
(1.97638e-06 0 -5.03921e-09)
(1.97449e-06 -4.20229e-35 -5.00659e-09)
(1.97238e-06 4.07356e-35 -4.97886e-09)
(1.97069e-06 8.12036e-30 -5.07188e-09)
(1.96886e-06 -6.81455e-35 -5.09446e-09)
(1.96743e-06 2.8405e-35 -5.06646e-09)
(1.96566e-06 0 -4.99966e-09)
(1.96442e-06 -9.77682e-35 -5.13957e-09)
(1.96293e-06 3.90308e-30 -4.99731e-09)
(1.96164e-06 -5.80413e-35 -5.06482e-09)
(1.96034e-06 -3.31083e-30 -4.96545e-09)
(1.95902e-06 3.72321e-35 -4.99602e-09)
(1.95788e-06 -3.3491e-30 -4.94307e-09)
(1.95648e-06 0 -4.9418e-09)
(1.95549e-06 4.5664e-30 -4.98237e-09)
(1.95406e-06 -1.4538e-30 -4.84603e-09)
(1.95298e-06 2.32593e-30 -4.83481e-09)
(1.95146e-06 0 -4.80573e-09)
(1.95047e-06 0 -4.87239e-09)
(1.94893e-06 0 -4.72446e-09)
(1.94786e-06 3.03217e-30 -4.77067e-09)
(1.94631e-06 -7.55066e-32 -4.6181e-09)
(1.9452e-06 -1.1736e-30 -4.59896e-09)
(1.94361e-06 0 -4.53873e-09)
(1.94266e-06 0 -4.60318e-09)
(1.94113e-06 6.09831e-35 -4.42236e-09)
(1.94016e-06 0 -4.46243e-09)
(1.9387e-06 -6.37678e-35 -4.28822e-09)
(1.93776e-06 6.53864e-31 -4.30425e-09)
(1.9364e-06 0 -4.13267e-09)
(1.93552e-06 -1.31391e-31 -4.12809e-09)
(1.93427e-06 2.59726e-30 -3.96205e-09)
(1.9335e-06 -9.97127e-36 -3.98541e-09)
(1.93241e-06 3.43839e-30 -3.71783e-09)
(1.93159e-06 -3.45923e-30 -3.63924e-09)
(1.93065e-06 -3.33594e-30 -3.49084e-09)
(1.92997e-06 -3.20327e-30 -3.41043e-09)
(1.9292e-06 7.32493e-35 -3.26391e-09)
(1.92873e-06 -3.50477e-30 -3.21888e-09)
(1.92824e-06 -4.15801e-30 -2.97791e-09)
(1.9278e-06 4.36512e-30 -2.8501e-09)
(1.92751e-06 -4.29099e-30 -2.7872e-09)
(1.92733e-06 0 -2.56504e-09)
(1.92699e-06 0 -2.39584e-09)
(1.92692e-06 -3.36081e-35 -2.36992e-09)
(1.92672e-06 0 -2.11183e-09)
(1.92651e-06 3.31173e-30 -1.99232e-09)
(1.92634e-06 0 -1.92587e-09)
(1.9262e-06 0 -1.71436e-09)
(1.92585e-06 5.86493e-35 -1.56111e-09)
(1.92572e-06 -3.03995e-30 -1.55016e-09)
(1.92543e-06 2.04654e-30 -1.32575e-09)
(1.92513e-06 1.77563e-35 -1.28339e-09)
(1.92487e-06 0 -1.11205e-09)
(1.92442e-06 1.76459e-30 -1.02966e-09)
(1.92418e-06 0 -9.0257e-10)
(1.92362e-06 0 -8.13653e-10)
(1.92341e-06 0 -7.21551e-10)
(1.92274e-06 1.08206e-35 -6.21024e-10)
(1.92258e-06 5.90217e-36 -6.20452e-10)
(1.92188e-06 1.11976e-30 -3.73041e-10)
(1.92155e-06 6.18001e-31 -4.40042e-10)
(1.92102e-06 -4.68569e-31 -2.72634e-10)
(1.92057e-06 0 -2.9905e-10)
(1.92021e-06 3.99577e-36 -2.35525e-10)
(1.91967e-06 1.1045e-31 -7.73834e-11)
(1.91919e-06 1.42371e-31 -1.21341e-10)
(1.91875e-06 0 -3.81748e-11)
(1.91823e-06 0 1.07626e-10)
(1.91778e-06 -1.56803e-38 3.34307e-11)
(1.91721e-06 1.88473e-31 1.71125e-10)
(1.91692e-06 0 2.2327e-10)
(1.91635e-06 0 2.06281e-10)
(1.91601e-06 -2.37836e-36 2.45461e-10)
(1.91537e-06 2.09598e-31 2.20887e-10)
(1.91494e-06 2.17807e-36 2.59623e-10)
(1.91421e-06 1.82158e-31 2.2892e-10)
(1.91367e-06 0 2.61068e-10)
(1.91282e-06 0 2.21552e-10)
(1.91214e-06 1.65938e-36 2.55548e-10)
(1.91116e-06 0 2.10062e-10)
(1.91034e-06 1.87115e-31 2.65596e-10)
(1.90931e-06 -1.02995e-36 2.03443e-10)
(1.90837e-06 -2.0228e-31 3.01425e-10)
(1.90744e-06 -3.583e-32 2.19212e-10)
(1.90631e-06 0 1.87615e-10)
(1.90544e-06 -9.65598e-32 2.49437e-10)
(1.90439e-06 -6.34676e-37 2.03491e-10)
(1.90358e-06 0 2.63664e-10)
(1.90261e-06 7.95308e-37 2.11994e-10)
(1.90187e-06 -1.64391e-36 2.74378e-10)
(1.90101e-06 8.61399e-37 2.17473e-10)
(1.90035e-06 0 2.74616e-10)
(1.89956e-06 -5.94951e-32 2.12809e-10)
(1.89899e-06 0 2.67818e-10)
(1.8983e-06 9.06674e-32 2.00762e-10)
(1.89781e-06 -1.07743e-32 2.48804e-10)
(1.89722e-06 -2.47278e-36 1.75004e-10)
(1.89682e-06 0 2.1984e-10)
(1.8963e-06 -4.87352e-32 1.40013e-10)
(1.89596e-06 7.17516e-32 1.82572e-10)
(1.89548e-06 -1.73321e-36 9.72674e-11)
(1.89515e-06 0 1.49947e-10)
(1.89473e-06 5.94837e-32 8.97415e-11)
(1.89437e-06 5.70699e-32 -5.24404e-11)
(1.89387e-06 2.34115e-32 6.31275e-11)
(1.89358e-06 0 -9.11155e-11)
(1.89307e-06 0 2.9182e-11)
(1.89273e-06 -1.62139e-32 -5.18829e-11)
(1.89223e-06 -5.07693e-37 -6.93444e-11)
(1.89194e-06 1.75857e-31 -1.80133e-10)
(1.89143e-06 -1.69752e-31 -2.53871e-10)
(1.89122e-06 -8.53276e-32 -2.82655e-10)
(1.89047e-06 0 -2.36226e-10)
(1.89014e-06 -3.08123e-31 -3.93639e-10)
(1.88933e-06 0 -3.65712e-10)
(1.88886e-06 -8.06896e-36 -5.10002e-10)
(1.88794e-06 -1.41474e-36 -4.83368e-10)
(1.88736e-06 -4.9165e-31 -6.16785e-10)
(1.88636e-06 0 -5.93156e-10)
(1.8857e-06 1.59803e-35 -7.14633e-10)
(1.88466e-06 0 -6.76685e-10)
(1.88396e-06 0 -7.70249e-10)
(1.88292e-06 0 -7.16115e-10)
(1.88222e-06 -8.43501e-31 -7.4826e-10)
(1.88114e-06 0 -8.02462e-10)
(1.88066e-06 0 -9.35862e-10)
(1.87961e-06 3.42533e-36 -8.37016e-10)
(1.87911e-06 1.58257e-35 -9.59056e-10)
(1.87805e-06 -7.49747e-31 -8.71136e-10)
(1.87752e-06 2.17367e-35 -1.02982e-09)
(1.87649e-06 4.47895e-31 -8.17712e-10)
(1.8757e-06 0 -8.56104e-10)
(1.87462e-06 3.0887e-36 -7.91186e-10)
(1.87382e-06 0 -8.27216e-10)
(1.87273e-06 3.50592e-36 -7.54409e-10)
(1.87193e-06 -6.18005e-36 -7.96971e-10)
(1.87084e-06 -3.3616e-31 -7.31071e-10)
(1.87006e-06 -1.39072e-35 -8.20915e-10)
(1.86905e-06 -1.12415e-35 -6.48777e-10)
(1.86807e-06 4.16636e-37 -6.33075e-10)
(1.86705e-06 0 -6.01495e-10)
(1.86612e-06 -4.8237e-32 -5.97724e-10)
(1.86514e-06 0 -5.65597e-10)
(1.86429e-06 0 -6.14465e-10)
(1.86336e-06 0 -4.6574e-10)
(1.86235e-06 -4.17769e-36 -4.15612e-10)
(1.86145e-06 -2.32013e-36 -3.8757e-10)
(1.86053e-06 2.91465e-36 -3.50832e-10)
(1.85962e-06 0 -2.97282e-10)
(1.85879e-06 0 -2.73885e-10)
(1.8579e-06 -1.31404e-31 -2.10183e-10)
(1.85712e-06 -1.42699e-36 -2.22811e-10)
(1.85632e-06 0 -4.46632e-11)
(1.85538e-06 0 6.15889e-11)
(1.85457e-06 1.54789e-31 1.50617e-10)
(1.8539e-06 2.95484e-31 2.14556e-10)
(1.85325e-06 2.8049e-31 2.45678e-10)
(1.85279e-06 0 4.7084e-10)
(1.85256e-06 6.98404e-31 4.69531e-10)
(1.85217e-06 -5.15818e-36 5.12986e-10)
(1.85206e-06 0 6.80648e-10)
(1.852e-06 9.51679e-36 6.9404e-10)
(1.85195e-06 1.13137e-30 6.91395e-10)
(1.85202e-06 0 8.70203e-10)
(1.85225e-06 0 8.35985e-10)
(1.85232e-06 -1.02789e-35 8.54772e-10)
(1.85269e-06 1.59693e-30 9.66239e-10)
(1.85297e-06 1.07828e-30 9.47333e-10)
(1.8534e-06 0 1.08801e-09)
(1.85399e-06 -1.62637e-36 1.02817e-09)
(1.8544e-06 0 1.02804e-09)
(1.85518e-06 0 1.08718e-09)
(1.85577e-06 -5.32542e-36 1.06859e-09)
(1.85673e-06 9.97431e-31 1.11306e-09)
(1.8575e-06 6.78614e-31 1.08302e-09)
(1.85864e-06 0 1.11644e-09)
(1.85957e-06 0 1.0797e-09)
(1.86088e-06 0 1.1131e-09)
(1.86199e-06 -3.77622e-31 1.07065e-09)
(1.86345e-06 -5.9887e-31 1.10169e-09)
(1.86471e-06 0 1.0527e-09)
(1.86628e-06 -5.69706e-31 1.09453e-09)
(1.8677e-06 3.37246e-37 1.03575e-09)
(1.86933e-06 -5.00821e-31 1.09425e-09)
(1.87087e-06 -5.99058e-36 9.93816e-10)
(1.87241e-06 1.44716e-35 1.08385e-09)
(1.87414e-06 -1.04505e-35 1.12537e-09)
(1.87565e-06 -9.47054e-32 1.05712e-09)
(1.87727e-06 -4.40151e-31 1.12324e-09)
(1.87875e-06 -1.53407e-31 1.00706e-09)
(1.88014e-06 -3.51558e-31 1.09478e-09)
(1.8817e-06 -4.08888e-31 1.12613e-09)
(1.88295e-06 3.71099e-36 1.04033e-09)
(1.88431e-06 0 1.0941e-09)
(1.88548e-06 -5.77395e-31 9.54326e-10)
(1.88653e-06 -1.09263e-35 1.03135e-09)
(1.88777e-06 -2.43863e-32 1.04399e-09)
(1.88867e-06 -5.02604e-31 9.42879e-10)
(1.88971e-06 -4.11426e-36 9.6745e-10)
(1.8905e-06 1.77795e-35 8.30451e-10)
(1.89123e-06 -3.43917e-31 8.56615e-10)
(1.89198e-06 -6.13681e-32 9.26659e-10)
(1.89274e-06 0 7.64389e-10)
(1.89308e-06 7.82891e-36 6.70619e-10)
(1.89363e-06 0 6.88013e-10)
(1.89383e-06 0 5.71129e-10)
(1.89407e-06 -2.57503e-31 6.23789e-10)
(1.89419e-06 0 4.93109e-10)
(1.89405e-06 -4.96796e-31 3.67455e-10)
(1.89394e-06 0 4.55457e-10)
(1.89381e-06 -4.37632e-36 3.21893e-10)
(1.89339e-06 -2.44759e-31 2.32364e-10)
(1.89312e-06 8.11165e-32 3.18794e-10)
(1.89279e-06 -2.00155e-31 2.27058e-10)
(1.8923e-06 0 1.37293e-10)
(1.89188e-06 3.06145e-32 2.69315e-10)
(1.89153e-06 -1.48111e-31 1.74619e-10)
(1.8909e-06 7.76039e-32 1.283e-10)
(1.89047e-06 5.62446e-32 2.57208e-10)
(1.89002e-06 1.19192e-36 2.17268e-10)
(1.88944e-06 0 1.65549e-10)
(1.88891e-06 0 3.5301e-10)
(1.88856e-06 0 3.10611e-10)
(1.88793e-06 0 3.27226e-10)
(1.8875e-06 0 5.37008e-10)
(1.88711e-06 6.21808e-36 5.86776e-10)
(1.88662e-06 0 6.37589e-10)
(1.88633e-06 -3.74016e-35 9.36566e-10)
(1.88612e-06 3.11636e-35 1.06372e-09)
(1.88591e-06 -2.97608e-35 1.17954e-09)
(1.88571e-06 0 1.66165e-09)
(1.88616e-06 0 1.80217e-09)
(1.88592e-06 0 2.23265e-09)
(1.8872e-06 0 2.66907e-09)
(1.88705e-06 1.48511e-29 3.06232e-09)
(1.88894e-06 0 3.90168e-09)
(1.88949e-06 -1.57131e-29 3.85465e-09)
(1.89107e-06 4.17053e-29 5.85543e-09)
(1.8947e-06 0 4.04152e-09)
(1.89202e-06 0 1.01162e-08)
(1.9071e-06 0 1.86973e-09)
(1.88596e-06 6.02701e-28 1.90915e-08)
(1.9368e-06 1.63985e-28 -5.35056e-09)
(1.86921e-06 0 3.42836e-08)
(1.99651e-06 1.83078e-27 -2.14901e-08)
(1.85118e-06 -9.7474e-27 5.07863e-08)
(2.08636e-06 0 -4.98145e-08)
(1.83314e-06 0 6.27041e-08)
(2.19621e-06 0 -9.39544e-08)
(1.8185e-06 1.66663e-26 5.98569e-08)
(2.29863e-06 -4.04573e-30 -1.53904e-07)
(1.81261e-06 7.81725e-32 2.83321e-08)
(2.33837e-06 0 -2.21887e-07)
(1.82577e-06 0 -5.12141e-08)
(2.39058e-06 9.68701e-30 -3.75414e-07)
(1.84502e-06 -2.68403e-25 -2.8731e-07)
(2.4378e-06 -3.12543e-29 -9.69239e-07)
(1.31298e-06 3.54218e-23 -8.53417e-07)
(0 0 0)
(0 0 0)
(0 0 0)
(0 0 0)
(0 0 0)
(0 0 0)
(0 0 0)
(0 0 0)
(0 0 0)
(0 0 0)
)
;

boundaryField
{
    inlet
    {
        type            zeroGradient;
    }
    endWall
    {
        type            zeroGradient;
    }
    sideWall
    {
        type            empty;
    }
}


// ************************************************************************* //
