/*--------------------------------*- C++ -*----------------------------------*\
| =========                 |                                                 |
| \\      /  F ield         | foam-extend: Open Source CFD                    |
|  \\    /   O peration     | Version:     3.2                                |
|   \\  /    A nd           | Web:         http://www.foam-extend.org         |
|    \\/     M anipulation  | For copyright notice see file Copyright         |
\*---------------------------------------------------------------------------*/
FoamFile
{
    version     2.0;
    format      ascii;
    class       edgeScalarField;
    location    "840";
    object      q_f;
}
// * * * * * * * * * * * * * * * * * * * * * * * * * * * * * * * * * * * * * //

dimensions      [0 3 -1 0 0 0 0];

internalField   nonuniform List<scalar> 
549
(
0
0
0
1.54003e-09
6.42414e-09
1.41466e-08
2.39975e-08
3.52165e-08
4.65584e-08
5.80331e-08
6.79202e-08
5.13794e-08
2.67892e-08
5.70819e-08
9.08655e-08
9.15608e-08
9.11142e-08
8.91429e-08
8.4756e-08
5.30464e-08
2.91517e-08
3.1538e-08
3.56034e-08
5.56986e-08
6.6808e-08
6.38755e-08
6.30142e-08
5.17059e-08
4.30721e-08
4.63934e-08
5.02147e-08
5.11721e-08
5.04137e-08
5.01504e-08
4.98817e-08
4.95653e-08
4.92972e-08
4.91039e-08
4.89283e-08
4.87466e-08
4.85684e-08
4.83886e-08
4.82362e-08
4.813e-08
4.80392e-08
4.79689e-08
4.78903e-08
4.78223e-08
4.77417e-08
4.76782e-08
4.76114e-08
4.75657e-08
4.75211e-08
4.74945e-08
4.74677e-08
4.7453e-08
4.74372e-08
4.74296e-08
4.74197e-08
4.74122e-08
4.74012e-08
4.73907e-08
4.73757e-08
4.73609e-08
4.73424e-08
4.73225e-08
4.73023e-08
4.72835e-08
4.72645e-08
4.72443e-08
4.72229e-08
4.7194e-08
4.71579e-08
4.7109e-08
4.70525e-08
4.69827e-08
4.69099e-08
4.68267e-08
4.67457e-08
4.66569e-08
4.6574e-08
4.64833e-08
4.6401e-08
4.63096e-08
4.62268e-08
4.61347e-08
4.60531e-08
4.59625e-08
4.58863e-08
4.58028e-08
4.57367e-08
4.56613e-08
4.56057e-08
4.55381e-08
4.54921e-08
4.54286e-08
4.53907e-08
4.53264e-08
4.5295e-08
4.52242e-08
4.52048e-08
4.51395e-08
4.51336e-08
4.50788e-08
4.50851e-08
4.50456e-08
4.50574e-08
4.50273e-08
4.50363e-08
4.501e-08
4.50099e-08
4.49823e-08
4.49713e-08
4.49419e-08
4.49186e-08
4.48869e-08
4.48517e-08
4.48174e-08
4.47717e-08
4.4735e-08
4.46774e-08
4.46371e-08
4.45679e-08
4.45232e-08
4.44442e-08
4.43944e-08
4.43086e-08
4.42557e-08
4.4167e-08
4.41129e-08
4.40222e-08
4.39677e-08
4.3878e-08
4.3824e-08
4.37387e-08
4.36868e-08
4.36058e-08
4.35558e-08
4.34798e-08
4.34327e-08
4.33621e-08
4.33174e-08
4.32536e-08
4.32122e-08
4.31549e-08
4.31166e-08
4.30689e-08
4.30445e-08
4.30013e-08
4.29981e-08
4.29521e-08
4.29764e-08
4.29166e-08
4.29797e-08
4.29389e-08
4.30236e-08
4.30048e-08
4.30884e-08
4.30834e-08
4.31519e-08
4.31539e-08
4.31906e-08
4.31948e-08
4.31895e-08
4.3187e-08
4.31347e-08
4.31231e-08
4.30243e-08
4.30022e-08
4.28597e-08
4.28261e-08
4.26683e-08
4.26244e-08
4.2497e-08
4.24518e-08
4.2347e-08
4.22994e-08
4.22113e-08
4.21629e-08
4.20874e-08
4.20408e-08
4.19756e-08
4.19318e-08
4.18738e-08
4.18329e-08
4.17828e-08
4.17503e-08
4.17077e-08
4.16859e-08
4.16527e-08
4.16461e-08
4.16198e-08
4.16275e-08
4.16073e-08
4.16256e-08
4.16111e-08
4.16391e-08
4.16309e-08
4.16625e-08
4.1657e-08
4.16874e-08
4.16852e-08
4.17084e-08
4.17055e-08
4.17153e-08
4.17105e-08
4.17044e-08
4.16961e-08
4.16709e-08
4.16584e-08
4.16127e-08
4.1596e-08
4.15296e-08
4.15092e-08
4.14262e-08
4.14024e-08
4.13145e-08
4.12875e-08
4.12104e-08
4.11851e-08
4.11235e-08
4.10993e-08
4.10517e-08
4.10317e-08
4.09937e-08
4.09775e-08
4.0949e-08
4.09344e-08
4.09128e-08
4.09018e-08
4.08836e-08
4.08744e-08
4.086e-08
4.08521e-08
4.08397e-08
4.08317e-08
4.08221e-08
4.08135e-08
4.0803e-08
4.0795e-08
4.07833e-08
4.07723e-08
4.07599e-08
4.07484e-08
4.07336e-08
4.07184e-08
4.07022e-08
4.06854e-08
4.06676e-08
4.06492e-08
4.06299e-08
4.06098e-08
4.05889e-08
4.05671e-08
4.05441e-08
4.05221e-08
4.04995e-08
4.04757e-08
4.04508e-08
4.04237e-08
4.0397e-08
4.03684e-08
4.03371e-08
4.03055e-08
4.02717e-08
4.02346e-08
4.01968e-08
4.0156e-08
4.01143e-08
4.00695e-08
4.00235e-08
3.99772e-08
3.9928e-08
3.98784e-08
3.98291e-08
3.97808e-08
3.97314e-08
3.96832e-08
3.96368e-08
3.9592e-08
3.95492e-08
3.95088e-08
3.94688e-08
3.94308e-08
3.93956e-08
3.9363e-08
3.93311e-08
3.9301e-08
3.92736e-08
3.92458e-08
3.92199e-08
3.91937e-08
3.91691e-08
3.91438e-08
3.91199e-08
3.90956e-08
3.90705e-08
3.90445e-08
3.90194e-08
3.89941e-08
3.89681e-08
3.89419e-08
3.89153e-08
3.88882e-08
3.88628e-08
3.88379e-08
3.88129e-08
3.87887e-08
3.87647e-08
3.87417e-08
3.87193e-08
3.8698e-08
3.86778e-08
3.86592e-08
3.86401e-08
3.86225e-08
3.86062e-08
3.85918e-08
3.85794e-08
3.85697e-08
3.85604e-08
3.85531e-08
3.85484e-08
3.85432e-08
3.85391e-08
3.85364e-08
3.85324e-08
3.85285e-08
3.85254e-08
3.85205e-08
3.85157e-08
3.85115e-08
3.85056e-08
3.85e-08
3.84929e-08
3.8486e-08
3.84781e-08
3.84703e-08
3.84615e-08
3.84532e-08
3.84446e-08
3.84343e-08
3.84257e-08
3.84158e-08
3.84077e-08
3.83987e-08
3.83886e-08
3.83794e-08
3.83698e-08
3.83601e-08
3.83499e-08
3.83413e-08
3.83327e-08
3.83236e-08
3.83138e-08
3.83031e-08
3.82915e-08
3.82788e-08
3.82649e-08
3.82496e-08
3.82329e-08
3.8215e-08
3.81965e-08
3.81768e-08
3.8158e-08
3.81375e-08
3.81175e-08
3.80983e-08
3.80797e-08
3.8062e-08
3.80449e-08
3.80288e-08
3.80135e-08
3.79991e-08
3.79855e-08
3.79728e-08
3.79611e-08
3.79503e-08
3.79404e-08
3.79312e-08
3.79226e-08
3.79144e-08
3.79063e-08
3.78988e-08
3.78911e-08
3.78824e-08
3.78745e-08
3.78666e-08
3.7858e-08
3.78495e-08
3.78416e-08
3.78337e-08
3.78266e-08
3.78169e-08
3.78061e-08
3.77946e-08
3.77819e-08
3.7768e-08
3.7753e-08
3.77372e-08
3.77206e-08
3.77036e-08
3.76862e-08
3.76688e-08
3.76514e-08
3.76335e-08
3.7618e-08
3.76028e-08
3.75872e-08
3.75716e-08
3.75557e-08
3.75401e-08
3.75219e-08
3.75032e-08
3.74844e-08
3.74655e-08
3.74465e-08
3.74277e-08
3.7409e-08
3.7391e-08
3.73711e-08
3.73512e-08
3.73317e-08
3.73126e-08
3.72943e-08
3.72765e-08
3.72571e-08
3.7238e-08
3.72198e-08
3.72016e-08
3.71842e-08
3.71669e-08
3.71502e-08
3.71345e-08
3.7117e-08
3.70995e-08
3.70847e-08
3.70714e-08
3.70603e-08
3.70534e-08
3.70473e-08
3.70423e-08
3.70407e-08
3.70396e-08
3.70397e-08
3.70427e-08
3.70458e-08
3.70501e-08
3.70566e-08
3.70638e-08
3.7074e-08
3.7084e-08
3.70959e-08
3.71096e-08
3.71251e-08
3.71424e-08
3.71614e-08
3.71822e-08
3.72046e-08
3.72287e-08
3.72544e-08
3.72816e-08
3.731e-08
3.73398e-08
3.73702e-08
3.7402e-08
3.74328e-08
3.74655e-08
3.74979e-08
3.75292e-08
3.75603e-08
3.75889e-08
3.76184e-08
3.76465e-08
3.76726e-08
3.76978e-08
3.772e-08
3.77429e-08
3.77643e-08
3.77837e-08
3.7802e-08
3.78173e-08
3.78321e-08
3.78472e-08
3.78582e-08
3.78671e-08
3.78746e-08
3.7879e-08
3.78825e-08
3.78824e-08
3.78799e-08
3.78775e-08
3.7872e-08
3.78651e-08
3.78592e-08
3.78509e-08
3.78418e-08
3.78341e-08
3.78243e-08
3.78137e-08
3.78048e-08
3.77946e-08
3.77835e-08
3.77747e-08
3.77648e-08
3.77542e-08
3.7746e-08
3.77372e-08
3.77295e-08
3.77245e-08
3.77203e-08
3.77162e-08
3.77187e-08
3.77208e-08
3.77312e-08
3.77425e-08
3.776e-08
3.77844e-08
3.78057e-08
3.78578e-08
3.78674e-08
3.79914e-08
3.79315e-08
3.82286e-08
3.80636e-08
3.86619e-08
3.84853e-08
3.93885e-08
3.9212e-08
4.03227e-08
4.01753e-08
4.12285e-08
4.11609e-08
4.16054e-08
4.1743e-08
4.2427e-08
4.28692e-08
4.46746e-08
4.27138e-08
1.37395e-08
0
0
0
0
0
0
0
0
0
)
;

boundaryField
{
    inlet
    {
        type            calculated;
        value           uniform 0;
    }
    endWall
    {
        type            calculated;
        value           uniform 0;
    }
    sideWall
    {
        type            empty;
    }
}


// ************************************************************************* //
