/*--------------------------------*- C++ -*----------------------------------*\
| =========                 |                                                 |
| \\      /  F ield         | foam-extend: Open Source CFD                    |
|  \\    /   O peration     | Version:     3.2                                |
|   \\  /    A nd           | Web:         http://www.foam-extend.org         |
|    \\/     M anipulation  | For copyright notice see file Copyright         |
\*---------------------------------------------------------------------------*/
FoamFile
{
    version     2.0;
    format      ascii;
    class       areaScalarField;
    location    "840";
    object      SSe1;
}
// * * * * * * * * * * * * * * * * * * * * * * * * * * * * * * * * * * * * * //

dimensions      [0 1 -2 -1 0 0 0];

internalField   nonuniform List<scalar> 
550
(
6.69847e-07
1.19972e-06
1.95405e-06
2.94951e-06
4.1856e-06
5.62831e-06
7.15064e-06
8.88686e-06
1.05335e-05
1.1936e-05
1.34454e-05
1.43047e-05
6.06839e-06
5.32337e-06
1.73054e-05
1.69792e-05
1.7806e-05
1.69791e-05
1.70956e-05
1.4477e-05
5.71161e-06
6.44355e-06
6.25147e-06
7.73086e-06
1.46719e-05
1.20877e-05
1.36923e-05
1.28706e-05
8.59504e-06
9.07482e-06
9.73047e-06
1.06861e-05
1.02576e-05
1.03379e-05
1.02958e-05
1.03822e-05
1.03237e-05
1.0313e-05
1.02476e-05
1.03215e-05
1.02312e-05
1.03091e-05
1.01897e-05
1.02274e-05
1.01324e-05
1.02021e-05
1.01374e-05
1.01911e-05
1.01329e-05
1.01682e-05
1.01219e-05
1.01462e-05
1.01116e-05
1.01267e-05
1.00996e-05
1.01076e-05
1.00868e-05
1.00878e-05
1.00725e-05
1.00721e-05
1.00617e-05
1.00595e-05
1.0054e-05
1.0054e-05
1.00538e-05
1.00568e-05
1.00598e-05
1.00653e-05
1.00712e-05
1.00793e-05
1.00864e-05
1.00975e-05
1.01033e-05
1.01156e-05
1.01165e-05
1.01315e-05
1.01253e-05
1.01431e-05
1.01286e-05
1.0151e-05
1.01276e-05
1.01569e-05
1.0123e-05
1.01598e-05
1.01164e-05
1.01618e-05
1.01068e-05
1.01637e-05
1.00956e-05
1.01638e-05
1.00825e-05
1.01655e-05
1.00698e-05
1.01693e-05
1.00563e-05
1.0176e-05
1.00393e-05
1.01854e-05
1.00174e-05
1.02004e-05
9.98518e-06
1.02072e-05
9.95217e-06
1.02118e-05
9.92201e-06
1.02086e-05
9.89996e-06
1.02064e-05
9.88623e-06
1.0204e-05
9.87861e-06
1.02014e-05
9.87393e-06
1.01958e-05
9.87345e-06
1.01883e-05
9.87589e-06
1.01794e-05
9.88002e-06
1.01682e-05
9.88811e-06
1.01558e-05
9.89741e-06
1.01422e-05
9.90654e-06
1.01283e-05
9.91441e-06
1.01125e-05
9.92009e-06
1.00955e-05
9.92611e-06
1.00792e-05
9.93036e-06
1.0064e-05
9.93172e-06
1.00491e-05
9.93316e-06
1.00361e-05
9.93308e-06
1.00233e-05
9.93166e-06
1.00126e-05
9.92754e-06
1.00026e-05
9.92319e-06
9.99538e-06
9.91573e-06
9.97798e-06
9.91588e-06
9.94679e-06
9.93039e-06
9.9015e-06
9.96664e-06
9.83514e-06
9.97561e-06
9.77957e-06
9.97496e-06
9.746e-06
9.97512e-06
9.72924e-06
9.97331e-06
9.73484e-06
9.96703e-06
9.75821e-06
9.96083e-06
9.79505e-06
9.94965e-06
9.83999e-06
9.9346e-06
9.89097e-06
9.91824e-06
9.92002e-06
9.90527e-06
9.89504e-06
9.88733e-06
9.8734e-06
9.87283e-06
9.85551e-06
9.86134e-06
9.8403e-06
9.84855e-06
9.82629e-06
9.83688e-06
9.81615e-06
9.82736e-06
9.80589e-06
9.81446e-06
9.79751e-06
9.79938e-06
9.78899e-06
9.77742e-06
9.7845e-06
9.75423e-06
9.78169e-06
9.73244e-06
9.77949e-06
9.70926e-06
9.77638e-06
9.69061e-06
9.77614e-06
9.67592e-06
9.77332e-06
9.66697e-06
9.77233e-06
9.66463e-06
9.76934e-06
9.66602e-06
9.76459e-06
9.67327e-06
9.75728e-06
9.68524e-06
9.74734e-06
9.70131e-06
9.73528e-06
9.71732e-06
9.72254e-06
9.72493e-06
9.71129e-06
9.71683e-06
9.69792e-06
9.70213e-06
9.68807e-06
9.68814e-06
9.67677e-06
9.67802e-06
9.66736e-06
9.66722e-06
9.66097e-06
9.65842e-06
9.65287e-06
9.65281e-06
9.64659e-06
9.64616e-06
9.64097e-06
9.64068e-06
9.63684e-06
9.63408e-06
9.63283e-06
9.63122e-06
9.62782e-06
9.62836e-06
9.62609e-06
9.62427e-06
9.62161e-06
9.62201e-06
9.62042e-06
9.61848e-06
9.61682e-06
9.61507e-06
9.61344e-06
9.61174e-06
9.61035e-06
9.6088e-06
9.60759e-06
9.60658e-06
9.60318e-06
9.60152e-06
9.60049e-06
9.59898e-06
9.59841e-06
9.59469e-06
9.59299e-06
9.59188e-06
9.58789e-06
9.58567e-06
9.58425e-06
9.57966e-06
9.57753e-06
9.57291e-06
9.57046e-06
9.56603e-06
9.56058e-06
9.55808e-06
9.55333e-06
9.54841e-06
9.54316e-06
9.5408e-06
9.53657e-06
9.53234e-06
9.52854e-06
9.52482e-06
9.52106e-06
9.51994e-06
9.51737e-06
9.51448e-06
9.51175e-06
9.51136e-06
9.50953e-06
9.50657e-06
9.50671e-06
9.50414e-06
9.50362e-06
9.50087e-06
9.50008e-06
9.49681e-06
9.49491e-06
9.49328e-06
9.49127e-06
9.48716e-06
9.48396e-06
9.48146e-06
9.4781e-06
9.47519e-06
9.47206e-06
9.46685e-06
9.46269e-06
9.45953e-06
9.45551e-06
9.45213e-06
9.44811e-06
9.44471e-06
9.44082e-06
9.43733e-06
9.43324e-06
9.43185e-06
9.42855e-06
9.42534e-06
9.42208e-06
9.41913e-06
9.41584e-06
9.41518e-06
9.41283e-06
9.40985e-06
9.40977e-06
9.40782e-06
9.40503e-06
9.4051e-06
9.40298e-06
9.40027e-06
9.39975e-06
9.39752e-06
9.39421e-06
9.39345e-06
9.3902e-06
9.38922e-06
9.38587e-06
9.38438e-06
9.38099e-06
9.37941e-06
9.37574e-06
9.37337e-06
9.3723e-06
9.36824e-06
9.36686e-06
9.36292e-06
9.36127e-06
9.36025e-06
9.35656e-06
9.35499e-06
9.35073e-06
9.34912e-06
9.34374e-06
9.34114e-06
9.33835e-06
9.33631e-06
9.33383e-06
9.33168e-06
9.32927e-06
9.32724e-06
9.32495e-06
9.32276e-06
9.32053e-06
9.31764e-06
9.31571e-06
9.31185e-06
9.31113e-06
9.30855e-06
9.3057e-06
9.30369e-06
9.3011e-06
9.29949e-06
9.29697e-06
9.2956e-06
9.29354e-06
9.29253e-06
9.29069e-06
9.28996e-06
9.28849e-06
9.2882e-06
9.28705e-06
9.28712e-06
9.28622e-06
9.28671e-06
9.28561e-06
9.28609e-06
9.28663e-06
9.28572e-06
9.28556e-06
9.28597e-06
9.28554e-06
9.28459e-06
9.28339e-06
9.28191e-06
9.28302e-06
9.28293e-06
9.2815e-06
9.28107e-06
9.27994e-06
9.27937e-06
9.27821e-06
9.2777e-06
9.27684e-06
9.2767e-06
9.27598e-06
9.27605e-06
9.27631e-06
9.27418e-06
9.27378e-06
9.27438e-06
9.27424e-06
9.27459e-06
9.27386e-06
9.2764e-06
9.27625e-06
9.27598e-06
9.27536e-06
9.27479e-06
9.27383e-06
9.27295e-06
9.27094e-06
9.2721e-06
9.27087e-06
9.26924e-06
9.26744e-06
9.26562e-06
9.2633e-06
9.26372e-06
9.26196e-06
9.26004e-06
9.25805e-06
9.25623e-06
9.25413e-06
9.25228e-06
9.24979e-06
9.25025e-06
9.24637e-06
9.24151e-06
9.23743e-06
9.23399e-06
9.22745e-06
9.2256e-06
9.22192e-06
9.21726e-06
9.21508e-06
9.21295e-06
9.20814e-06
9.20731e-06
9.20458e-06
9.2016e-06
9.19997e-06
9.19631e-06
9.19627e-06
9.19432e-06
9.19281e-06
9.19154e-06
9.19066e-06
9.1899e-06
9.18966e-06
9.1894e-06
9.18933e-06
9.18953e-06
9.18997e-06
9.19073e-06
9.19131e-06
9.19255e-06
9.19299e-06
9.19553e-06
9.19486e-06
9.19588e-06
9.19762e-06
9.19789e-06
9.2005e-06
9.19943e-06
9.20022e-06
9.20155e-06
9.20138e-06
9.20362e-06
9.202e-06
9.20241e-06
9.20313e-06
9.20289e-06
9.20431e-06
9.20319e-06
9.20153e-06
9.20383e-06
9.20358e-06
9.20279e-06
9.20289e-06
9.2008e-06
9.20154e-06
9.2014e-06
9.19816e-06
9.19867e-06
9.19754e-06
9.19444e-06
9.19406e-06
9.19314e-06
9.18901e-06
9.18898e-06
9.18708e-06
9.18329e-06
9.18197e-06
9.18044e-06
9.17529e-06
9.17439e-06
9.17144e-06
9.16615e-06
9.16327e-06
9.15983e-06
9.15303e-06
9.14892e-06
9.14452e-06
9.13385e-06
9.13053e-06
9.11918e-06
9.11271e-06
9.10193e-06
9.08881e-06
9.08781e-06
9.0499e-06
9.09093e-06
8.96398e-06
9.15559e-06
8.77071e-06
9.25923e-06
8.4424e-06
9.26291e-06
8.11034e-06
9.25441e-06
7.88181e-06
9.21436e-06
7.93391e-06
9.1204e-06
8.57246e-06
8.89381e-06
8.31057e-06
8.57549e-06
7.13002e-06
1.10176e-05
15.5036
6.39257e-07
1.05433e-06
1.09232e-06
8.55108e-07
6.16371e-07
4.49694e-07
2.64655e-07
3.22398e-07
1.31115e-07
5.25207e-07
)
;

boundaryField
{
    inlet
    {
        type            calculated;
        value           uniform 0;
    }
    endWall
    {
        type            calculated;
        value           uniform 0;
    }
    sideWall
    {
        type            empty;
    }
}


// ************************************************************************* //
