/*--------------------------------*- C++ -*----------------------------------*\
| =========                 |                                                 |
| \\      /  F ield         | foam-extend: Open Source CFD                    |
|  \\    /   O peration     | Version:     3.2                                |
|   \\  /    A nd           | Web:         http://www.foam-extend.org         |
|    \\/     M anipulation  | For copyright notice see file Copyright         |
\*---------------------------------------------------------------------------*/
FoamFile
{
    version     2.0;
    format      ascii;
    class       areaScalarField;
    location    "840";
    object      tau;
}
// * * * * * * * * * * * * * * * * * * * * * * * * * * * * * * * * * * * * * //

dimensions      [1 1 2 0 0 0 0];

internalField   nonuniform List<scalar> 
550
(
0.048151
0.0653413
0.0857298
0.108995
0.134467
0.161183
0.18815
0.214255
0.238485
0.260869
0.278953
0.295192
0.307093
0.316293
0.320944
0.323645
0.322978
0.321946
0.316415
0.311824
0.308355
0.305028
0.300599
0.295683
0.289792
0.284376
0.282035
0.27807
0.27484
0.270206
0.266887
0.264104
0.262576
0.262461
0.262987
0.263407
0.263487
0.263447
0.263548
0.263413
0.263308
0.262974
0.262631
0.262344
0.262273
0.262365
0.262509
0.262682
0.262807
0.26296
0.2631
0.263288
0.263473
0.263695
0.263915
0.26416
0.264402
0.264657
0.264917
0.265187
0.265446
0.265706
0.265946
0.266176
0.266386
0.266567
0.266729
0.266861
0.266968
0.267031
0.267067
0.26705
0.267
0.266893
0.266765
0.266579
0.266395
0.266156
0.265944
0.265682
0.265464
0.265193
0.264975
0.264704
0.264486
0.264213
0.264003
0.263736
0.263541
0.263292
0.26312
0.262894
0.26274
0.262534
0.262403
0.262207
0.262094
0.2619
0.261805
0.261599
0.261526
0.261328
0.261282
0.261107
0.261084
0.26094
0.260926
0.260811
0.260791
0.260692
0.260654
0.260559
0.260502
0.26041
0.260328
0.260237
0.260133
0.260043
0.25992
0.259833
0.259688
0.259599
0.259432
0.259338
0.259153
0.259054
0.258862
0.258758
0.258564
0.258461
0.258264
0.25816
0.257965
0.257861
0.257677
0.257579
0.257404
0.257312
0.25715
0.257062
0.256911
0.256826
0.256691
0.256617
0.256492
0.256431
0.256316
0.256292
0.25618
0.256206
0.25608
0.256169
0.256024
0.256169
0.256051
0.256215
0.25614
0.256283
0.256233
0.256327
0.256305
0.256324
0.25631
0.256229
0.256218
0.256044
0.256026
0.255766
0.25574
0.255414
0.255362
0.25502
0.254945
0.254666
0.254568
0.254327
0.254223
0.254017
0.253925
0.253756
0.253658
0.253516
0.25342
0.253298
0.253218
0.253114
0.253058
0.252972
0.252946
0.252879
0.252881
0.252831
0.252861
0.252829
0.252883
0.252858
0.252932
0.252922
0.252993
0.252997
0.253063
0.253074
0.253113
0.253131
0.253139
0.253152
0.253125
0.253137
0.253072
0.253082
0.25298
0.252989
0.252853
0.252857
0.252701
0.252706
0.252547
0.252546
0.252417
0.252411
0.252312
0.25231
0.252244
0.252244
0.252197
0.252205
0.252171
0.252178
0.252159
0.252162
0.252148
0.252153
0.252141
0.252143
0.252132
0.252132
0.252121
0.252109
0.252098
0.25208
0.252058
0.252034
0.252006
0.25197
0.251928
0.251886
0.251839
0.251788
0.251733
0.251674
0.251611
0.251544
0.251474
0.251401
0.251329
0.251254
0.251174
0.251089
0.251002
0.250916
0.250825
0.250727
0.250628
0.250523
0.25041
0.250296
0.250175
0.250049
0.249919
0.249783
0.249646
0.2495
0.249351
0.249203
0.249051
0.248896
0.248741
0.248592
0.248444
0.248301
0.248161
0.248022
0.247888
0.247763
0.247645
0.24753
0.247423
0.247325
0.247232
0.247143
0.247062
0.246986
0.246916
0.24685
0.246789
0.246727
0.246671
0.24662
0.246572
0.246524
0.246479
0.246437
0.246399
0.246368
0.246341
0.246314
0.246291
0.246272
0.246257
0.246247
0.24624
0.246239
0.246241
0.246245
0.246253
0.24627
0.246291
0.246318
0.246349
0.246384
0.246424
0.246471
0.246519
0.246573
0.246632
0.246688
0.246747
0.246809
0.246866
0.246925
0.246985
0.24704
0.247094
0.247146
0.247196
0.247244
0.24729
0.247334
0.247375
0.247414
0.247445
0.247479
0.24751
0.247538
0.247565
0.247586
0.247607
0.247625
0.247638
0.247652
0.247661
0.247668
0.247676
0.247679
0.24768
0.247676
0.247668
0.247656
0.247639
0.247617
0.247591
0.24756
0.247526
0.247487
0.24745
0.247411
0.247369
0.247328
0.247286
0.247247
0.247208
0.247171
0.247136
0.247102
0.24707
0.24704
0.247012
0.246985
0.246959
0.246935
0.246911
0.246888
0.246864
0.246839
0.246818
0.246788
0.246758
0.246726
0.246692
0.246662
0.246629
0.246593
0.246549
0.246499
0.246452
0.246399
0.246343
0.246281
0.246215
0.246144
0.246071
0.245995
0.245917
0.245838
0.24576
0.245686
0.245614
0.245537
0.245463
0.245387
0.245312
0.245234
0.245156
0.245084
0.245014
0.244947
0.244882
0.24482
0.244761
0.244701
0.244642
0.24459
0.24454
0.244494
0.24445
0.244405
0.24436
0.244323
0.24429
0.244258
0.24423
0.244204
0.24418
0.244155
0.244132
0.244116
0.244107
0.244102
0.244097
0.244104
0.244118
0.244133
0.244157
0.244189
0.244221
0.244262
0.244308
0.244356
0.244409
0.244467
0.244531
0.244602
0.244674
0.244752
0.244834
0.244921
0.245012
0.245108
0.245208
0.245311
0.245419
0.245529
0.245642
0.245758
0.245875
0.245995
0.246113
0.246231
0.246352
0.246472
0.246592
0.246707
0.24682
0.246934
0.247045
0.247154
0.247256
0.247354
0.247454
0.247548
0.24764
0.247724
0.247801
0.24788
0.247956
0.248019
0.248079
0.24813
0.248176
0.248217
0.248246
0.248273
0.248294
0.248305
0.248317
0.248325
0.248325
0.248326
0.248327
0.24832
0.248315
0.248313
0.248304
0.248298
0.248297
0.248289
0.248285
0.248289
0.248287
0.248297
0.248315
0.248332
0.248365
0.248413
0.248465
0.248556
0.248609
0.248769
0.248804
0.249098
0.249045
0.249595
0.249351
0.250305
0.249813
0.251254
0.250616
0.252314
0.251521
0.252889
0.251932
0.251977
0.250827
0.248284
0.246551
0.240299
0.236141
0.216561
0.191995
0.102437
0.0549084
0.0607903
0.0624884
0.0545401
0.0464941
0.0399809
0.0316944
0.0344427
0.0459774
0.0756697
)
;

boundaryField
{
    inlet
    {
        type            calculated;
        value           uniform 0;
    }
    endWall
    {
        type            calculated;
        value           uniform 0;
    }
    sideWall
    {
        type            empty;
    }
}


// ************************************************************************* //
