/*--------------------------------*- C++ -*----------------------------------*\
| =========                 |                                                 |
| \\      /  F ield         | foam-extend: Open Source CFD                    |
|  \\    /   O peration     | Version:     3.2                                |
|   \\  /    A nd           | Web:         http://www.foam-extend.org         |
|    \\/     M anipulation  | For copyright notice see file Copyright         |
\*---------------------------------------------------------------------------*/
FoamFile
{
    version     2.0;
    format      ascii;
    class       areaScalarField;
    location    "840";
    object      tauCSS2;
}
// * * * * * * * * * * * * * * * * * * * * * * * * * * * * * * * * * * * * * //

dimensions      [1 1 2 0 0 0 0];

internalField   nonuniform List<scalar> 
550
(
0.0120735
0.0120847
0.0120735
0.0120735
0.0120735
0.0120735
0.0121488
0.0120735
0.0120735
0.0121989
0.0119643
0.0122809
0.0216771
0.0248054
0.0118954
0.0123173
0.0118974
0.0122755
0.0118114
0.0125784
0.0232038
0.020958
0.0211262
0.0180879
0.0119835
0.0126301
0.0121661
0.0122882
0.0156728
0.0147116
0.0134952
0.0125859
0.0126842
0.012702
0.0128262
0.0129012
0.0129983
0.0130077
0.0130787
0.0130715
0.013124
0.013095
0.0131237
0.0130888
0.0131279
0.0131262
0.0131795
0.0131895
0.0132367
0.0132497
0.0132919
0.0133097
0.0133483
0.0133692
0.0134046
0.0134278
0.0134608
0.0134855
0.0135172
0.0135443
0.013575
0.0136026
0.013631
0.0136571
0.0136824
0.0137051
0.0137258
0.0137434
0.013758
0.0137686
0.0137763
0.013779
0.0137807
0.0137769
0.0137756
0.0137667
0.0137647
0.0137515
0.0137508
0.0137343
0.0137361
0.0137163
0.0137213
0.0136981
0.0137067
0.0136801
0.0136932
0.0136629
0.0136812
0.0136471
0.0136708
0.0136321
0.0136614
0.0136168
0.0136535
0.0136012
0.0136468
0.0135844
0.0136425
0.0135657
0.0136419
0.0135453
0.0136427
0.0135247
0.0136442
0.0135048
0.0136437
0.0134866
0.0136418
0.0134708
0.0136381
0.013457
0.0136334
0.0134459
0.0136273
0.0134373
0.0136198
0.0134312
0.0136115
0.0134277
0.0136022
0.0134264
0.0135918
0.0134269
0.0135809
0.0134292
0.0135708
0.0134329
0.0135612
0.0134378
0.0135519
0.013443
0.013543
0.0134482
0.013535
0.0134535
0.0135277
0.0134585
0.0135217
0.0134633
0.013516
0.0134676
0.0135113
0.0134717
0.0135075
0.0134758
0.0135049
0.0134808
0.0135007
0.0134896
0.0134915
0.0135045
0.0134758
0.013529
0.0134528
0.0135506
0.0134274
0.0135653
0.0134031
0.013572
0.0133828
0.0135708
0.0133683
0.0135592
0.0133609
0.0135409
0.0133621
0.0135168
0.0133726
0.0134892
0.0133914
0.0134619
0.0134126
0.013443
0.0134256
0.0134263
0.0134328
0.0134136
0.013438
0.0134064
0.0134414
0.0134005
0.0134435
0.0133958
0.0134466
0.0133936
0.0134506
0.0133922
0.0134566
0.0133916
0.0134636
0.0133893
0.0134725
0.0133859
0.0134832
0.0133813
0.0134943
0.0133763
0.0135042
0.0133711
0.0135139
0.0133665
0.0135198
0.0133629
0.0135238
0.0133611
0.0135244
0.013362
0.0135222
0.0133667
0.0135178
0.0133758
0.0135116
0.0133896
0.0135041
0.0134082
0.0134981
0.013428
0.0134958
0.013446
0.0134954
0.0134611
0.0134984
0.0134741
0.0135019
0.0134859
0.0135059
0.013495
0.0135108
0.0135023
0.0135142
0.013509
0.0135174
0.013514
0.0135197
0.013518
0.0135219
0.0135197
0.0135231
0.013521
0.0135223
0.0135212
0.0135215
0.0135196
0.0135182
0.013517
0.0135153
0.0135136
0.0135112
0.0135091
0.0135062
0.0135036
0.0135003
0.0134974
0.0134944
0.0134918
0.0134873
0.013484
0.0134794
0.0134764
0.0134723
0.0134679
0.0134637
0.0134597
0.0134542
0.0134502
0.0134453
0.0134404
0.0134357
0.0134301
0.0134261
0.01342
0.0134148
0.0134096
0.0134045
0.0133985
0.0133924
0.0133875
0.0133819
0.0133768
0.0133712
0.0133657
0.0133598
0.0133556
0.0133505
0.0133462
0.0133411
0.0133384
0.0133339
0.013331
0.013328
0.0133255
0.0133238
0.0133217
0.0133213
0.0133191
0.0133192
0.0133185
0.01332
0.0133192
0.013321
0.0133212
0.0133239
0.0133254
0.0133293
0.0133306
0.0133348
0.0133369
0.0133415
0.0133445
0.0133496
0.0133532
0.0133588
0.0133626
0.013368
0.0133733
0.0133796
0.0133853
0.0133919
0.0133975
0.0134038
0.0134107
0.013417
0.0134234
0.013431
0.0134372
0.0134443
0.0134516
0.0134583
0.0134651
0.0134729
0.0134792
0.0134862
0.0134928
0.0134991
0.0135062
0.013512
0.013519
0.0135242
0.0135312
0.0135352
0.0135417
0.0135464
0.0135516
0.0135564
0.0135601
0.0135646
0.0135685
0.0135718
0.0135755
0.0135784
0.0135817
0.0135836
0.0135866
0.013588
0.0135904
0.0135914
0.0135933
0.0135938
0.0135952
0.0135954
0.0135963
0.0135963
0.0135968
0.0135969
0.0135969
0.0135973
0.0135967
0.0135969
0.0135962
0.0135964
0.0135958
0.0135958
0.0135951
0.0135951
0.0135945
0.0135944
0.0135937
0.0135936
0.0135928
0.0135926
0.0135917
0.0135911
0.01359
0.0135895
0.013588
0.013587
0.0135849
0.0135835
0.0135819
0.0135806
0.0135781
0.0135757
0.0135714
0.0135697
0.0135656
0.0135632
0.0135587
0.0135558
0.0135509
0.0135475
0.0135424
0.0135387
0.0135335
0.0135298
0.0135251
0.0135222
0.0135163
0.0135129
0.0135072
0.0135039
0.013498
0.0134944
0.0134902
0.0134876
0.0134839
0.013482
0.013479
0.0134774
0.0134746
0.0134728
0.0134716
0.0134708
0.0134699
0.0134697
0.0134687
0.013468
0.0134685
0.0134689
0.0134696
0.0134706
0.0134715
0.0134729
0.0134737
0.0134747
0.0134772
0.0134797
0.0134822
0.0134845
0.0134872
0.0134897
0.013493
0.013496
0.0134996
0.0135032
0.0135071
0.013511
0.0135157
0.0135197
0.0135245
0.0135294
0.0135343
0.0135401
0.0135448
0.0135508
0.0135558
0.013562
0.013567
0.0135735
0.0135787
0.0135851
0.0135904
0.0135966
0.0136019
0.0136081
0.0136136
0.0136192
0.0136249
0.0136302
0.0136362
0.0136416
0.0136473
0.0136532
0.0136584
0.0136645
0.01367
0.0136757
0.0136814
0.0136865
0.0136926
0.0136977
0.0137031
0.0137079
0.0137129
0.0137176
0.0137228
0.0137267
0.0137312
0.013735
0.0137388
0.0137423
0.0137456
0.0137485
0.0137515
0.0137538
0.0137562
0.0137582
0.0137603
0.0137619
0.0137639
0.0137652
0.013767
0.0137686
0.0137702
0.0137716
0.0137735
0.013775
0.013777
0.0137791
0.0137813
0.0137841
0.0137868
0.0137911
0.0137943
0.0138008
0.0138048
0.013811
0.0138195
0.0138208
0.0138448
0.0138235
0.0138929
0.0138019
0.0139936
0.0137223
0.0141657
0.0135513
0.0143549
0.0132677
0.0144937
0.0128563
0.0144626
0.012323
0.0141027
0.0117088
0.0132029
0.0103798
0.0105568
0.00536984
-0.00196418
0.012148
0.0120735
0.0121481
0.0120736
0.0121481
0.012148
0.0121481
0.0121481
0.0229044
0.0213706
)
;

boundaryField
{
    inlet
    {
        type            calculated;
        value           uniform 0;
    }
    endWall
    {
        type            calculated;
        value           uniform 0;
    }
    sideWall
    {
        type            empty;
    }
}


// ************************************************************************* //
