/*--------------------------------*- C++ -*----------------------------------*\
| =========                 |                                                 |
| \\      /  F ield         | foam-extend: Open Source CFD                    |
|  \\    /   O peration     | Version:     3.2                                |
|   \\  /    A nd           | Web:         http://www.foam-extend.org         |
|    \\/     M anipulation  | For copyright notice see file Copyright         |
\*---------------------------------------------------------------------------*/
FoamFile
{
    version     2.0;
    format      ascii;
    class       areaScalarField;
    location    "840";
    object      tauCB;
}
// * * * * * * * * * * * * * * * * * * * * * * * * * * * * * * * * * * * * * //

dimensions      [1 1 2 0 0 0 0];

internalField   nonuniform List<scalar> 
550
(
0.0676939
0.0677565
0.0676939
0.0676939
0.0676939
0.0676939
0.068116
0.0676939
0.0676939
0.0683968
0.0670815
0.0688563
0.121539
0.139079
0.0666951
0.0690607
0.0667064
0.0688265
0.0662242
0.0705246
0.130099
0.117507
0.11845
0.101415
0.0671892
0.0708146
0.0682127
0.0688977
0.0878739
0.0824849
0.075665
0.0705668
0.0711175
0.0712174
0.0719143
0.0723344
0.0728787
0.0729312
0.0733297
0.0732894
0.0735835
0.0734208
0.073582
0.0733865
0.0736053
0.0735959
0.0738949
0.0739508
0.0742158
0.0742882
0.074525
0.0746247
0.0748413
0.0749583
0.0751568
0.0752871
0.0754719
0.0756107
0.0757881
0.0759401
0.076112
0.0762667
0.0764263
0.0765727
0.0767147
0.0768415
0.076958
0.0770568
0.0771384
0.0771976
0.0772405
0.0772561
0.0772658
0.0772442
0.0772367
0.0771868
0.0771759
0.0771017
0.0770977
0.0770053
0.0770153
0.0769045
0.0769322
0.0768025
0.0768507
0.0767013
0.0767749
0.0766052
0.0767079
0.0765166
0.0766494
0.0764323
0.0765968
0.0763465
0.0765521
0.0762594
0.076515
0.076165
0.0764906
0.0760601
0.0764875
0.0759457
0.0764922
0.0758304
0.0765003
0.0757187
0.0764976
0.0756168
0.0764869
0.0755279
0.0764661
0.0754506
0.0764401
0.0753883
0.0764053
0.0753401
0.0763633
0.0753056
0.0763168
0.0752861
0.0762644
0.0752789
0.0762065
0.0752819
0.0761453
0.0752949
0.0760887
0.0753158
0.0760348
0.0753427
0.0759829
0.0753723
0.075933
0.0754014
0.0758881
0.0754308
0.075847
0.0754589
0.0758133
0.075486
0.0757816
0.0755097
0.0757554
0.0755333
0.0757342
0.075556
0.075719
0.0755842
0.0756957
0.0756333
0.0756441
0.0757169
0.0755557
0.0758544
0.0754272
0.0759754
0.0752847
0.0760581
0.0751482
0.0760955
0.0750345
0.0760888
0.0749535
0.0760237
0.0749121
0.0759211
0.0749191
0.0757861
0.0749776
0.075631
0.0750828
0.0754781
0.075202
0.0753724
0.0752749
0.0752783
0.0753147
0.075207
0.075344
0.0751666
0.0753628
0.075134
0.0753753
0.0751076
0.0753922
0.0750953
0.0754148
0.0750872
0.0754483
0.0750837
0.0754877
0.0750707
0.0755374
0.0750518
0.0755974
0.0750262
0.0756597
0.0749983
0.075715
0.0749691
0.0757694
0.0749434
0.0758031
0.0749233
0.0758254
0.0749133
0.0758287
0.0749183
0.0758165
0.0749447
0.0757918
0.0749957
0.0757569
0.075073
0.0757151
0.0751772
0.0756811
0.075288
0.0756684
0.0753892
0.0756658
0.0754737
0.0756831
0.0755463
0.0757023
0.0756128
0.075725
0.0756635
0.0757523
0.0757046
0.0757715
0.0757423
0.0757893
0.0757703
0.0758021
0.0757928
0.0758143
0.0758021
0.0758214
0.0758097
0.0758167
0.0758104
0.0758123
0.0758014
0.0757938
0.0757871
0.0757772
0.0757679
0.0757547
0.0757427
0.0757264
0.075712
0.0756935
0.0756774
0.0756601
0.0756459
0.0756206
0.0756023
0.0755762
0.0755595
0.0755366
0.0755116
0.0754882
0.075466
0.0754352
0.0754126
0.0753853
0.0753575
0.0753315
0.0752999
0.0752772
0.075243
0.0752141
0.0751849
0.075156
0.0751224
0.0750888
0.075061
0.0750292
0.0750009
0.0749694
0.0749388
0.0749053
0.0748823
0.0748533
0.0748296
0.0748008
0.0747856
0.0747603
0.074744
0.0747272
0.0747133
0.0747039
0.0746922
0.0746897
0.0746775
0.0746783
0.0746743
0.0746826
0.0746781
0.0746885
0.0746895
0.0747042
0.0747127
0.0747348
0.074742
0.0747653
0.0747773
0.0748034
0.0748197
0.0748486
0.0748688
0.0749
0.0749212
0.0749517
0.0749814
0.0750165
0.0750486
0.0750856
0.0751174
0.0751526
0.0751911
0.0752263
0.0752622
0.0753049
0.0753395
0.075379
0.0754201
0.0754581
0.0754959
0.0755397
0.0755751
0.0756141
0.0756515
0.075687
0.0757264
0.0757589
0.0757983
0.0758275
0.0758665
0.075889
0.0759256
0.0759517
0.0759813
0.0760079
0.0760287
0.0760544
0.0760762
0.0760946
0.0761155
0.0761318
0.0761496
0.0761609
0.076177
0.0761853
0.0761987
0.0762042
0.0762147
0.0762178
0.0762258
0.0762267
0.0762322
0.0762319
0.0762344
0.0762351
0.0762351
0.0762373
0.0762341
0.0762352
0.0762315
0.0762321
0.0762285
0.0762287
0.0762251
0.0762252
0.0762216
0.0762215
0.0762174
0.0762169
0.0762123
0.0762109
0.0762054
0.0762028
0.0761965
0.076194
0.076185
0.0761797
0.0761679
0.0761602
0.0761506
0.0761437
0.0761294
0.0761158
0.0760918
0.0760825
0.0760594
0.0760462
0.0760207
0.0760045
0.075977
0.0759583
0.0759292
0.0759088
0.0758796
0.0758589
0.0758324
0.0758161
0.0757828
0.0757643
0.0757321
0.0757139
0.0756808
0.0756602
0.075637
0.0756219
0.0756019
0.0755907
0.0755738
0.0755654
0.075549
0.0755391
0.0755324
0.0755281
0.0755234
0.0755217
0.0755159
0.0755123
0.0755151
0.0755174
0.0755213
0.0755269
0.0755317
0.0755398
0.0755441
0.0755502
0.0755639
0.075578
0.0755917
0.0756049
0.0756202
0.075634
0.0756525
0.0756694
0.0756892
0.0757097
0.0757319
0.0757534
0.0757799
0.0758024
0.0758293
0.0758568
0.0758841
0.0759164
0.075943
0.0759767
0.0760043
0.0760393
0.0760678
0.0761038
0.0761329
0.0761688
0.0761982
0.0762338
0.0762634
0.076298
0.0763285
0.0763602
0.0763923
0.0764215
0.0764553
0.0764861
0.0765177
0.0765503
0.0765796
0.0766142
0.0766452
0.0766768
0.0767092
0.0767377
0.0767713
0.0767997
0.0768301
0.0768572
0.0768858
0.0769118
0.076941
0.0769628
0.0769879
0.0770092
0.0770306
0.0770508
0.0770692
0.0770851
0.077102
0.0771149
0.077128
0.0771398
0.0771508
0.0771598
0.077171
0.0771788
0.0771888
0.0771973
0.0772066
0.0772144
0.0772253
0.0772337
0.0772451
0.0772563
0.077269
0.0772846
0.0772998
0.0773242
0.0773416
0.0773779
0.0774005
0.0774352
0.0774834
0.0774904
0.077625
0.0775056
0.0778948
0.0773846
0.0784594
0.0769377
0.079424
0.0759792
0.080485
0.0743893
0.0812629
0.0720827
0.0810891
0.0690927
0.079071
0.0656485
0.0740258
0.0581973
0.0591897
0.0301077
-0.0110128
0.0681115
0.0676938
0.068112
0.0676943
0.068112
0.0681115
0.068112
0.0681119
0.128421
0.119821
)
;

boundaryField
{
    inlet
    {
        type            calculated;
        value           uniform 0;
    }
    endWall
    {
        type            calculated;
        value           uniform 0;
    }
    sideWall
    {
        type            empty;
    }
}


// ************************************************************************* //
