/*--------------------------------*- C++ -*----------------------------------*\
| =========                 |                                                 |
| \\      /  F ield         | foam-extend: Open Source CFD                    |
|  \\    /   O peration     | Version:     3.2                                |
|   \\  /    A nd           | Web:         http://www.foam-extend.org         |
|    \\/     M anipulation  | For copyright notice see file Copyright         |
\*---------------------------------------------------------------------------*/
FoamFile
{
    version     2.0;
    format      ascii;
    class       areaScalarField;
    location    "840";
    object      Te;
}
// * * * * * * * * * * * * * * * * * * * * * * * * * * * * * * * * * * * * * //

dimensions      [0 0 1 0 0 0 0];

internalField   nonuniform List<scalar> 
550
(
0
0
0
0
0
0
0
0
0
0
0
0
0.012
0.008
0.004
0.004
0
0
0
0
0.008
0.008
0.004
0.004
0
0
0
0
0.008
0.004
0.004
0
0
0
0
0
0
0
0.184
0.072
0
0
0
0
0
0.532
0.416
1.188
1.072
0.96
0.856
0.752
0.656
0.56
0.472
0.376
0.284
0.18
0.08
0
0
0
0
0
0
0
0
0
0
1.732
1.612
1.488
1.384
1.28
1.192
1.1
1.016
0.92
0.82
0.656
0.452
0.252
0.136
0.048
0
0
0
0
0
6.44
6.464
19.676
19.644
19.62
19.692
20.56
20.584
20.584
20.508
20.416
20.22
20.088
19.944
19.856
19.748
19.664
19.544
8.036
7.816
7.652
7.456
7.28
7.048
6.852
1.104
0
0
0
0
0
0
0
0
0
0
0
0
0
0
0
0
0
0
0
0
0
0
0
0
0
0
0
0
0
0
0
0.312
56.924
56.668
53.796
53.464
48.1
47.192
42.984
42.54
23.94
19.984
19.668
18.676
18.256
18.076
16.808
16.596
16.304
2.924
0.824
0.524
0
0
0
0
0
0
0
0
0
0
0
0
0
0
0
0
0
0
0
0
1.908
18.12
18.164
18.268
18.392
18.572
18.68
18.76
18.736
18.632
18.544
18.432
18.364
2.5
2.36
2.216
2.116
1.956
1.808
1.488
1.204
0.912
0.704
0.092
0
0
0
0
0
0
0
0
0
0
0
0
0
0
0
0.332
1.652
1.78
1.832
1.872
1.888
1.912
1.932
1.96
1.972
1.988
2
2.012
2
1.968
1.912
1.792
1.636
1.556
1.504
1.464
1.432
1.396
1.364
1.328
1.288
1.244
1.192
1.128
1.044
0.932
0.784
0.62
0.476
0.352
0.24
0.116
0
0
0
0
0
0
0
0
0
0
0
0
0
0
0
0
0
0
0
0
0
0
0
0
0
0
0
0
0
0
0
0
0
0
0
0
0
0
0
0
0
0
0
0
0
0
0
0
0
0
0
0
0
0
0
0
0
0
0
1.704
1.736
1.748
1.76
1.764
1.76
1.756
1.748
1.744
1.74
1.732
1.716
1.696
1.66
1.608
1.52
0
0
0
0
0
0
0
0
0
0
0
0
0
0
0
0
0
0
0
0
0
0
0
0
0
0
0
0
0
0
0
0
0
0
0
0
0
0
0
0
0
0
0
0
0
0
0
0
0
0
0
0
0
0
0
0
0
0
0
0
0
0
0
0
0
0
0
0
0
0
0
0
0
0
0
0
0
0
0
0
0
0
0
0
0
0
0
0
0
0
0
0
0
0
0
0
0
0
0
0
0
0
0
0
0
0
0
0
0
0
0
0
0
0
0
0
0
0
0.048
0.144
0.248
0.36
0.472
0.58
0.668
0.748
0.82
0.892
0.956
1.016
1.08
1.148
1.232
1.328
1.452
1.612
1.776
12.348
7.872
7.64
7.496
7.368
7.236
7.088
6.912
6.736
6.584
6.456
6.352
6.268
6.196
6.14
6.088
5.64
5.192
4.5
4.248
4.12
4.02
3.928
3.82
3.656
3.06
2.852
2.748
2.672
2.612
2.572
2.544
2.52
2.508
2.496
2.5
2.512
2.52
0
0
0
0
0
0
0
0
0
0
0
0
0
0
0
0
0
0
0
0
0
0
0
0
0
0
1.208
0
0
0
0
0
0
0
0
0
0
)
;

boundaryField
{
    inlet
    {
        type            calculated;
        value           uniform 0;
    }
    endWall
    {
        type            calculated;
        value           uniform 0;
    }
    sideWall
    {
        type            empty;
    }
}


// ************************************************************************* //
