/*--------------------------------*- C++ -*----------------------------------*\
| =========                 |                                                 |
| \\      /  F ield         | foam-extend: Open Source CFD                    |
|  \\    /   O peration     | Version:     3.2                                |
|   \\  /    A nd           | Web:         http://www.foam-extend.org         |
|    \\/     M anipulation  | For copyright notice see file Copyright         |
\*---------------------------------------------------------------------------*/
FoamFile
{
    version     2.0;
    format      ascii;
    class       volScalarField;
    location    "840";
    object      testS;
}
// * * * * * * * * * * * * * * * * * * * * * * * * * * * * * * * * * * * * * //

dimensions      [0 0 0 0 0 0 0];

internalField   uniform 0;

boundaryField
{
    inlet
    {
        type            calculated;
        value           uniform 0;
    }
    outlet
    {
        type            calculated;
        value           uniform 0;
    }
    sideWall
    {
        type            empty;
    }
    bed
    {
        type            calculated;
        value           nonuniform List<scalar> 
550
(
0.00284105
0.00508843
0.00828782
0.0125099
0.0177526
0.0238716
0.0303283
0.0376923
0.0446764
0.0506246
0.0570264
0.0606711
0.0257382
0.0225783
0.0733984
0.0720147
0.0755213
0.0720141
0.0725082
0.0614019
0.0242249
0.0273293
0.0265147
0.0327892
0.0622286
0.051268
0.0580738
0.0545886
0.0364545
0.0384894
0.0412703
0.0453236
0.043506
0.0438465
0.0436682
0.0440343
0.0437864
0.0437411
0.0434638
0.0437772
0.043394
0.0437243
0.0432179
0.0433778
0.042975
0.0432706
0.0429964
0.0432239
0.0429772
0.0431267
0.0429306
0.0430335
0.0428869
0.0429508
0.0428359
0.0428698
0.0427816
0.0427857
0.042721
0.0427192
0.0426754
0.0426658
0.0426425
0.0426424
0.0426418
0.0426542
0.042667
0.0426903
0.0427156
0.0427499
0.0427798
0.0428272
0.0428517
0.0429036
0.0429077
0.0429711
0.042945
0.0430206
0.0429591
0.0430539
0.0429549
0.043079
0.0429351
0.0430912
0.0429071
0.0430999
0.0428666
0.0431079
0.042819
0.0431083
0.0427632
0.0431153
0.0427097
0.0431315
0.0426522
0.0431599
0.0425802
0.0431997
0.0424872
0.0432636
0.0423506
0.0432924
0.0422106
0.0433116
0.0420827
0.043298
0.0419891
0.043289
0.0419309
0.0432788
0.0418986
0.0432677
0.0418787
0.0432439
0.0418767
0.0432123
0.0418871
0.0431743
0.0419046
0.0431269
0.0419389
0.0430742
0.0419783
0.0430166
0.0420171
0.0429577
0.0420504
0.0428905
0.0420745
0.0428184
0.0421001
0.0427495
0.0421181
0.042685
0.0421239
0.0426216
0.04213
0.0425667
0.0421296
0.0425124
0.0421236
0.042467
0.0421061
0.0424247
0.0420877
0.0423939
0.0420561
0.0423201
0.0420567
0.0421878
0.0421182
0.0419957
0.042272
0.0417142
0.04231
0.0414785
0.0423073
0.0413362
0.0423079
0.0412651
0.0423003
0.0412888
0.0422736
0.0413879
0.0422473
0.0415442
0.0421999
0.0417348
0.0421361
0.041951
0.0420667
0.0420742
0.0420117
0.0419683
0.0419356
0.0418765
0.0418741
0.0418006
0.0418254
0.0417361
0.0417711
0.0416767
0.0417216
0.0416337
0.0416813
0.0415902
0.0416265
0.0415546
0.0415626
0.0415185
0.0414694
0.0414994
0.0413711
0.0414875
0.0412787
0.0414782
0.0411803
0.041465
0.0411012
0.041464
0.0410389
0.041452
0.041001
0.0414478
0.040991
0.0414351
0.040997
0.041415
0.0410277
0.041384
0.0410785
0.0413419
0.0411466
0.0412907
0.0412145
0.0412366
0.0412468
0.041189
0.0412125
0.0411322
0.0411501
0.0410905
0.0410907
0.0410425
0.0410478
0.0410026
0.041002
0.0409755
0.0409647
0.0409412
0.0409409
0.0409145
0.0409127
0.0408907
0.0408895
0.0408732
0.0408615
0.0408561
0.0408494
0.0408349
0.0408372
0.0408276
0.0408199
0.0408086
0.0408103
0.0408035
0.0407953
0.0407882
0.0407809
0.0407739
0.0407667
0.0407608
0.0407542
0.0407491
0.0407449
0.0407304
0.0407234
0.040719
0.0407126
0.0407102
0.0406944
0.0406872
0.0406825
0.0406656
0.0406561
0.0406501
0.0406306
0.0406216
0.040602
0.0405916
0.0405728
0.0405497
0.0405391
0.040519
0.0404981
0.0404758
0.0404658
0.0404479
0.0404299
0.0404138
0.040398
0.0403821
0.0403774
0.0403665
0.0403542
0.0403426
0.040341
0.0403332
0.0403207
0.0403212
0.0403104
0.0403081
0.0402965
0.0402931
0.0402793
0.0402712
0.0402643
0.0402558
0.0402383
0.0402248
0.0402141
0.0401999
0.0401876
0.0401743
0.0401522
0.0401346
0.0401211
0.0401041
0.0400897
0.0400727
0.0400583
0.0400418
0.040027
0.0400096
0.0400037
0.0399897
0.0399761
0.0399623
0.0399498
0.0399358
0.039933
0.0399231
0.0399104
0.0399101
0.0399018
0.03989
0.0398903
0.0398813
0.0398698
0.0398676
0.0398581
0.0398441
0.0398409
0.0398271
0.0398229
0.0398087
0.0398024
0.039788
0.0397813
0.0397658
0.0397557
0.0397512
0.0397339
0.0397281
0.0397114
0.0397044
0.0397001
0.0396844
0.0396777
0.0396597
0.0396529
0.03963
0.039619
0.0396072
0.0395985
0.039588
0.0395789
0.0395687
0.0395601
0.0395504
0.0395411
0.0395316
0.0395193
0.0395112
0.0394948
0.0394917
0.0394808
0.0394687
0.0394602
0.0394492
0.0394423
0.0394317
0.0394259
0.0394171
0.0394128
0.039405
0.0394019
0.0393957
0.0393945
0.0393896
0.0393899
0.0393861
0.0393882
0.0393835
0.0393855
0.0393878
0.0393839
0.0393833
0.039385
0.0393832
0.0393792
0.0393741
0.0393678
0.0393725
0.0393721
0.039366
0.0393642
0.0393594
0.039357
0.0393521
0.0393499
0.0393463
0.0393457
0.0393426
0.0393429
0.039344
0.039335
0.0393333
0.0393359
0.0393353
0.0393368
0.0393337
0.0393444
0.0393438
0.0393426
0.03934
0.0393376
0.0393335
0.0393298
0.0393212
0.0393262
0.039321
0.039314
0.0393064
0.0392987
0.0392889
0.0392907
0.0392832
0.039275
0.0392666
0.0392589
0.03925
0.0392421
0.0392316
0.0392335
0.039217
0.0391964
0.0391791
0.0391645
0.0391368
0.039129
0.0391134
0.0390936
0.0390844
0.0390753
0.0390549
0.0390514
0.0390398
0.0390272
0.0390203
0.0390048
0.0390046
0.0389963
0.0389899
0.0389845
0.0389808
0.0389776
0.0389765
0.0389754
0.0389751
0.038976
0.0389779
0.0389811
0.0389835
0.0389888
0.0389906
0.0390014
0.0389986
0.0390029
0.0390103
0.0390115
0.0390225
0.039018
0.0390213
0.039027
0.0390262
0.0390357
0.0390289
0.0390306
0.0390336
0.0390327
0.0390387
0.0390339
0.0390269
0.0390366
0.0390356
0.0390322
0.0390326
0.0390238
0.0390269
0.0390263
0.0390126
0.0390147
0.0390099
0.0389968
0.0389952
0.0389913
0.0389738
0.0389736
0.0389656
0.0389495
0.0389439
0.0389374
0.0389156
0.0389118
0.0388993
0.0388768
0.0388646
0.03885
0.0388212
0.0388037
0.0387851
0.0387398
0.0387257
0.0386776
0.0386502
0.0386044
0.0385488
0.0385445
0.0383838
0.0385578
0.0380194
0.038832
0.0371996
0.0392716
0.0358072
0.0392872
0.0343988
0.0392512
0.0334295
0.0390813
0.0336505
0.0386828
0.0363588
0.0377217
0.035248
0.0363716
0.0302409
0.0467293
65756.1
0.00271131
0.00447179
0.00463292
0.00362681
0.00261424
0.00190731
0.0011225
0.0013674
0.000556103
0.00222758
)
;
    }
    endWall
    {
        type            calculated;
        value           uniform 0;
    }
    topWall
    {
        type            calculated;
        value           uniform 0;
    }
}


// ************************************************************************* //
