/*--------------------------------*- C++ -*----------------------------------*\
| =========                 |                                                 |
| \\      /  F ield         | foam-extend: Open Source CFD                    |
|  \\    /   O peration     | Version:     3.2                                |
|   \\  /    A nd           | Web:         http://www.foam-extend.org         |
|    \\/     M anipulation  | For copyright notice see file Copyright         |
\*---------------------------------------------------------------------------*/
FoamFile
{
    version     2.0;
    format      ascii;
    class       areaScalarField;
    location    "840";
    object      thetaCB;
}
// * * * * * * * * * * * * * * * * * * * * * * * * * * * * * * * * * * * * * //

dimensions      [0 0 0 0 0 0 0];

internalField   nonuniform List<scalar> 
550
(
0.0367204
0.0367544
0.0367204
0.0367204
0.0367204
0.0367204
0.0369494
0.0367204
0.0367204
0.0371017
0.0363882
0.0373509
0.0659287
0.0754431
0.0361786
0.0374618
0.0361847
0.0373348
0.0359232
0.0382559
0.0705719
0.0637415
0.0642532
0.0550125
0.0364467
0.0384132
0.0370018
0.0373734
0.047667
0.0447438
0.0410443
0.0382788
0.0385775
0.0386317
0.0390097
0.0392376
0.0395329
0.0395614
0.0397775
0.0397557
0.0399152
0.039827
0.0399144
0.0398083
0.039927
0.0399219
0.0400841
0.0401144
0.0402582
0.0402975
0.0404259
0.04048
0.0405975
0.040661
0.0407687
0.0408393
0.0409396
0.0410148
0.0411111
0.0411936
0.0412868
0.0413707
0.0414573
0.0415367
0.0416137
0.0416825
0.0417457
0.0417993
0.0418435
0.0418756
0.041899
0.0419074
0.0419126
0.0419009
0.0418969
0.0418698
0.0418639
0.0418236
0.0418215
0.0417714
0.0417768
0.0417167
0.0417317
0.0416613
0.0416875
0.0416065
0.0416464
0.0415544
0.0416101
0.0415063
0.0415783
0.0414605
0.0415498
0.041414
0.0415255
0.0413667
0.0415054
0.0413155
0.0414922
0.0412586
0.0414905
0.0411966
0.041493
0.0411341
0.0414974
0.0410735
0.041496
0.0410182
0.0414902
0.0409699
0.0414789
0.040928
0.0414647
0.0408942
0.0414459
0.0408681
0.0414231
0.0408494
0.0413979
0.0408388
0.0413694
0.0408349
0.041338
0.0408365
0.0413048
0.0408436
0.0412741
0.0408549
0.0412449
0.0408695
0.0412168
0.0408856
0.0411897
0.0409013
0.0411653
0.0409173
0.0411431
0.0409325
0.0411248
0.0409472
0.0411076
0.0409601
0.0410933
0.0409729
0.0410818
0.0409852
0.0410736
0.0410005
0.041061
0.0410271
0.041033
0.0410725
0.040985
0.041147
0.0409153
0.0412127
0.040838
0.0412575
0.040764
0.0412778
0.0407023
0.0412742
0.0406584
0.0412389
0.0406359
0.0411833
0.0406397
0.04111
0.0406714
0.0410259
0.0407285
0.0409429
0.0407932
0.0408856
0.0408327
0.0408345
0.0408543
0.0407959
0.0408702
0.040774
0.0408804
0.0407563
0.0408871
0.0407419
0.0408964
0.0407353
0.0409086
0.0407309
0.0409268
0.040729
0.0409481
0.0407219
0.0409751
0.0407117
0.0410076
0.0406978
0.0410414
0.0406827
0.0410714
0.0406668
0.0411009
0.0406529
0.0411192
0.040642
0.0411313
0.0406366
0.0411331
0.0406393
0.0411265
0.0406536
0.0411131
0.0406813
0.0410942
0.0407232
0.0410715
0.0407797
0.0410531
0.0408398
0.0410461
0.0408947
0.0410447
0.0409406
0.0410541
0.0409799
0.0410645
0.041016
0.0410768
0.0410435
0.0410917
0.0410658
0.0411021
0.0410862
0.0411118
0.0411014
0.0411187
0.0411136
0.0411253
0.0411187
0.0411292
0.0411228
0.0411266
0.0411232
0.0411242
0.0411183
0.0411142
0.0411106
0.0411052
0.0411001
0.041093
0.0410865
0.0410776
0.0410698
0.0410598
0.0410511
0.0410417
0.0410339
0.0410202
0.0410103
0.0409962
0.0409871
0.0409747
0.0409611
0.0409484
0.0409364
0.0409197
0.0409074
0.0408926
0.0408775
0.0408634
0.0408463
0.040834
0.0408154
0.0407998
0.0407839
0.0407682
0.04075
0.0407318
0.0407167
0.0406994
0.0406841
0.040667
0.0406504
0.0406322
0.0406197
0.040604
0.0405912
0.0405755
0.0405673
0.0405536
0.0405447
0.0405356
0.0405281
0.0405229
0.0405166
0.0405152
0.0405087
0.0405091
0.0405069
0.0405114
0.040509
0.0405146
0.0405151
0.0405231
0.0405278
0.0405397
0.0405436
0.0405563
0.0405628
0.040577
0.0405858
0.0406014
0.0406124
0.0406293
0.0406408
0.0406574
0.0406735
0.0406926
0.04071
0.04073
0.0407473
0.0407664
0.0407872
0.0408064
0.0408258
0.040849
0.0408677
0.0408892
0.0409115
0.0409321
0.0409526
0.0409763
0.0409955
0.0410167
0.041037
0.0410563
0.0410776
0.0410952
0.0411166
0.0411325
0.0411536
0.0411658
0.0411857
0.0411998
0.0412159
0.0412303
0.0412416
0.0412555
0.0412674
0.0412773
0.0412887
0.0412975
0.0413072
0.0413133
0.041322
0.0413265
0.0413338
0.0413368
0.0413425
0.0413442
0.0413485
0.041349
0.041352
0.0413518
0.0413532
0.0413535
0.0413535
0.0413548
0.041353
0.0413536
0.0413516
0.0413519
0.04135
0.0413501
0.0413481
0.0413482
0.0413462
0.0413462
0.041344
0.0413437
0.0413412
0.0413404
0.0413375
0.0413361
0.0413326
0.0413312
0.0413264
0.0413235
0.0413171
0.0413129
0.0413077
0.041304
0.0412962
0.0412889
0.0412758
0.0412708
0.0412582
0.0412511
0.0412372
0.0412285
0.0412135
0.0412034
0.0411877
0.0411766
0.0411607
0.0411495
0.0411351
0.0411263
0.0411082
0.0410982
0.0410807
0.0410708
0.0410529
0.0410417
0.0410291
0.0410209
0.0410101
0.041004
0.0409948
0.0409903
0.0409814
0.040976
0.0409724
0.0409701
0.0409675
0.0409666
0.0409635
0.0409615
0.040963
0.0409643
0.0409664
0.0409694
0.040972
0.0409764
0.0409787
0.040982
0.0409895
0.0409971
0.0410045
0.0410117
0.04102
0.0410275
0.0410376
0.0410467
0.0410574
0.0410685
0.0410806
0.0410923
0.0411066
0.0411189
0.0411335
0.0411483
0.0411631
0.0411807
0.0411951
0.0412134
0.0412284
0.0412474
0.0412628
0.0412823
0.0412981
0.0413176
0.0413335
0.0413529
0.0413689
0.0413877
0.0414042
0.0414214
0.0414388
0.0414547
0.041473
0.0414897
0.0415069
0.0415246
0.0415405
0.0415592
0.041576
0.0415931
0.0416107
0.0416262
0.0416444
0.0416599
0.0416763
0.041691
0.0417066
0.0417207
0.0417365
0.0417483
0.0417619
0.0417735
0.0417851
0.041796
0.041806
0.0418146
0.0418238
0.0418308
0.0418379
0.0418443
0.0418503
0.0418552
0.0418612
0.0418655
0.0418709
0.0418755
0.0418805
0.0418848
0.0418907
0.0418952
0.0419014
0.0419075
0.0419144
0.0419229
0.0419311
0.0419444
0.0419538
0.0419735
0.0419858
0.0420046
0.0420307
0.0420345
0.0421075
0.0420428
0.0422539
0.0419771
0.0425601
0.0417347
0.0430834
0.0412147
0.0436589
0.0403523
0.0440809
0.0391011
0.0439866
0.0374792
0.0428919
0.0356109
0.0401551
0.031569
0.0321073
0.0163318
-0.00597386
0.0369469
0.0367204
0.0369472
0.0367206
0.0369472
0.0369469
0.0369472
0.0369472
0.0696614
0.0649966
)
;

boundaryField
{
    inlet
    {
        type            calculated;
        value           uniform 0;
    }
    endWall
    {
        type            calculated;
        value           uniform 0;
    }
    sideWall
    {
        type            empty;
    }
}


// ************************************************************************* //
