/*--------------------------------*- C++ -*----------------------------------*\
| =========                 |                                                 |
| \\      /  F ield         | foam-extend: Open Source CFD                    |
|  \\    /   O peration     | Version:     3.2                                |
|   \\  /    A nd           | Web:         http://www.foam-extend.org         |
|    \\/     M anipulation  | For copyright notice see file Copyright         |
\*---------------------------------------------------------------------------*/
FoamFile
{
    version     2.0;
    format      ascii;
    class       areaScalarField;
    location    "840";
    object      thetaCSS1;
}
// * * * * * * * * * * * * * * * * * * * * * * * * * * * * * * * * * * * * * //

dimensions      [0 0 0 0 0 0 0];

internalField   nonuniform List<scalar> 
550
(
0.127208
0.127326
0.127208
0.127208
0.127208
0.127208
0.128001
0.127208
0.127208
0.128529
0.126057
0.129392
0.228392
0.261353
0.125331
0.129777
0.125352
0.129336
0.124446
0.132527
0.244478
0.220816
0.222588
0.190576
0.12626
0.133072
0.128183
0.12947
0.16513
0.155003
0.142187
0.132607
0.133642
0.133829
0.135139
0.135928
0.136951
0.13705
0.137798
0.137723
0.138276
0.13797
0.138273
0.137905
0.138317
0.138299
0.138861
0.138966
0.139464
0.1396
0.140045
0.140232
0.140639
0.140859
0.141232
0.141477
0.141824
0.142085
0.142418
0.142704
0.143027
0.143318
0.143618
0.143893
0.14416
0.144398
0.144617
0.144802
0.144956
0.145067
0.145148
0.145177
0.145195
0.145155
0.145141
0.145047
0.145026
0.144887
0.14488
0.144706
0.144725
0.144516
0.144569
0.144324
0.144415
0.144135
0.144273
0.143954
0.144147
0.143787
0.144037
0.143629
0.143938
0.143468
0.143854
0.143304
0.143784
0.143127
0.143739
0.142929
0.143732
0.142715
0.143741
0.142498
0.143757
0.142288
0.143752
0.142097
0.143732
0.141929
0.143693
0.141784
0.143643
0.141667
0.143578
0.141577
0.1435
0.141512
0.143412
0.141475
0.143314
0.141462
0.143204
0.141467
0.143089
0.141491
0.142983
0.14153
0.142882
0.141582
0.142784
0.141637
0.142691
0.141692
0.142606
0.141747
0.142529
0.1418
0.142466
0.141851
0.142406
0.141896
0.142357
0.141939
0.142317
0.141982
0.142289
0.142035
0.142245
0.142127
0.142147
0.142285
0.141982
0.142543
0.14174
0.142771
0.141473
0.142926
0.141216
0.142997
0.141003
0.142983
0.14085
0.142861
0.140772
0.142668
0.140785
0.142414
0.140895
0.142124
0.141093
0.141836
0.141317
0.141637
0.141454
0.14146
0.141529
0.141327
0.141584
0.141251
0.14162
0.141189
0.141642
0.14114
0.141675
0.141116
0.141717
0.141101
0.14178
0.141095
0.141854
0.141071
0.141947
0.141035
0.14206
0.140987
0.142178
0.140934
0.142281
0.140879
0.142383
0.140831
0.142446
0.140793
0.142488
0.140774
0.142495
0.140784
0.142471
0.140833
0.142425
0.140929
0.142359
0.141074
0.142281
0.14127
0.142217
0.141479
0.142193
0.141669
0.142189
0.141827
0.142221
0.141964
0.142258
0.142089
0.142299
0.142184
0.142351
0.142262
0.142387
0.142333
0.142421
0.142385
0.142445
0.142427
0.142468
0.142445
0.142481
0.142459
0.142472
0.142461
0.142464
0.142444
0.142429
0.142416
0.142398
0.14238
0.142355
0.142333
0.142302
0.142275
0.14224
0.14221
0.142178
0.142151
0.142104
0.142069
0.142021
0.141989
0.141946
0.141899
0.141855
0.141813
0.141755
0.141713
0.141661
0.14161
0.14156
0.141501
0.141458
0.141394
0.14134
0.141285
0.141231
0.141167
0.141104
0.141052
0.140993
0.140939
0.14088
0.140822
0.14076
0.140716
0.140662
0.140617
0.140563
0.140535
0.140487
0.140457
0.140425
0.140399
0.140381
0.140359
0.140354
0.140331
0.140333
0.140325
0.140341
0.140332
0.140352
0.140354
0.140382
0.140397
0.140439
0.140453
0.140497
0.140519
0.140568
0.140599
0.140653
0.140691
0.140749
0.140789
0.140847
0.140903
0.140969
0.141029
0.141099
0.141158
0.141224
0.141296
0.141363
0.14143
0.141511
0.141576
0.14165
0.141727
0.141798
0.141869
0.141952
0.142018
0.142092
0.142162
0.142228
0.142303
0.142363
0.142438
0.142492
0.142566
0.142608
0.142677
0.142726
0.142781
0.142832
0.14287
0.142918
0.14296
0.142994
0.143033
0.143064
0.143098
0.143119
0.14315
0.143165
0.14319
0.143201
0.14322
0.143226
0.143241
0.143242
0.143252
0.143252
0.143257
0.143258
0.143258
0.143263
0.143257
0.143258
0.143251
0.143253
0.143246
0.143247
0.14324
0.14324
0.143233
0.143232
0.143225
0.143224
0.143215
0.143213
0.143203
0.143197
0.143186
0.143181
0.143164
0.143154
0.143132
0.143118
0.1431
0.143087
0.14306
0.143035
0.142989
0.142971
0.142929
0.142903
0.142856
0.142825
0.142773
0.142738
0.142684
0.142645
0.14259
0.142552
0.142502
0.142471
0.142409
0.142373
0.142314
0.142279
0.142217
0.142178
0.142134
0.142106
0.142068
0.142047
0.142016
0.142
0.14197
0.141951
0.141938
0.14193
0.141921
0.141918
0.141907
0.1419
0.141906
0.14191
0.141917
0.141927
0.141937
0.141952
0.14196
0.141971
0.141997
0.142024
0.142049
0.142074
0.142103
0.142129
0.142164
0.142196
0.142233
0.142271
0.142313
0.142353
0.142403
0.142445
0.142496
0.142547
0.142599
0.142659
0.14271
0.142772
0.142825
0.14289
0.142944
0.143012
0.143066
0.143134
0.143189
0.143256
0.143312
0.143376
0.143434
0.143493
0.143554
0.143609
0.143672
0.14373
0.143789
0.143851
0.143906
0.143971
0.144029
0.144088
0.144149
0.144203
0.144266
0.14432
0.144377
0.144428
0.144481
0.14453
0.144585
0.144626
0.144673
0.144713
0.144753
0.144791
0.144826
0.144856
0.144887
0.144912
0.144936
0.144958
0.14498
0.144996
0.145017
0.145032
0.145051
0.145067
0.145084
0.145099
0.145119
0.145135
0.145156
0.145178
0.145201
0.14523
0.145259
0.145305
0.145338
0.145406
0.145449
0.145514
0.145604
0.145618
0.145871
0.145646
0.146377
0.145419
0.147438
0.144579
0.149251
0.142778
0.151245
0.13979
0.152707
0.135455
0.15238
0.129837
0.148587
0.123365
0.139107
0.109362
0.111227
0.0565772
-0.0206948
0.127993
0.127208
0.127994
0.127209
0.127994
0.127993
0.127994
0.127994
0.241323
0.225163
)
;

boundaryField
{
    inlet
    {
        type            calculated;
        value           uniform 0;
    }
    endWall
    {
        type            calculated;
        value           uniform 0;
    }
    sideWall
    {
        type            empty;
    }
}


// ************************************************************************* //
