/*--------------------------------*- C++ -*----------------------------------*\
| =========                 |                                                 |
| \\      /  F ield         | foam-extend: Open Source CFD                    |
|  \\    /   O peration     | Version:     3.2                                |
|   \\  /    A nd           | Web:         http://www.foam-extend.org         |
|    \\/     M anipulation  | For copyright notice see file Copyright         |
\*---------------------------------------------------------------------------*/
FoamFile
{
    version     2.0;
    format      ascii;
    class       areaScalarField;
    location    "840";
    object      thetaSS1init;
}
// * * * * * * * * * * * * * * * * * * * * * * * * * * * * * * * * * * * * * //

dimensions      [0 0 0 0 0 0 0];

internalField   nonuniform List<scalar> 
550
(
0.507314
0.687807
0.901792
1.14523
1.41121
1.68962
1.97008
2.24119
2.49394
2.72029
2.91579
3.07755
3.20576
3.30151
3.3675
3.40689
3.42351
3.42106
3.4034
3.37479
3.33762
3.29397
3.2456
3.19407
3.14073
3.08674
3.03305
2.98062
2.93002
2.8813
2.83451
2.78982
2.74732
2.70706
2.66903
2.6332
2.59952
2.56791
2.5383
2.51058
2.48466
2.46045
2.43784
2.41672
2.39699
2.37856
2.36133
2.34524
2.3302
2.31614
2.30297
2.29064
2.27906
2.26818
2.25794
2.24828
2.23914
2.23051
2.22232
2.21455
2.20716
2.20012
2.19341
2.187
2.18086
2.17497
2.16932
2.16387
2.15861
2.15352
2.1486
2.14384
2.13921
2.13472
2.13036
2.12612
2.12199
2.11795
2.114
2.11014
2.10636
2.10265
2.099
2.09541
2.09186
2.08834
2.08486
2.08141
2.078
2.07461
2.07124
2.06789
2.06457
2.06128
2.05802
2.05479
2.05159
2.04842
2.04528
2.04217
2.03906
2.03594
2.03283
2.0297
2.02654
2.02337
2.02017
2.01694
2.01368
2.0104
2.00708
2.00374
2.00037
1.99696
1.99352
1.99005
1.98655
1.98303
1.97949
1.97593
1.97235
1.96876
1.96516
1.96154
1.95792
1.95429
1.95065
1.94701
1.94336
1.93971
1.93607
1.93243
1.9288
1.92517
1.92156
1.91796
1.91438
1.91081
1.90727
1.90375
1.90026
1.89679
1.89336
1.88995
1.88658
1.88324
1.87993
1.87666
1.87343
1.87024
1.86709
1.86397
1.8609
1.85788
1.85489
1.85195
1.84906
1.84622
1.84342
1.84067
1.83797
1.83533
1.83273
1.83019
1.8277
1.82526
1.82288
1.82055
1.81827
1.81604
1.81387
1.81175
1.80969
1.80767
1.80569
1.80376
1.80187
1.80002
1.79821
1.79644
1.7947
1.793
1.79133
1.78969
1.78808
1.78651
1.78496
1.78344
1.78195
1.78048
1.77905
1.77763
1.77625
1.77488
1.77354
1.77222
1.77092
1.76965
1.76839
1.76715
1.76593
1.76473
1.76355
1.76238
1.76122
1.76007
1.75893
1.75778
1.75662
1.75544
1.75424
1.75303
1.7518
1.75055
1.74929
1.74801
1.74672
1.74542
1.74412
1.7428
1.74148
1.74016
1.73883
1.7375
1.73617
1.73485
1.73354
1.73223
1.73093
1.72964
1.72837
1.72711
1.72587
1.72465
1.72345
1.72227
1.7211
1.71996
1.71884
1.71774
1.71666
1.7156
1.71457
1.71355
1.71256
1.71159
1.71063
1.7097
1.70879
1.70789
1.70702
1.70617
1.70534
1.70453
1.70373
1.70296
1.7022
1.70147
1.70074
1.70004
1.69936
1.69869
1.69804
1.69741
1.6968
1.69621
1.69564
1.69509
1.69457
1.69407
1.69359
1.69314
1.69272
1.69232
1.69195
1.69161
1.6913
1.691
1.69073
1.69048
1.69025
1.69003
1.68981
1.6896
1.68938
1.68916
1.68892
1.68867
1.6884
1.6881
1.68778
1.68742
1.68704
1.68662
1.68617
1.68569
1.68518
1.68464
1.68407
1.68349
1.68288
1.68225
1.6816
1.68094
1.68026
1.67957
1.67886
1.67815
1.67742
1.67667
1.67592
1.67515
1.67437
1.67357
1.67276
1.67193
1.67109
1.67023
1.66936
1.66848
1.66758
1.66666
1.66573
1.66479
1.66384
1.66288
1.66191
1.66093
1.65995
1.65895
1.65795
1.65694
1.65592
1.6549
1.65387
1.65282
1.65177
1.6507
1.64962
1.64852
1.64741
1.64628
1.64514
1.64399
1.64281
1.64163
1.64043
1.63921
1.63798
1.63674
1.63549
1.63423
1.63297
1.6317
1.63044
1.62918
1.62793
1.62669
1.62546
1.62424
1.62303
1.62184
1.62066
1.61949
1.61834
1.6172
1.61606
1.61493
1.6138
1.61267
1.61153
1.61039
1.60924
1.60809
1.60693
1.60576
1.60458
1.60339
1.6022
1.601
1.5998
1.59859
1.5974
1.5962
1.59502
1.59384
1.59268
1.59153
1.5904
1.58928
1.58819
1.58712
1.58607
1.58505
1.58406
1.58308
1.58214
1.58121
1.58031
1.57943
1.57857
1.57772
1.5769
1.57608
1.57527
1.57447
1.57367
1.57287
1.57207
1.57125
1.57043
1.56959
1.56873
1.56786
1.56696
1.56605
1.56511
1.56415
1.56318
1.56218
1.56118
1.56017
1.55915
1.55813
1.5571
1.55608
1.55506
1.55404
1.55303
1.55202
1.55102
1.55001
1.54901
1.548
1.54699
1.54597
1.54494
1.5439
1.54285
1.54178
1.5407
1.53959
1.53847
1.53733
1.53618
1.53501
1.53382
1.53261
1.53139
1.53015
1.5289
1.52763
1.52635
1.52505
1.52375
1.52243
1.52111
1.51978
1.51844
1.5171
1.51576
1.51441
1.51307
1.51172
1.51037
1.50901
1.50765
1.50628
1.50489
1.5035
1.50209
1.50066
1.49921
1.49775
1.49627
1.49478
1.49327
1.49176
1.49024
1.48871
1.48719
1.48568
1.48418
1.4827
1.48123
1.47978
1.47835
1.47694
1.47555
1.47419
1.47285
1.47153
1.47023
1.46896
1.4677
1.46646
1.46523
1.464
1.46278
1.46156
1.46034
1.45911
1.45788
1.45665
1.45541
1.45418
1.45294
1.4517
1.45045
1.44921
1.44796
1.4467
1.44544
1.44417
1.44289
1.44161
1.44032
1.43903
1.43772
1.43642
1.43511
1.43381
1.43249
1.43118
1.42984
1.4285
1.42711
1.4257
1.42416
1.42257
1.42069
1.41863
1.41594
1.41279
1.40827
1.40265
1.39415
1.38308
1.36596
1.34288
1.30731
1.258
1.18384
1.08314
0.944608
0.761538
0.484114
0.229953
0.256928
0.453204
)
;

boundaryField
{
    inlet
    {
        type            calculated;
        value           uniform 0;
    }
    endWall
    {
        type            calculated;
        value           uniform 0;
    }
    sideWall
    {
        type            empty;
    }
}


// ************************************************************************* //
