/*--------------------------------*- C++ -*----------------------------------*\
| =========                 |                                                 |
| \\      /  F ield         | foam-extend: Open Source CFD                    |
|  \\    /   O peration     | Version:     3.2                                |
|   \\  /    A nd           | Web:         http://www.foam-extend.org         |
|    \\/     M anipulation  | For copyright notice see file Copyright         |
\*---------------------------------------------------------------------------*/
FoamFile
{
    version     2.0;
    format      ascii;
    class       areaScalarField;
    location    "840";
    object      thetaB;
}
// * * * * * * * * * * * * * * * * * * * * * * * * * * * * * * * * * * * * * //

dimensions      [0 0 0 0 0 0 0];

internalField   nonuniform List<scalar> 
550
(
0.0151682
0.0205834
0.027006
0.0343348
0.0423588
0.0507748
0.0592697
0.0674933
0.0751259
0.0821772
0.087874
0.0929895
0.0967384
0.0996365
0.101102
0.101952
0.101742
0.101417
0.099675
0.0982289
0.097136
0.0960881
0.0946926
0.0931443
0.0912884
0.0895823
0.088845
0.0875957
0.0865783
0.0851187
0.0840731
0.0831963
0.0827149
0.0826786
0.0828445
0.0829767
0.0830018
0.0829892
0.083021
0.0829785
0.0829454
0.0828403
0.0827325
0.082642
0.0826197
0.0826486
0.0826939
0.0827484
0.0827876
0.0828361
0.0828801
0.0829394
0.0829975
0.0830675
0.0831369
0.083214
0.0832902
0.0833706
0.0834525
0.0835373
0.083619
0.0837011
0.0837767
0.0838489
0.0839153
0.0839723
0.0840232
0.0840648
0.0840985
0.0841183
0.0841296
0.0841245
0.0841087
0.0840748
0.0840344
0.0839761
0.0839179
0.0838428
0.0837759
0.0836935
0.0836247
0.0835395
0.0834707
0.0833853
0.0833166
0.0832308
0.0831646
0.0830804
0.083019
0.0829406
0.0828863
0.0828153
0.0827665
0.0827016
0.0826605
0.0825989
0.0825633
0.0825019
0.082472
0.0824071
0.0823842
0.082322
0.0823072
0.0822524
0.0822449
0.0821996
0.0821952
0.0821589
0.0821528
0.0821215
0.0821095
0.0820796
0.0820616
0.0820325
0.082007
0.0819782
0.0819455
0.081917
0.0818783
0.081851
0.0818053
0.0817771
0.0817247
0.0816948
0.0816368
0.0816056
0.0815451
0.0815124
0.081451
0.0814188
0.0813565
0.0813239
0.0812625
0.0812297
0.0811717
0.081141
0.0810857
0.0810567
0.0810058
0.0809779
0.0809305
0.0809037
0.0808611
0.0808377
0.0807986
0.0807792
0.0807431
0.0807354
0.0807003
0.0807085
0.0806685
0.0806966
0.0806509
0.0806967
0.0806596
0.0807113
0.0806874
0.0807325
0.0807167
0.0807465
0.0807396
0.0807454
0.0807412
0.0807155
0.0807122
0.0806572
0.0806516
0.0805699
0.0805615
0.0804589
0.0804423
0.0803349
0.0803113
0.0802233
0.0801925
0.0801164
0.0800836
0.0800187
0.0799897
0.0799366
0.0799055
0.079861
0.0798308
0.0797921
0.0797672
0.0797345
0.0797167
0.0796895
0.0796814
0.0796604
0.0796609
0.0796451
0.0796547
0.0796446
0.0796615
0.0796538
0.0796768
0.0796737
0.0796962
0.0796975
0.0797184
0.0797217
0.0797339
0.0797397
0.0797423
0.0797464
0.0797379
0.0797416
0.079721
0.0797244
0.079692
0.0796949
0.0796523
0.0796534
0.0796041
0.0796057
0.0795558
0.0795553
0.0795149
0.0795129
0.0794816
0.079481
0.0794604
0.0794601
0.0794456
0.079448
0.0794373
0.0794394
0.0794335
0.0794343
0.0794299
0.0794316
0.079428
0.0794284
0.079425
0.0794249
0.0794214
0.0794178
0.0794143
0.0794086
0.0794017
0.0793943
0.0793853
0.0793739
0.0793608
0.0793475
0.0793326
0.0793167
0.0792992
0.0792806
0.0792607
0.0792397
0.0792177
0.0791947
0.0791721
0.0791485
0.0791231
0.0790965
0.079069
0.079042
0.0790134
0.0789823
0.0789512
0.0789181
0.0788826
0.0788465
0.0788086
0.078769
0.0787278
0.078685
0.0786417
0.0785959
0.0785489
0.0785022
0.0784545
0.0784057
0.0783568
0.0783097
0.0782634
0.0782182
0.0781741
0.0781302
0.078088
0.0780487
0.0780115
0.0779754
0.0779416
0.0779109
0.0778814
0.0778535
0.077828
0.0778039
0.0777818
0.077761
0.0777417
0.0777224
0.0777045
0.0776885
0.0776734
0.0776584
0.0776442
0.077631
0.077619
0.0776092
0.0776006
0.0775923
0.0775851
0.0775791
0.0775743
0.077571
0.0775689
0.0775685
0.0775691
0.0775705
0.0775729
0.0775783
0.0775849
0.0775934
0.0776034
0.0776144
0.0776269
0.0776418
0.077657
0.0776739
0.0776924
0.07771
0.0777288
0.0777481
0.0777661
0.0777847
0.0778036
0.0778209
0.077838
0.0778543
0.0778699
0.0778852
0.0778996
0.0779135
0.0779264
0.0779386
0.0779486
0.0779592
0.0779689
0.0779779
0.0779863
0.0779928
0.0779996
0.0780052
0.0780093
0.0780137
0.0780167
0.0780188
0.0780212
0.0780223
0.0780224
0.0780212
0.0780187
0.0780149
0.0780095
0.0780027
0.0779944
0.0779847
0.0779739
0.0779619
0.07795
0.0779379
0.0779245
0.0779115
0.0778984
0.077886
0.0778738
0.0778623
0.0778511
0.0778406
0.0778305
0.077821
0.077812
0.0778036
0.0777955
0.0777879
0.0777804
0.077773
0.0777655
0.0777577
0.077751
0.0777415
0.0777322
0.0777221
0.0777113
0.0777017
0.0776915
0.07768
0.0776662
0.0776506
0.0776358
0.0776191
0.0776015
0.0775818
0.0775611
0.0775388
0.0775158
0.0774917
0.0774672
0.0774424
0.0774178
0.0773944
0.0773716
0.0773476
0.077324
0.0773002
0.0772766
0.0772521
0.0772275
0.0772048
0.0771826
0.0771615
0.0771412
0.0771217
0.0771031
0.077084
0.0770655
0.0770491
0.0770336
0.0770189
0.0770052
0.0769909
0.0769768
0.0769651
0.0769545
0.0769447
0.0769357
0.0769274
0.07692
0.0769122
0.076905
0.0768999
0.0768969
0.0768954
0.0768939
0.076896
0.0769004
0.0769053
0.0769129
0.0769227
0.076933
0.0769457
0.0769603
0.0769754
0.0769922
0.0770103
0.0770307
0.077053
0.0770757
0.0771002
0.0771259
0.0771533
0.0771821
0.0772123
0.0772437
0.0772764
0.0773102
0.077345
0.0773806
0.077417
0.077454
0.0774916
0.0775288
0.077566
0.0776044
0.0776421
0.0776798
0.0777161
0.0777516
0.0777876
0.0778224
0.0778567
0.0778889
0.0779199
0.0779514
0.0779811
0.0780098
0.0780364
0.0780605
0.0780855
0.0781094
0.0781294
0.0781483
0.0781643
0.0781788
0.0781918
0.0782008
0.0782092
0.078216
0.0782196
0.0782231
0.0782258
0.0782256
0.0782261
0.0782263
0.0782242
0.0782227
0.0782221
0.0782192
0.0782172
0.0782168
0.0782144
0.0782133
0.0782143
0.0782139
0.0782169
0.0782225
0.0782279
0.0782384
0.0782535
0.0782698
0.0782986
0.0783152
0.0783656
0.0783765
0.0784691
0.0784525
0.0786259
0.0785489
0.0788495
0.0786943
0.0791483
0.0789473
0.0794822
0.0792324
0.0796634
0.079362
0.079376
0.0790138
0.0782128
0.0776669
0.0756974
0.0743876
0.0682196
0.060481
0.032269
0.0172969
0.0191498
0.0196847
0.0171809
0.0146463
0.0125945
0.00998418
0.0108499
0.0144835
0.023837
)
;

boundaryField
{
    inlet
    {
        type            calculated;
        value           uniform 0;
    }
    endWall
    {
        type            calculated;
        value           uniform 0;
    }
    sideWall
    {
        type            empty;
    }
}


// ************************************************************************* //
