/*--------------------------------*- C++ -*----------------------------------*\
| =========                 |                                                 |
| \\      /  F ield         | foam-extend: Open Source CFD                    |
|  \\    /   O peration     | Version:     3.2                                |
|   \\  /    A nd           | Web:         http://www.foam-extend.org         |
|    \\/     M anipulation  | For copyright notice see file Copyright         |
\*---------------------------------------------------------------------------*/
FoamFile
{
    version     2.0;
    format      ascii;
    class       areaScalarField;
    location    "840";
    object      thetaSS1;
}
// * * * * * * * * * * * * * * * * * * * * * * * * * * * * * * * * * * * * * //

dimensions      [0 0 0 0 0 0 0];

internalField   nonuniform List<scalar> 
550
(
0.507324
0.688443
0.903258
1.14838
1.41676
1.69824
1.98237
2.25742
2.5127
2.74854
2.93908
3.11018
3.23556
3.33249
3.3815
3.40995
3.40293
3.39206
3.33378
3.28541
3.24886
3.21381
3.16714
3.11535
3.05328
2.99621
2.97155
2.92977
2.89574
2.84692
2.81195
2.78263
2.76652
2.76531
2.77086
2.77528
2.77612
2.7757
2.77676
2.77534
2.77424
2.77072
2.76711
2.76409
2.76334
2.76431
2.76582
2.76765
2.76896
2.77058
2.77205
2.77403
2.77598
2.77832
2.78064
2.78322
2.78577
2.78846
2.7912
2.79403
2.79676
2.79951
2.80204
2.80445
2.80667
2.80858
2.81028
2.81167
2.8128
2.81346
2.81384
2.81367
2.81314
2.81201
2.81066
2.80871
2.80676
2.80425
2.80201
2.79926
2.79695
2.7941
2.7918
2.78895
2.78665
2.78378
2.78157
2.77875
2.7767
2.77407
2.77226
2.76988
2.76825
2.76608
2.76471
2.76264
2.76145
2.7594
2.7584
2.75623
2.75546
2.75338
2.75289
2.75106
2.7508
2.74929
2.74914
2.74793
2.74773
2.74668
2.74628
2.74528
2.74467
2.7437
2.74285
2.74189
2.74079
2.73984
2.73855
2.73763
2.7361
2.73516
2.7334
2.73241
2.73046
2.72942
2.7274
2.72631
2.72425
2.72317
2.72109
2.72
2.71795
2.71685
2.71491
2.71388
2.71204
2.71106
2.70936
2.70843
2.70684
2.70595
2.70452
2.70374
2.70243
2.70178
2.70058
2.70032
2.69914
2.69942
2.69808
2.69902
2.69749
2.69902
2.69778
2.69951
2.69871
2.70022
2.69969
2.70069
2.70046
2.70065
2.70051
2.69965
2.69954
2.6977
2.69751
2.69478
2.6945
2.69107
2.69052
2.68692
2.68613
2.68319
2.68216
2.67961
2.67852
2.67635
2.67537
2.6736
2.67256
2.67107
2.67006
2.66877
2.66793
2.66684
2.66625
2.66534
2.66507
2.66436
2.66438
2.66385
2.66417
2.66383
2.6644
2.66414
2.66491
2.66481
2.66556
2.6656
2.6663
2.66641
2.66682
2.66701
2.6671
2.66724
2.66695
2.66708
2.66639
2.6665
2.66542
2.66552
2.66409
2.66413
2.66248
2.66253
2.66087
2.66085
2.6595
2.65943
2.65838
2.65836
2.65767
2.65766
2.65718
2.65726
2.6569
2.65697
2.65677
2.6568
2.65665
2.65671
2.65659
2.6566
2.65649
2.65649
2.65637
2.65625
2.65613
2.65594
2.65571
2.65546
2.65516
2.65478
2.65434
2.6539
2.6534
2.65287
2.65228
2.65166
2.65099
2.65029
2.64955
2.64879
2.64803
2.64724
2.64639
2.6455
2.64458
2.64368
2.64272
2.64168
2.64064
2.63954
2.63835
2.63714
2.63587
2.63455
2.63317
2.63174
2.63029
2.62876
2.62719
2.62562
2.62403
2.6224
2.62076
2.61919
2.61764
2.61613
2.61465
2.61318
2.61177
2.61046
2.60921
2.608
2.60688
2.60585
2.60486
2.60393
2.60307
2.60227
2.60153
2.60083
2.60019
2.59954
2.59895
2.59841
2.59791
2.5974
2.59693
2.59649
2.59608
2.59576
2.59547
2.59519
2.59495
2.59475
2.59459
2.59448
2.59441
2.5944
2.59442
2.59446
2.59454
2.59472
2.59495
2.59523
2.59556
2.59593
2.59635
2.59685
2.59735
2.59792
2.59854
2.59913
2.59976
2.6004
2.60101
2.60163
2.60226
2.60284
2.60341
2.60395
2.60448
2.60499
2.60547
2.60593
2.60637
2.60678
2.60711
2.60746
2.60779
2.60809
2.60837
2.60859
2.60881
2.609
2.60914
2.60929
2.60938
2.60946
2.60954
2.60958
2.60958
2.60954
2.60945
2.60933
2.60915
2.60892
2.60864
2.60831
2.60795
2.60755
2.60716
2.60675
2.6063
2.60587
2.60543
2.60502
2.60461
2.60422
2.60385
2.6035
2.60316
2.60284
2.60254
2.60226
2.60199
2.60173
2.60148
2.60124
2.60098
2.60072
2.6005
2.60018
2.59987
2.59953
2.59917
2.59885
2.59851
2.59813
2.59766
2.59714
2.59665
2.59609
2.5955
2.59484
2.59415
2.5934
2.59263
2.59183
2.59101
2.59018
2.58935
2.58857
2.58781
2.58701
2.58622
2.58542
2.58463
2.58381
2.58299
2.58223
2.58149
2.58078
2.5801
2.57945
2.57883
2.57819
2.57757
2.57703
2.5765
2.57601
2.57556
2.57508
2.57461
2.57422
2.57386
2.57353
2.57323
2.57295
2.57271
2.57244
2.5722
2.57203
2.57193
2.57188
2.57183
2.5719
2.57205
2.57221
2.57247
2.5728
2.57314
2.57356
2.57405
2.57456
2.57512
2.57573
2.57641
2.57715
2.57791
2.57873
2.57959
2.58051
2.58147
2.58248
2.58353
2.58463
2.58576
2.58692
2.58811
2.58933
2.59057
2.59182
2.59307
2.59431
2.59559
2.59686
2.59812
2.59933
2.60052
2.60172
2.60289
2.60404
2.60511
2.60615
2.6072
2.6082
2.60916
2.61005
2.61085
2.61169
2.61249
2.61316
2.61379
2.61432
2.61481
2.61524
2.61555
2.61583
2.61605
2.61617
2.61629
2.61638
2.61637
2.61639
2.6164
2.61633
2.61627
2.61626
2.61616
2.61609
2.61608
2.616
2.61596
2.61599
2.61598
2.61608
2.61627
2.61645
2.6168
2.61731
2.61785
2.61881
2.61937
2.62106
2.62142
2.62452
2.62396
2.62976
2.62719
2.63724
2.63205
2.64723
2.64051
2.6584
2.65005
2.66446
2.65438
2.65485
2.64274
2.61595
2.59769
2.53181
2.48801
2.28171
2.02288
1.07929
0.578521
0.640493
0.658385
0.57464
0.489867
0.421243
0.333936
0.362891
0.484423
0.797264
)
;

boundaryField
{
    inlet
    {
        type            calculated;
        value           uniform 0;
    }
    endWall
    {
        type            calculated;
        value           uniform 0;
    }
    sideWall
    {
        type            empty;
    }
}


// ************************************************************************* //
