/*--------------------------------*- C++ -*----------------------------------*\
| =========                 |                                                 |
| \\      /  F ield         | foam-extend: Open Source CFD                    |
|  \\    /   O peration     | Version:     3.2                                |
|   \\  /    A nd           | Web:         http://www.foam-extend.org         |
|    \\/     M anipulation  | For copyright notice see file Copyright         |
\*---------------------------------------------------------------------------*/
FoamFile
{
    version     2.0;
    format      ascii;
    class       areaScalarField;
    location    "840";
    object      thetaC2SS2;
}
// * * * * * * * * * * * * * * * * * * * * * * * * * * * * * * * * * * * * * //

dimensions      [0 0 0 0 0 0 0];

internalField   nonuniform List<scalar> 
550
(
0.127601
0.127719
0.127601
0.127601
0.127601
0.127601
0.128397
0.127601
0.127601
0.128926
0.127601
0.127601
0.233556
0.256988
0.128132
0.127716
0.127601
0.127601
0.127601
0.127601
0.247657
0.215978
0.227117
0.186884
0.127601
0.127601
0.127601
0.127601
0.1629
0.151998
0.13655
0.127601
0.127498
0.128327
0.130028
0.131683
0.133024
0.133137
0.133931
0.134312
0.134705
0.134816
0.134721
0.134462
0.134571
0.134941
0.135411
0.13586
0.136275
0.136669
0.137065
0.137464
0.137854
0.138237
0.138604
0.138975
0.139333
0.139682
0.140043
0.140418
0.140795
0.141168
0.141542
0.141915
0.142278
0.142625
0.142946
0.14324
0.143492
0.143704
0.143867
0.14399
0.144072
0.144122
0.144148
0.144156
0.144144
0.144116
0.144083
0.144038
0.143992
0.143939
0.143881
0.143818
0.143761
0.143697
0.14364
0.143585
0.143529
0.143473
0.143417
0.14337
0.143311
0.14326
0.143208
0.143153
0.143095
0.143035
0.142982
0.142918
0.142864
0.142802
0.142751
0.142694
0.14265
0.142599
0.14255
0.142515
0.142473
0.142442
0.142405
0.142369
0.142345
0.142314
0.142296
0.142268
0.142253
0.142228
0.142215
0.142203
0.142191
0.14218
0.142169
0.142158
0.142146
0.142134
0.142135
0.142122
0.142121
0.14212
0.142117
0.142113
0.142107
0.142101
0.142091
0.142095
0.142081
0.142081
0.142078
0.142074
0.142066
0.142058
0.142046
0.142049
0.142033
0.142031
0.142012
0.142007
0.142
0.141991
0.141981
0.14197
0.141974
0.14196
0.141963
0.141947
0.141947
0.141945
0.141926
0.141922
0.141917
0.141927
0.141918
0.141907
0.141894
0.141897
0.141879
0.141878
0.141874
0.141868
0.14186
0.141831
0.141818
0.141822
0.141806
0.141789
0.141772
0.141753
0.141735
0.141734
0.141716
0.141717
0.1417
0.141685
0.141689
0.141675
0.141682
0.141672
0.141682
0.141694
0.141688
0.141703
0.1417
0.141718
0.141736
0.141737
0.141757
0.141777
0.14178
0.141802
0.141823
0.141844
0.141846
0.141867
0.141889
0.141892
0.141913
0.141919
0.141944
0.141954
0.141986
0.142001
0.142038
0.142059
0.142081
0.142125
0.142152
0.142181
0.142228
0.142259
0.142291
0.142322
0.142373
0.142405
0.142436
0.142485
0.142513
0.14254
0.142585
0.142608
0.142629
0.142666
0.142681
0.142713
0.142722
0.142746
0.142769
0.142767
0.142782
0.142793
0.142782
0.142786
0.142787
0.142784
0.142759
0.14275
0.142739
0.142724
0.142706
0.142686
0.142663
0.142637
0.142609
0.142578
0.142547
0.142531
0.142496
0.142457
0.142419
0.142378
0.142354
0.142311
0.142266
0.142238
0.14219
0.14214
0.142108
0.142055
0.142019
0.141962
0.141924
0.141883
0.141821
0.141778
0.141733
0.141687
0.14162
0.141573
0.141524
0.141475
0.141426
0.141377
0.141312
0.141265
0.141222
0.14118
0.141123
0.141087
0.141055
0.141009
0.140985
0.140949
0.140934
0.140907
0.140902
0.140884
0.140871
0.140862
0.140875
0.140874
0.140878
0.140885
0.140896
0.14091
0.140946
0.140967
0.140991
0.141018
0.141048
0.141081
0.141116
0.141154
0.141195
0.141238
0.141265
0.141313
0.141362
0.141414
0.141467
0.141521
0.14156
0.141619
0.141678
0.141721
0.141782
0.141844
0.141889
0.141953
0.142017
0.142064
0.142129
0.142194
0.142242
0.142308
0.142355
0.14242
0.142466
0.14253
0.142575
0.142637
0.142679
0.14272
0.142776
0.142812
0.142866
0.142897
0.142927
0.142973
0.142999
0.143021
0.14306
0.143078
0.143093
0.143126
0.143137
0.143165
0.143171
0.143194
0.143196
0.143215
0.143213
0.143228
0.143222
0.143234
0.143224
0.143233
0.143241
0.143228
0.143235
0.143221
0.143228
0.143215
0.143222
0.143208
0.143215
0.143202
0.143209
0.143196
0.143203
0.14319
0.143196
0.143182
0.143186
0.143169
0.14317
0.14317
0.143147
0.143143
0.143114
0.143106
0.143095
0.143081
0.143064
0.143022
0.142999
0.142974
0.142946
0.142915
0.142881
0.142845
0.142807
0.142767
0.142724
0.14268
0.142635
0.142589
0.142565
0.142518
0.142471
0.142425
0.14238
0.142337
0.142274
0.142234
0.142199
0.142165
0.142135
0.142109
0.142085
0.142066
0.142027
0.142012
0.142
0.141991
0.141984
0.141979
0.141955
0.141955
0.141955
0.141958
0.141962
0.141969
0.141976
0.141986
0.141976
0.14199
0.142006
0.142024
0.142045
0.142047
0.142073
0.142103
0.142115
0.142151
0.142189
0.14221
0.142254
0.142302
0.142331
0.142384
0.142419
0.142477
0.142538
0.142581
0.142646
0.142693
0.142762
0.142812
0.142884
0.142935
0.143007
0.143059
0.143131
0.143182
0.143254
0.143305
0.143376
0.143426
0.143476
0.143548
0.143598
0.143671
0.143722
0.143774
0.143848
0.1439
0.143976
0.144028
0.14408
0.144156
0.144206
0.144279
0.144327
0.144372
0.14444
0.144506
0.144545
0.144606
0.14464
0.144695
0.144747
0.144772
0.144818
0.14486
0.144874
0.144909
0.144942
0.144948
0.144976
0.145002
0.145001
0.145025
0.145047
0.145042
0.145062
0.14508
0.145071
0.145087
0.145102
0.14509
0.145104
0.14512
0.145108
0.145125
0.145142
0.145133
0.145152
0.145143
0.145162
0.14518
0.14517
0.145185
0.1452
0.145185
0.145197
0.14518
0.14519
0.145174
0.145162
0.145157
0.145131
0.145114
0.145071
0.145116
0.145101
0.145438
0.145968
0.148032
0.156788
0.1277
0.127601
0.127601
0.127601
0.127601
0.127601
0.127601
0.127601
0.127601
0.240584
0.224472
)
;

boundaryField
{
    inlet
    {
        type            calculated;
        value           uniform 0;
    }
    endWall
    {
        type            calculated;
        value           uniform 0;
    }
    sideWall
    {
        type            empty;
    }
}


// ************************************************************************* //
