/*--------------------------------*- C++ -*----------------------------------*\
| =========                 |                                                 |
| \\      /  F ield         | foam-extend: Open Source CFD                    |
|  \\    /   O peration     | Version:     3.2                                |
|   \\  /    A nd           | Web:         http://www.foam-extend.org         |
|    \\/     M anipulation  | For copyright notice see file Copyright         |
\*---------------------------------------------------------------------------*/
FoamFile
{
    version     2.0;
    format      ascii;
    class       areaScalarField;
    location    "840";
    object      thetaHMaxSS2;
}
// * * * * * * * * * * * * * * * * * * * * * * * * * * * * * * * * * * * * * //

dimensions      [0 0 0 0 0 0 0];

internalField   nonuniform List<scalar> 
550
(
0
0
0
0
0
0
0
0
0
0
0
0
0
0
0
0
0
0
0
0
0
0
0
0
0
0
0
0
0
0
2.83469
2.78038
2.74511
2.72245
2.71979
2.71743
2.71
2.67932
2.66421
2.64262
2.62298
2.59958
2.57386
2.54666
2.52792
2.51538
2.50586
2.49704
2.4886
2.48074
2.47379
2.46769
2.46218
2.45723
2.45264
2.44868
2.44502
2.44169
2.43902
2.43699
2.43537
2.43405
2.43306
2.43233
2.4317
2.43105
2.4302
2.42907
2.42744
2.42529
2.42249
2.4192
2.41535
2.41112
2.40662
2.40196
2.39709
2.39207
2.38706
2.38196
2.37694
2.37188
2.3668
2.36172
2.35679
2.35176
2.34693
2.34214
2.33739
2.33267
2.32797
2.32344
2.31876
2.31424
2.30973
2.30522
2.3007
2.29618
2.29182
2.28731
2.28296
2.27848
2.27419
2.26977
2.26555
2.26119
2.25685
2.25268
2.24837
2.24423
2.23993
2.23564
2.23151
2.22722
2.22309
2.21879
2.21466
2.21034
2.20619
2.20204
2.19788
2.1937
2.18952
2.18531
2.1811
2.17688
2.17283
2.16858
2.1645
2.16042
2.15632
2.1522
2.14808
2.14393
2.13977
2.13581
2.13163
2.12765
2.12366
2.11967
2.11568
2.11169
2.10769
2.10394
2.09996
2.09621
2.09225
2.08853
2.08483
2.08115
2.0775
2.07387
2.07052
2.06695
2.06366
2.06016
2.05694
2.05376
2.05036
2.04725
2.04417
2.04138
2.03837
2.03538
2.03243
2.02976
2.02686
2.02424
2.02165
2.01909
2.01656
2.0138
2.01132
2.00913
2.00671
2.00433
2.00197
1.99966
1.99739
1.99542
1.99323
1.99135
1.98926
1.98722
1.98549
1.98356
1.98194
1.98011
1.97859
1.97713
1.97545
1.97409
1.97251
1.97124
1.97
1.96855
1.96739
1.96626
1.96489
1.96381
1.96275
1.96171
1.96043
1.95942
1.95843
1.95719
1.95622
1.95501
1.95408
1.9529
1.952
1.95086
1.95
1.94889
1.9478
1.94698
1.94591
1.94485
1.94405
1.94301
1.94196
1.94092
1.94013
1.93908
1.93802
1.93721
1.93613
1.93503
1.93418
1.93306
1.93192
1.93102
1.92984
1.9289
1.92768
1.92669
1.92568
1.92439
1.92333
1.92225
1.92089
1.91977
1.91862
1.91745
1.916
1.91479
1.91356
1.91232
1.91107
1.90979
1.90851
1.90722
1.90591
1.9046
1.90328
1.90222
1.9009
1.89957
1.89824
1.89691
1.89584
1.89452
1.89319
1.89212
1.8908
1.88947
1.88841
1.8871
1.88604
1.88473
1.88369
1.88265
1.88136
1.88034
1.87934
1.87834
1.87712
1.87616
1.87521
1.87429
1.87338
1.87249
1.87138
1.87053
1.86971
1.86891
1.8679
1.86714
1.86643
1.86549
1.86481
1.86393
1.86332
1.8625
1.86194
1.86117
1.86043
1.85972
1.85926
1.85861
1.85798
1.85738
1.85681
1.85627
1.85598
1.8555
1.85504
1.8546
1.85419
1.8538
1.85343
1.85308
1.85275
1.85242
1.85189
1.85159
1.85131
1.85103
1.85076
1.8505
1.85001
1.84975
1.8495
1.84901
1.84875
1.8485
1.84801
1.84775
1.84748
1.84698
1.84672
1.84644
1.84593
1.84564
1.8451
1.84477
1.8442
1.84383
1.8432
1.84277
1.84208
1.84134
1.84079
1.83997
1.83934
1.83842
1.83746
1.83669
1.83564
1.83453
1.83363
1.83245
1.83123
1.83022
1.82895
1.82789
1.82657
1.82547
1.82411
1.82299
1.82161
1.82047
1.81906
1.8179
1.81648
1.81531
1.81414
1.8127
1.81152
1.81008
1.8089
1.80744
1.80624
1.80478
1.80356
1.80208
1.80085
1.79935
1.79811
1.79659
1.79533
1.79379
1.7925
1.79094
1.78963
1.78831
1.78672
1.78538
1.78375
1.7824
1.78103
1.77966
1.77828
1.77661
1.77521
1.77381
1.7724
1.77098
1.76955
1.76812
1.76669
1.76524
1.76379
1.76233
1.76087
1.75941
1.75821
1.75674
1.75527
1.75379
1.75232
1.75085
1.74912
1.74766
1.74622
1.74479
1.74338
1.74199
1.74062
1.73927
1.73767
1.73637
1.73509
1.73384
1.73262
1.73142
1.72999
1.72885
1.72774
1.72665
1.72559
1.72454
1.72352
1.72252
1.72127
1.7203
1.71935
1.71841
1.71749
1.71633
1.71544
1.71457
1.71347
1.71263
1.71181
1.71075
1.70996
1.70918
1.70817
1.70742
1.70644
1.70573
1.70502
1.70409
1.70341
1.7025
1.70184
1.70095
1.70031
1.69941
1.69877
1.69787
1.69723
1.69632
1.69565
1.69472
1.69404
1.69309
1.69212
1.6914
1.6904
1.68965
1.68862
1.68758
1.68679
1.68572
1.6849
1.68381
1.6827
1.68185
1.68073
1.67987
1.67873
1.67758
1.6767
1.67583
1.67466
1.67377
1.67259
1.67168
1.67076
1.66955
1.66861
1.66765
1.66638
1.66538
1.66436
1.66302
1.66196
1.66088
1.65948
1.65836
1.65721
1.65576
1.65457
1.65338
1.65186
1.65063
1.64939
1.64784
1.64658
1.64532
1.64376
1.6425
1.64124
1.63969
1.63842
1.63686
1.63559
1.63431
1.6327
1.6314
1.63006
1.6284
1.62701
1.6253
1.62383
1.62205
1.62016
1.6183
1.61587
1.61333
1.6098
1.60671
1.60141
1.59872
1.59483
1.60453
1.67841
1.76416
0
0
0
0
0
0
0
0
0
0
)
;

boundaryField
{
    inlet
    {
        type            calculated;
        value           uniform 0;
    }
    endWall
    {
        type            calculated;
        value           uniform 0;
    }
    sideWall
    {
        type            empty;
    }
}


// ************************************************************************* //
