/*--------------------------------*- C++ -*----------------------------------*\
| =========                 |                                                 |
| \\      /  F ield         | foam-extend: Open Source CFD                    |
|  \\    /   O peration     | Version:     3.2                                |
|   \\  /    A nd           | Web:         http://www.foam-extend.org         |
|    \\/     M anipulation  | For copyright notice see file Copyright         |
\*---------------------------------------------------------------------------*/
FoamFile
{
    version     2.0;
    format      ascii;
    class       areaScalarField;
    location    "840";
    object      thetaHMaxB;
}
// * * * * * * * * * * * * * * * * * * * * * * * * * * * * * * * * * * * * * //

dimensions      [0 0 0 0 0 0 0];

internalField   nonuniform List<scalar> 
550
(
0
0
0
0
0
0
0
0
0
0
0
0
0
0
0
0
0
0
0
0
0
0
0
0
0
0
0
0
0
0
0.0847528
0.0831292
0.0820746
0.0813972
0.0813176
0.0812471
0.081025
0.0801075
0.0796559
0.0790104
0.0784232
0.0777235
0.0769545
0.0761414
0.0755809
0.075206
0.0749214
0.0746577
0.0744054
0.0741703
0.0739624
0.0737801
0.0736155
0.0734676
0.0733302
0.0732118
0.0731023
0.0730028
0.072923
0.0728624
0.072814
0.0727743
0.0727447
0.0727231
0.0727043
0.0726848
0.0726593
0.0726255
0.0725767
0.0725125
0.0724288
0.0723304
0.0722152
0.0720888
0.0719542
0.0718149
0.0716694
0.0715193
0.0713695
0.0712171
0.0710669
0.0709155
0.0707636
0.0706117
0.0704645
0.0703142
0.0701695
0.0700263
0.0698844
0.0697433
0.0696028
0.0694672
0.0693275
0.0691923
0.0690575
0.0689226
0.0687875
0.0686523
0.068522
0.068387
0.0682571
0.068123
0.0679948
0.0678628
0.0677365
0.0676061
0.0674763
0.0673517
0.0672228
0.067099
0.0669706
0.0668422
0.0667189
0.0665905
0.0664671
0.0663385
0.0662149
0.0660859
0.0659618
0.0658376
0.0657131
0.0655883
0.0654632
0.0653376
0.0652116
0.0650853
0.0649643
0.0648371
0.0647154
0.0645932
0.0644706
0.0643476
0.0642242
0.0641003
0.0639759
0.0638576
0.0637324
0.0636135
0.0634943
0.0633751
0.0632556
0.0631362
0.0630169
0.0629046
0.0627855
0.0626736
0.062555
0.0624439
0.0623334
0.0622234
0.0621141
0.0620056
0.0619053
0.0617986
0.0617004
0.0615957
0.0614994
0.0614044
0.0613028
0.0612097
0.0611177
0.0610342
0.0609441
0.0608549
0.0607665
0.0606866
0.0606
0.0605217
0.0604444
0.0603679
0.0602922
0.0602095
0.0601354
0.0600699
0.0599976
0.0599263
0.059856
0.0597869
0.0597189
0.05966
0.0595946
0.0595384
0.0594759
0.0594149
0.0593632
0.0593054
0.0592569
0.0592023
0.0591569
0.0591131
0.0590631
0.0590222
0.0589751
0.058937
0.0589001
0.0588567
0.0588219
0.0587881
0.0587474
0.0587151
0.0586833
0.0586523
0.0586139
0.0585838
0.058554
0.058517
0.058488
0.0584519
0.058424
0.0583889
0.058362
0.0583279
0.058302
0.0582689
0.0582363
0.0582116
0.0581797
0.0581481
0.0581242
0.058093
0.0580618
0.0580305
0.0580069
0.0579755
0.0579438
0.0579196
0.0578873
0.0578546
0.0578292
0.0577956
0.0577615
0.0577345
0.0576993
0.0576711
0.0576346
0.0576051
0.057575
0.0575364
0.0575048
0.0574725
0.0574318
0.0573981
0.0573637
0.0573288
0.0572855
0.0572494
0.0572127
0.0571756
0.057138
0.0571
0.0570616
0.0570228
0.0569839
0.0569446
0.0569053
0.0568735
0.0568339
0.0567942
0.0567545
0.0567148
0.0566828
0.0566431
0.0566035
0.0565715
0.0565319
0.0564924
0.0564607
0.0564213
0.0563898
0.0563506
0.0563194
0.0562883
0.0562498
0.0562194
0.0561893
0.0561596
0.0561229
0.0560942
0.056066
0.0560384
0.0560113
0.0559847
0.0559514
0.0559261
0.0559016
0.0558777
0.0558473
0.0558248
0.0558033
0.0557752
0.0557551
0.0557287
0.0557105
0.0556858
0.0556691
0.055646
0.0556239
0.0556028
0.0555892
0.0555696
0.0555508
0.0555329
0.0555159
0.0554996
0.0554911
0.0554767
0.0554628
0.0554498
0.0554376
0.0554259
0.0554148
0.0554042
0.0553943
0.0553846
0.0553686
0.0553598
0.0553513
0.0553431
0.055335
0.0553271
0.0553125
0.0553048
0.0552972
0.0552825
0.0552749
0.0552672
0.0552526
0.0552448
0.0552368
0.055222
0.055214
0.0552057
0.0551904
0.0551817
0.0551656
0.0551558
0.0551387
0.0551278
0.0551089
0.0550961
0.0550753
0.0550532
0.055037
0.0550123
0.0549935
0.0549661
0.0549373
0.0549143
0.0548827
0.0548497
0.0548228
0.0547875
0.054751
0.0547209
0.0546828
0.0546513
0.0546116
0.0545788
0.0545382
0.0545047
0.0544633
0.0544292
0.054387
0.0543525
0.0543099
0.0542751
0.05424
0.0541971
0.0541618
0.0541186
0.0540833
0.0540397
0.0540038
0.0539601
0.0539238
0.0538795
0.0538428
0.053798
0.0537607
0.0537153
0.0536775
0.0536316
0.0535932
0.0535463
0.0535074
0.0534679
0.0534201
0.05338
0.0533315
0.053291
0.0532502
0.0532091
0.0531678
0.053118
0.0530761
0.0530342
0.0529921
0.0529496
0.052907
0.0528642
0.0528213
0.0527781
0.0527346
0.0526911
0.0526474
0.0526036
0.0525679
0.0525239
0.05248
0.0524358
0.0523918
0.0523478
0.0522959
0.0522525
0.0522093
0.0521666
0.0521245
0.0520829
0.0520418
0.0520014
0.0519538
0.0519149
0.0518766
0.0518392
0.0518026
0.0517668
0.0517241
0.05169
0.0516567
0.0516242
0.0515924
0.0515612
0.0515306
0.0515006
0.0514634
0.0514344
0.0514059
0.0513779
0.0513505
0.0513157
0.0512891
0.0512631
0.0512301
0.051205
0.0511804
0.0511488
0.0511251
0.0511019
0.0510717
0.0510494
0.05102
0.0509986
0.0509776
0.0509496
0.0509294
0.0509021
0.0508826
0.0508557
0.0508366
0.0508098
0.0507907
0.0507639
0.0507445
0.0507173
0.0506974
0.0506697
0.0506492
0.0506207
0.0505918
0.0505702
0.0505404
0.050518
0.0504873
0.0504561
0.0504325
0.0504004
0.0503761
0.0503432
0.0503101
0.0502849
0.0502512
0.0502255
0.0501914
0.0501571
0.0501309
0.0501046
0.0500697
0.0500431
0.0500078
0.0499807
0.0499533
0.049917
0.0498888
0.0498601
0.0498222
0.0497923
0.0497617
0.0497219
0.0496901
0.0496577
0.0496159
0.0495823
0.0495481
0.0495046
0.0494693
0.0494335
0.0493882
0.0493515
0.0493142
0.0492679
0.0492302
0.0491926
0.0491459
0.0491083
0.0490706
0.0490241
0.0489864
0.0489397
0.0489016
0.0488633
0.0488154
0.0487763
0.0487362
0.0486867
0.0486452
0.0485939
0.0485501
0.0484968
0.0484404
0.0483846
0.048312
0.0482362
0.0481304
0.0480383
0.0478798
0.0477993
0.047683
0.0479731
0.0501819
0.0527457
0
0
0
0
0
0
0
0
0
0
)
;

boundaryField
{
    inlet
    {
        type            calculated;
        value           uniform 0;
    }
    endWall
    {
        type            calculated;
        value           uniform 0;
    }
    sideWall
    {
        type            empty;
    }
}


// ************************************************************************* //
