/*--------------------------------*- C++ -*----------------------------------*\
| =========                 |                                                 |
| \\      /  F ield         | foam-extend: Open Source CFD                    |
|  \\    /   O peration     | Version:     3.2                                |
|   \\  /    A nd           | Web:         http://www.foam-extend.org         |
|    \\/     M anipulation  | For copyright notice see file Copyright         |
\*---------------------------------------------------------------------------*/
FoamFile
{
    version     2.0;
    format      ascii;
    class       areaScalarField;
    location    "840";
    object      totH;
}
// * * * * * * * * * * * * * * * * * * * * * * * * * * * * * * * * * * * * * //

dimensions      [0 0 0 0 0 0 0];

internalField   nonuniform List<scalar> 
550
(
0
5e-11
-5e-11
0
-5e-10
0
5e-10
0
0
5e-10
-5.31291e-05
-4.8683e-06
-1.53573e-05
-8.32618e-06
1.83643e-07
3.65484e-06
3.19548e-05
4.51645e-05
1.67663e-05
0.00013786
0.000328654
0.000422357
0.000474372
0.000510616
0.000602238
0.000832441
0.0011516
0.00130178
0.00150611
0.00174095
0.00214084
0.00265725
0.0032153
0.0037953
0.00432179
0.00478431
0.00518809
0.00557484
0.00595773
0.00631672
0.00666155
0.00699441
0.00732641
0.00767166
0.00802569
0.0083754
0.008711
0.00903448
0.00934558
0.00964821
0.00994094
0.0102259
0.0105017
0.0107706
0.011032
0.0112877
0.0115369
0.0117814
0.0120204
0.0122538
0.0124807
0.0127014
0.012915
0.0131209
0.0133182
0.0135066
0.0136859
0.0138561
0.0140174
0.0141704
0.0143157
0.0144535
0.0145848
0.0147096
0.0148292
0.0149429
0.0150521
0.0151563
0.015257
0.0153535
0.0154474
0.0155376
0.0156259
0.0157114
0.0157954
0.0158767
0.0159572
0.0160348
0.0161118
0.0161866
0.0162614
0.0163341
0.016407
0.0164778
0.0165494
0.0166187
0.0166899
0.0167585
0.01683
0.0168981
0.0169709
0.0170397
0.0171135
0.0171827
0.0172569
0.0173263
0.0173997
0.0174686
0.0175399
0.0176074
0.017676
0.0177417
0.0178079
0.0178714
0.0179343
0.0179953
0.0180549
0.0181135
0.01817
0.018226
0.0182789
0.0183322
0.0183818
0.0184326
0.0184796
0.0185285
0.0185735
0.0186206
0.018664
0.0187097
0.0187515
0.0187958
0.0188367
0.0188804
0.0189212
0.0189645
0.0190051
0.0190484
0.0190892
0.0191324
0.0191737
0.0192175
0.0192601
0.0193048
0.0193485
0.0193946
0.0194404
0.0194895
0.0195372
0.0195894
0.0196384
0.0196948
0.0197446
0.0198056
0.019857
0.0199184
0.0199694
0.0200269
0.0200746
0.0201263
0.0201694
0.0202119
0.0202479
0.0202796
0.0203091
0.020331
0.020354
0.0203672
0.0203853
0.0203916
0.0204067
0.0204114
0.0204271
0.0204349
0.0204489
0.0204569
0.0204694
0.0204779
0.0204902
0.0205002
0.0205124
0.0205227
0.0205347
0.0205459
0.020559
0.0205715
0.020586
0.0206
0.0206167
0.0206321
0.0206505
0.0206674
0.0206877
0.020706
0.0207274
0.020746
0.0207687
0.0207875
0.0208097
0.0208285
0.0208499
0.0208675
0.0208868
0.0209035
0.0209202
0.0209351
0.0209492
0.0209627
0.0209738
0.0209856
0.0209936
0.0210037
0.0210089
0.0210178
0.0210216
0.0210308
0.0210344
0.0210443
0.02105
0.0210604
0.0210681
0.0210796
0.0210892
0.0211009
0.0211116
0.0211242
0.0211353
0.0211481
0.02116
0.0211724
0.0211844
0.021197
0.0212088
0.0212208
0.0212322
0.0212438
0.0212546
0.0212651
0.0212757
0.0212858
0.0212955
0.0213056
0.0213152
0.0213241
0.0213327
0.0213416
0.0213501
0.0213581
0.0213658
0.0213731
0.0213799
0.0213864
0.0213926
0.0213984
0.0214043
0.0214096
0.021414
0.021418
0.0214217
0.0214255
0.0214287
0.021431
0.0214332
0.0214349
0.0214355
0.0214361
0.0214362
0.0214355
0.0214343
0.0214324
0.0214302
0.0214269
0.0214229
0.0214187
0.0214136
0.0214074
0.0214006
0.0213938
0.0213863
0.0213781
0.0213694
0.0213598
0.0213499
0.0213403
0.0213303
0.0213197
0.0213092
0.0212989
0.0212884
0.0212779
0.0212676
0.0212575
0.0212477
0.0212378
0.0212283
0.0212186
0.0212092
0.0212005
0.0211919
0.0211832
0.0211749
0.0211669
0.0211595
0.0211528
0.0211464
0.02114
0.0211341
0.0211288
0.0211242
0.0211202
0.021117
0.0211146
0.0211129
0.021112
0.0211121
0.0211138
0.0211166
0.0211205
0.0211254
0.0211312
0.0211383
0.0211473
0.0211571
0.0211681
0.0211811
0.021195
0.0212102
0.0212272
0.0212451
0.0212643
0.0212852
0.0213068
0.0213296
0.0213537
0.0213787
0.021405
0.0214323
0.0214604
0.0214896
0.0215196
0.0215501
0.0215818
0.0216142
0.0216473
0.0216809
0.0217147
0.0217496
0.0217851
0.0218206
0.0218574
0.0218944
0.0219317
0.02197
0.0220083
0.0220469
0.0220855
0.0221241
0.0221628
0.0222015
0.0222401
0.0222788
0.0223174
0.0223559
0.0223946
0.0224333
0.0224722
0.0225105
0.0225489
0.0225874
0.0226261
0.0226646
0.0227034
0.0227421
0.0227808
0.0228195
0.0228581
0.0228968
0.0229353
0.0229736
0.0230119
0.0230501
0.0230879
0.0231256
0.0231632
0.0232007
0.0232373
0.0232736
0.0233099
0.023346
0.0233822
0.023418
0.0234532
0.0234874
0.0235212
0.0235551
0.0235884
0.0236211
0.0236532
0.0236848
0.0237159
0.0237464
0.0237765
0.0238062
0.0238355
0.0238647
0.0238941
0.0239229
0.0239509
0.0239786
0.0240063
0.0240339
0.024061
0.0240884
0.0241167
0.024145
0.0241736
0.0242023
0.0242311
0.02426
0.0242888
0.024318
0.0243482
0.0243785
0.0244091
0.0244398
0.0244703
0.0245015
0.0245336
0.0245659
0.0245987
0.0246319
0.0246655
0.0246995
0.0247337
0.0247688
0.0248053
0.0248426
0.0248808
0.0249195
0.0249593
0.0250003
0.0250414
0.0250837
0.0251268
0.0251699
0.025214
0.0252588
0.0253034
0.0253487
0.0253945
0.0254408
0.0254875
0.0255339
0.0255807
0.0256277
0.0256746
0.0257218
0.0257689
0.025816
0.0258631
0.0259102
0.0259571
0.026004
0.0260507
0.0260975
0.0261443
0.0261907
0.0262372
0.0262843
0.0263312
0.0263782
0.0264249
0.0264714
0.0265185
0.0265653
0.026612
0.0266582
0.0267041
0.0267505
0.0267965
0.026842
0.026887
0.0269315
0.0269764
0.0270209
0.0270641
0.027107
0.0271495
0.0271915
0.0272333
0.0272738
0.0273141
0.0273542
0.0273933
0.0274322
0.0274712
0.0275093
0.0275476
0.0275862
0.0276239
0.0276622
0.0277008
0.027739
0.0277779
0.0278175
0.0278569
0.0278974
0.0279391
0.0279814
0.0280254
0.0280714
0.0281186
0.0281687
0.0282217
0.0282775
0.0283375
0.0284014
0.0284714
0.028545
0.0286281
0.028712
0.0288163
0.0289102
0.0290476
0.0291508
0.0293289
0.0294343
0.0296221
0.0296908
0.029821
0.0297793
0.0297258
0.0294527
0.0290225
0.0283385
0.0272572
0.0256104
0.022803
0.0178097
0.00710692
-5e-08
3.46945e-18
0
-5e-08
6.93889e-18
5e-08
3.46945e-18
0
5e-08
3.46945e-18
)
;

boundaryField
{
    inlet
    {
        type            calculated;
        value           uniform 0;
    }
    endWall
    {
        type            calculated;
        value           uniform 0;
    }
    sideWall
    {
        type            empty;
    }
}


// ************************************************************************* //
