/*--------------------------------*- C++ -*----------------------------------*\
| =========                 |                                                 |
| \\      /  F ield         | foam-extend: Open Source CFD                    |
|  \\    /   O peration     | Version:     3.2                                |
|   \\  /    A nd           | Web:         http://www.foam-extend.org         |
|    \\/     M anipulation  | For copyright notice see file Copyright         |
\*---------------------------------------------------------------------------*/
FoamFile
{
    version     2.0;
    format      ascii;
    class       volVectorField;
    location    "840";
    object      U;
}
// * * * * * * * * * * * * * * * * * * * * * * * * * * * * * * * * * * * * * //

dimensions      [0 1 -1 0 0 0 0];

internalField   nonuniform List<vector> 
33000
(
(0.339033 0 0.000365508)
(0.335753 0 0.000343777)
(0.330203 4.76646e-34 0.000510633)
(0.324158 -6.60591e-29 0.000512404)
(0.318258 -4.23445e-31 0.000581276)
(0.312064 1.19109e-28 0.000531067)
(0.306494 1.0024e-28 0.000499935)
(0.3008 4.18375e-29 0.000525231)
(0.295081 0 0.000452433)
(0.291783 0 0.000529442)
(0.283092 2.92037e-27 -0.000874649)
(0.281776 -8.58654e-27 0.00282246)
(0.274852 -4.49874e-26 -0.00200498)
(0.269707 -2.14786e-27 0.00280596)
(0.264791 3.36319e-26 -0.00220496)
(0.260294 2.15463e-26 0.00277378)
(0.256845 0 -0.001739)
(0.254013 -2.84748e-30 0.00246607)
(0.247098 0 -0.00230162)
(0.245677 0 0.0053062)
(0.24567 -1.19529e-26 -0.000967635)
(0.241034 0 0.00360309)
(0.237235 0 -0.00183687)
(0.232815 0 0.0030916)
(0.229246 6.98187e-27 -0.000625682)
(0.227372 0 0.00530037)
(0.231629 0 0.00135647)
(0.224493 4.7477e-27 0.00262546)
(0.224162 1.53092e-27 0.00249762)
(0.218924 -7.35949e-27 0.00280018)
(0.220708 0 0.00555068)
(0.221416 -4.14757e-29 0.00535642)
(0.223739 0 0.00653283)
(0.225629 6.52587e-27 0.00612633)
(0.225864 0 0.00587344)
(0.225424 0 0.00500051)
(0.224243 -2.20912e-27 0.00456914)
(0.223549 5.07239e-28 0.00441326)
(0.223605 1.13041e-27 0.00432695)
(0.222808 0 0.00386134)
(0.222664 3.81251e-28 0.0039379)
(0.221847 0 0.00355519)
(0.22147 0 0.00384475)
(0.221218 1.14617e-28 0.00372571)
(0.221407 -1.17737e-27 0.0039706)
(0.221568 -1.92161e-27 0.00364155)
(0.221489 0 0.00368668)
(0.221486 1.86384e-27 0.0033675)
(0.221305 0 0.00340156)
(0.221289 1.5035e-27 0.00314672)
(0.221161 5.30487e-29 0.0031535)
(0.221167 2.4686e-27 0.00294496)
(0.221075 0 0.00292761)
(0.221089 0 0.00276273)
(0.221046 0 0.00273971)
(0.221079 0 0.00261527)
(0.221063 -1.34867e-28 0.0025705)
(0.221117 0 0.00247913)
(0.221147 -1.53546e-28 0.00243107)
(0.221196 -2.58986e-28 0.00234971)
(0.221194 2.30925e-28 0.00227858)
(0.221218 0 0.0022086)
(0.22117 2.99534e-28 0.0021257)
(0.221134 6.70184e-28 0.00202679)
(0.221051 0 0.00192787)
(0.220936 0 0.00181969)
(0.220802 0 0.00171283)
(0.220643 -3.88114e-33 0.00160403)
(0.220476 0 0.00150186)
(0.220273 0 0.00140186)
(0.22009 0 0.00131158)
(0.219874 0 0.00121953)
(0.219683 1.28169e-28 0.0011443)
(0.219449 0 0.00106135)
(0.219271 -2.29772e-28 0.00100641)
(0.219007 0 0.000921104)
(0.218843 0 0.000890543)
(0.218551 0 0.000803106)
(0.21842 0 0.000797554)
(0.218118 -1.09016e-28 0.000705047)
(0.218023 0 0.000726822)
(0.217717 -5.98956e-29 0.000617055)
(0.217658 0 0.000677358)
(0.217364 7.93465e-29 0.000535559)
(0.217317 0 0.000647421)
(0.217023 1.16983e-28 0.000455795)
(0.217001 0 0.000631363)
(0.216704 -1.48789e-28 0.000399449)
(0.216705 0 0.000615418)
(0.216418 2.46562e-28 0.000355338)
(0.216439 -1.32179e-28 0.000603058)
(0.216164 0 0.000305099)
(0.216186 -1.67225e-28 0.000594023)
(0.215931 -1.10607e-28 0.000253943)
(0.215987 0 0.000600605)
(0.21573 1.3772e-28 0.000205393)
(0.215824 -5.94378e-28 0.000627256)
(0.215557 -1.71351e-28 0.000161892)
(0.2157 0 0.000677111)
(0.215378 1.06105e-28 9.6872e-05)
(0.215589 0 0.0007619)
(0.215243 -1.34058e-28 2.21366e-05)
(0.215485 0 0.000855203)
(0.215146 0 -5.98072e-05)
(0.215387 -2.86495e-27 0.000943674)
(0.215087 -3.94219e-28 -0.000147433)
(0.215289 1.66013e-27 0.00101281)
(0.215053 0 -0.000232282)
(0.21519 -1.84009e-27 0.00105266)
(0.215017 0 -0.000307994)
(0.21508 0 0.00106946)
(0.214963 0 -0.000367773)
(0.214969 0 0.00107112)
(0.214897 0 -0.000420139)
(0.214835 0 0.00105251)
(0.214811 1.09048e-27 -0.000459685)
(0.214689 0 0.00101736)
(0.214711 -2.16593e-27 -0.000485215)
(0.214541 -4.05773e-31 0.000971176)
(0.214611 1.06065e-27 -0.000500474)
(0.214382 0 0.000905244)
(0.214492 -1.01346e-27 -0.000500831)
(0.214221 0 0.000831032)
(0.21436 0 -0.000486131)
(0.214059 0 0.000753682)
(0.214221 -8.7194e-28 -0.000455479)
(0.213911 0 0.000676148)
(0.214072 -7.90749e-28 -0.000420557)
(0.213767 7.28093e-28 0.000604509)
(0.213931 0 -0.000383373)
(0.213618 -1.94212e-27 0.000529978)
(0.213778 0 -0.000338881)
(0.213476 0 0.000463448)
(0.213623 0 -0.000290258)
(0.213349 0 0.00040957)
(0.213487 -4.72903e-28 -0.000244533)
(0.213225 0 0.000357373)
(0.213356 1.99875e-28 -0.000194843)
(0.213121 0 0.000311838)
(0.213231 0 -0.000150211)
(0.21302 0 0.000276289)
(0.213114 1.3807e-28 -0.000103519)
(0.212935 1.25101e-28 0.0002553)
(0.213023 2.87609e-29 -6.06345e-05)
(0.212848 1.0358e-28 0.000237701)
(0.212942 -1.41589e-30 -1.18679e-05)
(0.212762 0 0.000233258)
(0.212925 1.66531e-29 5.4095e-05)
(0.212676 -5.42043e-29 0.000211377)
(0.212962 0 0.000145487)
(0.212567 -5.59324e-32 0.000155825)
(0.213042 1.349e-28 0.000289704)
(0.212476 0 3.84357e-05)
(0.213118 0 0.000495029)
(0.212514 3.32719e-28 -0.000128863)
(0.213141 1.13966e-27 0.00067691)
(0.212612 3.53418e-28 -0.000317413)
(0.213095 3.14238e-27 0.000790981)
(0.212675 0 -0.000499925)
(0.212975 0 0.000849815)
(0.212724 2.1528e-27 -0.000662822)
(0.21277 2.10516e-27 0.000819868)
(0.21269 -2.29341e-27 -0.000791763)
(0.212465 2.14621e-27 0.000720968)
(0.21259 0 -0.000848718)
(0.212124 1.99857e-27 0.000562552)
(0.212414 -2.00338e-27 -0.000843194)
(0.21175 0 0.000366898)
(0.212184 0 -0.000768632)
(0.211371 -4.79524e-28 0.00014292)
(0.211868 0 -0.000619931)
(0.21107 6.25076e-30 -5.24031e-05)
(0.211539 2.74514e-28 -0.000430864)
(0.210946 0 -0.000196196)
(0.211234 -9.38659e-29 -0.00031816)
(0.210779 0 -0.000306696)
(0.210974 2.56939e-29 -0.000240999)
(0.210623 0 -0.000383825)
(0.210777 -3.47297e-29 -0.00016829)
(0.210498 0 -0.000421902)
(0.210557 -5.10224e-29 -0.000133371)
(0.210361 -2.33474e-28 -0.000454553)
(0.21037 0 -0.000101979)
(0.210212 2.64034e-28 -0.000467449)
(0.210223 7.00793e-29 -6.69832e-05)
(0.210077 0 -0.000476118)
(0.210106 0 -2.73322e-05)
(0.209958 -3.26172e-28 -0.000483355)
(0.210029 -9.07037e-29 2.345e-05)
(0.209869 0 -0.000501313)
(0.209972 0 7.77908e-05)
(0.209799 -4.26765e-28 -0.000524317)
(0.209946 -2.31336e-28 0.000141255)
(0.209762 0 -0.000559874)
(0.209936 0 0.000201773)
(0.209725 0 -0.000609358)
(0.209937 0 0.000273947)
(0.209725 -1.3398e-27 -0.000676771)
(0.209907 0 0.000333528)
(0.209734 -1.50606e-27 -0.000736465)
(0.209881 -7.77501e-28 0.000376754)
(0.209736 0 -0.000803687)
(0.209808 0 0.000402236)
(0.209738 0 -0.000851927)
(0.209724 -8.74157e-28 0.000398513)
(0.209709 -1.80637e-27 -0.00088658)
(0.209617 0 0.000379153)
(0.209675 0 -0.000902485)
(0.20949 0 0.000332505)
(0.209629 0 -0.000895918)
(0.20935 8.07477e-28 0.000260897)
(0.209564 -1.57905e-27 -0.000863053)
(0.209202 0 0.000168261)
(0.209472 0 -0.000800266)
(0.209062 0 7.37866e-05)
(0.209381 1.09711e-27 -0.000705502)
(0.208961 0 -2.66231e-05)
(0.209266 0 -0.000593933)
(0.208935 2.17385e-29 -9.98344e-05)
(0.209165 0 -0.000509066)
(0.208912 0 -0.000147882)
(0.209093 -4.09564e-28 -0.000436442)
(0.208916 -1.37987e-28 -0.000181672)
(0.209032 1.50802e-28 -0.000393137)
(0.2089 1.41771e-28 -0.000200083)
(0.209 0 -0.000357515)
(0.208881 -9.80765e-34 -0.00022375)
(0.208952 -1.51175e-28 -0.000328225)
(0.208876 3.46278e-29 -0.000235427)
(0.208905 -6.10794e-29 -0.000319472)
(0.208848 0 -0.000240748)
(0.208876 9.96242e-29 -0.000309284)
(0.208819 3.84576e-29 -0.000253433)
(0.208831 3.75315e-29 -0.000304584)
(0.208783 0 -0.000265537)
(0.208789 -1.25435e-29 -0.000299284)
(0.208749 -2.39082e-30 -0.000282974)
(0.208726 -1.00417e-29 -0.000302437)
(0.208714 1.9646e-30 -0.000286811)
(0.20868 0 -0.000310949)
(0.208657 3.029e-30 -0.000294257)
(0.208636 1.38801e-29 -0.000305656)
(0.208612 0 -0.00030425)
(0.208574 0 -0.000317048)
(0.208543 0 -0.00031197)
(0.208521 0 -0.000314272)
(0.208488 -6.19128e-30 -0.000319602)
(0.208459 0 -0.000322401)
(0.208424 0 -0.00032805)
(0.208389 4.63445e-30 -0.000330606)
(0.208351 0 -0.000336498)
(0.208312 4.25596e-30 -0.000338437)
(0.208271 6.60697e-30 -0.000343953)
(0.208229 0 -0.000345186)
(0.208197 0 -0.000345801)
(0.208154 8.96564e-30 -0.000354671)
(0.208102 2.79731e-34 -0.000363627)
(0.208055 0 -0.0003639)
(0.208007 7.41609e-30 -0.000371407)
(0.207973 -2.41579e-32 -0.000365735)
(0.207923 -2.30459e-29 -0.000379819)
(0.207865 -5.99144e-30 -0.000384601)
(0.207823 0 -0.000384852)
(0.207769 9.79105e-35 -0.00039604)
(0.207707 -8.27327e-30 -0.000404182)
(0.20766 -1.72378e-30 -0.000400799)
(0.2076 -1.18042e-29 -0.000414312)
(0.20754 -5.02845e-30 -0.000416089)
(0.207478 0 -0.000426615)
(0.207413 1.33269e-35 -0.00043041)
(0.207355 -7.06048e-30 -0.000434255)
(0.207278 0 -0.000451568)
(0.207206 -3.45605e-30 -0.000449836)
(0.20714 -1.01119e-29 -0.000458244)
(0.207064 2.14496e-29 -0.000466401)
(0.206978 0 -0.000479664)
(0.206895 0 -0.000479929)
(0.206822 1.5808e-29 -0.000483901)
(0.20674 1.1053e-29 -0.000492765)
(0.20666 -8.12203e-30 -0.000497355)
(0.206578 -1.07748e-29 -0.000505529)
(0.206488 1.05496e-29 -0.00051358)
(0.206406 -1.31812e-35 -0.000512897)
(0.206334 -4.25877e-30 -0.000511832)
(0.206258 -9.71953e-30 -0.00051918)
(0.206175 7.13435e-30 -0.000522666)
(0.206103 -5.94977e-30 -0.000521239)
(0.206042 1.91919e-30 -0.000517213)
(0.205971 1.02497e-29 -0.000527379)
(0.205908 1.77626e-30 -0.000518582)
(0.205852 6.08997e-30 -0.000523004)
(0.205797 1.75533e-34 -0.000516491)
(0.205748 0 -0.000518333)
(0.205699 0 -0.000514483)
(0.205656 0 -0.000514199)
(0.205604 -1.77584e-34 -0.000517245)
(0.205565 4.02342e-30 -0.000507681)
(0.205533 -4.09989e-31 -0.000505443)
(0.205498 0 -0.000503052)
(0.205456 0 -0.000507242)
(0.205421 0 -0.000496783)
(0.205386 6.31189e-30 -0.00049863)
(0.205355 0 -0.000487358)
(0.205336 0 -0.000483759)
(0.205312 -7.66711e-31 -0.000478912)
(0.205281 0 -0.000482385)
(0.205261 -6.44576e-30 -0.00046919)
(0.205242 0 -0.000469845)
(0.205227 -6.75055e-30 -0.000456615)
(0.205216 -5.8816e-33 -0.00045489)
(0.205208 0 -0.000441646)
(0.205204 0 -0.000437859)
(0.205204 0 -0.000424118)
(0.205198 0 -0.000423745)
(0.2052 -1.61521e-29 -0.00039981)
(0.205217 7.21004e-30 -0.000391718)
(0.205228 0 -0.000375969)
(0.205244 0 -0.000367384)
(0.205262 7.79534e-30 -0.000352202)
(0.205275 -7.90221e-30 -0.00034773)
(0.205295 -1.52589e-29 -0.000323148)
(0.205327 -9.55809e-30 -0.000309964)
(0.205348 -6.7511e-30 -0.000303225)
(0.205385 -1.36008e-29 -0.000282224)
(0.205433 -5.90772e-30 -0.000264563)
(0.205461 3.58646e-30 -0.000259586)
(0.205512 7.29493e-30 -0.000236509)
(0.205564 1.26959e-34 -0.0002223)
(0.205603 0 -0.000214628)
(0.205659 0 -0.000194629)
(0.205721 0 -0.000178129)
(0.205764 -2.9917e-30 -0.000174551)
(0.205825 0 -0.000153742)
(0.205878 -1.89864e-30 -0.000147072)
(0.205936 -3.08208e-30 -0.000130746)
(0.205995 0 -0.000120591)
(0.206054 -2.63964e-30 -0.000107967)
(0.206113 2.29069e-30 -9.78562e-05)
(0.20617 0 -8.7511e-05)
(0.206231 0 -7.65607e-05)
(0.206272 -6.32782e-31 -7.45834e-05)
(0.206339 -2.03463e-34 -5.32583e-05)
(0.206389 3.53032e-31 -5.45516e-05)
(0.206444 -6.80785e-31 -4.03649e-05)
(0.206499 0 -3.94531e-05)
(0.206541 0 -3.30799e-05)
(0.2066 3.69844e-31 -1.87732e-05)
(0.206646 5.14751e-32 -1.97964e-05)
(0.206689 -6.12044e-32 -1.17128e-05)
(0.206748 -3.20264e-31 1.51796e-06)
(0.20679 0 -2.0443e-06)
(0.206839 -2.74103e-31 9.53944e-06)
(0.206896 0 1.5579e-05)
(0.206942 -1.06543e-31 1.61958e-05)
(0.206987 0 1.96598e-05)
(0.207028 6.14567e-32 1.89134e-05)
(0.207068 2.35389e-31 2.18115e-05)
(0.207106 0 2.04526e-05)
(0.207141 0 2.26672e-05)
(0.207174 4.25524e-33 2.0658e-05)
(0.207204 -1.79763e-31 2.27759e-05)
(0.207231 0 2.05294e-05)
(0.207257 0 2.43583e-05)
(0.207276 -2.23723e-31 2.0666e-05)
(0.207303 6.89207e-31 2.79122e-05)
(0.207324 0 2.29648e-05)
(0.207331 -7.31627e-32 2.05786e-05)
(0.207346 2.09378e-31 2.48287e-05)
(0.207357 0 2.20907e-05)
(0.207371 0 2.65767e-05)
(0.20738 -8.65784e-32 2.33782e-05)
(0.207392 0 2.81489e-05)
(0.207399 9.38758e-32 2.45048e-05)
(0.207407 1.42894e-31 2.87978e-05)
(0.207411 1.0814e-31 2.46555e-05)
(0.207417 1.25763e-31 2.86605e-05)
(0.207418 1.74595e-31 2.41141e-05)
(0.20742 -1.60036e-31 2.74461e-05)
(0.20742 -2.71153e-31 2.1521e-05)
(0.207419 -1.88339e-31 2.51804e-05)
(0.207416 1.83941e-31 1.76469e-05)
(0.207413 0 2.16964e-05)
(0.207406 -1.89372e-31 1.34979e-05)
(0.207398 1.63822e-31 1.69912e-05)
(0.207402 1.59439e-31 1.26801e-05)
(0.207374 1.41822e-31 -2.53109e-07)
(0.207367 0 9.16815e-06)
(0.20735 0 -5.24092e-06)
(0.207335 0 3.76131e-06)
(0.207337 -8.3981e-32 -4.12144e-06)
(0.207329 5.55712e-32 -4.47346e-06)
(0.207315 0 -1.54957e-05)
(0.207291 0 -2.37278e-05)
(0.207269 0 -2.89147e-05)
(0.20727 1.29245e-31 -2.41183e-05)
(0.207251 1.0208e-30 -3.9442e-05)
(0.20724 0 -3.79726e-05)
(0.207217 -1.76904e-30 -5.10415e-05)
(0.2072 -3.10581e-31 -5.05444e-05)
(0.207173 -1.05979e-34 -6.17751e-05)
(0.20715 1.71341e-31 -6.15417e-05)
(0.207118 0 -7.15091e-05)
(0.207088 0 -7.02195e-05)
(0.207055 1.49379e-30 -7.75269e-05)
(0.207022 4.991e-32 -7.49396e-05)
(0.206997 6.67999e-31 -7.7201e-05)
(0.206967 0 -8.23487e-05)
(0.206921 0 -9.33247e-05)
(0.206886 0 -8.76583e-05)
(0.206844 0 -9.63798e-05)
(0.206806 0 -9.14011e-05)
(0.206757 2.39388e-30 -0.000103393)
(0.206715 0 -8.73802e-05)
(0.206689 5.81276e-31 -8.87256e-05)
(0.206654 -3.3995e-31 -8.38519e-05)
(0.206626 0 -8.58935e-05)
(0.206599 0 -8.08814e-05)
(0.206573 -6.83035e-31 -8.32896e-05)
(0.206552 -3.34209e-31 -7.86835e-05)
(0.206522 -1.53754e-30 -8.56646e-05)
(0.206502 0 -7.18931e-05)
(0.206496 0 -6.89379e-05)
(0.206486 0 -6.63173e-05)
(0.20648 -6.79895e-32 -6.55683e-05)
(0.206477 0 -6.25062e-05)
(0.206464 -8.66096e-31 -6.62533e-05)
(0.206456 0 -5.35362e-05)
(0.206469 4.6215e-31 -4.89002e-05)
(0.206478 0 -4.53851e-05)
(0.206488 0 -4.14276e-05)
(0.206502 1.85748e-31 -3.60806e-05)
(0.206514 0 -3.31582e-05)
(0.206533 0 -2.65777e-05)
(0.206542 -1.61337e-31 -2.81128e-05)
(0.206567 -1.09835e-35 -1.22228e-05)
(0.206606 -1.22593e-31 -1.12635e-06)
(0.206649 2.29467e-31 9.20134e-06)
(0.206692 -3.54013e-31 1.66776e-05)
(0.206724 2.70202e-31 2.05263e-05)
(0.206787 0 4.03333e-05)
(0.206844 -5.53782e-35 4.38587e-05)
(0.206889 0 4.9687e-05)
(0.206953 0 6.45625e-05)
(0.207015 0 6.78283e-05)
(0.207063 1.47605e-30 7.03554e-05)
(0.207129 0 8.54443e-05)
(0.20719 -5.82892e-31 8.52072e-05)
(0.207239 0 8.86839e-05)
(0.207296 2.19069e-30 9.8296e-05)
(0.207347 0 9.93831e-05)
(0.207406 -2.68155e-30 0.000111507)
(0.20746 1.81366e-31 0.000108775)
(0.207502 8.01256e-31 0.000109489)
(0.207551 0 0.000114708)
(0.207594 0 0.000114389)
(0.207638 -2.46064e-30 0.00011835)
(0.207679 3.92937e-31 0.000116923)
(0.207718 -1.83526e-34 0.000119657)
(0.207755 -2.19865e-31 0.000117395)
(0.20779 0 0.000119949)
(0.207824 1.15122e-31 0.000117185)
(0.207855 8.28884e-31 0.000119222)
(0.207885 2.51139e-32 0.00011584)
(0.207914 2.22551e-34 0.000118458)
(0.207941 -3.92904e-32 0.00011444)
(0.207969 1.17711e-30 0.000118695)
(0.207987 -6.66563e-31 0.000110705)
(0.208011 0 0.000117433)
(0.208044 1.15792e-30 0.000121253)
(0.208065 8.29693e-32 0.000116717)
(0.208091 2.65243e-30 0.000121857)
(0.208102 0 0.000112505)
(0.20812 1.47258e-30 0.000119076)
(0.208145 -9.11069e-31 0.000122111)
(0.208156 0 0.000116195)
(0.20817 0 0.00012031)
(0.208168 0 0.000108885)
(0.208167 -1.20236e-30 0.000113927)
(0.208179 4.58468e-31 0.000115014)
(0.208174 -1.27618e-30 0.000106962)
(0.208174 -4.44026e-31 0.000109247)
(0.208163 0 9.62e-05)
(0.208144 -2.86853e-32 9.63508e-05)
(0.208151 1.74301e-34 0.000102309)
(0.208147 -2.49768e-30 8.81888e-05)
(0.208119 0 7.87198e-05)
(0.20811 -9.99195e-32 7.93318e-05)
(0.208089 0 6.75243e-05)
(0.208076 -2.87041e-32 7.16169e-05)
(0.208065 0 5.89227e-05)
(0.20803 5.73186e-35 4.63407e-05)
(0.20802 0 5.22528e-05)
(0.208001 9.38044e-36 4.0594e-05)
(0.207964 0 3.13991e-05)
(0.20795 0 3.69544e-05)
(0.207933 -3.27543e-31 2.97489e-05)
(0.207897 0 2.0666e-05)
(0.207888 -2.48301e-31 3.03197e-05)
(0.207878 2.93959e-31 2.27455e-05)
(0.20785 1.49012e-31 1.78367e-05)
(0.207844 0 2.68952e-05)
(0.207848 0 2.55254e-05)
(0.207824 0 2.10288e-05)
(0.207824 0 3.59758e-05)
(0.207837 0 3.4334e-05)
(0.207824 -2.40017e-31 3.43482e-05)
(0.20784 1.09145e-30 5.52027e-05)
(0.207863 0 6.25508e-05)
(0.207859 0 6.60206e-05)
(0.207899 -4.12629e-30 9.4075e-05)
(0.207939 0 0.00010984)
(0.207961 -6.56236e-30 0.000121045)
(0.20803 -1.28145e-29 0.000169636)
(0.208097 0 0.000184144)
(0.208151 0 0.000229192)
(0.208301 -1.86543e-29 0.00028012)
(0.20826 0 0.000315477)
(0.208596 0 0.000409289)
(0.208356 0 0.000401283)
(0.209087 -3.01997e-28 0.000615742)
(0.208325 -1.43285e-28 0.000429195)
(0.209923 8.55787e-28 0.00104269)
(0.208101 -2.78267e-28 0.000252718)
(0.211165 9.18138e-27 0.00190587)
(0.207811 0 -0.000332364)
(0.212655 0 0.00334004)
(0.207885 0 -0.00158289)
(0.213671 0 0.00489541)
(0.207947 0 -0.00368059)
(0.213139 0 0.00590664)
(0.207583 0 -0.00681117)
(0.209692 -1.35026e-25 0.00525073)
(0.206139 0 -0.0109842)
(0.202151 0 0.00165998)
(0.202182 -3.81124e-25 -0.0160199)
(0.190389 1.04441e-25 -0.00604549)
(0.192034 1.54711e-24 -0.0250133)
(0.152807 -6.9947e-25 -0.0189322)
(0.134853 -1.67427e-24 -0.0412003)
(0.00887882 3.60607e-25 0.00811418)
(-0.0384627 0 0.00138661)
(0.000100468 -3.18413e-28 -0.000592544)
(-0.020579 0 -0.000502859)
(0.00445205 -4.74089e-29 -0.000943563)
(-0.01457 0 0.000884305)
(-0.00770206 -1.0335e-28 -1.91874e-05)
(-0.0192311 -4.10455e-28 0.00103714)
(-0.0248787 0 0.00100065)
(-0.0315643 6.15202e-28 0.000335094)
(-0.032546 1.40382e-27 -0.00577609)
(0.341315 0 0.000812883)
(0.340226 0 0.000684528)
(0.338078 3.31308e-28 0.00144712)
(0.333806 0 0.00134259)
(0.330847 6.96089e-29 0.00155161)
(0.327179 2.52138e-28 0.00134204)
(0.324023 0 0.00142175)
(0.320842 0 0.00130192)
(0.318062 0 0.000887303)
(0.316944 0 0.00135685)
(0.312121 6.0268e-27 -0.000432028)
(0.312334 1.38379e-26 0.00407126)
(0.308688 6.33976e-26 -0.00207158)
(0.30632 -2.21801e-27 0.00410321)
(0.303753 -4.83685e-30 -0.00219909)
(0.300966 0 0.00413688)
(0.298917 0 -0.00162155)
(0.297125 3.60351e-26 0.00373348)
(0.293324 0 -0.00218205)
(0.292597 0 0.00726537)
(0.292779 -1.97354e-26 -0.000862742)
(0.289616 0 0.00476166)
(0.287702 0 -0.0015521)
(0.284197 0 0.00438361)
(0.28269 0 5.57446e-05)
(0.280908 0 0.0072039)
(0.283564 -1.85154e-26 0.00205972)
(0.278618 8.74326e-27 0.00385703)
(0.278601 0 0.00365062)
(0.275503 -5.00566e-27 0.00436542)
(0.27589 3.35577e-26 0.00707755)
(0.276952 9.16504e-27 0.00683859)
(0.278095 8.85274e-27 0.00808576)
(0.27957 -1.0482e-26 0.00760287)
(0.279816 0 0.00719909)
(0.279979 0 0.00617503)
(0.279174 -2.84827e-27 0.00567307)
(0.278577 0 0.00542577)
(0.278554 0 0.00534885)
(0.277957 -2.67399e-27 0.00476155)
(0.277703 5.2064e-28 0.00495447)
(0.277023 0 0.00446608)
(0.276512 -2.08903e-27 0.00485149)
(0.276334 -1.0905e-27 0.00466412)
(0.276345 0 0.00493302)
(0.276397 -6.58269e-27 0.00449548)
(0.276256 0 0.00457792)
(0.276176 3.13131e-27 0.00416628)
(0.275946 0 0.00421626)
(0.275884 0 0.00389466)
(0.275623 -6.264e-28 0.00390556)
(0.275587 1.80418e-27 0.00364021)
(0.275355 5.28082e-28 0.0036245)
(0.275332 0 0.00341433)
(0.275148 0 0.00339062)
(0.275135 -1.09982e-27 0.00322696)
(0.27499 -6.52955e-28 0.00319674)
(0.274941 0 0.00307575)
(0.274825 0 0.00302991)
(0.274735 0 0.00291253)
(0.274632 7.76317e-28 0.00284313)
(0.274478 0 0.00272892)
(0.274401 0 0.00263772)
(0.274204 1.00029e-27 0.00251217)
(0.274125 0 0.00239911)
(0.273875 -5.34477e-28 0.00226399)
(0.273783 0 0.00213774)
(0.273504 -5.09997e-28 0.00200333)
(0.273394 0 0.00188477)
(0.273074 0 0.00175778)
(0.272947 0 0.00166032)
(0.272588 0 0.00153958)
(0.272436 4.86242e-33 0.00147163)
(0.272037 0 0.00134957)
(0.271862 -1.79789e-28 0.00131771)
(0.271441 0 0.00117793)
(0.27124 0 0.00118562)
(0.270824 0 0.00102656)
(0.270606 1.36918e-28 0.0010747)
(0.270228 -1.17529e-28 0.000890569)
(0.270009 0 0.000987569)
(0.269665 0 0.000773764)
(0.269458 0 0.000917691)
(0.269102 0 0.000697922)
(0.268937 -3.29005e-29 0.000858633)
(0.268564 0 0.000628078)
(0.268424 1.07687e-28 0.000809939)
(0.26809 3.68959e-32 0.000539495)
(0.267938 0 0.000771454)
(0.267662 2.77265e-28 0.00046503)
(0.26753 0 0.000764501)
(0.267281 0 0.000407133)
(0.26716 0 0.000765996)
(0.26692 -5.73807e-28 0.00034718)
(0.266828 0 0.000770931)
(0.266569 4.41793e-28 0.000286184)
(0.266506 0 0.000802354)
(0.26622 -5.3264e-28 0.000219565)
(0.266182 5.74544e-28 0.000868897)
(0.265862 1.64957e-28 0.000142611)
(0.265863 7.38827e-28 0.000972999)
(0.265534 0 4.8426e-05)
(0.265554 1.85266e-27 0.00108514)
(0.265237 0 -5.812e-05)
(0.265254 -2.2341e-27 0.0011908)
(0.26497 0 -0.000170015)
(0.264956 2.58418e-27 0.00127444)
(0.264718 0 -0.0002769)
(0.264652 -2.86278e-27 0.00132403)
(0.264458 -9.48278e-29 -0.000370448)
(0.264337 0 0.00134658)
(0.264182 0 -0.000443733)
(0.264018 0 0.00135012)
(0.263895 0 -0.000506919)
(0.263682 0 0.00132887)
(0.263591 2.52366e-27 -0.000554398)
(0.263336 3.28085e-27 0.0012869)
(0.263276 -8.35468e-28 -0.000584545)
(0.262986 3.95344e-31 0.00123081)
(0.262955 1.63438e-27 -0.000601703)
(0.262626 0 0.00115082)
(0.26262 -1.56094e-27 -0.000600177)
(0.262262 0 0.00106052)
(0.262273 -7.30773e-28 -0.000580211)
(0.261899 1.36886e-27 0.000965632)
(0.261923 -2.01334e-27 -0.0005414)
(0.261548 -1.2477e-27 0.00086979)
(0.261572 0 -0.000497586)
(0.261207 1.12771e-27 0.000780149)
(0.261232 0 -0.000451209)
(0.26087 -2.0061e-27 0.00068781)
(0.260893 -4.82229e-28 -0.000395771)
(0.260547 0 0.000604843)
(0.260563 2.0931e-28 -0.000336132)
(0.260244 0 0.000536176)
(0.260256 -1.81599e-28 -0.000280341)
(0.259954 0 0.000470105)
(0.259964 0 -0.000220085)
(0.259687 0 0.000412029)
(0.259685 0 -0.000165627)
(0.259433 0 0.000366531)
(0.259423 2.65072e-29 -0.000109349)
(0.259203 0 0.000337861)
(0.259193 4.41183e-29 -5.73171e-05)
(0.258984 3.20656e-28 0.000314362)
(0.258985 -3.711e-29 2.88874e-06)
(0.258781 0 0.000304956)
(0.258836 2.53419e-29 8.0646e-05)
(0.258597 4.39064e-33 0.000272908)
(0.258738 0 0.000190925)
(0.258413 3.01854e-35 0.000196914)
(0.258687 1.421e-28 0.000364243)
(0.258261 0 5.12851e-05)
(0.258646 0 0.000608387)
(0.258208 1.68738e-28 -0.00015984)
(0.258578 8.67281e-28 0.000828888)
(0.258201 -5.36344e-28 -0.000393582)
(0.258461 2.39783e-27 0.000972327)
(0.258167 6.97201e-28 -0.000615905)
(0.258287 -1.46219e-27 0.00104945)
(0.258107 1.63344e-27 -0.000811847)
(0.258038 1.6087e-27 0.00102174)
(0.257971 -5.21989e-27 -0.000962148)
(0.257702 0 0.000910521)
(0.257766 0 -0.00102438)
(0.257323 -7.64552e-28 0.000725814)
(0.257486 -3.0438e-27 -0.0010089)
(0.256903 0 0.000493863)
(0.257148 -1.23258e-27 -0.000909878)
(0.256467 -1.22956e-28 0.000225903)
(0.256743 -8.35839e-28 -0.00072394)
(0.256085 3.06297e-28 -1.02585e-05)
(0.256333 4.28131e-28 -0.000494219)
(0.255822 -1.28811e-28 -0.000187807)
(0.255934 -1.49631e-28 -0.000351776)
(0.255536 9.46914e-30 -0.000331517)
(0.255585 3.03206e-29 -0.000253648)
(0.255257 1.64768e-28 -0.000432626)
(0.255266 0 -0.000176851)
(0.255014 0 -0.00047653)
(0.254962 0 -0.000122099)
(0.254754 -3.55313e-28 -0.000521513)
(0.254672 1.85412e-28 -8.57124e-05)
(0.254496 4.03071e-28 -0.000540657)
(0.254419 3.16224e-28 -4.59112e-05)
(0.254257 0 -0.000554601)
(0.254195 0 -8.23953e-07)
(0.254038 -4.98435e-28 -0.00056742)
(0.254008 1.29372e-28 5.65778e-05)
(0.253849 0 -0.000593163)
(0.253844 0 0.000119544)
(0.253683 -1.30132e-27 -0.000625019)
(0.253709 -5.49665e-30 0.000193957)
(0.253546 0 -0.000671587)
(0.25359 0 0.000266639)
(0.253415 0 -0.000734001)
(0.253481 0 0.00035287)
(0.253309 -1.01686e-27 -0.000817065)
(0.253352 0 0.000425909)
(0.25321 -2.28605e-27 -0.000891384)
(0.253226 -1.18011e-27 0.000479339)
(0.253106 0 -0.000972411)
(0.25307 0 0.000512044)
(0.253001 0 -0.00103077)
(0.252904 -9.94813e-28 0.000509588)
(0.252877 -2.73761e-27 -0.00107156)
(0.252724 0 0.000487489)
(0.252749 2.72938e-27 -0.00108945)
(0.252531 3.27086e-28 0.000432286)
(0.25261 -2.61641e-27 -0.00107953)
(0.252327 -7.65249e-29 0.000346798)
(0.252456 -4.78803e-27 -0.00103727)
(0.252118 1.36314e-28 0.000235774)
(0.252282 0 -0.000958492)
(0.251916 0 0.000120587)
(0.252111 1.66898e-27 -0.000843113)
(0.251747 0 -4.28909e-07)
(0.251931 0 -0.000707918)
(0.251636 0 -9.17473e-05)
(0.251768 -4.45752e-28 -0.000604078)
(0.251537 0 -0.000152916)
(0.251633 -6.34478e-28 -0.000516916)
(0.251461 -1.1588e-34 -0.000197266)
(0.251514 2.3381e-28 -0.000464105)
(0.251377 1.02821e-28 -0.000221739)
(0.251418 1.75582e-28 -0.000421376)
(0.251295 -7.23039e-29 -0.000250084)
(0.251316 -1.20387e-28 -0.000386406)
(0.251225 4.98671e-29 -0.00026741)
(0.251218 -9.67191e-29 -0.000376346)
(0.251143 0 -0.00027631)
(0.251134 7.89616e-29 -0.000365075)
(0.251062 5.97885e-29 -0.000292375)
(0.251042 0 -0.00036043)
(0.250979 -1.99065e-29 -0.000310376)
(0.250953 -1.95989e-29 -0.00035404)
(0.250911 -2.48812e-30 -0.000331983)
(0.250864 -1.25537e-29 -0.000359669)
(0.250821 -1.01149e-30 -0.000332902)
(0.250773 0 -0.000368469)
(0.250711 3.57432e-30 -0.000343326)
(0.250681 9.34029e-30 -0.00036017)
(0.250619 0 -0.000354249)
(0.250577 0 -0.000373553)
(0.250505 0 -0.000364196)
(0.25047 0 -0.000367203)
(0.250407 0 -0.000374191)
(0.250359 0 -0.000376504)
(0.250299 8.84226e-30 -0.000384123)
(0.250244 1.17202e-34 -0.000385455)
(0.250185 0 -0.000393664)
(0.250123 -7.62319e-30 -0.000394223)
(0.250065 8.73314e-30 -0.000401411)
(0.249998 5.20876e-30 -0.000403336)
(0.249944 7.51198e-30 -0.000402997)
(0.249884 1.38998e-29 -0.00041266)
(0.249814 9.26458e-30 -0.000426064)
(0.249745 0 -0.000421518)
(0.249679 0 -0.000436028)
(0.249611 5.34239e-30 -0.000424016)
(0.249555 -3.04164e-29 -0.000442566)
(0.249468 -1.36248e-29 -0.00044846)
(0.249404 0 -0.000446437)
(0.24933 1.54634e-29 -0.000458731)
(0.249241 -1.54801e-29 -0.000471917)
(0.249163 -7.51714e-30 -0.000461935)
(0.249084 -1.40627e-29 -0.000482495)
(0.248992 0 -0.000480063)
(0.248909 1.44688e-29 -0.000494152)
(0.248809 8.43551e-30 -0.000499156)
(0.248727 1.516e-29 -0.000499007)
(0.248626 0 -0.000525064)
(0.248519 0 -0.000517819)
(0.24843 0 -0.000530055)
(0.248324 1.73753e-29 -0.000536829)
(0.248218 0 -0.000555731)
(0.248104 0 -0.000553986)
(0.248009 2.81373e-29 -0.000558507)
(0.247905 1.53361e-29 -0.000570661)
(0.247802 -2.66782e-29 -0.000575729)
(0.247704 1.62123e-29 -0.000584889)
(0.247595 1.31877e-29 -0.000595895)
(0.247492 6.57825e-30 -0.000595621)
(0.247398 9.49285e-30 -0.000593002)
(0.247309 -1.32564e-29 -0.000603512)
(0.247207 0 -0.000607503)
(0.247115 -3.14357e-30 -0.000609122)
(0.247034 1.62296e-29 -0.000599222)
(0.246951 -4.11073e-34 -0.000619168)
(0.246859 1.47735e-30 -0.000602426)
(0.246792 1.12897e-29 -0.000613712)
(0.246706 -1.17959e-30 -0.000602139)
(0.246643 -4.89116e-30 -0.000607853)
(0.246563 -1.01411e-30 -0.000602684)
(0.246505 0 -0.000601499)
(0.246427 -2.10095e-30 -0.000608622)
(0.246364 -2.92612e-30 -0.000594309)
(0.246306 0 -0.000594659)
(0.246248 0 -0.000588282)
(0.246183 0 -0.00059868)
(0.24612 1.45294e-30 -0.000579991)
(0.246064 2.74536e-30 -0.000587911)
(0.246001 0 -0.000570789)
(0.245956 0 -0.000570734)
(0.245907 0 -0.000560529)
(0.245854 0 -0.000571515)
(0.245804 -3.33615e-30 -0.000548946)
(0.245762 0 -0.000557111)
(0.245717 1.78064e-34 -0.000535331)
(0.245682 2.40399e-30 -0.00054042)
(0.245647 0 -0.000518864)
(0.245616 0 -0.00052154)
(0.245596 -6.32657e-30 -0.000499262)
(0.245562 0 -0.000502786)
(0.245544 -3.79647e-29 -0.000474878)
(0.245537 0 -0.000465211)
(0.245527 -1.03773e-29 -0.000447684)
(0.245521 0 -0.000438343)
(0.245519 9.08006e-30 -0.000419914)
(0.245513 -5.55314e-30 -0.000412923)
(0.245508 -2.16391e-29 -0.000389409)
(0.245529 -1.03503e-29 -0.000371431)
(0.245533 0 -0.000364997)
(0.245543 1.05893e-34 -0.000342202)
(0.245575 -1.22396e-29 -0.000318512)
(0.245595 3.5684e-34 -0.000316514)
(0.24561 2.10297e-29 -0.00028792)
(0.245654 1.24738e-29 -0.000269973)
(0.245677 0 -0.000262854)
(0.245709 0 -0.000240538)
(0.245753 0 -0.000218054)
(0.245791 -6.52282e-30 -0.000217011)
(0.245821 0 -0.000190324)
(0.245872 0 -0.000184406)
(0.2459 -3.8806e-30 -0.000164019)
(0.245956 0 -0.000153678)
(0.24599 0 -0.000137595)
(0.246045 3.07904e-30 -0.000125933)
(0.246081 0 -0.000114889)
(0.246139 0 -9.84052e-05)
(0.246173 -3.43219e-30 -0.000100447)
(0.246219 2.11193e-34 -6.93451e-05)
(0.246277 0 -7.68308e-05)
(0.246308 -7.63206e-31 -5.60085e-05)
(0.24637 3.056e-31 -5.69015e-05)
(0.246398 8.4853e-31 -5.08791e-05)
(0.246452 -3.4135e-35 -2.96832e-05)
(0.246501 0 -3.27598e-05)
(0.246535 -1.13799e-31 -2.58902e-05)
(0.24659 -3.05405e-31 -5.03768e-06)
(0.246638 0 -1.42125e-05)
(0.246675 0 7.74149e-07)
(0.246732 4.27267e-31 8.84409e-06)
(0.246778 -3.31437e-31 7.74021e-06)
(0.246822 0 1.42965e-05)
(0.246866 0 1.141e-05)
(0.246904 0 1.78284e-05)
(0.246946 2.40136e-31 1.4119e-05)
(0.24698 0 2.00105e-05)
(0.247017 2.06619e-31 1.5057e-05)
(0.247048 -1.78574e-31 2.18287e-05)
(0.247079 0 1.53321e-05)
(0.247108 -1.75438e-31 2.57127e-05)
(0.247134 1.61677e-31 1.60261e-05)
(0.247158 6.3501e-31 2.96401e-05)
(0.24719 0 2.24708e-05)
(0.247202 -1.63865e-31 1.80074e-05)
(0.247226 -4.72107e-35 2.71789e-05)
(0.247244 1.20525e-31 2.01734e-05)
(0.247266 1.61255e-31 2.94992e-05)
(0.247286 9.3284e-32 2.19787e-05)
(0.247305 -1.47241e-31 3.16669e-05)
(0.247324 -6.73148e-32 2.40186e-05)
(0.247341 -1.20625e-31 3.28459e-05)
(0.247357 -3.52396e-35 2.44595e-05)
(0.247374 1.12933e-31 3.27075e-05)
(0.247386 2.25701e-32 2.3845e-05)
(0.247403 0 3.09967e-05)
(0.247413 -3.32533e-31 2.17261e-05)
(0.247428 -5.06876e-31 2.7619e-05)
(0.247434 0 1.89214e-05)
(0.247444 1.29207e-31 2.38363e-05)
(0.247449 -1.91966e-31 1.51456e-05)
(0.247453 -2.38241e-35 1.92346e-05)
(0.247464 6.82773e-36 1.57263e-05)
(0.247454 -5.30366e-32 -1.02421e-06)
(0.247456 -7.98354e-32 1.05335e-05)
(0.247454 0 -5.71656e-06)