/*--------------------------------*- C++ -*----------------------------------*\
| =========                 |                                                 |
| \\      /  F ield         | foam-extend: Open Source CFD                    |
|  \\    /   O peration     | Version:     3.2                                |
|   \\  /    A nd           | Web:         http://www.foam-extend.org         |
|    \\/     M anipulation  | For copyright notice see file Copyright         |
\*---------------------------------------------------------------------------*/
FoamFile
{
    version     2.0;
    format      ascii;
    class       areaVectorField;
    location    "840";
    object      Ub2;
}
// * * * * * * * * * * * * * * * * * * * * * * * * * * * * * * * * * * * * * //

dimensions      [0 1 -1 0 0 0 0];

internalField   nonuniform List<vector> 
550
(
(0 0 0)
(0 0 0)
(0 0 0)
(0 0 0)
(0.0404638 1.12701e-23 -8.09263e-05)
(0.0514839 1.97974e-29 -0.000102968)
(0.0614784 -1.62483e-23 -0.000122953)
(0.0709394 -1.93448e-23 -0.000141879)
(0.0790105 3.29136e-29 -0.00015803)
(0.0857161 -2.98986e-29 -0.000171428)
(0.0919655 0 -0.000721391)
(0.0957813 2.05049e-23 0.000876665)
(0.0741142 -1.39793e-26 -0.00106031)
(0.0696508 7.2828e-24 0.000771763)
(0.10434 1.09786e-26 -0.00147576)
(0.103775 1.0355e-24 0.00109231)
(0.104907 4.87153e-27 -0.00119728)
(0.103403 -6.98012e-27 0.000916754)
(0.103284 0 -0.00165146)
(0.0996091 4.4354e-22 0.00252121)
(0.0709743 3.08055e-27 -0.00059069)
(0.0752222 6.5331e-27 0.0011005)
(0.0735489 -3.80163e-27 -0.000949401)
(0.079607 2.05206e-23 0.00102656)
(0.0951276 0 -0.000648528)
(0.0914707 -1.04332e-21 0.00257391)
(0.0922473 0 0.000273753)
(0.0906855 -6.7634e-28 0.000866231)
(0.0798301 -5.27163e-23 0.000712505)
(0.0811093 0 0.00104676)
(0.0836022 6.8005e-27 0.00226428)
(0.0854908 1.11489e-27 0.00219909)
(0.0847046 2.4335e-22 0.00268178)
(0.0846244 -9.62255e-23 0.00238132)
(0.0844137 -2.31808e-23 0.00217558)
(0.0843247 -5.29444e-23 0.00177969)
(0.0840581 0 0.00162336)
(0.0840173 0 0.0016155)
(0.0838345 4.24268e-28 0.00158368)
(0.0838179 0 0.00139122)
(0.0836267 1.71807e-23 0.00144945)
(0.0836138 -6.17141e-28 0.00127786)
(0.0834189 0 0.00143792)
(0.0834357 -4.96079e-24 0.00139666)
(0.0832941 -1.31528e-23 0.0015163)
(0.0833302 7.2264e-28 0.00135522)
(0.0832139 0 0.00138575)
(0.0832398 0 0.00124293)
(0.0831362 4.01755e-24 0.00127091)
(0.0831467 -5.65053e-28 0.00116431)
(0.0830633 0 0.00117925)
(0.0830694 0 0.00109225)
(0.083011 0 0.00109513)
(0.0830182 -3.69444e-28 0.00102795)
(0.0829807 3.77743e-29 0.00102693)
(0.0829877 -3.94902e-24 0.0009749)
(0.0829644 5.06384e-29 0.00096794)
(0.08297 -1.02667e-28 0.000931075)
(0.0829564 0 0.000917812)
(0.0829594 9.71372e-29 0.00088102)
(0.0829487 -9.96563e-25 0.000857908)
(0.0829477 0 0.000823828)
(0.0829377 1.12286e-28 0.00079302)
(0.0829314 1.95068e-24 0.000753407)
(0.0829218 2.40849e-24 0.000714942)
(0.0829111 -3.22463e-24 0.000671825)
(0.0828998 3.43469e-24 0.00063129)
(0.0828887 -3.919e-24 0.000589129)
(0.0828789 0 0.000550654)
(0.0828673 -4.46448e-24 0.000512031)
(0.082856 0 0.000480542)
(0.082843 0 0.000444422)
(0.0828227 -4.83258e-29 0.000420257)
(0.0828012 0 0.000386144)
(0.082766 1.27061e-24 0.000371136)
(0.0827355 0 0.00033302)
(0.0826846 0 0.000329498)
(0.0826504 0 0.000287618)
(0.0825872 0 0.00029716)
(0.0825554 2.59963e-24 0.000248994)
(0.082483 -2.87693e-25 0.000273007)
(0.082458 1.35267e-24 0.000215121)
(0.0823763 0 0.000256222)
(0.0823611 1.03618e-24 0.000188698)
(0.0822685 0 0.000243316)
(0.0822632 4.43624e-29 0.000163112)
(0.0821597 2.65581e-25 0.000235413)
(0.0821666 0 0.00013744)
(0.0820522 0 0.000229825)
(0.0820762 -6.55088e-25 0.000116773)
(0.0819529 0 0.000230386)
(0.0819977 -6.97533e-25 9.65616e-05)
(0.0818631 5.85484e-25 0.000232981)
(0.0819314 0 7.72086e-05)
(0.0817825 0 0.000240221)
(0.0818764 3.95166e-25 5.62287e-05)
(0.0817065 2.70634e-24 0.00025608)
(0.081831 -4.94883e-25 3.42531e-05)
(0.0816296 -3.61247e-24 0.000281076)
(0.0817932 -7.40741e-26 4.19155e-06)
(0.0815448 0 0.000322641)
(0.0817698 -2.5469e-29 -3.2313e-05)
(0.0814664 0 0.000367757)
(0.0817622 1.83015e-24 -7.30312e-05)
(0.0814005 0 0.00041118)
(0.0817692 2.17023e-24 -0.0001157)
(0.0813528 9.27352e-24 0.000446425)
(0.0817829 0 -0.000155961)
(0.0813165 1.02385e-23 0.00046811)
(0.081793 5.39232e-24 -0.000191259)
(0.0812847 -2.17518e-23 0.000478883)
(0.0817926 0 -0.000218042)
(0.0812513 2.25997e-23 0.000482503)
(0.0817792 0 -0.000241483)
(0.0812158 7.9696e-28 0.000476765)
(0.0817512 1.20754e-23 -0.000257893)
(0.0811774 7.99107e-28 0.00046333)
(0.081709 -1.19814e-23 -0.00026695)
(0.0811357 7.87237e-28 0.000444845)
(0.0816542 4.03544e-28 -0.000271144)
(0.0810913 0 0.000416753)
(0.0815852 0 -0.000267621)
(0.0810424 0 0.000384315)
(0.0815024 0 -0.000257067)
(0.0809881 0 0.000349845)
(0.0814074 3.31335e-28 -0.000239116)
(0.0809275 0 0.000314336)
(0.0813043 0 -0.00021967)
(0.080863 -2.75401e-28 0.000281672)
(0.0811975 0 -0.000199717)
(0.0807971 6.76301e-24 0.000246899)
(0.0810879 0 -0.000176388)
(0.0807304 0 0.000215552)
(0.0809794 0 -0.000151347)
(0.0806643 0 0.000190181)
(0.0808759 -8.96012e-29 -0.000128596)
(0.0806008 0 0.000165176)
(0.0807775 0 -0.000103764)
(0.0805394 -1.82807e-24 0.000142955)
(0.080685 -9.20491e-25 -8.21147e-05)
(0.0804815 0 0.000125256)
(0.0805989 0 -5.9719e-05)
(0.0804266 6.55216e-25 0.000114434)
(0.080521 0 -4.02154e-05)
(0.0803757 0 0.000104494)
(0.0804508 1.24345e-25 -1.81425e-05)
(0.0803287 3.20492e-29 0.000101757)
(0.0803924 -4.54799e-26 1.04446e-05)
(0.0802985 -3.72763e-25 9.00487e-05)
(0.0803397 -8.70923e-26 5.01238e-05)
(0.0802942 -8.67835e-26 6.12351e-05)
(0.0802836 1.69732e-29 0.000115796)
(0.0803235 0 2.81795e-06)
(0.0802108 -2.02463e-24 0.000214168)
(0.0804002 -1.20219e-24 -8.18169e-05)
(0.080161 0 0.000302764)
(0.0805032 0 -0.000174576)
(0.0801382 0 0.000360383)
(0.0806045 0 -0.000261702)
(0.0801322 0 0.000395001)
(0.0806873 -8.1663e-28 -0.000337362)
(0.0801347 1.15867e-23 0.000388369)
(0.0807317 8.70554e-28 -0.000394291)
(0.0801395 1.14721e-23 0.000350729)
(0.0807247 0 -0.000414208)
(0.080136 0 0.000283479)
(0.0806609 0 -0.000403775)
(0.0801208 4.25123e-24 0.000197231)
(0.0805405 -6.15253e-28 -0.000360579)
(0.0800927 6.05433e-29 9.37093e-05)
(0.0803664 0 -0.000281947)
(0.0800502 0 1.81916e-06)
(0.0801728 0 -0.000183981)
(0.079995 3.20166e-29 -6.77131e-05)
(0.080016 0 -0.000129166)
(0.0799383 0 -0.000120492)
(0.0798863 -8.57469e-26 -8.88882e-05)
(0.0798786 0 -0.000156155)
(0.079777 0 -5.49665e-05)
(0.079818 6.46579e-29 -0.000176921)
(0.0796831 -2.74599e-25 -3.53733e-05)
(0.0797598 0 -0.000192872)
(0.0796019 0 -2.10417e-05)
(0.079705 0 -0.000199145)
(0.0795293 4.60166e-26 -5.10297e-06)
(0.0796539 1.71863e-24 -0.000204131)
(0.0794668 0 1.2647e-05)
(0.0796132 0 -0.000208383)
(0.0794138 0 3.56447e-05)
(0.0795859 0 -0.000218453)
(0.0793724 1.1252e-24 6.03307e-05)
(0.0795775 0 -0.000230622)
(0.0793398 1.3327e-24 9.00071e-05)
(0.0795869 0 -0.000248944)
(0.0793149 0 0.000117963)
(0.0796097 0 -0.000273491)
(0.0792971 3.5999e-24 0.000152937)
(0.0796443 0 -0.000307525)
(0.0792872 1.33249e-28 0.000182256)
(0.0796834 5.72225e-28 -0.000336398)
(0.0792806 2.93708e-28 0.000203852)
(0.0797211 0 -0.000369457)
(0.0792782 0 0.000218217)
(0.0797497 0 -0.00039194)
(0.0792748 0 0.000217979)
(0.0797617 0 -0.000407563)
(0.0792687 3.34423e-28 0.000211197)
(0.0797542 0 -0.000413811)
(0.0792583 0 0.000191418)
(0.079723 0 -0.000408604)
(0.0792425 1.52807e-28 0.000159444)
(0.0796665 -6.00269e-28 -0.000390364)
(0.0792212 3.85496e-24 0.000116664)
(0.0795842 -7.8333e-24 -0.000357846)
(0.0791952 0 7.24102e-05)
(0.0794813 0 -0.000310309)
(0.079165 0 2.36675e-05)
(0.0793723 0 -0.00025436)
(0.0791308 0 -1.27304e-05)
(0.0792763 1.09771e-28 -0.000213732)
(0.0790988 3.47054e-25 -3.69244e-05)
(0.0791997 9.87149e-25 -0.000178869)
(0.0790684 3.48117e-29 -5.48818e-05)
(0.0791404 -7.46816e-25 -0.000159096)
(0.0790434 0 -6.4352e-05)
(0.0790931 0 -0.000142655)
(0.0790231 0 -7.69292e-05)
(0.0790576 -2.97148e-25 -0.000128264)
(0.0790048 1.83204e-25 -8.4013e-05)
(0.0790308 2.77489e-25 -0.000124669)
(0.078991 1.09086e-29 -8.6818e-05)
(0.0790082 -2.14743e-25 -0.000119938)
(0.0789796 0 -9.36237e-05)
(0.0789901 -1.84577e-25 -0.000117744)
(0.0789698 3.28271e-26 -9.95383e-05)
(0.0789747 -1.20161e-25 -0.000114855)
(0.0789598 0 -0.000107981)
(0.0789626 0 -0.000115968)
(0.0789489 -1.20094e-26 -0.000108158)
(0.0789494 0 -0.000120065)
(0.0789388 0 -0.000111179)
(0.0789347 2.62581e-30 -0.000116901)
(0.0789247 1.14258e-30 -0.000115914)
(0.078919 0 -0.000122286)
(0.0789099 2.61514e-31 -0.000118551)
(0.0789001 6.811e-26 -0.000119849)
(0.0788904 -2.34362e-30 -0.00012223)
(0.0788794 0 -0.000123255)
(0.0788689 -2.45695e-30 -0.000125817)
(0.0788566 0 -0.000126585)
(0.0788453 0 -0.000129323)
(0.0788318 0 -0.000129768)
(0.0788195 0 -0.000132238)
(0.078805 0 -0.000132226)
(0.0787914 0 -0.000132314)
(0.0787753 0 -0.000136548)
(0.0787632 -2.22061e-25 -0.00014068)
(0.0787462 0 -0.000139562)
(0.0787324 0 -0.000142992)
(0.0787141 -8.71709e-26 -0.000139626)
(0.0786975 2.25915e-25 -0.000146868)
(0.0786796 0 -0.000148021)
(0.0786607 0 -0.000147548)
(0.0786393 -4.13098e-30 -0.00015273)
(0.0786198 -3.13163e-30 -0.000156077)
(0.0785956 0 -0.000153364)
(0.0785719 0 -0.000160257)
(0.0785468 -1.73741e-25 -0.000159868)
(0.0785192 0 -0.000164671)
(0.0784929 0 -0.000165718)
(0.0784614 -1.94976e-25 -0.000167001)
(0.0784334 3.30835e-25 -0.000175421)
(0.0784014 -1.94944e-25 -0.000172888)
(0.0783698 0 -0.000176876)
(0.0783371 4.05864e-30 -0.000180337)
(0.0783057 -3.57047e-25 -0.000186371)
(0.0782743 -2.03532e-30 -0.000185197)
(0.0782416 -2.66782e-25 -0.000186722)
(0.0782116 4.18214e-30 -0.000190727)
(0.0781811 3.07441e-30 -0.000192293)
(0.0781532 0 -0.000195874)
(0.0781253 0 -0.000199197)
(0.0781004 -1.66221e-30 -0.000198035)
(0.078073 1.61244e-30 -0.000197079)
(0.0780507 3.21614e-25 -0.000200876)
(0.0780268 -2.70064e-30 -0.000201896)
(0.078008 1.12625e-30 -0.000200884)
(0.077985 0 -0.000198355)
(0.0779686 -3.88046e-30 -0.000203992)
(0.0779491 1.54994e-25 -0.000198446)
(0.0779322 -2.30587e-30 -0.000201216)
(0.0779153 -1.31591e-25 -0.000197355)
(0.077898 1.48049e-30 -0.000198661)
(0.0778831 -1.33225e-25 -0.000196632)
(0.0778649 0 -0.000196676)
(0.0778519 1.81798e-25 -0.000198358)
(0.0778333 -5.79074e-26 -0.000193025)
(0.0778192 9.26799e-26 -0.00019265)
(0.0777996 0 -0.000191592)
(0.0777867 0 -0.000194316)
(0.0777668 0 -0.000188517)
(0.0777529 1.21035e-25 -0.000190431)
(0.0777329 -3.01562e-27 -0.00018444)
(0.0777185 -4.68899e-26 -0.000183747)
(0.077698 0 -0.000181441)
(0.0776857 0 -0.000184079)
(0.077666 2.43999e-30 -0.000176942)
(0.0776536 0 -0.000178606)
(0.0776349 -2.55357e-30 -0.000171721)
(0.0776228 2.61925e-26 -0.000172419)
(0.0776054 0 -0.000165626)
(0.0775942 -5.26739e-27 -0.000165493)
(0.0775783 1.04169e-25 -0.000158907)
(0.0775684 -4.00029e-31 -0.000159887)
(0.0775546 1.37995e-25 -0.00014921)
(0.0775443 -1.38872e-25 -0.000146098)
(0.0775323 -1.33967e-25 -0.000140188)
(0.0775239 -1.28671e-25 -0.000136992)
(0.0775144 2.94312e-30 -0.000131142)
(0.0775086 -1.40844e-25 -0.000129355)
(0.0775026 -1.67125e-25 -0.000119693)
(0.0774973 1.75478e-25 -0.000114574)
(0.077494 -1.72516e-25 -0.000112057)
(0.0774921 0 -0.000103133)
(0.0774882 0 -9.63417e-05)
(0.0774877 -1.3515e-30 -9.53023e-05)
(0.0774857 0 -8.49299e-05)
(0.0774835 1.33197e-25 -8.01304e-05)
(0.0774817 0 -7.7463e-05)
(0.0774804 0 -6.89592e-05)
(0.0774765 2.35944e-30 -6.28029e-05)
(0.0774752 -1.22303e-25 -6.23657e-05)
(0.0774719 8.23451e-26 -5.33431e-05)
(0.0774685 7.14523e-31 -5.16445e-05)
(0.0774656 0 -4.47539e-05)
(0.0774602 7.10268e-26 -4.1445e-05)
(0.0774576 0 -3.63328e-05)
(0.0774508 0 -3.27601e-05)
(0.0774484 0 -2.90541e-05)
(0.0774402 4.3581e-31 -2.50123e-05)
(0.0774384 2.3773e-31 -2.49908e-05)
(0.0774298 4.51134e-26 -1.50293e-05)
(0.0774258 2.49014e-26 -1.77308e-05)
(0.0774192 -1.88839e-26 -1.09875e-05)
(0.0774137 0 -1.2054e-05)
(0.0774093 1.61082e-31 -9.49473e-06)
(0.0774026 4.45344e-27 -3.12016e-06)
(0.0773967 5.74148e-27 -4.89342e-06)
(0.0773911 0 -1.53975e-06)
(0.0773846 0 4.34182e-06)
(0.077379 -6.32672e-34 1.34887e-06)
(0.0773718 7.60609e-27 6.90599e-06)
(0.0773682 0 9.0113e-06)
(0.0773609 0 8.32734e-06)
(0.0773566 -9.60233e-32 9.91018e-06)
(0.0773484 8.46423e-27 8.92009e-06)
(0.0773429 8.79704e-32 1.0486e-05)
(0.0773335 7.3591e-27 9.2483e-06)
(0.0773264 0 1.05491e-05)
(0.0773154 0 8.95503e-06)
(0.0773065 6.70879e-32 1.03316e-05)
(0.0772938 0 8.49562e-06)
(0.077283 7.56975e-27 1.07447e-05)
(0.0772696 -4.16821e-32 8.23333e-06)
(0.0772572 -8.18898e-27 1.22027e-05)
(0.077245 -1.451e-27 8.8774e-06)
(0.0772303 0 7.60084e-06)
(0.0772188 -3.91313e-27 1.01086e-05)
(0.077205 -2.57301e-32 8.24963e-06)
(0.0771944 0 1.06921e-05)
(0.0771817 3.22626e-32 8.59976e-06)
(0.0771719 -6.67044e-32 1.11334e-05)
(0.0771605 3.49636e-32 8.82705e-06)
(0.0771518 0 1.11491e-05)
(0.0771415 -2.4161e-27 8.64218e-06)
(0.0771338 0 1.08784e-05)
(0.0771248 3.68367e-27 8.15662e-06)
(0.0771183 -4.37818e-28 1.01102e-05)
(0.0771105 -1.00504e-31 7.11287e-06)
(0.0771052 0 8.93646e-06)
(0.0770983 -1.98144e-27 5.69255e-06)
(0.0770937 2.91758e-27 7.42378e-06)
(0.0770874 -7.04878e-32 3.95577e-06)
(0.0770829 0 6.09891e-06)
(0.0770774 2.41979e-27 3.65067e-06)
(0.0770725 2.32189e-27 -2.13354e-06)
(0.0770659 9.52664e-28 2.5688e-06)
(0.0770619 0 -3.70807e-06)
(0.0770551 0 1.18782e-06)
(0.0770504 -6.60047e-28 -2.11208e-06)
(0.0770436 -2.06712e-32 -2.82342e-06)
(0.0770396 7.16087e-27 -7.335e-06)
(0.0770328 -6.91353e-27 -1.03395e-05)
(0.0770296 -3.4754e-27 -1.15126e-05)
(0.0770196 0 -9.6241e-06)
(0.0770149 -1.25547e-26 -1.60391e-05)
(0.077004 0 -1.49055e-05)
(0.0769975 -3.28923e-31 -2.07897e-05)
(0.0769851 -5.76895e-32 -1.97105e-05)
(0.076977 -2.00522e-26 -2.51559e-05)
(0.0769635 0 -2.42008e-05)
(0.0769545 6.52148e-31 -2.91638e-05)
(0.0769404 0 -2.76254e-05)
(0.0769307 0 -3.14528e-05)
(0.0769167 0 -2.9253e-05)
(0.076907 -3.44653e-26 -3.05738e-05)
(0.0768925 0 -3.2801e-05)
(0.0768857 0 -3.82601e-05)
(0.0768715 1.40088e-31 -3.42319e-05)
(0.0768643 6.47346e-31 -3.92299e-05)
(0.07685 -3.06798e-26 -3.5647e-05)
(0.0768426 8.89631e-31 -4.21483e-05)
(0.0768286 1.83381e-26 -3.34794e-05)
(0.0768178 0 -3.5061e-05)
(0.0768033 1.26544e-31 -3.24149e-05)
(0.0767924 0 -3.39007e-05)
(0.0767777 1.43735e-31 -3.09291e-05)
(0.0767668 -2.53441e-31 -3.26834e-05)
(0.0767523 -1.37912e-26 -2.99926e-05)
(0.0767416 -5.70712e-31 -3.3688e-05)
(0.0767281 -4.61484e-31 -2.66336e-05)
(0.076715 1.71098e-32 -2.59982e-05)
(0.0767014 0 -2.47103e-05)
(0.076689 -1.98232e-27 -2.45637e-05)
(0.076676 0 -2.32517e-05)
(0.0766645 0 -2.52684e-05)
(0.0766521 0 -1.91589e-05)
(0.0766388 -1.71919e-31 -1.71031e-05)
(0.0766267 -9.55086e-32 -1.59544e-05)
(0.0766147 1.20022e-31 -1.44468e-05)
(0.0766026 0 -1.22458e-05)
(0.0765916 0 -1.12854e-05)
(0.0765799 -5.41629e-27 -8.66343e-06)
(0.0765696 -5.8835e-32 -9.18655e-06)
(0.0765591 0 -1.84201e-06)
(0.0765467 0 2.54095e-06)
(0.0765362 6.38797e-27 6.21578e-06)
(0.0765274 1.21974e-26 8.85669e-06)
(0.076519 1.15812e-26 1.01438e-05)
(0.0765131 0 1.94439e-05)
(0.0765102 2.88439e-26 1.93915e-05)
(0.0765054 -2.13063e-31 2.11893e-05)
(0.0765042 0 2.81159e-05)
(0.0765038 3.93125e-31 2.86699e-05)
(0.0765034 4.67366e-26 2.85612e-05)
(0.0765046 0 3.5947e-05)
(0.0765081 0 3.45307e-05)
(0.0765095 -4.24565e-31 3.5306e-05)
(0.0765147 6.59523e-26 3.9905e-05)
(0.0765189 4.45279e-26 3.91203e-05)
(0.0765251 0 4.49229e-05)
(0.0765333 -6.71371e-32 4.24433e-05)
(0.0765394 0 4.24319e-05)
(0.0765502 0 4.486e-05)
(0.0765586 -2.19696e-31 4.40838e-05)
(0.0765718 4.11341e-26 4.59027e-05)
(0.0765825 2.79784e-26 4.46517e-05)
(0.0765981 0 4.60105e-05)
(0.0766111 0 4.44817e-05)
(0.0766289 0 4.58364e-05)
(0.0766443 -1.55439e-26 4.40707e-05)
(0.076664 -2.46381e-26 4.53247e-05)
(0.0766814 0 4.32896e-05)
(0.0767027 -2.34145e-26 4.49844e-05)
(0.076722 1.38535e-32 4.2547e-05)
(0.076744 -2.05609e-26 4.49238e-05)
(0.076765 -2.45803e-31 4.07779e-05)
(0.0767858 5.93466e-31 4.44477e-05)
(0.0768093 -4.283e-31 4.61218e-05)
(0.0768297 -3.87929e-27 4.33016e-05)
(0.0768517 -1.80189e-26 4.59832e-05)
(0.0768717 -6.27684e-27 4.12052e-05)
(0.0768905 -1.43774e-26 4.47723e-05)
(0.0769115 -1.67127e-26 4.60287e-05)
(0.0769285 1.51614e-31 4.25029e-05)
(0.0769469 0 4.46784e-05)
(0.0769628 -2.35685e-26 3.89544e-05)
(0.0769771 -4.45834e-31 4.20827e-05)
(0.0769939 -9.94613e-28 4.25797e-05)
(0.0770062 -2.04926e-26 3.84439e-05)
(0.0770203 -1.67689e-31 3.94312e-05)
(0.0770312 7.24452e-31 3.3838e-05)
(0.0770413 -1.40098e-26 3.48951e-05)
(0.0770515 -2.49924e-27 3.77386e-05)
(0.0770619 0 3.11217e-05)
(0.0770668 3.18713e-31 2.73007e-05)
(0.0770744 0 2.80034e-05)
(0.0770774 0 2.32445e-05)
(0.0770808 -1.04793e-26 2.53857e-05)
(0.0770828 0 2.00667e-05)
(0.0770813 -2.02179e-26 1.49541e-05)
(0.07708 0 1.85364e-05)
(0.0770786 -1.78118e-31 1.31011e-05)
(0.0770733 -9.96329e-27 9.45876e-06)
(0.0770701 3.30229e-27 1.29783e-05)
(0.0770659 -8.14941e-27 9.24477e-06)
(0.0770596 0 5.59094e-06)
(0.0770543 1.2469e-27 1.09689e-05)
(0.0770498 -6.0332e-27 7.11297e-06)
(0.0770418 3.16185e-27 5.22739e-06)
(0.0770362 2.29196e-27 1.04812e-05)
(0.0770304 4.85784e-32 8.85509e-06)
(0.077023 0 6.74859e-06)
(0.0770161 0 1.43932e-05)
(0.0770117 0 1.26661e-05)
(0.0770036 0 1.33467e-05)
(0.0769981 0 2.19066e-05)
(0.0769931 2.53695e-31 2.39402e-05)
(0.0769869 0 2.6018e-05)
(0.0769833 -1.5264e-30 3.82223e-05)
(0.0769808 1.27192e-30 4.34149e-05)
(0.0769783 -1.21476e-30 4.81459e-05)
(0.0769761 0 6.78299e-05)
(0.0769823 0 7.35541e-05)
(0.0769797 0 9.11325e-05)
(0.076997 0 0.000108897)
(0.0769955 6.05956e-25 0.000124949)
(0.0770212 0 0.00015909)
(0.0770285 -6.40573e-25 0.000157142)
(0.0770513 1.69928e-24 0.000238579)
(0.0770972 0 0.000164454)
(0.0770678 0 0.000412063)
(0.0772578 0 7.57441e-05)
(0.0769959 2.46059e-23 0.000779428)
(0.077638 6.57346e-24 -0.000214481)
(0.0767872 0 0.00140837)
(0.0783923 7.18848e-23 -0.000843802)
(0.0765594 -4.03123e-22 0.00210037)
(0.079503 0 -0.00189824)
(0.076326 0 0.0026108)
(0.0808196 0 -0.00345748)
(0.0761298 6.97717e-22 0.00250585)
(0.081995 -1.44316e-25 -0.00548997)
(0.0760301 3.27896e-27 0.00118839)
(0.082379 0 -0.00781692)
(0.0761055 0 -0.00213481)
(0.0827187 3.3519e-25 -0.0129901)
(0.0756939 -1.10115e-20 -0.0117872)
(0.0818113 -1.04888e-24 -0.0325272)
(0.0508659 1.37227e-18 -0.0330621)
(0.032454 5.30175e-26 -6.4801e-05)
(0.0324545 9.69123e-24 -6.49447e-05)
(0.032449 -2.44313e-28 -6.49693e-05)
(0.032448 4.96097e-23 -6.47889e-05)
(0 0 0)
(0 0 0)
(0 0 0)
(0 0 0)
(0 0 0)
(0 0 0)
)
;

boundaryField
{
    inlet
    {
        type            calculated;
        value           uniform (0 0 0);
    }
    endWall
    {
        type            calculated;
        value           uniform (0 0 0);
    }
    sideWall
    {
        type            empty;
    }
}


// ************************************************************************* //
