/*--------------------------------*- C++ -*----------------------------------*\
| =========                 |                                                 |
| \\      /  F ield         | foam-extend: Open Source CFD                    |
|  \\    /   O peration     | Version:     3.2                                |
|   \\  /    A nd           | Web:         http://www.foam-extend.org         |
|    \\/     M anipulation  | For copyright notice see file Copyright         |
\*---------------------------------------------------------------------------*/
FoamFile
{
    version     2.0;
    format      ascii;
    class       areaScalarField;
    location    "840";
    object      Uf;
}
// * * * * * * * * * * * * * * * * * * * * * * * * * * * * * * * * * * * * * //

dimensions      [0 1 -1 0 0 0 0];

internalField   nonuniform List<scalar> 
550
(
0.00695301
0.00809961
0.00927761
0.010461
0.0116192
0.0127213
0.0137443
0.0146668
0.0154739
0.0161836
0.0167354
0.0172165
0.0175597
0.0178198
0.0179527
0.0180275
0.0180098
0.017975
0.0178175
0.0176935
0.0175973
0.0175007
0.0173734
0.0172309
0.0170577
0.0168953
0.0168258
0.0167088
0.0166112
0.0164709
0.0163697
0.0162837
0.0162367
0.0162332
0.0162496
0.0162625
0.0162649
0.0162636
0.0162667
0.0162625
0.0162593
0.016249
0.0162384
0.0162295
0.0162273
0.0162301
0.0162346
0.01624
0.0162438
0.0162486
0.0162529
0.0162587
0.0162644
0.0162712
0.016278
0.0162856
0.016293
0.0163009
0.0163089
0.0163172
0.0163252
0.0163332
0.0163406
0.0163477
0.0163541
0.0163597
0.0163646
0.0163686
0.0163719
0.0163738
0.0163749
0.0163744
0.0163729
0.0163696
0.0163657
0.01636
0.0163543
0.016347
0.0163405
0.0163324
0.0163257
0.0163174
0.0163107
0.0163024
0.0162956
0.0162872
0.0162808
0.0162725
0.0162665
0.0162588
0.0162535
0.0162465
0.0162418
0.0162354
0.0162313
0.0162253
0.0162218
0.0162158
0.0162128
0.0162065
0.0162042
0.0161981
0.0161966
0.0161912
0.0161905
0.016186
0.0161856
0.016182
0.0161814
0.0161783
0.0161772
0.0161742
0.0161724
0.0161696
0.0161671
0.0161642
0.016161
0.0161582
0.0161544
0.0161517
0.0161472
0.0161444
0.0161392
0.0161363
0.0161305
0.0161274
0.0161215
0.0161182
0.0161122
0.016109
0.0161028
0.0160996
0.0160935
0.0160903
0.0160845
0.0160815
0.016076
0.0160731
0.0160681
0.0160653
0.0160606
0.0160579
0.0160537
0.0160514
0.0160475
0.0160456
0.016042
0.0160412
0.0160378
0.0160386
0.0160346
0.0160374
0.0160328
0.0160374
0.0160337
0.0160388
0.0160365
0.016041
0.0160394
0.0160423
0.0160416
0.0160422
0.0160418
0.0160393
0.0160389
0.0160335
0.0160329
0.0160248
0.016024
0.0160137
0.0160121
0.0160014
0.015999
0.0159903
0.0159872
0.0159796
0.0159764
0.0159699
0.015967
0.0159617
0.0159586
0.0159541
0.0159511
0.0159473
0.0159448
0.0159415
0.0159397
0.015937
0.0159362
0.0159341
0.0159341
0.0159325
0.0159335
0.0159325
0.0159342
0.0159334
0.0159357
0.0159354
0.0159377
0.0159378
0.0159399
0.0159402
0.0159414
0.015942
0.0159423
0.0159427
0.0159418
0.0159422
0.0159401
0.0159405
0.0159372
0.0159375
0.0159333
0.0159334
0.0159285
0.0159286
0.0159236
0.0159236
0.0159195
0.0159193
0.0159162
0.0159161
0.0159141
0.015914
0.0159126
0.0159128
0.0159118
0.015912
0.0159114
0.0159115
0.015911
0.0159112
0.0159108
0.0159109
0.0159105
0.0159105
0.0159102
0.0159098
0.0159094
0.0159089
0.0159082
0.0159074
0.0159065
0.0159054
0.0159041
0.0159027
0.0159013
0.0158997
0.0158979
0.015896
0.0158941
0.0158919
0.0158897
0.0158874
0.0158852
0.0158828
0.0158802
0.0158776
0.0158748
0.0158721
0.0158692
0.0158661
0.015863
0.0158597
0.0158561
0.0158525
0.0158487
0.0158447
0.0158406
0.0158363
0.0158319
0.0158273
0.0158226
0.0158178
0.015813
0.0158081
0.0158032
0.0157984
0.0157938
0.0157892
0.0157847
0.0157803
0.0157761
0.0157721
0.0157683
0.0157647
0.0157612
0.0157581
0.0157552
0.0157523
0.0157497
0.0157473
0.0157451
0.015743
0.015741
0.0157391
0.0157373
0.0157356
0.0157341
0.0157326
0.0157311
0.0157298
0.0157286
0.0157276
0.0157267
0.0157259
0.0157252
0.0157245
0.0157241
0.0157237
0.0157235
0.0157235
0.0157235
0.0157237
0.0157239
0.0157245
0.0157251
0.015726
0.015727
0.0157281
0.0157294
0.0157309
0.0157324
0.0157341
0.015736
0.0157378
0.0157397
0.0157417
0.0157435
0.0157454
0.0157473
0.015749
0.0157508
0.0157524
0.015754
0.0157555
0.015757
0.0157584
0.0157597
0.0157609
0.015762
0.015763
0.015764
0.0157649
0.0157658
0.0157664
0.0157671
0.0157677
0.0157681
0.0157685
0.0157688
0.015769
0.0157693
0.0157694
0.0157694
0.0157693
0.015769
0.0157687
0.0157681
0.0157674
0.0157666
0.0157656
0.0157645
0.0157633
0.0157621
0.0157609
0.0157595
0.0157582
0.0157569
0.0157556
0.0157544
0.0157532
0.0157521
0.015751
0.01575
0.015749
0.0157481
0.0157473
0.0157465
0.0157457
0.0157449
0.0157442
0.0157434
0.0157426
0.0157419
0.015741
0.01574
0.015739
0.0157379
0.015737
0.0157359
0.0157348
0.0157334
0.0157318
0.0157303
0.0157286
0.0157268
0.0157248
0.0157227
0.0157205
0.0157181
0.0157157
0.0157132
0.0157107
0.0157082
0.0157058
0.0157035
0.0157011
0.0156987
0.0156963
0.0156939
0.0156914
0.0156889
0.0156866
0.0156843
0.0156822
0.0156801
0.0156781
0.0156762
0.0156743
0.0156724
0.0156708
0.0156692
0.0156677
0.0156663
0.0156648
0.0156634
0.0156622
0.0156611
0.0156601
0.0156592
0.0156584
0.0156577
0.0156569
0.0156561
0.0156556
0.0156553
0.0156552
0.015655
0.0156552
0.0156557
0.0156562
0.015657
0.015658
0.015659
0.0156603
0.0156618
0.0156633
0.0156651
0.0156669
0.015669
0.0156712
0.0156736
0.015676
0.0156787
0.0156814
0.0156844
0.0156874
0.0156906
0.0156939
0.0156974
0.0157009
0.0157045
0.0157082
0.0157119
0.0157157
0.0157195
0.0157233
0.0157271
0.015731
0.0157348
0.0157384
0.015742
0.0157457
0.0157492
0.0157527
0.0157559
0.015759
0.0157622
0.0157652
0.0157681
0.0157708
0.0157732
0.0157757
0.0157781
0.0157801
0.015782
0.0157837
0.0157851
0.0157864
0.0157873
0.0157882
0.0157889
0.0157892
0.0157896
0.0157898
0.0157898
0.0157899
0.0157899
0.0157897
0.0157895
0.0157895
0.0157892
0.015789
0.0157889
0.0157887
0.0157886
0.0157887
0.0157887
0.015789
0.0157896
0.0157901
0.0157912
0.0157927
0.0157943
0.0157973
0.0157989
0.015804
0.0158051
0.0158145
0.0158128
0.0158303
0.0158225
0.0158528
0.0158372
0.0158828
0.0158626
0.0159162
0.0158912
0.0159344
0.0159042
0.0159056
0.0158693
0.0157886
0.0157334
0.0155327
0.0153977
0.0147455
0.013884
0.0101414
0.00742479
0.00781243
0.00792073
0.00739989
0.00683236
0.00633578
0.0056411
0.0058806
0.00679431
0.00871631
)
;

boundaryField
{
    inlet
    {
        type            calculated;
        value           uniform 0;
    }
    endWall
    {
        type            calculated;
        value           uniform 0;
    }
    sideWall
    {
        type            empty;
    }
}


// ************************************************************************* //
