/*--------------------------------*- C++ -*----------------------------------*\
| =========                 |                                                 |
| \\      /  F ield         | foam-extend: Open Source CFD                    |
|  \\    /   O peration     | Version:     3.2                                |
|   \\  /    A nd           | Web:         http://www.foam-extend.org         |
|    \\/     M anipulation  | For copyright notice see file Copyright         |
\*---------------------------------------------------------------------------*/
FoamFile
{
    version     2.0;
    format      ascii;
    class       areaScalarField;
    location    "840";
    object      Uf2;
}
// * * * * * * * * * * * * * * * * * * * * * * * * * * * * * * * * * * * * * //

dimensions      [0 1 -1 0 0 0 0];

internalField   nonuniform List<scalar> 
550
(
0.0339033
0.0335753
0.0330204
0.0324159
0.0318259
0.0312065
0.0306495
0.0300803
0.029508
0.0291813
0.0283047
0.028134
0.0274247
0.0269841
0.0265534
0.0260775
0.0257032
0.0254179
0.0246989
0.0245134
0.0245027
0.0240872
0.0237385
0.0233202
0.0229576
0.0227529
0.0231596
0.0224335
0.0223994
0.0218937
0.022086
0.0221522
0.0223839
0.022571
0.0225936
0.0225473
0.0224285
0.0223591
0.0223648
0.0222843
0.02227
0.0221875
0.0221503
0.0221248
0.0221442
0.0221598
0.022152
0.0221512
0.0221331
0.0221311
0.0221184
0.0221187
0.0221095
0.0221107
0.0221064
0.0221095
0.0221079
0.0221132
0.0221161
0.0221209
0.0221206
0.0221229
0.022118
0.0221143
0.0221059
0.0220943
0.0220808
0.0220648
0.0220481
0.0220278
0.0220095
0.0219878
0.0219687
0.0219453
0.0219274
0.021901
0.0218845
0.0218552
0.0218421
0.0218119
0.0218025
0.0217718
0.0217659
0.0217364
0.0217317
0.0217023
0.0217002
0.0216704
0.0216705
0.0216417
0.0216439
0.0216164
0.0216186
0.0215931
0.0215987
0.021573
0.0215825
0.0215557
0.0215701
0.0215377
0.021559
0.0215243
0.0215486
0.0215146
0.0215389
0.0215087
0.0215292
0.0215054
0.0215193
0.0215018
0.0215083
0.0214964
0.0214972
0.0214898
0.0214838
0.0214812
0.0214692
0.0214712
0.0214544
0.0214612
0.0214384
0.0214493
0.0214223
0.0214361
0.0214061
0.0214222
0.0213912
0.0214072
0.0213768
0.0213931
0.0213619
0.0213778
0.0213476
0.0213622
0.0213349
0.0213487
0.0213225
0.0213356
0.0213121
0.0213231
0.0213019
0.0213113
0.0212935
0.0213023
0.0212848
0.0212941
0.0212761
0.0212925
0.0212676
0.0212962
0.0212567
0.0213042
0.0212475
0.0213118
0.0212514
0.0213142
0.0212612
0.0213096
0.0212676
0.0212977
0.0212725
0.0212772
0.0212692
0.0212466
0.0212592
0.0212125
0.0212416
0.0211751
0.0212185
0.0211371
0.0211869
0.021107
0.021154
0.0210946
0.0211234
0.0210779
0.0210974
0.0210623
0.0210777
0.0210499
0.0210557
0.0210361
0.0210369
0.0210212
0.0210223
0.0210077
0.0210106
0.0209958
0.0210029
0.0209869
0.0209972
0.0209799
0.0209946
0.0209763
0.0209936
0.0209726
0.0209937
0.0209727
0.0209907
0.0209735
0.0209882
0.0209738
0.0209809
0.020974
0.0209724
0.0209711
0.0209617
0.0209678
0.0209491
0.0209631
0.020935
0.0209566
0.0209203
0.0209473
0.0209062
0.0209382
0.0208961
0.0209267
0.0208934
0.0209165
0.0208912
0.0209093
0.0208916
0.0209032
0.02089
0.0209
0.0208881
0.0208952
0.0208876
0.0208905
0.0208848
0.0208876
0.020882
0.0208832
0.0208784
0.020879
0.020875
0.0208727
0.0208715
0.0208681
0.0208658
0.0208637
0.0208613
0.0208575
0.0208544
0.0208522
0.0208489
0.020846
0.0208424
0.020839
0.0208351
0.0208313
0.0208271
0.020823
0.0208197
0.0208155
0.0208103
0.0208055
0.0208007
0.0207973
0.0207923
0.0207866
0.0207824
0.020777
0.0207707
0.020766
0.0207601
0.020754
0.0207478
0.0207413
0.0207356
0.0207278
0.0207206
0.020714
0.0207064
0.0206978
0.0206895
0.0206822
0.020674
0.020666
0.0206578
0.0206488
0.0206405
0.0206334
0.0206257
0.0206175
0.0206103
0.0206042
0.0205971
0.0205908
0.0205852
0.0205797
0.0205748
0.02057
0.0205657
0.0205605
0.0205566
0.0205534
0.0205499
0.0205457
0.0205422
0.0205388
0.0205356
0.0205337
0.0205312
0.0205282
0.0205262
0.0205243
0.0205228
0.0205217
0.0205209
0.0205205
0.0205204
0.0205199
0.02052
0.0205217
0.0205229
0.0205244
0.0205262
0.0205275
0.0205295
0.0205327
0.0205348
0.0205385
0.0205433
0.0205461
0.0205512
0.0205564
0.0205603
0.0205659
0.0205721
0.0205765
0.0205825
0.0205878
0.0205936
0.0205995
0.0206054
0.0206113
0.020617
0.020623
0.0206272
0.0206338
0.0206389
0.0206444
0.0206498
0.0206541
0.02066
0.0206646
0.0206689
0.0206748
0.020679
0.0206839
0.0206896
0.0206942
0.0206987
0.0207028
0.0207068
0.0207106
0.0207141
0.0207174
0.0207204
0.0207231
0.0207257
0.0207276
0.0207303
0.0207323
0.020733
0.0207346
0.0207356
0.0207371
0.0207379
0.0207392
0.0207398
0.0207407
0.020741
0.0207416
0.0207418
0.020742
0.0207419
0.0207419
0.0207416
0.0207412
0.0207405
0.0207398
0.0207402
0.0207374
0.0207366
0.020735
0.0207335
0.0207337
0.0207329
0.0207315
0.0207291
0.0207269
0.020727
0.0207252
0.020724
0.0207218
0.0207201
0.0207174
0.020715
0.0207118
0.0207088
0.0207055
0.0207022
0.0206997
0.0206967
0.0206921
0.0206886
0.0206844
0.0206806
0.0206757
0.0206715
0.0206689
0.0206654
0.0206626
0.0206598
0.0206573
0.0206551
0.0206522
0.0206501
0.0206496
0.0206485
0.0206479
0.0206476
0.0206463
0.0206455
0.0206468
0.0206477
0.0206487
0.02065
0.0206512
0.0206531
0.020654
0.0206565
0.0206604
0.0206647
0.020669
0.0206722
0.0206784
0.0206842
0.0206886
0.020695
0.0207012
0.0207061
0.0207126
0.0207188
0.0207236
0.0207294
0.0207345
0.0207404
0.0207458
0.02075
0.0207549
0.0207593
0.0207637
0.0207678
0.0207717
0.0207754
0.020779
0.0207824
0.0207855
0.0207885
0.0207914
0.0207941
0.0207969
0.0207988
0.0208012
0.0208045
0.0208067
0.0208093
0.0208105
0.0208123
0.0208148
0.0208159
0.0208173
0.0208171
0.020817
0.0208182
0.0208178
0.0208178
0.0208167
0.0208148
0.0208155
0.0208151
0.0208123
0.0208114
0.0208092
0.020808
0.0208069
0.0208034
0.0208023
0.0208004
0.0207966
0.0207953
0.0207935
0.0207899
0.020789
0.020788
0.0207851
0.0207845
0.0207849
0.0207825
0.0207825
0.0207838
0.0207824
0.020784
0.0207863
0.0207859
0.0207899
0.0207939
0.0207961
0.020803
0.0208097
0.0208151
0.0208301
0.020826
0.0208597
0.0208356
0.0209088
0.0208325
0.0209926
0.02081
0.0211174
0.0207811
0.0212681
0.0207891
0.0213727
0.0207979
0.021322
0.0207695
0.0209757
0.0206431
0.0202158
0.0202816
0.0190484
0.0193656
0.0153975
0.0141006
0.0012028
0.00384884
6.0079e-05
0.00205862
0.000455108
0.00145969
0.000770153
0.00192586
0.00248981
0.00315654
0.00330541
)
;

boundaryField
{
    inlet
    {
        type            calculated;
        value           uniform 0;
    }
    endWall
    {
        type            calculated;
        value           uniform 0;
    }
    sideWall
    {
        type            empty;
    }
}


// ************************************************************************* //
