/*--------------------------------*- C++ -*----------------------------------*\
| =========                 |                                                 |
| \\      /  F ield         | foam-extend: Open Source CFD                    |
|  \\    /   O peration     | Version:     3.2                                |
|   \\  /    A nd           | Web:         http://www.foam-extend.org         |
|    \\/     M anipulation  | For copyright notice see file Copyright         |
\*---------------------------------------------------------------------------*/
FoamFile
{
    version     2.0;
    format      ascii;
    class       areaVectorField;
    location    "840";
    object      uNormal;
}
// * * * * * * * * * * * * * * * * * * * * * * * * * * * * * * * * * * * * * //

dimensions      [0 0 0 0 0 0 0];

internalField   nonuniform List<vector> 
550
(
(0.002 0 0.999998)
(0.002 0 0.999998)
(0.00199999 7.27914e-20 0.999998)
(0.00200002 -7.27918e-20 0.999998)
(0.00199996 -7.27918e-20 0.999998)
(0.00200001 0 0.999998)
(0.00199994 7.2791e-20 0.999998)
(0.002 7.2791e-20 0.999998)
(0.00200011 0 0.999998)
(0.00199994 0 0.999998)
(0.0078439 0 0.999969)
(-0.0091524 -2.91152e-19 0.999958)
(0.014305 0 0.999898)
(-0.0110798 2.91163e-19 0.999939)
(0.0141424 0 0.9999)
(-0.0105251 2.91149e-19 0.999945)
(0.011412 0 0.999935)
(-0.00886547 0 0.999961)
(0.0159874 0 0.999872)
(-0.025303 1.16435e-18 0.99968)
(0.0083223 0 0.999965)
(-0.0146284 0 0.999893)
(0.0129074 0 0.999917)
(-0.0128943 -5.82281e-19 0.999917)
(0.00681729 0 0.999977)
(-0.028128 -2.3284e-18 0.999604)
(-0.00296758 0 0.999996)
(-0.0095516 0 0.999954)
(-0.00892491 2.91153e-19 0.99996)
(-0.0129045 0 0.999917)
(-0.027074 0 0.999633)
(-0.0257145 0 0.999669)
(-0.0316445 1.16408e-18 0.999499)
(-0.0281288 -1.1642e-18 0.999604)
(-0.0257643 1.16427e-18 0.999668)
(-0.0211005 5.82232e-19 0.999777)
(-0.0193088 0 0.999814)
(-0.0192246 0 0.999815)
(-0.0188872 0 0.999822)
(-0.0165958 0 0.999862)
(-0.0173298 -5.82242e-19 0.99985)
(-0.0152811 0 0.999883)
(-0.0172347 0 0.999851)
(-0.016737 5.82248e-19 0.99986)
(-0.0182011 -5.82233e-19 0.999834)
(-0.0162612 0 0.999868)
(-0.0166505 0 0.999861)
(-0.0149303 0 0.999889)
(-0.0152853 -5.82261e-19 0.999883)
(-0.0140017 0 0.999902)
(-0.0141956 0 0.999899)
(-0.0131475 0 0.999914)
(-0.0131914 0 0.999913)
(-0.0123813 0 0.999923)
(-0.0123746 0 0.999923)
(-0.0117467 5.82353e-19 0.999931)
(-0.0116661 0 0.999932)
(-0.0112211 0 0.999937)
(-0.0110631 0 0.999939)
(-0.0106193 0 0.999944)
(-0.0103421 -2.91181e-19 0.999947)
(-0.00993141 0 0.999951)
(-0.00956119 0 0.999954)
(-0.00908432 -2.91025e-19 0.999959)
(-0.00862157 -2.91186e-19 0.999963)
(-0.0081027 2.91187e-19 0.999967)
(-0.00761488 -2.91188e-19 0.999971)
(-0.00710729 2.91189e-19 0.999975)
(-0.00664394 0 0.999978)
(-0.00617881 2.91191e-19 0.999981)
(-0.00579964 0 0.999983)
(-0.00536455 0 0.999986)
(-0.00507411 0 0.999987)
(-0.00466346 0 0.999989)
(-0.00448412 -1.45517e-19 0.99999)
(-0.00402508 0 0.999992)
(-0.00398497 0 0.999992)
(-0.00347991 0 0.999994)
(-0.00359811 0 0.999994)
(-0.00301607 -1.45518e-19 0.999995)
(-0.00330984 1.45598e-19 0.999995)
(-0.00260885 -7.27989e-20 0.999997)
(-0.00311037 0 0.999995)
(-0.0022911 -7.2799e-20 0.999997)
(-0.00295758 0 0.999996)
(-0.0019828 0 0.999998)
(-0.0028653 -7.27989e-20 0.999996)
(-0.0016727 0 0.999999)
(-0.00280095 0 0.999996)
(-0.00142274 3.63996e-20 0.999999)
(-0.00281119 0 0.999996)
(-0.00117761 3.63996e-20 0.999999)
(-0.00284597 7.27989e-20 0.999996)
(-0.000942357 0 1)
(-0.00293731 0 0.999996)
(-0.000686751 -1.81998e-20 1)
(-0.00313413 1.45518e-19 0.999995)
(-0.000418584 1.81998e-20 1)
(-0.00344329 -1.45597e-19 0.999994)
(-5.12457e-05 2.27497e-21 1)
(-0.00395657 0 0.999992)
(0.000395171 0 1)
(-0.00451417 0 0.99999)
(0.000893215 -3.63996e-20 1)
(-0.00505126 0 0.999987)
(0.00141496 -3.63996e-20 0.999999)
(-0.00548744 1.45596e-19 0.999985)
(0.00190701 0 0.999998)
(-0.00575654 1.45596e-19 0.999983)
(0.00233832 -7.2799e-20 0.999997)
(-0.00589132 -2.91192e-19 0.999983)
(0.00266578 0 0.999996)
(-0.00593831 2.91031e-19 0.999982)
(0.00295286 0 0.999996)
(-0.00587025 0 0.999983)
(0.00315459 -1.45598e-19 0.999995)
(-0.00570753 0 0.999984)
(0.00326707 1.45598e-19 0.999995)
(-0.00548265 0 0.999985)
(0.00332062 0 0.999994)
(-0.00513923 0 0.999987)
(0.00328024 0 0.999995)
(-0.0047421 0 0.999989)
(0.00315409 0 0.999995)
(-0.00431967 0 0.999991)
(0.00293727 0 0.999996)
(-0.00388414 0 0.999992)
(0.00270181 0 0.999996)
(-0.00348331 0 0.999994)
(0.00245964 0 0.999997)
(-0.00305578 1.45598e-19 0.999995)
(0.00217526 0 0.999998)
(-0.00267001 0 0.999996)
(0.00186896 0 0.999998)
(-0.00235767 0 0.999997)
(0.00159004 0 0.999999)
(-0.0020493 0 0.999998)
(0.00128457 0 0.999999)
(-0.00177497 -7.27991e-20 0.999998)
(0.00101772 3.63996e-20 0.999999)
(-0.00155633 0 0.999999)
(0.000740941 0 1)
(-0.00142284 3.63996e-20 0.999999)
(0.00049944 0 1)
(-0.00130007 0 0.999999)
(0.000225511 -9.09489e-21 1)
(-0.00126675 0 0.999999)
(-0.000129921 4.54995e-21 1)
(-0.00112142 -3.63996e-20 0.999999)
(-0.000623898 1.81998e-20 1)
(-0.000762634 -3.63996e-20 1)
(-0.00144233 0 0.999999)
(-3.50825e-05 0 1)
(-0.00267006 -7.27989e-20 0.999996)
(0.00101762 3.63996e-20 0.999999)
(-0.00377692 0 0.999993)
(0.00216855 0 0.999998)
(-0.00449697 0 0.99999)
(0.00324673 0 0.999995)
(-0.0049293 0 0.999988)
(0.00418106 0 0.999991)
(-0.0048464 1.45597e-19 0.999988)
(0.00488391 0 0.999988)
(-0.00437643 1.45597e-19 0.99999)
(0.00513105 0 0.999987)
(-0.00353745 0 0.999994)
(0.00500577 0 0.999987)
(-0.00246166 7.27589e-20 0.999997)
(0.00447695 0 0.99999)
(-0.00117001 0 0.999999)
(0.00350825 0 0.999994)
(-2.27253e-05 0 1)
(0.0022948 0 0.999997)
(0.000846466 0 1)
(0.00161425 0 0.999999)
(0.00150731 0 0.999999)
(0.00111268 -3.63996e-20 0.999999)
(0.00195491 0 0.999998)
(0.000689001 0 1)
(0.00221654 0 0.999998)
(0.000443925 -1.81998e-20 1)
(0.00241815 0 0.999997)
(0.000264337 0 1)
(0.00249852 0 0.999997)
(6.41647e-05 2.27372e-21 1)
(0.00256272 -7.27989e-20 0.999997)
(-0.000159149 0 1)
(0.00261744 0 0.999997)
(-0.000448847 0 1)
(0.00274487 0 0.999996)
(-0.000760096 3.63996e-20 1)
(0.00289806 0 0.999996)
(-0.00113445 3.63996e-20 0.999999)
(0.00312793 0 0.999995)
(-0.00148727 0 0.999999)
(0.00343538 0 0.999994)
(-0.00192866 7.2799e-20 0.999998)
(0.00386121 0 0.999993)
(-0.00229868 0 0.999997)
(0.00422164 0 0.999991)
(-0.00257126 0 0.999997)
(0.00463431 0 0.999989)
(-0.00275254 0 0.999996)
(0.00491457 0 0.999988)
(-0.00274966 0 0.999996)
(0.00510969 0 0.999987)
(-0.00266431 0 0.999996)
(0.00518851 0 0.999987)
(-0.00241511 0 0.999997)
(0.00512523 0 0.999987)
(-0.0020121 0 0.999998)
(0.00489992 0 0.999988)
(-0.00147264 7.27991e-20 0.999999)
(0.0044964 1.45597e-19 0.99999)
(-0.000914325 0 1)
(0.00390414 0 0.999992)
(-0.000298964 0 1)
(0.00320463 0 0.999995)
(0.000160877 0 1)
(0.00269602 0 0.999996)
(0.000466813 1.81998e-20 1)
(0.00225845 -7.2799e-20 0.999997)
(0.000694106 0 1)
(0.0020103 7.2799e-20 0.999998)
(0.000814135 0 1)
(0.00180363 0 0.999998)
(0.000973502 0 1)
(0.00162241 7.27991e-20 0.999999)
(0.00106339 3.63796e-20 0.999999)
(0.00157747 -7.27991e-20 0.999999)
(0.00109909 0 0.999999)
(0.00151805 7.27991e-20 0.999999)
(0.00118542 0 0.999999)
(0.00149061 7.27591e-20 0.999999)
(0.00126046 3.63996e-20 0.999999)
(0.00145433 7.27991e-20 0.999999)
(0.00136754 0 0.999999)
(0.00146865 0 0.999999)
(0.00136998 -3.63996e-20 0.999999)
(0.00152078 0 0.999999)
(0.00140841 0 0.999999)
(0.00148098 0 0.999999)
(0.00146867 0 0.999999)
(0.00154951 0 0.999999)
(0.00150236 0 0.999999)
(0.00151899 -7.27991e-20 0.999999)
(0.00154936 0 0.999999)
(0.00156257 0 0.999999)
(0.00159527 0 0.999999)
(0.00160525 0 0.999999)
(0.00164021 0 0.999999)
(0.00164614 0 0.999999)
(0.00167773 0 0.999999)
(0.00167788 0 0.999999)
(0.00167929 0 0.999999)
(0.00173338 0 0.999998)
(0.00178611 7.27991e-20 0.999998)
(0.0017723 0 0.999998)
(0.00181617 0 0.999998)
(0.00177383 7.27991e-20 0.999998)
(0.00186623 -7.2799e-20 0.999998)
(0.00188131 0 0.999998)
(0.00187575 0 0.999998)
(0.00194215 0 0.999998)
(0.00198521 0 0.999998)
(0.0019513 0 0.999998)
(0.00203962 0 0.999998)
(0.00203532 7.2799e-20 0.999998)
(0.0020972 0 0.999998)
(0.00211124 0 0.999998)
(0.00212845 7.2799e-20 0.999998)
(0.00223655 -7.2799e-20 0.999997)
(0.00220516 7.2759e-20 0.999998)
(0.00225693 0 0.999997)
(0.00230206 0 0.999997)
(0.00238003 7.2799e-20 0.999997)
(0.00236599 0 0.999997)
(0.00238647 7.27589e-20 0.999997)
(0.00243859 0 0.999997)
(0.00245958 0 0.999997)
(0.00250628 0 0.999997)
(0.00254971 0 0.999997)
(0.00253563 0 0.999997)
(0.00252428 0 0.999997)
(0.00257365 -7.27989e-20 0.999997)
(0.00258751 0 0.999997)
(0.00257516 0 0.999997)
(0.00254349 0 0.999997)
(0.00261632 0 0.999997)
(0.00254583 -7.27989e-20 0.999997)
(0.00258193 0 0.999997)
(0.00253294 7.27989e-20 0.999997)
(0.00255026 0 0.999997)
(0.0025247 7.27989e-20 0.999997)
(0.00252585 0 0.999997)
(0.00254788 -7.27989e-20 0.999997)
(0.00247997 7.27989e-20 0.999997)
(0.0024756 -7.2799e-20 0.999997)
(0.00246263 0 0.999997)
(0.00249805 0 0.999997)
(0.00242412 0 0.999997)
(0.00244917 -7.2799e-20 0.999997)
(0.00237273 -7.2799e-20 0.999997)
(0.00236426 7.2799e-20 0.999997)
(0.0023352 0 0.999997)
(0.00236952 0 0.999997)
(0.00227824 0 0.999997)
(0.00230003 0 0.999997)
(0.0022119 0 0.999998)
(0.00222124 -7.2799e-20 0.999998)
(0.0021342 0 0.999998)
(0.0021328 -7.2799e-20 0.999998)
(0.00204834 7.2799e-20 0.999998)
(0.00206124 0 0.999998)
(0.00192393 7.2799e-20 0.999998)
(0.00188406 -7.2799e-20 0.999998)
(0.00180812 -7.2759e-20 0.999998)
(0.00176709 -7.27991e-20 0.999998)
(0.00169184 0 0.999999)
(0.00166891 -7.27991e-20 0.999999)
(0.00154437 -7.27991e-20 0.999999)
(0.00147842 7.27591e-20 0.999999)
(0.00144601 -7.27991e-20 0.999999)
(0.00133088 0 0.999999)
(0.00124331 0 0.999999)
(0.0012299 0 0.999999)
(0.00109607 0 0.999999)
(0.00103416 3.63796e-20 0.999999)
(0.000999758 0 1)
(0.00089002 0 1)
(0.000810606 0 1)
(0.000804976 -3.63996e-20 1)
(0.000688547 1.81898e-20 1)
(0.000666652 0 1)
(0.000577726 0 1)
(0.000535049 1.81998e-20 1)
(0.000469067 0 1)
(0.00042298 0 1)
(0.000375142 0 1)
(0.000322989 0 1)
(0.000322719 0 1)
(0.000194102 9.0999e-21 1)
(0.000229004 9.0999e-21 1)
(0.000141922 -4.54745e-21 1)
(0.000155709 0 1)
(0.000122656 0 1)
(4.03108e-05 1.13749e-21 1)
(6.32251e-05 2.27497e-21 1)
(1.98956e-05 0 1)
(-5.61071e-05 0 1)
(-1.7432e-05 0 1)
(-8.92573e-05 2.27497e-21 1)
(-0.000116473 0 1)
(-0.000107643 0 1)
(-0.00012811 0 1)
(-0.000115324 4.54995e-21 1)
(-0.000135578 0 1)
(-0.00011959 4.54995e-21 1)
(-0.000136423 0 1)
(-0.000115825 0 1)
(-0.000133645 0 1)
(-0.000109913 0 1)
(-0.000139031 4.54995e-21 1)
(-0.000106553 0 1)
(-0.000157949 -4.54995e-21 1)
(-0.000114925 -4.54745e-21 1)
(-9.84179e-05 0 1)
(-0.000130908 -4.54995e-21 1)
(-0.000106854 0 1)
(-0.000138509 0 1)
(-0.000111422 0 1)
(-0.000144267 0 1)
(-0.000114399 0 1)
(-0.000144508 0 1)
(-0.00011203 4.54995e-21 1)
(-0.000141032 0 1)
(-0.000105759 -4.54745e-21 1)
(-0.0001311 4.54995e-21 1)
(-9.22426e-05 0 1)
(-0.0001159 0 1)
(-7.3835e-05 2.27497e-21 1)
(-9.62956e-05 -4.54995e-21 1)
(-5.13154e-05 0 1)
(-7.91214e-05 0 1)
(-4.73636e-05 -2.27497e-21 1)
(2.76822e-05 -1.13749e-21 1)
(-3.33325e-05 -1.13749e-21 1)
(4.81181e-05 0 1)
(-1.54152e-05 0 1)
(2.74117e-05 1.13749e-21 1)
(3.6647e-05 0 1)
(9.52107e-05 -4.54995e-21 1)
(0.000134222 4.54995e-21 1)
(0.000149457 4.54745e-21 1)
(0.000124957 0 1)
(0.000208259 9.0999e-21 1)
(0.000193567 0 1)
(0.000270005 0 1)
(0.00025603 0 1)
(0.000326798 9.0999e-21 1)
(0.000314445 0 1)
(0.000378975 0 1)
(0.000359049 0 1)
(0.000408846 0 1)
(0.000380321 0 1)
(0.000397542 1.81998e-20 1)
(0.000426583 0 1)
(0.000497623 0 1)
(0.000445313 0 1)
(0.000510379 0 1)
(0.000463852 1.81998e-20 1)
(0.000548502 0 1)
(0.000435768 -1.81998e-20 1)
(0.000456418 0 1)
(0.000422051 0 1)
(0.00044146 0 1)
(0.00040284 0 1)
(0.000425749 0 1)
(0.000390771 1.81998e-20 1)
(0.000438979 0 1)
(0.000347116 0 1)
(0.000338893 0 1)
(0.000322163 0 1)
(0.000320303 9.0999e-21 1)
(0.000303246 0 1)
(0.000329597 0 1)
(0.000249946 0 1)
(0.000223165 0 1)
(0.000208209 0 1)
(0.000188565 0 1)
(0.000159861 0 1)
(0.000147346 0 1)
(0.000113129 -4.54995e-21 1)
(0.000119976 0 1)
(2.406e-05 0 1)
(-3.31948e-05 0 1)
(-8.12137e-05 2.27497e-21 1)
(-0.000115732 4.54745e-21 1)
(-0.000132566 4.54995e-21 1)
(-0.000254126 0 1)
(-0.00025345 9.0999e-21 1)
(-0.000276965 0 1)
(-0.000367508 0 1)
(-0.000374751 0 1)
(-0.000373333 1.81998e-20 1)
(-0.000469868 0 1)
(-0.000451334 0 1)
(-0.00046146 0 1)
(-0.000521534 1.81898e-20 1)
(-0.00051125 1.81998e-20 1)
(-0.000587035 0 1)
(-0.000554573 0 1)
(-0.00055438 0 1)
(-0.000586021 0 1)
(-0.000575818 0 1)
(-0.000599473 1.81998e-20 1)
(-0.000583053 1.81998e-20 1)
(-0.000600673 0 1)
(-0.000580617 0 1)
(-0.00059816 0 1)
(-0.000575003 -1.81998e-20 1)
(-0.000591212 -1.81998e-20 1)
(-0.000564538 0 1)
(-0.000586477 -1.81998e-20 1)
(-0.000554561 0 1)
(-0.000585372 -1.81998e-20 1)
(-0.000531204 0 1)
(-0.000578853 0 1)
(-0.000600472 0 1)
(-0.000563605 -1.81998e-20 1)
(-0.000598337 -1.81898e-20 1)
(-0.000536026 1.81998e-20 1)
(-0.000582287 -1.81998e-20 1)
(-0.000598463 -1.81998e-20 1)
(-0.000552499 0 1)
(-0.000580639 0 1)
(-0.000506146 1.81998e-20 1)
(-0.000546691 0 1)
(-0.000553027 -1.81998e-20 1)
(-0.000499231 1.81998e-20 1)
(-0.000511958 0 1)
(-0.000439277 0 1)
(-0.00045294 1.81998e-20 1)
(-0.000489784 1.81998e-20 1)
(-0.000403853 0 1)
(-0.000354248 0 1)
(-0.00036333 0 1)
(-0.000301573 0 1)
(-0.000329338 9.0999e-21 1)
(-0.000260327 0 1)
(-0.000194005 9.0999e-21 1)
(-0.000240482 0 1)
(-0.000169971 0 1)
(-0.000122724 4.54995e-21 1)
(-0.000168396 -4.54995e-21 1)
(-0.000119959 4.54995e-21 1)
(-7.25534e-05 0 1)
(-0.000142353 -4.54745e-21 1)
(-9.23165e-05 4.54995e-21 1)
(-6.78514e-05 -2.27497e-21 1)
(-0.000136056 4.54995e-21 1)
(-0.000114956 0 1)
(-8.76178e-05 0 1)
(-0.000186885 0 1)
(-0.00016447 0 1)
(-0.000173326 0 1)
(-0.000284508 0 1)
(-0.00031094 0 1)
(-0.000337953 0 1)
(-0.000496501 0 1)
(-0.000563971 0 1)
(-0.000625447 0 1)
(-0.000881182 0 1)
(-0.000955468 0 1)
(-0.00118385 0 0.999999)
(-0.0014143 0 0.999999)
(-0.00162281 7.27991e-20 0.999999)
(-0.00206553 0 0.999998)
(-0.00204004 -7.2799e-20 0.999998)
(-0.00309634 1.45518e-19 0.999995)
(-0.00213307 0 0.999998)
(-0.00534668 0 0.999986)
(-0.000980406 0 1)
(-0.0101225 2.91182e-19 0.999949)
(0.00276256 -7.27989e-20 0.999996)
(-0.0183381 0 0.999832)
(0.0107632 -2.9118e-19 0.999942)
(-0.0274242 -1.16435e-18 0.999624)
(0.0238695 0 0.999715)
(-0.0341859 0 0.999415)
(0.0427411 0 0.999086)
(-0.0328977 1.16416e-18 0.999459)
(0.0668053 0 0.997766)
(-0.0156287 0 0.999878)
(0.0944654 0 0.995528)
(0.0280396 0 0.999607)
(0.155138 0 0.987893)
(0.153867 4.60366e-18 0.988092)
(0.369458 0 0.929247)
(0.61691 -2.93352e-17 0.787034)
(0.0019967 0 0.999998)
(0.0020011 7.2759e-20 0.999998)
(0.0020022 0 0.999998)
(0.0019967 -7.2799e-20 0.999998)
(0.0020022 0 0.999998)
(0.0019967 -7.2799e-20 0.999998)
(0.0020022 -7.2799e-20 0.999998)
(0.0020011 0 0.999998)
(0.0019967 0 0.999998)
(0.0020022 -7.2799e-20 0.999998)
)
;

boundaryField
{
    inlet
    {
        type            calculated;
        value           uniform (0 0 0);
    }
    endWall
    {
        type            calculated;
        value           uniform (0 0 0);
    }
    sideWall
    {
        type            empty;
    }
}


// ************************************************************************* //
