/*--------------------------------*- C++ -*----------------------------------*\
| =========                 |                                                 |
| \\      /  F ield         | foam-extend: Open Source CFD                    |
|  \\    /   O peration     | Version:     3.2                                |
|   \\  /    A nd           | Web:         http://www.foam-extend.org         |
|    \\/     M anipulation  | For copyright notice see file Copyright         |
\*---------------------------------------------------------------------------*/
FoamFile
{
    version     2.0;
    format      ascii;
    class       areaVectorField;
    location    "840";
    object      Utau;
}
// * * * * * * * * * * * * * * * * * * * * * * * * * * * * * * * * * * * * * //

dimensions      [0 1 -1 0 0 0 0];

internalField   nonuniform List<vector> 
550
(
(0.0695296 0 -0.000139059)
(0.0809956 0 -0.000161992)
(0.0927753 -2.39496e-23 -0.00018555)
(0.104609 2.72656e-23 -0.00020922)
(0.116191 3.2362e-23 -0.000232379)
(0.127211 4.89174e-29 -0.000254424)
(0.137442 -3.63249e-23 -0.000274876)
(0.146667 -3.99952e-23 -0.000293334)
(0.154738 6.44596e-29 -0.000309493)
(0.161835 -5.64496e-29 -0.000323661)
(0.167348 0 -0.0013127)
(0.172157 3.68555e-23 0.00157572)
(0.175575 -3.31166e-26 -0.00251185)
(0.178187 1.86315e-23 0.00197439)
(0.179506 1.88876e-26 -0.00253889)
(0.180265 1.79874e-24 0.00189742)
(0.180084 8.36249e-27 -0.00205526)
(0.179743 -1.21333e-26 0.00159357)
(0.178148 0 -0.0028485)
(0.176877 7.87599e-22 0.00447695)
(0.175965 7.63751e-27 -0.00146448)
(0.174988 1.51979e-26 0.00256007)
(0.173717 -8.97917e-27 -0.00224241)
(0.172295 4.44131e-23 0.00222181)
(0.170572 0 -0.00116287)
(0.168884 -1.92631e-21 0.00475225)
(0.168256 0 0.000499316)
(0.16708 -1.2461e-27 0.00159596)
(0.166105 -1.09689e-22 0.00148254)
(0.164695 0 0.00212549)
(0.163637 1.33108e-26 0.00443192)
(0.162783 2.12285e-27 0.00418727)
(0.162285 4.66232e-22 0.005138)
(0.162268 -1.84513e-22 0.00456622)
(0.162442 -4.4608e-23 0.00418659)
(0.162589 -1.02083e-22 0.00343147)
(0.162618 0 0.00314054)
(0.162606 0 0.00312661)
(0.162638 8.23074e-28 0.00307232)
(0.162603 0 0.0026989)
(0.162568 3.33989e-23 0.00281771)
(0.162471 -1.19918e-27 0.00248303)
(0.16236 0 0.00279865)
(0.162273 -9.64817e-24 0.00271634)
(0.162246 -2.56199e-23 0.00295356)
(0.16228 1.40729e-27 0.00263921)
(0.162323 0 0.00270314)
(0.162381 0 0.00242467)
(0.162419 7.84888e-24 0.00248292)
(0.16247 -1.10412e-27 0.00227508)
(0.162513 0 0.0023072)
(0.162573 0 0.00213761)
(0.16263 0 0.0021455)
(0.1627 -7.24041e-28 0.0020146)
(0.162768 7.40948e-29 0.00201434)
(0.162845 -7.74906e-24 0.00191302)
(0.162919 9.94399e-29 0.00190077)
(0.162999 -2.01694e-28 0.00182914)
(0.163079 0 0.00180427)
(0.163163 1.91048e-28 0.00173277)
(0.163243 -1.96124e-24 0.00168837)
(0.163324 0 0.00162212)
(0.163399 2.21219e-28 0.00156236)
(0.16347 3.84508e-24 0.00148507)
(0.163535 4.74994e-24 0.00140998)
(0.163591 -6.36249e-24 0.00132557)
(0.163641 6.77997e-24 0.00124615)
(0.163682 -7.73895e-24 0.00116337)
(0.163715 0 0.00108774)
(0.163735 -8.82123e-24 0.00101171)
(0.163746 0 0.000949685)
(0.163742 0 0.000878413)
(0.163727 -9.55321e-29 0.000830778)
(0.163694 0 0.000763388)
(0.163655 2.51241e-24 0.000733856)
(0.163599 0 0.000658503)
(0.163542 0 0.000651714)
(0.163469 0 0.000568861)
(0.163404 0 0.000587948)
(0.163324 5.14298e-24 0.000492598)
(0.163256 -5.69422e-25 0.000540356)
(0.163174 2.67676e-24 0.000425696)
(0.163106 0 0.000507324)
(0.163023 2.05099e-24 0.000373503)
(0.162956 0 0.000481956)
(0.162872 8.78326e-29 0.000322943)
(0.162807 5.26274e-25 0.000466494)
(0.162725 0 0.000272191)
(0.162665 0 0.000455617)
(0.162588 -1.29769e-24 0.000231321)
(0.162534 0 0.000456916)
(0.162465 -1.38205e-24 0.000191321)
(0.162417 1.1616e-24 0.000462235)
(0.162354 0 0.000152995)
(0.162313 0 0.000476764)
(0.162253 7.83094e-25 0.000111427)
(0.162217 5.37308e-24 0.000508412)
(0.162158 -9.80669e-25 6.78767e-05)
(0.162127 -7.17485e-24 0.000558256)
(0.162065 -1.4677e-25 8.30512e-06)
(0.162041 0 0.000641132)
(0.161981 -5.04525e-29 -6.40101e-05)
(0.161965 0 0.000731145)
(0.161912 3.62422e-24 -0.000144623)
(0.161903 0 0.000817823)
(0.16186 4.29592e-24 -0.000229026)
(0.161854 1.84499e-23 0.000888175)
(0.16182 0 -0.000308592)
(0.161811 2.03736e-23 0.00093149)
(0.161783 1.06658e-23 -0.000378301)
(0.161769 -4.32893e-23 0.000953047)
(0.161741 0 -0.000431169)
(0.161721 4.49821e-23 0.000960369)
(0.161695 0 -0.000477464)
(0.161668 1.58642e-27 0.000949046)
(0.161641 2.38759e-23 -0.000509914)
(0.161607 1.59086e-27 0.000922393)
(0.161581 -2.36934e-23 -0.000527898)
(0.161541 1.56739e-27 0.000885687)
(0.161516 7.98228e-28 -0.000536336)
(0.161469 0 0.00082984)
(0.161443 0 -0.000529575)
(0.16139 0 0.000765336)
(0.161362 0 -0.000508952)
(0.161304 0 0.000696785)
(0.161274 6.56397e-28 -0.000473706)
(0.161213 0 0.00062618)
(0.161182 0 -0.000435484)
(0.161121 -5.4874e-28 0.000561236)
(0.161089 0 -0.000396222)
(0.161027 1.34786e-23 0.000492066)
(0.160995 0 -0.000350208)
(0.160935 0 0.000429699)
(0.160902 0 -0.00030072)
(0.160845 0 0.000379221)
(0.160814 -1.78164e-28 -0.000255702)
(0.16076 0 0.000329446)
(0.160731 0 -0.00020647)
(0.16068 -3.64711e-24 0.000285203)
(0.160653 -1.8328e-24 -0.000163499)
(0.160606 0 0.000249955)
(0.160579 0 -0.00011898)
(0.160537 1.30786e-24 0.000228418)
(0.160514 0 -8.01672e-05)
(0.160475 0 0.000208629)
(0.160456 2.48e-25 -3.61845e-05)
(0.16042 6.40038e-29 0.000203213)
(0.160412 -9.07492e-26 2.08409e-05)
(0.160377 -7.44506e-25 0.000179851)
(0.160386 -1.73866e-25 0.000100064)
(0.160346 -1.73305e-25 0.000122285)
(0.160374 3.39056e-29 0.000231313)
(0.160328 0 5.62472e-06)
(0.160373 -4.04804e-24 0.000428208)
(0.160337 -2.39745e-24 -0.000163162)
(0.160387 0 0.000605774)
(0.160364 0 -0.000347759)
(0.160408 0 0.000721357)
(0.160393 0 -0.000520755)
(0.160421 0 0.000790775)
(0.160415 -1.62355e-27 -0.000670711)
(0.16042 2.31953e-23 0.00077747)
(0.160416 1.72982e-27 -0.000783468)
(0.160391 2.29603e-23 0.000701947)
(0.160387 0 -0.000822966)
(0.160334 0 0.000567175)
(0.160327 0 -0.000802569)
(0.160247 8.50277e-24 0.000394476)
(0.160238 -1.22407e-27 -0.000717385)
(0.160137 1.2105e-28 0.000187362)
(0.16012 0 -0.000561744)
(0.160014 0 3.63636e-06)
(0.15999 0 -0.000367147)
(0.159903 6.39983e-29 -0.000135352)
(0.159872 0 -0.000258074)
(0.159796 0 -0.000240862)
(0.159763 -1.71484e-25 -0.000177766)
(0.159698 0 -0.000312196)
(0.15967 0 -0.000110013)
(0.159616 1.293e-28 -0.000353798)
(0.159586 -5.49954e-25 -7.08441e-05)
(0.159541 0 -0.000385795)
(0.159511 0 -4.21647e-05)
(0.159472 0 -0.000398445)
(0.159448 9.22582e-26 -1.02309e-05)
(0.159414 3.43956e-24 -0.000408535)
(0.159397 0 2.53678e-05)
(0.159369 0 -0.00041714)
(0.159362 0 7.15291e-05)
(0.15934 0 -0.000437369)
(0.159341 2.25886e-24 0.000121115)
(0.159325 0 -0.000461735)
(0.159335 2.67641e-24 0.000180758)
(0.159324 0 -0.000498357)
(0.159342 0 0.000236984)
(0.159333 0 -0.000547373)
(0.159357 7.23442e-24 0.000307345)
(0.159353 0 -0.000615299)
(0.159376 2.67845e-28 0.000366356)
(0.159376 1.14452e-27 -0.000672836)
(0.159398 5.90518e-28 0.000409856)
(0.1594 0 -0.000738719)
(0.159414 0 0.000438794)
(0.159418 0 -0.000783481)
(0.159422 0 0.000438357)
(0.159425 0 -0.000814622)
(0.159418 6.7256e-28 0.000424739)
(0.15942 0 -0.000827162)
(0.159401 0 0.000384972)
(0.159403 0 -0.000816986)
(0.159372 3.07326e-28 0.000320673)
(0.159373 -1.20084e-27 -0.000780927)
(0.159332 7.75322e-24 0.000234639)
(0.159332 -1.56827e-23 -0.000716429)
(0.159284 0 0.000145638)
(0.159285 0 -0.000621876)
(0.159236 0 4.7606e-05)
(0.159235 0 -0.000510291)
(0.159195 0 -2.56109e-05)
(0.159193 2.20428e-28 -0.000429189)
(0.159162 6.98339e-25 -7.4299e-05)
(0.159161 1.98379e-24 -0.000359457)
(0.159141 7.00654e-29 -0.000110461)
(0.15914 -1.50174e-24 -0.00031992)
(0.159126 0 -0.00012955)
(0.159128 0 -0.000287009)
(0.159117 0 -0.000154901)
(0.159119 -5.98071e-25 -0.000258157)
(0.159114 3.68967e-25 -0.0001692)
(0.159114 5.58674e-25 -0.000250999)
(0.15911 2.1973e-29 -0.000174876)
(0.159112 -4.32462e-25 -0.000241539)
(0.159108 0 -0.000188609)
(0.159108 -3.71789e-25 -0.000237169)
(0.159105 6.61385e-26 -0.000200545)
(0.159105 -2.4208e-25 -0.000231391)
(0.159101 0 -0.000217578)
(0.159098 0 -0.000233659)
(0.159094 -2.42007e-26 -0.000217956)
(0.159089 0 -0.000241939)
(0.159082 0 -0.000224053)
(0.159074 5.2917e-30 -0.000235586)
(0.159065 2.30276e-30 -0.000233614)
(0.159054 0 -0.000246456)
(0.159041 5.27074e-31 -0.000238936)
(0.159027 1.37279e-25 -0.000241562)
(0.159012 -4.72382e-30 -0.000246368)
(0.158996 0 -0.000248443)
(0.158979 -4.95256e-30 -0.000253614)
(0.15896 0 -0.000255172)
(0.15894 0 -0.000260696)
(0.158919 0 -0.000261603)
(0.158897 0 -0.000266587)
(0.158874 0 -0.000266573)
(0.158851 0 -0.000266758)
(0.158828 0 -0.00027531)
(0.158802 -4.47719e-25 -0.000283639)
(0.158776 0 -0.000281398)
(0.158748 0 -0.000288314)
(0.158721 -1.75773e-25 -0.000281544)
(0.158692 4.55554e-25 -0.000296156)
(0.158661 0 -0.000298492)
(0.15863 0 -0.00029755)
(0.158597 -8.3312e-30 -0.000308019)
(0.158561 -6.31588e-30 -0.000314777)
(0.158525 0 -0.000309329)
(0.158486 0 -0.000323252)
(0.158447 -3.50475e-25 -0.000322491)
(0.158405 0 -0.000332209)
(0.158362 0 -0.000334342)
(0.158319 -3.9342e-25 -0.000336974)
(0.158272 6.67598e-25 -0.000353986)
(0.158225 -3.93424e-25 -0.000348913)
(0.158178 0 -0.000356998)
(0.15813 8.19269e-30 -0.000364025)
(0.158081 -7.20793e-25 -0.000376239)
(0.158031 -4.10921e-30 -0.000373902)
(0.157984 -5.38682e-25 -0.000377025)
(0.157937 8.44523e-30 -0.000385146)
(0.157892 6.20896e-30 -0.000388348)
(0.157847 0 -0.00039561)
(0.157803 0 -0.000402352)
(0.15776 -3.3576e-30 -0.000400023)
(0.15772 3.2574e-30 -0.000398132)
(0.157683 6.49743e-25 -0.000405821)
(0.157646 -5.4564e-30 -0.000407913)
(0.157612 2.27554e-30 -0.000405877)
(0.157581 0 -0.000400806)
(0.157551 -7.84124e-30 -0.000412205)
(0.157523 3.13217e-25 -0.000401028)
(0.157497 -4.66005e-30 -0.000406647)
(0.157473 -2.65956e-25 -0.00039887)
(0.15745 2.99242e-30 -0.000401541)
(0.157429 -2.69295e-25 -0.000397462)
(0.15741 0 -0.000397595)
(0.15739 3.67533e-25 -0.000401013)
(0.157372 -1.17084e-25 -0.00039028)
(0.157356 1.87405e-25 -0.000389552)
(0.157341 0 -0.000387473)
(0.157325 0 -0.000393008)
(0.157311 0 -0.000381342)
(0.157298 2.4486e-25 -0.00038525)
(0.157285 -6.10183e-27 -0.000373198)
(0.157276 -9.48891e-26 -0.000371841)
(0.157267 0 -0.000367251)
(0.157258 0 -0.000372628)
(0.157251 4.94026e-30 -0.000358256)
(0.157245 0 -0.000361669)
(0.15724 -5.17196e-30 -0.0003478)
(0.157237 5.30568e-26 -0.000349262)
(0.157235 0 -0.000335571)
(0.157234 -1.06737e-26 -0.00033535)
(0.157235 2.11128e-25 -0.000322071)
(0.157236 -8.10887e-31 -0.000324103)
(0.157239 2.79779e-25 -0.000302517)
(0.157244 -2.81604e-25 -0.000296259)
(0.157251 -2.71713e-25 -0.000284329)
(0.15726 -2.61012e-25 -0.000277892)
(0.15727 5.97132e-30 -0.000266076)
(0.157281 -2.85801e-25 -0.000262488)
(0.157294 -3.39185e-25 -0.000242919)
(0.157309 3.56195e-25 -0.000232569)
(0.157324 -3.50233e-25 -0.000227493)
(0.157341 0 -0.000209402)
(0.15736 0 -0.000195647)
(0.157378 -2.74489e-30 -0.000193559)
(0.157397 0 -0.000172518)
(0.157417 2.70604e-25 -0.000162794)
(0.157435 0 -0.000157397)
(0.157454 0 -0.000140137)
(0.157473 4.79563e-30 -0.000127648)
(0.15749 -2.48615e-25 -0.000126776)
(0.157508 1.67415e-25 -0.000108451)
(0.157524 1.45291e-30 -0.000105014)
(0.15754 0 -9.10149e-05)
(0.157555 1.4447e-25 -8.42998e-05)
(0.15757 0 -7.39108e-05)
(0.157584 0 -6.66548e-05)
(0.157597 0 -5.91212e-05)
(0.157609 8.86979e-31 -5.09061e-05)
(0.157619 4.8388e-31 -5.08667e-05)
(0.15763 9.1841e-26 -3.05964e-05)
(0.15764 5.06996e-26 -3.61002e-05)
(0.157649 -3.84533e-26 -2.23738e-05)
(0.157658 0 -2.45488e-05)
(0.157664 3.28085e-31 -1.93385e-05)
(0.157671 9.07177e-27 -6.35585e-06)
(0.157677 1.16969e-26 -9.96913e-06)
(0.157681 0 -3.13716e-06)
(0.157685 0 8.84726e-06)
(0.157688 -1.2893e-33 2.74882e-06)
(0.15769 1.55019e-26 1.4075e-05)
(0.157693 0 1.83669e-05)
(0.157694 0 1.69746e-05)
(0.157694 -1.95747e-31 2.02022e-05)
(0.157693 1.72563e-26 1.81857e-05)
(0.15769 1.79358e-31 2.13793e-05)
(0.157687 1.50055e-26 1.88577e-05)
(0.157681 0 2.15113e-05)
(0.157674 0 1.82626e-05)
(0.157666 1.36825e-31 2.10713e-05)
(0.157656 0 1.73285e-05)
(0.157645 1.54411e-26 2.19175e-05)
(0.157633 -8.50332e-32 1.67963e-05)
(0.157621 -1.67072e-26 2.48962e-05)
(0.157609 -2.96058e-27 1.81132e-05)
(0.157595 0 1.55102e-05)
(0.157582 -7.9856e-27 2.06288e-05)
(0.157569 -5.2513e-32 1.68368e-05)
(0.157556 0 2.1823e-05)
(0.157544 6.58546e-32 1.75539e-05)
(0.157532 -1.36165e-31 2.27268e-05)
(0.157521 7.13771e-32 1.80202e-05)
(0.15751 0 2.27616e-05)
(0.1575 -4.93296e-27 1.76448e-05)
(0.15749 0 2.22112e-05)
(0.157481 7.52171e-27 1.6655e-05)
(0.157473 -8.94009e-28 2.06447e-05)
(0.157465 -2.05235e-31 1.45249e-05)
(0.157457 0 1.82492e-05)
(0.157449 -4.04647e-27 1.16253e-05)
(0.157442 5.95832e-27 1.51609e-05)
(0.157434 -1.43956e-31 8.07879e-06)
(0.157426 0 1.24558e-05)
(0.157419 4.94206e-27 7.45595e-06)
(0.15741 4.74213e-27 -4.35745e-06)
(0.1574 1.94573e-27 5.24654e-06)
(0.15739 0 -7.57331e-06)
(0.157379 0 2.42602e-06)
(0.15737 -1.3481e-27 -4.31376e-06)
(0.157359 -4.22202e-32 -5.76674e-06)
(0.157348 1.46255e-26 -1.49812e-05)
(0.157334 -1.41204e-26 -2.11176e-05)
(0.157318 -7.09782e-27 -2.35122e-05)
(0.157303 0 -1.9656e-05)
(0.157286 -2.56402e-26 -3.27563e-05)
(0.157268 0 -3.0442e-05)
(0.157248 -6.71742e-31 -4.24577e-05)
(0.157227 -1.1782e-31 -4.02548e-05)
(0.157205 -4.09512e-26 -5.13741e-05)
(0.157181 0 -4.94249e-05)
(0.157157 1.33182e-30 -5.95585e-05)
(0.157132 0 -5.64182e-05)
(0.157107 0 -6.42325e-05)
(0.157082 0 -5.97415e-05)
(0.157058 -7.03845e-26 -6.24372e-05)
(0.157035 0 -6.69885e-05)
(0.157011 0 -7.81321e-05)
(0.156987 2.86086e-31 -6.99083e-05)
(0.156963 1.32193e-30 -8.01104e-05)
(0.156939 -6.26525e-26 -7.27963e-05)
(0.156914 1.81664e-30 -8.60675e-05)
(0.156889 3.74475e-26 -6.83671e-05)
(0.156866 0 -7.15964e-05)
(0.156843 2.58421e-31 -6.61958e-05)
(0.156822 0 -6.92305e-05)
(0.156801 2.93546e-31 -6.31658e-05)
(0.156781 -5.17604e-31 -6.67495e-05)
(0.156762 -2.81677e-26 -6.12582e-05)
(0.156743 -1.16567e-30 -6.88069e-05)
(0.156724 -9.42625e-31 -5.44015e-05)
(0.156708 3.49506e-32 -5.31071e-05)
(0.156692 0 -5.04803e-05)
(0.156677 -4.04991e-27 -5.01841e-05)
(0.156663 0 -4.75074e-05)
(0.156648 0 -5.16309e-05)
(0.156634 0 -3.91501e-05)
(0.156622 -3.5134e-31 -3.49526e-05)
(0.156611 -1.95203e-31 -3.26079e-05)
(0.156601 2.45327e-31 -2.95295e-05)
(0.156592 0 -2.50331e-05)
(0.156584 0 -2.3072e-05)
(0.156577 -1.10742e-26 -1.77134e-05)
(0.156569 -1.20305e-31 -1.87845e-05)
(0.156561 0 -3.76687e-06)
(0.156556 0 5.19686e-06)
(0.156553 1.30665e-26 1.27143e-05)
(0.156552 2.4952e-26 1.81181e-05)
(0.15655 2.3694e-26 2.07532e-05)
(0.156552 0 3.9784e-05)
(0.156557 5.90211e-26 3.96794e-05)
(0.156562 -4.36015e-31 4.33621e-05)
(0.15657 0 5.75406e-05)
(0.15658 8.04607e-31 5.86784e-05)
(0.15659 9.56624e-26 5.84602e-05)
(0.156603 0 7.35828e-05)
(0.156618 0 7.06871e-05)
(0.156633 -8.69189e-31 7.228e-05)
(0.156651 1.35026e-25 8.16986e-05)
(0.156669 9.11688e-26 8.00971e-05)
(0.15669 0 9.19824e-05)
(0.156712 -1.37472e-31 8.69084e-05)
(0.156736 0 8.6891e-05)
(0.15676 0 9.18649e-05)
(0.156787 -4.49922e-31 9.02806e-05)
(0.156814 8.42402e-26 9.4006e-05)
(0.156844 5.73007e-26 9.14481e-05)
(0.156874 0 9.42301e-05)
(0.156906 0 9.11023e-05)
(0.156939 0 9.38748e-05)
(0.156973 -3.18351e-26 9.02602e-05)
(0.157009 -5.04591e-26 9.28254e-05)
(0.157045 0 8.86578e-05)
(0.157082 -4.79512e-26 9.21248e-05)
(0.157119 2.83707e-32 8.71322e-05)
(0.157157 -4.21048e-26 9.19955e-05)
(0.157195 -5.03342e-31 8.35026e-05)
(0.157233 1.21523e-30 9.10146e-05)
(0.157271 -8.7697e-31 9.4437e-05)
(0.15731 -7.9429e-27 8.86604e-05)
(0.157348 -3.68922e-26 9.4147e-05)
(0.157384 -1.2851e-26 8.43621e-05)
(0.15742 -2.94352e-26 9.16638e-05)
(0.157457 -3.42149e-26 9.4232e-05)
(0.157492 3.10391e-31 8.70141e-05)
(0.157526 0 9.1466e-05)
(0.157559 -4.82497e-26 7.97478e-05)
(0.15759 -9.12728e-31 8.61532e-05)
(0.157622 -2.03617e-27 8.71692e-05)
(0.157652 -4.19537e-26 7.87047e-05)
(0.157681 -3.43303e-31 8.07261e-05)
(0.157708 1.48319e-30 6.92773e-05)
(0.157732 -2.86832e-26 7.14431e-05)
(0.157757 -5.11701e-27 7.72669e-05)
(0.157781 0 6.37204e-05)
(0.157801 6.52594e-31 5.59008e-05)
(0.15782 0 5.73408e-05)
(0.157837 0 4.75993e-05)
(0.157851 -2.14602e-26 5.19864e-05)
(0.157864 0 4.10964e-05)
(0.157873 -4.1409e-26 3.06282e-05)
(0.157882 0 3.79677e-05)
(0.157889 -3.64858e-31 2.68365e-05)
(0.157892 -2.04108e-26 1.93772e-05)
(0.157896 6.7655e-27 2.6589e-05)
(0.157898 -1.66971e-26 1.89414e-05)
(0.157898 0 1.14561e-05)
(0.157899 2.55512e-27 2.24774e-05)
(0.157899 -1.23639e-26 1.45767e-05)
(0.157897 6.48019e-27 1.07135e-05)
(0.157895 4.69765e-27 2.14825e-05)
(0.157895 9.95747e-32 1.81509e-05)
(0.157892 0 1.38341e-05)
(0.15789 0 2.95073e-05)
(0.157889 0 2.5968e-05)
(0.157887 0 2.73659e-05)
(0.157886 0 4.49198e-05)
(0.157887 5.20243e-31 4.90933e-05)
(0.157887 0 5.33583e-05)
(0.15789 -3.13059e-30 7.83925e-05)
(0.157896 2.60884e-30 8.90484e-05)
(0.157901 -2.49177e-30 9.87587e-05)
(0.157912 0 0.000139149)
(0.157927 0 0.000150894)
(0.157943 0 0.000186981)
(0.157972 0 0.00022342)
(0.157989 1.24338e-24 0.000256386)
(0.15804 0 0.000326437)
(0.158051 -1.31436e-24 0.000322431)
(0.158144 3.48768e-24 0.00048967)
(0.158128 0 0.000337297)
(0.1583 0 0.000846394)
(0.158225 0 0.000155125)
(0.158519 5.06586e-23 0.00160469)
(0.158371 1.3409e-23 -0.000437511)
(0.1588 0 0.00291259)
(0.158616 1.45449e-22 -0.00170732)
(0.159101 -8.37745e-22 0.00436485)
(0.158864 0 -0.00379307)
(0.159247 0 0.00544719)
(0.158889 0 -0.00679729)
(0.158965 1.45689e-21 0.00523241)
(0.158323 -2.7866e-25 -0.0106005)
(0.157863 6.80815e-27 0.00246748)
(0.156612 0 -0.0148608)
(0.155264 0 -0.00435526)
(0.15206 6.16174e-25 -0.0238794)
(0.145628 -2.11852e-20 -0.0226775)
(0.128584 -1.64854e-24 -0.0511236)
(0.0131523 2.93432e-18 -0.0103093)
(-0.0742047 0 0.000148165)
(0.0131015 5.6037e-21 -2.62175e-05)
(-0.0791794 0 0.000158533)
(0.072421 -1.10645e-21 -0.000144603)
(-0.0682062 0 0.000136562)
(-0.063357 -2.07231e-23 0.000126505)
(-0.056335 2.12945e-22 0.000112794)
(-0.058763 0 0.000117591)
(-0.0679404 0 0.000135657)
(-0.0857912 -1.12132e-21 0.000171771)
)
;

boundaryField
{
    inlet
    {
        type            calculated;
        value           uniform (0 0 0);
    }
    endWall
    {
        type            calculated;
        value           uniform (0 0 0);
    }
    sideWall
    {
        type            empty;
    }
}


// ************************************************************************* //
