/*--------------------------------*- C++ -*----------------------------------*\
| =========                 |                                                 |
| \\      /  F ield         | foam-extend: Open Source CFD                    |
|  \\    /   O peration     | Version:     3.2                                |
|   \\  /    A nd           | Web:         http://www.foam-extend.org         |
|    \\/     M anipulation  | For copyright notice see file Copyright         |
\*---------------------------------------------------------------------------*/
FoamFile
{
    version     2.0;
    format      ascii;
    class       areaVectorField;
    location    "840";
    object      Wt;
}
// * * * * * * * * * * * * * * * * * * * * * * * * * * * * * * * * * * * * * //

dimensions      [1 1 -2 0 0 0 0];

internalField   nonuniform List<vector> 
550
(
(5.45265e-10 0 -1.09053e-12)
(5.45267e-10 0 -1.09054e-12)
(5.45264e-10 1.98454e-26 -1.09052e-12)
(5.45271e-10 -1.98455e-26 -1.09055e-12)
(5.45256e-10 -1.98455e-26 -1.09049e-12)
(5.45268e-10 0 -1.09054e-12)
(5.4525e-10 1.98452e-26 -1.09047e-12)
(5.45265e-10 1.98452e-26 -1.09053e-12)
(5.45295e-10 0 -1.09065e-12)
(5.4525e-10 0 -1.09047e-12)
(2.13845e-09 0 -1.67743e-11)
(-2.49515e-09 -7.93746e-26 -2.28375e-11)
(3.89962e-09 0 -5.57897e-11)
(-3.02054e-09 7.93759e-26 -3.34689e-11)
(3.8553e-09 0 -5.45285e-11)
(-2.86935e-09 7.93725e-26 -3.02019e-11)
(3.1111e-09 0 -3.55062e-11)
(-2.41693e-09 0 -2.1428e-11)
(4.35816e-09 0 -6.96846e-11)
(-6.89623e-09 3.17339e-25 -1.74551e-10)
(2.26886e-09 0 -1.88828e-11)
(-3.98777e-09 0 -5.83409e-11)
(3.51869e-09 0 -4.54207e-11)
(-3.51513e-09 -1.58736e-25 -4.5329e-11)
(1.85858e-09 0 -1.26708e-11)
(-7.66561e-09 -6.34548e-25 -2.15704e-10)
(-8.09059e-10 0 -2.40096e-12)
(-2.60397e-09 0 -2.48732e-11)
(-2.43313e-09 7.9375e-26 -2.17164e-11)
(-3.51791e-09 0 -4.54007e-11)
(-7.37857e-09 0 -1.99841e-10)
(-7.00833e-09 0 -1.80276e-10)
(-8.62304e-09 3.17207e-25 -2.73009e-10)
(-7.66582e-09 -3.17274e-25 -2.15716e-10)
(-7.02188e-09 3.17314e-25 -1.80974e-10)
(-5.75143e-09 1.58701e-25 -1.21385e-10)
(-5.26324e-09 0 -1.01645e-10)
(-5.24031e-09 0 -1.00762e-10)
(-5.14837e-09 0 -9.72558e-11)
(-4.52396e-09 0 -7.50892e-11)
(-4.72399e-09 -1.58715e-25 -8.18782e-11)
(-4.16566e-09 0 -6.36634e-11)
(-4.69807e-09 0 -8.0982e-11)
(-4.56244e-09 1.58718e-25 -7.63723e-11)
(-4.96142e-09 -1.5871e-25 -9.03183e-11)
(-4.43275e-09 0 -7.20912e-11)
(-4.53886e-09 0 -7.55849e-11)
(-4.07004e-09 0 -6.07737e-11)
(-4.1668e-09 -1.58725e-25 -6.36983e-11)
(-3.81697e-09 0 -5.34494e-11)
(-3.86981e-09 0 -5.49399e-11)
(-3.58415e-09 0 -4.71267e-11)
(-3.59611e-09 0 -4.74418e-11)
(-3.37531e-09 0 -4.1794e-11)
(-3.37347e-09 0 -4.17484e-11)
(-3.20233e-09 1.58758e-25 -3.76195e-11)
(-3.18037e-09 0 -3.71052e-11)
(-3.05906e-09 0 -3.43283e-11)
(-3.01599e-09 0 -3.33683e-11)
(-2.89501e-09 0 -3.07448e-11)
(-2.81945e-09 -7.93815e-26 -2.91605e-11)
(-2.7075e-09 0 -2.68906e-11)
(-2.60658e-09 0 -2.49232e-11)
(-2.47659e-09 -7.93398e-26 -2.2499e-11)
(-2.35044e-09 -7.93841e-26 -2.02652e-11)
(-2.209e-09 7.93848e-26 -1.78994e-11)
(-2.07601e-09 -7.93854e-26 -1.5809e-11)
(-1.93764e-09 7.9386e-26 -1.37717e-11)
(-1.81132e-09 0 -1.20346e-11)
(-1.68452e-09 7.9387e-26 -1.04085e-11)
(-1.58115e-09 0 -9.17024e-12)
(-1.46254e-09 0 -7.84595e-12)
(-1.38336e-09 0 -7.0194e-12)
(-1.2714e-09 0 -5.92919e-12)
(-1.22251e-09 -3.96724e-26 -5.48194e-12)
(-1.09736e-09 0 -4.41702e-12)
(-1.08643e-09 0 -4.32941e-12)
(-9.48735e-10 0 -3.30153e-12)
(-9.80959e-10 0 -3.52962e-12)
(-8.22279e-10 -3.96728e-26 -2.48006e-12)
(-9.0237e-10 3.96946e-26 -2.98672e-12)
(-7.11257e-10 -1.98474e-26 -1.85557e-12)
(-8.47989e-10 0 -2.63758e-12)
(-6.24629e-10 -1.98474e-26 -1.43109e-12)
(-8.06331e-10 0 -2.38479e-12)
(-5.40577e-10 0 -1.07186e-12)
(-7.81175e-10 -1.98473e-26 -2.23831e-12)
(-4.56034e-10 0 -7.62809e-13)
(-7.63631e-10 0 -2.1389e-12)
(-3.87887e-10 9.92373e-27 -5.51863e-13)
(-7.66421e-10 0 -2.15456e-12)
(-3.21056e-10 9.92374e-27 -3.7808e-13)
(-7.75903e-10 1.98473e-26 -2.2082e-12)
(-2.56918e-10 0 -2.42108e-13)
(-8.00805e-10 0 -2.35222e-12)
(-1.87231e-10 -4.96187e-27 -1.28581e-13)
(-8.54464e-10 3.96728e-26 -2.67801e-12)
(-1.1412e-10 4.96188e-27 -4.77689e-14)
(-9.38752e-10 -3.96945e-26 -3.23242e-12)
(-1.39713e-11 6.20235e-28 -7.1597e-16)
(-1.07869e-09 0 -4.26794e-12)
(1.07737e-10 0 -4.25745e-14)
(-1.2307e-09 0 -5.55567e-12)
(2.4352e-10 -9.92374e-27 -2.17516e-13)
(-1.37713e-09 0 -6.9563e-12)
(3.85766e-10 -9.92373e-27 -5.45845e-13)
(-1.49604e-09 3.96938e-26 -8.20954e-12)
(5.19914e-10 0 -9.91481e-13)
(-1.5694e-09 3.96937e-26 -9.03447e-12)
(6.37504e-10 -1.98474e-26 -1.49069e-12)
(-1.60614e-09 -7.93873e-26 -9.46247e-12)
(7.26779e-10 0 -1.93744e-12)
(-1.61895e-09 7.93436e-26 -9.61401e-12)
(8.05045e-10 0 -2.37719e-12)
(-1.6004e-09 0 -9.39491e-12)
(8.60042e-10 -3.96946e-26 -2.71309e-12)
(-1.55604e-09 0 -8.88128e-12)
(8.90707e-10 3.96946e-26 -2.91001e-12)
(-1.49473e-09 0 -8.19523e-12)
(9.05308e-10 0 -3.0062e-12)
(-1.40111e-09 0 -7.20073e-12)
(8.943e-10 0 -2.93354e-12)
(-1.29284e-09 0 -6.13084e-12)
(8.59907e-10 0 -2.71224e-12)
(-1.17768e-09 0 -5.08722e-12)
(8.00795e-10 0 -2.35216e-12)
(-1.05894e-09 0 -4.1131e-12)
(7.36601e-10 0 -1.99016e-12)
(-9.49661e-10 0 -3.30798e-12)
(6.70578e-10 0 -1.64939e-12)
(-8.33104e-10 3.96946e-26 -2.54579e-12)
(5.93048e-10 0 -1.29004e-12)
(-7.27933e-10 0 -1.9436e-12)
(5.0954e-10 0 -9.52311e-13)
(-6.4278e-10 0 -1.51547e-12)
(4.33498e-10 0 -6.89281e-13)
(-5.58707e-10 0 -1.14496e-12)
(3.50216e-10 0 -4.49877e-13)
(-4.83916e-10 -1.98474e-26 -8.58938e-13)
(2.77464e-10 9.92374e-27 -2.8238e-13)
(-4.24306e-10 0 -6.6036e-13)
(2.02005e-10 0 -1.49674e-13)
(-3.87913e-10 9.92373e-27 -5.51937e-13)
(1.36164e-10 0 -6.80059e-14)
(-3.54443e-10 0 -4.60801e-13)
(6.14819e-11 -2.47957e-27 -1.38648e-14)
(-3.45359e-10 0 -4.37485e-13)
(-3.54207e-11 1.24047e-27 -4.60188e-15)
(-3.05738e-10 -9.92374e-27 -3.42862e-13)
(-1.70096e-10 4.96187e-27 -1.06122e-13)
(-2.0792e-10 -9.92375e-27 -1.58567e-13)
(-3.93229e-10 0 -5.67168e-13)
(-9.56467e-12 0 -3.35552e-16)
(-7.27946e-10 -1.98474e-26 -1.94367e-12)
(2.77437e-10 9.92374e-27 -2.82326e-13)
(-1.02971e-09 0 -3.88915e-12)
(5.91219e-10 0 -1.28209e-12)
(-1.22601e-09 0 -5.5134e-12)
(8.85163e-10 0 -2.8739e-12)
(-1.34388e-09 0 -6.62446e-12)
(1.13989e-09 0 -4.76599e-12)
(-1.32128e-09 3.96941e-26 -6.40351e-12)
(1.3315e-09 0 -6.50303e-12)
(-1.19315e-09 3.96943e-26 -5.2218e-12)
(1.39888e-09 0 -7.17782e-12)
(-9.64421e-10 0 -3.41161e-12)
(1.36472e-09 0 -6.83157e-12)
(-6.7113e-10 1.98365e-26 -1.6521e-12)
(1.22056e-09 0 -5.46443e-12)
(-3.18984e-10 0 -3.73215e-13)
(9.5646e-10 0 -3.35552e-12)
(-6.19568e-12 0 -1.40798e-16)
(6.25639e-10 0 -1.43572e-12)
(2.30775e-10 0 -1.95343e-13)
(4.40099e-10 0 -7.10433e-13)
(4.10943e-10 0 -6.19418e-13)
(3.03355e-10 -9.92374e-27 -3.37538e-13)
(5.32972e-10 0 -1.04191e-12)
(1.87845e-10 0 -1.29425e-13)
(6.04303e-10 0 -1.33947e-12)
(1.21029e-10 -4.96188e-27 -5.37277e-14)
(6.59268e-10 0 -1.59421e-12)
(7.20671e-11 0 -1.905e-14)
(6.81179e-10 0 -1.70195e-12)
(1.74934e-11 6.19894e-28 -1.12246e-15)
(6.98681e-10 -1.98474e-26 -1.79053e-12)
(-4.33893e-11 0 -6.90535e-15)
(7.13598e-10 0 -1.8678e-12)
(-1.22371e-10 0 -5.49258e-14)
(7.4834e-10 0 -2.0541e-12)
(-2.07228e-10 9.92375e-27 -1.57513e-13)
(7.90107e-10 0 -2.28979e-12)
(-3.09289e-10 9.92374e-27 -3.50873e-13)
(8.52775e-10 0 -2.66744e-12)
(-4.05479e-10 0 -6.03056e-13)
(9.36594e-10 0 -3.21757e-12)
(-5.25816e-10 1.98474e-26 -1.01412e-12)
(1.05269e-09 0 -4.06467e-12)
(-6.26696e-10 0 -1.44058e-12)
(1.15095e-09 0 -4.85895e-12)
(-7.01011e-10 0 -1.80249e-12)
(1.26346e-09 0 -5.85532e-12)
(-7.50432e-10 0 -2.0656e-12)
(1.33986e-09 0 -6.58493e-12)
(-7.49646e-10 0 -2.06128e-12)
(1.39306e-09 0 -7.11818e-12)
(-7.26377e-10 0 -1.9353e-12)
(1.41454e-09 0 -7.33947e-12)
(-6.58439e-10 0 -1.59021e-12)
(1.39729e-09 0 -7.16154e-12)
(-5.48565e-10 0 -1.10377e-12)
(1.33587e-09 0 -6.54573e-12)
(-4.0149e-10 1.98475e-26 -5.9125e-13)
(1.22586e-09 3.96942e-26 -5.512e-12)
(-2.49276e-10 0 -2.27919e-13)
(1.06439e-09 0 -4.15557e-12)
(-8.15077e-11 0 -2.43679e-14)
(8.73684e-10 0 -2.79985e-12)
(4.38606e-11 0 -7.05619e-15)
(7.35024e-10 0 -1.98165e-12)
(1.27269e-10 4.96188e-27 -5.94109e-14)
(6.15727e-10 -1.98474e-26 -1.39059e-12)
(1.89237e-10 0 -1.3135e-13)
(5.48075e-10 1.98474e-26 -1.1018e-12)
(2.2196e-10 0 -1.80706e-13)
(4.9173e-10 0 -8.86903e-13)
(2.65409e-10 0 -2.58377e-13)
(4.42323e-10 1.98475e-26 -7.1763e-13)
(2.89916e-10 9.91829e-27 -3.08293e-13)
(4.30071e-10 -1.98475e-26 -6.78427e-13)
(2.99648e-10 0 -3.29339e-13)
(4.1387e-10 1.98475e-26 -6.28274e-13)
(3.23184e-10 0 -3.83107e-13)
(4.0639e-10 1.98366e-26 -6.05771e-13)
(3.43643e-10 9.92374e-27 -4.33148e-13)
(3.96499e-10 1.98475e-26 -5.7664e-13)
(3.72838e-10 0 -5.09873e-13)
(4.00402e-10 0 -5.8805e-13)
(3.73501e-10 -9.92373e-27 -5.11688e-13)
(4.14615e-10 0 -6.3054e-13)
(3.83981e-10 0 -5.40805e-13)
(4.03765e-10 0 -5.97968e-13)
(4.00407e-10 0 -5.88065e-13)
(4.22448e-10 0 -6.54589e-13)
(4.09593e-10 0 -6.15356e-13)
(4.14128e-10 -1.98475e-26 -6.29059e-13)
(4.22407e-10 0 -6.54463e-13)
(4.26008e-10 0 -6.65668e-13)
(4.34923e-10 0 -6.93819e-13)
(4.37645e-10 0 -7.02533e-13)
(4.47177e-10 0 -7.33467e-13)
(4.48792e-10 0 -7.38773e-13)
(4.57406e-10 0 -7.67405e-13)
(4.57447e-10 0 -7.67545e-13)
(4.5783e-10 0 -7.68829e-13)
(4.72577e-10 0 -8.19158e-13)
(4.86953e-10 1.98474e-26 -8.69754e-13)
(4.83187e-10 0 -8.56353e-13)
(4.95149e-10 0 -8.99278e-13)
(4.83605e-10 1.98474e-26 -8.57833e-13)
(5.08795e-10 -1.98474e-26 -9.49529e-13)
(5.12909e-10 0 -9.64944e-13)
(5.11392e-10 0 -9.59244e-13)
(5.29495e-10 0 -1.02836e-12)
(5.41235e-10 0 -1.07447e-12)
(5.31989e-10 0 -1.03807e-12)
(5.56067e-10 0 -1.13416e-12)
(5.54897e-10 1.98474e-26 -1.1294e-12)
(5.71767e-10 0 -1.19911e-12)
(5.75595e-10 0 -1.21522e-12)
(5.80286e-10 1.98474e-26 -1.23511e-12)
(6.09758e-10 -1.98474e-26 -1.36376e-12)
(6.012e-10 1.98365e-26 -1.32575e-12)
(6.15315e-10 0 -1.38873e-12)
(6.27616e-10 0 -1.44481e-12)
(6.48876e-10 1.98474e-26 -1.54435e-12)
(6.45046e-10 0 -1.52618e-12)
(6.50631e-10 1.98365e-26 -1.55272e-12)
(6.64841e-10 0 -1.62128e-12)
(6.70563e-10 0 -1.64931e-12)
(6.83294e-10 0 -1.71253e-12)
(6.95134e-10 0 -1.77239e-12)
(6.91297e-10 0 -1.75288e-12)
(6.88202e-10 0 -1.73722e-12)
(7.01662e-10 -1.98474e-26 -1.80584e-12)
(7.05441e-10 0 -1.82534e-12)
(7.02072e-10 0 -1.80795e-12)
(6.93438e-10 0 -1.76376e-12)
(7.13295e-10 0 -1.86621e-12)
(6.94078e-10 -1.98474e-26 -1.76701e-12)
(7.03918e-10 0 -1.81747e-12)
(6.90563e-10 1.98474e-26 -1.74916e-12)
(6.95285e-10 0 -1.77317e-12)
(6.88315e-10 1.98474e-26 -1.73779e-12)
(6.8863e-10 0 -1.73938e-12)
(6.94636e-10 -1.98474e-26 -1.76985e-12)
(6.76122e-10 1.98474e-26 -1.67677e-12)
(6.74931e-10 -1.98474e-26 -1.67087e-12)
(6.71394e-10 0 -1.6534e-12)
(6.81051e-10 0 -1.7013e-12)
(6.60895e-10 0 -1.6021e-12)
(6.67725e-10 -1.98474e-26 -1.63538e-12)
(6.46885e-10 -1.98474e-26 -1.53489e-12)
(6.44574e-10 1.98474e-26 -1.52394e-12)
(6.36653e-10 0 -1.48672e-12)
(6.4601e-10 0 -1.53074e-12)
(6.21123e-10 0 -1.41507e-12)
(6.27063e-10 0 -1.44227e-12)
(6.03037e-10 0 -1.33386e-12)
(6.05584e-10 -1.98474e-26 -1.34515e-12)
(5.81852e-10 0 -1.24179e-12)
(5.81471e-10 -1.98474e-26 -1.24016e-12)
(5.58444e-10 1.98474e-26 -1.14388e-12)
(5.61962e-10 0 -1.15834e-12)
(5.24526e-10 1.98474e-26 -1.00915e-12)
(5.13657e-10 -1.98474e-26 -9.67763e-13)
(4.92953e-10 -1.98365e-26 -8.91317e-13)
(4.81767e-10 -1.98474e-26 -8.51327e-13)
(4.61252e-10 0 -7.80365e-13)
(4.55e-10 -1.98475e-26 -7.59355e-13)
(4.21046e-10 -1.98475e-26 -6.5025e-13)
(4.03067e-10 1.98366e-26 -5.95905e-13)
(3.94231e-10 -1.98475e-26 -5.70065e-13)
(3.62842e-10 0 -4.82898e-13)
(3.38967e-10 0 -4.2144e-13)
(3.35312e-10 0 -4.12401e-13)
(2.98826e-10 0 -3.27535e-13)
(2.81947e-10 9.91829e-27 -2.91578e-13)
(2.72568e-10 0 -2.72502e-13)
(2.42649e-10 0 -2.15963e-13)
(2.20998e-10 0 -1.79143e-13)
(2.19463e-10 -9.92375e-27 -1.76663e-13)
(1.87721e-10 4.95915e-27 -1.29255e-13)
(1.81752e-10 0 -1.21165e-13)
(1.57508e-10 0 -9.09962e-14)
(1.45872e-10 4.96187e-27 -7.80488e-14)
(1.27883e-10 0 -5.99858e-14)
(1.15318e-10 0 -4.87774e-14)
(1.02276e-10 0 -3.83681e-14)
(8.80576e-11 0 -2.84416e-14)
(8.79839e-11 0 -2.83941e-14)
(5.29188e-11 2.48094e-27 -1.02716e-14)
(6.24341e-11 2.48094e-27 -1.42976e-14)
(3.86926e-11 -1.23979e-27 -5.49133e-15)
(4.24516e-11 0 -6.61011e-15)
(3.34402e-11 0 -4.10166e-15)
(1.09901e-11 3.10117e-28 -4.4302e-16)
(1.72373e-11 6.20235e-28 -1.08983e-15)
(5.42422e-12 0 -1.07918e-16)
(-1.52967e-11 0 -8.58251e-16)
(-4.75255e-12 0 -8.28463e-17)
(-2.43345e-11 6.20235e-28 -2.17204e-15)
(-3.17544e-11 0 -3.69853e-15)
(-2.9347e-11 0 -3.15899e-15)
(-3.49272e-11 0 -4.47453e-15)
(-3.14411e-11 1.24047e-27 -3.6259e-15)
(-3.6963e-11 0 -5.01136e-15)
(-3.26042e-11 1.24047e-27 -3.89913e-15)
(-3.71934e-11 0 -5.07403e-15)
(-3.15777e-11 0 -3.65748e-15)
(-3.64362e-11 0 -4.86953e-15)
(-2.99661e-11 0 -3.29368e-15)
(-3.79044e-11 1.24047e-27 -5.26987e-15)
(-2.905e-11 0 -3.09537e-15)
(-4.30623e-11 -1.24047e-27 -6.80167e-15)
(-3.13325e-11 -1.23979e-27 -3.60089e-15)
(-2.6832e-11 0 -2.64075e-15)
(-3.56899e-11 -1.24047e-27 -4.6721e-15)
(-2.91319e-11 0 -3.11284e-15)
(-3.77623e-11 0 -5.23044e-15)
(-3.03775e-11 0 -3.38473e-15)
(-3.93321e-11 0 -5.67434e-15)
(-3.11889e-11 0 -3.56797e-15)
(-3.93978e-11 0 -5.69332e-15)
(-3.05432e-11 1.24047e-27 -3.42176e-15)
(-3.84501e-11 0 -5.42271e-15)
(-2.88334e-11 -1.23979e-27 -3.04939e-15)
(-3.57423e-11 1.24047e-27 -4.68583e-15)
(-2.51484e-11 0 -2.31976e-15)
(-3.15981e-11 0 -3.66221e-15)
(-2.01299e-11 6.20235e-28 -1.48629e-15)
(-2.62534e-11 -1.24047e-27 -2.52809e-15)
(-1.39903e-11 0 -7.17917e-16)
(-2.15712e-11 0 -1.70674e-15)
(-1.29129e-11 -6.20235e-28 -6.11602e-16)
(7.5471e-12 -3.10117e-28 -2.0892e-16)
(-9.08755e-12 -3.10117e-28 -3.02911e-16)
(1.31186e-11 0 -6.31243e-16)
(-4.20269e-12 0 -6.47851e-17)
(7.47335e-12 3.10117e-28 -2.04857e-16)
(9.99121e-12 0 -3.66148e-16)
(2.59576e-11 -1.24047e-27 -2.47145e-15)
(3.65933e-11 1.24047e-27 -4.91161e-15)
(4.07469e-11 1.23979e-27 -6.08989e-15)
(3.40674e-11 0 -4.25694e-15)
(5.67785e-11 2.48094e-27 -1.18246e-14)
(5.27729e-11 0 -1.02151e-14)
(7.36124e-11 0 -1.98757e-14)
(6.98023e-11 0 -1.78714e-14)
(8.90961e-11 2.48094e-27 -2.91164e-14)
(8.57283e-11 0 -2.69569e-14)
(1.03321e-10 0 -3.91561e-14)
(9.78889e-11 0 -3.5147e-14)
(1.11465e-10 0 -4.5572e-14)
(1.03688e-10 0 -3.94348e-14)
(1.08383e-10 4.96188e-27 -4.30869e-14)
(1.16301e-10 0 -4.9612e-14)
(1.35669e-10 0 -6.75119e-14)
(1.21407e-10 0 -5.40643e-14)
(1.39146e-10 0 -7.10174e-14)
(1.26462e-10 4.96188e-27 -5.86595e-14)
(1.4954e-10 0 -8.20231e-14)
(1.18805e-10 -4.96188e-27 -5.17714e-14)
(1.24435e-10 0 -5.67944e-14)
(1.15065e-10 0 -4.85634e-14)
(1.20357e-10 0 -5.31327e-14)
(1.09828e-10 0 -4.4243e-14)
(1.16073e-10 0 -4.94182e-14)
(1.06537e-10 4.96188e-27 -4.16317e-14)
(1.1968e-10 0 -5.25372e-14)
(9.46356e-11 0 -3.28496e-14)
(9.23936e-11 0 -3.13116e-14)
(8.78324e-11 0 -2.82964e-14)
(8.73254e-11 2.48094e-27 -2.79706e-14)
(8.2675e-11 0 -2.50708e-14)
(8.98593e-11 0 -2.96174e-14)
(6.81438e-11 0 -1.70323e-14)
(6.08422e-11 0 -1.35778e-14)
(5.67648e-11 0 -1.18189e-14)
(5.14091e-11 0 -9.69396e-15)
(4.35836e-11 0 -6.96734e-15)
(4.01714e-11 0 -5.91908e-15)
(3.08429e-11 -1.24047e-27 -3.48923e-15)
(3.27096e-11 0 -3.92438e-15)
(6.55958e-12 0 -1.57824e-16)
(-9.05003e-12 0 -3.00414e-16)
(-2.21416e-11 6.20235e-28 -1.7982e-15)
(-3.15525e-11 1.23979e-27 -3.65165e-15)
(-3.61419e-11 1.24047e-27 -4.79119e-15)
(-6.92832e-11 0 -1.76066e-14)
(-6.9099e-11 2.48094e-27 -1.75132e-14)
(-7.55099e-11 0 -2.09136e-14)
(-1.00195e-10 0 -3.68225e-14)
(-1.0217e-10 0 -3.82882e-14)
(-1.01783e-10 4.96188e-27 -3.79989e-14)
(-1.28102e-10 0 -6.01909e-14)
(-1.23049e-10 0 -5.55361e-14)
(-1.25809e-10 0 -5.8056e-14)
(-1.42188e-10 4.95915e-27 -7.41557e-14)
(-1.39384e-10 4.96188e-27 -7.12602e-14)
(-1.60045e-10 0 -9.39523e-14)
(-1.51195e-10 0 -8.38487e-14)
(-1.51143e-10 0 -8.37904e-14)
(-1.59769e-10 0 -9.36282e-14)
(-1.56987e-10 0 -9.03962e-14)
(-1.63437e-10 4.96187e-27 -9.79759e-14)
(-1.5896e-10 4.96187e-27 -9.26821e-14)
(-1.63764e-10 0 -9.83685e-14)
(-1.58296e-10 0 -9.19091e-14)
(-1.63079e-10 0 -9.75471e-14)
(-1.56765e-10 -4.96187e-27 -9.01403e-14)
(-1.61184e-10 -4.96187e-27 -9.52941e-14)
(-1.53912e-10 0 -8.68893e-14)
(-1.59893e-10 -4.96187e-27 -9.37738e-14)
(-1.51192e-10 0 -8.38452e-14)
(-1.59592e-10 -4.96187e-27 -9.34208e-14)
(-1.44824e-10 0 -7.69312e-14)
(-1.57815e-10 0 -9.13516e-14)
(-1.63709e-10 0 -9.83025e-14)
(-1.53658e-10 -4.96187e-27 -8.66022e-14)
(-1.63127e-10 -4.95915e-27 -9.76049e-14)
(-1.46139e-10 4.96187e-27 -7.83342e-14)
(-1.58751e-10 -4.96187e-27 -9.24386e-14)
(-1.63161e-10 -4.96187e-27 -9.76458e-14)
(-1.5063e-10 0 -8.32228e-14)
(-1.58302e-10 0 -9.19162e-14)
(-1.37992e-10 4.96188e-27 -6.98442e-14)
(-1.49046e-10 0 -8.14823e-14)
(-1.50774e-10 -4.96187e-27 -8.33819e-14)
(-1.36107e-10 4.96188e-27 -6.79488e-14)
(-1.39577e-10 0 -7.14576e-14)
(-1.19762e-10 0 -5.26085e-14)
(-1.23487e-10 4.96188e-27 -5.59321e-14)
(-1.33531e-10 4.96188e-27 -6.54015e-14)
(-1.10104e-10 0 -4.44658e-14)
(-9.65798e-11 0 -3.42132e-14)
(-9.90559e-11 0 -3.59899e-14)
(-8.2219e-11 0 -2.4795e-14)
(-8.97887e-11 2.48094e-27 -2.95709e-14)
(-7.0974e-11 0 -1.84765e-14)
(-5.28922e-11 2.48094e-27 -1.02614e-14)
(-6.55634e-11 0 -1.57668e-14)
(-4.63398e-11 0 -7.87642e-15)
(-3.34587e-11 1.24047e-27 -4.1062e-15)
(-4.59103e-11 -1.24047e-27 -7.73111e-15)
(-3.27049e-11 1.24047e-27 -3.92326e-15)
(-1.97805e-11 0 -1.43514e-15)
(-3.88103e-11 -1.23979e-27 -5.52478e-15)
(-2.51686e-11 1.24047e-27 -2.32348e-15)
(-1.84986e-11 -6.20235e-28 -1.25515e-15)
(-3.70933e-11 1.24047e-27 -5.04675e-15)
(-3.13408e-11 0 -3.60281e-15)
(-2.38876e-11 0 -2.09298e-15)
(-5.09513e-11 0 -9.52205e-15)
(-4.484e-11 0 -7.37482e-15)
(-4.72544e-11 0 -8.19039e-15)
(-7.75665e-11 0 -2.20683e-14)
(-8.47726e-11 0 -2.63592e-14)
(-9.21375e-11 0 -3.11382e-14)
(-1.35363e-10 0 -6.72078e-14)
(-1.53757e-10 0 -8.67147e-14)
(-1.70518e-10 0 -1.0665e-13)
(-2.4024e-10 0 -2.11695e-13)
(-2.60493e-10 0 -2.48892e-13)
(-3.22757e-10 0 -3.82096e-13)
(-3.85585e-10 0 -5.45332e-13)
(-4.42431e-10 1.98475e-26 -7.17981e-13)
(-5.63133e-10 0 -1.16317e-12)
(-5.56183e-10 -1.98474e-26 -1.13464e-12)
(-8.44164e-10 3.96728e-26 -2.61383e-12)
(-5.81544e-10 0 -1.24048e-12)
(-1.45767e-09 0 -7.79379e-12)
(-2.67292e-10 0 -2.62054e-13)
(-2.75958e-09 7.93819e-26 -2.79352e-11)
(7.53165e-10 -1.98474e-26 -2.08067e-12)
(-4.99875e-09 0 -9.1683e-11)
(2.93424e-09 -7.93808e-26 -3.15837e-11)
(-7.47394e-09 -3.17321e-25 -2.05044e-10)
(6.50577e-09 0 -1.55333e-10)
(-9.31478e-09 0 -3.18621e-10)
(1.1642e-08 0 -4.98048e-10)
(-8.96416e-09 3.17216e-25 -2.9506e-10)
(1.81727e-08 0 -1.21675e-09)
(-4.26038e-09 0 -6.65922e-11)
(2.56393e-08 0 -2.4329e-09)
(7.64153e-09 0 -2.1435e-10)
(4.17838e-08 0 -6.56169e-09)
(4.14498e-08 1.24017e-24 -6.45464e-09)
(9.36e-08 0 -3.72143e-08)
(1.32372e-07 -6.29452e-24 -1.03758e-07)
(5.44365e-10 0 -1.08693e-12)
(5.45565e-10 1.98365e-26 -1.09173e-12)
(5.45865e-10 0 -1.09293e-12)
(5.44365e-10 -1.98474e-26 -1.08693e-12)
(5.45865e-10 0 -1.09293e-12)
(5.44365e-10 -1.98474e-26 -1.08693e-12)
(5.45865e-10 -1.98474e-26 -1.09293e-12)
(5.45565e-10 0 -1.09173e-12)
(5.44365e-10 0 -1.08693e-12)
(5.45865e-10 -1.98474e-26 -1.09293e-12)
)
;

boundaryField
{
    inlet
    {
        type            calculated;
        value           uniform (0 0 0);
    }
    endWall
    {
        type            calculated;
        value           uniform (0 0 0);
    }
    sideWall
    {
        type            empty;
    }
}


// ************************************************************************* //
