/*--------------------------------*- C++ -*----------------------------------*\
| =========                 |                                                 |
| \\      /  F ield         | foam-extend: Open Source CFD                    |
|  \\    /   O peration     | Version:     3.2                                |
|   \\  /    A nd           | Web:         http://www.foam-extend.org         |
|    \\/     M anipulation  | For copyright notice see file Copyright         |
\*---------------------------------------------------------------------------*/
FoamFile
{
    version     2.0;
    format      ascii;
    class       areaScalarField;
    location    "840";
    object      zDimA;
}
// * * * * * * * * * * * * * * * * * * * * * * * * * * * * * * * * * * * * * //

dimensions      [0 1 0 0 0 0 0];

internalField   nonuniform List<scalar> 
550
(
0.00503636
0.00503637
0.00503636
0.00503636
0.00503637
0.00503638
0.00503636
0.00503621
0.00503514
0.005036
0.00512067
0.0050483
0.00514201
0.00494213
0.00499784
0.00488793
0.00490406
0.0048738
0.00500332
0.00523501
0.00492615
0.00505802
0.00502672
0.00507925
0.00496873
0.00539239
0.00498332
0.00510441
0.0051097
0.00520879
0.00546106
0.00546004
0.00556776
0.00550852
0.00546398
0.00538252
0.00535191
0.00535006
0.00534136
0.00530342
0.00531318
0.00528092
0.00531341
0.00530692
0.00532926
0.00529686
0.00530119
0.00527249
0.00527683
0.00525531
0.00525723
0.00523952
0.0052392
0.00522546
0.00522453
0.00521377
0.00521182
0.00520418
0.00520083
0.00519294
0.00518772
0.00518028
0.0051734
0.00516482
0.00515623
0.0051468
0.00513788
0.00512869
0.00512032
0.00511189
0.00510491
0.00509718
0.00509173
0.00508455
0.00508098
0.0050731
0.00507178
0.00506339
0.00506464
0.0050552
0.00505924
0.00504801
0.00505546
0.00504245
0.00505249
0.00503714
0.00505052
0.00503179
0.00504911
0.00502757
0.00504901
0.00502347
0.00504926
0.00501961
0.00505049
0.00501552
0.00505351
0.00501139
0.00505824
0.00500583
0.00506636
0.00500617
0.00507517
0.00500934
0.0050836
0.00501749
0.00509036
0.00502529
0.00509437
0.00503223
0.00509624
0.0050376
0.00509673
0.0050424
0.00509527
0.00504589
0.00509237
0.005048
0.00508855
0.00504919
0.00508272
0.00504893
0.00507616
0.00504732
0.00506929
0.00504416
0.00506222
0.00504072
0.00505574
0.00503716
0.00504886
0.00503286
0.00504272
0.00502815
0.00503782
0.00502384
0.00503296
0.00501905
0.00502866
0.00501489
0.00502532
0.00501048
0.00502336
0.00500657
0.00502162
0.00500209
0.00502151
0.00500353
0.00501968
0.00501143
0.00501465
0.00502436
0.0050039
0.00504379
0.00501375
0.00506107
0.00503186
0.0050719
0.00504917
0.00507805
0.00506444
0.00507576
0.00507649
0.00506749
0.00508121
0.00505345
0.00508015
0.00503594
0.00507256
0.00501527
0.00505778
0.0050044
0.0050387
0.00501716
0.0050283
0.00502747
0.00502065
0.0050344
0.00501405
0.00503829
0.00501023
0.00504139
0.00500746
0.00504252
0.00500417
0.00504334
0.00500337
0.00504399
0.00500404
0.0050458
0.00500911
0.00504797
0.00501515
0.00505139
0.00502073
0.00505618
0.00502766
0.0050628
0.00503347
0.00506843
0.00503759
0.00507507
0.00504028
0.00507958
0.00503998
0.00508289
0.00503847
0.00508433
0.0050343
0.00508358
0.00502776
0.00508031
0.00501915
0.00507412
0.00501045
0.0050648
0.00500526
0.00505376
0.00500671
0.00504572
0.00501122
0.0050387
0.00501453
0.0050348
0.00501624
0.00503145
0.00501867
0.00502858
0.00501997
0.00502795
0.0050205
0.00502698
0.00502189
0.00502664
0.00502312
0.00502611
0.00502489
0.00502649
0.00502495
0.00502739
0.00502567
0.00502675
0.00502664
0.00502799
0.0050273
0.00502751
0.00502804
0.00502831
0.00502887
0.00502908
0.0050297
0.00502983
0.00503038
0.00503041
0.00503045
0.00503137
0.00503232
0.00503216
0.00503287
0.00503222
0.00503373
0.00503412
0.00503402
0.00503514
0.00503596
0.00503544
0.00503691
0.00503693
0.00503797
0.00503828
0.0050386
0.00504044
0.00504007
0.00504089
0.00504172
0.0050431
0.00504296
0.00504331
0.0050442
0.00504462
0.00504543
0.00504623
0.00504604
0.00504586
0.00504666
0.00504695
0.00504676
0.00504621
0.00504746
0.00504626
0.00504681
0.00504608
0.0050463
0.00504582
0.00504585
0.00504619
0.00504513
0.00504497
0.00504469
0.00504534
0.0050441
0.00504442
0.00504315
0.00504291
0.00504243
0.00504301
0.00504144
0.00504172
0.00504024
0.00504026
0.00503881
0.00503868
0.00503727
0.00503734
0.00503507
0.0050342
0.00503287
0.00503206
0.00503074
0.00503028
0.00502817
0.00502687
0.00502626
0.00502424
0.00502266
0.0050223
0.00502
0.00501877
0.00501809
0.00501626
0.00501478
0.00501459
0.00501262
0.0050121
0.0050105
0.00500969
0.00500856
0.00500765
0.00500675
0.00500586
0.00500579
0.0050036
0.00500403
0.00500262
0.00500276
0.00500216
0.00500074
0.00500099
0.00500032
0.00500088
0.00500035
0.00500156
0.00500204
0.00500193
0.00500219
0.00500199
0.00500231
0.00500213
0.00500237
0.00500208
0.0050023
0.00500195
0.00500242
0.00500195
0.00500276
0.00500194
0.0050017
0.00500224
0.00500189
0.0050024
0.00500193
0.00500248
0.00500205
0.00500248
0.005002
0.00500241
0.0050019
0.00500224
0.00500164
0.00500196
0.0050013
0.00500155
0.00500084
0.00500127
0.00500063
0.00500027
0.00500038
0.00500065
0.00500014
0.00500036
0.00500056
0.00500154
0.00500232
0.00500263
0.00500217
0.00500362
0.00500345
0.00500468
0.00500458
0.00500579
0.00500567
0.00500667
0.00500641
0.0050073
0.00500689
0.00500714
0.00500765
0.00500889
0.00500811
0.00500908
0.00500841
0.00500974
0.005008
0.00500819
0.00500763
0.00500791
0.0050073
0.00500757
0.00500703
0.00500783
0.00500636
0.00500605
0.00500578
0.00500574
0.00500546
0.00500585
0.00500455
0.00500399
0.0050037
0.00500335
0.00500284
0.00500259
0.005002
0.00500207
0.00500045
0.00500057
0.00500141
0.00500202
0.00500236
0.00500451
0.00500453
0.00500505
0.00500659
0.0050067
0.00500681
0.00500841
0.00500811
0.00500836
0.00500936
0.00500928
0.00501053
0.00500998
0.00501
0.00501055
0.00501039
0.00501077
0.00501052
0.00501078
0.00501038
0.00501075
0.00501037
0.00501061
0.00501018
0.00501051
0.00501003
0.00501047
0.0050096
0.00501045
0.00501075
0.00501018
0.0050107
0.00500969
0.0050105
0.00501071
0.00500997
0.00501036
0.00500914
0.00500984
0.00500988
0.00500899
0.0050091
0.0050079
0.00500817
0.00500869
0.00500717
0.00500634
0.00500643
0.0050054
0.0050058
0.00500454
0.00500347
0.00500417
0.00500292
0.00500218
0.00500288
0.00500201
0.00500129
0.00500241
0.00500153
0.0050012
0.00500233
0.00500194
0.0050016
0.00500326
0.00500288
0.00500317
0.00500509
0.00500557
0.00500623
0.00500899
0.00501021
0.00501157
0.00501599
0.00501754
0.0050217
0.00502586
0.00502995
0.00503739
0.00503832
0.00505496
0.00504279
0.00509151
0.00502942
0.0051676
0.00503379
0.00529703
0.00515909
0.00543506
0.00537037
0.0055277
0.00568401
0.00547856
0.00609739
0.00515539
0.00659632
0.00560625
0.00772548
0.0078962
0.0121456
0.019661
0.00674715
0.00502088
0.00504372
0.0050383
0.00503733
0.00503679
0.00503668
0.00503657
0.00503639
0.00503644
)
;

boundaryField
{
    inlet
    {
        type            calculated;
        value           uniform 0;
    }
    endWall
    {
        type            calculated;
        value           uniform 0;
    }
    sideWall
    {
        type            empty;
    }
}


// ************************************************************************* //
