/*--------------------------------*- C++ -*----------------------------------*\
| =========                 |                                                 |
| \\      /  F ield         | foam-extend: Open Source CFD                    |
|  \\    /   O peration     | Version:     3.2                                |
|   \\  /    A nd           | Web:         http://www.foam-extend.org         |
|    \\/     M anipulation  | For copyright notice see file Copyright         |
\*---------------------------------------------------------------------------*/
FoamFile
{
    version     2.0;
    format      ascii;
    class       surfaceScalarField;
    location    "120";
    object      AdSS2;
}
// * * * * * * * * * * * * * * * * * * * * * * * * * * * * * * * * * * * * * //

dimensions      [0 3 -1 0 0 0 0];

internalField   nonuniform List<scalar> 
65390
(
3.7389e-05
4.71538e-07
3.68037e-05
4.45813e-07
3.6084e-05
5.80214e-07
3.53727e-05
5.71809e-07
3.46347e-05
5.98572e-07
3.39498e-05
5.45449e-07
3.32763e-05
5.34029e-07
3.26524e-05
4.84453e-07
3.20434e-05
4.69458e-07
3.14677e-05
4.36282e-07
3.09107e-05
4.17459e-07
3.03837e-05
3.87627e-07
2.98772e-05
3.66985e-07
2.93934e-05
3.44372e-07
2.89265e-05
3.27347e-07
2.848e-05
3.07083e-07
2.80536e-05
2.86893e-07
2.7647e-05
2.67108e-07
2.72567e-05
2.50835e-07
2.68819e-05
2.35323e-07
2.65221e-05
2.20346e-07
2.61773e-05
2.05337e-07
2.58476e-05
1.90242e-07
2.55337e-05
1.74462e-07
2.52359e-05
1.58282e-07
2.49547e-05
1.41777e-07
2.46896e-05
1.2561e-07
2.44393e-05
1.10816e-07
2.42022e-05
9.76008e-08
2.39775e-05
8.53078e-08
2.37645e-05
7.35211e-08
2.3563e-05
6.2036e-08
2.33724e-05
5.10903e-08
2.31922e-05
4.07748e-08
2.30217e-05
3.09799e-08
2.28607e-05
2.15501e-08
2.27087e-05
1.25141e-08
2.25653e-05
3.93985e-09
2.24301e-05
-4.29803e-09
2.23029e-05
-1.2204e-08
2.21831e-05
-1.96767e-08
2.20702e-05
-2.66562e-08
2.19639e-05
-3.31595e-08
2.18637e-05
-3.92687e-08
2.17693e-05
-4.50094e-08
2.16803e-05
-5.04653e-08
2.15964e-05
-5.56325e-08
2.15175e-05
-6.04967e-08
2.14431e-05
-6.50721e-08
2.1373e-05
-6.93803e-08
2.13069e-05
-7.34136e-08
2.12446e-05
-7.71956e-08
2.11859e-05
-8.07103e-08
2.11303e-05
-8.3928e-08
2.10777e-05
-8.68666e-08
2.10278e-05
-8.95816e-08
2.09805e-05
-9.21737e-08
2.09356e-05
-9.45732e-08
2.08929e-05
-9.6719e-08
2.08521e-05
-9.86879e-08
2.08132e-05
-1.00569e-07
2.07761e-05
-1.02393e-07
2.07408e-05
-1.04104e-07
2.0707e-05
-1.057e-07
2.06747e-05
-1.072e-07
2.06439e-05
-1.08607e-07
2.06143e-05
-1.09922e-07
2.0586e-05
-1.11157e-07
2.05588e-05
-1.12296e-07
2.05327e-05
-1.13341e-07
2.05075e-05
-1.14276e-07
2.04831e-05
-1.15106e-07
2.04595e-05
-1.15878e-07
2.04367e-05
-1.16581e-07
2.04144e-05
-1.17179e-07
2.03926e-05
-1.17702e-07
2.03713e-05
-1.18209e-07
2.03506e-05
-1.18709e-07
2.03304e-05
-1.19259e-07
2.03108e-05
-1.1986e-07
2.02917e-05
-1.20383e-07
2.0273e-05
-1.20822e-07
2.02548e-05
-1.21239e-07
2.02369e-05
-1.21632e-07
2.02195e-05
-1.22016e-07
2.02024e-05
-1.22395e-07
2.01857e-05
-1.22772e-07
2.01694e-05
-1.23145e-07
2.01534e-05
-1.23505e-07
2.01378e-05
-1.23849e-07
2.01225e-05
-1.2413e-07
2.01073e-05
-1.24275e-07
2.00922e-05
-1.24403e-07
2.00774e-05
-1.2463e-07
2.00628e-05
-1.24917e-07
2.00486e-05
-1.2523e-07
2.00346e-05
-1.25547e-07
2.00211e-05
-1.25875e-07
2.00079e-05
-1.26269e-07
1.9995e-05
-1.26658e-07
1.99825e-05
-1.26898e-07
1.997e-05
-1.2703e-07
1.99577e-05
-1.27121e-07
1.99454e-05
-1.27167e-07
1.99331e-05
-1.27178e-07
1.99208e-05
-1.27152e-07
1.99084e-05
-1.27095e-07
1.98959e-05
-1.27007e-07
1.98833e-05
-1.26896e-07
1.98706e-05
-1.26766e-07
1.98578e-05
-1.26622e-07
1.98448e-05
-1.26474e-07
1.98316e-05
-1.2631e-07
1.98183e-05
-1.26166e-07
1.98049e-05
-1.26034e-07
1.97912e-05
-1.25759e-07
1.97772e-05
-1.25473e-07
1.9763e-05
-1.25311e-07
1.97487e-05
-1.25142e-07
1.97342e-05
-1.24944e-07
1.97194e-05
-1.24744e-07
1.97045e-05
-1.24542e-07
1.96894e-05
-1.24341e-07
1.96741e-05
-1.24142e-07
1.96585e-05
-1.2395e-07
1.96428e-05
-1.23769e-07
1.9627e-05
-1.23602e-07
1.9611e-05
-1.2345e-07
1.95948e-05
-1.23313e-07
1.95785e-05
-1.23189e-07
1.95621e-05
-1.23072e-07
1.95456e-05
-1.22959e-07
1.9529e-05
-1.22845e-07
1.95122e-05
-1.2273e-07
1.94954e-05
-1.22615e-07
1.94784e-05
-1.225e-07
1.94613e-05
-1.22386e-07
1.94441e-05
-1.22275e-07
1.94268e-05
-1.22165e-07
1.94094e-05
-1.22057e-07
1.93919e-05
-1.21951e-07
1.93743e-05
-1.21849e-07
1.93566e-05
-1.21751e-07
1.93387e-05
-1.21661e-07
1.93209e-05
-1.21578e-07
1.93029e-05
-1.21505e-07
1.92849e-05
-1.21443e-07
1.92668e-05
-1.21396e-07
1.92487e-05
-1.21362e-07
1.92306e-05
-1.21345e-07
1.92124e-05
-1.21345e-07
1.91943e-05
-1.21365e-07
1.91763e-05
-1.21407e-07
1.91583e-05
-1.21475e-07
1.91404e-05
-1.21568e-07
1.91226e-05
-1.21685e-07
1.91049e-05
-1.21822e-07
1.90874e-05
-1.21976e-07
1.90701e-05
-1.22142e-07
1.9053e-05
-1.22319e-07
1.9036e-05
-1.22504e-07
1.90192e-05
-1.22698e-07
1.90026e-05
-1.22898e-07
1.89863e-05
-1.23105e-07
1.89701e-05
-1.23318e-07
1.89542e-05
-1.23536e-07
1.89385e-05
-1.23758e-07
1.8923e-05
-1.2398e-07
1.89077e-05
-1.24203e-07
1.88927e-05
-1.24425e-07
1.88778e-05
-1.24647e-07
1.88632e-05
-1.24867e-07
1.88489e-05
-1.25088e-07
1.88347e-05
-1.25308e-07
1.88208e-05
-1.25526e-07
1.8807e-05
-1.25742e-07
1.87935e-05
-1.25955e-07
1.87802e-05
-1.26167e-07
1.87671e-05
-1.26378e-07
1.87542e-05
-1.26589e-07
1.87416e-05
-1.268e-07
1.87291e-05
-1.27011e-07
1.87169e-05
-1.27223e-07
1.87048e-05
-1.27435e-07
1.8693e-05
-1.27646e-07
1.86814e-05
-1.27855e-07
1.867e-05
-1.28061e-07
1.86588e-05
-1.28264e-07
1.86478e-05
-1.28462e-07
1.86369e-05
-1.28657e-07
1.86263e-05
-1.28849e-07
1.86159e-05
-1.29035e-07
1.86056e-05
-1.29217e-07
1.85956e-05
-1.29396e-07
1.85857e-05
-1.29569e-07
1.85759e-05
-1.2974e-07
1.85664e-05
-1.29907e-07
1.8557e-05
-1.30075e-07
1.85477e-05
-1.30243e-07
1.85387e-05
-1.30414e-07
1.85298e-05
-1.30588e-07
1.85211e-05
-1.30767e-07
1.85126e-05
-1.30953e-07
1.85043e-05
-1.31144e-07
1.84961e-05
-1.31339e-07
1.84882e-05
-1.31537e-07
1.84805e-05
-1.31736e-07
1.84729e-05
-1.31936e-07
1.84656e-05
-1.32136e-07
1.84585e-05
-1.32334e-07
1.84515e-05
-1.32526e-07
1.84447e-05
-1.32711e-07
1.84382e-05
-1.32886e-07
1.84317e-05
-1.33053e-07
1.84255e-05
-1.3321e-07
1.84194e-05
-1.33356e-07
1.84134e-05
-1.3349e-07
1.84075e-05
-1.33609e-07
1.84018e-05
-1.33713e-07
1.83961e-05
-1.338e-07
1.83905e-05
-1.3387e-07
1.8385e-05
-1.33925e-07
1.83794e-05
-1.33965e-07
1.8374e-05
-1.33988e-07
1.83685e-05
-1.33998e-07
1.8363e-05
-1.33947e-07
1.83573e-05
-1.33838e-07
1.83516e-05
-1.33727e-07
1.83457e-05
-1.33621e-07
1.83398e-05
-1.33527e-07
1.83338e-05
-1.3345e-07
1.83277e-05
-1.33392e-07
1.83216e-05
-1.33354e-07
1.83154e-05
-1.33333e-07
1.83093e-05
-1.3332e-07
1.83032e-05
-1.33329e-07
1.8297e-05
-1.33326e-07
1.82909e-05
-1.33379e-07
1.82849e-05
-1.33488e-07
1.82791e-05
-1.33615e-07
1.82734e-05
-1.33764e-07
1.82678e-05
-1.33903e-07
1.82625e-05
-1.34093e-07
1.82572e-05
-1.34225e-07
1.8252e-05
-1.34258e-07
1.82469e-05
-1.34285e-07
1.82418e-05
-1.34328e-07
1.82367e-05
-1.34386e-07
1.82317e-05
-1.3443e-07
1.82267e-05
-1.34462e-07
1.82218e-05
-1.34493e-07
1.82169e-05
-1.34522e-07
1.8212e-05
-1.34547e-07
1.82071e-05
-1.34563e-07
1.82023e-05
-1.34568e-07
1.81974e-05
-1.34561e-07
1.81926e-05
-1.34545e-07
1.81877e-05
-1.34524e-07
1.81828e-05
-1.34501e-07
1.81778e-05
-1.34478e-07
1.81729e-05
-1.34457e-07
1.8168e-05
-1.34437e-07
1.8163e-05
-1.34416e-07
1.8158e-05
-1.34394e-07
1.8153e-05
-1.34372e-07
1.81479e-05
-1.3435e-07
1.81429e-05
-1.34329e-07
1.81378e-05
-1.34307e-07
1.81328e-05
-1.34283e-07
1.81277e-05
-1.34254e-07
1.81225e-05
-1.3422e-07
1.81173e-05
-1.34181e-07
1.81121e-05
-1.34139e-07
1.81069e-05
-1.34098e-07
1.81016e-05
-1.34058e-07
1.80963e-05
-1.3402e-07
1.80909e-05
-1.33983e-07
1.80855e-05
-1.33943e-07
1.80801e-05
-1.33899e-07
1.80746e-05
-1.33851e-07
1.80691e-05
-1.338e-07
1.80636e-05
-1.33752e-07
1.8058e-05
-1.33711e-07
1.80523e-05
-1.33684e-07
1.80467e-05
-1.33669e-07
1.80411e-05
-1.33667e-07
1.80354e-05
-1.33673e-07
1.80298e-05
-1.33689e-07
1.80242e-05
-1.33712e-07
1.80187e-05
-1.33743e-07
1.80132e-05
-1.3378e-07
1.80077e-05
-1.33825e-07
1.80023e-05
-1.33878e-07
1.7997e-05
-1.33939e-07
1.79917e-05
-1.3401e-07
1.79865e-05
-1.34093e-07
1.79814e-05
-1.34185e-07
1.79764e-05
-1.34284e-07
1.79716e-05
-1.34387e-07
1.79668e-05
-1.34488e-07
1.79621e-05
-1.34584e-07
1.79575e-05
-1.34673e-07
1.7953e-05
-1.34751e-07
1.79485e-05
-1.34819e-07
1.79442e-05
-1.34876e-07
1.79398e-05
-1.34922e-07
1.79355e-05
-1.34959e-07
1.79313e-05
-1.34991e-07
1.7927e-05
-1.35018e-07
1.79228e-05
-1.35046e-07
1.79186e-05
-1.35078e-07
1.79145e-05
-1.35117e-07
1.79104e-05
-1.35162e-07
1.79064e-05
-1.35214e-07
1.79024e-05
-1.35271e-07
1.78985e-05
-1.35331e-07
1.78946e-05
-1.35394e-07
1.78909e-05
-1.35458e-07
1.78871e-05
-1.35522e-07
1.78835e-05
-1.35587e-07
1.78799e-05
-1.35651e-07
1.78764e-05
-1.35716e-07
1.78729e-05
-1.3578e-07
1.78695e-05
-1.35845e-07
1.78662e-05
-1.3591e-07
1.78629e-05
-1.35973e-07
1.78597e-05
-1.36032e-07
1.78566e-05
-1.36085e-07
1.78535e-05
-1.3613e-07
1.78504e-05
-1.36167e-07
1.78474e-05
-1.36195e-07
1.78443e-05
-1.36214e-07
1.78413e-05
-1.36228e-07
1.78383e-05
-1.36235e-07
1.78353e-05
-1.36238e-07
1.78323e-05
-1.36235e-07
1.78293e-05
-1.36225e-07
1.78263e-05
-1.36207e-07
1.78233e-05
-1.3618e-07
1.78202e-05
-1.36145e-07
1.7817e-05
-1.36104e-07
1.78139e-05
-1.36057e-07
1.78107e-05
-1.36006e-07
1.78074e-05
-1.35951e-07
1.7804e-05
-1.35892e-07
1.78006e-05
-1.35829e-07
1.77972e-05
-1.35763e-07
1.77936e-05
-1.35692e-07
1.779e-05
-1.35617e-07
1.77864e-05
-1.35539e-07
1.77826e-05
-1.35457e-07
1.77787e-05
-1.35373e-07
1.77748e-05
-1.35286e-07
1.77708e-05
-1.35199e-07
1.77667e-05
-1.35113e-07
1.77625e-05
-1.35032e-07
1.77583e-05
-1.34956e-07
1.77539e-05
-1.34887e-07
1.77496e-05
-1.34826e-07
1.77451e-05
-1.34771e-07
1.77407e-05
-1.34723e-07
1.77361e-05
-1.3468e-07
1.77316e-05
-1.34638e-07
1.7727e-05
-1.34594e-07
1.77223e-05
-1.34544e-07
1.77176e-05
-1.34486e-07
1.77129e-05
-1.34422e-07
1.7708e-05
-1.34352e-07
1.77031e-05
-1.34277e-07
1.76982e-05
-1.34199e-07
1.76931e-05
-1.34116e-07
1.7688e-05
-1.34032e-07
1.76828e-05
-1.33943e-07
1.76774e-05
-1.3385e-07
1.7672e-05
-1.33751e-07
1.76665e-05
-1.33647e-07
1.76609e-05
-1.33537e-07
1.76552e-05
-1.33425e-07
1.76494e-05
-1.33313e-07
1.76434e-05
-1.33202e-07
1.76374e-05
-1.33094e-07
1.76312e-05
-1.32989e-07
1.7625e-05
-1.3289e-07
1.76187e-05
-1.32797e-07
1.76123e-05
-1.32717e-07
1.76058e-05
-1.32648e-07
1.75993e-05
-1.32592e-07
1.75928e-05
-1.32547e-07
1.75862e-05
-1.32509e-07
1.75796e-05
-1.32478e-07
1.75729e-05
-1.32451e-07
1.75663e-05
-1.32431e-07
1.75596e-05
-1.32418e-07
1.75529e-05
-1.32411e-07
1.75463e-05
-1.32409e-07
1.75396e-05
-1.32411e-07
1.7533e-05
-1.32416e-07
1.75264e-05
-1.32422e-07
1.75197e-05
-1.32429e-07
1.75131e-05
-1.32433e-07
1.75065e-05
-1.32434e-07
1.74999e-05
-1.3243e-07
1.74933e-05
-1.32423e-07
1.74867e-05
-1.32411e-07
1.74801e-05
-1.32394e-07
1.74734e-05
-1.32369e-07
1.74667e-05
-1.32338e-07
1.746e-05
-1.32299e-07
1.74533e-05
-1.32255e-07
1.74465e-05
-1.32204e-07
1.74397e-05
-1.3215e-07
1.74328e-05
-1.32091e-07
1.74258e-05
-1.32027e-07
1.74188e-05
-1.31955e-07
1.74117e-05
-1.31875e-07
1.74045e-05
-1.31786e-07
1.73972e-05
-1.31692e-07
1.73899e-05
-1.31595e-07
1.73824e-05
-1.31495e-07
1.73748e-05
-1.31395e-07
1.73672e-05
-1.31296e-07
1.73595e-05
-1.31201e-07
1.73516e-05
-1.3111e-07
1.73437e-05
-1.31026e-07
1.73358e-05
-1.30947e-07
1.73277e-05
-1.30876e-07
1.73196e-05
-1.30812e-07
1.73115e-05
-1.30758e-07
1.73033e-05
-1.30714e-07
1.7295e-05
-1.30683e-07
1.72868e-05
-1.30665e-07
1.72786e-05
-1.30662e-07
1.72704e-05
-1.30676e-07
1.72622e-05
-1.30712e-07
1.72541e-05
-1.30767e-07
1.72461e-05
-1.30841e-07
1.72381e-05
-1.30928e-07
1.72303e-05
-1.31024e-07
1.72225e-05
-1.31127e-07
1.72149e-05
-1.31237e-07
1.72074e-05
-1.31354e-07
1.72e-05
-1.31478e-07
1.71928e-05
-1.31611e-07
1.71857e-05
-1.31753e-07
1.71788e-05
-1.31902e-07
1.7172e-05
-1.32053e-07
1.71653e-05
-1.32204e-07
1.71588e-05
-1.32346e-07
1.71525e-05
-1.32476e-07
1.71462e-05
-1.32592e-07
1.71401e-05
-1.32693e-07
1.71341e-05
-1.32779e-07
1.71281e-05
-1.32851e-07
1.71222e-05
-1.32913e-07
1.71163e-05
-1.32964e-07
1.71105e-05
-1.3301e-07
1.71048e-05
-1.33049e-07
1.70991e-05
-1.33086e-07
1.70934e-05
-1.33118e-07
1.70877e-05
-1.33149e-07
1.70821e-05
-1.33176e-07
1.70765e-05
-1.33201e-07
1.70709e-05
-1.33222e-07
1.70653e-05
-1.3324e-07
1.70598e-05
-1.33258e-07
1.70543e-05
-1.3328e-07
1.70488e-05
-1.3331e-07
1.70434e-05
-1.33355e-07
1.7038e-05
-1.33416e-07
1.70327e-05
-1.33494e-07
1.70275e-05
-1.33581e-07
1.70224e-05
-1.3367e-07
1.70174e-05
-1.33752e-07
1.70124e-05
-1.33826e-07
1.70076e-05
-1.33886e-07
1.70027e-05
-1.33937e-07
1.69979e-05
-1.33976e-07
1.69932e-05
-1.3401e-07
1.69884e-05
-1.34036e-07
1.69837e-05
-1.34061e-07
1.6979e-05
-1.34078e-07
1.69744e-05
-1.34095e-07
1.69697e-05
-1.34103e-07
1.69651e-05
-1.34114e-07
1.69604e-05
-1.34126e-07
1.69558e-05
-1.34149e-07
1.69513e-05
-1.34176e-07
1.69467e-05
-1.34213e-07
1.69422e-05
-1.34251e-07
1.69378e-05
-1.34297e-07
1.69334e-05
-1.34337e-07
1.6929e-05
-1.3438e-07
1.69247e-05
-1.34412e-07
1.69204e-05
-1.34446e-07
1.69161e-05
-1.34466e-07
1.69119e-05
-1.3449e-07
1.69076e-05
-1.345e-07
1.69034e-05
-1.34519e-07
1.68992e-05
-1.34525e-07
1.6895e-05
-1.34541e-07
1.68908e-05
-1.34539e-07
1.68866e-05
-1.34544e-07
1.68824e-05
-1.34517e-07
1.68782e-05
-1.34489e-07
1.68739e-05
-1.34415e-07
1.68695e-05
-1.34339e-07
1.6865e-05
-1.34213e-07
1.68604e-05
-1.34102e-07
1.68557e-05
-1.33951e-07
1.68508e-05
-1.33838e-07
1.68458e-05
-1.33692e-07
1.68407e-05
-1.33604e-07
1.68355e-05
-1.3347e-07
1.68302e-05
-1.33403e-07
1.68248e-05
-1.3326e-07
1.68193e-05
-1.33187e-07
1.68136e-05
-1.33009e-07
1.68078e-05
-1.32923e-07
1.68019e-05
-1.32703e-07
1.67958e-05
-1.32601e-07
1.67894e-05
-1.32304e-07
1.67829e-05
-1.32138e-07
1.67759e-05
-1.31676e-07
1.67686e-05
-1.31359e-07
1.67606e-05
-1.30676e-07
1.67519e-05
-1.29926e-07
1.67422e-05
-1.28926e-07
1.67307e-05
-1.27174e-07
1.67172e-05
-1.25063e-07
1.67003e-05
-1.21676e-07
1.66786e-05
-1.16911e-07
1.66503e-05
-1.10363e-07
1.66122e-05
-1.00376e-07
1.65611e-05
-8.7452e-08
1.64911e-05
-6.85012e-08
1.63911e-05
-3.83987e-08
1.62656e-05
-1.27692e-08
1.6005e-05
1.22313e-07
1.55584e-05
3.0821e-07
1.50245e-05
3.94741e-07
1.4312e-05
5.7306e-07
1.33227e-05
8.49846e-07
1.19075e-05
1.27572e-06
1.01086e-05
1.65945e-06
7.74366e-06
2.22545e-06
4.10666e-06
3.49753e-06
8.47553e-07
3.11963e-06
-1.07392e-06
1.782e-06
-2.83125e-06
1.61786e-06
-2.97072e-06
3.77928e-05
6.78735e-07
3.74983e-05
7.40324e-07
3.70261e-05
1.05236e-06
3.65667e-05
1.03129e-06
3.61056e-05
1.05961e-06
3.5691e-05
9.60094e-07
3.5302e-05
9.23022e-07
3.49526e-05
8.33874e-07
3.46372e-05
7.84845e-07
3.43819e-05
6.91547e-07
3.41454e-05
6.53938e-07
3.39274e-05
6.05626e-07
3.37134e-05
5.81009e-07
3.35062e-05
5.5155e-07
3.3299e-05
5.34613e-07
3.30924e-05
5.13689e-07
3.28765e-05
5.02702e-07
3.26551e-05
4.88548e-07
3.24331e-05
4.72824e-07
3.22131e-05
4.55317e-07
3.19954e-05
4.38065e-07
3.17791e-05
4.21676e-07
3.15643e-05
4.05049e-07
3.13512e-05
3.87568e-07
3.11402e-05
3.69224e-07
3.09314e-05
3.50587e-07
3.0725e-05
3.32056e-07
3.05223e-05
3.13423e-07
3.03249e-05
2.95058e-07
3.01323e-05
2.77918e-07
2.99446e-05
2.61229e-07
2.97621e-05
2.44498e-07
2.9585e-05
2.28156e-07
2.94132e-05
2.12659e-07
2.92463e-05
1.97846e-07
2.90844e-05
1.83429e-07
2.89275e-05
1.69385e-07
2.87756e-05
1.55912e-07
2.86284e-05
1.42861e-07
2.84859e-05
1.30312e-07
2.83483e-05
1.179e-07
2.82157e-05
1.05994e-07
2.80876e-05
9.49157e-08
2.79639e-05
8.44159e-08
2.78445e-05
7.43587e-08
2.77293e-05
6.47972e-08
2.76175e-05
5.61543e-08
2.75091e-05
4.79097e-08
2.74039e-05
4.00836e-08
2.7302e-05
3.2575e-08
2.72032e-05
2.53964e-08
2.71074e-05
1.85661e-08
2.70146e-05
1.20964e-08
2.69247e-05
5.99071e-09
2.68376e-05
2.52204e-10
2.67531e-05
-5.13272e-09
2.66713e-05
-1.03811e-08
2.65921e-05
-1.5382e-08
2.65153e-05
-1.99411e-08
2.64408e-05
-2.41645e-08
2.63685e-05
-2.82796e-08
2.62984e-05
-3.22884e-08
2.62304e-05
-3.61103e-08
2.61645e-05
-3.97196e-08
2.61004e-05
-4.31679e-08
2.60383e-05
-4.64542e-08
2.59779e-05
-4.95756e-08
2.59193e-05
-5.255e-08
2.58624e-05
-5.53658e-08
2.58071e-05
-5.80108e-08
2.57533e-05
-6.0486e-08
2.57009e-05
-6.27552e-08
2.565e-05
-6.49145e-08
2.56003e-05
-6.6971e-08
2.5552e-05
-6.88367e-08
2.55048e-05
-7.05304e-08
2.54588e-05
-7.21957e-08
2.54139e-05
-7.38357e-08
2.53702e-05
-7.55343e-08
2.53277e-05
-7.73525e-08
2.52864e-05
-7.90571e-08
2.52461e-05
-8.05503e-08
2.52069e-05
-8.2007e-08
2.51687e-05
-8.34016e-08
2.51314e-05
-8.47844e-08
2.50952e-05
-8.61603e-08
2.506e-05
-8.75419e-08
2.50257e-05
-8.89275e-08
2.49925e-05
-9.02865e-08
2.49603e-05
-9.16049e-08
2.4929e-05
-9.28196e-08
2.48984e-05
-9.37437e-08
2.48685e-05
-9.44597e-08
2.48393e-05
-9.53932e-08
2.48107e-05
-9.63515e-08
2.47827e-05
-9.72418e-08
2.47551e-05
-9.79556e-08
2.47277e-05
-9.85126e-08
2.47007e-05
-9.91929e-08
2.4674e-05
-9.99906e-08
2.46476e-05
-1.00542e-07
2.46214e-05
-1.00827e-07
2.45954e-05
-1.01047e-07
2.45694e-05
-1.01202e-07
2.45435e-05
-1.01291e-07
2.45177e-05
-1.0132e-07
2.44919e-05
-1.01291e-07
2.44661e-05
-1.01207e-07
2.44403e-05
-1.01079e-07
2.44144e-05
-1.00923e-07
2.43885e-05
-1.00744e-07
2.43626e-05
-1.00561e-07
2.43367e-05
-1.00366e-07
2.43107e-05
-1.00168e-07
2.42847e-05
-1.00072e-07
2.42587e-05
-9.97352e-08
2.42325e-05
-9.92582e-08
2.42063e-05
-9.90792e-08
2.41801e-05
-9.89438e-08
2.41538e-05
-9.87325e-08
2.41276e-05
-9.85255e-08
2.41014e-05
-9.83047e-08
2.40751e-05
-9.80789e-08
2.40488e-05
-9.78531e-08
2.40225e-05
-9.76383e-08
2.39962e-05
-9.74448e-08
2.39699e-05
-9.72829e-08
2.39436e-05
-9.71584e-08
2.39174e-05
-9.70734e-08
2.38912e-05
-9.70202e-08
2.38651e-05
-9.6989e-08
2.38391e-05
-9.69663e-08
2.38132e-05
-9.69429e-08
2.37874e-05
-9.6912e-08
2.37616e-05
-9.68743e-08
2.3736e-05
-9.68304e-08
2.37104e-05
-9.67833e-08
2.36848e-05
-9.67338e-08
2.36594e-05
-9.66834e-08
2.36339e-05
-9.66318e-08
2.36086e-05
-9.65814e-08
2.35832e-05
-9.65343e-08
2.3558e-05
-9.64936e-08
2.35328e-05
-9.64644e-08
2.35077e-05
-9.64474e-08
2.34826e-05
-9.64467e-08
2.34576e-05
-9.64624e-08
2.34327e-05
-9.64999e-08
2.34079e-05
-9.65603e-08
2.33832e-05
-9.66463e-08
2.33586e-05
-9.67596e-08
2.33342e-05
-9.69044e-08
2.33099e-05
-9.7087e-08
2.32857e-05
-9.73133e-08
2.32617e-05
-9.75871e-08
2.32379e-05
-9.79067e-08
2.32144e-05
-9.82693e-08
2.31911e-05
-9.8666e-08
2.3168e-05
-9.90897e-08
2.31452e-05
-9.95331e-08
2.31227e-05
-9.99921e-08
2.31005e-05
-1.00463e-07
2.30785e-05
-1.00943e-07
2.30569e-05
-1.01431e-07
2.30355e-05
-1.0193e-07
2.30144e-05
-1.02435e-07
2.29936e-05
-1.02945e-07
2.2973e-05
-1.03456e-07
2.29528e-05
-1.03964e-07
2.29328e-05
-1.04469e-07
2.29132e-05
-1.04972e-07
2.28938e-05
-1.05474e-07
2.28747e-05
-1.05977e-07
2.28558e-05
-1.06481e-07
2.28373e-05
-1.06982e-07
2.2819e-05
-1.07477e-07
2.2801e-05
-1.07964e-07
2.27833e-05
-1.08444e-07
2.27658e-05
-1.08919e-07
2.27487e-05
-1.09391e-07
2.27317e-05
-1.09861e-07
2.2715e-05
-1.10329e-07
2.26986e-05
-1.10801e-07
2.26824e-05
-1.11268e-07
2.26665e-05
-1.11737e-07
2.26509e-05
-1.12195e-07
2.26355e-05
-1.12643e-07
2.26203e-05
-1.13078e-07
2.26053e-05
-1.13503e-07
2.25906e-05
-1.1392e-07
2.25761e-05
-1.14329e-07
2.25617e-05
-1.14729e-07
2.25476e-05
-1.15115e-07
2.25337e-05
-1.15493e-07
2.252e-05
-1.15855e-07
2.25065e-05
-1.16207e-07
2.24931e-05
-1.16549e-07
2.24799e-05
-1.16888e-07
2.24669e-05
-1.17227e-07
2.24541e-05
-1.17567e-07
2.24414e-05
-1.17911e-07
2.24289e-05
-1.18263e-07
2.24166e-05
-1.18625e-07
2.24044e-05
-1.18998e-07
2.23925e-05
-1.19378e-07
2.23807e-05
-1.19766e-07
2.23691e-05
-1.20157e-07
2.23577e-05
-1.20549e-07
2.23465e-05
-1.2094e-07
2.23355e-05
-1.21323e-07
2.23247e-05
-1.2169e-07
2.2314e-05
-1.22042e-07
2.23035e-05
-1.22373e-07
2.22931e-05
-1.22688e-07
2.22829e-05
-1.22985e-07
2.22728e-05
-1.23263e-07
2.22629e-05
-1.23515e-07
2.2253e-05
-1.23741e-07
2.22432e-05
-1.23933e-07
2.22335e-05
-1.24094e-07
2.22238e-05
-1.24219e-07
2.22142e-05
-1.24313e-07
2.22046e-05
-1.24375e-07
2.21951e-05
-1.24409e-07
2.21855e-05
-1.24415e-07
2.21759e-05
-1.2436e-07
2.21663e-05
-1.24269e-07
2.21568e-05
-1.24164e-07
2.21472e-05
-1.24059e-07
2.21376e-05
-1.23971e-07
2.21281e-05
-1.2391e-07
2.21186e-05
-1.23883e-07
2.21091e-05
-1.2389e-07
2.20997e-05
-1.23929e-07
2.20904e-05
-1.23982e-07
2.20811e-05
-1.24073e-07
2.2072e-05
-1.24145e-07
2.20629e-05
-1.24301e-07
2.20539e-05
-1.2454e-07
2.20451e-05
-1.24824e-07
2.20365e-05
-1.25156e-07
2.20281e-05
-1.25468e-07
2.20199e-05
-1.25866e-07
2.20118e-05
-1.26175e-07
2.20039e-05
-1.26338e-07
2.19961e-05
-1.26462e-07
2.19883e-05
-1.26585e-07
2.19807e-05
-1.26744e-07
2.19731e-05
-1.26882e-07
2.19657e-05
-1.27001e-07
2.19583e-05
-1.27119e-07
2.1951e-05
-1.27236e-07
2.19438e-05
-1.27344e-07
2.19367e-05
-1.27431e-07
2.19296e-05
-1.27488e-07
2.19226e-05
-1.27512e-07
2.19155e-05
-1.27508e-07
2.19085e-05
-1.27488e-07
2.19014e-05
-1.27466e-07
2.18944e-05
-1.27449e-07
2.18874e-05
-1.27442e-07
2.18804e-05
-1.2744e-07
2.18734e-05
-1.2744e-07
2.18665e-05
-1.27436e-07
2.18595e-05
-1.27429e-07
2.18526e-05
-1.2742e-07
2.18457e-05
-1.27413e-07
2.18388e-05
-1.27401e-07
2.18319e-05
-1.27384e-07
2.1825e-05
-1.27354e-07
2.18181e-05
-1.27306e-07
2.18111e-05
-1.27241e-07
2.18042e-05
-1.27167e-07
2.17971e-05
-1.27095e-07
2.17901e-05
-1.27032e-07
2.17831e-05
-1.26979e-07
2.1776e-05
-1.26931e-07
2.1769e-05
-1.26878e-07
2.17619e-05
-1.26811e-07
2.17548e-05
-1.26731e-07
2.17476e-05
-1.26641e-07
2.17404e-05
-1.26555e-07
2.17332e-05
-1.26483e-07
2.17259e-05
-1.26439e-07
2.17187e-05
-1.2642e-07
2.17114e-05
-1.2643e-07
2.17042e-05
-1.26457e-07
2.1697e-05
-1.26504e-07
2.16899e-05
-1.26564e-07
2.16828e-05
-1.26637e-07
2.16757e-05
-1.26719e-07
2.16687e-05
-1.26811e-07
2.16617e-05
-1.26912e-07
2.16548e-05
-1.2703e-07
2.1648e-05
-1.2717e-07
2.16412e-05
-1.27334e-07
2.16346e-05
-1.27523e-07
2.1628e-05
-1.27731e-07
2.16216e-05
-1.2795e-07
2.16153e-05
-1.28171e-07
2.16091e-05
-1.28385e-07
2.1603e-05
-1.28585e-07
2.1597e-05
-1.28765e-07
2.15911e-05
-1.28923e-07
2.15853e-05
-1.29055e-07
2.15795e-05
-1.29162e-07
2.15738e-05
-1.29245e-07
2.15681e-05
-1.2931e-07
2.15625e-05
-1.29365e-07
2.15568e-05
-1.29423e-07
2.15513e-05
-1.29491e-07
2.15457e-05
-1.29577e-07
2.15402e-05
-1.2968e-07
2.15348e-05
-1.298e-07
2.15295e-05
-1.29932e-07
2.15242e-05
-1.30072e-07
2.1519e-05
-1.30214e-07
2.15139e-05
-1.30359e-07
2.15089e-05
-1.30499e-07
2.1504e-05
-1.30638e-07
2.14991e-05
-1.30769e-07
2.14943e-05
-1.309e-07
2.14895e-05
-1.31028e-07
2.14848e-05
-1.31158e-07
2.14802e-05
-1.31291e-07
2.14757e-05
-1.31425e-07
2.14712e-05
-1.31553e-07
2.14668e-05
-1.31667e-07
2.14624e-05
-1.31763e-07
2.14581e-05
-1.31837e-07
2.14538e-05
-1.31891e-07
2.14495e-05
-1.31926e-07
2.14452e-05
-1.3195e-07
2.14409e-05
-1.31964e-07
2.14367e-05
-1.31971e-07
2.14324e-05
-1.31966e-07
2.14281e-05
-1.31944e-07
2.14238e-05
-1.31903e-07
2.14195e-05
-1.3184e-07
2.14151e-05
-1.31762e-07
2.14107e-05
-1.31669e-07
2.14062e-05
-1.31571e-07
2.14016e-05
-1.31465e-07
2.1397e-05
-1.31356e-07
2.13924e-05
-1.31241e-07
2.13877e-05
-1.31121e-07
2.13829e-05
-1.30993e-07
2.13781e-05
-1.30859e-07
2.13732e-05
-1.30719e-07
2.13682e-05
-1.30575e-07
2.13632e-05
-1.30426e-07
2.13581e-05
-1.3027e-07
2.13529e-05
-1.30107e-07
2.13476e-05
-1.29938e-07
2.13423e-05
-1.29766e-07
2.13369e-05
-1.296e-07
2.13313e-05
-1.29444e-07
2.13258e-05
-1.29306e-07
2.13201e-05
-1.29185e-07
2.13144e-05
-1.29085e-07
2.13087e-05
-1.29005e-07
2.1303e-05
-1.2894e-07
2.12972e-05
-1.2888e-07
2.12914e-05
-1.28811e-07
2.12856e-05
-1.28726e-07
2.12798e-05
-1.28619e-07
2.12738e-05
-1.28496e-07
2.12678e-05
-1.28359e-07
2.12618e-05
-1.28213e-07
2.12556e-05
-1.28062e-07
2.12494e-05
-1.27908e-07
2.12431e-05
-1.27754e-07
2.12368e-05
-1.27599e-07
2.12304e-05
-1.2744e-07
2.12239e-05
-1.27268e-07
2.12173e-05
-1.27081e-07
2.12107e-05
-1.26879e-07
2.12039e-05
-1.26668e-07
2.11971e-05
-1.26456e-07
2.11901e-05
-1.26248e-07
2.11831e-05
-1.26048e-07
2.11759e-05
-1.25854e-07
2.11687e-05
-1.25673e-07
2.11614e-05
-1.25505e-07
2.11541e-05
-1.25362e-07
2.11467e-05
-1.25246e-07
2.11392e-05
-1.25158e-07
2.11318e-05
-1.2509e-07
2.11243e-05
-1.25032e-07
2.11168e-05
-1.2498e-07
2.11093e-05
-1.24931e-07
2.11017e-05
-1.24892e-07
2.10942e-05
-1.24866e-07
2.10866e-05
-1.24856e-07
2.10791e-05
-1.24861e-07
2.10716e-05
-1.24878e-07
2.10641e-05
-1.24906e-07
2.10566e-05
-1.24939e-07
2.10491e-05
-1.24972e-07
2.10417e-05
-1.24998e-07
2.10343e-05
-1.25011e-07
2.10268e-05
-1.25009e-07
2.10194e-05
-1.24995e-07
2.1012e-05
-1.2497e-07
2.10045e-05
-1.24936e-07
2.0997e-05
-1.24889e-07
2.09895e-05
-1.24832e-07
2.0982e-05
-1.2476e-07
2.09744e-05
-1.2468e-07
2.09668e-05
-1.24587e-07
2.09591e-05
-1.2449e-07
2.09514e-05
-1.24381e-07
2.09437e-05
-1.24263e-07
2.09358e-05
-1.24125e-07
2.09279e-05
-1.23971e-07
2.09199e-05
-1.23797e-07
2.09119e-05
-1.23612e-07
2.09037e-05
-1.23419e-07
2.08954e-05
-1.23221e-07
2.0887e-05
-1.23019e-07
2.08785e-05
-1.22819e-07
2.087e-05
-1.22623e-07
2.08613e-05
-1.2244e-07
2.08525e-05
-1.2227e-07
2.08437e-05
-1.22115e-07
2.08348e-05
-1.21973e-07
2.08258e-05
-1.21845e-07
2.08168e-05
-1.21734e-07
2.08077e-05
-1.21641e-07
2.07986e-05
-1.21572e-07
2.07895e-05
-1.21525e-07
2.07803e-05
-1.2151e-07
2.07712e-05
-1.21529e-07
2.07621e-05
-1.21597e-07
2.0753e-05
-1.21707e-07
2.0744e-05
-1.21859e-07
2.07351e-05
-1.22036e-07
2.07263e-05
-1.22226e-07
2.07176e-05
-1.22424e-07
2.0709e-05
-1.22629e-07
2.07005e-05
-1.22846e-07
2.06921e-05
-1.23078e-07
2.06838e-05
-1.23331e-07
2.06757e-05
-1.23603e-07
2.06677e-05
-1.23897e-07
2.06598e-05
-1.24203e-07
2.06522e-05
-1.24513e-07
2.06446e-05
-1.24809e-07
2.06372e-05
-1.25086e-07
2.063e-05
-1.25331e-07
2.06228e-05
-1.25544e-07
2.06158e-05
-1.25721e-07
2.06088e-05
-1.25861e-07
2.06018e-05
-1.25971e-07
2.05949e-05
-1.26056e-07
2.0588e-05
-1.2613e-07
2.05812e-05
-1.26196e-07
2.05744e-05
-1.26263e-07
2.05676e-05
-1.26334e-07
2.05608e-05
-1.26408e-07
2.05541e-05
-1.26482e-07
2.05475e-05
-1.26547e-07
2.05409e-05
-1.26605e-07
2.05343e-05
-1.26649e-07
2.05277e-05
-1.26685e-07
2.05211e-05
-1.26717e-07
2.05146e-05
-1.26764e-07
2.05081e-05
-1.2684e-07
2.05016e-05
-1.26957e-07
2.04952e-05
-1.27116e-07
2.0489e-05
-1.27306e-07
2.04828e-05
-1.275e-07
2.04767e-05
-1.27681e-07
2.04707e-05
-1.27829e-07
2.04648e-05
-1.27952e-07
2.04589e-05
-1.28046e-07
2.04531e-05
-1.28128e-07
2.04472e-05
-1.28195e-07
2.04415e-05
-1.28261e-07
2.04357e-05
-1.28313e-07
2.043e-05
-1.28357e-07
2.04243e-05
-1.28379e-07
2.04186e-05
-1.284e-07
2.04129e-05
-1.28413e-07
2.04072e-05
-1.28451e-07
2.04015e-05
-1.28496e-07
2.0396e-05
-1.28578e-07
2.03904e-05
-1.28653e-07
2.03849e-05
-1.28758e-07
2.03794e-05
-1.28843e-07
2.03741e-05
-1.28954e-07
2.03687e-05
-1.29024e-07
2.03634e-05
-1.29112e-07
2.03581e-05
-1.29148e-07
2.03528e-05
-1.29201e-07
2.03475e-05
-1.29193e-07
2.03423e-05
-1.29215e-07
2.03369e-05
-1.29186e-07
2.03316e-05
-1.29211e-07
2.03263e-05
-1.29191e-07
2.0321e-05
-1.29233e-07
2.03156e-05
-1.29214e-07
2.03104e-05
-1.2924e-07
2.0305e-05
-1.29163e-07
2.02997e-05
-1.29103e-07
2.02943e-05
-1.28908e-07
2.02888e-05
-1.28727e-07
2.02831e-05
-1.28432e-07
2.02774e-05
-1.28191e-07
2.02714e-05
-1.27885e-07
2.02654e-05
-1.27678e-07
2.02592e-05
-1.27443e-07
2.02531e-05
-1.27294e-07
2.02468e-05
-1.27107e-07
2.02404e-05
-1.26925e-07
2.02339e-05
-1.26699e-07
2.02273e-05
-1.26412e-07
2.02206e-05
-1.26165e-07
2.02137e-05
-1.25807e-07
2.02067e-05
-1.25587e-07
2.01995e-05
-1.25121e-07
2.01922e-05
-1.24802e-07
2.01845e-05
-1.24053e-07
2.01766e-05
-1.23399e-07
2.01681e-05
-1.2221e-07
2.01589e-05
-1.20706e-07
2.01489e-05
-1.18965e-07
2.01374e-05
-1.15647e-07
2.01243e-05
-1.11947e-07
2.01083e-05
-1.05664e-07
2.00887e-05
-9.73904e-08
2.00636e-05
-8.51706e-08
2.00308e-05
-6.76666e-08
1.99861e-05
-4.2679e-08
1.99266e-05
-9.03519e-09
1.98357e-05
5.2544e-08
1.97263e-05
9.65689e-08
1.95195e-05
3.29157e-07
1.92122e-05
6.15517e-07
1.87704e-05
8.36541e-07
1.81558e-05
1.18764e-06
1.73187e-05
1.68695e-06
1.61226e-05
2.47181e-06
1.43358e-05
3.44623e-06
1.18853e-05
4.67596e-06
8.39136e-06
6.9915e-06
3.87364e-06
7.63736e-06
2.77318e-07
5.37832e-06
-1.66405e-06
3.55923e-06
-4.63477e-06
3.77846e-05
8.94111e-07
3.75106e-05
1.01434e-06
3.70533e-05
1.50968e-06
3.66225e-05
1.46208e-06
3.61947e-05
1.48736e-06
3.5831e-05
1.32379e-06
3.55165e-05
1.23761e-06
3.5256e-05
1.09433e-06
3.50413e-05
9.99572e-07
3.48567e-05
8.76138e-07
3.47073e-05
8.03363e-07
3.45762e-05
7.36656e-07
3.44539e-05
7.03321e-07
3.43465e-05
6.58959e-07
3.4254e-05
6.2709e-07
3.41752e-05
5.92552e-07
3.40995e-05
5.78392e-07
3.40259e-05
5.62138e-07
3.39527e-05
5.46004e-07
3.38792e-05
5.28852e-07
3.38038e-05
5.13444e-07
3.37266e-05
4.98873e-07
3.36469e-05
4.84731e-07
3.35643e-05
4.70165e-07
3.34782e-05
4.55376e-07
3.33881e-05
4.40622e-07
3.32939e-05
4.26279e-07
3.31934e-05
4.13893e-07
3.30868e-05
4.01662e-07
3.29766e-05
3.88124e-07
3.28633e-05
3.74557e-07
3.27473e-05
3.60459e-07
3.2629e-05
3.46549e-07
3.25082e-05
3.33413e-07
3.23852e-05
3.2081e-07
3.22605e-05
3.08196e-07
3.21343e-05
2.9554e-07
3.20071e-05
2.8308e-07
3.18793e-05
2.70731e-07
3.17511e-05
2.58493e-07
3.16232e-05
2.45825e-07
3.14958e-05
2.33365e-07
3.13691e-05
2.21625e-07
3.12434e-05
2.10123e-07
3.11189e-05
1.9886e-07
3.09959e-05
1.87803e-07
3.08748e-05
1.77251e-07
3.07557e-05
1.66984e-07
3.06387e-05
1.5705e-07
3.0524e-05
1.47329e-07
3.04115e-05
1.37869e-07
3.03013e-05
1.2873e-07
3.01935e-05
1.19944e-07
3.0088e-05
1.11482e-07
2.99849e-05
1.03393e-07
2.9884e-05
9.56985e-08
2.97856e-05
8.80917e-08
2.96895e-05
8.0645e-08
2.95958e-05
7.38421e-08
2.95041e-05
6.74568e-08
2.94146e-05
6.12644e-08
2.93268e-05
5.5481e-08
2.92409e-05
4.98452e-08
2.91567e-05
4.44303e-08
2.90744e-05
3.91406e-08
2.8994e-05
3.39854e-08
2.89154e-05
2.89848e-08
2.88387e-05
2.4128e-08
2.87639e-05
1.94412e-08
2.8691e-05
1.49532e-08
2.86198e-05
1.06589e-08
2.85504e-05
6.63404e-09
2.84828e-05
2.73891e-09
2.84168e-05
-1.04934e-09
2.83526e-05
-4.56802e-09
2.82899e-05
-7.81417e-09
2.82287e-05
-1.10092e-08
2.8169e-05
-1.41563e-08
2.81108e-05
-1.73743e-08
2.80543e-05
-2.07927e-08
2.79993e-05
-2.40457e-08
2.79456e-05
-2.69118e-08
2.78933e-05
-2.97031e-08
2.78423e-05
-3.23718e-08
2.77925e-05