/*--------------------------------*- C++ -*----------------------------------*\
| =========                 |                                                 |
| \\      /  F ield         | foam-extend: Open Source CFD                    |
|  \\    /   O peration     | Version:     3.2                                |
|   \\  /    A nd           | Web:         http://www.foam-extend.org         |
|    \\/     M anipulation  | For copyright notice see file Copyright         |
\*---------------------------------------------------------------------------*/
FoamFile
{
    version     2.0;
    format      ascii;
    class       areaScalarField;
    location    "120";
    object      Cpost;
}
// * * * * * * * * * * * * * * * * * * * * * * * * * * * * * * * * * * * * * //

dimensions      [1 -3 0 0 0 0 0];

internalField   nonuniform List<scalar> 
550
(
0.0197
0.0197
0.0197
0.0197
0.0197
0.0197
0.0197
0.0197
0.0197
0.0197
0.0197
0.0197
0.0197
0.0197
0.0197
0.0197
0.0197
0.0197
0.0197
0.0197
0.0197
0.0197
0.0197
0.0197
0.0197
0.0197
0.0197
0.0197
0.0197
0.0197
0.0197
0.0197
0.0197
0.0197
0.0197
0.0197
0.0197
0.0197
0.0197
0.0197
0.0197
0.0197
0.0197
0.0197
0.0197
0.0197
0.0197
0.0197
0.0197
0.0197
0.0197
0.0197
0.0197
0.0197
0.0197
0.0197
0.0197
0.0197
0.0197
0.0197
0.0197
0.0197
0.0197
0.0197
0.0197
0.0197
0.0197
0.0197
0.0196999
0.0196999
0.0196999
0.0196999
0.0196999
0.0196999
0.0196999
0.0196999
0.0196998
0.0196998
0.0196998
0.0196997
0.0196997
0.0196997
0.0196996
0.0196996
0.0196995
0.0196994
0.0196993
0.0196992
0.0196991
0.019699
0.0196989
0.0196987
0.0196985
0.0196983
0.0196981
0.0196979
0.0196976
0.0196973
0.0196969
0.0196965
0.0196961
0.0196957
0.0196952
0.0196946
0.019694
0.0196933
0.0196926
0.0196919
0.019691
0.0196901
0.0196892
0.0196881
0.019687
0.0196859
0.0196846
0.0196833
0.0196819
0.0196805
0.0196789
0.0196773
0.0196756
0.0196738
0.019672
0.01967
0.019668
0.0196659
0.0196637
0.0196615
0.0196592
0.0196568
0.0196543
0.0196517
0.0196491
0.0196464
0.0196437
0.0196408
0.0196379
0.019635
0.0196319
0.0196288
0.0196257
0.0196225
0.0196192
0.0196159
0.0196125
0.0196091
0.0196056
0.0196021
0.0195985
0.0195949
0.0195912
0.0195874
0.0195837
0.0195799
0.019576
0.0195721
0.0195681
0.0195642
0.0195601
0.0195561
0.019552
0.0195479
0.0195437
0.0195395
0.0195353
0.019531
0.0195268
0.0195224
0.0195181
0.0195138
0.0195094
0.019505
0.0195006
0.0194961
0.0194917
0.0194872
0.0194828
0.0194783
0.0194737
0.0194692
0.0194647
0.0194601
0.0194556
0.019451
0.0194465
0.0194419
0.0194373
0.0194327
0.0194281
0.0194235
0.0194189
0.0194143
0.0194097
0.019405
0.0194004
0.0193958
0.0193912
0.0193866
0.0193819
0.0193773
0.0193727
0.0193681
0.0193634
0.0193588
0.0193542
0.0193496
0.019345
0.0193404
0.0193358
0.0193312
0.0193266
0.019322
0.0193174
0.0193129
0.0193083
0.0193038
0.0192992
0.0192947
0.0192902
0.0192857
0.0192812
0.0192767
0.0192723
0.0192678
0.0192634
0.019259
0.0192546
0.0192502
0.0192458
0.0192415
0.0192372
0.0192329
0.0192286
0.0192244
0.0192201
0.0192159
0.0192123
0.0192089
0.0192052
0.0192015
0.0191978
0.0191941
0.0191903
0.0191864
0.0191824
0.0191784
0.0191744
0.0191703
0.0191661
0.0191619
0.0191577
0.0191535
0.0191492
0.0191449
0.0191406
0.0191362
0.0191318
0.0191274
0.019123
0.0191185
0.019114
0.0191095
0.0191049
0.0191003
0.0190956
0.0190909
0.0190862
0.0190813
0.0190765
0.0190716
0.0190666
0.0190616
0.0190565
0.0190514
0.0190462
0.0190409
0.0190356
0.0190303
0.0190249
0.0190194
0.0190139
0.0190083
0.0190026
0.0189969
0.0189912
0.0189854
0.0189796
0.0189737
0.0189677
0.0189618
0.0189558
0.0189497
0.0189436
0.0189375
0.0189314
0.0189252
0.018919
0.0189128
0.0189066
0.0189003
0.018894
0.0188878
0.0188814
0.0188751
0.0188688
0.0188625
0.0188561
0.0188497
0.0188434
0.018837
0.0188306
0.0188242
0.0188178
0.0188114
0.018805
0.0187987
0.0187923
0.0187859
0.0187795
0.0187732
0.0187668
0.0187605
0.0187541
0.0187478
0.0187415
0.0187352
0.0187289
0.0187227
0.0187165
0.0187103
0.0187041
0.0186979
0.0186918
0.0186857
0.0186796
0.0186736
0.0186675
0.0186615
0.0186556
0.0186496
0.0186437
0.0186378
0.018632
0.0186262
0.0186204
0.0186147
0.0186089
0.0186033
0.0185976
0.018592
0.0185863
0.0185807
0.0185752
0.0185696
0.0185641
0.0185586
0.0185531
0.0185476
0.0185421
0.0185367
0.0185312
0.0185258
0.0185204
0.018515
0.0185096
0.0185042
0.0184989
0.0184935
0.0184882
0.0184828
0.0184775
0.0184721
0.0184668
0.0184615
0.0184562
0.0184509
0.0184456
0.0184403
0.018435
0.0184296
0.0184243
0.018419
0.0184137
0.0184084
0.018403
0.0183977
0.0183923
0.018387
0.0183816
0.0183762
0.0183708
0.0183654
0.01836
0.0183546
0.0183492
0.0183438
0.0183383
0.0183329
0.0183274
0.018322
0.0183165
0.018311
0.0183055
0.0183
0.0182945
0.018289
0.0182834
0.0182779
0.0182723
0.0182667
0.0182611
0.0182555
0.0182498
0.0182441
0.0182384
0.0182327
0.0182269
0.0182211
0.0182153
0.0182094
0.0182035
0.0181976
0.0181916
0.0181856
0.0181795
0.0181734
0.0181673
0.0181611
0.0181549
0.0181487
0.0181424
0.0181361
0.0181298
0.0181234
0.018117
0.0181106
0.0181041
0.0180977
0.0180912
0.0180846
0.018078
0.0180715
0.0180648
0.0180582
0.0180515
0.0180449
0.0180382
0.0180315
0.0180248
0.0180181
0.0180114
0.0180047
0.0179979
0.0179912
0.0179845
0.0179778
0.0179711
0.0179644
0.0179577
0.017951
0.0179443
0.0179377
0.017931
0.0179244
0.0179177
0.0179111
0.0179045
0.0178978
0.0178912
0.0178846
0.017878
0.0178714
0.0178648
0.0178582
0.0178516
0.017845
0.0178385
0.0178319
0.0178254
0.0178189
0.0178124
0.0178059
0.0177994
0.017793
0.0177866
0.0177802
0.0177738
0.0177675
0.0177611
0.0177549
0.0177486
0.0177423
0.0177361
0.0177299
0.0177237
0.0177175
0.0177113
0.0177052
0.0176991
0.017693
0.0176869
0.0176808
0.0176747
0.0176687
0.0176627
0.0176567
0.0176507
0.0176447
0.0176387
0.0176327
0.0176267
0.0176207
0.0176147
0.0176088
0.0176028
0.0175968
0.0175908
0.0175849
0.0175789
0.0175729
0.0175669
0.017561
0.017555
0.017549
0.017543
0.017537
0.0175309
0.0175248
0.0175187
0.0175125
0.0175061
0.0174995
0.0174927
0.0174854
0.0174776
0.0174689
0.017459
0.0174479
0.0174344
0.0174538
0.01747
0.0174839
0.017496
0.0175061
0.017515
0.0175222
0.0175307
0.0175833
0.0176279
0.0176299
)
;

boundaryField
{
    inlet
    {
        type            calculated;
        value           uniform 0;
    }
    endWall
    {
        type            calculated;
        value           uniform 0;
    }
    sideWall
    {
        type            empty;
    }
}


// ************************************************************************* //
