/*--------------------------------*- C++ -*----------------------------------*\
| =========                 |                                                 |
| \\      /  F ield         | foam-extend: Open Source CFD                    |
|  \\    /   O peration     | Version:     3.2                                |
|   \\  /    A nd           | Web:         http://www.foam-extend.org         |
|    \\/     M anipulation  | For copyright notice see file Copyright         |
\*---------------------------------------------------------------------------*/
FoamFile
{
    version     2.0;
    format      ascii;
    class       areaScalarField;
    location    "120";
    object      SSe1;
}
// * * * * * * * * * * * * * * * * * * * * * * * * * * * * * * * * * * * * * //

dimensions      [0 1 -2 -1 0 0 0];

internalField   nonuniform List<scalar> 
550
(
6.89652e-07
1.27277e-06
2.12409e-06
3.28465e-06
4.76681e-06
6.54489e-06
8.55802e-06
1.07108e-05
1.28974e-05
1.50037e-05
1.69377e-05
1.86247e-05
2.00239e-05
2.11155e-05
2.19047e-05
2.241e-05
2.26642e-05
2.2704e-05
2.25699e-05
2.23102e-05
2.19535e-05
2.1524e-05
2.10429e-05
2.05284e-05
1.99963e-05
1.94598e-05
1.89292e-05
1.8414e-05
1.79208e-05
1.74496e-05
1.70006e-05
1.65749e-05
1.61731e-05
1.57951e-05
1.54406e-05
1.51087e-05
1.47986e-05
1.45094e-05
1.42399e-05
1.39891e-05
1.37559e-05
1.35392e-05
1.33378e-05
1.31506e-05
1.29767e-05
1.28149e-05
1.26644e-05
1.25246e-05
1.23945e-05
1.22734e-05
1.21607e-05
1.20558e-05
1.19579e-05
1.18665e-05
1.1781e-05
1.17008e-05
1.16254e-05
1.15545e-05
1.14876e-05
1.14243e-05
1.13643e-05
1.13073e-05
1.12532e-05
1.12015e-05
1.11523e-05
1.11051e-05
1.10599e-05
1.10165e-05
1.09746e-05
1.09343e-05
1.08952e-05
1.08574e-05
1.08206e-05
1.07849e-05
1.07499e-05
1.07158e-05
1.06823e-05
1.06495e-05
1.06172e-05
1.05855e-05
1.05544e-05
1.05238e-05
1.04937e-05
1.04641e-05
1.0435e-05
1.04063e-05
1.03781e-05
1.03503e-05
1.03229e-05
1.02959e-05
1.02692e-05
1.02428e-05
1.02167e-05
1.01907e-05
1.0165e-05
1.01394e-05
1.0114e-05
1.00889e-05
1.00639e-05
1.00392e-05
1.00147e-05
9.99037e-06
9.96611e-06
9.94187e-06
9.91759e-06
9.89323e-06
9.86872e-06
9.84405e-06
9.81916e-06
9.79405e-06
9.76869e-06
9.74307e-06
9.71718e-06
9.69104e-06
9.66464e-06
9.638e-06
9.61108e-06
9.58388e-06
9.55644e-06
9.52875e-06
9.50085e-06
9.47273e-06
9.4444e-06
9.41588e-06
9.38719e-06
9.35836e-06
9.32939e-06
9.30033e-06
9.27119e-06
9.242e-06
9.21278e-06
9.18354e-06
9.15429e-06
9.12505e-06
9.09584e-06
9.06664e-06
9.0375e-06
9.0084e-06
8.97937e-06
8.95043e-06
8.92157e-06
8.89281e-06
8.86417e-06
8.83565e-06
8.80725e-06
8.779e-06
8.7509e-06
8.72296e-06
8.69518e-06
8.66758e-06
8.64016e-06
8.61294e-06
8.58592e-06
8.55912e-06
8.53256e-06
8.50624e-06
8.48019e-06
8.45441e-06
8.42892e-06
8.40372e-06
8.37882e-06
8.35423e-06
8.32996e-06
8.30601e-06
8.28239e-06
8.25911e-06
8.23618e-06
8.21359e-06
8.19137e-06
8.1695e-06
8.14801e-06
8.12689e-06
8.10615e-06
8.08579e-06
8.06582e-06
8.04622e-06
8.02701e-06
8.00818e-06
7.98972e-06
7.97164e-06
7.95393e-06
7.93658e-06
7.91961e-06
7.903e-06
7.88675e-06
7.87086e-06
7.85532e-06
7.84013e-06
7.82529e-06
7.8108e-06
7.79665e-06
7.78285e-06
7.7694e-06
7.75629e-06
7.74352e-06
7.7311e-06
7.71902e-06
7.70729e-06
7.6959e-06
7.68485e-06
7.67413e-06
7.66376e-06
7.65373e-06
7.64403e-06
7.63465e-06
7.6256e-06
7.61685e-06
7.60841e-06
7.60026e-06
7.59238e-06
7.58476e-06
7.57739e-06
7.57024e-06
7.56331e-06
7.55658e-06
7.55003e-06
7.54365e-06
7.53743e-06
7.53133e-06
7.52536e-06
7.51949e-06
7.51371e-06
7.50801e-06
7.50237e-06
7.49679e-06
7.49125e-06
7.48568e-06
7.48003e-06
7.47429e-06
7.46844e-06
7.46248e-06
7.45642e-06
7.45028e-06
7.44406e-06
7.43778e-06
7.43143e-06
7.42504e-06
7.41307e-06
7.40374e-06
7.40572e-06
7.3993e-06
7.39293e-06
7.38659e-06
7.38033e-06
7.37409e-06
7.36782e-06
7.36157e-06
7.35534e-06
7.34911e-06
7.34286e-06
7.33659e-06
7.33029e-06
7.32396e-06
7.31757e-06
7.31112e-06
7.3046e-06
7.29799e-06
7.2913e-06
7.28452e-06
7.27766e-06
7.27072e-06
7.26369e-06
7.25658e-06
7.2494e-06
7.24214e-06
7.2348e-06
7.2274e-06
7.21993e-06
7.21241e-06
7.20484e-06
7.19722e-06
7.18957e-06
7.18188e-06
7.17416e-06
7.16644e-06
7.15871e-06
7.15097e-06
7.14324e-06
7.13551e-06
7.12779e-06
7.12008e-06
7.11239e-06
7.10472e-06
7.09708e-06
7.0895e-06
7.08197e-06
7.07452e-06
7.06714e-06
7.05985e-06
7.05265e-06
7.04554e-06
7.03854e-06
7.03165e-06
7.02487e-06
7.01821e-06
7.01167e-06
7.00525e-06
6.99897e-06
6.99282e-06
6.98679e-06
6.98088e-06
6.97509e-06
6.9694e-06
6.9638e-06
6.95829e-06
6.95286e-06
6.9475e-06
6.94221e-06
6.93699e-06
6.93185e-06
6.92678e-06
6.92178e-06
6.91687e-06
6.91204e-06
6.90729e-06
6.90262e-06
6.89803e-06
6.89351e-06
6.88907e-06
6.88471e-06
6.88042e-06
6.87621e-06
6.87207e-06
6.86802e-06
6.86404e-06
6.86015e-06
6.85634e-06
6.8526e-06
6.84893e-06
6.84533e-06
6.84179e-06
6.83831e-06
6.83489e-06
6.83152e-06
6.82821e-06
6.82495e-06
6.82173e-06
6.81856e-06
6.81541e-06
6.81229e-06
6.80919e-06
6.80609e-06
6.803e-06
6.7999e-06
6.79677e-06
6.7936e-06
6.79038e-06
6.78709e-06
6.78372e-06
6.78026e-06
6.77669e-06
6.773e-06
6.76918e-06
6.76522e-06
6.76112e-06
6.75688e-06
6.7525e-06
6.74798e-06
6.74333e-06
6.73855e-06
6.73365e-06
6.72862e-06
6.72348e-06
6.7182e-06
6.71281e-06
6.70729e-06
6.70164e-06
6.69587e-06
6.68998e-06
6.68397e-06
6.67784e-06
6.67159e-06
6.66521e-06
6.65871e-06
6.65207e-06
6.6453e-06
6.63837e-06
6.6313e-06
6.62408e-06
6.61672e-06
6.60921e-06
6.60156e-06
6.59377e-06
6.58585e-06
6.57781e-06
6.56964e-06
6.56136e-06
6.55296e-06
6.54447e-06
6.53587e-06
6.52718e-06
6.51841e-06
6.50956e-06
6.50064e-06
6.49167e-06
6.48264e-06
6.47357e-06
6.46446e-06
6.45531e-06
6.44612e-06
6.43689e-06
6.42763e-06
6.41834e-06
6.40904e-06
6.39971e-06
6.39038e-06
6.38105e-06
6.37171e-06
6.36238e-06
6.35304e-06
6.34371e-06
6.33437e-06
6.32503e-06
6.31568e-06
6.30632e-06
6.29695e-06
6.28755e-06
6.27814e-06
6.2687e-06
6.25923e-06
6.24974e-06
6.24023e-06
6.23069e-06
6.22114e-06
6.21157e-06
6.20199e-06
6.19241e-06
6.18282e-06
6.17325e-06
6.16369e-06
6.15416e-06
6.14467e-06
6.13523e-06
6.12585e-06
6.11654e-06
6.1073e-06
6.09816e-06
6.08911e-06
6.08015e-06
6.0713e-06
6.06257e-06
6.05395e-06
6.04546e-06
6.03711e-06
6.0289e-06
6.02083e-06
6.0129e-06
6.00511e-06
5.99746e-06
5.98994e-06
5.98254e-06
5.97526e-06
5.96808e-06
5.961e-06
5.95402e-06
5.94715e-06
5.94038e-06
5.93371e-06
5.92715e-06
5.92068e-06
5.9143e-06
5.90799e-06
5.90175e-06
5.89557e-06
5.88943e-06
5.88332e-06
5.87726e-06
5.87122e-06
5.86523e-06
5.85928e-06
5.85338e-06
5.84752e-06
5.84169e-06
5.83591e-06
5.83017e-06
5.82447e-06
5.81883e-06
5.81323e-06
5.8077e-06
5.80223e-06
5.79682e-06
5.79147e-06
5.78617e-06
5.78093e-06
5.77573e-06
5.77059e-06
5.76547e-06
5.76038e-06
5.75529e-06
5.75021e-06
5.74511e-06
5.74e-06
5.73486e-06
5.72969e-06
5.72448e-06
5.71924e-06
5.71396e-06
5.70867e-06
5.70334e-06
5.69801e-06
5.69266e-06
5.68731e-06
5.68191e-06
5.67649e-06
5.671e-06
5.66544e-06
5.65977e-06
5.65401e-06
5.64811e-06
5.64213e-06
5.636e-06
5.62979e-06
5.62343e-06
5.61701e-06
5.61045e-06
5.60382e-06
5.59705e-06
5.59025e-06
5.58333e-06
5.57638e-06
5.5693e-06
5.56219e-06
5.55488e-06
5.54745e-06
5.53973e-06
5.5318e-06
5.52337e-06
5.51462e-06
5.50489e-06
5.49457e-06
5.48227e-06
5.46869e-06
5.45118e-06
5.43094e-06
5.40291e-06
5.36961e-06
5.31883e-06
5.26198e-06
5.1201e-06
4.92966e-06
4.71519e-06
4.41666e-06
3.97689e-06
3.40856e-06
2.68251e-06
1.8215e-06
7.53475e-07
1.34159e-07
2.69518e-07
8.35512e-07
)
;

boundaryField
{
    inlet
    {
        type            calculated;
        value           uniform 0;
    }
    endWall
    {
        type            calculated;
        value           uniform 0;
    }
    sideWall
    {
        type            empty;
    }
}


// ************************************************************************* //
