/*--------------------------------*- C++ -*----------------------------------*\
| =========                 |                                                 |
| \\      /  F ield         | foam-extend: Open Source CFD                    |
|  \\    /   O peration     | Version:     3.2                                |
|   \\  /    A nd           | Web:         http://www.foam-extend.org         |
|    \\/     M anipulation  | For copyright notice see file Copyright         |
\*---------------------------------------------------------------------------*/
FoamFile
{
    version     2.0;
    format      ascii;
    class       volVectorField;
    location    "120";
    object      U;
}
// * * * * * * * * * * * * * * * * * * * * * * * * * * * * * * * * * * * * * //

dimensions      [0 1 -1 0 0 0 0];

internalField   nonuniform List<vector> 
33000
(
(0.376451 0 0.000574936)
(0.371414 0 0.000508218)
(0.364565 -2.75867e-29 0.000614232)
(0.357274 0 0.00063543)
(0.350042 2.77131e-29 0.000691131)
(0.342786 0 0.000648841)
(0.3361 -9.14148e-29 0.000642803)
(0.329515 1.5348e-28 0.000575962)
(0.32346 1.63363e-28 0.000572034)
(0.31746 -7.699e-29 0.000566287)
(0.311854 8.97553e-29 0.000544228)
(0.306389 0 0.000497043)
(0.301263 -3.35233e-38 0.000458141)
(0.296294 9.94403e-29 0.000410655)
(0.291562 0 0.000356119)
(0.286976 1.01621e-28 0.000297853)
(0.28262 -1.07128e-28 0.00022776)
(0.278455 9.30569e-29 0.000164202)
(0.274483 5.55753e-29 0.000112035)
(0.270653 0 6.41157e-05)
(0.266984 1.86278e-29 2.61901e-05)
(0.263459 -1.52148e-29 -5.80631e-06)
(0.260086 0 -3.37944e-05)
(0.256866 1.65768e-29 -6.19092e-05)
(0.253807 0 -8.977e-05)
(0.250911 0 -0.000117743)
(0.248182 2.41164e-29 -0.000144204)
(0.24561 0 -0.000160881)
(0.243175 0 -0.000168859)
(0.240868 0 -0.000178424)
(0.23868 -1.49364e-29 -0.000187708)
(0.236608 1.51137e-29 -0.000196048)
(0.23465 -1.51584e-29 -0.000204407)
(0.232797 -1.59569e-29 -0.000213149)
(0.231045 1.69881e-29 -0.000222129)
(0.229389 -1.77681e-29 -0.000231073)
(0.227825 0 -0.000239673)
(0.226349 0 -0.000248087)
(0.224957 0 -0.000256839)
(0.223646 2.01519e-29 -0.000265624)
(0.222411 -2.15796e-29 -0.000275508)
(0.22125 0 -0.000285795)
(0.220155 0 -0.000294753)
(0.219124 0 -0.000303373)
(0.218151 -2.26739e-29 -0.000311662)
(0.217235 0 -0.000320347)
(0.216371 0 -0.000329809)
(0.215558 -2.49311e-29 -0.00033875)
(0.214792 2.51251e-29 -0.000347129)
(0.21407 -2.5267e-29 -0.000354952)
(0.21339 0 -0.000362217)
(0.212749 0 -0.000368833)
(0.212145 -2.51561e-29 -0.000374657)
(0.211574 2.48576e-29 -0.000379644)
(0.211034 -2.43784e-29 -0.000383709)
(0.210522 -2.41587e-29 -0.000387244)
(0.210036 -2.36054e-29 -0.000389914)
(0.209576 0 -0.000391563)
(0.209138 0 -0.000392828)
(0.208721 0 -0.000393964)
(0.208322 -2.17062e-29 -0.000394718)
(0.207943 -2.10308e-29 -0.000394881)
(0.207581 0 -0.000394836)
(0.207235 0 -0.000394698)
(0.206905 0 -0.000394497)
(0.20659 -1.95619e-29 -0.000394255)
(0.206288 1.92511e-29 -0.000393984)
(0.205999 0 -0.000393701)
(0.205721 0 -0.000393421)
(0.205455 0 -0.000393048)
(0.205199 0 -0.000392652)
(0.204951 0 -0.000392416)
(0.204712 1.71529e-29 -0.000392265)
(0.204479 0 -0.000392127)
(0.204254 -1.63715e-29 -0.000392068)
(0.204034 -1.62897e-29 -0.000392246)
(0.203818 1.61571e-29 -0.00039254)
(0.203608 0 -0.000392838)
(0.203403 -1.54999e-29 -0.000392967)
(0.203204 1.4739e-29 -0.000392722)
(0.203011 1.40869e-29 -0.000392273)
(0.202822 0 -0.000392031)
(0.202638 0 -0.000391847)
(0.202458 0 -0.000391733)
(0.202281 -2.61276e-29 -0.00039165)
(0.202109 0 -0.000391574)
(0.20194 0 -0.000391488)
(0.201775 0 -0.000391383)
(0.201613 -1.18967e-29 -0.000391271)
(0.201455 -1.15288e-29 -0.000391072)
(0.201301 1.12358e-29 -0.00039085)
(0.201148 -1.05043e-29 -0.00039007)
(0.200997 1.8555e-46 -0.000389259)
(0.200847 -1.00714e-29 -0.00038878)
(0.2007 2.1395e-46 -0.000388245)
(0.200556 9.52265e-30 -0.000387977)
(0.200415 0 -0.00038821)
(0.200278 0 -0.000388805)
(0.200144 -2.0639e-29 -0.000389697)
(0.200014 -1.05324e-29 -0.000390736)
(0.199887 0 -0.000391247)
(0.199762 9.81298e-30 -0.000391202)
(0.199639 -9.59044e-30 -0.000390942)
(0.199515 0 -0.000390601)
(0.199393 -9.36947e-30 -0.000390217)
(0.19927 0 -0.000389824)
(0.199146 -1.85735e-29 -0.000389409)
(0.199022 1.85414e-29 -0.000388976)
(0.198897 -9.24641e-30 -0.000388504)
(0.198771 0 -0.000388019)
(0.198643 -9.25928e-30 -0.000387521)
(0.198514 -1.84728e-29 -0.000386978)
(0.198383 1.84931e-29 -0.000386426)
(0.19825 9.31642e-30 -0.000385928)
(0.198117 -1.81428e-29 -0.000385178)
(0.197982 -9.1216e-30 -0.000384424)
(0.197843 -1.89402e-29 -0.000383927)
(0.197702 9.35755e-30 -0.000383271)
(0.197559 -9.19342e-30 -0.000382465)
(0.197415 -9.21342e-30 -0.00038171)
(0.197269 -9.22078e-30 -0.000380977)
(0.197121 1.84606e-29 -0.000380256)
(0.19697 -1.84834e-29 -0.000379542)
(0.196818 9.2467e-30 -0.000378825)
(0.196664 -9.50436e-40 -0.000378118)
(0.196508 -9.2517e-30 -0.000377411)
(0.19635 -9.24387e-30 -0.000376717)
(0.19619 -1.84507e-29 -0.000376036)
(0.196029 -9.19582e-30 -0.000375368)
(0.195867 9.71137e-40 -0.000374709)
(0.195704 -9.10863e-30 -0.000374056)
(0.195539 9.6857e-40 -0.000373405)
(0.195373 -1.80079e-29 -0.000372755)
(0.195207 -8.95159e-30 -0.000372105)
(0.195039 8.89993e-30 -0.000371457)
(0.194869 -1.77018e-29 -0.000370814)
(0.194699 -2.64011e-29 -0.000370174)
(0.194528 0 -0.000369542)
(0.194355 -2.61342e-29 -0.000368913)
(0.194181 -1.73395e-29 -0.000368286)
(0.194007 8.63117e-30 -0.000367663)
(0.193831 -8.59823e-30 -0.000367044)
(0.193654 6.96035e-40 -0.000366432)
(0.193476 -1.70929e-29 -0.000365831)
(0.193298 -8.5265e-30 -0.000365242)
(0.193118 5.53478e-40 -0.000364669)
(0.192938 -8.5022e-30 -0.000364117)
(0.192758 -1.69945e-29 -0.000363589)
(0.192577 -8.4968e-30 -0.000363085)
(0.192395 -8.50159e-30 -0.000362611)
(0.192214 1.70218e-29 -0.000362169)
(0.192033 8.52305e-30 -0.000361764)
(0.191852 -1.70723e-29 -0.0003614)
(0.191672 -2.87603e-40 -0.000361078)
(0.191492 -8.54723e-30 -0.000360799)
(0.191314 -8.54374e-30 -0.000360558)
(0.191136 -8.52708e-30 -0.000360351)
(0.190961 8.4994e-30 -0.000360172)
(0.190786 -1.69195e-29 -0.000360016)
(0.190614 8.40864e-30 -0.000359879)
(0.190444 -8.34347e-30 -0.000359756)
(0.190275 8.27392e-30 -0.000359648)
(0.190108 1.64099e-29 -0.000359563)
(0.189944 -1.62609e-29 -0.000359498)
(0.189781 -8.04766e-30 -0.000359451)
(0.189621 -7.95799e-30 -0.000359418)
(0.189463 -3.94528e-46 -0.000359397)
(0.189307 1.55283e-29 -0.000359385)
(0.189153 -7.66288e-30 -0.000359381)
(0.189001 -4.75393e-46 -0.00035938)
(0.188852 -7.45268e-30 -0.000359384)
(0.188705 -5.22279e-46 -0.000359389)
(0.18856 0 -0.000359398)
(0.188417 0 -0.000359409)
(0.188277 7.01851e-30 -0.000359422)
(0.188139 -6.91395e-30 -0.000359438)
(0.188002 6.81643e-30 -0.000359457)
(0.187868 6.72131e-30 -0.00035948)
(0.187737 1.32632e-29 -0.000359508)
(0.187607 -6.54256e-30 -0.000359542)
(0.187479 -6.325e-46 -0.000359581)
(0.187353 -6.36848e-30 -0.000359626)
(0.18723 -6.50149e-46 -0.000359675)
(0.187108 -6.19269e-30 -0.00035973)
(0.186989 1.22049e-29 -0.000359788)
(0.186872 0 -0.000359852)
(0.186757 5.92645e-30 -0.000359918)
(0.186644 -5.84687e-30 -0.000359991)
(0.186533 -7.04908e-46 -0.000360067)
(0.186424 1.13616e-29 -0.000360144)
(0.186316 -5.5971e-30 -0.00036022)
(0.186211 0 -0.000360293)
(0.186108 0 -0.000360368)
(0.186006 0 -0.000360441)
(0.185906 -5.28199e-30 -0.000360515)
(0.185808 2.56669e-45 -0.00036059)
(0.185712 2.50353e-45 -0.000360665)
(0.185617 1.01999e-29 -0.000360748)
(0.185524 -5.05308e-30 -0.000360832)
(0.185432 -5.00357e-30 -0.000360916)
(0.185342 4.9619e-30 -0.000361009)
(0.185254 -9.85571e-30 -0.000361109)
(0.185168 -9.7728e-30 -0.000361212)
(0.185084 4.84529e-30 -0.000361323)
(0.185002 -4.80454e-30 -0.000361441)
(0.184921 9.52475e-30 -0.000361567)
(0.184843 9.43956e-30 -0.000361698)
(0.184766 -4.67547e-30 -0.000361837)
(0.184692 7.22281e-42 -0.000361981)
(0.18462 -4.57962e-30 -0.000362129)
(0.184549 -4.52958e-30 -0.000362277)
(0.184481 0 -0.00036242)
(0.184414 -1.99721e-41 -0.000362555)
(0.184349 -4.35691e-30 -0.000362679)
(0.184286 8.58285e-30 -0.000362791)
(0.184224 0 -0.00036289)
(0.184163 5.51262e-41 -0.000362975)
(0.184104 8.16913e-30 -0.000363042)
(0.184046 0 -0.000363091)
(0.183989 -3.9635e-30 -0.000363118)
(0.183933 -3.91476e-30 -0.000363126)
(0.183877 3.87372e-30 -0.000363114)
(0.183822 3.84082e-30 -0.00036308)
(0.183767 0 -0.000363023)
(0.183712 3.79214e-30 -0.000362942)
(0.183657 0 -0.000362683)
(0.183601 0 -0.00036225)
(0.183544 0 -0.000361835)
(0.183486 -3.52755e-30 -0.000361441)
(0.183427 0 -0.000361077)
(0.183367 0 -0.000360744)
(0.183307 0 -0.000360445)
(0.183245 0 -0.000360178)
(0.183184 0 -0.000359938)
(0.183123 0 -0.00035973)
(0.183061 -3.68548e-30 -0.000359551)
(0.183 3.5335e-30 -0.000359259)
(0.182938 0 -0.000359049)
(0.182878 0 -0.000358269)
(0.182818 0 -0.00035704)
(0.182761 0 -0.000355838)
(0.182704 0 -0.000354497)
(0.18265 0 -0.000353271)
(0.182597 0 -0.000351837)
(0.182546 0 -0.000351238)
(0.182494 -3.53617e-30 -0.000351479)
(0.182442 -3.25362e-30 -0.000351327)
(0.182392 0 -0.000351072)
(0.182342 3.16231e-30 -0.000350913)
(0.182292 0 -0.000350791)
(0.182242 3.10887e-30 -0.000350689)
(0.182193 0 -0.000350549)
(0.182144 0 -0.00035039)
(0.182096 0 -0.00035022)
(0.182047 0 -0.000350048)
(0.181999 0 -0.000349877)
(0.18195 0 -0.000349705)
(0.181902 0 -0.000349532)
(0.181853 0 -0.000349357)
(0.181804 0 -0.00034918)
(0.181755 2.90253e-30 -0.000349002)
(0.181705 0 -0.000348826)
(0.181656 0 -0.000348655)
(0.181606 0 -0.000348492)
(0.181556 0 -0.000348337)
(0.181506 0 -0.00034819)
(0.181456 0 -0.00034805)
(0.181405 0 -0.000347913)
(0.181355 0 -0.00034778)
(0.181304 0 -0.00034765)
(0.181252 0 -0.000347524)
(0.181201 0 -0.000347402)
(0.181149 0 -0.000347283)
(0.181097 2.62392e-30 -0.000347164)
(0.181044 0 -0.000347044)
(0.180991 0 -0.000346925)
(0.180938 -1.78306e-37 -0.000346806)
(0.180884 0 -0.000346691)
(0.18083 5.0219e-30 -0.00034658)
(0.180776 0 -0.000346473)
(0.180721 0 -0.000346372)
(0.180665 0 -0.000346281)
(0.180609 0 -0.000346202)
(0.180553 0 -0.000346142)
(0.180497 0 -0.000346101)
(0.18044 -2.59353e-30 -0.000346081)
(0.180384 0 -0.00034608)
(0.180328 0 -0.000346095)
(0.180272 9.93867e-38 -0.000346127)
(0.180216 0 -0.000346178)
(0.180161 -1.89679e-37 -0.00034625)
(0.180106 0 -0.000346346)
(0.180051 2.62255e-30 -0.000346467)
(0.179998 -2.62031e-30 -0.000346613)
(0.179945 0 -0.000346786)
(0.179892 0 -0.000346984)
(0.179841 0 -0.000347204)
(0.17979 5.36672e-38 -0.000347439)
(0.179741 0 -0.000347679)
(0.179693 -2.41765e-30 -0.000347917)
(0.179645 0 -0.000348146)
(0.179599 0 -0.000348364)
(0.179553 0 -0.000348567)
(0.179508 7.2713e-38 -0.000348755)
(0.179464 -2.15838e-30 -0.000348927)
(0.179421 2.12799e-30 -0.000349088)
(0.179378 -2.10652e-30 -0.000349238)
(0.179335 -4.18672e-30 -0.00034938)
(0.179292 2.08662e-30 -0.000349516)
(0.17925 4.16672e-30 -0.00034965)
(0.179208 2.08216e-30 -0.000349783)
(0.179166 2.07811e-30 -0.000349917)
(0.179125 0 -0.000350055)
(0.179085 0 -0.000350195)
(0.179044 -2.05613e-30 -0.000350339)
(0.179005 0 -0.000350486)
(0.178966 -4.06518e-30 -0.000350635)
(0.178928 0 -0.000350786)
(0.17889 2.00176e-30 -0.000350936)
(0.178854 0 -0.000351085)
(0.178817 0 -0.00035123)
(0.178782 0 -0.000351372)
(0.178747 0 -0.000351507)
(0.178713 0 -0.000351633)
(0.178679 1.87204e-37 -0.00035175)
(0.178646 -1.7712e-30 -0.000351858)
(0.178614 -1.83281e-37 -0.000351953)
(0.178582 0 -0.000352032)
(0.178551 3.24186e-30 -0.000352094)
(0.17852 1.57477e-30 -0.000352135)
(0.178489 -1.53216e-30 -0.000352154)
(0.178459 1.73231e-37 -0.00035215)
(0.178429 0 -0.000352123)
(0.178399 0 -0.000352075)
(0.178369 1.369e-30 -0.000352006)
(0.178338 1.33241e-30 -0.000351917)
(0.178308 0 -0.000351805)
(0.178278 1.36131e-37 -0.000351669)
(0.178248 0 -0.000351509)
(0.178217 1.25504e-30 -0.000351324)
(0.178186 0 -0.000351116)
(0.178154 1.25221e-30 -0.000350886)
(0.178122 1.25916e-30 -0.000350635)
(0.17809 0 -0.000350366)
(0.178056 0 -0.000350079)
(0.178023 0 -0.000349778)
(0.177988 1.35622e-30 -0.000349461)
(0.177953 0 -0.000349129)
(0.177917 -2.87535e-30 -0.000348782)
(0.177881 0 -0.00034842)
(0.177844 -1.53335e-30 -0.000348047)
(0.177806 0 -0.000347667)
(0.177767 0 -0.000347282)
(0.177727 1.7061e-30 -0.000346898)
(0.177686 3.53725e-30 -0.000346516)
(0.177645 -1.83055e-30 -0.000346139)
(0.177603 0 -0.000345767)
(0.17756 0 -0.0003454)
(0.177516 0 -0.000345037)
(0.177472 -2.01402e-30 -0.000344677)
(0.177428 2.03513e-30 -0.000344321)
(0.177383 0 -0.00034397)
(0.177337 0 -0.000343625)
(0.177292 -2.05414e-30 -0.000343282)
(0.177245 2.05856e-30 -0.000342937)
(0.177199 2.06409e-30 -0.000342588)
(0.177151 2.0697e-30 -0.000342232)
(0.177103 0 -0.000341869)
(0.177055 0 -0.0003415)
(0.177005 2.09121e-30 -0.000341125)
(0.176955 0 -0.000340742)
(0.176904 -2.1052e-30 -0.000340353)
(0.176853 -2.11292e-30 -0.000339957)
(0.1768 0 -0.000339558)
(0.176746 0 -0.000339156)
(0.176692 -4.35989e-30 -0.000338754)
(0.176636 0 -0.000338354)
(0.176579 0 -0.000337957)
(0.176522 0 -0.000337567)
(0.176463 0 -0.000337181)
(0.176403 -2.46198e-30 -0.000336803)
(0.176342 0 -0.000336432)
(0.17628 0 -0.000336074)
(0.176217 2.64486e-30 -0.000335728)
(0.176154 -2.69961e-30 -0.000335398)
(0.17609 -2.74706e-30 -0.000335085)
(0.176025 2.78791e-30 -0.000334793)
(0.175959 0 -0.000334522)
(0.175894 -5.71258e-30 -0.000334273)
(0.175828 2.89016e-30 -0.000334046)
(0.175762 5.84482e-30 -0.000333837)
(0.175695 0 -0.000333642)
(0.175629 5.92964e-30 -0.000333457)
(0.175562 0 -0.000333281)
(0.175496 0 -0.00033311)
(0.175429 2.9633e-30 -0.000332945)
(0.175363 2.94504e-30 -0.000332783)
(0.175297 2.92465e-30 -0.000332627)
(0.17523 0 -0.000332477)
(0.175164 0 -0.000332334)
(0.175098 6.06155e-38 -0.000332196)
(0.175032 2.83002e-30 -0.000332061)
(0.174966 -2.80466e-30 -0.000331927)
(0.1749 5.55763e-30 -0.000331792)
(0.174834 0 -0.000331651)
(0.174768 2.72107e-30 -0.0003315)
(0.174701 -2.68661e-30 -0.00033134)
(0.174634 5.31129e-30 -0.000331172)
(0.174567 0 -0.000331)
(0.1745 5.53535e-38 -0.000330821)
(0.174431 0 -0.00033064)
(0.174363 -5.90431e-38 -0.000330454)
(0.174293 0 -0.000330265)
(0.174223 2.54841e-30 -0.00033007)
(0.174153 2.55388e-30 -0.000329868)
(0.174081 2.56913e-30 -0.000329657)
(0.174009 0 -0.000329438)
(0.173936 5.23155e-30 -0.000329215)
(0.173862 0 -0.000328993)
(0.173787 2.69231e-30 -0.000328773)
(0.17371 0 -0.000328559)
(0.173633 0 -0.000328351)
(0.173556 0 -0.000328148)
(0.173477 0 -0.000327953)
(0.173397 -2.95984e-30 -0.000327767)
(0.173317 0 -0.000327593)
(0.173236 -3.07698e-30 -0.000327434)
(0.173155 -3.13589e-30 -0.000327291)
(0.173073 6.29221e-39 -0.000327166)
(0.172991 0 -0.000327062)
(0.172909 -6.58721e-30 -0.000326978)
(0.172827 0 -0.000326918)
(0.172744 0 -0.000326884)
(0.172662 0 -0.000326884)
(0.172581 0 -0.000326916)
(0.1725 3.42678e-30 -0.000326978)
(0.17242 6.83421e-30 -0.000327067)
(0.172341 0 -0.000327183)
(0.172263 -3.38031e-30 -0.000327322)
(0.172187 0 -0.000327482)
(0.172111 -3.32448e-30 -0.00032766)
(0.172037 0 -0.00032785)
(0.171964 0 -0.000328051)
(0.171892 3.18246e-30 -0.000328259)
(0.171822 0 -0.000328472)
(0.171753 0 -0.000328685)
(0.171686 0 -0.000328889)
(0.17162 -2.87486e-30 -0.000329076)
(0.171556 -2.17341e-38 -0.000329242)
(0.171493 0 -0.000329387)
(0.171431 0 -0.000329521)
(0.171371 2.56077e-30 -0.000329642)
(0.171311 5.00573e-30 -0.00032975)
(0.171251 0 -0.000329852)
(0.171192 2.41563e-30 -0.00032994)
(0.171134 0 -0.000330018)
(0.171076 -2.34731e-30 -0.000330079)
(0.171019 -2.31821e-30 -0.000330128)
(0.170962 0 -0.00033016)
(0.170905 0 -0.000330182)
(0.170848 0 -0.000330193)
(0.170792 2.25967e-30 -0.0003302)
(0.170736 -8.40217e-39 -0.000330201)
(0.170681 0 -0.000330204)
(0.170625 0 -0.000330209)
(0.17057 2.36581e-30 -0.000330226)
(0.170515 2.40458e-30 -0.00033025)
(0.17046 0 -0.000330293)
(0.170406 4.9177e-30 -0.000330344)
(0.170353 9.48762e-39 -0.000330411)
(0.1703 0 -0.000330473)
(0.170249 0 -0.000330539)
(0.170198 -2.3713e-30 -0.000330592)
(0.170149 0 -0.000330643)
(0.170099 0 -0.00033067)
(0.170051 0 -0.000330686)
(0.170003 0 -0.00033067)
(0.169955 0 -0.000330643)
(0.169908 0 -0.000330588)
(0.169861 0 -0.000330537)
(0.169814 0 -0.000330464)
(0.169767 0 -0.000330399)
(0.16972 0 -0.000330303)
(0.169674 0 -0.000330214)
(0.169627 0 -0.0003301)
(0.169581 0 -0.000330007)
(0.169535 0 -0.000329897)
(0.16949 0 -0.000329814)
(0.169444 0 -0.000329711)
(0.1694 -2.08665e-30 -0.000329636)
(0.169355 2.52719e-38 -0.00032953)
(0.169312 -3.09208e-38 -0.000329453)
(0.169268 0 -0.000329333)
(0.169225 0 -0.000329252)
(0.169182 -2.04753e-30 -0.000329122)
(0.16914 -2.06104e-30 -0.000329038)
(0.169098 1.99474e-30 -0.000328898)
(0.169056 2.00183e-30 -0.000328809)
(0.169013 1.91243e-30 -0.000328648)
(0.168972 -3.81473e-30 -0.000328537)
(0.168929 -1.79447e-30 -0.000328333)
(0.168888 0 -0.000328182)
(0.168846 1.67008e-30 -0.000327921)
(0.168804 0 -0.000327719)
(0.168761 0 -0.000327385)
(0.168718 0 -0.000327135)
(0.168673 -1.62776e-30 -0.000326743)
(0.168628 1.76668e-30 -0.000326466)
(0.168581 0 -0.000326043)
(0.168533 -1.88034e-30 -0.000325758)
(0.168483 -1.81575e-30 -0.000325316)
(0.168433 0 -0.00032504)
(0.168381 -1.86818e-30 -0.000324595)
(0.168329 2.85776e-39 -0.000324338)
(0.168275 0 -0.000323894)
(0.168221 0 -0.000323637)
(0.168164 -3.90472e-30 -0.000323155)
(0.168108 0 -0.000322834)
(0.168048 0 -0.000322241)
(0.16799 0 -0.000321773)
(0.167926 1.95381e-30 -0.000320972)
(0.167863 -6.88204e-37 -0.000320271)
(0.167794 0 -0.000319064)
(0.167725 0 -0.000317983)
(0.167647 -6.25541e-37 -0.000316036)
(0.167566 -4.22983e-30 -0.000313941)
(0.16747 1.7224e-30 -0.000310589)
(0.167374 0 -0.000305573)
(0.167238 0 -0.000298449)
(0.167107 3.32034e-31 -0.000288673)
(0.166891 -1.8973e-30 -0.000273475)
(0.166683 -3.679e-30 -0.000255001)
(0.166308 -1.08889e-29 -0.000225171)
(0.165941 1.3224e-29 -0.000190195)
(0.165248 1.2804e-33 -0.000131267)
(0.164587 0 -6.48071e-05)
(0.163188 2.10594e-29 4.30065e-05)
(0.162131 4.08514e-29 0.000262153)
(0.1584 2.96339e-30 -0.000356107)
(0.152997 2.84069e-28 -0.00035851)
(0.146858 -4.35681e-28 0.000715408)
(0.139517 -1.32625e-28 0.00125184)
(0.12674 1.46314e-28 0.00190799)
(0.111658 0 0.00225013)
(0.0902292 -2.8627e-28 0.00285436)
(0.0650855 3.06002e-28 0.00500753)
(0.0166399 0 0.00290922)
(0.000688422 0 0.00175032)
(-0.0225822 0 0.00240604)
(-0.0337908 0 -0.00520289)
(0.379157 0 0.00125342)
(0.376807 0 0.00124099)
(0.373043 -4.6551e-28 0.00187431)
(0.367655 0 0.00183059)
(0.363527 0 0.00193827)
(0.358732 0 0.00172273)
(0.354966 -2.95212e-28 0.00168453)
(0.35117 3.23889e-28 0.00150612)
(0.347803 1.67256e-28 0.00144084)
(0.344993 -3.14896e-28 0.00127833)
(0.342605 1.32652e-28 0.00121776)
(0.340333 0 0.00111759)
(0.338194 -1.10985e-28 0.00105747)
(0.336088 8.67041e-29 0.000995624)
(0.334025 0 0.000971601)
(0.331961 0 0.0009315)
(0.329882 0 0.000904473)
(0.327652 -1.02451e-29 0.000870382)
(0.325447 0 0.000841108)
(0.323217 0 0.00081244)
(0.321044 -1.96074e-29 0.000778223)
(0.318864 0 0.000738336)
(0.316716 0 0.000693891)
(0.314569 0 0.000645995)
(0.312453 0 0.000595269)
(0.310351 0 0.00054262)
(0.308276 -5.99785e-29 0.00048981)
(0.306222 0 0.000433648)
(0.304223 0 0.000377249)
(0.302273 0 0.000328052)
(0.300371 -5.55685e-29 0.000280702)
(0.298519 5.70241e-29 0.000233677)
(0.296722 -5.6527e-29 0.000189361)
(0.294978 -5.56204e-29 0.00014868)
(0.293284 5.54334e-29 0.000110802)
(0.291641 -5.568e-29 7.45606e-05)
(0.290047 0 3.98362e-05)
(0.288504 -5.48579e-29 7.21077e-06)
(0.287008 -5.42324e-29 -2.34388e-05)
(0.285561 -1.31688e-45 -5.24975e-05)
(0.284158 -5.01449e-29 -7.81692e-05)
(0.282809 0 -0.00010106)
(0.281505 -4.73557e-29 -0.000123078)
(0.280248 0 -0.000143392)
(0.279031 -4.42875e-29 -0.000162213)
(0.27786 0 -0.000179193)
(0.276726 0 -0.000193935)
(0.275625 -3.90203e-29 -0.00020784)
(0.274558 3.77892e-29 -0.000220888)
(0.273522 -3.65132e-29 -0.000233178)
(0.272519 -3.52523e-29 -0.00024467)
(0.271546 0 -0.000255583)
(0.270603 -3.29857e-29 -0.000265973)
(0.269689 3.18919e-29 -0.000275705)
(0.268805 -3.09244e-29 -0.000284972)
(0.267947 0 -0.000293635)
(0.267116 -3.02899e-29 -0.000302649)
(0.266311 -2.97357e-29 -0.000311743)
(0.265532 0 -0.000319859)
(0.264776 0 -0.000327205)
(0.264042 0 -0.000334582)
(0.26333 0 -0.000342347)
(0.262639 2.75862e-29 -0.000349718)
(0.26197 0 -0.000356619)
(0.26132 0 -0.000363128)
(0.260689 0 -0.000369229)
(0.260077 2.50558e-29 -0.000374921)
(0.259482 0 -0.000380238)
(0.258904 0 -0.000385081)
(0.258344 -2.30657e-29 -0.000389563)
(0.257798 2.24522e-29 -0.000393516)
(0.257268 2.18436e-29 -0.000396793)
(0.256751 2.13257e-29 -0.000399708)
(0.256248 2.06013e-29 -0.000402272)
(0.255759 -1.96584e-29 -0.00040419)
(0.255281 1.88798e-29 -0.000405473)
(0.254815 1.83842e-29 -0.000406599)
(0.254361 -1.82494e-29 -0.000407746)
(0.253918 0 -0.00040941)
(0.253487 0 -0.000411788)
(0.253067 1.79033e-29 -0.000413938)
(0.25266 0 -0.000415407)
(0.252262 0 -0.000416738)
(0.251876 0 -0.000417887)
(0.251497 -1.59643e-29 -0.000418994)
(0.251131 0 -0.000420092)
(0.250773 0 -0.000421218)
(0.250426 0 -0.000422379)
(0.250088 -1.46639e-29 -0.000423496)
(0.249762 0 -0.00042465)
(0.249444 1.81592e-46 -0.000425489)
(0.249136 -1.36239e-29 -0.000426231)
(0.248833 2.73686e-29 -0.000426883)
(0.248537 -1.38778e-29 -0.000427738)
(0.248248 2.79812e-29 -0.000429033)
(0.247966 1.36434e-29 -0.000430171)
(0.247689 0 -0.000430798)
(0.247414 0 -0.000431138)
(0.247141 -1.25938e-29 -0.000431552)
(0.246872 -1.20151e-29 -0.000431812)
(0.246608 0 -0.000431855)
(0.246345 0 -0.000431893)
(0.246084 -1.14246e-29 -0.000431904)
(0.245824 0 -0.000431744)
(0.245565 -1.1053e-29 -0.000431422)
(0.245306 0 -0.000430909)
(0.245048 -1.06477e-29 -0.000430242)
(0.24479 -9.57814e-46 -0.000429424)
(0.244532 0 -0.000428513)
(0.244274 1.01507e-29 -0.000427506)
(0.244015 1.00389e-29 -0.000426432)
(0.243756 -1.61462e-39 -0.000425384)
(0.243497 -9.29656e-40 -0.000424247)
(0.243237 -9.96021e-30 -0.000423164)
(0.242977 -9.70017e-30 -0.00042242)
(0.242718 -9.17215e-30 -0.000420845)
(0.242457 -1.63595e-39 -0.000418934)
(0.242194 -9.39549e-40 -0.000417916)
(0.241932 -9.51645e-30 -0.000417001)
(0.24167 -9.38569e-30 -0.000415849)
(0.241408 9.32209e-30 -0.000414664)
(0.241145 1.85467e-29 -0.000413448)
(0.240883 -1.70011e-39 -0.000412229)
(0.24062 -9.20701e-30 -0.000411022)
(0.240357 -9.84693e-40 -0.000409836)
(0.240094 9.14419e-30 -0.000408706)
(0.239831 9.10065e-30 -0.000407637)
(0.239568 -1.75272e-39 -0.000406635)
(0.239305 8.9842e-30 -0.000405704)
(0.239043 -1.78199e-29 -0.000404829)
(0.238781 8.82801e-30 -0.000403992)
(0.238521 1.00388e-39 -0.00040317)
(0.238262 -1.7281e-29 -0.000402348)
(0.238003 8.53875e-30 -0.000401514)
(0.237745 -8.43408e-30 -0.000400675)
(0.237488 8.6531e-40 -0.000399831)
(0.237232 -8.22069e-30 -0.000398992)
(0.236976 0 -0.000398155)
(0.236721 -8.0119e-30 -0.000397324)
(0.236466 7.64597e-40 -0.000396498)
(0.236212 -7.83302e-30 -0.000395682)
(0.235959 7.7653e-30 -0.000394879)
(0.235706 7.20907e-40 -0.000394094)
(0.235453 -1.53623e-29 -0.000393338)
(0.235202 7.66479e-30 -0.000392612)
(0.234951 -1.53372e-29 -0.000391926)
(0.2347 7.69273e-30 -0.000391281)
(0.234451 -8.33652e-40 -0.000390691)
(0.234202 7.80737e-30 -0.000390156)
(0.233955 7.89684e-30 -0.000389684)
(0.233708 1.60164e-29 -0.000389278)
(0.233463 -8.13795e-30 -0.000388948)
(0.233219 -5.4171e-40 -0.000388707)
(0.232976 -2.97532e-40 -0.000388565)
(0.232736 8.57778e-30 -0.000388528)
(0.232497 -8.72705e-30 -0.000388587)
(0.23226 -8.85828e-30 -0.000388733)
(0.232026 0 -0.000388951)
(0.231794 -6.35109e-40 -0.000389225)
(0.231565 9.13256e-30 -0.000389543)
(0.231338 -7.65861e-40 -0.000389905)
(0.231115 -9.17162e-30 -0.000390305)
(0.230894 -5.30593e-40 -0.000390728)
(0.230676 -1.01755e-39 -0.000391175)
(0.23046 9.16493e-30 -0.000391649)
(0.230248 9.12752e-30 -0.000392144)
(0.230039 1.8154e-29 -0.000392656)
(0.229832 9.00939e-30 -0.000393175)
(0.229628 8.93346e-30 -0.000393699)
(0.229427 1.76917e-29 -0.000394223)
(0.229229 8.75502e-30 -0.000394749)
(0.229034 1.73169e-29 -0.000395278)
(0.228842 0 -0.000395815)
(0.228652 8.4637e-30 -0.000396355)
(0.228465 8.37264e-30 -0.000396895)
(0.228281 8.28708e-30 -0.000397429)
(0.2281 0 -0.000397956)
(0.227921 8.14707e-30 -0.00039848)
(0.227745 8.08897e-30 -0.000399003)
(0.227572 0 -0.000399529)
(0.227402 7.97643e-30 -0.00040006)
(0.227234 0 -0.000400596)
(0.227068 7.86463e-30 -0.000401142)
(0.226905 0 -0.00040169)
(0.226745 6.87458e-46 -0.000402242)
(0.226587 1.53609e-29 -0.000402785)
(0.226432 0 -0.000403317)
(0.226279 7.52093e-30 -0.000403829)
(0.226128 1.48578e-29 -0.000404325)
(0.225979 7.02573e-46 -0.000404808)
(0.225833 0 -0.00040528)
(0.225689 1.42392e-29 -0.000405736)
(0.225547 -7.02347e-30 -0.000406174)
(0.225407 6.92655e-30 -0.000406602)
(0.225269 0 -0.000407009)
(0.225133 -6.75944e-30 -0.000407405)
(0.224998 1.33909e-29 -0.000407789)
(0.224865 1.32903e-29 -0.000408175)
(0.224734 0 -0.000408573)
(0.224605 -6.59937e-30 -0.00040899)
(0.224477 0 -0.000409424)
(0.224351 -6.62773e-30 -0.000409888)
(0.224227 -1.32549e-29 -0.000410392)
(0.224105 0 -0.000410926)
(0.223984 0 -0.00041148)
(0.223865 1.32496e-29 -0.000412052)
(0.223749 6.62291e-30 -0.000412633)
(0.223634 -6.61615e-30 -0.000413222)
(0.223521 6.59916e-30 -0.000413811)
(0.22341 0 -0.00041439)
(0.223301 -6.52359e-30 -0.000414945)
(0.223193 0 -0.000415471)
(0.223087 -1.27536e-29 -0.000415959)
(0.222983 0 -0.000416414)
(0.22288 -3.08512e-40 -0.000416833)
(0.222778 6.0098e-30 -0.000417211)
(0.222678 5.85889e-30 -0.000417539)
(0.222579 5.69911e-30 -0.00041781)
(0.222481 -5.53809e-30 -0.000418016)
(0.222383 0 -0.000418155)
(0.222286 1.29289e-39 -0.000418226)
(0.22219 5.09935e-30 -0.000418232)
(0.222094 4.98451e-30 -0.000418177)
(0.221998 0 -0.000418057)
(0.221902 4.77079e-30 -0.000417888)
(0.221806 0 -0.000417572)
(0.22171 0 -0.000417108)
(0.221615 0 -0.000416609)
(0.221519 -8.48593e-30 -0.000416112)
(0.221423 0 -0.000415653)
(0.221328 -4.38972e-30 -0.000415254)
(0.221232 0 -0.000414931)
(0.221138 -4.61028e-30 -0.000414682)
(0.221043 0 -0.000414502)
(0.220949 4.86112e-30 -0.000414359)
(0.220856 0 -0.000414329)
(0.220764 4.77449e-30 -0.000414049)
(0.220673 0 -0.000414017)
(0.220582 4.36372e-30 -0.000413313)
(0.220493 4.4512e-30 -0.00041203)
(0.220406 0 -0.000410952)
(0.220321 4.25389e-30 -0.000409623)
(0.220238 0 -0.000408678)
(0.220157 0 -0.000407297)
(0.220078 0 -0.00040685)
(0.219999 -5.28842e-30 -0.000407553)
(0.219921 -4.94675e-30 -0.000407579)
(0.219844 0 -0.00040745)
(0.219769 9.19817e-37 -0.000407448)
(0.219694 0 -0.000407475)
(0.21962 4.77261e-30 -0.000407534)
(0.219546 4.68255e-30 -0.00040754)
(0.219474 0 -0.000407512)
(0.219402 4.55294e-30 -0.000407442)
(0.219331 0 -0.000407318)
(0.219261 0 -0.000407137)
(0.219191 0 -0.000406912)
(0.21912 0 -0.000406665)
(0.21905 0 -0.000406421)
(0.21898 0 -0.000406192)
(0.21891 0 -0.000405982)
(0.21884 0 -0.000405784)
(0.21877 0 -0.000405592)
(0.2187 0 -0.000405399)
(0.218631 0 -0.000405209)
(0.218562 0 -0.000405025)
(0.218493 0 -0.000404851)
(0.218424 4.13422e-30 -0.000404676)
(0.218355 -4.03779e-30 -0.000404498)
(0.218286 0 -0.000404301)
(0.218217 0 -0.00040408)
(0.218148 0 -0.000403838)
(0.218078 0 -0.000403586)
(0.218008 0 -0.000403345)
(0.217938 3.42205e-30 -0.000403124)
(0.217868 0 -0.000402926)
(0.217797 -3.21531e-30 -0.000402739)
(0.217727 0 -0.000402548)
(0.217656 3.054e-30 -0.000402339)
(0.217585 0 -0.000402112)
(0.217514 0 -0.000401874)
(0.217442 0 -0.000401653)
(0.21737 0 -0.000401466)
(0.217297 0 -0.000401344)
(0.217225 0 -0.000401276)
(0.217152 0 -0.000401269)
(0.21708 0 -0.000401302)
(0.217008 -3.17476e-30 -0.000401378)
(0.216936 -3.20589e-30 -0.000401487)
(0.216865 0 -0.000401633)
(0.216794 6.53933e-30 -0.000401811)
(0.216724 0 -0.000402023)
(0.216654 0 -0.000402273)
(0.216584 -6.68613e-30 -0.000402571)
(0.216515 0 -0.000402927)
(0.216447 -3.33497e-30 -0.000403344)
(0.21638 0 -0.000403819)
(0.216314 -2.02682e-37 -0.000404338)
(0.216249 0 -0.000404879)
(0.216185 0 -0.000405424)
(0.216123 -2.94774e-30 -0.000405955)
(0.216061 -2.84059e-30 -0.000406455)
(0.216001 -2.74043e-30 -0.000406915)
(0.215941 5.30821e-30 -0.000407329)
(0.215883 0 -0.000407692)
(0.215825 -1.05683e-37 -0.000408007)
(0.215768 0 -0.000408276)
(0.215711 -2.45453e-30 -0.000408513)
(0.215654 2.4438e-30 -0.000408728)
(0.215597 2.44444e-30 -0.000408945)
(0.215541 2.45333e-30 -0.000409174)
(0.215486 0 -0.000409433)
(0.21543 0 -0.000409721)
(0.215376 0 -0.000410035)
(0.215322 -2.53111e-30 -0.000410366)
(0.215269 -2.5494e-30 -0.000410708)
(0.215217 1.56334e-37 -0.000411054)
(0.215165 0 -0.000411401)
(0.215115 -2.56509e-30 -0.000411738)
(0.215065 0 -0.000412069)
(0.215016 2.52673e-30 -0.000412385)
(0.214967 0 -0.000412694)
(0.21492 0 -0.000412994)
(0.214872 0 -0.000413287)
(0.214826 2.27786e-30 -0.000413572)
(0.21478 0 -0.000413841)
(0.214735 -2.08196e-30 -0.000414082)
(0.21469 0 -0.000414283)
(0.214646 -3.48595e-37 -0.000414439)
(0.214603 -1.73414e-30 -0.000414544)
(0.21456 -1.62074e-30 -0.000414602)
(0.214517 1.5105e-30 -0.000414612)
(0.214474 0 -0.000414584)
(0.214431 1.29515e-30 -0.000414521)
(0.214388 -1.19009e-30 -0.000414426)
(0.214346 -2.87501e-37 -0.000414295)
(0.214303 1.00751e-30 -0.000414119)
(0.21426 9.35576e-31 -0.000413896)
(0.214216 0 -0.000413622)
(0.214173 1.65553e-30 -0.000413306)
(0.214129 0 -0.000412947)
(0.214084 1.51724e-30 -0.000412559)
(0.214039 7.40947e-31 -0.000412139)
(0.213993 0 -0.000411695)
(0.213947 0 -0.000411222)
(0.2139 0 -0.000410726)
(0.213852 8.56589e-31 -0.000410204)
(0.213804 0 -0.000409656)
(0.213755 -1.00927e-30 -0.000409084)
(0.213706 0 -0.00040849)
(0.213656 -2.41003e-30 -0.000407877)
(0.213605 1.31815e-30 -0.000407243)
(0.213554 0 -0.000406589)
(0.213502 0 -0.000405925)
(0.213448 1.69302e-30 -0.000405255)
(0.213395 -3.64234e-30 -0.000404598)
(0.21334 0 -0.000403959)
(0.213284 -2.05057e-30 -0.000403351)
(0.213228 0 -0.000402772)
(0.213172 0 -0.000402229)
(0.213114 0 -0.000401719)
(0.213057 0 -0.000401234)
(0.213 0 -0.000400758)
(0.212942 -4.58978e-30 -0.000400265)
(0.212884 0 -0.000399746)
(0.212826 -2.50532e-38 -0.000399191)
(0.212767 2.21979e-30 -0.00039861)
(0.212707 2.19103e-30 -0.000398007)