/*--------------------------------*- C++ -*----------------------------------*\
| =========                 |                                                 |
| \\      /  F ield         | foam-extend: Open Source CFD                    |
|  \\    /   O peration     | Version:     3.2                                |
|   \\  /    A nd           | Web:         http://www.foam-extend.org         |
|    \\/     M anipulation  | For copyright notice see file Copyright         |
\*---------------------------------------------------------------------------*/
FoamFile
{
    version     2.0;
    format      ascii;
    class       areaScalarField;
    location    "37";
    object      Ce2;
}
// * * * * * * * * * * * * * * * * * * * * * * * * * * * * * * * * * * * * * //

dimensions      [1 -3 0 0 0 0 0];

internalField   nonuniform List<scalar> 
300
(
4.59557
3.263
1.88168
1.39819
1.2287
1.14278
1.08186
1.02948
0.982031
0.939625
0.902303
0.86937
0.839928
0.813947
0.7908
0.769953
0.75105
0.73374
0.718008
0.703759
0.690616
0.678342
0.666884
0.656185
0.646205
0.636803
0.627963
0.619592
0.6117
0.604249
0.597168
0.590443
0.58402
0.577908
0.572074
0.566515
0.561175
0.556064
0.55115
0.546429
0.541909
0.537542
0.533349
0.529288
0.525378
0.521598
0.517954
0.514427
0.511007
0.5077
0.504484
0.501373
0.498355
0.495424
0.492578
0.489806
0.487114
0.48448
0.481905
0.479396
0.47695
0.474569
0.472248
0.469984
0.467777
0.465625
0.463522
0.461468
0.45946
0.457497
0.455579
0.453704
0.45187
0.450074
0.448314
0.446594
0.444906
0.443255
0.441637
0.440049
0.438495
0.436968
0.435471
0.434003
0.432561
0.431148
0.42976
0.428396
0.427058
0.425741
0.424449
0.42318
0.421931
0.420705
0.419499
0.418312
0.417146
0.415998
0.414869
0.413759
0.412665
0.41159
0.410531
0.409487
0.408461
0.40745
0.406454
0.405474
0.404507
0.403556
0.402618
0.401693
0.400782
0.399884
0.398999
0.398127
0.397266
0.396418
0.395581
0.394756
0.393941
0.393139
0.392346
0.391564
0.390793
0.39003
0.389277
0.388533
0.387798
0.387071
0.386352
0.385641
0.384939
0.384246
0.383562
0.382888
0.382223
0.381567
0.380921
0.380284
0.379656
0.379037
0.378425
0.377821
0.377223
0.376633
0.376048
0.375469
0.374895
0.374327
0.373764
0.373206
0.372655
0.372109
0.371569
0.371034
0.370506
0.369984
0.369467
0.368957
0.368453
0.367954
0.367461
0.366973
0.36649
0.366013
0.365541
0.365073
0.364611
0.364153
0.363699
0.363251
0.362806
0.362366
0.361931
0.3615
0.361073
0.360651
0.360233
0.359819
0.359409
0.359003
0.358601
0.358203
0.357809
0.357418
0.357032
0.356649
0.35627
0.355894
0.355522
0.355154
0.354789
0.354428
0.354069
0.353715
0.353363
0.353015
0.35267
0.352328
0.351989
0.351654
0.351321
0.350991
0.350665
0.350341
0.35002
0.349703
0.349388
0.349076
0.348766
0.34846
0.348156
0.347855
0.347556
0.34726
0.346966
0.346676
0.346387
0.346102
0.345818
0.345538
0.345259
0.344983
0.344709
0.344439
0.344169
0.343903
0.343638
0.343376
0.343116
0.342859
0.342603
0.34235
0.342098
0.34185
0.341602
0.341358
0.341114
0.340874
0.340634
0.340398
0.340162
0.33993
0.339698
0.33947
0.339241
0.339017
0.338792
0.338571
0.33835
0.338133
0.337915
0.337702
0.337488
0.337277
0.337067
0.33686
0.336653
0.336449
0.336246
0.336045
0.335845
0.335647
0.335451
0.335255
0.335063
0.334869
0.334682
0.33449
0.334306
0.334116
0.333937
0.333747
0.333573
0.333384
0.333215
0.333027
0.332863
0.332674
0.332516
0.332327
0.332174
0.331984
0.331837
0.331645
0.331503
0.33131
0.331172
0.330978
0.330842
0.330649
0.330512
0.330314
0.330201
0.329969
0.329948
0.329617
0.329738
0.329092
)
;

boundaryField
{
    inlet
    {
        type            calculated;
        value           uniform 0;
    }
    outlet
    {
        type            calculated;
        value           uniform 0;
    }
    sideWall
    {
        type            empty;
    }
}


// ************************************************************************* //
