/*--------------------------------*- C++ -*----------------------------------*\
| =========                 |                                                 |
| \\      /  F ield         | foam-extend: Open Source CFD                    |
|  \\    /   O peration     | Version:     3.2                                |
|   \\  /    A nd           | Web:         http://www.foam-extend.org         |
|    \\/     M anipulation  | For copyright notice see file Copyright         |
\*---------------------------------------------------------------------------*/
FoamFile
{
    version     2.0;
    format      ascii;
    class       areaScalarField;
    location    "37";
    object      Fi1;
}
// * * * * * * * * * * * * * * * * * * * * * * * * * * * * * * * * * * * * * //

dimensions      [0 1 -1 0 0 0 0];

internalField   nonuniform List<scalar> 
300
(
-0.000738682
-0.000520019
-0.000293344
-0.000213995
-0.000186179
-0.000172076
-0.000162079
-0.000153481
-0.000145692
-0.000138732
-0.000132606
-0.0001272
-0.000122367
-0.000118103
-0.000114303
-0.000110881
-0.000107778
-0.000104937
-0.000102354
-0.000100015
-9.78575e-05
-9.58427e-05
-9.39618e-05
-9.22054e-05
-9.0567e-05
-8.90235e-05
-8.75723e-05
-8.61981e-05
-8.49026e-05
-8.36794e-05
-8.25168e-05
-8.14128e-05
-8.03583e-05
-7.93549e-05
-7.83972e-05
-7.74846e-05
-7.66078e-05
-7.57687e-05
-7.4962e-05
-7.41869e-05
-7.34448e-05
-7.27278e-05
-7.20396e-05
-7.13728e-05
-7.07309e-05
-7.01102e-05
-6.95119e-05
-6.8933e-05
-6.83713e-05
-6.78284e-05
-6.73005e-05
-6.67896e-05
-6.62942e-05
-6.58129e-05
-6.53457e-05
-6.48905e-05
-6.44486e-05
-6.40162e-05
-6.35933e-05
-6.31814e-05
-6.27798e-05
-6.23889e-05
-6.20078e-05
-6.16361e-05
-6.12737e-05
-6.09203e-05
-6.05751e-05
-6.02379e-05
-5.99082e-05
-5.95859e-05
-5.9271e-05
-5.89631e-05
-5.8662e-05
-5.8367e-05
-5.80781e-05
-5.77957e-05
-5.75186e-05
-5.72474e-05
-5.69817e-05
-5.67211e-05
-5.64658e-05
-5.62152e-05
-5.59694e-05
-5.57284e-05
-5.54916e-05
-5.52596e-05
-5.50317e-05
-5.48076e-05
-5.4588e-05
-5.43718e-05
-5.41597e-05
-5.39512e-05
-5.37462e-05
-5.35449e-05
-5.33468e-05
-5.31519e-05
-5.29605e-05
-5.27719e-05
-5.25866e-05
-5.24043e-05
-5.22247e-05
-5.20482e-05
-5.18742e-05
-5.17029e-05
-5.15345e-05
-5.13684e-05
-5.12049e-05
-5.1044e-05
-5.08852e-05
-5.0729e-05
-5.02443e-05
-5.00973e-05
-4.99526e-05
-4.98097e-05
-4.9669e-05
-4.95302e-05
-4.9393e-05
-4.9258e-05
-4.91248e-05
-4.89932e-05
-4.88636e-05
-4.87357e-05
-4.86093e-05
-4.84846e-05
-4.83614e-05
-4.82395e-05
-4.81193e-05
-4.80001e-05
-4.78824e-05
-4.77661e-05
-4.76509e-05
-4.75373e-05
-4.74252e-05
-4.73145e-05
-4.72055e-05
-4.70982e-05
-4.69923e-05
-4.68881e-05
-4.67854e-05
-4.66839e-05
-4.65839e-05
-4.64851e-05
-4.63874e-05
-4.62908e-05
-4.61951e-05
-4.61003e-05
-4.60063e-05
-4.59133e-05
-4.5821e-05
-4.57297e-05
-4.56392e-05
-4.55496e-05
-4.54611e-05
-4.53735e-05
-4.52868e-05
-4.52013e-05
-4.51166e-05
-4.5033e-05
-4.49504e-05
-4.48687e-05
-4.47879e-05
-4.4708e-05
-4.4629e-05
-4.45508e-05
-4.44734e-05
-4.43968e-05
-4.4321e-05
-4.4246e-05
-4.41717e-05
-4.40982e-05
-4.40254e-05
-4.39533e-05
-4.38819e-05
-4.38113e-05
-4.37414e-05
-4.36722e-05
-4.36036e-05
-4.35358e-05
-4.34686e-05
-4.34021e-05
-4.33362e-05
-4.32709e-05
-4.32063e-05
-4.31424e-05
-4.3079e-05
-4.30163e-05
-4.29542e-05
-4.28926e-05
-4.28316e-05
-4.27713e-05
-4.27114e-05
-4.26522e-05
-4.25935e-05
-4.25353e-05
-4.24777e-05
-4.24207e-05
-4.23641e-05
-4.2308e-05
-4.22525e-05
-4.21975e-05
-4.21429e-05
-4.2089e-05
-4.20354e-05
-4.19824e-05
-4.19298e-05
-4.18777e-05
-4.1826e-05
-4.17749e-05
-4.17241e-05
-4.16739e-05
-4.1624e-05
-4.15747e-05
-4.15257e-05
-4.14772e-05
-4.14291e-05
-4.13815e-05
-4.13341e-05
-4.12874e-05
-4.12409e-05
-4.11949e-05
-4.11492e-05
-4.1104e-05
-4.10591e-05
-4.10146e-05
-4.09705e-05
-4.09268e-05
-4.08834e-05
-4.08405e-05
-4.07978e-05
-4.07556e-05
-4.07136e-05
-4.06722e-05
-4.06309e-05
-4.05901e-05
-4.05495e-05
-4.05095e-05
-4.04695e-05
-4.04301e-05
-4.03908e-05
-4.03521e-05
-4.03135e-05
-4.02754e-05
-4.02373e-05
-4.01999e-05
-4.01624e-05
-4.01256e-05
-4.00888e-05
-4.00526e-05
-4.00163e-05
-3.99807e-05
-3.9945e-05
-3.991e-05
-3.98749e-05
-3.98404e-05
-3.98059e-05
-3.9772e-05
-3.9738e-05
-3.97046e-05
-3.96712e-05
-3.96383e-05
-3.96054e-05
-3.95731e-05
-3.95408e-05
-3.95089e-05
-3.94771e-05
-3.94456e-05
-3.94145e-05
-3.93834e-05
-3.93529e-05
-3.93221e-05
-3.92923e-05
-3.92618e-05
-3.92326e-05
-3.92023e-05
-3.91738e-05
-3.91437e-05
-3.9116e-05
-3.9086e-05
-3.90591e-05
-3.90291e-05
-3.9003e-05
-3.89729e-05
-3.89476e-05
-3.89173e-05
-3.88929e-05
-3.88624e-05
-3.88971e-05
-3.88655e-05
-3.88427e-05
-3.8811e-05
-3.87885e-05
-3.87568e-05
-3.87345e-05
-3.87019e-05
-3.86834e-05
-3.86453e-05
-3.86418e-05
-3.85874e-05
-3.86072e-05
-3.85012e-05
)
;

boundaryField
{
    inlet
    {
        type            calculated;
        value           uniform 0;
    }
    outlet
    {
        type            calculated;
        value           uniform 0;
    }
    sideWall
    {
        type            empty;
    }
}


// ************************************************************************* //
