/*--------------------------------*- C++ -*----------------------------------*\
| =========                 |                                                 |
| \\      /  F ield         | foam-extend: Open Source CFD                    |
|  \\    /   O peration     | Version:     3.2                                |
|   \\  /    A nd           | Web:         http://www.foam-extend.org         |
|    \\/     M anipulation  | For copyright notice see file Copyright         |
\*---------------------------------------------------------------------------*/
FoamFile
{
    version     2.0;
    format      ascii;
    class       areaScalarField;
    location    "37";
    object      thetaSS1init;
}
// * * * * * * * * * * * * * * * * * * * * * * * * * * * * * * * * * * * * * //

dimensions      [0 0 0 0 0 0 0];

internalField   nonuniform List<scalar> 
300
(
27.0488
21.5408
14.943
12.2697
11.2609
10.7301
10.3458
10.0104
9.70261
9.42362
9.1748
8.95236
8.75105
8.57138
8.40966
8.2626
8.1281
8.0039
7.89019
7.78645
7.69013
7.59961
7.51461
7.4348
7.35995
7.28908
7.22213
7.15844
7.09813
7.04095
6.98639
6.93438
6.88451
6.83689
6.79128
6.74767
6.70563
6.66528
6.62638
6.58888
6.55287
6.51799
6.48444
6.45182
6.42035
6.38984
6.36036
6.33176
6.30397
6.27704
6.25078
6.22534
6.20061
6.17654
6.15313
6.13027
6.10803
6.08624
6.06489
6.04406
6.0237
6.00386
5.98449
5.96557
5.94707
5.92902
5.91135
5.89408
5.87717
5.86061
5.8444
5.82852
5.81298
5.79774
5.78278
5.76814
5.75377
5.73969
5.72588
5.71231
5.699
5.68591
5.67307
5.66046
5.64805
5.63589
5.62393
5.61216
5.6006
5.58921
5.57802
5.56702
5.55619
5.54556
5.53508
5.52475
5.5146
5.50458
5.49474
5.48504
5.47548
5.46608
5.45681
5.44767
5.43866
5.42979
5.42105
5.41243
5.40392
5.39554
5.38727
5.37911
5.37106
5.36313
5.3553
5.34759
5.33997
5.33243
5.32501
5.31769
5.31045
5.30331
5.29626
5.2893
5.28242
5.27564
5.26893
5.26231
5.25576
5.24929
5.24291
5.23661
5.23038
5.22421
5.21812
5.2121
5.20615
5.20028
5.19448
5.18874
5.18305
5.17744
5.17189
5.16639
5.16098
5.1556
5.1503
5.14505
5.13986
5.13473
5.12964
5.12461
5.11964
5.11471
5.10985
5.10503
5.10026
5.09554
5.09088
5.08625
5.08168
5.07716
5.07269
5.06824
5.06385
5.05952
5.05521
5.05095
5.04673
5.04255
5.03842
5.03434
5.03027
5.02627
5.02229
5.01835
5.01446
5.01059
5.00676
5.00298
4.99923
4.99551
4.99183
4.98819
4.98457
4.98099
4.97745
4.97394
4.97046
4.96701
4.96359
4.96022
4.95685
4.95353
4.95023
4.94697
4.94373
4.94053
4.93735
4.9342
4.93107
4.92798
4.92491
4.92188
4.91886
4.91587
4.91291
4.90997
4.90706
4.90418
4.90132
4.89848
4.89567
4.89289
4.89013
4.88738
4.88466
4.88198
4.87931
4.87667
4.87403
4.87143
4.86884
4.86629
4.86375
4.86123
4.85872
4.85625
4.85379
4.85136
4.84894
4.84655
4.84417
4.84182
4.83947
4.83716
4.83485
4.83258
4.83031
4.82808
4.82584
4.82364
4.82144
4.81928
4.81711
4.81498
4.81285
4.81076
4.80867
4.8066
4.80453
4.8025
4.80047
4.79848
4.79647
4.79451
4.79255
4.79061
4.78868
4.78677
4.78488
4.78299
4.78113
4.77927
4.77744
4.77561
4.77381
4.77199
4.77024
4.76844
4.76672
4.76494
4.76327
4.76149
4.75987
4.7581
4.75653
4.75476
4.75323
4.75146
4.74999
4.74821
4.7468
4.745
4.74364
4.74183
4.74052
4.73869
4.73741
4.73559
4.73431
4.73249
4.73122
4.72934
4.72828
4.7261
4.72588
4.72277
4.7239
4.71781
)
;

boundaryField
{
    inlet
    {
        type            calculated;
        value           uniform 0;
    }
    outlet
    {
        type            calculated;
        value           uniform 0;
    }
    sideWall
    {
        type            empty;
    }
}


// ************************************************************************* //
