/*--------------------------------*- C++ -*----------------------------------*\
| =========                 |                                                 |
| \\      /  F ield         | foam-extend: Open Source CFD                    |
|  \\    /   O peration     | Version:     3.2                                |
|   \\  /    A nd           | Web:         http://www.foam-extend.org         |
|    \\/     M anipulation  | For copyright notice see file Copyright         |
\*---------------------------------------------------------------------------*/
FoamFile
{
    version     2.0;
    format      ascii;
    class       areaVectorField;
    location    "37";
    object      Utau;
}
// * * * * * * * * * * * * * * * * * * * * * * * * * * * * * * * * * * * * * //

dimensions      [0 1 -1 0 0 0 0];

internalField   nonuniform List<vector> 
300
(
(2.31223 0 0)
(2.06385 0 0)
(1.71914 0 0)
(1.55785 0 0)
(1.49252 0 0)
(1.4571 0 0)
(1.43089 0 0)
(1.40756 0 0)
(1.38574 0 0)
(1.36563 0 0)
(1.34743 0 0)
(1.33095 0 0)
(1.31587 0 0)
(1.30226 0 0)
(1.28989 0 0)
(1.27854 0 0)
(1.26807 0 0)
(1.25833 0 0)
(1.24935 0 0)
(1.2411 0 0)
(1.23338 0 0)
(1.2261 0 0)
(1.21921 0 0)
(1.21271 0 0)
(1.20659 0 0)
(1.20076 0 0)
(1.19523 0 0)
(1.18994 0 0)
(1.18491 0 0)
(1.18012 0 0)
(1.17554 0 0)
(1.17115 0 0)
(1.16693 0 0)
(1.16288 0 0)
(1.15899 0 0)
(1.15526 0 0)
(1.15165 0 0)
(1.14818 0 0)
(1.14482 0 0)
(1.14157 0 0)
(1.13845 0 0)
(1.13541 0 0)
(1.13248 0 0)
(1.12963 0 0)
(1.12687 0 0)
(1.12419 0 0)
(1.12159 0 0)
(1.11906 0 0)
(1.1166 0 0)
(1.11421 0 0)
(1.11188 0 0)
(1.10961 0 0)
(1.10741 0 0)
(1.10525 0 0)
(1.10316 0 0)
(1.1011 0 0)
(1.0991 0 0)
(1.09714 0 0)
(1.09521 0 0)
(1.09333 0 0)
(1.09149 0 0)
(1.08969 0 0)
(1.08793 0 0)
(1.0862 0 0)
(1.08452 0 0)
(1.08287 0 0)
(1.08126 0 0)
(1.07968 0 0)
(1.07812 0 0)
(1.0766 0 0)
(1.07511 0 0)
(1.07365 0 0)
(1.07222 0 0)
(1.07081 0 0)
(1.06943 0 0)
(1.06808 0 0)
(1.06674 0 0)
(1.06544 0 0)
(1.06415 0 0)
(1.06289 0 0)
(1.06165 0 0)
(1.06043 0 0)
(1.05924 0 0)
(1.05806 0 0)
(1.0569 0 0)
(1.05576 0 0)
(1.05464 0 0)
(1.05353 0 0)
(1.05245 0 0)
(1.05138 0 0)
(1.05032 0 0)
(1.04929 0 0)
(1.04827 0 0)
(1.04726 0 0)
(1.04627 0 0)
(1.0453 0 0)
(1.04434 0 0)
(1.04339 0 0)
(1.04245 0 0)
(1.04153 0 0)
(1.04063 0 0)
(1.03973 0 0)
(1.03885 0 0)
(1.03798 0 0)
(1.03712 0 0)
(1.03628 0 0)
(1.03544 0 0)
(1.03462 0 0)
(1.03381 0 0)
(1.033 0 0)
(1.03221 0 0)
(1.03143 0 0)
(1.03066 0 0)
(1.0299 0 0)
(1.02915 0 0)
(1.02841 0 0)
(1.02767 0 0)
(1.02695 0 0)
(1.02624 0 0)
(1.02553 0 0)
(1.02483 0 0)
(1.02415 0 0)
(1.02346 0 0)
(1.02279 0 0)
(1.02213 0 0)
(1.02147 0 0)
(1.02082 0 0)
(1.02018 0 0)
(1.01954 0 0)
(1.01891 0 0)
(1.01829 0 0)
(1.01767 0 0)
(1.01706 0 0)
(1.01646 0 0)
(1.01586 0 0)
(1.01528 0 0)
(1.01469 0 0)
(1.01412 0 0)
(1.01355 0 0)
(1.013 0 0)
(1.01244 0 0)
(1.0119 0 0)
(1.01136 0 0)
(1.01083 0 0)
(1.0103 0 0)
(1.00978 0 0)
(1.00927 0 0)
(1.00876 0 0)
(1.00825 0 0)
(1.00775 0 0)
(1.00725 0 0)
(1.00675 0 0)
(1.00626 0 0)
(1.00578 0 0)
(1.0053 0 0)
(1.00482 0 0)
(1.00435 0 0)
(1.00388 0 0)
(1.00342 0 0)
(1.00297 0 0)
(1.00251 0 0)
(1.00207 0 0)
(1.00162 0 0)
(1.00119 0 0)
(1.00075 0 0)
(1.00032 0 0)
(0.999898 0 0)
(0.999477 0 0)
(0.99906 0 0)
(0.998647 0 0)
(0.998238 0 0)
(0.997833 0 0)
(0.997431 0 0)
(0.997033 0 0)
(0.996639 0 0)
(0.996248 0 0)
(0.995861 0 0)
(0.995477 0 0)
(0.995097 0 0)
(0.994721 0 0)
(0.994348 0 0)
(0.993978 0 0)
(0.993612 0 0)
(0.993249 0 0)
(0.992889 0 0)
(0.992532 0 0)
(0.992179 0 0)
(0.991829 0 0)
(0.991482 0 0)
(0.991138 0 0)
(0.990797 0 0)
(0.990459 0 0)
(0.990124 0 0)
(0.989792 0 0)
(0.989463 0 0)
(0.989137 0 0)
(0.988813 0 0)
(0.988493 0 0)
(0.988174 0 0)
(0.987859 0 0)
(0.987547 0 0)
(0.987237 0 0)
(0.986929 0 0)
(0.986625 0 0)
(0.986323 0 0)
(0.986023 0 0)
(0.985726 0 0)
(0.985432 0 0)
(0.98514 0 0)
(0.98485 0 0)
(0.984563 0 0)
(0.984278 0 0)
(0.983995 0 0)
(0.983716 0 0)
(0.983437 0 0)
(0.983162 0 0)
(0.982889 0 0)
(0.982618 0 0)
(0.982349 0 0)
(0.982082 0 0)
(0.981818 0 0)
(0.981556 0 0)
(0.981295 0 0)
(0.981037 0 0)
(0.980781 0 0)
(0.980527 0 0)
(0.980275 0 0)
(0.980026 0 0)
(0.979777 0 0)
(0.979532 0 0)
(0.979287 0 0)
(0.979046 0 0)
(0.978805 0 0)
(0.978568 0 0)
(0.978331 0 0)
(0.978097 0 0)
(0.977864 0 0)
(0.977634 0 0)
(0.977404 0 0)
(0.977178 0 0)
(0.976952 0 0)
(0.976729 0 0)
(0.976506 0 0)
(0.976287 0 0)
(0.976068 0 0)
(0.975852 0 0)
(0.975636 0 0)
(0.975424 0 0)
(0.975211 0 0)
(0.975002 0 0)
(0.974793 0 0)
(0.974587 0 0)
(0.974381 0 0)
(0.974178 0 0)
(0.973975 0 0)
(0.973775 0 0)
(0.973576 0 0)
(0.973379 0 0)
(0.973182 0 0)
(0.972988 0 0)
(0.972795 0 0)
(0.972603 0 0)
(0.972414 0 0)
(0.972225 0 0)
(0.972038 0 0)
(0.971851 0 0)
(0.971668 0 0)
(0.971483 0 0)
(0.971304 0 0)
(0.971121 0 0)
(0.970946 0 0)
(0.970764 0 0)
(0.970593 0 0)
(0.970412 0 0)
(0.970245 0 0)
(0.970065 0 0)
(0.969903 0 0)
(0.969723 0 0)
(0.969566 0 0)
(0.969385 0 0)
(0.969233 0 0)
(0.969052 0 0)
(0.968905 0 0)
(0.968723 0 0)
(0.968582 0 0)
(0.968398 0 0)
(0.968261 0 0)
(0.968076 0 0)
(0.967943 0 0)
(0.967757 0 0)
(0.967626 0 0)
(0.96744 0 0)
(0.967309 0 0)
(0.967118 0 0)
(0.96701 0 0)
(0.966786 0 0)
(0.966766 0 0)
(0.966446 0 0)
(0.966563 0 0)
(0.96594 0 0)
)
;

boundaryField
{
    inlet
    {
        type            calculated;
        value           uniform (0 0 0);
    }
    outlet
    {
        type            calculated;
        value           uniform (0 0 0);
    }
    sideWall
    {
        type            empty;
    }
}


// ************************************************************************* //
