/*--------------------------------*- C++ -*----------------------------------*\
| =========                 |                                                 |
| \\      /  F ield         | foam-extend: Open Source CFD                    |
|  \\    /   O peration     | Version:     3.2                                |
|   \\  /    A nd           | Web:         http://www.foam-extend.org         |
|    \\/     M anipulation  | For copyright notice see file Copyright         |
\*---------------------------------------------------------------------------*/
FoamFile
{
    version     2.0;
    format      ascii;
    class       areaScalarField;
    location    "37";
    object      deltaHs;
}
// * * * * * * * * * * * * * * * * * * * * * * * * * * * * * * * * * * * * * //

dimensions      [0 1 -1 0 0 0 0];

internalField   nonuniform List<scalar> 
300
(
-0.000749116
-0.000530453
-0.000303778
-0.000224429
-0.000196612
-0.00018251
-0.000172512
-0.000163914
-0.000156126
-0.000149165
-0.000143039
-0.000137634
-0.000132801
-0.000128536
-0.000124737
-0.000121315
-0.000118212
-0.00011537
-0.000112788
-0.000110449
-0.000108291
-0.000106276
-0.000104395
-0.000102639
-0.000101001
-9.94571e-05
-9.80058e-05
-9.66316e-05
-9.53361e-05
-9.41129e-05
-9.29503e-05
-9.18464e-05
-9.07918e-05
-8.97884e-05
-8.88307e-05
-8.79181e-05
-8.70413e-05
-8.62022e-05
-8.53956e-05
-8.46204e-05
-8.38784e-05
-8.31613e-05
-8.24731e-05
-8.18064e-05
-8.11644e-05
-8.05438e-05
-7.99455e-05
-7.93665e-05
-7.88049e-05
-7.8262e-05
-7.7734e-05
-7.72232e-05
-7.67277e-05
-7.62465e-05
-7.57793e-05
-7.5324e-05
-7.48821e-05
-7.44497e-05
-7.40268e-05
-7.36149e-05
-7.32133e-05
-7.28224e-05
-7.24413e-05
-7.20696e-05
-7.17073e-05
-7.13539e-05
-7.10086e-05
-7.06714e-05
-7.03417e-05
-7.00195e-05
-6.97045e-05
-6.93966e-05
-6.90955e-05
-6.88006e-05
-6.85117e-05
-6.82292e-05
-6.79521e-05
-6.7681e-05
-6.74152e-05
-6.71546e-05
-6.68994e-05
-6.66487e-05
-6.64029e-05
-6.61619e-05
-6.59251e-05
-6.56932e-05
-6.54652e-05
-6.52412e-05
-6.50215e-05
-6.48053e-05
-6.45932e-05
-6.43847e-05
-6.41797e-05
-6.39785e-05
-6.37803e-05
-6.35854e-05
-6.3394e-05
-6.32054e-05
-6.30202e-05
-6.28378e-05
-6.26583e-05
-6.24817e-05
-6.23078e-05
-6.21365e-05
-6.1968e-05
-6.18019e-05
-6.16384e-05
-6.14775e-05
-6.13187e-05
-6.11625e-05
-6.10085e-05
-6.08566e-05
-6.07071e-05
-6.05596e-05
-6.04143e-05
-6.02711e-05
-6.01297e-05
-5.99904e-05
-5.98531e-05
-5.97175e-05
-5.95838e-05
-5.9452e-05
-5.93218e-05
-5.91935e-05
-5.90668e-05
-5.89415e-05
-5.88179e-05
-5.86958e-05
-5.85749e-05
-5.84556e-05
-5.83376e-05
-5.82209e-05
-5.81056e-05
-5.79918e-05
-5.78795e-05
-5.77687e-05
-5.76595e-05
-5.75518e-05
-5.74458e-05
-5.73412e-05
-5.72381e-05
-5.71364e-05
-5.70359e-05
-5.69367e-05
-5.68386e-05
-5.67416e-05
-5.66455e-05
-5.65504e-05
-5.64562e-05
-5.63629e-05
-5.62705e-05
-5.6179e-05
-5.60884e-05
-5.59988e-05
-5.591e-05
-5.58223e-05
-5.57356e-05
-5.56498e-05
-5.5565e-05
-5.54812e-05
-5.53984e-05
-5.53165e-05
-5.52355e-05
-5.51554e-05
-5.50761e-05
-5.49978e-05
-5.49202e-05
-5.48434e-05
-5.47675e-05
-5.46923e-05
-5.46178e-05
-5.45441e-05
-5.44712e-05
-5.4399e-05
-5.43275e-05
-5.42567e-05
-5.41866e-05
-5.41173e-05
-5.40486e-05
-5.39806e-05
-5.39133e-05
-5.38466e-05
-5.37806e-05
-5.37152e-05
-5.36505e-05
-5.35864e-05
-5.35229e-05
-5.34601e-05
-5.33978e-05
-5.33362e-05
-5.32751e-05
-5.32146e-05
-5.31546e-05
-5.30953e-05
-5.30365e-05
-5.29782e-05
-5.29205e-05
-5.28633e-05
-5.28066e-05
-5.27505e-05
-5.26948e-05
-5.26398e-05
-5.25851e-05
-5.2531e-05
-5.24774e-05
-5.24243e-05
-5.23716e-05
-5.23194e-05
-5.22676e-05
-5.22164e-05
-5.21656e-05
-5.21153e-05
-5.20653e-05
-5.20159e-05
-5.19668e-05
-5.19183e-05
-5.187e-05
-5.18223e-05
-5.17749e-05
-5.17281e-05
-5.16815e-05
-5.16355e-05
-5.15897e-05
-5.15444e-05
-5.14994e-05
-5.14549e-05
-5.14107e-05
-5.1367e-05
-5.13235e-05
-5.12805e-05
-5.12377e-05
-5.11955e-05
-5.11534e-05
-5.11119e-05
-5.10706e-05
-5.10298e-05
-5.09891e-05
-5.0949e-05
-5.0909e-05
-5.08695e-05
-5.08302e-05
-5.07914e-05
-5.07527e-05
-5.07146e-05
-5.06764e-05
-5.0639e-05
-5.06014e-05
-5.05646e-05
-5.05277e-05
-5.04914e-05
-5.04551e-05
-5.04195e-05
-5.03837e-05
-5.03486e-05
-5.03135e-05
-5.0279e-05
-5.02444e-05
-5.02104e-05
-5.01764e-05
-5.01429e-05
-5.01095e-05
-5.00765e-05
-5.00437e-05
-5.00112e-05
-4.9979e-05
-4.99468e-05
-4.99153e-05
-4.98835e-05
-4.98527e-05
-4.98211e-05
-4.9791e-05
-4.97597e-05
-4.97303e-05
-4.96992e-05
-4.96706e-05
-4.96396e-05
-4.96119e-05
-4.95809e-05
-4.9554e-05
-4.9523e-05
-4.94971e-05
-4.9466e-05
-4.94409e-05
-4.94097e-05
-4.93855e-05
-4.9354e-05
-4.93306e-05
-4.9299e-05
-4.92763e-05
-4.92445e-05
-4.92221e-05
-4.91904e-05
-4.9168e-05
-4.91354e-05
-4.91169e-05
-4.90788e-05
-4.90753e-05
-4.90209e-05
-4.90407e-05
-4.89348e-05
)
;

boundaryField
{
    inlet
    {
        type            calculated;
        value           uniform 0;
    }
    outlet
    {
        type            calculated;
        value           uniform 0;
    }
    sideWall
    {
        type            empty;
    }
}


// ************************************************************************* //
