/*--------------------------------*- C++ -*----------------------------------*\
| =========                 |                                                 |
| \\      /  F ield         | foam-extend: Open Source CFD                    |
|  \\    /   O peration     | Version:     3.2                                |
|   \\  /    A nd           | Web:         http://www.foam-extend.org         |
|    \\/     M anipulation  | For copyright notice see file Copyright         |
\*---------------------------------------------------------------------------*/
FoamFile
{
    version     2.0;
    format      ascii;
    class       areaScalarField;
    location    "37";
    object      deltaHb;
}
// * * * * * * * * * * * * * * * * * * * * * * * * * * * * * * * * * * * * * //

dimensions      [0 1 -1 0 0 0 0];

internalField   nonuniform List<scalar> 
300
(
0
0
0
0
0
0
0
0
0
0
0
0
0
0
0
0
0
0
0
0
0
0
0
0
0
0
0
0
0
0
0
0
0
0
0
0
0
0
0
0
0
0
0
0
0
0
0
0
0
0
0
0
0
0
0
0
0
0
0
0
0
0
0
0
0
0
0
0
0
0
0
0
0
0
0
0
0
0
0
0
0
0
0
0
0
0
0
0
0
0
0
0
0
0
0
0
0
0
0
0
0
0
0
0
0
0
0
0
0
0
3.30661e-07
3.25771e-07
3.20945e-07
3.16389e-07
3.11758e-07
3.07363e-07
3.03168e-07
2.98845e-07
2.94731e-07
2.90744e-07
2.86637e-07
2.82773e-07
2.79065e-07
2.75301e-07
2.71852e-07
2.68434e-07
2.651e-07
2.62085e-07
2.58988e-07
2.55949e-07
2.53099e-07
2.50054e-07
2.46909e-07
2.438e-07
2.40469e-07
2.37069e-07
2.33713e-07
2.30289e-07
2.26963e-07
2.23779e-07
2.20628e-07
2.17706e-07
2.14988e-07
2.12343e-07
2.0995e-07
2.07765e-07
2.05615e-07
2.03605e-07
2.01674e-07
1.99696e-07
1.97765e-07
1.95809e-07
1.93758e-07
1.9174e-07
1.89674e-07
1.87513e-07
1.85402e-07
1.83287e-07
1.81111e-07
1.79015e-07
1.76975e-07
1.74931e-07
1.72975e-07
1.7108e-07
1.69199e-07
1.67404e-07
1.65639e-07
1.63869e-07
1.62186e-07
1.60545e-07
1.58874e-07
1.5726e-07
1.55696e-07
1.54106e-07
1.5253e-07
1.50993e-07
1.49451e-07
1.47944e-07
1.46467e-07
1.44979e-07
1.43535e-07
1.42138e-07
1.40704e-07
1.39293e-07
1.37945e-07
1.36588e-07
1.35237e-07
1.33941e-07
1.32646e-07
1.31365e-07
1.30112e-07
1.28862e-07
1.27612e-07
1.26422e-07
1.25226e-07
1.24027e-07
1.22879e-07
1.21749e-07
1.206e-07
1.19479e-07
1.18373e-07
1.17273e-07
1.1619e-07
1.15128e-07
1.14064e-07
1.13029e-07
1.12013e-07
1.1099e-07
1.09973e-07
1.08996e-07
1.08012e-07
1.07031e-07
1.06076e-07
1.05143e-07
1.04193e-07
1.0328e-07
1.0236e-07
1.01452e-07
1.00557e-07
9.96799e-08
9.87911e-08
9.79365e-08
9.70865e-08
9.62442e-08
9.54009e-08
9.45883e-08
9.3763e-08
9.29523e-08
9.21472e-08
9.13686e-08
9.05719e-08
8.9811e-08
8.90349e-08
8.82839e-08
8.75207e-08
8.67907e-08
8.60344e-08
8.53177e-08
8.45946e-08
8.38992e-08
8.31796e-08
8.25012e-08
8.18105e-08
8.11341e-08
8.04512e-08
7.97924e-08
7.91246e-08
7.84767e-08
7.78291e-08
7.71873e-08
7.65542e-08
7.59261e-08
7.53144e-08
7.46747e-08
7.40869e-08
7.34612e-08
7.28948e-08
7.22595e-08
7.17196e-08
7.10821e-08
7.05708e-08
6.99219e-08
6.94417e-08
6.87702e-08
6.83463e-08
6.76555e-08
6.72748e-08
6.65572e-08
6.62347e-08
6.54867e-08
6.52157e-08
6.44258e-08
6.42221e-08
6.33847e-08
6.3259e-08
6.23718e-08
6.23219e-08
6.13925e-08
6.14203e-08
6.0461e-08
6.05539e-08
5.95868e-08
5.97455e-08
5.88061e-08
5.90042e-08
5.8157e-08
0
0
0
0
0
0
0
0
0
0
0
0
0
0
)
;

boundaryField
{
    inlet
    {
        type            zeroGradient;
    }
    outlet
    {
        type            zeroGradient;
    }
    sideWall
    {
        type            empty;
    }
}


// ************************************************************************* //
