/*--------------------------------*- C++ -*----------------------------------*\
| =========                 |                                                 |
| \\      /  F ield         | foam-extend: Open Source CFD                    |
|  \\    /   O peration     | Version:     3.2                                |
|   \\  /    A nd           | Web:         http://www.foam-extend.org         |
|    \\/     M anipulation  | For copyright notice see file Copyright         |
\*---------------------------------------------------------------------------*/
FoamFile
{
    version     2.0;
    format      ascii;
    class       areaScalarField;
    location    "37";
    object      Fi1;
}
// * * * * * * * * * * * * * * * * * * * * * * * * * * * * * * * * * * * * * //

dimensions      [0 1 -1 0 0 0 0];

internalField   nonuniform List<scalar> 
300
(
-0.000749116
-0.000530453
-0.000303778
-0.000224429
-0.000196612
-0.00018251
-0.000172512
-0.000163914
-0.000156126
-0.000149165
-0.000143039
-0.000137634
-0.000132801
-0.000128536
-0.000124737
-0.000121315
-0.000118212
-0.00011537
-0.000112788
-0.000110449
-0.000108291
-0.000106276
-0.000104395
-0.000102639
-0.000101001
-9.94571e-05
-9.80058e-05
-9.66316e-05
-9.53361e-05
-9.41129e-05
-9.29503e-05
-9.18464e-05
-9.07918e-05
-8.97884e-05
-8.88307e-05
-8.79181e-05
-8.70413e-05
-8.62022e-05
-8.53956e-05
-8.46204e-05
-8.38784e-05
-8.31613e-05
-8.24731e-05
-8.18064e-05
-8.11644e-05
-8.05438e-05
-7.99455e-05
-7.93665e-05
-7.88049e-05
-7.8262e-05
-7.7734e-05
-7.72232e-05
-7.67277e-05
-7.62465e-05
-7.57793e-05
-7.5324e-05
-7.48821e-05
-7.44497e-05
-7.40268e-05
-7.36149e-05
-7.32133e-05
-7.28224e-05
-7.24413e-05
-7.20696e-05
-7.17073e-05
-7.13539e-05
-7.10086e-05
-7.06714e-05
-7.03417e-05
-7.00195e-05
-6.97045e-05
-6.93966e-05
-6.90955e-05
-6.88006e-05
-6.85117e-05
-6.82292e-05
-6.79521e-05
-6.7681e-05
-6.74152e-05
-6.71546e-05
-6.68994e-05
-6.66487e-05
-6.64029e-05
-6.61619e-05
-6.59251e-05
-6.56932e-05
-6.54652e-05
-6.52412e-05
-6.50215e-05
-6.48053e-05
-6.45932e-05
-6.43847e-05
-6.41797e-05
-6.39785e-05
-6.37803e-05
-6.35854e-05
-6.3394e-05
-6.32054e-05
-6.30202e-05
-6.28378e-05
-6.26583e-05
-6.24817e-05
-6.23078e-05
-6.21365e-05
-6.1968e-05
-6.18019e-05
-6.16384e-05
-6.14775e-05
-6.13187e-05
-6.11625e-05
-6.06778e-05
-6.05308e-05
-6.03861e-05
-6.02432e-05
-6.01025e-05
-5.99637e-05
-5.98266e-05
-5.96916e-05
-5.95583e-05
-5.94267e-05
-5.92972e-05
-5.91692e-05
-5.90428e-05
-5.89182e-05
-5.87949e-05
-5.86731e-05
-5.85528e-05
-5.84336e-05
-5.83159e-05
-5.81996e-05
-5.80844e-05
-5.79708e-05
-5.78587e-05
-5.7748e-05
-5.7639e-05
-5.75317e-05
-5.74258e-05
-5.73216e-05
-5.72189e-05
-5.71175e-05
-5.70175e-05
-5.69187e-05
-5.68209e-05
-5.67243e-05
-5.66286e-05
-5.65338e-05
-5.64399e-05
-5.63468e-05
-5.62545e-05
-5.61632e-05
-5.60727e-05
-5.59832e-05
-5.58946e-05
-5.5807e-05
-5.57204e-05
-5.56348e-05
-5.55502e-05
-5.54665e-05
-5.53839e-05
-5.53022e-05
-5.52214e-05
-5.51415e-05
-5.50625e-05
-5.49843e-05
-5.49069e-05
-5.48304e-05
-5.47545e-05
-5.46795e-05
-5.46053e-05
-5.45317e-05
-5.44589e-05
-5.43869e-05
-5.43155e-05
-5.42448e-05
-5.41749e-05
-5.41057e-05
-5.40372e-05
-5.39693e-05
-5.39021e-05
-5.38356e-05
-5.37697e-05
-5.37045e-05
-5.36399e-05
-5.35759e-05
-5.35126e-05
-5.34498e-05
-5.33877e-05
-5.33262e-05
-5.32652e-05
-5.32048e-05
-5.3145e-05
-5.30857e-05
-5.3027e-05
-5.29689e-05
-5.29112e-05
-5.28542e-05
-5.27976e-05
-5.27416e-05
-5.2686e-05
-5.2631e-05
-5.25765e-05
-5.25225e-05
-5.24689e-05
-5.24159e-05
-5.23633e-05
-5.23112e-05
-5.22596e-05
-5.22084e-05
-5.21577e-05
-5.21074e-05
-5.20576e-05
-5.20082e-05
-5.19592e-05
-5.19108e-05
-5.18626e-05
-5.1815e-05
-5.17677e-05
-5.17209e-05
-5.16744e-05
-5.16284e-05
-5.15827e-05
-5.15375e-05
-5.14926e-05
-5.14482e-05
-5.1404e-05
-5.13604e-05
-5.13169e-05
-5.1274e-05
-5.12313e-05
-5.11892e-05
-5.11472e-05
-5.11057e-05
-5.10644e-05
-5.10237e-05
-5.09831e-05
-5.0943e-05
-5.09031e-05
-5.08637e-05
-5.08244e-05
-5.07856e-05
-5.0747e-05
-5.07089e-05
-5.06708e-05
-5.06334e-05
-5.0596e-05
-5.05592e-05
-5.05223e-05
-5.04861e-05
-5.04498e-05
-5.04142e-05
-5.03786e-05
-5.03435e-05
-5.03084e-05
-5.0274e-05
-5.02394e-05
-5.02055e-05
-5.01715e-05
-5.01381e-05
-5.01047e-05
-5.00718e-05
-5.0039e-05
-5.00066e-05
-4.99743e-05
-4.99424e-05
-4.99107e-05
-4.98792e-05
-4.98481e-05
-4.98169e-05
-4.97864e-05
-4.97556e-05
-4.97258e-05
-4.96953e-05
-4.96661e-05
-4.96358e-05
-4.96074e-05
-4.95773e-05
-4.95495e-05
-4.95195e-05
-4.94926e-05
-4.94626e-05
-4.94365e-05
-4.94064e-05
-4.93811e-05
-4.93509e-05
-4.93265e-05
-4.92959e-05
-4.93306e-05
-4.9299e-05
-4.92763e-05
-4.92445e-05
-4.92221e-05
-4.91904e-05
-4.9168e-05
-4.91354e-05
-4.91169e-05
-4.90788e-05
-4.90753e-05
-4.90209e-05
-4.90407e-05
-4.89348e-05
)
;

boundaryField
{
    inlet
    {
        type            calculated;
        value           uniform 0;
    }
    outlet
    {
        type            calculated;
        value           uniform 0;
    }
    sideWall
    {
        type            empty;
    }
}


// ************************************************************************* //
