/*--------------------------------*- C++ -*----------------------------------*\
| =========                 |                                                 |
| \\      /  F ield         | foam-extend: Open Source CFD                    |
|  \\    /   O peration     | Version:     3.2                                |
|   \\  /    A nd           | Web:         http://www.foam-extend.org         |
|    \\/     M anipulation  | For copyright notice see file Copyright         |
\*---------------------------------------------------------------------------*/
FoamFile
{
    version     2.0;
    format      ascii;
    class       areaScalarField;
    location    "37";
    object      kTempA;
}
// * * * * * * * * * * * * * * * * * * * * * * * * * * * * * * * * * * * * * //

dimensions      [0 2 -2 0 0 0 0];

internalField   nonuniform List<scalar> 
300
(
0.178319
0.142008
0.0985162
0.0808965
0.0742543
0.0707709
0.0682484
0.0660411
0.064009
0.0621651
0.0605192
0.0590478
0.0577167
0.0565291
0.0554603
0.0544888
0.0536002
0.05278
0.0520289
0.0513439
0.0507079
0.0501104
0.0495493
0.0490225
0.0485284
0.0480607
0.0476188
0.0471985
0.0468005
0.0464231
0.046063
0.0457197
0.0453906
0.0450764
0.0447754
0.0444876
0.0442102
0.0439439
0.0436872
0.0434398
0.0432022
0.0429721
0.0427506
0.0425355
0.0423278
0.0421266
0.0419321
0.0417435
0.0415601
0.0413824
0.0412093
0.0410414
0.0408783
0.0407195
0.0405651
0.0404143
0.0402677
0.0401239
0.0399831
0.0398457
0.0397114
0.0395806
0.0394528
0.039328
0.0392061
0.0390871
0.0389706
0.0388566
0.038745
0.0386358
0.038529
0.0384243
0.0383218
0.0382213
0.0381228
0.0380263
0.0379315
0.0378386
0.0377475
0.037658
0.0375703
0.037484
0.0373993
0.0373162
0.0372344
0.0371542
0.0370753
0.0369977
0.0369215
0.0368465
0.0367728
0.0367002
0.0366288
0.0365587
0.0364896
0.0364215
0.0363546
0.0362886
0.0362237
0.0361598
0.0360968
0.0360348
0.0359737
0.0359135
0.0358541
0.0357956
0.035738
0.0356812
0.0356251
0.0355699
0.0355154
0.0354616
0.0354087
0.0353564
0.0353048
0.035254
0.0352038
0.0351542
0.0351053
0.0350571
0.0350094
0.0349624
0.034916
0.0348702
0.0348249
0.0347801
0.034736
0.0346922
0.034649
0.0346063
0.0345639
0.0345221
0.0344807
0.0344398
0.0343994
0.0343595
0.0343202
0.0342814
0.0342431
0.0342053
0.0341681
0.0341314
0.0340951
0.0340592
0.0340238
0.0339887
0.033954
0.0339196
0.0338855
0.0338517
0.0338182
0.033785
0.0337521
0.0337196
0.0336874
0.0336555
0.0336239
0.0335927
0.0335618
0.0335313
0.0335011
0.0334712
0.0334417
0.0334124
0.0333835
0.0333549
0.0333265
0.0332985
0.0332707
0.0332432
0.033216
0.033189
0.0331623
0.0331358
0.0331096
0.0330837
0.033058
0.0330325
0.0330073
0.0329823
0.0329576
0.0329331
0.0329088
0.0328848
0.0328609
0.0328374
0.032814
0.0327908
0.0327679
0.0327452
0.0327226
0.0327003
0.0326782
0.0326563
0.0326346
0.0326131
0.0325917
0.0325706
0.0325496
0.0325289
0.0325083
0.0324879
0.0324677
0.0324476
0.0324278
0.0324081
0.0323885
0.0323692
0.03235
0.032331
0.0323121
0.0322934
0.0322749
0.0322565
0.0322383
0.0322203
0.0322023
0.0321846
0.032167
0.0321495
0.0321322
0.0321151
0.032098
0.0320811
0.0320644
0.0320478
0.0320313
0.032015
0.0319988
0.0319828
0.0319668
0.031951
0.0319353
0.0319198
0.0319044
0.0318891
0.0318739
0.0318589
0.031844
0.0318292
0.0318145
0.0318
0.0317855
0.0317712
0.031757
0.0317429
0.0317289
0.0317151
0.0317012
0.0316876
0.031674
0.0316607
0.0316473
0.0316341
0.0316209
0.031608
0.031595
0.0315822
0.0315695
0.0315569
0.0315443
0.0315319
0.0315196
0.0315074
0.0314953
0.0314832
0.0314713
0.0314593
0.0314477
0.0314359
0.0314245
0.0314128
0.0314017
0.03139
0.0313792
0.0313675
0.0313571
0.0313454
0.0313353
0.0313236
0.0313138
0.0313021
0.0312926
0.0312808
0.0312717
0.0312598
0.031251
0.0312391
0.0312305
0.0312185
0.03121
0.031198
0.0311896
0.0311772
0.0311703
0.0311558
0.0311545
0.0311339
0.0311415
0.0311014
)
;

boundaryField
{
    inlet
    {
        type            calculated;
        value           uniform 0;
    }
    outlet
    {
        type            calculated;
        value           uniform 0;
    }
    sideWall
    {
        type            empty;
    }
}


// ************************************************************************* //
