/*--------------------------------*- C++ -*----------------------------------*\
| =========                 |                                                 |
| \\      /  F ield         | foam-extend: Open Source CFD                    |
|  \\    /   O peration     | Version:     3.2                                |
|   \\  /    A nd           | Web:         http://www.foam-extend.org         |
|    \\/     M anipulation  | For copyright notice see file Copyright         |
\*---------------------------------------------------------------------------*/
FoamFile
{
    version     2.0;
    format      ascii;
    class       surfaceScalarField;
    location    "37";
    object      phi;
}
// * * * * * * * * * * * * * * * * * * * * * * * * * * * * * * * * * * * * * //

dimensions      [0 3 -1 0 0 0 0];

internalField   nonuniform List<scalar> 
191380
(
6.20161e-05
3.92339e-05
4.34317e-05
1.85844e-05
3.68831e-05
6.54863e-06
3.4861e-05
2.02208e-06
3.39661e-05
8.9484e-07
3.33299e-05
6.36243e-07
3.27754e-05
5.54477e-07
3.22528e-05
5.22654e-07
3.17611e-05
4.91704e-07
3.13152e-05
4.45887e-07
3.09158e-05
3.99341e-07
3.05513e-05
3.64532e-07
3.0221e-05
3.30299e-07
2.99227e-05
2.98259e-07
2.96509e-05
2.71864e-07
2.94013e-05
2.4954e-07
2.91694e-05
2.31989e-07
2.89547e-05
2.14701e-07
2.87583e-05
1.96382e-07
2.85779e-05
1.80403e-07
2.84077e-05
1.70211e-07
2.82465e-05
1.61137e-07
2.8094e-05
1.52473e-07
2.79505e-05
1.43554e-07
2.78145e-05
1.36009e-07
2.76852e-05
1.29327e-07
2.75619e-05
1.23257e-07
2.74441e-05
1.17762e-07
2.73324e-05
1.11733e-07
2.72255e-05
1.06913e-07
2.71233e-05
1.02235e-07
2.70249e-05
9.8336e-08
2.69305e-05
9.43946e-08
2.68399e-05
9.06715e-08
2.67529e-05
8.69268e-08
2.66691e-05
8.37955e-08
2.65882e-05
8.09239e-08
2.65102e-05
7.80209e-08
2.64345e-05
7.56663e-08
2.63618e-05
7.27458e-08
2.62913e-05
7.0525e-08
2.62231e-05
6.81956e-08
2.61569e-05
6.61803e-08
2.60926e-05
6.42839e-08
2.60303e-05
6.22916e-08
2.59698e-05
6.04674e-08
2.59113e-05
5.85792e-08
2.58541e-05
5.71699e-08
2.57986e-05
5.55008e-08
2.57444e-05
5.41363e-08
2.56917e-05
5.27412e-08
2.56405e-05
5.12439e-08
2.55905e-05
4.99878e-08
2.55418e-05
4.86921e-08
2.54942e-05
4.7606e-08
2.54477e-05
4.64458e-08
2.54023e-05
4.54773e-08
2.53575e-05
4.47501e-08
2.53137e-05
4.3814e-08
2.52708e-05
4.28556e-08
2.5229e-05
4.18631e-08
2.51881e-05
4.08987e-08
2.5148e-05
4.00417e-08
2.51089e-05
3.91575e-08
2.50706e-05
3.82892e-08
2.50331e-05
3.74965e-08
2.49963e-05
3.6746e-08
2.49603e-05
3.60217e-08
2.4925e-05
3.53209e-08
2.48904e-05
3.46088e-08
2.48565e-05
3.39327e-08
2.48232e-05
3.32643e-08
2.47905e-05
3.26478e-08
2.47585e-05
3.20875e-08
2.4727e-05
3.14528e-08
2.46961e-05
3.09029e-08
2.46657e-05
3.03563e-08
2.4636e-05
2.97836e-08
2.46067e-05
2.92988e-08
2.45779e-05
2.87612e-08
2.45496e-05
2.82901e-08
2.45218e-05
2.78254e-08
2.44945e-05
2.73333e-08
2.44675e-05
2.69141e-08
2.44411e-05
2.64456e-08
2.44151e-05
2.5996e-08
2.43895e-05
2.56364e-08
2.43643e-05
2.5187e-08
2.43395e-05
2.48146e-08
2.4315e-05
2.44293e-08
2.4291e-05
2.40283e-08
2.42673e-05
2.36942e-08
2.4244e-05
2.33055e-08
2.4221e-05
2.29607e-08
2.41984e-05
2.26574e-08
2.41761e-05
2.22807e-08
2.41541e-05
2.19822e-08
2.41325e-05
2.16631e-08
2.41111e-05
2.13262e-08
2.40901e-05
2.10528e-08
2.40693e-05
2.07421e-08
2.40489e-05
2.0455e-08
2.40287e-05
2.01891e-08
2.40088e-05
1.98885e-08
2.39892e-05
1.96275e-08
2.39698e-05
1.93735e-08
2.39507e-05
1.90816e-08
2.39319e-05
1.88544e-08
2.39133e-05
1.86017e-08
2.38949e-05
1.83451e-08
2.38768e-05
1.81279e-08
2.38589e-05
1.78807e-08
2.38413e-05
1.76463e-08
2.38238e-05
1.7432e-08
2.38066e-05
1.71955e-08
2.37897e-05
1.69837e-08
2.37729e-05
1.67798e-08
2.37563e-05
1.65526e-08
2.374e-05
1.63549e-08
2.37238e-05
1.6159e-08
2.37079e-05
1.59477e-08
2.36921e-05
1.57592e-08
2.36765e-05
1.55719e-08
2.36612e-05
1.53601e-08
2.3646e-05
1.518e-08
2.3631e-05
1.49781e-08
2.36162e-05
1.47886e-08
2.36016e-05
1.46312e-08
2.35871e-05
1.4468e-08
2.35728e-05
1.43295e-08
2.35586e-05
1.42253e-08
2.35445e-05
1.41088e-08
2.35305e-05
1.39997e-08
2.35166e-05
1.39002e-08
2.35028e-05
1.37742e-08
2.34891e-05
1.3639e-08
2.34757e-05
1.34946e-08
2.34623e-05
1.33223e-08
2.34492e-05
1.3143e-08
2.34362e-05
1.29552e-08
2.34235e-05
1.27484e-08
2.34109e-05
1.25523e-08
2.33986e-05
1.23609e-08
2.33864e-05
1.21666e-08
2.33744e-05
1.2e-08
2.33626e-05
1.18524e-08
2.33508e-05
1.17124e-08
2.33392e-05
1.1599e-08
2.33277e-05
1.15015e-08
2.33163e-05
1.14083e-08
2.3305e-05
1.13335e-08
2.32937e-05
1.12599e-08
2.32826e-05
1.11826e-08
2.32714e-05
1.11119e-08
2.32604e-05
1.10325e-08
2.32495e-05
1.0939e-08
2.32386e-05
1.08483e-08
2.32279e-05
1.0747e-08
2.32172e-05
1.06334e-08
2.32067e-05
1.05229e-08
2.31963e-05
1.04107e-08
2.3186e-05
1.02912e-08
2.31758e-05
1.01793e-08
2.31658e-05
1.00681e-08
2.31558e-05
9.9567e-09
2.3146e-05
9.85363e-09
2.31362e-05
9.75301e-09
2.31266e-05
9.65092e-09
2.3117e-05
9.5609e-09
2.31075e-05
9.47206e-09
2.30981e-05
9.38087e-09
2.30888e-05
9.29617e-09
2.30796e-05
9.21632e-09
2.30705e-05
9.13056e-09
2.30615e-05
9.04864e-09
2.30525e-05
8.96804e-09
2.30436e-05
8.88638e-09
2.30348e-05
8.80617e-09
2.30261e-05
8.72863e-09
2.30174e-05
8.64581e-09
2.30088e-05
8.56924e-09
2.30004e-05
8.49347e-09
2.29919e-05
8.41353e-09
2.29836e-05
8.33472e-09
2.29753e-05
8.26352e-09
2.29672e-05
8.18658e-09
2.2959e-05
8.11249e-09
2.2951e-05
8.04153e-09
2.2943e-05
7.97073e-09
2.29351e-05
7.89893e-09
2.29273e-05
7.83173e-09
2.29195e-05
7.76084e-09
2.29118e-05
7.69205e-09
2.29042e-05
7.62681e-09
2.28967e-05
7.56119e-09
2.28892e-05
7.49178e-09
2.28817e-05
7.43145e-09
2.28744e-05
7.36695e-09
2.28671e-05
7.30394e-09
2.28598e-05
7.23984e-09
2.28526e-05
7.18097e-09
2.28455e-05
7.11675e-09
2.28385e-05
7.05926e-09
2.28315e-05
6.99743e-09
2.28245e-05
6.94019e-09
2.28176e-05
6.8795e-09
2.28108e-05
6.8266e-09
2.28041e-05
6.7646e-09
2.27973e-05
6.71114e-09
2.27907e-05
6.65366e-09
2.27841e-05
6.60206e-09
2.27775e-05
6.5423e-09
2.27711e-05
6.49361e-09
2.27646e-05
6.43706e-09
2.27582e-05
6.38688e-09
2.27519e-05
6.33156e-09
2.27456e-05
6.28355e-09
2.27394e-05
6.22681e-09
2.27332e-05
6.18162e-09
2.27271e-05
6.12638e-09
2.2721e-05
6.08091e-09
2.2715e-05
6.02687e-09
2.2709e-05
5.98492e-09
2.27031e-05
5.92964e-09
2.26972e-05
5.88822e-09
2.26913e-05
5.83491e-09
2.26855e-05
5.79487e-09
2.26798e-05
5.74014e-09
2.26741e-05
5.70267e-09
2.26684e-05
5.64973e-09
2.26628e-05
5.61232e-09
2.26573e-05
5.55998e-09
2.26518e-05
5.52452e-09
2.26463e-05
5.47125e-09
2.26408e-05
5.4374e-09
2.26355e-05
5.38457e-09
2.26301e-05
5.35135e-09
2.26248e-05
5.29808e-09
2.26195e-05
5.269e-09
2.26143e-05
5.21512e-09
2.26091e-05
5.18694e-09
2.2604e-05
5.13278e-09
2.25989e-05
5.10885e-09
2.25938e-05
5.05164e-09
2.25888e-05
5.03043e-09
2.25838e-05
4.97243e-09
2.25789e-05
4.95429e-09
2.2574e-05
4.89448e-09
2.25691e-05
4.88037e-09
2.25643e-05
4.81777e-09
2.25595e-05
4.80734e-09
2.25547e-05
4.74267e-09
2.255e-05
4.73663e-09
2.25453e-05
4.66651e-09
2.25407e-05
4.66635e-09
2.25361e-05
4.5936e-09
2.25315e-05
4.59842e-09
2.2527e-05
4.5206e-09
2.25224e-05
4.53166e-09
2.2518e-05
4.44934e-09
2.25135e-05
4.46645e-09
2.25091e-05
4.37846e-09
2.25047e-05
4.40203e-09
2.25004e-05
4.30703e-09
2.24961e-05
4.34038e-09
2.24918e-05
4.23829e-09
2.24876e-05
4.27937e-09
2.24834e-05
4.17055e-09
2.24792e-05
4.22029e-09
2.24751e-05
4.10513e-09
2.24709e-05
4.16154e-09
2.24669e-05
4.04065e-09
2.24628e-05
4.10437e-09
2.24588e-05
3.97843e-09
2.24547e-05
4.04882e-09
2.24508e-05
3.91948e-09
2.24468e-05
3.99328e-09
2.2443e-05
3.86449e-09
2.2439e-05
3.93761e-09
2.24352e-05
3.81476e-09
2.24313e-05
3.88076e-09
2.24276e-05
3.77172e-09
2.24237e-05
3.82506e-09
2.242e-05
3.73922e-09
2.24162e-05
3.77056e-09
2.24125e-05
3.7213e-09
2.24088e-05
3.71815e-09
2.24051e-05
3.72047e-09
2.24014e-05
3.67054e-09
2.23976e-05
3.74405e-09
2.2394e-05
3.63924e-09
2.23903e-05
3.75486e-09
2.23865e-05
3.74027e-09
2.23831e-05
3.43786e-09
2.23794e-05
3.7122e-09
2.23764e-05
2.96484e-09
2.23738e-05
2.60724e-09
2.23689e-05
4.91179e-09
2.23675e-05
1.3501e-09
2.09137e-08
8.94816e-05
5.10022e-05
7.65994e-05
3.14666e-05
6.80419e-05
1.51061e-05
6.32813e-05
6.78273e-06
6.03139e-05
3.86222e-06
5.82032e-05
2.74691e-06
5.65594e-05
2.19829e-06
5.5187e-05
1.89509e-06
5.40281e-05
1.65056e-06
5.30422e-05
1.43179e-06
5.21841e-05
1.25749e-06
5.14251e-05
1.12353e-06
5.07532e-05
1.00216e-06
5.01583e-05
8.93185e-07
4.96219e-05
8.08304e-07
4.91338e-05
7.37559e-07
4.86864e-05
6.79408e-07
4.82767e-05
6.24394e-07
4.78994e-05
5.73731e-07
4.75473e-05
5.32516e-07
4.72174e-05
5.00105e-07
4.69082e-05
4.70266e-07
4.66185e-05
4.42205e-07
4.63469e-05
4.15117e-07
4.60908e-05
3.92146e-07
4.58484e-05
3.71695e-07
4.56188e-05
3.52853e-07
4.54008e-05
3.35849e-07
4.51943e-05
3.18176e-07
4.49975e-05
3.03712e-07
4.48098e-05
2.89937e-07
4.46302e-05
2.7797e-07
4.44583e-05
2.66293e-07
4.42938e-05
2.55172e-07
4.41362e-05
2.44488e-07
4.39848e-05
2.35196e-07
4.3839e-05
2.26776e-07
4.36987e-05
2.18275e-07
4.35632e-05
2.11146e-07
4.3433e-05
2.03003e-07
4.33071e-05
1.96409e-07
4.31855e-05
1.89834e-07
4.30678e-05
1.83873e-07
4.29537e-05
1.78387e-07
4.28433e-05
1.72669e-07
4.27363e-05
1.67468e-07
4.26327e-05
1.62176e-07
4.25319e-05
1.5797e-07
4.2434e-05
1.53343e-07
4.23389e-05
1.49308e-07
4.22463e-05
1.45358e-07
4.21563e-05
1.41188e-07
4.20687e-05
1.37598e-07
4.19834e-05
1.33978e-07
4.19002e-05
1.30799e-07
4.18191e-05
1.27602e-07
4.17399e-05
1.2461e-07
4.16628e-05
1.21875e-07
4.15878e-05
1.18862e-07
4.15145e-05
1.16114e-07
4.1443e-05
1.13399e-07
4.13731e-05
1.1075e-07
4.13048e-05
1.08351e-07
4.1238e-05
1.05937e-07
4.11727e-05
1.03564e-07
4.11089e-05
1.01369e-07
4.10463e-05
9.92912e-08
4.09851e-05
9.72919e-08
4.0925e-05
9.53652e-08
4.08662e-05
9.34252e-08
4.08086e-05
9.15718e-08
4.07521e-05
8.97521e-08
4.06967e-05
8.8044e-08
4.06423e-05
8.64917e-08
4.05889e-05
8.47956e-08
4.05366e-05
8.3264e-08
4.04852e-05
8.17754e-08
4.04347e-05
8.02258e-08
4.03851e-05
7.88785e-08
4.03365e-05
7.7439e-08
4.02886e-05
7.61294e-08
4.02416e-05
7.48677e-08
4.01954e-05
7.35374e-08
4.01499e-05
7.2372e-08
4.01052e-05
7.11266e-08
4.00613e-05
6.98984e-08
4.00181e-05
6.88885e-08
3.99756e-05
6.77033e-08
3.99337e-05
6.66654e-08
3.98925e-05
6.56297e-08
3.9852e-05
6.45457e-08
3.98121e-05
6.36181e-08
3.97728e-05
6.25902e-08
3.97341e-05
6.16365e-08
3.9696e-05
6.08017e-08
3.96584e-05
5.98107e-08
3.96214e-05
5.89742e-08
3.9585e-05
5.8121e-08
3.95491e-05
5.72167e-08
3.95137e-05
5.64549e-08
3.94788e-05
5.56294e-08
3.94444e-05
5.48434e-08
3.94105e-05
5.41188e-08
3.9377e-05
5.33215e-08
3.93441e-05
5.26001e-08
3.93115e-05
5.19146e-08
3.92795e-05
5.11419e-08
3.92478e-05
5.05035e-08
3.92166e-05
4.98312e-08
3.91858e-05
4.91394e-08
3.91554e-05
4.85395e-08
3.91254e-05
4.78852e-08
3.90958e-05
4.72494e-08
3.90665e-05
4.66653e-08
3.90377e-05
4.60354e-08
3.90092e-05
4.54526e-08
3.89811e-05
4.48989e-08
3.89534e-05
4.4296e-08
3.8926e-05
4.37523e-08
3.88989e-05
4.32253e-08
3.88722e-05
4.26632e-08
3.88458e-05
4.21446e-08
3.88197e-05
4.16366e-08
3.8794e-05
4.10705e-08
3.87686e-05
4.05709e-08
3.87436e-05
4.00361e-08
3.87189e-05
3.95244e-08
3.86944e-05
3.90979e-08
3.86702e-05
3.86769e-08
3.86462e-05
3.83138e-08
3.86224e-05
3.80402e-08
3.85987e-05
3.77521e-08
3.85753e-05
3.74728e-08
3.85519e-05
3.72121e-08
3.85288e-05
3.68871e-08
3.8506e-05
3.65231e-08
3.84833e-05
3.61267e-08
3.8461e-05
3.56568e-08
3.8439e-05
3.51551e-08
3.84173e-05
3.46306e-08
3.8396e-05
3.40596e-08
3.8375e-05
3.35082e-08
3.83544e-05
3.29768e-08
3.83341e-05
3.24467e-08
3.83141e-05
3.19846e-08
3.82944e-05
3.15828e-08
3.82749e-05
3.12114e-08
3.82556e-05
3.09087e-08
3.82365e-05
3.06556e-08
3.82174e-05
3.04193e-08
3.81986e-05
3.02266e-08
3.81798e-05
3.00424e-08
3.81611e-05
2.98474e-08
3.81426e-05
2.96627e-08
3.81241e-05
2.94581e-08
3.81059e-05
2.92148e-08
3.80877e-05
2.89696e-08
3.80698e-05
2.86997e-08
3.8052e-05
2.83965e-08
3.80344e-05
2.80946e-08
3.80171e-05
2.77897e-08
3.79999e-05
2.74685e-08
3.79829e-05
2.71626e-08
3.79661e-05
2.68625e-08
3.79495e-05
2.65631e-08
3.79331e-05
2.62836e-08
3.79168e-05
2.60141e-08
3.79007e-05
2.57427e-08
3.78848e-05
2.54978e-08
3.7869e-05
2.52609e-08
3.78534e-05
2.50196e-08
3.78379e-05
2.47918e-08
3.78225e-05
2.4577e-08
3.78073e-05
2.43511e-08
3.77922e-05
2.41315e-08
3.77772e-05
2.3916e-08
3.77624e-05
2.36981e-08
3.77478e-05
2.34827e-08
3.77332e-05
2.32742e-08
3.77188e-05
2.30547e-08
3.77045e-05
2.28469e-08
3.76904e-05
2.26437e-08
3.76764e-05
2.24319e-08
3.76625e-05
2.22211e-08
3.76487e-05
2.20273e-08
3.76351e-05
2.18239e-08
3.76216e-05
2.16248e-08
3.76082e-05
2.14342e-08
3.75949e-05
2.12448e-08
3.75817e-05
2.10538e-08
3.75687e-05
2.08726e-08
3.75558e-05
2.06855e-08
3.7543e-05
2.05007e-08
3.75303e-05
2.0325e-08
3.75177e-05
2.01496e-08
3.75052e-05
1.99661e-08
3.74928e-05
1.9801e-08
3.74806e-05
1.96305e-08
3.74684e-05
1.94619e-08
3.74564e-05
1.92918e-08
3.74444e-05
1.91325e-08
3.74326e-05
1.89636e-08
3.74208e-05
1.88072e-08
3.74092e-05
1.86443e-08
3.73976e-05
1.84896e-08
3.73862e-05
1.83291e-08
3.73748e-05
1.81848e-08
3.73636e-05
1.80237e-08
3.73524e-05
1.78778e-08
3.73413e-05
1.77263e-08
3.73303e-05
1.75861e-08
3.73194e-05
1.74305e-08
3.73086e-05
1.72957e-08
3.72979e-05
1.71482e-08
3.72873e-05
1.70113e-08
3.72768e-05
1.68664e-08
3.72663e-05
1.67351e-08
3.7256e-05
1.65879e-08
3.72457e-05
1.64623e-08
3.72355e-05
1.63195e-08
3.72254e-05
1.61939e-08
3.72153e-05
1.60537e-08
3.72054e-05
1.59363e-08
3.71955e-05
1.5795e-08
3.71857e-05
1.56785e-08
3.7176e-05
1.55419e-08
3.71664e-05
1.54294e-08
3.71568e-05
1.52904e-08
3.71474e-05
1.51829e-08
3.7138e-05
1.50487e-08
3.71286e-05
1.49419e-08
3.71194e-05
1.48094e-08
3.71102e-05
1.47072e-08
3.71011e-05
1.45735e-08
3.70921e-05
1.44745e-08
3.70831e-05
1.43426e-08
3.70742e-05
1.42452e-08
3.70654e-05
1.41123e-08
3.70566e-05
1.40238e-08
3.7048e-05
1.38912e-08
3.70393e-05
1.38048e-08
3.70308e-05
1.36719e-08
3.70223e-05
1.35951e-08
3.70139e-05
1.3457e-08
3.70056e-05
1.33856e-08
3.69973e-05
1.32466e-08
3.69891e-05
1.31819e-08
3.69809e-05
1.30396e-08
3.69728e-05
1.29836e-08
3.69648e-05
1.28364e-08
3.69568e-05
1.27882e-08
3.69489e-05
1.26369e-08
3.69411e-05
1.25987e-08
3.69333e-05
1.24362e-08
3.69255e-05
1.24099e-08
3.69179e-05
1.22424e-08
3.69103e-05
1.22276e-08
3.69027e-05
1.20496e-08
3.68952e-05
1.20483e-08
3.68878e-05
1.18609e-08
3.68804e-05
1.18734e-08
3.68731e-05
1.16734e-08
3.68658e-05
1.1701e-08
3.68586e-05
1.14848e-08
3.68514e-05
1.15346e-08
3.68444e-05
1.13028e-08
3.68373e-05
1.13708e-08
3.68303e-05
1.11231e-08
3.68233e-05
1.1212e-08
3.68165e-05
1.09491e-08
3.68096e-05
1.10556e-08
3.68029e-05
1.07774e-08
3.67961e-05
1.09036e-08
3.67894e-05
1.06111e-08
3.67827e-05
1.07562e-08
3.67762e-05
1.04526e-08
3.67696e-05
1.06099e-08
3.67631e-05
1.03027e-08
3.67566e-05
1.04642e-08
3.67503e-05
1.01647e-08
3.67438e-05
1.03173e-08
3.67375e-05
1.00417e-08
3.67312e-05
1.01741e-08
3.6725e-05
9.94361e-09
3.67187e-05
1.00354e-08
3.67126e-05
9.88013e-09
3.67064e-05
9.90425e-09
3.67002e-05
9.85742e-09
3.66941e-05
9.78769e-09
3.6688e-05
9.88678e-09
3.66819e-05
9.71863e-09
3.66758e-05
9.89826e-09
3.66695e-05
9.95822e-09
3.66636e-05
9.34062e-09
3.66573e-05
1.00402e-08
3.66518e-05
8.49925e-09
3.6647e-05
7.33971e-09
3.66403e-05
1.16427e-08
3.6636e-05
5.64195e-09
4.07179e-08
9.94287e-05
5.28236e-05
9.34365e-05
3.74588e-05
8.60996e-05
2.24431e-05
8.00867e-05
1.27957e-05
7.57094e-05
8.23944e-06
7.24369e-05
6.01947e-06
6.99182e-05
4.71699e-06
6.79141e-05
3.89915e-06
6.62808e-05
3.2839e-06
6.49103e-05
2.80231e-06
6.37256e-05
2.44218e-06
6.2691e-05
2.1581e-06
6.17843e-05
1.90888e-06
6.0986e-05
1.6915e-06
6.02684e-05
1.52583e-06
5.96186e-05
1.38742e-06
5.9027e-05
1.27101e-06
5.84879e-05
1.16346e-06
5.79937e-05
1.0679e-06
5.7535e-05
9.9129e-07
5.71074e-05
9.27639e-07
5.67087e-05
8.69042e-07
5.63362e-05
8.1464e-07
5.59876e-05
7.63717e-07
5.56594e-05
7.20385e-07
5.53495e-05
6.81597e-07
5.50566e-05
6.457e-07
5.47792e-05
6.13318e-07
5.45167e-05
5.80632e-07
5.42669e-05
5.53553e-07
5.40289e-05
5.27918e-07
5.38016e-05
5.05255e-07
5.35845e-05
4.83445e-07
5.33769e-05
4.62685e-07
5.31783e-05
4.43156e-07
5.29876e-05
4.25855e-07
5.28042e-05
4.10203e-07
5.2628e-05
3.9447e-07
5.24581e-05
3.8104e-07
5.22948e-05
3.66327e-07
5.21371e-05
3.54065e-07
5.19849e-05
3.42078e-07
5.18377e-05
3.31011e-07
5.16952e-05
3.20879e-07
5.15575e-05
3.10406e-07
5.14241e-05
3.00903e-07
5.12949e-05
2.9133e-07
5.11694e-05
2.83477e-07
5.10476e-05
2.75124e-07
5.09293e-05
2.67636e-07
5.08142e-05
2.60427e-07
5.07025e-05
2.52912e-07
5.05938e-05
2.4635e-07
5.04879e-05
2.39802e-07
5.03848e-05
2.33937e-07
5.02842e-05
2.28161e-07
5.01863e-05
2.22589e-07
5.00908e-05
2.17324e-07
4.99979e-05
2.11754e-07
4.99073e-05
2.06756e-07
4.98188e-05
2.0189e-07
4.97324e-05
1.9713e-07
4.9648e-05
1.92768e-07
4.95655e-05
1.88434e-07
4.94849e-05
1.84181e-07
4.9406e-05
1.80222e-07
4.93288e-05
1.76469e-07
4.92533e-05
1.72862e-07
4.91792e-05
1.69389e-07
4.91068e-05
1.65913e-07
4.90357e-05
1.62583e-07
4.89662e-05
1.59329e-07
4.8898e-05
1.56248e-07
4.8831e-05
1.53441e-07
4.87654e-05
1.50435e-07
4.8701e-05
1.47663e-07
4.86378e-05
1.44996e-07
4.85757e-05
1.42236e-07
4.85148e-05
1.39801e-07
4.8455e-05
1.37249e-07
4.83963e-05
1.34884e-07
4.83385e-05
1.32627e-07
4.82818e-05
1.30259e-07
4.8226e-05
1.28151e-07
4.81712e-05
1.25951e-07
4.81173e-05
1.23758e-07
4.80643e-05
1.21922e-07
4.80121e-05
1.19838e-07
4.79609e-05
1.17963e-07
4.79104e-05
1.16121e-07
4.78607e-05
1.14194e-07
4.78118e-05
1.12519e-07
4.77637e-05
1.1071e-07
4.77163e-05
1.08997e-07
4.76696e-05
1.07493e-07
4.76237e-05
1.05756e-07
4.75784e-05
1.04241e-07
4.75338e-05
1.02729e-07
4.74899e-05
1.01129e-07
4.74466e-05
9.97522e-08
4.74039e-05
9.82961e-08
4.73619e-05
9.68904e-08
4.73204e-05
9.5594e-08
4.72795e-05
9.41907e-08
4.72393e-05
9.28939e-08
4.71995e-05
9.1673e-08
4.71603e-05
9.03158e-08
4.71217e-05
8.91594e-08
4.70835e-05
8.79717e-08
4.70459e-05
8.67456e-08
4.70088e-05
8.5666e-08
4.69722e-05
8.45145e-08
4.6936e-05
8.33835e-08
4.69004e-05
8.23393e-08
4.68652e-05
8.12292e-08
4.68304e-05
8.01855e-08
4.67961e-05
7.91985e-08
4.67623e-05
7.8139e-08
4.67289e-05
7.71659e-08
4.66959e-05
7.62303e-08
4.66633e-05
7.52409e-08
4.66311e-05
7.43127e-08
4.65993e-05
7.34096e-08
4.6568e-05
7.24151e-08
4.65371e-05
7.15219e-08
4.65065e-05
7.05889e-08
4.64763e-05
6.96898e-08
4.64465e-05
6.89367e-08
4.6417e-05
6.821e-08
4.63877e-05
6.75754e-08
4.63587e-05
6.70897e-08
4.63298e-05
6.65911e-08
4.63012e-05
6.6096e-08
4.62728e-05
6.56243e-08
4.62446e-05
6.50456e-08
4.62168e-05
6.43875e-08
4.61892e-05
6.36677e-08
4.6162e-05
6.28238e-08
4.61353e-05
6.19173e-08
4.61089e-05
6.09742e-08
4.6083e-05
5.99583e-08
4.60576e-05
5.8972e-08
4.60325e-05
5.80289e-08
4.60079e-05
5.70981e-08
4.59836e-05
5.62811e-08
4.59596e-05
5.55762e-08
4.59359e-05
5.49325e-08
4.59124e-05
5.44042e-08
4.58891e-05
5.39657e-08
4.58659e-05
5.35596e-08
4.58429e-05
5.32219e-08
4.58201e-05
5.29018e-08
4.57973e-05
5.25613e-08
4.57748e-05
5.22317e-08
4.57524e-05
5.18697e-08
4.57301e-05
5.1441e-08
4.57081e-05
5.10012e-08
4.56863e-05
5.05221e-08
4.56647e-05
4.99865e-08
4.56433e-05
4.9448e-08
4.56222e-05
4.89066e-08
4.56014e-05
4.83403e-08
4.55807e-05
4.77971e-08
4.55603e-05
4.72675e-08
4.55401e-05
4.67404e-08
4.55202e-05
4.62462e-08
4.55004e-05
4.57719e-08
4.54809e-05
4.5296e-08
4.54615e-05
4.48614e-08
4.54423e-05
4.44439e-08
4.54233e-05
4.40208e-08
4.54045e-05
4.36179e-08
4.53858e-05
4.32371e-08
4.53673e-05
4.28412e-08
4.5349e-05
4.24531e-08
4.53309e-05
4.20725e-08
4.53129e-05
4.16879e-08
4.5295e-05
4.13071e-08
4.52774e-05
4.09377e-08
4.52599e-05
4.05525e-08
4.52426e-05
4.01833e-08
4.52254e-05
3.98242e-08
4.52084e-05
3.94527e-08
4.51915e-05
3.90811e-08
4.51748e-05
3.87364e-08
4.51582e-05
3.83799e-08
4.51418e-05
3.80284e-08
4.51256e-05
3.76916e-08
4.51095e-05
3.73575e-08
4.50935e-05
3.70218e-08
4.50777e-05
3.67007e-08
4.5062e-05
3.63729e-08
4.50464e-05
3.60467e-08
4.5031e-05
3.57357e-08
4.50157e-05
3.54267e-08
4.50006e-05
3.51053e-08
4.49856e-05
3.48109e-08
4.49707e-05
3.45118e-08
4.4956e-05
3.42145e-08
4.49413e-05
3.3916e-08
4.49268e-05
3.36336e-08
4.49125e-05
3.33381e-08
4.48982e-05
3.30603e-08
4.48841e-05
3.2775e-08
4.48701e-05
3.25011e-08
4.48562e-05
3.222e-08
4.48424e-05
3.19628e-08
4.48287e-05
3.16831e-08
4.48152e-05
3.14235e-08
4.48018e-05
3.11584e-08
4.47884e-05
3.09093e-08
4.47752e-05
3.06386e-08
4.47621e-05
3.03969e-08
4.47491e-05
3.01401e-08
4.47362e-05
2.98966e-08
4.47235e-05
2.96438e-08
4.47108e-05
2.94098e-08
4.46982e-05
2.91543e-08
4.46858e-05
2.8929e-08
4.46734e-05
2.86816e-08
4.46611e-05
2.8457e-08
4.4649e-05
2.82135e-08
4.46369e-05
2.80021e-08
4.46249e-05
2.77586e-08
4.46131e-05
2.75488e-08
4.46013e-05
2.7313e-08
4.45896e-05
2.71103e-08
4.4578e-05
2.68716e-08
4.45665e-05
2.6676e-08
4.45551e-05
2.64458e-08
4.45438e-05
2.62519e-08
4.45326e-05
2.60246e-08
4.45215e-05
2.58383e-08
4.45105e-05
2.56102e-08
4.44995e-05
2.54287e-08
4.44886e-05
2.52041e-08
4.44779e-05
2.50255e-08
4.44672e-05
2.47996e-08
4.44566e-05
2.46344e-08
4.4446e-05
2.44105e-08
4.44356e-05
2.42491e-08
4.44252e-05
2.4025e-08
4.4415e-05
2.3879e-08
4.44048e-05
2.36485e-08
4.43946e-05
2.35103e-08
4.43846e-05
2.3279e-08
4.43746e-05
2.31512e-08
4.43648e-05
2.29157e-08
4.43549e-05
2.28015e-08
4.43452e-05
2.25593e-08
4.43356e-05
2.2457e-08
4.4326e-05
2.22091e-08
4.43165e-05
2.21227e-08
4.4307e-05
2.18582e-08
4.42977e-05
2.17897e-08
4.42884e-05
2.15181e-08
4.42791e-05
2.14679e-08
4.427e-05
2.11804e-08
4.42609e-05
2.11514e-08
4.42519e-05
2.08497e-08
4.4243e-05
2.08428e-08
4.42341e-05
2.05215e-08
4.42253e-05
2.05389e-08
4.42166e-05
2.01918e-08
4.42078e-05
2.02442e-08
4.41993e-05
1.98728e-08
4.41907e-05
1.99551e-08
4.41823e-05
1.95579e-08
4.41738e-05
1.96745e-08
4.41655e-05
1.92525e-08
4.41571e-05
1.93993e-08
4.4149e-05
1.89512e-08
4.41407e-05
1.91321e-08
4.41327e-05
1.86587e-08
4.41246e-05
1.8873e-08
4.41167e-05
1.83787e-08
4.41086e-05
1.86167e-08
4.41008e-05
1.81123e-08
4.40929e-05
1.83623e-08
4.40852e-05
1.78648e-08
4.40775e-05
1.81075e-08
4.40699e-05
1.76412e-08
4.40622e-05
1.78599e-08
4.40547e-05
1.74581e-08
4.40471e-05
1.76217e-08
4.40396e-05
1.73311e-08
4.40321e-05
1.73984e-08
4.40247e-05
1.72702e-08
4.40173e-05
1.72026e-08
4.40099e-05
1.72898e-08
4.40025e-05
1.70903e-08
4.39951e-05
1.72954e-08
4.39876e-05
1.7465e-08
4.39804e-05
1.65426e-08
4.39727e-05
1.77255e-08
4.39658e-05
1.54067e-08
4.39597e-05
1.34267e-08
4.3952e-05
1.93522e-08
4.39464e-05
1.1239e-08
5.9179e-08
0.000102569
5.1505e-05
0.00010099
3.90378e-05
9.72211e-05
2.62115e-05
9.20747e-05
1.79421e-05
8.73721e-05
1.2942e-05
8.34179e-05
9.97366e-06
8.01889e-05
7.94599e-06
7.75791e-05
6.50894e-06
7.54535e-05
5.40946e-06
7.36819e-05
4.57399e-06
7.2183e-05
3.94102e-06
7.08943e-05
3.4468e-06
6.97719e-05
3.03134e-06
6.87849e-05
2.67848e-06
6.78983e-05
2.41243e-06
6.70986e-05
2.18713e-06
6.63751e-05
1.99452e-06
6.57183e-05
1.82018e-06
6.51175e-05
1.66878e-06
6.45613e-05
1.54749e-06
6.40454e-05
1.44347e-06
6.35664e-05
1.34805e-06
6.31205e-05
1.26058e-06
6.27036e-05
1.18062e-06
6.23116e-05
1.11232e-06
6.19425e-05
1.05076e-06
6.15945e-05
9.93664e-07
6.12656e-05
9.42181e-07
6.09548e-05
8.9144e-07
6.06593e-05
8.49063e-07
6.03783e-05
8.08976e-07
6.01104e-05
7.73158e-07
5.98549e-05
7.38936e-07
5.96111e-05
7.06502e-07
5.93778e-05
6.76451e-07
5.91541e-05
6.49483e-07
5.89393e-05
6.25038e-07
5.87332e-05
6.00583e-07
5.85348e-05
5.79447e-07
5.83441e-05
5.56978e-07
5.81603e-05
5.37922e-07
5.79829e-05
5.19475e-07
5.78116e-05
5.02277e-07
5.7646e-05
4.86532e-07
5.7486e-05
4.7039e-07
5.73311e-05
4.55782e-07
5.71812e-05
4.41188e-07
5.70358e-05
4.28937e-07
5.68947e-05
4.16183e-07
5.67578e-05
4.04557e-07
5.66248e-05
3.93459e-07
5.64956e-05
3.82032e-07
5.637e-05
3.71959e-07
5.62479e-05
3.61965e-07
5.61289e-05
3.52907e-07
5.6013e-05
3.44072e-07
5.59001e-05
3.35465e-07
5.57901e-05
3.27307e-07
5.5683e-05
3.18841e-07
5.55786e-05
3.11215e-07
5.54766e-05
3.03833e-07
5.53772e-05
2.96603e-07
5.528e-05
2.89916e-07
5.51851e-05
2.83331e-07
5.50924e-05
2.76886e-07
5.50018e-05
2.7086e-07
5.49131e-05
2.65137e-07
5.48263e-05
2.59639e-07
5.47414e-05
2.54346e-07
5.46582e-05
2.49072e-07
5.45768e-05
2.44017e-07
5.4497e-05
2.39095e-07
5.44189e-05
2.34409e-07
5.43422e-05
2.30122e-07
5.4267e-05
2.25601e-07
5.41933e-05
2.21373e-07
5.4121e-05
2.17327e-07
5.405e-05
2.13168e-07
5.39804e-05
2.09458e-07
5.3912e-05
2.05621e-07
5.38449e-05
2.02024e-07
5.37789e-05
1.98606e-07
5.37141e-05
1.95037e-07
5.36504e-05
1.91824e-07
5.35879e-05
1.88525e-07
5.35264e-05
1.85219e-07
5.34659e-05
1.8241e-07
5.34065e-05
1.79297e-07
5.3348e-05
1.76445e-07
5.32904e-05
1.73668e-07
5.32339e-05
1.70771e-07
5.31782e-05
1.68222e-07
5.31233e-05
1.6552e-07
5.30694e-05
1.62928e-07
5.30163e-05
1.60642e-07
5.2964e-05
1.58054e-07
5.29125e-05
1.55748e-07
5.28617e-05
1.53474e-07
5.28118e-05
1.51078e-07
5.27625e-05
1.48985e-07
5.2714e-05
1.46806e-07
5.26662e-05
1.44686e-07
5.26191e-05
1.42726e-07
5.25727e-05
1.4063e-07
5.25269e-05
1.38667e-07
5.24817e-05
1.36827e-07
5.24372e-05
1.34805e-07
5.23934e-05
1.33046e-07
5.23501e-05
1.31267e-07
5.23074e-05
1.2943e-07
5.22652e-05
1.27793e-07
5.22237e-05
1.26073e-07
5.21827e-05
1.24374e-07
5.21422e-05
1.22798e-07
5.21023e-05
1.21141e-07
5.20629e-05
1.19567e-07
5.20241e-05
1.18081e-07
5.19857e-05
1.16503e-07
5.19478e-05
1.15037e-07
5.19104e-05
1.13632e-07
5.18735e-05
1.12157e-07
5.18371e-05
1.10759e-07
5.18011e-05
1.09404e-07
5.17656e-05
1.07927e-07
5.17305e-05
1.06587e-07
5.16959e-05
1.05209e-07
5.16617e-05
1.03878e-07
5.16279e-05
1.02757e-07
5.15944e-05
1.01689e-07
5.15612e-05
1.00747e-07
5.15283e-05
1.00011e-07
5.14956e-05
9.92648e-08
5.14632e-05
9.85108e-08
5.1431e-05
9.77792e-08
5.13992e-05
9.68947e-08
5.13677e-05
9.58843e-08
5.13366e-05
9.47794e-08
5.13059e-05
9.34995e-08
5.12757e-05
9.21249e-08
5.1246e-05
9.07023e-08
5.12168e-05
8.91854e-08
5.1188e-05
8.77108e-08
5.11597e-05
8.63091e-08
5.11319e-05
8.49377e-08
5.11044e-05
8.37295e-08
5.10773e-05
8.26911e-08
5.10505e-05
8.17498e-08
5.10239e-05
8.0972e-08
5.09976e-05
8.03264e-08
5.09714e-05
7.97295e-08
5.09454e-05
7.92241e-08
5.09196e-05
7.87449e-08
5.08939e-05
7.8234e-08
5.08684e-05
7.77315e-08
5.08431e-05
7.71831e-08
5.0818e-05
7.65388e-08
5.07931e-05
7.58714e-08
5.07685e-05
7.51504e-08
5.07441e-05
7.43494e-08
5.072e-05
7.35406e-08
5.06962e-05
7.27299e-08
5.06727e-05
7.18874e-08
5.06494e-05
7.10761e-08
5.06264e-05
7.02877e-08
5.06036e-05
6.95052e-08
5.05811e-05
6.87689e-08
5.05588e-05
6.80636e-08
5.05367e-05
6.73584e-08
5.05149e-05
6.67085e-08
5.04932e-05
6.60862e-08
5.04718e-05
6.54579e-08
5.04506e-05
6.48559e-08
5.04295e-05
6.42855e-08
5.04087e-05
6.3697e-08
5.0388e-05
6.31171e-08
5.03675e-05
6.25483e-08
5.03472e-05
6.19746e-08
5.03271e-05
6.14054e-08
5.03072e-05
6.08527e-08
5.02875e-05
6.02801e-08
5.02679e-05
5.97274e-08
5.02486e-05
5.91908e-08
5.02294e-05
5.86389e-08
5.02104e-05
5.80859e-08
5.01916e-05
5.75691e-08
5.01729e-05
5.70397e-08
5.01544e-05
5.65158e-08
5.01361e-05
5.60131e-08
5.01179e-05
5.55151e-08
5.00999e-05
5.50158e-08
5.00821e-05
5.45359e-08
5.00644e-05
5.40493e-08
5.00469e-05
5.35632e-08
5.00295e-05
5.30985e-08
5.00123e-05
5.26378e-08
4.99953e-05
5.21612e-08
4.99784e-05
5.17197e-08
4.99616e-05
5.12751e-08
4.9945e-05
5.08324e-08
4.99285e-05
5.0389e-08
4.99122e-05
4.99665e-08
4.9896e-05
4.95286e-08
4.98799e-05
4.91129e-08
4.9864e-05
4.86896e-08
4.98482e-05
4.82805e-08
4.98326e-05
4.78635e-08
4.98171e-05
4.74778e-08
4.98017e-05
4.7065e-08
4.97864e-05
4.66764e-08
4.97713e-05
4.6283e-08
4.97563e-05
4.591e-08
4.97414e-05
4.55104e-08
4.97267e-05
4.51467e-08
4.97121e-05
4.47669e-08
4.96976e-05
4.44022e-08
4.96832e-05
4.4028e-08
4.96689e-05
4.36773e-08
4.96548e-05
4.33008e-08
4.96407e-05
4.29615e-08
4.96268e-05
4.2597e-08
4.9613e-05
4.22597e-08
4.95993e-05
4.19004e-08
4.95858e-05
4.15816e-08
4.95723e-05
4.12241e-08
4.95589e-05
4.09077e-08
4.95457e-05
4.05611e-08
4.95325e-05
4.02552e-08
4.95195e-05
3.99057e-08
4.95066e-05
3.96089e-08
4.94937e-05
3.92718e-08
4.9481e-05
3.89781e-08
4.94684e-05
3.86454e-08
4.94559e-05
3.83624e-08
4.94435e-05
3.80297e-08
4.94311e-05
3.77532e-08
4.94189e-05
3.74259e-08
4.94068e-05
3.71538e-08
4.93948e-05
3.68251e-08
4.93828e-05
3.6571e-08
4.9371e-05
3.62465e-08
4.93592e-05
3.59982e-08
4.93476e-05
3.56739e-08
4.9336e-05
3.54467e-08
4.93245e-05
3.51154e-08
4.93132e-05
3.48985e-08
4.93019e-05
3.45668e-08
4.92907e-05
3.43642e-08
4.92795e-05
3.40275e-08
4.92685e-05
3.38434e-08
4.92576e-05
3.34987e-08
4.92467e-05
3.33306e-08
4.92359e-05
3.29787e-08
4.92252e-05
3.28327e-08
4.92146e-05
3.24593e-08
4.92041e-05
3.23367e-08
4.91936e-05
3.19544e-08
4.91832e-05
3.18573e-08
4.9173e-05
3.14542e-08
4.91627e-05
3.13859e-08
4.91526e-05
3.09637e-08
4.91425e-05
3.0926e-08
4.91326e-05
3.04774e-08
4.91226e-05
3.04737e-08
4.91128e-05
2.99895e-08
4.91031e-05
3.00338e-08
4.90934e-05
2.95167e-08
4.90838e-05
2.96031e-08
4.90743e-05
2.905e-08
4.90648e-05
2.91847e-08
4.90554e-05
2.85968e-08
4.9046e-05
2.87754e-08
4.90368e-05
2.81499e-08
4.90276e-05
2.83782e-08
4.90185e-05
2.77155e-08
4.90094e-05
2.79929e-08
4.90005e-05
2.72983e-08
4.89915e-05
2.76124e-08
4.89827e-05
2.68998e-08
4.89738e-05
2.72355e-08
4.89652e-05
2.65272e-08
4.89564e-05
2.68599e-08
4.89479e-05
2.61879e-08
4.89392e-05
2.64959e-08
4.89308e-05
2.59049e-08
4.89223e-05
2.6147e-08
4.89139e-05
2.56997e-08
4.89055e-05
2.58219e-08
4.88972e-05
2.5586e-08
4.88888e-05
2.55396e-08
4.88805e-05
2.55804e-08
4.88722e-05
2.53784e-08
4.8864e-05
2.5573e-08
4.88556e-05
2.58679e-08
4.88474e-05
2.46628e-08
4.88388e-05
2.63401e-08
4.8831e-05
2.32672e-08
4.88238e-05
2.06427e-08
4.88152e-05
2.79168e-08
4.88088e-05
1.76696e-08
7.6347e-08
0.000103461
4.92937e-05
0.000103822
3.8677e-05
0.000102648
2.73855e-05
9.99309e-05
2.06593e-05
9.61977e-05
1.66752e-05
9.24624e-05
1.3709e-05
8.90193e-05
1.1389e-05
8.5978e-05
9.55024e-06
8.33919e-05
7.99564e-06
8.11915e-05
6.77431e-06
7.93387e-05
5.79387e-06
7.77538e-05
5.03169e-06
7.63791e-05
4.40602e-06
7.5178e-05
3.87959e-06
7.41125e-05
3.478e-06
7.31618e-05
3.13773e-06
7.23064e-05
2.84994e-06
7.15318e-05
2.59479e-06
7.0823e-05
2.3776e-06
7.0168e-05
2.20244e-06
6.95635e-05
2.04804e-06
6.90044e-05
1.90713e-06
6.84853e-05
1.77968e-06
6.80004e-05
1.66556e-06
6.75452e-05
1.56751e-06
6.71176e-05
1.47836e-06
6.67156e-05
1.39565e-06