/*--------------------------------*- C++ -*----------------------------------*\
| =========                 |                                                 |
| \\      /  F ield         | foam-extend: Open Source CFD                    |
|  \\    /   O peration     | Version:     3.2                                |
|   \\  /    A nd           | Web:         http://www.foam-extend.org         |
|    \\/     M anipulation  | For copyright notice see file Copyright         |
\*---------------------------------------------------------------------------*/
FoamFile
{
    version     2.0;
    format      ascii;
    class       volScalarField;
    location    "37";
    object      testS;
}
// * * * * * * * * * * * * * * * * * * * * * * * * * * * * * * * * * * * * * //

dimensions      [0 0 0 0 0 0 0];

internalField   uniform 0;

boundaryField
{
    inlet
    {
        type            calculated;
        value           uniform 0;
    }
    outlet
    {
        type            calculated;
        value           uniform 0;
    }
    sideWall
    {
        type            empty;
    }
    bed
    {
        type            calculated;
        value           nonuniform List<scalar> 
300
(
5.38825
3.82632
2.20717
1.64037
1.44168
1.34094
1.26953
1.20811
1.15248
1.10276
1.059
1.02039
0.98587
0.955407
0.928266
0.903822
0.881658
0.86136
0.842914
0.826206
0.810794
0.796402
0.782966
0.77042
0.758717
0.747692
0.737326
0.72751
0.718256
0.709518
0.701214
0.693328
0.685796
0.678628
0.671788
0.665269
0.659006
0.653012
0.64725
0.641713
0.636412
0.631291
0.626374
0.621612
0.617026
0.612593
0.60832
0.604184
0.600172
0.596294
0.592523
0.588874
0.585335
0.581897
0.57856
0.575308
0.572152
0.569063
0.566042
0.5631
0.560231
0.557439
0.554717
0.552062
0.549474
0.546949
0.544483
0.542074
0.539719
0.537417
0.535168
0.532968
0.530817
0.528711
0.526647
0.524629
0.52265
0.520713
0.518815
0.516954
0.51513
0.51334
0.511584
0.509863
0.508171
0.506514
0.504886
0.503286
0.501717
0.500172
0.498657
0.497168
0.495703
0.494266
0.492851
0.491459
0.490092
0.488744
0.487421
0.486119
0.484836
0.483575
0.482332
0.481109
0.479905
0.478719
0.477551
0.476402
0.475267
0.474151
0.473051
0.471966
0.470898
0.469845
0.468807
0.467784
0.466774
0.465779
0.464798
0.46383
0.462875
0.461933
0.461004
0.460087
0.459181
0.458287
0.457404
0.456531
0.455668
0.454816
0.453973
0.453139
0.452316
0.451503
0.450701
0.449909
0.449129
0.44836
0.447603
0.446856
0.446119
0.445392
0.444675
0.443966
0.443266
0.442573
0.441886
0.441207
0.440534
0.439868
0.439208
0.438554
0.437907
0.437267
0.436633
0.436006
0.435387
0.434774
0.434168
0.43357
0.432978
0.432393
0.431814
0.431242
0.430676
0.430116
0.429562
0.429014
0.428471
0.427934
0.427402
0.426876
0.426355
0.425839
0.425328
0.424823
0.424322
0.423827
0.423336
0.422851
0.42237
0.421894
0.421422
0.420955
0.420493
0.420035
0.419582
0.419133
0.418688
0.418248
0.417811
0.417379
0.416951
0.416527
0.416107
0.415691
0.415278
0.41487
0.414465
0.414064
0.413667
0.413273
0.412883
0.412496
0.412113
0.411734
0.411357
0.410985
0.410615
0.410249
0.409886
0.409527
0.40917
0.408817
0.408466
0.408119
0.407775
0.407434
0.407096
0.406761
0.406428
0.406099
0.405772
0.405449
0.405127
0.40481
0.404494
0.404181
0.403871
0.403564
0.403258
0.402957
0.402656
0.40236
0.402064
0.401773
0.401482
0.401196
0.40091
0.400628
0.400347
0.40007
0.399793
0.399521
0.399249
0.398981
0.398713
0.39845
0.398186
0.397927
0.397668
0.397413
0.397158
0.396907
0.396656
0.39641
0.396163
0.39592
0.395677
0.395438
0.3952
0.394964
0.39473
0.394497
0.394267
0.394037
0.393812
0.393585
0.393365
0.393139
0.392924
0.392701
0.392491
0.392269
0.392064
0.391843
0.391645
0.391424
0.391231
0.39101
0.390824
0.390602
0.390423
0.3902
0.390027
0.389803
0.389636
0.38941
0.389247
0.389021
0.38886
0.388634
0.388474
0.388241
0.388109
0.387837
0.387812
0.387423
0.387565
0.386808
)
;
    }
    topWall
    {
        type            calculated;
        value           uniform 0;
    }
}


// ************************************************************************* //
