/*--------------------------------*- C++ -*----------------------------------*\
| =========                 |                                                 |
| \\      /  F ield         | foam-extend: Open Source CFD                    |
|  \\    /   O peration     | Version:     3.2                                |
|   \\  /    A nd           | Web:         http://www.foam-extend.org         |
|    \\/     M anipulation  | For copyright notice see file Copyright         |
\*---------------------------------------------------------------------------*/
FoamFile
{
    version     2.0;
    format      ascii;
    class       volScalarField;
    location    "200";
    object      k;
}
// * * * * * * * * * * * * * * * * * * * * * * * * * * * * * * * * * * * * * //

dimensions      [0 2 -2 0 0 0 0];

internalField   nonuniform List<scalar> 
33000
(
0.000161175
0.000218461
0.000286363
0.000363682
0.000448137
0.000536615
0.000625706
0.000711902
0.000792189
0.000864154
0.000926262
0.000977719
0.00101847
0.00104895
0.00106993
0.00108248
0.00108776
0.00108699
0.00108136
0.00107224
0.0010604
0.0010465
0.0010311
0.00101469
0.000997716
0.000980546
0.000963479
0.000946821
0.000930754
0.000915286
0.000900439
0.000886261
0.000872781
0.000860011
0.000847947
0.000836579
0.00082589
0.000815856
0.000806451
0.000797645
0.000789408
0.000781711
0.00077452
0.000767801
0.000761521
0.00075565
0.00075016
0.000745025
0.000740221
0.000735724
0.000731512
0.000727564
0.000723859
0.000720378
0.000717103
0.000714019
0.000711109
0.000708361
0.000705762
0.000703299
0.000700961
0.000698735
0.000696614
0.000694588
0.000692649
0.000690788
0.000689
0.000687278
0.000685618
0.000684014
0.000682464
0.000680964
0.000679511
0.000678103
0.000676736
0.000675405
0.000674104
0.000672832
0.000671586
0.000670362
0.000669157
0.00066797
0.000666799
0.000665642
0.0006645
0.00066337
0.000662253
0.000661151
0.000660063
0.00065899
0.00065793
0.000656881
0.000655844
0.000654819
0.000653804
0.0006528
0.000651805
0.000650822
0.000649846
0.000648875
0.000647907
0.000646937
0.000645964
0.000644987
0.000644003
0.000643011
0.000642012
0.000641003
0.000639985
0.000638957
0.000637919
0.000636871
0.00063581
0.000634737
0.000633652
0.000632556
0.00063145
0.000630335
0.000629212
0.000628081
0.000626944
0.000625799
0.000624649
0.000623494
0.000622333
0.000621169
0.000620001
0.000618831
0.00061766
0.000616488
0.000615317
0.000614147
0.000612979
0.000611815
0.000610655
0.000609499
0.00060835
0.000607207
0.000606071
0.000604943
0.000603824
0.000602715
0.000601616
0.000600528
0.000599451
0.000598386
0.000597332
0.000596291
0.000595263
0.000594247
0.000593245
0.000592255
0.000591279
0.000590317
0.000589369
0.000588434
0.000587514
0.000586607
0.000585715
0.000584837
0.000583974
0.000583125
0.000582292
0.000581473
0.000580669
0.000579882
0.000579109
0.000578353
0.000577613
0.000576888
0.000576179
0.000575485
0.000574805
0.000574141
0.00057349
0.000572854
0.000572232
0.000571623
0.000571027
0.000570445
0.000569875
0.000569318
0.000568774
0.000568242
0.000567721
0.000567213
0.000566715
0.000566229
0.000565753
0.000565288
0.000564831
0.000564384
0.000563945
0.000563515
0.000563091
0.000562674
0.000562264
0.000561859
0.00056146
0.000561066
0.000560677
0.000560291
0.000559908
0.000559529
0.000559151
0.000558775
0.0005584
0.000558021
0.000557637
0.000557249
0.000556855
0.000556455
0.000556051
0.000555642
0.00055523
0.000554814
0.000554396
0.000553976
0.000553555
0.000553133
0.000552711
0.000552289
0.000551868
0.000551449
0.000551031
0.000550616
0.000550204
0.000549796
0.000549392
0.000548993
0.000548598
0.000548209
0.000547825
0.000547447
0.000547075
0.000546709
0.000546349
0.000545995
0.000545647
0.000545305
0.00054497
0.00054464
0.000544317
0.000543999
0.000543688
0.000543383
0.000543085
0.000542793
0.000542508
0.000542229
0.000541957
0.000541692
0.000541433
0.00054118
0.000540933
0.000540693
0.000540458
0.000540229
0.000540006
0.000539789
0.000539578
0.000539373
0.000539176
0.000538985
0.000538802
0.000538626
0.000538458
0.000538298
0.000538147
0.000538004
0.000537869
0.000537743
0.000537627
0.000537519
0.000537419
0.000537327
0.000537242
0.000537164
0.00053709
0.000537021
0.000536954
0.000536889
0.000536823
0.000536756
0.000536686
0.000536611
0.000536531
0.000536443
0.000536348
0.000536244
0.000536131
0.000536009
0.000535878
0.000535739
0.000535591
0.000535435
0.000535271
0.000535101
0.000534924
0.000534741
0.000534553
0.000534359
0.000534161
0.000533958
0.00053375
0.000533538
0.000533321
0.000533099
0.000532873
0.000532642
0.000532406
0.000532164
0.000531917
0.000531665
0.000531408
0.000531144
0.000530875
0.000530601
0.000530322
0.000530038
0.000529749
0.000529457
0.000529161
0.000528862
0.000528559
0.000528255
0.000527947
0.000527638
0.000527326
0.000527012
0.000526696
0.000526376
0.000526053
0.000525727
0.000525395
0.00052506
0.000524719
0.000524373
0.000524023
0.000523667
0.000523305
0.000522938
0.000522565
0.000522188
0.000521805
0.000521417
0.000521025
0.000520629
0.00052023
0.00051983
0.000519429
0.000519028
0.000518627
0.000518229
0.000517834
0.000517442
0.000517054
0.00051667
0.000516292
0.000515919
0.000515552
0.000515189
0.000514831
0.000514477
0.000514124
0.000513774
0.000513424
0.000513073
0.000512722
0.000512369
0.000512015
0.000511658
0.000511298
0.000510936
0.000510571
0.000510204
0.000509835
0.000509464
0.000509093
0.000508721
0.000508349
0.000507979
0.000507611
0.000507246
0.000506884
0.000506526
0.000506172
0.000505823
0.000505479
0.000505141
0.000504809
0.000504483
0.000504163
0.000503849
0.000503542
0.00050324
0.000502944
0.000502653
0.000502366
0.000502083
0.000501804
0.000501528
0.000501253
0.000500978
0.000500703
0.000500427
0.000500149
0.000499867
0.000499582
0.000499292
0.000498997
0.000498697
0.000498392
0.000498082
0.000497767
0.000497447
0.000497125
0.000496799
0.000496473
0.000496146
0.00049582
0.000495496
0.000495174
0.000494855
0.000494539
0.000494226
0.000493917
0.000493611
0.000493307
0.000493005
0.000492703
0.0004924
0.000492096
0.000491789
0.000491478
0.000491163
0.000490842
0.000490516
0.000490183
0.000489843
0.000489497
0.000489144
0.000488784
0.000488418
0.000488046
0.000487668
0.000487284
0.000486895
0.000486501
0.000486102
0.000485699
0.000485293
0.000484883
0.00048447
0.000484055
0.000483638
0.000483219
0.000482799
0.000482378
0.000481956
0.000481533
0.000481108
0.000480682
0.000480252
0.00047982
0.000479384
0.000478944
0.000478499
0.000478048
0.000477592
0.000477129
0.000476661
0.000476188
0.00047571
0.000475228
0.000474744
0.000474259
0.000473773
0.000473289
0.000472809
0.000472332
0.00047186
0.000471394
0.000470934
0.00047048
0.000470033
0.000469593
0.000469161
0.000468735
0.000468316
0.000467903
0.000467497
0.000467095
0.000466697
0.000466301
0.000465908
0.000465515
0.000465123
0.000464729
0.000464336
0.000463941
0.000463547
0.000463152
0.000462759
0.000462366
0.000461974
0.000461581
0.000461189
0.000460796
0.000460403
0.000460006
0.000459608
0.000459206
0.000458803
0.000458394
0.000457985
0.000457571
0.000457159
0.000456744
0.00045633
0.000455914
0.000455501
0.000455082
0.000454666
0.000454243
0.000453819
0.000453383
0.000452938
0.000452463
0.000451961
0.000451383
0.000450725
0.000449893
0.000448866
0.000447461
0.000445617
0.000442967
0.000439345
0.000434014
0.000426491
0.000415456
0.000399505
0.000376372
0.000344349
0.000300563
0.000242639
0.00015452
7.39166e-05
8.10393e-05
0.000143038
0.000113313
0.000116742
0.000122029
0.000128719
0.000137375
0.000146911
0.000157372
0.000168389
0.000180136
0.000192195
0.000204354
0.000216268
0.000227708
0.000238633
0.000249215
0.000259547
0.000269836
0.000280583
0.00029213
0.000304496
0.000318132
0.000333168
0.000347903
0.000362731
0.000378013
0.000394064
0.000411122
0.00042855
0.000445467
0.00046186
0.000477669
0.000492837
0.000507335
0.000521131
0.000534199
0.000546525
0.000558108
0.000568954
0.00057908
0.000588507
0.000597261
0.000605374
0.000612882
0.000619822
0.000626236
0.000632163
0.000637678
0.000642814
0.000647587
0.000652012
0.0006561
0.00065986
0.000663301
0.000666434
0.000669271
0.000671826
0.000674112
0.00067615
0.000677962
0.000679566
0.000680975
0.000682205
0.000683265
0.000684164
0.000684908
0.000685506
0.000685963
0.000686287
0.000686486
0.000686569
0.000686544
0.000686422
0.000686212
0.000685925
0.000685571
0.000685158
0.000684692
0.000684177
0.000683618
0.000683018
0.000682377
0.000681695
0.000680974
0.000680213
0.000679416
0.000678582
0.000677715
0.000676815
0.000675886
0.00067493
0.000673949
0.000672941
0.000671904
0.000670836
0.000669737
0.000668605
0.000667443
0.000666248
0.000665018
0.000663753
0.000662451
0.000661112
0.000659737
0.000658328
0.000656885
0.00065541
0.000653908
0.00065238
0.00065083
0.000649261
0.000647675
0.000646079
0.000644472
0.000642855
0.000641232
0.000639604
0.000637974
0.000636344
0.000634716
0.000633092
0.000631475
0.000629865
0.000628265
0.000626675
0.000625098
0.000623533
0.000621983
0.000620449
0.000618931
0.000617432
0.000615953
0.000614495
0.00061306
0.000611649
0.000610264
0.000608907
0.000607577
0.000606277
0.000605007
0.000603768
0.000602561
0.000601386
0.000600244
0.000599135
0.000598059
0.000597016
0.000596006
0.000595029
0.000594083
0.00059317
0.000592287
0.000591435
0.000590614
0.000589823
0.000589062
0.00058833
0.000587628
0.000586955
0.000586311
0.000585695
0.000585107
0.000584546
0.000584011
0.000583502
0.000583017
0.000582556
0.000582119
0.000581704
0.000581312
0.00058094
0.000580588
0.000580253
0.000579935
0.000579631
0.00057934
0.000579061
0.000578793
0.000578536
0.000578288
0.000578048
0.000577815
0.000577589
0.000577369
0.000577156
0.000576947
0.000576744
0.000576546
0.000576352
0.000576162
0.000575976
0.000575792
0.000575611
0.000575432
0.000575255
0.00057508
0.000574906
0.000574734
0.000574562
0.000574391
0.000574219
0.000574046
0.00057387
0.000573693
0.000573512
0.000573327
0.000573139
0.000572936
0.000572705
0.000572453
0.000572185
0.000571903
0.000571612
0.000571313
0.000571007
0.000570695
0.000570379
0.000570061
0.000569741
0.00056942
0.000569101
0.000568783
0.000568468
0.000568157
0.000567851
0.00056755
0.000567255
0.000566967
0.000566687
0.000566415
0.000566153
0.0005659
0.000565657
0.000565426
0.000565204
0.000564994
0.000564795
0.000564606
0.000564427
0.000564259
0.000564102
0.000563955
0.000563817
0.00056369
0.000563571
0.000563462
0.000563361
0.000563269
0.000563185
0.00056311
0.000563043
0.000562984
0.000562934
0.000562892
0.000562857
0.000562829
0.000562807
0.000562791
0.000562782
0.000562777
0.000562778
0.000562784
0.000562794
0.00056281
0.000562831
0.000562859
0.000562893
0.000562934
0.000562983
0.00056304
0.000563105
0.00056318
0.000563265
0.000563358
0.00056346
0.00056357
0.000563685
0.000563804
0.000563923
0.00056404
0.000564152
0.000564255
0.000564347
0.000564425
0.000564487
0.00056453
0.000564552
0.00056455
0.000564523
0.00056447
0.000564389
0.000564282
0.000564147
0.000563988
0.000563806
0.000563601
0.000563378
0.000563137
0.00056288
0.00056261
0.000562328
0.000562035
0.000561734
0.000561425
0.000561109
0.000560786
0.000560456
0.000560119
0.000559775
0.000559423
0.000559064
0.000558697
0.000558322
0.000557941
0.000557553
0.000557158
0.000556757
0.00055635
0.000555937
0.000555518
0.000555095
0.000554668
0.000554238
0.000553805
0.00055337
0.000552934
0.000552496
0.000552057
0.000551618
0.00055118
0.000550741
0.000550302
0.000549862
0.000549419
0.000548974
0.000548526
0.000548074
0.000547619
0.00054716
0.000546697
0.00054623
0.000545759
0.000545284
0.000544805
0.000544322
0.000543835
0.000543345
0.000542852
0.000542357
0.000541862
0.000541368
0.000540876
0.000540389
0.000539908
0.000539435
0.000538971
0.000538518
0.000538076
0.000537646
0.000537229
0.000536825
0.000536435
0.000536057
0.000535691
0.000535335
0.000534987
0.000534646
0.000534308
0.000533973
0.000533638
0.000533303
0.000532967
0.00053263
0.00053229
0.000531949
0.000531605
0.00053126
0.000530914
0.000530569
0.000530225
0.000529884
0.000529548
0.000529218
0.000528895
0.000528581
0.000528276
0.000527981
0.000527697
0.000527423
0.000527161
0.000526909
0.000526668
0.000526437
0.000526217
0.000526005
0.000525803
0.000525608
0.000525421
0.000525239
0.000525061
0.000524887
0.000524714
0.00052454
0.000524364
0.000524183
0.000523996
0.000523801
0.000523594
0.000523376
0.000523143
0.000522896
0.000522633
0.000522353
0.000522057
0.000521744
0.000521415
0.00052107
0.000520711
0.00052034
0.00051996
0.000519571
0.000519178
0.000518782
0.000518386
0.00051799
0.000517596
0.000517205
0.000516817
0.000516432
0.000516049
0.000515667
0.000515284
0.0005149
0.000514512
0.00051412
0.000513722
0.000513317
0.000512906
0.000512487
0.00051206
0.000511626
0.000511185
0.000510737
0.000510282
0.00050982
0.000509351
0.000508874
0.000508391
0.0005079
0.000507402
0.000506897
0.000506386
0.000505869
0.000505348
0.000504824
0.000504298
0.000503771
0.000503245
0.00050272
0.000502197
0.000501677
0.000501159
0.000500645
0.000500134
0.000499624
0.000499115
0.000498604
0.000498091
0.000497574
0.000497052
0.000496524
0.000495988
0.000495446
0.000494898
0.000494345
0.000493786
0.000493226
0.000492666
0.000492108
0.000491556
0.000491013
0.000490482
0.000489965
0.000489461
0.000488975
0.000488502
0.000488048
0.000487607
0.000487184
0.000486774
0.000486382
0.000486
0.000485632
0.000485269
0.000484916
0.000484561
0.000484213
0.000483858
0.000483506
0.000483144
0.000482784
0.000482412
0.000482044
0.000481665
0.000481297
0.000480919
0.000480556
0.000480183
0.000479828
0.00047946
0.000479114
0.000478749
0.000478406
0.000478037
0.00047769
0.000477309
0.000476953
0.000476557
0.000476193
0.000475787
0.000475424
0.000475016
0.000474663
0.000474262
0.000473927
0.000473542
0.000473234
0.000472877
0.000472609
0.000472292
0.000472078
0.000471797
0.000471639
0.000471372
0.00047127
0.000470965
0.00047093
0.000470499
0.000470611
0.000469924
0.000470176
0.000469044
0.000468619
0.000465053
0.000461138
0.000446272
0.000415055
0.000371973
0.000290294
0.00014552
0.000173355
0.000111244
0.00011178
0.000112764
0.000113763
0.000114847
0.000115925
0.000117094
0.000118242
0.000119387
0.000120477
0.000121561
0.000122461
0.000123272
0.000123974
0.000124642
0.000125311
0.000126035
0.000126873
0.000127874
0.00012908
0.000130565
0.000132417
0.00013465
0.000137286
0.000140379
0.000144015
0.000148304
0.000153295
0.000159049
0.000165661
0.000173217
0.000181772
0.000191388
0.000201509
0.000211827
0.000222317
0.000232955
0.000243715
0.00025457
0.000265493
0.000276447
0.000287397
0.000298329
0.000309228
0.00032009
0.000330908
0.000341519
0.000351884
0.000362004
0.00037188
0.000381509
0.000390883
0.000399991
0.000408819
0.000417353
0.000425576
0.000433475
0.00044104
0.000448266
0.000455155
0.000461713
0.000467949
0.000473897
0.000479568
0.000484971
0.000490115
0.000495008
0.00049966
0.000504076
0.000508263
0.000512224
0.000515966
0.00051949
0.000522804
0.000525916
0.00052883
0.000531555
0.000534097
0.000536464
0.000538665
0.00054071
0.000542604
0.000544354
0.000545967
0.000547449
0.000548803
0.000550036
0.00055115
0.00055215
0.000553041
0.000553825
0.000554518
0.000555123
0.000555638
0.000556067
0.0005564
0.000556598
0.000556681
0.000556664
0.000556556
0.000556364
0.000556098
0.000555765
0.000555372
0.000554924
0.000554428
0.000553887
0.000553307
0.000552691
0.000552043
0.000551368
0.000550672
0.000549955
0.000549219
0.000548468
0.000547707
0.000546938
0.000546163
0.000545384
0.000544603
0.00054382
0.000543039
0.00054226
0.000541484
0.000540713
0.000539946
0.000539187
0.000538434
0.00053769
0.000536956
0.000536233
0.000535523
0.000534829
0.000534153
0.000533496
0.000532861
0.00053225
0.000531664
0.000531105
0.000530575
0.000530074
0.000529602
0.000529162
0.000528754
0.000528377
0.000528032
0.000527718
0.000527436
0.000527183
0.000526961
0.000526767
0.000526603
0.000526467
0.000526359
0.000526278
0.000526224
0.000526198
0.000526198
0.000526224
0.000526277
0.000526356
0.00052646
0.000526588
0.000526739
0.000526912
0.000527106
0.00052732
0.000527553
0.000527804
0.000528072
0.000528356
0.000528653
0.000528962
0.000529281
0.000529607
0.00052994
0.000530279
0.000530621
0.000530967
0.000531315
0.000531664
0.000532013
0.000532363
0.000532711
0.000533059
0.000533406
0.000533752
0.000534098
0.000534441
0.000534783
0.000535123
0.000535459
0.000535793
0.000536122
0.000536447
0.000536769
0.000537086
0.000537398
0.000537705
0.000538006
0.000538301
0.000538588
0.000538867
0.000539137
0.000539398
0.000539648
0.000539886
0.000540108
0.000540315
0.000540504
0.000540676
0.000540831
0.000540969
0.000541091
0.000541198
0.00054129
0.00054137
0.000541438
0.000541496
0.000541547
0.000541592
0.000541632
0.000541671
0.000541709
0.000541749
0.000541792
0.000541839
0.000541893
0.000541953
0.000542022
0.000542101
0.000542189
0.000542289
0.0005424
0.000542523
0.000542657
0.000542803
0.000542961
0.000543131
0.000543312
0.000543506
0.00054371
0.000543926
0.000544153
0.000544391
0.000544638
0.000544895
0.000545162
0.000545437
0.000545721
0.000546013
0.000546313
0.000546621
0.000546936
0.000547257
0.000547584
0.000547917
0.000548254
0.000548597
0.000548943
0.000549294
0.000549649
0.000550008
0.000550372
0.000550742
0.000551118
0.000551502
0.000551895
0.000552298
0.000552711
0.000553134
0.000553568
0.000554012
0.000554465
0.000554925
0.000555388
0.000555853
0.000556314
0.000556767
0.000557208
0.000557632
0.000558035
0.000558412
0.00055876
0.000559075
0.000559354
0.000559594
0.000559793
0.00055995
0.000560063
0.000560134
0.000560163
0.000560152
0.000560104
0.000560021
0.000559907
0.000559765
0.000559598
0.000559409
0.000559201
0.000558977
0.000558737
0.000558485
0.000558221
0.000557945
0.000557657
0.000557358
0.000557048
0.000556725
0.000556389
0.000556041
0.00055568
0.000555308
0.000554923
0.000554527
0.00055412
0.000553703
0.000553276
0.00055284
0.000552396
0.000551944
0.000551487
0.000551024
0.000550558
0.000550088
0.000549616
0.000549143
0.000548667
0.000548191
0.000547714
0.000547234
0.000546752
0.000546267
0.000545777
0.000545281
0.00054478
0.000544272
0.000543758
0.000543237
0.000542709
0.000542173
0.00054163
0.00054108
0.000540521
0.000539956
0.000539384
0.000538806
0.000538224
0.00053764
0.000537057
0.000536476
0.000535901
0.000535335
0.00053478
0.000534239
0.000533715
0.000533208
0.000532721
0.000532255
0.00053181
0.000531385
0.000530981
0.000530596
0.000530228
0.000529873
0.000529531
0.000529197
0.000528869
0.000528544
0.00052822
0.000527896
0.000527569
0.00052724
0.000526908
0.000526573
0.000526235
0.000525898
0.000525561
0.000525228
0.000524899
0.000524579
0.000524268
0.000523969
0.000523683
0.000523411
0.000523154
0.000522913
0.000522688
0.000522479
0.000522285
0.000522107
0.000521943
0.000521792
0.000521655
0.000521529
0.000521414
0.000521308
0.000521209
0.000521116
0.000521026
0.000520936
0.000520843
0.000520745
0.000520639
0.00052052
0.000520388
0.000520237
0.000520067
0.000519875
0.000519659
0.000519418
0.000519151
0.000518858
0.000518539
0.000518196
0.000517828
0.00051744
0.000517033
0.000516611
0.000516178
0.000515736
0.000515291
0.000514845
0.0005144
0.000513959
0.000513522
0.00051309
0.000512662
0.000512237
0.000511812
0.000511385
0.000510955
0.000510518
0.000510073
0.000509618
0.000509152
0.000508675
0.000508186
0.000507686
0.000507174
0.000506651
0.000506118
0.000505573
0.000505017
0.00050445
0.000503871
0.00050328
0.000502677
0.000502063
0.000501438
0.000500803
0.000500159
0.000499509
0.000498855
0.000498199
0.000497542
0.000496888
0.000496236
0.000495588
0.000494946
0.000494309
0.000493678
0.00049305
0.000492426
0.000491802
0.000491177
0.000490549
0.000489914
0.000489272
0.000488621
0.00048796
0.000487288
0.000486607
0.000485919
0.000485225
0.000484529
0.000483834
0.000483144
0.000482463
0.000481795
0.000481146
0.000480517
0.000479911
0.000479331
0.000478778
0.000478251
0.000477751
0.000477278
0.000476831
0.000476407
0.000476004
0.000475617
0.000475244
0.000474878
0.000474517
0.000474154
0.00047379
0.000473419
0.000473042
0.000472655
0.000472263
0.000471861
0.000471456
0.000471046
0.000470638
0.000470229
0.000469826
0.000469425
0.000469033
0.000468643
0.000468261
0.000467881
0.000467505
0.000467123
0.00046674
0.000466345
0.000465944
0.00046553
0.000465109
0.00046468
0.000464249
0.00046382
0.000463401
0.000462998
0.000462617
0.000462267
0.000461952
0.00046168
0.000461453
0.000461277
0.000461149
0.000461071
0.000461039
0.000461059
0.000461135
0.000461296
0.000461568
0.000462044
0.000462792
0.000464044
0.000465973
0.000468662
0.000471803
0.000475443
0.000477955
0.00046823
0.000454909
0.000414456
0.000273848
0.000214008
0.000111079
0.000111341
0.000111852
0.000112385
0.00011289
0.000113305
0.000113499
0.000113575
0.000113534
0.000113405
0.000113193
0.000112901
0.000112535
0.000112101
0.000111606
0.000111061
0.000110481
0.00010988
0.000109248
0.000108612
0.000107982
0.000107375
0.000106809
0.000106306
0.000105885
0.000105566
0.000105368
0.000105311
0.000105421
0.000105726
0.000106254
0.000107031
0.00010809
0.000109443
0.000111095
0.00011305
0.00011531
0.000117883
0.00012078
0.000124013
0.000127604
0.000131579
0.000135973
0.000140835
0.000146209
0.000152141
0.000158451
0.00016494
0.000171607
0.000178447
0.000185459
0.000192636
0.000199972
0.000207459
0.000215083
0.000222829
0.000230675
0.000238587
0.000246536
0.000254495
0.000262441
0.000270348
0.000278132
0.000285777
0.00029328
0.000300642
0.000307859
0.000314931
0.000321851
0.000328612
0.000335205
0.000341628
0.000347874
0.000353943
0.000359834
0.000365549
0.000371087
0.000376447
0.00038163
0.000386641
0.000391479
0.000396144
0.000400635
0.000404952
0.000409092
0.000413057
0.000416846
0.00042046
0.0004239
0.00042717
0.000430279
0.000433174
0.000435873
0.000438398
0.00044077
0.000442998
0.000445086
0.000447034
0.000448846
0.000450532
0.0004521
0.000453563
0.00045493
0.00045621
0.000457407
0.000458527
0.000459574
0.000460553
0.000461466
0.000462317
0.00046311
0.000463852
0.000464542
0.000465185
0.000465788
0.000466355
0.00046689
0.000467395
0.000467872
0.000468323
0.00046875
0.000469155
0.00046954
0.000469905
0.000470253
0.000470583
0.000470898
0.000471197
0.000471484
0.00047176
0.000472028
0.000472291
0.000472552
0.000472814
0.000473081
0.000473357
0.000473645
0.000473947
0.000474266
0.000474606
0.000474967
0.000475351
0.00047576
0.000476194
0.000476654
0.000477141
0.000477653
0.000478191
0.000478753
0.000479339
0.000479947
0.000480579
0.000481231
0.000481905
0.000482599
0.000483312
0.000484045
0.000484796
0.000485566
0.000486355
0.000487162
0.000487986
0.000488826
0.000489682
0.000490553
0.000491436
0.000492331
0.000493238
0.000494154
0.000495078
0.00049601
0.000496946
0.000497886
0.000498827
0.000499767
0.000500705
0.000501639
0.000502569
0.000503493
0.00050441
0.00050532
0.000506222
0.000507115
0.000507999
0.000508874
0.000509741
0.000510599
0.000511449
0.00051229
0.000513124
0.000513949
0.000514764
0.000515571
0.000516368
0.000517155
0.000517931
0.000518698
0.000519454
0.000520199
0.000520933
0.000521655
0.000522365
0.00052306
0.000523741
0.000524405
0.000525053
0.000525682
0.000526292
0.000526882
0.00052745
0.000527995
0.000528519
0.00052902
0.000529499
0.000529957
0.000530395
0.000530814
0.000531216
0.000531603
0.000531978
0.000532344
0.000532701
0.000533055
0.000533407
0.000533759
0.000534114
0.000534473
0.00053484
0.000535215
0.0005356
0.000535996
0.000536404
0.000536825
0.000537259
0.000537707
0.000538168
0.000538643
0.000539132
0.000539634
0.00054015
0.000540679
0.000541222
0.000541779
0.000542348
0.000542929
0.000543522
0.000544125
0.000544739
0.000545361
0.000545992
0.000546631
0.000547277
0.00054793
0.000548588
0.000549251
0.000549918
0.000550589
0.000551263
0.00055194
0.000552618
0.000553299
0.000553981
0.000554666
0.000555355
0.000556048
0.000556748
0.000557455
0.000558171
0.000558898
0.000559636
0.000560384
0.000561144
0.000561913
0.000562689
0.00056347
0.000564251
0.000565027
0.000565793
0.000566543
0.000567272
0.000567973
0.00056864
0.000569269
0.000569854
0.000570391
0.000570876
0.000571306
0.000571679
0.000571993
0.000572249
0.000572446
0.000572588
0.000572676
0.000572715
0.000572707
0.000572659
0.000572574
0.000572457
0.000572311
0.000572141
0.00057195
0.000571739
0.000571513
0.00057127
0.000571013
0.00057074
0.000570453
0.000570151
0.000569833
0.000569499
0.00056915
0.000568784
0.000568404
0.000568008
0.000567598
0.000567174
0.000566736
0.000566286
0.000565823
0.00056535
0.000564867
0.000564376
0.000563879
0.000563377
0.000562871
0.000562362
0.000561851
0.000561339
0.000560825
0.000560309
0.000559792
0.000559271
0.000558746
0.000558216
0.000557679
0.000557134
0.00055658
0.000556018
0.000555446
0.000554864
0.000554271
0.000553667
0.00055305
0.000552422
0.000551781
0.00055113
0.000550469
0.0005498
0.000549127
0.000548452
0.000547779
0.000547113
0.000546457
0.000545816
0.000545194
0.000544593
0.000544017
0.000543467
0.000542945
0.000542453
0.00054199
0.000541555
0.000541148
0.000540766
0.000540405
0.000540063
0.000539735
0.000539418
0.000539108
0.000538801
0.000538494
0.000538186
0.000537875
0.00053756
0.000537242
0.000536921
0.000536599
0.000536278
0.000535962
0.000535653
0.000535353
0.000535065
0.000534793
0.000534536
0.000534297
0.000534077
0.000533876
0.000533694
0.00053353
0.000533383
0.000533254
0.00053314
0.000533041
0.000532955
0.000532882
0.000532819
0.000532765
0.000532717
0.000532673
0.00053263
0.000532585
0.000532533
0.000532471
0.000532395
0.000532301
0.000532186
0.000532046
0.000531878
0.00053168
0.000531449
0.000531185
0.000530886
0.000530552
0.000530183
0.000529782
0.000529349
0.000528889
0.000528405
0.000527902
0.000527384
0.000526857
0.000526325
0.000525793
0.000525264
0.000524741
0.000524224
0.000523714
0.000523209
0.000522707
0.000522206
0.000521703
0.000521193
0.000520675
0.000520146
0.000519605
0.000519049
0.000518479
0.000517894
0.000517295
0.000516682
0.000516054
0.000515413
0.000514756
0.000514084
0.000513396
0.000512691
0.000511969
0.00051123
0.000510474
0.000509703
0.000508919
0.000508124
0.000507321
0.000506513
0.000505703
0.000504895
0.000504091
0.000503293
0.000502504
0.000501723
0.000500952
0.00050019
0.000499436
0.000498687
0.000497939
0.000497191
0.000496439
0.000495678
0.000494906
0.000494122
0.000493323
0.000492511
0.000491685
0.00049085
0.000490007
0.000489162
0.000488318
0.000487482
0.000486658
0.000485853
0.000485071
0.000484318
0.000483597
0.00048291
0.000482261
0.00048165
0.000481079
0.000480545
0.000480049
0.000479585
0.000479152
0.000478742
0.00047835
0.000477968
0.000477592
0.000477212
0.000476827
0.000476431
0.000476026
0.000475605
0.000475174
0.000474727
0.000474275
0.000473812
0.000473349
0.000472881
0.00047242
0.000471959
0.000471511
0.000471064
0.000470633
0.000470202
0.000469783
0.000469356
0.000468932
0.000468491
0.000468043
0.000467571
0.000467091
0.000466588
0.000466085
0.00046557
0.000465072
0.000464587
0.00046414
0.000463731
0.000463381
0.000463089
0.000462871
0.000462722
0.000462647
0.000462639
0.000462702
0.000462833
0.000463046
0.000463374
0.000463859
0.000464632
0.000465816
0.000467758
0.000470724
0.000474538
0.000479135
0.000484823
0.000493237
0.000492502
0.000492332
0.000484666
0.000385382
0.000267466
0.000111103
0.000111351
0.000111815
0.000112308
0.00011275
0.000113116
0.000113358
0.000113498
0.00011347
0.000113344
0.000113125
0.000112841
0.000112501
0.000112111
0.000111676
0.0001112
0.000110688
0.000110145
0.000109573
0.000108976
0.000108359
0.000107729
0.000107091
0.000106449
0.000105809
0.000105176
0.000104555
0.000103953
0.000103378
0.000102837
0.000102333
0.000101875
0.000101472
0.000101132
0.000100861
0.000100668
0.000100562
0.000100549
0.000100644
0.000100854
0.000101198
0.000101701
0.000102365
0.000103192
0.000104187
0.000105365
0.000106733
0.00010829
0.000110038
0.000111983
0.000114133
0.000116493
0.00011907
0.000121873
0.00012491
0.000128191
0.000131724
0.000135525
0.0001396
0.000143952
0.000148577
0.000153473
0.000158616
0.000163994
0.000169597
0.000175418
0.000181445
0.000187668
0.000193972
0.000200317
0.000206701
0.000213118
0.000219561
0.000226024
0.000232498
0.000238978
0.000245451
0.000251908
0.000258337
0.000264729
0.000271072
0.000277354
0.000283564
0.000289688
0.000295717
0.000301646
0.000307458
0.00031314
0.00031868
0.000324073
0.000329335
0.000334436
0.000339365
0.000344118
0.000348693
0.00035309
0.000357313
0.000361342
0.000365198
0.000368899
0.000372453
0.000375873
0.000379164
0.00038232
0.000385339
0.000388225
0.000390979
0.000393608
0.000396116
0.00039851
0.000400796
0.000402978
0.000405065
0.000407072
0.000409003
0.000410865
0.000412662
0.000414399
0.00041608
0.000417708
0.000419284
0.00042081
0.000422288
0.000423719
0.000425106
0.000426448
0.000427749
0.00042901
0.000430235
0.000431429
0.000432594
0.000433737
0.000434863
0.000435977
0.000437084
0.000438189
0.000439299
0.000440416
0.000441545
0.000442689
0.000443852
0.000445035
0.000446239
0.000447467
0.000448718
0.000449992
0.000451288
0.000452604
0.000453939
0.000455292
0.000456661
0.000458045
0.000459442
0.000460851
0.000462271
0.0004637
0.000465138
0.000466584
0.000468038
0.000469498
0.000470963
0.000472434
0.00047391
0.000475389
0.00047687
0.000478353
0.000479837
0.000481319
0.0004828
0.000484278
0.000485751
0.000487219
0.000488678
0.000490128
0.000491566
0.000492992
0.000494404
0.000495801
0.000497184
0.00049855
0.000499899
0.000501231
0.000502546
0.000503843
0.000505123
0.000506386
0.000507633
0.000508865
0.000510082
0.000511284
0.000512472
0.000513646
0.000514805
0.000515949
0.000517079
0.000518193
0.000519293
0.000520377
0.000521446
0.000522499
0.000523535
0.000524554
0.000525554
0.000526534
0.000527493
0.000528429
0.000529342
0.000530231
0.000531095
0.000531933
0.000532745
0.000533531
0.000534292
0.000535028
0.00053574
0.00053643
0.0005371
0.000537753
0.00053839
0.000539015
0.000539632
0.000540242
0.000540851
0.00054146
0.000542073
0.000542692
0.000543321
0.00054396
0.000544612
0.000545277
0.000545958
0.000546655
0.000547368
0.000548098
0.000548845
0.000549608
0.000550387
0.000551184
0.000551996
0.000552825
0.00055367
0.000554531
0.000555408
0.000556299
0.000557204
0.000558122
0.000559051
0.000559991
0.000560939
0.000561895
0.000562858