/*--------------------------------*- C++ -*----------------------------------*\
| =========                 |                                                 |
| \\      /  F ield         | foam-extend: Open Source CFD                    |
|  \\    /   O peration     | Version:     3.2                                |
|   \\  /    A nd           | Web:         http://www.foam-extend.org         |
|    \\/     M anipulation  | For copyright notice see file Copyright         |
\*---------------------------------------------------------------------------*/
FoamFile
{
    version     2.0;
    format      ascii;
    class       volScalarField;
    location    "200";
    object      nut;
}
// * * * * * * * * * * * * * * * * * * * * * * * * * * * * * * * * * * * * * //

dimensions      [0 2 -1 0 0 0 0];

internalField   nonuniform List<scalar> 
33000
(
6.20268e-06
7.46266e-06
8.74459e-06
1.00187e-05
1.1254e-05
1.24212e-05
1.34974e-05
1.4464e-05
1.53103e-05
1.60316e-05
1.66291e-05
1.71086e-05
1.74791e-05
1.77511e-05
1.7936e-05
1.80457e-05
1.80917e-05
1.80849e-05
1.79341e-05
1.7251e-05
1.6603e-05
1.59951e-05
1.54305e-05
1.49093e-05
1.44325e-05
1.40002e-05
1.36126e-05
1.32659e-05
1.29504e-05
1.26627e-05
1.24012e-05
1.21639e-05
1.19485e-05
1.17534e-05
1.15778e-05
1.14201e-05
1.12792e-05
1.11536e-05
1.10424e-05
1.09443e-05
1.08589e-05
1.07841e-05
1.072e-05
1.06647e-05
1.06182e-05
1.05786e-05
1.05467e-05
1.0522e-05
1.05041e-05
1.04925e-05
1.04867e-05
1.04859e-05
1.04899e-05
1.04979e-05
1.05098e-05
1.05248e-05
1.05429e-05
1.05634e-05
1.05861e-05
1.06106e-05
1.06367e-05
1.06642e-05
1.06927e-05
1.07222e-05
1.07524e-05
1.07834e-05
1.08149e-05
1.08472e-05
1.08799e-05
1.09132e-05
1.09468e-05
1.09806e-05
1.10144e-05
1.10482e-05
1.10813e-05
1.11141e-05
1.11458e-05
1.11772e-05
1.12072e-05
1.12363e-05
1.12642e-05
1.12912e-05
1.13172e-05
1.13424e-05
1.13666e-05
1.13901e-05
1.14129e-05
1.1435e-05
1.14564e-05
1.14768e-05
1.14965e-05
1.15155e-05
1.1534e-05
1.15518e-05
1.15696e-05
1.15866e-05
1.16045e-05
1.16224e-05
1.16403e-05
1.16585e-05
1.16766e-05
1.16947e-05
1.17127e-05
1.17306e-05
1.17481e-05
1.17655e-05
1.17825e-05
1.17991e-05
1.18153e-05
1.18309e-05
1.18462e-05
1.18605e-05
1.18741e-05
1.18874e-05
1.19e-05
1.19119e-05
1.19233e-05
1.1934e-05
1.19442e-05
1.19537e-05
1.19626e-05
1.19708e-05
1.19784e-05
1.19854e-05
1.19917e-05
1.19975e-05
1.20026e-05
1.20072e-05
1.20113e-05
1.20149e-05
1.20179e-05
1.20205e-05
1.20226e-05
1.20243e-05
1.20255e-05
1.20263e-05
1.20267e-05
1.20267e-05
1.20263e-05
1.20256e-05
1.20246e-05
1.20233e-05
1.20217e-05
1.20199e-05
1.20177e-05
1.20154e-05
1.20129e-05
1.20101e-05
1.20073e-05
1.20044e-05
1.20013e-05
1.19982e-05
1.19951e-05
1.1992e-05
1.19889e-05
1.19858e-05
1.19827e-05
1.19797e-05
1.19768e-05
1.19739e-05
1.19712e-05
1.19686e-05
1.19662e-05
1.1964e-05
1.1962e-05
1.19603e-05
1.19589e-05
1.19577e-05
1.19567e-05
1.1956e-05
1.19555e-05
1.19552e-05
1.19553e-05
1.19556e-05
1.19562e-05
1.19572e-05
1.19584e-05
1.196e-05
1.19618e-05
1.19639e-05
1.19662e-05
1.19689e-05
1.19719e-05
1.19752e-05
1.19787e-05
1.19825e-05
1.19866e-05
1.19909e-05
1.19954e-05
1.20002e-05
1.20053e-05
1.20106e-05
1.20161e-05
1.20218e-05
1.20277e-05
1.20337e-05
1.20398e-05
1.20461e-05
1.20524e-05
1.20588e-05
1.20652e-05
1.20717e-05
1.20782e-05
1.20847e-05
1.20912e-05
1.20977e-05
1.21039e-05
1.21095e-05
1.21144e-05
1.21187e-05
1.21225e-05
1.21256e-05
1.21283e-05
1.21306e-05
1.21325e-05
1.21341e-05
1.21354e-05
1.21364e-05
1.21371e-05
1.21377e-05
1.2138e-05
1.21382e-05
1.21382e-05
1.21381e-05
1.21379e-05
1.21375e-05
1.21372e-05
1.21368e-05
1.21363e-05
1.21359e-05
1.21354e-05
1.2135e-05
1.21346e-05
1.21342e-05
1.21338e-05
1.21335e-05
1.21332e-05
1.2133e-05
1.21328e-05
1.21326e-05
1.21325e-05
1.21325e-05
1.21325e-05
1.21326e-05
1.21328e-05
1.21331e-05
1.21335e-05
1.2134e-05
1.21346e-05
1.21353e-05
1.21361e-05
1.21369e-05
1.21379e-05
1.21389e-05
1.214e-05
1.21412e-05
1.21425e-05
1.2144e-05
1.21455e-05
1.21472e-05
1.21489e-05
1.21509e-05
1.2153e-05
1.21552e-05
1.21576e-05
1.21601e-05
1.21628e-05
1.21657e-05
1.21688e-05
1.2172e-05
1.21755e-05
1.21792e-05
1.2183e-05
1.21871e-05
1.21913e-05
1.21956e-05
1.22001e-05
1.22048e-05
1.22095e-05
1.22144e-05
1.22193e-05
1.22242e-05
1.22292e-05
1.22341e-05
1.22389e-05
1.22435e-05
1.2248e-05
1.22523e-05
1.22564e-05
1.22602e-05
1.22639e-05
1.22673e-05
1.22706e-05
1.22736e-05
1.22764e-05
1.2279e-05
1.22813e-05
1.22835e-05
1.22855e-05
1.22872e-05
1.22888e-05
1.22902e-05
1.22915e-05
1.22925e-05
1.22934e-05
1.22941e-05
1.22946e-05
1.2295e-05
1.22951e-05
1.22951e-05
1.22949e-05
1.22945e-05
1.22938e-05
1.2293e-05
1.22918e-05
1.22905e-05
1.22889e-05
1.22871e-05
1.2285e-05
1.22828e-05
1.22804e-05
1.22779e-05
1.22751e-05
1.22723e-05
1.22694e-05
1.22663e-05
1.22632e-05
1.226e-05
1.22567e-05
1.22533e-05
1.22497e-05
1.2246e-05
1.22421e-05
1.2238e-05
1.22337e-05
1.22293e-05
1.22247e-05
1.22199e-05
1.22149e-05
1.22096e-05
1.22042e-05
1.21985e-05
1.21927e-05
1.21867e-05
1.21805e-05
1.21741e-05
1.21677e-05
1.21611e-05
1.21545e-05
1.21479e-05
1.21413e-05
1.21348e-05
1.21282e-05
1.21218e-05
1.21154e-05
1.21091e-05
1.21031e-05
1.20972e-05
1.20914e-05
1.20858e-05
1.20804e-05
1.2075e-05
1.20697e-05
1.20644e-05
1.20592e-05
1.20539e-05
1.20486e-05
1.20432e-05
1.20378e-05
1.20324e-05
1.20269e-05
1.20212e-05
1.20154e-05
1.20095e-05
1.20036e-05
1.19975e-05
1.19914e-05
1.19853e-05
1.19792e-05
1.19731e-05
1.1967e-05
1.19611e-05
1.19552e-05
1.19494e-05
1.19438e-05
1.19384e-05
1.19331e-05
1.19279e-05
1.1923e-05
1.19183e-05
1.19138e-05
1.19095e-05
1.19054e-05
1.19015e-05
1.18978e-05
1.18943e-05
1.18911e-05
1.1888e-05
1.1885e-05
1.18822e-05
1.18795e-05
1.18769e-05
1.18744e-05
1.18719e-05
1.18693e-05
1.18667e-05
1.1864e-05
1.18612e-05
1.18583e-05
1.18553e-05
1.18521e-05
1.18488e-05
1.18453e-05
1.18417e-05
1.1838e-05
1.18342e-05
1.18304e-05
1.18266e-05
1.18228e-05
1.1819e-05
1.18153e-05
1.18117e-05
1.18081e-05
1.18047e-05
1.18014e-05
1.17981e-05
1.1795e-05
1.17919e-05
1.17888e-05
1.17858e-05
1.17827e-05
1.17795e-05
1.17762e-05
1.17728e-05
1.17691e-05
1.17652e-05
1.17611e-05
1.17567e-05
1.17521e-05
1.17472e-05
1.1742e-05
1.17367e-05
1.17311e-05
1.17253e-05
1.17193e-05
1.17132e-05
1.1707e-05
1.17005e-05
1.1694e-05
1.16874e-05
1.16807e-05
1.16739e-05
1.16671e-05
1.16602e-05
1.16533e-05
1.16463e-05
1.16393e-05
1.16323e-05
1.16252e-05
1.1618e-05
1.16108e-05
1.16035e-05
1.1596e-05
1.15884e-05
1.15806e-05
1.15726e-05
1.15644e-05
1.1556e-05
1.15474e-05
1.15386e-05
1.15297e-05
1.15205e-05
1.15113e-05
1.15018e-05
1.14924e-05
1.14829e-05
1.14736e-05
1.14643e-05
1.14552e-05
1.14461e-05
1.14373e-05
1.14283e-05
1.14199e-05
1.14112e-05
1.14032e-05
1.13948e-05
1.13873e-05
1.13795e-05
1.13725e-05
1.13649e-05
1.13582e-05
1.13508e-05
1.13444e-05
1.13368e-05
1.13306e-05
1.13228e-05
1.13167e-05
1.13086e-05
1.13025e-05
1.12943e-05
1.12884e-05
1.128e-05
1.12746e-05
1.1266e-05
1.12608e-05
1.12518e-05
1.12469e-05
1.12374e-05
1.12328e-05
1.12228e-05
1.12185e-05
1.12079e-05
1.12039e-05
1.11927e-05
1.11894e-05
1.11777e-05
1.11753e-05
1.11629e-05
1.11613e-05
1.11479e-05
1.11469e-05
1.11322e-05
1.11319e-05
1.11158e-05
1.1116e-05
1.10984e-05
1.10987e-05
1.10789e-05
1.10782e-05
1.1053e-05
1.10479e-05
1.10091e-05
1.09932e-05
1.09239e-05
1.08854e-05
1.07511e-05
1.06669e-05
1.04014e-05
1.02227e-05
9.68906e-06
9.34431e-06
8.36653e-06
7.74885e-06
6.50436e-06
6.06984e-06
4.64133e-06
6.0418e-06
3.70344e-06
3.94981e-06
2.40896e-05
5.07465e-05
3.05537e-05
2.20891e-05
1.76281e-05
1.49764e-05
1.33119e-05
1.22496e-05
1.15587e-05
1.11222e-05
1.08601e-05
1.07241e-05
1.06768e-05
1.06934e-05
1.07595e-05
1.08704e-05
1.10212e-05
1.12117e-05
1.14508e-05
1.17444e-05
1.20908e-05
1.25033e-05
1.29895e-05
1.35135e-05
1.40873e-05
1.4722e-05
1.54256e-05
1.61983e-05
1.68082e-05
1.72001e-05
1.75926e-05
1.79825e-05
1.8368e-05
1.87481e-05
1.91224e-05
1.94901e-05
1.98508e-05
2.02038e-05
2.05491e-05
2.08864e-05
2.12163e-05
2.15385e-05
2.18537e-05
2.21618e-05
2.24634e-05
2.27582e-05
2.30472e-05
2.33313e-05
2.36108e-05
2.38858e-05
2.41557e-05
2.44206e-05
2.46798e-05
2.49332e-05
2.51805e-05
2.54216e-05
2.56562e-05
2.58849e-05
2.61069e-05
2.6323e-05
2.65331e-05
2.6738e-05
2.69368e-05
2.71307e-05
2.73201e-05
2.75045e-05
2.76843e-05
2.7859e-05
2.80289e-05
2.81939e-05
2.83542e-05
2.85097e-05
2.86606e-05
2.88069e-05
2.89487e-05
2.90851e-05
2.92171e-05
2.93439e-05
2.94666e-05
2.95838e-05
2.96962e-05
2.98035e-05
2.99065e-05
3.00045e-05
3.00989e-05
3.01885e-05
3.0275e-05
3.03576e-05
3.04375e-05
3.05137e-05
3.05873e-05
3.06573e-05
3.07264e-05
3.0794e-05
3.08604e-05
3.09253e-05
3.09886e-05
3.10507e-05
3.11103e-05
3.11674e-05
3.12223e-05
3.12747e-05
3.13246e-05
3.13719e-05
3.14168e-05
3.14591e-05
3.14991e-05
3.15366e-05
3.15719e-05
3.16047e-05
3.16352e-05
3.16639e-05
3.16895e-05
3.17129e-05
3.17351e-05
3.1755e-05
3.17728e-05
3.1789e-05
3.18034e-05
3.18163e-05
3.18275e-05
3.18372e-05
3.18453e-05
3.18521e-05
3.18576e-05
3.18618e-05
3.18649e-05
3.1867e-05
3.18681e-05
3.18683e-05
3.18678e-05
3.18666e-05
3.18649e-05
3.18627e-05
3.18602e-05
3.18574e-05
3.18544e-05
3.18513e-05
3.18481e-05
3.1845e-05
3.1842e-05
3.18391e-05
3.18366e-05
3.18343e-05
3.18324e-05
3.18309e-05
3.18299e-05
3.18293e-05
3.18294e-05
3.183e-05
3.18313e-05
3.18333e-05
3.1836e-05
3.18396e-05
3.18439e-05
3.18492e-05
3.18553e-05
3.18624e-05
3.18704e-05
3.18794e-05
3.18893e-05
3.19002e-05
3.19122e-05
3.19252e-05
3.19394e-05
3.19546e-05
3.1971e-05
3.19886e-05
3.20072e-05
3.20269e-05
3.20474e-05
3.20689e-05
3.20912e-05
3.21143e-05
3.21382e-05
3.21628e-05
3.21881e-05
3.22141e-05
3.22406e-05
3.22676e-05
3.22951e-05
3.23231e-05
3.23515e-05
3.23803e-05
3.24094e-05
3.2439e-05
3.24688e-05
3.2499e-05
3.25294e-05
3.256e-05
3.25908e-05
3.26218e-05
3.2653e-05
3.26845e-05
3.27161e-05
3.27478e-05
3.27796e-05
3.28114e-05
3.28432e-05
3.28749e-05
3.29064e-05
3.29376e-05
3.29685e-05
3.29992e-05
3.30294e-05
3.30592e-05
3.30886e-05
3.31121e-05
3.3124e-05
3.31345e-05
3.31438e-05
3.31522e-05
3.31597e-05
3.31666e-05
3.31727e-05
3.31784e-05
3.31835e-05
3.31882e-05
3.31926e-05
3.31967e-05
3.32005e-05
3.32042e-05
3.32078e-05
3.32114e-05
3.32149e-05
3.32186e-05
3.32223e-05
3.32262e-05
3.32304e-05
3.32348e-05
3.32395e-05
3.32445e-05
3.325e-05
3.32559e-05
3.32622e-05
3.32689e-05
3.32761e-05
3.32837e-05
3.32917e-05
3.33001e-05
3.3309e-05
3.33183e-05
3.33281e-05
3.33382e-05
3.33487e-05
3.33596e-05
3.33709e-05
3.33826e-05
3.33947e-05
3.34072e-05
3.34201e-05
3.34334e-05
3.3447e-05
3.34609e-05
3.34751e-05
3.34896e-05
3.35043e-05
3.35192e-05
3.35344e-05
3.35498e-05
3.35655e-05
3.35813e-05
3.35974e-05
3.36138e-05
3.36304e-05
3.36473e-05
3.36645e-05
3.36821e-05
3.37e-05
3.37184e-05
3.37372e-05
3.37565e-05
3.37762e-05
3.37965e-05
3.38172e-05
3.38383e-05
3.38596e-05
3.3881e-05
3.39023e-05
3.39233e-05
3.3944e-05
3.3964e-05
3.39832e-05
3.40016e-05
3.40188e-05
3.40348e-05
3.40494e-05
3.40624e-05
3.40739e-05
3.40836e-05
3.40915e-05
3.40978e-05
3.41024e-05
3.41055e-05
3.41072e-05
3.41076e-05
3.41068e-05
3.41049e-05
3.4102e-05
3.40983e-05
3.40939e-05
3.40888e-05
3.40831e-05
3.40769e-05
3.40702e-05
3.4063e-05
3.40554e-05
3.40473e-05
3.40387e-05
3.40296e-05
3.40199e-05
3.40097e-05
3.39989e-05
3.39876e-05
3.39759e-05
3.39635e-05
3.39507e-05
3.39374e-05
3.39237e-05
3.39095e-05
3.38949e-05
3.38801e-05
3.38649e-05
3.38495e-05
3.38338e-05
3.3818e-05
3.38021e-05
3.37861e-05
3.37701e-05
3.3754e-05
3.37379e-05
3.37217e-05
3.37052e-05
3.36886e-05
3.36716e-05
3.36543e-05
3.36367e-05
3.36188e-05
3.36004e-05
3.35818e-05
3.35627e-05
3.35434e-05
3.35236e-05
3.35035e-05
3.3483e-05
3.34622e-05
3.34412e-05
3.34199e-05
3.33985e-05
3.33771e-05
3.33558e-05
3.33347e-05
3.33139e-05
3.32936e-05
3.32738e-05
3.32545e-05
3.3236e-05
3.32182e-05
3.32012e-05
3.31852e-05
3.31699e-05
3.31556e-05
3.31419e-05
3.3129e-05
3.31165e-05
3.31045e-05
3.30927e-05
3.30809e-05
3.30692e-05
3.30575e-05
3.30456e-05
3.30336e-05
3.30214e-05
3.3009e-05
3.29963e-05
3.29834e-05
3.29703e-05
3.29571e-05
3.29438e-05
3.29307e-05
3.29178e-05
3.29052e-05
3.2893e-05
3.28813e-05
3.28701e-05
3.28597e-05
3.28499e-05
3.28409e-05
3.28326e-05
3.28251e-05
3.28184e-05
3.28124e-05
3.28073e-05
3.28028e-05
3.2799e-05
3.27958e-05
3.27931e-05
3.2791e-05
3.27892e-05
3.27878e-05
3.27867e-05
3.27857e-05
3.27847e-05
3.27836e-05
3.27822e-05
3.27804e-05
3.27781e-05
3.27751e-05
3.27713e-05
3.27666e-05
3.2761e-05
3.27543e-05
3.27466e-05
3.27378e-05
3.2728e-05
3.27172e-05
3.27054e-05
3.26929e-05
3.26797e-05
3.2666e-05
3.26519e-05
3.26376e-05
3.26232e-05
3.26087e-05
3.25944e-05
3.25803e-05
3.25663e-05
3.25525e-05
3.25389e-05
3.25253e-05
3.25117e-05
3.2498e-05
3.24841e-05
3.24697e-05
3.2455e-05
3.24397e-05
3.24237e-05
3.24072e-05
3.23899e-05
3.23721e-05
3.23535e-05
3.23344e-05
3.23147e-05
3.22945e-05
3.22737e-05
3.22526e-05
3.22309e-05
3.22089e-05
3.21864e-05
3.21634e-05
3.21401e-05
3.21164e-05
3.20925e-05
3.20683e-05
3.2044e-05
3.20197e-05
3.19954e-05
3.19711e-05
3.19469e-05
3.19229e-05
3.18991e-05
3.18754e-05
3.18518e-05
3.18284e-05
3.18049e-05
3.17813e-05
3.17576e-05
3.17335e-05
3.1709e-05
3.1684e-05
3.16585e-05
3.16325e-05
3.16061e-05
3.15791e-05
3.15519e-05
3.15243e-05
3.14968e-05
3.14693e-05
3.14421e-05
3.14154e-05
3.13895e-05
3.13645e-05
3.13404e-05
3.13172e-05
3.12952e-05
3.12741e-05
3.12541e-05
3.1235e-05
3.12172e-05
3.12003e-05
3.11846e-05
3.11696e-05
3.11554e-05
3.11415e-05
3.11281e-05
3.11145e-05
3.1101e-05
3.1087e-05
3.10729e-05
3.10582e-05
3.10433e-05
3.10278e-05
3.10124e-05
3.09965e-05
3.0981e-05
3.09652e-05
3.09499e-05
3.09342e-05
3.09192e-05
3.09036e-05
3.08887e-05
3.08731e-05
3.08581e-05
3.08421e-05
3.08268e-05
3.08101e-05
3.07944e-05
3.07774e-05
3.07616e-05
3.07442e-05
3.07285e-05
3.0711e-05
3.06954e-05
3.06776e-05
3.06622e-05
3.06442e-05
3.06288e-05
3.06103e-05
3.0594e-05
3.05734e-05
3.05529e-05
3.05231e-05
3.04889e-05
3.04346e-05
3.03668e-05
3.02568e-05
3.0115e-05
2.98862e-05
2.95918e-05
2.91243e-05
2.83838e-05
2.7653e-05
2.57766e-05
2.4478e-05
2.18087e-05
2.03989e-05
1.67589e-05
1.34988e-05
1.47789e-05
1.21067e-05
2.11642e-05
0.000145612
0.000109321
8.29241e-05
6.55617e-05
5.34917e-05
4.49417e-05
3.76014e-05
3.18791e-05
2.75345e-05
2.42455e-05
2.17027e-05
1.97015e-05
1.81058e-05
1.6817e-05
1.57692e-05
1.4913e-05
1.421e-05
1.36329e-05
1.31628e-05
1.27843e-05
1.24873e-05
1.22674e-05
1.21245e-05
1.20585e-05
1.20679e-05
1.21501e-05
1.23028e-05
1.25191e-05
1.27925e-05
1.31194e-05
1.34979e-05
1.39277e-05
1.44097e-05
1.49186e-05
1.5441e-05
1.59763e-05
1.65244e-05
1.70853e-05
1.76593e-05
1.82468e-05
1.88481e-05
1.94635e-05
2.00945e-05
2.07426e-05
2.14099e-05
2.20984e-05
2.26732e-05
2.32205e-05
2.37681e-05
2.4317e-05
2.48665e-05
2.54172e-05
2.59675e-05
2.65179e-05
2.70661e-05
2.76123e-05
2.81537e-05
2.86907e-05
2.92218e-05
2.97474e-05
3.02661e-05
3.07783e-05
3.12844e-05
3.17841e-05
3.22769e-05
3.27624e-05
3.32405e-05
3.37107e-05
3.41729e-05
3.46269e-05
3.50728e-05
3.55103e-05
3.59398e-05
3.63607e-05
3.67737e-05
3.71793e-05
3.75779e-05
3.79693e-05
3.83534e-05
3.87309e-05
3.91025e-05
3.94679e-05
3.98276e-05
4.01815e-05
4.05297e-05
4.08737e-05
4.12119e-05
4.15462e-05
4.18746e-05
4.21998e-05
4.25214e-05
4.28423e-05
4.31573e-05
4.3471e-05
4.37781e-05
4.40702e-05
4.42988e-05
4.45192e-05
4.47317e-05
4.49365e-05
4.5134e-05
4.53246e-05
4.55085e-05
4.5686e-05
4.58573e-05
4.60226e-05
4.61822e-05
4.63361e-05
4.64846e-05
4.66279e-05
4.67663e-05
4.68997e-05
4.70282e-05
4.71519e-05
4.72714e-05
4.73867e-05
4.74981e-05
4.76057e-05
4.77098e-05
4.78104e-05
4.79076e-05
4.80017e-05
4.80926e-05
4.81805e-05
4.82656e-05
4.83479e-05
4.84275e-05
4.85047e-05
4.85796e-05
4.86523e-05
4.87232e-05
4.87924e-05
4.88602e-05
4.89269e-05
4.89927e-05
4.90579e-05
4.91227e-05
4.91874e-05
4.92522e-05
4.93172e-05
4.93825e-05
4.94485e-05
4.95152e-05
4.95827e-05
4.96512e-05
4.97206e-05
4.97911e-05
4.98625e-05
4.99349e-05
5.00085e-05
5.0083e-05
5.01587e-05
5.02354e-05
5.03133e-05
5.03923e-05
5.04724e-05
5.05538e-05
5.06364e-05
5.07202e-05
5.08053e-05
5.08917e-05
5.09793e-05
5.10682e-05
5.11581e-05
5.12492e-05
5.13415e-05
5.14349e-05
5.15294e-05
5.1625e-05
5.17216e-05
5.18189e-05
5.19168e-05
5.20151e-05
5.21136e-05
5.22121e-05
5.23107e-05
5.24091e-05
5.25073e-05
5.26053e-05
5.27029e-05
5.27999e-05
5.28964e-05
5.29923e-05
5.30875e-05
5.3182e-05
5.3276e-05
5.33692e-05
5.34617e-05
5.35535e-05
5.36445e-05
5.37345e-05
5.38237e-05
5.39118e-05
5.39991e-05
5.40854e-05
5.41708e-05
5.42554e-05
5.43391e-05
5.44218e-05
5.45035e-05
5.45841e-05
5.46634e-05
5.47413e-05
5.48178e-05
5.48927e-05
5.4966e-05
5.50376e-05
5.51077e-05
5.51759e-05
5.52422e-05
5.53066e-05
5.5369e-05
5.54295e-05
5.54879e-05
5.55444e-05
5.55991e-05
5.56521e-05
5.57036e-05
5.57537e-05
5.58026e-05
5.58504e-05
5.58974e-05
5.59438e-05
5.59897e-05
5.60353e-05
5.60808e-05
5.61263e-05
5.61721e-05
5.62182e-05
5.62648e-05
5.63121e-05
5.63602e-05
5.64091e-05
5.64589e-05
5.65096e-05
5.65612e-05
5.66138e-05
5.66674e-05
5.6722e-05
5.67776e-05
5.68341e-05
5.68917e-05
5.69502e-05
5.70097e-05
5.70701e-05
5.71314e-05
5.71936e-05
5.72566e-05
5.73206e-05
5.73854e-05
5.7451e-05
5.75174e-05
5.75844e-05
5.76521e-05
5.77202e-05
5.77888e-05
5.78579e-05
5.79274e-05
5.79972e-05
5.80675e-05
5.81382e-05
5.82094e-05
5.8281e-05
5.83532e-05
5.8426e-05
5.84995e-05
5.85739e-05
5.86493e-05
5.87257e-05
5.88033e-05
5.8882e-05
5.8962e-05
5.90432e-05
5.91255e-05
5.92085e-05
5.92921e-05
5.93758e-05
5.94591e-05
5.95415e-05
5.96226e-05
5.97018e-05
5.97786e-05
5.98527e-05
5.99235e-05
5.99906e-05
6.00537e-05
6.01123e-05
6.01663e-05
6.02153e-05
6.02594e-05
6.02985e-05
6.03329e-05
6.03627e-05
6.03883e-05
6.04101e-05
6.04283e-05
6.04433e-05
6.04555e-05
6.04651e-05
6.04725e-05
6.04779e-05
6.04815e-05
6.04835e-05
6.04841e-05
6.04833e-05
6.0481e-05
6.04773e-05
6.04721e-05
6.04654e-05
6.0457e-05
6.04471e-05
6.04356e-05
6.04225e-05
6.04079e-05
6.03917e-05
6.0374e-05
6.03548e-05
6.03342e-05
6.03122e-05
6.0289e-05
6.02647e-05
6.02393e-05
6.02131e-05
6.01861e-05
6.01585e-05
6.01304e-05
6.01018e-05
6.0073e-05
6.00439e-05
6.00144e-05
5.99846e-05
5.99541e-05
5.9923e-05
5.9891e-05
5.9858e-05
5.9824e-05
5.97889e-05
5.97527e-05
5.97154e-05
5.96768e-05
5.9637e-05
5.95959e-05
5.95535e-05
5.95098e-05
5.94649e-05
5.94188e-05
5.93718e-05
5.93241e-05
5.92758e-05
5.92275e-05
5.91793e-05
5.91317e-05
5.9085e-05
5.90395e-05
5.89956e-05
5.89534e-05
5.89133e-05
5.88754e-05
5.88399e-05
5.88069e-05
5.87764e-05
5.87482e-05
5.87221e-05
5.86978e-05
5.86749e-05
5.86531e-05
5.8632e-05
5.86112e-05
5.85906e-05
5.85698e-05
5.85487e-05
5.85272e-05
5.85051e-05
5.84823e-05
5.84588e-05
5.84348e-05
5.84105e-05
5.8386e-05
5.83616e-05
5.83377e-05
5.83146e-05
5.82925e-05
5.82716e-05
5.82523e-05
5.82347e-05
5.82189e-05
5.8205e-05
5.8193e-05
5.81831e-05
5.81752e-05
5.81693e-05
5.81653e-05
5.81631e-05
5.81627e-05
5.81639e-05
5.81666e-05
5.81705e-05
5.81756e-05
5.81815e-05
5.8188e-05
5.81949e-05
5.82017e-05
5.82081e-05
5.82137e-05
5.82181e-05
5.82209e-05
5.82218e-05
5.82205e-05
5.82166e-05
5.82101e-05
5.82006e-05
5.81881e-05
5.81725e-05
5.81539e-05
5.81324e-05
5.81082e-05
5.80816e-05
5.80531e-05
5.8023e-05
5.79917e-05
5.79598e-05
5.79276e-05
5.78954e-05
5.78636e-05
5.78324e-05
5.78018e-05
5.77719e-05
5.77425e-05
5.77136e-05
5.76847e-05
5.76557e-05
5.76262e-05
5.75958e-05
5.75644e-05
5.75315e-05
5.74971e-05
5.74611e-05
5.74233e-05
5.73837e-05
5.73423e-05
5.72992e-05
5.72543e-05
5.72078e-05
5.71596e-05
5.71099e-05
5.70585e-05
5.70056e-05
5.69511e-05
5.68952e-05
5.68378e-05
5.67792e-05
5.67196e-05
5.66593e-05
5.65985e-05
5.65375e-05
5.64765e-05
5.64156e-05
5.63551e-05
5.62951e-05
5.62356e-05
5.61766e-05
5.61182e-05
5.60601e-05
5.60021e-05
5.59438e-05
5.58851e-05
5.58256e-05
5.57649e-05
5.57028e-05
5.56392e-05
5.5574e-05
5.55073e-05
5.54392e-05
5.53699e-05
5.52998e-05
5.52293e-05
5.51588e-05
5.5089e-05
5.50204e-05
5.49536e-05
5.48891e-05
5.48272e-05
5.47681e-05
5.4712e-05
5.4659e-05
5.46091e-05
5.45625e-05
5.45193e-05
5.44793e-05
5.44423e-05
5.4408e-05
5.43759e-05
5.43454e-05
5.43157e-05
5.42863e-05
5.42567e-05
5.42265e-05
5.41953e-05
5.41631e-05
5.41294e-05
5.40948e-05
5.40591e-05
5.40229e-05
5.39862e-05
5.39496e-05
5.39128e-05
5.38764e-05
5.38401e-05
5.38043e-05
5.37685e-05
5.37332e-05
5.36977e-05
5.36623e-05
5.36261e-05
5.35895e-05
5.35519e-05
5.35137e-05
5.34747e-05
5.3435e-05
5.33948e-05
5.33541e-05
5.33134e-05
5.32727e-05
5.32329e-05
5.31936e-05
5.31561e-05
5.31192e-05
5.30834e-05
5.30468e-05
5.30071e-05
5.29591e-05
5.28972e-05
5.28096e-05
5.26852e-05
5.25002e-05
5.22317e-05
5.18328e-05
5.12582e-05
5.04143e-05
4.92279e-05
4.75428e-05
4.52159e-05
4.19197e-05
3.66574e-05
3.07068e-05
2.54223e-05
1.90154e-05
1.76817e-05
2.00416e-05
2.95964e-05
0.000181665
0.000126292
8.80724e-05
8.78717e-05
9.49503e-05
0.000103855
9.10534e-05
8.0422e-05
7.14121e-05
6.39406e-05
5.76894e-05
5.24416e-05
4.79853e-05
4.42084e-05
4.09796e-05
3.81903e-05
3.57557e-05
3.36196e-05
3.17412e-05
3.00842e-05
2.86151e-05
2.7301e-05
2.60995e-05
2.49678e-05
2.38899e-05
2.28751e-05
2.19367e-05
2.10829e-05
2.03162e-05
1.96346e-05
1.9033e-05
1.8506e-05
1.80488e-05
1.76592e-05
1.73356e-05
1.70756e-05
1.68765e-05
1.67358e-05
1.66517e-05
1.66231e-05
1.66568e-05
1.67628e-05
1.69375e-05
1.71743e-05
1.74698e-05
1.78236e-05
1.82219e-05
1.86506e-05
1.91096e-05
1.95981e-05
2.01156e-05
2.06607e-05
2.1232e-05
2.18275e-05
2.24453e-05
2.30831e-05
2.37387e-05
2.44096e-05
2.50944e-05
2.57922e-05
2.65024e-05
2.72245e-05
2.78348e-05
2.84309e-05
2.90344e-05
2.96454e-05
3.02652e-05
3.08938e-05
3.15317e-05
3.21782e-05
3.2834e-05
3.34988e-05
3.41742e-05
3.48585e-05
3.55539e-05
3.62612e-05
3.69834e-05
3.7718e-05
3.84646e-05
3.92228e-05
3.99939e-05
4.07748e-05
4.15661e-05
4.2363e-05
4.31671e-05
4.39735e-05
4.47795e-05
4.55852e-05
4.63885e-05
4.71918e-05
4.79932e-05
4.8624e-05
4.92175e-05
4.98007e-05
5.03744e-05
5.09382e-05
5.14922e-05
5.20356e-05
5.25677e-05
5.30884e-05
5.35978e-05
5.40962e-05
5.45836e-05
5.50601e-05
5.55256e-05
5.598e-05
5.64232e-05
5.68553e-05
5.72762e-05
5.7686e-05
5.80852e-05
5.84737e-05
5.88514e-05
5.92188e-05
5.95767e-05
5.99254e-05
6.02652e-05
6.05964e-05
6.09193e-05
6.12341e-05
6.15409e-05
6.18401e-05
6.21316e-05
6.24157e-05
6.26925e-05
6.29621e-05
6.32248e-05
6.34807e-05
6.37301e-05
6.39735e-05
6.42113e-05
6.4444e-05
6.46721e-05
6.48964e-05
6.51173e-05
6.53355e-05
6.55515e-05
6.5766e-05
6.59792e-05
6.61917e-05
6.64039e-05
6.66162e-05
6.68289e-05
6.70421e-05
6.72562e-05
6.74712e-05
6.7687e-05
6.79038e-05
6.81214e-05
6.83399e-05
6.85592e-05
6.87793e-05
6.90001e-05
6.92217e-05
6.94439e-05
6.96669e-05
6.98905e-05
7.01149e-05
7.034e-05
7.05659e-05
7.07925e-05
7.10197e-05
7.12475e-05
7.14757e-05
7.17044e-05
7.19334e-05
7.21628e-05
7.23925e-05
7.26225e-05
7.28525e-05
7.30824e-05
7.33118e-05
7.35404e-05
7.37679e-05
7.3994e-05
7.42187e-05
7.44417e-05
7.46631e-05
7.48826e-05
7.51001e-05
7.53155e-05
7.55286e-05
7.57395e-05
7.5948e-05
7.61543e-05
7.63585e-05
7.65605e-05
7.67603e-05
7.6958e-05
7.71535e-05
7.73467e-05
7.75375e-05
7.77261e-05
7.79123e-05
7.80964e-05
7.82783e-05
7.84582e-05
7.8636e-05
7.88117e-05
7.89852e-05
7.91563e-05
7.93248e-05
7.94905e-05
7.96532e-05
7.98128e-05
7.99691e-05
8.0122e-05
8.02715e-05
8.04175e-05
8.05599e-05
8.06987e-05
8.08337e-05
8.0965e-05
8.10926e-05
8.12165e-05
8.13371e-05
8.14544e-05
8.15688e-05
8.16807e-05
8.17903e-05
8.18981e-05
8.20045e-05
8.21098e-05
8.22145e-05
8.2319e-05
8.24236e-05
8.25286e-05
8.26343e-05
8.2741e-05
8.2849e-05
8.29585e-05
8.30697e-05
8.31827e-05
8.32976e-05
8.34144e-05
8.35331e-05
8.36539e-05
8.37766e-05
8.39013e-05
8.4028e-05
8.41568e-05
8.42875e-05
8.44201e-05
8.45546e-05
8.46909e-05
8.48289e-05
8.49685e-05
8.51096e-05
8.52522e-05
8.53962e-05
8.55414e-05
8.56878e-05
8.58352e-05
8.59835e-05
8.61323e-05
8.62818e-05
8.64317e-05
8.6582e-05
8.67327e-05
8.68838e-05
8.70353e-05
8.71872e-05
8.73396e-05
8.74928e-05
8.76469e-05
8.78021e-05
8.79588e-05
8.81172e-05
8.82774e-05
8.84396e-05
8.86038e-05
8.87702e-05
8.89384e-05
8.91082e-05
8.92791e-05
8.94504e-05
8.96212e-05
8.97906e-05
8.99575e-05
9.01212e-05
9.02805e-05
9.04345e-05
9.05825e-05
9.07236e-05
9.0857e-05
9.09822e-05
9.10985e-05
9.12054e-05
9.13026e-05
9.13901e-05
9.14679e-05
9.15366e-05
9.15965e-05
9.16483e-05
9.16927e-05
9.17305e-05
9.17623e-05
9.17889e-05
9.18109e-05
9.18288e-05
9.18433e-05
9.18547e-05
9.18633e-05
9.18694e-05
9.1873e-05
9.18741e-05
9.18728e-05
9.18688e-05
9.18621e-05
9.18527e-05
9.18406e-05
9.18258e-05
9.18083e-05
9.17881e-05
9.17654e-05
9.174e-05
9.1712e-05
9.16816e-05
9.16488e-05
9.16138e-05
9.15768e-05
9.1538e-05
9.14978e-05
9.14562e-05
9.14135e-05
9.137e-05
9.13258e-05
9.12811e-05
9.12359e-05
9.11904e-05
9.11441e-05
9.1097e-05
9.10487e-05
9.0999e-05
9.09476e-05
9.08944e-05
9.08393e-05
9.07821e-05
9.07227e-05
9.0661e-05
9.05968e-05
9.05301e-05
9.04606e-05
9.03884e-05
9.03135e-05
9.02361e-05
9.01564e-05
9.00748e-05
8.9992e-05
8.99084e-05
8.98249e-05
8.97422e-05
8.9661e-05
8.95819e-05
8.95055e-05
8.94326e-05
8.93634e-05
8.92986e-05
8.92385e-05
8.91833e-05
8.9133e-05
8.90875e-05
8.90465e-05
8.90094e-05
8.89757e-05
8.89446e-05
8.89154e-05
8.88876e-05
8.88604e-05
8.88333e-05
8.8806e-05
8.8778e-05
8.8749e-05
8.87189e-05
8.86877e-05
8.86554e-05
8.86224e-05
8.85892e-05
8.85562e-05
8.8524e-05
8.8493e-05
8.84639e-05
8.8437e-05
8.84128e-05
8.83914e-05
8.83732e-05
8.83582e-05
8.83465e-05
8.83381e-05
8.83329e-05
8.83309e-05
8.83319e-05
8.83358e-05
8.83423e-05
8.83512e-05
8.83622e-05
8.83751e-05
8.83895e-05
8.84049e-05
8.84209e-05
8.84369e-05
8.84523e-05
8.84665e-05
8.84786e-05
8.8488e-05
8.84941e-05
8.84962e-05
8.84937e-05
8.84862e-05
8.84734e-05
8.84549e-05
8.84305e-05
8.84001e-05
8.83639e-05
8.83221e-05
8.8275e-05
8.82233e-05
8.81677e-05
8.81092e-05
8.80485e-05
8.79865e-05
8.79241e-05
8.78619e-05
8.78005e-05
8.77403e-05
8.76816e-05
8.76243e-05
8.75681e-05
8.75128e-05
8.74578e-05
8.74026e-05
8.73465e-05
8.72891e-05
8.72297e-05
8.71681e-05
8.7104e-05
8.7037e-05
8.69672e-05
8.68945e-05
8.68187e-05
8.674e-05
8.66581e-05
8.65731e-05
8.64849e-05
8.63935e-05
8.62987e-05
8.62006e-05
8.60992e-05
8.59946e-05
8.58869e-05
8.57767e-05
8.56645e-05
8.55507e-05
8.54361e-05
8.53211e-05
8.52063e-05
8.50921e-05
8.49789e-05
8.4867e-05
8.47566e-05
8.46477e-05
8.45402e-05
8.44337e-05
8.43278e-05
8.42219e-05
8.41152e-05
8.40071e-05
8.38969e-05
8.37841e-05
8.36682e-05
8.35492e-05
8.34272e-05
8.33023e-05
8.3175e-05
8.3046e-05
8.29159e-05
8.27859e-05
8.2657e-05
8.25303e-05
8.24069e-05
8.22878e-05
8.21736e-05
8.2065e-05
8.19623e-05
8.1866e-05
8.17761e-05
8.1693e-05
8.16166e-05
8.1547e-05
8.14836e-05
8.14259e-05
8.13724e-05
8.13223e-05
8.12739e-05
8.12262e-05
8.11778e-05
8.11281e-05
8.10762e-05
8.1022e-05
8.09648e-05
8.09051e-05
8.08428e-05
8.0779e-05
8.07136e-05
8.06479e-05
8.05814e-05
8.05153e-05
8.04492e-05
8.03842e-05
8.03195e-05
8.02562e-05
8.0193e-05
8.01305e-05
8.00667e-05
8.00024e-05
7.99357e-05
7.98675e-05
7.97963e-05
7.97235e-05
7.96478e-05
7.95711e-05
7.94929e-05
7.94155e-05
7.93395e-05
7.92664e-05
7.91976e-05
7.91332e-05
7.90733e-05
7.90169e-05
7.89596e-05
7.88954e-05
7.88147e-05
7.87026e-05
7.85405e-05
7.82982e-05
7.79387e-05
7.74029e-05
7.66168e-05
7.54613e-05
7.37952e-05
7.13932e-05
6.6162e-05
5.89172e-05
5.0483e-05
4.02325e-05
3.47444e-05
2.54625e-05
2.08174e-05
2.40057e-05
3.31466e-05
0.000188449
0.000115583
8.38501e-05
8.18627e-05
8.8732e-05
9.90645e-05
0.000116209
0.000133037
0.000123522
0.000115115
0.00010741
0.000100426
9.40893e-05
8.83826e-05
8.32406e-05
7.85916e-05
7.43682e-05
7.05224e-05
6.70204e-05
6.38257e-05
6.09085e-05
5.82334e-05
5.57429e-05
5.33767e-05
5.1109e-05
4.89443e-05
4.68956e-05
4.49711e-05
4.31747e-05
4.15065e-05
3.99605e-05
3.85294e-05
3.72041e-05
3.5977e-05
3.48415e-05
3.37928e-05
3.28261e-05
3.1937e-05
3.11224e-05
3.03766e-05
2.96584e-05
2.89054e-05
2.81288e-05
2.73706e-05
2.66616e-05
2.60179e-05
2.54481e-05
2.49559e-05
2.4541e-05
2.42013e-05
2.39344e-05
2.37374e-05
2.36074e-05
2.35421e-05
2.35395e-05
2.35975e-05
2.37147e-05
2.38905e-05
2.41239e-05
2.44136e-05
2.47585e-05
2.5158e-05
2.56101e-05
2.61137e-05
2.66686e-05
2.72746e-05
2.79315e-05
2.86393e-05
2.93887e-05
3.01771e-05
3.10047e-05
3.1871e-05
3.27757e-05
3.37178e-05
3.46964e-05
3.57105e-05
3.67586e-05
3.78396e-05
3.89519e-05
4.00936e-05
4.12623e-05
4.24552e-05
4.36683e-05
4.48973e-05
4.61367e-05
4.73812e-05
4.8624e-05
4.98585e-05
5.10781e-05
5.22781e-05
5.34557e-05
5.46072e-05
5.57305e-05
5.68249e-05
5.78908e-05
5.89288e-05
5.994e-05
6.09243e-05
6.18832e-05
6.28181e-05
6.373e-05
6.46197e-05
6.5488e-05
6.63336e-05
6.71561e-05
6.79558e-05
6.8733e-05
6.94883e-05
7.02224e-05
7.09361e-05
7.16304e-05
7.23055e-05
7.29621e-05
7.36023e-05
7.4227e-05
7.4837e-05
7.54328e-05
7.60151e-05
7.65843e-05
7.71406e-05
7.76842e-05
7.82151e-05
7.87332e-05
7.92388e-05
7.97319e-05
8.02126e-05
8.06812e-05
8.11381e-05
8.15838e-05
8.20192e-05
8.24451e-05
8.28626e-05
8.32727e-05
8.36766e-05
8.40754e-05
8.44701e-05
8.48618e-05
8.52516e-05
8.56401e-05
8.60282e-05
8.64165e-05
8.68057e-05
8.7196e-05
8.75879e-05
8.79814e-05
8.83765e-05
8.87729e-05
8.91705e-05
8.95691e-05
8.99684e-05
9.03681e-05
9.07681e-05
9.1168e-05
9.15677e-05
9.1967e-05
9.23657e-05
9.27637e-05
9.31609e-05
9.35573e-05
9.39526e-05
9.43469e-05
9.47399e-05
9.51315e-05
9.55215e-05
9.591e-05
9.62967e-05
9.66817e-05
9.7065e-05
9.74463e-05
9.78256e-05
9.82025e-05
9.85766e-05
9.89474e-05
9.93147e-05
9.96781e-05
0.000100038
0.000100393
0.000100744
0.000101091
0.000101433
0.000101771
0.000102104
0.000102432
0.000102756
0.000103075
0.000103389
0.000103699
0.000104006
0.000104308
0.000104606
0.0001049
0.00010519
0.000105476
0.000105758
0.000106036
0.000106311
0.000106582
0.00010685
0.000107115
0.000107375
0.000107632
0.000107885
0.000108133
0.000108376
0.000108615
0.000108848
0.000109076
0.000109299
0.000109516
0.000109727
0.000109933
0.000110134
0.000110328
0.000110518
0.000110702
0.000110882
0.000111058
0.000111229
0.000111398
0.000111564
0.000111728
0.000111891
0.000112054
0.000112217
0.00011238
0.000112545
0.000112712
0.000112881
0.000113053
0.000113228
0.000113406
0.000113587
0.000113772
0.000113961
0.000114153
0.000114348
0.000114547
0.00011475
0.000114956
0.000115166
0.000115379
0.000115595
0.000115815
0.000116037
0.000116263
0.000116491
0.000116722
0.000116954
0.000117189
0.000117426