/*--------------------------------*- C++ -*----------------------------------*\
| =========                 |                                                 |
| \\      /  F ield         | foam-extend: Open Source CFD                    |
|  \\    /   O peration     | Version:     3.2                                |
|   \\  /    A nd           | Web:         http://www.foam-extend.org         |
|    \\/     M anipulation  | For copyright notice see file Copyright         |
\*---------------------------------------------------------------------------*/
FoamFile
{
    version     2.0;
    format      ascii;
    class       volScalarField;
    location    "200";
    object      omega;
}
// * * * * * * * * * * * * * * * * * * * * * * * * * * * * * * * * * * * * * //

dimensions      [0 0 -1 0 0 0 0];

internalField   nonuniform List<scalar> 
33000
(
25.9847
29.2738
32.7474
36.3002
39.8203
43.2016
46.3577
49.219
51.7421
53.9033
55.7012
57.1479
58.2682
59.092
59.6527
59.9854
60.125
60.1045
59.9558
59.7142
59.3988
59.0263
58.6108
58.1651
57.7003
57.2263
56.7512
56.2837
55.829
55.3877
54.9608
54.5501
54.1567
53.7813
53.4243
53.0857
52.7653
52.4627
52.1776
51.9091
51.6568
51.4199
51.1976
50.989
50.7932
50.6095
50.4371
50.2753
50.1235
49.981
49.8471
49.7213
49.6029
49.4914
49.3864
49.2872
49.1934
49.1048
49.0207
48.9409
48.8651
48.7928
48.7238
48.6578
48.5945
48.5337
48.4753
48.4189
48.3644
48.3118
48.2609
48.2116
48.1638
48.1174
48.0723
48.0283
47.9854
47.9433
47.902
47.8615
47.8216
47.7822
47.7433
47.7048
47.6668
47.6292
47.592
47.5552
47.5189
47.4831
47.4476
47.4126
47.3779
47.3435
47.3095
47.2758
47.2425
47.2094
47.1766
47.144
47.1114
47.0787
47.0459
47.0129
46.9797
46.9463
46.9125
46.8784
46.8439
46.8091
46.7739
46.7383
46.7023
46.6658
46.6289
46.5916
46.554
46.516
46.4777
46.439
46.4002
46.361
46.3216
46.2821
46.2423
46.2023
46.1622
46.122
46.0817
46.0413
46.0009
45.9606
45.9202
45.88
45.8398
45.7998
45.76
45.7203
45.6809
45.6417
45.6028
45.5642
45.5259
45.488
45.4504
45.4132
45.3764
45.34
45.304
45.2684
45.2332
45.1985
45.1642
45.1304
45.0971
45.0642
45.0318
44.9998
44.9684
44.9374
44.9069
44.8769
44.8474
44.8185
44.79
44.7621
44.7347
44.7079
44.6816
44.6559
44.6307
44.606
44.5818
44.5582
44.535
44.5123
44.4901
44.4684
44.4471
44.4263
44.406
44.3861
44.3666
44.3476
44.329
44.3108
44.2929
44.2755
44.2585
44.2418
44.2254
44.2094
44.1936
44.1781
44.1629
44.148
44.1332
44.1187
44.1043
44.0902
44.0761
44.0623
44.0485
44.0348
44.0212
44.0077
43.9941
43.9805
43.9666
43.9526
43.9384
43.9239
43.9093
43.8946
43.8796
43.8646
43.8495
43.8343
43.819
43.8038
43.7885
43.7732
43.7579
43.7427
43.7276
43.7125
43.6976
43.6828
43.6681
43.6536
43.6392
43.6251
43.6111
43.5974
43.5839
43.5705
43.5574
43.5445
43.5319
43.5194
43.5072
43.4952
43.4834
43.4718
43.4605
43.4493
43.4384
43.4278
43.4174
43.4072
43.3972
43.3875
43.3781
43.3688
43.3598
43.351
43.3424
43.334
43.3259
43.3179
43.3102
43.3027
43.2955
43.2885
43.2818
43.2753
43.2692
43.2633
43.2578
43.2525
43.2476
43.243
43.2387
43.2347
43.2311
43.2277
43.2246
43.2217
43.219
43.2165
43.2141
43.2116
43.2092
43.2068
43.2042
43.2015
43.1985
43.1953
43.1918
43.188
43.1838
43.1793
43.1745
43.1694
43.1639
43.1582
43.1522
43.1459
43.1394
43.1327
43.1258
43.1187
43.1114
43.1039
43.0963
43.0884
43.0805
43.0723
43.064
43.0554
43.0467
43.0379
43.0288
43.0195
43.01
43.0002
42.9903
42.9802
42.9699
42.9594
42.9487
42.9379
42.927
42.9159
42.9048
42.8935
42.8821
42.8707
42.8592
42.8475
42.8358
42.824
42.812
42.7999
42.7876
42.7752
42.7625
42.7497
42.7367
42.7235
42.71
42.6964
42.6825
42.6685
42.6542
42.6398
42.6252
42.6105
42.5957
42.5807
42.5658
42.5508
42.5359
42.5211
42.5063
42.4917
42.4772
42.4629
42.4487
42.4348
42.4211
42.4075
42.3941
42.3808
42.3677
42.3545
42.3414
42.3283
42.3151
42.3019
42.2886
42.2752
42.2617
42.2481
42.2344
42.2206
42.2067
42.1928
42.1788
42.1648
42.1509
42.1369
42.1231
42.1093
42.0957
42.0822
42.0689
42.0557
42.0428
42.03
42.0175
42.0052
41.9931
41.9812
41.9696
41.9582
41.947
41.936
41.9252
41.9145
41.9039
41.8934
41.883
41.8726
41.8622
41.8518
41.8412
41.8305
41.8197
41.8087
41.7975
41.7861
41.7745
41.7627
41.7507
41.7386
41.7263
41.7139
41.7015
41.6891
41.6766
41.6643
41.652
41.6399
41.6278
41.6159
41.6042
41.5925
41.5809
41.5693
41.5578
41.5463
41.5346
41.5229
41.511
41.499
41.4867
41.4743
41.4615
41.4485
41.4353
41.4218
41.408
41.394
41.3797
41.3652
41.3505
41.3355
41.3204
41.3051
41.2896
41.274
41.2582
41.2424
41.2264
41.2104
41.1942
41.1781
41.1618
41.1456
41.1293
41.1129
41.0964
41.0798
41.0631
41.0463
41.0293
41.0121
40.9946
40.9769
40.959
40.9409
40.9225
40.904
40.8853
40.8665
40.8477
40.8288
40.81
40.7913
40.7728
40.7544
40.7363
40.7184
40.7007
40.6833
40.6661
40.6492
40.6326
40.6163
40.6002
40.5843
40.5686
40.553
40.5375
40.5221
40.5067
40.4914
40.476
40.4605
40.445
40.4296
40.4141
40.3986
40.3832
40.3678
40.3524
40.337
40.3215
40.306
40.2904
40.2747
40.2589
40.243
40.2269
40.2107
40.1944
40.1781
40.1617
40.1454
40.129
40.1126
40.0961
40.0796
40.0629
40.0461
40.0288
40.0111
39.9923
39.9724
39.9495
39.9233
39.8903
39.8494
39.7935
39.7199
39.6139
39.4686
39.2537
38.9485
38.4964
37.8334
36.8506
35.4453
33.4282
30.556
25.5752
19.9589
20.5172
5.93777
2.23292
3.8209
5.5244
7.30193
9.17273
11.0361
12.8471
14.5681
16.1961
17.6973
19.0556
20.2558
21.2943
22.1788
22.926
23.5498
24.0673
24.5034
24.874
25.184
25.4438
25.6491
25.7448
25.7488
25.6767
25.546
25.3805
25.2122
25.0707
24.9735
24.922
24.9026
24.9046
24.9194
24.9402
24.9616
24.9799
24.9923
24.997
24.993
24.9797
24.957
24.9253
24.8852
24.8376
24.7832
24.7239
24.6605
24.5933
24.5226
24.4483
24.3704
24.2886
24.2028
24.1131
24.0195
23.9223
23.8221
23.7201
23.617
23.5133
23.4098
23.3065
23.2038
23.1018
23.0006
22.9005
22.8015
22.7036
22.6069
22.5114
22.4173
22.3246
22.2333
22.1438
22.0561
21.9703
21.8861
21.8039
21.7235
21.6449
21.5681
21.4931
21.4195
21.3475
21.2769
21.2075
21.1392
21.0721
21.006
20.9411
20.877
20.8135
20.7506
20.6881
20.6262
20.5649
20.5044
20.4448
20.3861
20.3283
20.2713
20.2151
20.1596
20.1049
20.0508
19.9974
19.9447
19.8927
19.8414
19.7908
19.741
19.6921
19.6439
19.5963
19.5494
19.5032
19.4576
19.4128
19.3686
19.3252
19.2824
19.2404
19.199
19.1584
19.1185
19.0792
19.0406
19.0026
18.9653
18.9286
18.8925
18.8571
18.8222
18.7879
18.7543
18.7212
18.6887
18.6568
18.6254
18.5947
18.5645
18.5348
18.5057
18.4771
18.449
18.4215
18.3945
18.3679
18.3419
18.3163
18.2911
18.2664
18.2421
18.2182
18.1947
18.1716
18.1488
18.1264
18.1044
18.0827
18.0612
18.0401
18.0193
17.9987
17.9783
17.9581
17.9382
17.9184
17.8989
17.8796
17.8605
17.8417
17.823
17.8045
17.7862
17.7681
17.7501
17.7324
17.7148
17.6973
17.6801
17.663
17.6461
17.6293
17.6128
17.5964
17.5802
17.5642
17.5483
17.5326
17.5171
17.5018
17.4867
17.4717
17.4568
17.4421
17.4275
17.4131
17.3988
17.3847
17.3707
17.3568
17.3431
17.3296
17.3162
17.3029
17.2898
17.2767
17.2637
17.2509
17.2381
17.2256
17.2131
17.2008
17.1886
17.1766
17.1647
17.1529
17.1413
17.1298
17.1185
17.1073
17.0962
17.0853
17.0745
17.0638
17.0533
17.0429
17.0325
17.0223
17.0122
17.0023
16.9924
16.9826
16.973
16.9635
16.954
16.9447
16.9354
16.9263
16.9172
16.9082
16.8993
16.8905
16.8818
16.8731
16.8645
16.8559
16.8474
16.839
16.8307
16.8224
16.8142
16.8061
16.7981
16.7901
16.7822
16.7744
16.7666
16.7588
16.7511
16.7434
16.7358
16.7282
16.7207
16.7132
16.7057
16.6983
16.6909
16.6836
16.6764
16.6691
16.662
16.6548
16.6477
16.6407
16.6338
16.6269
16.6201
16.6133
16.6066
16.6
16.5934
16.5869
16.5804
16.574
16.5676
16.5614
16.5551
16.5489
16.5427
16.5366
16.5304
16.5242
16.5181
16.5119
16.5058
16.4996
16.4935
16.4874
16.4813
16.4752
16.4692
16.4632
16.4572
16.4512
16.4452
16.4393
16.4334
16.4276
16.4218
16.416
16.4103
16.4046
16.399
16.3934
16.3879
16.3824
16.3769
16.3715
16.3662
16.3608
16.3555
16.3503
16.345
16.3398
16.3345
16.3293
16.3241
16.3189
16.3138
16.3088
16.3038
16.2988
16.2939
16.2891
16.2843
16.2796
16.2749
16.2702
16.2657
16.2611
16.2567
16.2522
16.2478
16.2434
16.239
16.2345
16.2301
16.2256
16.2211
16.2166
16.212
16.2075
16.2029
16.1982
16.1935
16.1888
16.1841
16.1793
16.1746
16.1699
16.1652
16.1606
16.156
16.1515
16.1471
16.1427
16.1384
16.1341
16.1298
16.1256
16.1215
16.1174
16.1133
16.1093
16.1052
16.1012
16.0972
16.0932
16.0891
16.085
16.0809
16.0767
16.0725
16.0683
16.064
16.0597
16.0553
16.0509
16.0464
16.0418
16.0373
16.0326
16.028
16.0233
16.0186
16.0139
16.0091
16.0043
15.9995
15.9947
15.9899
15.985
15.9802
15.9754
15.9706
15.9658
15.961
15.9562
15.9514
15.9466
15.9418
15.937
15.9322
15.9273
15.9224
15.9175
15.9125
15.9074
15.9023
15.8971
15.892
15.8868
15.8816
15.8764
15.8712
15.8661
15.861
15.8559
15.8509
15.8459
15.841
15.8362
15.8315
15.8269
15.8224
15.818
15.8136
15.8093
15.8051
15.8009
15.7967
15.7926
15.7884
15.7842
15.78
15.7758
15.7715
15.7672
15.7629
15.7585
15.754
15.7496
15.7451
15.7406
15.7361
15.7315
15.727
15.7225
15.718
15.7135
15.709
15.7046
15.7003
15.6961
15.6919
15.6878
15.6837
15.6797
15.6757
15.6717
15.6677
15.6637
15.6596
15.6555
15.6512
15.6469
15.6426
15.6381
15.6336
15.6291
15.6246
15.62
15.6155
15.6109
15.6063
15.6016
15.5969
15.5921
15.5874
15.5827
15.5781
15.5735
15.5691
15.5646
15.5604
15.5561
15.552
15.5477
15.5436
15.5393
15.5352
15.5309
15.5269
15.5227
15.5188
15.5147
15.511
15.507
15.5034
15.4995
15.496
15.492
15.4883
15.484
15.4801
15.4756
15.4717
15.4673
15.4636
15.4595
15.4564
15.4529
15.4507
15.4483
15.4478
15.4478
15.4512
15.457
15.4692
15.488
15.5193
15.5656
15.6377
15.743
15.9034
16.1351
16.4795
16.9618
17.6655
18.5255
19.6846
20.7826
22.3457
23.1006
19.5478
12.0198
6.52161
0.763974
1.02249
1.35985
1.73521
2.14701
2.57945
3.11409
3.70909
4.3359
4.96904
5.60118
6.21582
6.80842
7.37193
7.90415
8.40277
8.86947
9.30633
9.71479
10.0968
10.4558
10.7942
11.1056
11.385
11.6324
11.8529
12.0545
12.2449
12.433
12.6272
12.8329
13.0512
13.2819
13.5072
13.7185
13.9154
14.0976
14.2646
14.4156
14.5501
14.6671
14.766
14.8463
14.9079
14.9506
14.9743
14.9802
14.9701
14.9463
14.9115
14.8683
14.8197
14.7684
14.7169
14.6671
14.6199
14.5763
14.5359
14.4975
14.4601
14.423
14.3857
14.3483
14.3107
14.2726
14.2341
14.1951
14.1555
14.1153
14.0744
14.0326
13.9897
13.9455
13.8998
13.8526
13.8039
13.7534
13.7011
13.6472
13.5919
13.5352
13.4774
13.4186
13.3592
13.2991
13.2386
13.1778
13.1166
13.0552
12.9936
12.9318
12.8701
12.8086
12.7473
12.6862
12.6253
12.5646
12.5043
12.4445
12.3854
12.3269
12.2692
12.2123
12.1563
12.1011
12.0469
11.9935
11.9412
11.8897
11.8393
11.7899
11.7415
11.6942
11.6479
11.6025
11.5582
11.5149
11.4726
11.4313
11.3909
11.3514
11.3129
11.2753
11.2386
11.2029
11.1679
11.1339
11.1007
11.0682
11.0366
11.0057
10.9756
10.9461
10.9174
10.8893
10.8619
10.8351
10.8089
10.7834
10.7584
10.734
10.7102
10.6869
10.6641
10.6418
10.62
10.5987
10.5778
10.5574
10.5374
10.5179
10.4987
10.48
10.4616
10.4436
10.426
10.4087
10.3917
10.375
10.3587
10.3427
10.3269
10.3115
10.2963
10.2814
10.2667
10.2522
10.2379
10.2238
10.2099
10.1962
10.1827
10.1694
10.1563
10.1434
10.1306
10.1181
10.1057
10.0934
10.0813
10.0694
10.0576
10.046
10.0346
10.0233
10.0121
10.0011
9.99028
9.97958
9.96903
9.95864
9.9484
9.93831
9.92836
9.91853
9.90882
9.89921
9.88971
9.88032
9.87103
9.86186
9.85281
9.84388
9.83508
9.8264
9.81785
9.80939
9.80097
9.79259
9.78425
9.77597
9.76775
9.7596
9.75152
9.74352
9.7356
9.72775
9.71998
9.71229
9.70469
9.69718
9.68976
9.68242
9.67517
9.66801
9.66093
9.65393
9.64702
9.64018
9.63341
9.62671
9.62008
9.6135
9.60699
9.60055
9.59416
9.58782
9.58154
9.57532
9.56914
9.56301
9.55693
9.55091
9.54492
9.53899
9.53308
9.52721
9.52137
9.51555
9.50975
9.50398
9.49823
9.49251
9.48684
9.4812
9.4756
9.47004
9.46451
9.45901
9.45353
9.44806
9.44261
9.43717
9.43174
9.42631
9.4209
9.41549
9.41009
9.4047
9.39932
9.39394
9.38855
9.38316
9.37777
9.37237
9.36698
9.3616
9.35624
9.3509
9.34558
9.34029
9.33502
9.32978
9.32456
9.31938
9.31423
9.30914
9.3041
9.29913
9.29421
9.28935
9.28454
9.27977
9.27503
9.27032
9.26564
9.26099
9.25636
9.25177
9.2472
9.24267
9.23816
9.23367
9.22921
9.22478
9.22037
9.21599
9.21164
9.20733
9.20305
9.1988
9.19459
9.19041
9.18627
9.18217
9.17813
9.17413
9.17019
9.1663
9.16246
9.15867
9.15493
9.15123
9.14759
9.14398
9.14041
9.13687
9.13335
9.12985
9.12637
9.12292
9.11951
9.11614
9.11283
9.10957
9.10637
9.10322
9.10013
9.0971
9.09413
9.09122
9.08838
9.0856
9.08289
9.08024
9.07765
9.07511
9.07261
9.07015
9.0677
9.06526
9.06283
9.06041
9.05799
9.05558
9.05316
9.05073
9.04829
9.04581
9.04332
9.04079
9.03825
9.03571
9.03317
9.03066
9.02818
9.02574
9.02334
9.02098
9.01864
9.01635
9.01409
9.01187
9.0097
9.00758
9.00551
9.00348
9.00149
8.99954
8.9976
8.99567
8.99375
8.99183
8.9899
8.98795
8.98599
8.98399
8.98197
8.97991
8.9778
8.97565
8.97344
8.97119
8.96889
8.96654
8.96415
8.96172
8.95925
8.95674
8.95418
8.95158
8.94894
8.94627
8.94358
8.94087
8.93815
8.93543
8.93272
8.93
8.9273
8.92461
8.92194
8.91929
8.91667
8.91405
8.91145
8.90884
8.90621
8.90356
8.90089
8.89818
8.89544
8.89267
8.88988
8.88705
8.8842
8.88132
8.87842
8.8755
8.87257
8.86964
8.86671
8.8638
8.86091
8.85806
8.85526
8.85251
8.84983
8.84722
8.84468
8.84221
8.83982
8.83748
8.8352
8.83297
8.83077
8.82861
8.82647
8.82435
8.82226
8.82018
8.8181
8.81602
8.81393
8.81183
8.80973
8.80762
8.80552
8.80341
8.8013
8.7992
8.7971
8.79503
8.79299
8.791
8.78905
8.78717
8.78536
8.78362
8.78196
8.78036
8.77881
8.77732
8.77587
8.77445
8.77305
8.77166
8.77025
8.7688
8.76731
8.76578
8.76421
8.76261
8.76099
8.75936
8.75771
8.75603
8.7543
8.75252
8.75068
8.74878
8.74684
8.74489
8.74293
8.741
8.73909
8.73723
8.73542
8.73366
8.73195
8.73028
8.72862
8.72697
8.72531
8.72367
8.72203
8.72044
8.71888
8.71739
8.71594
8.71457
8.71323
8.71198
8.71074
8.70954
8.70829
8.707
8.70562
8.7042
8.70272
8.70128
8.69989
8.69866
8.6976
8.69685
8.69641
8.69651
8.69726
8.69897
8.70218
8.70764
8.71636
8.73021
8.75122
8.7835
8.83173
8.90494
9.01405
9.17976
9.42644
9.80112
10.365
11.1868
12.416
14.1031
16.5169
19.0962
19.0339
13.6639
7.23086
0.611447
0.660726
0.735754
0.832535
0.952594
1.091
1.24651
1.41224
1.58985
1.7736
1.96211
2.15289
2.34521
2.53574
2.72345
2.9081
3.08988
3.26832
3.44185
3.61025
3.77359
3.93299
4.09236
4.25772
4.43222
4.6149
4.80326
4.99509
5.18902
5.38468
5.58261
5.78357
5.98876
6.1975
6.4085
6.62054
6.83258
7.04377
7.25334
7.46032
7.66077
7.84948
8.02793
8.20029
8.36924
8.53593
8.69563
8.84367
8.98014
9.10531
9.21965
9.32376
9.41843
9.50445
9.58257
9.65334
9.71724
9.7743
9.82434
9.86713
9.90253
9.9303
9.95044
9.96303
9.96819
9.96612
9.95704
9.94131
9.91945
9.89214
9.86007
9.82399
9.78464
9.74275
9.6991
9.65433
9.60893
9.56328
9.51768
9.47236
9.42737
9.38268
9.33811
9.29353
9.24865
9.20321
9.15693
9.10961
9.0611
9.01138
8.96051
8.90865
8.85606
8.80305
8.7499
8.69677
8.64376
8.59092
8.53843
8.48643
8.43504
8.38439
8.33456
8.28567
8.23777
8.19091
8.14513
8.10045
8.05686
8.01436
7.97295
7.93266
7.89348
7.85536
7.81828
7.78226
7.74725
7.71324
7.68019
7.64808
7.61689
7.58659
7.55718
7.52864
7.50094
7.47407
7.44799
7.42269
7.39814
7.37431
7.35117
7.32871
7.30688
7.28568
7.26506
7.24502
7.22553
7.20657
7.18812
7.17017
7.15269
7.13566
7.11907
7.1029
7.08714
7.07177
7.05679
7.04218
7.02793
7.01404
7.00048
6.98726
6.97435
6.96176
6.94947
6.93747
6.92575
6.91431
6.90313
6.89221
6.88154
6.87113
6.86096
6.85103
6.84132
6.83182
6.82251
6.81338
6.80442
6.79562
6.78699
6.77853
6.77024
6.76212
6.75416
6.74635
6.73868
6.73116
6.72376
6.7165
6.70938
6.70238
6.69552
6.68877
6.68214
6.67563
6.66922
6.66293
6.65675
6.65069
6.64474
6.63891
6.63318
6.62755
6.62201
6.61654
6.61114
6.6058
6.60053
6.59533
6.59019
6.58513
6.58016
6.57526
6.57044
6.56569
6.56102
6.5564
6.55183
6.54729
6.5428
6.53835
6.53393
6.52957
6.52524
6.52095
6.5167
6.51249
6.50831
6.50417
6.50007
6.49601
6.49198
6.48798
6.48403
6.48011
6.47622
6.47237
6.46856
6.46477
6.46101
6.45727
6.45356
6.44987
6.44621
6.44257
6.43895
6.43535
6.43177
6.42821
6.42467
6.42115
6.41765
6.41417
6.41071
6.40727
6.40385
6.40044
6.39704
6.39364
6.39025
6.38687
6.38351
6.38016
6.37683
6.37352
6.37022
6.36695
6.36368
6.36043
6.35718
6.35393
6.35068
6.34743
6.34419
6.34094
6.33768
6.33442
6.33116
6.32789
6.32461
6.32131
6.318
6.31467
6.31133
6.30797
6.30461
6.30125
6.29789
6.29454
6.2912
6.28787
6.28453
6.28121
6.27789
6.27458
6.2713
6.26804
6.26481
6.26161
6.25844
6.25529
6.25216
6.24905
6.24594
6.24284
6.23975
6.23666
6.23358
6.23051
6.22745
6.22439
6.22134
6.21829
6.21524
6.2122
6.20917
6.20614
6.20313
6.20013
6.19715
6.19417
6.1912
6.18825
6.18532
6.18241
6.17952
6.17666
6.17382
6.17101
6.16823
6.16548
6.16276
6.16007
6.15741
6.15478
6.15216
6.14956
6.14697
6.14439
6.14183
6.1393
6.13679
6.13431
6.13187
6.12946
6.12709
6.12476
6.12246
6.12021
6.118
6.11583
6.11371
6.11164
6.10962
6.10765
6.10571
6.10382
6.10195
6.10011
6.09829
6.09649
6.0947
6.09293
6.09117
6.08943
6.08769
6.08595
6.0842
6.08245
6.08068
6.07891
6.07714
6.07538
6.07363
6.07191
6.07021
6.06855
6.06691
6.0653
6.06372
6.06216
6.06063
6.05914
6.05768
6.05627
6.05489
6.05354
6.05223
6.05093
6.04966
6.0484
6.04716
6.04592
6.04467
6.04343
6.04218
6.04091
6.03963
6.03833
6.037
6.03564
6.03426
6.03284
6.0314
6.02994
6.02845
6.02693
6.02538
6.02381
6.0222
6.02056
6.0189
6.01722
6.01552
6.01381
6.01208
6.01035
6.00862
6.00688
6.00515
6.00342
6.00171
6
5.99829
5.99659
5.99489
5.99318
5.99145
5.9897
5.98793
5.98613
5.98432
5.98248
5.98061
5.97873
5.97681
5.97488
5.97293
5.97095
5.96896
5.96696
5.96496
5.96295
5.96095
5.95896
5.95699
5.95505
5.95314
5.95127
5.94944
5.94765
5.94591
5.9442
5.94253
5.94088
5.93927
5.93768
5.93612
5.93458
5.93307
5.93156
5.93006
5.92856
5.92706
5.92556
5.92406
5.92257
5.92107
5.91958
5.91809
5.9166
5.91512
5.91366
5.91223
5.91084
5.90948
5.90818
5.90693
5.90573
5.90458
5.90348
5.90243
5.90141
5.90044
5.89949
5.89857
5.89765
5.89672
5.89578
5.89482
5.89384
5.89285
5.89185
5.89086
5.88986
5.88886
5.88783
5.88677
5.88566
5.88452
5.88334
5.88215
5.88095
5.87977
5.8786
5.87746
5.87634
5.87527
5.87422
5.87322
5.87223
5.87126
5.87028
5.86933
5.86837
5.86746
5.86655
5.86571
5.86488
5.86413
5.86338
5.86272
5.86206
5.86148
5.86085
5.86025
5.85956
5.85889
5.85814
5.85746
5.85675
5.85619
5.85568
5.85544
5.85537
5.85571
5.85645
5.85787
5.86023
5.86406
5.86996
5.87911
5.89293
5.91389
5.94536
5.99279
6.06437
6.17292
6.33859
6.5934
6.99814
7.61778
8.60652
10.1367
12.4544
15.4162
17.2927
14.5756
8.0692
0.589567
0.599786
0.618513
0.645785
0.683645
0.732237
0.789135
0.853134
0.918616
0.984619
1.05321
1.12363
1.19568
1.26848
1.34161
1.41491
1.48838
1.56184
1.63492
1.7074
1.77905
1.84995
1.92115
1.9943
2.07026
2.14888
2.22953
2.31155
2.39441
2.47761
2.56084
2.64408
2.72744
2.81102
2.89485
2.97899
3.06348
3.14837
3.2338
3.32011
3.41214
3.5184
3.63917
3.77018
3.90777
4.04974
4.19415
4.33924
4.48386
4.62716
4.76859
4.90759
5.04376
5.17678
5.30641
5.4324
5.55454
5.67274
5.78679
5.89637
6.00103
6.10037
6.19351
6.27999
6.35943
6.43154
6.49607
6.55282
6.60021
6.63804
6.66677
6.68689
6.69892
6.70341
6.70094
6.69209
6.67737
6.65725
6.6322
6.60276
6.56947
6.53288
6.49358
6.45225
6.40959
6.36636
6.32317
6.28058
6.23907
6.19903
6.16089
6.1244
6.0894
6.05576
6.02328
5.99182
5.96117
5.93099
5.90142
5.87249
5.84424
5.81669
5.78982
5.76359
5.73796
5.7129
5.68837
5.66437
5.64087
5.61787
5.59534
5.57327
5.55172
5.5307
5.51017
5.49013
5.47059
5.45154
5.43297
5.41488
5.39728
5.38017
5.36353
5.34737
5.33169
5.31647
5.30172
5.28741
5.27354
5.26009
5.24706
5.23441
5.22215
5.21026
5.19871
5.18751
5.17663
5.16607
5.15582
5.14586
5.13619
5.12679
5.11766
5.10878
5.10015
5.09176
5.08362
5.07571
5.06804
5.06058
5.05335
5.04632
5.03951
5.0329
5.02649
5.02027
5.01423
5.00837
5.00269
4.99717
4.99183
4.98665
4.98163
4.97677
4.97206
4.9675
4.96306
4.95873
4.95452
4.95042
4.94643
4.94254
4.93876
4.9351
4.93154
4.92807
4.92469
4.9214
4.91818
4.91505
4.912
4.90903
4.90614
4.90331
4.90056
4.89786
4.89523
4.89266
4.89016
4.88771
4.88534
4.88303
4.88077
4.87858
4.87642
4.87431
4.87222
4.87015
4.86812
4.8661
4.86412
4.86217
4.86026
4.85838
4.85654
4.85474
4.85296
4.85121
4.84949
4.84777
4.84608
4.8444
4.84274
4.84109
4.83946
4.83784
4.83624
4.83464
4.83304
4.83145
4.82987
4.82829
4.82671
4.82513
4.82356
4.82199
4.82042
4.81886
4.8173
4.81575
4.81419
4.81264
4.81109
4.80953
4.80798
4.80643
4.80489
4.80334
4.8018
4.80026
4.79872
4.79719
4.79566
4.79414
4.79262
4.79111
4.78961
4.78811
4.78661
4.7851
4.7836
4.78209
4.78059
4.77909
4.77759
4.77609
4.7746
4.77311
4.77162
4.77012
4.76861
4.76709
4.76556
4.76402
4.76246
4.76089
4.75929
4.75769
4.75606
4.75441
4.75275
4.75106
4.74934
4.7476
4.74584
4.74405
4.74224
4.74043
4.7386
4.73676
4.73492
4.73306
4.7312
4.72932
4.72742
4.72552
4.72361
4.72169
4.71977
4.71785
4.71593
4.71401
4.71207
4.71012
4.70815
4.70616
4.70416
4.70214
4.70011
4.69806
4.69599
4.69392
4.69183
4.68972
4.6876
4.68547
4.68334
4.68119
4.67905
4.67689
4.67474
4.67258
4.67041
4.66824
4.66607
4.66391
4.66174
4.65958
4.65744
4.6553
4.65317
4.65105
4.64895
4.64686
4.64479
4.64274
4.64069
4.63865
4.63662
4.63459
4.63257
4.63056
4.62857
4.6266
4.62465
4.62271
4.62081
4.61892
4.61706
4.61522
4.6134
4.61162
4.60986
4.60814
4.60645
4.60479
4.60316
4.60155
4.59997
4.5984
4.59685
4.59532
4.5938
4.59229
4.5908
4.58933
4.58787
4.58642
4.58497
4.58354
4.5821
4.58067
4.57925
4.57785
4.57646
4.5751
4.57376
4.57246
4.57118
4.56993
4.5687
4.56749
4.56631
4.56515
4.56402
4.56292
4.56185
4.5608
4.55978
4.55877
4.55779
4.55681
4.55585
4.5549
4.55395
4.55301
4.55207
4.55112
4.55017
4.54921
4.54823
4.54724
4.54624
4.54522
4.54418
4.54313
4.54206
4.54098
4.53988
4.53876
4.53761
4.53644
4.53526
4.53405
4.53282
4.53158
4.53032
4.52904
4.52776
4.52645
4.52514
4.52382
4.52249
4.52116
4.51982
4.51846
4.5171
4.51572
4.51431
4.51289
4.51144
4.50997
4.50848
4.50696
4.50543
4.50388
4.50232
4.50073
4.49913
4.49752
4.49589
4.49425
4.49259
4.49093
4.48927
4.48761
4.48594
4.48429
4.48265
4.48102
4.47942
4.47783
4.47627
4.47473
4.4732
4.4717
4.47021
4.46874
4.46729
4.46585
4.46443
4.46302
4.46161
4.4602
4.45879
4.45738
4.45598
4.45457
4.45317
4.45177
4.45037
4.44897
4.44758
4.4462
4.44484
4.4435
4.44219
4.44092
4.43968
4.43848
4.43732
4.43618
4.43508
4.43401
4.43297
4.43195
4.43095
4.42996
4.42897
4.42798
4.42698
4.42598
4.42498
4.42399
4.42301
4.42204
4.42108
4.42011
4.41913
4.41814
4.41713
4.4161
4.41508
4.41405
4.41305
4.41206
4.4111
4.41016
4.40926
4.40838
4.40753
4.40669
4.40587
4.40505
4.40425
4.40345
4.40268
4.40192
4.4012
4.4005
4.39984
4.39919
4.39861
4.39804
4.39752
4.39698
4.39648
4.39592
4.39539
4.39481
4.39427
4.39371
4.39326
4.39284
4.3926
4.39248
4.39265
4.39312
4.39406
4.39565
4.39822
4.40224
4.40842
4.41781
4.43195
4.45337
4.48545
4.53435
4.60825
4.7228
4.90159
5.18793
5.64465
6.38929
7.64309
9.65402
12.4458
15.1952
14.6489
8.9277
0.586186
0.589629
0.597007
0.607169
0.620044
0.63647
0.657521
0.68382
0.712927
0.744262
0.775958
0.807922
0.840654
0.874292
0.908595
0.943422
0.978742
1.01452
1.05067
1.08715
1.12389
1.16084
1.19805
1.2357
1.274
1.31309
1.35303
1.39385
1.43549
1.47783
1.52077
1.56419
1.60808
1.65241
1.69723
1.74266
1.78876
1.83556
1.88306
1.93137
1.98196
2.03732
2.09759
2.16167
2.22856
2.29757
2.36819
2.44004
2.5128
2.58625
2.6602
2.73448
2.8089
2.8833
2.95749
3.03131
3.10462
3.17724
3.249
3.31972
3.38923
3.45736
3.52399
3.589
3.65226
3.71367
3.77308
3.83034
3.88516
3.93725
3.98633
4.03217
4.07453
4.11319
4.14806
4.17906
4.20609
4.22903
4.24789
4.26279
4.27388
4.28133
4.28542
4.28649
4.28493
4.28114
4.27563
4.26883
4.26115
4.25345
4.24591
4.23866
4.23178
4.22529
4.2192
4.21346
4.20803
4.20317
4.1987
4.19446
4.19035
4.1863
4.18229
4.17751
4.17209
4.16617
4.15982
4.15311
4.14609
4.13883
4.13134
4.12365
4.11595
4.10827
4.10057
4.09292
4.08536
4.07791
4.07058
4.06339
4.05632
4.04939
4.04261
4.03598
4.02952
4.02323
4.01712
4.01118
4.00543
3.99985
3.99446
3.98924
3.98421
3.97934
3.97465
3.97011
3.96574
3.96153
3.95747
3.95357
3.94981
3.9462
3.94274
3.93941
3.93621
3.93315
3.93022
3.92743
3.92475
3.92221
3.91977
3.91746
3.91525
3.91315
3.91115
3.90924
3.90744
3.90572
3.90408
3.90253
3.90106
3.89967
3.89836
3.89713
3.89598
3.89489
3.89386
3.89289
3.89197
3.8911
3.89027
3.88949
3.88877
3.8881
3.88748
3.8869
3.88636
3.88585
3.88538
3.88494
3.88454
3.88417
3.88384
3.88353
3.88325
3.88299
3.88276
3.88255
3.88236
3.8822
3.88207
3.88197
3.88189
3.88183
3.88179
3.88176
3.88173
3.8817
3.88168
3.88165
3.88163
3.88162
3.88162
3.88163
3.88166
3.88169
3.88173
3.88178
3.88183
3.88187
3.88192
3.88196
3.88201
3.88206
3.8821
3.88214
3.88218
3.8822
3.88223
3.88224
3.88223
3.88222
3.8822
3.88216
3.88211
3.88205
3.88198
3.8819
3.88181
3.88172
3.88161
3.8815
3.88137
3.88124
3.88111
3.88097
3.88082
3.88067
3.88051
3.88035
3.88019
3.88003
3.87986
3.8797
3.87953
3.87936
3.87919
3.87902
3.87884
3.87865
3.87845
3.87824
3.87802
3.87779
3.87754
3.87729
3.87702
3.87673
3.87642
3.87608
3.87572
3.87533
3.87491
3.87446
3.87398
3.87346
3.87291
3.87232
3.87171
3.87106
3.87037
3.86965
3.8689
3.86811
3.86729
3.86644
3.86556
3.86465
3.86372
3.86277
3.8618
3.86081
3.85979
3.85874
3.85766
3.85655
3.85542
3.85426
3.85308
3.85187
3.85063
3.84937
3.84808
3.84676
3.8454
3.84401
3.84258
3.84113
3.83964
3.83813
3.8366
3.83504
3.83346
3.83186
3.83024
3.8286
3.82695
3.82528
3.8236
3.82191
3.82021
3.8185
3.81678
3.81505
3.81331
3.81157
3.80982
3.80807
3.80632
3.80457
3.80282
3.80107
3.79934
3.79761
3.79588
3.79417
3.79246
3.79076
3.78906
3.78736
3.78567
3.78398
3.78231
3.78065
3.77901
3.77738
3.77576
3.77416
3.77258
3.77101
3.76946
3.76792
3.76641
3.76491
3.76344
3.76198
3.76054
3.75912
3.75772
3.75633
3.75494
3.75357
3.75221
3.75087
3.74953
3.74822
3.74692
3.74564
3.74437
3.74312
3.74188
3.74066
3.73945
3.73827
3.73711
3.73598
3.73488
3.73381
3.73277
3.73176
3.73077
3.7298
3.72885
3.72792
3.72702
3.72613
3.72527
3.72442
3.72358
3.72276
3.72195
3.72114
3.72035
3.71955
3.71876
3.71797
3.71718
3.71639
3.71558
3.71477
3.71395
3.71311
3.71226
3.7114
3.71052
3.70963
3.70872
3.70779
3.70685
3.70589
3.7049
3.70389
3.70286
3.7018
3.70073
3.69963
3.69851
3.69736
3.69619
3.695
3.69379
3.69256
3.69131
3.69004
3.68875
3.68744
3.6861
3.68475
3.68336
3.68195
3.68052
3.67906
3.67759
3.6761
3.67459
3.67307
3.67153
3.66999
3.66844
3.66688
3.66531
3.66373
3.66214
3.66055
3.65896
3.65736
3.65575
3.65415
3.65256
3.65097
3.64938
3.64781
3.64625
3.6447
3.64317
3.64164
3.64012
3.63861
3.63711
3.63562
3.63414
3.63266
3.63119
3.62971
3.62823
3.62676
3.62528
3.62381
3.62234
3.62087
3.61941
3.61795
3.61651
3.61507
3.61365
3.61225
3.61087
3.60951
3.60819
3.60688
3.60561
3.60435
3.60311
3.60189
3.6007
3.59951
3.59834
3.59718
3.59603
3.59487
3.59372
3.59257
3.59144
3.59032
3.58922
3.58814
3.58708
3.58604
3.585
3.58396
3.58293
3.5819
3.58089
3.57989
3.57892
3.57797
3.57705
3.57615
3.57528
3.57443
3.57361
3.57279
3.57199
3.57119
3.5704
3.56961
3.56885
3.5681
3.56737
3.56666
3.56598
3.56531
3.56469
3.56408
3.56351
3.56294
3.56239
3.56182
3.56127
3.56068
3.56014
3.55958
3.55909
3.55862
3.55827
3.55801
3.55796
3.55812
3.55861
3.55958
3.56124
3.56394
3.56815
3.57464
3.58444
3.59943
3.62183
3.65631
3.7084
3.78982
3.91861
4.12141
4.45936
5.0172
6.00431
7.69113
10.1742
13.1348
14.1355
9.74128
0.586013
0.588944
0.594658
0.601817
0.608817
0.616304
0.624523
0.63454
0.646642
0.661078
0.676762
0.693537
0.710989
0.728844
0.747104
0.765771
0.785119
0.80538
0.826654
0.849062
0.872667
0.897434
0.92331
0.950417
0.978993
1.00914
1.04084
1.07399
1.1085
1.14421
1.18104
1.21888
1.25769
1.29789
1.34021
1.38499
1.4321
1.48125
1.53212
1.58441
1.63798
1.69289
1.74916
1.80673
1.86543
1.92507
1.98544
2.04633
2.1075
2.1687
2.22968
2.29014
2.34976
2.40824
2.46522
2.52038
2.57334
2.62372
2.67121
2.71563
2.75713
2.79622
2.83367
2.87003
2.90547
2.94007
2.97385
3.00684
3.03896
3.07016
3.10031
3.12934
3.15708
3.18348
3.20848
3.2321
3.25433
3.27506
3.29435
3.31197
3.32785
3.34179
3.35375
3.36379
3.37199
3.37848
3.38338
3.38684
3.38899
3.39004
3.39018
3.38959
3.38842
3.38679
3.38482
3.38258
3.38017
3.37768
3.37515
3.3726
3.37004
3.36751
3.36501
3.36245
3.3598
3.35703
3.35405
3.35077
3.34727
3.34354
3.33967
3.3357
3.33181
3.32809
3.3246
3.32132
3.31826
3.31539
3.31263
3.30985
3.30709
3.30439
3.30177
3.29924
3.29681
3.29448
3.29224
3.29013
3.28816
3.28633
3.28464
3.28309
3.28166
3.28035
3.27917
3.2781
3.27715
3.27631
3.27557
3.27495
3.27442
3.274
3.27367
3.27343
3.27328
3.27321
3.27321
3.27328
3.27342
3.27362
3.27388
3.27418
3.27452
3.27491
3.27533
3.27579
3.27627
3.27678
3.27731
3.27786
3.27844
3.27904
3.27965
3.28029
3.28096
3.28164
3.28233
3.28304
3.28376
3.28449
3.28523
3.28599
3.28676
3.28756
3.28836
3.28919
3.29003
3.29088
3.29173
3.2926
3.29348
3.29438
3.29528
3.29619
3.29711
3.29803
3.29896
3.2999
3.30083
3.30178
3.30274
3.3037
3.30468
3.30566
3.30665
3.30764
3.30863
3.30961
3.31058
3.31155
3.31252
3.31349
3.31447
3.31545
3.31643
3.31742
3.31841
3.3194
3.32039
3.32137
3.32235
3.32333
3.32429
3.32526
3.32622
3.32717
3.32811
3.32904
3.32996
3.33087
3.33176
3.33264
3.33351
3.33436
3.33519
3.33602
3.33683
3.33763
3.33842
3.33919
3.33996
3.34072
3.34147
3.34221
3.34295
3.34368
3.34441
3.34513
3.34585
3.34656
3.34727
3.34798
3.34868
3.34938
3.35007
3.35076
3.35144
3.35211
3.35276
3.35339
3.354
3.35458
3.35514
3.35567
3.35617
3.35664
3.35706
3.35745
3.35779
3.35808
3.35833
3.35852
3.35866
3.35874
3.35878
3.35876
3.35868
3.35856
3.35839
3.35817
3.35791
3.3576
3.35725
3.35685
3.35642
3.35595
3.35544
3.3549
3.35433
3.35373
3.3531
3.35243
3.35173
3.351
3.35023
3.34942
3.34857
3.34768
3.34676
3.3458
3.34481
3.34377
3.3427
3.34159
3.34043
3.33924
3.338
3.33674
3.33544
3.33412
3.33277
3.33139
3.33
3.32858
3.32715
3.3257
3.32424
3.32277
3.32128
3.31979
3.31829
3.31677
3.31525
3.31373
3.31219
3.31065
3.30911
3.30756
3.30601
3.30446
3.30291
3.30136
3.29982
3.29828
3.29675
3.29523
3.29371
3.2922
3.29069
3.28919
3.2877
3.28622
3.28475
3.28329
3.28184
3.28041
3.279
3.27759
3.2762
3.27482
3.27345
3.2721
3.27076
3.26944
3.26813
3.26683
3.26555
3.26427
3.26301
3.26175
3.2605
3.25926
3.25803
3.25681
3.25561
3.25443
3.25327
3.25212
3.251
3.24989
3.24881
3.24776
3.24672
3.24572
3.24475
3.24381
3.2429
3.24203
3.24119
3.24037
3.23958
3.23881
3.23806
3.23732
3.23659
3.23588
3.23518
3.23448
3.23379
3.2331
3.23241
3.23171