/*--------------------------------*- C++ -*----------------------------------*\
| =========                 |                                                 |
| \\      /  F ield         | foam-extend: Open Source CFD                    |
|  \\    /   O peration     | Version:     3.2                                |
|   \\  /    A nd           | Web:         http://www.foam-extend.org         |
|    \\/     M anipulation  | For copyright notice see file Copyright         |
\*---------------------------------------------------------------------------*/
FoamFile
{
    version     2.0;
    format      ascii;
    class       volScalarField;
    location    "200";
    object      p;
}
// * * * * * * * * * * * * * * * * * * * * * * * * * * * * * * * * * * * * * //

dimensions      [1 -1 -2 0 0 0 0];

internalField   nonuniform List<scalar> 
33000
(
1145.75
1146.91
1148.07
1149.82
1151.02
1152.49
1153.5
1154.55
1155.36
1156.16
1156.82
1157.45
1158.01
1158.52
1159.02
1159.49
1159.94
1160.38
1160.8
1161.22
1161.62
1162.02
1162.41
1162.81
1163.19
1163.58
1163.96
1164.35
1164.73
1165.1
1165.48
1165.85
1166.22
1166.59
1166.96
1167.32
1167.69
1168.05
1168.42
1168.78
1169.14
1169.5
1169.86
1170.22
1170.57
1170.93
1171.29
1171.64
1171.99
1172.35
1172.7
1173.05
1173.41
1173.76
1174.11
1174.47
1174.82
1175.17
1175.53
1175.88
1176.23
1176.59
1176.94
1177.3
1177.65
1178.01
1178.36
1178.72
1179.07
1179.43
1179.78
1180.14
1180.49
1180.85
1181.2
1181.56
1181.91
1182.26
1182.61
1182.96
1183.31
1183.66
1184.01
1184.36
1184.71
1185.05
1185.4
1185.75
1186.09
1186.44
1186.78
1187.13
1187.47
1187.82
1188.16
1188.51
1188.86
1189.2
1189.55
1189.89
1190.24
1190.59
1190.94
1191.29
1191.64
1191.99
1192.34
1192.69
1193.04
1193.39
1193.75
1194.1
1194.46
1194.81
1195.17
1195.52
1195.88
1196.23
1196.59
1196.94
1197.3
1197.65
1198.01
1198.36
1198.71
1199.07
1199.42
1199.77
1200.13
1200.48
1200.83
1201.18
1201.53
1201.88
1202.23
1202.58
1202.92
1203.27
1203.62
1203.96
1204.31
1204.66
1205
1205.35
1205.7
1206.04
1206.39
1206.74
1207.09
1207.43
1207.78
1208.13
1208.48
1208.83
1209.18
1209.53
1209.88
1210.24
1210.59
1210.94
1211.3
1211.65
1212
1212.36
1212.71
1213.06
1213.41
1213.76
1214.11
1214.46
1214.81
1215.16
1215.51
1215.85
1216.2
1216.54
1216.89
1217.23
1217.57
1217.91
1218.25
1218.59
1218.93
1219.27
1219.61
1219.95
1220.29
1220.63
1220.97
1221.31
1221.66
1222
1222.34
1222.69
1223.03
1223.37
1223.72
1224.06
1224.41
1224.75
1225.1
1225.44
1225.79
1226.13
1226.48
1226.82
1227.17
1227.51
1227.85
1228.19
1228.53
1228.87
1229.21
1229.55
1229.89
1230.23
1230.57
1230.91
1231.25
1231.58
1231.92
1232.26
1232.6
1232.94
1233.27
1233.61
1233.95
1234.29
1234.63
1234.97
1235.31
1235.65
1235.99
1236.33
1236.67
1237.01
1237.35
1237.7
1238.04
1238.38
1238.72
1239.06
1239.4
1239.74
1240.08
1240.42
1240.76
1241.1
1241.44
1241.78
1242.12
1242.46
1242.81
1243.15
1243.49
1243.83
1244.17
1244.51
1244.85
1245.19
1245.53
1245.87
1246.21
1246.56
1246.9
1247.24
1247.59
1247.93
1248.27
1248.62
1248.96
1249.31
1249.65
1250
1250.35
1250.69
1251.04
1251.39
1251.73
1252.08
1252.43
1252.78
1253.13
1253.47
1253.82
1254.17
1254.52
1254.87
1255.22
1255.56
1255.91
1256.26
1256.61
1256.96
1257.3
1257.65
1258
1258.35
1258.7
1259.04
1259.39
1259.74
1260.09
1260.44
1260.79
1261.13
1261.48
1261.83
1262.18
1262.53
1262.88
1263.22
1263.57
1263.92
1264.27
1264.62
1264.96
1265.31
1265.66
1266
1266.35
1266.7
1267.04
1267.39
1267.74
1268.08
1268.43
1268.77
1269.12
1269.46
1269.81
1270.16
1270.5
1270.85
1271.19
1271.54
1271.89
1272.23
1272.58
1272.93
1273.27
1273.62
1273.97
1274.31
1274.66
1275.01
1275.36
1275.7
1276.05
1276.4
1276.74
1277.09
1277.44
1277.78
1278.13
1278.48
1278.82
1279.17
1279.52
1279.86
1280.21
1280.56
1280.91
1281.25
1281.6
1281.95
1282.3
1282.65
1283
1283.35
1283.7
1284.06
1284.41
1284.76
1285.12
1285.48
1285.83
1286.19
1286.55
1286.91
1287.27
1287.63
1287.99
1288.35
1288.71
1289.07
1289.43
1289.8
1290.16
1290.52
1290.89
1291.25
1291.62
1291.98
1292.34
1292.71
1293.07
1293.43
1293.79
1294.15
1294.51
1294.87
1295.23
1295.59
1295.95
1296.3
1296.66
1297.01
1297.36
1297.71
1298.06
1298.41
1298.76
1299.11
1299.45
1299.8
1300.15
1300.49
1300.83
1301.18
1301.52
1301.86
1302.2
1302.55
1302.89
1303.23
1303.58
1303.92
1304.27
1304.62
1304.96
1305.31
1305.66
1306.01
1306.36
1306.71
1307.06
1307.41
1307.77
1308.12
1308.47
1308.83
1309.18
1309.54
1309.89
1310.25
1310.6
1310.95
1311.31
1311.66
1312.01
1312.36
1312.71
1313.07
1313.42
1313.77
1314.12
1314.47
1314.82
1315.17
1315.52
1315.87
1316.22
1316.57
1316.92
1317.26
1317.61
1317.96
1318.31
1318.66
1319.01
1319.36
1319.71
1320.06
1320.4
1320.75
1321.1
1321.45
1321.8
1322.14
1322.49
1322.84
1323.19
1323.53
1323.88
1324.23
1324.58
1324.92
1325.27
1325.62
1325.97
1326.32
1326.67
1327.02
1327.37
1327.72
1328.07
1328.42
1328.77
1329.12
1329.47
1329.82
1330.17
1330.52
1330.87
1331.22
1331.57
1331.92
1332.27
1332.63
1332.98
1333.33
1333.69
1334.04
1334.4
1334.75
1335.11
1335.47
1335.82
1336.18
1336.54
1336.89
1337.25
1337.61
1337.97
1338.33
1338.68
1339.05
1339.41
1339.77
1340.14
1340.52
1340.9
1341.31
1341.7
1342.18
1342.62
1343.22
1343.78
1344.63
1345.43
1346.71
1347.96
1349.88
1351.86
1354.43
1355.49
1356.69
1356.23
1357.29
1096.8
1098.08
1099.22
1100.98
1102.17
1103.65
1104.66
1105.71
1106.51
1107.32
1107.98
1108.61
1109.16
1109.68
1110.17
1110.65
1111.1
1111.54
1111.96
1112.37
1112.77
1113.17
1113.56
1113.95
1114.34
1114.73
1115.11
1115.5
1115.87
1116.25
1116.63
1117
1117.37
1117.74
1118.11
1118.47
1118.84
1119.2
1119.57
1119.93
1120.29
1120.65
1121.01
1121.37
1121.72
1122.08
1122.43
1122.79
1123.14
1123.5
1123.85
1124.2
1124.56
1124.91
1125.26
1125.62
1125.97
1126.32
1126.68
1127.03
1127.38
1127.74
1128.09
1128.45
1128.8
1129.16
1129.51
1129.87
1130.22
1130.58
1130.93
1131.29
1131.64
1132
1132.35
1132.7
1133.06
1133.41
1133.76
1134.11
1134.46
1134.81
1135.16
1135.51
1135.86
1136.2
1136.55
1136.89
1137.24
1137.59
1137.93
1138.28
1138.62
1138.97
1139.31
1139.66
1140
1140.35
1140.7
1141.04
1141.39
1141.74
1142.09
1142.43
1142.78
1143.13
1143.49
1143.84
1144.19
1144.54
1144.9
1145.25
1145.6
1145.96
1146.31
1146.67
1147.02
1147.38
1147.73
1148.09
1148.44
1148.8
1149.15
1149.51
1149.86
1150.22
1150.57
1150.92
1151.27
1151.62
1151.98
1152.33
1152.68
1153.03
1153.37
1153.72
1154.07
1154.42
1154.77
1155.11
1155.46
1155.81
1156.15
1156.5
1156.84
1157.19
1157.54
1157.89
1158.23
1158.58
1158.93
1159.28
1159.63
1159.98
1160.33
1160.68
1161.03
1161.38
1161.74
1162.09
1162.44
1162.8
1163.15
1163.5
1163.86
1164.21
1164.56
1164.91
1165.26
1165.61
1165.96
1166.31
1166.66
1167
1167.35
1167.69
1168.03
1168.38
1168.72
1169.06
1169.4
1169.74
1170.08
1170.42
1170.76
1171.1
1171.44
1171.78
1172.12
1172.46
1172.8
1173.15
1173.49
1173.83
1174.18
1174.52
1174.87
1175.21
1175.56
1175.9
1176.25
1176.59
1176.94
1177.28
1177.63
1177.97
1178.31
1178.66
1179
1179.34
1179.68
1180.02
1180.36
1180.7
1181.04
1181.38
1181.72
1182.05
1182.39
1182.73
1183.07
1183.41
1183.74
1184.08
1184.42
1184.76
1185.1
1185.44
1185.78
1186.12
1186.46
1186.8
1187.14
1187.48
1187.82
1188.16
1188.5
1188.84
1189.18
1189.53
1189.87
1190.21
1190.55
1190.89
1191.23
1191.57
1191.91
1192.25
1192.59
1192.93
1193.27
1193.61
1193.95
1194.29
1194.63
1194.97
1195.31
1195.65
1196
1196.34
1196.68
1197.02
1197.36
1197.7
1198.05
1198.39
1198.73
1199.08
1199.42
1199.76
1200.11
1200.46
1200.8
1201.15
1201.49
1201.84
1202.19
1202.53
1202.88
1203.23
1203.58
1203.92
1204.27
1204.62
1204.97
1205.32
1205.67
1206.01
1206.36
1206.71
1207.06
1207.41
1207.75
1208.1
1208.45
1208.8
1209.15
1209.49
1209.84
1210.19
1210.54
1210.89
1211.23
1211.58
1211.93
1212.28
1212.63
1212.98
1213.33
1213.67
1214.02
1214.37
1214.72
1215.07
1215.41
1215.76
1216.11
1216.46
1216.8
1217.15
1217.5
1217.84
1218.19
1218.54
1218.88
1219.23
1219.57
1219.92
1220.27
1220.61
1220.96
1221.3
1221.65
1221.99
1222.34
1222.69
1223.03
1223.38
1223.73
1224.07
1224.42
1224.77
1225.11
1225.46
1225.81
1226.16
1226.5
1226.85
1227.2
1227.54
1227.89
1228.24
1228.58
1228.93
1229.28
1229.62
1229.97
1230.32
1230.66
1231.01
1231.36
1231.71
1232.05
1232.4
1232.75
1233.1
1233.45
1233.8
1234.15
1234.5
1234.85
1235.2
1235.56
1235.91
1236.27
1236.62
1236.98
1237.34
1237.69
1238.05
1238.41
1238.77
1239.13
1239.49
1239.86
1240.22
1240.58
1240.94
1241.31
1241.67
1242.03
1242.4
1242.76
1243.13
1243.49
1243.85
1244.22
1244.58
1244.94
1245.3
1245.66
1246.02
1246.38
1246.74
1247.09
1247.45
1247.8
1248.16
1248.51
1248.86
1249.21
1249.56
1249.91
1250.26
1250.6
1250.95
1251.29
1251.64
1251.98
1252.32
1252.67
1253.01
1253.35
1253.69
1254.04
1254.38
1254.73
1255.07
1255.42
1255.76
1256.11
1256.46
1256.81
1257.15
1257.51
1257.86
1258.21
1258.56
1258.91
1259.27
1259.62
1259.98
1260.33
1260.68
1261.04
1261.39
1261.75
1262.1
1262.45
1262.81
1263.16
1263.51
1263.86
1264.21
1264.56
1264.91
1265.26
1265.61
1265.96
1266.31
1266.66
1267.01
1267.36
1267.71
1268.06
1268.41
1268.76
1269.11
1269.46
1269.81
1270.16
1270.5
1270.85
1271.2
1271.55
1271.9
1272.25
1272.59
1272.94
1273.29
1273.64
1273.99
1274.33
1274.68
1275.03
1275.38
1275.72
1276.07
1276.42
1276.77
1277.12
1277.47
1277.81
1278.16
1278.51
1278.86
1279.21
1279.56
1279.91
1280.26
1280.61
1280.96
1281.31
1281.66
1282.01
1282.37
1282.72
1283.07
1283.42
1283.77
1284.12
1284.48
1284.83
1285.19
1285.54
1285.9
1286.26
1286.61
1286.97
1287.33
1287.68
1288.04
1288.4
1288.76
1289.11
1289.47
1289.83
1290.19
1290.55
1290.92
1291.29
1291.67
1292.04
1292.45
1292.85
1293.32
1293.77
1294.37
1294.92
1295.77
1296.56
1297.84
1299.09
1301.02
1302.97
1305.53
1306.64
1307.86
1307.32
1308.33
1047.84
1049.19
1050.35
1052.13
1053.33
1054.8
1055.8
1056.86
1057.66
1058.46
1059.12
1059.75
1060.31
1060.82
1061.31
1061.79
1062.24
1062.67
1063.1
1063.51
1063.92
1064.32
1064.71
1065.1
1065.49
1065.88
1066.26
1066.65
1067.03
1067.4
1067.78
1068.15
1068.52
1068.89
1069.26
1069.62
1069.99
1070.35
1070.72
1071.08
1071.44
1071.8
1072.16
1072.52
1072.87
1073.23
1073.58
1073.94
1074.29
1074.65
1075
1075.35
1075.7
1076.06
1076.41
1076.76
1077.12
1077.47
1077.82
1078.18
1078.53
1078.88
1079.24
1079.59
1079.95
1080.3
1080.66
1081.01
1081.37
1081.72
1082.08
1082.43
1082.79
1083.14
1083.5
1083.85
1084.2
1084.56
1084.91
1085.26
1085.61
1085.96
1086.31
1086.65
1087
1087.35
1087.7
1088.04
1088.39
1088.73
1089.08
1089.42
1089.77
1090.11
1090.46
1090.8
1091.15
1091.5
1091.84
1092.19
1092.54
1092.88
1093.23
1093.58
1093.93
1094.28
1094.63
1094.98
1095.34
1095.69
1096.04
1096.4
1096.75
1097.1
1097.46
1097.81
1098.17
1098.52
1098.88
1099.24
1099.59
1099.95
1100.3
1100.65
1101.01
1101.36
1101.71
1102.07
1102.42
1102.77
1103.12
1103.47
1103.82
1104.17
1104.52
1104.87
1105.22
1105.56
1105.91
1106.26
1106.61
1106.95
1107.3
1107.64
1107.99
1108.34
1108.68
1109.03
1109.38
1109.73
1110.08
1110.42
1110.77
1111.12
1111.48
1111.83
1112.18
1112.53
1112.88
1113.24
1113.59
1113.94
1114.3
1114.65
1115
1115.35
1115.71
1116.06
1116.41
1116.76
1117.11
1117.45
1117.8
1118.15
1118.49
1118.84
1119.18
1119.52
1119.86
1120.21
1120.55
1120.89
1121.23
1121.57
1121.91
1122.25
1122.59
1122.93
1123.27
1123.61
1123.95
1124.29
1124.64
1124.98
1125.32
1125.67
1126.01
1126.36
1126.7
1127.05
1127.39
1127.74
1128.08
1128.43
1128.77
1129.12
1129.46
1129.8
1130.14
1130.49
1130.83
1131.17
1131.51
1131.85
1132.19
1132.53
1132.86
1133.2
1133.54
1133.88
1134.21
1134.55
1134.89
1135.23
1135.57
1135.91
1136.24
1136.58
1136.92
1137.26
1137.6
1137.94
1138.28
1138.62
1138.97
1139.31
1139.65
1139.99
1140.33
1140.67
1141.01
1141.35
1141.69
1142.04
1142.38
1142.72
1143.06
1143.4
1143.74
1144.08
1144.42
1144.76
1145.1
1145.44
1145.78
1146.12
1146.46
1146.8
1147.14
1147.48
1147.82
1148.17
1148.51
1148.85
1149.19
1149.54
1149.88
1150.22
1150.57
1150.91
1151.26
1151.6
1151.95
1152.29
1152.64
1152.99
1153.33
1153.68
1154.03
1154.38
1154.72
1155.07
1155.42
1155.77
1156.12
1156.46
1156.81
1157.16
1157.51
1157.86
1158.2
1158.55
1158.9
1159.25
1159.6
1159.94
1160.29
1160.64
1160.99
1161.34
1161.68
1162.03
1162.38
1162.73
1163.08
1163.43
1163.77
1164.12
1164.47
1164.82
1165.17
1165.52
1165.86
1166.21
1166.56
1166.91
1167.26
1167.6
1167.95
1168.3
1168.64
1168.99
1169.34
1169.68
1170.03
1170.37
1170.72
1171.07
1171.41
1171.76
1172.1
1172.45
1172.79
1173.14
1173.49
1173.83
1174.18
1174.53
1174.87
1175.22
1175.57
1175.91
1176.26
1176.61
1176.95
1177.3
1177.65
1178
1178.34
1178.69
1179.04
1179.38
1179.73
1180.08
1180.42
1180.77
1181.12
1181.46
1181.81
1182.16
1182.5
1182.85
1183.2
1183.55
1183.9
1184.24
1184.59
1184.94
1185.29
1185.64
1186
1186.35
1186.7
1187.06
1187.41
1187.77
1188.12
1188.48
1188.84
1189.2
1189.56
1189.92
1190.28
1190.64
1191
1191.36
1191.73
1192.09
1192.45
1192.82
1193.18
1193.54
1193.91
1194.27
1194.64
1195
1195.36
1195.72
1196.09
1196.45
1196.81
1197.17
1197.53
1197.88
1198.24
1198.6
1198.95
1199.3
1199.66
1200.01
1200.36
1200.71
1201.05
1201.4
1201.75
1202.09
1202.44
1202.78
1203.13
1203.47
1203.81
1204.15
1204.5
1204.84
1205.18
1205.53
1205.87
1206.22
1206.56
1206.91
1207.25
1207.6
1207.95
1208.3
1208.65
1209
1209.35
1209.71
1210.06
1210.41
1210.77
1211.12
1211.48
1211.83
1212.18
1212.54
1212.89
1213.25
1213.6
1213.95
1214.3
1214.66
1215.01
1215.36
1215.71
1216.06
1216.41
1216.76
1217.11
1217.46
1217.81
1218.16
1218.51
1218.86
1219.21
1219.56
1219.91
1220.26
1220.6
1220.95
1221.3
1221.65
1222
1222.35
1222.7
1223.04
1223.39
1223.74
1224.09
1224.44
1224.78
1225.13
1225.48
1225.83
1226.17
1226.52
1226.87
1227.22
1227.57
1227.91
1228.26
1228.61
1228.96
1229.31
1229.66
1230.01
1230.36
1230.71
1231.06
1231.41
1231.76
1232.11
1232.46
1232.81
1233.16
1233.51
1233.86
1234.21
1234.57
1234.92
1235.27
1235.62
1235.98
1236.33
1236.69
1237.05
1237.4
1237.76
1238.11
1238.47
1238.83
1239.19
1239.54
1239.9
1240.26
1240.62
1240.98
1241.34
1241.7
1242.07
1242.43
1242.81
1243.18
1243.59
1243.99
1244.46
1244.9
1245.49
1246.03
1246.87
1247.64
1248.91
1250.11
1252
1253.86
1256.39
1257.58
1258.9
1258.4
1259.52
998.806
1000.29
1001.46
1003.29
1004.5
1005.99
1006.99
1008.05
1008.84
1009.64
1010.29
1010.92
1011.47
1011.98
1012.47
1012.95
1013.4
1013.83
1014.25
1014.67
1015.07
1015.47
1015.86
1016.25
1016.64
1017.03
1017.41
1017.79
1018.17
1018.55
1018.92
1019.3
1019.67
1020.04
1020.4
1020.77
1021.14
1021.5
1021.86
1022.23
1022.59
1022.95
1023.31
1023.66
1024.02
1024.38
1024.73
1025.09
1025.44
1025.79
1026.15
1026.5
1026.85
1027.21
1027.56
1027.91
1028.26
1028.62
1028.97
1029.32
1029.68
1030.03
1030.39
1030.74
1031.1
1031.45
1031.81
1032.16
1032.52
1032.87
1033.23
1033.58
1033.94
1034.29
1034.65
1035
1035.35
1035.7
1036.06
1036.41
1036.76
1037.11
1037.46
1037.8
1038.15
1038.5
1038.84
1039.19
1039.53
1039.88
1040.22
1040.57
1040.92
1041.26
1041.61
1041.95
1042.3
1042.64
1042.99
1043.34
1043.68
1044.03
1044.38
1044.73
1045.08
1045.43
1045.78
1046.13
1046.48
1046.84
1047.19
1047.54
1047.9
1048.25
1048.61
1048.96
1049.32
1049.67
1050.03
1050.38
1050.74
1051.09
1051.45
1051.8
1052.16
1052.51
1052.86
1053.21
1053.57
1053.92
1054.27
1054.62
1054.97
1055.32
1055.67
1056.02
1056.36
1056.71
1057.06
1057.41
1057.75
1058.1
1058.45
1058.79
1059.14
1059.48
1059.83
1060.18
1060.53
1060.87
1061.22
1061.57
1061.92
1062.27
1062.62
1062.97
1063.33
1063.68
1064.03
1064.38
1064.74
1065.09
1065.44
1065.8
1066.15
1066.5
1066.85
1067.21
1067.56
1067.91
1068.25
1068.6
1068.95
1069.3
1069.64
1069.98
1070.33
1070.67
1071.01
1071.35
1071.69
1072.03
1072.37
1072.71
1073.05
1073.39
1073.73
1074.07
1074.41
1074.75
1075.1
1075.44
1075.78
1076.13
1076.47
1076.81
1077.16
1077.5
1077.85
1078.19
1078.54
1078.88
1079.23
1079.57
1079.92
1080.26
1080.61
1080.95
1081.29
1081.63
1081.97
1082.31
1082.65
1082.99
1083.33
1083.67
1084.01
1084.35
1084.69
1085.02
1085.36
1085.7
1086.04
1086.38
1086.71
1087.05
1087.39
1087.73
1088.07
1088.41
1088.75
1089.09
1089.43
1089.77
1090.11
1090.45
1090.79
1091.14
1091.48
1091.82
1092.16
1092.5
1092.84
1093.18
1093.52
1093.86
1094.2
1094.54
1094.88
1095.22
1095.56
1095.9
1096.24
1096.59
1096.93
1097.27
1097.61
1097.95
1098.29
1098.63
1098.97
1099.31
1099.65
1100
1100.34
1100.68
1101.03
1101.37
1101.71
1102.06
1102.4
1102.75
1103.09
1103.44
1103.79
1104.13
1104.48
1104.83
1105.17
1105.52
1105.87
1106.22
1106.57
1106.91
1107.26
1107.61
1107.96
1108.31
1108.65
1109
1109.35
1109.7
1110.05
1110.39
1110.74
1111.09
1111.44
1111.79
1112.13
1112.48
1112.83
1113.18
1113.53
1113.88
1114.22
1114.57
1114.92
1115.27
1115.62
1115.97
1116.32
1116.66
1117.01
1117.36
1117.71
1118.05
1118.4
1118.75
1119.1
1119.44
1119.79
1120.14
1120.48
1120.83
1121.17
1121.52
1121.87
1122.21
1122.56
1122.9
1123.25
1123.6
1123.94
1124.29
1124.63
1124.98
1125.33
1125.67
1126.02
1126.37
1126.71
1127.06
1127.41
1127.75
1128.1
1128.45
1128.8
1129.14
1129.49
1129.84
1130.18
1130.53
1130.88
1131.22
1131.57
1131.92
1132.26
1132.61
1132.96
1133.3
1133.65
1134
1134.35
1134.69
1135.04
1135.39
1135.74
1136.09
1136.44
1136.79
1137.14
1137.5
1137.85
1138.2
1138.56
1138.91
1139.27
1139.63
1139.99
1140.34
1140.7
1141.06
1141.43
1141.79
1142.15
1142.51
1142.87
1143.24
1143.6
1143.96
1144.33
1144.69
1145.05
1145.42
1145.78
1146.15
1146.51
1146.87
1147.23
1147.59
1147.95
1148.31
1148.67
1149.03
1149.39
1149.74
1150.1
1150.45
1150.8
1151.15
1151.5
1151.85
1152.2
1152.55
1152.89
1153.24
1153.58
1153.93
1154.27
1154.62
1154.96
1155.3
1155.64
1155.99
1156.33
1156.67
1157.02
1157.36
1157.71
1158.05
1158.4
1158.75
1159.1
1159.45
1159.8
1160.15
1160.5
1160.85
1161.21
1161.56
1161.91
1162.27
1162.62
1162.98
1163.33
1163.69
1164.04
1164.39
1164.75
1165.1
1165.45
1165.8
1166.15
1166.51
1166.86
1167.21
1167.56
1167.91
1168.26
1168.61
1168.96
1169.31
1169.66
1170.01
1170.35
1170.7
1171.05
1171.4
1171.75
1172.1
1172.45
1172.8
1173.15
1173.49
1173.84
1174.19
1174.54
1174.89
1175.24
1175.58
1175.93
1176.28
1176.63
1176.97
1177.32
1177.67
1178.02
1178.36
1178.71
1179.06
1179.41
1179.76
1180.11
1180.46
1180.81
1181.16
1181.51
1181.86
1182.21
1182.56
1182.91
1183.26
1183.61
1183.96
1184.31
1184.66
1185.01
1185.36
1185.71
1186.06
1186.42
1186.77
1187.13
1187.48
1187.84
1188.19
1188.55
1188.91
1189.26
1189.62
1189.98
1190.33
1190.69
1191.05
1191.41
1191.77
1192.12
1192.49
1192.84
1193.21
1193.57
1193.96
1194.33
1194.74
1195.13
1195.59
1196.02
1196.62
1197.14
1197.97
1198.7
1199.94
1201.09
1202.94
1204.68
1207.13
1208.42
1209.85
1209.52
1210.69
949.717
951.358
952.539
954.438
955.664
957.167
958.166
959.229
960.018
960.808
961.453
962.075
962.621
963.137
963.623
964.093
964.542
964.976
965.397
965.81
966.214
966.613
967.01
967.402
967.791
968.177
968.561
968.943
969.322
969.698
970.073
970.446
970.816
971.185
971.553
971.921
972.287
972.651
973.014
973.376
973.737
974.096
974.454
974.811
975.167
975.523
975.878
976.233
976.587
976.941
977.294
977.647
977.999
978.352
978.705
979.058
979.411
979.764
980.117
980.471
980.825
981.179
981.533
981.888
982.243
982.598
982.954
983.309
983.665
984.02
984.375
984.73
985.085
985.439
985.793
986.146
986.499
986.851
987.203
987.554
987.904
988.254
988.603
988.951
989.298
989.645
989.991
990.337
990.682
991.027
991.372
991.718
992.063
992.408
992.754
993.1
993.446
993.791
994.137
994.484
994.83
995.178
995.526
995.875
996.225
996.575
996.926
997.278
997.63
997.983
998.336
998.689
999.044
999.399
999.754
1000.11
1000.46
1000.82
1001.17
1001.53
1001.89
1002.24
1002.59
1002.95
1003.3
1003.66
1004.01
1004.36
1004.71
1005.07
1005.42
1005.77
1006.12
1006.47
1006.81
1007.16
1007.51
1007.86
1008.21
1008.55
1008.9
1009.25
1009.59
1009.94
1010.29
1010.63
1010.98
1011.33
1011.67
1012.02
1012.37
1012.72
1013.07
1013.42
1013.77
1014.12
1014.47
1014.82
1015.18
1015.53
1015.88
1016.24
1016.59
1016.94
1017.3
1017.65
1018
1018.35
1018.7
1019.05
1019.4
1019.75
1020.1
1020.44
1020.79
1021.13
1021.47
1021.82
1022.16
1022.5
1022.84
1023.18
1023.52
1023.86
1024.2
1024.54
1024.88
1025.22
1025.56
1025.9
1026.24
1026.59
1026.93
1027.27
1027.62
1027.96
1028.31
1028.65
1029
1029.34
1029.69
1030.03
1030.38
1030.72
1031.07
1031.41
1031.75
1032.1
1032.44
1032.78
1033.12
1033.46
1033.8
1034.14
1034.48
1034.82
1035.16
1035.5
1035.83
1036.17
1036.51
1036.85
1037.18
1037.52
1037.86
1038.2
1038.54
1038.88
1039.22
1039.56
1039.9
1040.24
1040.58
1040.92
1041.26
1041.6
1041.94
1042.28
1042.62
1042.96
1043.31
1043.65
1043.99
1044.33
1044.67
1045.01
1045.35
1045.69
1046.03
1046.37
1046.71
1047.05
1047.39
1047.73
1048.07
1048.41
1048.75
1049.09
1049.43
1049.78
1050.12
1050.46
1050.8
1051.14
1051.49
1051.83
1052.17
1052.52
1052.86
1053.2
1053.55
1053.89
1054.24
1054.59
1054.93
1055.28
1055.63
1055.97
1056.32
1056.67
1057.02
1057.36
1057.71
1058.06
1058.41
1058.76
1059.1
1059.45
1059.8
1060.15
1060.5
1060.84
1061.19
1061.54
1061.89
1062.24
1062.58
1062.93
1063.28
1063.63
1063.98
1064.33
1064.67
1065.02
1065.37
1065.72
1066.07
1066.42
1066.76
1067.11
1067.46
1067.81
1068.16
1068.51
1068.85
1069.2
1069.55
1069.9
1070.24
1070.59
1070.94
1071.28
1071.63
1071.97
1072.32
1072.67
1073.01
1073.36
1073.7
1074.05
1074.4
1074.74
1075.09
1075.43
1075.78
1076.13
1076.47
1076.82
1077.17
1077.51
1077.86
1078.21
1078.55
1078.9
1079.25
1079.59
1079.94
1080.29
1080.64
1080.98
1081.33
1081.68
1082.02
1082.37
1082.72
1083.06
1083.41
1083.76
1084.1
1084.45
1084.8
1085.14
1085.49
1085.84
1086.19
1086.54
1086.89
1087.24
1087.59
1087.94
1088.29
1088.64
1089
1089.35
1089.7
1090.06
1090.42
1090.77
1091.13
1091.49
1091.85
1092.21
1092.57
1092.93
1093.29
1093.66
1094.02
1094.38
1094.75
1095.11
1095.47
1095.84
1096.2
1096.57
1096.93
1097.29
1097.65
1098.02
1098.38
1098.74
1099.1
1099.46
1099.82
1100.18
1100.53
1100.89
1101.24
1101.6
1101.95
1102.3
1102.65
1103
1103.35
1103.69
1104.04
1104.39
1104.73
1105.08
1105.42
1105.76
1106.1
1106.45
1106.79
1107.13
1107.48
1107.82
1108.16
1108.51
1108.85
1109.2
1109.55
1109.89
1110.24
1110.59
1110.94
1111.29
1111.65
1112
1112.35
1112.71
1113.06
1113.41
1113.77
1114.12
1114.48
1114.83
1115.19
1115.54
1115.89
1116.24
1116.6
1116.95
1117.3
1117.65
1118
1118.35
1118.7
1119.05
1119.4
1119.75
1120.1
1120.45
1120.8
1121.15
1121.5
1121.85
1122.2
1122.55
1122.9
1123.25
1123.6
1123.94
1124.29
1124.64
1124.99
1125.34
1125.69
1126.03
1126.38
1126.73
1127.08
1127.42
1127.77
1128.12
1128.47
1128.81
1129.16
1129.51
1129.86
1130.21
1130.56
1130.9
1131.25
1131.6
1131.95
1132.3
1132.65
1133
1133.35
1133.7
1134.05
1134.4
1134.75
1135.1
1135.45
1135.8
1136.15
1136.51
1136.86
1137.21
1137.56
1137.92
1138.27
1138.63
1138.98
1139.34
1139.69
1140.05
1140.41
1140.77
1141.12
1141.48
1141.84
1142.2
1142.55
1142.91
1143.27
1143.63
1143.99
1144.36
1144.72
1145.1
1145.47
1145.87
1146.26
1146.72
1147.14
1147.73
1148.23
1149.04
1149.72
1150.93
1151.99
1153.76
1155.37
1157.7
1159.05
1160.62
1160.56
1162.04
900.558
902.406
903.613
905.594
906.834
908.352
909.349
910.416
911.202
911.987
912.627
913.243
913.784
914.299
914.783
915.251
915.699
916.132
916.552
916.965
917.368
917.766
918.161
918.553
918.941
919.327
919.711
920.092
920.47
920.846
921.221
921.593
921.964
922.333
922.701
923.068
923.434
923.798
924.161
924.523
924.884
925.243
925.601
925.959
926.315
926.671
927.026
927.381
927.735
928.088
928.442
928.795
929.148
929.5
929.853
930.206
930.559
930.912
931.265
931.619
931.973
932.327
932.682
933.036
933.391
933.747
934.102
934.458
934.813
935.169
935.524
935.879
936.234
936.588
936.942
937.295
937.648
938.001
938.353
938.703
939.054
939.403
939.752
940.1
940.448
940.794
941.141
941.487
941.832
942.176
942.521
942.867
943.212
943.557
943.902
944.248
944.594
944.94
945.285
945.632
945.978
946.326
946.674
947.023
947.373
947.723
948.074
948.426
948.778
949.131
949.484
949.837
950.191
950.546
950.901
951.256
951.612
951.967
952.323
952.678
953.033
953.388
953.742
954.097
954.451
954.804
955.157
955.51
955.862
956.213
956.564
956.914
957.264
957.614
957.963
958.311
958.659
959.007
959.354
959.701
960.047
960.394
960.74
961.086
961.433
961.779
962.126
962.473
962.82
963.168
963.517
963.866
964.215
964.565
964.916
965.268
965.62
965.972
966.325
966.678
967.031
967.385
967.738
968.091
968.444
968.797
969.149
969.5
969.851
970.201
970.549
970.897
971.244
971.59
971.935
972.279
972.622
972.964
973.306
973.647
973.987
974.327
974.667
975.006
975.346
975.686
976.026
976.366
976.707
977.048
977.39
977.732
978.075
978.419
978.763
979.107
979.452
979.797
980.143
980.488
980.834
981.179
981.524
981.869
982.213
982.557
982.901
983.244
983.586
983.927
984.269
984.609
984.949
985.288
985.627
985.966
986.304
986.642
986.98
987.317
987.655
987.993
988.331
988.669
989.007
989.346
989.684
990.024
990.363
990.703
991.043
991.383
991.724
992.065
992.406
992.747
993.088
993.429
993.771
994.112
994.453
994.794
995.135
995.476
995.816
996.157
996.497
996.838
997.178
997.518
997.858
998.198
998.538
998.878
999.219
999.559
999.9
1000.24
1000.58
1000.92
1001.26
1001.61
1001.95
1002.29
1002.63
1002.98
1003.32
1003.66
1004.01
1004.35
1004.7
1005.04
1005.39
1005.73
1006.08
1006.43
1006.77
1007.12
1007.47
1007.82
1008.16
1008.51
1008.86
1009.21
1009.56
1009.9
1010.25
1010.6
1010.95
1011.3
1011.64
1011.99
1012.34
1012.69
1013.04
1013.38
1013.73
1014.08
1014.43
1014.78
1015.12
1015.47
1015.82
1016.17
1016.52
1016.87
1017.21
1017.56
1017.91
1018.26
1018.61
1018.96
1019.3
1019.65
1020
1020.35
1020.69
1021.04
1021.39
1021.74
1022.08
1022.43
1022.78
1023.12
1023.47
1023.81
1024.16
1024.5
1024.85
1025.2
1025.54
1025.89
1026.23
1026.58
1026.93
1027.27
1027.62
1027.97
1028.31
1028.66
1029.01
1029.35
1029.7
1030.05
1030.39
1030.74
1031.09
1031.43
1031.78
1032.13
1032.48
1032.82
1033.17
1033.52
1033.86
1034.21
1034.56
1034.9
1035.25
1035.6
1035.94
1036.29
1036.64
1036.99
1037.33
1037.68
1038.03
1038.38
1038.73
1039.08
1039.44
1039.79
1040.14
1040.5
1040.85
1041.21
1041.56
1041.92
1042.28
1042.64
1043
1043.36
1043.72
1044.08
1044.44
1044.8
1045.17
1045.53
1045.89
1046.26
1046.62
1046.98
1047.35
1047.71
1048.08
1048.44
1048.8
1049.16
1049.53
1049.89
1050.25
1050.61
1050.97
1051.32
1051.68
1052.04
1052.39
1052.74
1053.1
1053.45
1053.8
1054.15
1054.49
1054.84
1055.19
1055.53
1055.88
1056.22
1056.57
1056.91
1057.25
1057.59
1057.94
1058.28
1058.62
1058.97
1059.31
1059.65
1060
1060.35
1060.69
1061.04
1061.39
1061.74
1062.09
1062.44
1062.79
1063.15
1063.5
1063.85
1064.21
1064.56
1064.92
1065.27
1065.62
1065.98
1066.33
1066.69
1067.04
1067.39
1067.74
1068.1
1068.45
1068.8
1069.15
1069.5
1069.85
1070.2
1070.55
1070.9
1071.25
1071.6
1071.95
1072.3
1072.65
1073
1073.35
1073.69
1074.04
1074.39
1074.74
1075.09
1075.44
1075.79
1076.14
1076.48
1076.83
1077.18
1077.53
1077.88
1078.22
1078.57
1078.92
1079.27
1079.61
1079.96
1080.31
1080.66
1081.01
1081.35
1081.7
1082.05
1082.4
1082.75
1083.1
1083.45
1083.8
1084.15
1084.5
1084.85
1085.2
1085.55
1085.9
1086.25
1086.6
1086.95
1087.3
1087.65
1088
1088.36
1088.71
1089.06
1089.42
1089.77
1090.13
1090.48
1090.84
1091.2
1091.55
1091.91
1092.27
1092.63
1092.98
1093.34
1093.7
1094.06
1094.42
1094.78
1095.13
1095.5
1095.86
1096.24
1096.61
1097.01
1097.39
1097.85
1098.26
1098.83
1099.3
1100.09
1100.72
1101.88
1102.85
1104.52
1105.98
1108.17
1109.57
1111.19
1111.58
1113.31
851.325
853.44
854.675
856.759
858.017
859.553
860.541
861.605
862.38
863.161
863.796
864.408
864.946
865.459
865.94
866.405
866.85
867.282
867.702
868.113
868.517
868.915
869.311
869.703
870.091
870.477
870.86
871.241
871.62
871.996
872.371
872.743
873.114
873.483
873.851
874.218
874.584
874.948
875.311
875.673
876.033
876.392
876.75
877.107
877.463
877.819
878.174
878.529
878.882
879.236
879.589
879.942
880.294
880.647
881
881.352
881.706
882.059
882.412
882.766
883.12
883.474
883.829
884.183
884.538
884.894
885.249
885.605
885.961
886.316
886.672
887.027
887.382
887.736
888.089
888.442
888.795
889.149
889.501
889.851
890.201
890.551
890.9
891.248
891.595
891.942
892.288
892.634
892.979
893.324
893.669
894.014
894.359
894.705
895.05
895.396
895.742
896.087
896.433
896.779
897.126
897.474
897.822
898.171
898.52
898.871
899.222
899.573
899.925
900.278
900.632
900.985
901.339
901.694
902.049
902.404
902.759
903.115
903.47
903.826
904.181
904.536
904.89
905.244
905.598
905.952
906.305
906.657
907.009
907.361
907.712
908.062
908.412
908.761
909.11
909.459
909.807
910.154
910.501
910.848
911.195
911.541
911.887
912.233
912.58
912.926
913.273
913.62
913.967
914.315
914.664
915.013
915.362
915.713
916.063
916.415
916.767
917.119
917.472
917.825
918.178
918.532
918.885
919.239
919.592
919.944
920.296
920.648
920.998
921.348
921.697
922.045
922.392
922.738
923.082
923.426
923.769
924.112
924.453
924.794
925.134
925.474
925.814
926.154
926.493
926.833
927.173
927.513
927.854
928.195
928.537
928.879
929.222
929.566
929.91
930.254
930.599
930.944
931.29
931.635
931.981
932.326
932.671
933.016
933.36
933.704
934.048
934.391
934.733
935.075
935.416
935.756
936.096
936.435
936.774
937.113
937.451
937.789
938.127
938.464
938.802
939.14
939.477
939.815
940.154
940.492
940.831
941.17
941.51
941.85
942.19
942.53
942.871
943.211
943.553
943.894
944.235
944.576
944.917
945.259
945.6
945.941
946.282
946.623
946.963
947.304
947.644
947.984
948.325
948.665
949.005
949.345
949.685
950.025
950.365
950.706
951.046
951.387
951.728
952.069
952.411
952.752
953.094
953.437
953.779
954.122
954.465
954.809
955.153
955.498
955.842
956.188
956.533
956.879
957.226
957.572
957.919
958.266
958.614
958.962
959.309
959.657
960.005
960.354
960.702
961.05
961.398
961.746
962.094
962.442
962.79
963.138
963.486
963.834
964.182
964.53
964.878
965.226
965.574
965.922
966.27
966.618
966.967
967.315
967.664
968.012
968.361
968.709
969.058
969.406
969.755
970.103
970.451
970.799
971.147
971.494
971.841
972.189
972.536
972.882
973.229
973.575
973.922
974.268
974.614
974.96
975.305
975.651
975.997
976.343
976.689
977.034
977.38
977.726
978.073
978.419
978.765
979.112
979.458
979.805
980.152
980.499
980.846
981.193
981.54
981.887
982.234
982.581
982.929
983.276
983.623
983.97
984.316
984.663
985.01
985.357
985.703
986.05
986.396
986.743
987.09
987.437
987.785
988.132
988.481
988.829
989.178
989.528
989.879
990.23
990.582
990.934
991.287
991.642
991.997
992.352
992.709
993.066
993.425
993.783
994.143
994.503
994.864
995.225
995.587
995.95
996.313
996.676
997.039
997.403
997.767
998.131
998.495
998.858
999.222
999.585
999.948
1000.31
1000.67
1001.03
1001.39
1001.75