/*--------------------------------*- C++ -*----------------------------------*\
| =========                 |                                                 |
| \\      /  F ield         | foam-extend: Open Source CFD                    |
|  \\    /   O peration     | Version:     3.2                                |
|   \\  /    A nd           | Web:         http://www.foam-extend.org         |
|    \\/     M anipulation  | For copyright notice see file Copyright         |
\*---------------------------------------------------------------------------*/
FoamFile
{
    version     2.0;
    format      ascii;
    class       surfaceScalarField;
    location    "200";
    object      phi;
}
// * * * * * * * * * * * * * * * * * * * * * * * * * * * * * * * * * * * * * //

dimensions      [0 3 -1 0 0 0 0];

internalField   nonuniform List<scalar> 
65390
(
3.36473e-05
5.52749e-07
3.31393e-05
5.07927e-07
3.25296e-05
6.09773e-07
3.19307e-05
5.98863e-07
3.1313e-05
6.17713e-07
3.0736e-05
5.7696e-07
3.01719e-05
5.64153e-07
2.9636e-05
5.35883e-07
2.91143e-05
5.21709e-07
2.86157e-05
4.98538e-07
2.81352e-05
4.80527e-07
2.7676e-05
4.59196e-07
2.72347e-05
4.41308e-07
2.68091e-05
4.2558e-07
2.63988e-05
4.10353e-07
2.60054e-05
3.93331e-07
2.56297e-05
3.75698e-07
2.52705e-05
3.59263e-07
2.49252e-05
3.4528e-07
2.45927e-05
3.32524e-07
2.42728e-05
3.19906e-07
2.39656e-05
3.07185e-07
2.36717e-05
2.93882e-07
2.33918e-05
2.7993e-07
2.31262e-05
2.65592e-07
2.28752e-05
2.50938e-07
2.26385e-05
2.36717e-07
2.24147e-05
2.23815e-07
2.22026e-05
2.1215e-07
2.20013e-05
2.01239e-07
2.18107e-05
1.90661e-07
2.16303e-05
1.80358e-07
2.14597e-05
1.70569e-07
2.12984e-05
1.6132e-07
2.11459e-05
1.52468e-07
2.1002e-05
1.43915e-07
2.08663e-05
1.3576e-07
2.07382e-05
1.28028e-07
2.06175e-05
1.20685e-07
2.05039e-05
1.13622e-07
2.0397e-05
1.0688e-07
2.02964e-05
1.00623e-07
2.02016e-05
9.48456e-08
2.01121e-05
8.94722e-08
2.00277e-05
8.44263e-08
1.9948e-05
7.96567e-08
1.98729e-05
7.51601e-08
1.98019e-05
7.09496e-08
1.97349e-05
6.70042e-08
1.96716e-05
6.33531e-08
1.96116e-05
5.99775e-08
1.95548e-05
5.68255e-08
1.95008e-05
5.3904e-08
1.94497e-05
5.1182e-08
1.9401e-05
4.86391e-08
1.93548e-05
4.62393e-08
1.93109e-05
4.39284e-08
1.92691e-05
4.17798e-08
1.92292e-05
3.98383e-08
1.91912e-05
3.80329e-08
1.91549e-05
3.63456e-08
1.91201e-05
3.47497e-08
1.90869e-05
3.32204e-08
1.90551e-05
3.17986e-08
1.90246e-05
3.04877e-08
1.89953e-05
2.92779e-08
1.89672e-05
2.81418e-08
1.89401e-05
2.70633e-08
1.89141e-05
2.60287e-08
1.88891e-05
2.50362e-08
1.8865e-05
2.40796e-08
1.88418e-05
2.31655e-08
1.88196e-05
2.22529e-08
1.87982e-05
2.13916e-08
1.87775e-05
2.06977e-08
1.87574e-05
2.01074e-08
1.87378e-05
1.95167e-08
1.8719e-05
1.88585e-08
1.87007e-05
1.82496e-08
1.8683e-05
1.77462e-08
1.86657e-05
1.72774e-08
1.86489e-05
1.68546e-08
1.86324e-05
1.64627e-08
1.86163e-05
1.61152e-08
1.86005e-05
1.58173e-08
1.8585e-05
1.55141e-08
1.85698e-05
1.51825e-08
1.85549e-05
1.4855e-08
1.85404e-05
1.45539e-08
1.8526e-05
1.43811e-08
1.85118e-05
1.41858e-08
1.84979e-05
1.38569e-08
1.84844e-05
1.35185e-08
1.84712e-05
1.31865e-08
1.84584e-05
1.2873e-08
1.84458e-05
1.25291e-08
1.84337e-05
1.20975e-08
1.8422e-05
1.17793e-08
1.84103e-05
1.16654e-08
1.83987e-05
1.15969e-08
1.83871e-05
1.15883e-08
1.83755e-05
1.16029e-08
1.83639e-05
1.16472e-08
1.83521e-05
1.17056e-08
1.83404e-05
1.17836e-08
1.83285e-05
1.18713e-08
1.83165e-05
1.19744e-08
1.83044e-05
1.20813e-08
1.82922e-05
1.22006e-08
1.82799e-05
1.23102e-08
1.82675e-05
1.23992e-08
1.82549e-05
1.26065e-08
1.82421e-05
1.28591e-08
1.82291e-05
1.29815e-08
1.8216e-05
1.30781e-08
1.82028e-05
1.32056e-08
1.81895e-05
1.33089e-08
1.81761e-05
1.34055e-08
1.81626e-05
1.34857e-08
1.8149e-05
1.35593e-08
1.81354e-05
1.36272e-08
1.81217e-05
1.36938e-08
1.8108e-05
1.37602e-08
1.80941e-05
1.38244e-08
1.80802e-05
1.38836e-08
1.80663e-05
1.39346e-08
1.80523e-05
1.39769e-08
1.80383e-05
1.40095e-08
1.80243e-05
1.40337e-08
1.80102e-05
1.40493e-08
1.79962e-05
1.40575e-08
1.79821e-05
1.40575e-08
1.79681e-05
1.40497e-08
1.7954e-05
1.40329e-08
1.794e-05
1.40089e-08
1.79261e-05
1.39778e-08
1.79121e-05
1.39415e-08
1.78982e-05
1.39024e-08
1.78844e-05
1.38617e-08
1.78705e-05
1.38206e-08
1.78568e-05
1.37783e-08
1.7843e-05
1.37348e-08
1.78293e-05
1.36902e-08
1.78157e-05
1.36457e-08
1.78021e-05
1.36032e-08
1.77885e-05
1.35635e-08
1.7775e-05
1.35268e-08
1.77615e-05
1.34917e-08
1.7748e-05
1.34577e-08
1.77346e-05
1.34233e-08
1.77212e-05
1.3388e-08
1.77079e-05
1.33494e-08
1.76946e-05
1.33081e-08
1.76813e-05
1.32616e-08
1.76681e-05
1.32115e-08
1.76549e-05
1.31554e-08
1.76419e-05
1.30932e-08
1.76288e-05
1.30217e-08
1.76159e-05
1.29391e-08
1.76031e-05
1.28426e-08
1.75903e-05
1.27298e-08
1.75777e-05
1.25997e-08
1.75653e-05
1.2451e-08
1.7553e-05
1.22849e-08
1.75409e-05
1.2102e-08
1.7529e-05
1.19038e-08
1.75173e-05
1.16913e-08
1.75058e-05
1.14659e-08
1.74946e-05
1.12299e-08
1.74836e-05
1.09867e-08
1.74729e-05
1.07403e-08
1.74624e-05
1.04953e-08
1.74521e-05
1.02547e-08
1.74421e-05
1.00201e-08
1.74323e-05
9.7919e-09
1.74227e-05
9.57028e-09
1.74134e-05
9.35526e-09
1.74042e-05
9.14769e-09
1.73953e-05
8.94883e-09
1.73865e-05
8.76042e-09
1.73779e-05
8.58574e-09
1.73695e-05
8.42528e-09
1.73612e-05
8.28152e-09
1.73531e-05
8.15133e-09
1.7345e-05
8.03455e-09
1.73371e-05
7.93014e-09
1.73293e-05
7.83649e-09
1.73215e-05
7.75442e-09
1.73138e-05
7.67896e-09
1.73062e-05
7.6151e-09
1.72987e-05
7.56015e-09
1.72912e-05
7.51557e-09
1.72837e-05
7.47642e-09
1.72762e-05
7.44102e-09
1.72688e-05
7.40317e-09
1.72615e-05
7.35844e-09
1.72542e-05
7.30029e-09
1.72469e-05
7.23121e-09
1.72398e-05
7.15058e-09
1.72327e-05
7.06762e-09
1.72257e-05
6.9829e-09
1.72188e-05
6.90128e-09
1.7212e-05
6.82226e-09
1.72053e-05
6.74918e-09
1.71986e-05
6.68103e-09
1.7192e-05
6.63391e-09
1.71853e-05
6.63779e-09
1.71786e-05
6.6722e-09
1.71719e-05
6.70049e-09
1.71652e-05
6.72292e-09
1.71585e-05
6.73755e-09
1.71517e-05
6.74687e-09
1.7145e-05
6.75255e-09
1.71382e-05
6.75769e-09
1.71315e-05
6.76321e-09
1.71247e-05
6.7713e-09
1.71179e-05
6.78149e-09
1.71111e-05
6.79531e-09
1.71043e-05
6.81076e-09
1.70975e-05
6.82771e-09
1.70906e-05
6.84578e-09
1.70838e-05
6.86449e-09
1.70769e-05
6.88152e-09
1.707e-05
6.89492e-09
1.70631e-05
6.90372e-09
1.70562e-05
6.90776e-09
1.70493e-05
6.90694e-09
1.70424e-05
6.89954e-09
1.70355e-05
6.88526e-09
1.70286e-05
6.86363e-09
1.70218e-05
6.83469e-09
1.7015e-05
6.7981e-09
1.70082e-05
6.75484e-09
1.70015e-05
6.70456e-09
1.69949e-05
6.64847e-09
1.69883e-05
6.58551e-09
1.69818e-05
6.51667e-09
1.69753e-05
6.44117e-09
1.6969e-05
6.36113e-09
1.69627e-05
6.27607e-09
1.69565e-05
6.1877e-09
1.69504e-05
6.09576e-09
1.69444e-05
6.00129e-09
1.69385e-05
5.90377e-09
1.69327e-05
5.80444e-09
1.6927e-05
5.70293e-09
1.69214e-05
5.60077e-09
1.69159e-05
5.4982e-09
1.69105e-05
5.39492e-09
1.69052e-05
5.29097e-09
1.69e-05
5.1875e-09
1.68949e-05
5.08617e-09
1.68899e-05
4.98986e-09
1.6885e-05
4.89945e-09
1.68802e-05
4.81531e-09
1.68755e-05
4.7359e-09
1.68708e-05
4.65827e-09
1.68663e-05
4.57831e-09
1.68618e-05
4.49355e-09
1.68574e-05
4.4032e-09
1.68531e-05
4.30756e-09
1.68488e-05
4.2079e-09
1.68447e-05
4.10685e-09
1.68407e-05
4.00606e-09
1.68368e-05
3.9064e-09
1.6833e-05
3.80667e-09
1.68293e-05
3.70677e-09
1.68257e-05
3.60579e-09
1.68222e-05
3.50335e-09
1.68188e-05
3.39792e-09
1.68155e-05
3.28944e-09
1.68123e-05
3.17778e-09
1.68093e-05
3.06356e-09
1.68063e-05
2.94612e-09
1.68035e-05
2.82688e-09
1.68008e-05
2.70671e-09
1.67982e-05
2.58905e-09
1.67957e-05
2.4768e-09
1.67934e-05
2.37309e-09
1.67911e-05
2.28085e-09
1.67889e-05
2.20206e-09
1.67867e-05
2.13779e-09
1.67847e-05
2.08668e-09
1.67826e-05
2.04751e-09
1.67806e-05
2.02018e-09
1.67786e-05
2.0048e-09
1.67766e-05
2.00287e-09
1.67746e-05
2.01543e-09
1.67725e-05
2.04269e-09
1.67704e-05
2.08362e-09
1.67683e-05
2.1356e-09
1.67661e-05
2.19503e-09
1.67638e-05
2.25827e-09
1.67615e-05
2.32225e-09
1.67591e-05
2.38571e-09
1.67567e-05
2.44813e-09
1.67542e-05
2.51052e-09
1.67516e-05
2.5735e-09
1.6749e-05
2.63703e-09
1.67463e-05
2.69955e-09
1.67435e-05
2.76048e-09
1.67407e-05
2.81807e-09
1.67378e-05
2.8719e-09
1.67349e-05
2.9213e-09
1.67319e-05
2.96699e-09
1.67289e-05
3.00862e-09
1.67259e-05
3.04774e-09
1.67228e-05
3.08564e-09
1.67197e-05
3.1241e-09
1.67165e-05
3.16326e-09
1.67133e-05
3.20344e-09
1.67101e-05
3.24477e-09
1.67068e-05
3.28799e-09
1.67034e-05
3.33385e-09
1.67e-05
3.38179e-09
1.66966e-05
3.43028e-09
1.66931e-05
3.47783e-09
1.66896e-05
3.52438e-09
1.6686e-05
3.56927e-09
1.66824e-05
3.61319e-09
1.66788e-05
3.65664e-09
1.66751e-05
3.7007e-09
1.66713e-05
3.74585e-09
1.66675e-05
3.79239e-09
1.66637e-05
3.83836e-09
1.66598e-05
3.88212e-09
1.66559e-05
3.92258e-09
1.66519e-05
3.96071e-09
1.66479e-05
3.99815e-09
1.66439e-05
4.03706e-09
1.66398e-05
4.08009e-09
1.66357e-05
4.12823e-09
1.66315e-05
4.18207e-09
1.66273e-05
4.24153e-09
1.6623e-05
4.30627e-09
1.66186e-05
4.37595e-09
1.66141e-05
4.45016e-09
1.66096e-05
4.52795e-09
1.6605e-05
4.60863e-09
1.66003e-05
4.69121e-09
1.65955e-05
4.77514e-09
1.65907e-05
4.85957e-09
1.65857e-05
4.9443e-09
1.65807e-05
5.02817e-09
1.65756e-05
5.10934e-09
1.65704e-05
5.18517e-09
1.65652e-05
5.25348e-09
1.65598e-05
5.31191e-09
1.65545e-05
5.35879e-09
1.65491e-05
5.39305e-09
1.65437e-05
5.4156e-09
1.65383e-05
5.42849e-09
1.65328e-05
5.43355e-09
1.65274e-05
5.43157e-09
1.6522e-05
5.42167e-09
1.65166e-05
5.40435e-09
1.65112e-05
5.37847e-09
1.65058e-05
5.34633e-09
1.65005e-05
5.30794e-09
1.64953e-05
5.26869e-09
1.649e-05
5.23104e-09
1.64848e-05
5.20207e-09
1.64796e-05
5.18312e-09
1.64745e-05
5.17985e-09
1.64693e-05
5.19141e-09
1.64641e-05
5.22008e-09
1.64588e-05
5.26104e-09
1.64535e-05
5.31428e-09
1.64481e-05
5.37478e-09
1.64427e-05
5.44272e-09
1.64371e-05
5.51603e-09
1.64315e-05
5.59711e-09
1.64259e-05
5.68461e-09
1.64201e-05
5.77724e-09
1.64142e-05
5.87085e-09
1.64083e-05
5.96366e-09
1.64022e-05
6.05214e-09
1.63961e-05
6.13532e-09
1.63899e-05
6.21039e-09
1.63836e-05
6.27676e-09
1.63772e-05
6.33251e-09
1.63709e-05
6.37695e-09
1.63645e-05
6.40863e-09
1.6358e-05
6.42778e-09
1.63516e-05
6.43381e-09
1.63452e-05
6.42825e-09
1.63388e-05
6.41042e-09
1.63324e-05
6.38036e-09
1.6326e-05
6.3353e-09
1.63198e-05
6.27481e-09
1.63136e-05
6.1984e-09
1.63075e-05
6.11022e-09
1.63014e-05
6.0112e-09
1.62955e-05
5.90637e-09
1.62897e-05
5.79552e-09
1.62841e-05
5.68287e-09
1.62785e-05
5.56737e-09
1.6273e-05
5.44959e-09
1.62677e-05
5.32715e-09
1.62625e-05
5.20099e-09
1.62574e-05
5.07213e-09
1.62525e-05
4.94377e-09
1.62477e-05
4.82016e-09
1.6243e-05
4.70351e-09
1.62384e-05
4.59552e-09
1.62339e-05
4.4967e-09
1.62295e-05
4.40725e-09
1.62252e-05
4.32717e-09
1.62209e-05
4.25648e-09
1.62167e-05
4.19642e-09
1.62125e-05
4.14851e-09
1.62084e-05
4.11385e-09
1.62043e-05
4.09157e-09
1.62003e-05
4.08013e-09
1.61962e-05
4.07498e-09
1.61921e-05
4.0724e-09
1.6188e-05
4.06852e-09
1.6184e-05
4.06237e-09
1.61799e-05
4.05402e-09
1.61759e-05
4.04501e-09
1.61719e-05
4.03709e-09
1.61678e-05
4.0322e-09
1.61638e-05
4.03205e-09
1.61598e-05
4.03792e-09
1.61557e-05
4.05148e-09
1.61516e-05
4.0737e-09
1.61475e-05
4.10417e-09
1.61434e-05
4.14314e-09
1.61392e-05
4.18964e-09
1.61349e-05
4.24489e-09
1.61306e-05
4.30944e-09
1.61262e-05
4.38521e-09
1.61218e-05
4.47238e-09
1.61172e-05
4.56967e-09
1.61125e-05
4.6756e-09
1.61077e-05
4.78648e-09
1.61028e-05
4.9025e-09
1.60978e-05
5.02192e-09
1.60927e-05
5.14568e-09
1.60874e-05
5.26817e-09
1.6082e-05
5.38574e-09
1.60765e-05
5.49298e-09
1.60709e-05
5.58721e-09
1.60653e-05
5.66799e-09
1.60595e-05
5.73483e-09
1.60537e-05
5.78988e-09
1.60479e-05
5.83458e-09
1.6042e-05
5.87318e-09
1.60361e-05
5.90843e-09
1.60302e-05
5.9432e-09
1.60242e-05
5.97632e-09
1.60182e-05
6.00768e-09
1.60122e-05
6.03608e-09
1.60061e-05
6.0627e-09
1.6e-05
6.08859e-09
1.59939e-05
6.11551e-09
1.59878e-05
6.14318e-09
1.59816e-05
6.1723e-09
1.59754e-05
6.20058e-09
1.59692e-05
6.22876e-09
1.59629e-05
6.25618e-09
1.59566e-05
6.28481e-09
1.59503e-05
6.3169e-09
1.59439e-05
6.35381e-09
1.59375e-05
6.3991e-09
1.59311e-05
6.45253e-09
1.59246e-05
6.51748e-09
1.5918e-05
6.59105e-09
1.59113e-05
6.67409e-09
1.59046e-05
6.75983e-09
1.58977e-05
6.84779e-09
1.58908e-05
6.93022e-09
1.58838e-05
7.00947e-09
1.58767e-05
7.07819e-09
1.58695e-05
7.14104e-09
1.58624e-05
7.18897e-09
1.58551e-05
7.225e-09
1.58479e-05
7.24043e-09
1.58406e-05
7.24064e-09
1.58334e-05
7.22218e-09
1.58262e-05
7.19352e-09
1.58191e-05
7.15465e-09
1.5812e-05
7.11338e-09
1.58049e-05
7.06833e-09
1.57979e-05
7.02657e-09
1.57909e-05
6.9836e-09
1.57839e-05
6.94179e-09
1.57771e-05
6.88948e-09
1.57702e-05
6.82872e-09
1.57635e-05
6.75018e-09
1.57568e-05
6.66427e-09
1.57502e-05
6.56853e-09
1.57438e-05
6.48298e-09
1.57374e-05
6.40629e-09
1.5731e-05
6.35663e-09
1.57247e-05
6.31901e-09
1.57184e-05
6.30626e-09
1.57121e-05
6.29535e-09
1.57058e-05
6.3004e-09
1.56995e-05
6.29251e-09
1.56932e-05
6.29321e-09
1.56869e-05
6.27227e-09
1.56806e-05
6.26856e-09
1.56744e-05
6.24913e-09
1.56681e-05
6.26553e-09
1.56619e-05
6.27439e-09
1.56555e-05
6.33264e-09
1.56491e-05
6.38132e-09
1.56427e-05
6.48672e-09
1.56361e-05
6.56782e-09
1.56294e-05
6.70402e-09
1.56226e-05
6.79227e-09
1.56157e-05
6.93736e-09
1.56087e-05
7.00059e-09
1.56015e-05
7.11346e-09
1.55944e-05
7.10801e-09
1.55873e-05
7.17247e-09
1.55802e-05
7.10577e-09
1.5573e-05
7.17137e-09
1.55659e-05
7.10315e-09
1.55586e-05
7.25142e-09
1.55514e-05
7.24955e-09
1.55438e-05
7.56374e-09
1.55361e-05
7.69745e-09
1.55278e-05
8.28916e-09
1.55191e-05
8.72321e-09
1.55093e-05
9.80555e-09
1.54983e-05
1.09709e-08
1.54853e-05
1.30211e-08
1.54695e-05
1.58237e-08
1.5449e-05
2.0517e-08
1.54225e-05
2.65148e-08
1.53857e-05
3.67982e-08
1.5336e-05
4.96178e-08
1.52644e-05
7.16295e-08
1.51651e-05
9.92643e-08
1.50184e-05
1.46791e-07
1.48117e-05
2.06647e-07
1.45018e-05
3.099e-07
1.40659e-05
4.35954e-07
1.34165e-05
6.49385e-07
1.2506e-05
9.10465e-07
1.12509e-05
1.25515e-06
9.60131e-06
1.64955e-06
7.47035e-06
2.13095e-06
4.11339e-06
3.35697e-06
1.00462e-06
3.10877e-06
-8.08233e-07
1.81285e-06
-2.15913e-06
1.35089e-06
-2.15913e-06
3.40239e-05
7.28843e-07
3.37808e-05
7.51064e-07
3.34064e-05
9.84177e-07
3.30458e-05
9.59472e-07
3.26882e-05
9.75248e-07
3.23668e-05
8.9838e-07
3.20452e-05
8.85743e-07
3.17722e-05
8.08922e-07
3.15384e-05
7.55475e-07
3.13358e-05
7.0115e-07
3.11448e-05
6.71557e-07
3.09628e-05
6.41151e-07
3.07834e-05
6.20726e-07
3.06059e-05
6.03055e-07
3.04282e-05
5.88059e-07
3.02484e-05
5.73125e-07
3.00608e-05
5.63286e-07
2.9866e-05
5.54103e-07
2.96704e-05
5.40839e-07
2.94762e-05
5.26756e-07
2.9283e-05
5.13153e-07
2.90902e-05
4.99941e-07
2.88983e-05
4.85792e-07
2.87078e-05
4.70417e-07
2.8519e-05
4.54413e-07
2.83319e-05
4.38e-07
2.81469e-05
4.21745e-07
2.79654e-05
4.05314e-07
2.77885e-05
3.89052e-07
2.76159e-05
3.73863e-07
2.74476e-05
3.58887e-07
2.72842e-05
3.4378e-07
2.71257e-05
3.29115e-07
2.69718e-05
3.15169e-07
2.68226e-05
3.01709e-07
2.6678e-05
2.8849e-07
2.65381e-05
2.75684e-07
2.64027e-05
2.63419e-07
2.62717e-05
2.51661e-07
2.61451e-05
2.40238e-07
2.60229e-05
2.29064e-07
2.5905e-05
2.18569e-07
2.5791e-05
2.08772e-07
2.5681e-05
1.99538e-07
2.55747e-05
1.90668e-07
2.54722e-05
1.82207e-07
2.53728e-05
1.74544e-07
2.52764e-05
1.67402e-07
2.51827e-05
1.60654e-07
2.50917e-05
1.54335e-07
2.50033e-05
1.48403e-07
2.49174e-05
1.42753e-07
2.48339e-05
1.37409e-07
2.47527e-05
1.32328e-07
2.46739e-05
1.27475e-07
2.45973e-05
1.22813e-07
2.4523e-05
1.18222e-07
2.4451e-05
1.13799e-07
2.43811e-05
1.09729e-07
2.43133e-05
1.05867e-07
2.42474e-05
1.02181e-07
2.41836e-05
9.86084e-08
2.41216e-05
9.51545e-08
2.40615e-05
9.19016e-08
2.40031e-05
8.88777e-08
2.39464e-05
8.60728e-08
2.38911e-05
8.34317e-08
2.38372e-05
8.09229e-08
2.37847e-05
7.8495e-08
2.37336e-05
7.61431e-08
2.36839e-05
7.3821e-08
2.36355e-05
7.15492e-08
2.35885e-05
6.92546e-08
2.3543e-05
6.69296e-08
2.34988e-05
6.4896e-08
2.34558e-05
6.30625e-08
2.34141e-05
6.12472e-08
2.33737e-05
5.92511e-08
2.33347e-05
5.72851e-08
2.32968e-05
5.55961e-08
2.32601e-05
5.40204e-08
2.32243e-05
5.25626e-08
2.31896e-05
5.1224e-08
2.31557e-05
4.99911e-08
2.31226e-05
4.88813e-08
2.30903e-05
4.78489e-08
2.30588e-05
4.67444e-08
2.30279e-05
4.56655e-08
2.29979e-05
4.45693e-08
2.29686e-05
4.37383e-08
2.29398e-05
4.29426e-08
2.29117e-05
4.19306e-08
2.28844e-05
4.09056e-08
2.28576e-05
3.99716e-08
2.28314e-05
3.90876e-08
2.28056e-05
3.83212e-08
2.27801e-05
3.75191e-08
2.27551e-05
3.67888e-08
2.27303e-05
3.65168e-08
2.27055e-05
3.63558e-08
2.26808e-05
3.62854e-08
2.26562e-05
3.62549e-08
2.26315e-05
3.62804e-08
2.26069e-05
3.6317e-08
2.25823e-05
3.64007e-08
2.25577e-05
3.64832e-08
2.25331e-05
3.65811e-08
2.25085e-05
3.66779e-08
2.24839e-05
3.6758e-08
2.24594e-05
3.68525e-08
2.24349e-05
3.68425e-08
2.24106e-05
3.70035e-08
2.2386e-05
3.7376e-08
2.23615e-05
3.75041e-08
2.23371e-05
3.75052e-08
2.23127e-05
3.75982e-08
2.22884e-05
3.76444e-08
2.22641e-05
3.76624e-08
2.22399e-05
3.76459e-08
2.22159e-05
3.7605e-08
2.2192e-05
3.75512e-08
2.21682e-05
3.74916e-08
2.21445e-05
3.74341e-08
2.21209e-05
3.73747e-08
2.20975e-05
3.73083e-08
2.20742e-05
3.72283e-08
2.20511e-05
3.71328e-08
2.20281e-05
3.70198e-08
2.20052e-05
3.6892e-08
2.19825e-05
3.6749e-08
2.196e-05
3.65928e-08
2.19376e-05
3.64213e-08
2.19154e-05
3.62347e-08
2.18934e-05
3.60306e-08
2.18716e-05
3.58116e-08
2.185e-05
3.55785e-08
2.18286e-05
3.53352e-08
2.18074e-05
3.50896e-08
2.17865e-05
3.48449e-08
2.17657e-05
3.4603e-08
2.17451e-05
3.43608e-08
2.17247e-05
3.41165e-08
2.17045e-05
3.38714e-08
2.16845e-05
3.36288e-08
2.16648e-05
3.33956e-08
2.16451e-05
3.31746e-08
2.16257e-05
3.29674e-08
2.16064e-05
3.27714e-08
2.15873e-05
3.25857e-08
2.15683e-05
3.24057e-08
2.15495e-05
3.22312e-08
2.15308e-05
3.20558e-08
2.15122e-05
3.18825e-08
2.14937e-05
3.17043e-08
2.14754e-05
3.15236e-08
2.14573e-05
3.1334e-08
2.14392e-05
3.11342e-08
2.14213e-05
3.09193e-08
2.14036e-05
3.06864e-08
2.1386e-05
3.0433e-08
2.13686e-05
3.01569e-08
2.13513e-05
2.98561e-08
2.13342e-05
2.9528e-08
2.13173e-05
2.9172e-08
2.13007e-05
2.87857e-08
2.12842e-05
2.83683e-08
2.1268e-05
2.7919e-08
2.1252e-05
2.74408e-08
2.12363e-05
2.69394e-08
2.12208e-05
2.64261e-08
2.12057e-05
2.59122e-08
2.11907e-05
2.54105e-08
2.11761e-05
2.4924e-08
2.11616e-05
2.44547e-08
2.11474e-05
2.40009e-08
2.11334e-05
2.35589e-08
2.11197e-05
2.31294e-08
2.11061e-05
2.27139e-08
2.10927e-05
2.23163e-08
2.10796e-05
2.19437e-08
2.10665e-05
2.16013e-08
2.10537e-05
2.12889e-08
2.10409e-05
2.10091e-08
2.10283e-05
2.07537e-08
2.10159e-05
2.05233e-08
2.10035e-05
2.03164e-08
2.09912e-05
2.01313e-08
2.0979e-05
1.99706e-08
2.09668e-05
1.98241e-08
2.09547e-05
1.97045e-08
2.09427e-05
1.96034e-08
2.09307e-05
1.95246e-08
2.09187e-05
1.94536e-08
2.09068e-05
1.93863e-08
2.08948e-05
1.931e-08
2.0883e-05
1.92135e-08
2.08712e-05
1.90875e-08
2.08595e-05
1.89357e-08
2.08479e-05
1.87582e-08
2.08364e-05
1.8573e-08
2.0825e-05
1.83835e-08
2.08137e-05
1.82014e-08
2.08025e-05
1.80226e-08
2.07914e-05
1.78553e-08
2.07804e-05
1.76943e-08
2.07694e-05
1.75527e-08
2.07586e-05
1.74402e-08
2.0748e-05
1.73372e-08
2.07374e-05
1.72323e-08
2.0727e-05
1.71276e-08
2.07168e-05
1.70231e-08
2.07066e-05
1.6924e-08
2.06965e-05
1.6833e-08
2.06865e-05
1.6753e-08
2.06766e-05
1.66818e-08
2.06667e-05
1.66224e-08
2.06569e-05
1.6572e-08
2.06472e-05
1.65335e-08
2.06375e-05
1.6502e-08
2.06279e-05
1.64773e-08
2.06182e-05
1.64589e-08
2.06087e-05
1.64453e-08
2.05991e-05
1.6431e-08
2.05896e-05
1.64122e-08
2.05801e-05
1.6387e-08
2.05707e-05
1.6356e-08
2.05613e-05
1.63183e-08
2.05519e-05
1.62697e-08
2.05426e-05
1.62089e-08
2.05333e-05
1.61345e-08
2.05241e-05
1.60456e-08
2.05149e-05
1.59414e-08
2.05059e-05
1.58241e-08
2.04969e-05
1.56941e-08
2.0488e-05
1.5554e-08
2.04792e-05
1.54011e-08
2.04704e-05
1.52384e-08
2.04618e-05
1.50622e-08
2.04533e-05
1.48772e-08
2.04449e-05
1.46823e-08
2.04366e-05
1.44819e-08
2.04284e-05
1.42755e-08
2.04204e-05
1.40665e-08
2.04124e-05
1.38547e-08
2.04046e-05
1.36425e-08
2.03968e-05
1.34282e-08
2.03892e-05
1.32132e-08
2.03817e-05
1.29965e-08
2.03743e-05
1.27761e-08
2.03671e-05
1.25514e-08
2.03599e-05
1.23262e-08
2.03529e-05
1.21047e-08
2.0346e-05
1.18946e-08
2.03392e-05
1.1699e-08
2.03325e-05
1.15177e-08
2.03259e-05
1.1349e-08
2.03194e-05
1.11856e-08
2.03129e-05
1.10194e-08
2.03066e-05
1.08451e-08
2.03003e-05
1.06608e-08
2.02942e-05
1.04669e-08
2.02881e-05
1.02652e-08
2.02822e-05
1.0061e-08
2.02763e-05
9.8571e-09
2.02706e-05
9.65435e-09
2.02649e-05
9.45009e-09
2.02594e-05
9.24615e-09
2.02539e-05
9.04159e-09
2.02486e-05
8.83611e-09
2.02434e-05
8.62647e-09
2.02383e-05
8.41002e-09
2.02333e-05
8.18463e-09
2.02284e-05
7.95107e-09
2.02236e-05
7.70855e-09
2.0219e-05
7.46144e-09
2.02145e-05
7.21373e-09
2.02101e-05
6.97329e-09
2.02058e-05
6.74695e-09
2.02016e-05
6.54013e-09
2.01976e-05
6.357e-09
2.01936e-05
6.20094e-09
2.01896e-05
6.07125e-09
2.01858e-05
5.96447e-09
2.01819e-05
5.87774e-09
2.01781e-05
5.81114e-09
2.01744e-05
5.7668e-09
2.01706e-05
5.75055e-09
2.01669e-05
5.76645e-09
2.01631e-05
5.81451e-09
2.01593e-05
5.89261e-09
2.01554e-05
5.99466e-09
2.01515e-05
6.11092e-09
2.01475e-05
6.23304e-09
2.01435e-05
6.35415e-09
2.01394e-05
6.4711e-09
2.01353e-05
6.58403e-09
2.01311e-05
6.69541e-09
2.01269e-05
6.80753e-09
2.01226e-05
6.9207e-09
2.01183e-05
7.03157e-09
2.01139e-05
7.13788e-09
2.01095e-05
7.2357e-09
2.0105e-05
7.32481e-09
2.01005e-05
7.40403e-09
2.0096e-05
7.47491e-09
2.00915e-05
7.53694e-09
2.00869e-05
7.59478e-09
2.00824e-05
7.65146e-09
2.00778e-05
7.70937e-09
2.00732e-05
7.76721e-09
2.00686e-05
7.82479e-09
2.00639e-05
7.88224e-09
2.00593e-05
7.94147e-09
2.00546e-05
8.00349e-09
2.00499e-05
8.0679e-09
2.00452e-05
8.1347e-09
2.00405e-05
8.20242e-09
2.00357e-05
8.271e-09
2.0031e-05
8.33855e-09
2.00262e-05
8.40476e-09
2.00214e-05
8.47074e-09
2.00165e-05
8.53967e-09
2.00117e-05
8.61418e-09
2.00068e-05
8.69579e-09
2.00018e-05
8.78007e-09
1.99968e-05
8.86182e-09
1.99918e-05
8.93533e-09
1.99868e-05
8.9999e-09
1.99817e-05
9.05763e-09
1.99766e-05
9.11419e-09
1.99715e-05
9.17692e-09
1.99664e-05
9.25008e-09
1.99613e-05
9.33624e-09
1.99561e-05
9.43533e-09
1.99508e-05
9.5456e-09
1.99456e-05
9.66508e-09
1.99402e-05
9.79222e-09
1.99348e-05
9.92575e-09
1.99294e-05
1.00646e-08
1.99238e-05
1.02071e-08
1.99183e-05
1.03533e-08
1.99126e-05
1.0502e-08
1.99069e-05
1.06546e-08
1.99011e-05
1.08091e-08
1.98953e-05
1.09622e-08
1.98894e-05
1.11085e-08
1.98834e-05
1.12446e-08
1.98773e-05
1.13653e-08
1.98712e-05
1.14658e-08
1.98651e-05
1.15413e-08
1.98589e-05
1.15925e-08
1.98527e-05
1.16236e-08
1.98465e-05
1.16396e-08
1.98403e-05
1.16449e-08
1.9834e-05
1.16387e-08
1.98278e-05
1.16208e-08
1.98216e-05
1.15862e-08
1.98154e-05
1.15379e-08
1.98093e-05
1.14728e-08
1.98031e-05
1.13996e-08
1.9797e-05
1.13223e-08
1.9791e-05
1.12574e-08
1.9785e-05
1.12075e-08
1.9779e-05
1.1186e-08
1.9773e-05
1.11942e-08
1.97669e-05
1.12402e-08
1.97609e-05
1.13156e-08
1.97548e-05
1.14168e-08
1.97486e-05
1.15307e-08
1.97424e-05
1.16558e-08
1.97361e-05
1.17887e-08
1.97298e-05
1.19356e-08
1.97234e-05
1.20958e-08
1.97169e-05
1.22702e-08
1.97103e-05
1.24518e-08
1.97036e-05
1.26365e-08
1.96969e-05
1.28166e-08
1.969e-05
1.29888e-08
1.96831e-05
1.31467e-08
1.96761e-05
1.32894e-08
1.9669e-05
1.34137e-08
1.96619e-05
1.35171e-08
1.96547e-05
1.35962e-08
1.96474e-05
1.36501e-08
1.96402e-05
1.36782e-08
1.96329e-05
1.36839e-08
1.96257e-05
1.36669e-08
1.96184e-05
1.36263e-08
1.96112e-05
1.35572e-08
1.9604e-05
1.34568e-08
1.95969e-05
1.33232e-08
1.95899e-05
1.31659e-08
1.95829e-05
1.29856e-08
1.9576e-05
1.27935e-08
1.95692e-05
1.25889e-08
1.95625e-05
1.23817e-08
1.95559e-05
1.2168e-08
1.95494e-05
1.19493e-08
1.9543e-05
1.17198e-08
1.95367e-05
1.14801e-08
1.95306e-05
1.12309e-08
1.95245e-05
1.09785e-08
1.95186e-05
1.07316e-08
1.95128e-05
1.04965e-08
1.95072e-05
1.02769e-08
1.95016e-05
1.00746e-08
1.94961e-05
9.89068e-09
1.94907e-05
9.72475e-09
1.94854e-05
9.57677e-09
1.94801e-05
9.44933e-09
1.94749e-05
9.3461e-09
1.94698e-05
9.27046e-09
1.94646e-05
9.22315e-09
1.94595e-05
9.20173e-09
1.94544e-05
9.19764e-09
1.94493e-05
9.20383e-09
1.94441e-05
9.21003e-09
1.9439e-05
9.21177e-09
1.94338e-05
9.20803e-09
1.94287e-05
9.20101e-09
1.94235e-05
9.19554e-09
1.94183e-05
9.19615e-09
1.94132e-05
9.20668e-09
1.9408e-05
9.22785e-09
1.94028e-05
9.26178e-09
1.93975e-05
9.31037e-09
1.93923e-05
9.37173e-09
1.9387e-05
9.4472e-09
1.93816e-05
9.53351e-09
1.93762e-05
9.6329e-09
1.93708e-05
9.74591e-09
1.93653e-05
9.87631e-09
1.93597e-05
1.00253e-08
1.93541e-05
1.01918e-08
1.93484e-05
1.03745e-08
1.93426e-05
1.05664e-08
1.93368e-05
1.07679e-08
1.93308e-05
1.09764e-08
1.93248e-05
1.11962e-08
1.93186e-05
1.14173e-08
1.93124e-05
1.16323e-08
1.9306e-05
1.18312e-08
1.92996e-05
1.20078e-08
1.92931e-05
1.21615e-08
1.92866e-05
1.22891e-08
1.928e-05
1.2394e-08
1.92733e-05
1.24793e-08
1.92666e-05
1.2555e-08
1.92599e-05
1.26292e-08
1.92532e-05
1.27068e-08
1.92463e-05
1.27821e-08
1.92395e-05
1.28527e-08
1.92326e-05
1.2915e-08
1.92257e-05
1.29719e-08
1.92188e-05
1.30243e-08
1.92118e-05
1.3079e-08
1.92048e-05
1.31338e-08
1.91978e-05
1.31912e-08
1.91908e-05
1.32417e-08
1.91837e-05
1.32883e-08
1.91766e-05
1.33268e-08
1.91696e-05
1.33635e-08
1.91625e-05
1.34025e-08
1.91554e-05
1.34514e-08
1.91483e-05
1.35151e-08
1.91411e-05
1.35965e-08
1.91339e-05
1.36999e-08
1.91267e-05
1.38261e-08
1.91194e-05
1.39742e-08
1.9112e-05
1.41363e-08
1.91046e-05
1.43032e-08
1.9097e-05
1.44647e-08
1.90894e-05
1.46204e-08
1.90817e-05
1.47664e-08
1.9074e-05
1.49058e-08
1.90661e-05
1.50283e-08
1.90582e-05
1.51252e-08
1.90503e-05
1.51845e-08
1.90423e-05
1.52002e-08
1.90344e-05
1.51791e-08
1.90264e-05
1.51227e-08
1.90185e-05
1.5052e-08
1.90107e-05
1.49677e-08
1.90029e-05
1.48942e-08
1.89951e-05
1.48218e-08
1.89873e-05
1.47653e-08
1.89795e-05
1.46941e-08
1.89718e-05
1.46128e-08
1.89641e-05
1.44858e-08
1.89566e-05
1.43369e-08
1.89491e-05
1.41413e-08
1.89417e-05
1.3946e-08
1.89344e-05
1.37388e-08
1.89273e-05
1.35822e-08
1.89202e-05
1.34437e-08
1.89131e-05
1.33697e-08
1.89061e-05
1.32997e-08
1.88991e-05
1.32913e-08
1.88922e-05
1.32733e-08
1.88852e-05
1.33022e-08
1.88782e-05
1.32893e-08
1.88711e-05
1.32988e-08
1.88641e-05
1.3261e-08
1.88571e-05
1.32559e-08
1.88502e-05
1.32339e-08
1.88432e-05
1.32819e-08
1.88362e-05
1.33351e-08
1.88291e-05
1.34762e-08
1.88219e-05
1.36212e-08
1.88147e-05
1.38336e-08
1.88073e-05
1.40339e-08
1.87999e-05
1.42794e-08
1.87923e-05
1.45118e-08
1.87845e-05
1.47524e-08
1.87767e-05
1.49312e-08
1.87688e-05
1.50588e-08
1.87608e-05
1.51111e-08
1.87528e-05
1.50921e-08
1.87449e-05
1.50894e-08
1.8737e-05
1.50405e-08
1.87291e-05
1.51673e-08
1.87211e-05
1.5246e-08
1.87129e-05
1.56975e-08
1.87046e-05
1.60471e-08
1.86958e-05
1.70606e-08
1.86866e-05
1.79809e-08
1.86764e-05
1.99162e-08
1.86652e-05
2.22137e-08
1.86524e-05
2.57807e-08
1.86372e-05
3.10716e-08
1.86186e-05
3.90941e-08
1.85948e-05
5.03699e-08
1.85636e-05
6.79301e-08
1.8521e-05
9.22114e-08
1.84628e-05
1.29902e-07
1.83795e-05
1.82548e-07
1.82626e-05
2.63628e-07
1.80917e-05
3.77618e-07
1.78486e-05
5.5296e-07
1.74883e-05
7.96227e-07
1.69797e-05
1.15797e-06
1.62247e-05
1.66555e-06
1.51621e-05
2.31775e-06
1.35312e-05
3.28041e-06
1.1335e-05
4.32711e-06
8.11394e-06
6.57808e-06
4.05163e-06
7.17108e-06
6.14089e-07
5.25039e-06
-1.25375e-06
3.21873e-06
-3.41288e-06
3.40185e-05
9.10312e-07
3.37905e-05
9.79078e-07
3.34325e-05
1.3422e-06
3.30997e-05
1.29228e-06
3.27735e-05
1.30143e-06
3.25007e-05
1.17114e-06
3.22679e-05
1.11864e-06
3.20735e-05
1.00324e-06
3.19093e-05
9.19659e-07
3.17721e-05
8.38369e-07
3.16571e-05
7.86573e-07
3.1554e-05
7.44304e-07
3.14557e-05
7.18958e-07
3.13736e-05
6.85226e-07
3.13045e-05
6.57114e-07
3.12402e-05
6.37428e-07
3.11776e-05
6.25905e-07
3.11155e-05
6.16222e-07
3.1053e-05
6.03302e-07
3.09894e-05
5.90393e-07
3.09238e-05
5.78724e-07
3.0856e-05
5.67706e-07
3.07857e-05
5.56122e-07
3.07124e-05
5.43739e-07
3.06357e-05
5.31071e-07
3.05555e-05
5.18263e-07
3.04714e-05
5.0583e-07
3.03818e-05
4.94855e-07
3.02868e-05
4.8404e-07
3.01885e-05
4.72216e-07
3.00875e-05
4.59856e-07
2.99843e-05
4.46986e-07
2.9879e-05
4.34432e-07
2.97716e-05
4.22534e-07
2.96625e-05
4.10888e-07
2.95519e-05
3.9905e-07
2.94403e-05
3.87278e-07
2.9328e-05
3.75764e-07
2.92151e-05
3.64493e-07
2.91022e-05
3.53181e-07
2.89895e-05
3.41781e-07
2.88772e-05
3.30871e-07
2.87654e-05
3.20501e-07
2.86545e-05
3.10436e-07
2.85447e-05
3.00488e-07
2.84362e-05
2.90679e-07
2.83295e-05
2.81328e-07
2.82245e-05
2.72413e-07
2.81213e-05
2.63848e-07
2.80199e-05
2.55706e-07
2.79203e-05
2.47951e-07
2.78226e-05
2.40455e-07
2.77268e-05
2.33259e-07
2.76328e-05
2.2633e-07
2.75407e-05
2.19605e-07
2.74504e-05
2.1308e-07
2.73621e-05
2.06534e-07
2.72758e-05
2.00113e-07
2.71914e-05
1.94118e-07
2.71088e-05
1.88399e-07
2.70282e-05
1.82832e-07
2.69494e-05
1.77419e-07
2.68722e-05
1.72359e-07
2.67966e-05
1.67526e-07
2.67225e-05
1.62945e-07
2.66499e-05
1.58615e-07
2.65789e-05
1.54465e-07
2.65094e-05
1.50462e-07
2.64413e-05
1.46531e-07
2.63748e-05
1.42681e-07
2.63098e-05
1.38828e-07
2.62463e-05
1.35004e-07
2.61845e-05
1.31106e-07
2.61243e-05
1.27063e-07
2.60658e-05
1.23408e-07
2.60089e-05
1.20037e-07
2.59534e-05
1.16697e-07
2.58996e-05
1.13053e-07
2.58475e-05
1.09407e-07
2.57969e-05
1.06209e-07
2.57477e-05
1.03227e-07
2.56998e-05
1.00443e-07
2.56531e-05
9.78982e-08
2.56076e-05
9.55441e-08
2.5563e-05
9.34213e-08
2.55194e-05
9.14788e-08
2.54767e-05
8.94727e-08
2.54348e-05
8.75114e-08
2.53938e-05
8.55643e-08
2.53536e-05
8.39813e-08
2.53139e-05
8.26157e-08
2.52746e-05
8.11912e-08
2.52358e-05
7.97357e-08
2.51974e-05
7.83802e-08
2.51594e-05
7.70567e-08
2.51219e-05
7.58665e-08
2.50849e-05
7.44698e-08
2.50486e-05
7.31242e-08
2.50126e-05
7.24856e-08
2.4977e-05
7.20301e-08
2.49415e-05
7.17043e-08
2.49064e-05
7.14458e-08
2.48714e-05
7.12745e-08
2.48366e-05
7.1115e-08
2.48019e-05
7.10327e-08
2.47675e-05
7.09399e-08
2.47332e-05
7.08648e-08
2.46991e-05
7.07832e-08
2.46652e-05
7.06518e-08
2.46315e-05
7.05577e-08
2.45981e-05
7.02668e-08
2.45649e-05
7.01875e-08
2.45318e-05
7.04996e-08
2.44988e-05
7.04554e-08
2.44661e-05
7.01718e-08
2.44337e-05
7.00406e-08
2.44015e-05
6.98448e-08
2.43696e-05
6.96003e-08
2.43379e-05
6.93056e-08
2.43065e-05
6.89701e-08
2.42755e-05
6.86163e-08
2.42447e-05
6.82531e-08
2.42142e-05
6.78958e-08
2.41841e-05
6.75395e-08
2.41542e-05
6.71776e-08
2.41246e-05