/*--------------------------------*- C++ -*----------------------------------*\
| =========                 |                                                 |
| \\      /  F ield         | foam-extend: Open Source CFD                    |
|  \\    /   O peration     | Version:     3.2                                |
|   \\  /    A nd           | Web:         http://www.foam-extend.org         |
|    \\/     M anipulation  | For copyright notice see file Copyright         |
\*---------------------------------------------------------------------------*/
FoamFile
{
    version     2.0;
    format      ascii;
    class       volVectorField;
    location    "200";
    object      U;
}
// * * * * * * * * * * * * * * * * * * * * * * * * * * * * * * * * * * * * * //

dimensions      [0 1 -1 0 0 0 0];

internalField   nonuniform List<vector> 
33000
(
(0.338813 0 0.000512848)
(0.334236 0 0.000467035)
(0.328462 -6.4025e-30 0.000547375)
(0.322283 0 0.000561633)
(0.316211 2.88176e-29 0.00060365)
(0.310147 0 0.000575766)
(0.304499 -1.02329e-28 0.000540838)
(0.298974 9.14816e-29 0.000512154)
(0.29371 1.10691e-28 0.000516085)
(0.288591 -7.25255e-29 0.000497849)
(0.283707 7.47398e-29 0.000473347)
(0.279001 0 0.000439)
(0.274511 -2.29812e-38 0.000408951)
(0.27018 7.06417e-29 0.000375279)
(0.265999 0 0.000336503)
(0.261975 7.12731e-29 0.000294539)
(0.258131 -7.48537e-29 0.000245122)
(0.254461 7.03691e-29 0.000192582)
(0.250946 4.45122e-29 0.000144187)
(0.247556 0 9.8746e-05)
(0.244295 1.7164e-29 6.09804e-05)
(0.241159 -1.46954e-29 2.7043e-05)
(0.238152 0 -4.38603e-06)
(0.235281 1.67813e-29 -3.46318e-05)
(0.232553 0 -6.41834e-05)
(0.22997 0 -9.33198e-05)
(0.227534 2.26428e-29 -0.000120428)
(0.225236 0 -0.000139565)
(0.223058 0 -0.000151608)
(0.220992 0 -0.000162502)
(0.219033 -1.46735e-29 -0.000172988)
(0.217179 1.48562e-29 -0.000182864)
(0.215426 -1.44424e-29 -0.000192164)
(0.213768 -1.46137e-29 -0.000200905)
(0.2122 1.50738e-29 -0.000209285)
(0.210719 -1.54799e-29 -0.000217337)
(0.209321 0 -0.000224935)
(0.208004 0 -0.000232185)
(0.206761 0 -0.000239184)
(0.20559 1.65839e-29 -0.000246267)
(0.204488 -1.72634e-29 -0.000253788)
(0.203452 0 -0.000261262)
(0.202476 0 -0.000268235)
(0.201555 0 -0.000275026)
(0.200687 -1.79738e-29 -0.000281498)
(0.199867 0 -0.000288064)
(0.199094 0 -0.000295276)
(0.198364 -1.95724e-29 -0.000302472)
(0.197675 1.97595e-29 -0.000309321)
(0.197024 -1.97837e-29 -0.000315646)
(0.196407 0 -0.000321453)
(0.195824 0 -0.000326793)
(0.195271 -1.96762e-29 -0.000331639)
(0.194746 1.9567e-29 -0.000336013)
(0.194247 -1.9394e-29 -0.000339906)
(0.193773 -1.92923e-29 -0.000343465)
(0.193323 -1.90941e-29 -0.000346575)
(0.192895 0 -0.000348957)
(0.192487 0 -0.000350896)
(0.192098 0 -0.000352491)
(0.191726 -1.78137e-29 -0.000353876)
(0.191371 -1.75347e-29 -0.000354966)
(0.191031 0 -0.000355551)
(0.190707 0 -0.000355845)
(0.190395 0 -0.000355992)
(0.190097 -1.61502e-29 -0.000356073)
(0.18981 1.59581e-29 -0.000356142)
(0.189534 0 -0.000356236)
(0.189269 0 -0.000356344)
(0.189013 0 -0.0003565)
(0.188768 0 -0.000356725)
(0.188532 0 -0.000357115)
(0.188305 1.47971e-29 -0.000357629)
(0.188087 0 -0.000358002)
(0.187877 -1.3834e-29 -0.000358143)
(0.187673 -1.35412e-29 -0.000358254)
(0.187475 1.34399e-29 -0.000358563)
(0.187282 0 -0.000358963)
(0.187097 -1.27675e-29 -0.000359196)
(0.186917 1.2378e-29 -0.000359289)
(0.186742 1.21162e-29 -0.0003594)
(0.186572 0 -0.00035946)
(0.186405 0 -0.000359485)
(0.186243 0 -0.000359488)
(0.186083 -2.20071e-29 -0.000359402)
(0.185926 0 -0.00035932)
(0.185773 0 -0.000359295)
(0.185623 0 -0.000359307)
(0.185476 -9.96024e-30 -0.000359243)
(0.185331 -9.62171e-30 -0.000358999)
(0.185188 9.23053e-30 -0.000358598)
(0.185048 -8.74571e-30 -0.000358109)
(0.184911 3.88432e-46 -0.000357641)
(0.184777 -8.07428e-30 -0.000357296)
(0.184647 3.78416e-46 -0.00035703)
(0.18452 7.77013e-30 -0.000357037)
(0.184397 0 -0.000357522)
(0.184278 0 -0.00035791)
(0.184161 -1.51945e-29 -0.000357966)
(0.184045 -7.46086e-30 -0.000357843)
(0.183929 0 -0.00035758)
(0.183813 7.29662e-30 -0.000357267)
(0.183697 -7.266e-30 -0.00035692)
(0.18358 0 -0.000356554)
(0.183463 -7.24696e-30 -0.000356167)
(0.183344 0 -0.000355753)
(0.183225 -1.45107e-29 -0.000355316)
(0.183105 1.45133e-29 -0.000354847)
(0.182984 -7.24421e-30 -0.000354335)
(0.182861 0 -0.000353877)
(0.182738 -7.20428e-30 -0.000353304)
(0.182613 -1.41713e-29 -0.000352524)
(0.182485 1.45284e-29 -0.000351873)
(0.182356 7.38971e-30 -0.000351384)
(0.182226 -1.4617e-29 -0.000350816)
(0.182094 -7.30722e-30 -0.000350238)
(0.181962 -1.4655e-29 -0.000349696)
(0.181828 7.33013e-30 -0.000349164)
(0.181694 -7.33439e-30 -0.000348651)
(0.181558 -7.32264e-30 -0.000348139)
(0.181422 -7.31221e-30 -0.000347635)
(0.181286 1.45851e-29 -0.000347128)
(0.181148 -1.45436e-29 -0.000346622)
(0.181011 7.24982e-30 -0.000346121)
(0.180872 -1.20759e-40 -0.000345628)
(0.180733 -7.20007e-30 -0.00034515)
(0.180593 -7.16964e-30 -0.000344685)
(0.180453 -1.42711e-29 -0.000344236)
(0.180313 -7.09655e-30 -0.000343801)
(0.180173 2.98e-40 -0.000343382)
(0.180032 -7.00143e-30 -0.000342974)
(0.179892 3.75598e-40 -0.00034258)
(0.179751 -1.37768e-29 -0.000342199)
(0.179611 -6.82863e-30 -0.000341834)
(0.17947 6.76593e-30 -0.000341484)
(0.17933 -1.3396e-29 -0.00034115)
(0.179191 -1.98704e-29 -0.000340826)
(0.179052 0 -0.000340512)
(0.178913 -1.93861e-29 -0.000340206)
(0.178774 -1.27543e-29 -0.000339904)
(0.178636 6.29011e-30 -0.000339607)
(0.178499 -6.2004e-30 -0.000339314)
(0.178362 6.57433e-40 -0.000339025)
(0.178225 -1.20379e-29 -0.000338738)
(0.178089 -5.9301e-30 -0.000338453)
(0.177953 6.32994e-40 -0.000338168)
(0.177817 -5.76839e-30 -0.000337885)
(0.177682 -1.13963e-29 -0.000337605)
(0.177548 -5.63564e-30 -0.00033733)
(0.177413 -5.58135e-30 -0.000337059)
(0.177279 1.10712e-29 -0.000336795)
(0.177145 5.49872e-30 -0.00033654)
(0.177012 -1.09435e-29 -0.000336295)
(0.176879 -3.56485e-40 -0.00033606)
(0.176747 -5.44479e-30 -0.000335835)
(0.176615 -5.44266e-30 -0.00033562)
(0.176484 -5.44672e-30 -0.000335418)
(0.176353 5.45829e-30 -0.000335234)
(0.176223 -1.09498e-29 -0.000335073)
(0.176094 5.49732e-30 -0.00033494)
(0.175967 -5.52596e-30 -0.000334841)
(0.17584 5.55831e-30 -0.000334778)
(0.175715 1.1183e-29 -0.000334753)
(0.175591 -1.12428e-29 -0.000334763)
(0.175469 -5.64413e-30 -0.000334803)
(0.175349 -5.65734e-30 -0.00033487)
(0.175231 -1.52112e-46 -0.000334963)
(0.175115 1.12979e-29 -0.00033508)
(0.175001 -5.62724e-30 -0.00033522)
(0.17489 -2.46698e-46 -0.000335381)
(0.174782 -5.55533e-30 -0.000335559)
(0.174676 -3.22812e-46 -0.000335748)
(0.174572 0 -0.00033594)
(0.17447 0 -0.000336132)
(0.174371 5.32334e-30 -0.00033632)
(0.174275 -5.24726e-30 -0.000336504)
(0.17418 5.16469e-30 -0.000336685)
(0.174088 5.07559e-30 -0.000336862)
(0.173997 9.96362e-30 -0.000337034)
(0.173909 -4.88906e-30 -0.000337198)
(0.173822 -5.86843e-46 -0.000337346)
(0.173737 -4.70506e-30 -0.000337477)
(0.173653 -6.07121e-46 -0.000337585)
(0.173571 -4.52755e-30 -0.000337671)
(0.17349 8.89424e-30 -0.000337738)
(0.173411 0 -0.000337787)
(0.173332 4.30905e-30 -0.000337819)
(0.173254 -4.25528e-30 -0.000337834)
(0.173177 -5.79448e-46 -0.000337838)
(0.1731 8.36896e-30 -0.000337825)
(0.173024 -4.16662e-30 -0.000337793)
(0.172949 0 -0.000337743)
(0.172874 0 -0.000337679)
(0.172799 0 -0.000337604)
(0.172725 -4.20157e-30 -0.000337529)
(0.172651 1.72233e-45 -0.000337462)
(0.172578 1.66717e-45 -0.000337413)
(0.172505 8.57762e-30 -0.000337378)
(0.172433 -4.3165e-30 -0.000337358)
(0.172362 -4.33939e-30 -0.000337341)
(0.172292 4.35859e-30 -0.000337322)
(0.172223 -4.37144e-30 -0.000337296)
(0.172154 -4.37857e-30 -0.000337261)
(0.172086 4.38129e-30 -0.000337217)
(0.172019 -4.37849e-30 -0.000337163)
(0.171953 4.33076e-30 -0.000337044)
(0.171886 4.18562e-30 -0.000336757)
(0.17182 -4.05162e-30 -0.000336375)
(0.171753 -3.99097e-30 -0.000336023)
(0.171686 0 -0.000335701)
(0.171619 0 -0.00033541)
(0.171551 0 -0.000335146)
(0.171484 3.7446e-30 -0.000334903)
(0.171416 2.57399e-45 -0.000334674)
(0.171348 7.23793e-30 -0.000334453)
(0.171281 3.55411e-30 -0.000334236)
(0.171213 0 -0.00033402)
(0.171145 3.4312e-30 -0.000333805)
(0.171077 3.37427e-30 -0.000333592)
(0.171009 0 -0.00033338)
(0.170941 0 -0.00033317)
(0.170872 -3.23644e-30 -0.000332963)
(0.170803 3.19967e-30 -0.000332761)
(0.170734 0 -0.000332567)
(0.170665 0 -0.000332382)
(0.170596 0 -0.000332207)
(0.170527 -3.10475e-30 -0.000332042)
(0.170458 0 -0.000331888)
(0.170389 0 -0.000331745)
(0.17032 0 -0.000331614)
(0.170252 0 -0.000331493)
(0.170184 0 -0.000331385)
(0.170116 0 -0.000331288)
(0.170049 0 -0.000331202)
(0.169982 3.05028e-30 -0.00033113)
(0.169916 -3.04613e-30 -0.000331071)
(0.16985 0 -0.000331024)
(0.169785 0 -0.000330988)
(0.169721 3.01584e-30 -0.000330961)
(0.169658 2.9979e-30 -0.000330943)
(0.169596 -2.97553e-30 -0.000330932)
(0.169534 0 -0.000330928)
(0.169474 0 -0.000330932)
(0.169414 -2.87606e-30 -0.000330945)
(0.169356 2.83515e-30 -0.000330966)
(0.169298 0 -0.000330991)
(0.169242 0 -0.000331017)
(0.169186 0 -0.000331045)
(0.169132 0 -0.000331072)
(0.169078 0 -0.0003311)
(0.169026 0 -0.000331127)
(0.168975 0 -0.000331152)
(0.168924 0 -0.000331173)
(0.168875 0 -0.000331189)
(0.168826 0 -0.0003312)
(0.168778 0 -0.000331209)
(0.168731 0 -0.00033122)
(0.168685 0 -0.000331238)
(0.16864 0 -0.000331268)
(0.168595 0 -0.000331312)
(0.168552 -2.0445e-30 -0.000331368)
(0.168509 0 -0.000331431)
(0.168468 0 -0.000331497)
(0.168427 1.90959e-30 -0.000331565)
(0.168388 0 -0.000331635)
(0.168349 0 -0.00033171)
(0.168311 0 -0.000331789)
(0.168275 0 -0.000331874)
(0.168239 0 -0.000331964)
(0.168205 0 -0.000332062)
(0.168171 0 -0.000332166)
(0.168139 0 -0.000332274)
(0.168108 0 -0.000332385)
(0.168078 0 -0.0003325)
(0.168049 0 -0.000332619)
(0.168021 0 -0.000332741)
(0.167995 1.47632e-30 -0.000332863)
(0.167969 0 -0.00033298)
(0.167945 0 -0.000333087)
(0.167922 0 -0.000333177)
(0.1679 0 -0.000333247)
(0.167878 0 -0.000333294)
(0.167857 0 -0.00033332)
(0.167836 0 -0.000333326)
(0.167816 1.31193e-30 -0.000333314)
(0.167796 0 -0.000333284)
(0.167776 0 -0.000333238)
(0.167756 0 -0.000333175)
(0.167735 0 -0.000333091)
(0.167715 0 -0.000332987)
(0.167694 1.27647e-30 -0.000332867)
(0.167672 0 -0.000332734)
(0.16765 0 -0.000332594)
(0.167627 0 -0.000332449)
(0.167603 0 -0.000332301)
(0.167579 1.27757e-30 -0.000332153)
(0.167554 -1.28138e-30 -0.000332003)
(0.167529 0 -0.000331851)
(0.167503 0 -0.000331697)
(0.167476 0 -0.000331542)
(0.167449 -1.31817e-30 -0.000331387)
(0.167421 1.33053e-30 -0.000331234)
(0.167393 0 -0.000331084)
(0.167364 1.35963e-30 -0.000330939)
(0.167334 0 -0.000330799)
(0.167304 0 -0.000330662)
(0.167274 0 -0.00033053)
(0.167243 0 -0.000330399)
(0.167212 -1.43448e-30 -0.000330266)
(0.167181 1.44765e-30 -0.000330129)
(0.167149 0 -0.000329988)
(0.167117 0 -0.000329843)
(0.167084 0 -0.000329693)
(0.167051 0 -0.000329537)
(0.167018 1.49446e-30 -0.000329377)
(0.166983 -1.50041e-30 -0.000329217)
(0.166949 0 -0.00032906)
(0.166914 -1.51303e-30 -0.000328906)
(0.166878 0 -0.000328755)
(0.166843 0 -0.000328605)
(0.166806 1.51754e-30 -0.000328455)
(0.166769 0 -0.000328305)
(0.166732 0 -0.000328155)
(0.166694 0 -0.000328005)
(0.166656 0 -0.000327857)
(0.166618 0 -0.000327712)
(0.166579 0 -0.000327569)
(0.166539 0 -0.000327424)
(0.166499 1.51569e-30 -0.000327275)
(0.166459 -1.50824e-30 -0.000327121)
(0.166419 0 -0.000326959)
(0.166378 1.50015e-30 -0.000326789)
(0.166336 0 -0.000326611)
(0.166294 0 -0.000326423)
(0.166251 0 -0.000326227)
(0.166208 0 -0.000326021)
(0.166164 0 -0.000325806)
(0.166119 0 -0.000325583)
(0.166073 0 -0.000325354)
(0.166027 1.59413e-30 -0.00032512)
(0.165979 0 -0.000324884)
(0.165931 0 -0.000324645)
(0.165882 0 -0.000324408)
(0.165832 0 -0.000324173)
(0.165782 0 -0.000323943)
(0.16573 1.78103e-30 -0.000323723)
(0.165678 0 -0.000323517)
(0.165625 0 -0.000323328)
(0.165572 0 -0.000323156)
(0.165518 0 -0.000323001)
(0.165464 1.91716e-30 -0.000322862)
(0.16541 -1.92823e-30 -0.000322737)
(0.165355 0 -0.000322626)
(0.165301 0 -0.000322529)
(0.165247 0 -0.000322448)
(0.165193 -1.93214e-30 -0.00032238)
(0.165139 1.92214e-30 -0.000322327)
(0.165085 0 -0.000322284)
(0.165032 1.88139e-30 -0.000322247)
(0.164979 0 -0.000322207)
(0.164926 0 -0.000322158)
(0.164874 0 -0.000322093)
(0.164822 0 -0.000322009)
(0.164771 -1.69025e-30 -0.000321898)
(0.164719 1.6603e-30 -0.000321767)
(0.164667 0 -0.000321614)
(0.164614 0 -0.000321446)
(0.164561 0 -0.000321259)
(0.164508 -1.61473e-30 -0.000321056)
(0.164454 1.61259e-30 -0.000320837)
(0.164399 0 -0.000320605)
(0.164344 0 -0.00032036)
(0.164287 -1.63997e-30 -0.000320105)
(0.16423 0 -0.000319843)
(0.164172 0 -0.000319582)
(0.164113 1.73458e-30 -0.000319323)
(0.164052 0 -0.000319071)
(0.163992 0 -0.000318827)
(0.16393 0 -0.000318593)
(0.163867 0 -0.000318374)
(0.163804 0 -0.00031817)
(0.163741 0 -0.000317984)
(0.163677 0 -0.000317816)
(0.163612 2.1023e-30 -0.000317666)
(0.163548 -2.14292e-30 -0.000317534)
(0.163484 0 -0.000317421)
(0.16342 2.22048e-30 -0.000317328)
(0.163356 0 -0.000317254)
(0.163292 0 -0.000317205)
(0.163229 0 -0.000317181)
(0.163166 0 -0.00031718)
(0.163105 0 -0.000317201)
(0.163044 -2.39962e-30 -0.000317236)
(0.162985 0 -0.000317284)
(0.162926 2.43151e-30 -0.00031734)
(0.162869 0 -0.000317403)
(0.162813 0 -0.000317471)
(0.162757 0 -0.000317547)
(0.162704 0 -0.000317631)
(0.162651 0 -0.000317721)
(0.162599 2.46575e-30 -0.000317815)
(0.162549 -2.45508e-30 -0.000317908)
(0.162501 0 -0.000317994)
(0.162453 0 -0.000318072)
(0.162407 0 -0.000318139)
(0.162361 2.36592e-30 -0.000318194)
(0.162317 0 -0.000318239)
(0.162273 0 -0.000318271)
(0.16223 0 -0.000318292)
(0.162188 0 -0.000318298)
(0.162146 -2.16312e-30 -0.000318287)
(0.162105 2.11109e-30 -0.00031826)
(0.162064 0 -0.000318218)
(0.162023 2.76813e-45 -0.000318166)
(0.161982 0 -0.000318108)
(0.161942 0 -0.000318052)
(0.161901 0 -0.000317999)
(0.16186 0 -0.000317951)
(0.16182 0 -0.000317904)
(0.161779 3.89857e-45 -0.000317856)
(0.161739 0 -0.000317806)
(0.161698 0 -0.00031775)
(0.161658 0 -0.000317686)
(0.161618 0 -0.000317611)
(0.161577 -1.73354e-47 -0.00031752)
(0.161537 0 -0.000317412)
(0.161496 0 -0.000317286)
(0.161455 -1.25407e-30 -0.000317142)
(0.161413 0 -0.000316982)
(0.161371 0 -0.000316802)
(0.161328 2.52031e-45 -0.000316602)
(0.161285 0 -0.000316378)
(0.16124 0 -0.000316132)
(0.161195 0 -0.000315867)
(0.161149 0 -0.000315587)
(0.161102 -1.37345e-30 -0.000315296)
(0.161053 0 -0.000314995)
(0.161004 0 -0.000314687)
(0.160953 1.28472e-45 -0.000314374)
(0.160901 0 -0.000314063)
(0.160847 0 -0.000313761)
(0.160793 0 -0.000313475)
(0.160738 0 -0.00031321)
(0.160681 0 -0.000312966)
(0.160624 0 -0.000312742)
(0.160567 0 -0.000312536)
(0.160508 0 -0.000312345)
(0.16045 0 -0.000312167)
(0.160391 0 -0.000311998)
(0.160332 0 -0.000311834)
(0.160272 0 -0.000311671)
(0.160212 0 -0.000311509)
(0.160152 -2.21688e-30 -0.000311347)
(0.160091 0 -0.000311188)
(0.160031 0 -0.000311028)
(0.15997 0 -0.000310868)
(0.159908 0 -0.000310706)
(0.159847 0 -0.000310541)
(0.159785 0 -0.00031037)
(0.159723 0 -0.000310196)
(0.15966 -2.15548e-30 -0.000310016)
(0.159598 0 -0.00030983)
(0.159535 0 -0.000309637)
(0.159471 1.90385e-45 -0.000309438)
(0.159408 0 -0.000309225)
(0.159343 0 -0.000309001)
(0.159279 -2.16547e-30 -0.00030876)
(0.159213 0 -0.000308511)
(0.159147 0 -0.00030825)
(0.15908 0 -0.000307988)
(0.159011 0 -0.000307721)
(0.158943 0 -0.000307462)
(0.158873 0 -0.000307211)
(0.158802 0 -0.000306983)
(0.158731 -1.02773e-47 -0.00030677)
(0.15866 0 -0.000306586)
(0.158587 0 -0.000306416)
(0.158515 -1.08683e-47 -0.000306272)
(0.158443 0 -0.000306138)
(0.15837 -2.441e-30 -0.000306029)
(0.158298 0 -0.000305929)
(0.158226 0 -0.000305848)
(0.158155 0 -0.000305767)
(0.158084 0 -0.000305706)
(0.158014 0 -0.000305639)
(0.157944 -2.3196e-30 -0.000305588)
(0.157874 0 -0.000305524)
(0.157805 0 -0.000305482)
(0.157736 2.25758e-45 -0.00030543)
(0.157668 0 -0.000305414)
(0.157601 0 -0.000305387)
(0.157535 0 -0.000305386)
(0.15747 0 -0.000305346)
(0.157405 -2.11611e-30 -0.000305315)
(0.157342 0 -0.00030523)
(0.157278 0 -0.000305151)
(0.157215 2.03632e-30 -0.000305013)
(0.157152 0 -0.00030491)
(0.157089 0 -0.000304766)
(0.157026 0 -0.000304683)
(0.156963 0 -0.000304553)
(0.156901 0 -0.000304484)
(0.156838 0 -0.000304346)
(0.156775 0 -0.000304258)
(0.156713 -1.96023e-30 -0.000304075)
(0.15665 0 -0.000303945)
(0.156587 0 -0.000303698)
(0.156524 0 -0.000303519)
(0.156459 0 -0.0003032)
(0.156394 0 -0.000302977)
(0.156327 -1.87335e-30 -0.000302612)
(0.15626 0 -0.000302391)
(0.156191 -1.96781e-30 -0.000302035)
(0.156122 0 -0.000301873)
(0.156051 0 -0.000301569)
(0.15598 0 -0.000301497)
(0.155908 0 -0.000301236)
(0.155838 0 -0.000301207)
(0.155765 -2.25952e-30 -0.00030091)
(0.155695 0 -0.000300844)
(0.155622 0 -0.000300429)
(0.155551 0 -0.000300252)
(0.155476 0 -0.000299616)
(0.155401 0 -0.000299224)
(0.15532 0 -0.000298136)
(0.155237 0 -0.000297237)
(0.155144 0 -0.000295259)
(0.155043 0 -0.000292975)
(0.154922 0 -0.000288933)
(0.154786 1.58536e-47 -0.000283678)
(0.1546 0 -0.000274873)
(0.154383 0 -0.000264014)
(0.154059 5.54076e-47 -0.000246272)
(0.153662 0 -0.000224991)
(0.153045 0 -0.00018797)
(0.152259 0 -0.000142833)
(0.151016 0 -5.84586e-05)
(0.149381 2.59364e-29 4.46489e-05)
(0.1468 0 0.000227627)
(0.143287 0 0.000445525)
(0.137943 0 0.000827868)
(0.130457 0 0.00125728)
(0.119533 0 0.00178473)
(0.105523 5.74458e-29 0.00222472)
(0.0862868 0 0.00268636)
(0.0633311 3.16466e-28 0.00482398)
(0.0185658 0 0.00307955)
(0.00183007 0 0.00178016)
(-0.0184572 0 0.00163075)
(-0.0243676 0 -0.00410421)
(0.341288 0 0.00113086)
(0.339288 0 0.00103393)
(0.336178 -2.09457e-28 0.00152433)
(0.332134 0 0.00146802)
(0.328639 0 0.00154063)
(0.325247 0 0.00137333)
(0.322028 -1.80499e-28 0.00135759)
(0.31896 2.44373e-28 0.00122867)
(0.316472 1.68283e-28 0.00114702)
(0.314323 -1.83002e-28 0.00105309)
(0.312374 1.12918e-28 0.000996377)
(0.310522 0 0.00092879)
(0.30872 -9.23358e-29 0.000874079)
(0.306939 5.6446e-29 0.000837041)
(0.305167 0 0.000807974)
(0.303385 0 0.000771458)
(0.301573 0 0.000740417)
(0.299639 -1.26934e-29 0.000714926)
(0.297679 0 0.000691484)
(0.295729 0 0.000672593)
(0.293794 -1.49241e-29 0.000649354)
(0.291865 0 0.000622202)
(0.289939 0 0.000589539)
(0.288027 0 0.000552009)
(0.286129 0 0.000511456)
(0.28425 0 0.000468509)
(0.282388 -4.65109e-29 0.000425364)
(0.28055 0 0.000379717)
(0.278758 0 0.000333309)
(0.277012 0 0.000290723)
(0.275306 -4.4307e-29 0.000249312)
(0.273647 4.52e-29 0.000208441)
(0.272037 -4.51391e-29 0.000169499)
(0.270476 -4.51001e-29 0.000132909)
(0.26896 4.55539e-29 9.79588e-05)
(0.267492 -4.59512e-29 6.40865e-05)
(0.266069 0 3.17319e-05)
(0.264693 -4.55776e-29 1.17274e-06)
(0.263361 -4.52916e-29 -2.7678e-05)
(0.262074 -5.3903e-46 -5.50056e-05)
(0.260829 -4.32083e-29 -8.01349e-05)
(0.25963 0 -0.000102875)
(0.25847 -4.0504e-29 -0.000123745)
(0.257351 0 -0.000142666)
(0.256268 -3.82168e-29 -0.000160296)
(0.255227 0 -0.000176332)
(0.254217 0 -0.000190147)
(0.253239 -3.36837e-29 -0.000202665)
(0.252288 3.2605e-29 -0.000214268)
(0.251366 -3.1486e-29 -0.00022494)
(0.250469 -3.04199e-29 -0.000234743)
(0.249597 0 -0.000243897)
(0.24875 -2.83203e-29 -0.000252395)
(0.247927 2.73576e-29 -0.000260387)
(0.247127 -2.64703e-29 -0.000267995)
(0.24635 0 -0.000275244)
(0.245596 -2.53555e-29 -0.000282598)
(0.244865 -2.46877e-29 -0.000289943)
(0.244155 0 -0.000296625)
(0.243467 0 -0.000302976)
(0.242799 0 -0.000308944)
(0.24215 0 -0.000314825)
(0.241521 2.22546e-29 -0.000320986)
(0.240911 0 -0.000326863)
(0.240319 0 -0.000332304)
(0.239744 0 -0.00033729)
(0.239184 2.03428e-29 -0.000341922)
(0.238638 0 -0.000346246)
(0.238106 0 -0.000350359)
(0.237588 -1.91691e-29 -0.000354226)
(0.237084 1.88529e-29 -0.000357887)
(0.236594 1.8539e-29 -0.000361207)
(0.236117 1.83149e-29 -0.000364439)
(0.235653 1.7792e-29 -0.000367604)
(0.235206 -1.70691e-29 -0.000370101)
(0.23477 1.65232e-29 -0.000372046)
(0.234347 1.63153e-29 -0.000373804)
(0.233935 -1.61326e-29 -0.000375917)
(0.233539 0 -0.000377999)
(0.233154 0 -0.000379655)
(0.232782 1.47446e-29 -0.000381105)
(0.232419 0 -0.000382389)
(0.232068 0 -0.000383559)
(0.231724 0 -0.000384515)
(0.23139 -1.31299e-29 -0.000385328)
(0.231063 0 -0.000386185)
(0.230743 0 -0.000387155)
(0.230432 0 -0.000388077)
(0.230127 -1.1481e-29 -0.000388954)
(0.229831 0 -0.000389342)
(0.22954 4.06102e-46 -0.00039011)
(0.229256 -1.17005e-29 -0.000391761)
(0.228979 2.30466e-29 -0.000393403)
(0.228708 -1.12856e-29 -0.000394865)
(0.228443 2.20986e-29 -0.000396152)
(0.228184 1.08749e-29 -0.000397297)
(0.227927 0 -0.000398369)
(0.227676 0 -0.000398981)
(0.227427 -9.29638e-30 -0.000398842)
(0.227179 -9.13643e-30 -0.000398641)
(0.226932 0 -0.000398242)
(0.226685 0 -0.000397754)
(0.226439 -8.68111e-30 -0.000397129)
(0.226192 0 -0.000396442)
(0.225946 -8.4775e-30 -0.000395665)
(0.2257 0 -0.000394858)
(0.225454 -8.32436e-30 -0.000393986)
(0.225208 -2.82753e-46 -0.000393129)
(0.224962 0 -0.000392247)
(0.224717 8.3181e-30 -0.000391353)
(0.224471 8.22046e-30 -0.00039072)
(0.224228 -1.94201e-40 -0.000389628)
(0.223983 -6.22323e-41 -0.000388096)
(0.223737 -8.38146e-30 -0.000387151)
(0.223493 -8.39008e-30 -0.000386462)
(0.223249 -8.3785e-30 -0.000385586)
(0.223005 5.22743e-44 -0.000384805)
(0.222762 1.80656e-42 -0.000384056)
(0.22252 -8.5044e-30 -0.000383378)
(0.222279 -8.53678e-30 -0.00038274)
(0.222039 8.56135e-30 -0.000382126)
(0.2218 1.71547e-29 -0.000381525)
(0.221563 -1.18939e-40 -0.000380925)
(0.221327 -8.58378e-30 -0.000380333)
(0.221092 -1.25139e-40 -0.000379762)
(0.220858 8.57214e-30 -0.000379224)
(0.220626 8.55835e-30 -0.000378722)
(0.220395 -4.02729e-40 -0.000378262)
(0.220166 8.50917e-30 -0.000377836)
(0.219938 -1.69349e-29 -0.000377447)
(0.219712 8.41553e-30 -0.00037709)
(0.219487 3.8874e-40 -0.000376768)
(0.219265 -1.65775e-29 -0.000376481)
(0.219044 8.22141e-30 -0.000376233)
(0.218825 -8.15319e-30 -0.000376013)
(0.218608 4.85482e-40 -0.000375823)
(0.218393 -7.98645e-30 -0.000375656)
(0.21818 0 -0.0003755)
(0.217969 -7.76681e-30 -0.00037535)
(0.21776 5.84961e-40 -0.000375202)
(0.217553 -7.51247e-30 -0.000375061)
(0.217349 7.37731e-30 -0.000374927)
(0.217146 6.80034e-40 -0.000374801)
(0.216945 -1.41978e-29 -0.000374676)
(0.216746 6.95855e-30 -0.000374543)
(0.216549 -1.36503e-29 -0.000374397)
(0.216354 6.70093e-30 -0.000374236)
(0.21616 -1.06205e-39 -0.000374067)
(0.215968 6.49873e-30 -0.00037389)
(0.215778 6.42452e-30 -0.000373712)
(0.215589 1.27431e-29 -0.000373537)
(0.215401 -6.34109e-30 -0.000373373)
(0.215214 -7.21428e-40 -0.000373218)
(0.215029 -3.6817e-40 -0.000373084)
(0.214846 6.40007e-30 -0.000372964)
(0.214663 -6.46559e-30 -0.00037287)
(0.214482 -6.55348e-30 -0.000372802)
(0.214302 0 -0.000372771)
(0.214124 -3.26498e-40 -0.000372785)
(0.213947 6.95218e-30 -0.000372851)
(0.213772 -2.69968e-40 -0.000372979)
(0.213599 -7.30964e-30 -0.000373172)
(0.213427 -1.58814e-40 -0.000373437)
(0.213257 -3.08393e-40 -0.000373773)
(0.213089 7.85723e-30 -0.000374178)
(0.212924 8.01331e-30 -0.00037465)
(0.21276 1.62986e-29 -0.000375187)
(0.212599 8.26233e-30 -0.000375781)
(0.212441 8.3502e-30 -0.000376421)
(0.212285 1.68187e-29 -0.000377091)
(0.212132 8.44065e-30 -0.000377771)
(0.211981 1.68869e-29 -0.000378443)
(0.211834 0 -0.000379095)
(0.211688 8.3572e-30 -0.000379723)
(0.211545 8.26977e-30 -0.000380327)
(0.211404 8.14844e-30 -0.000380908)
(0.211265 0 -0.000381462)
(0.211128 7.82842e-30 -0.000381988)
(0.210994 7.64057e-30 -0.000382478)
(0.210861 0 -0.000382925)
(0.21073 7.2437e-30 -0.000383317)
(0.210601 0 -0.000383653)
(0.210473 6.83053e-30 -0.000383926)
(0.210346 0 -0.000384149)
(0.210221 6.26933e-46 -0.000384322)
(0.210096 1.25309e-29 -0.000384449)
(0.209973 0 -0.000384535)
(0.20985 5.98619e-30 -0.000384576)
(0.209729 1.17792e-29 -0.000384595)
(0.209608 5.56764e-46 -0.000384569)
(0.209487 0 -0.000384512)
(0.209367 1.15085e-29 -0.000384418)
(0.209247 0 -0.000384309)
(0.209127 1.16072e-29 -0.000384192)
(0.209008 5.8708e-30 -0.00038409)
(0.208889 -5.96587e-30 -0.000384021)
(0.208771 6.07921e-30 -0.000384011)
(0.208653 6.19412e-30 -0.000384051)
(0.208537 0 -0.000384145)
(0.208421 0 -0.000384254)
(0.208307 0 -0.000384377)
(0.208193 6.60864e-30 -0.000384496)
(0.208081 6.67539e-30 -0.000384612)
(0.207969 0 -0.000384708)
(0.207858 0 -0.000384788)
(0.207749 0 -0.000384826)
(0.20764 -6.45761e-30 -0.000384766)
(0.207533 6.27297e-30 -0.000384636)
(0.207427 6.19082e-30 -0.000384501)
(0.207322 6.09798e-30 -0.00038437)
(0.207219 0 -0.000384252)
(0.207116 0 -0.000384136)
(0.207015 0 -0.000384019)
(0.206915 5.64249e-30 -0.000383893)
(0.206815 5.50039e-30 -0.000383757)
(0.206716 1.06968e-29 -0.000383604)
(0.206618 1.03937e-29 -0.000383437)
(0.206521 0 -0.00038325)
(0.206423 4.90837e-30 -0.000383053)
(0.206327 4.77601e-30 -0.000382846)
(0.20623 0 -0.00038263)
(0.206134 -4.5595e-30 -0.000382408)
(0.206039 8.92952e-30 -0.00038219)
(0.205943 0 -0.000381985)
(0.205848 0 -0.000381796)
(0.205754 0 -0.000381624)
(0.20566 6.61181e-46 -0.00038147)
(0.205566 0 -0.000381342)
(0.205472 4.22694e-30 -0.000381243)
(0.205379 4.23654e-30 -0.000381175)
(0.205287 0 -0.000381139)
(0.205195 0 -0.000381136)
(0.205104 4.3155e-30 -0.000381161)
(0.205014 4.35232e-30 -0.000381215)
(0.204924 0 -0.000381293)
(0.204835 5.96258e-46 -0.000381397)
(0.204748 0 -0.000381524)
(0.204661 4.4812e-30 -0.000381682)
(0.204575 0 -0.00038186)
(0.204491 9.00094e-30 -0.000382061)
(0.204407 5.77852e-46 -0.000382278)
(0.204325 0 -0.000382512)
(0.204244 0 -0.000382756)
(0.204163 5.91923e-46 -0.000383013)
(0.204085 8.7585e-30 -0.000383277)
(0.204007 0 -0.000383552)
(0.20393 4.26839e-30 -0.000383835)
(0.203854 0 -0.000384123)
(0.20378 -4.1272e-30 -0.00038442)
(0.203707 0 -0.000384725)
(0.203635 -3.96548e-30 -0.000385033)
(0.203564 -3.88259e-30 -0.000385336)
(0.203494 0 -0.000385619)
(0.203426 0 -0.000385877)
(0.203358 -3.62396e-30 -0.000386109)
(0.203292 0 -0.000386319)
(0.203226 3.47332e-30 -0.00038652)
(0.203161 -3.40764e-30 -0.00038673)
(0.203097 0 -0.000386958)
(0.203034 -3.28646e-30 -0.000387206)
(0.202972 -3.22111e-30 -0.000387475)
(0.202911 -3.15184e-30 -0.000387764)
(0.202851 0 -0.000388061)
(0.202792 -3.00819e-30 -0.00038836)
(0.202734 -2.93898e-30 -0.000388654)
(0.202677 0 -0.000388946)
(0.202621 -2.80707e-30 -0.000389239)
(0.202566 -2.75316e-30 -0.000389537)
(0.202512 0 -0.00038984)
(0.20246 -2.66432e-30 -0.000390157)
(0.202408 2.62455e-30 -0.000390489)
(0.202357 0 -0.00039084)
(0.202308 -2.54062e-30 -0.000391206)
(0.20226 0 -0.000391592)
(0.202213 0 -0.000391989)
(0.202167 0 -0.000392393)
(0.202122 0 -0.000392787)
(0.202079 -2.38695e-30 -0.000393161)
(0.202037 0 -0.000393502)
(0.201996 2.34436e-30 -0.000393799)
(0.201955 0 -0.000394044)
(0.201916 0 -0.000394234)
(0.201877 -2.2528e-30 -0.000394374)
(0.201838 -2.21441e-30 -0.000394469)
(0.2018 0 -0.000394518)
(0.201762 -2.13734e-30 -0.000394519)
(0.201725 -2.09856e-30 -0.00039446)
(0.201687 -2.06153e-30 -0.000394337)
(0.20165 -2.02277e-30 -0.000394152)
(0.201612 0 -0.000393908)
(0.201574 -1.94431e-30 -0.000393617)
(0.201535 0 -0.000393296)
(0.201495 -1.86252e-30 -0.000392959)
(0.201455 0 -0.000392619)
(0.201415 0 -0.000392284)
(0.201374 -1.75968e-30 -0.000391952)
(0.201332 -1.73785e-30 -0.00039162)
(0.20129 0 -0.000391285)
(0.201247 -1.7132e-30 -0.000390947)
(0.201204 -1.71251e-30 -0.000390612)
(0.201161 -3.43823e-30 -0.000390285)
(0.201117 -1.73179e-30 -0.000389973)
(0.201072 0 -0.000389677)
(0.201028 1.77738e-30 -0.000389399)
(0.200983 0 -0.000389136)
(0.200938 1.83665e-30 -0.00038889)
(0.200892 1.86627e-30 -0.000388653)
(0.200847 0 -0.00038842)
(0.200801 -1.92084e-30 -0.000388185)
(0.200755 1.94393e-30 -0.000387949)
(0.200709 1.96446e-30 -0.00038771)
(0.200662 0 -0.000387468)
(0.200616 1.9934e-30 -0.000387219)
(0.200569 0 -0.00038696)
(0.200523 2.00409e-30 -0.000386693)
(0.200476 -2.00425e-30 -0.000386421)
(0.200429 2.00302e-30 -0.000386149)
(0.200381 2.00083e-30 -0.000385878)
(0.200334 0 -0.000385613)
(0.200286 0 -0.000385351)
(0.200238 1.96049e-30 -0.00038509)
(0.20019 1.93891e-30 -0.000384824)
(0.200141 0 -0.000384551)
(0.200092 1.90034e-30 -0.000384268)
(0.200043 0 -0.000383983)
(0.199993 0 -0.000383707)
(0.199943 0 -0.000383446)
(0.199893 1.8336e-30 -0.000383199)
(0.199843 0 -0.00038296)
(0.199792 -3.5406e-30 -0.000382716)
(0.199741 0 -0.000382456)
(0.19969 -1.71867e-30 -0.000382174)
(0.199639 1.70625e-30 -0.000381866)
(0.199587 0 -0.000381534)
(0.199535 0 -0.000381179)
(0.199482 0 -0.000380804)
(0.199429 -1.7069e-30 -0.000380411)
(0.199375 0 -0.000380003)
(0.199321 0 -0.000379581)
(0.199266 0 -0.000379152)
(0.199211 0 -0.000378714)
(0.199155 0 -0.000378272)
(0.199098 0 -0.000377824)
(0.19904 0 -0.000377376)
(0.198982 0 -0.000376933)
(0.198923 -2.0724e-30 -0.000376508)
(0.198864 0 -0.000376107)
(0.198803 0 -0.000375743)
(0.198743 0 -0.000375424)
(0.198681 2.32049e-30 -0.000375157)
(0.19862 -2.36128e-30 -0.000374939)
(0.198558 -2.39023e-30 -0.000374759)
(0.198496 0 -0.00037461)
(0.198434 -2.41512e-30 -0.000374484)
(0.198372 2.41456e-30 -0.000374387)
(0.198309 -4.81356e-30 -0.000374318)
(0.198247 0 -0.000374284)
(0.198185 0 -0.000374274)
(0.198123 0 -0.000374296)
(0.198062 0 -0.000374326)
(0.198001 0 -0.00037436)
(0.19794 0 -0.000374363)
(0.19788 0 -0.000374331)
(0.19782 -1.83319e-30 -0.000374237)
(0.19776 0 -0.000374082)
(0.1977 0 -0.00037385)
(0.197639 0 -0.000373564)
(0.197578 -1.54788e-30 -0.000373226)
(0.197517 -1.5078e-30 -0.000372862)
(0.197455 -1.47519e-30 -0.00037247)
(0.197393 0 -0.000372059)
(0.19733 1.44586e-30 -0.000371614)
(0.197266 -1.45301e-30 -0.00037114)
(0.197202 0 -0.00037064)
(0.197136 0 -0.00037013)
(0.19707 0 -0.000369619)
(0.197003 1.67697e-30 -0.000369121)
(0.196935 0 -0.000368641)
(0.196866 0 -0.000368192)
(0.196796 0 -0.000367775)
(0.196726 0 -0.000367398)
(0.196654 0 -0.000367065)
(0.196583 2.28583e-30 -0.000366783)
(0.196511 0 -0.000366553)
(0.196438 -5.04719e-30 -0.000366378)
(0.196366 0 -0.000366247)
(0.196293 0 -0.000366166)
(0.196221 0 -0.000366134)
(0.196148 0 -0.000366162)
(0.196076 0 -0.000366252)
(0.196005 0 -0.000366411)
(0.195934 0 -0.000366617)
(0.195863 -3.45292e-30 -0.000366873)
(0.195794 0 -0.000367154)