/*--------------------------------*- C++ -*----------------------------------*\
| =========                 |                                                 |
| \\      /  F ield         | foam-extend: Open Source CFD                    |
|  \\    /   O peration     | Version:     3.2                                |
|   \\  /    A nd           | Web:         http://www.foam-extend.org         |
|    \\/     M anipulation  | For copyright notice see file Copyright         |
\*---------------------------------------------------------------------------*/
FoamFile
{
    version     2.0;
    format      ascii;
    class       volScalarField;
    location    "37";
    object      Ktemp;
}
// * * * * * * * * * * * * * * * * * * * * * * * * * * * * * * * * * * * * * //

dimensions      [0 2 -2 0 0 0 0];

internalField   nonuniform List<scalar> 
96000
(
0.178319
0.142008
0.0985162
0.0808965
0.0742543
0.0707709
0.0682484
0.0660411
0.064009
0.0621651
0.0605192
0.0590478
0.0577167
0.0565291
0.0554603
0.0544888
0.0536002
0.05278
0.0520289
0.0513439
0.0507079
0.0501104
0.0495493
0.0490225
0.0485284
0.0480607
0.0476188
0.0471985
0.0468005
0.0464231
0.046063
0.0457197
0.0453906
0.0450764
0.0447754
0.0444876
0.0442102
0.0439439
0.0436872
0.0434398
0.0432022
0.0429721
0.0427506
0.0425355
0.0423278
0.0421266
0.0419321
0.0417435
0.0415601
0.0413824
0.0412093
0.0410414
0.0408783
0.0407195
0.0405651
0.0404143
0.0402677
0.0401239
0.0399831
0.0398457
0.0397114
0.0395806
0.0394528
0.039328
0.0392061
0.0390871
0.0389706
0.0388566
0.038745
0.0386358
0.038529
0.0384243
0.0383218
0.0382213
0.0381228
0.0380263
0.0379315
0.0378386
0.0377475
0.037658
0.0375703
0.037484
0.0373993
0.0373162
0.0372344
0.0371542
0.0370753
0.0369977
0.0369215
0.0368465
0.0367728
0.0367002
0.0366288
0.0365587
0.0364896
0.0364215
0.0363546
0.0362886
0.0362237
0.0361598
0.0360968
0.0360348
0.0359737
0.0359135
0.0358541
0.0357956
0.035738
0.0356812
0.0356251
0.0355699
0.0355154
0.0354616
0.0354087
0.0353564
0.0353048
0.035254
0.0352038
0.0351542
0.0351053
0.0350571
0.0350094
0.0349624
0.034916
0.0348702
0.0348249
0.0347801
0.034736
0.0346922
0.034649
0.0346063
0.0345639
0.0345221
0.0344807
0.0344398
0.0343994
0.0343595
0.0343202
0.0342814
0.0342431
0.0342053
0.0341681
0.0341314
0.0340951
0.0340592
0.0340238
0.0339887
0.033954
0.0339196
0.0338855
0.0338517
0.0338182
0.033785
0.0337521
0.0337196
0.0336874
0.0336555
0.0336239
0.0335927
0.0335618
0.0335313
0.0335011
0.0334712
0.0334417
0.0334124
0.0333835
0.0333549
0.0333265
0.0332985
0.0332707
0.0332432
0.033216
0.033189
0.0331623
0.0331358
0.0331096
0.0330837
0.033058
0.0330325
0.0330073
0.0329823
0.0329576
0.0329331
0.0329088
0.0328848
0.0328609
0.0328374
0.032814
0.0327908
0.0327679
0.0327452
0.0327226
0.0327003
0.0326782
0.0326563
0.0326346
0.0326131
0.0325917
0.0325706
0.0325496
0.0325289
0.0325083
0.0324879
0.0324677
0.0324476
0.0324278
0.0324081
0.0323885
0.0323692
0.03235
0.032331
0.0323121
0.0322934
0.0322749
0.0322565
0.0322383
0.0322203
0.0322023
0.0321846
0.032167
0.0321495
0.0321322
0.0321151
0.032098
0.0320811
0.0320644
0.0320478
0.0320313
0.032015
0.0319988
0.0319828
0.0319668
0.031951
0.0319353
0.0319198
0.0319044
0.0318891
0.0318739
0.0318589
0.031844
0.0318292
0.0318145
0.0318
0.0317855
0.0317712
0.031757
0.0317429
0.0317289
0.0317151
0.0317012
0.0316876
0.031674
0.0316607
0.0316473
0.0316341
0.0316209
0.031608
0.031595
0.0315822
0.0315695
0.0315569
0.0315443
0.0315319
0.0315196
0.0315074
0.0314953
0.0314832
0.0314713
0.0314593
0.0314477
0.0314359
0.0314245
0.0314128
0.0314017
0.03139
0.0313792
0.0313675
0.0313571
0.0313454
0.0313353
0.0313236
0.0313138
0.0313021
0.0312926
0.0312808
0.0312717
0.0312598
0.031251
0.0312391
0.0312305
0.0312185
0.03121
0.031198
0.0311896
0.0311772
0.0311703
0.0311558
0.0311545
0.0311339
0.0311415
0.0311014
0.0457228
0.0704375
0.0777443
0.0777712
0.0757619
0.0733601
0.071026
0.068837
0.0668365
0.0650512
0.063426
0.0619602
0.0606352
0.0594487
0.0583731
0.0573818
0.0564724
0.0556343
0.0548664
0.0541465
0.0534708
0.0528368
0.0522443
0.051689
0.051166
0.0506707
0.0502021
0.0497583
0.049338
0.0489386
0.0485571
0.0481932
0.0478449
0.0475127
0.0471946
0.0468894
0.0465959
0.0463135
0.0460422
0.0457807
0.0455291
0.0452857
0.0450509
0.0448235
0.0446038
0.0443912
0.0441854
0.0439858
0.0437919
0.0436037
0.043421
0.0432435
0.0430711
0.0429031
0.0427397
0.0425805
0.0424253
0.0422737
0.0421255
0.0419811
0.0418401
0.0417025
0.0415681
0.0414369
0.0413087
0.0411834
0.0410608
0.0409409
0.0408236
0.0407087
0.0405962
0.0404862
0.0403783
0.0402726
0.0401689
0.0400673
0.0399676
0.0398699
0.039774
0.0396799
0.0395875
0.0394968
0.0394077
0.0393202
0.0392343
0.0391498
0.0390668
0.0389852
0.038905
0.0388261
0.0387485
0.0386723
0.0385972
0.0385233
0.0384507
0.0383791
0.0383086
0.0382393
0.038171
0.0381038
0.0380376
0.0379723
0.037908
0.0378447
0.0377823
0.0377207
0.0376601
0.0376004
0.0375414
0.0374833
0.037426
0.0373695
0.0373137
0.0372588
0.0372045
0.037151
0.0370982
0.0370461
0.0369947
0.0369439
0.0368938
0.0368443
0.0367954
0.0367472
0.0366995
0.0366524
0.0366059
0.0365599
0.0365144
0.0364695
0.036425
0.036381
0.0363376
0.0362947
0.0362523
0.0362105
0.0361692
0.0361285
0.0360884
0.0360487
0.0360096
0.0359709
0.0359327
0.035895
0.0358576
0.0358207
0.0357841
0.0357478
0.0357119
0.0356763
0.0356411
0.0356062
0.0355717
0.0355375
0.0355036
0.0354701
0.035437
0.0354042
0.0353718
0.0353397
0.035308
0.0352766
0.0352456
0.0352148
0.0351844
0.0351543
0.0351245
0.035095
0.0350658
0.0350369
0.0350083
0.0349799
0.0349518
0.034924
0.0348965
0.0348692
0.0348422
0.0348154
0.0347889
0.0347627
0.0347367
0.034711
0.0346855
0.0346602
0.0346352
0.0346104
0.0345858
0.0345615
0.0345374
0.0345135
0.0344898
0.0344664
0.0344431
0.0344201
0.0343973
0.0343747
0.0343523
0.0343301
0.034308
0.0342862
0.0342646
0.0342432
0.0342219
0.0342009
0.03418
0.0341593
0.0341388
0.0341185
0.0340983
0.0340784
0.0340586
0.0340389
0.0340195
0.0340002
0.033981
0.0339621
0.0339433
0.0339246
0.0339061
0.0338878
0.0338696
0.0338516
0.0338337
0.033816
0.0337984
0.033781
0.0337637
0.0337465
0.0337295
0.0337127
0.0336959
0.0336794
0.0336629
0.0336466
0.0336304
0.0336144
0.0335984
0.0335827
0.033567
0.0335515
0.0335361
0.0335208
0.0335056
0.0334906
0.0334757
0.0334609
0.0334462
0.0334317
0.0334172
0.0334029
0.0333886
0.0333746
0.0333605
0.0333467
0.0333329
0.0333193
0.0333057
0.0332922
0.0332789
0.0332657
0.0332525
0.0332395
0.0332266
0.0332137
0.0332011
0.0331884
0.0331759
0.0331634
0.0331512
0.0331388
0.0331269
0.0331146
0.0331029
0.0330907
0.0330793
0.0330672
0.0330561
0.033044
0.0330333
0.0330212
0.0330108
0.0329988
0.0329886
0.0329766
0.0329667
0.0329547
0.0329452
0.0329331
0.0329238
0.0329118
0.0329027
0.0328906
0.0328817
0.0328695
0.0328605
0.0328481
0.0328392
0.0328278
0.0328183
0.0328026
0.0150988
0.0289288
0.0427708
0.051652
0.0566799
0.0589913
0.0597321
0.0594858
0.0588411
0.0580293
0.0571557
0.0562923
0.0554562
0.0546683
0.0539161
0.0531954
0.0525181
0.0518831
0.0512899
0.0507255
0.0501891
0.0496816
0.0492039
0.0487521
0.0483213
0.0479099
0.0475179
0.0471452
0.0467904
0.0464506
0.0461241
0.0458112
0.0455108
0.0452234
0.0449472
0.0446806
0.0444236
0.0441755
0.0439367
0.0437061
0.0434835
0.0432676
0.0430586
0.042856
0.04266
0.04247
0.0422855
0.0421063
0.041932
0.0417625
0.0415978
0.0414376
0.0412817
0.0411296
0.0409814
0.0408368
0.0406959
0.0405583
0.0404238
0.0402922
0.0401637
0.040038
0.0399151
0.039795
0.0396776
0.0395627
0.0394501
0.03934
0.039232
0.0391264
0.0390229
0.0389214
0.038822
0.0387244
0.0386287
0.0385349
0.0384428
0.0383524
0.0382637
0.0381766
0.0380911
0.038007
0.0379244
0.0378433
0.0377636
0.0376852
0.0376081
0.0375323
0.0374578
0.0373845
0.0373123
0.0372413
0.0371715
0.0371027
0.0370351
0.0369684
0.0369027
0.0368381
0.0367744
0.0367117
0.03665
0.0365891
0.0365291
0.0364699
0.0364116
0.0363541
0.0362975
0.0362416
0.0361865
0.0361322
0.0360786
0.0360257
0.0359735
0.0359221
0.0358713
0.0358211
0.0357717
0.0357228
0.0356746
0.035627
0.03558
0.0355335
0.0354877
0.0354424
0.0353977
0.0353534
0.0353097
0.0352665
0.0352239
0.0351817
0.03514
0.0350989
0.0350582
0.0350181
0.0349784
0.0349393
0.0349007
0.0348625
0.0348249
0.0347876
0.0347508
0.0347144
0.0346784
0.0346428
0.0346075
0.0345726
0.034538
0.0345038
0.0344699
0.0344363
0.0344031
0.0343703
0.0343377
0.0343056
0.0342737
0.0342423
0.0342111
0.0341803
0.0341498
0.0341196
0.0340898
0.0340602
0.034031
0.034002
0.0339734
0.033945
0.0339169
0.0338891
0.0338616
0.0338343
0.0338073
0.0337806
0.0337541
0.0337278
0.0337019
0.0336761
0.0336507
0.0336254
0.0336004
0.0335757
0.0335512
0.0335269
0.0335028
0.033479
0.0334554
0.033432
0.0334088
0.0333858
0.0333631
0.0333405
0.0333182
0.0332961
0.0332741
0.0332524
0.0332308
0.0332095
0.0331883
0.0331674
0.0331466
0.033126
0.0331056
0.0330853
0.0330653
0.0330454
0.0330257
0.0330061
0.0329868
0.0329676
0.0329485
0.0329297
0.032911
0.0328924
0.032874
0.0328558
0.0328377
0.0328198
0.032802
0.0327844
0.0327669
0.0327496
0.0327324
0.0327154
0.0326985
0.0326818
0.0326652
0.0326487
0.0326323
0.0326162
0.0326001
0.0325842
0.0325683
0.0325527
0.0325371
0.0325217
0.0325064
0.0324913
0.0324762
0.0324613
0.0324465
0.0324318
0.0324173
0.0324028
0.0323885
0.0323743
0.0323602
0.0323462
0.0323323
0.0323186
0.0323049
0.0322914
0.0322779
0.0322646
0.0322514
0.0322383
0.0322253
0.0322124
0.0321995
0.0321868
0.0321742
0.0321617
0.0321493
0.032137
0.0321248
0.0321126
0.0321007
0.0320887
0.0320769
0.0320651
0.0320535
0.0320419
0.0320305
0.032019
0.0320079
0.0319965
0.0319856
0.0319743
0.0319637
0.0319525
0.0319421
0.031931
0.0319209
0.0319099
0.0318999
0.031889
0.0318793
0.0318684
0.031859
0.0318482
0.031839
0.0318281
0.0318192
0.0318083
0.0317995
0.0317887
0.0317797
0.0317691
0.0317597
0.0317493
0.0317386
0.0317279
0.00552738
0.0118406
0.0195543
0.0283668
0.0361684
0.0420775
0.0462296
0.0486714
0.0500083
0.0506173
0.0507638
0.0506554
0.0504099
0.050093
0.0497268
0.0493359
0.0489385
0.0485429
0.0481532
0.0477652
0.0473854
0.0470181
0.0466657
0.0463254
0.045994
0.045673
0.0453632
0.045066
0.0447802
0.044503
0.0442342
0.0439746
0.043724
0.043483
0.0432496
0.0430228
0.042803
0.0425898
0.0423839
0.0421845
0.0419908
0.0418024
0.0416193
0.0414413
0.0412686
0.0411009
0.0409375
0.0407781
0.0406229
0.0404715
0.0403243
0.0401808
0.0400408
0.0399039
0.0397703
0.0396397
0.0395123
0.0393878
0.0392658
0.0391462
0.0390291
0.0389144
0.0388022
0.0386924
0.0385849
0.0384794
0.0383761
0.0382748
0.0381755
0.0380781
0.0379827
0.0378891
0.0377972
0.0377071
0.0376185
0.0375316
0.0374462
0.0373624
0.0372801
0.0371992
0.0371197
0.0370415
0.0369647
0.0368891
0.0368149
0.0367418
0.0366699
0.0365992
0.0365296
0.0364611
0.0363936
0.0363273
0.0362619
0.0361976
0.0361342
0.0360717
0.0360102
0.0359496
0.0358899
0.0358311
0.0357731
0.0357159
0.0356595
0.0356039
0.0355491
0.0354951
0.0354418
0.0353892
0.0353373
0.0352861
0.0352356
0.0351858
0.0351366
0.0350881
0.0350402
0.0349929
0.0349462
0.0349001
0.0348545
0.0348096
0.0347651
0.0347213
0.0346779
0.0346351
0.0345928
0.034551
0.0345096
0.0344688
0.0344284
0.0343886
0.0343492
0.0343103
0.0342719
0.034234
0.0341965
0.0341595
0.034123
0.0340868
0.0340511
0.0340158
0.0339809
0.0339463
0.0339121
0.0338782
0.0338446
0.0338114
0.0337785
0.033746
0.0337138
0.0336819
0.0336504
0.0336192
0.0335883
0.0335577
0.0335275
0.0334976
0.033468
0.0334388
0.0334098
0.0333811
0.0333528
0.0333247
0.0332969
0.0332693
0.0332421
0.0332151
0.0331883
0.0331619
0.0331357
0.0331097
0.033084
0.0330585
0.0330333
0.0330084
0.0329836
0.0329591
0.0329349
0.0329108
0.032887
0.0328634
0.0328401
0.0328169
0.032794
0.0327713
0.0327488
0.0327265
0.0327044
0.0326825
0.0326608
0.0326393
0.032618
0.0325969
0.032576
0.0325553
0.0325347
0.0325144
0.0324942
0.0324742
0.0324544
0.0324347
0.0324153
0.0323959
0.0323768
0.0323578
0.032339
0.0323204
0.0323019
0.0322836
0.0322654
0.0322474
0.0322296
0.0322119
0.0321943
0.0321769
0.0321597
0.0321426
0.0321256
0.0321088
0.0320921
0.0320756
0.0320592
0.0320429
0.0320268
0.0320108
0.0319949
0.0319792
0.0319636
0.0319481
0.0319328
0.0319176
0.0319025
0.0318875
0.0318727
0.031858
0.0318434
0.0318289
0.0318145
0.0318003
0.0317861
0.0317721
0.0317582
0.0317444
0.0317307
0.0317172
0.0317037
0.0316903
0.0316771
0.0316639
0.0316509
0.0316379
0.0316251
0.0316124
0.0315998
0.0315872
0.0315748
0.0315625
0.0315502
0.0315381
0.031526
0.0315141
0.0315022
0.0314905
0.0314788
0.0314672
0.0314558
0.0314443
0.0314331
0.0314218
0.0314108
0.0313996
0.0313888
0.0313778
0.0313672
0.0313563
0.0313459
0.0313352
0.0313249
0.0313144
0.0313043
0.0312939
0.0312841
0.0312737
0.0312641
0.0312539
0.0312445
0.0312343
0.0312251
0.031215
0.031206
0.031196
0.0311872
0.0311772
0.0311686
0.0311587
0.0311499
0.0311403
0.0311311
0.0311212
0.0311106
0.0311018
0.00217496
0.00492546
0.00829336
0.0131587
0.0193434
0.0257944
0.0314845
0.0360824
0.0395227
0.0418796
0.0434072
0.0443526
0.0449217
0.0452393
0.0453645
0.045368
0.0452961
0.045175
0.0450174
0.0448353
0.0446368
0.0444298
0.0442187
0.0440033
0.0437839
0.0435645
0.0433471
0.043134
0.0429242
0.0427162
0.0425112
0.0423105
0.0421145
0.0419241
0.0417371
0.0415535
0.0413741
0.0411988
0.0410286
0.0408625
0.0406999
0.0405408
0.0403853
0.0402335
0.0400858
0.0399415
0.0398003
0.0396619
0.0395267
0.0393945
0.0392656
0.0391395
0.039016
0.0388949
0.0387765
0.0386604
0.038547
0.0384359
0.0383268
0.0382197
0.0381145
0.0380113
0.0379101
0.0378109
0.0377136
0.037618
0.0375241
0.0374319
0.0373414
0.0372527
0.0371655
0.0370799
0.0369958
0.0369131
0.0368318
0.0367519
0.0366734
0.0365963
0.0365204
0.0364457
0.0363723
0.0363
0.0362289
0.036159
0.0360902
0.0360225
0.0359558
0.0358901
0.0358253
0.0357616
0.0356989
0.0356371
0.0355762
0.0355162
0.0354571
0.0353988
0.0353413
0.0352847
0.0352288
0.0351738
0.0351195
0.0350659
0.0350131
0.034961
0.0349096
0.0348589
0.0348089
0.0347595
0.0347108
0.0346626
0.0346152
0.0345683
0.034522
0.0344763
0.0344312
0.0343866
0.0343426
0.0342991
0.0342562
0.0342137
0.0341718
0.0341304
0.0340895
0.034049
0.034009
0.0339695
0.0339305
0.0338919
0.0338538
0.0338161
0.0337789
0.0337421
0.0337058
0.0336699
0.0336345
0.0335995
0.0335648
0.0335306
0.0334967
0.0334632
0.03343
0.0333972
0.0333646
0.0333324
0.0333005
0.033269
0.0332377
0.0332068
0.0331762
0.0331459
0.0331159
0.0330862
0.0330569
0.0330279
0.0329992
0.0329707
0.0329426
0.0329148
0.0328872
0.0328599
0.0328329
0.0328062
0.0327797
0.0327535
0.0327275
0.0327018
0.0326763
0.0326511
0.0326261
0.0326014
0.0325769
0.0325526
0.0325286
0.0325048
0.0324812
0.0324578
0.0324347
0.0324117
0.032389
0.0323665
0.0323442
0.0323222
0.0323003
0.0322786
0.0322571
0.0322358
0.0322147
0.0321938
0.0321731
0.0321526
0.0321322
0.0321121
0.0320921
0.0320723
0.0320527
0.0320332
0.0320139
0.0319948
0.0319758
0.0319571
0.0319384
0.03192
0.0319017
0.0318835
0.0318656
0.0318477
0.0318301
0.0318126
0.0317952
0.031778
0.0317609
0.031744
0.0317272
0.0317105
0.031694
0.0316777
0.0316614
0.0316453
0.0316294
0.0316135
0.0315978
0.0315823
0.0315668
0.0315515
0.0315364
0.0315213
0.0315064
0.0314916
0.0314769
0.0314623
0.0314479
0.0314335
0.0314193
0.0314052
0.0313912
0.0313774
0.0313636
0.03135
0.0313364
0.031323
0.0313097
0.0312965
0.0312834
0.0312704
0.0312575
0.0312447
0.031232
0.0312194
0.0312069
0.0311945
0.0311822
0.03117
0.0311579
0.0311459
0.031134
0.0311222
0.0311105
0.0310989
0.0310873
0.0310759
0.0310645
0.0310533
0.0310421
0.031031
0.03102
0.0310091
0.0309983
0.0309875
0.0309769
0.0309663
0.0309559
0.0309454
0.0309351
0.0309248
0.0309148
0.0309046
0.0308947
0.0308847
0.030875
0.0308651
0.0308556
0.0308458
0.0308365
0.0308269
0.0308177
0.0308082
0.0307992
0.0307898
0.030781
0.0307716
0.0307631
0.0307537
0.0307454
0.0307361
0.0307277
0.0307187
0.03071
0.0307005
0.0306905
0.0306823
0.000945266
0.00212322
0.00355461
0.00559599
0.00881312
0.0133281
0.0185137
0.0234862
0.0279092
0.0316382
0.0345924
0.0368081
0.0384135
0.0395639
0.0403622
0.0409098
0.0412765
0.0415171
0.0416599
0.0417232
0.0417357
0.0417127
0.041662
0.0415888
0.0414992
0.0413968
0.0412851
0.0411673
0.0410436
0.0409143
0.0407819
0.0406479
0.0405137
0.04038
0.0402452
0.0401101
0.0399761
0.0398433
0.0397127
0.0395836
0.0394556
0.039329
0.0392042
0.0390814
0.0389612
0.0388428
0.0387258
0.0386107
0.0384974
0.0383862
0.0382772
0.0381701
0.0380646
0.0379608
0.0378587
0.0377584
0.0376601
0.0375635
0.0374684
0.0373746
0.0372823
0.0371914
0.0371021
0.0370143
0.036928
0.036843
0.0367593
0.0366769
0.0365959
0.0365163
0.036438
0.0363609
0.036285
0.0362103
0.0361367
0.0360643
0.0359931
0.035923
0.035854
0.035786
0.0357189
0.0356529
0.0355879
0.0355239
0.0354608
0.0353987
0.0353374
0.035277
0.0352174
0.0351588
0.0351009
0.0350439
0.0349877
0.0349322
0.0348775
0.0348235
0.0347703
0.0347178
0.034666
0.0346149
0.0345645
0.0345147
0.0344655
0.034417
0.0343691
0.0343219
0.0342752
0.0342291
0.0341836
0.0341387
0.0340943
0.0340505
0.0340072
0.0339644
0.0339222
0.0338804
0.0338391
0.0337984
0.033758
0.0337182
0.0336789
0.03364
0.0336015
0.0335635
0.0335259
0.0334887
0.033452
0.0334157
0.0333798
0.0333444
0.0333094
0.0332747
0.0332405
0.0332067
0.0331733
0.0331402
0.0331076
0.0330752
0.0330432
0.0330115
0.0329801
0.032949
0.0329182
0.0328877
0.0328575
0.0328276
0.032798
0.0327687
0.0327397
0.032711
0.0326826
0.0326545
0.0326267
0.0325992
0.032572
0.0325451
0.0325184
0.032492
0.0324658
0.0324399
0.0324143
0.0323889
0.0323638
0.0323388
0.0323142
0.0322897
0.0322655
0.0322415
0.0322178
0.0321942
0.0321709
0.0321478
0.032125
0.0321023
0.0320799
0.0320576
0.0320356
0.0320138
0.0319922
0.0319707
0.0319495
0.0319285
0.0319076
0.031887
0.0318665
0.0318462
0.0318261
0.0318062
0.0317864
0.0317668
0.0317474
0.0317282
0.0317092
0.0316903
0.0316715
0.031653
0.0316346
0.0316163
0.0315982
0.0315803
0.0315625
0.0315449
0.0315274
0.0315101
0.031493
0.0314759
0.0314591
0.0314423
0.0314257
0.0314093
0.031393
0.0313768
0.0313608
0.0313449
0.0313291
0.0313134
0.0312979
0.0312825
0.0312673
0.0312522
0.0312372
0.0312223
0.0312075
0.0311929
0.0311784
0.031164
0.0311497
0.0311355
0.0311215
0.0311076
0.0310937
0.03108
0.0310664
0.031053
0.0310396
0.0310263
0.0310132
0.0310001
0.0309872
0.0309743
0.0309616
0.0309489
0.0309364
0.0309239
0.0309116
0.0308994
0.0308872
0.0308752
0.0308632
0.0308513
0.0308396
0.0308279
0.0308163
0.0308048
0.0307934
0.0307821
0.0307709
0.0307598
0.0307487
0.0307378
0.0307269
0.0307161
0.0307055
0.0306948
0.0306843
0.0306739
0.0306635
0.0306532
0.030643
0.0306329
0.0306229
0.0306129
0.0306031
0.0305933
0.0305836
0.0305739
0.0305644
0.0305549
0.0305455
0.0305361
0.030527
0.0305177
0.0305087
0.0304996
0.0304908
0.0304818
0.0304732
0.0304642
0.0304558
0.0304469
0.0304387
0.0304298
0.0304219
0.0304131
0.0304051
0.0303965
0.0303883
0.0303794
0.0303701
0.0303622
0.000496872
0.000983901
0.00159441
0.00241849
0.00373158
0.00589046
0.0091496
0.0131641
0.0173652
0.0213351
0.0249341
0.028064
0.0306657
0.0327748
0.0343983
0.03564
0.0365818
0.0372993
0.0378398
0.0382361
0.0385285
0.0387428
0.0388956
0.0389973
0.0390583
0.0390894
0.0390974
0.0390869
0.0390602
0.0390207
0.0389711
0.0389129
0.0388482
0.038778
0.0387021
0.0386219
0.038539
0.038454
0.0383679
0.0382801
0.0381907
0.0381005
0.03801
0.0379196
0.0378299
0.03774
0.0376501
0.0375606
0.0374717
0.0373836
0.0372967
0.0372104
0.0371248
0.0370399
0.0369559
0.036873
0.0367913
0.0367105
0.0366305
0.0365513
0.036473
0.0363955
0.0363192
0.0362439
0.0361695
0.0360959
0.0360233
0.0359516
0.0358809
0.0358112
0.0357425
0.0356746
0.0356076
0.0355415
0.0354763
0.035412
0.0353487
0.0352862
0.0352244
0.0351635
0.0351034
0.0350441
0.0349856
0.034928
0.0348711
0.0348149
0.0347594
0.0347046
0.0346506
0.0345973
0.0345447
0.0344928
0.0344415
0.0343909
0.0343408
0.0342915
0.0342427
0.0341946
0.0341471
0.0341002
0.0340538
0.034008
0.0339627
0.033918
0.0338739
0.0338303
0.0337872
0.0337446
0.0337025
0.0336609
0.0336198
0.0335791
0.033539
0.0334993
0.0334601
0.0334213
0.0333829
0.0333449
0.0333074
0.0332704
0.0332337
0.0331974
0.0331616
0.0331261
0.033091
0.0330563
0.033022
0.0329881
0.0329545
0.0329214
0.0328886
0.0328562
0.0328242
0.0327925
0.0327612
0.0327302
0.0326995
0.0326691
0.032639
0.0326092
0.0325797
0.0325505
0.0325215
0.0324928
0.0324643
0.0324362
0.0324083
0.0323807
0.0323534
0.0323263
0.0322996
0.0322731
0.0322469
0.0322209
0.0321952
0.0321698
0.0321446
0.0321197
0.032095
0.0320705
0.0320463
0.0320223
0.0319985
0.031975
0.0319516
0.0319285
0.0319056
0.0318829
0.0318604
0.0318381
0.031816
0.0317941
0.0317725
0.031751
0.0317297
0.0317087
0.0316878
0.0316671
0.0316466
0.0316262
0.0316061
0.0315861
0.0315663
0.0315467
0.0315273
0.031508
0.0314889
0.03147
0.0314512
0.0314326
0.0314142
0.0313959
0.0313778
0.0313598
0.031342
0.0313244
0.0313069
0.0312895
0.0312723
0.0312553
0.0312384
0.0312216
0.031205
0.0311885
0.0311721
0.0311559
0.0311399
0.0311239
0.0311081
0.0310925
0.0310769
0.0310615
0.0310463
0.0310311
0.0310161
0.0310012
0.0309864
0.0309717
0.0309572
0.0309428
0.0309285
0.0309143
0.0309002
0.0308863
0.0308724
0.0308587
0.0308451
0.0308316
0.0308182
0.0308049
0.0307917
0.0307786
0.0307657
0.0307528
0.03074
0.0307274
0.0307148
0.0307024
0.03069
0.0306777
0.0306656
0.0306535
0.0306416
0.0306297
0.0306179
0.0306062
0.0305946
0.0305831
0.0305717
0.0305604
0.0305491
0.030538
0.030527
0.030516
0.0305051
0.0304943
0.0304836
0.030473
0.0304624
0.030452
0.0304416
0.0304313
0.0304211
0.0304109
0.0304009
0.0303909
0.030381
0.0303712
0.0303615
0.0303518
0.0303423
0.0303327
0.0303233
0.030314
0.0303047
0.0302955
0.0302864
0.0302774
0.0302684
0.0302595
0.0302507
0.0302419
0.0302333
0.0302247
0.0302162
0.0302077
0.0301994
0.0301909
0.0301829
0.0301745
0.0301666
0.0301582
0.0301507
0.0301424
0.0301347
0.0301266
0.0301189
0.0301106
0.0301019
0.0300942
0.000341821
0.000534352
0.000789556
0.00112399
0.0016322
0.00248551
0.00393219
0.00618719
0.00918271
0.012617
0.0161043
0.0193696
0.0223779
0.0250852
0.0274198
0.0293893
0.031005
0.0323057
0.0333506
0.0341795
0.0348377
0.0353611
0.0357782
0.0361077
0.036365
0.0365666
0.0367242
0.0368458
0.0369354
0.0369988
0.0370423
0.0370687
0.0370816
0.0370819
0.0370723
0.0370541
0.0370285
0.0369969
0.0369601
0.0369183
0.0368721
0.0368226
0.0367703
0.0367159
0.0366599
0.0366018
0.0365419
0.0364808
0.0364189
0.0363565
0.0362939
0.0362305
0.0361667
0.0361027
0.0360387
0.0359748
0.0359113
0.0358478
0.0357844
0.0357211
0.035658
0.0355953
0.0355332
0.0354714
0.03541
0.0353489
0.0352883
0.0352282
0.0351687
0.0351098
0.0350514
0.0349936
0.0349363
0.0348795
0.0348233
0.0347678
0.0347129
0.0346586
0.0346048
0.0345516
0.0344989
0.0344469
0.0343954
0.0343446
0.0342943
0.0342445
0.0341953
0.0341466
0.0340985
0.0340509
0.034004
0.0339575
0.0339115
0.033866
0.0338211
0.0337766
0.0337327
0.0336892
0.0336463
0.0336038
0.0335618
0.0335202
0.0334791
0.0334385
0.0333983
0.0333586
0.0333193
0.0332804
0.0332419
0.0332038
0.0331662
0.033129
0.0330922
0.0330557
0.0330197
0.032984
0.0329487
0.0329138
0.0328792
0.032845
0.0328112
0.0327777
0.0327446
0.0327118
0.0326794
0.0326473
0.0326155
0.0325841
0.032553
0.0325223
0.0324919
0.0324618
0.032432
0.0324026
0.0323734
0.0323446
0.032316
0.0322877
0.0322597
0.0322319
0.0322043
0.032177
0.0321499
0.0321231
0.0320965
0.0320702
0.0320441
0.0320183
0.0319927
0.0319674
0.0319424
0.0319176
0.031893
0.0318687
0.0318446
0.0318208
0.0317972
0.0317738
0.0317506
0.0317276
0.0317048
0.0316823
0.0316599
0.0316378
0.0316158
0.0315941
0.0315725
0.0315511
0.0315299
0.031509
0.0314882
0.0314676
0.0314471
0.0314269
0.0314068
0.031387
0.0313673
0.0313477
0.0313284
0.0313092
0.0312902
0.0312713
0.0312526
0.0312341
0.0312157
0.0311975
0.0311795
0.0311616
0.0311439
0.0311263
0.0311088
0.0310915
0.0310744
0.0310574
0.0310406
0.0310238
0.0310073
0.0309908
0.0309746
0.0309584
0.0309424
0.0309265
0.0309107
0.0308951
0.0308796
0.0308643
0.030849
0.0308339
0.030819
0.0308041
0.0307894
0.0307748
0.0307603
0.0307459
0.0307316
0.0307175
0.0307034
0.0306895
0.0306757
0.030662
0.0306485
0.030635
0.0306216
0.0306084
0.0305952
0.0305822
0.0305693
0.0305564
0.0305437
0.0305311
0.0305185
0.0305061
0.0304938
0.0304816
0.0304694
0.0304574
0.0304455
0.0304336
0.0304219
0.0304102
0.0303987
0.0303872
0.0303758
0.0303645
0.0303533
0.0303422
0.0303312
0.0303202
0.0303094
0.0302986
0.0302879
0.0302773
0.0302668
0.0302563
0.030246
0.0302357
0.0302255
0.0302154
0.0302054
0.0301954
0.0301856
0.0301758
0.0301661
0.0301564
0.0301469
0.0301374
0.030128
0.0301186
0.0301094
0.0301002
0.0300911
0.030082
0.030073
0.0300642
0.0300553
0.0300466
0.0300379
0.0300293
0.0300208
0.0300124
0.030004
0.0299957
0.0299875
0.0299793
0.0299712
0.0299631
0.0299553
0.0299473
0.0299396
0.0299316
0.0299242
0.0299163
0.029909
0.0299012
0.029894
0.0298863
0.0298791
0.0298713
0.0298634
0.0298559
0.000285607
0.00036589
0.000469267
0.000604525
0.00079996
0.00111715
0.00166664
0.00261186
0.0041113
0.00626655
0.00895157
0.0118791
0.014834
0.0175884
0.0201645
0.0225383
0.0246524
0.0264934
0.0280842
0.0294069
0.0305043
0.0314142
0.0321682
0.0327901
0.0333013
0.033723
0.0340718
0.0343607
0.0345982
0.034792
0.0349511
0.035081
0.0351871
0.0352718
0.0353372
0.035388
0.0354259
0.0354532
0.0354706
0.0354798
0.0354818
0.0354775
0.0354675
0.0354529
0.035434
0.0354108
0.0353841
0.0353545
0.0353224
0.0352882
0.0352522
0.0352141
0.0351743
0.0351332
0.0350911
0.035048
0.0350044
0.0349599
0.0349146
0.0348686
0.0348223
0.0347757
0.0347289
0.0346819
0.0346346
0.0345871
0.0345395
0.034492
0.0344447
0.0343975
0.0343504
0.0343034
0.0342566
0.0342099
0.0341635
0.0341175
0.0340718
0.0340263
0.0339811
0.0339361
0.0338915
0.0338472
0.0338034
0.0337599
0.0337167
0.0336738
0.0336313
0.0335892
0.0335474
0.033506
0.0334651
0.0334244
0.0333841
0.0333442
0.0333046
0.0332654
0.0332266
0.0331882
0.0331501
0.0331124
0.033075
0.033038
0.0330013
0.032965
0.032929
0.0328934
0.0328582
0.0328232
0.0327886
0.0327543
0.0327204
0.0326868
0.0326535
0.0326205
0.0325879
0.0325555
0.0325235
0.0324917
0.0324603
0.0324292
0.0323984
0.0323679
0.0323376
0.0323077
0.032278
0.0322486
0.0322196
0.0321908
0.0321623
0.0321341
0.0321062
0.0320786
0.0320512
0.0320241
0.0319973
0.0319707
0.0319444
0.0319182
0.0318923
0.0318666
0.0318412
0.0318159
0.0317908
0.031766
0.0317414
0.031717
0.0316928
0.0316689
0.0316452
0.0316217
0.0315984
0.0315754
0.0315526
0.03153
0.0315076
0.0314854
0.0314634
0.0314416
0.03142
0.0313986
0.0313773
0.0313563
0.0313354
0.0313147
0.0312942
0.0312739
0.0312538
0.0312338
0.031214
0.0311944
0.0311749
0.0311556
0.0311365
0.0311175
0.0310988
0.0310801
0.0310617
0.0310434
0.0310252
0.0310072
0.0309894
0.0309717
0.0309541
0.0309367
0.0309195
0.0309024
0.0308854
0.0308686
0.0308519
0.0308354
0.030819
0.0308028
0.0307866
0.0307706
0.0307548
0.0307391
0.0307235
0.030708
0.0306926
0.0306774
0.0306623
0.0306474
0.0306325
0.0306178
0.0306032
0.0305887
0.0305743
0.0305601
0.030546
0.0305319
0.030518
0.0305042
0.0304906
0.030477
0.0304635
0.0304502
0.0304369
0.0304238
0.0304107
0.0303978
0.030385
0.0303723
0.0303596
0.0303471
0.0303347
0.0303223
0.0303101
0.030298
0.0302859
0.030274
0.0302622
0.0302504
0.0302387
0.0302272
0.0302157
0.0302043
0.030193
0.0301818
0.0301707
0.0301596
0.0301487
0.0301378
0.0301271
0.0301164
0.0301058
0.0300952
0.0300848
0.0300744
0.0300641
0.0300539
0.0300438
0.0300338
0.0300238
0.0300139
0.0300041
0.0299944
0.0299847
0.0299752
0.0299656
0.0299562
0.0299469
0.0299376
0.0299284
0.0299192
0.0299102
0.0299012
0.0298923
0.0298834
0.0298747
0.029866
0.0298573
0.0298488
0.0298403
0.0298318
0.0298235
0.0298152
0.029807
0.0297989
0.0297908
0.0297828
0.0297749
0.029767
0.0297592
0.0297515
0.0297439
0.0297362
0.0297288
0.0297212
0.029714
0.0297065
0.0296994
0.029692
0.0296851
0.0296778
0.029671
0.0296637
0.029657
0.0296496
0.0296424
0.0296353
0.000263423
0.00029915
0.000345477
0.000400441
0.000476537
0.000593312
0.00078933
0.0011348
0.00173123
0.0027079
0.00418143
0.00616557
0.00855403
0.0110673
0.0136065
0.0160033
0.0182437
0.0203374
0.0222625
0.0239826
0.0255046
0.0268327
0.0279649
0.0289297
0.0297513
0.0304475
0.031037
0.0315382
0.0319638
0.0323238
0.0326292
0.032889
0.033111
0.0333001
0.0334589
0.0335938
0.0337081
0.0338052
0.0338866
0.033954
0.0340093
0.0340547
0.0340911
0.0341199
0.0341413
0.0341568
0.0341667
0.0341717
0.0341722
0.0341688
0.0341619
0.0341514
0.034138
0.034122
0.0341038
0.0340835
0.0340616
0.0340376
0.0340121
0.0339851
0.0339569
0.0339277
0.0338977
0.0338666
0.0338346
0.0338019
0.0337685
0.0337347
0.0337005
0.033666
0.0336311
0.0335958
0.0335603
0.0335246
0.0334888
0.033453
0.0334171
0.0333812
0.0333451
0.0333091
0.0332732
0.0332373
0.0332016
0.033166
0.0331304
0.033095
0.0330597
0.0330245
0.0329896
0.0329548
0.0329203
0.0328859
0.0328517
0.0328177
0.0327839
0.0327503
0.032717
0.0326839
0.032651
0.0326184
0.0325859
0.0325537
0.0325218
0.0324901
0.0324587
0.0324274
0.0323965
0.0323657
0.0323352
0.0323049
0.0322749
0.0322452
0.0322156
0.0321863
0.0321573
0.0321285
0.0320999
0.0320715
0.0320434
0.0320156
0.0319879
0.0319605
0.0319333
0.0319064
0.0318797
0.0318532
0.031827
0.031801
0.0317753
0.0317497
0.0317245
0.0316994
0.0316746
0.03165
0.0316256
0.0316014
0.0315774
0.0315535
0.0315299
0.0315064
0.0314831
0.03146
0.0314371
0.0314144
0.0313918
0.0313695
0.0313473
0.0313253
0.0313036
0.031282
0.0312606
0.0312394
0.0312184
0.0311976
0.031177
0.0311565
0.0311362
0.0311161
0.0310962
0.0310764
0.0310568
0.0310373
0.031018
0.0309989
0.0309799
0.0309611
0.0309424
0.0309239
0.0309055
0.0308873
0.0308693
0.0308513
0.0308336
0.030816
0.0307985
0.0307812
0.030764
0.030747
0.0307301
0.0307134
0.0306967
0.0306803
0.0306639
0.0306477
0.0306316
0.0306157
0.0305998
0.0305842
0.0305686
0.0305532
0.0305378
0.0305227
0.0305076
0.0304926
0.0304778
0.0304631
0.0304485
0.030434
0.0304197
0.0304054
0.0303913
0.0303773
0.0303634
0.0303496
0.0303359
0.0303224
0.0303089
0.0302955
0.0302823
0.0302691
0.0302561
0.0302432
0.0302303
0.0302176
0.030205
0.0301924
0.03018
0.0301676
0.0301554
0.0301432
0.0301312
0.0301192
0.0301074
0.0300956
0.0300839
0.0300723
0.0300608
0.0300494
0.0300381
0.0300269
0.0300157
0.0300047
0.0299937
0.0299828
0.029972
0.0299613
0.0299507
0.0299401
0.0299296
0.0299192
0.0299089
0.0298987