/*--------------------------------*- C++ -*----------------------------------*\
| =========                 |                                                 |
| \\      /  F ield         | foam-extend: Open Source CFD                    |
|  \\    /   O peration     | Version:     3.2                                |
|   \\  /    A nd           | Web:         http://www.foam-extend.org         |
|    \\/     M anipulation  | For copyright notice see file Copyright         |
\*---------------------------------------------------------------------------*/
FoamFile
{
    version     2.0;
    format      ascii;
    class       areaVectorField;
    location    "37";
    object      q_bed;
}
// * * * * * * * * * * * * * * * * * * * * * * * * * * * * * * * * * * * * * //

dimensions      [0 2 -1 0 0 0 0];

internalField   nonuniform List<vector> 
300
(
(0.00422331 0 0)
(0.00366695 0 0)
(0.00284074 0 0)
(0.00239533 0 0)
(0.00219593 0 0)
(0.00208258 0 0)
(0.00199645 0 0)
(0.00191823 0 0)
(0.00184387 0 0)
(0.00177447 0 0)
(0.00171103 0 0)
(0.00165319 0 0)
(0.00159999 0 0)
(0.00155188 0 0)
(0.00150811 0 0)
(0.00146795 0 0)
(0.00143096 0 0)
(0.0013966 0 0)
(0.00136498 0 0)
(0.00133603 0 0)
(0.00130907 0 0)
(0.00128368 0 0)
(0.00125979 0 0)
(0.00123732 0 0)
(0.00121624 0 0)
(0.00119626 0 0)
(0.00117738 0 0)
(0.00115941 0 0)
(0.00114241 0 0)
(0.00112629 0 0)
(0.00111091 0 0)
(0.00109626 0 0)
(0.00108223 0 0)
(0.00106884 0 0)
(0.00105602 0 0)
(0.00104378 0 0)
(0.001032 0 0)
(0.0010207 0 0)
(0.00100981 0 0)
(0.000999338 0 0)
(0.000989294 0 0)
(0.000979574 0 0)
(0.000970232 0 0)
(0.00096117 0 0)
(0.000952435 0 0)
(0.000943981 0 0)
(0.000935823 0 0)
(0.00092792 0 0)
(0.000920248 0 0)
(0.000912826 0 0)
(0.000905603 0 0)
(0.000898609 0 0)
(0.000891821 0 0)
(0.000885224 0 0)
(0.000878816 0 0)
(0.000872569 0 0)
(0.000866501 0 0)
(0.000860562 0 0)
(0.00085475 0 0)
(0.000849088 0 0)
(0.000843565 0 0)
(0.000838188 0 0)
(0.000832944 0 0)
(0.000827828 0 0)
(0.000822839 0 0)
(0.000817972 0 0)
(0.000813217 0 0)
(0.000808571 0 0)
(0.000804028 0 0)
(0.000799587 0 0)
(0.000795247 0 0)
(0.000791002 0 0)
(0.000786851 0 0)
(0.000782784 0 0)
(0.000778801 0 0)
(0.000774905 0 0)
(0.000771084 0 0)
(0.000767345 0 0)
(0.00076368 0 0)
(0.000760085 0 0)
(0.000756564 0 0)
(0.000753107 0 0)
(0.000749717 0 0)
(0.000746392 0 0)
(0.000743126 0 0)
(0.000739927 0 0)
(0.000736783 0 0)
(0.000733693 0 0)
(0.000730663 0 0)
(0.000727682 0 0)
(0.000724757 0 0)
(0.000721882 0 0)
(0.000719055 0 0)
(0.00071628 0 0)
(0.000713548 0 0)
(0.000710862 0 0)
(0.000708223 0 0)
(0.000705624 0 0)
(0.00070307 0 0)
(0.000700557 0 0)
(0.000698083 0 0)
(0.00069565 0 0)
(0.000693253 0 0)
(0.000690893 0 0)
(0.000688572 0 0)
(0.000686284 0 0)
(0.000684033 0 0)
(0.000681817 0 0)
(0.00067963 0 0)
(0.000677479 0 0)
(0.000675359 0 0)
(0.000673268 0 0)
(0.00067121 0 0)
(0.000669181 0 0)
(0.000667181 0 0)
(0.000665211 0 0)
(0.000663267 0 0)
(0.00066135 0 0)
(0.000659461 0 0)
(0.000657597 0 0)
(0.000655758 0 0)
(0.000653946 0 0)
(0.000652157 0 0)
(0.000650392 0 0)
(0.000648651 0 0)
(0.00064693 0 0)
(0.000645232 0 0)
(0.000643554 0 0)
(0.000641895 0 0)
(0.000640256 0 0)
(0.000638635 0 0)
(0.000637033 0 0)
(0.000635451 0 0)
(0.000633888 0 0)
(0.000632346 0 0)
(0.000630826 0 0)
(0.000629327 0 0)
(0.000627849 0 0)
(0.000626394 0 0)
(0.000624959 0 0)
(0.000623544 0 0)
(0.000622149 0 0)
(0.000620772 0 0)
(0.000619411 0 0)
(0.000618067 0 0)
(0.000616738 0 0)
(0.000615421 0 0)
(0.000614119 0 0)
(0.000612829 0 0)
(0.000611551 0 0)
(0.000610285 0 0)
(0.000609032 0 0)
(0.000607792 0 0)
(0.000606565 0 0)
(0.00060535 0 0)
(0.000604149 0 0)
(0.000602962 0 0)
(0.000601788 0 0)
(0.000600628 0 0)
(0.000599481 0 0)
(0.000598348 0 0)
(0.000597228 0 0)
(0.00059612 0 0)
(0.000595025 0 0)
(0.000593941 0 0)
(0.00059287 0 0)
(0.00059181 0 0)
(0.000590761 0 0)
(0.000589723 0 0)
(0.000588695 0 0)
(0.000587678 0 0)
(0.000586672 0 0)
(0.000585675 0 0)
(0.000584689 0 0)
(0.000583713 0 0)
(0.000582747 0 0)
(0.00058179 0 0)
(0.000580843 0 0)
(0.000579906 0 0)
(0.000578978 0 0)
(0.000578059 0 0)
(0.00057715 0 0)
(0.000576249 0 0)
(0.000575358 0 0)
(0.000574475 0 0)
(0.000573601 0 0)
(0.000572736 0 0)
(0.000571879 0 0)
(0.00057103 0 0)
(0.00057019 0 0)
(0.000569357 0 0)
(0.000568533 0 0)
(0.000567716 0 0)
(0.000566908 0 0)
(0.000566106 0 0)
(0.000565313 0 0)
(0.000564527 0 0)
(0.000563748 0 0)
(0.000562976 0 0)
(0.000562212 0 0)
(0.000561455 0 0)
(0.000560705 0 0)
(0.000559961 0 0)
(0.000559225 0 0)
(0.000558495 0 0)
(0.000557772 0 0)
(0.000557055 0 0)
(0.000556346 0 0)
(0.000555642 0 0)
(0.000554945 0 0)
(0.000554254 0 0)
(0.00055357 0 0)
(0.000552891 0 0)
(0.000552219 0 0)
(0.000551552 0 0)
(0.000550892 0 0)
(0.000550237 0 0)
(0.000549588 0 0)
(0.000548945 0 0)
(0.000548308 0 0)
(0.000547675 0 0)
(0.00054705 0 0)
(0.000546428 0 0)
(0.000545813 0 0)
(0.000545202 0 0)
(0.000544598 0 0)
(0.000543998 0 0)
(0.000543404 0 0)
(0.000542814 0 0)
(0.000542231 0 0)
(0.00054165 0 0)
(0.000541077 0 0)
(0.000540506 0 0)
(0.000539943 0 0)
(0.000539382 0 0)
(0.000538829 0 0)
(0.000538277 0 0)
(0.000537733 0 0)
(0.00053719 0 0)
(0.000536656 0 0)
(0.000536122 0 0)
(0.000535597 0 0)
(0.000535071 0 0)
(0.000534555 0 0)
(0.000534038 0 0)
(0.00053353 0 0)
(0.000533022 0 0)
(0.000532522 0 0)
(0.000532022 0 0)
(0.000531531 0 0)
(0.000531039 0 0)
(0.000530556 0 0)
(0.000530072 0 0)
(0.000529597 0 0)
(0.000529121 0 0)
(0.000528654 0 0)
(0.000528186 0 0)
(0.000527725 0 0)
(0.000527266 0 0)
(0.000526812 0 0)
(0.00052636 0 0)
(0.000525913 0 0)
(0.00052547 0 0)
(0.000525029 0 0)
(0.000524594 0 0)
(0.000524159 0 0)
(0.000523733 0 0)
(0.000523302 0 0)
(0.000522885 0 0)
(0.000522458 0 0)
(0.000522051 0 0)
(0.000521628 0 0)
(0.00052123 0 0)
(0.00052081 0 0)
(0.000520423 0 0)
(0.000520004 0 0)
(0.000519629 0 0)
(0.000519211 0 0)
(0.000518847 0 0)
(0.000518428 0 0)
(0.000518077 0 0)
(0.000517657 0 0)
(0.000517318 0 0)
(0.000516896 0 0)
(0.000516569 0 0)
(0.000516145 0 0)
(0.000515829 0 0)
(0.000515402 0 0)
(0.000515094 0 0)
(0.000514666 0 0)
(0.000514362 0 0)
(0.000513934 0 0)
(0.000513632 0 0)
(0.000513192 0 0)
(0.000512943 0 0)
(0.000512428 0 0)
(0.000512381 0 0)
(0.000511647 0 0)
(0.000511914 0 0)
(0.000510484 0 0)
)
;

boundaryField
{
    inlet
    {
        type            zeroGradient;
    }
    outlet
    {
        type            zeroGradient;
    }
    sideWall
    {
        type            empty;
    }
}


// ************************************************************************* //
