/*--------------------------------*- C++ -*----------------------------------*\
| =========                 |                                                 |
| \\      /  F ield         | foam-extend: Open Source CFD                    |
|  \\    /   O peration     | Version:     3.2                                |
|   \\  /    A nd           | Web:         http://www.foam-extend.org         |
|    \\/     M anipulation  | For copyright notice see file Copyright         |
\*---------------------------------------------------------------------------*/
FoamFile
{
    version     2.0;
    format      ascii;
    class       areaScalarField;
    location    "50";
    object      a;
}
// * * * * * * * * * * * * * * * * * * * * * * * * * * * * * * * * * * * * * //

dimensions      [1 -1 0 0 0 0 0];

internalField   nonuniform List<scalar> 
300
(
0.000282065
0.000282065
0.000282065
0.000282065
0.000282065
0.000282065
0.000282065
0.000282065
0.000282065
0.000282065
0.000282065
0.000282065
0.000282065
0.000282065
0.000282065
0.000282065
0.000282065
0.000282065
0.000282065
0.000282065
0.000282065
0.000282065
0.000282065
0.000282065
0.000282065
0.000282065
0.000282065
0.000282065
0.000282065
0.000282065
0.000282065
0.000282065
0.000282065
0.000282065
0.000282065
0.000282065
0.000282065
0.000282065
0.000282065
0.000282065
0.000282065
0.000282065
0.000282065
0.000282065
0.000282065
0.000282065
0.000282065
0.000282065
0.000282065
0.000282065
0.000282065
0.000282065
0.000282065
0.000282065
0.000282065
0.000282065
0.000282065
0.000282065
0.000282065
0.000180363
9.71856e-05
6.9287e-05
5.97149e-05
5.49213e-05
5.23153e-05
5.08168e-05
4.99515e-05
4.94304e-05
4.91394e-05
4.89391e-05
4.88644e-05
4.88975e-05
4.88058e-05
4.86776e-05
4.87486e-05
4.8861e-05
4.89039e-05
4.90029e-05
4.90865e-05
4.90641e-05
4.90871e-05
4.91475e-05
4.9162e-05
4.92074e-05
4.92571e-05
4.92502e-05
4.92676e-05
4.92886e-05
4.92668e-05
4.92765e-05
4.92899e-05
4.92638e-05
4.92722e-05
4.92838e-05
4.92609e-05
4.92697e-05
4.92817e-05
4.92641e-05
4.92705e-05
4.92876e-05
4.92741e-05
4.92745e-05
4.92959e-05
4.92899e-05
4.92824e-05
4.93029e-05
4.93101e-05
4.9296e-05
4.93047e-05
4.93269e-05
4.93225e-05
4.93105e-05
4.93257e-05
4.93461e-05
4.93407e-05
4.93304e-05
4.9344e-05
4.93658e-05
4.93711e-05
4.93658e-05
4.93687e-05
4.93823e-05
4.9399e-05
4.94137e-05
4.94252e-05
4.94339e-05
4.94408e-05
4.94466e-05
4.94515e-05
4.94559e-05
4.94603e-05
4.94648e-05
4.94692e-05
4.9474e-05
4.94791e-05
4.94842e-05
4.94897e-05
4.94955e-05
4.95014e-05
4.95067e-05
4.95119e-05
4.9517e-05
4.9523e-05
4.953e-05
4.95332e-05
4.95416e-05
4.95481e-05
4.95497e-05
4.95661e-05
4.95687e-05
4.95644e-05
4.95845e-05
4.95859e-05
4.9582e-05
4.96103e-05
4.96058e-05
4.95908e-05
4.96313e-05
4.96349e-05
4.96058e-05
4.96454e-05
4.96643e-05
4.96314e-05
4.96566e-05
4.96809e-05
4.96652e-05
4.96834e-05
4.96919e-05
4.96811e-05
4.97141e-05
4.97367e-05
4.97153e-05
4.97289e-05
4.97629e-05
4.97615e-05
4.97762e-05
4.98156e-05
4.98156e-05
4.9802e-05
4.98281e-05
4.98461e-05
4.98269e-05
4.98297e-05
4.98624e-05
4.98687e-05
4.98548e-05
4.98635e-05
4.98864e-05
4.9894e-05
4.98896e-05
4.98948e-05
4.9902e-05
4.99073e-05
4.99168e-05
4.99085e-05
4.99054e-05
4.99171e-05
4.99093e-05
4.99139e-05
4.99363e-05
4.99275e-05
4.99367e-05
4.99743e-05
4.99612e-05
4.99573e-05
5.00013e-05
4.99949e-05
4.99786e-05
5.00175e-05
5.00263e-05
5.00131e-05
5.00333e-05
5.00354e-05
5.00387e-05
5.00699e-05
5.00589e-05
5.00441e-05
5.0076e-05
5.00784e-05
5.0067e-05
5.00871e-05
5.00756e-05
5.00599e-05
5.00871e-05
5.00869e-05
5.00795e-05
5.01107e-05
5.0112e-05
5.01039e-05
5.01342e-05
5.01352e-05
5.01261e-05
5.01557e-05
5.01564e-05
5.01466e-05
5.01757e-05
5.01763e-05
5.01655e-05
5.01942e-05
5.01949e-05
5.01834e-05
5.02113e-05
5.0212e-05
5.01998e-05
5.02272e-05
5.02277e-05
5.02147e-05
5.02415e-05
5.02421e-05
5.02282e-05
5.02544e-05
5.02548e-05
5.02403e-05
5.02658e-05
5.02663e-05
5.0251e-05
5.02756e-05
5.02772e-05
5.02592e-05
5.0285e-05
5.02853e-05
5.02695e-05
5.02926e-05
5.02924e-05
5.02763e-05
5.02947e-05
5.03125e-05
5.02784e-05
5.02945e-05
5.03041e-05
5.03078e-05
5.03049e-05
5.02903e-05
5.03164e-05
5.03117e-05
5.03194e-05
5.02914e-05
5.03129e-05
5.03309e-05
5.03299e-05
5.0305e-05
5.03063e-05
5.03286e-05
5.03336e-05
5.03244e-05
5.03184e-05
5.03106e-05
5.02915e-05
5.02876e-05
5.0276e-05
5.02794e-05
5.02722e-05
5.02807e-05
5.03176e-05
5.35841e-05
7.40185e-05
0.000152729
0.000282065
0.000282065
0.000282065
)
;

boundaryField
{
    inlet
    {
        type            calculated;
        value           uniform 0;
    }
    outlet
    {
        type            calculated;
        value           uniform 0;
    }
    sideWall
    {
        type            empty;
    }
}


// ************************************************************************* //
