/*--------------------------------*- C++ -*----------------------------------*\
| =========                 |                                                 |
| \\      /  F ield         | foam-extend: Open Source CFD                    |
|  \\    /   O peration     | Version:     3.2                                |
|   \\  /    A nd           | Web:         http://www.foam-extend.org         |
|    \\/     M anipulation  | For copyright notice see file Copyright         |
\*---------------------------------------------------------------------------*/
FoamFile
{
    version     2.0;
    format      ascii;
    class       surfaceScalarField;
    location    "50";
    object      AdSS1;
}
// * * * * * * * * * * * * * * * * * * * * * * * * * * * * * * * * * * * * * //

dimensions      [0 3 -1 0 0 0 0];

internalField   nonuniform List<scalar> 
10482
(
9.2385e-06
1.05326e-05
6.60188e-06
8.24391e-07
6.26661e-06
-1.47696e-06
6.22713e-06
-1.77275e-06
6.20454e-06
-1.78963e-06
6.16333e-06
-1.77103e-06
6.14746e-06
-1.79635e-06
6.12847e-06
-1.79324e-06
6.12755e-06
-1.81131e-06
6.12616e-06
-1.81084e-06
6.13413e-06
-1.8202e-06
6.14147e-06
-1.81957e-06
6.15639e-06
-1.82715e-06
6.17128e-06
-1.82712e-06
6.18934e-06
-1.83029e-06
6.20898e-06
-1.83187e-06
6.23066e-06
-1.83391e-06
6.25275e-06
-1.83431e-06
6.2765e-06
-1.83598e-06
6.30213e-06
-1.83786e-06
6.3289e-06
-1.839e-06
6.3563e-06
-1.83963e-06
6.38445e-06
-1.84038e-06
6.41289e-06
-1.84067e-06
6.44186e-06
-1.8412e-06
6.46996e-06
-1.84032e-06
6.49529e-06
-1.83757e-06
6.5169e-06
-1.83384e-06
6.53512e-06
-1.83045e-06
6.55029e-06
-1.82741e-06
6.56298e-06
-1.82492e-06
6.5735e-06
-1.82275e-06
6.58228e-06
-1.82101e-06
6.58954e-06
-1.81949e-06
6.59561e-06
-1.8183e-06
6.60063e-06
-1.81726e-06
6.60485e-06
-1.81644e-06
6.60836e-06
-1.81574e-06
6.61132e-06
-1.81519e-06
6.61379e-06
-1.81471e-06
6.61591e-06
-1.81435e-06
6.61768e-06
-1.814e-06
6.61925e-06
-1.8138e-06
6.62052e-06
-1.81349e-06
6.62168e-06
-1.81339e-06
6.62256e-06
-1.81311e-06
6.62361e-06
-1.81328e-06
6.62427e-06
-1.8129e-06
6.62504e-06
-1.81299e-06
6.62529e-06
-1.81249e-06
6.62626e-06
-1.8132e-06
6.62558e-06
-1.81156e-06
6.62751e-06
-1.81416e-06
6.62511e-06
-1.80983e-06
6.6296e-06
-1.81671e-06
6.62303e-06
-1.80566e-06
6.63616e-06
-1.82536e-06
6.62829e-06
-1.80436e-06
6.62076e-06
-1.80471e-06
5.86994e-06
-1.06141e-06
5.39242e-06
-1.3347e-06
5.52711e-06
-1.94692e-06
5.54505e-06
-1.83017e-06
5.61252e-06
-1.8797e-06
5.62185e-06
-1.82156e-06
5.66026e-06
-1.85064e-06
5.66689e-06
-1.81886e-06
5.68515e-06
-1.83049e-06
5.68794e-06
-1.81503e-06
5.69329e-06
-1.81757e-06
5.69893e-06
-1.81787e-06
5.70241e-06
-1.81571e-06
5.6896e-06
-1.79942e-06
5.69434e-06
-1.81697e-06
5.70082e-06
-1.81871e-06
5.69574e-06
-1.80715e-06
5.69494e-06
-1.81143e-06
5.70119e-06
-1.81848e-06
5.69372e-06
-1.80476e-06
5.68945e-06
-1.80796e-06
5.69384e-06
-1.81662e-06
5.69069e-06
-1.80907e-06
5.68851e-06
-1.81006e-06
5.69259e-06
-1.8163e-06
5.68889e-06
-1.80854e-06
5.68661e-06
-1.80995e-06
5.68982e-06
-1.81544e-06
5.68663e-06
-1.80905e-06
5.68475e-06
-1.81034e-06
5.68802e-06
-1.8155e-06
5.68517e-06
-1.80938e-06
5.68373e-06
-1.81079e-06
5.68705e-06
-1.81555e-06
5.68433e-06
-1.80951e-06
5.6836e-06
-1.8115e-06
5.68629e-06
-1.81492e-06
5.68423e-06
-1.81017e-06
5.68343e-06
-1.81144e-06
5.68585e-06
-1.81464e-06
5.68508e-06
-1.81146e-06
5.68316e-06
-1.81032e-06
5.68555e-06
-1.81461e-06
5.68558e-06
-1.81226e-06
5.6836e-06
-1.81025e-06
5.68486e-06
-1.81349e-06
5.68641e-06
-1.81377e-06
5.68463e-06
-1.81045e-06
5.68427e-06
-1.81188e-06
5.68614e-06
-1.8141e-06
5.68621e-06
-1.8123e-06
5.6844e-06
-1.81042e-06
5.68499e-06
-1.81281e-06
5.68666e-06
-1.81391e-06
5.68627e-06
-1.81184e-06
5.68487e-06
-1.81082e-06
5.68543e-06
-1.81279e-06
5.68668e-06
-1.81348e-06
5.68674e-06
-1.81229e-06
5.68613e-06
-1.81161e-06
5.68593e-06
-1.81204e-06
5.68647e-06
-1.81276e-06
5.68704e-06
-1.8128e-06
5.68735e-06
-1.81254e-06
5.68756e-06
-1.81244e-06
5.68766e-06
-1.81233e-06
5.68775e-06
-1.81232e-06
5.68782e-06
-1.81229e-06
5.68792e-06
-1.81233e-06
5.68802e-06
-1.81233e-06
5.68802e-06
-1.81223e-06
5.68802e-06
-1.81223e-06
5.68807e-06
-1.81228e-06
5.68814e-06
-1.81231e-06
5.68823e-06
-1.81232e-06
5.68828e-06
-1.81227e-06
5.68835e-06
-1.8123e-06
5.68845e-06
-1.81233e-06
5.68858e-06
-1.81236e-06
5.68871e-06
-1.81236e-06
5.68875e-06
-1.81227e-06
5.68888e-06
-1.81235e-06
5.68891e-06
-1.81226e-06
5.68911e-06
-1.81243e-06
5.68913e-06
-1.81225e-06
5.68886e-06
-1.81196e-06
5.68971e-06
-1.81308e-06
5.6889e-06
-1.81142e-06
5.68929e-06
-1.81262e-06
5.69064e-06
-1.81358e-06
5.68856e-06
-1.81015e-06
5.68968e-06
-1.81335e-06
5.69098e-06
-1.81353e-06
5.68859e-06
-1.80983e-06
5.69006e-06
-1.8137e-06
5.69209e-06
-1.81426e-06
5.68795e-06
-1.80809e-06
5.69003e-06
-1.8143e-06
5.69337e-06
-1.81558e-06
5.68827e-06
-1.80713e-06
5.68948e-06
-1.81344e-06
5.69424e-06
-1.81699e-06
5.68929e-06
-1.80728e-06
5.68932e-06
-1.81226e-06
5.6937e-06
-1.81662e-06
5.69025e-06
-1.80877e-06
5.69054e-06
-1.81253e-06
5.69327e-06
-1.81496e-06
5.69017e-06
-1.80913e-06
5.69127e-06
-1.81333e-06
5.69452e-06
-1.81547e-06
5.69172e-06
-1.80943e-06
5.69035e-06
-1.81086e-06
5.69412e-06
-1.81599e-06
5.69323e-06
-1.81135e-06
5.6917e-06
-1.81069e-06
5.69443e-06
-1.81497e-06
5.69521e-06
-1.81301e-06
5.69226e-06
-1.80928e-06
5.69341e-06
-1.81338e-06
5.69595e-06
-1.81477e-06
5.69396e-06
-1.81024e-06
5.69238e-06
-1.81065e-06
5.69482e-06
-1.81467e-06
5.69575e-06
-1.81316e-06
5.69393e-06
-1.81041e-06
5.69384e-06
-1.81213e-06
5.69532e-06
-1.81371e-06
5.69552e-06
-1.81243e-06
5.69482e-06
-1.81153e-06
5.69459e-06
-1.812e-06
5.69554e-06
-1.81318e-06
5.69502e-06
-1.8117e-06
5.69565e-06
-1.81286e-06
5.6958e-06
-1.81239e-06
5.69427e-06
-1.8107e-06
5.69586e-06
-1.81381e-06
5.69557e-06
-1.81194e-06
5.69408e-06
-1.81074e-06
5.69633e-06
-1.81448e-06
5.69628e-06
-1.81218e-06
5.69383e-06
-1.80978e-06
5.6974e-06
-1.8158e-06
5.69754e-06
-1.81238e-06
5.69391e-06
-1.80859e-06
5.69736e-06
-1.81569e-06
5.69879e-06
-1.81366e-06
5.69422e-06
-1.80766e-06
5.69681e-06
-1.81481e-06
5.69938e-06
-1.81481e-06
5.69589e-06
-1.80874e-06
5.69714e-06
-1.81347e-06
5.69871e-06
-1.81381e-06
5.69625e-06
-1.80977e-06
5.69861e-06
-1.81459e-06
5.69944e-06
-1.81306e-06
5.69568e-06
-1.80847e-06
5.69799e-06
-1.81454e-06
5.70006e-06
-1.8143e-06
5.69682e-06
-1.80899e-06
5.69848e-06
-1.81389e-06
5.69966e-06
-1.81341e-06
5.69619e-06
-1.80876e-06
5.69826e-06
-1.81431e-06
5.70014e-06
-1.8141e-06
5.69688e-06
-1.80897e-06
5.6989e-06
-1.81424e-06
5.70075e-06
-1.81409e-06
5.69746e-06
-1.80894e-06
5.69938e-06
-1.81415e-06
5.70127e-06
-1.81412e-06
5.69797e-06
-1.80892e-06
5.69983e-06
-1.8141e-06
5.70177e-06
-1.81417e-06
5.69846e-06
-1.80892e-06
5.70028e-06
-1.81405e-06
5.70227e-06
-1.81422e-06
5.69893e-06
-1.80889e-06
5.7007e-06
-1.814e-06
5.70275e-06
-1.81428e-06
5.69942e-06
-1.8089e-06
5.70112e-06
-1.81393e-06
5.70321e-06
-1.81433e-06
5.69988e-06
-1.8089e-06
5.70153e-06
-1.81388e-06
5.70366e-06
-1.81437e-06
5.70032e-06
-1.80889e-06
5.70191e-06
-1.81382e-06
5.70409e-06
-1.81441e-06
5.70075e-06
-1.80888e-06
5.70227e-06
-1.81375e-06
5.7045e-06
-1.81447e-06
5.70113e-06
-1.80885e-06
5.70263e-06
-1.81373e-06
5.70484e-06
-1.81445e-06
5.70153e-06
-1.80891e-06
5.70293e-06
-1.81363e-06
5.70516e-06
-1.81446e-06
5.70193e-06
-1.809e-06
5.70287e-06
-1.81318e-06
5.70596e-06
-1.81531e-06
5.70196e-06
-1.80824e-06
5.70395e-06
-1.81422e-06
5.70511e-06
-1.81339e-06
5.70279e-06
-1.8099e-06
5.70364e-06
-1.81308e-06
5.70582e-06
-1.81441e-06
5.70459e-06
-1.811e-06
5.70043e-06
-1.80807e-06
5.70837e-06
-1.82016e-06
5.70108e-06
-1.80494e-06
5.70803e-06
-1.81918e-06
5.70113e-06
-1.80533e-06
5.70613e-06
-1.81723e-06
5.70466e-06
-1.81076e-06
5.7049e-06
-1.81247e-06
5.7055e-06
-1.81283e-06
5.70024e-06
-1.80697e-06
5.70972e-06
-1.82172e-06
5.70149e-06
-1.804e-06
5.70908e-06
-1.81982e-06
5.69863e-06
-1.80179e-06
5.70984e-06
-1.82343e-06
5.70106e-06
-1.80346e-06
5.7095e-06
-1.82066e-06
5.70003e-06
-1.80276e-06
5.70925e-06
-1.82145e-06
5.69949e-06
-1.80247e-06
5.70762e-06
-1.82037e-06
5.70022e-06
-1.80483e-06
5.70675e-06
-1.81876e-06
5.70143e-06
-1.80691e-06
5.70516e-06
-1.81596e-06
5.69739e-06
-1.80447e-06
5.72319e-06
-1.83803e-06
6.13841e-06
-2.22745e-06
6.98244e-06
-2.65626e-06
7.1699e-06
-1.99969e-06
6.64714e-06
-1.28947e-06
6.62202e-06
-1.78711e-06
-1.79476e-06
1.62236e-05
1.58923e-05
1.34998e-05
3.54822e-06
1.25624e-05
-5.396e-07
1.23086e-05
-1.51891e-06
1.21314e-05
-1.61253e-06
1.19977e-05
-1.63726e-06
1.19146e-05
-1.71325e-06
1.18605e-05
-1.73917e-06
1.18329e-05
-1.78367e-06
1.18226e-05
-1.80059e-06
1.18241e-05
-1.82174e-06
1.18328e-05
-1.82819e-06
1.18525e-05
-1.84689e-06
1.18757e-05
-1.85035e-06
1.19053e-05
-1.85991e-06
1.1939e-05
-1.86555e-06
1.19769e-05
-1.87176e-06
1.20167e-05
-1.87416e-06
1.20591e-05
-1.87837e-06
1.21054e-05
-1.88416e-06
1.21542e-05
-1.88784e-06
1.22048e-05
-1.89019e-06
1.22569e-05
-1.89248e-06
1.231e-05
-1.89377e-06
1.23645e-05
-1.89569e-06
1.24177e-05
-1.89351e-06
1.24659e-05
-1.88581e-06
1.25078e-05
-1.87567e-06
1.25435e-05
-1.86619e-06
1.25737e-05
-1.85766e-06
1.25993e-05
-1.85045e-06
1.26207e-05
-1.84418e-06
1.26387e-05
-1.83899e-06
1.26537e-05
-1.83453e-06
1.26663e-05
-1.83088e-06
1.26769e-05
-1.82779e-06
1.26857e-05
-1.82526e-06
1.26931e-05
-1.82315e-06
1.26993e-05
-1.82141e-06
1.27046e-05
-1.81997e-06
1.2709e-05
-1.81877e-06
1.27128e-05
-1.81778e-06
1.2716e-05
-1.81704e-06
1.27187e-05
-1.81624e-06
1.27211e-05
-1.81579e-06
1.2723e-05
-1.815e-06
1.27246e-05
-1.81483e-06
1.27261e-05
-1.81436e-06
1.27274e-05
-1.81435e-06
1.27284e-05
-1.81344e-06
1.27294e-05
-1.81426e-06
1.27297e-05
-1.81184e-06
1.2731e-05
-1.81548e-06
1.27302e-05
-1.80899e-06
1.27325e-05
-1.81907e-06
1.27303e-05
-1.80347e-06
1.27389e-05
-1.83387e-06
1.27573e-05
-1.8228e-06
1.2754e-05
-1.80145e-06
1.16669e-05
2.56809e-08
1.07176e-05
-3.85344e-07
1.07039e-05
-1.93326e-06
1.0717e-05
-1.84325e-06
1.0797e-05
-1.95964e-06
1.08324e-05
-1.85702e-06
1.08901e-05
-1.90831e-06
1.09197e-05
-1.84853e-06
1.09509e-05
-1.86161e-06
1.09665e-05
-1.8307e-06
1.09783e-05
-1.82936e-06
1.09955e-05
-1.83506e-06
1.10031e-05
-1.82328e-06
1.09873e-05
-1.78363e-06
1.09938e-05
-1.82351e-06
1.1006e-05
-1.83083e-06
1.10013e-05
-1.80252e-06
1.10015e-05
-1.81157e-06
1.10097e-05
-1.82672e-06
1.10003e-05
-1.79533e-06
1.09936e-05
-1.80131e-06
1.09982e-05
-1.82123e-06
1.09946e-05
-1.80547e-06
1.09922e-05
-1.80766e-06
1.09968e-05
-1.82089e-06
1.09922e-05
-1.80392e-06
1.09889e-05
-1.8066e-06
1.09919e-05
-1.81851e-06
1.09879e-05
-1.80503e-06
1.09853e-05
-1.80775e-06
1.09886e-05
-1.81877e-06
1.09851e-05
-1.80588e-06
1.09832e-05
-1.80891e-06
1.09867e-05
-1.81908e-06
1.09835e-05
-1.80629e-06
1.09825e-05
-1.81046e-06
1.09856e-05
-1.81801e-06
1.09832e-05
-1.80781e-06
1.09822e-05
-1.8104e-06
1.09852e-05
-1.81764e-06
1.09842e-05
-1.81046e-06
1.09819e-05
-1.808e-06
1.09848e-05
-1.81755e-06
1.0985e-05
-1.81246e-06
1.09825e-05
-1.80774e-06
1.09842e-05
-1.81517e-06
1.09863e-05
-1.81588e-06
1.0984e-05
-1.80821e-06
1.09836e-05
-1.81142e-06
1.09862e-05
-1.81676e-06
1.09863e-05
-1.81242e-06
1.09838e-05
-1.80789e-06
1.09846e-05
-1.81361e-06
1.09872e-05
-1.81653e-06
1.09868e-05
-1.81139e-06
1.09846e-05
-1.80869e-06
1.09853e-05
-1.81347e-06
1.09874e-05
-1.81558e-06
1.09878e-05
-1.81272e-06
1.09869e-05
-1.81064e-06
1.09864e-05
-1.81159e-06
1.09873e-05
-1.81363e-06
1.09884e-05
-1.81392e-06
1.09891e-05
-1.81324e-06
1.09896e-05
-1.81289e-06
1.09898e-05
-1.81256e-06
1.099e-05
-1.81249e-06
1.09901e-05
-1.81242e-06
1.09902e-05
-1.81244e-06
1.09902e-05
-1.81236e-06
1.09903e-05
-1.81229e-06
1.09904e-05
-1.81237e-06
1.09906e-05
-1.81241e-06
1.09907e-05
-1.81244e-06
1.09909e-05
-1.81251e-06
1.0991e-05
-1.81243e-06
1.09912e-05
-1.81249e-06
1.09914e-05
-1.81255e-06
1.09917e-05
-1.81261e-06
1.09919e-05
-1.8126e-06
1.09921e-05
-1.81243e-06
1.09924e-05
-1.81266e-06
1.09926e-05
-1.81244e-06
1.09929e-05
-1.81274e-06
1.09928e-05
-1.81218e-06
1.09926e-05
-1.81179e-06
1.09937e-05
-1.81415e-06
1.09928e-05
-1.81055e-06
1.09935e-05
-1.81331e-06
1.09951e-05
-1.81513e-06
1.09928e-05
-1.80793e-06
1.09942e-05
-1.81467e-06
1.09956e-05
-1.81501e-06
1.09931e-05
-1.8073e-06
1.09951e-05
-1.81565e-06
1.09972e-05
-1.81641e-06
1.09925e-05
-1.80334e-06
1.09951e-05
-1.81695e-06
1.09991e-05
-1.81959e-06
1.0993e-05
-1.80102e-06
1.09946e-05
-1.81505e-06
1.10006e-05
-1.82299e-06
1.09948e-05
-1.80148e-06
1.09948e-05
-1.81222e-06
1.10003e-05
-1.82209e-06
1.09965e-05
-1.80502e-06
1.09966e-05
-1.81266e-06
1.09998e-05
-1.81813e-06
1.09963e-05
-1.80562e-06
1.09979e-05
-1.81489e-06
1.10021e-05
-1.81975e-06
1.09987e-05
-1.806e-06
1.09972e-05
-1.80934e-06
1.10019e-05
-1.82071e-06
1.10011e-05
-1.81059e-06
1.09995e-05
-1.8091e-06
1.10033e-05
-1.81873e-06
1.10043e-05
-1.81399e-06
1.10005e-05
-1.80546e-06
1.1002e-05
-1.81486e-06
1.10055e-05
-1.81829e-06
1.10029e-05
-1.80767e-06
1.10007e-05
-1.80841e-06
1.1004e-05
-1.81799e-06
1.10055e-05
-1.81471e-06
1.10031e-05
-1.80801e-06
1.10028e-05
-1.8118e-06
1.1005e-05
-1.81588e-06
1.10057e-05
-1.81314e-06
1.10046e-05
-1.8105e-06
1.10043e-05
-1.81168e-06
1.10055e-05
-1.81437e-06
1.10051e-05
-1.8113e-06
1.1006e-05
-1.81373e-06
1.10059e-05
-1.81234e-06
1.1004e-05
-1.80881e-06
1.10059e-05
-1.81564e-06
1.10056e-05
-1.8117e-06
1.1004e-05
-1.8091e-06
1.10068e-05
-1.81731e-06
1.10068e-05
-1.81213e-06
1.10041e-05
-1.80714e-06
1.10087e-05
-1.82034e-06
1.10089e-05
-1.81264e-06
1.10046e-05
-1.80428e-06
1.1009e-05
-1.82004e-06
1.10108e-05
-1.81545e-06
1.10055e-05
-1.80234e-06
1.10085e-05
-1.81782e-06
1.10117e-05
-1.81802e-06
1.1008e-05
-1.80505e-06
1.10092e-05
-1.8147e-06
1.10109e-05
-1.81553e-06
1.10085e-05
-1.8073e-06
1.10115e-05
-1.8176e-06
1.10124e-05
-1.81394e-06
1.10079e-05
-1.80402e-06
1.10106e-05
-1.81728e-06
1.10131e-05
-1.81678e-06
1.10096e-05
-1.8055e-06
1.10115e-05
-1.81576e-06
1.10126e-05
-1.81448e-06
1.10086e-05
-1.80476e-06
1.1011e-05
-1.81675e-06
1.10132e-05
-1.8163e-06
1.10098e-05
-1.80559e-06
1.10122e-05
-1.81665e-06
1.10144e-05
-1.81622e-06
1.10109e-05
-1.80547e-06
1.10132e-05
-1.81641e-06
1.10153e-05
-1.81624e-06
1.10118e-05
-1.80542e-06
1.1014e-05
-1.81629e-06
1.10162e-05
-1.81634e-06
1.10126e-05
-1.80538e-06
1.10148e-05
-1.81619e-06
1.1017e-05
-1.81645e-06
1.10134e-05
-1.80531e-06
1.10155e-05
-1.81607e-06
1.10178e-05
-1.8166e-06
1.10142e-05
-1.80529e-06
1.10162e-05
-1.81592e-06
1.10185e-05
-1.8167e-06
1.10149e-05
-1.80528e-06
1.10169e-05
-1.8158e-06
1.10193e-05
-1.81678e-06
1.10156e-05
-1.80523e-06
1.10175e-05
-1.81568e-06
1.102e-05
-1.81689e-06
1.10163e-05
-1.80521e-06
1.10181e-05
-1.81552e-06
1.10206e-05
-1.81701e-06
1.10169e-05
-1.80515e-06
1.10186e-05
-1.81546e-06
1.10211e-05
-1.81694e-06
1.10174e-05
-1.8052e-06
1.1019e-05
-1.81524e-06
1.10217e-05
-1.81715e-06
1.10179e-05
-1.80523e-06
1.10192e-05
-1.81447e-06
1.10227e-05
-1.81879e-06
1.10183e-05
-1.80383e-06
1.10203e-05
-1.81628e-06
1.10218e-05
-1.81485e-06
1.10191e-05
-1.80725e-06
1.10198e-05
-1.81376e-06
1.10229e-05
-1.81749e-06
1.10206e-05
-1.80873e-06
1.10173e-05
-1.80478e-06
1.10253e-05
-1.82811e-06
1.10182e-05
-1.79784e-06
1.10247e-05
-1.82568e-06
1.1018e-05
-1.79865e-06
1.10228e-05
-1.82207e-06
1.10218e-05
-1.80976e-06
1.10221e-05
-1.81275e-06
1.10214e-05
-1.81211e-06
1.10178e-05
-1.80333e-06
1.10266e-05
-1.83053e-06
1.10201e-05
-1.79749e-06
1.10258e-05
-1.82552e-06
1.10153e-05
-1.79131e-06
1.10263e-05
-1.83447e-06
1.10196e-05
-1.79668e-06
1.10266e-05
-1.82767e-06
1.10175e-05
-1.79367e-06
1.10259e-05
-1.82987e-06
1.10166e-05
-1.79316e-06
1.10233e-05
-1.82708e-06
1.1017e-05
-1.79854e-06
1.1022e-05
-1.82372e-06
1.1018e-05
-1.80297e-06
1.102e-05
-1.8179e-06
1.10131e-05
-1.79757e-06
1.0997e-05
-1.82192e-06
1.15996e-05
-2.83014e-06
1.30496e-05
-4.10622e-06
1.36568e-05
-2.60688e-06
1.30485e-05
-6.81147e-07
1.28342e-05
-1.57284e-06
-1.75403e-06
1.97368e-05
1.77389e-05
1.74841e-05
5.80098e-06
1.62917e-05
6.52752e-07
1.57656e-05
-9.92753e-07
1.53974e-05
-1.24434e-06
1.51803e-05
-1.42017e-06
1.50333e-05
-1.56622e-06
1.49411e-05
-1.64704e-06
1.48843e-05
-1.72681e-06
1.48575e-05
-1.77382e-06
1.48463e-05
-1.8105e-06
1.48498e-05
-1.83175e-06
1.48656e-05
-1.8627e-06
1.48882e-05
-1.87291e-06
1.49198e-05
-1.89155e-06
1.49572e-05
-1.90288e-06
1.50004e-05
-1.91496e-06
1.5047e-05
-1.9208e-06
1.50968e-05
-1.92815e-06
1.51515e-05
-1.93891e-06
1.52098e-05
-1.94607e-06
1.52705e-05
-1.95095e-06
1.53334e-05
-1.95533e-06
1.53979e-05
-1.95824e-06
1.54642e-05
-1.96206e-06
1.5529e-05
-1.95827e-06
1.55878e-05
-1.94462e-06
1.56392e-05
-1.92706e-06
1.56834e-05
-1.91043e-06
1.57212e-05
-1.89541e-06
1.57532e-05
-1.88249e-06
1.57803e-05
-1.87123e-06
1.58031e-05
-1.86177e-06
1.58222e-05
-1.85367e-06
1.58383e-05
-1.84695e-06
1.58517e-05
-1.84128e-06
1.5863e-05
-1.83656e-06
1.58726e-05
-1.83268e-06
1.58806e-05
-1.82939e-06
1.58873e-05
-1.82675e-06
1.5893e-05
-1.82445e-06
1.58979e-05
-1.82265e-06
1.5902e-05
-1.82119e-06
1.59056e-05
-1.81978e-06
1.59086e-05
-1.81883e-06
1.59111e-05
-1.81747e-06
1.59134e-05
-1.81709e-06
1.59153e-05
-1.81628e-06
1.5917e-05
-1.81604e-06
1.59183e-05
-1.81475e-06
1.59194e-05
-1.8154e-06
1.59202e-05
-1.81262e-06
1.59213e-05
-1.81654e-06
1.59219e-05
-1.80961e-06
1.59232e-05
-1.82038e-06
1.59232e-05
-1.80345e-06
1.59286e-05
-1.83935e-06
1.59581e-05
-1.85229e-06
1.59505e-05
-1.79377e-06
1.48466e-05
1.12955e-06
1.3729e-05
7.32236e-07
1.35417e-05
-1.74596e-06
1.35119e-05
-1.81339e-06
1.35724e-05
-2.02021e-06
1.36111e-05
-1.89569e-06
1.36736e-05
-1.97086e-06
1.37139e-05
-1.8888e-06
1.37533e-05
-1.90103e-06
1.37772e-05
-1.85457e-06
1.37947e-05
-1.84687e-06
1.38188e-05
-1.85913e-06
1.38306e-05
-1.83512e-06
1.38176e-05
-1.77062e-06
1.3824e-05
-1.82994e-06
1.38381e-05
-1.84487e-06
1.38366e-05
-1.80107e-06
1.38379e-05
-1.81288e-06
1.38459e-05
-1.83472e-06
1.38379e-05
-1.78728e-06
1.38312e-05
-1.79467e-06
1.38346e-05
-1.82454e-06
1.38317e-05
-1.80263e-06
1.38296e-05
-1.80557e-06
1.38334e-05
-1.82463e-06
1.38294e-05
-1.79996e-06
1.3826e-05
-1.8032e-06
1.38281e-05
-1.82059e-06
1.38244e-05
-1.80135e-06
1.38217e-05
-1.80499e-06
1.38242e-05
-1.8213e-06
1.3821e-05
-1.8027e-06
1.38189e-05
-1.80682e-06
1.38219e-05
-1.82205e-06
1.38191e-05
-1.80353e-06
1.38179e-05
-1.80921e-06
1.38205e-05
-1.82069e-06
1.38185e-05
-1.80581e-06
1.38174e-05
-1.80928e-06
1.38201e-05
-1.82031e-06
1.38194e-05
-1.80979e-06
1.38173e-05
-1.80592e-06
1.38198e-05
-1.82005e-06
1.38203e-05
-1.81289e-06
1.38181e-05
-1.80557e-06
1.38195e-05
-1.8166e-06
1.38216e-05
-1.81791e-06
1.38196e-05
-1.80625e-06
1.3819e-05
-1.81084e-06
1.38216e-05
-1.81938e-06
1.3822e-05
-1.81274e-06
1.38195e-05
-1.80547e-06
1.38201e-05
-1.81421e-06
1.38228e-05
-1.81923e-06
1.38226e-05
-1.8112e-06
1.38205e-05
-1.80654e-06
1.38209e-05
-1.81391e-06
1.38232e-05
-1.81786e-06
1.3824e-05
-1.81349e-06
1.3823e-05
-1.80966e-06
1.38225e-05
-1.81103e-06
1.38233e-05
-1.81452e-06
1.38246e-05
-1.81521e-06
1.38255e-05
-1.8141e-06
1.38261e-05
-1.81347e-06
1.38264e-05
-1.81289e-06
1.38266e-05
-1.81272e-06
1.38268e-05
-1.81259e-06
1.38269e-05
-1.81259e-06
1.3827e-05
-1.81245e-06
1.38271e-05
-1.81239e-06
1.38273e-05
-1.81255e-06
1.38275e-05
-1.81257e-06
1.38276e-05
-1.81261e-06
1.38279e-05
-1.81275e-06
1.38281e-05
-1.81265e-06
1.38283e-05
-1.81273e-06
1.38286e-05
-1.81281e-06
1.38289e-05
-1.8129e-06
1.38291e-05
-1.81286e-06
1.38294e-05
-1.81265e-06
1.38297e-05
-1.81304e-06
1.383e-05
-1.81269e-06
1.38303e-05
-1.81307e-06
1.38303e-05
-1.81216e-06
1.38302e-05
-1.81173e-06
1.38313e-05
-1.81516e-06
1.38306e-05
-1.80994e-06
1.38313e-05
-1.81397e-06
1.38327e-05
-1.81653e-06
1.38309e-05
-1.80609e-06
1.3832e-05
-1.81581e-06
1.38335e-05
-1.81646e-06
1.38314e-05
-1.80521e-06
1.38331e-05
-1.8174e-06
1.38351e-05
-1.8184e-06
1.38311e-05
-1.79933e-06
1.38333e-05
-1.81916e-06
1.3837e-05
-1.82331e-06
1.38319e-05
-1.79592e-06
1.38331e-05
-1.81623e-06
1.38386e-05
-1.82851e-06
1.38339e-05
-1.79674e-06
1.38335e-05
-1.81183e-06
1.38384e-05
-1.82706e-06
1.38357e-05
-1.80222e-06
1.38355e-05
-1.81252e-06
1.38383e-05
-1.8209e-06
1.38355e-05
-1.80286e-06
1.38369e-05
-1.81624e-06
1.38409e-05
-1.82376e-06
1.38381e-05
-1.80316e-06
1.38366e-05
-1.80791e-06
1.38409e-05
-1.82499e-06
1.38407e-05
-1.81038e-06
1.38394e-05
-1.80784e-06
1.3843e-05
-1.82231e-06
1.38442e-05
-1.81521e-06
1.38408e-05
-1.80203e-06
1.3842e-05
-1.81605e-06
1.38452e-05
-1.82153e-06
1.38431e-05
-1.80556e-06
1.3841e-05
-1.80627e-06
1.3844e-05
-1.82104e-06
1.38458e-05
-1.81649e-06
1.38436e-05
-1.80581e-06
1.38431e-05
-1.81126e-06
1.38453e-05
-1.81808e-06
1.38463e-05
-1.81414e-06
1.38453e-05
-1.80953e-06
1.38449e-05
-1.81132e-06
1.3846e-05
-1.81545e-06
1.38458e-05
-1.81106e-06
1.38466e-05
-1.81457e-06
1.38466e-05
-1.8123e-06
1.38448e-05
-1.80704e-06
1.38463e-05
-1.81716e-06
1.38463e-05
-1.81171e-06
1.3845e-05
-1.80773e-06
1.38474e-05
-1.81974e-06
1.38476e-05
-1.81236e-06
1.38454e-05
-1.80493e-06
1.38495e-05
-1.82438e-06
1.385e-05
-1.81324e-06
1.38462e-05
-1.80043e-06
1.38501e-05
-1.82392e-06
1.38521e-05
-1.81744e-06
1.38474e-05
-1.79766e-06
1.38499e-05
-1.8203e-06
1.3853e-05
-1.82117e-06
1.38499e-05
-1.80198e-06
1.38508e-05
-1.81559e-06
1.38525e-05
-1.81719e-06
1.38505e-05
-1.80526e-06
1.38532e-05
-1.82035e-06
1.38542e-05
-1.81492e-06
1.38502e-05
-1.8e-06
1.38525e-05
-1.81957e-06
1.38549e-05
-1.81922e-06
1.38519e-05
-1.80249e-06
1.38534e-05
-1.81731e-06
1.38545e-05
-1.8155e-06
1.38508e-05
-1.80113e-06
1.38529e-05
-1.8188e-06
1.3855e-05
-1.81845e-06
1.38522e-05
-1.80275e-06
1.38543e-05
-1.81877e-06
1.38564e-05
-1.81835e-06
1.38535e-05
-1.80252e-06
1.38555e-05
-1.81838e-06
1.38576e-05
-1.81835e-06
1.38546e-05
-1.80242e-06
1.38564e-05
-1.81817e-06
1.38586e-05
-1.81847e-06
1.38555e-05
-1.80236e-06
1.38574e-05
-1.818e-06
1.38595e-05
-1.81861e-06
1.38565e-05
-1.80226e-06
1.38582e-05
-1.8178e-06
1.38604e-05
-1.81883e-06
1.38574e-05
-1.80225e-06
1.3859e-05
-1.81757e-06
1.38613e-05
-1.81895e-06
1.38583e-05
-1.80224e-06
1.38598e-05
-1.81738e-06
1.38621e-05
-1.81906e-06
1.3859e-05
-1.80217e-06
1.38606e-05
-1.81718e-06
1.38629e-05
-1.81922e-06
1.38598e-05
-1.80213e-06
1.38612e-05
-1.81694e-06
1.38636e-05
-1.81937e-06
1.38605e-05
-1.80204e-06
1.38619e-05
-1.81684e-06
1.38642e-05
-1.81926e-06
1.38611e-05
-1.80212e-06
1.38623e-05
-1.81647e-06
1.38648e-05
-1.81961e-06
1.38617e-05
-1.80217e-06
1.38627e-05
-1.81538e-06
1.38657e-05
-1.82182e-06
1.3862e-05
-1.80011e-06
1.38636e-05
-1.81787e-06
1.38652e-05
-1.81648e-06
1.38629e-05
-1.80496e-06
1.38632e-05
-1.81406e-06
1.38661e-05
-1.8204e-06
1.38643e-05
-1.80694e-06
1.38616e-05
-1.80202e-06
1.38679e-05
-1.83449e-06
1.38624e-05
-1.79233e-06
1.38677e-05
-1.83093e-06
1.3862e-05
-1.79303e-06
1.38661e-05
-1.82609e-06
1.38655e-05
-1.80923e-06
1.38656e-05
-1.81278e-06
1.38651e-05
-1.81164e-06
1.38621e-05
-1.80037e-06
1.38691e-05
-1.83747e-06
1.38649e-05
-1.79335e-06
1.38687e-05
-1.82927e-06
1.38597e-05
-1.78231e-06
1.38689e-05
-1.84369e-06
1.38643e-05
-1.79202e-06
1.38697e-05
-1.83312e-06
1.38619e-05
-1.7859e-06
1.38687e-05
-1.83665e-06
1.38609e-05
-1.78539e-06
1.3866e-05
-1.83209e-06
1.38611e-05
-1.79366e-06
1.38645e-05
-1.82716e-06
1.38613e-05
-1.79978e-06
1.38629e-05
-1.81948e-06
1.38567e-05
-1.79134e-06
1.38177e-05
-1.78292e-06
1.43971e-05
-3.40952e-06
1.60188e-05
-5.72794e-06
1.68939e-05
-3.48195e-06
1.63999e-05
-1.87195e-07
1.61277e-05
-1.30062e-06
-1.68583e-06
2.15416e-05
1.77807e-05
2.01944e-05
7.1482e-06
1.91058e-05
1.74131e-06
1.83188e-05
-2.05726e-07
1.77601e-05
-6.85638e-07
1.74378e-05
-1.09794e-06
1.72157e-05
-1.34413e-06
1.70792e-05
-1.51045e-06
1.69896e-05
-1.63729e-06
1.69397e-05
-1.72389e-06
1.69109e-05
-1.78168e-06
1.69039e-05
-1.82479e-06
1.69113e-05
-1.87002e-06
1.69286e-05
-1.89025e-06
1.69572e-05
-1.92012e-06
1.69931e-05
-1.9388e-06
1.70368e-05
-1.95862e-06
1.70852e-05
-1.9692e-06
1.71375e-05
-1.98047e-06
1.71955e-05
-1.99697e-06
1.72579e-05
-2.00839e-06
1.73234e-05
-2.0165e-06
1.73915e-05
-2.02347e-06
1.7462e-05
-2.02865e-06
1.75345e-05
-2.03465e-06
1.76049e-05
-2.02861e-06
1.76685e-05
-2.00821e-06
1.77243e-05
-1.98286e-06
1.77726e-05
-1.95873e-06
1.7814e-05
-1.93685e-06
1.78494e-05
-1.91786e-06
1.78794e-05
-1.90121e-06
1.79047e-05
-1.88711e-06
1.79261e-05
-1.87504e-06
1.7944e-05
-1.86492e-06
1.79592e-05
-1.85642e-06
1.79719e-05
-1.84926e-06
1.79826e-05
-1.84341e-06
1.79916e-05
-1.8384e-06
1.79993e-05
-1.83441e-06
1.80057e-05
-1.83086e-06
1.80112e-05
-1.82815e-06
1.80158e-05
-1.82586e-06
1.80199e-05
-1.82379e-06
1.80233e-05
-1.82225e-06
1.80261e-05
-1.82028e-06
1.80286e-05
-1.81963e-06
1.80308e-05
-1.81844e-06
1.80327e-05
-1.81793e-06
1.80342e-05
-1.81624e-06
1.80354e-05
-1.8166e-06
1.80364e-05
-1.81365e-06
1.80374e-05
-1.8175e-06
1.80381e-05
-1.81039e-06
1.8039e-05
-1.82125e-06
1.80399e-05
-1.80438e-06
1.80436e-05
-1.84297e-06
1.80765e-05
-1.88523e-06
1.80576e-05
-1.77489e-06
1.7048e-05
2.13922e-06
1.59096e-05
1.87057e-06
1.55739e-05
-1.41024e-06
1.54854e-05
-1.72492e-06
1.55075e-05
-2.04223e-06
1.55346e-05
-1.92281e-06
1.5593e-05
-2.02924e-06
1.56349e-05
-1.93072e-06
1.56781e-05
-1.94427e-06
1.57067e-05
-1.88311e-06
1.57282e-05
-1.86842e-06
1.57561e-05
-1.88699e-06
1.57715e-05
-1.85057e-06
1.57631e-05
-1.76216e-06
1.57691e-05
-1.83602e-06
1.57837e-05
-1.8594e-06
1.57857e-05
-1.80311e-06
1.5788e-05
-1.81519e-06
1.57956e-05
-1.84225e-06
1.57896e-05
-1.78137e-06
1.5784e-05
-1.789e-06
1.57864e-05
-1.82698e-06
1.57844e-05
-1.80056e-06
1.57826e-05
-1.80383e-06
1.57856e-05
-1.82759e-06
1.57824e-05
-1.79679e-06
1.57793e-05
-1.80014e-06
1.57807e-05
-1.82198e-06
1.57775e-05
-1.79812e-06
1.57748e-05
-1.8023e-06
1.57767e-05
-1.82315e-06
1.57739e-05
-1.79996e-06
1.57718e-05
-1.80471e-06
1.57741e-05
-1.82436e-06
1.57718e-05
-1.80125e-06
1.57705e-05
-1.80792e-06
1.57727e-05
-1.82288e-06
1.57712e-05
-1.80425e-06
1.57701e-05
-1.80816e-06
1.57722e-05
-1.82249e-06
1.57719e-05
-1.80944e-06
1.57701e-05
-1.80417e-06
1.57721e-05
-1.82205e-06
1.57727e-05
-1.81345e-06
1.57709e-05
-1.80382e-06
1.57721e-05
-1.81773e-06
1.57739e-05
-1.81972e-06
1.57724e-05
-1.80473e-06
1.57717e-05
-1.81021e-06
1.5774e-05
-1.8216e-06
1.57745e-05
-1.81332e-06
1.57726e-05
-1.80351e-06
1.57729e-05
-1.81449e-06
1.57752e-05
-1.82157e-06
1.57754e-05
-1.81139e-06
1.57736e-05
-1.80474e-06
1.57737e-05
-1.81407e-06
1.57758e-05
-1.81996e-06
1.57768e-05
-1.81446e-06
1.5776e-05
-1.80887e-06
1.57755e-05
-1.81047e-06
1.57763e-05
-1.8153e-06
1.57775e-05
-1.81648e-06
1.57785e-05
-1.81506e-06
1.57791e-05
-1.81413e-06
1.57795e-05
-1.81329e-06
1.57798e-05
-1.81299e-06
1.578e-05
-1.81279e-06
1.57802e-05
-1.81277e-06
1.57803e-05
-1.81258e-06
1.57804e-05
-1.81251e-06
1.57806e-05
-1.81274e-06
1.57808e-05
-1.81276e-06
1.5781e-05
-1.8128e-06
1.57813e-05
-1.813e-06
1.57815e-05
-1.81288e-06
1.57818e-05
-1.81298e-06
1.57821e-05
-1.8131e-06
1.57824e-05
-1.8132e-06
1.57826e-05
-1.81314e-06
1.57829e-05
-1.81289e-06
1.57833e-05
-1.81342e-06
1.57835e-05
-1.81297e-06
1.57839e-05
-1.81344e-06
1.5784e-05
-1.81222e-06
1.5784e-05
-1.81175e-06
1.57849e-05
-1.81609e-06
1.57845e-05
-1.80953e-06
1.57851e-05
-1.81457e-06
1.57864e-05
-1.81781e-06
1.57849e-05
-1.80463e-06
1.57858e-05
-1.81671e-06
1.57872e-05
-1.81787e-06
1.57856e-05
-1.80355e-06
1.5787e-05
-1.81881e-06
1.57889e-05
-1.82028e-06
1.57856e-05
-1.79607e-06
1.57873e-05
-1.82088e-06
1.57907e-05
-1.8267e-06
1.57867e-05
-1.79191e-06
1.57874e-05
-1.81696e-06
1.57922e-05
-1.83325e-06
1.57885e-05
-1.7931e-06
1.5788e-05
-1.81127e-06
1.57922e-05
-1.8313e-06
1.57902e-05
-1.80019e-06
1.579e-05
-1.81231e-06
1.57924e-05
-1.82331e-06
1.57903e-05
-1.80081e-06
1.57914e-05
-1.81735e-06
1.57949e-05
-1.82728e-06
1.57929e-05
-1.80111e-06
1.57915e-05
-1.80657e-06
1.57951e-05
-1.82859e-06
1.57954e-05
-1.81065e-06
1.57944e-05
-1.80687e-06
1.57976e-05
-1.82544e-06
1.5799e-05
-1.81667e-06
1.57963e-05
-1.79932e-06
1.57971e-05
-1.81683e-06
1.57998e-05
-1.82427e-06
1.57983e-05
-1.80403e-06
1.57964e-05
-1.80441e-06
1.5799e-05
-1.82357e-06
1.58008e-05
-1.8183e-06
1.57991e-05
-1.80408e-06
1.57984e-05
-1.81062e-06
1.58004e-05
-1.82002e-06
1.58015e-05
-1.81527e-06
1.58008e-05
-1.8088e-06
1.58004e-05
-1.81096e-06
1.58013e-05
-1.81633e-06
1.58012e-05
-1.81095e-06
1.58019e-05
-1.81528e-06
1.58019e-05
-1.81233e-06
1.58004e-05
-1.80555e-06
1.58016e-05
-1.81833e-06
1.58017e-05
-1.81181e-06
1.58005e-05
-1.80659e-06
1.58026e-05
-1.82179e-06
1.5803e-05
-1.81278e-06
1.58013e-05
-1.80318e-06
1.58046e-05
-1.82775e-06
1.58055e-05
-1.81408e-06
1.58023e-05
-1.79725e-06
1.58054e-05
-1.82707e-06
1.58075e-05
-1.81952e-06
1.58037e-05
-1.79383e-06
1.58056e-05
-1.82215e-06
1.58085e-05
-1.82415e-06
1.58061e-05
-1.79955e-06
1.58066e-05
-1.81614e-06
1.58082e-05
-1.81876e-06
1.58066e-05
-1.80369e-06
1.58089e-05
-1.8226e-06
1.581e-05
-1.81603e-06
1.58067e-05
-1.79667e-06
1.58084e-05
-1.82127e-06
1.58107e-05
-1.82154e-06
1.58083e-05
-1.80006e-06
1.58093e-05
-1.81837e-06
1.58104e-05
-1.81653e-06
1.58073e-05
-1.79809e-06
1.58088e-05
-1.8203e-06
1.58109e-05
-1.82051e-06
1.58086e-05
-1.80049e-06
1.58103e-05
-1.82044e-06
1.58124e-05
-1.82045e-06
1.581e-05
-1.80016e-06
1.58115e-05
-1.81989e-06
1.58136e-05
-1.8204e-06
1.58112e-05
-1.80001e-06
1.58126e-05
-1.8196e-06
1.58146e-05
-1.82052e-06
1.58122e-05
-1.79994e-06
1.58136e-05
-1.81937e-06
1.58157e-05
-1.82069e-06
1.58132e-05
-1.79981e-06
1.58145e-05
-1.8191e-06
1.58166e-05
-1.82094e-06
1.58142e-05
-1.7998e-06
1.58154e-05
-1.81879e-06
1.58175e-05
-1.82108e-06
1.58151e-05
-1.79979e-06
1.58162e-05
-1.81854e-06
1.58184e-05
-1.8212e-06
1.58159e-05
-1.7997e-06
1.5817e-05
-1.81828e-06
1.58192e-05
-1.82138e-06
1.58167e-05
-1.79965e-06
1.58177e-05
-1.81796e-06
1.58199e-05
-1.82156e-06
1.58174e-05
-1.79954e-06
1.58184e-05
-1.81782e-06
1.58205e-05
-1.82141e-06
1.58181e-05
-1.79967e-06
1.58189e-05
-1.81734e-06
1.58211e-05
-1.82183e-06
1.58187e-05
-1.79969e-06
1.58192e-05
-1.81597e-06
1.58219e-05
-1.82449e-06
1.58189e-05
-1.79713e-06
1.58201e-05
-1.81901e-06
1.58217e-05
-1.81806e-06
1.58197e-05
-1.80301e-06
1.58198e-05
-1.81418e-06
1.58225e-05
-1.82306e-06
1.58213e-05
-1.80572e-06
1.58186e-05
-1.79937e-06
1.58236e-05
-1.83952e-06
1.58199e-05
-1.78854e-06
1.58237e-05
-1.83482e-06
1.58192e-05
-1.78845e-06
1.58224e-05
-1.82932e-06
1.58222e-05
-1.80902e-06
1.58222e-05
-1.81275e-06
1.5822e-05
-1.81149e-06
1.58192e-05
-1.79756e-06
1.58248e-05