/*--------------------------------*- C++ -*----------------------------------*\
| =========                 |                                                 |
| \\      /  F ield         | foam-extend: Open Source CFD                    |
|  \\    /   O peration     | Version:     3.2                                |
|   \\  /    A nd           | Web:         http://www.foam-extend.org         |
|    \\/     M anipulation  | For copyright notice see file Copyright         |
\*---------------------------------------------------------------------------*/
FoamFile
{
    version     2.0;
    format      ascii;
    class       surfaceScalarField;
    location    "50";
    object      AdSS2;
}
// * * * * * * * * * * * * * * * * * * * * * * * * * * * * * * * * * * * * * //

dimensions      [0 3 -1 0 0 0 0];

internalField   nonuniform List<scalar> 
10482
(
9.2385e-06
1.0022e-05
6.60188e-06
3.1376e-07
6.26661e-06
-1.98759e-06
6.22713e-06
-2.28338e-06
6.20454e-06
-2.30027e-06
6.16333e-06
-2.28166e-06
6.14746e-06
-2.30699e-06
6.12847e-06
-2.30387e-06
6.12755e-06
-2.32195e-06
6.12616e-06
-2.32147e-06
6.13413e-06
-2.33083e-06
6.14147e-06
-2.3302e-06
6.15639e-06
-2.33778e-06
6.17128e-06
-2.33775e-06
6.18934e-06
-2.34092e-06
6.20898e-06
-2.3425e-06
6.23066e-06
-2.34455e-06
6.25275e-06
-2.34495e-06
6.2765e-06
-2.34661e-06
6.30213e-06
-2.34849e-06
6.3289e-06
-2.34963e-06
6.3563e-06
-2.35026e-06
6.38445e-06
-2.35101e-06
6.41289e-06
-2.3513e-06
6.44186e-06
-2.35183e-06
6.46996e-06
-2.35095e-06
6.49529e-06
-2.3482e-06
6.5169e-06
-2.34447e-06
6.53512e-06
-2.34108e-06
6.55029e-06
-2.33804e-06
6.56298e-06
-2.33555e-06
6.5735e-06
-2.33338e-06
6.58228e-06
-2.33164e-06
6.58954e-06
-2.33012e-06
6.59561e-06
-2.32893e-06
6.60063e-06
-2.32789e-06
6.60485e-06
-2.32707e-06
6.60836e-06
-2.32637e-06
6.61132e-06
-2.32583e-06
6.61379e-06
-2.32534e-06
6.61591e-06
-2.32498e-06
6.61768e-06
-2.32463e-06
6.61925e-06
-2.32443e-06
6.62052e-06
-2.32413e-06
6.62168e-06
-2.32403e-06
6.62256e-06
-2.32374e-06
6.62361e-06
-2.32391e-06
6.62427e-06
-2.32353e-06
6.62504e-06
-2.32363e-06
6.62529e-06
-2.32312e-06
6.62626e-06
-2.32383e-06
6.62558e-06
-2.32219e-06
6.62751e-06
-2.32479e-06
6.62511e-06
-2.32047e-06
6.6296e-06
-2.32734e-06
6.62303e-06
-2.3163e-06
6.63616e-06
-2.33599e-06
6.62829e-06
-2.31499e-06
6.62076e-06
-2.31534e-06
5.86994e-06
-1.57204e-06
5.39242e-06
-1.84534e-06
5.52711e-06
-2.45755e-06
5.54505e-06
-2.3408e-06
5.61252e-06
-2.39033e-06
5.62185e-06
-2.33219e-06
5.66026e-06
-2.36127e-06
5.66689e-06
-2.3295e-06
5.68515e-06
-2.34112e-06
5.68794e-06
-2.32566e-06
5.69329e-06
-2.32821e-06
5.69893e-06
-2.3285e-06
5.70241e-06
-2.32635e-06
5.6896e-06
-2.31006e-06
5.69434e-06
-2.3276e-06
5.70082e-06
-2.32934e-06
5.69574e-06
-2.31779e-06
5.69494e-06
-2.32206e-06
5.70119e-06
-2.32911e-06
5.69372e-06
-2.3154e-06
5.68945e-06
-2.31859e-06
5.69384e-06
-2.32725e-06
5.69069e-06
-2.31971e-06
5.68851e-06
-2.32069e-06
5.69259e-06
-2.32693e-06
5.68889e-06
-2.31917e-06
5.68661e-06
-2.32058e-06
5.68982e-06
-2.32607e-06
5.68663e-06
-2.31968e-06
5.68475e-06
-2.32098e-06
5.68802e-06
-2.32614e-06
5.68517e-06
-2.32001e-06
5.68373e-06
-2.32142e-06
5.68705e-06
-2.32618e-06
5.68433e-06
-2.32014e-06
5.6836e-06
-2.32214e-06
5.68629e-06
-2.32555e-06
5.68423e-06
-2.3208e-06
5.68343e-06
-2.32207e-06
5.68585e-06
-2.32527e-06
5.68508e-06
-2.32209e-06
5.68316e-06
-2.32095e-06
5.68555e-06
-2.32525e-06
5.68558e-06
-2.3229e-06
5.6836e-06
-2.32088e-06
5.68486e-06
-2.32413e-06
5.68641e-06
-2.3244e-06
5.68463e-06
-2.32108e-06
5.68427e-06
-2.32251e-06
5.68614e-06
-2.32473e-06
5.68621e-06
-2.32294e-06
5.6844e-06
-2.32105e-06
5.68499e-06
-2.32344e-06
5.68666e-06
-2.32454e-06
5.68627e-06
-2.32248e-06
5.68487e-06
-2.32146e-06
5.68543e-06
-2.32342e-06
5.68668e-06
-2.32411e-06
5.68674e-06
-2.32293e-06
5.68613e-06
-2.32225e-06
5.68593e-06
-2.32267e-06
5.68647e-06
-2.3234e-06
5.68704e-06
-2.32344e-06
5.68735e-06
-2.32317e-06
5.68756e-06
-2.32307e-06
5.68766e-06
-2.32296e-06
5.68775e-06
-2.32295e-06
5.68782e-06
-2.32293e-06
5.68792e-06
-2.32297e-06
5.68802e-06
-2.32296e-06
5.68802e-06
-2.32286e-06
5.68802e-06
-2.32286e-06
5.68807e-06
-2.32291e-06
5.68814e-06
-2.32294e-06
5.68823e-06
-2.32295e-06
5.68828e-06
-2.32291e-06
5.68835e-06
-2.32293e-06
5.68845e-06
-2.32296e-06
5.68858e-06
-2.32299e-06
5.68871e-06
-2.32299e-06
5.68875e-06
-2.3229e-06
5.68888e-06
-2.32299e-06
5.68891e-06
-2.32289e-06
5.68911e-06
-2.32306e-06
5.68913e-06
-2.32288e-06
5.68886e-06
-2.32259e-06
5.68971e-06
-2.32371e-06
5.6889e-06
-2.32205e-06
5.68929e-06
-2.32326e-06
5.69064e-06
-2.32421e-06
5.68856e-06
-2.32078e-06
5.68968e-06
-2.32399e-06
5.69098e-06
-2.32416e-06
5.68859e-06
-2.32047e-06
5.69006e-06
-2.32434e-06
5.69209e-06
-2.32489e-06
5.68795e-06
-2.31872e-06
5.69003e-06
-2.32493e-06
5.69337e-06
-2.32621e-06
5.68827e-06
-2.31776e-06
5.68948e-06
-2.32408e-06
5.69424e-06
-2.32762e-06
5.68929e-06
-2.31791e-06
5.68932e-06
-2.32289e-06
5.6937e-06
-2.32725e-06
5.69025e-06
-2.3194e-06
5.69054e-06
-2.32316e-06
5.69327e-06
-2.32559e-06
5.69017e-06
-2.31976e-06
5.69127e-06
-2.32396e-06
5.69452e-06
-2.32611e-06
5.69172e-06
-2.32006e-06
5.69035e-06
-2.3215e-06
5.69412e-06
-2.32662e-06
5.69323e-06
-2.32198e-06
5.6917e-06
-2.32132e-06
5.69443e-06
-2.3256e-06
5.69521e-06
-2.32364e-06
5.69226e-06
-2.31992e-06
5.69341e-06
-2.32401e-06
5.69595e-06
-2.32541e-06
5.69396e-06
-2.32087e-06
5.69238e-06
-2.32128e-06
5.69482e-06
-2.3253e-06
5.69575e-06
-2.3238e-06
5.69393e-06
-2.32104e-06
5.69384e-06
-2.32277e-06
5.69532e-06
-2.32435e-06
5.69552e-06
-2.32306e-06
5.69482e-06
-2.32217e-06
5.69459e-06
-2.32263e-06
5.69554e-06
-2.32381e-06
5.69502e-06
-2.32234e-06
5.69565e-06
-2.32349e-06
5.6958e-06
-2.32302e-06
5.69427e-06
-2.32133e-06
5.69586e-06
-2.32445e-06
5.69557e-06
-2.32257e-06
5.69408e-06
-2.32137e-06
5.69633e-06
-2.32511e-06
5.69628e-06
-2.32282e-06
5.69383e-06
-2.32041e-06
5.6974e-06
-2.32643e-06
5.69754e-06
-2.32301e-06
5.69391e-06
-2.31922e-06
5.69736e-06
-2.32632e-06
5.69879e-06
-2.32429e-06
5.69422e-06
-2.31829e-06
5.69681e-06
-2.32544e-06
5.69938e-06
-2.32544e-06
5.69589e-06
-2.31938e-06
5.69714e-06
-2.3241e-06
5.69871e-06
-2.32444e-06
5.69625e-06
-2.3204e-06
5.69861e-06
-2.32522e-06
5.69944e-06
-2.32369e-06
5.69568e-06
-2.3191e-06
5.69799e-06
-2.32517e-06
5.70006e-06
-2.32493e-06
5.69682e-06
-2.31962e-06
5.69848e-06
-2.32452e-06
5.69966e-06
-2.32404e-06
5.69619e-06
-2.3194e-06
5.69826e-06
-2.32494e-06
5.70014e-06
-2.32473e-06
5.69688e-06
-2.31961e-06
5.6989e-06
-2.32488e-06
5.70075e-06
-2.32472e-06
5.69746e-06
-2.31957e-06
5.69938e-06
-2.32478e-06
5.70127e-06
-2.32475e-06
5.69797e-06
-2.31956e-06
5.69983e-06
-2.32473e-06
5.70177e-06
-2.3248e-06
5.69846e-06
-2.31955e-06
5.70028e-06
-2.32468e-06
5.70227e-06
-2.32485e-06
5.69893e-06
-2.31953e-06
5.7007e-06
-2.32463e-06
5.70275e-06
-2.32492e-06
5.69942e-06
-2.31953e-06
5.70112e-06
-2.32456e-06
5.70321e-06
-2.32496e-06
5.69988e-06
-2.31953e-06
5.70153e-06
-2.32451e-06
5.70366e-06
-2.325e-06
5.70032e-06
-2.31952e-06
5.70191e-06
-2.32445e-06
5.70409e-06
-2.32504e-06
5.70075e-06
-2.31952e-06
5.70227e-06
-2.32438e-06
5.7045e-06
-2.3251e-06
5.70113e-06
-2.31949e-06
5.70263e-06
-2.32436e-06
5.70484e-06
-2.32508e-06
5.70153e-06
-2.31955e-06
5.70293e-06
-2.32426e-06
5.70516e-06
-2.32509e-06
5.70193e-06
-2.31963e-06
5.70287e-06
-2.32381e-06
5.70596e-06
-2.32594e-06
5.70196e-06
-2.31887e-06
5.70395e-06
-2.32485e-06
5.70511e-06
-2.32402e-06
5.70279e-06
-2.32054e-06
5.70364e-06
-2.32372e-06
5.70582e-06
-2.32504e-06
5.70459e-06
-2.32163e-06
5.70043e-06
-2.3187e-06
5.70837e-06
-2.33079e-06
5.70108e-06
-2.31558e-06
5.70803e-06
-2.32981e-06
5.70113e-06
-2.31596e-06
5.70613e-06
-2.32786e-06
5.70466e-06
-2.32139e-06
5.7049e-06
-2.3231e-06
5.7055e-06
-2.32346e-06
5.70024e-06
-2.3176e-06
5.70972e-06
-2.33235e-06
5.70149e-06
-2.31463e-06
5.70908e-06
-2.33045e-06
5.69863e-06
-2.31242e-06
5.70984e-06
-2.33406e-06
5.70106e-06
-2.31409e-06
5.7095e-06
-2.3313e-06
5.70003e-06
-2.3134e-06
5.70925e-06
-2.33208e-06
5.69949e-06
-2.3131e-06
5.70762e-06
-2.331e-06
5.70022e-06
-2.31546e-06
5.70675e-06
-2.3294e-06
5.70143e-06
-2.31754e-06
5.70516e-06
-2.32659e-06
5.69739e-06
-2.3151e-06
5.72319e-06
-2.34866e-06
6.13841e-06
-2.73808e-06
6.98244e-06
-3.1669e-06
7.1699e-06
-2.51033e-06
6.64714e-06
-1.8001e-06
6.62202e-06
-2.29774e-06
-2.3054e-06
1.62236e-05
1.53817e-05
1.34998e-05
3.03759e-06
1.25624e-05
-1.05023e-06
1.23086e-05
-2.02954e-06
1.21314e-05
-2.12316e-06
1.19977e-05
-2.14789e-06
1.19146e-05
-2.22388e-06
1.18605e-05
-2.2498e-06
1.18329e-05
-2.2943e-06
1.18226e-05
-2.31122e-06
1.18241e-05
-2.33237e-06
1.18328e-05
-2.33882e-06
1.18525e-05
-2.35752e-06
1.18757e-05
-2.36099e-06
1.19053e-05
-2.37054e-06
1.1939e-05
-2.37619e-06
1.19769e-05
-2.38239e-06
1.20167e-05
-2.38479e-06
1.20591e-05
-2.389e-06
1.21054e-05
-2.39479e-06
1.21542e-05
-2.39847e-06
1.22048e-05
-2.40083e-06
1.22569e-05
-2.40311e-06
1.231e-05
-2.4044e-06
1.23645e-05
-2.40632e-06
1.24177e-05
-2.40414e-06
1.24659e-05
-2.39644e-06
1.25078e-05
-2.3863e-06
1.25435e-05
-2.37682e-06
1.25737e-05
-2.36829e-06
1.25993e-05
-2.36108e-06
1.26207e-05
-2.35482e-06
1.26387e-05
-2.34962e-06
1.26537e-05
-2.34516e-06
1.26663e-05
-2.34152e-06
1.26769e-05
-2.33842e-06
1.26857e-05
-2.33589e-06
1.26931e-05
-2.33378e-06
1.26993e-05
-2.33204e-06
1.27046e-05
-2.3306e-06
1.2709e-05
-2.3294e-06
1.27128e-05
-2.32841e-06
1.2716e-05
-2.32767e-06
1.27187e-05
-2.32687e-06
1.27211e-05
-2.32642e-06
1.2723e-05
-2.32564e-06
1.27246e-05
-2.32546e-06
1.27261e-05
-2.325e-06
1.27274e-05
-2.32498e-06
1.27284e-05
-2.32408e-06
1.27294e-05
-2.32489e-06
1.27297e-05
-2.32247e-06
1.2731e-05
-2.32611e-06
1.27302e-05
-2.31962e-06
1.27325e-05
-2.3297e-06
1.27303e-05
-2.3141e-06
1.27389e-05
-2.3445e-06
1.27573e-05
-2.33343e-06
1.2754e-05
-2.31208e-06
1.16669e-05
-4.84951e-07
1.07176e-05
-8.95976e-07
1.07039e-05
-2.44389e-06
1.0717e-05
-2.35389e-06
1.0797e-05
-2.47027e-06
1.08324e-05
-2.36765e-06
1.08901e-05
-2.41894e-06
1.09197e-05
-2.35916e-06
1.09509e-05
-2.37224e-06
1.09665e-05
-2.34134e-06
1.09783e-05
-2.33999e-06
1.09955e-05
-2.34569e-06
1.10031e-05
-2.33391e-06
1.09873e-05
-2.29426e-06
1.09938e-05
-2.33414e-06
1.1006e-05
-2.34146e-06
1.10013e-05
-2.31316e-06
1.10015e-05
-2.3222e-06
1.10097e-05
-2.33735e-06
1.10003e-05
-2.30596e-06
1.09936e-05
-2.31194e-06
1.09982e-05
-2.33187e-06
1.09946e-05
-2.3161e-06
1.09922e-05
-2.31829e-06
1.09968e-05
-2.33152e-06
1.09922e-05
-2.31455e-06
1.09889e-05
-2.31723e-06
1.09919e-05
-2.32914e-06
1.09879e-05
-2.31566e-06
1.09853e-05
-2.31838e-06
1.09886e-05
-2.3294e-06
1.09851e-05
-2.31651e-06
1.09832e-05
-2.31955e-06
1.09867e-05
-2.32971e-06
1.09835e-05
-2.31693e-06
1.09825e-05
-2.32109e-06
1.09856e-05
-2.32864e-06
1.09832e-05
-2.31845e-06
1.09822e-05
-2.32103e-06
1.09852e-05
-2.32827e-06
1.09842e-05
-2.32109e-06
1.09819e-05
-2.31863e-06
1.09848e-05
-2.32818e-06
1.0985e-05
-2.32309e-06
1.09825e-05
-2.31837e-06
1.09842e-05
-2.3258e-06
1.09863e-05
-2.32651e-06
1.0984e-05
-2.31884e-06
1.09836e-05
-2.32205e-06
1.09862e-05
-2.32739e-06
1.09863e-05
-2.32305e-06
1.09838e-05
-2.31852e-06
1.09846e-05
-2.32424e-06
1.09872e-05
-2.32717e-06
1.09868e-05
-2.32202e-06
1.09846e-05
-2.31932e-06
1.09853e-05
-2.3241e-06
1.09874e-05
-2.32621e-06
1.09878e-05
-2.32335e-06
1.09869e-05
-2.32128e-06
1.09864e-05
-2.32222e-06
1.09873e-05
-2.32426e-06
1.09884e-05
-2.32455e-06
1.09891e-05
-2.32387e-06
1.09896e-05
-2.32352e-06
1.09898e-05
-2.32319e-06
1.099e-05
-2.32312e-06
1.09901e-05
-2.32305e-06
1.09902e-05
-2.32307e-06
1.09902e-05
-2.32299e-06
1.09903e-05
-2.32292e-06
1.09904e-05
-2.323e-06
1.09906e-05
-2.32304e-06
1.09907e-05
-2.32307e-06
1.09909e-05
-2.32314e-06
1.0991e-05
-2.32307e-06
1.09912e-05
-2.32312e-06
1.09914e-05
-2.32318e-06
1.09917e-05
-2.32324e-06
1.09919e-05
-2.32323e-06
1.09921e-05
-2.32306e-06
1.09924e-05
-2.32329e-06
1.09926e-05
-2.32307e-06
1.09929e-05
-2.32337e-06
1.09928e-05
-2.32281e-06
1.09926e-05
-2.32242e-06
1.09937e-05
-2.32478e-06
1.09928e-05
-2.32118e-06
1.09935e-05
-2.32394e-06
1.09951e-05
-2.32577e-06
1.09928e-05
-2.31856e-06
1.09942e-05
-2.3253e-06
1.09956e-05
-2.32564e-06
1.09931e-05
-2.31793e-06
1.09951e-05
-2.32629e-06
1.09972e-05
-2.32705e-06
1.09925e-05
-2.31397e-06
1.09951e-05
-2.32758e-06
1.09991e-05
-2.33022e-06
1.0993e-05
-2.31165e-06
1.09946e-05
-2.32568e-06
1.10006e-05
-2.33362e-06
1.09948e-05
-2.31211e-06
1.09948e-05
-2.32285e-06
1.10003e-05
-2.33272e-06
1.09965e-05
-2.31565e-06
1.09966e-05
-2.32329e-06
1.09998e-05
-2.32876e-06
1.09963e-05
-2.31625e-06
1.09979e-05
-2.32552e-06
1.10021e-05
-2.33038e-06
1.09987e-05
-2.31663e-06
1.09972e-05
-2.31997e-06
1.10019e-05
-2.33134e-06
1.10011e-05
-2.32122e-06
1.09995e-05
-2.31973e-06
1.10033e-05
-2.32937e-06
1.10043e-05
-2.32463e-06
1.10005e-05
-2.3161e-06
1.1002e-05
-2.32549e-06
1.10055e-05
-2.32892e-06
1.10029e-05
-2.3183e-06
1.10007e-05
-2.31904e-06
1.1004e-05
-2.32863e-06
1.10055e-05
-2.32534e-06
1.10031e-05
-2.31865e-06
1.10028e-05
-2.32243e-06
1.1005e-05
-2.32651e-06
1.10057e-05
-2.32377e-06
1.10046e-05
-2.32113e-06
1.10043e-05
-2.32231e-06
1.10055e-05
-2.325e-06
1.10051e-05
-2.32194e-06
1.1006e-05
-2.32436e-06
1.10059e-05
-2.32297e-06
1.1004e-05
-2.31944e-06
1.10059e-05
-2.32628e-06
1.10056e-05
-2.32233e-06
1.1004e-05
-2.31974e-06
1.10068e-05
-2.32794e-06
1.10068e-05
-2.32277e-06
1.10041e-05
-2.31777e-06
1.10087e-05
-2.33097e-06
1.10089e-05
-2.32327e-06
1.10046e-05
-2.31491e-06
1.1009e-05
-2.33067e-06
1.10108e-05
-2.32609e-06
1.10055e-05
-2.31298e-06
1.10085e-05
-2.32846e-06
1.10117e-05
-2.32865e-06
1.1008e-05
-2.31568e-06
1.10092e-05
-2.32534e-06
1.10109e-05
-2.32616e-06
1.10085e-05
-2.31793e-06
1.10115e-05
-2.32823e-06
1.10124e-05
-2.32457e-06
1.10079e-05
-2.31465e-06
1.10106e-05
-2.32791e-06
1.10131e-05
-2.32741e-06
1.10096e-05
-2.31613e-06
1.10115e-05
-2.32639e-06
1.10126e-05
-2.32511e-06
1.10086e-05
-2.3154e-06
1.1011e-05
-2.32738e-06
1.10132e-05
-2.32693e-06
1.10098e-05
-2.31622e-06
1.10122e-05
-2.32729e-06
1.10144e-05
-2.32685e-06
1.10109e-05
-2.31611e-06
1.10132e-05
-2.32705e-06
1.10153e-05
-2.32688e-06
1.10118e-05
-2.31605e-06
1.1014e-05
-2.32692e-06
1.10162e-05
-2.32697e-06
1.10126e-05
-2.31601e-06
1.10148e-05
-2.32682e-06
1.1017e-05
-2.32708e-06
1.10134e-05
-2.31594e-06
1.10155e-05
-2.3267e-06
1.10178e-05
-2.32724e-06
1.10142e-05
-2.31593e-06
1.10162e-05
-2.32655e-06
1.10185e-05
-2.32733e-06
1.10149e-05
-2.31591e-06
1.10169e-05
-2.32643e-06
1.10193e-05
-2.32741e-06
1.10156e-05
-2.31586e-06
1.10175e-05
-2.32631e-06
1.102e-05
-2.32752e-06
1.10163e-05
-2.31584e-06
1.10181e-05
-2.32615e-06
1.10206e-05
-2.32764e-06
1.10169e-05
-2.31578e-06
1.10186e-05
-2.32609e-06
1.10211e-05
-2.32757e-06
1.10174e-05
-2.31583e-06
1.1019e-05
-2.32587e-06
1.10217e-05
-2.32778e-06
1.10179e-05
-2.31586e-06
1.10192e-05
-2.3251e-06
1.10227e-05
-2.32942e-06
1.10183e-05
-2.31446e-06
1.10203e-05
-2.32691e-06
1.10218e-05
-2.32548e-06
1.10191e-05
-2.31788e-06
1.10198e-05
-2.32439e-06
1.10229e-05
-2.32812e-06
1.10206e-05
-2.31936e-06
1.10173e-05
-2.31541e-06
1.10253e-05
-2.33874e-06
1.10182e-05
-2.30848e-06
1.10247e-05
-2.33631e-06
1.1018e-05
-2.30928e-06
1.10228e-05
-2.3327e-06
1.10218e-05
-2.32039e-06
1.10221e-05
-2.32339e-06
1.10214e-05
-2.32274e-06
1.10178e-05
-2.31396e-06
1.10266e-05
-2.34116e-06
1.10201e-05
-2.30812e-06
1.10258e-05
-2.33615e-06
1.10153e-05
-2.30194e-06
1.10263e-05
-2.3451e-06
1.10196e-05
-2.30731e-06
1.10266e-05
-2.3383e-06
1.10175e-05
-2.3043e-06
1.10259e-05
-2.3405e-06
1.10166e-05
-2.30379e-06
1.10233e-05
-2.33771e-06
1.1017e-05
-2.30917e-06
1.1022e-05
-2.33435e-06
1.1018e-05
-2.3136e-06
1.102e-05
-2.32853e-06
1.10131e-05
-2.3082e-06
1.0997e-05
-2.33255e-06
1.15996e-05
-3.34077e-06
1.30496e-05
-4.61685e-06
1.36568e-05
-3.11751e-06
1.30485e-05
-1.19178e-06
1.28342e-05
-2.08347e-06
-2.26466e-06
1.97368e-05
1.72282e-05
1.74841e-05
5.29035e-06
1.62917e-05
1.4212e-07
1.57656e-05
-1.50338e-06
1.53974e-05
-1.75497e-06
1.51803e-05
-1.9308e-06
1.50333e-05
-2.07685e-06
1.49411e-05
-2.15767e-06
1.48843e-05
-2.23744e-06
1.48575e-05
-2.28445e-06
1.48463e-05
-2.32113e-06
1.48498e-05
-2.34238e-06
1.48656e-05
-2.37333e-06
1.48882e-05
-2.38354e-06
1.49198e-05
-2.40218e-06
1.49572e-05
-2.41351e-06
1.50004e-05
-2.42559e-06
1.5047e-05
-2.43143e-06
1.50968e-05
-2.43879e-06
1.51515e-05
-2.44954e-06
1.52098e-05
-2.4567e-06
1.52705e-05
-2.46159e-06
1.53334e-05
-2.46597e-06
1.53979e-05
-2.46887e-06
1.54642e-05
-2.4727e-06
1.5529e-05
-2.4689e-06
1.55878e-05
-2.45525e-06
1.56392e-05
-2.43769e-06
1.56834e-05
-2.42106e-06
1.57212e-05
-2.40604e-06
1.57532e-05
-2.39312e-06
1.57803e-05
-2.38187e-06
1.58031e-05
-2.3724e-06
1.58222e-05
-2.3643e-06
1.58383e-05
-2.35758e-06
1.58517e-05
-2.35191e-06
1.5863e-05
-2.34719e-06
1.58726e-05
-2.34331e-06
1.58806e-05
-2.34003e-06
1.58873e-05
-2.33739e-06
1.5893e-05
-2.33508e-06
1.58979e-05
-2.33328e-06
1.5902e-05
-2.33182e-06
1.59056e-05
-2.33041e-06
1.59086e-05
-2.32947e-06
1.59111e-05
-2.3281e-06
1.59134e-05
-2.32772e-06
1.59153e-05
-2.32691e-06
1.5917e-05
-2.32667e-06
1.59183e-05
-2.32539e-06
1.59194e-05
-2.32603e-06
1.59202e-05
-2.32325e-06
1.59213e-05
-2.32717e-06
1.59219e-05
-2.32024e-06
1.59232e-05
-2.33101e-06
1.59232e-05
-2.31408e-06
1.59286e-05
-2.34998e-06
1.59581e-05
-2.36292e-06
1.59505e-05
-2.3044e-06
1.48466e-05
6.18917e-07
1.3729e-05
2.21604e-07
1.35417e-05
-2.2566e-06
1.35119e-05
-2.32403e-06
1.35724e-05
-2.53084e-06
1.36111e-05
-2.40632e-06
1.36736e-05
-2.48149e-06
1.37139e-05
-2.39943e-06
1.37533e-05
-2.41166e-06
1.37772e-05
-2.3652e-06
1.37947e-05
-2.3575e-06
1.38188e-05
-2.36976e-06
1.38306e-05
-2.34575e-06
1.38176e-05
-2.28126e-06
1.3824e-05
-2.34057e-06
1.38381e-05
-2.3555e-06
1.38366e-05
-2.3117e-06
1.38379e-05
-2.32351e-06
1.38459e-05
-2.34535e-06
1.38379e-05
-2.29791e-06
1.38312e-05
-2.3053e-06
1.38346e-05
-2.33517e-06
1.38317e-05
-2.31326e-06
1.38296e-05
-2.3162e-06
1.38334e-05
-2.33526e-06
1.38294e-05
-2.31059e-06
1.3826e-05
-2.31383e-06
1.38281e-05
-2.33122e-06
1.38244e-05
-2.31198e-06
1.38217e-05
-2.31562e-06
1.38242e-05
-2.33193e-06
1.3821e-05
-2.31333e-06
1.38189e-05
-2.31746e-06
1.38219e-05
-2.33268e-06
1.38191e-05
-2.31416e-06
1.38179e-05
-2.31984e-06
1.38205e-05
-2.33132e-06
1.38185e-05
-2.31644e-06
1.38174e-05
-2.31991e-06
1.38201e-05
-2.33094e-06
1.38194e-05
-2.32042e-06
1.38173e-05
-2.31655e-06
1.38198e-05
-2.33068e-06
1.38203e-05
-2.32352e-06
1.38181e-05
-2.3162e-06
1.38195e-05
-2.32723e-06
1.38216e-05
-2.32854e-06
1.38196e-05
-2.31688e-06
1.3819e-05
-2.32147e-06
1.38216e-05
-2.33001e-06
1.3822e-05
-2.32337e-06
1.38195e-05
-2.3161e-06
1.38201e-05
-2.32484e-06
1.38228e-05
-2.32986e-06
1.38226e-05
-2.32184e-06
1.38205e-05
-2.31718e-06
1.38209e-05
-2.32454e-06
1.38232e-05
-2.32849e-06
1.3824e-05
-2.32412e-06
1.3823e-05
-2.3203e-06
1.38225e-05
-2.32166e-06
1.38233e-05
-2.32515e-06
1.38246e-05
-2.32584e-06
1.38255e-05
-2.32474e-06
1.38261e-05
-2.3241e-06
1.38264e-05
-2.32352e-06
1.38266e-05
-2.32335e-06
1.38268e-05
-2.32322e-06
1.38269e-05
-2.32322e-06
1.3827e-05
-2.32308e-06
1.38271e-05
-2.32302e-06
1.38273e-05
-2.32318e-06
1.38275e-05
-2.3232e-06
1.38276e-05
-2.32324e-06
1.38279e-05
-2.32338e-06
1.38281e-05
-2.32328e-06
1.38283e-05
-2.32336e-06
1.38286e-05
-2.32344e-06
1.38289e-05
-2.32353e-06
1.38291e-05
-2.32349e-06
1.38294e-05
-2.32328e-06
1.38297e-05
-2.32367e-06
1.383e-05
-2.32333e-06
1.38303e-05
-2.3237e-06
1.38303e-05
-2.32279e-06
1.38302e-05
-2.32236e-06
1.38313e-05
-2.3258e-06
1.38306e-05
-2.32057e-06
1.38313e-05
-2.3246e-06
1.38327e-05
-2.32717e-06
1.38309e-05
-2.31672e-06
1.3832e-05
-2.32644e-06
1.38335e-05
-2.32709e-06
1.38314e-05
-2.31584e-06
1.38331e-05
-2.32803e-06
1.38351e-05
-2.32903e-06
1.38311e-05
-2.30996e-06
1.38333e-05
-2.32979e-06
1.3837e-05
-2.33394e-06
1.38319e-05
-2.30656e-06
1.38331e-05
-2.32686e-06
1.38386e-05
-2.33914e-06
1.38339e-05
-2.30738e-06
1.38335e-05
-2.32246e-06
1.38384e-05
-2.33769e-06
1.38357e-05
-2.31285e-06
1.38355e-05
-2.32315e-06
1.38383e-05
-2.33154e-06
1.38355e-05
-2.3135e-06
1.38369e-05
-2.32687e-06
1.38409e-05
-2.33439e-06
1.38381e-05
-2.31379e-06
1.38366e-05
-2.31854e-06
1.38409e-05
-2.33562e-06
1.38407e-05
-2.32101e-06
1.38394e-05
-2.31848e-06
1.3843e-05
-2.33294e-06
1.38442e-05
-2.32584e-06
1.38408e-05
-2.31266e-06
1.3842e-05
-2.32668e-06
1.38452e-05
-2.33216e-06
1.38431e-05
-2.31619e-06
1.3841e-05
-2.3169e-06
1.3844e-05
-2.33168e-06
1.38458e-05
-2.32712e-06
1.38436e-05
-2.31644e-06
1.38431e-05
-2.32189e-06
1.38453e-05
-2.32872e-06
1.38463e-05
-2.32477e-06
1.38453e-05
-2.32016e-06
1.38449e-05
-2.32195e-06
1.3846e-05
-2.32609e-06
1.38458e-05
-2.3217e-06
1.38466e-05
-2.3252e-06
1.38466e-05
-2.32293e-06
1.38448e-05
-2.31768e-06
1.38463e-05
-2.32779e-06
1.38463e-05
-2.32234e-06
1.3845e-05
-2.31837e-06
1.38474e-05
-2.33037e-06
1.38476e-05
-2.32299e-06
1.38454e-05
-2.31557e-06
1.38495e-05
-2.33501e-06
1.385e-05
-2.32387e-06
1.38462e-05
-2.31106e-06
1.38501e-05
-2.33456e-06
1.38521e-05
-2.32807e-06
1.38474e-05
-2.30829e-06
1.38499e-05
-2.33093e-06
1.3853e-05
-2.3318e-06
1.38499e-05
-2.31261e-06
1.38508e-05
-2.32622e-06
1.38525e-05
-2.32783e-06
1.38505e-05
-2.3159e-06
1.38532e-05
-2.33099e-06
1.38542e-05
-2.32555e-06
1.38502e-05
-2.31063e-06
1.38525e-05
-2.33021e-06
1.38549e-05
-2.32985e-06
1.38519e-05
-2.31312e-06
1.38534e-05
-2.32794e-06
1.38545e-05
-2.32614e-06
1.38508e-05
-2.31177e-06
1.38529e-05
-2.32943e-06
1.3855e-05
-2.32908e-06
1.38522e-05
-2.31338e-06
1.38543e-05
-2.3294e-06
1.38564e-05
-2.32898e-06
1.38535e-05
-2.31315e-06
1.38555e-05
-2.32901e-06
1.38576e-05
-2.32898e-06
1.38546e-05
-2.31305e-06
1.38564e-05
-2.3288e-06
1.38586e-05
-2.3291e-06
1.38555e-05
-2.31299e-06
1.38574e-05
-2.32864e-06
1.38595e-05
-2.32924e-06
1.38565e-05
-2.31289e-06
1.38582e-05
-2.32844e-06
1.38604e-05
-2.32946e-06
1.38574e-05
-2.31288e-06
1.3859e-05
-2.3282e-06
1.38613e-05
-2.32958e-06
1.38583e-05
-2.31287e-06
1.38598e-05
-2.32801e-06
1.38621e-05
-2.32969e-06
1.3859e-05
-2.3128e-06
1.38606e-05
-2.32782e-06
1.38629e-05
-2.32985e-06
1.38598e-05
-2.31276e-06
1.38612e-05
-2.32757e-06
1.38636e-05
-2.33e-06
1.38605e-05
-2.31267e-06
1.38619e-05
-2.32747e-06
1.38642e-05
-2.32989e-06
1.38611e-05
-2.31276e-06
1.38623e-05
-2.3271e-06
1.38648e-05
-2.33024e-06
1.38617e-05
-2.31281e-06
1.38627e-05
-2.32601e-06
1.38657e-05
-2.33245e-06
1.3862e-05
-2.31075e-06
1.38636e-05
-2.3285e-06
1.38652e-05
-2.32711e-06
1.38629e-05
-2.31559e-06
1.38632e-05
-2.3247e-06
1.38661e-05
-2.33103e-06
1.38643e-05
-2.31757e-06
1.38616e-05
-2.31265e-06
1.38679e-05
-2.34512e-06
1.38624e-05
-2.30296e-06
1.38677e-05
-2.34156e-06
1.3862e-05
-2.30366e-06
1.38661e-05
-2.33672e-06
1.38655e-05
-2.31986e-06
1.38656e-05
-2.32341e-06
1.38651e-05
-2.32227e-06
1.38621e-05
-2.311e-06
1.38691e-05
-2.3481e-06
1.38649e-05
-2.30398e-06
1.38687e-05
-2.3399e-06
1.38597e-05
-2.29294e-06
1.38689e-05
-2.35432e-06
1.38643e-05
-2.30265e-06
1.38697e-05
-2.34375e-06
1.38619e-05
-2.29653e-06
1.38687e-05
-2.34728e-06
1.38609e-05
-2.29602e-06
1.3866e-05
-2.34272e-06
1.38611e-05
-2.30429e-06
1.38645e-05
-2.33779e-06
1.38613e-05
-2.31041e-06
1.38629e-05
-2.33012e-06
1.38567e-05
-2.30197e-06
1.38177e-05
-2.29355e-06
1.43971e-05
-3.92016e-06
1.60188e-05
-6.23857e-06
1.68939e-05
-3.99259e-06
1.63999e-05
-6.97826e-07
1.61277e-05
-1.81125e-06
-2.19647e-06
2.15416e-05
1.727e-05
2.01944e-05
6.63756e-06
1.91058e-05
1.23068e-06
1.83188e-05
-7.16358e-07
1.77601e-05
-1.19627e-06
1.74378e-05
-1.60858e-06
1.72157e-05
-1.85476e-06
1.70792e-05
-2.02108e-06
1.69896e-05
-2.14792e-06
1.69397e-05
-2.23452e-06
1.69109e-05
-2.29231e-06
1.69039e-05
-2.33542e-06
1.69113e-05
-2.38066e-06
1.69286e-05
-2.40088e-06
1.69572e-05
-2.43076e-06
1.69931e-05
-2.44943e-06
1.70368e-05
-2.46925e-06
1.70852e-05
-2.47983e-06
1.71375e-05
-2.49111e-06
1.71955e-05
-2.5076e-06
1.72579e-05
-2.51903e-06
1.73234e-05
-2.52713e-06
1.73915e-05
-2.53411e-06
1.7462e-05
-2.53928e-06
1.75345e-05
-2.54528e-06
1.76049e-05
-2.53924e-06
1.76685e-05
-2.51885e-06
1.77243e-05
-2.49349e-06
1.77726e-05
-2.46937e-06
1.7814e-05
-2.44748e-06
1.78494e-05
-2.42849e-06
1.78794e-05
-2.41185e-06
1.79047e-05
-2.39774e-06
1.79261e-05
-2.38567e-06
1.7944e-05
-2.37555e-06
1.79592e-05
-2.36705e-06
1.79719e-05
-2.3599e-06
1.79826e-05
-2.35404e-06
1.79916e-05
-2.34903e-06
1.79993e-05
-2.34504e-06
1.80057e-05
-2.34149e-06
1.80112e-05
-2.33879e-06
1.80158e-05
-2.33649e-06
1.80199e-05
-2.33442e-06
1.80233e-05
-2.33288e-06
1.80261e-05
-2.33091e-06
1.80286e-05
-2.33026e-06
1.80308e-05
-2.32907e-06
1.80327e-05
-2.32856e-06
1.80342e-05
-2.32688e-06
1.80354e-05
-2.32723e-06
1.80364e-05
-2.32428e-06
1.80374e-05
-2.32813e-06
1.80381e-05
-2.32102e-06
1.8039e-05
-2.33188e-06
1.80399e-05
-2.31501e-06
1.80436e-05
-2.35361e-06
1.80765e-05
-2.39586e-06
1.80576e-05
-2.28553e-06
1.7048e-05
1.62859e-06
1.59096e-05
1.35994e-06
1.55739e-05
-1.92088e-06
1.54854e-05
-2.23555e-06
1.55075e-05
-2.55286e-06
1.55346e-05
-2.43344e-06
1.5593e-05
-2.53987e-06
1.56349e-05
-2.44136e-06
1.56781e-05
-2.4549e-06
1.57067e-05
-2.39374e-06
1.57282e-05
-2.37906e-06
1.57561e-05
-2.39763e-06
1.57715e-05
-2.3612e-06
1.57631e-05
-2.27279e-06
1.57691e-05
-2.34665e-06
1.57837e-05
-2.37003e-06
1.57857e-05
-2.31375e-06
1.5788e-05
-2.32582e-06
1.57956e-05
-2.35289e-06
1.57896e-05
-2.292e-06
1.5784e-05
-2.29964e-06
1.57864e-05
-2.33761e-06
1.57844e-05
-2.31119e-06
1.57826e-05
-2.31446e-06
1.57856e-05
-2.33822e-06
1.57824e-05
-2.30742e-06
1.57793e-05
-2.31077e-06
1.57807e-05
-2.33262e-06
1.57775e-05
-2.30875e-06
1.57748e-05
-2.31293e-06
1.57767e-05
-2.33378e-06
1.57739e-05
-2.31059e-06
1.57718e-05
-2.31534e-06
1.57741e-05
-2.33499e-06
1.57718e-05
-2.31188e-06
1.57705e-05
-2.31855e-06
1.57727e-05
-2.33351e-06
1.57712e-05
-2.31488e-06
1.57701e-05
-2.3188e-06
1.57722e-05
-2.33312e-06
1.57719e-05
-2.32007e-06
1.57701e-05
-2.3148e-06
1.57721e-05
-2.33268e-06
1.57727e-05
-2.32409e-06
1.57709e-05
-2.31445e-06
1.57721e-05
-2.32836e-06
1.57739e-05
-2.33035e-06
1.57724e-05
-2.31537e-06
1.57717e-05
-2.32084e-06
1.5774e-05
-2.33223e-06
1.57745e-05
-2.32395e-06
1.57726e-05
-2.31414e-06
1.57729e-05
-2.32512e-06
1.57752e-05
-2.3322e-06
1.57754e-05
-2.32202e-06
1.57736e-05
-2.31537e-06
1.57737e-05
-2.3247e-06
1.57758e-05
-2.33059e-06
1.57768e-05
-2.3251e-06
1.5776e-05
-2.3195e-06
1.57755e-05
-2.32111e-06
1.57763e-05
-2.32593e-06
1.57775e-05
-2.32711e-06
1.57785e-05
-2.32569e-06
1.57791e-05
-2.32477e-06
1.57795e-05
-2.32392e-06
1.57798e-05
-2.32362e-06
1.578e-05
-2.32342e-06
1.57802e-05
-2.3234e-06
1.57803e-05
-2.32321e-06
1.57804e-05
-2.32314e-06
1.57806e-05
-2.32337e-06
1.57808e-05
-2.32339e-06
1.5781e-05
-2.32343e-06
1.57813e-05
-2.32363e-06
1.57815e-05
-2.32351e-06
1.57818e-05
-2.32362e-06
1.57821e-05
-2.32374e-06
1.57824e-05
-2.32383e-06
1.57826e-05
-2.32377e-06
1.57829e-05
-2.32352e-06
1.57833e-05
-2.32405e-06
1.57835e-05
-2.3236e-06
1.57839e-05
-2.32407e-06
1.5784e-05
-2.32285e-06
1.5784e-05
-2.32238e-06
1.57849e-05
-2.32672e-06
1.57845e-05
-2.32016e-06
1.57851e-05
-2.3252e-06
1.57864e-05
-2.32844e-06
1.57849e-05
-2.31526e-06
1.57858e-05
-2.32734e-06
1.57872e-05
-2.3285e-06
1.57856e-05
-2.31418e-06
1.5787e-05
-2.32945e-06
1.57889e-05
-2.33091e-06
1.57856e-05
-2.3067e-06
1.57873e-05
-2.33151e-06
1.57907e-05
-2.33733e-06
1.57867e-05
-2.30255e-06
1.57874e-05
-2.32759e-06
1.57922e-05
-2.34388e-06
1.57885e-05
-2.30373e-06
1.5788e-05
-2.3219e-06
1.57922e-05
-2.34194e-06
1.57902e-05
-2.31083e-06
1.579e-05
-2.32294e-06
1.57924e-05
-2.33394e-06
1.57903e-05
-2.31144e-06
1.57914e-05
-2.32798e-06
1.57949e-05
-2.33791e-06
1.57929e-05
-2.31174e-06
1.57915e-05
-2.3172e-06
1.57951e-05
-2.33922e-06
1.57954e-05
-2.32128e-06
1.57944e-05
-2.3175e-06
1.57976e-05
-2.33607e-06
1.5799e-05
-2.3273e-06
1.57963e-05
-2.30995e-06
1.57971e-05
-2.32746e-06
1.57998e-05
-2.3349e-06
1.57983e-05
-2.31466e-06
1.57964e-05
-2.31504e-06
1.5799e-05
-2.3342e-06
1.58008e-05
-2.32894e-06
1.57991e-05
-2.31471e-06
1.57984e-05
-2.32125e-06
1.58004e-05
-2.33065e-06
1.58015e-05
-2.3259e-06
1.58008e-05
-2.31943e-06
1.58004e-05
-2.32159e-06
1.58013e-05
-2.32696e-06
1.58012e-05
-2.32158e-06
1.58019e-05
-2.32592e-06
1.58019e-05
-2.32296e-06
1.58004e-05
-2.31618e-06
1.58016e-05
-2.32897e-06
1.58017e-05
-2.32245e-06
1.58005e-05
-2.31722e-06
1.58026e-05
-2.33242e-06
1.5803e-05
-2.32341e-06
1.58013e-05
-2.31381e-06
1.58046e-05
-2.33839e-06
1.58055e-05
-2.32472e-06
1.58023e-05
-2.30788e-06
1.58054e-05
-2.3377e-06
1.58075e-05
-2.33015e-06
1.58037e-05
-2.30446e-06
1.58056e-05
-2.33278e-06
1.58085e-05
-2.33478e-06
1.58061e-05
-2.31018e-06
1.58066e-05
-2.32677e-06
1.58082e-05
-2.3294e-06
1.58066e-05
-2.31432e-06
1.58089e-05
-2.33323e-06
1.581e-05
-2.32666e-06
1.58067e-05
-2.3073e-06
1.58084e-05
-2.3319e-06
1.58107e-05
-2.33217e-06
1.58083e-05
-2.31069e-06
1.58093e-05
-2.329e-06
1.58104e-05
-2.32716e-06
1.58073e-05
-2.30872e-06
1.58088e-05
-2.33093e-06
1.58109e-05
-2.33114e-06
1.58086e-05
-2.31112e-06
1.58103e-05
-2.33108e-06
1.58124e-05
-2.33108e-06
1.581e-05
-2.31079e-06
1.58115e-05
-2.33052e-06
1.58136e-05
-2.33103e-06
1.58112e-05
-2.31064e-06
1.58126e-05
-2.33023e-06
1.58146e-05
-2.33115e-06
1.58122e-05
-2.31057e-06
1.58136e-05
-2.33e-06
1.58157e-05
-2.33132e-06
1.58132e-05
-2.31044e-06
1.58145e-05
-2.32973e-06
1.58166e-05
-2.33157e-06
1.58142e-05
-2.31044e-06
1.58154e-05
-2.32943e-06
1.58175e-05
-2.33171e-06
1.58151e-05
-2.31042e-06
1.58162e-05
-2.32918e-06
1.58184e-05
-2.33183e-06
1.58159e-05
-2.31033e-06
1.5817e-05
-2.32891e-06
1.58192e-05
-2.33201e-06
1.58167e-05
-2.31028e-06
1.58177e-05
-2.32859e-06
1.58199e-05
-2.33219e-06
1.58174e-05
-2.31017e-06
1.58184e-05
-2.32845e-06
1.58205e-05
-2.33204e-06
1.58181e-05
-2.3103e-06
1.58189e-05
-2.32797e-06
1.58211e-05
-2.33246e-06
1.58187e-05
-2.31033e-06
1.58192e-05
-2.3266e-06
1.58219e-05
-2.33512e-06
1.58189e-05
-2.30776e-06
1.58201e-05
-2.32964e-06
1.58217e-05
-2.32869e-06
1.58197e-05
-2.31364e-06
1.58198e-05
-2.32481e-06
1.58225e-05
-2.33369e-06
1.58213e-05
-2.31635e-06
1.58186e-05
-2.31e-06
1.58236e-05
-2.35015e-06
1.58199e-05
-2.29917e-06
1.58237e-05
-2.34545e-06
1.58192e-05
-2.29909e-06
1.58224e-05
-2.33995e-06
1.58222e-05
-2.31965e-06
1.58222e-05
-2.32338e-06
1.5822e-05
-2.32212e-06
1.58192e-05
-2.30819e-06
1.58248e-05
-2.35369e-06
1.58222e-05