/*--------------------------------*- C++ -*----------------------------------*\
| =========                 |                                                 |
| \\      /  F ield         | foam-extend: Open Source CFD                    |
|  \\    /   O peration     | Version:     3.2                                |
|   \\  /    A nd           | Web:         http://www.foam-extend.org         |
|    \\/     M anipulation  | For copyright notice see file Copyright         |
\*---------------------------------------------------------------------------*/
FoamFile
{
    version     2.0;
    format      ascii;
    class       areaVectorField;
    location    "50";
    object      aMeshCentreN;
}
// * * * * * * * * * * * * * * * * * * * * * * * * * * * * * * * * * * * * * //

dimensions      [0 0 0 0 0 0 0];

internalField   nonuniform List<vector> 
300
(
(0.025 0.01 -0.000125)
(0.075 0.01 -0.000375)
(0.125 0.01 -0.000625)
(0.175 0.01 -0.000875)
(0.225 0.01 -0.001125)
(0.275 0.01 -0.001375)
(0.325 0.01 -0.001625)
(0.375 0.01 -0.001875)
(0.425 0.01 -0.002125)
(0.475 0.01 -0.002375)
(0.525 0.01 -0.002625)
(0.575 0.01 -0.002875)
(0.625 0.01 -0.003125)
(0.675 0.01 -0.003375)
(0.725 0.01 -0.003625)
(0.775 0.01 -0.003875)
(0.825 0.01 -0.004125)
(0.875 0.01 -0.004375)
(0.925 0.01 -0.004625)
(0.975 0.01 -0.004875)
(1.025 0.01 -0.005125)
(1.075 0.01 -0.005375)
(1.125 0.01 -0.005625)
(1.175 0.01 -0.005875)
(1.225 0.01 -0.006125)
(1.275 0.01 -0.006375)
(1.325 0.01 -0.006625)
(1.375 0.01 -0.006875)
(1.425 0.01 -0.007125)
(1.475 0.01 -0.007375)
(1.525 0.01 -0.007625)
(1.575 0.01 -0.007875)
(1.625 0.01 -0.008125)
(1.675 0.01 -0.008375)
(1.725 0.01 -0.008625)
(1.775 0.01 -0.008875)
(1.825 0.01 -0.009125)
(1.875 0.01 -0.009375)
(1.925 0.01 -0.009625)
(1.975 0.01 -0.009875)
(2.025 0.01 -0.010125)
(2.075 0.01 -0.010375)
(2.125 0.01 -0.010625)
(2.175 0.01 -0.010875)
(2.225 0.01 -0.011125)
(2.275 0.01 -0.011375)
(2.325 0.01 -0.011625)
(2.375 0.01 -0.011875)
(2.425 0.01 -0.012125)
(2.475 0.01 -0.012375)
(2.525 0.01 -0.012625)
(2.575 0.01 -0.012875)
(2.625 0.01 -0.013125)
(2.675 0.01 -0.013375)
(2.725 0.01 -0.013625)
(2.775 0.01 -0.013875)
(2.825 0.01 -0.014125)
(2.875 0.01 -0.014375)
(2.925 0.01 -0.014625)
(2.975 0.01 -0.0153129)
(3.025 0.01 -0.0166025)
(3.075 0.01 -0.0177601)
(3.125 0.01 -0.0185169)
(3.175 0.01 -0.0190871)
(3.225 0.01 -0.0195358)
(3.275 0.01 -0.0199093)
(3.325 0.01 -0.020234)
(3.375 0.01 -0.0205302)
(3.425 0.01 -0.0208065)
(3.475 0.01 -0.0210747)
(3.525 0.01 -0.0213316)
(3.575 0.01 -0.0215785)
(3.625 0.01 -0.021837)
(3.675 0.01 -0.0220988)
(3.725 0.01 -0.0223422)
(3.775 0.01 -0.0225819)
(3.825 0.01 -0.0228279)
(3.875 0.01 -0.0230689)
(3.925 0.01 -0.0233113)
(3.975 0.01 -0.0235633)
(4.025 0.01 -0.0238112)
(4.075 0.01 -0.0240557)
(4.125 0.01 -0.0243044)
(4.175 0.01 -0.0245503)
(4.225 0.01 -0.0247958)
(4.275 0.01 -0.0250464)
(4.325 0.01 -0.0252949)
(4.375 0.01 -0.025543)
(4.425 0.01 -0.0257949)
(4.475 0.01 -0.0260441)
(4.525 0.01 -0.0262929)
(4.575 0.01 -0.0265452)
(4.625 0.01 -0.0267945)
(4.675 0.01 -0.0270434)
(4.725 0.01 -0.0272955)
(4.775 0.01 -0.0275447)
(4.825 0.01 -0.0277936)
(4.875 0.01 -0.0280452)
(4.925 0.01 -0.0282946)
(4.975 0.01 -0.0285431)
(5.025 0.01 -0.0287943)
(5.075 0.01 -0.0290443)
(5.125 0.01 -0.0292923)
(5.175 0.01 -0.0295429)
(5.225 0.01 -0.0297935)
(5.275 0.01 -0.0300417)
(5.325 0.01 -0.030291)
(5.375 0.01 -0.0305423)
(5.425 0.01 -0.0307915)
(5.475 0.01 -0.0310395)
(5.525 0.01 -0.0312899)
(5.575 0.01 -0.031541)
(5.625 0.01 -0.0317896)
(5.675 0.01 -0.0320378)
(5.725 0.01 -0.0322883)
(5.775 0.01 -0.0325392)
(5.825 0.01 -0.032788)
(5.875 0.01 -0.033036)
(5.925 0.01 -0.0332856)
(5.975 0.01 -0.033536)
(6.025 0.01 -0.0337858)
(6.075 0.01 -0.0340346)
(6.125 0.01 -0.0342831)
(6.175 0.01 -0.0345317)
(6.225 0.01 -0.0347807)
(6.275 0.01 -0.0350299)
(6.325 0.01 -0.0352793)
(6.375 0.01 -0.0355288)
(6.425 0.01 -0.0357783)
(6.475 0.01 -0.036028)
(6.525 0.01 -0.0362776)
(6.575 0.01 -0.0365272)
(6.625 0.01 -0.0367768)
(6.675 0.01 -0.0370263)
(6.725 0.01 -0.0372759)
(6.775 0.01 -0.0375254)
(6.825 0.01 -0.0377749)
(6.875 0.01 -0.0380244)
(6.925 0.01 -0.0382739)
(6.975 0.01 -0.0385234)
(7.025 0.01 -0.0387729)
(7.075 0.01 -0.0390225)
(7.125 0.01 -0.0392719)
(7.175 0.01 -0.0395213)
(7.225 0.01 -0.039771)
(7.275 0.01 -0.0400203)
(7.325 0.01 -0.0402697)
(7.375 0.01 -0.0405196)
(7.425 0.01 -0.0407681)
(7.475 0.01 -0.0410179)
(7.525 0.01 -0.0412682)
(7.575 0.01 -0.0415165)
(7.625 0.01 -0.0417663)
(7.675 0.01 -0.0420167)
(7.725 0.01 -0.0422642)
(7.775 0.01 -0.0425146)
(7.825 0.01 -0.0427659)
(7.875 0.01 -0.0430123)
(7.925 0.01 -0.043262)
(7.975 0.01 -0.0435146)
(8.025 0.01 -0.043761)
(8.075 0.01 -0.0440094)
(8.125 0.01 -0.0442623)
(8.175 0.01 -0.04451)
(8.225 0.01 -0.0447579)
(8.275 0.01 -0.0450093)
(8.325 0.01 -0.0452577)
(8.375 0.01 -0.0455069)
(8.425 0.01 -0.0457579)
(8.475 0.01 -0.0460049)
(8.525 0.01 -0.0462529)
(8.575 0.01 -0.0465048)
(8.625 0.01 -0.0467536)
(8.675 0.01 -0.0470006)
(8.725 0.01 -0.0472507)
(8.775 0.01 -0.0474994)
(8.825 0.01 -0.047746)
(8.875 0.01 -0.047996)
(8.925 0.01 -0.0482472)
(8.975 0.01 -0.0484949)
(9.025 0.01 -0.0487433)
(9.075 0.01 -0.048995)
(9.125 0.01 -0.0492447)
(9.175 0.01 -0.0494918)
(9.225 0.01 -0.0497413)
(9.275 0.01 -0.0499925)
(9.325 0.01 -0.0502417)
(9.375 0.01 -0.0504897)
(9.425 0.01 -0.0507391)
(9.475 0.01 -0.0509894)
(9.525 0.01 -0.051239)
(9.575 0.01 -0.0514884)
(9.625 0.01 -0.0517379)
(9.675 0.01 -0.051987)
(9.725 0.01 -0.0522378)
(9.775 0.01 -0.0524881)
(9.825 0.01 -0.052737)
(9.875 0.01 -0.0529877)
(9.925 0.01 -0.0532373)
(9.975 0.01 -0.0534853)
(10.025 0.01 -0.0537361)
(10.075 0.01 -0.0539853)
(10.125 0.01 -0.054232)
(10.175 0.01 -0.0544831)
(10.225 0.01 -0.0547335)
(10.275 0.01 -0.0549796)
(10.325 0.01 -0.0552302)
(10.375 0.01 -0.0554816)
(10.425 0.01 -0.0557282)
(10.475 0.01 -0.0559774)
(10.525 0.01 -0.0562286)
(10.575 0.01 -0.0564768)
(10.625 0.01 -0.0567266)
(10.675 0.01 -0.0569764)
(10.725 0.01 -0.0572236)
(10.775 0.01 -0.0574746)
(10.825 0.01 -0.0577259)
(10.875 0.01 -0.0579731)
(10.925 0.01 -0.0582229)
(10.975 0.01 -0.0584739)
(11.025 0.01 -0.0587221)
(11.075 0.01 -0.0589731)
(11.125 0.01 -0.0592245)
(11.175 0.01 -0.0594721)
(11.225 0.01 -0.0597221)
(11.275 0.01 -0.0599728)
(11.325 0.01 -0.0602201)
(11.375 0.01 -0.0604699)
(11.425 0.01 -0.0607207)
(11.475 0.01 -0.060968)
(11.525 0.01 -0.0612179)
(11.575 0.01 -0.0614687)
(11.625 0.01 -0.0617161)
(11.675 0.01 -0.0619661)
(11.725 0.01 -0.0622169)
(11.775 0.01 -0.0624644)
(11.825 0.01 -0.0627143)
(11.875 0.01 -0.0629653)
(11.925 0.01 -0.0632128)
(11.975 0.01 -0.0634627)
(12.025 0.01 -0.0637137)
(12.075 0.01 -0.0639613)
(12.125 0.01 -0.0642112)
(12.175 0.01 -0.0644623)
(12.225 0.01 -0.0647099)
(12.275 0.01 -0.0649599)
(12.325 0.01 -0.065211)
(12.375 0.01 -0.0654587)
(12.425 0.01 -0.0657086)
(12.475 0.01 -0.0659598)
(12.525 0.01 -0.0662076)
(12.575 0.01 -0.0664575)
(12.625 0.01 -0.0667088)
(12.675 0.01 -0.0669566)
(12.725 0.01 -0.0672065)
(12.775 0.01 -0.0674579)
(12.825 0.01 -0.0677057)
(12.875 0.01 -0.0679556)
(12.925 0.01 -0.0682072)
(12.975 0.01 -0.0684549)
(13.025 0.01 -0.0687049)
(13.075 0.01 -0.0689563)
(13.125 0.01 -0.0692043)
(13.175 0.01 -0.0694543)
(13.225 0.01 -0.0697057)
(13.275 0.01 -0.0699541)
(13.325 0.01 -0.0702025)
(13.375 0.01 -0.0704555)
(13.425 0.01 -0.0707041)
(13.475 0.01 -0.0709533)
(13.525 0.01 -0.0712029)
(13.575 0.01 -0.0714532)
(13.625 0.01 -0.0717045)
(13.675 0.01 -0.0719522)
(13.725 0.01 -0.0722026)
(13.775 0.01 -0.0724519)
(13.825 0.01 -0.0727044)
(13.875 0.01 -0.0729525)
(13.925 0.01 -0.0732009)
(13.975 0.01 -0.073451)
(14.025 0.01 -0.0737032)
(14.075 0.01 -0.0739531)
(14.125 0.01 -0.0742011)
(14.175 0.01 -0.0744507)
(14.225 0.01 -0.0747015)
(14.275 0.01 -0.074952)
(14.325 0.01 -0.0752027)
(14.375 0.01 -0.0754543)
(14.425 0.01 -0.0757047)
(14.475 0.01 -0.0759557)
(14.525 0.01 -0.0762054)
(14.575 0.01 -0.076456)
(14.625 0.01 -0.0767053)
(14.675 0.01 -0.0769521)
(14.725 0.01 -0.0769367)
(14.775 0.01 -0.076058)
(14.825 0.01 -0.0747827)
(14.875 0.01 -0.074375)
(14.925 0.01 -0.074625)
(14.975 0.01 -0.074875)
)
;

boundaryField
{
    inlet
    {
        type            calculated;
        value           uniform (0 0 0);
    }
    outlet
    {
        type            calculated;
        value           uniform (0 0 0);
    }
    sideWall
    {
        type            empty;
    }
}


// ************************************************************************* //
