/*--------------------------------*- C++ -*----------------------------------*\
| =========                 |                                                 |
| \\      /  F ield         | foam-extend: Open Source CFD                    |
|  \\    /   O peration     | Version:     3.2                                |
|   \\  /    A nd           | Web:         http://www.foam-extend.org         |
|    \\/     M anipulation  | For copyright notice see file Copyright         |
\*---------------------------------------------------------------------------*/
FoamFile
{
    version     2.0;
    format      ascii;
    class       areaScalarField;
    location    "50";
    object      angBeta;
}
// * * * * * * * * * * * * * * * * * * * * * * * * * * * * * * * * * * * * * //

dimensions      [0 0 0 0 0 0 0];

internalField   nonuniform List<scalar> 
300
(
0.00499996
0.00499996
0.00499996
0.00499996
0.00499996
0.00499996
0.00499996
0.00499996
0.00499996
0.00499996
0.00499996
0.00499996
0.00499996
0.00499996
0.00499996
0.00499996
0.00499996
0.00499996
0.00499996
0.00499996
0.00499996
0.00499996
0.00499996
0.00499996
0.00499996
0.00499996
0.00499996
0.00499996
0.00499996
0.00499996
0.00499996
0.00499996
0.00499996
0.00499996
0.00499996
0.00499996
0.00499996
0.00499996
0.00499996
0.00499996
0.00499996
0.00499996
0.00499996
0.00499996
0.00499996
0.00499996
0.00499996
0.00499996
0.00499996
0.00499996
0.00499996
0.00499996
0.00499996
0.00499996
0.00499996
0.00499996
0.00499996
0.00499996
0.00499996
0.0225139
0.0290557
0.0172399
0.0130307
0.00977625
0.00817134
0.00676753
0.00621934
0.00562999
0.00541978
0.00531001
0.00496346
0.00491493
0.00542177
0.00505098
0.00468702
0.00489934
0.00494307
0.00469508
0.00500009
0.00508138
0.00483491
0.00494571
0.00500154
0.00483402
0.00498621
0.00503841
0.00489866
0.00502554
0.00505291
0.00491219
0.0050393
0.00505472
0.00491513
0.00504288
0.00503949
0.00492867
0.00502805
0.0050355
0.00494124
0.00499706
0.00505127
0.0049474
0.00497539
0.00504593
0.00498106
0.00494516
0.00502874
0.00502202
0.00494647
0.00497336
0.00504243
0.00500072
0.00494437
0.00498237
0.00503692
0.00499982
0.0049513
0.00497007
0.00501101
0.00500773
0.00498199
0.00496896
0.00497107
0.00497602
0.00498251
0.00498624
0.00498895
0.00499035
0.00499178
0.00499256
0.00499163
0.00499197
0.00499225
0.00499054
0.00499099
0.00499078
0.0049894
0.00498962
0.00498934
0.00499182
0.00498943
0.00499214
0.00498643
0.00498839
0.00500004
0.00497003
0.00500663
0.00498766
0.0049535
0.00503731
0.00497781
0.00495045
0.00504466
0.00496925
0.00492967
0.00508616
0.00496749
0.00488823
0.00509867
0.005005
0.00485388
0.00507894
0.00503774
0.00487263
0.00504111
0.00501438
0.00492109
0.00504877
0.00498924
0.00489353
0.0050266
0.00504901
0.00490275
0.00497666
0.00502821
0.00491961
0.00494112
0.00505881
0.00498912
0.00491874
0.00501753
0.00505028
0.00493984
0.0049447
0.00503308
0.00501572
0.00495349
0.00496589
0.005007
0.00500866
0.00497281
0.00500187
0.00497948
0.00498682
0.00504235
0.00496862
0.0049899
0.00503757
0.0049463
0.00497471
0.00505619
0.00491144
0.00495628
0.0050897
0.0049238
0.00492187
0.00510031
0.00495708
0.0049065
0.00506228
0.00498401
0.0049453
0.00504712
0.00494124
0.00494962
0.00508876
0.00496275
0.00492561
0.00506594
0.00497391
0.00495583
0.00508439
0.00497012
0.004935
0.00506537
0.00496051
0.00493037
0.00506494
0.00496332
0.00493083
0.00506578
0.00496587
0.00493094
0.00506633
0.0049679
0.0049306
0.00506714
0.00497036
0.00492995
0.00506721
0.00497288
0.00493
0.00506747
0.00497491
0.00492986
0.00506806
0.00497722
0.00492956
0.00506835
0.00497981
0.00492911
0.00506939
0.00498082
0.00493064
0.00506762
0.00498527
0.00492928
0.00506526
0.00499719
0.00491321
0.00508551
0.00496935
0.00495025
0.00505043
0.00500521
0.00493107
0.0050073
0.00511051
0.00483392
0.00513247
0.00485465
0.00515537
0.00489534
0.00501402
0.00500235
0.00497081
0.00512598
0.00479951
0.00513807
0.00486531
0.00522095
0.00477447
0.00514804
0.00483467
0.00519723
0.00482314
0.00520393
0.00486197
0.00515162
0.00488864
0.00509943
0.00492529
0.00504525
0.00482691
0.00544327
0.0296949
0.0213051
0.00499996
0.00499996
0.00499996
)
;

boundaryField
{
    inlet
    {
        type            calculated;
        value           uniform 0;
    }
    outlet
    {
        type            calculated;
        value           uniform 0;
    }
    sideWall
    {
        type            empty;
    }
}


// ************************************************************************* //
