/*--------------------------------*- C++ -*----------------------------------*\
| =========                 |                                                 |
| \\      /  F ield         | foam-extend: Open Source CFD                    |
|  \\    /   O peration     | Version:     3.2                                |
|   \\  /    A nd           | Web:         http://www.foam-extend.org         |
|    \\/     M anipulation  | For copyright notice see file Copyright         |
\*---------------------------------------------------------------------------*/
FoamFile
{
    version     2.0;
    format      ascii;
    class       areaVectorField;
    location    "50";
    object      aUf;
}
// * * * * * * * * * * * * * * * * * * * * * * * * * * * * * * * * * * * * * //

dimensions      [0 1 -1 0 0 0 0];

internalField   nonuniform List<vector> 
300
(
(0.932397 -1.48075e-25 0.0216726)
(0.745117 2.29219e-25 8.17308e-05)
(0.641309 9.19916e-26 -0.0034373)
(0.642665 0 -0.003433)
(0.632405 -1.08217e-26 -0.0033167)
(0.6326 -9.05545e-27 -0.00320388)
(0.627672 -1.16007e-26 -0.00319724)
(0.627485 -3.65792e-27 -0.00314896)
(0.625698 0 -0.00316229)
(0.626391 -9.51328e-28 -0.00314142)
(0.626532 0 -0.00315694)
(0.627699 4.69703e-29 -0.00315172)
(0.628843 -6.76909e-28 -0.00316667)
(0.63068 -8.54401e-28 -0.0031708)
(0.632386 0 -0.0031814)
(0.634551 0 -0.00319157)
(0.636745 -1.82796e-27 -0.00320364)
(0.639193 1.94536e-27 -0.00321447)
(0.641616 0 -0.00322857)
(0.644279 0 -0.00324245)
(0.647062 0 -0.0032565)
(0.649922 2.72139e-27 -0.00327041)
(0.65285 0 -0.0032853)
(0.655809 0 -0.0032996)
(0.658801 0 -0.00331415)
(0.661796 3.12234e-27 -0.00332752)
(0.664567 -2.89397e-27 -0.00333878)
(0.66697 0 -0.00334734)
(0.668999 0 -0.00335483)
(0.670692 1.89345e-27 -0.00336099)
(0.672107 -1.61322e-27 -0.00336651)
(0.673277 0 -0.00337097)
(0.674257 0 -0.00337498)
(0.675061 0 -0.00337816)
(0.67574 -8.12258e-28 -0.00338105)
(0.676293 0 -0.00338328)
(0.676767 0 -0.00338538)
(0.677147 -4.80845e-28 -0.00338692)
(0.677485 0 -0.0033885)
(0.677745 0 -0.00338952)
(0.677994 0 -0.00339077)
(0.67817 -9.10501e-43 -0.0033914)
(0.678361 0 -0.00339246)
(0.678479 3.53299e-28 -0.00339273)
(0.678631 0 -0.00339366)
(0.678701 0 -0.00339373)
(0.678827 6.31674e-31 -0.00339464)
(0.678854 0 -0.00339437)
(0.678998 2.85286e-39 -0.00339568)
(0.678938 0 -0.00339408)
(0.679177 0 -0.00339773)
(0.67891 1.35639e-30 -0.0033917)
(0.679423 -1.08127e-28 -0.00340201)
(0.678678 2.97263e-35 -0.00338568)
(0.679944 0 -0.00341223)
(0.677963 0 -0.00336958)
(0.681226 7.265e-28 -0.00344002)
(0.676336 0 -0.0033277)
(0.686019 0 -0.00347384)
(0.665738 -6.00548e-25 -0.014276)
(0.582512 0 -0.0167326)
(0.574312 -1.48639e-25 -0.0102822)
(0.577613 -7.04186e-26 -0.00755908)
(0.576087 0 -0.00566291)
(0.580073 0 -0.00470703)
(0.579107 0 -0.0039413)
(0.58226 -6.47153e-27 -0.00359726)
(0.58153 0 -0.00328216)
(0.583334 6.16275e-32 -0.00314584)
(0.582719 2.02454e-27 -0.00309271)
(0.583345 0 -0.00288711)
(0.583976 -4.60593e-31 -0.0028735)
(0.583279 0 -0.0031451)
(0.582385 0 -0.00294364)
(0.583419 1.51411e-27 -0.00273323)
(0.583354 -1.39966e-27 -0.00285312)
(0.582713 -1.40035e-28 -0.00287732)
(0.58327 -2.37487e-27 -0.00274606)
(0.583323 2.22567e-31 -0.00290856)
(0.582315 1.90297e-28 -0.00295352)
(0.582598 -5.42946e-28 -0.00282376)
(0.582748 0 -0.00287798)
(0.582176 6.6584e-29 -0.00290793)
(0.582467 0 -0.00282164)
(0.582592 7.69328e-28 -0.0029008)
(0.582015 1.14159e-28 -0.00292933)
(0.582252 0 -0.00285797)
(0.582332 1.21159e-27 -0.0029229)
(0.581847 5.00902e-29 -0.00293721)
(0.582078 2.35727e-31 -0.00286478)
(0.582176 0 -0.00293042)
(0.58173 1.26267e-31 -0.0029381)
(0.581992 0 -0.00286579)
(0.582066 5.64723e-28 -0.00293199)
(0.581692 0 -0.00293)
(0.581951 0 -0.00287224)
(0.581998 8.01415e-28 -0.00292377)
(0.581734 0 -0.00292816)
(0.581878 1.30071e-31 -0.0028782)
(0.582047 2.72907e-28 -0.00290829)
(0.581774 -2.38135e-28 -0.00293573)
(0.581828 0 -0.00288148)
(0.582048 0 -0.00289628)
(0.581868 0 -0.00293352)
(0.581791 0 -0.0028989)
(0.582035 -1.13469e-28 -0.00288047)
(0.581998 0 -0.00292461)
(0.581825 4.83785e-29 -0.00292127)
(0.581938 2.81681e-28 -0.00288035)
(0.58209 -1.34897e-28 -0.00289547)
(0.581954 2.97175e-28 -0.00293261)
(0.581859 0 -0.00291002)
(0.582021 0 -0.00287906)
(0.582109 -1.98684e-28 -0.00290026)
(0.581979 2.57605e-28 -0.00293019)
(0.581919 0 -0.00290991)
(0.582044 0 -0.00288268)
(0.582115 0 -0.00289308)
(0.582078 0 -0.00291644)
(0.582034 2.06855e-29 -0.00291464)
(0.582051 -9.96867e-29 -0.00290012)
(0.582114 0 -0.0028927)
(0.582149 0 -0.002894)
(0.582175 -1.98596e-33 -0.002897)
(0.582191 -1.78312e-33 -0.00290091)
(0.582203 -9.93626e-30 -0.00290315)
(0.582213 -7.63791e-30 -0.00290473)
(0.582221 0 -0.00290567)
(0.582232 0 -0.00290659)
(0.582238 0 -0.00290678)
(0.58224 0 -0.00290623)
(0.582248 0 -0.00290663)
(0.582258 0 -0.00290687)
(0.582267 0 -0.00290586)
(0.582275 0 -0.00290611)
(0.582282 0 -0.00290607)
(0.582296 0 -0.00290536)
(0.582305 -1.1955e-34 -0.00290555)
(0.58232 0 -0.0029055)
(0.582326 0 -0.00290683)
(0.582335 0 -0.00290555)
(0.582348 0 -0.00290708)
(0.582345 -8.63392e-29 -0.00290401)
(0.582393 0 -0.0029055)
(0.582343 9.23882e-30 -0.00291107)
(0.582394 9.81213e-29 -0.00289569)
(0.582433 0 -0.00291489)
(0.582311 0 -0.00290439)
(0.582517 0 -0.00288779)
(0.582449 0 -0.00293088)
(0.582307 -2.79868e-28 -0.00290017)
(0.582574 3.74899e-29 -0.00288595)
(0.582474 0 -0.00293477)
(0.582299 0 -0.00289516)
(0.582685 4.03762e-29 -0.00287593)
(0.582514 0 -0.00295698)
(0.582216 0 -0.00289404)
(0.582772 -2.51895e-31 -0.00285387)
(0.582631 0 -0.00296409)
(0.582172 0 -0.00291384)
(0.582781 1.98388e-28 -0.00283654)
(0.582754 1.1171e-27 -0.0029527)
(0.582232 3.1693e-28 -0.00293216)
(0.582734 -1.0006e-27 -0.00284398)
(0.582764 0 -0.00293451)
(0.582384 2.06736e-28 -0.00292036)
(0.582769 -1.97224e-31 -0.00287248)
(0.582703 0 -0.00293752)
(0.582445 3.62205e-28 -0.00290646)
(0.582828 -4.77213e-28 -0.00285617)
(0.582881 0 -0.0029269)
(0.582496 -1.6159e-29 -0.00293872)
(0.582732 0 -0.00286167)
(0.582951 -2.86025e-32 -0.00290011)
(0.582679 0 -0.00292723)
(0.582771 0 -0.00286983)
(0.583059 0 -0.00288258)
(0.582879 0 -0.0029453)
(0.582706 0 -0.002908)
(0.58301 0 -0.0028707)
(0.583061 0 -0.00292377)
(0.58277 -8.70819e-29 -0.00294106)
(0.582848 3.07188e-28 -0.00288165)
(0.583089 0 -0.00288438)
(0.583004 0 -0.00293239)
(0.582861 0 -0.00292333)
(0.582978 0 -0.00288918)
(0.583065 -1.083e-29 -0.00289534)
(0.583047 0 -0.00291888)
(0.582966 0 -0.00291946)
(0.583035 0 -0.0029006)
(0.583056 0 -0.00291542)
(0.583004 0 -0.00290377)
(0.583148 -6.94499e-29 -0.00290893)
(0.582998 -2.79007e-28 -0.00293766)
(0.582986 -3.53561e-28 -0.00289864)
(0.583165 1.8558e-28 -0.00290986)
(0.582971 3.26247e-29 -0.00293416)
(0.582992 -1.05963e-31 -0.00288635)
(0.583258 0 -0.00290223)
(0.582975 -1.20467e-28 -0.00294334)
(0.583008 -9.35581e-28 -0.00286768)
(0.58341 0 -0.00289266)
(0.583045 0 -0.00296232)
(0.58298 0 -0.00287426)
(0.583475 0 -0.00287441)
(0.583167 0 -0.00296799)
(0.582948 6.45406e-28 -0.00289292)
(0.583461 1.17057e-28 -0.00286634)
(0.583295 0 -0.00294767)
(0.583073 0 -0.00290809)
(0.583423 6.65603e-29 -0.0028876)
(0.58326 0 -0.00293973)
(0.583178 0 -0.00288427)
(0.583547 -7.43762e-29 -0.00289029)
(0.583277 5.55794e-28 -0.00296304)
(0.583106 0 -0.00289667)
(0.583551 0 -0.00287739)
(0.583366 4.66412e-28 -0.00295057)
(0.583199 0 -0.00290301)
(0.583545 0 -0.00289422)
(0.58332 -1.01845e-27 -0.00296099)
(0.583147 1.05189e-27 -0.00290095)
(0.583563 8.08651e-29 -0.0028827)
(0.583376 -9.0848e-28 -0.00294997)
(0.583208 0 -0.00289562)
(0.583615 1.26155e-28 -0.00288027)
(0.583436 0 -0.0029501)
(0.583257 -4.55447e-28 -0.00289746)
(0.583664 -6.46638e-29 -0.00288085)
(0.583489 0 -0.00295089)
(0.583302 9.00546e-28 -0.0028991)
(0.583709 -7.00989e-29 -0.00288121)
(0.583538 4.66512e-28 -0.00295148)
(0.583345 0 -0.00290042)
(0.583754 7.47037e-29 -0.00288131)
(0.583587 -4.69009e-28 -0.0029522)
(0.583385 0 -0.00290196)
(0.583796 -1.63556e-28 -0.00288122)
(0.583635 4.68088e-28 -0.00295252)
(0.583426 0 -0.00290353)
(0.583836 1.56209e-31 -0.00288151)
(0.583681 -2.03323e-31 -0.00295293)
(0.583465 4.98219e-32 -0.00290482)
(0.583875 8.94304e-29 -0.00288169)
(0.583724 9.38796e-28 -0.00295352)
(0.583501 0 -0.00290624)
(0.58391 0 -0.00288175)
(0.583766 -4.69233e-28 -0.00295394)
(0.583534 -4.22959e-28 -0.00290778)
(0.583945 0 -0.00288177)
(0.583803 0 -0.00295469)
(0.583567 0 -0.00290856)
(0.583977 -9.85466e-29 -0.00288278)
(0.583831 4.677e-28 -0.00295397)
(0.58361 -4.20335e-28 -0.002911)
(0.583979 0 -0.00288196)
(0.583902 -4.53746e-28 -0.00295337)
(0.583582 0 -0.00291659)
(0.584054 -1.29917e-28 -0.00287477)
(0.583894 0 -0.00296369)
(0.583664 4.63703e-28 -0.00290334)
(0.584065 0 -0.0028933)
(0.583833 2.39747e-28 -0.00294566)
(0.583822 -6.41146e-29 -0.00292215)
(0.583827 4.48634e-28 -0.00288169)
(0.584288 -2.73475e-32 -0.00292588)
(0.583397 3.22063e-29 -0.0029721)
(0.584185 -5.46287e-28 -0.00283829)
(0.583838 0 -0.00298348)
(0.583934 -1.02024e-27 -0.00284757)
(0.58406 1.62703e-27 -0.00299948)
(0.583604 -1.24064e-27 -0.00286508)
(0.584301 0 -0.00292678)
(0.583619 0 -0.00291986)
(0.584412 -3.42598e-29 -0.00290785)
(0.583322 -3.00548e-29 -0.00297777)
(0.584362 5.2834e-28 -0.00282347)
(0.583736 0 -0.00298181)
(0.584311 -4.21304e-28 -0.00286)
(0.583607 0 -0.00302766)
(0.584063 1.00174e-27 -0.00280875)
(0.583908 6.98234e-28 -0.00298729)
(0.584141 0 -0.00284216)
(0.583835 0 -0.00301631)
(0.584036 1.36925e-27 -0.00283483)
(0.583898 0 -0.00302086)
(0.583835 1.79887e-27 -0.00285446)
(0.583888 0 -0.00299316)
(0.58385 -9.43848e-28 -0.00286861)
(0.58379 -5.12401e-28 -0.00296455)
(0.584082 0 -0.00288733)
(0.583299 9.03337e-28 -0.00291921)
(0.584092 -6.89041e-27 -0.00308602)
(0.585502 -2.79675e-29 0.00291937)
(0.648865 1.38244e-24 0.018795)
(0.726761 -3.02868e-25 0.0157132)
(0.701722 0 -0.00256786)
(0.672642 2.06289e-26 -0.00360795)
(0.678044 0 -0.00341011)
)
;

boundaryField
{
    inlet
    {
        type            calculated;
        value           uniform (0 0 0);
    }
    outlet
    {
        type            calculated;
        value           uniform (0 0 0);
    }
    sideWall
    {
        type            empty;
    }
}


// ************************************************************************* //
