/*--------------------------------*- C++ -*----------------------------------*\
| =========                 |                                                 |
| \\      /  F ield         | foam-extend: Open Source CFD                    |
|  \\    /   O peration     | Version:     3.2                                |
|   \\  /    A nd           | Web:         http://www.foam-extend.org         |
|    \\/     M anipulation  | For copyright notice see file Copyright         |
\*---------------------------------------------------------------------------*/
FoamFile
{
    version     2.0;
    format      ascii;
    class       volScalarField;
    location    "50";
    object      C1;
}
// * * * * * * * * * * * * * * * * * * * * * * * * * * * * * * * * * * * * * //

dimensions      [1 -3 0 0 0 0 0];

internalField   nonuniform List<scalar> 
5400
(
0.2277
0.2277
0.2277
0.2277
0.2277
0.2277
0.2277
0.2277
0.2277
0.2277
0.2277
0.2277
0.2277
0.2277
0.2277
0.2277
0.2277
0.2277
0.2277
0.2277
0.2277
0.2277
0.2277
0.2277
0.2277
0.2277
0.2277
0.2277
0.2277
0.2277
0.2277
0.2277
0.2277
0.2277
0.2277
0.2277
0.2277
0.2277
0.2277
0.2277
0.2277
0.2277
0.2277
0.2277
0.2277
0.2277
0.2277
0.2277
0.2277
0.2277
0.2277
0.2277
0.2277
0.2277
0.2277
0.2277
0.2277
0.2277
0.2277
0.2277
0.228176
0.228378
0.228463
0.228563
0.228664
0.228782
0.228897
0.22901
0.229118
0.229152
0.229395
0.229484
0.229278
0.229342
0.229633
0.2296
0.229587
0.229748
0.229674
0.229585
0.22972
0.229722
0.229691
0.229797
0.229773
0.229729
0.229814
0.229789
0.22976
0.229844
0.229819
0.229796
0.22988
0.229855
0.229841
0.229916
0.229899
0.229888
0.229952
0.229956
0.229931
0.229986
0.230011
0.229983
0.230018
0.230065
0.230048
0.23005
0.230107
0.230125
0.230105
0.230126
0.230183
0.230192
0.230178
0.2302
0.230252
0.23027
0.230269
0.230281
0.230312
0.230343
0.230368
0.230388
0.230409
0.230427
0.230449
0.230469
0.230493
0.230515
0.23054
0.230562
0.230588
0.230613
0.23064
0.230664
0.230694
0.23072
0.230749
0.230775
0.230806
0.230832
0.230865
0.230894
0.23092
0.230962
0.230983
0.231014
0.231072
0.23107
0.231114
0.231177
0.231169
0.231221
0.231297
0.231262
0.231321
0.23143
0.231377
0.231414
0.231557
0.231512
0.231524
0.231664
0.231649
0.231669
0.231771
0.231763
0.231807
0.231921
0.231915
0.231922
0.232038
0.232078
0.232083
0.232182
0.232243
0.232232
0.23229
0.232394
0.23241
0.232425
0.232523
0.2326
0.232611
0.232659
0.232747
0.232813
0.23285
0.232902
0.232977
0.233031
0.233098
0.233166
0.233197
0.233286
0.233357
0.23339
0.233495
0.23357
0.233589
0.233717
0.233801
0.233793
0.233923
0.234036
0.234018
0.234128
0.234264
0.234271
0.234359
0.234477
0.23451
0.234627
0.234733
0.234741
0.234859
0.234994
0.235015
0.235123
0.235242
0.235265
0.235385
0.235521
0.235552
0.235672
0.235808
0.235839
0.235958
0.236096
0.236129
0.23625
0.23639
0.236425
0.236545
0.236688
0.236723
0.236843
0.236987
0.237022
0.23714
0.237285
0.237319
0.237434
0.237578
0.23761
0.237721
0.237863
0.237892
0.237998
0.238137
0.238161
0.238261
0.238394
0.238414
0.238505
0.238633
0.238648
0.238724
0.238857
0.238851
0.23894
0.239035
0.239048
0.239102
0.239212
0.239232
0.239216
0.239373
0.239333
0.23944
0.239399
0.239486
0.239517
0.239545
0.239556
0.239556
0.239646
0.239654
0.239642
0.23965
0.239682
0.239745
0.239693
0.239743
0.239704
0.239791
0.239718
0.239807
0.239748
0.239777
0.239833
0.23969
0.239959
0.239534
0.239038
0.238385
0.238351
0.238318
0.238292
0.2277
0.2277
0.2277
0.2277
0.2277
0.2277
0.2277
0.2277
0.2277
0.2277
0.2277
0.2277
0.2277
0.2277
0.2277
0.2277
0.2277
0.2277
0.2277
0.2277
0.2277
0.2277
0.2277
0.2277
0.2277
0.2277
0.2277
0.2277
0.2277
0.2277
0.2277
0.2277
0.2277
0.2277
0.2277
0.2277
0.2277
0.2277
0.2277
0.2277
0.2277
0.2277
0.2277
0.2277
0.2277
0.2277
0.2277
0.2277
0.2277
0.2277
0.2277
0.2277
0.2277
0.2277
0.2277
0.2277
0.2277
0.2277
0.2277
0.2277
0.227675
0.22766
0.227649
0.227651
0.227671
0.227705
0.227753
0.227805
0.227863
0.2279
0.227998
0.228067
0.228036
0.228052
0.228157
0.228191
0.228207
0.228271
0.228276
0.228256
0.228297
0.228317
0.228319
0.228358
0.228369
0.228363
0.228392
0.228398
0.228395
0.228424
0.22843
0.228429
0.228458
0.228465
0.228466
0.228494
0.228503
0.228507
0.228532
0.228546
0.228548
0.22857
0.22859
0.228593
0.228609
0.228634
0.228643
0.228651
0.228677
0.228696
0.228702
0.228716
0.228744
0.228762
0.228769
0.228784
0.228812
0.228832
0.228846
0.22886
0.228881
0.228904
0.228926
0.228947
0.228967
0.228987
0.229008
0.229028
0.22905
0.229071
0.229094
0.229116
0.22914
0.229164
0.229188
0.229213
0.229239
0.229264
0.229291
0.229317
0.229345
0.229372
0.2294
0.229429
0.229456
0.229489
0.229517
0.229546
0.229585
0.229608
0.22964
0.229682
0.229705
0.229741
0.229788
0.229805
0.229841
0.2299
0.229916
0.229946
0.230013
0.230036
0.23006
0.230126
0.230157
0.230188
0.230244
0.230276
0.230315
0.230379
0.230413
0.230443
0.230505
0.230554
0.230589
0.230648
0.230704
0.230737
0.230783
0.230848
0.230893
0.230931
0.230993
0.231056
0.2311
0.231149
0.231213
0.231275
0.231327
0.231382
0.231445
0.231504
0.231566
0.23163
0.231684
0.231752
0.23182
0.231876
0.231951
0.232024
0.232079
0.232162
0.232242
0.232292
0.232375
0.232465
0.232516
0.232595
0.232691
0.232754
0.23283
0.232922
0.232992
0.233081
0.233175
0.233239
0.233328
0.233431
0.233505
0.233595
0.233695
0.233768
0.233864
0.233972
0.234052
0.234151
0.234261
0.234344
0.234444
0.234557
0.234642
0.234744
0.234859
0.234946
0.23505
0.235166
0.235254
0.235359
0.235476
0.235565
0.235669
0.235786
0.235874
0.235977
0.236093
0.236179
0.236279
0.236392
0.236475
0.236571
0.236681
0.236759
0.23685
0.236954
0.237027
0.237111
0.237209
0.237275
0.23735
0.237443
0.237499
0.23757
0.237648
0.237702
0.237758
0.237832
0.237883
0.237914
0.23799
0.238021
0.238079
0.238102
0.238148
0.238188
0.238221
0.238245
0.238265
0.238306
0.238334
0.238343
0.238359
0.238376
0.238412
0.238408
0.238431
0.238425
0.23846
0.238446
0.238477
0.238466
0.238477
0.238498
0.238461
0.238536
0.238429
0.238391
0.23837
0.238338
0.238309
0.238285
0.2277
0.2277
0.2277
0.2277
0.2277
0.2277
0.2277
0.2277
0.2277
0.2277
0.2277
0.2277
0.2277
0.2277
0.2277
0.2277
0.2277
0.2277
0.2277
0.2277
0.2277
0.2277
0.2277
0.2277
0.2277
0.2277
0.2277
0.2277
0.2277
0.2277
0.2277
0.2277
0.2277
0.2277
0.2277
0.2277
0.2277
0.2277
0.2277
0.2277
0.2277
0.2277
0.2277
0.2277
0.2277
0.2277
0.2277
0.2277
0.2277
0.2277
0.2277
0.2277
0.2277
0.2277
0.2277
0.2277
0.2277
0.2277
0.2277
0.2277
0.227696
0.227692
0.227688
0.22769
0.227701
0.227721
0.227751
0.227787
0.227827
0.227858
0.227918
0.227971
0.227975
0.227989
0.228047
0.228083
0.228105
0.228146
0.228163
0.228162
0.228186
0.228204
0.228214
0.228238
0.228253
0.228257
0.228275
0.228286
0.22829
0.228308
0.228318
0.228323
0.228341
0.228352
0.228358
0.228376
0.228388
0.228396
0.228413
0.228428
0.228435
0.228451
0.228468
0.228477
0.228491
0.22851
0.228522
0.228533
0.228552
0.22857
0.228581
0.228595
0.228616
0.228634
0.228646
0.228661
0.228682
0.228702
0.228718
0.228733
0.228752
0.228772
0.228793
0.228813
0.228833
0.228853
0.228873
0.228894
0.228915
0.228936
0.228958
0.22898
0.229003
0.229026
0.229049
0.229073
0.229098
0.229123
0.229149
0.229175
0.229201
0.229228
0.229255
0.229283
0.229311
0.229341
0.229369
0.229399
0.229432
0.22946
0.229491
0.229527
0.229556
0.229589
0.229628
0.229656
0.229689
0.229735
0.229763
0.229794
0.229844
0.229877
0.229908
0.229957
0.229995
0.23003
0.230077
0.230114
0.230154
0.230205
0.230247
0.230283
0.230334
0.230382
0.230423
0.230475
0.230527
0.230569
0.230615
0.230671
0.23072
0.230764
0.230819
0.230877
0.230927
0.230978
0.231036
0.231096
0.231151
0.231207
0.231267
0.231326
0.231387
0.23145
0.231508
0.231573
0.231639
0.2317
0.23177
0.231841
0.231903
0.231978
0.232054
0.232116
0.232192
0.232274
0.232339
0.232414
0.2325
0.232573
0.23265
0.232734
0.232812
0.232897
0.232985
0.233062
0.233148
0.233242
0.233325
0.233414
0.233509
0.233594
0.233686
0.233787
0.233877
0.233974
0.234078
0.234171
0.23427
0.234376
0.234472
0.234573
0.234682
0.234779
0.234882
0.234993
0.235092
0.235196
0.235308
0.235408
0.235512
0.235624
0.235723
0.235827
0.235937
0.236035
0.236136
0.236244
0.236339
0.236437
0.236541
0.236632
0.236724
0.236823
0.236908
0.236995
0.237087
0.237166
0.237244
0.23733
0.2374
0.237472
0.237547
0.23761
0.237671
0.237738
0.237796
0.237841
0.237903
0.237947
0.237999
0.238035
0.238077
0.238117
0.238153
0.238182
0.238207
0.238241
0.23827
0.238288
0.238306
0.238323
0.23835
0.238358
0.238376
0.23838
0.238401
0.238402
0.238419
0.23842
0.238427
0.238441
0.238427
0.238462
0.238415
0.238373
0.238342
0.238318
0.238295
0.238274
0.2277
0.2277
0.2277
0.2277
0.2277
0.2277
0.2277
0.2277
0.2277
0.2277
0.2277
0.2277
0.2277
0.2277
0.2277
0.2277
0.2277
0.2277
0.2277
0.2277
0.2277
0.2277
0.2277
0.2277
0.2277
0.2277
0.2277
0.2277
0.2277
0.2277
0.2277
0.2277
0.2277
0.2277
0.2277
0.2277
0.2277
0.2277
0.2277
0.2277
0.2277
0.2277
0.2277
0.2277
0.2277
0.2277
0.2277
0.2277
0.2277
0.2277
0.2277
0.2277
0.2277
0.2277
0.2277
0.2277
0.2277
0.2277
0.2277
0.2277
0.227697
0.227695
0.227693
0.227693
0.227699
0.227712
0.227732
0.227756
0.227785
0.22781
0.22785
0.22789
0.227906
0.22792
0.227957
0.227988
0.22801
0.22804
0.22806
0.228068
0.228085
0.228102
0.228113
0.228132
0.228146
0.228155
0.228169
0.228181
0.228188
0.228202
0.228213
0.228221
0.228235
0.228246
0.228255
0.228269
0.228281
0.228291
0.228305
0.228319
0.228329
0.228342
0.228357
0.228369
0.228382
0.228398
0.228411
0.228424
0.22844
0.228456
0.228469
0.228483
0.228501
0.228518
0.228532
0.228547
0.228565
0.228584
0.228601
0.228617
0.228635
0.228654
0.228674
0.228693
0.228713
0.228732
0.228752
0.228772
0.228793
0.228814
0.228835
0.228857
0.228879
0.228902
0.228925
0.228948
0.228973
0.228997
0.229022
0.229047
0.229073
0.2291
0.229127
0.229154
0.229181
0.22921
0.229239
0.229267
0.229299
0.229328
0.229358
0.229392
0.229422
0.229454
0.22949
0.229521
0.229554
0.229593
0.229626
0.229659
0.229701
0.229737
0.229771
0.229813
0.229852
0.229889
0.229932
0.229972
0.230012
0.230058
0.230101
0.23014
0.230187
0.230234
0.230277
0.230325
0.230375
0.230421
0.230467
0.230519
0.230569
0.230616
0.230668
0.230723
0.230776
0.230827
0.230883
0.230941
0.230997
0.231054
0.231112
0.231172
0.231232
0.231294
0.231354
0.231417
0.231482
0.231545
0.231613
0.231682
0.231747
0.231818
0.231892
0.23196
0.232032
0.23211
0.232181
0.232255
0.232336
0.232413
0.23249
0.232572
0.232652
0.232735
0.232821
0.232903
0.232988
0.233079
0.233165
0.233254
0.233347
0.233436
0.233528
0.233625
0.233719
0.233815
0.233916
0.234013
0.234112
0.234216
0.234315
0.234417
0.234524
0.234625
0.234729
0.234838
0.234941
0.235046
0.235156
0.23526
0.235366
0.235476
0.23558
0.235685
0.235794
0.235897
0.236
0.236106
0.236206
0.236306
0.236409
0.236505
0.2366
0.236697
0.236788
0.236877
0.236968
0.237052
0.237134
0.237218
0.237294
0.237368
0.237442
0.23751
0.237575
0.237641
0.237702
0.237754
0.237812
0.237861
0.237912
0.237954
0.237996
0.238037
0.238074
0.238107
0.238135
0.238167
0.238195
0.238218
0.238238
0.238257
0.238279
0.238293
0.238309
0.238318
0.238334
0.23834
0.238353
0.238358
0.238365
0.238375
0.238371
0.23839
0.238368
0.238336
0.238313
0.238296
0.238278
0.238262
0.2277
0.2277
0.2277
0.2277
0.2277
0.2277
0.2277
0.2277
0.2277
0.2277
0.2277
0.2277
0.2277
0.2277
0.2277
0.2277
0.2277
0.2277
0.2277
0.2277
0.2277
0.2277
0.2277
0.2277
0.2277
0.2277
0.2277
0.2277
0.2277
0.2277
0.2277
0.2277
0.2277
0.2277
0.2277
0.2277
0.2277
0.2277
0.2277
0.2277
0.2277
0.2277
0.2277
0.2277
0.2277
0.2277
0.2277
0.2277
0.2277
0.2277
0.2277
0.2277
0.2277
0.2277
0.2277
0.2277
0.2277
0.2277
0.2277
0.227699
0.227697
0.227695
0.227694
0.227694
0.227697
0.227705
0.227718
0.227735
0.227755
0.227775
0.227803
0.227834
0.227852
0.227867
0.227892
0.227917
0.227938
0.227961
0.227981
0.227992
0.228007
0.228022
0.228034
0.228049
0.228063
0.228073
0.228086
0.228097
0.228106
0.228118
0.228129
0.228138
0.22815
0.228162
0.228171
0.228184
0.228196
0.228206
0.228219
0.228232
0.228243
0.228255
0.228269
0.228282
0.228294
0.228309
0.228322
0.228335
0.22835
0.228365
0.228379
0.228393
0.228409
0.228426
0.228441
0.228456
0.228473
0.22849
0.228507
0.228524
0.228541
0.228559
0.228578
0.228597
0.228616
0.228636
0.228655
0.228675
0.228695
0.228716
0.228737
0.228758
0.22878
0.228803
0.228825
0.228848
0.228872
0.228896
0.228921
0.228946
0.228971
0.228997
0.229024
0.22905
0.229078
0.229106
0.229134
0.229162
0.229192
0.229222
0.229252
0.229284
0.229315
0.229346
0.22938
0.229413
0.229445
0.229482
0.229516
0.229549
0.229588
0.229625
0.22966
0.229699
0.229738
0.229776
0.229817
0.229857
0.229897
0.229941
0.229984
0.230025
0.230069
0.230115
0.230159
0.230206
0.230254
0.230301
0.230348
0.230397
0.230447
0.230496
0.230547
0.2306
0.230653
0.230706
0.23076
0.230817
0.230873
0.23093
0.230988
0.231047
0.231107
0.231168
0.231229
0.231292
0.231356
0.23142
0.231486
0.231554
0.23162
0.23169
0.231762
0.231832
0.231903
0.231979
0.232052
0.232126
0.232205
0.232282
0.23236
0.232441
0.232521
0.232604
0.232689
0.232772
0.232857
0.232946
0.233034
0.233123
0.233215
0.233305
0.233398
0.233493
0.233588
0.233685
0.233784
0.233883
0.233982
0.234085
0.234186
0.234289
0.234394
0.234498
0.234602
0.23471
0.234815
0.234922
0.23503
0.235137
0.235244
0.235353
0.23546
0.235566
0.235675
0.23578
0.235885
0.235991
0.236094
0.236196
0.236299
0.236398
0.236495
0.236593
0.236686
0.236778
0.236869
0.236956
0.23704
0.237124
0.237204
0.23728
0.237355
0.237426
0.237493
0.237559
0.237622
0.237679
0.237736
0.237788
0.237839
0.237885
0.237929
0.23797
0.238008
0.238043
0.238074
0.238105
0.238134
0.238159
0.238181
0.238201
0.238222
0.238238
0.238254
0.238265
0.238279
0.238288
0.238299
0.238307
0.238313
0.238322
0.238323
0.238334
0.238324
0.238301
0.238284
0.238273
0.23826
0.238247
0.2277
0.2277
0.2277
0.2277
0.2277
0.2277
0.2277
0.2277
0.2277
0.2277
0.2277
0.2277
0.2277
0.2277
0.2277
0.2277
0.2277
0.2277
0.2277
0.2277
0.2277
0.2277
0.2277
0.2277
0.2277
0.2277
0.2277
0.2277
0.2277
0.2277
0.2277
0.2277
0.2277
0.2277
0.2277
0.2277
0.2277
0.2277
0.2277
0.2277
0.2277
0.2277
0.2277
0.2277
0.2277
0.2277
0.2277
0.2277
0.2277
0.2277
0.2277
0.2277
0.2277
0.2277
0.2277
0.2277
0.2277
0.2277
0.2277
0.227699
0.227696
0.227694
0.227692
0.227692
0.227694
0.227698
0.227707
0.227718
0.227733
0.227748
0.227767
0.227791
0.227809
0.227823
0.227841
0.227861
0.227879
0.227898
0.227916
0.227929
0.227942
0.227955
0.227967
0.22798
0.227993
0.228004
0.228015
0.228027
0.228037
0.228047
0.228058
0.228068
0.228079
0.22809
0.228101
0.228112
0.228123
0.228134
0.228146
0.228158
0.22817
0.228182
0.228195
0.228208
0.22822
0.228233
0.228247
0.22826
0.228274
0.228289
0.228303
0.228317
0.228332
0.228348
0.228363
0.228378
0.228394
0.228411
0.228428
0.228445
0.228462
0.228479
0.228498
0.228516
0.228535
0.228554
0.228573
0.228593
0.228613
0.228633
0.228654
0.228675
0.228697
0.228719
0.228741
0.228764
0.228787
0.228811
0.228835
0.22886
0.228885
0.22891
0.228936
0.228963
0.22899
0.229017
0.229045
0.229073
0.229103
0.229132
0.229162
0.229193
0.229224
0.229255
0.229288
0.22932
0.229353
0.229388
0.229422
0.229456
0.229493
0.22953
0.229565
0.229603
0.229642
0.22968
0.22972
0.22976
0.2298
0.229842
0.229885
0.229926
0.22997
0.230014
0.230059
0.230105
0.230152
0.230199
0.230246
0.230295
0.230344
0.230394
0.230444
0.230496
0.230549
0.230602
0.230656
0.230712
0.230768
0.230824
0.230882
0.230941
0.231
0.231061
0.231122
0.231185
0.231248
0.231312
0.231378
0.231445
0.231512
0.231581
0.231652
0.231722
0.231793
0.231867
0.231941
0.232016
0.232093
0.23217
0.232249
0.232329
0.232409
0.232491
0.232576
0.23266
0.232745
0.232833
0.232921
0.23301
0.233102
0.233193
0.233286
0.23338
0.233476
0.233573
0.233671
0.233771
0.23387
0.233972
0.234075
0.234177
0.234282
0.234387
0.234492
0.234599
0.234706
0.234813
0.234922
0.23503
0.235138
0.235247
0.235355
0.235463
0.235571
0.235679
0.235785
0.235891
0.235996
0.2361
0.236203
0.236304
0.236403
0.236501
0.236597
0.23669
0.236782
0.236872
0.236958
0.237043
0.237124
0.237203
0.237279
0.237352
0.237421
0.237488
0.237553
0.237612
0.23767
0.237724
0.237776
0.237824
0.237869
0.237911
0.237951
0.237987
0.23802
0.238051
0.238081
0.238107
0.238131
0.238151
0.238172
0.238189
0.238206
0.238219
0.238232
0.238243
0.238253
0.238261
0.238269
0.238276
0.238279
0.238288
0.238283
0.238266
0.238256
0.238251
0.238242
0.238232
0.2277
0.2277
0.2277
0.2277
0.2277
0.2277
0.2277
0.2277
0.2277
0.2277
0.2277
0.2277
0.2277
0.2277
0.2277
0.2277
0.2277
0.2277
0.2277
0.2277
0.2277
0.2277
0.2277
0.2277
0.2277
0.2277
0.2277
0.2277
0.2277
0.2277
0.2277
0.2277
0.2277
0.2277
0.2277
0.2277
0.2277
0.2277
0.2277
0.2277
0.2277
0.2277
0.2277
0.2277
0.2277
0.2277
0.2277
0.2277
0.2277
0.2277
0.2277
0.2277
0.2277
0.2277
0.2277
0.2277
0.2277
0.2277
0.2277
0.227698
0.227695
0.227693
0.227692
0.227691
0.227692
0.227695
0.2277
0.227708
0.227718
0.227729
0.227742
0.227759
0.227776
0.227788
0.227802
0.227818
0.227833
0.227848
0.227864
0.227877
0.227889
0.227901
0.227912
0.227924
0.227936
0.227947
0.227957
0.227968
0.227978
0.227988
0.227999
0.228009
0.22802
0.228031
0.228041
0.228052
0.228063
0.228074
0.228085
0.228097
0.228109
0.22812
0.228133
0.228145
0.228158
0.22817
0.228184
0.228197
0.22821
0.228224
0.228239
0.228253
0.228267
0.228283
0.228298
0.228313
0.228329
0.228345
0.228362
0.228378
0.228395
0.228412
0.22843
0.228448
0.228467
0.228485
0.228504
0.228524
0.228544
0.228564
0.228584
0.228605
0.228626
0.228648
0.22867
0.228693
0.228716
0.228739
0.228763
0.228787
0.228812
0.228837
0.228863
0.228889
0.228916
0.228943
0.22897
0.228998
0.229027
0.229056
0.229086
0.229116
0.229147
0.229178
0.22921
0.229243
0.229275
0.229309
0.229343
0.229377
0.229412
0.229449
0.229485
0.229522
0.22956
0.229598
0.229638
0.229677
0.229717
0.229758
0.229801
0.229843
0.229885
0.229929
0.229974
0.230019
0.230065
0.230113
0.23016
0.230208
0.230257
0.230307
0.230357
0.230408
0.230461
0.230514
0.230567
0.230622
0.230678
0.230735
0.230792
0.23085
0.23091
0.23097
0.231031
0.231093
0.231157
0.231221
0.231286
0.231352
0.23142
0.231488
0.231558
0.231628
0.231699
0.231773
0.231847
0.231921
0.231997
0.232075
0.232153
0.232233
0.232314
0.232395
0.232479
0.232564
0.232649
0.232736
0.232824
0.232914
0.233005
0.233097
0.233189
0.233284
0.23338
0.233476
0.233574
0.233674
0.233774
0.233876
0.233978
0.234081
0.234186
0.234292
0.234397
0.234504
0.234612
0.23472
0.234828
0.234937
0.235046
0.235155
0.235265
0.235373
0.235482
0.235591
0.235698
0.235805
0.235911
0.236016
0.23612
0.236222
0.236323
0.236422
0.23652
0.236614
0.236708
0.236799
0.236886
0.236972
0.237056
0.237136
0.237213
0.237288
0.237359
0.237427
0.237493
0.237554
0.237613
0.237669
0.237722
0.237771
0.237818
0.237861
0.237902
0.23794
0.237974
0.238006
0.238036
0.238063
0.238088
0.23811
0.23813
0.238149
0.238166
0.23818
0.238193
0.238204
0.238215
0.238224
0.238231
0.238239
0.238243
0.23825
0.238248
0.238237
0.238231
0.23823
0.238224
0.238217
0.2277
0.2277
0.2277
0.2277
0.2277
0.2277
0.2277
0.2277
0.2277
0.2277
0.2277
0.2277
0.2277
0.2277
0.2277
0.2277
0.2277
0.2277
0.2277
0.2277
0.2277
0.2277
0.2277
0.2277
0.2277
0.2277
0.2277
0.2277
0.2277
0.2277
0.2277
0.2277
0.2277
0.2277
0.2277
0.2277
0.2277
0.2277
0.2277
0.2277
0.2277
0.2277
0.2277
0.2277
0.2277
0.2277
0.2277
0.2277
0.2277
0.2277
0.2277
0.2277
0.2277
0.2277
0.2277
0.2277
0.2277
0.2277
0.2277
0.227697
0.227693
0.227691
0.22769
0.22769
0.22769
0.227691
0.227694
0.227698
0.227705
0.227712
0.227721
0.227734
0.227748
0.227759
0.227768
0.227781
0.227793
0.227805
0.227819
0.227832
0.227842
0.227853
0.227864
0.227874
0.227885
0.227896
0.227906
0.227916
0.227926
0.227936
0.227947
0.227957
0.227967
0.227977
0.227988
0.227998
0.228009
0.22802
0.228031
0.228042
0.228054
0.228065
0.228077
0.22809
0.228102
0.228114
0.228128
0.228141
0.228154
0.228167
0.228182
0.228196
0.22821
0.228224
0.22824
0.228255
0.22827
0.228286
0.228302
0.228319
0.228335
0.228352
0.22837
0.228387
0.228406
0.228424
0.228443
0.228462
0.228482
0.228502
0.228522
0.228543
0.228564
0.228585
0.228607
0.228629
0.228652
0.228675
0.228699
0.228723
0.228747
0.228772
0.228797
0.228823
0.22885
0.228876
0.228904
0.228931
0.22896
0.228989
0.229018
0.229048
0.229078
0.229109
0.229141
0.229173
0.229205
0.229238
0.229273
0.229307
0.229341
0.229378
0.229414
0.22945
0.229488
0.229526
0.229564
0.229604
0.229644
0.229684
0.229726
0.229768
0.22981
0.229854
0.229898
0.229943
0.229989
0.230036
0.230083
0.23013
0.230179
0.230229
0.230279
0.23033
0.230382
0.230435
0.230488
0.230543
0.230598
0.230655
0.230712
0.23077
0.230829
0.230889
0.23095
0.231012
0.231075
0.231139
0.231204
0.23127
0.231337
0.231405
0.231474
0.231545
0.231616
0.231688
0.231762
0.231837
0.231912
0.23199
0.232068
0.232147
0.232228
0.232309
0.232393
0.232478
0.232563
0.232649
0.232738
0.232827
0.232918
0.23301
0.233103
0.233197
0.233293
0.23339
0.233488
0.233587
0.233687
0.233789
0.233892
0.233995
0.2341
0.234206
0.234312
0.234419
0.234527
0.234635
0.234744
0.234854
0.234963
0.235073
0.235183
0.235292
0.235402
0.235511
0.235619
0.235727
0.235835
0.23594
0.236045
0.236149
0.23625
0.236351
0.236449
0.236546
0.23664
0.236732
0.236821
0.236908
0.236993
0.237075
0.237153
0.237229
0.237302
0.237371
0.237438
0.237502
0.237562
0.237619
0.237673
0.237724
0.237771
0.237816
0.237857
0.237896
0.237932
0.237965
0.237995
0.238024
0.238049
0.238072
0.238093
0.238112
0.238129
0.238144
0.238158
0.238169
0.23818
0.238189
0.238197
0.238205
0.23821
0.238216
0.238216
0.238209
0.238208
0.23821
0.238207
0.238203
0.2277
0.2277
0.2277
0.2277
0.2277
0.2277
0.2277
0.2277
0.2277
0.2277
0.2277
0.2277
0.2277
0.2277
0.2277
0.2277
0.2277
0.2277
0.2277
0.2277
0.2277
0.2277
0.2277
0.2277
0.2277
0.2277
0.2277
0.2277
0.2277
0.2277
0.2277
0.2277
0.2277
0.2277
0.2277
0.2277
0.2277
0.2277
0.2277
0.2277
0.2277
0.2277
0.2277
0.2277
0.2277
0.2277
0.2277
0.2277
0.2277
0.2277
0.2277
0.2277
0.2277
0.2277
0.2277
0.2277
0.2277
0.2277
0.2277
0.227696
0.227691
0.227687
0.227686
0.227685
0.227685
0.227685
0.227686
0.227688
0.227692
0.227696
0.227701
0.22771
0.227722
0.227731
0.227738
0.227747
0.227756
0.227766
0.227778
0.227789
0.227799
0.227809
0.227818
0.227828
0.227838
0.227848
0.227858
0.227868
0.227878
0.227887
0.227897
0.227907
0.227917
0.227928
0.227938
0.227948
0.227959
0.227969
0.22798
0.227991
0.228003
0.228014
0.228026
0.228038
0.22805
0.228062
0.228075
0.228088
0.2281
0.228114
0.228128
0.228142
0.228156
0.22817
0.228185
0.2282
0.228215
0.228231
0.228247
0.228263
0.22828
0.228296
0.228313
0.228331
0.228349
0.228367
0.228386
0.228405
0.228424
0.228444
0.228464
0.228484
0.228505
0.228526
0.228548
0.22857
0.228592
0.228615
0.228639
0.228662
0.228687
0.228711
0.228736
0.228762
0.228788
0.228815
0.228842
0.228869
0.228897
0.228926
0.228955
0.228984
0.229015
0.229045
0.229076
0.229109
0.229141
0.229173
0.229207
0.229241
0.229275
0.229311
0.229347
0.229383
0.22942
0.229458
0.229497
0.229536
0.229575
0.229615
0.229657
0.229699
0.229741
0.229784
0.229828
0.229872
0.229917
0.229964
0.230011
0.230058
0.230107
0.230157
0.230206
0.230257
0.230309
0.230362
0.230415
0.230469
0.230524
0.230581
0.230638
0.230695
0.230754
0.230814
0.230875
0.230937
0.231
0.231063
0.231128
0.231193
0.23126
0.231328
0.231397
0.231467
0.231538
0.23161
0.231684
0.231758
0.231833
0.231911
0.231989
0.232068
0.232149
0.23223
0.232313
0.232398
0.232483
0.232569
0.232658
0.232747
0.232837
0.23293
0.233023
0.233117
0.233213
0.233309
0.233407
0.233507
0.233607
0.233708
0.233812
0.233915
0.23402
0.234126
0.234232
0.234339
0.234448
0.234557
0.234666
0.234776
0.234886
0.234996
0.235107
0.235217
0.235327
0.235437
0.235546
0.235654
0.235762
0.235869
0.235974
0.236079
0.236182
0.236283
0.236383
0.23648
0.236576
0.236669
0.23676
0.236848
0.236934
0.237017
0.237096
0.237174
0.237248
0.237318
0.237386
0.237451
0.237512
0.23757
0.237625
0.237678
0.237726
0.237771
0.237814
0.237854
0.237891
0.237924
0.237956
0.237985
0.238011
0.238035
0.238056
0.238076
0.238094
0.238109
0.238123
0.238135
0.238146
0.238156
0.238164
0.238171
0.238177
0.238183
0.238184
0.238182
0.238185
0.238191
0.238191
0.238189
0.2277
0.2277
0.2277
0.2277
0.2277
0.2277
0.2277
0.2277
0.2277
0.2277
0.2277
0.2277
0.2277
0.2277
0.2277
0.2277
0.2277
0.2277
0.2277
0.2277
0.2277
0.2277
0.2277
0.2277
0.2277
0.2277
0.2277
0.2277
0.2277
0.2277
0.2277
0.2277
0.2277
0.2277
0.2277
0.2277
0.2277
0.2277
0.2277
0.2277
0.2277
0.2277
0.2277
0.2277
0.2277
0.2277
0.2277
0.2277
0.2277
0.2277
0.2277
0.2277
0.2277
0.2277
0.2277
0.2277
0.2277
0.2277
0.227699
0.227696
0.227689
0.227684
0.227683
0.227682
0.227681
0.227681
0.22768
0.227681
0.227682
0.227684
0.227685
0.227691
0.227701
0.227708
0.227712
0.227718
0.227726
0.227733
0.227743
0.227753
0.227762
0.227771
0.227779
0.227788
0.227797
0.227807
0.227816
0.227825
0.227835
0.227844
0.227854
0.227864
0.227874
0.227884
0.227894
0.227904
0.227914
0.227925
0.227935
0.227946
0.227958
0.227969
0.22798
0.227992
0.228004
0.228016
0.228029
0.228041
0.228054
0.228067
0.228081
0.228095
0.228108
0.228122
0.228138
0.228152
0.228167
0.228182
0.228198
0.228215
0.228231
0.228247
0.228264
0.228281
0.228299
0.228317
0.228335
0.228354
0.228373
0.228393
0.228413
0.228433
0.228453
0.228475
0.228496
0.228518
0.22854
0.228563
0.228586
0.228609
0.228633
0.228658
0.228683
0.228708
0.228734
0.22876
0.228787
0.228814
0.228842
0.228871
0.228899
0.228928
0.228959
0.228989
0.22902
0.229052
0.229083
0.229116
0.22915
0.229183
0.229217
0.229253
0.229289
0.229324
0.229361
0.229399
0.229437
0.229476
0.229515
0.229555
0.229596
0.229638
0.229679
0.229722
0.229766
0.22981
0.229855
0.229901
0.229948
0.229995
0.230044
0.230093
0.230142
0.230193
0.230245
0.230297
0.23035
0.230404
0.230459
0.230515
0.230572
0.230629
0.230688
0.230748
0.230809
0.23087
0.230933
0.230996
0.23106
0.231126
0.231193
0.23126
0.231328
0.231399
0.231469
0.231541
0.231615
0.231689
0.231764
0.231841
0.231919
0.231998
0.232078
0.232159
0.232242
0.232327
0.232412
0.232498
0.232586
0.232676
0.232766
0.232859
0.232951
0.233045
0.233141
0.233238
0.233336
0.233435
0.233536
0.233637
0.23374
0.233844
0.233949
0.234055
0.234162
0.234269
0.234378
0.234487
0.234596
0.234707
0.234817
0.234927
0.235039
0.235149
0.23526
0.235371
0.23548
0.235589
0.235698
0.235806
0.235912
0.236018
0.236121
0.236223
0.236324
0.236423
0.236519
0.236613
0.236705
0.236794
0.236881
0.236965
0.237046
0.237124
0.237199
0.237271
0.23734
0.237406
0.237468
0.237527
0.237584
0.237637
0.237686
0.237733
0.237776
0.237817
0.237855
0.237889
0.237921
0.237951
0.237978
0.238002
0.238024
0.238044
0.238063
0.238079
0.238093
0.238105
0.238117
0.238126
0.238135
0.238142
0.238148
0.238154
0.238157
0.238158
0.238165
0.238174
0.238177
0.238177
0.2277
0.2277
0.2277
0.2277
0.2277
0.2277
0.2277
0.2277
0.2277
0.2277
0.2277
0.2277
0.2277
0.2277
0.2277
0.2277
0.2277
0.2277
0.2277
0.2277
0.2277
0.2277
0.2277
0.2277
0.2277
0.2277
0.2277
0.2277
0.2277
0.2277
0.2277
0.2277
0.2277
0.2277
0.2277
0.2277
0.2277
0.2277
0.2277
0.2277
0.2277
0.2277
0.2277
0.2277
0.2277
0.2277
0.2277
0.2277
0.2277
0.2277
0.2277
0.2277
0.2277
0.2277
0.2277
0.2277
0.2277
0.2277
0.227699
0.227695
0.227688
0.227683
0.227682
0.227682
0.227681
0.227679
0.227678
0.227677
0.227676
0.227676
0.227674
0.227677
0.227685
0.227691
0.227692
0.227696
0.227701
0.227706
0.227715
0.227724
0.227732
0.22774
0.227748
0.227755
0.227763
0.227773
0.227781
0.227791
0.2278
0.227809
0.227819
0.227829
0.227838
0.227848
0.227858
0.227867
0.227878
0.227888
0.227898
0.227909
0.22792
0.227931
0.227942
0.227954
0.227966
0.227977
0.22799
0.228003
0.228015
0.228028
0.228042
0.228055
0.228068
0.228083
0.228098
0.228112
0.228127
0.228142
0.228158
0.228174
0.22819
0.228206
0.228222
0.228239
0.228257
0.228275
0.228293
0.228312
0.228331
0.22835
0.22837
0.22839
0.22841
0.228431
0.228452
0.228474
0.228496
0.228519
0.228541
0.228565
0.228589
0.228613
0.228638
0.228663
0.228688
0.228714
0.228741
0.228768
0.228796
0.228824
0.228852
0.228881
0.228911
0.228941
0.228972
0.229004
0.229035
0.229067
0.229101
0.229135
0.229168
0.229203
0.229239
0.229274
0.229311
0.229349
0.229386
0.229425
0.229464
0.229503
0.229544
0.229586
0.229627
0.22967
0.229713
0.229757
0.229801
0.229848
0.229894
0.229941
0.22999
0.230039
0.230088
0.230138
0.23019
0.230242
0.230295
0.230348
0.230403
0.230459
0.230516
0.230573
0.230632
0.230691
0.230752
0.230813
0.230876
0.230939
0.231003
0.231068
0.231135
0.231202
0.23127
0.23134
0.23141
0.231482
0.231556
0.23163
0.231704
0.231781
0.231859
0.231938
0.232018
0.232099
0.232182
0.232267
0.232351
0.232437
0.232526
0.232615
0.232705
0.232798
0.232891
0.232984
0.23308
0.233177
0.233274
0.233374
0.233475
0.233576
0.233679
0.233783
0.233888
0.233994
0.234101
0.234209
0.234318
0.234427
0.234536
0.234647
0.234758
0.234869
0.234981
0.235092
0.235202
0.235314
0.235424
0.235534
0.235644
0.235752
0.235859
0.235965
0.23607
0.236172
0.236274
0.236373
0.23647
0.236566
0.236659
0.236748
0.236837
0.236922
0.237003
0.237083
0.237159
0.237231
0.237302
0.237369
0.237432
0.237492
0.237549
0.237603
0.237654
0.237701
0.237745
0.237787
0.237826
0.23786
0.237892
0.237923
0.237951
0.237976
0.237998
0.238019
0.238038
0.238054
0.238069
0.238082
0.238093
0.238103
0.238112
0.238119
0.238126
0.238132
0.238136
0.238139
0.238149
0.238159
0.238164
0.238166
0.2277
0.2277
0.2277
0.2277
0.2277
0.2277
0.2277
0.2277
0.2277
0.2277
0.2277
0.2277
0.2277
0.2277
0.2277
0.2277
0.2277
0.2277
0.2277
0.2277
0.2277
0.2277
0.2277
0.2277
0.2277
0.2277
0.2277
0.2277
0.2277
0.2277
0.2277
0.2277
0.2277
0.2277
0.2277
0.2277
0.2277
0.2277
0.2277
0.2277
0.2277
0.2277
0.2277
0.2277
0.2277
0.2277
0.2277
0.2277
0.2277
0.2277
0.2277
0.2277
0.2277
0.2277
0.2277
0.2277
0.2277
0.2277
0.227699
0.227694
0.227686
0.227681
0.227681
0.22768
0.227679
0.227677
0.227675
0.227672
0.22767
0.227667
0.227663
0.227664
0.227671
0.227675
0.227674
0.227676
0.227679
0.227682
0.227689
0.227698
0.227704
0.227711
0.227718
0.227725
0.227733
0.227741
0.227749
0.227758
0.227768
0.227776
0.227786
0.227795
0.227804
0.227814
0.227824
0.227833
0.227844
0.227854
0.227864
0.227874
0.227886
0.227896
0.227907
0.227919
0.22793
0.227942
0.227954
0.227967
0.227979
0.227992
0.228006
0.228019
0.228032
0.228046
0.228061
0.228075
0.228089
0.228104
0.22812
0.228136
0.228152
0.228168
0.228184
0.228201
0.228218
0.228236