/*--------------------------------*- C++ -*----------------------------------*\
| =========                 |                                                 |
| \\      /  F ield         | foam-extend: Open Source CFD                    |
|  \\    /   O peration     | Version:     3.2                                |
|   \\  /    A nd           | Web:         http://www.foam-extend.org         |
|    \\/     M anipulation  | For copyright notice see file Copyright         |
\*---------------------------------------------------------------------------*/
FoamFile
{
    version     2.0;
    format      ascii;
    class       areaScalarField;
    location    "50";
    object      Ce2;
}
// * * * * * * * * * * * * * * * * * * * * * * * * * * * * * * * * * * * * * //

dimensions      [1 -3 0 0 0 0 0];

internalField   nonuniform List<scalar> 
300
(
1.52891
0.775408
0.491784
0.494953
0.471308
0.47175
0.460657
0.46024
0.456263
0.457801
0.458115
0.460717
0.463277
0.467405
0.471263
0.476189
0.481213
0.486864
0.492497
0.498738
0.505318
0.512139
0.519186
0.526371
0.533701
0.541108
0.548022
0.554065
0.5592
0.563509
0.567128
0.570132
0.572656
0.574733
0.576491
0.577923
0.579156
0.580142
0.581023
0.581701
0.582349
0.582808
0.583308
0.583616
0.584013
0.584196
0.584523
0.584587
0.584962
0.584806
0.585431
0.584731
0.586075
0.584127
0.587441
0.58226
0.590812
0.578028
0.603498
0.199807
0.0462212
0.0308619
0.0266775
0.0246024
0.0240332
0.0234953
0.0235406
0.0233529
0.0234781
0.0232981
0.0235126
0.0236498
0.0232063
0.0231883
0.0235837
0.023546
0.0234708
0.0237631
0.0236658
0.0234681
0.0236615
0.0236676
0.0235715
0.0237403
0.0237113
0.0235994
0.0237232
0.0236795
0.0235822
0.0236991
0.023652
0.0235631
0.0236825
0.0236304
0.023564
0.0236675
0.0236278
0.0235744
0.0236513
0.0236564
0.023579
0.0236442
0.0236753
0.0236071
0.0236269
0.0236959
0.02365
0.0236193
0.0236837
0.0237068
0.0236464
0.0236473
0.0237127
0.0237195
0.0236673
0.0236717
0.0237264
0.0237428
0.0237192
0.0237109
0.0237299
0.0237565
0.0237733
0.0237856
0.0237935
0.0237999
0.0238053
0.0238101
0.0238147
0.0238186
0.0238228
0.0238273
0.0238322
0.0238382
0.0238431
0.0238482
0.0238553
0.0238611
0.0238679
0.0238715
0.0238783
0.0238826
0.0238901
0.0239012
0.0238905
0.023921
0.0239108
0.0239062
0.0239666
0.0239122
0.023923
0.0239909
0.0239251
0.0239409
0.0240384
0.0239232
0.0239376
0.0240907
0.0239552
0.0239223
0.0241229
0.0240066
0.0239325
0.0241149
0.0240427
0.0239934
0.0241134
0.0240388
0.0240286
0.0241619
0.0241113
0.0240292
0.0241554
0.0241705
0.0241028
0.0241892
0.024248
0.0241561
0.0241613
0.0242641
0.024229
0.0241552
0.0242312
0.0242877
0.0242305
0.0242097
0.0242683
0.0242916
0.0242717
0.0242562
0.0242903
0.0242823
0.0242922
0.0243156
0.0242565
0.0242943
0.0243163
0.0242561
0.0243149
0.0243534
0.0242607
0.0243556
0.0244156
0.0242782
0.0243612
0.0244664
0.024316
0.0243548
0.0244864
0.0243808
0.0243844
0.0244715
0.0243919
0.0244441
0.0245158
0.0243893
0.0244263
0.0245352
0.0244305
0.0244512
0.0245258
0.0244113
0.0244405
0.0245403
0.024439
0.0244703
0.0245694
0.0244679
0.0244952
0.0245949
0.0244933
0.0245178
0.0246186
0.024517
0.0245391
0.0246412
0.0245394
0.0245586
0.0246624
0.0245611
0.0245772
0.0246819
0.024581
0.0245947
0.0247003
0.0245994
0.0246105
0.024717
0.0246167
0.0246245
0.0247326
0.0246315
0.0246383
0.0247455
0.0246458
0.0246503
0.0247545
0.0246658
0.0246461
0.0247821
0.0246596
0.024682
0.0247681
0.0246771
0.0246888
0.0247477
0.0247818
0.0245707
0.0248544
0.0246402
0.0248175
0.0246584
0.0247332
0.0247833
0.0246906
0.0248261
0.0245618
0.0249145
0.0246445
0.0248821
0.0245579
0.0248815
0.0246611
0.0248791
0.0246189
0.0248589
0.0246127
0.0247859
0.0246228
0.0247599
0.0246327
0.024768
0.0245964
0.0248649
0.0266248
0.0362831
0.186798
0.646941
0.568462
0.582474
)
;

boundaryField
{
    inlet
    {
        type            calculated;
        value           uniform 0;
    }
    outlet
    {
        type            calculated;
        value           uniform 0;
    }
    sideWall
    {
        type            empty;
    }
}


// ************************************************************************* //
