/*--------------------------------*- C++ -*----------------------------------*\
| =========                 |                                                 |
| \\      /  F ield         | foam-extend: Open Source CFD                    |
|  \\    /   O peration     | Version:     3.2                                |
|   \\  /    A nd           | Web:         http://www.foam-extend.org         |
|    \\/     M anipulation  | For copyright notice see file Copyright         |
\*---------------------------------------------------------------------------*/
FoamFile
{
    version     2.0;
    format      ascii;
    class       areaScalarField;
    location    "50";
    object      Cpre;
}
// * * * * * * * * * * * * * * * * * * * * * * * * * * * * * * * * * * * * * //

dimensions      [1 -3 0 0 0 0 0];

internalField   nonuniform List<scalar> 
300
(
0.2277
0.2277
0.2277
0.2277
0.2277
0.2277
0.2277
0.2277
0.2277
0.2277
0.2277
0.2277
0.2277
0.2277
0.2277
0.2277
0.2277
0.2277
0.2277
0.2277
0.2277
0.2277
0.2277
0.2277
0.2277
0.2277
0.2277
0.2277
0.2277
0.2277
0.2277
0.2277
0.2277
0.2277
0.2277
0.2277
0.2277
0.2277
0.2277
0.2277
0.2277
0.2277
0.2277
0.2277
0.2277
0.2277
0.2277
0.2277
0.2277
0.2277
0.2277
0.2277
0.2277
0.2277
0.2277
0.2277
0.2277
0.2277
0.2277
0.2277
0.227284
0.227082
0.226979
0.226925
0.226933
0.226967
0.227038
0.227109
0.227195
0.227227
0.227414
0.2275
0.227367
0.227396
0.227619
0.227623
0.227619
0.227741
0.227706
0.227638
0.227733
0.227748
0.227729
0.227808
0.227803
0.227772
0.227833
0.227823
0.227803
0.227863
0.227854
0.227838
0.227899
0.22789
0.22788
0.227936
0.227932
0.227925
0.227973
0.227984
0.227969
0.228009
0.228034
0.228018
0.228045
0.228084
0.228079
0.228082
0.228126
0.228146
0.228137
0.228153
0.2282
0.228214
0.228208
0.228226
0.228269
0.228289
0.228294
0.228306
0.228333
0.228361
0.228386
0.228406
0.228428
0.228446
0.228468
0.228489
0.228512
0.228533
0.228558
0.22858
0.228606
0.22863
0.228656
0.228681
0.228709
0.228735
0.228764
0.228789
0.228819
0.228846
0.228878
0.228907
0.228933
0.228971
0.228996
0.229026
0.229077
0.229086
0.229123
0.229179
0.229185
0.229228
0.229294
0.229281
0.229327
0.229418
0.229397
0.229425
0.22954
0.229526
0.229538
0.229649
0.229656
0.229677
0.229761
0.229772
0.229811
0.229906
0.229919
0.229932
0.230025
0.230072
0.230088
0.23017
0.230231
0.230238
0.230288
0.230378
0.230407
0.23043
0.230512
0.230586
0.23061
0.230656
0.230735
0.230801
0.230844
0.230896
0.230965
0.231022
0.231086
0.231153
0.231193
0.231272
0.231343
0.231385
0.231476
0.231552
0.231585
0.231693
0.231778
0.231793
0.2319
0.232006
0.232017
0.232109
0.232232
0.232263
0.232342
0.23245
0.232499
0.232602
0.232705
0.232735
0.232838
0.232962
0.233005
0.233102
0.233214
0.233257
0.233363
0.233489
0.23354
0.233648
0.233775
0.233827
0.233935
0.234064
0.234118
0.234226
0.234357
0.234413
0.234522
0.234655
0.234712
0.23482
0.234955
0.235011
0.235119
0.235253
0.235309
0.235414
0.235546
0.2356
0.235702
0.235832
0.235883
0.235979
0.236106
0.236152
0.236243
0.236364
0.236406
0.236489
0.236604
0.23664
0.23671
0.236827
0.236847
0.236923
0.237012
0.23704
0.23709
0.237186
0.237218
0.237219
0.237337
0.237333
0.237411
0.237402
0.237463
0.237503
0.23753
0.237543
0.237555
0.237616
0.237645
0.237626
0.23765
0.237659
0.23773
0.237679
0.237735
0.23769
0.237776
0.237708
0.23779
0.237735
0.237766
0.237805
0.237699
0.237898
0.237625
0.237966
0.238385
0.238351
0.238318
0.238292
)
;

boundaryField
{
    inlet
    {
        type            calculated;
        value           uniform 0;
    }
    outlet
    {
        type            calculated;
        value           uniform 0;
    }
    sideWall
    {
        type            empty;
    }
}


// ************************************************************************* //
