/*--------------------------------*- C++ -*----------------------------------*\
| =========                 |                                                 |
| \\      /  F ield         | foam-extend: Open Source CFD                    |
|  \\    /   O peration     | Version:     3.2                                |
|   \\  /    A nd           | Web:         http://www.foam-extend.org         |
|    \\/     M anipulation  | For copyright notice see file Copyright         |
\*---------------------------------------------------------------------------*/
FoamFile
{
    version     2.0;
    format      ascii;
    class       areaScalarField;
    location    "50";
    object      Cs;
}
// * * * * * * * * * * * * * * * * * * * * * * * * * * * * * * * * * * * * * //

dimensions      [0 0 0 0 0 0 0];

internalField   nonuniform List<scalar> 
300
(
0.500804
0.500804
0.500804
0.500804
0.500804
0.500804
0.500804
0.500804
0.500804
0.500804
0.500804
0.500804
0.500804
0.500804
0.500804
0.500804
0.500804
0.500804
0.500804
0.500804
0.500804
0.500804
0.500804
0.500804
0.500804
0.500804
0.500804
0.500804
0.500804
0.500804
0.500804
0.500804
0.500804
0.500804
0.500804
0.500804
0.500804
0.500804
0.500804
0.500804
0.500804
0.500804
0.500804
0.500804
0.500804
0.500804
0.500804
0.500804
0.500804
0.500804
0.500804
0.500804
0.500804
0.500804
0.500804
0.500804
0.500804
0.500804
0.500804
0.320233
0.172552
0.123018
0.106023
0.0975123
0.0928852
0.0902247
0.0886884
0.0877632
0.0872465
0.0868908
0.0867583
0.0868171
0.0866543
0.0864266
0.0865526
0.0867522
0.0868284
0.0870041
0.0871526
0.0871128
0.0871536
0.0872608
0.0872866
0.0873672
0.0874554
0.0874433
0.0874742
0.0875114
0.0874728
0.0874899
0.0875138
0.0874675
0.0874822
0.0875029
0.0874623
0.0874779
0.0874992
0.0874679
0.0874793
0.0875096
0.0874858
0.0874864
0.0875243
0.0875138
0.0875005
0.0875368
0.0875496
0.0875245
0.08754
0.0875795
0.0875716
0.0875503
0.0875774
0.0876135
0.0876039
0.0875857
0.0876098
0.0876486
0.0876579
0.0876486
0.0876536
0.0876778
0.0877074
0.0877335
0.087754
0.0877694
0.0877817
0.0877919
0.0878007
0.0878084
0.0878162
0.0878243
0.0878321
0.0878406
0.0878497
0.0878587
0.0878685
0.0878789
0.0878893
0.0878986
0.0879079
0.087917
0.0879276
0.0879401
0.0879458
0.0879606
0.0879722
0.087975
0.0880042
0.0880087
0.0880012
0.0880369
0.0880393
0.0880323
0.0880826
0.0880747
0.0880479
0.0881198
0.0881263
0.0880745
0.0881449
0.0881784
0.0881201
0.0881648
0.0882079
0.0881801
0.0882124
0.0882274
0.0882083
0.088267
0.0883069
0.088269
0.0882931
0.0883536
0.0883511
0.0883772
0.0884472
0.0884471
0.088423
0.0884693
0.0885013
0.0884672
0.0884721
0.0885302
0.0885413
0.0885167
0.0885322
0.0885728
0.0885864
0.0885785
0.0885878
0.0886005
0.0886099
0.0886268
0.0886121
0.0886065
0.0886274
0.0886135
0.0886216
0.0886614
0.0886458
0.0886621
0.0887289
0.0887056
0.0886987
0.0887768
0.0887655
0.0887364
0.0888055
0.0888213
0.0887978
0.0888336
0.0888374
0.0888432
0.0888986
0.0888791
0.0888529
0.0889095
0.0889138
0.0888935
0.0889291
0.0889087
0.0888809
0.0889291
0.0889289
0.0889157
0.0889711
0.0889735
0.088959
0.0890129
0.0890145
0.0889984
0.0890509
0.0890523
0.0890348
0.0890865
0.0890876
0.0890684
0.0891192
0.0891206
0.0891001
0.0891497
0.0891509
0.0891292
0.0891778
0.0891789
0.0891557
0.0892033
0.0892043
0.0891797
0.0892262
0.0892269
0.0892012
0.0892465
0.0892473
0.0892202
0.0892639
0.0892667
0.0892346
0.0892805
0.0892811
0.0892529
0.0892941
0.0892937
0.0892652
0.0892978
0.0893293
0.0892689
0.0892973
0.0893145
0.0893211
0.0893159
0.0892899
0.0893363
0.0893278
0.0893416
0.0892919
0.0893301
0.089362
0.0893603
0.089316
0.0893183
0.089358
0.0893668
0.0893504
0.0893399
0.089326
0.0892921
0.0892851
0.0892645
0.0892705
0.0892578
0.0892729
0.0893384
0.0951381
0.131419
0.271169
0.500804
0.500804
0.500804
)
;

boundaryField
{
    inlet
    {
        type            calculated;
        value           uniform 0;
    }
    outlet
    {
        type            calculated;
        value           uniform 0;
    }
    sideWall
    {
        type            empty;
    }
}


// ************************************************************************* //
