/*--------------------------------*- C++ -*----------------------------------*\
| =========                 |                                                 |
| \\      /  F ield         | foam-extend: Open Source CFD                    |
|  \\    /   O peration     | Version:     3.2                                |
|   \\  /    A nd           | Web:         http://www.foam-extend.org         |
|    \\/     M anipulation  | For copyright notice see file Copyright         |
\*---------------------------------------------------------------------------*/
FoamFile
{
    version     2.0;
    format      ascii;
    class       areaScalarField;
    location    "50";
    object      dd;
}
// * * * * * * * * * * * * * * * * * * * * * * * * * * * * * * * * * * * * * //

dimensions      [0 1 0 0 0 0 0];

internalField   nonuniform List<scalar> 
300
(
0.00699
0.00699
0.00699
0.00699
0.00699
0.00699
0.00699
0.00699
0.00699
0.00699
0.00699
0.00699
0.00699
0.00699
0.00699
0.00699
0.00699
0.00699
0.00699
0.00699
0.00699
0.00699
0.00699
0.00699
0.00699
0.00699
0.00699
0.00699
0.00699
0.00699
0.00699
0.00699
0.00699
0.00699
0.00699
0.00699
0.00699
0.00699
0.00699
0.00699
0.00699
0.00699
0.00699
0.00699
0.00699
0.00699
0.00699
0.00699
0.00699
0.00699
0.00699
0.00699
0.00699
0.00699
0.00699
0.00699
0.00699
0.00699
0.00699
0.00655206
0.00551252
0.00460488
0.00409806
0.00377786
0.00357916
0.00345568
0.003381
0.00333476
0.00330852
0.00329027
0.00328343
0.00328647
0.00327805
0.00326623
0.00327278
0.00328312
0.00328705
0.0032961
0.00330372
0.00330168
0.00330377
0.00330925
0.00331057
0.00331468
0.00331917
0.00331855
0.00332012
0.00332202
0.00332005
0.00332092
0.00332213
0.00331978
0.00332053
0.00332158
0.00331952
0.00332031
0.00332139
0.0033198
0.00332038
0.00332192
0.00332071
0.00332074
0.00332267
0.00332214
0.00332146
0.0033233
0.00332395
0.00332268
0.00332347
0.00332547
0.00332507
0.00332399
0.00332536
0.00332719
0.00332671
0.00332579
0.00332701
0.00332897
0.00332944
0.00332897
0.00332922
0.00333045
0.00333195
0.00333327
0.0033343
0.00333508
0.0033357
0.00333621
0.00333666
0.00333705
0.00333744
0.00333785
0.00333824
0.00333867
0.00333913
0.00333958
0.00334008
0.0033406
0.00334112
0.00334159
0.00334206
0.00334252
0.00334305
0.00334368
0.00334397
0.00334471
0.00334529
0.00334543
0.0033469
0.00334713
0.00334675
0.00334854
0.00334866
0.00334831
0.00335084
0.00335044
0.0033491
0.0033527
0.00335303
0.00335043
0.00335396
0.00335564
0.00335272
0.00335496
0.00335711
0.00335572
0.00335733
0.00335808
0.00335713
0.00336006
0.00336206
0.00336016
0.00336137
0.00336438
0.00336426
0.00336556
0.00336904
0.00336904
0.00336784
0.00337014
0.00337173
0.00337003
0.00337028
0.00337316
0.00337371
0.00337249
0.00337326
0.00337527
0.00337595
0.00337556
0.00337602
0.00337665
0.00337711
0.00337795
0.00337722
0.00337694
0.00337798
0.00337729
0.00337769
0.00337966
0.00337889
0.0033797
0.003383
0.00338185
0.00338151
0.00338537
0.00338481
0.00338337
0.00338678
0.00338756
0.0033864
0.00338817
0.00338835
0.00338864
0.00339137
0.00339041
0.00338912
0.00339191
0.00339212
0.00339112
0.00339287
0.00339186
0.0033905
0.00339287
0.00339286
0.00339221
0.00339494
0.00339505
0.00339434
0.00339699
0.00339707
0.00339628
0.00339885
0.00339892
0.00339806
0.0034006
0.00340065
0.00339971
0.0034022
0.00340227
0.00340127
0.00340369
0.00340375
0.00340269
0.00340507
0.00340512
0.00340399
0.00340631
0.00340636
0.00340516
0.00340743
0.00340747
0.00340621
0.00340842
0.00340846
0.00340714
0.00340927
0.00340941
0.00340785
0.00341008
0.00341011
0.00340874
0.00341075
0.00341073
0.00340934
0.00341093
0.00341247
0.00340952
0.00341091
0.00341174
0.00341206
0.00341181
0.00341054
0.00341281
0.00341239
0.00341306
0.00341064
0.0034125
0.00341406
0.00341397
0.00341182
0.00341193
0.00341386
0.00341429
0.00341349
0.00341298
0.0034123
0.00341065
0.00341031
0.0034093
0.0034096
0.00340898
0.00340971
0.00341291
0.00367832
0.00480699
0.00633229
0.00699
0.00699
0.00699
)
;

boundaryField
{
    inlet
    {
        type            calculated;
        value           uniform 0;
    }
    outlet
    {
        type            calculated;
        value           uniform 0;
    }
    sideWall
    {
        type            empty;
    }
}


// ************************************************************************* //
