/*--------------------------------*- C++ -*----------------------------------*\
| =========                 |                                                 |
| \\      /  F ield         | foam-extend: Open Source CFD                    |
|  \\    /   O peration     | Version:     3.2                                |
|   \\  /    A nd           | Web:         http://www.foam-extend.org         |
|    \\/     M anipulation  | For copyright notice see file Copyright         |
\*---------------------------------------------------------------------------*/
FoamFile
{
    version     2.0;
    format      ascii;
    class       areaScalarField;
    location    "50";
    object      deltaHb;
}
// * * * * * * * * * * * * * * * * * * * * * * * * * * * * * * * * * * * * * //

dimensions      [0 1 -1 0 0 0 0];

internalField   nonuniform List<scalar> 
300
(
0
0
0
0
0
0
0
0
0
0
0
0
0
0
0
0
0
0
0
0
0
0
0
0
0
0
0
0
0
0
0
0
0
0
0
0
0
0
0
0
0
0
0
0
0
0
0
0
0
0
0
0
0
0
0
0
0
0
0
0
0
0
0
0
0
0
0
0
0
0
-4.02084e-08
7.45992e-09
1.03708e-07
1.37023e-08
-7.08524e-08
-1.20022e-09
-1.90759e-08
-5.85315e-08
2.44092e-08
3.22863e-08
-3.0957e-08
2.50165e-09
2.64259e-09
-3.37565e-08
8.85143e-09
1.33959e-08
-1.96857e-08
1.50646e-08
1.40608e-08
-1.74522e-08
1.48575e-08
1.22446e-08
-1.72322e-08
1.28676e-08
8.61815e-09
-1.61181e-08
8.64651e-09
7.9388e-09
-1.65481e-08
2.33138e-09
1.19641e-08
-1.41896e-08
-5.58929e-09
1.2908e-08
-7.88483e-09
-1.39476e-08
8.95356e-09
4.41888e-09
-1.57752e-08
-4.91954e-09
1.21013e-08
-2.12563e-09
-1.63077e-08
-2.00487e-09
1.03715e-08
-2.1796e-09
-1.3856e-08
-6.8553e-09
2.87264e-09
1.89466e-09
-5.69554e-09
-9.14062e-09
-7.999e-09
-6.45062e-09
-4.8252e-09
-3.69201e-09
-2.9834e-09
-2.66463e-09
-2.33473e-09
-1.81952e-09
-1.94489e-09
-2.35839e-09
-2.39515e-09
-2.39114e-09
-2.39626e-09
-2.68344e-09
-2.90917e-09
-3.02158e-09
-2.81383e-09
-2.44567e-09
-2.70054e-09
-2.28257e-09
-4.09034e-09
-1.89577e-09
-1.80776e-09
-6.35832e-09
1.87731e-09
-5.95894e-09
-9.68418e-09
8.76314e-09
-6.87978e-09
-1.15078e-08
1.16804e-08
-1.16063e-08
-1.45469e-08
2.24689e-08
-1.26834e-08
-2.65668e-08
2.80092e-08
-5.0396e-09
-3.53518e-08
2.30844e-08
4.69101e-09
-3.08125e-08
1.14499e-08
8.74704e-10
-1.83645e-08
1.31135e-08
-7.11104e-09
-2.823e-08
1.17398e-08
9.05089e-09
-2.62707e-08
-4.90965e-09
5.94708e-09
-2.41477e-08
-1.30042e-08
1.6535e-08
-5.89622e-09
-2.27791e-08
8.62686e-09
1.26668e-08
-1.81404e-08
-1.43498e-08
9.98231e-09
2.96169e-09
-1.33339e-08
-8.78491e-09
3.04787e-09
7.85846e-10
-5.78522e-09
-8.9872e-10
-6.23381e-09
-7.6511e-10
9.02331e-09
-7.8092e-09
-9.28392e-10
8.35704e-09
-1.58687e-08
-2.98933e-09
1.12135e-08
-2.50052e-08
-7.93502e-09
2.13525e-08
-2.28426e-08
-1.64284e-08
2.55761e-08
-1.38325e-08
-2.40138e-08
1.61153e-08
-5.13803e-09
-1.2422e-08
9.49962e-09
-1.6752e-08
-9.46e-09
2.27455e-08
-1.24372e-08
-1.80159e-08
1.5748e-08
-7.64002e-09
-7.91747e-09
2.11246e-08
-1.02844e-08
-1.53335e-08
1.58488e-08
-1.24307e-08
-1.63699e-08
1.5778e-08
-1.1661e-08
-1.62671e-08
1.61454e-08
-1.1089e-08
-1.63067e-08
1.64108e-08
-1.06463e-08
-1.64409e-08
1.67452e-08
-1.01061e-08
-1.67008e-08
1.68599e-08
-9.51078e-09
-1.67337e-08
1.70036e-08
-9.02804e-09
-1.67663e-08
1.72463e-08
-8.46604e-09
-1.68992e-08
1.74532e-08
-7.89042e-09
-1.69146e-08
1.76588e-08
-7.49139e-09
-1.65883e-08
1.73139e-08
-6.0918e-09
-1.77196e-08
1.86588e-08
-5.86377e-09
-1.86831e-08
1.84111e-08
-6.76044e-09
-1.20087e-08
1.23248e-08
1.34779e-09
-2.57147e-08
1.8562e-08
9.48379e-09
-2.32327e-08
8.18897e-09
-9.80966e-09
1.63427e-08
-1.03325e-08
-5.63437e-09
-4.55963e-09
1.42883e-08
5.3144e-09
-2.43956e-08
-1.43693e-09
8.80858e-09
1.5489e-08
-1.59114e-08
-8.5507e-09
3.23439e-09
7.02957e-09
-4.52803e-10
0
0
0
0
0
0
0
0
0
0
0
0
0
0
)
;

boundaryField
{
    inlet
    {
        type            zeroGradient;
    }
    outlet
    {
        type            zeroGradient;
    }
    sideWall
    {
        type            empty;
    }
}


// ************************************************************************* //
