/*--------------------------------*- C++ -*----------------------------------*\
| =========                 |                                                 |
| \\      /  F ield         | foam-extend: Open Source CFD                    |
|  \\    /   O peration     | Version:     3.2                                |
|   \\  /    A nd           | Web:         http://www.foam-extend.org         |
|    \\/     M anipulation  | For copyright notice see file Copyright         |
\*---------------------------------------------------------------------------*/
FoamFile
{
    version     2.0;
    format      ascii;
    class       areaScalarField;
    location    "50";
    object      deltaHs;
}
// * * * * * * * * * * * * * * * * * * * * * * * * * * * * * * * * * * * * * //

dimensions      [0 1 -1 0 0 0 0];

internalField   nonuniform List<scalar> 
300
(
-7.48333e-05
-3.45816e-05
-1.94212e-05
-1.95907e-05
-1.83263e-05
-1.83499e-05
-1.77568e-05
-1.77345e-05
-1.75217e-05
-1.7604e-05
-1.76208e-05
-1.77599e-05
-1.78968e-05
-1.81176e-05
-1.83239e-05
-1.85873e-05
-1.8856e-05
-1.91581e-05
-1.94593e-05
-1.9793e-05
-2.01449e-05
-2.05096e-05
-2.08863e-05
-2.12705e-05
-2.16623e-05
-2.20583e-05
-2.2428e-05
-2.27511e-05
-2.30256e-05
-2.3256e-05
-2.34495e-05
-2.361e-05
-2.3745e-05
-2.3856e-05
-2.395e-05
-2.40265e-05
-2.40924e-05
-2.41451e-05
-2.41922e-05
-2.42285e-05
-2.42631e-05
-2.42877e-05
-2.43144e-05
-2.43308e-05
-2.43521e-05
-2.43619e-05
-2.43794e-05
-2.43827e-05
-2.44028e-05
-2.43945e-05
-2.44279e-05
-2.43905e-05
-2.44623e-05
-2.43581e-05
-2.45353e-05
-2.42583e-05
-2.47155e-05
-2.40321e-05
-2.53937e-05
-3.76872e-06
4.7166e-06
5.56729e-06
5.8476e-06
5.98461e-06
6.05646e-06
6.09888e-06
6.12247e-06
6.13818e-06
6.14667e-06
6.15448e-06
6.15517e-06
6.15644e-06
6.16357e-06
6.16593e-06
6.16149e-06
6.16259e-06
6.16285e-06
6.15866e-06
6.15904e-06
6.16121e-06
6.1584e-06
6.15817e-06
6.15904e-06
6.15661e-06
6.15672e-06
6.158e-06
6.15632e-06
6.15696e-06
6.15837e-06
6.15701e-06
6.1579e-06
6.15929e-06
6.15804e-06
6.15904e-06
6.16021e-06
6.15918e-06
6.16002e-06
6.16109e-06
6.16034e-06
6.16066e-06
6.16194e-06
6.16145e-06
6.1613e-06
6.16259e-06
6.1626e-06
6.16206e-06
6.16295e-06
6.16373e-06
6.16324e-06
6.1633e-06
6.16436e-06
6.16481e-06
6.16428e-06
6.16459e-06
6.16559e-06
6.166e-06
6.16566e-06
6.16585e-06
6.16644e-06
6.16701e-06
6.16718e-06
6.16728e-06
6.1674e-06
6.16763e-06
6.16783e-06
6.16818e-06
6.16849e-06
6.16892e-06
6.1693e-06
6.16979e-06
6.17023e-06
6.17074e-06
6.17118e-06
6.1717e-06
6.17217e-06
6.17271e-06
6.17317e-06
6.17373e-06
6.17421e-06
6.17482e-06
6.17533e-06
6.17598e-06
6.17648e-06
6.17706e-06
6.17781e-06
6.17815e-06
6.17898e-06
6.17975e-06
6.17966e-06
6.18114e-06
6.18179e-06
6.18162e-06
6.18334e-06
6.18392e-06
6.18341e-06
6.1858e-06
6.18651e-06
6.18526e-06
6.18799e-06
6.18933e-06
6.18752e-06
6.19004e-06
6.19195e-06
6.19049e-06
6.19247e-06
6.19406e-06
6.19344e-06
6.19552e-06
6.19673e-06
6.19587e-06
6.19765e-06
6.19977e-06
6.19925e-06
6.20006e-06
6.20209e-06
6.20195e-06
6.20227e-06
6.20455e-06
6.20574e-06
6.20553e-06
6.20726e-06
6.20956e-06
6.20996e-06
6.21043e-06
6.21255e-06
6.21419e-06
6.21493e-06
6.21595e-06
6.21769e-06
6.21933e-06
6.22046e-06
6.22209e-06
6.22354e-06
6.22483e-06
6.22729e-06
6.2285e-06
6.22994e-06
6.23257e-06
6.23349e-06
6.23478e-06
6.23783e-06
6.23833e-06
6.23929e-06
6.24302e-06
6.24374e-06
6.2442e-06
6.24815e-06
6.24965e-06
6.24978e-06
6.25325e-06
6.25523e-06
6.25616e-06
6.2594e-06
6.26081e-06
6.26199e-06
6.26598e-06
6.26779e-06
6.26859e-06
6.27237e-06
6.27445e-06
6.27588e-06
6.27997e-06
6.28213e-06
6.2833e-06
6.28727e-06
6.28942e-06
6.2906e-06
6.29461e-06
6.29686e-06
6.2981e-06
6.30219e-06
6.30455e-06
6.30583e-06
6.30999e-06
6.31244e-06
6.31375e-06
6.31795e-06
6.32048e-06
6.32179e-06
6.32601e-06
6.32857e-06
6.32987e-06
6.33407e-06
6.33664e-06
6.33789e-06
6.34204e-06
6.34459e-06
6.34575e-06
6.34981e-06
6.3523e-06
6.35333e-06
6.35728e-06
6.35964e-06
6.36054e-06
6.36429e-06
6.36654e-06
6.36724e-06
6.37074e-06
6.37302e-06
6.37319e-06
6.37683e-06
6.37835e-06
6.37904e-06
6.3818e-06
6.38366e-06
6.38373e-06
6.38555e-06
6.38888e-06
6.38741e-06
6.39048e-06
6.39008e-06
6.39268e-06
6.39303e-06
6.39335e-06
6.39458e-06
6.39526e-06
6.39709e-06
6.3961e-06
6.39659e-06
6.39803e-06
6.39853e-06
6.39933e-06
6.39768e-06
6.40017e-06
6.39876e-06
6.40115e-06
6.39904e-06
6.40276e-06
6.40025e-06
6.40326e-06
6.40185e-06
6.40181e-06
6.40464e-06
6.3979e-06
6.31368e-06
5.66184e-06
-2.74571e-06
-2.73888e-05
-2.31946e-05
-2.39445e-05
)
;

boundaryField
{
    inlet
    {
        type            calculated;
        value           uniform -3.74045e-05;
    }
    outlet
    {
        type            calculated;
        value           uniform -1.00216e-05;
    }
    sideWall
    {
        type            empty;
    }
}


// ************************************************************************* //
