/*--------------------------------*- C++ -*----------------------------------*\
| =========                 |                                                 |
| \\      /  F ield         | foam-extend: Open Source CFD                    |
|  \\    /   O peration     | Version:     3.2                                |
|   \\  /    A nd           | Web:         http://www.foam-extend.org         |
|    \\/     M anipulation  | For copyright notice see file Copyright         |
\*---------------------------------------------------------------------------*/
FoamFile
{
    version     2.0;
    format      ascii;
    class       volScalarField;
    location    "50";
    object      DiSS;
}
// * * * * * * * * * * * * * * * * * * * * * * * * * * * * * * * * * * * * * //

dimensions      [0 2 -1 0 0 0 0];

internalField   nonuniform List<scalar> 
5400
(
3.26128e-05
2.61441e-05
2.25492e-05
2.25963e-05
2.22401e-05
2.22469e-05
2.20758e-05
2.20693e-05
2.20072e-05
2.20313e-05
2.20362e-05
2.20768e-05
2.21165e-05
2.21802e-05
2.22395e-05
2.23147e-05
2.23908e-05
2.24758e-05
2.25599e-05
2.26523e-05
2.27488e-05
2.28481e-05
2.29496e-05
2.30523e-05
2.3156e-05
2.32599e-05
2.33559e-05
2.34393e-05
2.35096e-05
2.35683e-05
2.36173e-05
2.36579e-05
2.36918e-05
2.37197e-05
2.37432e-05
2.37624e-05
2.37788e-05
2.3792e-05
2.38037e-05
2.38127e-05
2.38213e-05
2.38274e-05
2.38341e-05
2.38381e-05
2.38434e-05
2.38458e-05
2.38504e-05
2.38516e-05
2.38565e-05
2.38545e-05
2.38627e-05
2.38535e-05
2.38713e-05
2.38455e-05
2.38893e-05
2.38207e-05
2.39337e-05
2.37648e-05
2.40936e-05
2.33911e-05
2.05153e-05
2.02311e-05
2.03408e-05
2.02866e-05
2.04247e-05
2.03907e-05
2.05001e-05
2.04746e-05
2.05372e-05
2.05159e-05
2.05374e-05
2.05593e-05
2.05354e-05
2.05044e-05
2.05399e-05
2.05377e-05
2.05155e-05
2.05347e-05
2.05367e-05
2.05017e-05
2.05114e-05
2.05166e-05
2.04968e-05
2.05068e-05
2.05112e-05
2.04912e-05
2.04993e-05
2.05022e-05
2.04853e-05
2.04932e-05
2.04967e-05
2.04812e-05
2.04903e-05
2.04929e-05
2.048e-05
2.04888e-05
2.04905e-05
2.04814e-05
2.04863e-05
2.04922e-05
2.04828e-05
2.04846e-05
2.04922e-05
2.0486e-05
2.04833e-05
2.04917e-05
2.04905e-05
2.04845e-05
2.04884e-05
2.04937e-05
2.0489e-05
2.04857e-05
2.04912e-05
2.04943e-05
2.04899e-05
2.04878e-05
2.04921e-05
2.04945e-05
2.04933e-05
2.04918e-05
2.04923e-05
2.04945e-05
2.04957e-05
2.04966e-05
2.04972e-05
2.04977e-05
2.0498e-05
2.04983e-05
2.04987e-05
2.04989e-05
2.04989e-05
2.04992e-05
2.04995e-05
2.04999e-05
2.05001e-05
2.05004e-05
2.05008e-05
2.05012e-05
2.05017e-05
2.05019e-05
2.05022e-05
2.05027e-05
2.05026e-05
2.05042e-05
2.05025e-05
2.05042e-05
2.05056e-05
2.05013e-05
2.05085e-05
2.05062e-05
2.05012e-05
2.05105e-05
2.0507e-05
2.05009e-05
2.05143e-05
2.05085e-05
2.04981e-05
2.05173e-05
2.05125e-05
2.04966e-05
2.05176e-05
2.05168e-05
2.04987e-05
2.0516e-05
2.05171e-05
2.05039e-05
2.05172e-05
2.0515e-05
2.0506e-05
2.05192e-05
2.05212e-05
2.05078e-05
2.05159e-05
2.05235e-05
2.05142e-05
2.05173e-05
2.05273e-05
2.05211e-05
2.05151e-05
2.05256e-05
2.05274e-05
2.05173e-05
2.052e-05
2.05283e-05
2.05254e-05
2.05205e-05
2.05245e-05
2.05275e-05
2.05269e-05
2.05241e-05
2.05265e-05
2.05272e-05
2.05254e-05
2.05304e-05
2.05252e-05
2.05248e-05
2.0531e-05
2.05243e-05
2.0525e-05
2.05342e-05
2.05244e-05
2.05255e-05
2.05394e-05
2.05269e-05
2.05246e-05
2.05417e-05
2.05311e-05
2.05235e-05
2.05412e-05
2.05355e-05
2.05278e-05
2.05399e-05
2.05343e-05
2.05314e-05
2.05442e-05
2.05349e-05
2.05289e-05
2.05443e-05
2.0538e-05
2.05322e-05
2.05441e-05
2.05364e-05
2.05303e-05
2.05447e-05
2.05384e-05
2.05325e-05
2.05466e-05
2.05405e-05
2.05342e-05
2.05482e-05
2.05423e-05
2.05357e-05
2.05498e-05
2.0544e-05
2.05372e-05
2.05514e-05
2.05457e-05
2.05386e-05
2.05528e-05
2.05474e-05
2.05401e-05
2.05542e-05
2.0549e-05
2.05414e-05
2.05556e-05
2.05504e-05
2.05427e-05
2.05568e-05
2.05519e-05
2.05439e-05
2.0558e-05
2.05532e-05
2.0545e-05
2.05591e-05
2.05542e-05
2.05465e-05
2.05592e-05
2.05566e-05
2.05455e-05
2.05618e-05
2.05564e-05
2.05484e-05
2.05622e-05
2.05542e-05
2.05539e-05
2.0554e-05
2.05701e-05
2.05391e-05
2.05664e-05
2.05544e-05
2.05577e-05
2.05621e-05
2.05463e-05
2.05705e-05
2.05468e-05
2.05744e-05
2.05365e-05
2.05726e-05
2.05508e-05
2.05709e-05
2.05464e-05
2.05622e-05
2.05568e-05
2.05649e-05
2.05543e-05
2.05613e-05
2.05565e-05
2.05544e-05
2.05561e-05
2.05549e-05
2.05527e-05
2.05629e-05
2.05354e-05
2.05663e-05
2.06277e-05
2.28271e-05
2.54996e-05
2.46331e-05
2.3637e-05
2.38234e-05
3.11621e-05
4.10922e-05
4.45874e-05
4.7216e-05
4.88857e-05
4.97143e-05
5.03327e-05
5.07058e-05
5.1095e-05
5.13971e-05
5.17005e-05
5.19951e-05
5.22843e-05
5.25857e-05
5.28747e-05
5.31644e-05
5.34567e-05
5.37472e-05
5.40413e-05
5.43332e-05
5.46216e-05
5.49066e-05
5.51856e-05
5.54573e-05
5.57185e-05
5.59566e-05
5.61578e-05
5.63178e-05
5.6442e-05
5.65384e-05
5.66131e-05
5.66718e-05
5.67177e-05
5.67543e-05
5.67831e-05
5.68068e-05
5.68254e-05
5.68414e-05
5.68538e-05
5.68653e-05
5.68738e-05
5.68824e-05
5.68883e-05
5.68951e-05
5.68991e-05
5.69043e-05
5.69077e-05
5.69113e-05
5.69149e-05
5.69158e-05
5.69218e-05
5.69169e-05
5.69284e-05
5.69128e-05
5.69396e-05
5.68965e-05
5.69644e-05
5.68644e-05
5.69462e-05
5.53173e-05
5.43044e-05
5.31886e-05
5.20922e-05
5.13627e-05
5.07038e-05
5.03405e-05
5.00088e-05
4.98031e-05
4.96323e-05
4.94968e-05
4.93989e-05
4.93356e-05
4.92501e-05
4.92036e-05
4.91478e-05
4.91103e-05
4.90895e-05
4.90729e-05
4.90455e-05
4.90249e-05
4.9023e-05
4.90097e-05
4.89919e-05
4.89935e-05
4.89892e-05
4.89777e-05
4.8985e-05
4.8983e-05
4.89726e-05
4.89792e-05
4.8978e-05
4.89696e-05
4.89759e-05
4.89743e-05
4.89688e-05
4.89745e-05
4.89731e-05
4.897e-05
4.89732e-05
4.89747e-05
4.89709e-05
4.8974e-05
4.89763e-05
4.89736e-05
4.89747e-05
4.89779e-05
4.89769e-05
4.89771e-05
4.89785e-05
4.89793e-05
4.89796e-05
4.89812e-05
4.8982e-05
4.89814e-05
4.89827e-05
4.89845e-05
4.89853e-05
4.89846e-05
4.89863e-05
4.89881e-05
4.89889e-05
4.89891e-05
4.89903e-05
4.89922e-05
4.89942e-05
4.89958e-05
4.89973e-05
4.89985e-05
4.9e-05
4.90012e-05
4.90014e-05
4.9002e-05
4.90028e-05
4.90036e-05
4.90041e-05
4.90048e-05
4.90055e-05
4.90064e-05
4.90072e-05
4.9008e-05
4.90083e-05
4.90086e-05
4.90092e-05
4.90108e-05
4.90112e-05
4.90129e-05
4.9014e-05
4.90124e-05
4.90171e-05
4.9016e-05
4.90141e-05
4.90208e-05
4.90185e-05
4.90159e-05
4.90246e-05
4.90213e-05
4.90172e-05
4.90291e-05
4.90245e-05
4.90211e-05
4.90313e-05
4.90274e-05
4.90234e-05
4.90327e-05
4.90298e-05
4.9026e-05
4.9036e-05
4.90325e-05
4.90321e-05
4.90379e-05
4.90389e-05
4.90354e-05
4.904e-05
4.90432e-05
4.90398e-05
4.90439e-05
4.90478e-05
4.90482e-05
4.90496e-05
4.90542e-05
4.9054e-05
4.90523e-05
4.90555e-05
4.90569e-05
4.90568e-05
4.90579e-05
4.90601e-05
4.90594e-05
4.90605e-05
4.90617e-05
4.90631e-05
4.90632e-05
4.9063e-05
4.90651e-05
4.90639e-05
4.9065e-05
4.90672e-05
4.90624e-05
4.90645e-05
4.90681e-05
4.9063e-05
4.90663e-05
4.90714e-05
4.9066e-05
4.90686e-05
4.90746e-05
4.90705e-05
4.90685e-05
4.90798e-05
4.90748e-05
4.90725e-05
4.90812e-05
4.90767e-05
4.90776e-05
4.90825e-05
4.90796e-05
4.90774e-05
4.90864e-05
4.90815e-05
4.90802e-05
4.9086e-05
4.90826e-05
4.90794e-05
4.90876e-05
4.90823e-05
4.90798e-05
4.90887e-05
4.90845e-05
4.9082e-05
4.90912e-05
4.90871e-05
4.90846e-05
4.90938e-05
4.90898e-05
4.90871e-05
4.90963e-05
4.90923e-05
4.90894e-05
4.90987e-05
4.90946e-05
4.90916e-05
4.91009e-05
4.90969e-05
4.90938e-05
4.9103e-05
4.9099e-05
4.90958e-05
4.91049e-05
4.91009e-05
4.90976e-05
4.91067e-05
4.91027e-05
4.90992e-05
4.91084e-05
4.91043e-05
4.91014e-05
4.91096e-05
4.91062e-05
4.91017e-05
4.91113e-05
4.91065e-05
4.91045e-05
4.91127e-05
4.91063e-05
4.91092e-05
4.91094e-05
4.91148e-05
4.91008e-05
4.91137e-05
4.91067e-05
4.91128e-05
4.91106e-05
4.9106e-05
4.91166e-05
4.91046e-05
4.91179e-05
4.91003e-05
4.91175e-05
4.91115e-05
4.91103e-05
4.91068e-05
4.91133e-05
4.91091e-05
4.91114e-05
4.91096e-05
4.91144e-05
4.91075e-05
4.91127e-05
4.91079e-05
4.91095e-05
4.9107e-05
4.91094e-05
4.90992e-05
4.91255e-05
4.97704e-05
5.10838e-05
5.2599e-05
5.31208e-05
5.43153e-05
5.51747e-05
2.85797e-05
4.46667e-05
5.2355e-05
6.08744e-05
6.74807e-05
7.07933e-05
7.29723e-05
7.47305e-05
7.60663e-05
7.72628e-05
7.82287e-05
7.91367e-05
7.99589e-05
8.07171e-05
8.14439e-05
8.21207e-05
8.27747e-05
8.34076e-05
8.40187e-05
8.46082e-05
8.5175e-05
8.5718e-05
8.62355e-05
8.67228e-05
8.71802e-05
8.7571e-05
8.78632e-05
8.807e-05
8.82156e-05
8.83169e-05
8.83883e-05
8.84373e-05
8.84719e-05
8.84951e-05
8.85121e-05
8.85233e-05
8.85324e-05
8.85384e-05
8.85441e-05
8.8548e-05
8.85523e-05
8.85552e-05
8.85592e-05
8.85615e-05
8.85652e-05
8.85666e-05
8.85701e-05
8.85719e-05
8.85744e-05
8.85765e-05
8.85765e-05
8.85788e-05
8.85783e-05
8.85801e-05
8.85774e-05
8.85799e-05
8.85743e-05
8.86321e-05
8.84424e-05
8.47706e-05
8.48128e-05
8.4873e-05
8.38792e-05
8.27961e-05
8.14762e-05
8.06609e-05
7.97526e-05
7.91644e-05
7.86055e-05
7.81985e-05
7.7873e-05
7.76062e-05
7.736e-05
7.72346e-05
7.70598e-05
7.69334e-05
7.68647e-05
7.67942e-05
7.67108e-05
7.66957e-05
7.66708e-05
7.66263e-05
7.66208e-05
7.6611e-05
7.65826e-05
7.65903e-05
7.65917e-05
7.65749e-05
7.65823e-05
7.65863e-05
7.65724e-05
7.65807e-05
7.65847e-05
7.65721e-05
7.65817e-05
7.65842e-05
7.65753e-05
7.65827e-05
7.65869e-05
7.65781e-05
7.65832e-05
7.6591e-05
7.65836e-05
7.65838e-05
7.65936e-05
7.65903e-05
7.65859e-05
7.65936e-05
7.65961e-05
7.65906e-05
7.65915e-05
7.66008e-05
7.65996e-05
7.65949e-05
7.65974e-05
7.66045e-05
7.66033e-05
7.66027e-05
7.66037e-05
7.66065e-05
7.66091e-05
7.66099e-05
7.6611e-05
7.66131e-05
7.66156e-05
7.66179e-05
7.662e-05
7.66218e-05
7.66233e-05
7.66247e-05
7.66263e-05
7.66277e-05
7.66289e-05
7.66301e-05
7.66315e-05
7.66327e-05
7.66339e-05
7.66352e-05
7.66362e-05
7.66373e-05
7.66384e-05
7.66388e-05
7.66402e-05
7.66408e-05
7.66435e-05
7.66467e-05
7.66443e-05
7.66502e-05
7.66496e-05
7.66462e-05
7.66553e-05
7.66536e-05
7.66501e-05
7.66612e-05
7.66574e-05
7.66505e-05
7.66685e-05
7.66635e-05
7.66517e-05
7.66749e-05
7.6671e-05
7.66544e-05
7.66754e-05
7.66756e-05
7.66621e-05
7.66767e-05
7.66767e-05
7.66689e-05
7.66851e-05
7.66829e-05
7.66734e-05
7.66863e-05
7.66918e-05
7.66823e-05
7.66897e-05
7.66982e-05
7.66921e-05
7.6692e-05
7.6708e-05
7.67067e-05
7.66982e-05
7.67069e-05
7.6714e-05
7.67089e-05
7.67068e-05
7.6715e-05
7.6716e-05
7.67148e-05
7.67145e-05
7.6719e-05
7.6721e-05
7.67189e-05
7.67229e-05
7.67194e-05
7.67198e-05
7.67266e-05
7.67206e-05
7.67216e-05
7.67284e-05
7.67196e-05
7.67218e-05
7.67339e-05
7.67212e-05
7.67219e-05
7.67386e-05
7.67278e-05
7.67235e-05
7.67415e-05
7.67361e-05
7.67295e-05
7.67417e-05
7.67389e-05
7.67354e-05
7.67474e-05
7.67389e-05
7.67366e-05
7.67511e-05
7.67448e-05
7.6739e-05
7.67506e-05
7.67439e-05
7.67399e-05
7.67524e-05
7.67459e-05
7.67398e-05
7.67518e-05
7.67466e-05
7.67413e-05
7.67538e-05
7.67491e-05
7.67439e-05
7.67565e-05
7.6752e-05
7.67466e-05
7.67593e-05
7.67548e-05
7.67492e-05
7.67619e-05
7.67575e-05
7.67516e-05
7.67643e-05
7.67599e-05
7.67539e-05
7.67665e-05
7.67622e-05
7.6756e-05
7.67686e-05
7.67644e-05
7.67579e-05
7.67705e-05
7.67663e-05
7.67596e-05
7.67722e-05
7.6768e-05
7.67614e-05
7.67739e-05
7.67704e-05
7.67621e-05
7.67758e-05
7.67711e-05
7.67623e-05
7.67768e-05
7.67711e-05
7.67696e-05
7.67743e-05
7.67792e-05
7.67648e-05
7.67805e-05
7.67781e-05
7.67612e-05
7.6787e-05
7.67604e-05
7.67872e-05
7.67696e-05
7.67798e-05
7.67687e-05
7.67862e-05
7.67785e-05
7.67739e-05
7.67779e-05
7.67661e-05
7.67942e-05
7.67663e-05
7.67908e-05
7.67646e-05
7.67924e-05
7.6759e-05
7.67911e-05
7.67625e-05
7.67853e-05
7.67662e-05
7.67693e-05
7.67719e-05
7.68014e-05
7.83702e-05
7.99178e-05
8.13031e-05
8.09106e-05
8.24392e-05
8.43906e-05
2.73173e-05
3.89744e-05
4.90646e-05
6.16772e-05
7.25318e-05
8.0372e-05
8.66797e-05
9.06186e-05
9.37538e-05
9.64471e-05
9.86623e-05
0.00010063
0.000102363
0.00010394
0.000105387
0.000106704
0.000107944
0.000109109
0.00011021
0.000111248
0.000112224
0.000113139
0.000113991
0.000114774
0.000115485
0.000116066
0.000116477
0.000116752
0.000116929
0.000117038
0.000117102
0.000117135
0.000117149
0.00011715
0.000117145
0.000117135
0.000117125
0.000117115
0.000117107
0.000117099
0.000117093
0.000117088
0.000117085
0.000117083
0.000117081
0.00011708
0.00011708
0.00011708
0.00011708
0.000117081
0.000117079
0.000117082
0.000117079
0.000117084
0.000117075
0.000117088
0.000117065
0.000117167
0.000116788
0.000111585
0.000110394
0.000112973
0.000112879
0.000111958
0.000110516
0.000109425
0.000108092
0.000107127
0.000106166
0.000105436
0.000104823
0.000104287
0.000103814
0.000103539
0.000103223
0.000102971
0.000102807
0.000102655
0.000102505
0.000102444
0.00010239
0.000102316
0.000102291
0.000102267
0.000102223
0.000102223
0.000102223
0.000102199
0.000102206
0.000102214
0.000102196
0.000102206
0.000102215
0.000102199
0.000102211
0.000102218
0.000102206
0.000102216
0.000102224
0.000102213
0.000102218
0.00010223
0.000102221
0.00010222
0.000102233
0.000102231
0.000102223
0.000102233
0.000102238
0.000102231
0.00010223
0.000102244
0.000102244
0.000102236
0.000102238
0.000102249
0.000102249
0.000102246
0.000102246
0.00010225
0.000102255
0.000102256
0.000102257
0.000102259
0.000102261
0.000102264
0.000102266
0.000102269
0.000102271
0.000102273
0.000102275
0.000102277
0.000102279
0.000102281
0.000102283
0.000102284
0.000102286
0.000102288
0.000102289
0.000102291
0.000102292
0.000102292
0.000102294
0.000102295
0.000102299
0.000102303
0.000102299
0.000102307
0.000102307
0.000102301
0.000102313
0.000102312
0.000102307
0.000102321
0.000102317
0.000102307
0.000102329
0.000102326
0.000102308
0.000102336
0.000102337
0.000102312
0.000102337
0.000102341
0.000102323
0.000102339
0.000102342
0.000102331
0.000102351
0.00010235
0.000102337
0.000102352
0.00010236
0.000102349
0.000102356
0.000102368
0.000102359
0.000102357
0.000102377
0.000102378
0.000102367
0.000102377
0.000102388
0.000102382
0.000102377
0.000102388
0.000102391
0.000102389
0.000102387
0.000102393
0.000102396
0.000102394
0.000102399
0.000102394
0.000102394
0.000102404
0.000102397
0.000102397
0.000102407
0.000102396
0.000102397
0.000102413
0.000102397
0.000102394
0.000102417
0.000102404
0.000102395
0.000102419
0.000102415
0.000102404
0.000102419
0.000102417
0.000102411
0.000102427
0.000102416
0.000102411
0.00010243
0.000102424
0.000102414
0.000102429
0.000102421
0.000102415
0.000102431
0.000102425
0.000102415
0.00010243
0.000102424
0.000102415
0.000102431
0.000102426
0.000102417
0.000102433
0.000102429
0.00010242
0.000102436
0.000102431
0.000102422
0.000102438
0.000102434
0.000102424
0.00010244
0.000102436
0.000102426
0.000102442
0.000102438
0.000102428
0.000102444
0.00010244
0.00010243
0.000102446
0.000102442
0.000102432
0.000102447
0.000102444
0.000102434
0.000102449
0.000102447
0.000102434
0.00010245
0.000102447
0.000102434
0.000102453
0.000102447
0.000102443
0.000102449
0.000102457
0.000102438
0.000102454
0.000102455
0.000102434
0.000102464
0.000102431
0.000102465
0.000102444
0.000102456
0.000102443
0.000102461
0.000102457
0.000102452
0.000102446
0.000102442
0.000102473
0.000102445
0.000102464
0.000102439
0.00010247
0.000102431
0.00010247
0.000102437
0.000102463
0.000102445
0.000102446
0.000102449
0.000102459
0.000104777
0.000107181
0.000107224
0.000105242
0.000104736
0.000109267
2.88107e-05
3.3669e-05
4.58266e-05
5.7316e-05
6.71615e-05
7.85126e-05
8.85727e-05
9.6452e-05
0.0001031
0.000108539
0.000112484
0.000115913
0.000118923
0.000121641
0.000124087
0.000126298
0.000128348
0.000130244
0.000132013
0.000133659
0.000135185
0.000136597
0.000137893
0.000139067
0.000140112
0.000140952
0.00014155
0.000141956
0.000142222
0.00014239
0.00014249
0.000142543
0.000142566
0.000142571
0.000142565
0.000142554
0.000142541
0.000142528
0.000142516
0.000142507
0.000142498
0.000142493
0.000142489
0.000142487
0.000142485
0.000142484
0.000142484
0.000142485
0.000142485
0.000142487
0.000142486
0.000142492
0.000142488
0.000142497
0.000142485
0.000142505
0.000142474
0.000142603
0.000142056
0.000135834
0.000131399
0.000137469
0.000138353
0.000137887
0.000136748
0.000135613
0.000134109
0.000132894
0.000131622
0.000130608
0.000129718
0.000128911
0.000128197
0.000127735
0.000127266
0.000126868
0.000126584
0.000126333
0.000126104
0.000125975
0.000125873
0.000125761
0.000125704
0.000125658
0.000125594
0.000125579
0.000125571
0.000125539
0.000125541
0.000125549
0.000125528
0.000125538
0.000125549
0.000125532
0.000125545
0.000125555
0.000125543
0.000125553
0.000125563
0.000125554
0.000125557
0.000125572
0.000125564
0.000125561
0.000125575
0.000125575
0.000125567
0.000125577
0.000125584
0.000125577
0.000125575
0.000125589
0.000125592
0.000125584
0.000125584
0.000125596
0.000125598
0.000125595
0.000125593
0.000125598
0.000125605
0.000125607
0.000125608
0.000125609
0.000125611
0.000125613
0.000125616
0.000125619
0.000125621
0.000125624
0.000125627
0.000125629
0.000125632
0.000125634
0.000125636
0.000125638
0.00012564
0.000125642
0.000125644
0.000125646
0.000125648
0.000125648
0.00012565
0.000125652
0.000125656
0.00012566
0.000125657
0.000125664
0.000125665
0.000125659
0.000125672
0.000125672
0.000125665
0.000125681
0.000125678
0.000125665
0.00012569
0.00012569
0.000125667
0.000125696
0.000125701
0.000125673
0.000125697
0.000125706
0.000125686
0.000125702
0.000125707
0.000125694
0.000125714
0.000125716
0.000125701
0.000125715
0.000125727
0.000125715
0.000125722
0.000125735
0.000125726
0.000125721
0.000125743
0.000125747
0.000125736
0.000125744
0.000125758
0.000125752
0.000125745
0.000125756
0.000125763
0.00012576
0.000125757
0.000125763
0.000125767
0.000125765
0.000125771
0.000125766
0.000125765
0.000125776
0.000125769
0.000125769
0.00012578
0.000125769
0.000125768
0.000125786
0.00012577
0.000125763
0.000125789
0.000125777
0.000125764
0.000125789
0.000125788
0.000125773
0.000125789
0.000125789
0.000125781
0.000125799
0.000125788
0.000125779
0.0001258
0.000125796
0.000125783
0.000125799
0.000125792
0.000125783
0.000125801
0.000125796
0.000125783
0.0001258
0.000125795
0.000125782
0.000125799
0.000125795
0.000125783
0.0001258
0.000125797
0.000125785
0.000125802
0.000125799
0.000125786
0.000125804
0.000125801
0.000125788
0.000125805
0.000125803
0.00012579
0.000125807
0.000125804
0.000125791
0.000125808
0.000125806
0.000125793
0.00012581
0.000125808
0.000125794
0.000125811
0.000125809
0.000125796
0.000125812
0.000125811
0.000125796
0.000125813
0.000125813
0.000125796
0.000125817
0.000125812
0.000125805
0.000125812
0.000125822
0.000125801
0.000125814
0.000125821
0.000125797
0.000125829
0.000125794
0.000125831
0.000125809
0.000125821
0.000125807
0.000125823
0.000125826
0.000125817
0.000125807
0.000125804
0.000125839
0.000125813
0.000125826
0.000125803
0.000125836
0.000125795
0.000125835
0.000125802
0.000125829
0.000125814
0.000125813
0.000125816
0.000125802
0.000127729
0.000132009
0.000130793
0.000127888
0.000125289
0.000128717
3.58154e-05
3.18752e-05
3.92906e-05
5.15017e-05
5.88234e-05
7.08243e-05
8.22016e-05
9.27414e-05
0.000102401
0.000110578
0.000117737
0.000123652
0.000129086
0.000133552
0.00013724
0.000140576
0.000143642
0.000146468
0.000149084
0.000151496
0.000153716
0.000155756
0.000157612
0.000159285
0.000160766
0.000161971
0.000162863
0.000163504
0.000163957
0.00016427
0.000164484
0.000164627
0.000164722
0.000164784
0.000164825
0.000164851
0.00016487
0.000164883
0.000164894
0.000164905
0.000164913
0.000164924
0.000164932
0.000164942
0.00016495
0.000164959
0.000164966
0.000164975
0.000164981
0.000164989
0.000164993
0.000165003
0.000165003
0.000165019
0.000165008
0.000165035
0.000164999
0.000165146
0.00016445
0.000157666
0.000150837
0.000158391
0.000160595
0.000160661
0.000159993
0.000158979
0.000157529
0.000156214
0.000154766
0.000153555
0.000152443
0.000151404
0.000150476
0.000149827
0.000149203
0.000148659
0.000148246
0.000147889
0.000147573
0.000147364
0.000147201
0.000147044
0.000146947
0.000146869
0.000146782
0.000146746
0.000146724
0.000146681
0.000146675
0.000146679
0.000146654
0.00014666
0.000146672
0.000146655
0.000146667
0.000146678
0.000146667
0.000146677
0.000146689
0.000146681
0.000146684
0.0001467
0.000146694
0.00014669
0.000146704
0.000146706
0.000146697
0.000146707
0.000146716
0.00014671
0.000146707
0.000146721
0.000146726
0.000146719
0.000146717
0.00014673
0.000146734
0.000146731
0.000146728
0.000146733
0.000146741
0.000146743
0.000146745
0.000146746
0.000146747
0.00014675
0.000146752
0.000146755
0.000146758
0.000146761
0.000146764
0.000146767
0.00014677
0.000146773
0.000146775
0.000146778
0.00014678
0.000146783
0.000146784
0.000146787
0.000146789
0.000146789
0.000146792
0.000146794
0.000146798
0.000146802
0.000146799
0.000146807
0.000146809
0.000146801
0.000146815
0.000146816
0.000146808
0.000146825
0.000146823
0.000146809
0.000146834
0.000146836
0.000146811
0.000146839
0.000146847
0.000146819
0.000146841
0.000146852
0.000146833
0.000146847
0.000146855
0.000146841
0.00014686
0.000146864
0.000146849
0.000146861
0.000146874
0.000146864
0.000146869
0.000146883
0.000146876
0.000146868
0.00014689
0.000146896
0.000146885
0.000146892
0.000146908
0.000146903
0.000146895
0.000146905
0.000146914
0.000146911
0.000146908
0.000146914
0.000146918
0.000146916
0.000146921
0.000146917
0.000146915
0.000146927
0.00014692
0.000146919
0.000146931
0.00014692
0.000146918
0.000146937
0.000146921
0.000146912
0.000146939
0.000146928
0.000146912
0.000146937
0.000146937
0.000146921
0.000146936
0.000146937
0.000146929
0.000146947
0.000146937
0.000146926
0.000146947
0.000146944
0.000146929
0.000146945
0.000146939
0.000146928
0.000146947
0.000146943
0.000146928
0.000146945
0.000146941
0.000146926
0.000146943
0.00014694
0.000146926
0.000146943
0.00014694
0.000146926
0.000146943
0.000146941
0.000146927
0.000146944
0.000146942
0.000146928
0.000146945
0.000146943
0.000146929
0.000146945
0.000146944
0.00014693
0.000146946
0.000146945
0.000146931
0.000146947
0.000146946
0.000146932
0.000146948
0.000146948
0.000146933
0.000146949
0.000146949
0.000146933
0.000146949
0.000146951
0.000146933
0.000146953
0.00014695
0.000146942
0.000146949
0.00014696
0.000146938
0.000146948
0.000146959
0.000146934
0.000146966
0.000146931
0.000146968
0.000146947
0.000146959
0.000146945
0.000146958
0.000146967
0.000146955
0.000146944
0.00014694
0.000146978
0.000146955
0.000146962
0.000146942
0.000146975
0.000146934
0.000146972
0.000146941
0.000146967
0.000146955
0.000146953
0.000146957
0.000146921
0.000145716
0.000154195
0.000152081
0.000148809
0.000146516
0.000146432
5.17534e-05
3.49713e-05
3.50189e-05
4.26135e-05
5.38011e-05
6.35263e-05
7.25082e-05
8.36176e-05
9.48577e-05
0.000105014
0.000114714
0.000122992
0.000130697
0.000137278
0.0001432
0.000148273
0.000152944
0.000157412
0.000161308
0.000164635
0.000167686
0.000170481
0.000173017
0.000175304
0.000177356
0.000179081
0.000180409
0.000181418
0.000182179
0.000182753
0.000183185
0.000183513
0.000183764
0.000183957
0.00018411
0.000184232
0.000184332
0.000184416
0.000184487
0.00018455
0.000184602
0.000184652
0.000184694
0.000184734
0.000184766
0.000184798
0.000184824
0.00018485
0.000184869
0.000184891
0.000184906
0.000184927
0.000184936
0.00018496
0.000184955
0.00018499
0.000184956
0.000185113
0.000184298
0.0001773
0.000170585
0.00017569
0.000180151
0.000180665
0.000180469
0.000179646
0.000178392
0.000177095
0.000175606
0.000174291
0.000173037
0.000171827
0.000170734
0.000169923
0.000169161
0.000168481
0.000167948
0.000167486
0.000167082
0.000166792
0.000166562
0.000166354
0.000166212
0.000166096
0.000165984
0.000165922
0.00016588
0.000165825
0.000165807
0.000165802
0.000165773
0.000165775
0.000165784
0.000165767
0.000165776
0.000165788
0.000165778
0.000165787
0.0001658
0.000165794
0.000165797
0.000165814
0.000165808
0.000165805
0.000165819
0.000165822
0.000165814
0.000165823
0.000165834
0.000165829
0.000165826
0.000165839
0.000165846
0.00016584
0.000165837
0.000165849
0.000165855
0.000165852
0.000165849
0.000165854
0.000165862
0.000165866
0.000165867
0.000165868
0.00016587
0.000165872
0.000165874
0.000165877
0.00016588
0.000165883
0.000165887
0.00016589
0.000165893
0.000165896
0.000165899
0.000165902
0.000165905
0.000165907
0.000165909
0.000165912
0.000165914
0.000165915
0.000165918
0.00016592
0.000165924
0.000165928
0.000165925
0.000165933
0.000165935
0.000165928
0.000165941
0.000165943
0.000165935
0.000165952
0.000165951
0.000165936
0.00016596
0.000165964
0.000165939
0.000165965
0.000165975
0.000165949
0.000165967
0.000165979
0.000165963
0.000165976
0.000165984
0.00016597
0.000165988
0.000165994
0.00016598
0.000165989
0.000166003
0.000165994
0.000165998
0.000166013
0.000166006
0.000165998
0.000166018
0.000166025
0.000166016
0.000166021
0.000166037
0.000166034
0.000166025
0.000166034
0.000166044
0.000166042
0.000166038
0.000166043
0.000166048
0.000166046
0.000166051
0.000166048
0.000166045
0.000166056
0.00016605
0.000166048
0.00016606
0.00016605
0.000166046
0.000166065
0.00016605
0.00016604
0.000166066
0.000166057
0.00016604
0.000166063
0.000166064
0.000166048
0.000166062
0.000166063
0.000166054
0.000166071
0.000166063
0.00016605
0.00016607
0.000166067
0.000166052
0.000166067
0.000166062
0.00016605
0.000166068
0.000166065
0.00016605
0.000166065
0.000166062
0.000166047
0.000166062
0.000166059
0.000166044
0.00016606
0.000166058
0.000166043
0.000166059
0.000166057
0.000166043
0.000166059
0.000166057
0.000166043
0.000166058
0.000166058
0.000166043
0.000166058
0.000166058
0.000166043
0.000166059
0.000166058
0.000166043
0.000166059
0.000166059
0.000166044
0.000166059
0.00016606
0.000166045
0.00016606
0.000166061
0.000166044
0.00016606
0.000166063
0.000166045
0.000166064
0.000166062
0.000166053
0.000166059
0.000166071
0.00016605
0.000166057
0.000166071
0.000166046
0.000166076
0.000166043
0.000166079
0.000166059
0.000166071
0.000166058
0.000166067
0.00016608
0.000166066
0.000166056
0.00016605
0.00016609
0.000166069
0.000166074
0.000166054
0.000166087
0.000166048
0.000166083
0.000166055
0.000166079
0.000166069
0.000166066
0.000166073
0.000166017
0.00016128
0.000173355
0.000171193
0.000167996
0.000167683
0.000165689
8.18322e-05
4.66081e-05
3.7566e-05
3.83387e-05
4.58453e-05
5.7262e-05
6.41754e-05
7.42781e-05
8.43406e-05
9.49645e-05
0.000106009
0.00011597
0.000125588
0.000134121
0.000142112
0.000149101
0.000155357
0.000161287
0.000166594
0.000171449
0.000175781
0.000179517
0.000182789
0.00018559
0.000188901
0.000192392
0.000194309
0.000195828
0.000197035
0.000197997
0.000198768
0.00019939
0.000199896
0.000200311
0.000200654
0.000200941
0.000201183
0.00020139
0.000201566
0.00020172
0.000201851
0.00020197
0.00020207
0.000202161
0.000202237
0.000202308
0.000202365
0.000202421
0.000202464
0.000202507
0.000202541
0.000202579
0.000202602
0.000202639
0.000202645
0.000202691
0.000202664
0.000202826
0.000201937
0.000194962
0.000191133
0.000193189
0.000197495
0.000198322
0.000198517
0.000197898
0.000196896
0.000195686
0.00019426
0.000192923
0.000191607
0.000190294
0.000189097
0.000188159
0.000187288
0.000186496
0.000185858
0.000185305
0.000184818
0.000184451
0.000184155
0.000183897
0.000183707
0.000183551
0.000183411
0.000183322
0.000183257
0.000183188
0.000183156
0.000183141
0.000183106
0.000183102
0.000183107
0.000183088
0.000183096
0.000183106
0.000183098
0.000183106
0.000183118
0.000183113
0.000183116
0.000183133
0.00018313
0.000183127
0.00018314
0.000183145
0.000183138
0.000183147
0.000183158
0.000183155
0.000183152
0.000183164
0.000183172
0.000183167
0.000183165
0.000183175
0.000183183
0.000183181
0.000183178
0.000183182
0.00018319
0.000183195
0.000183197
0.000183198
0.000183199
0.000183201
0.000183203
0.000183206
0.000183209
0.000183212
0.000183216
0.000183219
0.000183223
0.000183226
0.000183229
0.000183232
0.000183235
0.000183238
0.00018324
0.000183243
0.000183245
0.000183247
0.00018325
0.000183252
0.000183256
0.00018326
0.000183257
0.000183264
0.000183267
0.00018326
0.000183272
0.000183275
0.000183268
0.000183284
0.000183284
0.000183269
0.000183292
0.000183297
0.000183273
0.000183296
0.000183307
0.000183283
0.000183299
0.000183311
0.000183297
0.000183309
0.000183317
0.000183304
0.00018332
0.000183327
0.000183314
0.000183322
0.000183335
0.000183327
0.00018333
0.000183345
0.00018334
0.000183331
0.00018335
0.000183358
0.000183349
0.000183353
0.000183369
0.000183367
0.000183358
0.000183366
0.000183376
0.000183375
0.000183371
0.000183375
0.000183379
0.000183378
0.000183383
0.000183379
0.000183376
0.000183386
0.000183381
0.000183378
0.000183389
0.00018338
0.000183375
0.000183393
0.00018338
0.000183369
0.000183392
0.000183385
0.000183368
0.000183389
0.000183391
0.000183374
0.000183387
0.000183388
0.000183379
0.000183395
0.000183387
0.000183375
0.000183392
0.00018339
0.000183375
0.000183388
0.000183383
0.000183371
0.000183387
0.000183384
0.00018337
0.000183384
0.000183381
0.000183365
0.000183379
0.000183376
0.000183361
0.000183375
0.000183373
0.000183358
0.000183373
0.000183371
0.000183357
0.000183371
0.00018337
0.000183355
0.00018337
0.000183369
0.000183354
0.000183369
0.000183369
0.000183354
0.000183368
0.000183368
0.000183353
0.000183368
0.000183368
0.000183353
0.000183368
0.000183369
0.000183354
0.000183367
0.000183369
0.000183353
0.000183367
0.000183371
0.000183354
0.000183371
0.00018337
0.000183361
0.000183367
0.000183378
0.000183358
0.000183363
0.000183378
0.000183355
0.000183383
0.000183352
0.000183386
0.000183368
0.000183379
0.000183367
0.000183375
0.000183389
0.000183374
0.000183366
0.000183358
0.000183398
0.000183378
0.000183383
0.000183364
0.000183396
0.000183359
0.000183391
0.000183365
0.000183388
0.000183379
0.000183376
0.000183386
0.000183317
0.000176933
0.000190644
0.000188503
0.000185545
0.000185267
0.000186406
0.000135438
6.93482e-05
4.95742e-05
4.15657e-05
4.17524e-05
4.85994e-05
5.92111e-05
6.81813e-05
7.52321e-05
8.46239e-05
9.47878e-05
0.000105083
0.00011578
0.000125678
0.000135292
0.000144092
0.000152063
0.000159263
0.000165884
0.000172168
0.000177718
0.000182427
0.000186741
0.000191061
0.000196964
0.000202135
0.000204775
0.000206945
0.000208737
0.000210222
0.000211457
0.00021249
0.000213356
0.000214086
0.000214705
0.000215231
0.00021568
0.000216066
0.000216397
0.000216686
0.000216933
0.000217152
0.000217338
0.000217504
0.000217644
0.00021777
0.000217876