/*--------------------------------*- C++ -*----------------------------------*\
| =========                 |                                                 |
| \\      /  F ield         | foam-extend: Open Source CFD                    |
|  \\    /   O peration     | Version:     3.2                                |
|   \\  /    A nd           | Web:         http://www.foam-extend.org         |
|    \\/     M anipulation  | For copyright notice see file Copyright         |
\*---------------------------------------------------------------------------*/
FoamFile
{
    version     2.0;
    format      ascii;
    class       areaScalarField;
    location    "50";
    object      Fi;
}
// * * * * * * * * * * * * * * * * * * * * * * * * * * * * * * * * * * * * * //

dimensions      [0 1 -1 0 0 0 0];

internalField   nonuniform List<scalar> 
300
(
-7.48333e-05
-3.45816e-05
-1.94212e-05
-1.95907e-05
-1.83263e-05
-1.83499e-05
-1.77568e-05
-1.77345e-05
-1.75217e-05
-1.7604e-05
-1.76208e-05
-1.77599e-05
-1.78968e-05
-1.81176e-05
-1.83239e-05
-1.85873e-05
-1.8856e-05
-1.91581e-05
-1.94593e-05
-1.9793e-05
-2.01449e-05
-2.05096e-05
-2.08863e-05
-2.12705e-05
-2.16623e-05
-2.20583e-05
-2.2428e-05
-2.27511e-05
-2.30256e-05
-2.3256e-05
-2.34495e-05
-2.361e-05
-2.3745e-05
-2.3856e-05
-2.395e-05
-2.40265e-05
-2.40924e-05
-2.41451e-05
-2.41922e-05
-2.42285e-05
-2.42631e-05
-2.42877e-05
-2.43144e-05
-2.43308e-05
-2.43521e-05
-2.43619e-05
-2.43794e-05
-2.43827e-05
-2.44028e-05
-2.43945e-05
-2.44279e-05
-2.43905e-05
-2.44623e-05
-2.43581e-05
-2.45353e-05
-2.42583e-05
-2.47155e-05
-2.40321e-05
-2.53937e-05
-3.76872e-06
4.7166e-06
5.56729e-06
5.8476e-06
5.98461e-06
6.05646e-06
6.09888e-06
6.12247e-06
6.13818e-06
6.14667e-06
6.15448e-06
6.11496e-06
6.1639e-06
6.26727e-06
6.17963e-06
6.09064e-06
6.16139e-06
6.14378e-06
6.10012e-06
6.18345e-06
6.1935e-06
6.12744e-06
6.16068e-06
6.16169e-06
6.12286e-06
6.16557e-06
6.17139e-06
6.13663e-06
6.17203e-06
6.17243e-06
6.13956e-06
6.17276e-06
6.17154e-06
6.14081e-06
6.17191e-06
6.16883e-06
6.14306e-06
6.16867e-06
6.16903e-06
6.14379e-06
6.16299e-06
6.1739e-06
6.14726e-06
6.15572e-06
6.1755e-06
6.15472e-06
6.14811e-06
6.1719e-06
6.16815e-06
6.14746e-06
6.15838e-06
6.17646e-06
6.16269e-06
6.14797e-06
6.16259e-06
6.17596e-06
6.16382e-06
6.15181e-06
6.15899e-06
6.16931e-06
6.1689e-06
6.16148e-06
6.15814e-06
6.1594e-06
6.16118e-06
6.16301e-06
6.16449e-06
6.16551e-06
6.16625e-06
6.16696e-06
6.16798e-06
6.16829e-06
6.16838e-06
6.16879e-06
6.16931e-06
6.16977e-06
6.17003e-06
6.17026e-06
6.1707e-06
6.1714e-06
6.17237e-06
6.17263e-06
6.1737e-06
6.17239e-06
6.17516e-06
6.17601e-06
6.17179e-06
6.18086e-06
6.17379e-06
6.16998e-06
6.18991e-06
6.17491e-06
6.17011e-06
6.19502e-06
6.17231e-06
6.16886e-06
6.20827e-06
6.17383e-06
6.15869e-06
6.216e-06
6.18429e-06
6.15217e-06
6.21312e-06
6.19664e-06
6.15968e-06
6.20392e-06
6.19493e-06
6.17507e-06
6.20864e-06
6.18962e-06
6.16764e-06
6.20938e-06
6.20882e-06
6.17298e-06
6.19515e-06
6.20803e-06
6.17781e-06
6.18927e-06
6.22108e-06
6.19985e-06
6.18275e-06
6.21589e-06
6.22222e-06
6.19182e-06
6.19608e-06
6.22254e-06
6.21715e-06
6.2016e-06
6.20717e-06
6.22074e-06
6.22011e-06
6.21467e-06
6.22119e-06
6.2173e-06
6.22406e-06
6.23631e-06
6.22069e-06
6.22901e-06
6.24092e-06
6.21762e-06
6.23179e-06
6.24904e-06
6.21332e-06
6.23135e-06
6.26437e-06
6.2209e-06
6.22777e-06
6.27373e-06
6.23582e-06
6.22577e-06
6.26937e-06
6.25009e-06
6.24374e-06
6.2689e-06
6.24406e-06
6.25253e-06
6.28872e-06
6.25535e-06
6.25058e-06
6.28812e-06
6.26681e-06
6.26796e-06
6.3011e-06
6.27185e-06
6.26797e-06
6.30312e-06
6.27699e-06
6.27423e-06
6.31038e-06
6.2852e-06
6.28183e-06
6.31833e-06
6.29346e-06
6.28953e-06
6.3264e-06
6.30179e-06
6.29731e-06
6.3347e-06
6.31037e-06
6.30509e-06
6.34287e-06
6.31906e-06
6.31314e-06
6.35107e-06
6.32762e-06
6.32113e-06
6.35929e-06
6.33612e-06
6.32885e-06
6.36726e-06
6.34441e-06
6.33641e-06
6.37494e-06
6.35215e-06
6.34395e-06
6.3816e-06
6.36045e-06
6.34952e-06
6.3894e-06
6.36716e-06
6.3545e-06
6.39524e-06
6.37159e-06
6.36703e-06
6.39412e-06
6.38501e-06
6.35801e-06
6.40411e-06
6.39836e-06
6.36417e-06
6.39867e-06
6.38027e-06
6.40902e-06
6.3827e-06
6.38772e-06
6.39003e-06
6.40955e-06
6.4024e-06
6.3717e-06
6.39515e-06
6.40683e-06
6.41402e-06
6.38342e-06
6.38913e-06
6.4034e-06
6.40579e-06
6.4007e-06
6.39904e-06
6.40276e-06
6.40025e-06
6.40326e-06
6.40185e-06
6.40181e-06
6.40464e-06
6.3979e-06
6.31368e-06
5.66184e-06
-2.74571e-06
-2.73888e-05
-2.31946e-05
-2.39445e-05
)
;

boundaryField
{
    inlet
    {
        type            calculated;
        value           uniform -3.74045e-05;
    }
    outlet
    {
        type            calculated;
        value           uniform -1.00216e-05;
    }
    sideWall
    {
        type            empty;
    }
}


// ************************************************************************* //
