/*--------------------------------*- C++ -*----------------------------------*\
| =========                 |                                                 |
| \\      /  F ield         | foam-extend: Open Source CFD                    |
|  \\    /   O peration     | Version:     3.2                                |
|   \\  /    A nd           | Web:         http://www.foam-extend.org         |
|    \\/     M anipulation  | For copyright notice see file Copyright         |
\*---------------------------------------------------------------------------*/
FoamFile
{
    version     2.0;
    format      ascii;
    class       areaScalarField;
    location    "50";
    object      Fi1;
}
// * * * * * * * * * * * * * * * * * * * * * * * * * * * * * * * * * * * * * //

dimensions      [0 1 -1 0 0 0 0];

internalField   nonuniform List<scalar> 
300
(
-7.48333e-05
-3.45816e-05
-1.94212e-05
-1.95907e-05
-1.83263e-05
-1.83499e-05
-1.77568e-05
-1.77345e-05
-1.75217e-05
-1.7604e-05
-1.76208e-05
-1.77599e-05
-1.78968e-05
-1.81176e-05
-1.83239e-05
-1.85873e-05
-1.8856e-05
-1.91581e-05
-1.94593e-05
-1.9793e-05
-2.01449e-05
-2.05096e-05
-2.08863e-05
-2.12705e-05
-2.16623e-05
-2.20583e-05
-2.2428e-05
-2.27511e-05
-2.30256e-05
-2.3256e-05
-2.34495e-05
-2.361e-05
-2.3745e-05
-2.3856e-05
-2.395e-05
-2.40265e-05
-2.40924e-05
-2.41451e-05
-2.41922e-05
-2.42285e-05
-2.42631e-05
-2.42877e-05
-2.43144e-05
-2.43308e-05
-2.43521e-05
-2.43619e-05
-2.43794e-05
-2.43827e-05
-2.44028e-05
-2.43945e-05
-2.44279e-05
-2.43905e-05
-2.44623e-05
-2.43581e-05
-2.45353e-05
-2.42583e-05
-2.47155e-05
-2.40321e-05
-2.53938e-05
-1.4215e-05
-4.71544e-06
-5.55828e-06
-5.83023e-06
-5.98759e-06
-6.09287e-06
-6.17015e-06
-6.23264e-06
-6.27721e-06
-6.31702e-06
-6.30473e-06
-6.52873e-06
-6.42868e-06
-6.15172e-06
-6.33968e-06
-6.56699e-06
-6.35424e-06
-6.37678e-06
-6.51998e-06
-6.32048e-06
-6.28055e-06
-6.46213e-06
-6.3715e-06
-6.35163e-06
-6.46805e-06
-6.3655e-06
-6.34114e-06
-6.44601e-06
-6.3592e-06
-6.3487e-06
-6.44576e-06
-6.36249e-06
-6.35735e-06
-6.44873e-06
-6.36756e-06
-6.3699e-06
-6.44587e-06
-6.37969e-06
-6.37509e-06
-6.44434e-06
-6.40062e-06
-6.36837e-06
-6.43787e-06
-6.42231e-06
-6.37053e-06
-6.42227e-06
-6.44407e-06
-6.38771e-06
-6.39535e-06
-6.44846e-06
-6.42542e-06
-6.38402e-06
-6.41511e-06
-6.45475e-06
-6.42204e-06
-6.39189e-06
-6.4198e-06
-6.45104e-06
-6.4337e-06
-6.41343e-06
-6.41617e-06
-6.43433e-06
-6.44095e-06
-6.43988e-06
-6.43686e-06
-6.43644e-06
-6.43471e-06
-6.43613e-06
-6.43578e-06
-6.43797e-06
-6.43702e-06
-6.43947e-06
-6.44008e-06
-6.44283e-06
-6.44322e-06
-6.44529e-06
-6.44586e-06
-6.44922e-06
-6.44954e-06
-6.45203e-06
-6.45109e-06
-6.45481e-06
-6.45321e-06
-6.45998e-06
-6.45679e-06
-6.45516e-06
-6.47158e-06
-6.45153e-06
-6.4659e-06
-6.48853e-06
-6.43709e-06
-6.47472e-06
-6.49789e-06
-6.43384e-06
-6.48776e-06
-6.51418e-06
-6.41255e-06
-6.49135e-06
-6.54935e-06
-6.40585e-06
-6.47437e-06
-6.57663e-06
-6.42345e-06
-6.45751e-06
-6.56936e-06
-6.45336e-06
-6.47411e-06
-6.54213e-06
-6.45394e-06
-6.49529e-06
-6.56496e-06
-6.46615e-06
-6.46252e-06
-6.5593e-06
-6.509e-06
-6.47273e-06
-6.55358e-06
-6.53498e-06
-6.46152e-06
-6.51244e-06
-6.56445e-06
-6.4912e-06
-6.47528e-06
-6.55069e-06
-6.54829e-06
-6.489e-06
-6.50749e-06
-6.54761e-06
-6.5394e-06
-6.51287e-06
-6.51966e-06
-6.53995e-06
-6.52617e-06
-6.54037e-06
-6.53779e-06
-6.50614e-06
-6.55311e-06
-6.54171e-06
-6.50889e-06
-6.57304e-06
-6.55145e-06
-6.50114e-06
-6.59675e-06
-6.56928e-06
-6.48153e-06
-6.59424e-06
-6.59492e-06
-6.47784e-06
-6.57338e-06
-6.61406e-06
-6.50566e-06
-6.56007e-06
-6.59018e-06
-6.52261e-06
-6.59116e-06
-6.58879e-06
-6.4973e-06
-6.58309e-06
-6.61084e-06
-6.51664e-06
-6.57807e-06
-6.59238e-06
-6.5076e-06
-6.58326e-06
-6.60875e-06
-6.51905e-06
-6.58778e-06
-6.61111e-06
-6.52021e-06
-6.58664e-06
-6.61179e-06
-6.52019e-06
-6.58547e-06
-6.61221e-06
-6.51977e-06
-6.58399e-06
-6.61226e-06
-6.51864e-06
-6.5817e-06
-6.61202e-06
-6.5175e-06
-6.57887e-06
-6.6108e-06
-6.51585e-06
-6.57591e-06
-6.60917e-06
-6.51356e-06
-6.5724e-06
-6.60739e-06
-6.51114e-06
-6.56853e-06
-6.60533e-06
-6.50822e-06
-6.56534e-06
-6.6018e-06
-6.50701e-06
-6.55936e-06
-6.60149e-06
-6.50333e-06
-6.55299e-06
-6.60563e-06
-6.49583e-06
-6.562e-06
-6.57998e-06
-6.51427e-06
-6.53475e-06
-6.60749e-06
-6.51169e-06
-6.49919e-06
-6.61866e-06
-6.49976e-06
-6.58588e-06
-6.4885e-06
-6.57171e-06
-6.54916e-06
-6.5536e-06
-6.51224e-06
-6.51934e-06
-6.59561e-06
-6.54824e-06
-6.51639e-06
-6.51511e-06
-6.55892e-06
-6.58034e-06
-6.50996e-06
-6.55222e-06
-6.51786e-06
-6.58159e-06
-6.50821e-06
-6.5814e-06
-6.51961e-06
-6.55019e-06
-6.57604e-06
-6.47512e-06
-6.66459e-06
-6.27874e-06
-5.72233e-06
-1.82124e-05
-2.73888e-05
-2.31947e-05
-2.39445e-05
)
;

boundaryField
{
    inlet
    {
        type            calculated;
        value           uniform -3.74045e-05;
    }
    outlet
    {
        type            calculated;
        value           uniform -1.00216e-05;
    }
    sideWall
    {
        type            empty;
    }
}


// ************************************************************************* //
