/*--------------------------------*- C++ -*----------------------------------*\
| =========                 |                                                 |
| \\      /  F ield         | foam-extend: Open Source CFD                    |
|  \\    /   O peration     | Version:     3.2                                |
|   \\  /    A nd           | Web:         http://www.foam-extend.org         |
|    \\/     M anipulation  | For copyright notice see file Copyright         |
\*---------------------------------------------------------------------------*/
FoamFile
{
    version     2.0;
    format      ascii;
    class       areaScalarField;
    location    "50";
    object      Fi2;
}
// * * * * * * * * * * * * * * * * * * * * * * * * * * * * * * * * * * * * * //

dimensions      [0 1 -1 0 0 0 0];

internalField   nonuniform List<scalar> 
300
(
-7.48333e-05
-3.45816e-05
-1.94212e-05
-1.95907e-05
-1.83263e-05
-1.83499e-05
-1.77568e-05
-1.77345e-05
-1.75217e-05
-1.7604e-05
-1.76208e-05
-1.77599e-05
-1.78968e-05
-1.81176e-05
-1.83239e-05
-1.85873e-05
-1.8856e-05
-1.91581e-05
-1.94593e-05
-1.9793e-05
-2.01449e-05
-2.05096e-05
-2.08863e-05
-2.12705e-05
-2.16623e-05
-2.20583e-05
-2.2428e-05
-2.27511e-05
-2.30256e-05
-2.3256e-05
-2.34495e-05
-2.361e-05
-2.3745e-05
-2.3856e-05
-2.395e-05
-2.40265e-05
-2.40924e-05
-2.41451e-05
-2.41922e-05
-2.42285e-05
-2.42631e-05
-2.42877e-05
-2.43144e-05
-2.43308e-05
-2.43521e-05
-2.43619e-05
-2.43794e-05
-2.43827e-05
-2.44028e-05
-2.43945e-05
-2.44279e-05
-2.43905e-05
-2.44623e-05
-2.43581e-05
-2.45353e-05
-2.42583e-05
-2.47155e-05
-2.40321e-05
-2.53937e-05
-3.76872e-06
4.71661e-06
5.5673e-06
5.84761e-06
5.9846e-06
6.05644e-06
6.09885e-06
6.12243e-06
6.13814e-06
6.14664e-06
6.15443e-06
6.11486e-06
6.16547e-06
6.26739e-06
6.17797e-06
6.09051e-06
6.16186e-06
6.14309e-06
6.10065e-06
6.18435e-06
6.19276e-06
6.12713e-06
6.1611e-06
6.16124e-06
6.12287e-06
6.16607e-06
6.17102e-06
6.13669e-06
6.17233e-06
6.17198e-06
6.13964e-06
6.17304e-06
6.17118e-06
6.14084e-06
6.1722e-06
6.16854e-06
6.14305e-06
6.1689e-06
6.16873e-06
6.14375e-06
6.16332e-06
6.17375e-06
6.14707e-06
6.15597e-06
6.17549e-06
6.15449e-06
6.14829e-06
6.17208e-06
6.16791e-06
6.14737e-06
6.1587e-06
6.1765e-06
6.16239e-06
6.148e-06
6.1629e-06
6.17598e-06
6.16359e-06
6.15178e-06
6.15921e-06
6.16942e-06
6.16883e-06
6.16141e-06
6.15816e-06
6.15946e-06
6.16123e-06
6.16307e-06
6.16454e-06
6.16556e-06
6.16632e-06
6.167e-06
6.16799e-06
6.16836e-06
6.16847e-06
6.16882e-06
6.16937e-06
6.16984e-06
6.17008e-06
6.17031e-06
6.17077e-06
6.17147e-06
6.17244e-06
6.1727e-06
6.17377e-06
6.17249e-06
6.17526e-06
6.17604e-06
6.17191e-06
6.18095e-06
6.1738e-06
6.17019e-06
6.19e-06
6.17486e-06
6.1704e-06
6.19508e-06
6.17221e-06
6.16932e-06
6.20838e-06
6.17352e-06
6.15916e-06
6.21633e-06
6.18388e-06
6.15249e-06
6.21363e-06
6.19627e-06
6.1598e-06
6.20442e-06
6.19487e-06
6.1753e-06
6.20891e-06
6.18942e-06
6.16805e-06
6.20985e-06
6.20849e-06
6.1731e-06
6.19572e-06
6.20799e-06
6.17777e-06
6.18991e-06
6.22136e-06
6.19967e-06
6.18312e-06
6.21643e-06
6.22214e-06
6.19178e-06
6.19662e-06
6.22296e-06
6.21714e-06
6.20172e-06
6.20763e-06
6.22106e-06
6.22029e-06
6.21498e-06
6.22145e-06
6.21755e-06
6.2245e-06
6.23659e-06
6.22088e-06
6.22944e-06
6.2411e-06
6.21783e-06
6.23237e-06
6.24919e-06
6.21345e-06
6.23212e-06
6.26461e-06
6.22087e-06
6.22861e-06
6.27412e-06
6.23572e-06
6.22648e-06
6.26994e-06
6.25023e-06
6.24429e-06
6.26929e-06
6.24429e-06
6.25335e-06
6.28911e-06
6.25542e-06
6.25139e-06
6.28865e-06
6.26707e-06
6.26878e-06
6.30151e-06
6.27202e-06
6.26881e-06
6.30361e-06
6.27724e-06
6.27511e-06
6.31089e-06
6.28548e-06
6.28271e-06
6.31888e-06
6.29375e-06
6.29042e-06
6.32699e-06
6.30209e-06
6.29821e-06
6.33532e-06
6.31067e-06
6.30598e-06
6.34352e-06
6.31937e-06
6.31403e-06
6.35174e-06
6.32791e-06
6.322e-06
6.35996e-06
6.33641e-06
6.3297e-06
6.36794e-06
6.34467e-06
6.33723e-06
6.37559e-06
6.35238e-06
6.34473e-06
6.38224e-06
6.36064e-06
6.35023e-06
6.38999e-06
6.36729e-06
6.35517e-06
6.3958e-06
6.37173e-06
6.36761e-06
6.39464e-06
6.38507e-06
6.35853e-06
6.4047e-06
6.39826e-06
6.36439e-06
6.39913e-06
6.38057e-06
6.40924e-06
6.38272e-06
6.38793e-06
6.39045e-06
6.40977e-06
6.40216e-06
6.37171e-06
6.39563e-06
6.40711e-06
6.41386e-06
6.38323e-06
6.38936e-06
6.40363e-06
6.40577e-06
6.40064e-06
6.39905e-06
6.40277e-06
6.40024e-06
6.40327e-06
6.40182e-06
6.40181e-06
6.40462e-06
6.39786e-06
6.31369e-06
5.66186e-06
-2.74607e-06
-2.73888e-05
-2.31948e-05
-2.39446e-05
)
;

boundaryField
{
    inlet
    {
        type            calculated;
        value           uniform -3.74045e-05;
    }
    outlet
    {
        type            calculated;
        value           uniform -1.00216e-05;
    }
    sideWall
    {
        type            empty;
    }
}


// ************************************************************************* //
