/*--------------------------------*- C++ -*----------------------------------*\
| =========                 |                                                 |
| \\      /  F ield         | foam-extend: Open Source CFD                    |
|  \\    /   O peration     | Version:     3.2                                |
|   \\  /    A nd           | Web:         http://www.foam-extend.org         |
|    \\/     M anipulation  | For copyright notice see file Copyright         |
\*---------------------------------------------------------------------------*/
FoamFile
{
    version     2.0;
    format      ascii;
    class       areaScalarField;
    location    "50";
    object      He;
}
// * * * * * * * * * * * * * * * * * * * * * * * * * * * * * * * * * * * * * //

dimensions      [0 0 0 0 0 0 0];

internalField   nonuniform List<scalar> 
300
(
0
0
0
0
0
0
0
0
0
0
0
0
0
0
0
0
0
0
0
0
0
0
0
0
0
0
0
0
0
0
0
0
0
0
0
0
0
0
0
0
0
0
0
0
0
0
0
0
0
0
0
0
0
0
0
0
0
0
0
1.17877e-06
3.74723e-06
5.41559e-06
5.80159e-06
5.97457e-06
6.08587e-06
6.16645e-06
6.22816e-06
6.27602e-06
6.30399e-06
6.3638e-06
6.44772e-06
6.38445e-06
6.26795e-06
6.34952e-06
6.45698e-06
6.41306e-06
6.40695e-06
6.43431e-06
6.36037e-06
6.33593e-06
6.39408e-06
6.38919e-06
6.3857e-06
6.41331e-06
6.38505e-06
6.37345e-06
6.39809e-06
6.37828e-06
6.37559e-06
6.40068e-06
6.38202e-06
6.38148e-06
6.4056e-06
6.38844e-06
6.38831e-06
6.41033e-06
6.39509e-06
6.39355e-06
6.4161e-06
6.40349e-06
6.39381e-06
6.4166e-06
6.41326e-06
6.39641e-06
6.41479e-06
6.42453e-06
6.40371e-06
6.40672e-06
6.42942e-06
6.42083e-06
6.40214e-06
6.41725e-06
6.43666e-06
6.42268e-06
6.40641e-06
6.42063e-06
6.4389e-06
6.43297e-06
6.41918e-06
6.42002e-06
6.43144e-06
6.43902e-06
6.43939e-06
6.43751e-06
6.43611e-06
6.4355e-06
6.43569e-06
6.43641e-06
6.43719e-06
6.43787e-06
6.43901e-06
6.44062e-06
6.44224e-06
6.44364e-06
6.44492e-06
6.44656e-06
6.44846e-06
6.45008e-06
6.45117e-06
6.45225e-06
6.45348e-06
6.4553e-06
6.45749e-06
6.45718e-06
6.45967e-06
6.46246e-06
6.46013e-06
6.46796e-06
6.47001e-06
6.45936e-06
6.4711e-06
6.47608e-06
6.46333e-06
6.48088e-06
6.48217e-06
6.45766e-06
6.48615e-06
6.49898e-06
6.45885e-06
6.4828e-06
6.51277e-06
6.47026e-06
6.47696e-06
6.5124e-06
6.48755e-06
6.48593e-06
6.50308e-06
6.48632e-06
6.50237e-06
6.52284e-06
6.48995e-06
6.48762e-06
6.52253e-06
6.51251e-06
6.50201e-06
6.52872e-06
6.52127e-06
6.49262e-06
6.51271e-06
6.53313e-06
6.50553e-06
6.49811e-06
6.53124e-06
6.53407e-06
6.50845e-06
6.5129e-06
6.53553e-06
6.53482e-06
6.5212e-06
6.52303e-06
6.53143e-06
6.53316e-06
6.53618e-06
6.53053e-06
6.5258e-06
6.53852e-06
6.53636e-06
6.53313e-06
6.5516e-06
6.54427e-06
6.53762e-06
6.56598e-06
6.55421e-06
6.53164e-06
6.56623e-06
6.56548e-06
6.531e-06
6.55966e-06
6.57679e-06
6.54636e-06
6.554e-06
6.56576e-06
6.55664e-06
6.57343e-06
6.56651e-06
6.54162e-06
6.56858e-06
6.58035e-06
6.55555e-06
6.56629e-06
6.56761e-06
6.54771e-06
6.57072e-06
6.57995e-06
6.55866e-06
6.57643e-06
6.58255e-06
6.55954e-06
6.57632e-06
6.5826e-06
6.55941e-06
6.57583e-06
6.58242e-06
6.55894e-06
6.575e-06
6.58179e-06
6.55781e-06
6.57352e-06
6.58081e-06
6.55648e-06
6.57151e-06
6.57908e-06
6.5546e-06
6.56921e-06
6.57695e-06
6.55217e-06
6.56644e-06
6.57458e-06
6.54955e-06
6.56338e-06
6.57185e-06
6.54678e-06
6.56017e-06
6.56899e-06
6.5438e-06
6.5568e-06
6.56642e-06
6.54028e-06
6.55374e-06
6.56502e-06
6.53982e-06
6.54995e-06
6.55906e-06
6.53581e-06
6.54781e-06
6.56535e-06
6.53252e-06
6.53218e-06
6.55907e-06
6.55102e-06
6.54001e-06
6.53365e-06
6.54527e-06
6.55591e-06
6.54215e-06
6.52435e-06
6.53663e-06
6.5647e-06
6.55212e-06
6.52403e-06
6.52638e-06
6.55332e-06
6.55739e-06
6.53812e-06
6.53307e-06
6.54238e-06
6.54731e-06
6.54485e-06
6.54765e-06
6.5427e-06
6.54901e-06
6.54435e-06
6.54772e-06
6.52076e-06
6.23613e-06
4.43075e-06
1.43045e-06
0
0
0
)
;

boundaryField
{
    inlet
    {
        type            calculated;
        value           uniform 0;
    }
    outlet
    {
        type            calculated;
        value           uniform 0;
    }
    sideWall
    {
        type            empty;
    }
}


// ************************************************************************* //
