/*--------------------------------*- C++ -*----------------------------------*\
| =========                 |                                                 |
| \\      /  F ield         | foam-extend: Open Source CFD                    |
|  \\    /   O peration     | Version:     3.2                                |
|   \\  /    A nd           | Web:         http://www.foam-extend.org         |
|    \\/     M anipulation  | For copyright notice see file Copyright         |
\*---------------------------------------------------------------------------*/
FoamFile
{
    version     2.0;
    format      ascii;
    class       volScalarField;
    location    "50";
    object      Ktemp;
}
// * * * * * * * * * * * * * * * * * * * * * * * * * * * * * * * * * * * * * //

dimensions      [0 2 -2 0 0 0 0];

internalField   nonuniform List<scalar> 
5400
(
0.0289944
0.0185067
0.0137096
0.0137677
0.0133316
0.0133398
0.0131327
0.0131249
0.0130503
0.0130792
0.0130851
0.0131339
0.0131818
0.0132589
0.0133307
0.0134222
0.0135151
0.0136193
0.0137227
0.0138369
0.0139567
0.0140803
0.0142075
0.0143366
0.0144676
0.0145995
0.014722
0.0148287
0.014919
0.0149946
0.015058
0.0151104
0.0151545
0.0151906
0.0152212
0.0152461
0.0152675
0.0152846
0.0152999
0.0153117
0.0153229
0.0153309
0.0153395
0.0153449
0.0153517
0.0153549
0.0153606
0.0153618
0.0153683
0.0153656
0.0153764
0.0153643
0.0153876
0.0153539
0.0154112
0.0153215
0.0154694
0.0152481
0.0156878
0.0147804
0.01132
0.010998
0.0111231
0.0110636
0.0112169
0.0111793
0.0113013
0.0112729
0.0113429
0.011319
0.0113433
0.0113679
0.0113408
0.011306
0.0113462
0.0113437
0.0113187
0.0113404
0.0113425
0.0113033
0.0113143
0.0113201
0.0112979
0.0113092
0.0113141
0.0112917
0.0113009
0.011304
0.0112852
0.0112941
0.0112979
0.0112806
0.0112908
0.0112937
0.0112792
0.0112892
0.011291
0.0112808
0.0112863
0.0112929
0.0112823
0.0112844
0.0112929
0.011286
0.011283
0.0112924
0.011291
0.0112843
0.0112887
0.0112946
0.0112893
0.0112856
0.0112919
0.0112953
0.0112903
0.0112879
0.0112928
0.0112955
0.0112941
0.0112924
0.011293
0.0112955
0.0112968
0.0112979
0.0112985
0.011299
0.0112994
0.0112997
0.0113001
0.0113003
0.0113004
0.0113007
0.0113011
0.0113014
0.0113018
0.011302
0.0113026
0.0113029
0.0113035
0.0113037
0.0113041
0.0113046
0.0113045
0.0113063
0.0113044
0.0113064
0.0113079
0.0113031
0.0113111
0.0113085
0.011303
0.0113134
0.0113095
0.0113027
0.0113177
0.0113111
0.0112995
0.0113211
0.0113156
0.0112978
0.0113214
0.0113204
0.0113001
0.0113196
0.0113207
0.011306
0.0113209
0.0113184
0.0113083
0.0113232
0.0113253
0.0113103
0.0113195
0.011328
0.0113174
0.011321
0.0113322
0.0113252
0.0113185
0.0113303
0.0113323
0.011321
0.011324
0.0113334
0.0113301
0.0113245
0.011329
0.0113324
0.0113317
0.0113286
0.0113313
0.0113321
0.0113301
0.0113357
0.0113299
0.0113294
0.0113363
0.0113288
0.0113296
0.0113399
0.0113289
0.0113302
0.0113458
0.0113317
0.0113291
0.0113484
0.0113364
0.0113279
0.0113478
0.0113414
0.0113328
0.0113464
0.01134
0.0113368
0.0113512
0.0113407
0.011334
0.0113513
0.0113442
0.0113376
0.0113511
0.0113424
0.0113356
0.0113518
0.0113445
0.011338
0.0113538
0.0113469
0.0113399
0.0113557
0.0113489
0.0113416
0.0113575
0.0113509
0.0113433
0.0113592
0.0113528
0.0113449
0.0113609
0.0113546
0.0113465
0.0113624
0.0113564
0.011348
0.0113639
0.0113581
0.0113494
0.0113653
0.0113597
0.0113507
0.0113666
0.0113612
0.011352
0.0113679
0.0113623
0.0113536
0.011368
0.011365
0.0113525
0.0113709
0.0113647
0.0113557
0.0113714
0.0113623
0.0113619
0.0113621
0.01138
0.0113454
0.011376
0.0113625
0.0113662
0.0113712
0.0113534
0.0113805
0.011354
0.0113849
0.0113425
0.0113829
0.0113586
0.0113809
0.0113535
0.0113712
0.0113653
0.0113743
0.0113624
0.0113702
0.0113649
0.0113624
0.0113645
0.011363
0.0113606
0.011372
0.0113416
0.0113724
0.0114274
0.014046
0.0176143
0.016414
0.015082
0.0153252
0.0108492
0.0133747
0.0129748
0.0131476
0.0128927
0.012891
0.0127716
0.0127799
0.0127525
0.0127969
0.0128298
0.0128938
0.0129649
0.0130469
0.0131365
0.0132348
0.0133375
0.0134488
0.0135615
0.013679
0.0138005
0.0139246
0.0140506
0.0141766
0.0143032
0.014426
0.0145354
0.0146284
0.0147062
0.0147707
0.0148244
0.0148687
0.0149058
0.0149361
0.0149617
0.0149825
0.0150005
0.0150148
0.0150276
0.0150375
0.0150469
0.0150537
0.0150609
0.0150656
0.0150712
0.0150742
0.0150785
0.0150806
0.0150844
0.0150851
0.0150891
0.015087
0.0150939
0.0150859
0.0151013
0.0150787
0.0151174
0.0150642
0.0151983
0.0147629
0.0132677
0.012265
0.0118524
0.011592
0.011468
0.0113766
0.0113484
0.0113099
0.0113049
0.0112803
0.0112738
0.0112782
0.0112583
0.0112376
0.0112361
0.0112356
0.0112268
0.0112286
0.0112254
0.0112143
0.0112113
0.01121
0.0112047
0.0112054
0.0112053
0.0112003
0.0112003
0.0112
0.0111955
0.0111959
0.0111962
0.0111919
0.0111931
0.0111937
0.0111904
0.0111918
0.0111926
0.0111903
0.0111913
0.0111929
0.0111911
0.0111913
0.0111935
0.0111925
0.0111919
0.0111941
0.0111944
0.0111929
0.011194
0.011196
0.0111951
0.0111942
0.0111958
0.0111975
0.0111966
0.0111958
0.0111969
0.011199
0.0111992
0.0111986
0.0111987
0.0111999
0.0112011
0.0112023
0.0112031
0.0112038
0.0112043
0.0112047
0.0112051
0.0112053
0.0112057
0.011206
0.0112064
0.0112067
0.0112071
0.0112075
0.0112079
0.0112083
0.0112088
0.0112091
0.0112095
0.01121
0.0112103
0.011211
0.0112108
0.0112118
0.0112124
0.0112119
0.0112138
0.0112137
0.0112128
0.0112151
0.0112149
0.011214
0.0112173
0.0112163
0.0112143
0.0112189
0.0112187
0.0112153
0.01122
0.011221
0.011217
0.0112206
0.0112221
0.0112196
0.0112222
0.0112225
0.0112211
0.0112246
0.011226
0.0112233
0.0112252
0.0112279
0.0112268
0.0112282
0.0112318
0.0112309
0.0112299
0.0112326
0.0112337
0.0112315
0.0112318
0.0112349
0.0112349
0.0112336
0.0112343
0.0112363
0.0112367
0.011236
0.0112367
0.0112372
0.0112371
0.0112384
0.0112372
0.0112369
0.0112384
0.0112372
0.0112374
0.0112398
0.0112381
0.0112387
0.0112426
0.0112404
0.0112397
0.0112446
0.0112427
0.011241
0.0112453
0.0112452
0.0112434
0.0112461
0.0112455
0.0112452
0.0112487
0.0112468
0.0112453
0.011249
0.0112483
0.0112468
0.0112496
0.0112477
0.0112461
0.0112494
0.0112485
0.0112473
0.0112509
0.0112501
0.0112489
0.0112524
0.0112516
0.0112503
0.0112537
0.011253
0.0112516
0.011255
0.0112543
0.0112528
0.0112562
0.0112555
0.011254
0.0112573
0.0112567
0.011255
0.0112583
0.0112577
0.011256
0.0112592
0.0112587
0.0112569
0.0112601
0.0112595
0.0112577
0.0112609
0.0112603
0.0112586
0.0112614
0.0112613
0.0112589
0.0112623
0.0112616
0.0112595
0.0112628
0.0112618
0.0112611
0.0112614
0.0112651
0.0112592
0.0112642
0.0112616
0.0112634
0.0112637
0.0112601
0.0112661
0.0112609
0.0112661
0.0112596
0.0112661
0.0112621
0.0112686
0.011259
0.011265
0.0112622
0.011268
0.0112619
0.0112654
0.0112623
0.0112625
0.011261
0.0112619
0.0112588
0.0112623
0.0112557
0.0112666
0.0112353
0.012159
0.0144475
0.014979
0.0148254
0.0148607
0.00498097
0.00837914
0.0101295
0.010937
0.0110985
0.0112881
0.0113197
0.0114109
0.0114598
0.011549
0.011618
0.0117111
0.0118049
0.0119021
0.0120066
0.0121124
0.0122223
0.0123374
0.0124536
0.0125709
0.0126897
0.012809
0.0129281
0.0130452
0.0131608
0.0132675
0.0133566
0.0134285
0.0134864
0.013533
0.013571
0.0136015
0.0136267
0.0136469
0.0136639
0.0136775
0.0136892
0.0136985
0.0137068
0.0137132
0.0137193
0.0137238
0.0137284
0.0137316
0.0137352
0.0137373
0.0137402
0.0137418
0.013744
0.0137452
0.0137466
0.0137473
0.0137488
0.0137485
0.0137508
0.0137485
0.0137533
0.0137487
0.0137667
0.0134297
0.0130304
0.0121372
0.0115861
0.0112061
0.0109306
0.0107748
0.0106467
0.0105692
0.0105099
0.0104644
0.0104314
0.0104113
0.0103886
0.010369
0.0103462
0.0103407
0.0103347
0.0103263
0.0103205
0.0103192
0.0103125
0.0103086
0.0103085
0.0103055
0.0103039
0.0103049
0.010303
0.0103019
0.0103022
0.0103005
0.0103
0.0103002
0.0102988
0.0102987
0.0102992
0.0102982
0.0102984
0.0102989
0.0102984
0.0102982
0.0102996
0.0102993
0.0102991
0.0103
0.0103006
0.0103001
0.0103008
0.0103014
0.010301
0.0103014
0.0103023
0.0103029
0.0103022
0.0103029
0.0103039
0.010304
0.0103035
0.0103047
0.0103055
0.0103057
0.0103058
0.0103063
0.0103071
0.010308
0.0103089
0.0103096
0.0103101
0.0103106
0.010311
0.0103113
0.0103117
0.0103121
0.0103124
0.0103127
0.0103131
0.0103134
0.0103138
0.0103142
0.0103145
0.0103149
0.0103152
0.0103156
0.0103159
0.0103163
0.0103169
0.0103173
0.0103177
0.0103185
0.0103183
0.0103191
0.0103195
0.0103195
0.0103204
0.010321
0.0103206
0.0103217
0.0103226
0.0103216
0.010323
0.0103247
0.0103229
0.0103241
0.0103258
0.0103243
0.0103254
0.0103268
0.0103258
0.0103269
0.0103284
0.0103276
0.0103287
0.0103304
0.0103296
0.0103303
0.0103323
0.0103325
0.0103331
0.0103348
0.010336
0.0103353
0.0103357
0.0103372
0.0103368
0.0103371
0.0103382
0.0103387
0.0103382
0.0103392
0.0103398
0.0103404
0.0103403
0.0103406
0.010341
0.0103408
0.0103414
0.0103413
0.010341
0.0103418
0.0103416
0.0103413
0.0103428
0.0103429
0.0103426
0.0103444
0.0103445
0.0103442
0.0103458
0.0103462
0.0103457
0.0103472
0.0103475
0.0103471
0.0103481
0.0103486
0.0103482
0.0103495
0.0103496
0.010349
0.0103502
0.0103502
0.0103495
0.0103503
0.0103502
0.0103494
0.0103504
0.0103506
0.0103503
0.0103515
0.0103517
0.0103514
0.0103526
0.0103529
0.0103525
0.0103536
0.0103539
0.0103534
0.0103545
0.0103548
0.0103543
0.0103554
0.0103557
0.0103551
0.0103562
0.0103565
0.0103559
0.0103569
0.0103572
0.0103565
0.0103575
0.0103579
0.0103571
0.0103581
0.0103584
0.0103576
0.0103586
0.010359
0.0103582
0.0103589
0.0103597
0.0103582
0.0103593
0.0103594
0.010359
0.0103601
0.0103597
0.0103598
0.0103594
0.0103626
0.0103581
0.0103602
0.0103606
0.0103602
0.0103604
0.0103606
0.0103609
0.0103596
0.010364
0.0103579
0.0103629
0.0103602
0.0103618
0.0103606
0.010361
0.0103624
0.0103616
0.0103614
0.0103607
0.010361
0.0103596
0.0103599
0.0103586
0.0103576
0.010361
0.0103626
0.0103816
0.010553
0.0118603
0.0126585
0.0131273
0.0132645
0.00258501
0.00477536
0.00706545
0.00844336
0.00921312
0.00969781
0.00995013
0.0101546
0.0102968
0.0104413
0.0105599
0.0106886
0.0108087
0.0109308
0.0110529
0.0111713
0.0112924
0.0114149
0.0115372
0.0116581
0.0117777
0.0118956
0.0120109
0.0121222
0.0122289
0.0123214
0.0123921
0.0124448
0.0124843
0.012514
0.0125366
0.0125537
0.0125671
0.0125772
0.0125853
0.0125915
0.0125968
0.0126008
0.0126044
0.0126072
0.0126099
0.0126119
0.0126139
0.0126155
0.0126171
0.0126181
0.0126195
0.0126204
0.0126213
0.0126222
0.0126225
0.0126236
0.0126232
0.0126251
0.0126232
0.012627
0.0126208
0.0126288
0.0125967
0.0123272
0.0124501
0.0118156
0.0112867
0.0108369
0.0104928
0.0102803
0.0100877
0.00996899
0.00986729
0.00979743
0.00973982
0.00969721
0.00966479
0.00963988
0.0096056
0.00959245
0.00958322
0.0095688
0.0095615
0.00956098
0.00955386
0.00954899
0.00954924
0.00954544
0.00954358
0.0095458
0.00954418
0.00954325
0.00954479
0.00954335
0.00954274
0.00954421
0.00954274
0.00954242
0.00954387
0.00954268
0.00954265
0.00954402
0.00954324
0.00954266
0.0095445
0.00954432
0.00954356
0.00954475
0.00954561
0.00954455
0.00954519
0.00954654
0.00954581
0.00954541
0.00954689
0.00954802
0.00954679
0.00954678
0.00954833
0.00954908
0.00954817
0.00954857
0.00954942
0.00955009
0.00955032
0.00955038
0.00955092
0.00955164
0.00955243
0.00955309
0.00955368
0.00955414
0.00955457
0.00955498
0.00955534
0.00955569
0.00955602
0.00955633
0.00955669
0.00955703
0.00955736
0.00955773
0.009558
0.00955838
0.00955862
0.0095588
0.00955912
0.00955952
0.00956037
0.00956055
0.00956087
0.00956181
0.00956126
0.00956216
0.00956295
0.00956237
0.00956343
0.00956437
0.00956308
0.00956465
0.00956611
0.00956415
0.00956556
0.00956831
0.00956547
0.00956623
0.00956919
0.00956695
0.00956754
0.0095696
0.00956841
0.00956925
0.00957139
0.00956961
0.00957046
0.00957324
0.00957187
0.00957188
0.00957432
0.00957432
0.00957386
0.00957611
0.00957801
0.00957663
0.00957693
0.00957915
0.00957887
0.00957813
0.0095793
0.00958061
0.00957997
0.00958019
0.00958087
0.00958191
0.00958168
0.0095819
0.00958236
0.00958183
0.00958289
0.00958296
0.00958233
0.0095833
0.00958321
0.00958224
0.00958414
0.0095842
0.00958278
0.00958515
0.00958579
0.00958399
0.00958631
0.00958733
0.00958581
0.00958724
0.00958818
0.00958724
0.00958841
0.00958907
0.00958767
0.00958968
0.00959029
0.0095887
0.00959002
0.00959062
0.00958902
0.00959048
0.00959083
0.00958916
0.00959028
0.00959087
0.00958956
0.00959094
0.00959166
0.00959039
0.00959177
0.00959251
0.00959121
0.00959256
0.00959331
0.00959197
0.00959328
0.00959405
0.00959267
0.00959393
0.00959471
0.00959329
0.0095945
0.0095953
0.00959384
0.00959502
0.00959583
0.00959434
0.00959546
0.0095963
0.00959476
0.00959585
0.00959667
0.00959513
0.00959623
0.0095971
0.00959568
0.00959631
0.00959763
0.00959543
0.00959667
0.00959743
0.00959626
0.00959745
0.00959741
0.00959735
0.00959603
0.00960058
0.00959476
0.00959773
0.00959757
0.00959721
0.00959833
0.00959693
0.00959858
0.00959627
0.00960202
0.00959449
0.00960078
0.00959466
0.00960111
0.00959707
0.00959906
0.00959743
0.00959982
0.00959777
0.00959844
0.00959854
0.00959768
0.00959739
0.00959755
0.00959509
0.00960045
0.00960238
0.00966499
0.00957033
0.0101292
0.010859
0.0115466
0.0118516
0.00151454
0.00271389
0.00445974
0.005932
0.00718297
0.00801388
0.00854026
0.00891562
0.00918217
0.00940722
0.00958535
0.00975634
0.0099076
0.0100579
0.0102015
0.0103371
0.0104723
0.0106048
0.0107353
0.0108618
0.0109845
0.0111033
0.0112167
0.0113236
0.0114219
0.0115003
0.0115539
0.011589
0.0116117
0.0116258
0.0116343
0.0116389
0.0116411
0.0116416
0.0116413
0.0116404
0.0116395
0.0116384
0.0116375
0.0116368
0.0116361
0.0116356
0.0116353
0.0116351
0.0116349
0.0116348
0.0116347
0.0116348
0.0116347
0.011635
0.0116345
0.0116355
0.0116343
0.0116365
0.0116333
0.0116386
0.0116291
0.0116387
0.0115825
0.0113817
0.0117171
0.0113459
0.0109134
0.0104455
0.0100862
0.00982986
0.00959949
0.00944551
0.00931043
0.00921722
0.00913789
0.00907532
0.00903056
0.00899708
0.00895557
0.00893395
0.00891923
0.00890037
0.00889129
0.00888865
0.00888088
0.00887541
0.00887478
0.00887073
0.00886883
0.00887086
0.00886964
0.00886902
0.00887087
0.00886994
0.00886948
0.0088713
0.00887026
0.00886997
0.00887161
0.00887071
0.00887064
0.0088721
0.00887154
0.00887095
0.00887263
0.00887265
0.00887183
0.00887289
0.00887373
0.00887275
0.00887325
0.00887467
0.00887408
0.0088735
0.00887482
0.00887608
0.008875
0.00887471
0.00887612
0.00887714
0.00887635
0.00887628
0.00887698
0.00887786
0.00887821
0.0088781
0.00887842
0.00887895
0.00887963
0.00888024
0.00888082
0.0088813
0.00888173
0.00888216
0.00888253
0.00888287
0.00888321
0.00888352
0.00888384
0.00888417
0.00888446
0.00888481
0.00888506
0.00888542
0.00888562
0.00888575
0.00888603
0.00888642
0.0088873
0.00888739
0.00888767
0.00888854
0.00888804
0.00888881
0.00888969
0.0088891
0.00888999
0.00889099
0.00888966
0.00889109
0.00889262
0.00889073
0.00889181
0.00889449
0.00889198
0.00889244
0.00889533
0.00889334
0.0088937
0.00889569
0.00889471
0.00889535
0.00889728
0.00889553
0.00889627
0.00889896
0.00889783
0.00889756
0.0088998
0.00889979
0.00889908
0.00890108
0.00890305
0.00890183
0.00890222
0.00890432
0.00890431
0.00890331
0.00890426
0.00890571
0.00890532
0.00890516
0.00890575
0.00890684
0.00890673
0.00890689
0.00890733
0.00890685
0.00890787
0.00890807
0.00890745
0.00890833
0.00890828
0.00890726
0.00890892
0.00890901
0.00890747
0.00890954
0.00891037
0.00890847
0.00891042
0.0089117
0.00891015
0.00891123
0.00891238
0.00891149
0.00891246
0.00891315
0.00891174
0.00891349
0.00891435
0.00891275
0.00891375
0.00891456
0.00891304
0.00891432
0.0089149
0.00891322
0.00891403
0.00891473
0.00891331
0.00891437
0.00891523
0.00891388
0.00891498
0.00891588
0.00891452
0.00891559
0.0089165
0.00891512
0.00891615
0.00891707
0.00891566
0.00891665
0.00891757
0.00891614
0.00891708
0.00891801
0.00891656
0.00891746
0.00891841
0.00891693
0.00891778
0.00891875
0.00891724
0.00891806
0.00891902
0.00891751
0.00891834
0.0089193
0.00891793
0.00891836
0.00891969
0.00891771
0.00891863
0.00891962
0.00891837
0.00891938
0.00891953
0.00891936
0.00891795
0.008922
0.00891728
0.00891952
0.00891931
0.00891914
0.00892038
0.00891867
0.00892047
0.00891826
0.00892325
0.00891725
0.00892221
0.00891601
0.0089231
0.00891909
0.00892134
0.00891821
0.00892186
0.00891956
0.00892058
0.00892057
0.00892016
0.00891954
0.00892053
0.00891782
0.0089231
0.00892758
0.00901952
0.00883338
0.00890316
0.0095128
0.0101654
0.0105772
0.0010504
0.00163984
0.00265041
0.00385062
0.00515273
0.00619386
0.00701277
0.00760139
0.00802731
0.00836262
0.00862314
0.00885248
0.00904849
0.0092325
0.00940134
0.00955897
0.00971069
0.0098552
0.00999557
0.0101297
0.0102572
0.0103783
0.010491
0.010594
0.010683
0.0107465
0.010784
0.0108035
0.0108115
0.0108121
0.0108082
0.0108016
0.010794
0.0107859
0.0107781
0.0107708
0.0107643
0.0107586
0.0107537
0.0107496
0.010746
0.0107432
0.0107407
0.0107389
0.010737
0.0107359
0.0107346
0.0107339
0.0107328
0.0107325
0.0107316
0.0107321
0.0107306
0.0107325
0.0107291
0.0107341
0.0107243
0.010732
0.0106636
0.0105277
0.0109233
0.0107647
0.0104488
0.010016
0.00966881
0.00938458
0.00913766
0.0089572
0.00879822
0.00868493
0.00858717
0.00850721
0.00845026
0.0084071
0.00835952
0.00832974
0.00830892
0.00828603
0.00827437
0.00826873
0.00825966
0.00825347
0.00825154
0.00824698
0.008245
0.00824643
0.00824529
0.0082449
0.00824671
0.00824615
0.00824594
0.00824777
0.00824712
0.00824701
0.0082486
0.00824798
0.00824802
0.00824939
0.00824903
0.00824858
0.00825002
0.00825016
0.00824946
0.00825036
0.00825106
0.00825025
0.00825069
0.00825195
0.00825157
0.00825101
0.00825211
0.00825325
0.00825246
0.00825211
0.00825326
0.00825428
0.00825372
0.00825346
0.00825399
0.00825488
0.00825529
0.00825516
0.00825534
0.00825572
0.00825627
0.00825682
0.00825736
0.00825784
0.00825827
0.0082587
0.00825907
0.00825941
0.00825975
0.00826005
0.00826035
0.00826065
0.00826092
0.00826124
0.00826147
0.00826181
0.008262
0.00826213
0.00826237
0.00826273
0.00826353
0.0082636
0.00826387
0.00826461
0.00826422
0.00826488
0.00826571
0.00826522
0.00826596
0.00826688
0.00826577
0.00826694
0.00826833
0.00826673
0.00826759
0.00826988
0.00826779
0.00826823
0.00827071
0.00826903
0.00826941
0.00827113
0.00827036
0.00827091
0.00827247
0.00827094
0.00827165
0.00827395
0.00827312
0.00827281
0.00827466
0.00827471
0.00827402
0.00827567
0.00827746
0.00827652
0.00827703
0.00827887
0.00827901
0.00827807
0.0082788
0.00828015
0.00827999
0.00827969
0.00828019
0.0082812
0.00828118
0.00828135
0.00828173
0.0082814
0.00828228
0.00828252
0.00828201
0.00828276
0.00828272
0.00828181
0.00828315
0.00828322
0.00828185
0.00828353
0.0082843
0.00828266
0.00828422
0.00828544
0.00828411
0.00828491
0.00828603
0.00828532
0.00828611
0.00828671
0.00828552
0.00828696
0.00828782
0.00828643
0.00828717
0.00828796
0.00828674
0.00828779
0.00828839
0.00828691
0.00828748
0.00828809
0.0082868
0.00828758
0.00828837
0.00828717
0.00828799
0.00828884
0.00828765
0.00828846
0.00828932
0.00828811
0.0082889
0.00828976
0.00828854
0.00828928
0.00829014
0.0082889
0.00828961
0.00829047
0.00828921
0.00828989
0.00829076
0.00828949
0.00829012
0.00829101
0.00828971
0.00829033
0.00829121
0.00828992
0.00829053
0.0082914
0.00829021
0.00829052
0.00829168
0.00829005
0.00829073
0.00829167
0.00829057
0.00829138
0.00829161
0.00829138
0.00829011
0.0082934
0.00828988
0.00829142
0.00829119
0.00829123
0.00829231
0.00829073
0.00829233
0.00829048
0.00829448
0.00829002
0.00829357
0.00828829
0.00829447
0.00829146
0.00829346
0.00828979
0.00829355
0.00829171
0.00829269
0.00829258
0.00829253
0.00829178
0.00829315
0.00829062
0.00829545
0.00830187
0.00840559
0.00819513
0.00797003
0.00845416
0.00899359
0.00942542
0.000852205
0.00109186
0.00157857
0.00237343
0.0034468
0.00445125
0.00540395
0.00616739
0.00677803
0.00725215
0.00762079
0.00792868
0.00818523
0.00841429
0.00861725
0.00880358
0.00897729
0.00913888
0.00929244
0.0094357
0.00956929
0.00969374
0.00980625
0.00990495
0.00998232
0.0100297
0.010053
0.0100598
0.010056
0.0100455
0.0100316
0.0100161
0.0100005
0.00998542
0.00997157
0.00995907
0.00994808
0.00993857
0.00993033
0.0099235
0.0099175
0.00991278
0.0099085
0.00990531
0.00990219
0.00990011
0.00989782
0.00989642
0.00989466
0.00989385
0.00989259
0.00989267
0.00989107
0.00989246
0.00988923
0.00989339
0.00988448
0.00988942
0.0098158
0.00973574
0.0101203
0.0101073
0.00990568
0.0095409
0.00922467
0.00892905
0.00868039
0.00848295
0.00830991
0.00818088
0.0080686
0.00797445
0.00790653
0.0078539
0.00780078
0.00776353
0.00773674
0.00771007
0.00769505
0.00768612
0.00767525
0.00766805
0.00766459
0.00765922
0.00765697
0.00765757
0.00765619
0.00765588
0.00765745
0.00765702
0.00765703
0.00765874
0.00765833
0.00765844
0.00765991
0.00765947
0.00765968
0.00766091
0.00766068
0.00766041
0.00766164
0.00766182
0.00766128
0.00766208
0.00766261
0.00766196
0.00766238
0.00766345
0.00766321
0.00766275
0.00766367
0.00766463
0.00766407
0.00766377
0.0076647
0.00766559
0.00766524
0.00766494
0.00766536
0.00766615
0.00766657
0.00766647
0.00766656
0.00766682
0.00766725
0.00766773
0.00766823
0.00766869
0.00766911
0.00766953
0.00766989
0.00767023
0.00767056
0.00767086
0.00767113
0.00767142
0.00767167
0.00767196
0.00767218
0.00767249
0.00767267
0.00767282
0.00767304
0.00767334
0.00767403
0.0076741
0.00767437
0.00767499
0.0076747
0.00767527
0.007676
0.00767563
0.00767627
0.00767705
0.00767618
0.00767715
0.00767833
0.00767702
0.00767776
0.00767961
0.00767784
0.00767842
0.00768044
0.00767899
0.00767947
0.00768091
0.00768029
0.00768082
0.00768202
0.00768073
0.0076814
0.00768332
0.00768269
0.00768244
0.00768393
0.007684
0.00768343
0.0076848
0.00768632
0.00768562
0.00768621
0.00768781
0.00768801
0.00768722
0.00768781
0.00768898
0.00768896
0.00768867
0.0076891
0.00768996
0.00769
0.0076902
0.00769053
0.00769032
0.00769108
0.0076913
0.00769092
0.00769156
0.0076915
0.00769074
0.00769181
0.00769181
0.00769067
0.00769205
0.00769265
0.0076913
0.00769259
0.00769363
0.00769252
0.00769316
0.00769413
0.0076936
0.00769426
0.00769473
0.0076938
0.00769501
0.00769574
0.00769458
0.00769516
0.00769584
0.0076949
0.0076958
0.0076963
0.00769506
0.00769548
0.00769595
0.00769484
0.00769542
0.00769605
0.00769503
0.00769567
0.00769637
0.00769538
0.00769602
0.00769673
0.00769573
0.00769635
0.00769707
0.00769605
0.00769663
0.00769735
0.00769633
0.00769688
0.0076976
0.00769656
0.00769709
0.00769782
0.00769676
0.00769726
0.007698
0.00769693
0.00769741
0.00769814
0.00769708
0.00769756
0.00769827
0.00769727
0.00769753
0.00769848
0.00769717
0.00769771
0.00769849
0.00769759
0.00769823
0.0076985
0.00769821
0.00769716
0.00769976
0.00769716
0.00769826
0.00769795
0.00769819
0.00769903
0.00769771
0.00769903
0.00769757
0.0077007
0.00769739
0.00769986
0.00769572
0.00770064
0.00769855
0.00770025
0.00769675
0.0077
0.00769868
0.00769961
0.00769941
0.00769961
0.00769888
0.00770027
0.00769812
0.0077025
0.00770949
0.00780745
0.0076006
0.0072038
0.00758341
0.00801736
0.00840619
0.000769732
0.000863395
0.0010557
0.0014723
0.00217848
0.00302546
0.00391287
0.00471565
0.00543866
0.00604172
0.00653925
0.00694603
0.00728153
0.00757111
0.00782067
0.00804372
0.00824609
0.00843129
0.00860234
0.00875843
0.00890058
0.00902943
0.0091412
0.00923306
0.00929727
0.0093321
0.00934508
0.00934282
0.00933073
0.00931276
0.00929195
0.00927026
0.00924912
0.00922927
0.00921123
0.00919513
0.00918102
0.00916888
0.00915836
0.00914963
0.00914198
0.00913592
0.00913043
0.00912629
0.00912228
0.00911953
0.00911661
0.00911471
0.00911252
0.00911131
0.00910985
0.00910959
0.009108
0.00910893
0.00910609
0.00910935
0.00910164
0.00910417
0.00903187
0.00899345
0.00934436
0.00941383
0.00930893
0.00902201
0.00874906
0.00845979
0.00821887
0.00801313
0.00783477
0.00769491
0.00757264
0.00746792
0.00739096
0.00732978
0.00727178
0.00722797
0.00719571
0.00716548
0.00714672
0.00713442
0.00712149
0.00711291
0.00710776
0.00710135
0.00709855
0.00709816
0.00709629
0.00709589
0.00709706
0.00709657
0.0070967
0.00709819
0.00709788
0.00709817
0.0070995
0.00709916
0.00709952
0.00710062
0.00710047
0.00710035
0.00710142
0.00710159
0.00710121
0.00710194
0.00710232
0.0071018
0.00710222
0.00710311
0.00710296
0.00710263
0.00710341
0.00710418
0.00710378
0.00710357
0.00710433
0.00710506
0.00710485
0.00710459
0.00710493
0.0071056
0.007106
0.00710595
0.00710599
0.00710616
0.0071065
0.0071069
0.00710735
0.00710778
0.00710818
0.00710858
0.00710894
0.00710926
0.00710959
0.00710988
0.00711014
0.00711041
0.00711064
0.0071109
0.00711111
0.00711139
0.00711157
0.00711174
0.00711193
0.00711219
0.00711277
0.00711283
0.00711311
0.00711362
0.00711339
0.00711392
0.00711452
0.00711426
0.00711483
0.00711547
0.00711481
0.00711565
0.0071166
0.00711552
0.00711622
0.00711767
0.00711614
0.00711687
0.00711848
0.00711723
0.00711779
0.00711897
0.00711844
0.007119
0.00711991
0.00711883
0.00711946
0.00712103
0.00712053
0.00712037
0.00712156
0.00712162
0.00712118
0.00712235
0.0071236
0.00712308
0.00712371
0.00712509
0.0071253
0.00712469
0.0071252
0.00712619
0.00712624
0.007126
0.00712638
0.0071271
0.00712716
0.00712739
0.00712767
0.00712756
0.00712824
0.00712841
0.00712813
0.00712867
0.00712859
0.00712798
0.00712883
0.00712876
0.00712784
0.00712901
0.00712939
0.00712831
0.00712942
0.00713023
0.00712931
0.00712986
0.00713067
0.00713027
0.00713084
0.00713119
0.00713047
0.00713153
0.00713208
0.00713112
0.00713162
0.00713216
0.00713146
0.00713226
0.00713263
0.00713159
0.00713194
0.00713226
0.00713131
0.00713177
0.00713222
0.00713137
0.00713189
0.00713242
0.0071316
0.00713213
0.00713268
0.00713185
0.00713237
0.00713293
0.0071321
0.00713259
0.00713315
0.0071323
0.00713277
0.00713333
0.00713248
0.00713293
0.00713349
0.00713263
0.00713305
0.00713362
0.00713275
0.00713315
0.00713373
0.00713286
0.00713327
0.00713382
0.00713297
0.00713324
0.00713397
0.00713292
0.00713338
0.007134
0.00713326
0.00713377
0.00713405
0.00713373
0.00713291
0.00713495
0.00713298
0.00713384
0.00713347
0.00713384
0.00713444
0.00713341
0.00713445
0.00713334
0.00713578
0.00713326
0.00713499
0.00713188
0.00713566
0.00713417
0.00713557
0.00713269
0.00713523
0.00713428
0.0071352
0.00713492
0.0071353
0.00713465
0.00713588
0.00713416
0.00713812
0.00714426
0.00722315
0.00703323
0.00655729
0.00685604
0.00719807
0.00752906
0.00073702
0.000774599
0.000841821
0.0010186
0.00138509
0.00197215
0.00270004
0.00343508
0.00414611
0.00479428
0.00537791
0.00588045
0.00630934
0.0066737
0.00698437
0.00725585
0.00749526
0.00771095
0.00790485
0.0080784
0.00823181
0.00836555
0.00847551
0.00855899
0.0086136
0.00864367
0.00865174
0.00864518
0.0086292
0.00860769
0.00858371
0.00855919
0.00853556
0.00851353
0.0084936
0.00847588
0.00846036
0.00844702
0.00843548
0.00842588
0.00841749
0.00841081
0.00840478
0.00840019
0.00839581
0.00839271
0.00838957
0.00838741
0.0083851
0.00838369
0.00838219
0.00838172
0.00838026
0.00838086
0.00837847
0.00838095
0.00837452
0.00837527
0.00831005
0.00829763
0.00861033
0.00871944
0.00868377
0.00847072
0.00824501
0.00797793
0.00775169
0.0075452
0.00736824
0.00722247
0.00709506
0.00698354
0.00689995
0.00683153
0.00676959
0.0067203
0.00668327
0.00664979
0.00662728
0.00661165
0.00659657
0.00658628
0.00657933
0.00657177
0.00656811
0.00656662
0.00656407
0.0065634
0.00656402
0.0065633
0.00656343
0.00656464
0.00656431
0.00656471
0.00656586
0.00656556
0.00656604
0.006567
0.00656688
0.00656689
0.00656782
0.00656797
0.00656772
0.0065684
0.00656867
0.00656826
0.00656868
0.00656942
0.00656932
0.0065691
0.00656978
0.00657039
0.0065701
0.00656998
0.00657062
0.0065712
0.00657107
0.00657087
0.00657116
0.00657172
0.00657208
0.00657208
0.0065721
0.00657222
0.00657247
0.00657281
0.0065732
0.00657359
0.00657397
0.00657435
0.00657469
0.00657501
0.00657532
0.0065756
0.00657584
0.0065761
0.00657632
0.00657656
0.00657675
0.006577
0.00657718
0.00657735
0.00657753
0.00657776
0.00657824
0.00657829
0.00657857
0.00657899
0.00657881
0.00657931
0.0065798
0.00657961
0.00658014
0.00658065
0.00658015
0.00658091
0.00658164
0.00658074
0.00658145
0.00658256
0.00658124
0.00658204
0.00658332
0.00658226
0.00658285
0.00658382
0.00658337
0.00658394
0.00658462
0.00658374
0.00658432
0.00658559
0.00658518
0.00658509
0.00658606
0.00658609
0.00658577
0.00658679
0.00658779
0.00658742
0.00658805
0.00658923
0.00658943
0.00658897
0.00658945
0.00659027
0.00659034
0.00659018
0.00659053
0.00659112
0.00659119
0.00659143
0.00659167
0.00659164
0.00659226
0.00659236
0.00659217
0.00659264
0.00659252
0.00659204
0.00659273
0.00659258
0.00659186
0.00659288
0.00659304
0.00659219
0.00659319
0.00659378
0.00659299
0.0065935
0.00659415
0.00659384
0.00659435
0.00659458
0.00659404
0.00659499
0.00659536
0.00659457
0.00659503
0.00659545
0.00659491
0.00659565
0.00659589
0.00659503
0.00659534
0.00659553
0.00659472
0.0065951
0.0065954
0.00659468
0.00659512
0.00659549
0.00659481
0.00659527
0.00659567
0.00659499
0.00659545
0.00659585
0.00659516
0.0065956
0.00659601
0.00659532
0.00659574
0.00659615
0.00659545
0.00659585
0.00659627
0.00659556
0.00659594
0.00659636
0.00659565
0.00659602
0.00659645
0.00659573
0.0065961
0.00659651
0.00659578
0.00659608
0.00659663
0.00659578
0.00659621
0.00659666
0.00659606
0.00659648
0.00659676
0.00659642
0.00659579
0.0065974
0.00659587
0.00659659
0.00659617
0.00659664
0.00659704
0.00659625
0.00659707
0.00659624
0.00659814
0.00659618
0.00659742
0.00659514
0.00659798
0.00659687
0.00659801
0.00659582
0.00659773
0.00659699
0.00659792
0.00659759
0.00659806
0.00659751
0.00659854
0.00659721
0.00660076
0.00660503
0.00666192
0.00649481
0.00605075
0.00624555
0.0065037
0.00677564
0.000724478
0.000740805
0.000763268
0.000828059
0.000985366
0.0013072
0.00179782
0.00239375
0.00303471
0.00364724
0.00423719
0.00477825
0.00527039
0.00570566
0.00608716
0.00641871
0.00670488
0.00695794
0.00718019
0.00737595
0.00754367
0.00768306
0.00779205
0.00787146
0.00792762
0.00796044
0.00796997
0.0079646
0.00794972
0.00792929
0.00790631
0.00788275
0.00785997
0.00783872
0.00781944
0.00780229
0.00778725
0.0077743
0.00776311
0.00775378
0.00774565
0.00773916
0.00773334
0.00772885
0.00772465
0.00772158
0.00771867
0.00771651
0.00771441
0.00771301
0.00771164
0.00771114
0.00770992
0.00771033
0.00770844
0.00771033
0.00770515
0.00770478
0.00764977
0.00765047
0.0079236
0.00804487
0.00805288
0.00790254
0.00772231
0.00748731
0.00728112
0.00708116
0.00691051
0.00676335
0.00663494
0.00652061
0.0064329