/*--------------------------------*- C++ -*----------------------------------*\
| =========                 |                                                 |
| \\      /  F ield         | foam-extend: Open Source CFD                    |
|  \\    /   O peration     | Version:     3.2                                |
|   \\  /    A nd           | Web:         http://www.foam-extend.org         |
|    \\/     M anipulation  | For copyright notice see file Copyright         |
\*---------------------------------------------------------------------------*/
FoamFile
{
    version     2.0;
    format      ascii;
    class       areaScalarField;
    location    "50";
    object      kTempA;
}
// * * * * * * * * * * * * * * * * * * * * * * * * * * * * * * * * * * * * * //

dimensions      [0 2 -2 0 0 0 0];

internalField   nonuniform List<scalar> 
300
(
0.0289944
0.0185067
0.0137096
0.0137677
0.0133316
0.0133398
0.0131327
0.0131249
0.0130503
0.0130792
0.0130851
0.0131339
0.0131818
0.0132589
0.0133307
0.0134222
0.0135151
0.0136193
0.0137227
0.0138369
0.0139567
0.0140803
0.0142075
0.0143366
0.0144676
0.0145995
0.014722
0.0148287
0.014919
0.0149946
0.015058
0.0151104
0.0151545
0.0151906
0.0152212
0.0152461
0.0152675
0.0152846
0.0152999
0.0153117
0.0153229
0.0153309
0.0153395
0.0153449
0.0153517
0.0153549
0.0153606
0.0153618
0.0153683
0.0153656
0.0153764
0.0153643
0.0153876
0.0153539
0.0154112
0.0153215
0.0154694
0.0152481
0.0156878
0.0147804
0.01132
0.010998
0.0111231
0.0110636
0.0112169
0.0111793
0.0113013
0.0112729
0.0113429
0.011319
0.0113433
0.0113679
0.0113408
0.011306
0.0113462
0.0113437
0.0113187
0.0113404
0.0113425
0.0113033
0.0113143
0.0113201
0.0112979
0.0113092
0.0113141
0.0112917
0.0113009
0.011304
0.0112852
0.0112941
0.0112979
0.0112806
0.0112908
0.0112937
0.0112792
0.0112892
0.011291
0.0112808
0.0112863
0.0112929
0.0112823
0.0112844
0.0112929
0.011286
0.011283
0.0112924
0.011291
0.0112843
0.0112887
0.0112946
0.0112893
0.0112856
0.0112919
0.0112953
0.0112903
0.0112879
0.0112928
0.0112955
0.0112941
0.0112924
0.011293
0.0112955
0.0112968
0.0112979
0.0112985
0.011299
0.0112994
0.0112997
0.0113001
0.0113003
0.0113004
0.0113007
0.0113011
0.0113014
0.0113018
0.011302
0.0113026
0.0113029
0.0113035
0.0113037
0.0113041
0.0113046
0.0113045
0.0113063
0.0113044
0.0113064
0.0113079
0.0113031
0.0113111
0.0113085
0.011303
0.0113134
0.0113095
0.0113027
0.0113177
0.0113111
0.0112995
0.0113211
0.0113156
0.0112978
0.0113214
0.0113204
0.0113001
0.0113196
0.0113207
0.011306
0.0113209
0.0113184
0.0113083
0.0113232
0.0113253
0.0113103
0.0113195
0.011328
0.0113174
0.011321
0.0113322
0.0113252
0.0113185
0.0113303
0.0113323
0.011321
0.011324
0.0113334
0.0113301
0.0113245
0.011329
0.0113324
0.0113317
0.0113286
0.0113313
0.0113321
0.0113301
0.0113357
0.0113299
0.0113294
0.0113363
0.0113288
0.0113296
0.0113399
0.0113289
0.0113302
0.0113458
0.0113317
0.0113291
0.0113484
0.0113364
0.0113279
0.0113478
0.0113414
0.0113328
0.0113464
0.01134
0.0113368
0.0113512
0.0113407
0.011334
0.0113513
0.0113442
0.0113376
0.0113511
0.0113424
0.0113356
0.0113518
0.0113445
0.011338
0.0113538
0.0113469
0.0113399
0.0113557
0.0113489
0.0113416
0.0113575
0.0113509
0.0113433
0.0113592
0.0113528
0.0113449
0.0113609
0.0113546
0.0113465
0.0113624
0.0113564
0.011348
0.0113639
0.0113581
0.0113494
0.0113653
0.0113597
0.0113507
0.0113666
0.0113612
0.011352
0.0113679
0.0113623
0.0113536
0.011368
0.011365
0.0113525
0.0113709
0.0113647
0.0113557
0.0113714
0.0113623
0.0113619
0.0113621
0.01138
0.0113454
0.011376
0.0113625
0.0113662
0.0113712
0.0113534
0.0113805
0.011354
0.0113849
0.0113425
0.0113829
0.0113586
0.0113809
0.0113535
0.0113712
0.0113653
0.0113743
0.0113624
0.0113702
0.0113649
0.0113624
0.0113645
0.011363
0.0113606
0.011372
0.0113416
0.0113724
0.0114274
0.014046
0.0176143
0.016414
0.015082
0.0153252
)
;

boundaryField
{
    inlet
    {
        type            calculated;
        value           uniform 0;
    }
    outlet
    {
        type            calculated;
        value           uniform 0;
    }
    sideWall
    {
        type            empty;
    }
}


// ************************************************************************* //
