/*--------------------------------*- C++ -*----------------------------------*\
| =========                 |                                                 |
| \\      /  F ield         | foam-extend: Open Source CFD                    |
|  \\    /   O peration     | Version:     3.2                                |
|   \\  /    A nd           | Web:         http://www.foam-extend.org         |
|    \\/     M anipulation  | For copyright notice see file Copyright         |
\*---------------------------------------------------------------------------*/
FoamFile
{
    version     2.0;
    format      ascii;
    class       volVectorField;
    location    "50";
    object      meshCentre;
}
// * * * * * * * * * * * * * * * * * * * * * * * * * * * * * * * * * * * * * //

dimensions      [0 1 0 0 0 0 0];

internalField   nonuniform List<vector> 
5400
(
(0.025 0.01 0.000708335)
(0.075 0.01 0.000458335)
(0.125 0.01 0.000208334)
(0.175 0.01 -4.16665e-05)
(0.225 0.01 -0.000291667)
(0.275 0.01 -0.000541666)
(0.325 0.01 -0.000791667)
(0.375 0.01 -0.00104167)
(0.425 0.01 -0.00129167)
(0.475 0.01 -0.00154167)
(0.525 0.01 -0.00179167)
(0.575 0.01 -0.00204166)
(0.625 0.01 -0.00229166)
(0.675 0.01 -0.00254167)
(0.725 0.01 -0.00279166)
(0.775 0.01 -0.00304167)
(0.825 0.01 -0.00329167)
(0.875 0.01 -0.00354166)
(0.925 0.01 -0.00379166)
(0.975 0.01 -0.00404166)
(1.025 0.01 -0.00429167)
(1.075 0.01 -0.00454167)
(1.125 0.01 -0.00479167)
(1.175 0.01 -0.00504167)
(1.225 0.01 -0.00529166)
(1.275 0.01 -0.00554167)
(1.325 0.01 -0.00579167)
(1.375 0.01 -0.00604167)
(1.425 0.01 -0.00629167)
(1.475 0.01 -0.00654167)
(1.525 0.01 -0.00679166)
(1.575 0.01 -0.00704166)
(1.625 0.01 -0.00729167)
(1.675 0.01 -0.00754167)
(1.725 0.01 -0.00779166)
(1.775 0.01 -0.00804167)
(1.825 0.01 -0.00829166)
(1.875 0.01 -0.00854167)
(1.925 0.01 -0.00879166)
(1.975 0.01 -0.00904166)
(2.025 0.01 -0.00929166)
(2.075 0.01 -0.00954166)
(2.125 0.01 -0.00979166)
(2.175 0.01 -0.0100417)
(2.225 0.01 -0.0102917)
(2.275 0.01 -0.0105417)
(2.325 0.01 -0.0107917)
(2.375 0.01 -0.0110416)
(2.425 0.01 -0.0112917)
(2.475 0.01 -0.0115417)
(2.525 0.01 -0.0117917)
(2.575 0.01 -0.0120416)
(2.625 0.01 -0.0122916)
(2.675 0.01 -0.0125416)
(2.725 0.01 -0.0127917)
(2.775 0.01 -0.0130416)
(2.825 0.01 -0.0132917)
(2.875 0.01 -0.0135417)
(2.925 0.01 -0.0137916)
(2.975 0.01 -0.0140416)
(3.025 0.01 -0.0142916)
(3.075 0.01 -0.0145417)
(3.125 0.01 -0.0147916)
(3.175 0.01 -0.0150417)
(3.225 0.01 -0.0152917)
(3.275 0.01 -0.0155417)
(3.325 0.01 -0.0157917)
(3.375 0.01 -0.0160417)
(3.425 0.01 -0.0162917)
(3.475 0.01 -0.0165417)
(3.525 0.01 -0.0167917)
(3.575 0.01 -0.0170416)
(3.625 0.01 -0.0172916)
(3.675 0.01 -0.0175416)
(3.725 0.01 -0.0177917)
(3.775 0.01 -0.0180416)
(3.825 0.01 -0.0182917)
(3.875 0.01 -0.0185416)
(3.925 0.01 -0.0187917)
(3.975 0.01 -0.0190416)
(4.025 0.01 -0.0192916)
(4.075 0.01 -0.0195417)
(4.125 0.01 -0.0197916)
(4.175 0.01 -0.0200416)
(4.225 0.01 -0.0202917)
(4.275 0.01 -0.0205416)
(4.325 0.01 -0.0207917)
(4.375 0.01 -0.0210416)
(4.425 0.01 -0.0212916)
(4.475 0.01 -0.0215416)
(4.525 0.01 -0.0217916)
(4.575 0.01 -0.0220416)
(4.625 0.01 -0.0222916)
(4.675 0.01 -0.0225416)
(4.725 0.01 -0.0227916)
(4.775 0.01 -0.0230417)
(4.825 0.01 -0.0232916)
(4.875 0.01 -0.0235416)
(4.925 0.01 -0.0237916)
(4.975 0.01 -0.0240417)
(5.025 0.01 -0.0242916)
(5.075 0.01 -0.0245416)
(5.125 0.01 -0.0247916)
(5.175 0.01 -0.0250416)
(5.225 0.01 -0.0252917)
(5.275 0.01 -0.0255416)
(5.325 0.01 -0.0257916)
(5.375 0.01 -0.0260416)
(5.425 0.01 -0.0262916)
(5.475 0.01 -0.0265416)
(5.525 0.01 -0.0267916)
(5.575 0.01 -0.0270417)
(5.625 0.01 -0.0272916)
(5.675 0.01 -0.0275416)
(5.725 0.01 -0.0277917)
(5.775 0.01 -0.0280417)
(5.825 0.01 -0.0282916)
(5.875 0.01 -0.0285416)
(5.925 0.01 -0.0287916)
(5.975 0.01 -0.0290416)
(6.025 0.01 -0.0292916)
(6.075 0.01 -0.0295417)
(6.125 0.01 -0.0297916)
(6.175 0.01 -0.0300416)
(6.225 0.01 -0.0302916)
(6.275 0.01 -0.0305416)
(6.325 0.01 -0.0307916)
(6.375 0.01 -0.0310417)
(6.425 0.01 -0.0312917)
(6.475 0.01 -0.0315416)
(6.525 0.01 -0.0317916)
(6.575 0.01 -0.0320417)
(6.625 0.01 -0.0322917)
(6.675 0.01 -0.0325417)
(6.725 0.01 -0.0327917)
(6.775 0.01 -0.0330416)
(6.825 0.01 -0.0332916)
(6.875 0.01 -0.0335417)
(6.925 0.01 -0.0337916)
(6.975 0.01 -0.0340416)
(7.025 0.01 -0.0342916)
(7.075 0.01 -0.0345416)
(7.125 0.01 -0.0347917)
(7.175 0.01 -0.0350417)
(7.225 0.01 -0.0352917)
(7.275 0.01 -0.0355417)
(7.325 0.01 -0.0357917)
(7.375 0.01 -0.0360417)
(7.425 0.01 -0.0362916)
(7.475 0.01 -0.0365417)
(7.525 0.01 -0.0367916)
(7.575 0.01 -0.0370416)
(7.625 0.01 -0.0372916)
(7.675 0.01 -0.0375417)
(7.725 0.01 -0.0377916)
(7.775 0.01 -0.0380417)
(7.825 0.01 -0.0382916)
(7.875 0.01 -0.0385417)
(7.925 0.01 -0.0387916)
(7.975 0.01 -0.0390417)
(8.025 0.01 -0.0392916)
(8.075 0.01 -0.0395417)
(8.125 0.01 -0.0397916)
(8.175 0.01 -0.0400416)
(8.225 0.01 -0.0402916)
(8.275 0.01 -0.0405417)
(8.325 0.01 -0.0407916)
(8.375 0.01 -0.0410417)
(8.425 0.01 -0.0412917)
(8.475 0.01 -0.0415417)
(8.525 0.01 -0.0417917)
(8.575 0.01 -0.0420417)
(8.625 0.01 -0.0422917)
(8.675 0.01 -0.0425417)
(8.725 0.01 -0.0427917)
(8.775 0.01 -0.0430417)
(8.825 0.01 -0.0432917)
(8.875 0.01 -0.0435416)
(8.925 0.01 -0.0437917)
(8.975 0.01 -0.0440416)
(9.025 0.01 -0.0442917)
(9.075 0.01 -0.0445417)
(9.125 0.01 -0.0447917)
(9.175 0.01 -0.0450416)
(9.225 0.01 -0.0452916)
(9.275 0.01 -0.0455416)
(9.325 0.01 -0.0457916)
(9.375 0.01 -0.0460416)
(9.425 0.01 -0.0462917)
(9.475 0.01 -0.0465416)
(9.525 0.01 -0.0467916)
(9.575 0.01 -0.0470416)
(9.625 0.01 -0.0472916)
(9.675 0.01 -0.0475416)
(9.725 0.01 -0.0477917)
(9.775 0.01 -0.0480417)
(9.825 0.01 -0.0482916)
(9.875 0.01 -0.0485417)
(9.925 0.01 -0.0487916)
(9.975 0.01 -0.0490417)
(10.025 0.01 -0.0492917)
(10.075 0.01 -0.0495416)
(10.125 0.01 -0.0497917)
(10.175 0.01 -0.0500416)
(10.225 0.01 -0.0502916)
(10.275 0.01 -0.0505417)
(10.325 0.01 -0.0507917)
(10.375 0.01 -0.0510417)
(10.425 0.01 -0.0512916)
(10.475 0.01 -0.0515416)
(10.525 0.01 -0.0517916)
(10.575 0.01 -0.0520416)
(10.625 0.01 -0.0522916)
(10.675 0.01 -0.0525417)
(10.725 0.01 -0.0527917)
(10.775 0.01 -0.0530416)
(10.825 0.01 -0.0532917)
(10.875 0.01 -0.0535416)
(10.925 0.01 -0.0537917)
(10.975 0.01 -0.0540417)
(11.025 0.01 -0.0542917)
(11.075 0.01 -0.0545416)
(11.125 0.01 -0.0547916)
(11.175 0.01 -0.0550417)
(11.225 0.01 -0.0552916)
(11.275 0.01 -0.0555416)
(11.325 0.01 -0.0557916)
(11.375 0.01 -0.0560416)
(11.425 0.01 -0.0562917)
(11.475 0.01 -0.0565417)
(11.525 0.01 -0.0567916)
(11.575 0.01 -0.0570417)
(11.625 0.01 -0.0572916)
(11.675 0.01 -0.0575416)
(11.725 0.01 -0.0577916)
(11.775 0.01 -0.0580416)
(11.825 0.01 -0.0582917)
(11.875 0.01 -0.0585417)
(11.925 0.01 -0.0587916)
(11.975 0.01 -0.0590417)
(12.025 0.01 -0.0592916)
(12.075 0.01 -0.0595416)
(12.125 0.01 -0.0597917)
(12.175 0.01 -0.0600416)
(12.225 0.01 -0.0602917)
(12.275 0.01 -0.0605416)
(12.325 0.01 -0.0607916)
(12.375 0.01 -0.0610416)
(12.425 0.01 -0.0612917)
(12.475 0.01 -0.0615417)
(12.525 0.01 -0.0617917)
(12.575 0.01 -0.0620417)
(12.625 0.01 -0.0622917)
(12.675 0.01 -0.0625417)
(12.725 0.01 -0.0627916)
(12.775 0.01 -0.0630416)
(12.825 0.01 -0.0632916)
(12.875 0.01 -0.0635417)
(12.925 0.01 -0.0637916)
(12.975 0.01 -0.0640416)
(13.025 0.01 -0.0642917)
(13.075 0.01 -0.0645416)
(13.125 0.01 -0.0647917)
(13.175 0.01 -0.0650417)
(13.225 0.01 -0.0652916)
(13.275 0.01 -0.0655416)
(13.325 0.01 -0.0657916)
(13.375 0.01 -0.0660417)
(13.425 0.01 -0.0662916)
(13.475 0.01 -0.0665416)
(13.525 0.01 -0.0667916)
(13.575 0.01 -0.0670416)
(13.625 0.01 -0.0672917)
(13.675 0.01 -0.0675417)
(13.725 0.01 -0.0677916)
(13.775 0.01 -0.0680416)
(13.825 0.01 -0.0682916)
(13.875 0.01 -0.0685416)
(13.925 0.01 -0.0687916)
(13.975 0.01 -0.0690416)
(14.025 0.01 -0.0692917)
(14.075 0.01 -0.0695416)
(14.125 0.01 -0.0697917)
(14.175 0.01 -0.0700416)
(14.225 0.01 -0.0702916)
(14.275 0.01 -0.0705417)
(14.325 0.01 -0.0707916)
(14.375 0.01 -0.0710416)
(14.425 0.01 -0.0712916)
(14.475 0.01 -0.0715417)
(14.525 0.01 -0.0717916)
(14.575 0.01 -0.0720416)
(14.625 0.01 -0.0722916)
(14.675 0.01 -0.0725416)
(14.725 0.01 -0.0727917)
(14.775 0.01 -0.0730416)
(14.825 0.01 -0.0732916)
(14.875 0.01 -0.0735417)
(14.925 0.01 -0.0737917)
(14.975 0.01 -0.0740417)
(0.025 0.01 0.002375)
(0.075 0.01 0.002125)
(0.125 0.01 0.001875)
(0.175 0.01 0.001625)
(0.225 0.01 0.001375)
(0.275 0.01 0.001125)
(0.325 0.01 0.000874998)
(0.375 0.01 0.000624998)
(0.425 0.01 0.000374999)
(0.475 0.01 0.000124999)
(0.525 0.01 -0.000124999)
(0.575 0.01 -0.000374998)
(0.625 0.01 -0.000624998)
(0.675 0.01 -0.000874998)
(0.725 0.01 -0.001125)
(0.775 0.01 -0.001375)
(0.825 0.01 -0.001625)
(0.875 0.01 -0.001875)
(0.925 0.01 -0.002125)
(0.975 0.01 -0.002375)
(1.025 0.01 -0.002625)
(1.075 0.01 -0.002875)
(1.125 0.01 -0.003125)
(1.175 0.01 -0.003375)
(1.225 0.01 -0.003625)
(1.275 0.01 -0.003875)
(1.325 0.01 -0.004125)
(1.375 0.01 -0.004375)
(1.425 0.01 -0.004625)
(1.475 0.01 -0.004875)
(1.525 0.01 -0.005125)
(1.575 0.01 -0.005375)
(1.625 0.01 -0.005625)
(1.675 0.01 -0.005875)
(1.725 0.01 -0.006125)
(1.775 0.01 -0.006375)
(1.825 0.01 -0.006625)
(1.875 0.01 -0.006875)
(1.925 0.01 -0.007125)
(1.975 0.01 -0.007375)
(2.025 0.01 -0.007625)
(2.075 0.01 -0.007875)
(2.125 0.01 -0.008125)
(2.175 0.01 -0.008375)
(2.225 0.01 -0.008625)
(2.275 0.01 -0.008875)
(2.325 0.01 -0.00912499)
(2.375 0.01 -0.00937498)
(2.425 0.01 -0.00962498)
(2.475 0.01 -0.00987498)
(2.525 0.01 -0.010125)
(2.575 0.01 -0.010375)
(2.625 0.01 -0.010625)
(2.675 0.01 -0.010875)
(2.725 0.01 -0.011125)
(2.775 0.01 -0.011375)
(2.825 0.01 -0.011625)
(2.875 0.01 -0.011875)
(2.925 0.01 -0.012125)
(2.975 0.01 -0.012375)
(3.025 0.01 -0.012625)
(3.075 0.01 -0.012875)
(3.125 0.01 -0.013125)
(3.175 0.01 -0.013375)
(3.225 0.01 -0.013625)
(3.275 0.01 -0.013875)
(3.325 0.01 -0.014125)
(3.375 0.01 -0.014375)
(3.425 0.01 -0.014625)
(3.475 0.01 -0.014875)
(3.525 0.01 -0.015125)
(3.575 0.01 -0.015375)
(3.625 0.01 -0.015625)
(3.675 0.01 -0.015875)
(3.725 0.01 -0.016125)
(3.775 0.01 -0.016375)
(3.825 0.01 -0.016625)
(3.875 0.01 -0.016875)
(3.925 0.01 -0.017125)
(3.975 0.01 -0.017375)
(4.025 0.01 -0.017625)
(4.075 0.01 -0.017875)
(4.125 0.01 -0.018125)
(4.175 0.01 -0.018375)
(4.225 0.01 -0.018625)
(4.275 0.01 -0.018875)
(4.325 0.01 -0.019125)
(4.375 0.01 -0.019375)
(4.425 0.01 -0.019625)
(4.475 0.01 -0.019875)
(4.525 0.01 -0.020125)
(4.575 0.01 -0.020375)
(4.625 0.01 -0.020625)
(4.675 0.01 -0.020875)
(4.725 0.01 -0.021125)
(4.775 0.01 -0.021375)
(4.825 0.01 -0.021625)
(4.875 0.01 -0.021875)
(4.925 0.01 -0.022125)
(4.975 0.01 -0.022375)
(5.025 0.01 -0.022625)
(5.075 0.01 -0.022875)
(5.125 0.01 -0.023125)
(5.175 0.01 -0.023375)
(5.225 0.01 -0.023625)
(5.275 0.01 -0.023875)
(5.325 0.01 -0.024125)
(5.375 0.01 -0.024375)
(5.425 0.01 -0.024625)
(5.475 0.01 -0.024875)
(5.525 0.01 -0.025125)
(5.575 0.01 -0.025375)
(5.625 0.01 -0.025625)
(5.675 0.01 -0.025875)
(5.725 0.01 -0.026125)
(5.775 0.01 -0.026375)
(5.825 0.01 -0.026625)
(5.875 0.01 -0.026875)
(5.925 0.01 -0.027125)
(5.975 0.01 -0.027375)
(6.025 0.01 -0.027625)
(6.075 0.01 -0.027875)
(6.125 0.01 -0.028125)
(6.175 0.01 -0.028375)
(6.225 0.01 -0.028625)
(6.275 0.01 -0.028875)
(6.325 0.01 -0.029125)
(6.375 0.01 -0.029375)
(6.425 0.01 -0.029625)
(6.475 0.01 -0.029875)
(6.525 0.01 -0.030125)
(6.575 0.01 -0.030375)
(6.625 0.01 -0.030625)
(6.675 0.01 -0.030875)
(6.725 0.01 -0.031125)
(6.775 0.01 -0.031375)
(6.825 0.01 -0.031625)
(6.875 0.01 -0.031875)
(6.925 0.01 -0.032125)
(6.975 0.01 -0.032375)
(7.025 0.01 -0.032625)
(7.075 0.01 -0.032875)
(7.125 0.01 -0.033125)
(7.175 0.01 -0.033375)
(7.225 0.01 -0.033625)
(7.275 0.01 -0.033875)
(7.325 0.01 -0.034125)
(7.375 0.01 -0.034375)
(7.425 0.01 -0.034625)
(7.475 0.01 -0.034875)
(7.525 0.01 -0.035125)
(7.575 0.01 -0.035375)
(7.625 0.01 -0.035625)
(7.675 0.01 -0.035875)
(7.725 0.01 -0.036125)
(7.775 0.01 -0.036375)
(7.825 0.01 -0.036625)
(7.875 0.01 -0.036875)
(7.925 0.01 -0.037125)
(7.975 0.01 -0.037375)
(8.025 0.01 -0.037625)
(8.075 0.01 -0.037875)
(8.125 0.01 -0.038125)
(8.175 0.01 -0.038375)
(8.225 0.01 -0.038625)
(8.275 0.01 -0.038875)
(8.325 0.01 -0.039125)
(8.375 0.01 -0.039375)
(8.425 0.01 -0.039625)
(8.475 0.01 -0.039875)
(8.525 0.01 -0.040125)
(8.575 0.01 -0.040375)
(8.625 0.01 -0.040625)
(8.675 0.01 -0.040875)
(8.725 0.01 -0.041125)
(8.775 0.01 -0.041375)
(8.825 0.01 -0.041625)
(8.875 0.01 -0.041875)
(8.925 0.01 -0.042125)
(8.975 0.01 -0.042375)
(9.025 0.01 -0.042625)
(9.075 0.01 -0.042875)
(9.125 0.01 -0.043125)
(9.175 0.01 -0.043375)
(9.225 0.01 -0.043625)
(9.275 0.01 -0.043875)
(9.325 0.01 -0.044125)
(9.375 0.01 -0.044375)
(9.425 0.01 -0.044625)
(9.475 0.01 -0.044875)
(9.525 0.01 -0.045125)
(9.575 0.01 -0.045375)
(9.625 0.01 -0.045625)
(9.675 0.01 -0.045875)
(9.725 0.01 -0.046125)
(9.775 0.01 -0.046375)
(9.825 0.01 -0.046625)
(9.875 0.01 -0.046875)
(9.925 0.01 -0.047125)
(9.975 0.01 -0.047375)
(10.025 0.01 -0.047625)
(10.075 0.01 -0.047875)
(10.125 0.01 -0.048125)
(10.175 0.01 -0.048375)
(10.225 0.01 -0.048625)
(10.275 0.01 -0.048875)
(10.325 0.01 -0.049125)
(10.375 0.01 -0.049375)
(10.425 0.01 -0.049625)
(10.475 0.01 -0.049875)
(10.525 0.01 -0.050125)
(10.575 0.01 -0.050375)
(10.625 0.01 -0.050625)
(10.675 0.01 -0.050875)
(10.725 0.01 -0.051125)
(10.775 0.01 -0.051375)
(10.825 0.01 -0.051625)
(10.875 0.01 -0.051875)
(10.925 0.01 -0.052125)
(10.975 0.01 -0.052375)
(11.025 0.01 -0.052625)
(11.075 0.01 -0.052875)
(11.125 0.01 -0.053125)
(11.175 0.01 -0.053375)
(11.225 0.01 -0.053625)
(11.275 0.01 -0.053875)
(11.325 0.01 -0.054125)
(11.375 0.01 -0.054375)
(11.425 0.01 -0.054625)
(11.475 0.01 -0.054875)
(11.525 0.01 -0.055125)
(11.575 0.01 -0.055375)
(11.625 0.01 -0.055625)
(11.675 0.01 -0.055875)
(11.725 0.01 -0.056125)
(11.775 0.01 -0.056375)
(11.825 0.01 -0.056625)
(11.875 0.01 -0.056875)
(11.925 0.01 -0.057125)
(11.975 0.01 -0.057375)
(12.025 0.01 -0.057625)
(12.075 0.01 -0.057875)
(12.125 0.01 -0.058125)
(12.175 0.01 -0.058375)
(12.225 0.01 -0.058625)
(12.275 0.01 -0.058875)
(12.325 0.01 -0.059125)
(12.375 0.01 -0.059375)
(12.425 0.01 -0.059625)
(12.475 0.01 -0.059875)
(12.525 0.01 -0.060125)
(12.575 0.01 -0.060375)
(12.625 0.01 -0.060625)
(12.675 0.01 -0.060875)
(12.725 0.01 -0.061125)
(12.775 0.01 -0.061375)
(12.825 0.01 -0.061625)
(12.875 0.01 -0.061875)
(12.925 0.01 -0.062125)
(12.975 0.01 -0.062375)
(13.025 0.01 -0.062625)
(13.075 0.01 -0.062875)
(13.125 0.01 -0.063125)
(13.175 0.01 -0.063375)
(13.225 0.01 -0.063625)
(13.275 0.01 -0.063875)
(13.325 0.01 -0.064125)
(13.375 0.01 -0.064375)
(13.425 0.01 -0.064625)
(13.475 0.01 -0.064875)
(13.525 0.01 -0.065125)
(13.575 0.01 -0.065375)
(13.625 0.01 -0.065625)
(13.675 0.01 -0.065875)
(13.725 0.01 -0.066125)
(13.775 0.01 -0.066375)
(13.825 0.01 -0.066625)
(13.875 0.01 -0.066875)
(13.925 0.01 -0.067125)
(13.975 0.01 -0.067375)
(14.025 0.01 -0.067625)
(14.075 0.01 -0.067875)
(14.125 0.01 -0.068125)
(14.175 0.01 -0.068375)
(14.225 0.01 -0.068625)
(14.275 0.01 -0.068875)
(14.325 0.01 -0.069125)
(14.375 0.01 -0.069375)
(14.425 0.01 -0.069625)
(14.475 0.01 -0.069875)
(14.525 0.01 -0.070125)
(14.575 0.01 -0.070375)
(14.625 0.01 -0.070625)
(14.675 0.01 -0.070875)
(14.725 0.01 -0.071125)
(14.775 0.01 -0.071375)
(14.825 0.01 -0.071625)
(14.875 0.01 -0.071875)
(14.925 0.01 -0.072125)
(14.975 0.01 -0.072375)
(0.025 0.01 0.00404167)
(0.075 0.01 0.00379166)
(0.125 0.01 0.00354166)
(0.175 0.01 0.00329167)
(0.225 0.01 0.00304167)
(0.275 0.01 0.00279167)
(0.325 0.01 0.00254167)
(0.375 0.01 0.00229167)
(0.425 0.01 0.00204166)
(0.475 0.01 0.00179167)
(0.525 0.01 0.00154167)
(0.575 0.01 0.00129167)
(0.625 0.01 0.00104167)
(0.675 0.01 0.000791667)
(0.725 0.01 0.000541667)
(0.775 0.01 0.000291666)
(0.825 0.01 4.16665e-05)
(0.875 0.01 -0.000208334)
(0.925 0.01 -0.000458335)
(0.975 0.01 -0.000708335)
(1.025 0.01 -0.000958335)
(1.075 0.01 -0.00120833)
(1.125 0.01 -0.00145833)
(1.175 0.01 -0.00170834)
(1.225 0.01 -0.00195833)
(1.275 0.01 -0.00220834)
(1.325 0.01 -0.00245834)
(1.375 0.01 -0.00270834)
(1.425 0.01 -0.00295833)
(1.475 0.01 -0.00320834)
(1.525 0.01 -0.00345834)
(1.575 0.01 -0.00370834)
(1.625 0.01 -0.00395833)
(1.675 0.01 -0.00420834)
(1.725 0.01 -0.00445833)
(1.775 0.01 -0.00470833)
(1.825 0.01 -0.00495834)
(1.875 0.01 -0.00520833)
(1.925 0.01 -0.00545833)
(1.975 0.01 -0.00570833)
(2.025 0.01 -0.00595833)
(2.075 0.01 -0.00620833)
(2.125 0.01 -0.00645834)
(2.175 0.01 -0.00670834)
(2.225 0.01 -0.00695834)
(2.275 0.01 -0.00720834)
(2.325 0.01 -0.00745834)
(2.375 0.01 -0.00770833)
(2.425 0.01 -0.00795834)
(2.475 0.01 -0.00820833)
(2.525 0.01 -0.00845833)
(2.575 0.01 -0.00870833)
(2.625 0.01 -0.00895834)
(2.675 0.01 -0.00920834)
(2.725 0.01 -0.00945835)
(2.775 0.01 -0.00970835)
(2.825 0.01 -0.00995835)
(2.875 0.01 -0.0102083)
(2.925 0.01 -0.0104583)
(2.975 0.01 -0.0107084)
(3.025 0.01 -0.0109584)
(3.075 0.01 -0.0112084)
(3.125 0.01 -0.0114583)
(3.175 0.01 -0.0117083)
(3.225 0.01 -0.0119583)
(3.275 0.01 -0.0122083)
(3.325 0.01 -0.0124583)
(3.375 0.01 -0.0127083)
(3.425 0.01 -0.0129583)
(3.475 0.01 -0.0132083)
(3.525 0.01 -0.0134583)
(3.575 0.01 -0.0137084)
(3.625 0.01 -0.0139583)
(3.675 0.01 -0.0142083)
(3.725 0.01 -0.0144584)
(3.775 0.01 -0.0147083)
(3.825 0.01 -0.0149583)
(3.875 0.01 -0.0152084)
(3.925 0.01 -0.0154584)
(3.975 0.01 -0.0157083)
(4.025 0.01 -0.0159583)
(4.075 0.01 -0.0162083)
(4.125 0.01 -0.0164583)
(4.175 0.01 -0.0167084)
(4.225 0.01 -0.0169583)
(4.275 0.01 -0.0172083)
(4.325 0.01 -0.0174584)
(4.375 0.01 -0.0177083)
(4.425 0.01 -0.0179583)
(4.475 0.01 -0.0182084)
(4.525 0.01 -0.0184583)
(4.575 0.01 -0.0187083)
(4.625 0.01 -0.0189583)
(4.675 0.01 -0.0192083)
(4.725 0.01 -0.0194584)
(4.775 0.01 -0.0197083)
(4.825 0.01 -0.0199583)
(4.875 0.01 -0.0202083)
(4.925 0.01 -0.0204584)
(4.975 0.01 -0.0207084)
(5.025 0.01 -0.0209583)
(5.075 0.01 -0.0212084)
(5.125 0.01 -0.0214583)
(5.175 0.01 -0.0217083)
(5.225 0.01 -0.0219584)
(5.275 0.01 -0.0222083)
(5.325 0.01 -0.0224583)
(5.375 0.01 -0.0227083)
(5.425 0.01 -0.0229583)
(5.475 0.01 -0.0232083)
(5.525 0.01 -0.0234583)
(5.575 0.01 -0.0237083)
(5.625 0.01 -0.0239583)
(5.675 0.01 -0.0242083)
(5.725 0.01 -0.0244583)
(5.775 0.01 -0.0247084)
(5.825 0.01 -0.0249584)
(5.875 0.01 -0.0252083)
(5.925 0.01 -0.0254583)
(5.975 0.01 -0.0257084)
(6.025 0.01 -0.0259583)
(6.075 0.01 -0.0262084)
(6.125 0.01 -0.0264584)
(6.175 0.01 -0.0267084)
(6.225 0.01 -0.0269583)
(6.275 0.01 -0.0272083)
(6.325 0.01 -0.0274583)
(6.375 0.01 -0.0277083)
(6.425 0.01 -0.0279583)
(6.475 0.01 -0.0282084)
(6.525 0.01 -0.0284584)
(6.575 0.01 -0.0287083)
(6.625 0.01 -0.0289583)
(6.675 0.01 -0.0292084)
(6.725 0.01 -0.0294584)
(6.775 0.01 -0.0297083)
(6.825 0.01 -0.0299583)
(6.875 0.01 -0.0302083)
(6.925 0.01 -0.0304583)
(6.975 0.01 -0.0307083)
(7.025 0.01 -0.0309583)
(7.075 0.01 -0.0312083)
(7.125 0.01 -0.0314583)
(7.175 0.01 -0.0317084)
(7.225 0.01 -0.0319584)
(7.275 0.01 -0.0322084)
(7.325 0.01 -0.0324583)
(7.375 0.01 -0.0327084)
(7.425 0.01 -0.0329584)
(7.475 0.01 -0.0332084)
(7.525 0.01 -0.0334583)
(7.575 0.01 -0.0337084)
(7.625 0.01 -0.0339584)
(7.675 0.01 -0.0342083)
(7.725 0.01 -0.0344584)
(7.775 0.01 -0.0347083)
(7.825 0.01 -0.0349584)
(7.875 0.01 -0.0352084)
(7.925 0.01 -0.0354584)
(7.975 0.01 -0.0357083)
(8.025 0.01 -0.0359583)
(8.075 0.01 -0.0362084)
(8.125 0.01 -0.0364583)
(8.175 0.01 -0.0367084)
(8.225 0.01 -0.0369583)
(8.275 0.01 -0.0372084)
(8.325 0.01 -0.0374583)
(8.375 0.01 -0.0377083)
(8.425 0.01 -0.0379584)
(8.475 0.01 -0.0382084)
(8.525 0.01 -0.0384583)
(8.575 0.01 -0.0387083)
(8.625 0.01 -0.0389583)
(8.675 0.01 -0.0392084)
(8.725 0.01 -0.0394584)
(8.775 0.01 -0.0397084)
(8.825 0.01 -0.0399584)
(8.875 0.01 -0.0402084)
(8.925 0.01 -0.0404583)
(8.975 0.01 -0.0407083)
(9.025 0.01 -0.0409584)
(9.075 0.01 -0.0412083)
(9.125 0.01 -0.0414584)
(9.175 0.01 -0.0417084)
(9.225 0.01 -0.0419584)
(9.275 0.01 -0.0422084)
(9.325 0.01 -0.0424583)
(9.375 0.01 -0.0427083)
(9.425 0.01 -0.0429584)
(9.475 0.01 -0.0432084)
(9.525 0.01 -0.0434583)
(9.575 0.01 -0.0437083)
(9.625 0.01 -0.0439584)
(9.675 0.01 -0.0442083)
(9.725 0.01 -0.0444583)
(9.775 0.01 -0.0447084)
(9.825 0.01 -0.0449583)
(9.875 0.01 -0.0452083)
(9.925 0.01 -0.0454583)
(9.975 0.01 -0.0457083)
(10.025 0.01 -0.0459584)
(10.075 0.01 -0.0462083)
(10.125 0.01 -0.0464583)
(10.175 0.01 -0.0467084)
(10.225 0.01 -0.0469584)
(10.275 0.01 -0.0472083)
(10.325 0.01 -0.0474584)
(10.375 0.01 -0.0477084)
(10.425 0.01 -0.0479583)
(10.475 0.01 -0.0482084)
(10.525 0.01 -0.0484584)
(10.575 0.01 -0.0487084)
(10.625 0.01 -0.0489583)
(10.675 0.01 -0.0492084)
(10.725 0.01 -0.0494583)
(10.775 0.01 -0.0497083)
(10.825 0.01 -0.0499584)
(10.875 0.01 -0.0502083)
(10.925 0.01 -0.0504584)
(10.975 0.01 -0.0507084)
(11.025 0.01 -0.0509584)
(11.075 0.01 -0.0512084)
(11.125 0.01 -0.0514584)
(11.175 0.01 -0.0517083)
(11.225 0.01 -0.0519583)
(11.275 0.01 -0.0522084)
(11.325 0.01 -0.0524584)
(11.375 0.01 -0.0527083)
(11.425 0.01 -0.0529583)
(11.475 0.01 -0.0532083)
(11.525 0.01 -0.0534584)
(11.575 0.01 -0.0537084)
(11.625 0.01 -0.0539584)
(11.675 0.01 -0.0542083)
(11.725 0.01 -0.0544583)
(11.775 0.01 -0.0547084)
(11.825 0.01 -0.0549583)
(11.875 0.01 -0.0552083)
(11.925 0.01 -0.0554584)
(11.975 0.01 -0.0557083)
(12.025 0.01 -0.0559583)
(12.075 0.01 -0.0562084)
(12.125 0.01 -0.0564583)
(12.175 0.01 -0.0567083)
(12.225 0.01 -0.0569583)
(12.275 0.01 -0.0572084)
(12.325 0.01 -0.0574583)
(12.375 0.01 -0.0577083)
(12.425 0.01 -0.0579584)
(12.475 0.01 -0.0582084)
(12.525 0.01 -0.0584583)
(12.575 0.01 -0.0587083)
(12.625 0.01 -0.0589584)
(12.675 0.01 -0.0592083)
(12.725 0.01 -0.0594584)
(12.775 0.01 -0.0597083)
(12.825 0.01 -0.0599583)
(12.875 0.01 -0.0602083)
(12.925 0.01 -0.0604584)
(12.975 0.01 -0.0607083)
(13.025 0.01 -0.0609584)
(13.075 0.01 -0.0612083)
(13.125 0.01 -0.0614584)
(13.175 0.01 -0.0617084)
(13.225 0.01 -0.0619583)
(13.275 0.01 -0.0622084)
(13.325 0.01 -0.0624584)
(13.375 0.01 -0.0627084)
(13.425 0.01 -0.0629583)
(13.475 0.01 -0.0632083)
(13.525 0.01 -0.0634583)
(13.575 0.01 -0.0637083)
(13.625 0.01 -0.0639583)
(13.675 0.01 -0.0642083)
(13.725 0.01 -0.0644583)
(13.775 0.01 -0.0647083)
(13.825 0.01 -0.0649584)
(13.875 0.01 -0.0652083)
(13.925 0.01 -0.0654583)
(13.975 0.01 -0.0657084)
(14.025 0.01 -0.0659584)
(14.075 0.01 -0.0662083)
(14.125 0.01 -0.0664584)
(14.175 0.01 -0.0667083)
(14.225 0.01 -0.0669584)
(14.275 0.01 -0.0672084)
(14.325 0.01 -0.0674584)
(14.375 0.01 -0.0677084)
(14.425 0.01 -0.0679584)
(14.475 0.01 -0.0682084)
(14.525 0.01 -0.0684584)
(14.575 0.01 -0.0687084)
(14.625 0.01 -0.0689584)
(14.675 0.01 -0.0692083)
(14.725 0.01 -0.0694583)
(14.775 0.01 -0.0697084)
(14.825 0.01 -0.0699583)
(14.875 0.01 -0.0702083)
(14.925 0.01 -0.0704584)
(14.975 0.01 -0.0707083)
(0.025 0.01 0.00570834)
(0.075 0.01 0.00545833)
(0.125 0.01 0.00520834)
(0.175 0.01 0.00495833)
(0.225 0.01 0.00470834)
(0.275 0.01 0.00445833)
(0.325 0.01 0.00420834)
(0.375 0.01 0.00395834)
(0.425 0.01 0.00370833)
(0.475 0.01 0.00345833)
(0.525 0.01 0.00320833)
(0.575 0.01 0.00295833)
(0.625 0.01 0.00270834)
(0.675 0.01 0.00245833)
(0.725 0.01 0.00220834)
(0.775 0.01 0.00195833)
(0.825 0.01 0.00170833)
(0.875 0.01 0.00145833)
(0.925 0.01 0.00120833)
(0.975 0.01 0.000958335)
(1.025 0.01 0.000708335)
(1.075 0.01 0.000458335)
(1.125 0.01 0.000208334)
(1.175 0.01 -4.16665e-05)
(1.225 0.01 -0.000291666)
(1.275 0.01 -0.000541667)
(1.325 0.01 -0.000791667)
(1.375 0.01 -0.00104167)
(1.425 0.01 -0.00129167)
(1.475 0.01 -0.00154167)
(1.525 0.01 -0.00179167)
(1.575 0.01 -0.00204167)
(1.625 0.01 -0.00229167)
(1.675 0.01 -0.00254167)
(1.725 0.01 -0.00279166)
(1.775 0.01 -0.00304166)
(1.825 0.01 -0.00329167)
(1.875 0.01 -0.00354167)
(1.925 0.01 -0.00379167)
(1.975 0.01 -0.00404166)
(2.025 0.01 -0.00429167)
(2.075 0.01 -0.00454166)
(2.125 0.01 -0.00479167)
(2.175 0.01 -0.00504166)
(2.225 0.01 -0.00529167)
(2.275 0.01 -0.00554167)
(2.325 0.01 -0.00579166)
(2.375 0.01 -0.00604166)
(2.425 0.01 -0.00629166)
(2.475 0.01 -0.00654167)
(2.525 0.01 -0.00679167)
(2.575 0.01 -0.00704167)
(2.625 0.01 -0.00729167)
(2.675 0.01 -0.00754167)
(2.725 0.01 -0.00779167)
(2.775 0.01 -0.00804166)
(2.825 0.01 -0.00829166)
(2.875 0.01 -0.00854167)
(2.925 0.01 -0.00879166)
(2.975 0.01 -0.00904166)
(3.025 0.01 -0.00929166)
(3.075 0.01 -0.00954167)
(3.125 0.01 -0.00979166)
(3.175 0.01 -0.0100417)
(3.225 0.01 -0.0102917)
(3.275 0.01 -0.0105417)
(3.325 0.01 -0.0107917)
(3.375 0.01 -0.0110416)
(3.425 0.01 -0.0112916)
(3.475 0.01 -0.0115417)
(3.525 0.01 -0.0117917)
(3.575 0.01 -0.0120416)
(3.625 0.01 -0.0122917)
(3.675 0.01 -0.0125417)
(3.725 0.01 -0.0127916)
(3.775 0.01 -0.0130416)
(3.825 0.01 -0.0132916)
(3.875 0.01 -0.0135416)
(3.925 0.01 -0.0137917)
(3.975 0.01 -0.0140416)
(4.025 0.01 -0.0142916)
(4.075 0.01 -0.0145417)
(4.125 0.01 -0.0147916)
(4.175 0.01 -0.0150417)
(4.225 0.01 -0.0152916)
(4.275 0.01 -0.0155417)
(4.325 0.01 -0.0157917)
(4.375 0.01 -0.0160416)
(4.425 0.01 -0.0162917)
(4.475 0.01 -0.0165416)
(4.525 0.01 -0.0167916)
(4.575 0.01 -0.0170416)
(4.625 0.01 -0.0172917)
(4.675 0.01 -0.0175416)
(4.725 0.01 -0.0177917)
(4.775 0.01 -0.0180417)
(4.825 0.01 -0.0182916)
(4.875 0.01 -0.0185416)
(4.925 0.01 -0.0187917)
(4.975 0.01 -0.0190417)
(5.025 0.01 -0.0192916)
(5.075 0.01 -0.0195417)
(5.125 0.01 -0.0197916)
(5.175 0.01 -0.0200416)
(5.225 0.01 -0.0202916)
(5.275 0.01 -0.0205416)
(5.325 0.01 -0.0207916)
(5.375 0.01 -0.0210416)
(5.425 0.01 -0.0212916)
(5.475 0.01 -0.0215416)
(5.525 0.01 -0.0217916)
(5.575 0.01 -0.0220416)
(5.625 0.01 -0.0222917)
(5.675 0.01 -0.0225416)
(5.725 0.01 -0.0227916)
(5.775 0.01 -0.0230416)
(5.825 0.01 -0.0232917)
(5.875 0.01 -0.0235416)
(5.925 0.01 -0.0237916)
(5.975 0.01 -0.0240417)
(6.025 0.01 -0.0242917)
(6.075 0.01 -0.0245416)
(6.125 0.01 -0.0247916)
(6.175 0.01 -0.0250416)
(6.225 0.01 -0.0252916)
(6.275 0.01 -0.0255416)
(6.325 0.01 -0.0257916)
(6.375 0.01 -0.0260417)
(6.425 0.01 -0.0262917)
(6.475 0.01 -0.0265417)
(6.525 0.01 -0.0267917)
(6.575 0.01 -0.0270417)
(6.625 0.01 -0.0272916)
(6.675 0.01 -0.0275416)
(6.725 0.01 -0.0277916)
(6.775 0.01 -0.0280416)
(6.825 0.01 -0.0282917)
(6.875 0.01 -0.0285417)
(6.925 0.01 -0.0287917)
(6.975 0.01 -0.0290417)
(7.025 0.01 -0.0292916)
(7.075 0.01 -0.0295416)
(7.125 0.01 -0.0297916)
(7.175 0.01 -0.0300416)
(7.225 0.01 -0.0302916)
(7.275 0.01 -0.0305416)
(7.325 0.01 -0.0307917)
(7.375 0.01 -0.0310417)
(7.425 0.01 -0.0312917)
(7.475 0.01 -0.0315417)
(7.525 0.01 -0.0317917)
(7.575 0.01 -0.0320417)
(7.625 0.01 -0.0322916)
(7.675 0.01 -0.0325416)
(7.725 0.01 -0.0327917)
(7.775 0.01 -0.0330416)
(7.825 0.01 -0.0332917)
(7.875 0.01 -0.0335417)
(7.925 0.01 -0.0337916)
(7.975 0.01 -0.0340416)
(8.025 0.01 -0.0342917)
(8.075 0.01 -0.0345417)
(8.125 0.01 -0.0347917)
(8.175 0.01 -0.0350416)
(8.225 0.01 -0.0352917)
(8.275 0.01 -0.0355416)
(8.325 0.01 -0.0357916)
(8.375 0.01 -0.0360416)
(8.425 0.01 -0.0362916)
(8.475 0.01 -0.0365416)
(8.525 0.01 -0.0367916)
(8.575 0.01 -0.0370416)
(8.625 0.01 -0.0372916)
(8.675 0.01 -0.0375417)
(8.725 0.01 -0.0377917)
(8.775 0.01 -0.0380416)
(8.825 0.01 -0.0382917)
(8.875 0.01 -0.0385416)
(8.925 0.01 -0.0387916)
(8.975 0.01 -0.0390416)
(9.025 0.01 -0.0392916)
(9.075 0.01 -0.0395416)
(9.125 0.01 -0.0397916)
(9.175 0.01 -0.0400416)
(9.225 0.01 -0.0402916)
(9.275 0.01 -0.0405416)
(9.325 0.01 -0.0407917)
(9.375 0.01 -0.0410417)
(9.425 0.01 -0.0412917)
(9.475 0.01 -0.0415416)
(9.525 0.01 -0.0417917)
(9.575 0.01 -0.0420417)
(9.625 0.01 -0.0422916)
(9.675 0.01 -0.0425417)
(9.725 0.01 -0.0427917)
(9.775 0.01 -0.0430417)
(9.825 0.01 -0.0432916)
(9.875 0.01 -0.0435416)
(9.925 0.01 -0.0437916)
(9.975 0.01 -0.0440417)
(10.025 0.01 -0.0442917)
(10.075 0.01 -0.0445416)
(10.125 0.01 -0.0447917)
(10.175 0.01 -0.0450416)
(10.225 0.01 -0.0452916)
(10.275 0.01 -0.0455416)
(10.325 0.01 -0.0457917)
(10.375 0.01 -0.0460417)
(10.425 0.01 -0.0462916)
(10.475 0.01 -0.0465416)
(10.525 0.01 -0.0467917)
(10.575 0.01 -0.0470417)
(10.625 0.01 -0.0472916)
(10.675 0.01 -0.0475416)
(10.725 0.01 -0.0477917)
(10.775 0.01 -0.0480417)
(10.825 0.01 -0.0482916)
(10.875 0.01 -0.0485416)
(10.925 0.01 -0.0487916)
(10.975 0.01 -0.0490417)
(11.025 0.01 -0.0492917)
(11.075 0.01 -0.0495417)
(11.125 0.01 -0.0497916)
(11.175 0.01 -0.0500417)
(11.225 0.01 -0.0502916)
(11.275 0.01 -0.0505416)
(11.325 0.01 -0.0507917)
(11.375 0.01 -0.0510417)
(11.425 0.01 -0.0512917)
(11.475 0.01 -0.0515416)
(11.525 0.01 -0.0517916)
(11.575 0.01 -0.0520416)
(11.625 0.01 -0.0522917)
(11.675 0.01 -0.0525416)
(11.725 0.01 -0.0527917)
(11.775 0.01 -0.0530416)
(11.825 0.01 -0.0532917)
(11.875 0.01 -0.0535417)
(11.925 0.01 -0.0537916)
(11.975 0.01 -0.0540416)
(12.025 0.01 -0.0542916)
(12.075 0.01 -0.0545417)
(12.125 0.01 -0.0547917)
(12.175 0.01 -0.0550417)
(12.225 0.01 -0.0552917)
(12.275 0.01 -0.0555417)
(12.325 0.01 -0.0557917)
(12.375 0.01 -0.0560416)
(12.425 0.01 -0.0562917)
(12.475 0.01 -0.0565416)
(12.525 0.01 -0.0567916)
(12.575 0.01 -0.0570417)
(12.625 0.01 -0.0572916)
(12.675 0.01 -0.0575416)
(12.725 0.01 -0.0577916)
(12.775 0.01 -0.0580416)
(12.825 0.01 -0.0582917)
(12.875 0.01 -0.0585416)
(12.925 0.01 -0.0587917)
(12.975 0.01 -0.0590416)
(13.025 0.01 -0.0592917)
(13.075 0.01 -0.0595417)
(13.125 0.01 -0.0597917)
(13.175 0.01 -0.0600416)
(13.225 0.01 -0.0602917)
(13.275 0.01 -0.0605416)
(13.325 0.01 -0.0607916)
(13.375 0.01 -0.0610416)
(13.425 0.01 -0.0612917)
(13.475 0.01 -0.0615417)
(13.525 0.01 -0.0617917)
(13.575 0.01 -0.0620417)
(13.625 0.01 -0.0622916)
(13.675 0.01 -0.0625416)
(13.725 0.01 -0.0627916)
(13.775 0.01 -0.0630416)
(13.825 0.01 -0.0632917)
(13.875 0.01 -0.0635417)
(13.925 0.01 -0.0637916)
(13.975 0.01 -0.0640416)
(14.025 0.01 -0.0642917)
(14.075 0.01 -0.0645417)
(14.125 0.01 -0.0647917)
(14.175 0.01 -0.0650417)
(14.225 0.01 -0.0652916)
(14.275 0.01 -0.0655417)
(14.325 0.01 -0.0657916)
(14.375 0.01 -0.0660417)
(14.425 0.01 -0.0662917)
(14.475 0.01 -0.0665416)
(14.525 0.01 -0.0667916)
(14.575 0.01 -0.0670417)
(14.625 0.01 -0.0672917)
(14.675 0.01 -0.0675416)
(14.725 0.01 -0.0677916)
(14.775 0.01 -0.0680417)
(14.825 0.01 -0.0682916)
(14.875 0.01 -0.0685416)
(14.925 0.01 -0.0687916)
(14.975 0.01 -0.0690416)
(0.025 0.01 0.007375)
(0.075 0.01 0.007125)
(0.125 0.01 0.006875)