/*--------------------------------*- C++ -*----------------------------------*\
| =========                 |                                                 |
| \\      /  F ield         | foam-extend: Open Source CFD                    |
|  \\    /   O peration     | Version:     3.2                                |
|   \\  /    A nd           | Web:         http://www.foam-extend.org         |
|    \\/     M anipulation  | For copyright notice see file Copyright         |
\*---------------------------------------------------------------------------*/
FoamFile
{
    version     2.0;
    format      ascii;
    class       volVectorField;
    location    "50";
    object      meshCentreN;
}
// * * * * * * * * * * * * * * * * * * * * * * * * * * * * * * * * * * * * * //

dimensions      [0 1 0 0 0 0 0];

internalField   nonuniform List<vector> 
5400
(
(0.025 0.01 0.000708335)
(0.075 0.01 0.000458335)
(0.125 0.01 0.000208334)
(0.175 0.01 -4.16665e-05)
(0.225 0.01 -0.000291667)
(0.275 0.01 -0.000541666)
(0.325 0.01 -0.000791667)
(0.375 0.01 -0.00104167)
(0.425 0.01 -0.00129167)
(0.475 0.01 -0.00154167)
(0.525 0.01 -0.00179167)
(0.575 0.01 -0.00204166)
(0.625 0.01 -0.00229166)
(0.675 0.01 -0.00254167)
(0.725 0.01 -0.00279166)
(0.775 0.01 -0.00304167)
(0.825 0.01 -0.00329167)
(0.875 0.01 -0.00354166)
(0.925 0.01 -0.00379166)
(0.975 0.01 -0.00404166)
(1.025 0.01 -0.00429167)
(1.075 0.01 -0.00454167)
(1.125 0.01 -0.00479167)
(1.175 0.01 -0.00504167)
(1.225 0.01 -0.00529166)
(1.275 0.01 -0.00554167)
(1.325 0.01 -0.00579167)
(1.375 0.01 -0.00604167)
(1.425 0.01 -0.00629167)
(1.475 0.01 -0.00654167)
(1.525 0.01 -0.00679166)
(1.575 0.01 -0.00704166)
(1.625 0.01 -0.00729167)
(1.675 0.01 -0.00754167)
(1.725 0.01 -0.00779166)
(1.775 0.01 -0.00804167)
(1.825 0.01 -0.00829166)
(1.875 0.01 -0.00854167)
(1.925 0.01 -0.00879166)
(1.975 0.01 -0.00904166)
(2.025 0.01 -0.00929166)
(2.075 0.01 -0.00954166)
(2.125 0.01 -0.00979166)
(2.175 0.01 -0.0100417)
(2.225 0.01 -0.0102917)
(2.275 0.01 -0.0105417)
(2.325 0.01 -0.0107917)
(2.375 0.01 -0.0110417)
(2.425 0.01 -0.0112916)
(2.475 0.01 -0.0115417)
(2.525 0.01 -0.0117916)
(2.575 0.01 -0.0120417)
(2.625 0.01 -0.0122917)
(2.675 0.01 -0.0125416)
(2.725 0.01 -0.0127917)
(2.775 0.01 -0.0130416)
(2.825 0.01 -0.0132917)
(2.875 0.01 -0.0135416)
(2.925 0.01 -0.0137919)
(2.975 0.01 -0.0144798)
(3.025 0.01 -0.0157688)
(3.075 0.01 -0.0169262)
(3.125 0.01 -0.0176833)
(3.175 0.01 -0.0182535)
(3.225 0.01 -0.0187022)
(3.275 0.01 -0.0190757)
(3.325 0.01 -0.0194004)
(3.375 0.01 -0.0196967)
(3.425 0.01 -0.0199729)
(3.475 0.01 -0.0202412)
(3.525 0.01 -0.020498)
(3.575 0.01 -0.020745)
(3.625 0.01 -0.0210034)
(3.675 0.01 -0.0212652)
(3.725 0.01 -0.0215087)
(3.775 0.01 -0.0217483)
(3.825 0.01 -0.0219944)
(3.875 0.01 -0.0222354)
(3.925 0.01 -0.0224777)
(3.975 0.01 -0.0227298)
(4.025 0.01 -0.0229777)
(4.075 0.01 -0.0232222)
(4.125 0.01 -0.0234709)
(4.175 0.01 -0.0237168)
(4.225 0.01 -0.0239623)
(4.275 0.01 -0.0242129)
(4.325 0.01 -0.0244613)
(4.375 0.01 -0.0247094)
(4.425 0.01 -0.0249614)
(4.475 0.01 -0.0252105)
(4.525 0.01 -0.0254593)
(4.575 0.01 -0.0257117)
(4.625 0.01 -0.0259609)
(4.675 0.01 -0.0262099)
(4.725 0.01 -0.0264619)
(4.775 0.01 -0.0267111)
(4.825 0.01 -0.0269601)
(4.875 0.01 -0.0272116)
(4.925 0.01 -0.0274611)
(4.975 0.01 -0.0277095)
(5.025 0.01 -0.0279607)
(5.075 0.01 -0.0282107)
(5.125 0.01 -0.0284588)
(5.175 0.01 -0.0287093)
(5.225 0.01 -0.02896)
(5.275 0.01 -0.0292082)
(5.325 0.01 -0.0294575)
(5.375 0.01 -0.0297088)
(5.425 0.01 -0.029958)
(5.475 0.01 -0.030206)
(5.525 0.01 -0.0304564)
(5.575 0.01 -0.0307075)
(5.625 0.01 -0.0309561)
(5.675 0.01 -0.0312043)
(5.725 0.01 -0.0314547)
(5.775 0.01 -0.0317057)
(5.825 0.01 -0.0319544)
(5.875 0.01 -0.0322025)
(5.925 0.01 -0.032452)
(5.975 0.01 -0.0327025)
(6.025 0.01 -0.0329522)
(6.075 0.01 -0.033201)
(6.125 0.01 -0.0334495)
(6.175 0.01 -0.0336982)
(6.225 0.01 -0.0339472)
(6.275 0.01 -0.0341964)
(6.325 0.01 -0.0344458)
(6.375 0.01 -0.0346952)
(6.425 0.01 -0.0349448)
(6.475 0.01 -0.0351944)
(6.525 0.01 -0.035444)
(6.575 0.01 -0.0356936)
(6.625 0.01 -0.0359432)
(6.675 0.01 -0.0361928)
(6.725 0.01 -0.0364423)
(6.775 0.01 -0.0366919)
(6.825 0.01 -0.0369414)
(6.875 0.01 -0.0371909)
(6.925 0.01 -0.0374403)
(6.975 0.01 -0.0376899)
(7.025 0.01 -0.0379394)
(7.075 0.01 -0.0381889)
(7.125 0.01 -0.0384384)
(7.175 0.01 -0.0386878)
(7.225 0.01 -0.0389375)
(7.275 0.01 -0.0391867)
(7.325 0.01 -0.0394362)
(7.375 0.01 -0.039686)
(7.425 0.01 -0.0399346)
(7.475 0.01 -0.0401843)
(7.525 0.01 -0.0404347)
(7.575 0.01 -0.0406829)
(7.625 0.01 -0.0409328)
(7.675 0.01 -0.0411831)
(7.725 0.01 -0.0414306)
(7.775 0.01 -0.041681)
(7.825 0.01 -0.0419324)
(7.875 0.01 -0.0421788)
(7.925 0.01 -0.0424284)
(7.975 0.01 -0.042681)
(8.025 0.01 -0.0429275)
(8.075 0.01 -0.0431758)
(8.125 0.01 -0.0434287)
(8.175 0.01 -0.0436765)
(8.225 0.01 -0.0439243)
(8.275 0.01 -0.0441757)
(8.325 0.01 -0.0444241)
(8.375 0.01 -0.0446734)
(8.425 0.01 -0.0449243)
(8.475 0.01 -0.0451714)
(8.525 0.01 -0.0454194)
(8.575 0.01 -0.0456713)
(8.625 0.01 -0.0459201)
(8.675 0.01 -0.0461671)
(8.725 0.01 -0.0464172)
(8.775 0.01 -0.0466659)
(8.825 0.01 -0.0469124)
(8.875 0.01 -0.0471624)
(8.925 0.01 -0.0474136)
(8.975 0.01 -0.0476613)
(9.025 0.01 -0.0479097)
(9.075 0.01 -0.0481614)
(9.125 0.01 -0.0484112)
(9.175 0.01 -0.0486583)
(9.225 0.01 -0.0489077)
(9.275 0.01 -0.049159)
(9.325 0.01 -0.0494082)
(9.375 0.01 -0.0496562)
(9.425 0.01 -0.0499055)
(9.475 0.01 -0.0501559)
(9.525 0.01 -0.0504054)
(9.575 0.01 -0.0506548)
(9.625 0.01 -0.0509043)
(9.675 0.01 -0.0511535)
(9.725 0.01 -0.0514042)
(9.775 0.01 -0.0516545)
(9.825 0.01 -0.0519035)
(9.875 0.01 -0.0521542)
(9.925 0.01 -0.0524038)
(9.975 0.01 -0.0526518)
(10.025 0.01 -0.0529026)
(10.075 0.01 -0.0531518)
(10.125 0.01 -0.0533985)
(10.175 0.01 -0.0536496)
(10.225 0.01 -0.0538999)
(10.275 0.01 -0.0541461)
(10.325 0.01 -0.0543966)
(10.375 0.01 -0.0546481)
(10.425 0.01 -0.0548947)
(10.475 0.01 -0.0551439)
(10.525 0.01 -0.0553951)
(10.575 0.01 -0.0556433)
(10.625 0.01 -0.0558931)
(10.675 0.01 -0.0561428)
(10.725 0.01 -0.0563901)
(10.775 0.01 -0.056641)
(10.825 0.01 -0.0568923)
(10.875 0.01 -0.0571395)
(10.925 0.01 -0.0573893)
(10.975 0.01 -0.0576403)
(11.025 0.01 -0.0578886)
(11.075 0.01 -0.0581396)
(11.125 0.01 -0.058391)
(11.175 0.01 -0.0586386)
(11.225 0.01 -0.0588886)
(11.275 0.01 -0.0591392)
(11.325 0.01 -0.0593865)
(11.375 0.01 -0.0596364)
(11.425 0.01 -0.0598871)
(11.475 0.01 -0.0601345)
(11.525 0.01 -0.0603844)
(11.575 0.01 -0.0606352)
(11.625 0.01 -0.0608826)
(11.675 0.01 -0.0611325)
(11.725 0.01 -0.0613834)
(11.775 0.01 -0.0616309)
(11.825 0.01 -0.0618808)
(11.875 0.01 -0.0621317)
(11.925 0.01 -0.0623793)
(11.975 0.01 -0.0626292)
(12.025 0.01 -0.0628802)
(12.075 0.01 -0.0631278)
(12.125 0.01 -0.0633777)
(12.175 0.01 -0.0636288)
(12.225 0.01 -0.0638764)
(12.275 0.01 -0.0641263)
(12.325 0.01 -0.0643775)
(12.375 0.01 -0.0646251)
(12.425 0.01 -0.0648751)
(12.475 0.01 -0.0651263)
(12.525 0.01 -0.065374)
(12.575 0.01 -0.065624)
(12.625 0.01 -0.0658752)
(12.675 0.01 -0.066123)
(12.725 0.01 -0.066373)
(12.775 0.01 -0.0666243)
(12.825 0.01 -0.0668722)
(12.875 0.01 -0.067122)
(12.925 0.01 -0.0673736)
(12.975 0.01 -0.0676214)
(13.025 0.01 -0.0678713)
(13.075 0.01 -0.0681227)
(13.125 0.01 -0.0683707)
(13.175 0.01 -0.0686207)
(13.225 0.01 -0.0688721)
(13.275 0.01 -0.0691205)
(13.325 0.01 -0.069369)
(13.375 0.01 -0.0696219)
(13.425 0.01 -0.0698706)
(13.475 0.01 -0.0701197)
(13.525 0.01 -0.0703694)
(13.575 0.01 -0.0706196)
(13.625 0.01 -0.0708709)
(13.675 0.01 -0.0711187)
(13.725 0.01 -0.0713691)
(13.775 0.01 -0.0716184)
(13.825 0.01 -0.0718708)
(13.875 0.01 -0.072119)
(13.925 0.01 -0.0723674)
(13.975 0.01 -0.0726175)
(14.025 0.01 -0.0728696)
(14.075 0.01 -0.0731195)
(14.125 0.01 -0.0733676)
(14.175 0.01 -0.0736172)
(14.225 0.01 -0.073868)
(14.275 0.01 -0.0741185)
(14.325 0.01 -0.0743692)
(14.375 0.01 -0.0746208)
(14.425 0.01 -0.0748711)
(14.475 0.01 -0.0751222)
(14.525 0.01 -0.0753719)
(14.575 0.01 -0.0756225)
(14.625 0.01 -0.0758718)
(14.675 0.01 -0.0761184)
(14.725 0.01 -0.0761025)
(14.775 0.01 -0.0752242)
(14.825 0.01 -0.0739498)
(14.875 0.01 -0.073542)
(14.925 0.01 -0.0737916)
(14.975 0.01 -0.0740417)
(0.025 0.01 0.002375)
(0.075 0.01 0.002125)
(0.125 0.01 0.001875)
(0.175 0.01 0.001625)
(0.225 0.01 0.001375)
(0.275 0.01 0.001125)
(0.325 0.01 0.000874998)
(0.375 0.01 0.000624998)
(0.425 0.01 0.000374999)
(0.475 0.01 0.000124999)
(0.525 0.01 -0.000124999)
(0.575 0.01 -0.000374998)
(0.625 0.01 -0.000624998)
(0.675 0.01 -0.000874998)
(0.725 0.01 -0.001125)
(0.775 0.01 -0.001375)
(0.825 0.01 -0.001625)
(0.875 0.01 -0.001875)
(0.925 0.01 -0.002125)
(0.975 0.01 -0.002375)
(1.025 0.01 -0.002625)
(1.075 0.01 -0.002875)
(1.125 0.01 -0.003125)
(1.175 0.01 -0.003375)
(1.225 0.01 -0.003625)
(1.275 0.01 -0.003875)
(1.325 0.01 -0.004125)
(1.375 0.01 -0.004375)
(1.425 0.01 -0.004625)
(1.475 0.01 -0.004875)
(1.525 0.01 -0.005125)
(1.575 0.01 -0.005375)
(1.625 0.01 -0.005625)
(1.675 0.01 -0.005875)
(1.725 0.01 -0.006125)
(1.775 0.01 -0.006375)
(1.825 0.01 -0.006625)
(1.875 0.01 -0.006875)
(1.925 0.01 -0.007125)
(1.975 0.01 -0.007375)
(2.025 0.01 -0.007625)
(2.075 0.01 -0.007875)
(2.125 0.01 -0.008125)
(2.175 0.01 -0.008375)
(2.225 0.01 -0.008625)
(2.275 0.01 -0.008875)
(2.325 0.01 -0.00912499)
(2.375 0.01 -0.00937498)
(2.425 0.01 -0.00962499)
(2.475 0.01 -0.00987498)
(2.525 0.01 -0.010125)
(2.575 0.01 -0.010375)
(2.625 0.01 -0.010625)
(2.675 0.01 -0.010875)
(2.725 0.01 -0.011125)
(2.775 0.01 -0.011375)
(2.825 0.01 -0.011625)
(2.875 0.01 -0.0118749)
(2.92499 0.01 -0.0121259)
(2.97501 0.01 -0.0128137)
(3.02501 0.01 -0.0141006)
(3.075 0.01 -0.0152571)
(3.125 0.01 -0.0160146)
(3.175 0.01 -0.0165848)
(3.225 0.01 -0.0170336)
(3.275 0.01 -0.0174071)
(3.325 0.01 -0.0177318)
(3.375 0.01 -0.018028)
(3.425 0.01 -0.0183043)
(3.475 0.01 -0.0185725)
(3.525 0.01 -0.0188293)
(3.575 0.01 -0.0190763)
(3.625 0.01 -0.0193347)
(3.675 0.01 -0.0195965)
(3.725 0.01 -0.01984)
(3.775 0.01 -0.0200797)
(3.825 0.01 -0.0203257)
(3.875 0.01 -0.0205667)
(3.925 0.01 -0.0208091)
(3.975 0.01 -0.0210611)
(4.025 0.01 -0.021309)
(4.075 0.01 -0.0215536)
(4.125 0.01 -0.0218022)
(4.175 0.01 -0.0220481)
(4.225 0.01 -0.0222937)
(4.275 0.01 -0.0225442)
(4.325 0.01 -0.0227927)
(4.375 0.01 -0.0230408)
(4.425 0.01 -0.0232927)
(4.475 0.01 -0.0235419)
(4.525 0.01 -0.0237907)
(4.575 0.01 -0.024043)
(4.625 0.01 -0.0242923)
(4.675 0.01 -0.0245412)
(4.725 0.01 -0.0247933)
(4.775 0.01 -0.0250425)
(4.825 0.01 -0.0252914)
(4.875 0.01 -0.025543)
(4.925 0.01 -0.0257924)
(4.975 0.01 -0.0260409)
(5.025 0.01 -0.0262921)
(5.075 0.01 -0.0265421)
(5.125 0.01 -0.0267901)
(5.175 0.01 -0.0270407)
(5.225 0.01 -0.0272913)
(5.275 0.01 -0.0275395)
(5.325 0.01 -0.0277889)
(5.375 0.01 -0.0280401)
(5.425 0.01 -0.0282893)
(5.475 0.01 -0.0285373)
(5.525 0.01 -0.0287877)
(5.575 0.01 -0.0290388)
(5.625 0.01 -0.0292874)
(5.675 0.01 -0.0295356)
(5.725 0.01 -0.0297861)
(5.775 0.01 -0.030037)
(5.825 0.01 -0.0302858)
(5.875 0.01 -0.0305338)
(5.925 0.01 -0.0307834)
(5.975 0.01 -0.0310338)
(6.025 0.01 -0.0312836)
(6.075 0.01 -0.0315324)
(6.125 0.01 -0.0317809)
(6.175 0.01 -0.0320295)
(6.225 0.01 -0.0322785)
(6.275 0.01 -0.0325277)
(6.325 0.01 -0.0327771)
(6.375 0.01 -0.0330266)
(6.425 0.01 -0.0332762)
(6.475 0.01 -0.0335258)
(6.525 0.01 -0.0337754)
(6.575 0.01 -0.034025)
(6.625 0.01 -0.0342746)
(6.675 0.01 -0.0345241)
(6.725 0.01 -0.0347737)
(6.775 0.01 -0.0350232)
(6.825 0.01 -0.0352727)
(6.875 0.01 -0.0355222)
(6.925 0.01 -0.0357717)
(6.975 0.01 -0.0360212)
(7.025 0.01 -0.0362708)
(7.075 0.01 -0.0365203)
(7.125 0.01 -0.0367698)
(7.175 0.01 -0.0370191)
(7.225 0.01 -0.0372689)
(7.275 0.01 -0.0375181)
(7.325 0.01 -0.0377675)
(7.375 0.01 -0.0380174)
(7.425 0.01 -0.0382659)
(7.475 0.01 -0.0385157)
(7.525 0.01 -0.0387661)
(7.575 0.01 -0.0390143)
(7.625 0.01 -0.0392642)
(7.675 0.01 -0.0395145)
(7.725 0.01 -0.039762)
(7.775 0.01 -0.0400124)
(7.825 0.01 -0.0402637)
(7.875 0.01 -0.0405101)
(7.925 0.01 -0.0407598)
(7.975 0.01 -0.0410124)
(8.025 0.01 -0.0412589)
(8.075 0.01 -0.0415072)
(8.125 0.01 -0.0417601)
(8.175 0.01 -0.0420079)
(8.225 0.01 -0.0422557)
(8.275 0.01 -0.0425071)
(8.325 0.01 -0.0427555)
(8.375 0.01 -0.0430047)
(8.425 0.01 -0.0432557)
(8.475 0.01 -0.0435028)
(8.525 0.01 -0.0437508)
(8.575 0.01 -0.0440027)
(8.625 0.01 -0.0442515)
(8.675 0.01 -0.0444985)
(8.725 0.01 -0.0447486)
(8.775 0.01 -0.0449973)
(8.825 0.01 -0.0452438)
(8.875 0.01 -0.0454938)
(8.925 0.01 -0.045745)
(8.975 0.01 -0.0459927)
(9.025 0.01 -0.0462411)
(9.075 0.01 -0.0464928)
(9.125 0.01 -0.0467425)
(9.175 0.01 -0.0469897)
(9.225 0.01 -0.0472391)
(9.275 0.01 -0.0474903)
(9.325 0.01 -0.0477396)
(9.375 0.01 -0.0479876)
(9.425 0.01 -0.0482369)
(9.475 0.01 -0.0484873)
(9.525 0.01 -0.0487368)
(9.575 0.01 -0.0489862)
(9.625 0.01 -0.0492357)
(9.675 0.01 -0.0494849)
(9.725 0.01 -0.0497356)
(9.775 0.01 -0.0499859)
(9.825 0.01 -0.0502349)
(9.875 0.01 -0.0504855)
(9.925 0.01 -0.0507351)
(9.975 0.01 -0.0509832)
(10.025 0.01 -0.0512339)
(10.075 0.01 -0.0514831)
(10.125 0.01 -0.0517298)
(10.175 0.01 -0.051981)
(10.225 0.01 -0.0522313)
(10.275 0.01 -0.0524775)
(10.325 0.01 -0.052728)
(10.375 0.01 -0.0529795)
(10.425 0.01 -0.0532261)
(10.475 0.01 -0.0534753)
(10.525 0.01 -0.0537264)
(10.575 0.01 -0.0539747)
(10.625 0.01 -0.0542245)
(10.675 0.01 -0.0544742)
(10.725 0.01 -0.0547215)
(10.775 0.01 -0.0549724)
(10.825 0.01 -0.0552237)
(10.875 0.01 -0.0554709)
(10.925 0.01 -0.0557207)
(10.975 0.01 -0.0559717)
(11.025 0.01 -0.05622)
(11.075 0.01 -0.056471)
(11.125 0.01 -0.0567223)
(11.175 0.01 -0.05697)
(11.225 0.01 -0.05722)
(11.275 0.01 -0.0574706)
(11.325 0.01 -0.0577179)
(11.375 0.01 -0.0579678)
(11.425 0.01 -0.0582185)
(11.475 0.01 -0.0584659)
(11.525 0.01 -0.0587158)
(11.575 0.01 -0.0589666)
(11.625 0.01 -0.059214)
(11.675 0.01 -0.0594639)
(11.725 0.01 -0.0597148)
(11.775 0.01 -0.0599623)
(11.825 0.01 -0.0602122)
(11.875 0.01 -0.0604631)
(11.925 0.01 -0.0607107)
(11.975 0.01 -0.0609606)
(12.025 0.01 -0.0612116)
(12.075 0.01 -0.0614592)
(12.125 0.01 -0.0617091)
(12.175 0.01 -0.0619601)
(12.225 0.01 -0.0622078)
(12.275 0.01 -0.0624577)
(12.325 0.01 -0.0627089)
(12.375 0.01 -0.0629565)
(12.425 0.01 -0.0632065)
(12.475 0.01 -0.0634577)
(12.525 0.01 -0.0637054)
(12.575 0.01 -0.0639554)
(12.625 0.01 -0.0642066)
(12.675 0.01 -0.0644544)
(12.725 0.01 -0.0647044)
(12.775 0.01 -0.0649557)
(12.825 0.01 -0.0652036)
(12.875 0.01 -0.0654534)
(12.925 0.01 -0.065705)
(12.975 0.01 -0.0659528)
(13.025 0.01 -0.0662027)
(13.075 0.01 -0.0664541)
(13.125 0.01 -0.0667021)
(13.175 0.01 -0.0669521)
(13.225 0.01 -0.0672035)
(13.275 0.01 -0.0674519)
(13.325 0.01 -0.0677004)
(13.375 0.01 -0.0679533)
(13.425 0.01 -0.0682019)
(13.475 0.01 -0.0684511)
(13.525 0.01 -0.0687008)
(13.575 0.01 -0.068951)
(13.625 0.01 -0.0692023)
(13.675 0.01 -0.0694501)
(13.725 0.01 -0.0697005)
(13.775 0.01 -0.0699498)
(13.825 0.01 -0.0702022)
(13.875 0.01 -0.0704504)
(13.925 0.01 -0.0706988)
(13.975 0.01 -0.0709489)
(14.025 0.01 -0.071201)
(14.075 0.01 -0.0714509)
(14.125 0.01 -0.071699)
(14.175 0.01 -0.0719486)
(14.225 0.01 -0.0721994)
(14.275 0.01 -0.0724499)
(14.325 0.01 -0.0727006)
(14.375 0.01 -0.0729522)
(14.425 0.01 -0.0732025)
(14.475 0.01 -0.0734535)
(14.525 0.01 -0.0737033)
(14.575 0.01 -0.0739539)
(14.625 0.01 -0.0742032)
(14.675 0.01 -0.0744495)
(14.725 0.01 -0.0744323)
(14.775 0.01 -0.0735553)
(14.825 0.01 -0.0722841)
(14.875 0.01 -0.0718764)
(14.925 0.01 -0.0721249)
(14.975 0.01 -0.072375)
(0.025 0.01 0.00404167)
(0.075 0.01 0.00379166)
(0.125 0.01 0.00354166)
(0.175 0.01 0.00329167)
(0.225 0.01 0.00304167)
(0.275 0.01 0.00279167)
(0.325 0.01 0.00254167)
(0.375 0.01 0.00229167)
(0.425 0.01 0.00204166)
(0.475 0.01 0.00179167)
(0.525 0.01 0.00154167)
(0.575 0.01 0.00129167)
(0.625 0.01 0.00104167)
(0.675 0.01 0.000791667)
(0.725 0.01 0.000541667)
(0.775 0.01 0.000291666)
(0.825 0.01 4.16665e-05)
(0.875 0.01 -0.000208334)
(0.925 0.01 -0.000458335)
(0.975 0.01 -0.000708335)
(1.025 0.01 -0.000958335)
(1.075 0.01 -0.00120833)
(1.125 0.01 -0.00145833)
(1.175 0.01 -0.00170834)
(1.225 0.01 -0.00195833)
(1.275 0.01 -0.00220834)
(1.325 0.01 -0.00245834)
(1.375 0.01 -0.00270834)
(1.425 0.01 -0.00295833)
(1.475 0.01 -0.00320834)
(1.525 0.01 -0.00345834)
(1.575 0.01 -0.00370834)
(1.625 0.01 -0.00395833)
(1.675 0.01 -0.00420834)
(1.725 0.01 -0.00445833)
(1.775 0.01 -0.00470833)
(1.825 0.01 -0.00495834)
(1.875 0.01 -0.00520833)
(1.925 0.01 -0.00545833)
(1.975 0.01 -0.00570833)
(2.025 0.01 -0.00595834)
(2.075 0.01 -0.00620833)
(2.125 0.01 -0.00645834)
(2.175 0.01 -0.00670833)
(2.225 0.01 -0.00695834)
(2.275 0.01 -0.00720834)
(2.325 0.01 -0.00745834)
(2.375 0.01 -0.00770833)
(2.425 0.01 -0.00795834)
(2.475 0.01 -0.00820833)
(2.525 0.01 -0.00845834)
(2.575 0.01 -0.00870833)
(2.625 0.01 -0.00895834)
(2.675 0.01 -0.00920834)
(2.725 0.01 -0.00945835)
(2.775 0.01 -0.00970835)
(2.825 0.01 -0.00995836)
(2.875 0.01 -0.0102082)
(2.92499 0.01 -0.0104602)
(2.97501 0.01 -0.0111476)
(3.02502 0.01 -0.0124302)
(3.075 0.01 -0.0135844)
(3.125 0.01 -0.0143419)
(3.175 0.01 -0.0149117)
(3.225 0.01 -0.0153603)
(3.275 0.01 -0.0157337)
(3.325 0.01 -0.0160583)
(3.375 0.01 -0.0163545)
(3.425 0.01 -0.0166308)
(3.475 0.01 -0.016899)
(3.525 0.01 -0.0171558)
(3.575 0.01 -0.0174029)
(3.625 0.01 -0.0176612)
(3.675 0.01 -0.0179229)
(3.725 0.01 -0.0181665)
(3.775 0.01 -0.0184062)
(3.825 0.01 -0.0186522)
(3.875 0.01 -0.0188932)
(3.925 0.01 -0.0191357)
(3.975 0.01 -0.0193876)
(4.025 0.01 -0.0196355)
(4.075 0.01 -0.0198801)
(4.125 0.01 -0.0201287)
(4.175 0.01 -0.0203747)
(4.225 0.01 -0.0206202)
(4.275 0.01 -0.0208708)
(4.325 0.01 -0.0211192)
(4.375 0.01 -0.0213674)
(4.425 0.01 -0.0216193)
(4.475 0.01 -0.0218684)
(4.525 0.01 -0.0221172)
(4.575 0.01 -0.0223696)
(4.625 0.01 -0.0226188)
(4.675 0.01 -0.0228678)
(4.725 0.01 -0.0231198)
(4.775 0.01 -0.023369)
(4.825 0.01 -0.023618)
(4.875 0.01 -0.0238695)
(4.925 0.01 -0.024119)
(4.975 0.01 -0.0243675)
(5.025 0.01 -0.0246186)
(5.075 0.01 -0.0248686)
(5.125 0.01 -0.0251167)
(5.175 0.01 -0.0253672)
(5.225 0.01 -0.0256179)
(5.275 0.01 -0.0258661)
(5.325 0.01 -0.0261154)
(5.375 0.01 -0.0263667)
(5.425 0.01 -0.0266159)
(5.475 0.01 -0.0268639)
(5.525 0.01 -0.0271143)
(5.575 0.01 -0.0273654)
(5.625 0.01 -0.027614)
(5.675 0.01 -0.0278622)
(5.725 0.01 -0.0281127)
(5.775 0.01 -0.0283636)
(5.825 0.01 -0.0286124)
(5.875 0.01 -0.0288604)
(5.925 0.01 -0.0291099)
(5.975 0.01 -0.0293604)
(6.025 0.01 -0.0296101)
(6.075 0.01 -0.0298589)
(6.125 0.01 -0.0301074)
(6.175 0.01 -0.0303561)
(6.225 0.01 -0.0306051)
(6.275 0.01 -0.0308543)
(6.325 0.01 -0.0311037)
(6.375 0.01 -0.0313532)
(6.425 0.01 -0.0316027)
(6.475 0.01 -0.0318523)
(6.525 0.01 -0.0321019)
(6.575 0.01 -0.0323515)
(6.625 0.01 -0.0326011)
(6.675 0.01 -0.0328507)
(6.725 0.01 -0.0331003)
(6.775 0.01 -0.0333498)
(6.825 0.01 -0.0335993)
(6.875 0.01 -0.0338488)
(6.925 0.01 -0.0340983)
(6.975 0.01 -0.0343478)
(7.025 0.01 -0.0345973)
(7.075 0.01 -0.0348469)
(7.125 0.01 -0.0350963)
(7.175 0.01 -0.0353457)
(7.225 0.01 -0.0355954)
(7.275 0.01 -0.0358447)
(7.325 0.01 -0.0360941)
(7.375 0.01 -0.036344)
(7.425 0.01 -0.0365925)
(7.475 0.01 -0.0368423)
(7.525 0.01 -0.0370926)
(7.575 0.01 -0.0373409)
(7.625 0.01 -0.0375908)
(7.675 0.01 -0.0378411)
(7.725 0.01 -0.0380886)
(7.775 0.01 -0.038339)
(7.825 0.01 -0.0385903)
(7.875 0.01 -0.0388367)
(7.925 0.01 -0.0390864)
(7.975 0.01 -0.0393389)
(8.025 0.01 -0.0395855)
(8.075 0.01 -0.0398338)
(8.125 0.01 -0.0400867)
(8.175 0.01 -0.0403345)
(8.225 0.01 -0.0405823)
(8.275 0.01 -0.0408337)
(8.325 0.01 -0.0410821)
(8.375 0.01 -0.0413314)
(8.425 0.01 -0.0415823)
(8.475 0.01 -0.0418294)
(8.525 0.01 -0.0420774)
(8.575 0.01 -0.0423293)
(8.625 0.01 -0.0425781)
(8.675 0.01 -0.0428251)
(8.725 0.01 -0.0430752)
(8.775 0.01 -0.0433239)
(8.825 0.01 -0.0435704)
(8.875 0.01 -0.0438204)
(8.925 0.01 -0.0440716)
(8.975 0.01 -0.0443193)
(9.025 0.01 -0.0445677)
(9.075 0.01 -0.0448194)
(9.125 0.01 -0.0450692)
(9.175 0.01 -0.0453163)
(9.225 0.01 -0.0455658)
(9.275 0.01 -0.045817)
(9.325 0.01 -0.0460662)
(9.375 0.01 -0.0463142)
(9.425 0.01 -0.0465635)
(9.475 0.01 -0.0468139)
(9.525 0.01 -0.0470635)
(9.575 0.01 -0.0473128)
(9.625 0.01 -0.0475624)
(9.675 0.01 -0.0478115)
(9.725 0.01 -0.0480622)
(9.775 0.01 -0.0483125)
(9.825 0.01 -0.0485615)
(9.875 0.01 -0.0488122)
(9.925 0.01 -0.0490618)
(9.975 0.01 -0.0493098)
(10.025 0.01 -0.0495606)
(10.075 0.01 -0.0498098)
(10.125 0.01 -0.0500565)
(10.175 0.01 -0.0503076)
(10.225 0.01 -0.0505579)
(10.275 0.01 -0.0508041)
(10.325 0.01 -0.0510547)
(10.375 0.01 -0.0513061)
(10.425 0.01 -0.0515527)
(10.475 0.01 -0.0518019)
(10.525 0.01 -0.0520531)
(10.575 0.01 -0.0523013)
(10.625 0.01 -0.0525511)
(10.675 0.01 -0.0528008)
(10.725 0.01 -0.0530482)
(10.775 0.01 -0.0532991)
(10.825 0.01 -0.0535504)
(10.875 0.01 -0.0537976)
(10.925 0.01 -0.0540474)
(10.975 0.01 -0.0542984)
(11.025 0.01 -0.0545466)
(11.075 0.01 -0.0547976)
(11.125 0.01 -0.055049)
(11.175 0.01 -0.0552966)
(11.225 0.01 -0.0555466)
(11.275 0.01 -0.0557973)
(11.325 0.01 -0.0560446)
(11.375 0.01 -0.0562945)
(11.425 0.01 -0.0565451)
(11.475 0.01 -0.0567925)
(11.525 0.01 -0.0570424)
(11.575 0.01 -0.0572932)
(11.625 0.01 -0.0575407)
(11.675 0.01 -0.0577906)
(11.725 0.01 -0.0580414)
(11.775 0.01 -0.0582889)
(11.825 0.01 -0.0585389)
(11.875 0.01 -0.0587898)
(11.925 0.01 -0.0590373)
(11.975 0.01 -0.0592873)
(12.025 0.01 -0.0595382)
(12.075 0.01 -0.0597858)
(12.125 0.01 -0.0600358)
(12.175 0.01 -0.0602868)
(12.225 0.01 -0.0605345)
(12.275 0.01 -0.0607844)
(12.325 0.01 -0.0610355)
(12.375 0.01 -0.0612832)
(12.425 0.01 -0.0615332)
(12.475 0.01 -0.0617843)
(12.525 0.01 -0.0620321)
(12.575 0.01 -0.0622821)
(12.625 0.01 -0.0625333)
(12.675 0.01 -0.0627811)
(12.725 0.01 -0.0630311)
(12.775 0.01 -0.0632824)
(12.825 0.01 -0.0635303)
(12.875 0.01 -0.0637801)
(12.925 0.01 -0.0640317)
(12.975 0.01 -0.0642795)
(13.025 0.01 -0.0645294)
(13.075 0.01 -0.0647808)
(13.125 0.01 -0.0650288)
(13.175 0.01 -0.0652788)
(13.225 0.01 -0.0655302)
(13.275 0.01 -0.0657786)
(13.325 0.01 -0.0660271)
(13.375 0.01 -0.06628)
(13.425 0.01 -0.0665286)
(13.475 0.01 -0.0667778)
(13.525 0.01 -0.0670275)
(13.575 0.01 -0.0672777)
(13.625 0.01 -0.067529)
(13.675 0.01 -0.0677768)
(13.725 0.01 -0.0680271)
(13.775 0.01 -0.0682765)
(13.825 0.01 -0.0685289)
(13.875 0.01 -0.068777)
(13.925 0.01 -0.0690255)
(13.975 0.01 -0.0692756)
(14.025 0.01 -0.0695277)
(14.075 0.01 -0.0697776)
(14.125 0.01 -0.0700257)
(14.175 0.01 -0.0702753)
(14.225 0.01 -0.0705261)
(14.275 0.01 -0.0707766)
(14.325 0.01 -0.0710273)
(14.375 0.01 -0.0712789)
(14.425 0.01 -0.0715292)
(14.475 0.01 -0.0717802)
(14.525 0.01 -0.0720299)
(14.575 0.01 -0.0722805)
(14.625 0.01 -0.0725299)
(14.675 0.01 -0.0727756)
(14.725 0.01 -0.0727569)
(14.775 0.01 -0.0718831)
(14.825 0.01 -0.0706184)
(14.875 0.01 -0.0702114)
(14.925 0.01 -0.0704581)
(14.975 0.01 -0.0707084)
(0.025 0.01 0.00570834)
(0.075 0.01 0.00545833)
(0.125 0.01 0.00520834)
(0.175 0.01 0.00495833)
(0.225 0.01 0.00470834)
(0.275 0.01 0.00445833)
(0.325 0.01 0.00420834)
(0.375 0.01 0.00395834)
(0.425 0.01 0.00370833)
(0.475 0.01 0.00345833)
(0.525 0.01 0.00320833)
(0.575 0.01 0.00295833)
(0.625 0.01 0.00270834)
(0.675 0.01 0.00245833)
(0.725 0.01 0.00220834)
(0.775 0.01 0.00195833)
(0.825 0.01 0.00170833)
(0.875 0.01 0.00145833)
(0.925 0.01 0.00120833)
(0.975 0.01 0.000958335)
(1.025 0.01 0.000708335)
(1.075 0.01 0.000458335)
(1.125 0.01 0.000208334)
(1.175 0.01 -4.16665e-05)
(1.225 0.01 -0.000291666)
(1.275 0.01 -0.000541667)
(1.325 0.01 -0.000791667)
(1.375 0.01 -0.00104167)
(1.425 0.01 -0.00129167)
(1.475 0.01 -0.00154167)
(1.525 0.01 -0.00179167)
(1.575 0.01 -0.00204167)
(1.625 0.01 -0.00229167)
(1.675 0.01 -0.00254167)
(1.725 0.01 -0.00279166)
(1.775 0.01 -0.00304166)
(1.825 0.01 -0.00329167)
(1.875 0.01 -0.00354167)
(1.925 0.01 -0.00379166)
(1.975 0.01 -0.00404166)
(2.025 0.01 -0.00429167)
(2.075 0.01 -0.00454166)
(2.125 0.01 -0.00479167)
(2.175 0.01 -0.00504166)
(2.225 0.01 -0.00529167)
(2.275 0.01 -0.00554167)
(2.325 0.01 -0.00579166)
(2.375 0.01 -0.00604167)
(2.425 0.01 -0.00629166)
(2.475 0.01 -0.00654167)
(2.525 0.01 -0.00679166)
(2.575 0.01 -0.00704166)
(2.625 0.01 -0.00729167)
(2.675 0.01 -0.00754166)
(2.725 0.01 -0.00779167)
(2.775 0.01 -0.00804166)
(2.825 0.01 -0.00829169)
(2.875 0.01 -0.0085414)
(2.92499 0.01 -0.00879487)
(2.97502 0.01 -0.00948077)
(3.02503 0.01 -0.0107562)
(3.075 0.01 -0.0119059)
(3.125 0.01 -0.0126625)
(3.175 0.01 -0.0132313)
(3.225 0.01 -0.0136794)
(3.275 0.01 -0.0140524)
(3.325 0.01 -0.0143769)
(3.375 0.01 -0.0146729)
(3.425 0.01 -0.0149491)
(3.475 0.01 -0.0152173)
(3.525 0.01 -0.0154741)
(3.575 0.01 -0.0157212)
(3.625 0.01 -0.0159795)
(3.675 0.01 -0.0162411)
(3.725 0.01 -0.0164847)
(3.775 0.01 -0.0167245)
(3.825 0.01 -0.0169705)
(3.875 0.01 -0.0172116)
(3.925 0.01 -0.0174541)
(3.975 0.01 -0.017706)
(4.025 0.01 -0.0179539)
(4.075 0.01 -0.0181985)
(4.125 0.01 -0.0184471)
(4.175 0.01 -0.0186931)
(4.225 0.01 -0.0189387)
(4.275 0.01 -0.0191892)
(4.325 0.01 -0.0194377)
(4.375 0.01 -0.0196858)
(4.425 0.01 -0.0199377)
(4.475 0.01 -0.0201869)
(4.525 0.01 -0.0204357)
(4.575 0.01 -0.020688)
(4.625 0.01 -0.0209373)
(4.675 0.01 -0.0211862)
(4.725 0.01 -0.0214382)
(4.775 0.01 -0.0216875)
(4.825 0.01 -0.0219364)
(4.875 0.01 -0.022188)
(4.925 0.01 -0.0224374)
(4.975 0.01 -0.0226859)
(5.025 0.01 -0.0229371)
(5.075 0.01 -0.023187)
(5.125 0.01 -0.0234352)
(5.175 0.01 -0.0236857)
(5.225 0.01 -0.0239363)
(5.275 0.01 -0.0241845)
(5.325 0.01 -0.0244339)
(5.375 0.01 -0.0246851)
(5.425 0.01 -0.0249343)
(5.475 0.01 -0.0251824)
(5.525 0.01 -0.0254327)
(5.575 0.01 -0.0256838)
(5.625 0.01 -0.0259324)
(5.675 0.01 -0.0261807)
(5.725 0.01 -0.0264311)
(5.775 0.01 -0.026682)
(5.825 0.01 -0.0269308)
(5.875 0.01 -0.0271789)
(5.925 0.01 -0.0274284)
(5.975 0.01 -0.0276789)
(6.025 0.01 -0.0279286)
(6.075 0.01 -0.0281774)
(6.125 0.01 -0.0284259)
(6.175 0.01 -0.0286746)
(6.225 0.01 -0.0289236)
(6.275 0.01 -0.0291728)
(6.325 0.01 -0.0294222)
(6.375 0.01 -0.0296717)
(6.425 0.01 -0.0299212)
(6.475 0.01 -0.0301708)
(6.525 0.01 -0.0304204)
(6.575 0.01 -0.03067)
(6.625 0.01 -0.0309196)
(6.675 0.01 -0.0311692)
(6.725 0.01 -0.0314188)
(6.775 0.01 -0.0316683)
(6.825 0.01 -0.0319178)
(6.875 0.01 -0.0321673)
(6.925 0.01 -0.0324168)
(6.975 0.01 -0.0326663)
(7.025 0.01 -0.0329158)
(7.075 0.01 -0.0331654)
(7.125 0.01 -0.0334149)
(7.175 0.01 -0.0336642)
(7.225 0.01 -0.0339139)
(7.275 0.01 -0.0341632)
(7.325 0.01 -0.0344126)
(7.375 0.01 -0.0346625)
(7.425 0.01 -0.034911)
(7.475 0.01 -0.0351608)
(7.525 0.01 -0.0354112)
(7.575 0.01 -0.0356594)
(7.625 0.01 -0.0359093)
(7.675 0.01 -0.0361596)
(7.725 0.01 -0.0364071)
(7.775 0.01 -0.0366575)
(7.825 0.01 -0.0369088)
(7.875 0.01 -0.0371553)
(7.925 0.01 -0.037405)
(7.975 0.01 -0.0376575)
(8.025 0.01 -0.037904)
(8.075 0.01 -0.0381524)
(8.125 0.01 -0.0384052)
(8.175 0.01 -0.038653)
(8.225 0.01 -0.0389009)
(8.275 0.01 -0.0391522)
(8.325 0.01 -0.0394007)
(8.375 0.01 -0.0396499)
(8.425 0.01 -0.0399008)
(8.475 0.01 -0.040148)
(8.525 0.01 -0.040396)
(8.575 0.01 -0.0406478)
(8.625 0.01 -0.0408966)
(8.675 0.01 -0.0411437)
(8.725 0.01 -0.0413938)
(8.775 0.01 -0.0416425)
(8.825 0.01 -0.0418891)
(8.875 0.01 -0.042139)
(8.925 0.01 -0.0423902)
(8.975 0.01 -0.0426379)
(9.025 0.01 -0.0428864)
(9.075 0.01 -0.043138)
(9.125 0.01 -0.0433878)
(9.175 0.01 -0.0436349)
(9.225 0.01 -0.0438844)
(9.275 0.01 -0.0441356)
(9.325 0.01 -0.0443848)
(9.375 0.01 -0.0446328)
(9.425 0.01 -0.0448822)
(9.475 0.01 -0.0451325)
(9.525 0.01 -0.0453821)
(9.575 0.01 -0.0456315)
(9.625 0.01 -0.045881)
(9.675 0.01 -0.0461302)
(9.725 0.01 -0.0463809)
(9.775 0.01 -0.0466311)
(9.825 0.01 -0.0468801)
(9.875 0.01 -0.0471308)
(9.925 0.01 -0.0473804)
(9.975 0.01 -0.0476285)
(10.025 0.01 -0.0478792)
(10.075 0.01 -0.0481284)
(10.125 0.01 -0.0483752)
(10.175 0.01 -0.0486263)
(10.225 0.01 -0.0488766)
(10.275 0.01 -0.0491228)
(10.325 0.01 -0.0493733)
(10.375 0.01 -0.0496247)
(10.425 0.01 -0.0498714)
(10.475 0.01 -0.0501206)
(10.525 0.01 -0.0503717)
(10.575 0.01 -0.05062)
(10.625 0.01 -0.0508698)
(10.675 0.01 -0.0511195)
(10.725 0.01 -0.0513668)
(10.775 0.01 -0.0516178)
(10.825 0.01 -0.051869)
(10.875 0.01 -0.0521163)
(10.925 0.01 -0.0523661)
(10.975 0.01 -0.052617)
(11.025 0.01 -0.0528653)
(11.075 0.01 -0.0531163)
(11.125 0.01 -0.0533676)
(11.175 0.01 -0.0536153)
(11.225 0.01 -0.0538653)
(11.275 0.01 -0.0541159)
(11.325 0.01 -0.0543633)
(11.375 0.01 -0.0546132)
(11.425 0.01 -0.0548638)
(11.475 0.01 -0.0551112)
(11.525 0.01 -0.0553611)
(11.575 0.01 -0.0556119)
(11.625 0.01 -0.0558594)
(11.675 0.01 -0.0561093)
(11.725 0.01 -0.0563601)
(11.775 0.01 -0.0566077)
(11.825 0.01 -0.0568576)
(11.875 0.01 -0.0571085)
(11.925 0.01 -0.0573561)
(11.975 0.01 -0.057606)
(12.025 0.01 -0.0578569)
(12.075 0.01 -0.0581046)
(12.125 0.01 -0.0583545)
(12.175 0.01 -0.0586055)
(12.225 0.01 -0.0588532)
(12.275 0.01 -0.0591031)
(12.325 0.01 -0.0593542)
(12.375 0.01 -0.059602)
(12.425 0.01 -0.0598519)
(12.475 0.01 -0.0601031)
(12.525 0.01 -0.0603509)
(12.575 0.01 -0.0606008)
(12.625 0.01 -0.060852)
(12.675 0.01 -0.0610999)
(12.725 0.01 -0.0613498)
(12.775 0.01 -0.0616011)
(12.825 0.01 -0.061849)
(12.875 0.01 -0.0620989)
(12.925 0.01 -0.0623504)
(12.975 0.01 -0.0625982)
(13.025 0.01 -0.0628482)
(13.075 0.01 -0.0630995)
(13.125 0.01 -0.0633476)
(13.175 0.01 -0.0635976)
(13.225 0.01 -0.0638489)
(13.275 0.01 -0.0640974)
(13.325 0.01 -0.0643459)
(13.375 0.01 -0.0645987)
(13.425 0.01 -0.0648474)
(13.475 0.01 -0.0650966)
(13.525 0.01 -0.0653462)
(13.575 0.01 -0.0655965)
(13.625 0.01 -0.0658477)
(13.675 0.01 -0.0660955)
(13.725 0.01 -0.0663459)
(13.775 0.01 -0.0665953)
(13.825 0.01 -0.0668476)
(13.875 0.01 -0.0670958)
(13.925 0.01 -0.0673443)
(13.975 0.01 -0.0675943)
(14.025 0.01 -0.0678465)
(14.075 0.01 -0.0680963)
(14.125 0.01 -0.0683445)
(14.175 0.01 -0.068594)
(14.225 0.01 -0.0688448)
(14.275 0.01 -0.0690953)
(14.325 0.01 -0.069346)
(14.375 0.01 -0.0695976)
(14.425 0.01 -0.069848)
(14.475 0.01 -0.070099)
(14.525 0.01 -0.0703487)
(14.575 0.01 -0.0705993)
(14.625 0.01 -0.0708487)
(14.675 0.01 -0.0710936)
(14.725 0.01 -0.0710734)
(14.775 0.01 -0.0702055)