/*--------------------------------*- C++ -*----------------------------------*\
| =========                 |                                                 |
| \\      /  F ield         | foam-extend: Open Source CFD                    |
|  \\    /   O peration     | Version:     3.2                                |
|   \\  /    A nd           | Web:         http://www.foam-extend.org         |
|    \\/     M anipulation  | For copyright notice see file Copyright         |
\*---------------------------------------------------------------------------*/
FoamFile
{
    version     2.0;
    format      ascii;
    class       surfaceScalarField;
    location    "50";
    object      meshPhi;
}
// * * * * * * * * * * * * * * * * * * * * * * * * * * * * * * * * * * * * * //

dimensions      [0 3 -1 0 0 0 0];

internalField   nonuniform List<scalar> 
10482
(
0
0
0
0
0
0
0
0
0
0
0
0
0
0
0
0
0
0
0
0
0
0
0
0
0
0
0
0
0
0
0
0
0
0
0
0
0
0
0
0
0
0
0
0
0
0
0
0
0
0
0
0
0
0
0
0
0
0
0
0
0
0
0
0
0
0
0
0
0
0
0
0
0
0
0
0
0
0
0
0
0
0
0
0
0
0
0
0
0
0
4.93433e-19
-3.46945e-19
-4.93442e-19
1.21431e-18
0
-2.65991e-18
4.93442e-19
-5.20417e-19
0
4.26164e-17
0
-2.98167e-16
-4.93442e-19
1.66639e-15
-4.93442e-19
-8.73576e-15
3.15101e-28
4.24768e-14
0
-1.7442e-13
-4.24912e-27
4.89976e-13
0
-7.59026e-14
4.93463e-19
-9.63696e-12
-4.93162e-19
1.05924e-10
0
1.17943e-07
0
3.74735e-07
0
5.42298e-07
-4.93628e-19
5.81226e-07
-4.93589e-19
5.96897e-07
-4.93588e-19
6.04986e-07
-4.9357e-19
6.09498e-07
-2.50693e-25
6.12133e-07
-4.93565e-19
6.13723e-07
2.48304e-25
6.14735e-07
-4.93568e-19
6.14352e-07
0
6.13802e-07
0
6.17838e-07
-4.9357e-19
6.22028e-07
4.93568e-19
6.18017e-07
9.87112e-19
6.13154e-07
4.9356e-19
6.14016e-07
-4.93566e-19
6.13814e-07
-9.87108e-19
6.1328e-07
4.93559e-19
6.16597e-07
4.93566e-19
6.1753e-07
-9.87116e-19
6.15318e-07
0
6.1535e-07
0
6.15259e-07
9.87114e-19
6.14415e-07
0
6.15721e-07
0
6.16211e-07
0
6.15507e-07
9.87119e-19
6.16414e-07
0
6.16498e-07
0
6.15698e-07
-9.8712e-19
6.16502e-07
0
6.16503e-07
0
6.15717e-07
9.87121e-19
6.16423e-07
0
6.16403e-07
0
6.15681e-07
0
6.16323e-07
9.87124e-19
6.16349e-07
-9.87117e-19
6.1558e-07
0
6.16179e-07
0
6.16537e-07
-1.97424e-18
6.15693e-07
9.87118e-19
6.15943e-07
0
6.16622e-07
-9.87122e-19
6.15915e-07
0
6.15661e-07
-5.01773e-25
6.16588e-07
5.28357e-25
6.16479e-07
9.87119e-19
6.15626e-07
-9.87118e-19
6.16105e-07
9.87122e-19
6.16935e-07
9.87122e-19
6.16333e-07
-9.87118e-19
6.15621e-07
-9.87118e-19
6.16316e-07
0
6.17044e-07
9.87121e-19
6.16473e-07
-9.87119e-19
6.1575e-07
-9.87117e-19
6.16066e-07
-9.8712e-19
6.1675e-07
-9.87121e-19
6.16802e-07
1.97424e-18
6.16339e-07
0
6.16018e-07
5.22045e-25
6.16041e-07
-9.87119e-19
6.16207e-07
-9.8712e-19
6.1638e-07
-9.8712e-19
6.16525e-07
9.87119e-19
6.16632e-07
9.8712e-19
6.16713e-07
0
6.16792e-07
0
6.16868e-07
0
6.16911e-07
-5.22345e-25
6.16934e-07
-9.87119e-19
6.1697e-07
0
6.17018e-07
0
6.1706e-07
-9.87119e-19
6.1709e-07
-9.87119e-19
6.17119e-07
9.87119e-19
6.17165e-07
0
6.17235e-07
-9.8712e-19
6.17308e-07
-9.87119e-19
6.17372e-07
-9.8712e-19
6.17399e-07
0
6.17429e-07
0
6.17556e-07
0
6.17563e-07
9.87117e-19
6.176e-07
0
6.1777e-07
9.87121e-19
6.17549e-07
-9.87115e-19
6.1768e-07
9.87122e-19
6.18205e-07
0
6.17835e-07
-5.15755e-25
6.17843e-07
9.87122e-19
6.18399e-07
9.87121e-19
6.17803e-07
0
6.18048e-07
9.87124e-19
6.19066e-07
-9.87123e-19
6.17955e-07
5.15903e-25
6.17771e-07
0
6.19459e-07
0
6.18507e-07
1.97422e-18
6.17636e-07
0
6.19462e-07
0
6.19239e-07
0
6.1809e-07
0
6.19149e-07
0
6.1931e-07
1.97422e-18
6.18933e-07
0
6.19636e-07
0
6.18977e-07
0
6.18449e-07
-1.97423e-18
6.19967e-07
-1.97425e-18
6.20087e-07
-1.97423e-18
6.1884e-07
-1.97423e-18
6.19371e-07
0
6.19812e-07
0
6.18914e-07
0
6.19525e-07
0
6.20868e-07
1.97424e-18
6.20177e-07
0
6.19622e-07
0
6.21006e-07
0
6.2139e-07
0
6.2014e-07
0
6.20254e-07
1.97424e-18
6.21545e-07
0
6.21549e-07
-1.07798e-24
6.20778e-07
0
6.21007e-07
0
6.21807e-07
1.97424e-18
6.21979e-07
0
6.21855e-07
0
6.21948e-07
-1.97423e-18
6.22086e-07
0
6.22632e-07
0
6.23023e-07
1.97423e-18
6.22758e-07
0
6.2308e-07
-1.97424e-18
6.233e-07
1.97423e-18
6.2279e-07
1.97423e-18
6.23345e-07
0
6.23667e-07
1.97423e-18
6.22768e-07
1.97422e-18
6.23599e-07
3.9485e-18
6.24611e-07
0
6.2344e-07
3.94844e-18
6.23845e-07
-1.97425e-18
6.25362e-07
1.97424e-18
6.24369e-07
-1.97422e-18
6.2401e-07
1.97424e-18
6.25452e-07
0
6.25421e-07
1.97422e-18
6.25252e-07
1.04322e-24
6.25728e-07
-1.97423e-18
6.2533e-07
0
6.26036e-07
1.97424e-18
6.2722e-07
1.97423e-18
6.26341e-07
0
6.26207e-07
1.97424e-18
6.27428e-07
1.97423e-18
6.27333e-07
1.97422e-18
6.27686e-07
0
6.28637e-07
0
6.2791e-07
-1.03821e-24
6.27864e-07
1.02697e-24
6.28867e-07
0
6.28374e-07
1.97422e-18
6.28487e-07
1.97424e-18
6.29592e-07
-1.1151e-24
6.29156e-07
0
6.29271e-07
1.02481e-24
6.30386e-07
1.97423e-18
6.2996e-07
-1.97422e-18
6.30064e-07
-1.02394e-24
6.3119e-07
-1.97424e-18
6.30773e-07
1.04047e-24
6.30869e-07
3.94848e-18
6.32014e-07
1.97424e-18
6.31604e-07
-1.0415e-24
6.31677e-07
1.97424e-18
6.32834e-07
1.97424e-18
6.32444e-07
-1.97422e-18
6.32501e-07
0
6.3366e-07
1.97423e-18
6.33276e-07
1.97422e-18
6.3332e-07
1.01958e-24
6.34483e-07
-1.97424e-18
6.341e-07
1.04347e-24
6.34118e-07
1.97424e-18
6.35282e-07
0
6.34902e-07
0
6.34895e-07
0
6.36048e-07
0
6.35669e-07
-1.04526e-24
6.35632e-07
0
6.36777e-07
1.11302e-24
6.3639e-07
0
6.36314e-07
1.97424e-18
6.37474e-07
1.97424e-18
6.37045e-07
0
6.36876e-07
1.0184e-24
6.38002e-07
1.97423e-18
6.37726e-07
1.97422e-18
6.37585e-07
0
6.38594e-07
0
6.38143e-07
-1.97422e-18
6.37721e-07
-1.97422e-18
6.39202e-07
-3.94851e-18
6.39213e-07
-3.94841e-18
6.38226e-07
0
6.38634e-07
0
6.39295e-07
-1.97426e-18
6.39614e-07
-1.97422e-18
6.39143e-07
-1.97423e-18
6.38795e-07
1.97423e-18
6.39522e-07
3.94843e-18
6.40375e-07
-1.97426e-18
6.3974e-07
1.9742e-18
6.38616e-07
-1.04018e-24
6.39311e-07
0
6.40658e-07
0
6.40545e-07
-1.9742e-18
6.39341e-07
1.97426e-18
6.39218e-07
1.9742e-18
6.40132e-07
3.94853e-18
6.40481e-07
1.06534e-24
6.40245e-07
0
6.40128e-07
-1.9742e-18
6.40209e-07
-1.06131e-24
6.40252e-07
0
6.40304e-07
1.97425e-18
6.40309e-07
-1.97422e-18
6.40342e-07
0
6.40313e-07
0
6.37938e-07
-1.9765e-18
6.16989e-07
-1.97398e-18
4.40587e-07
-1.97194e-18
1.41564e-07
-1.97391e-18
1.24036e-10
-5.42398e-26
-8.91947e-12
2.29007e-12
0
0
0
0
0
0
0
0
0
0
0
0
0
0
0
0
0
0
0
0
0
0
0
0
0
0
0
0
0
0
0
0
0
0
0
0
0
0
0
0
0
0
0
0
0
0
0
0
0
0
0
0
0
0
0
0
0
0
0
0
0
0
0
0
0
0
0
0
0
0
0
0
0
0
0
0
0
0
0
0
0
0
-4.9343e-19
8.67362e-20
7.70372e-34
-1.4456e-19
0
1.15648e-19
0
1.15648e-19
4.9343e-19
-1.38778e-18
4.93422e-19
6.36065e-18
0
-1.88507e-17
4.93422e-19
4.48299e-17
0
-1.39976e-16
0
8.48759e-16
0
-5.58772e-15
-4.93422e-19
2.97402e-14
-1.27284e-27
-1.25361e-13
0
4.27917e-13
4.93413e-19
-1.2178e-12
0
3.11553e-12
4.93459e-19
-1.59095e-11
-4.92846e-19
2.61409e-10
0
1.17861e-07
4.94638e-19
3.73888e-07
4.94382e-19
5.41401e-07
0
5.80662e-07
4.94451e-19
5.96386e-07
0
6.04495e-07
-4.94471e-19
6.09016e-07
0
6.11657e-07
-4.94482e-19
6.13251e-07
-1.41574e-24
6.14261e-07
4.94497e-19
6.13882e-07
0
6.13348e-07
4.94463e-19
6.1737e-07
-4.94502e-19
6.21532e-07
-1.3038e-24
6.17547e-07
0
6.12706e-07
-4.9448e-19
6.13545e-07
4.94494e-19
6.13346e-07
0
6.12825e-07
-1.46401e-24
6.1612e-07
9.88979e-19
6.17051e-07
0
6.14856e-07
0
6.14879e-07
0
6.14787e-07
0
6.13953e-07
0
6.15248e-07
0
6.15736e-07
0
6.15042e-07
0
6.1594e-07
0
6.16024e-07
9.88941e-19
6.15232e-07
-9.88948e-19
6.16028e-07
0
6.16029e-07
0
6.15251e-07
-9.88953e-19
6.15949e-07
0
6.15929e-07
0
6.15215e-07
9.88949e-19
6.1585e-07
0
6.15876e-07
9.88947e-19
6.15114e-07
9.88944e-19
6.15707e-07
0
6.16063e-07
0
6.15226e-07
9.88945e-19
6.15474e-07
-9.88957e-19
6.16146e-07
-9.88951e-19
6.15446e-07
9.88944e-19
6.15194e-07
9.88954e-19
6.16114e-07
-9.88957e-19
6.16005e-07
-2.7526e-24
6.1516e-07
-1.97789e-18
6.15635e-07
0
6.1646e-07
9.88954e-19
6.15862e-07
0
6.15154e-07
-2.81665e-24
6.15844e-07
0
6.16569e-07
9.88953e-19
6.16002e-07
2.77062e-24
6.15282e-07
-1.97789e-18
6.15596e-07
-9.88948e-19
6.16276e-07
0
6.16329e-07
-9.88946e-19
6.15868e-07
-9.88944e-19
6.15547e-07
-9.88946e-19
6.1557e-07
2.79333e-24
6.15736e-07
-9.88945e-19
6.15908e-07
0
6.16053e-07
-9.88942e-19
6.1616e-07
9.88941e-19
6.1624e-07
9.88941e-19
6.1632e-07
-1.97789e-18
6.16396e-07
2.79752e-24
6.16439e-07
-9.88938e-19
6.16462e-07
9.88941e-19
6.16498e-07
-2.79881e-24
6.16545e-07
0
6.16587e-07
0
6.16617e-07
2.79929e-24
6.16647e-07
-2.79964e-24
6.16692e-07
0
6.16762e-07
0
6.16835e-07
0
6.16898e-07
9.88942e-19
6.16925e-07
0
6.16956e-07
0
6.17082e-07
0
6.17089e-07
0
6.17127e-07
1.97788e-18
6.17295e-07
-2.77739e-24
6.17077e-07
-2.81627e-24
6.17208e-07
-2.83108e-24
6.17728e-07
-9.88941e-19
6.17363e-07
2.82481e-24
6.17371e-07
-1.97789e-18
6.17921e-07
9.88939e-19
6.17331e-07
-9.88921e-19
6.17576e-07
2.86375e-24
6.18585e-07
2.7177e-24
6.17484e-07
-2.82722e-24
6.17303e-07
-2.89944e-24
6.18975e-07
0
6.18033e-07
0
6.17171e-07
-1.97787e-18
6.1898e-07
0
6.18762e-07
-1.97783e-18
6.17622e-07
1.97787e-18
6.1867e-07
0
6.18832e-07
0
6.18462e-07
-1.97788e-18
6.19156e-07
0
6.18502e-07
0
6.1798e-07
0
6.19487e-07
0
6.19606e-07
0
6.1837e-07
0
6.18895e-07
0
6.19332e-07
0
6.18443e-07
0
6.19051e-07
1.97786e-18
6.20384e-07
-1.97786e-18
6.19701e-07
0
6.19151e-07
0
6.20525e-07
1.97787e-18
6.20908e-07
0
6.19666e-07
1.97783e-18
6.19779e-07
0
6.21062e-07
-1.97786e-18
6.21068e-07
0
6.20303e-07
1.97784e-18
6.2053e-07
0
6.21326e-07
0
6.215e-07
0
6.21377e-07
-1.97785e-18
6.21469e-07
0
6.21608e-07
0
6.22152e-07
0
6.22541e-07
0
6.2228e-07
-1.97783e-18
6.226e-07
-5.68009e-24
6.22818e-07
0
6.22313e-07
-1.97783e-18
6.22864e-07
0
6.23183e-07
-3.95567e-18
6.22293e-07
0
6.23119e-07
0
6.24123e-07
0
6.22965e-07
-1.97781e-18
6.23367e-07
1.97787e-18
6.24872e-07
-5.54035e-24
6.2389e-07
-1.97781e-18
6.23534e-07
1.97785e-18
6.24965e-07
0
6.24939e-07
-1.97781e-18
6.24772e-07
-5.75259e-24
6.25242e-07
5.59661e-24
6.24851e-07
0
6.25555e-07
-1.97786e-18
6.26729e-07
3.95568e-18
6.2586e-07
1.9778e-18
6.25728e-07
5.80654e-24
6.26939e-07
0
6.2685e-07
-1.97781e-18
6.27204e-07
0
6.28147e-07
1.97783e-18
6.27427e-07
-1.97781e-18
6.27382e-07
-3.9557e-18
6.28377e-07
-5.62234e-24
6.2789e-07
0
6.28004e-07
0
6.29101e-07
-1.97783e-18
6.28672e-07
0
6.28788e-07
-1.97785e-18
6.29894e-07
0
6.29475e-07
1.9778e-18
6.2958e-07
1.97785e-18
6.30697e-07
1.97783e-18
6.30287e-07
-5.82192e-24
6.30384e-07
1.97784e-18
6.31521e-07
-5.65916e-24
6.31117e-07
5.82844e-24
6.31191e-07
0
6.3234e-07
0
6.31956e-07
0
6.32016e-07
-3.95567e-18
6.33165e-07
-1.97782e-18
6.32788e-07
1.9778e-18
6.32834e-07
1.97783e-18
6.33987e-07
1.97783e-18
6.33611e-07
1.97779e-18
6.33631e-07
5.91093e-24
6.34785e-07
0
6.34412e-07
0
6.34407e-07
-1.97784e-18
6.35551e-07
-1.97783e-18
6.35178e-07
-3.95558e-18
6.35144e-07
0
6.36279e-07
-3.95565e-18
6.35899e-07
1.97779e-18
6.35825e-07
-1.97782e-18
6.36975e-07
5.71398e-24
6.36553e-07
0
6.36387e-07
0
6.37503e-07
0
6.37233e-07
-5.86246e-24
6.37095e-07
-1.97782e-18
6.38095e-07
1.97783e-18
6.37649e-07
-5.81479e-24
6.37233e-07
1.9778e-18
6.38702e-07
-1.97787e-18
6.38715e-07
1.97776e-18
6.37736e-07
-1.97786e-18
6.3814e-07
-5.8746e-24
6.38799e-07
0
6.39116e-07
-5.8079e-24
6.38648e-07
1.97782e-18
6.38303e-07
-1.97782e-18
6.39027e-07
1.97778e-18
6.39875e-07
0
6.39243e-07
-1.97775e-18
6.38126e-07
-1.97786e-18
6.38817e-07
0
6.40158e-07
-1.9779e-18
6.40046e-07
5.78596e-24
6.38848e-07
-5.8816e-24
6.38725e-07
-1.97774e-18
6.39634e-07
0
6.39983e-07
-1.97775e-18
6.3975e-07
0
6.39632e-07
3.95551e-18
6.39713e-07
5.86582e-24
6.39756e-07
0
6.39808e-07
-3.95569e-18
6.39813e-07
-1.9778e-18
6.39847e-07
1.97775e-18
6.3981e-07
-1.979e-18
6.37435e-07
1.98127e-18
6.16152e-07
-1.97481e-18
4.39794e-07
6.59225e-24
1.41638e-07
0
4.05558e-10
-1.97363e-18
-6.38933e-12
1.63169e-12
0
0
0
0
0
0
0
0
0
0
0
0
0
0
0
0
0
0
0
0
0
0
0
0
0
0
0
0
0
0
0
0
0
0
0
0
0
0
0
6.01211e-33
0
6.01211e-33
0
0
0
0
0
0
0
0
0
0
0
0
0
0
0
0
0
0
0
0
0
0
0
0
0
0
0
0
0
0
0
0
0
0
0
0
0
0
0
0
0
2.89121e-20
-4.93433e-19
-1.4456e-19
0
3.46945e-19
0
-6.64977e-19
-4.93433e-19
-5.78241e-20
-4.93433e-19
6.79433e-18
0
-3.51282e-17
-4.93433e-19
1.25652e-16
-1.91643e-30
-3.68311e-16
0
1.00957e-15
0
-3.00369e-15
1.30048e-28
9.87672e-15
0
-3.17706e-14
4.93442e-19
9.8792e-14
-4.93443e-19
-3.63573e-13
-1.16551e-26
2.44606e-12
0
-3.45724e-11
1.58544e-24
5.12472e-10
4.94105e-19
1.17617e-07
7.15455e-24
3.72169e-07
0
5.39299e-07
4.96176e-19
5.7884e-07
-4.9625e-19
5.94542e-07
4.96355e-19
6.02668e-07
5.36625e-24
6.07197e-07
0
6.09846e-07
0
6.11443e-07
0
6.12451e-07
-4.9645e-19
6.12076e-07
-4.96429e-19
6.11564e-07
-5.46213e-24
6.15562e-07
5.50344e-24
6.1968e-07
-5.23027e-24
6.15734e-07
4.96416e-19
6.10931e-07
5.42716e-24
6.11736e-07
-4.96443e-19
6.11538e-07
4.96402e-19
6.11037e-07
4.96409e-19
6.14298e-07
-4.96429e-19
6.15223e-07
0
6.13056e-07
0
6.13068e-07
0
6.12971e-07
0
6.12151e-07
0
6.13431e-07
-9.92823e-19
6.13916e-07
-9.92786e-19
6.13235e-07
0
6.14121e-07
0
6.14204e-07
0
6.13425e-07
0
6.14208e-07
0
6.14209e-07
9.92786e-19
6.13443e-07
0
6.1413e-07
-9.92829e-19
6.1411e-07
0
6.13406e-07
0
6.14031e-07
9.92816e-19
6.14056e-07
-1.06957e-23
6.13305e-07
-9.92806e-19
6.13891e-07
-1.98564e-18
6.14241e-07
0
6.13415e-07
0
6.1366e-07
-9.9282e-19
6.14323e-07
0
6.13632e-07
9.92799e-19
6.13383e-07
-9.928e-19
6.14292e-07
-1.07359e-23
6.14185e-07
0
6.13349e-07
-1.98559e-18
6.1382e-07
1.08088e-23
6.14635e-07
-9.92804e-19
6.14044e-07
-1.07216e-23
6.13344e-07
9.92788e-19
6.14027e-07
0
6.14744e-07
-9.92801e-19
6.14183e-07
0
6.13469e-07
-9.92797e-19
6.13779e-07
0
6.14454e-07
-9.92794e-19
6.14508e-07
9.92803e-19
6.1405e-07
-1.98558e-18
6.1373e-07
-9.92797e-19
6.13752e-07
-9.92795e-19
6.13916e-07
9.92784e-19
6.14088e-07
0
6.14233e-07
0
6.14339e-07
-1.07843e-23
6.14419e-07
-9.92792e-19
6.14498e-07
9.92781e-19
6.14574e-07
1.0789e-23
6.14617e-07
-9.92779e-19
6.1464e-07
-1.07916e-23
6.14675e-07
-1.07934e-23
6.14722e-07
9.92778e-19
6.14764e-07
1.07956e-23
6.14794e-07
9.92787e-19
6.14823e-07
1.98556e-18
6.14869e-07
0
6.14938e-07
-9.92785e-19
6.1501e-07
-1.98556e-18
6.15074e-07
1.98557e-18
6.15101e-07
-1.08039e-23
6.15132e-07
0
6.15256e-07
0
6.15264e-07
0
6.15302e-07
-9.92772e-19
6.15467e-07
-9.92784e-19
6.15252e-07
9.92756e-19
6.15383e-07
-9.92786e-19
6.15896e-07
9.9278e-19
6.15537e-07
9.92764e-19
6.15546e-07
0
6.16087e-07
9.92769e-19
6.15507e-07
0
6.15751e-07
-9.92789e-19
6.16745e-07
0
6.15659e-07
1.98548e-18
6.15483e-07
0
6.17132e-07
0
6.16202e-07
0
6.15353e-07
-1.98553e-18
6.17138e-07
1.98556e-18
6.16925e-07
0
6.15801e-07
0
6.16833e-07
0
6.16996e-07
0
6.16634e-07
-1.98554e-18
6.17316e-07
0
6.16668e-07
1.98546e-18
6.16156e-07
0
6.17645e-07
1.98555e-18
6.17764e-07
0
6.16543e-07
0
6.17059e-07
0
6.17489e-07
0
6.16613e-07
0
6.17217e-07
0
6.18535e-07
1.98549e-18
6.17862e-07
0
6.17321e-07
0
6.1868e-07
1.98552e-18
6.19059e-07
1.98546e-18
6.17832e-07
0
6.17944e-07
0
6.19214e-07
0
6.19222e-07
1.98548e-18
6.18465e-07
0
6.18689e-07
0
6.19479e-07
0
6.19653e-07
-1.98547e-18
6.19533e-07
1.98548e-18
6.19623e-07
-1.98547e-18
6.19763e-07
0
6.20304e-07
-1.98549e-18
6.20689e-07
0
6.20434e-07
3.9709e-18
6.20751e-07
-1.9855e-18
6.20965e-07
0
6.20469e-07
1.98545e-18
6.21014e-07
1.9855e-18
6.21326e-07
3.97088e-18
6.20451e-07
0
6.21269e-07
0
6.22259e-07
0
6.21119e-07
0
6.21519e-07
1.98549e-18
6.23005e-07
1.98544e-18
6.22038e-07
0
6.21688e-07
2.2144e-23
6.23101e-07
2.18669e-23
6.23081e-07
2.20511e-23
6.22918e-07
1.98547e-18
6.2338e-07
2.1846e-23
6.22997e-07
-1.98538e-18
6.23697e-07
-1.98547e-18
6.24858e-07
0
6.24002e-07
-1.9854e-18
6.23872e-07
0
6.2507e-07
0
6.24988e-07
-2.21731e-23
6.25342e-07
1.98546e-18
6.26273e-07
0
6.25564e-07
-3.97075e-18
6.25521e-07
1.98544e-18
6.26502e-07
-2.194e-23
6.26026e-07
2.21912e-23
6.26141e-07
0
6.27224e-07
0
6.26804e-07
-3.97075e-18
6.26922e-07
-2.22953e-23
6.28015e-07
0
6.27605e-07
0
6.27712e-07
2.2327e-23
6.28815e-07
0
6.28414e-07
-2.22709e-23
6.28514e-07
0
6.29636e-07
-2.20577e-23
6.29241e-07
-1.98535e-18
6.29319e-07
0
6.30453e-07
-2.20877e-23
6.30078e-07
0
6.30141e-07
0
6.31276e-07
1.98541e-18
6.30907e-07
-2.23469e-23
6.30956e-07
-1.98542e-18
6.32096e-07
0
6.31728e-07
-1.98536e-18
6.31752e-07
1.98544e-18
6.32891e-07
0
6.32527e-07
-2.2394e-23
6.32526e-07
0
6.33655e-07
0
6.33291e-07
-1.98531e-18
6.3326e-07
0
6.34381e-07
-2.22207e-23
6.34009e-07
-1.98533e-18
6.3394e-07
3.97079e-18
6.35075e-07
-1.98539e-18
6.34661e-07
1.98532e-18
6.34501e-07
-1.98542e-18
6.35602e-07
1.98539e-18
6.35339e-07
-1.98536e-18
6.35206e-07
0
6.36193e-07
-1.98538e-18
6.35753e-07
1.98534e-18
6.35346e-07
1.98535e-18
6.36798e-07
1.98543e-18
6.36813e-07
2.24191e-23
6.35846e-07
1.98546e-18
6.36243e-07
1.98527e-18
6.36899e-07
-3.97088e-18
6.37214e-07
1.98532e-18
6.3675e-07
1.98538e-18
6.36409e-07
1.98539e-18
6.37129e-07
-1.98533e-18
6.37968e-07
0
6.37341e-07
-1.98528e-18
6.36236e-07
2.25555e-23
6.36921e-07
0
6.3825e-07
1.98545e-18
6.3814e-07
-3.97052e-18
6.36954e-07
1.98544e-18
6.3683e-07
1.98527e-18
6.3773e-07
0
6.38079e-07
-2.24888e-23
6.37849e-07
2.25115e-23
6.37732e-07
1.98528e-18
6.37812e-07
1.98545e-18
6.37856e-07
0
6.37907e-07
-1.98545e-18
6.37912e-07
-1.98536e-18
6.37946e-07
1.98526e-18
6.37906e-07
2.26132e-23
6.3553e-07
-1.9892e-18
6.13759e-07
-1.9775e-18
4.37714e-07
3.93776e-18
1.41226e-07
0
5.53543e-10
-3.94747e-18
-8.45962e-11
4.27813e-12
0
0
0
0
0
0
0
0
0
0
0
0
0
0
0
0
0
0
0
0
0
0
0
0
0
0
0
0
0
0
0
0
0
0
0
0
0
0
0
0
0
0
0
0
0
0
0
0
0
0
0
0
0
0
0
0
0
0
0
0
0
0
0
0
0
0
0
0
0
0
0
0
0
0
0
0
0
0
0
0
0
2.89121e-20
-3.85186e-34
1.28129e-34
4.93433e-19
-1.30104e-19
0
5.49329e-19
-4.93433e-19
-2.13949e-18
0
6.10044e-18
0
-1.382e-17
-4.93433e-19
3.43059e-17
-2.29391e-30
-1.63976e-16
4.93433e-19
9.82027e-16
0
-4.63472e-15
0
1.46533e-14
3.09113e-28
-1.72889e-14
4.93433e-19
-1.25139e-13
0
1.04228e-12
0
-4.83767e-12
-4.93426e-19
1.87819e-11
4.40027e-25
-8.70917e-11
4.92509e-19
7.0471e-10
0
1.17106e-07
1.17089e-23
3.69414e-07
-4.98114e-19
5.35592e-07
1.02623e-23
5.75377e-07
-1.00687e-23
5.91109e-07
0
5.99283e-07
-4.99166e-19
6.03837e-07
0
6.06499e-07
4.99293e-19
6.08104e-07
0
6.09107e-07
-4.99352e-19
6.08745e-07
9.74552e-24
6.08262e-07
0
6.12214e-07
-4.99365e-19
6.16276e-07
4.99366e-19
6.12395e-07
-4.99309e-19
6.07639e-07
9.97311e-24
6.08397e-07
4.9932e-19
6.08206e-07
9.84572e-24
6.07726e-07
0
6.10937e-07
0
6.11858e-07
-9.98558e-19
6.09729e-07
0
6.09722e-07
0
6.09623e-07
-9.98544e-19
6.08821e-07
9.98537e-19
6.10076e-07
0
6.10559e-07
0
6.09896e-07
0
6.10763e-07
9.98564e-19
6.10846e-07
0
6.10084e-07
9.98557e-19
6.10849e-07
9.98564e-19
6.10852e-07
0
6.10101e-07
0
6.10772e-07
9.9856e-19
6.10754e-07
0
6.10063e-07
0
6.10674e-07
-9.98576e-19
6.107e-07
-1.97824e-23
6.09963e-07
-9.98529e-19
6.10536e-07
9.98577e-19
6.1088e-07
0
6.10071e-07
-9.98524e-19
6.10309e-07
9.98547e-19
6.10961e-07
-9.98541e-19
6.10283e-07
0
6.10038e-07
1.99498e-23
6.1093e-07
9.98545e-19
6.10827e-07
9.98525e-19
6.10005e-07
9.98537e-19
6.10466e-07
0
6.1127e-07
1.98021e-23
6.10689e-07
-9.98538e-19
6.09998e-07
0
6.1067e-07
0
6.11378e-07
-9.98551e-19
6.10826e-07
1.98317e-23
6.1012e-07
-1.9902e-23
6.10424e-07
0
6.11092e-07
0
6.11146e-07
0
6.10693e-07
1.9872e-23
6.10375e-07
-1.98855e-23
6.10395e-07
9.98503e-19
6.10557e-07
0
6.10728e-07
9.9852e-19
6.10871e-07
1.9908e-23
6.10977e-07
0
6.11057e-07
0
6.11135e-07
0
6.1121e-07
1.99193e-23
6.11253e-07
-1.99701e-18
6.11275e-07
-1.99239e-23
6.11311e-07
0
6.11357e-07
0
6.11399e-07
1.99311e-23
6.11428e-07
1.99334e-23
6.11457e-07
-1.99366e-23
6.11502e-07
-9.98504e-19
6.11571e-07
-9.98483e-19
6.11642e-07
0
6.11705e-07
1.99457e-23
6.11732e-07
9.98478e-19
6.11763e-07
-9.98475e-19
6.11885e-07
0
6.11893e-07
9.98488e-19
6.11931e-07
0
6.12093e-07
-9.98497e-19
6.11883e-07
-9.98455e-19
6.12013e-07
-9.98479e-19
6.12516e-07
9.98491e-19
6.12166e-07
1.99692e-18
6.12175e-07
-2.0035e-23
6.12704e-07
9.98469e-19
6.12137e-07
-1.99689e-18
6.12379e-07
-9.98481e-19
6.13353e-07
-9.98471e-19
6.12289e-07
0
6.12116e-07
0
6.13734e-07
0
6.12825e-07
0
6.11991e-07
0
6.13741e-07
0
6.13538e-07
0
6.12434e-07
-1.9969e-18
6.13443e-07
0
6.13609e-07
-1.99684e-18
6.13256e-07
-1.99694e-18
6.13921e-07
0
6.13285e-07
0
6.12783e-07
1.99689e-18
6.14246e-07
0
6.14367e-07
-1.99687e-18
6.13167e-07
0
6.13668e-07
0
6.14091e-07
-1.99682e-18
6.13233e-07
1.99682e-18
6.13828e-07
-1.99688e-18
6.15127e-07
0
6.14469e-07
-1.99678e-18
6.13938e-07
0
6.15274e-07
-1.99685e-18
6.1565e-07
-1.99684e-18
6.14444e-07
0
6.14551e-07
0
6.15803e-07
0
6.15816e-07
0
6.1507e-07
1.99677e-18
6.15289e-07
0
6.16069e-07
0
6.16245e-07
0
6.16128e-07
0
6.16215e-07
-1.99681e-18
6.16357e-07
-1.99679e-18
6.16892e-07
0
6.17273e-07
-1.99681e-18
6.17026e-07
-1.99676e-18
6.17336e-07
1.9968e-18
6.17546e-07
0
6.17062e-07
0
6.17596e-07
0
6.17903e-07
1.99678e-18
6.17046e-07
-4.07651e-23
6.1785e-07
1.99684e-18
6.18825e-07
0
6.1771e-07
3.99339e-18
6.18103e-07
1.99682e-18
6.19564e-07
1.99675e-18
6.18619e-07
3.99338e-18
6.18273e-07
-1.99679e-18
6.19662e-07
-4.04313e-23
6.19651e-07
-1.99668e-18
6.19492e-07
-1.99675e-18
6.19943e-07
-1.9967e-18
6.19572e-07
0
6.20264e-07
1.99675e-18
6.21407e-07
0
6.20571e-07
-4.08194e-23
6.20443e-07
4.08828e-23
6.2162e-07
-1.9967e-18
6.2155e-07
1.99665e-18
6.21901e-07
1.99678e-18
6.22816e-07
0
6.22125e-07
-1.99665e-18
6.22081e-07
0
6.23045e-07
-1.99674e-18
6.22582e-07
0
6.22697e-07
1.99671e-18
6.23761e-07
4.06514e-23
6.23356e-07
1.99662e-18
6.23473e-07
-4.10872e-23
6.24547e-07
1.99672e-18
6.24151e-07
-1.99665e-18
6.24259e-07
0
6.25343e-07
0
6.24956e-07
1.9966e-18
6.25056e-07
4.12081e-23
6.26159e-07
0
6.25778e-07
3.99327e-18
6.25856e-07
1.99671e-18
6.26972e-07
-4.08715e-23
6.2661e-07
0
6.26674e-07
-1.99666e-18
6.27789e-07
4.09259e-23
6.27434e-07
1.99658e-18
6.27485e-07
-4.13835e-23
6.28605e-07
4.09782e-23
6.2825e-07
1.99657e-18
6.28276e-07
1.99669e-18
6.29396e-07
1.99663e-18
6.29045e-07
-1.99665e-18
6.29046e-07
0
6.30156e-07
0
6.29805e-07
3.9932e-18
6.29777e-07
0
6.30878e-07
1.99662e-18
6.30519e-07
0
6.30453e-07
-1.99667e-18
6.31568e-07
-1.99667e-18
6.31167e-07
0
6.31011e-07
-4.16108e-23
6.32093e-07
-1.9966e-18
6.31841e-07
1.9966e-18
6.31712e-07
-1.99661e-18
6.3268e-07
1.99666e-18
6.32252e-07
-4.1442e-23
6.31855e-07
4.18328e-23
6.33282e-07
-1.99669e-18
6.33302e-07
0
6.3235e-07
0
6.32738e-07
-4.1589e-23
6.33389e-07
0
6.33701e-07
1.99654e-18
6.33244e-07
-1.99659e-18
6.32908e-07
0
6.33619e-07
-1.99661e-18
6.34448e-07
4.14072e-23
6.3383e-07
-4.14089e-23
6.32739e-07
-1.99663e-18
6.33413e-07
1.99645e-18
6.34727e-07
1.99674e-18
6.34622e-07
-1.99645e-18
6.33451e-07
1.99669e-18
6.33326e-07
4.16947e-23
6.34213e-07
0
6.34562e-07
0
6.34337e-07
1.99675e-18
6.34221e-07
1.99649e-18
6.34299e-07
-1.99668e-18
6.34343e-07
0
6.34394e-07
-4.15937e-23
6.344e-07
1.99661e-18
6.34436e-07
0
6.34378e-07
1.99856e-18
6.32069e-07
0
6.0978e-07
-1.98178e-18
4.34178e-07
1.96805e-18
1.40238e-07
-1.97427e-18
7.87601e-10
-4.64258e-25
-8.63934e-11
2.38797e-11
0
0
0
0
0
0
0
0
0
0
0
0
0
0
0
0
0
0
0
0
0
0
0
0
0
0
0
0
0
0
0
0
0
0
0
0
0
0
0
0
0
0
0
0
0
0
0
0
0
0
0
0
0
0
0
0
0
0
0
0
0
0
0
0
0
0
0
0
0
0
0
0
0
0
0
0
0
0
0
-2.89121e-20
4.9343e-19
3.61401e-20
-4.9343e-19
-1.01192e-19
4.9343e-19
1.73472e-19
-4.9343e-19
-2.89121e-20
0
-2.31296e-19
0
-3.5851e-18
4.12149e-31
4.30321e-17
0
-2.68246e-16
9.86861e-19
1.24423e-15
-4.9343e-19
-4.84154e-15
-4.9343e-19
1.70933e-14
4.9343e-19
-5.85423e-14
4.9343e-19
1.99471e-13
4.9343e-19
-6.50173e-13
0
1.92007e-12
-4.93431e-19
-5.2893e-12
0
1.62502e-11
0
-7.37643e-11
1.04863e-25
7.36105e-10
0
1.15562e-07
5.00196e-19
3.65072e-07
0
5.3039e-07
5.02018e-19
5.70613e-07
-1.35171e-23
5.86484e-07
0
5.94752e-07
5.02964e-19
5.99357e-07
0
6.02049e-07
-5.03146e-19
6.03677e-07
5.03174e-19
6.04681e-07
0
6.04333e-07
-5.03204e-19
6.03902e-07
-5.03167e-19
6.07807e-07
5.03277e-19
6.11778e-07
5.03244e-19
6.07973e-07
-5.03182e-19
6.033e-07
1.31658e-23
6.03999e-07
1.0064e-18
6.03807e-07
-5.03125e-19
6.03362e-07
-5.03155e-19
6.06504e-07
0
6.07408e-07
0
6.05332e-07
0
6.05306e-07
0
6.05199e-07
1.0062e-18
6.04424e-07
0
6.05648e-07
1.00628e-18
6.06121e-07
0
6.05484e-07
-1.00621e-18
6.06327e-07
-1.00627e-18
6.06407e-07
0
6.0567e-07
-1.00621e-18
6.06413e-07
0
6.06414e-07
0
6.05687e-07
0
6.06337e-07
2.61455e-23
6.06318e-07
0
6.05649e-07
1.00622e-18
6.06241e-07
0
6.06263e-07
0
6.05548e-07
1.0062e-18
6.06106e-07
0
6.0644e-07
1.00623e-18
6.05653e-07
1.0062e-18
6.05886e-07
1.00622e-18
6.06519e-07
1.00624e-18
6.05858e-07
0
6.0562e-07
2.63582e-23
6.06491e-07
-2.61948e-23
6.06389e-07
0
6.05587e-07
1.00621e-18
6.06039e-07
2.63388e-23
6.06824e-07
1.00624e-18
6.06256e-07
-2.61576e-23
6.0558e-07
0
6.06238e-07
1.0062e-18
6.06932e-07
-1.00623e-18
6.06391e-07
-2.01236e-18
6.05698e-07
-1.0062e-18
6.05994e-07
-1.00621e-18
6.06651e-07
-2.01239e-18
6.06705e-07
1.0062e-18
6.06259e-07
-1.00617e-18
6.05944e-07
-1.00619e-18
6.05962e-07
-1.00618e-18
6.06122e-07
0
6.0629e-07
1.00615e-18
6.06432e-07
-2.0123e-18
6.06537e-07
1.00612e-18
6.06616e-07
-1.00617e-18
6.06693e-07
2.01231e-18
6.06767e-07
-1.00614e-18
6.0681e-07
-1.00611e-18
6.06832e-07
-2.63149e-23
6.06867e-07
2.0123e-18
6.06913e-07
0
6.06954e-07
0
6.06983e-07
0
6.07011e-07
0
6.07055e-07
0
6.07123e-07
0
6.07194e-07
0
6.07256e-07
5.26891e-23
6.07282e-07
-2.63443e-23
6.07314e-07
-2.63776e-23
6.07434e-07
0
6.07442e-07
2.63672e-23
6.07481e-07
-1.00611e-18
6.07637e-07
0
6.07432e-07
0
6.07562e-07
-1.00614e-18
6.08052e-07
1.00613e-18
6.07713e-07
-1.00607e-18
6.07724e-07
1.00611e-18
6.08235e-07
-2.6228e-23
6.07686e-07
0
6.07928e-07
0
6.08873e-07
2.01224e-18
6.07836e-07
-2.64489e-23
6.07674e-07
0
6.09247e-07
2.01221e-18
6.08361e-07
2.01204e-18
6.07553e-07
0
6.09257e-07
2.0122e-18
6.09061e-07
0
6.07989e-07
0
6.08967e-07
-2.0122e-18
6.09133e-07
0
6.08797e-07
2.01212e-18
6.09438e-07
0
6.08814e-07
0
6.08331e-07
0
6.0976e-07
0
6.09878e-07
2.01202e-18
6.08709e-07
2.01202e-18
6.09193e-07
-2.01208e-18
6.09601e-07
0
6.08769e-07
2.012e-18
6.09355e-07
0
6.10624e-07
0
6.09984e-07
-2.01199e-18
6.0947e-07
0
6.10777e-07
5.31968e-23
6.11144e-07
2.01197e-18
6.09967e-07
0
6.10072e-07
0
6.11298e-07
0
6.11314e-07
0
6.10585e-07
-2.01197e-18
6.10799e-07
0
6.11565e-07
0
6.11742e-07
0
6.11628e-07
-2.01193e-18
6.11713e-07
0
6.11856e-07
-2.01195e-18
6.12384e-07
0
6.12758e-07
0
6.12522e-07
-2.0119e-18
6.12826e-07
2.01196e-18
6.13028e-07
0
6.12561e-07
0
6.13082e-07
0
6.13377e-07
0
6.12547e-07
2.01182e-18
6.13336e-07
0
6.14285e-07
0
6.13204e-07
0
6.13592e-07
2.01197e-18
6.15015e-07
-2.01192e-18
6.14098e-07
2.01182e-18
6.13764e-07
0
6.15118e-07
0
6.15117e-07
-4.02361e-18
6.14964e-07
-2.01192e-18
6.15399e-07
2.01186e-18
6.15045e-07
0
6.15729e-07
-2.01197e-18
6.16845e-07
-2.01187e-18
6.16033e-07
-2.01178e-18
6.15911e-07
0
6.17059e-07
-2.01185e-18
6.17002e-07
-2.01179e-18
6.17354e-07
-2.01184e-18
6.18244e-07
0
6.17574e-07
0
6.17535e-07
2.01188e-18
6.18472e-07
-2.01184e-18
6.18026e-07
0
6.18145e-07
0
6.19182e-07
-2.01177e-18
6.18793e-07
0
6.18914e-07
-2.01184e-18
6.1996e-07
-2.01175e-18
6.19581e-07
0
6.19692e-07
-2.01177e-18
6.20749e-07
-2.01179e-18
6.20378e-07
2.01165e-18
6.20483e-07
5.45884e-23
6.21558e-07
-2.01172e-18
6.21193e-07
5.44665e-23
6.21277e-07
2.01174e-18
6.22363e-07
-5.40932e-23
6.22017e-07
-2.01162e-18
6.22087e-07
-2.01178e-18
6.23174e-07
5.41777e-23
6.22835e-07
-2.01167e-18
6.22891e-07
2.01171e-18
6.23983e-07
2.01174e-18
6.23643e-07
2.0116e-18
6.23676e-07
-2.0117e-18
6.24767e-07
2.01168e-18
6.24431e-07
0
6.2444e-07
2.01174e-18
6.2552e-07
-2.01167e-18
6.25184e-07
0
6.25164e-07
0
6.26237e-07
-2.01172e-18
6.25892e-07
-2.01157e-18
6.25835e-07
-5.5187e-23
6.26921e-07
2.01178e-18
6.26535e-07
0
6.26389e-07
2.01168e-18
6.27443e-07
-2.01169e-18
6.27202e-07
-2.01163e-18
6.27083e-07
5.52875e-23
6.28025e-07
-2.01171e-18
6.27608e-07
-2.01169e-18
6.27229e-07
2.01163e-18
6.28622e-07
2.01174e-18
6.28644e-07
2.01154e-18
6.27716e-07
-2.01173e-18
6.28093e-07
-2.01153e-18
6.28736e-07
5.52277e-23
6.29042e-07
-5.49194e-23
6.28594e-07
2.01166e-18
6.28266e-07
0
6.28967e-07
4.02307e-18
6.29779e-07
5.4947e-23
6.2917e-07
-5.48688e-23
6.28103e-07
-4.02342e-18
6.28765e-07
-4.02294e-18
6.30056e-07
-5.51727e-23
6.29953e-07
5.48847e-23
6.28804e-07
5.51524e-23
6.2868e-07
5.52871e-23
6.2955e-07
2.01181e-18
6.29896e-07
0
6.29678e-07
0
6.29564e-07
-2.01155e-18
6.2964e-07
0
6.29687e-07
0
6.29735e-07
-5.50556e-23
6.29742e-07
5.52842e-23
6.29777e-07
2.01149e-18
6.2972e-07
-2.01364e-18
6.27433e-07
0
6.04915e-07
-1.98753e-18
4.3052e-07
-1.96759e-18
1.39485e-07
5.03221e-25
1.16168e-09
3.94721e-18
-5.33167e-11
3.57097e-11
0
0
0
0
0
0
0
0
0
0
0
0
0
0
0
0
0
0
0
0
0
0
0
0
0
0
0
0
0
0
0
0
0
0
0
0
0
0
0
0
0
0
0
0
0
0
0
0
0
0
0
0
0
0
0
0
0
0
0
0
0
0
0
0
0
0
0
0
0
0
0
0
0
0
0
0
2.46717e-19
5.42101e-21
0
-1.91681e-20
0
5.67261e-20
-4.93433e-19
-1.28297e-19
4.93433e-19
1.19262e-19
0
5.78241e-19
0
-3.93204e-18
0
1.39284e-17
-5.84391e-31
-3.37042e-17
0
6.52346e-17
-4.93433e-19
-2.42196e-16
0
1.93521e-15
0
-1.32712e-14
-4.93433e-19
6.87116e-14
0
-2.75894e-13
1.26981e-26
8.52669e-13
0
-1.824e-12
-4.93434e-19
1.21653e-12
0
1.02816e-11
-8.86408e-26
-7.71573e-11
4.92461e-19
7.62915e-10
0
1.13359e-07
0
3.58467e-07
0
5.21382e-07
0
5.61267e-07
5.06954e-19
5.77038e-07
5.07504e-19
5.85324e-07
-5.0775e-19
5.89942e-07
0
5.92645e-07
-5.08049e-19
5.94282e-07
5.08115e-19
5.95276e-07
1.52461e-18
5.94938e-07
5.08188e-19
5.94552e-07
0
5.98382e-07
5.08269e-19
6.02247e-07
-2.75646e-23
5.98547e-07
5.08162e-19
5.93972e-07
2.8009e-23
5.94595e-07
-5.08198e-19
5.94405e-07
0
5.93999e-07
1.01619e-18
5.97054e-07
0
5.97941e-07
-1.01615e-18
5.95931e-07
0
5.95881e-07
1.01618e-18
5.95763e-07
1.01607e-18
5.9502e-07
0
5.96205e-07
0
5.96667e-07
0
5.9606e-07
0
5.96873e-07
1.01612e-18
5.9695e-07
0
5.96242e-07
-1.01608e-18
5.96957e-07
0
5.96957e-07
0
5.96257e-07
0
5.96882e-07
1.01611e-18
5.96862e-07
5.58447e-23
5.96218e-07
1.01614e-18
5.96787e-07
-1.01611e-18
5.96807e-07
0
5.96116e-07
1.01612e-18
5.96655e-07
0
5.96977e-07
0
5.96217e-07
-1.01605e-18
5.96441e-07
0
5.97052e-07
1.01613e-18
5.96412e-07
0
5.96182e-07
5.61296e-23
5.97026e-07
-1.01614e-18
5.96927e-07
-1.01611e-18
5.96148e-07
1.01609e-18
5.96587e-07
5.61088e-23
5.9735e-07
-1.01607e-18
5.96798e-07
-1.01609e-18
5.96139e-07
0
5.96778e-07
0
5.97456e-07
5.59389e-23
5.96929e-07
5.59367e-23
5.96251e-07
1.01602e-18
5.96537e-07
-5.61073e-23
5.97179e-07
-1.01609e-18
5.97235e-07
0
5.96797e-07
-1.01595e-18