/*--------------------------------*- C++ -*----------------------------------*\
| =========                 |                                                 |
| \\      /  F ield         | foam-extend: Open Source CFD                    |
|  \\    /   O peration     | Version:     3.2                                |
|   \\  /    A nd           | Web:         http://www.foam-extend.org         |
|    \\/     M anipulation  | For copyright notice see file Copyright         |
\*---------------------------------------------------------------------------*/
FoamFile
{
    version     2.0;
    format      ascii;
    class       tetPointVectorField;
    location    "50";
    object      motionU;
}
// * * * * * * * * * * * * * * * * * * * * * * * * * * * * * * * * * * * * * //

dimensions      [0 1 -1 0 0 0 0];

internalField   nonuniform List<vector> 
38756
(
(0 0 0)
(0 0 0)
(0 0 0)
(0 0 0)
(0 0 0)
(0 0 0)
(0 0 0)
(0 0 0)
(0 0 0)
(0 0 0)
(0 0 0)
(0 0 0)
(0 0 0)
(0 0 0)
(0 0 0)
(0 0 0)
(0 0 0)
(0 0 0)
(0 0 0)
(0 0 0)
(0 0 0)
(0 0 0)
(0 0 0)
(0 0 0)
(0 0 0)
(0 0 0)
(0 0 0)
(0 0 0)
(0 0 0)
(0 0 0)
(0 0 0)
(0 0 0)
(0 0 0)
(0 0 0)
(0 0 0)
(0 0 0)
(0 0 0)
(0 0 0)
(0 0 0)
(0 0 0)
(0 0 0)
(0 0 0)
(0 0 0)
(0 0 0)
(0 0 0)
(0 0 0)
(0 0 0)
(0 0 0)
(0 0 0)
(0 0 0)
(0 0 0)
(0 0 0)
(0 0 0)
(0 0 0)
(0 0 0)
(0 0 0)
(0 0 0)
(0 0 0)
(0 0 0)
(0 0 0)
(0 0 0.000235813)
(0 0 0.0005142)
(0 0 0.000570745)
(0 0 0.000591611)
(0 0 0.000602053)
(0 0 0.000607767)
(0 0 0.000611067)
(0 0 0.000613032)
(0 0 0.000614242)
(0 0 0.000615058)
(0 0 0.000613472)
(0 0 0.000613943)
(0 0 0.000621558)
(0 0 0.000622345)
(0 0 0.000613514)
(0 0 0.000612601)
(0 0 0.000615258)
(0 0 0.000612195)
(0 0 0.000614178)
(0 0 0.000618847)
(0 0 0.000616047)
(0 0 0.000614406)
(0 0 0.000616118)
(0 0 0.000614227)
(0 0 0.000614421)
(0 0 0.000616848)
(0 0 0.000615401)
(0 0 0.000615433)
(0 0 0.000617223)
(0 0 0.0006156)
(0 0 0.000615616)
(0 0 0.000617215)
(0 0 0.000615617)
(0 0 0.000615636)
(0 0 0.000617037)
(0 0 0.000615595)
(0 0 0.000615587)
(0 0 0.000616885)
(0 0 0.000615641)
(0 0 0.000615339)
(0 0 0.000616844)
(0 0 0.000616058)
(0 0 0.000615149)
(0 0 0.000616561)
(0 0 0.000616511)
(0 0 0.000615142)
(0 0 0.000616001)
(0 0 0.000617003)
(0 0 0.000615781)
(0 0 0.000615292)
(0 0 0.000616742)
(0 0 0.000616957)
(0 0 0.000615533)
(0 0 0.000615528)
(0 0 0.000616927)
(0 0 0.000616989)
(0 0 0.000615781)
(0 0 0.00061554)
(0 0 0.000616415)
(0 0 0.000616911)
(0 0 0.000616519)
(0 0 0.000615981)
(0 0 0.000615877)
(0 0 0.000616029)
(0 0 0.000616209)
(0 0 0.000616375)
(0 0 0.0006165)
(0 0 0.000616588)
(0 0 0.000616661)
(0 0 0.000616747)
(0 0 0.000616813)
(0 0 0.000616833)
(0 0 0.000616859)
(0 0 0.000616905)
(0 0 0.000616954)
(0 0 0.00061699)
(0 0 0.000617014)
(0 0 0.000617048)
(0 0 0.000617105)
(0 0 0.000617189)
(0 0 0.00061725)
(0 0 0.000617316)
(0 0 0.000617304)
(0 0 0.000617377)
(0 0 0.000617558)
(0 0 0.00061739)
(0 0 0.000617632)
(0 0 0.000617732)
(0 0 0.000617189)
(0 0 0.000617994)
(0 0 0.000618241)
(0 0 0.000617251)
(0 0 0.000618257)
(0 0 0.000618367)
(0 0 0.000617059)
(0 0 0.000618857)
(0 0 0.000619105)
(0 0 0.000616626)
(0 0 0.000618734)
(0 0 0.000620014)
(0 0 0.000616823)
(0 0 0.000618265)
(0 0 0.000620488)
(0 0 0.000617816)
(0 0 0.00061818)
(0 0 0.000619943)
(0 0 0.0006185)
(0 0 0.000619186)
(0 0 0.000619913)
(0 0 0.000617863)
(0 0 0.000618851)
(0 0 0.00062091)
(0 0 0.00061909)
(0 0 0.000618406)
(0 0 0.000620159)
(0 0 0.000619292)
(0 0 0.000618354)
(0 0 0.000620517)
(0 0 0.000621046)
(0 0 0.00061913)
(0 0 0.000619932)
(0 0 0.000621906)
(0 0 0.000620702)
(0 0 0.000619395)
(0 0 0.000620931)
(0 0 0.000621985)
(0 0 0.000620937)
(0 0 0.000620438)
(0 0 0.000621395)
(0 0 0.000622043)
(0 0 0.000621739)
(0 0 0.000621793)
(0 0 0.000621925)
(0 0 0.000622068)
(0 0 0.000623019)
(0 0 0.00062285)
(0 0 0.000622485)
(0 0 0.000623497)
(0 0 0.000622927)
(0 0 0.000622471)
(0 0 0.000624042)
(0 0 0.000623118)
(0 0 0.000622234)
(0 0 0.000624786)
(0 0 0.000624264)
(0 0 0.000622433)
(0 0 0.000625075)
(0 0 0.000625478)
(0 0 0.00062308)
(0 0 0.000624757)
(0 0 0.000625973)
(0 0 0.000624691)
(0 0 0.000625632)
(0 0 0.000625648)
(0 0 0.00062483)
(0 0 0.000627063)
(0 0 0.000627204)
(0 0 0.000625296)
(0 0 0.000626935)
(0 0 0.000627747)
(0 0 0.000626739)
(0 0 0.000628453)
(0 0 0.000628647)
(0 0 0.000626991)
(0 0 0.000628554)
(0 0 0.000629006)
(0 0 0.000627561)
(0 0 0.000629231)
(0 0 0.000629779)
(0 0 0.000628352)
(0 0 0.000630008)
(0 0 0.000630589)
(0 0 0.000629149)
(0 0 0.000630796)
(0 0 0.000631409)
(0 0 0.000629955)
(0 0 0.000631601)
(0 0 0.000632253)
(0 0 0.000630773)
(0 0 0.000632398)
(0 0 0.000633096)
(0 0 0.00063161)
(0 0 0.000633211)
(0 0 0.000633934)
(0 0 0.000632437)
(0 0 0.000634021)
(0 0 0.000634771)
(0 0 0.000633249)
(0 0 0.000634806)
(0 0 0.000635584)
(0 0 0.000634041)
(0 0 0.000635567)
(0 0 0.000636354)
(0 0 0.000634805)
(0 0 0.000636277)
(0 0 0.000637103)
(0 0 0.000635498)
(0 0 0.000636946)
(0 0 0.000637828)
(0 0 0.000636083)
(0 0 0.000637487)
(0 0 0.000638342)
(0 0 0.000636931)
(0 0 0.000638057)
(0 0 0.000638957)
(0 0 0.000637151)
(0 0 0.000638106)
(0 0 0.000640124)
(0 0 0.000638127)
(0 0 0.000638142)
(0 0 0.000638947)
(0 0 0.000639465)
(0 0 0.000639586)
(0 0 0.000638521)
(0 0 0.000638887)
(0 0 0.000639979)
(0 0 0.000640598)
(0 0 0.000638705)
(0 0 0.000638343)
(0 0 0.000640099)
(0 0 0.000641043)
(0 0 0.000639872)
(0 0 0.000638628)
(0 0 0.000639627)
(0 0 0.00064046)
(0 0 0.000640325)
(0 0 0.000639987)
(0 0 0.00064009)
(0 0 0.00064015)
(0 0 0.000640175)
(0 0 0.000640255)
(0 0 0.000640183)
(0 0 0.000640323)
(0 0 0.000640127)
(0 0 0.000635579)
(0 0 0.000598782)
(0 0 0.000283066)
(0 0 0)
(0 0 0)
(0 0 0)
(0 0 0)
(0 0 0)
(0 0 0)
(0 0 0)
(0 0 0)
(0 0 0)
(0 0 0)
(0 0 0)
(0 0 0)
(0 0 0)
(0 0 0)
(0 0 0)
(0 0 0)
(0 0 0)
(0 0 0)
(0 0 0)
(0 0 0)
(0 0 0)
(0 0 0)
(0 0 0)
(0 0 0)
(0 0 0)
(0 0 0)
(0 0 0)
(0 0 0)
(0 0 0)
(0 0 0)
(0 0 0)
(0 0 0)
(0 0 0)
(0 0 0)
(0 0 0)
(0 0 0)
(0 0 0)
(0 0 0)
(0 0 0)
(0 0 0)
(0 0 0)
(0 0 0)
(0 0 0)
(0 0 0)
(0 0 0)
(0 0 0)
(0 0 0)
(0 0 0)
(0 0 0)
(0 0 0)
(0 0 0)
(0 0 0)
(0 0 0)
(0 0 0)
(0 0 0)
(0 0 0)
(0 0 0)
(0 0 0)
(0 0 0)
(0 0 0)
(0 0 0)
(0 0 0)
(0 0 0)
(0 0 0)
(0 0 0.000235813)
(0 0 0.0005142)
(0 0 0.000570745)
(0 0 0.000591611)
(0 0 0.000602053)
(0 0 0.000607767)
(0 0 0.000611067)
(0 0 0.000613032)
(0 0 0.000614242)
(0 0 0.000615058)
(0 0 0.000613472)
(0 0 0.000613943)
(0 0 0.000621558)
(0 0 0.000622345)
(0 0 0.000613514)
(0 0 0.000612601)
(0 0 0.000615258)
(0 0 0.000612195)
(0 0 0.000614178)
(0 0 0.000618847)
(0 0 0.000616047)
(0 0 0.000614406)
(0 0 0.000616118)
(0 0 0.000614227)
(0 0 0.000614421)
(0 0 0.000616848)
(0 0 0.000615401)
(0 0 0.000615433)
(0 0 0.000617223)
(0 0 0.0006156)
(0 0 0.000615616)
(0 0 0.000617215)
(0 0 0.000615617)
(0 0 0.000615636)
(0 0 0.000617037)
(0 0 0.000615595)
(0 0 0.000615587)
(0 0 0.000616885)
(0 0 0.000615641)
(0 0 0.000615339)
(0 0 0.000616844)
(0 0 0.000616058)
(0 0 0.000615149)
(0 0 0.000616561)
(0 0 0.000616511)
(0 0 0.000615142)
(0 0 0.000616001)
(0 0 0.000617003)
(0 0 0.000615781)
(0 0 0.000615292)
(0 0 0.000616742)
(0 0 0.000616957)
(0 0 0.000615533)
(0 0 0.000615528)
(0 0 0.000616927)
(0 0 0.000616989)
(0 0 0.000615781)
(0 0 0.00061554)
(0 0 0.000616415)
(0 0 0.000616911)
(0 0 0.000616519)
(0 0 0.000615981)
(0 0 0.000615877)
(0 0 0.000616029)
(0 0 0.000616209)
(0 0 0.000616375)
(0 0 0.0006165)
(0 0 0.000616588)
(0 0 0.000616661)
(0 0 0.000616747)
(0 0 0.000616813)
(0 0 0.000616833)
(0 0 0.000616859)
(0 0 0.000616905)
(0 0 0.000616954)
(0 0 0.00061699)
(0 0 0.000617014)
(0 0 0.000617048)
(0 0 0.000617105)
(0 0 0.000617189)
(0 0 0.00061725)
(0 0 0.000617316)
(0 0 0.000617304)
(0 0 0.000617377)
(0 0 0.000617558)
(0 0 0.00061739)
(0 0 0.000617632)
(0 0 0.000617732)
(0 0 0.000617189)
(0 0 0.000617994)
(0 0 0.000618241)
(0 0 0.000617251)
(0 0 0.000618257)
(0 0 0.000618367)
(0 0 0.000617059)
(0 0 0.000618857)
(0 0 0.000619105)
(0 0 0.000616626)
(0 0 0.000618734)
(0 0 0.000620014)
(0 0 0.000616823)
(0 0 0.000618265)
(0 0 0.000620488)
(0 0 0.000617816)
(0 0 0.00061818)
(0 0 0.000619943)
(0 0 0.0006185)
(0 0 0.000619186)
(0 0 0.000619913)
(0 0 0.000617863)
(0 0 0.000618851)
(0 0 0.00062091)
(0 0 0.00061909)
(0 0 0.000618406)
(0 0 0.000620159)
(0 0 0.000619292)
(0 0 0.000618354)
(0 0 0.000620517)
(0 0 0.000621046)
(0 0 0.00061913)
(0 0 0.000619932)
(0 0 0.000621906)
(0 0 0.000620702)
(0 0 0.000619395)
(0 0 0.000620931)
(0 0 0.000621985)
(0 0 0.000620937)
(0 0 0.000620438)
(0 0 0.000621395)
(0 0 0.000622043)
(0 0 0.000621739)
(0 0 0.000621793)
(0 0 0.000621925)
(0 0 0.000622068)
(0 0 0.000623019)
(0 0 0.00062285)
(0 0 0.000622485)
(0 0 0.000623497)
(0 0 0.000622927)
(0 0 0.000622471)
(0 0 0.000624042)
(0 0 0.000623118)
(0 0 0.000622234)
(0 0 0.000624786)
(0 0 0.000624264)
(0 0 0.000622433)
(0 0 0.000625075)
(0 0 0.000625478)
(0 0 0.00062308)
(0 0 0.000624757)
(0 0 0.000625973)
(0 0 0.000624691)
(0 0 0.000625632)
(0 0 0.000625648)
(0 0 0.00062483)
(0 0 0.000627063)
(0 0 0.000627204)
(0 0 0.000625296)
(0 0 0.000626935)
(0 0 0.000627747)
(0 0 0.000626739)
(0 0 0.000628453)
(0 0 0.000628647)
(0 0 0.000626991)
(0 0 0.000628554)
(0 0 0.000629006)
(0 0 0.000627561)
(0 0 0.000629231)
(0 0 0.000629779)
(0 0 0.000628352)
(0 0 0.000630008)
(0 0 0.000630589)
(0 0 0.000629149)
(0 0 0.000630796)
(0 0 0.000631409)
(0 0 0.000629955)
(0 0 0.000631601)
(0 0 0.000632253)
(0 0 0.000630773)
(0 0 0.000632398)
(0 0 0.000633096)
(0 0 0.00063161)
(0 0 0.000633211)
(0 0 0.000633934)
(0 0 0.000632437)
(0 0 0.000634021)
(0 0 0.000634771)
(0 0 0.000633249)
(0 0 0.000634806)
(0 0 0.000635584)
(0 0 0.000634041)
(0 0 0.000635567)
(0 0 0.000636354)
(0 0 0.000634805)
(0 0 0.000636277)
(0 0 0.000637103)
(0 0 0.000635498)
(0 0 0.000636946)
(0 0 0.000637828)
(0 0 0.000636083)
(0 0 0.000637487)
(0 0 0.000638342)
(0 0 0.000636931)
(0 0 0.000638057)
(0 0 0.000638957)
(0 0 0.000637151)
(0 0 0.000638106)
(0 0 0.000640124)
(0 0 0.000638127)
(0 0 0.000638142)
(0 0 0.000638947)
(0 0 0.000639465)
(0 0 0.000639586)
(0 0 0.000638521)
(0 0 0.000638887)
(0 0 0.000639979)
(0 0 0.000640598)
(0 0 0.000638705)
(0 0 0.000638343)
(0 0 0.000640099)
(0 0 0.000641043)
(0 0 0.000639872)
(0 0 0.000638628)
(0 0 0.000639627)
(0 0 0.00064046)
(0 0 0.000640325)
(0 0 0.000639987)
(0 0 0.00064009)
(0 0 0.00064015)
(0 0 0.000640175)
(0 0 0.000640255)
(0 0 0.000640183)
(0 0 0.000640323)
(0 0 0.000640127)
(0 0 0.000635579)
(0 0 0.000598782)
(0 0 0.000283066)
(0 0 0)
(0 0 0)
(0 0 0)
(0 0 0)
(0 0 0)
(0 0 -6.52589e-40)
(0 0 2.80391e-39)
(0 0 -8.49243e-39)
(0 0 1.85992e-38)
(0 0 -8.68562e-39)
(0 0 -2.02948e-37)
(0 0 1.53832e-36)
(0 0 -7.89311e-36)
(0 0 3.37102e-35)
(0 0 -1.26585e-34)
(0 0 4.24225e-34)
(0 0 -1.25765e-33)
(0 0 3.1513e-33)
(0 0 -5.5828e-33)
(0 0 -1.44884e-33)
(0 0 8.06145e-32)
(0 0 -5.47034e-31)
(0 0 2.85179e-30)
(0 0 -1.33845e-29)
(0 0 5.9366e-29)
(0 0 -2.52552e-28)
(0 0 1.02963e-27)
(0 0 -3.98465e-27)
(0 0 1.43994e-26)
(0 0 -4.72961e-26)
(0 0 1.33777e-25)
(0 0 -2.78123e-25)
(0 0 6.44437e-26)
(0 0 3.47897e-24)
(0 0 -2.51339e-23)
(0 0 1.25412e-22)
(0 0 -5.15193e-22)
(0 0 1.8081e-21)
(0 0 -5.34465e-21)
(0 0 1.2192e-20)
(0 0 -1.3162e-20)
(0 0 -6.01519e-20)
(0 0 5.14068e-19)
(0 0 -2.39461e-18)
(0 0 8.4228e-18)
(0 0 -2.29121e-17)
(0 0 4.16567e-17)
(0 0 8.05727e-19)
(0 0 -4.0305e-16)
(0 0 2.05021e-15)
(0 0 -6.54533e-15)
(0 0 1.38303e-14)
(0 0 -1.10956e-14)
(0 0 -5.63207e-14)
(0 0 3.51917e-13)
(0 0 -1.4384e-12)
(0 0 5.78532e-12)
(0 0 -2.15742e-11)
(0 0 5.03842e-11)
(0 0 6.43547e-11)
(0 0 -1.20921e-09)
(0 0 5.84638e-09)
(0 0 -2.41886e-08)
(0 0 2.15812e-07)
(0 0 0.000235761)
(0 0 0.000514035)
(0 0 0.000570999)
(0 0 0.000591864)
(0 0 0.000602329)
(0 0 0.000608053)
(0 0 0.000611357)
(0 0 0.000613325)
(0 0 0.000614538)
(0 0 0.000615351)
(0 0 0.000613774)
(0 0 0.000614254)
(0 0 0.000621845)
(0 0 0.000622628)
(0 0 0.000613827)
(0 0 0.000612906)
(0 0 0.000615547)
(0 0 0.000612502)
(0 0 0.000614481)
(0 0 0.000619133)
(0 0 0.000616347)
(0 0 0.00061471)
(0 0 0.00061641)
(0 0 0.000614529)
(0 0 0.000614723)
(0 0 0.00061714)
(0 0 0.000615702)
(0 0 0.000615734)
(0 0 0.000617515)
(0 0 0.000615901)
(0 0 0.000615917)
(0 0 0.000617508)
(0 0 0.000615919)
(0 0 0.000615937)
(0 0 0.000617331)
(0 0 0.000615896)
(0 0 0.000615888)
(0 0 0.000617179)
(0 0 0.000615941)
(0 0 0.000615641)
(0 0 0.000617139)
(0 0 0.000616357)
(0 0 0.000615452)
(0 0 0.000616857)
(0 0 0.000616808)
(0 0 0.000615444)
(0 0 0.0006163)
(0 0 0.000617298)
(0 0 0.000616081)
(0 0 0.000615594)
(0 0 0.000617039)
(0 0 0.000617254)
(0 0 0.000615835)
(0 0 0.00061583)
(0 0 0.000617224)
(0 0 0.000617286)
(0 0 0.000616083)
(0 0 0.000615841)
(0 0 0.000616714)
(0 0 0.000617209)
(0 0 0.000616819)
(0 0 0.000616281)
(0 0 0.000616177)
(0 0 0.000616328)
(0 0 0.000616509)
(0 0 0.000616674)
(0 0 0.000616799)
(0 0 0.000616888)
(0 0 0.00061696)
(0 0 0.000617047)
(0 0 0.000617113)
(0 0 0.000617133)
(0 0 0.000617159)
(0 0 0.000617205)
(0 0 0.000617254)
(0 0 0.00061729)
(0 0 0.000617314)
(0 0 0.000617348)
(0 0 0.000617405)
(0 0 0.000617489)
(0 0 0.000617551)
(0 0 0.000617616)
(0 0 0.000617605)
(0 0 0.000617678)
(0 0 0.000617858)
(0 0 0.000617691)
(0 0 0.000617933)
(0 0 0.000618032)
(0 0 0.000617491)
(0 0 0.000618294)
(0 0 0.00061854)
(0 0 0.000617555)
(0 0 0.000618556)
(0 0 0.000618665)
(0 0 0.000617365)
(0 0 0.000619155)
(0 0 0.000619402)
(0 0 0.000616935)
(0 0 0.000619034)
(0 0 0.000620308)
(0 0 0.000617132)
(0 0 0.000618567)
(0 0 0.000620781)
(0 0 0.000618123)
(0 0 0.000618484)
(0 0 0.000620239)
(0 0 0.000618806)
(0 0 0.000619487)
(0 0 0.00062021)
(0 0 0.00061817)
(0 0 0.000619155)
(0 0 0.000621206)
(0 0 0.000619394)
(0 0 0.000618712)
(0 0 0.000620457)
(0 0 0.000619594)
(0 0 0.000618661)
(0 0 0.000620817)
(0 0 0.000621345)
(0 0 0.000619437)
(0 0 0.000620236)
(0 0 0.000622203)
(0 0 0.000621005)
(0 0 0.000619702)
(0 0 0.000621233)
(0 0 0.000622284)
(0 0 0.000621241)
(0 0 0.000620743)
(0 0 0.000621698)
(0 0 0.000622344)
(0 0 0.000622043)
(0 0 0.000622096)
(0 0 0.000622228)
(0 0 0.000622372)
(0 0 0.00062332)
(0 0 0.000623153)
(0 0 0.000622791)
(0 0 0.000623798)
(0 0 0.000623231)
(0 0 0.000622778)
(0 0 0.000624341)
(0 0 0.000623422)
(0 0 0.000622543)
(0 0 0.000625085)
(0 0 0.000624566)
(0 0 0.000622745)
(0 0 0.000625375)
(0 0 0.000625777)
(0 0 0.000623391)
(0 0 0.00062506)
(0 0 0.000626273)
(0 0 0.000625)
(0 0 0.000625935)
(0 0 0.000625951)
(0 0 0.000625139)
(0 0 0.000627364)
(0 0 0.000627505)
(0 0 0.000625607)
(0 0 0.000627238)
(0 0 0.000628049)
(0 0 0.000627048)
(0 0 0.000628755)
(0 0 0.000628949)
(0 0 0.000627301)
(0 0 0.000628858)
(0 0 0.000629308)
(0 0 0.000627871)
(0 0 0.000629534)
(0 0 0.000630082)
(0 0 0.000628662)
(0 0 0.000630312)
(0 0 0.000630892)
(0 0 0.00062946)
(0 0 0.0006311)
(0 0 0.000631712)
(0 0 0.000630266)
(0 0 0.000631904)
(0 0 0.000632556)
(0 0 0.000631084)
(0 0 0.000632702)
(0 0 0.000633399)
(0 0 0.000631921)
(0 0 0.000633515)
(0 0 0.000634237)
(0 0 0.000632748)
(0 0 0.000634325)
(0 0 0.000635073)
(0 0 0.00063356)
(0 0 0.00063511)
(0 0 0.000635886)
(0 0 0.000634352)
(0 0 0.000635872)
(0 0 0.000636656)
(0 0 0.000635116)
(0 0 0.000636582)
(0 0 0.000637405)
(0 0 0.00063581)
(0 0 0.000637251)
(0 0 0.00063813)
(0 0 0.000636394)
(0 0 0.000637793)
(0 0 0.000638644)
(0 0 0.000637242)
(0 0 0.000638363)
(0 0 0.000639259)
(0 0 0.000637462)
(0 0 0.000638414)
(0 0 0.000640423)
(0 0 0.000638437)
(0 0 0.00063845)
(0 0 0.000639253)
(0 0 0.00063977)
(0 0 0.000639891)
(0 0 0.00063883)
(0 0 0.000639195)
(0 0 0.000640284)
(0 0 0.0006409)
(0 0 0.000639014)
(0 0 0.000638653)
(0 0 0.000640404)
(0 0 0.000641346)
(0 0 0.000640178)
(0 0 0.000638938)
(0 0 0.000639933)
(0 0 0.000640765)
(0 0 0.000640631)
(0 0 0.000640294)
(0 0 0.000640396)
(0 0 0.000640457)
(0 0 0.000640482)
(0 0 0.000640561)
(0 0 0.00064049)
(0 0 0.00064063)
(0 0 0.000640425)
(0 0 0.000635886)
(0 0 0.000598527)
(0 0 0.000282913)
(0 0 2.14275e-07)
(0 0 -4.00061e-08)
(0 0 1.42824e-08)
(0 0 0)
(0 0 0)
(0 0 7.79056e-40)
(0 0 -2.62979e-39)
(0 0 6.17332e-39)
(0 0 -8.05983e-39)
(0 0 -2.12337e-38)
(0 0 2.2707e-37)
(0 0 -1.16429e-36)
(0 0 4.52102e-36)
(0 0 -1.38635e-35)
(0 0 2.91704e-35)
(0 0 3.44376e-36)
(0 0 -4.7392e-34)
(0 0 3.41894e-33)
(0 0 -1.79795e-32)
(0 0 8.15286e-32)
(0 0 -3.37406e-31)
(0 0 1.31089e-30)
(0 0 -4.86308e-30)
(0 0 1.74007e-29)
(0 0 -6.0254e-29)
(0 0 2.00793e-28)
(0 0 -6.31778e-28)
(0 0 1.79456e-27)
(0 0 -4.07453e-27)
(0 0 3.57205e-27)
(0 0 3.48256e-26)
(0 0 -3.11968e-25)
(0 0 1.77257e-24)
(0 0 -8.29301e-24)
(0 0 3.39223e-23)
(0 0 -1.22962e-22)
(0 0 3.89961e-22)
(0 0 -1.02716e-21)
(0 0 1.85373e-21)
(0 0 6.51439e-22)
(0 0 -2.65899e-20)
(0 0 1.59639e-19)
(0 0 -6.80246e-19)
(0 0 2.33044e-18)
(0 0 -6.39251e-18)
(0 0 1.22836e-17)
(0 0 -3.33622e-18)
(0 0 -1.05441e-16)
(0 0 5.99142e-16)
(0 0 -2.12524e-15)
(0 0 5.27699e-15)
(0 0 -7.42998e-15)
(0 0 -6.4059e-15)
(0 0 7.16675e-14)
(0 0 -1.96993e-13)
(0 0 9.05303e-14)
(0 0 2.22751e-12)
(0 0 -2.13819e-11)
(0 0 1.62479e-10)
(0 0 -9.74899e-10)
(0 0 4.07966e-09)
(0 0 -9.02044e-09)
(0 0 -1.11852e-08)
(0 0 2.43256e-07)
(0 0 0.000235553)
(0 0 0.000513593)
(0 0 0.000570567)
(0 0 0.000591473)
(0 0 0.000601922)
(0 0 0.00060764)
(0 0 0.000610942)
(0 0 0.000612908)
(0 0 0.000614119)
(0 0 0.000614933)
(0 0 0.000613351)
(0 0 0.000613828)
(0 0 0.000621427)
(0 0 0.000622211)
(0 0 0.000613402)
(0 0 0.000612483)
(0 0 0.000615128)
(0 0 0.000612079)
(0 0 0.000614059)
(0 0 0.000618715)
(0 0 0.000615927)
(0 0 0.000614288)
(0 0 0.00061599)
(0 0 0.000614107)
(0 0 0.000614301)
(0 0 0.00061672)
(0 0 0.000615281)
(0 0 0.000615312)
(0 0 0.000617095)
(0 0 0.000615479)
(0 0 0.000615495)
(0 0 0.000617087)
(0 0 0.000615497)
(0 0 0.000615515)
(0 0 0.00061691)
(0 0 0.000615474)
(0 0 0.000615465)
(0 0 0.000616758)
(0 0 0.000615519)
(0 0 0.000615218)
(0 0 0.000616718)
(0 0 0.000615935)
(0 0 0.000615029)
(0 0 0.000616436)
(0 0 0.000616386)
(0 0 0.000615022)
(0 0 0.000615878)
(0 0 0.000616877)
(0 0 0.000615659)
(0 0 0.000615171)
(0 0 0.000616617)
(0 0 0.000616832)
(0 0 0.000615412)
(0 0 0.000615407)
(0 0 0.000616802)
(0 0 0.000616864)
(0 0 0.00061566)
(0 0 0.000615418)
(0 0 0.000616291)
(0 0 0.000616786)
(0 0 0.000616396)
(0 0 0.000615858)
(0 0 0.000615754)
(0 0 0.000615905)
(0 0 0.000616086)
(0 0 0.000616251)
(0 0 0.000616376)
(0 0 0.000616465)
(0 0 0.000616537)
(0 0 0.000616623)
(0 0 0.00061669)
(0 0 0.00061671)
(0 0 0.000616735)
(0 0 0.000616781)
(0 0 0.00061683)
(0 0 0.000616866)
(0 0 0.000616891)
(0 0 0.000616925)
(0 0 0.000616982)
(0 0 0.000617065)
(0 0 0.000617127)
(0 0 0.000617193)
(0 0 0.00061718)
(0 0 0.000617254)
(0 0 0.000617434)
(0 0 0.000617267)
(0 0 0.000617509)
(0 0 0.000617608)
(0 0 0.000617067)
(0 0 0.00061787)
(0 0 0.000618115)
(0 0 0.00061713)
(0 0 0.000618132)
(0 0 0.000618241)
(0 0 0.000616939)
(0 0 0.000618731)
(0 0 0.000618978)
(0 0 0.000616508)
(0 0 0.000618609)
(0 0 0.000619884)
(0 0 0.000616705)
(0 0 0.000618141)
(0 0 0.000620358)
(0 0 0.000617696)
(0 0 0.000618057)
(0 0 0.000619814)
(0 0 0.000618379)
(0 0 0.000619061)
(0 0 0.000619785)
(0 0 0.000617743)
(0 0 0.000618728)
(0 0 0.000620781)
(0 0 0.000618967)
(0 0 0.000618285)
(0 0 0.000620031)
(0 0 0.000619168)
(0 0 0.000618233)
(0 0 0.000620391)
(0 0 0.000620919)
(0 0 0.000619009)
(0 0 0.000619809)
(0 0 0.000621777)
(0 0 0.000620578)
(0 0 0.000619274)
(0 0 0.000620805)
(0 0 0.000621857)
(0 0 0.000620814)
(0 0 0.000620315)
(0 0 0.00062127)
(0 0 0.000621916)
(0 0 0.000621615)
(0 0 0.000621668)
(0 0 0.000621799)
(0 0 0.000621944)
(0 0 0.000622892)
(0 0 0.000622725)
(0 0 0.000622362)
(0 0 0.000623369)
(0 0 0.000622802)
(0 0 0.000622348)
(0 0 0.000623913)
(0 0 0.000622993)
(0 0 0.000622113)
(0 0 0.000624657)
(0 0 0.000624137)
(0 0 0.000622314)
(0 0 0.000624946)
(0 0 0.000625349)
(0 0 0.00062296)
(0 0 0.00062463)
(0 0 0.000625844)
(0 0 0.000624569)
(0 0 0.000625505)
(0 0 0.000625521)
(0 0 0.000624708)
(0 0 0.000626934)
(0 0 0.000627075)
(0 0 0.000625175)
(0 0 0.000626808)
(0 0 0.000627618)
(0 0 0.000626616)
(0 0 0.000628325)
(0 0 0.000628519)
(0 0 0.000626869)
(0 0 0.000628427)
(0 0 0.000628877)
(0 0 0.000627439)
(0 0 0.000629103)
(0 0 0.00062965)
(0 0 0.000628229)
(0 0 0.00062988)
(0 0 0.00063046)
(0 0 0.000629027)
(0 0 0.000630668)
(0 0 0.00063128)
(0 0 0.000629833)
(0 0 0.000631472)
(0 0 0.000632124)
(0 0 0.00063065)
(0 0 0.00063227)
(0 0 0.000632967)
(0 0 0.000631487)
(0 0 0.000633082)
(0 0 0.000633805)
(0 0 0.000632314)
(0 0 0.000633892)
(0 0 0.000634641)
(0 0 0.000633126)
(0 0 0.000634677)
(0 0 0.000635453)
(0 0 0.000633918)
(0 0 0.000635439)
(0 0 0.000636224)
(0 0 0.000634681)
(0 0 0.000636149)
(0 0 0.000636972)
(0 0 0.000635375)
(0 0 0.000636818)
(0 0 0.000637697)
(0 0 0.00063596)
(0 0 0.000637359)
(0 0 0.000638211)
(0 0 0.000636807)
(0 0 0.000637929)
(0 0 0.000638826)
(0 0 0.000637027)
(0 0 0.00063798)
(0 0 0.00063999)
(0 0 0.000638002)
(0 0 0.000638015)
(0 0 0.000638819)
(0 0 0.000639337)
(0 0 0.000639457)
(0 0 0.000638395)
(0 0 0.00063876)
(0 0 0.000639851)
(0 0 0.000640467)
(0 0 0.00063858)
(0 0 0.000638217)
(0 0 0.00063997)
(0 0 0.000640912)
(0 0 0.000639744)
(0 0 0.000638503)
(0 0 0.000639498)
(0 0 0.000640331)
(0 0 0.000640197)
(0 0 0.000639859)
(0 0 0.000639962)
(0 0 0.000640022)
(0 0 0.000640048)
(0 0 0.000640127)
(0 0 0.000640056)
(0 0 0.000640191)
(0 0 0.000640005)
(0 0 0.000635435)
(0 0 0.000598106)
(0 0 0.000282803)
(0 0 3.26708e-07)
(0 0 -4.83207e-09)
(0 0 -5.12212e-09)
(0 0 0)
(0 0 0)
(0 0 -3.49128e-39)
(0 0 1.47208e-38)
(0 0 -4.19266e-38)
(0 0 7.6278e-38)
(0 0 7.07887e-38)
(0 0 -1.58242e-36)
(0 0 1.00296e-35)
(0 0 -4.76399e-35)
(0 0 1.92001e-34)
(0 0 -6.79181e-34)
(0 0 2.10734e-33)
(0 0 -5.52298e-33)
(0 0 1.05345e-32)
(0 0 -1.74297e-33)
(0 0 -1.19844e-31)
(0 0 8.41757e-31)
(0 0 -4.3262e-30)
(0 0 1.97362e-29)
(0 0 -8.51159e-29)
(0 0 3.55896e-28)
(0 0 -1.45096e-27)
(0 0 5.72845e-27)
(0 0 -2.15738e-26)
(0 0 7.57781e-26)
(0 0 -2.39431e-25)
(0 0 6.3003e-25)
(0 0 -1.04176e-24)
(0 0 -1.71891e-24)
(0 0 2.7276e-23)
(0 0 -1.67631e-22)
(0 0 7.85939e-22)
(0 0 -3.10935e-21)
(0 0 1.0577e-20)
(0 0 -3.01346e-20)
(0 0 6.39913e-20)
(0 0 -4.27443e-20)
(0 0 -4.87999e-19)
(0 0 3.48611e-18)
(0 0 -1.54884e-17)
(0 0 5.30452e-17)
(0 0 -1.40134e-16)
(0 0 2.36115e-16)
(0 0 1.25067e-16)
(0 0 -2.98836e-15)
(0 0 1.42488e-14)
(0 0 -4.37635e-14)
(0 0 8.58247e-14)
(0 0 -3.75595e-14)
(0 0 -4.46168e-13)
(0 0 1.71482e-12)
(0 0 -1.40092e-12)
(0 0 -1.69089e-11)
(0 0 1.18574e-10)
(0 0 -5.06668e-10)
(0 0 1.6106e-09)
(0 0 -3.2521e-09)
(0 0 9.75919e-10)
(0 0 -9.82123e-09)
(0 0 5.31033e-07)
(0 0 0.000235007)
(0 0 0.000512452)
(0 0 0.000569979)
(0 0 0.000590937)
(0 0 0.00060144)
(0 0 0.000607167)
(0 0 0.000610476)
(0 0 0.000612447)
(0 0 0.000613664)
(0 0 0.000614467)
(0 0 0.000612901)
(0 0 0.000613401)
(0 0 0.000620949)
(0 0 0.000621722)
(0 0 0.000612977)
(0 0 0.000612043)
(0 0 0.000614653)
(0 0 0.000611643)
(0 0 0.000613615)
(0 0 0.000618233)
(0 0 0.000615475)
(0 0 0.000613845)
(0 0 0.000615521)
(0 0 0.000613659)
(0 0 0.000613854)
(0 0 0.000616249)
(0 0 0.000614829)
(0 0 0.000614862)
(0 0 0.000616626)
(0 0 0.000615028)
(0 0 0.000615044)
(0 0 0.000616619)
(0 0 0.000615046)
(0 0 0.000615063)
(0 0 0.000616443)
(0 0 0.000615022)
(0 0 0.000615014)
(0 0 0.000616292)
(0 0 0.000615066)
(0 0 0.000614768)
(0 0 0.000616253)
(0 0 0.000615478)
(0 0 0.00061458)
(0 0 0.000615974)
(0 0 0.000615925)
(0 0 0.000614573)
(0 0 0.000615422)
(0 0 0.000616412)
(0 0 0.000615204)
(0 0 0.000614721)
(0 0 0.000616156)
(0 0 0.00061637)
(0 0 0.00061496)
(0 0 0.000614954)
(0 0 0.000616341)
(0 0 0.000616403)
(0 0 0.000615206)
(0 0 0.000614964)
(0 0 0.000615832)
(0 0 0.000616326)
(0 0 0.000615938)
(0 0 0.000615402)
(0 0 0.000615297)
(0 0 0.000615448)
(0 0 0.000615628)
(0 0 0.000615793)
(0 0 0.000615918)
(0 0 0.000616006)
(0 0 0.000616079)
(0 0 0.000616165)
(0 0 0.000616231)
(0 0 0.000616252)
(0 0 0.000616277)
(0 0 0.000616323)
(0 0 0.000616372)
(0 0 0.000616407)
(0 0 0.000616432)
(0 0 0.000616466)
(0 0 0.000616523)
(0 0 0.000616606)
(0 0 0.000616668)
(0 0 0.000616733)
(0 0 0.000616722)
(0 0 0.000616795)
(0 0 0.000616974)
(0 0 0.000616809)
(0 0 0.000617049)
(0 0 0.000617146)
(0 0 0.000616612)
(0 0 0.000617408)
(0 0 0.000617651)
(0 0 0.000616678)
(0 0 0.000617669)
(0 0 0.000617775)
(0 0 0.00061649)
(0 0 0.000618266)
(0 0 0.000618507)
(0 0 0.000616064)
(0 0 0.000618146)
(0 0 0.000619407)
(0 0 0.000616261)
(0 0 0.000617684)
(0 0 0.000619879)
(0 0 0.000617246)
(0 0 0.000617602)
(0 0 0.000619341)
(0 0 0.000617926)
(0 0 0.000618601)
(0 0 0.000619313)
(0 0 0.000617292)
(0 0 0.000618271)
(0 0 0.000620305)
(0 0 0.000618509)
(0 0 0.000617832)
(0 0 0.00061956)
(0 0 0.000618705)
(0 0 0.000617782)
(0 0 0.000619922)
(0 0 0.000620447)
(0 0 0.000618555)
(0 0 0.000619349)
(0 0 0.000621302)
(0 0 0.000620114)
(0 0 0.00061882)
(0 0 0.00062034)
(0 0 0.000621386)
(0 0 0.000620351)
(0 0 0.000619856)
(0 0 0.000620804)
(0 0 0.000621448)
(0 0 0.000621151)
(0 0 0.000621203)
(0 0 0.000621334)
(0 0 0.000621482)
(0 0 0.000622423)
(0 0 0.000622258)
(0 0 0.000621901)
(0 0 0.000622898)
(0 0 0.000622336)
(0 0 0.00062189)
(0 0 0.000623438)
(0 0 0.000622526)
(0 0 0.000621659)
(0 0 0.000624179)
(0 0 0.000623664)
(0 0 0.000621863)
(0 0 0.000624471)
(0 0 0.000624871)
(0 0 0.000622507)
(0 0 0.000624161)
(0 0 0.000625366)
(0 0 0.000624109)
(0 0 0.000625033)
(0 0 0.000625049)
(0 0 0.00062425)
(0 0 0.000626458)
(0 0 0.000626598)
(0 0 0.000624718)
(0 0 0.000626335)
(0 0 0.000627141)
(0 0 0.000626156)
(0 0 0.000627849)
(0 0 0.000628041)
(0 0 0.00062641)
(0 0 0.000627952)
(0 0 0.000628398)
(0 0 0.000626979)
(0 0 0.000628627)
(0 0 0.000629171)
(0 0 0.000627768)
(0 0 0.000629404)
(0 0 0.00062998)
(0 0 0.000628565)
(0 0 0.000630191)
(0 0 0.000630799)
(0 0 0.00062937)
(0 0 0.000630995)
(0 0 0.000631642)
(0 0 0.000630187)
(0 0 0.000631792)
(0 0 0.000632483)
(0 0 0.000631023)
(0 0 0.000632604)
(0 0 0.00063332)
(0 0 0.000631849)
(0 0 0.000633414)
(0 0 0.000634155)
(0 0 0.00063266)
(0 0 0.000634198)
(0 0 0.000634967)
(0 0 0.000633451)
(0 0 0.000634959)
(0 0 0.000635737)
(0 0 0.000634214)
(0 0 0.000635669)
(0 0 0.000636484)
(0 0 0.000634907)
(0 0 0.000636337)
(0 0 0.000637208)
(0 0 0.000635492)
(0 0 0.000636878)
(0 0 0.000637723)
(0 0 0.000636336)
(0 0 0.000637449)
(0 0 0.000638335)
(0 0 0.000636556)
(0 0 0.000637504)
(0 0 0.000639495)
(0 0 0.000637529)
(0 0 0.000637537)
(0 0 0.000638337)
(0 0 0.000638855)
(0 0 0.000638971)
(0 0 0.000637919)
(0 0 0.000638281)
(0 0 0.000639368)
(0 0 0.000639976)
(0 0 0.000638103)
(0 0 0.000637743)
(0 0 0.000639486)
(0 0 0.000640424)
(0 0 0.000639262)
(0 0 0.000638028)
(0 0 0.000639016)
(0 0 0.000639846)
(0 0 0.000639714)
(0 0 0.000639379)
(0 0 0.000639479)
(0 0 0.00063954)
(0 0 0.000639567)
(0 0 0.000639643)
(0 0 0.000639575)
(0 0 0.000639713)
(0 0 0.000639507)
(0 0 0.000634933)
(0 0 0.000597003)
(0 0 0.000282434)
(0 0 8.10932e-07)
(0 0 6.5995e-09)
(0 0 1.45231e-08)
(0 0 0)
(0 0 0)
(0 0 4.04954e-39)
(0 0 -1.47117e-38)
(0 0 3.60453e-38)
(0 0 -4.95316e-38)
(0 0 -1.22369e-37)
(0 0 1.38859e-36)
(0 0 -7.34852e-36)
(0 0 2.95413e-35)
(0 0 -9.55865e-35)
(0 0 2.30222e-34)
(0 0 -2.04479e-34)
(0 0 -1.96654e-33)
(0 0 1.7133e-32)
(0 0 -9.46318e-32)
(0 0 4.35965e-31)
(0 0 -1.80803e-30)
(0 0 6.99739e-30)
(0 0 -2.58497e-29)
(0 0 9.26007e-29)
(0 0 -3.24604e-28)
(0 0 1.11302e-27)
(0 0 -3.6819e-27)
(0 0 1.13617e-26)
(0 0 -3.03206e-26)
(0 0 5.43473e-26)
(0 0 6.29076e-26)
(0 0 -1.32631e-24)
(0 0 8.93509e-24)
(0 0 -4.57346e-23)
(0 0 1.99635e-22)
(0 0 -7.65991e-22)
(0 0 2.57828e-21)
(0 0 -7.35361e-21)
(0 0 1.57443e-20)
(0 0 -1.04897e-20)
(0 0 -1.2652e-19)
(0 0 9.29346e-19)
(0 0 -4.30426e-18)
(0 0 1.56528e-17)
(0 0 -4.55997e-17)
(0 0 9.65287e-17)
(0 0 -6.83583e-17)
(0 0 -6.14088e-16)
(0 0 4.00583e-15)
(0 0 -1.50611e-14)
(0 0 3.89465e-14)
(0 0 -5.56153e-14)
(0 0 -6.78972e-14)
(0 0 7.30569e-13)
(0 0 -2.55905e-12)
(0 0 5.63984e-12)
(0 0 -9.68116e-12)
(0 0 2.69774e-11)
(0 0 -1.40326e-10)
(0 0 7.48064e-10)
(0 0 -3.97775e-09)
(0 0 1.8716e-08)
(0 0 -7.35089e-08)
(0 0 5.97932e-07)
(0 0 0.000235307)
(0 0 0.000512787)
(0 0 0.000570386)
(0 0 0.000591346)
(0 0 0.00060182)
(0 0 0.000607554)
(0 0 0.000610866)
(0 0 0.000612838)
(0 0 0.000614053)
(0 0 0.00061486)
(0 0 0.000613299)
(0 0 0.000613793)
(0 0 0.000621339)
(0 0 0.000622117)
(0 0 0.000613371)
(0 0 0.000612434)
(0 0 0.000615048)
(0 0 0.000612038)
(0 0 0.000614005)
(0 0 0.000618626)
(0 0 0.000615869)
(0 0 0.000614236)
(0 0 0.000615915)
(0 0 0.000614053)
(0 0 0.000614245)
(0 0 0.000616643)
(0 0 0.000615223)
(0 0 0.000615254)
(0 0 0.000617019)
(0 0 0.000615422)
(0 0 0.000615436)
(0 0 0.000617012)
(0 0 0.00061544)
(0 0 0.000615455)
(0 0 0.000616837)
(0 0 0.000615416)
(0 0 0.000615406)
(0 0 0.000616686)
(0 0 0.00061546)
(0 0 0.000615161)
(0 0 0.000616647)
(0 0 0.000615872)
(0 0 0.000614974)
(0 0 0.000616367)
(0 0 0.000616319)
(0 0 0.000614966)
(0 0 0.000615815)
(0 0 0.000616806)
(0 0 0.000615599)
(0 0 0.000615115)
(0 0 0.000616549)
(0 0 0.000616764)
(0 0 0.000615354)
(0 0 0.000615348)
(0 0 0.000616735)
(0 0 0.000616797)
(0 0 0.0006156)
(0 0 0.000615359)
(0 0 0.000616227)
(0 0 0.00061672)
(0 0 0.000616333)
(0 0 0.000615797)
(0 0 0.000615692)
(0 0 0.000615843)
(0 0 0.000616023)
(0 0 0.000616188)
(0 0 0.000616313)
(0 0 0.000616401)
(0 0 0.000616474)
(0 0 0.00061656)
(0 0 0.000616626)
(0 0 0.000616647)
(0 0 0.000616672)
(0 0 0.000616718)
(0 0 0.000616767)
(0 0 0.000616803)
(0 0 0.000616827)
(0 0 0.000616861)
(0 0 0.000616918)
(0 0 0.000617002)
(0 0 0.000617063)
(0 0 0.000617129)
(0 0 0.000617118)
(0 0 0.000617191)
(0 0 0.00061737)
(0 0 0.000617205)
(0 0 0.000617445)
(0 0 0.000617542)
(0 0 0.000617008)
(0 0 0.000617804)
(0 0 0.000618048)
(0 0 0.000617074)
(0 0 0.000618065)
(0 0 0.000618173)
(0 0 0.000616887)
(0 0 0.000618661)
(0 0 0.000618905)
(0 0 0.000616461)
(0 0 0.000618542)
(0 0 0.000619806)
(0 0 0.000616659)
(0 0 0.000618079)
(0 0 0.000620277)
(0 0 0.000617644)
(0 0 0.000617998)
(0 0 0.00061974)
(0 0 0.000618324)
(0 0 0.000618997)
(0 0 0.000619712)
(0 0 0.00061769)
(0 0 0.000618667)
(0 0 0.000620704)
(0 0 0.000618908)
(0 0 0.000618229)
(0 0 0.000619958)
(0 0 0.000619104)
(0 0 0.00061818)
(0 0 0.00062032)
(0 0 0.000620847)
(0 0 0.000618954)
(0 0 0.000619748)
(0 0 0.000621701)
(0 0 0.000620513)
(0 0 0.000619219)
(0 0 0.000620739)
(0 0 0.000621786)
(0 0 0.000620751)
(0 0 0.000620255)
(0 0 0.000621204)
(0 0 0.000621848)