/*--------------------------------*- C++ -*----------------------------------*\
| =========                 |                                                 |
| \\      /  F ield         | foam-extend: Open Source CFD                    |
|  \\    /   O peration     | Version:     3.2                                |
|   \\  /    A nd           | Web:         http://www.foam-extend.org         |
|    \\/     M anipulation  | For copyright notice see file Copyright         |
\*---------------------------------------------------------------------------*/
FoamFile
{
    version     2.0;
    format      ascii;
    class       pointVectorField;
    location    "50";
    object      newMeshPoints;
}
// * * * * * * * * * * * * * * * * * * * * * * * * * * * * * * * * * * * * * //

dimensions      [0 1 0 0 0 0 0];

internalField   nonuniform List<vector> 
11438
(
(0 0 0)
(0.05 0 -0.00025)
(0.1 0 -0.0005)
(0.15 0 -0.00075)
(0.2 0 -0.001)
(0.25 0 -0.00125)
(0.3 0 -0.0015)
(0.35 0 -0.00175)
(0.4 0 -0.002)
(0.45 0 -0.00225)
(0.5 0 -0.0025)
(0.55 0 -0.00275)
(0.6 0 -0.003)
(0.65 0 -0.00325)
(0.7 0 -0.0035)
(0.75 0 -0.00375)
(0.8 0 -0.004)
(0.85 0 -0.00425)
(0.9 0 -0.0045)
(0.95 0 -0.00475)
(1 0 -0.005)
(1.05 0 -0.00525)
(1.1 0 -0.0055)
(1.15 0 -0.00575)
(1.2 0 -0.006)
(1.25 0 -0.00625)
(1.3 0 -0.0065)
(1.35 0 -0.00675)
(1.4 0 -0.007)
(1.45 0 -0.00725)
(1.5 0 -0.0075)
(1.55 0 -0.00775)
(1.6 0 -0.008)
(1.65 0 -0.00825)
(1.7 0 -0.0085)
(1.75 0 -0.00875)
(1.8 0 -0.009)
(1.85 0 -0.00925)
(1.9 0 -0.0095)
(1.95 0 -0.00975)
(2 0 -0.01)
(2.05 0 -0.01025)
(2.1 0 -0.0105)
(2.15 0 -0.01075)
(2.2 0 -0.011)
(2.25 0 -0.01125)
(2.3 0 -0.0115)
(2.35 0 -0.01175)
(2.4 0 -0.012)
(2.45 0 -0.01225)
(2.5 0 -0.0125)
(2.55 0 -0.01275)
(2.6 0 -0.013)
(2.65 0 -0.01325)
(2.7 0 -0.0135)
(2.75 0 -0.01375)
(2.8 0 -0.014)
(2.85 0 -0.01425)
(2.9 0 -0.0145)
(2.95 0 -0.01475)
(3 0 -0.0158759)
(3.05 0 -0.0173291)
(3.1 0 -0.0181912)
(3.15 0 -0.0188427)
(3.2 0 -0.0193316)
(3.25 0 -0.0197401)
(3.3 0 -0.0200785)
(3.35 0 -0.0203895)
(3.4 0 -0.020671)
(3.45 0 -0.020942)
(3.5 0 -0.0212075)
(3.55 0 -0.0214557)
(3.6 0 -0.0217014)
(3.65 0 -0.0219725)
(3.7 0 -0.022225)
(3.75 0 -0.0224594)
(3.8 0 -0.0227044)
(3.85 0 -0.0229515)
(3.9 0 -0.0231863)
(3.95 0 -0.0234363)
(4 0 -0.0236904)
(4.05 0 -0.0239321)
(4.1 0 -0.0241794)
(4.15 0 -0.0244295)
(4.2 0 -0.0246712)
(4.25 0 -0.0249205)
(4.3 0 -0.0251724)
(4.35 0 -0.0254173)
(4.4 0 -0.0256686)
(4.45 0 -0.0259213)
(4.5 0 -0.0261669)
(4.55 0 -0.0264189)
(4.6 0 -0.0266716)
(4.65 0 -0.0269173)
(4.7 0 -0.0271695)
(4.75 0 -0.0274215)
(4.8 0 -0.0276679)
(4.85 0 -0.0279193)
(4.9 0 -0.0281711)
(4.95 0 -0.0284182)
(5 0 -0.028668)
(5.05 0 -0.0289206)
(5.1 0 -0.0291679)
(5.15 0 -0.0294167)
(5.2 0 -0.029669)
(5.25 0 -0.0299181)
(5.3 0 -0.0301653)
(5.35 0 -0.0304168)
(5.4 0 -0.0306679)
(5.45 0 -0.0309152)
(5.5 0 -0.0311639)
(5.55 0 -0.031416)
(5.6 0 -0.031666)
(5.65 0 -0.0319132)
(5.7 0 -0.0321624)
(5.75 0 -0.0324142)
(5.8 0 -0.0326642)
(5.85 0 -0.0329118)
(5.9 0 -0.0331603)
(5.95 0 -0.0334108)
(6 0 -0.0336612)
(6.05 0 -0.0339103)
(6.1 0 -0.0341588)
(6.15 0 -0.0344073)
(6.2 0 -0.0346561)
(6.25 0 -0.0349053)
(6.3 0 -0.0351546)
(6.35 0 -0.035404)
(6.4 0 -0.0356535)
(6.45 0 -0.0359031)
(6.5 0 -0.0361528)
(6.55 0 -0.0364024)
(6.6 0 -0.036652)
(6.65 0 -0.0369016)
(6.7 0 -0.0371511)
(6.75 0 -0.0374006)
(6.8 0 -0.0376502)
(6.85 0 -0.0378997)
(6.9 0 -0.0381491)
(6.95 0 -0.0383986)
(7 0 -0.0386482)
(7.05 0 -0.0388977)
(7.1 0 -0.0391473)
(7.15 0 -0.0393966)
(7.2 0 -0.039646)
(7.25 0 -0.039896)
(7.3 0 -0.0401445)
(7.35 0 -0.0403949)
(7.4 0 -0.0406443)
(7.45 0 -0.0408919)
(7.5 0 -0.0411438)
(7.55 0 -0.0413927)
(7.6 0 -0.0416402)
(7.65 0 -0.0418925)
(7.7 0 -0.0421409)
(7.75 0 -0.0423874)
(7.8 0 -0.0426417)
(7.85 0 -0.0428901)
(7.9 0 -0.0431345)
(7.95 0 -0.0433894)
(8 0 -0.0436397)
(8.05 0 -0.0438824)
(8.1 0 -0.0441363)
(8.15 0 -0.0443882)
(8.2 0 -0.0446319)
(8.25 0 -0.0448839)
(8.3 0 -0.0451346)
(8.35 0 -0.0453807)
(8.4 0 -0.0456331)
(8.45 0 -0.0458826)
(8.5 0 -0.0461273)
(8.55 0 -0.0463786)
(8.6 0 -0.0466311)
(8.65 0 -0.0468762)
(8.7 0 -0.047125)
(8.75 0 -0.0473765)
(8.8 0 -0.0476224)
(8.85 0 -0.0478695)
(8.9 0 -0.0481224)
(8.95 0 -0.0483719)
(9 0 -0.0486178)
(9.05 0 -0.0488687)
(9.1 0 -0.0491212)
(9.15 0 -0.0493682)
(9.2 0 -0.0496155)
(9.25 0 -0.0498671)
(9.3 0 -0.0501179)
(9.35 0 -0.0503656)
(9.4 0 -0.0506139)
(9.45 0 -0.0508642)
(9.5 0 -0.0511147)
(9.55 0 -0.0513633)
(9.6 0 -0.0516134)
(9.65 0 -0.0518624)
(9.7 0 -0.0521117)
(9.75 0 -0.0523638)
(9.8 0 -0.0526123)
(9.85 0 -0.0528618)
(9.9 0 -0.0531136)
(9.95 0 -0.053361)
(10 0 -0.0536097)
(10.05 0 -0.0538625)
(10.1 0 -0.0541081)
(10.15 0 -0.0543559)
(10.2 0 -0.0546104)
(10.25 0 -0.0548566)
(10.3 0 -0.0551027)
(10.35 0 -0.0553577)
(10.4 0 -0.0556056)
(10.45 0 -0.0558509)
(10.5 0 -0.056104)
(10.55 0 -0.0563532)
(10.6 0 -0.0566005)
(10.65 0 -0.0568528)
(10.7 0 -0.0570999)
(10.75 0 -0.0573474)
(10.8 0 -0.0576018)
(10.85 0 -0.05785)
(10.9 0 -0.0580962)
(10.95 0 -0.0583495)
(11 0 -0.0585982)
(11.05 0 -0.058846)
(11.1 0 -0.0591002)
(11.15 0 -0.0593488)
(11.2 0 -0.0595955)
(11.25 0 -0.0598488)
(11.3 0 -0.0600968)
(11.35 0 -0.0603433)
(11.4 0 -0.0605966)
(11.45 0 -0.0608447)
(11.5 0 -0.0610913)
(11.55 0 -0.0613446)
(11.6 0 -0.0615929)
(11.65 0 -0.0618394)
(11.7 0 -0.0620927)
(11.75 0 -0.0623411)
(11.8 0 -0.0625877)
(11.85 0 -0.062841)
(11.9 0 -0.0630895)
(11.95 0 -0.063336)
(12 0 -0.0635894)
(12.05 0 -0.0638381)
(12.1 0 -0.0640846)
(12.15 0 -0.0643379)
(12.2 0 -0.0645867)
(12.25 0 -0.0648332)
(12.3 0 -0.0650866)
(12.35 0 -0.0653354)
(12.4 0 -0.0655819)
(12.45 0 -0.0658353)
(12.5 0 -0.0660843)
(12.55 0 -0.0663308)
(12.6 0 -0.0665843)
(12.65 0 -0.0668333)
(12.7 0 -0.0670798)
(12.75 0 -0.0673332)
(12.8 0 -0.0675825)
(12.85 0 -0.067829)
(12.9 0 -0.0680822)
(12.95 0 -0.0683321)
(13 0 -0.0685777)
(13.05 0 -0.068832)
(13.1 0 -0.0690805)
(13.15 0 -0.069328)
(13.2 0 -0.0695805)
(13.25 0 -0.0698308)
(13.3 0 -0.0700774)
(13.35 0 -0.0703277)
(13.4 0 -0.0705832)
(13.45 0 -0.0708249)
(13.5 0 -0.0710816)
(13.55 0 -0.0713243)
(13.6 0 -0.0715821)
(13.65 0 -0.0718268)
(13.7 0 -0.0720775)
(13.75 0 -0.0723277)
(13.8 0 -0.0725762)
(13.85 0 -0.0728325)
(13.9 0 -0.0730725)
(13.95 0 -0.0733294)
(14 0 -0.0735727)
(14.05 0 -0.0738337)
(14.1 0 -0.0740724)
(14.15 0 -0.0743298)
(14.2 0 -0.0745716)
(14.25 0 -0.0748314)
(14.3 0 -0.0750726)
(14.35 0 -0.0753328)
(14.4 0 -0.0755759)
(14.45 0 -0.0758335)
(14.5 0 -0.0760779)
(14.55 0 -0.0763329)
(14.6 0 -0.0765792)
(14.65 0 -0.0768314)
(14.7 0 -0.0770728)
(14.75 0 -0.0768006)
(14.8 0 -0.0753154)
(14.85 0 -0.07425)
(14.9 0 -0.0745)
(14.95 0 -0.07475)
(15 0 -0.075)
(0 0.02 0)
(0.05 0.02 -0.00025)
(0.1 0.02 -0.0005)
(0.15 0.02 -0.00075)
(0.2 0.02 -0.001)
(0.25 0.02 -0.00125)
(0.3 0.02 -0.0015)
(0.35 0.02 -0.00175)
(0.4 0.02 -0.002)
(0.45 0.02 -0.00225)
(0.5 0.02 -0.0025)
(0.55 0.02 -0.00275)
(0.6 0.02 -0.003)
(0.65 0.02 -0.00325)
(0.7 0.02 -0.0035)
(0.75 0.02 -0.00375)
(0.8 0.02 -0.004)
(0.85 0.02 -0.00425)
(0.9 0.02 -0.0045)
(0.95 0.02 -0.00475)
(1 0.02 -0.005)
(1.05 0.02 -0.00525)
(1.1 0.02 -0.0055)
(1.15 0.02 -0.00575)
(1.2 0.02 -0.006)
(1.25 0.02 -0.00625)
(1.3 0.02 -0.0065)
(1.35 0.02 -0.00675)
(1.4 0.02 -0.007)
(1.45 0.02 -0.00725)
(1.5 0.02 -0.0075)
(1.55 0.02 -0.00775)
(1.6 0.02 -0.008)
(1.65 0.02 -0.00825)
(1.7 0.02 -0.0085)
(1.75 0.02 -0.00875)
(1.8 0.02 -0.009)
(1.85 0.02 -0.00925)
(1.9 0.02 -0.0095)
(1.95 0.02 -0.00975)
(2 0.02 -0.01)
(2.05 0.02 -0.01025)
(2.1 0.02 -0.0105)
(2.15 0.02 -0.01075)
(2.2 0.02 -0.011)
(2.25 0.02 -0.01125)
(2.3 0.02 -0.0115)
(2.35 0.02 -0.01175)
(2.4 0.02 -0.012)
(2.45 0.02 -0.01225)
(2.5 0.02 -0.0125)
(2.55 0.02 -0.01275)
(2.6 0.02 -0.013)
(2.65 0.02 -0.01325)
(2.7 0.02 -0.0135)
(2.75 0.02 -0.01375)
(2.8 0.02 -0.014)
(2.85 0.02 -0.01425)
(2.9 0.02 -0.0145)
(2.95 0.02 -0.01475)
(3 0.02 -0.0158759)
(3.05 0.02 -0.0173291)
(3.1 0.02 -0.0181912)
(3.15 0.02 -0.0188427)
(3.2 0.02 -0.0193316)
(3.25 0.02 -0.0197401)
(3.3 0.02 -0.0200785)
(3.35 0.02 -0.0203895)
(3.4 0.02 -0.020671)
(3.45 0.02 -0.020942)
(3.5 0.02 -0.0212075)
(3.55 0.02 -0.0214557)
(3.6 0.02 -0.0217014)
(3.65 0.02 -0.0219725)
(3.7 0.02 -0.022225)
(3.75 0.02 -0.0224594)
(3.8 0.02 -0.0227044)
(3.85 0.02 -0.0229515)
(3.9 0.02 -0.0231863)
(3.95 0.02 -0.0234363)
(4 0.02 -0.0236904)
(4.05 0.02 -0.0239321)
(4.1 0.02 -0.0241794)
(4.15 0.02 -0.0244295)
(4.2 0.02 -0.0246712)
(4.25 0.02 -0.0249205)
(4.3 0.02 -0.0251724)
(4.35 0.02 -0.0254173)
(4.4 0.02 -0.0256686)
(4.45 0.02 -0.0259213)
(4.5 0.02 -0.0261669)
(4.55 0.02 -0.0264189)
(4.6 0.02 -0.0266716)
(4.65 0.02 -0.0269173)
(4.7 0.02 -0.0271695)
(4.75 0.02 -0.0274215)
(4.8 0.02 -0.0276679)
(4.85 0.02 -0.0279193)
(4.9 0.02 -0.0281711)
(4.95 0.02 -0.0284182)
(5 0.02 -0.028668)
(5.05 0.02 -0.0289206)
(5.1 0.02 -0.0291679)
(5.15 0.02 -0.0294167)
(5.2 0.02 -0.029669)
(5.25 0.02 -0.0299181)
(5.3 0.02 -0.0301653)
(5.35 0.02 -0.0304168)
(5.4 0.02 -0.0306679)
(5.45 0.02 -0.0309152)
(5.5 0.02 -0.0311639)
(5.55 0.02 -0.031416)
(5.6 0.02 -0.031666)
(5.65 0.02 -0.0319132)
(5.7 0.02 -0.0321624)
(5.75 0.02 -0.0324142)
(5.8 0.02 -0.0326642)
(5.85 0.02 -0.0329118)
(5.9 0.02 -0.0331603)
(5.95 0.02 -0.0334108)
(6 0.02 -0.0336612)
(6.05 0.02 -0.0339103)
(6.1 0.02 -0.0341588)
(6.15 0.02 -0.0344073)
(6.2 0.02 -0.0346561)
(6.25 0.02 -0.0349053)
(6.3 0.02 -0.0351546)
(6.35 0.02 -0.035404)
(6.4 0.02 -0.0356535)
(6.45 0.02 -0.0359031)
(6.5 0.02 -0.0361528)
(6.55 0.02 -0.0364024)
(6.6 0.02 -0.036652)
(6.65 0.02 -0.0369016)
(6.7 0.02 -0.0371511)
(6.75 0.02 -0.0374006)
(6.8 0.02 -0.0376502)
(6.85 0.02 -0.0378997)
(6.9 0.02 -0.0381491)
(6.95 0.02 -0.0383986)
(7 0.02 -0.0386482)
(7.05 0.02 -0.0388977)
(7.1 0.02 -0.0391473)
(7.15 0.02 -0.0393966)
(7.2 0.02 -0.039646)
(7.25 0.02 -0.039896)
(7.3 0.02 -0.0401445)
(7.35 0.02 -0.0403949)
(7.4 0.02 -0.0406443)
(7.45 0.02 -0.0408919)
(7.5 0.02 -0.0411438)
(7.55 0.02 -0.0413927)
(7.6 0.02 -0.0416402)
(7.65 0.02 -0.0418925)
(7.7 0.02 -0.0421409)
(7.75 0.02 -0.0423874)
(7.8 0.02 -0.0426417)
(7.85 0.02 -0.0428901)
(7.9 0.02 -0.0431345)
(7.95 0.02 -0.0433894)
(8 0.02 -0.0436397)
(8.05 0.02 -0.0438824)
(8.1 0.02 -0.0441363)
(8.15 0.02 -0.0443882)
(8.2 0.02 -0.0446319)
(8.25 0.02 -0.0448839)
(8.3 0.02 -0.0451346)
(8.35 0.02 -0.0453807)
(8.4 0.02 -0.0456331)
(8.45 0.02 -0.0458826)
(8.5 0.02 -0.0461273)
(8.55 0.02 -0.0463786)
(8.6 0.02 -0.0466311)
(8.65 0.02 -0.0468762)
(8.7 0.02 -0.047125)
(8.75 0.02 -0.0473765)
(8.8 0.02 -0.0476224)
(8.85 0.02 -0.0478695)
(8.9 0.02 -0.0481224)
(8.95 0.02 -0.0483719)
(9 0.02 -0.0486178)
(9.05 0.02 -0.0488687)
(9.1 0.02 -0.0491212)
(9.15 0.02 -0.0493682)
(9.2 0.02 -0.0496155)
(9.25 0.02 -0.0498671)
(9.3 0.02 -0.0501179)
(9.35 0.02 -0.0503656)
(9.4 0.02 -0.0506139)
(9.45 0.02 -0.0508642)
(9.5 0.02 -0.0511147)
(9.55 0.02 -0.0513633)
(9.6 0.02 -0.0516134)
(9.65 0.02 -0.0518624)
(9.7 0.02 -0.0521117)
(9.75 0.02 -0.0523638)
(9.8 0.02 -0.0526123)
(9.85 0.02 -0.0528618)
(9.9 0.02 -0.0531136)
(9.95 0.02 -0.053361)
(10 0.02 -0.0536097)
(10.05 0.02 -0.0538625)
(10.1 0.02 -0.0541081)
(10.15 0.02 -0.0543559)
(10.2 0.02 -0.0546104)
(10.25 0.02 -0.0548566)
(10.3 0.02 -0.0551027)
(10.35 0.02 -0.0553577)
(10.4 0.02 -0.0556056)
(10.45 0.02 -0.0558509)
(10.5 0.02 -0.056104)
(10.55 0.02 -0.0563532)
(10.6 0.02 -0.0566005)
(10.65 0.02 -0.0568528)
(10.7 0.02 -0.0570999)
(10.75 0.02 -0.0573474)
(10.8 0.02 -0.0576018)
(10.85 0.02 -0.05785)
(10.9 0.02 -0.0580962)
(10.95 0.02 -0.0583495)
(11 0.02 -0.0585982)
(11.05 0.02 -0.058846)
(11.1 0.02 -0.0591002)
(11.15 0.02 -0.0593488)
(11.2 0.02 -0.0595955)
(11.25 0.02 -0.0598488)
(11.3 0.02 -0.0600968)
(11.35 0.02 -0.0603433)
(11.4 0.02 -0.0605966)
(11.45 0.02 -0.0608447)
(11.5 0.02 -0.0610913)
(11.55 0.02 -0.0613446)
(11.6 0.02 -0.0615929)
(11.65 0.02 -0.0618394)
(11.7 0.02 -0.0620927)
(11.75 0.02 -0.0623411)
(11.8 0.02 -0.0625877)
(11.85 0.02 -0.062841)
(11.9 0.02 -0.0630895)
(11.95 0.02 -0.063336)
(12 0.02 -0.0635894)
(12.05 0.02 -0.0638381)
(12.1 0.02 -0.0640846)
(12.15 0.02 -0.0643379)
(12.2 0.02 -0.0645867)
(12.25 0.02 -0.0648332)
(12.3 0.02 -0.0650866)
(12.35 0.02 -0.0653354)
(12.4 0.02 -0.0655819)
(12.45 0.02 -0.0658353)
(12.5 0.02 -0.0660843)
(12.55 0.02 -0.0663308)
(12.6 0.02 -0.0665843)
(12.65 0.02 -0.0668333)
(12.7 0.02 -0.0670798)
(12.75 0.02 -0.0673332)
(12.8 0.02 -0.0675825)
(12.85 0.02 -0.067829)
(12.9 0.02 -0.0680822)
(12.95 0.02 -0.0683321)
(13 0.02 -0.0685777)
(13.05 0.02 -0.068832)
(13.1 0.02 -0.0690805)
(13.15 0.02 -0.069328)
(13.2 0.02 -0.0695805)
(13.25 0.02 -0.0698308)
(13.3 0.02 -0.0700774)
(13.35 0.02 -0.0703277)
(13.4 0.02 -0.0705832)
(13.45 0.02 -0.0708249)
(13.5 0.02 -0.0710816)
(13.55 0.02 -0.0713243)
(13.6 0.02 -0.0715821)
(13.65 0.02 -0.0718268)
(13.7 0.02 -0.0720775)
(13.75 0.02 -0.0723277)
(13.8 0.02 -0.0725762)
(13.85 0.02 -0.0728325)
(13.9 0.02 -0.0730725)
(13.95 0.02 -0.0733294)
(14 0.02 -0.0735727)
(14.05 0.02 -0.0738337)
(14.1 0.02 -0.0740724)
(14.15 0.02 -0.0743298)
(14.2 0.02 -0.0745716)
(14.25 0.02 -0.0748314)
(14.3 0.02 -0.0750726)
(14.35 0.02 -0.0753328)
(14.4 0.02 -0.0755759)
(14.45 0.02 -0.0758335)
(14.5 0.02 -0.0760779)
(14.55 0.02 -0.0763329)
(14.6 0.02 -0.0765792)
(14.65 0.02 -0.0768314)
(14.7 0.02 -0.0770728)
(14.75 0.02 -0.0768006)
(14.8 0.02 -0.0753154)
(14.85 0.02 -0.07425)
(14.9 0.02 -0.0745)
(14.95 0.02 -0.07475)
(15 0.02 -0.075)
(0 0 0.00166667)
(0.05 0 0.00141667)
(0.1 0 0.00116667)
(0.15 0 0.000916667)
(0.2 0 0.000666667)
(0.25 0 0.000416667)
(0.3 0 0.000166667)
(0.35 0 -8.33333e-05)
(0.4 0 -0.000333333)
(0.45 0 -0.000583333)
(0.5 0 -0.000833333)
(0.55 0 -0.00108333)
(0.6 0 -0.00133333)
(0.65 0 -0.00158333)
(0.7 0 -0.00183333)
(0.75 0 -0.00208333)
(0.8 0 -0.00233333)
(0.85 0 -0.00258333)
(0.9 0 -0.00283333)
(0.95 0 -0.00308333)
(1 0 -0.00333333)
(1.05 0 -0.00358333)
(1.1 0 -0.00383333)
(1.15 0 -0.00408333)
(1.2 0 -0.00433333)
(1.25 0 -0.00458333)
(1.3 0 -0.00483333)
(1.35 0 -0.00508333)
(1.4 0 -0.00533333)
(1.45 0 -0.00558333)
(1.5 0 -0.00583333)
(1.55 0 -0.00608333)
(1.6 0 -0.00633333)
(1.65 0 -0.00658333)
(1.7 0 -0.00683333)
(1.75 0 -0.00708333)
(1.8 0 -0.00733333)
(1.85 0 -0.00758333)
(1.9 0 -0.00783333)
(1.95 0 -0.00808333)
(2 0 -0.00833333)
(2.05 0 -0.00858333)
(2.1 0 -0.00883333)
(2.15 0 -0.00908333)
(2.2 0 -0.00933333)
(2.25 0 -0.00958333)
(2.3 0 -0.00983333)
(2.35 0 -0.0100833)
(2.4 0 -0.0103333)
(2.45 0 -0.0105833)
(2.5 0 -0.0108333)
(2.55 0 -0.0110833)
(2.6 0 -0.0113333)
(2.65 0 -0.0115833)
(2.7 0 -0.0118333)
(2.75 0 -0.0120833)
(2.8 0 -0.0123333)
(2.85 0 -0.0125833)
(2.9 0 -0.0128332)
(2.95 0 -0.0130842)
(3 0 -0.0142089)
(3.05 0 -0.0156609)
(3.1 0 -0.0165238)
(3.15 0 -0.0171754)
(3.2 0 -0.0176644)
(3.25 0 -0.0180729)
(3.3 0 -0.0184114)
(3.35 0 -0.0187223)
(3.4 0 -0.0190039)
(3.45 0 -0.0192749)
(3.5 0 -0.0195404)
(3.55 0 -0.0197886)
(3.6 0 -0.0200343)
(3.65 0 -0.0203054)
(3.7 0 -0.0205579)
(3.75 0 -0.0207923)
(3.8 0 -0.0210373)
(3.85 0 -0.0212844)
(3.9 0 -0.0215192)
(3.95 0 -0.0217692)
(4 0 -0.0220232)
(4.05 0 -0.022265)
(4.1 0 -0.0225123)
(4.15 0 -0.0227624)
(4.2 0 -0.0230041)
(4.25 0 -0.0232534)
(4.3 0 -0.0235053)
(4.35 0 -0.0237503)
(4.4 0 -0.0240015)
(4.45 0 -0.0242542)
(4.5 0 -0.0244998)
(4.55 0 -0.0247518)
(4.6 0 -0.0250045)
(4.65 0 -0.0252503)
(4.7 0 -0.0255024)
(4.75 0 -0.0257544)
(4.8 0 -0.0260008)
(4.85 0 -0.0262522)
(4.9 0 -0.026504)
(4.95 0 -0.0267511)
(5 0 -0.0270009)
(5.05 0 -0.0272535)
(5.1 0 -0.0275008)
(5.15 0 -0.0277496)
(5.2 0 -0.0280019)
(5.25 0 -0.028251)
(5.3 0 -0.0284982)
(5.35 0 -0.0287497)
(5.4 0 -0.0290008)
(5.45 0 -0.0292481)
(5.5 0 -0.0294968)
(5.55 0 -0.0297489)
(5.6 0 -0.0299989)
(5.65 0 -0.0302462)
(5.7 0 -0.0304953)
(5.75 0 -0.0307471)
(5.8 0 -0.0309971)
(5.85 0 -0.0312447)
(5.9 0 -0.0314932)
(5.95 0 -0.0317437)
(6 0 -0.0319941)
(6.05 0 -0.0322432)
(6.1 0 -0.0324917)
(6.15 0 -0.0327402)
(6.2 0 -0.032989)
(6.25 0 -0.0332382)
(6.3 0 -0.0334875)
(6.35 0 -0.0337369)
(6.4 0 -0.0339865)
(6.45 0 -0.034236)
(6.5 0 -0.0344857)
(6.55 0 -0.0347353)
(6.6 0 -0.0349849)
(6.65 0 -0.0352345)
(6.7 0 -0.035484)
(6.75 0 -0.0357336)
(6.8 0 -0.0359831)
(6.85 0 -0.0362326)
(6.9 0 -0.036482)
(6.95 0 -0.0367315)
(7 0 -0.0369811)
(7.05 0 -0.0372306)
(7.1 0 -0.0374802)
(7.15 0 -0.0377295)
(7.2 0 -0.0379789)
(7.25 0 -0.0382289)
(7.3 0 -0.0384774)
(7.35 0 -0.0387278)
(7.4 0 -0.0389772)
(7.45 0 -0.0392248)
(7.5 0 -0.0394767)
(7.55 0 -0.0397256)
(7.6 0 -0.0399731)
(7.65 0 -0.0402254)
(7.7 0 -0.0404738)
(7.75 0 -0.0407203)
(7.8 0 -0.0409746)
(7.85 0 -0.041223)
(7.9 0 -0.0414674)
(7.95 0 -0.0417223)
(8 0 -0.0419726)
(8.05 0 -0.0422153)
(8.1 0 -0.0424692)
(8.15 0 -0.0427211)
(8.2 0 -0.0429648)
(8.25 0 -0.0432168)
(8.3 0 -0.0434675)
(8.35 0 -0.0437136)
(8.4 0 -0.043966)
(8.45 0 -0.0442155)
(8.5 0 -0.0444602)
(8.55 0 -0.0447115)
(8.6 0 -0.044964)
(8.65 0 -0.0452091)
(8.7 0 -0.0454579)
(8.75 0 -0.0457093)
(8.8 0 -0.0459553)
(8.85 0 -0.0462024)
(8.9 0 -0.0464553)
(8.95 0 -0.0467048)
(9 0 -0.0469507)
(9.05 0 -0.0472016)
(9.1 0 -0.0474541)
(9.15 0 -0.0477011)
(9.2 0 -0.0479484)
(9.25 0 -0.0482)
(9.3 0 -0.0484508)
(9.35 0 -0.0486985)
(9.4 0 -0.0489468)
(9.45 0 -0.0491971)
(9.5 0 -0.0494476)
(9.55 0 -0.0496962)
(9.6 0 -0.0499463)
(9.65 0 -0.0501953)
(9.7 0 -0.0504446)
(9.75 0 -0.0506967)
(9.8 0 -0.0509452)
(9.85 0 -0.0511947)
(9.9 0 -0.0514466)
(9.95 0 -0.0516939)
(10 0 -0.0519426)
(10.05 0 -0.0521954)
(10.1 0 -0.052441)
(10.15 0 -0.0526888)
(10.2 0 -0.0529433)
(10.25 0 -0.0531895)
(10.3 0 -0.0534356)
(10.35 0 -0.0536906)
(10.4 0 -0.0539385)
(10.45 0 -0.0541838)
(10.5 0 -0.0544369)
(10.55 0 -0.0546861)
(10.6 0 -0.0549334)
(10.65 0 -0.0551857)
(10.7 0 -0.0554328)
(10.75 0 -0.0556803)
(10.8 0 -0.0559347)
(10.85 0 -0.0561829)
(10.9 0 -0.0564292)
(10.95 0 -0.0566824)
(11 0 -0.0569311)
(11.05 0 -0.0571789)
(11.1 0 -0.0574331)
(11.15 0 -0.0576817)
(11.2 0 -0.0579284)
(11.25 0 -0.0581817)
(11.3 0 -0.0584297)
(11.35 0 -0.0586762)
(11.4 0 -0.0589295)
(11.45 0 -0.0591776)
(11.5 0 -0.0594242)
(11.55 0 -0.0596775)
(11.6 0 -0.0599258)
(11.65 0 -0.0601723)
(11.7 0 -0.0604256)
(11.75 0 -0.060674)
(11.8 0 -0.0609206)
(11.85 0 -0.0611739)
(11.9 0 -0.0614225)
(11.95 0 -0.061669)
(12 0 -0.0619223)
(12.05 0 -0.062171)
(12.1 0 -0.0624175)
(12.15 0 -0.0626708)
(12.2 0 -0.0629196)
(12.25 0 -0.0631661)
(12.3 0 -0.0634195)
(12.35 0 -0.0636684)
(12.4 0 -0.0639148)
(12.45 0 -0.0641682)
(12.5 0 -0.0644172)
(12.55 0 -0.0646637)
(12.6 0 -0.0649172)
(12.65 0 -0.0651662)
(12.7 0 -0.0654128)
(12.75 0 -0.0656661)
(12.8 0 -0.0659154)
(12.85 0 -0.0661619)
(12.9 0 -0.0664151)
(12.95 0 -0.066665)
(13 0 -0.0669107)
(13.05 0 -0.0671649)
(13.1 0 -0.0674134)
(13.15 0 -0.0676609)
(13.2 0 -0.0679134)
(13.25 0 -0.0681637)
(13.3 0 -0.0684103)
(13.35 0 -0.0686606)
(13.4 0 -0.0689161)
(13.45 0 -0.0691579)
(13.5 0 -0.0694145)
(13.55 0 -0.0696572)
(13.6 0 -0.069915)
(13.65 0 -0.0701598)
(13.7 0 -0.0704105)
(13.75 0 -0.0706606)
(13.8 0 -0.0709091)
(13.85 0 -0.0711654)
(13.9 0 -0.0714054)
(13.95 0 -0.0716623)
(14 0 -0.0719056)
(14.05 0 -0.0721666)
(14.1 0 -0.0724054)
(14.15 0 -0.0726627)
(14.2 0 -0.0729045)
(14.25 0 -0.0731643)
(14.3 0 -0.0734055)
(14.35 0 -0.0736657)
(14.4 0 -0.0739088)
(14.45 0 -0.0741664)
(14.5 0 -0.0744108)
(14.55 0 -0.0746658)
(14.6 0 -0.0749121)
(14.65 0 -0.0751644)
(14.7 0 -0.0754051)
(14.75 0 -0.0751316)
(14.8 0 -0.0736485)
(14.85 0 -0.0725848)
(14.9 0 -0.0728332)
(14.95 0 -0.0730833)
(15 0 -0.0733333)
(0 0.02 0.00166667)
(0.05 0.02 0.00141667)
(0.1 0.02 0.00116667)
(0.15 0.02 0.000916667)
(0.2 0.02 0.000666667)
(0.25 0.02 0.000416667)
(0.3 0.02 0.000166667)
(0.35 0.02 -8.33333e-05)
(0.4 0.02 -0.000333333)
(0.45 0.02 -0.000583333)
(0.5 0.02 -0.000833333)
(0.55 0.02 -0.00108333)
(0.6 0.02 -0.00133333)
(0.65 0.02 -0.00158333)
(0.7 0.02 -0.00183333)
(0.75 0.02 -0.00208333)
(0.8 0.02 -0.00233333)
(0.85 0.02 -0.00258333)
(0.9 0.02 -0.00283333)
(0.95 0.02 -0.00308333)
(1 0.02 -0.00333333)
(1.05 0.02 -0.00358333)
(1.1 0.02 -0.00383333)
(1.15 0.02 -0.00408333)
(1.2 0.02 -0.00433333)
(1.25 0.02 -0.00458333)
(1.3 0.02 -0.00483333)
(1.35 0.02 -0.00508333)
(1.4 0.02 -0.00533333)
(1.45 0.02 -0.00558333)
(1.5 0.02 -0.00583333)
(1.55 0.02 -0.00608333)
(1.6 0.02 -0.00633333)
(1.65 0.02 -0.00658333)
(1.7 0.02 -0.00683333)
(1.75 0.02 -0.00708333)
(1.8 0.02 -0.00733333)
(1.85 0.02 -0.00758333)
(1.9 0.02 -0.00783333)
(1.95 0.02 -0.00808333)
(2 0.02 -0.00833333)
(2.05 0.02 -0.00858333)
(2.1 0.02 -0.00883333)
(2.15 0.02 -0.00908333)
(2.2 0.02 -0.00933333)
(2.25 0.02 -0.00958333)
(2.3 0.02 -0.00983333)
(2.35 0.02 -0.0100833)
(2.4 0.02 -0.0103333)
(2.45 0.02 -0.0105833)
(2.5 0.02 -0.0108333)
(2.55 0.02 -0.0110833)
(2.6 0.02 -0.0113333)
(2.65 0.02 -0.0115833)
(2.7 0.02 -0.0118333)
(2.75 0.02 -0.0120833)
(2.8 0.02 -0.0123333)
(2.85 0.02 -0.0125833)
(2.9 0.02 -0.0128332)
(2.95 0.02 -0.0130842)
(3 0.02 -0.0142089)
(3.05 0.02 -0.0156609)
(3.1 0.02 -0.0165238)
(3.15 0.02 -0.0171754)
(3.2 0.02 -0.0176644)
(3.25 0.02 -0.0180729)
(3.3 0.02 -0.0184114)
(3.35 0.02 -0.0187223)
(3.4 0.02 -0.0190039)
(3.45 0.02 -0.0192749)
(3.5 0.02 -0.0195404)
(3.55 0.02 -0.0197886)
(3.6 0.02 -0.0200343)
(3.65 0.02 -0.0203054)
(3.7 0.02 -0.0205579)
(3.75 0.02 -0.0207923)
(3.8 0.02 -0.0210373)
(3.85 0.02 -0.0212844)
(3.9 0.02 -0.0215192)
(3.95 0.02 -0.0217692)
(4 0.02 -0.0220232)
(4.05 0.02 -0.022265)
(4.1 0.02 -0.0225123)
(4.15 0.02 -0.0227624)
(4.2 0.02 -0.0230041)
(4.25 0.02 -0.0232534)
(4.3 0.02 -0.0235053)
(4.35 0.02 -0.0237503)
(4.4 0.02 -0.0240015)
(4.45 0.02 -0.0242542)
(4.5 0.02 -0.0244998)
(4.55 0.02 -0.0247518)
(4.6 0.02 -0.0250045)
(4.65 0.02 -0.0252503)
(4.7 0.02 -0.0255024)
(4.75 0.02 -0.0257544)
(4.8 0.02 -0.0260008)
(4.85 0.02 -0.0262522)
(4.9 0.02 -0.026504)
(4.95 0.02 -0.0267511)
(5 0.02 -0.0270009)
(5.05 0.02 -0.0272535)
(5.1 0.02 -0.0275008)
(5.15 0.02 -0.0277496)
(5.2 0.02 -0.0280019)
(5.25 0.02 -0.028251)
(5.3 0.02 -0.0284982)
(5.35 0.02 -0.0287497)
(5.4 0.02 -0.0290008)
(5.45 0.02 -0.0292481)
(5.5 0.02 -0.0294968)
(5.55 0.02 -0.0297489)
(5.6 0.02 -0.0299989)
(5.65 0.02 -0.0302462)
(5.7 0.02 -0.0304953)
(5.75 0.02 -0.0307471)
(5.8 0.02 -0.0309971)
(5.85 0.02 -0.0312447)
(5.9 0.02 -0.0314932)
(5.95 0.02 -0.0317437)
(6 0.02 -0.0319941)
(6.05 0.02 -0.0322432)
(6.1 0.02 -0.0324917)
(6.15 0.02 -0.0327402)
(6.2 0.02 -0.032989)
(6.25 0.02 -0.0332382)
(6.3 0.02 -0.0334875)
(6.35 0.02 -0.0337369)
(6.4 0.02 -0.0339865)
(6.45 0.02 -0.034236)
(6.5 0.02 -0.0344857)
(6.55 0.02 -0.0347353)
(6.6 0.02 -0.0349849)
(6.65 0.02 -0.0352345)
(6.7 0.02 -0.035484)
(6.75 0.02 -0.0357336)
(6.8 0.02 -0.0359831)
(6.85 0.02 -0.0362326)
(6.9 0.02 -0.036482)
(6.95 0.02 -0.0367315)
(7 0.02 -0.0369811)
(7.05 0.02 -0.0372306)
(7.1 0.02 -0.0374802)
(7.15 0.02 -0.0377295)
(7.2 0.02 -0.0379789)
(7.25 0.02 -0.0382289)
(7.3 0.02 -0.0384774)
(7.35 0.02 -0.0387278)
(7.4 0.02 -0.0389772)
(7.45 0.02 -0.0392248)
(7.5 0.02 -0.0394767)
(7.55 0.02 -0.0397256)
(7.6 0.02 -0.0399731)
(7.65 0.02 -0.0402254)
(7.7 0.02 -0.0404738)
(7.75 0.02 -0.0407203)
(7.8 0.02 -0.0409746)
(7.85 0.02 -0.041223)
(7.9 0.02 -0.0414674)
(7.95 0.02 -0.0417223)
(8 0.02 -0.0419726)
(8.05 0.02 -0.0422153)
(8.1 0.02 -0.0424692)
(8.15 0.02 -0.0427211)
(8.2 0.02 -0.0429648)
(8.25 0.02 -0.0432168)
(8.3 0.02 -0.0434675)
(8.35 0.02 -0.0437136)
(8.4 0.02 -0.043966)
(8.45 0.02 -0.0442155)
(8.5 0.02 -0.0444602)
(8.55 0.02 -0.0447115)
(8.6 0.02 -0.044964)
(8.65 0.02 -0.0452091)
(8.7 0.02 -0.0454579)
(8.75 0.02 -0.0457093)
(8.8 0.02 -0.0459553)
(8.85 0.02 -0.0462024)
(8.9 0.02 -0.0464553)
(8.95 0.02 -0.0467048)
(9 0.02 -0.0469507)
(9.05 0.02 -0.0472016)
(9.1 0.02 -0.0474541)
(9.15 0.02 -0.0477011)
(9.2 0.02 -0.0479484)
(9.25 0.02 -0.0482)
(9.3 0.02 -0.0484508)
(9.35 0.02 -0.0486985)
(9.4 0.02 -0.0489468)
(9.45 0.02 -0.0491971)
(9.5 0.02 -0.0494476)
(9.55 0.02 -0.0496962)
(9.6 0.02 -0.0499463)
(9.65 0.02 -0.0501953)
(9.7 0.02 -0.0504446)
(9.75 0.02 -0.0506967)
(9.8 0.02 -0.0509452)
(9.85 0.02 -0.0511947)
(9.9 0.02 -0.0514466)
(9.95 0.02 -0.0516939)
(10 0.02 -0.0519426)
(10.05 0.02 -0.0521954)
(10.1 0.02 -0.052441)
(10.15 0.02 -0.0526888)
(10.2 0.02 -0.0529433)
(10.25 0.02 -0.0531895)
(10.3 0.02 -0.0534356)
(10.35 0.02 -0.0536906)
(10.4 0.02 -0.0539385)
(10.45 0.02 -0.0541838)
(10.5 0.02 -0.0544369)
(10.55 0.02 -0.0546861)
(10.6 0.02 -0.0549334)
(10.65 0.02 -0.0551857)
(10.7 0.02 -0.0554328)
(10.75 0.02 -0.0556803)
(10.8 0.02 -0.0559347)
(10.85 0.02 -0.0561829)
(10.9 0.02 -0.0564292)
(10.95 0.02 -0.0566824)
(11 0.02 -0.0569311)
(11.05 0.02 -0.0571789)
(11.1 0.02 -0.0574331)
(11.15 0.02 -0.0576817)
(11.2 0.02 -0.0579284)
(11.25 0.02 -0.0581817)
(11.3 0.02 -0.0584297)
(11.35 0.02 -0.0586762)
(11.4 0.02 -0.0589295)
(11.45 0.02 -0.0591776)
(11.5 0.02 -0.0594242)
(11.55 0.02 -0.0596775)
(11.6 0.02 -0.0599258)
(11.65 0.02 -0.0601723)
(11.7 0.02 -0.0604256)
(11.75 0.02 -0.060674)
(11.8 0.02 -0.0609206)
(11.85 0.02 -0.0611739)
(11.9 0.02 -0.0614225)
(11.95 0.02 -0.061669)
(12 0.02 -0.0619223)
(12.05 0.02 -0.062171)
(12.1 0.02 -0.0624175)
(12.15 0.02 -0.0626708)
(12.2 0.02 -0.0629196)
(12.25 0.02 -0.0631661)
(12.3 0.02 -0.0634195)
(12.35 0.02 -0.0636684)
(12.4 0.02 -0.0639148)
(12.45 0.02 -0.0641682)
(12.5 0.02 -0.0644172)
(12.55 0.02 -0.0646637)
(12.6 0.02 -0.0649172)
(12.65 0.02 -0.0651662)
(12.7 0.02 -0.0654128)
(12.75 0.02 -0.0656661)
(12.8 0.02 -0.0659154)
(12.85 0.02 -0.0661619)
(12.9 0.02 -0.0664151)
(12.95 0.02 -0.066665)
(13 0.02 -0.0669107)
(13.05 0.02 -0.0671649)
(13.1 0.02 -0.0674134)
(13.15 0.02 -0.0676609)
(13.2 0.02 -0.0679134)
(13.25 0.02 -0.0681637)
(13.3 0.02 -0.0684103)
(13.35 0.02 -0.0686606)
(13.4 0.02 -0.0689161)
(13.45 0.02 -0.0691579)
(13.5 0.02 -0.0694145)
(13.55 0.02 -0.0696572)
(13.6 0.02 -0.069915)
(13.65 0.02 -0.0701598)
(13.7 0.02 -0.0704105)
(13.75 0.02 -0.0706606)
(13.8 0.02 -0.0709091)
(13.85 0.02 -0.0711654)
(13.9 0.02 -0.0714054)
(13.95 0.02 -0.0716623)
(14 0.02 -0.0719056)
(14.05 0.02 -0.0721666)
(14.1 0.02 -0.0724054)
(14.15 0.02 -0.0726627)
(14.2 0.02 -0.0729045)
(14.25 0.02 -0.0731643)
(14.3 0.02 -0.0734055)
(14.35 0.02 -0.0736657)
(14.4 0.02 -0.0739088)
(14.45 0.02 -0.0741664)
(14.5 0.02 -0.0744108)
(14.55 0.02 -0.0746658)
(14.6 0.02 -0.0749121)
(14.65 0.02 -0.0751644)
(14.7 0.02 -0.0754051)
(14.75 0.02 -0.0751316)
(14.8 0.02 -0.0736485)
(14.85 0.02 -0.0725848)
(14.9 0.02 -0.0728332)
(14.95 0.02 -0.0730833)
(15 0.02 -0.0733333)
(0 0 0.00333333)
(0.05 0 0.00308333)
(0.1 0 0.00283333)
(0.15 0 0.00258333)
(0.2 0 0.00233333)
(0.25 0 0.00208333)
(0.3 0 0.00183333)
(0.35 0 0.00158333)
(0.4 0 0.00133333)
(0.45 0 0.00108333)
(0.5 0 0.000833333)
(0.55 0 0.000583333)
(0.6 0 0.000333333)
(0.65 0 8.33333e-05)
(0.7 0 -0.000166667)
(0.75 0 -0.000416667)
(0.8 0 -0.000666667)
(0.85 0 -0.000916667)
(0.9 0 -0.00116667)
(0.95 0 -0.00141667)
(1 0 -0.00166667)
(1.05 0 -0.00191667)
(1.1 0 -0.00216667)
(1.15 0 -0.00241667)
(1.2 0 -0.00266667)
(1.25 0 -0.00291667)
(1.3 0 -0.00316667)
(1.35 0 -0.00341667)
(1.4 0 -0.00366667)
(1.45 0 -0.00391667)
(1.5 0 -0.00416667)
(1.55 0 -0.00441667)
(1.6 0 -0.00466667)
(1.65 0 -0.00491667)
(1.7 0 -0.00516667)
(1.75 0 -0.00541667)
(1.8 0 -0.00566667)
(1.85 0 -0.00591667)
(1.9 0 -0.00616667)
(1.95 0 -0.00641667)
(2 0 -0.00666667)
(2.05 0 -0.00691667)
(2.1 0 -0.00716667)
(2.15 0 -0.00741667)
(2.2 0 -0.00766667)
(2.25 0 -0.00791667)
(2.3 0 -0.00816667)
(2.35 0 -0.00841667)
(2.4 0 -0.00866667)
(2.45 0 -0.00891667)
(2.5 0 -0.00916667)
(2.55 0 -0.00941667)
(2.6 0 -0.00966667)
(2.65 0 -0.00991667)
(2.7 0 -0.0101667)
(2.75 0 -0.0104167)
(2.8 0 -0.0106667)
(2.85 0 -0.0109167)
(2.9 0 -0.0111665)
(2.95 0 -0.0114196)
(3 0 -0.0125415)
(3.05 0 -0.0139901)
(3.1 0 -0.0148539)
(3.15 0 -0.0155052)
(3.2 0 -0.0159942)
(3.25 0 -0.0164027)
(3.3 0 -0.0167412)
(3.35 0 -0.0170521)
(3.4 0 -0.0173337)
(3.45 0 -0.0176046)
(3.5 0 -0.0178701)
(3.55 0 -0.0181183)
(3.6 0 -0.0183642)
(3.65 0 -0.0186351)
(3.7 0 -0.0188876)
(3.75 0 -0.0191221)
(3.8 0 -0.0193671)
(3.85 0 -0.0196142)
(3.9 0 -0.019849)
(3.95 0 -0.020099)
(4 0 -0.020353)
(4.05 0 -0.0205948)
(4.1 0 -0.0208421)
(4.15 0 -0.0210921)
(4.2 0 -0.0213339)
(4.25 0 -0.0215832)
(4.3 0 -0.0218351)
(4.35 0 -0.0220801)
(4.4 0 -0.0223313)
(4.45 0 -0.022584)
(4.5 0 -0.0228296)
(4.55 0 -0.0230816)
(4.6 0 -0.0233343)
(4.65 0 -0.0235801)
(4.7 0 -0.0238322)
(4.75 0 -0.0240842)
(4.8 0 -0.0243306)
(4.85 0 -0.024582)
(4.9 0 -0.0248338)
(4.95 0 -0.0250809)
(5 0 -0.0253307)
(5.05 0 -0.0255833)
(5.1 0 -0.0258307)
(5.15 0 -0.0260794)
(5.2 0 -0.0263317)
(5.25 0 -0.0265808)
(5.3 0 -0.0268281)
(5.35 0 -0.0270795)
(5.4 0 -0.0273306)
(5.45 0 -0.0275779)
(5.5 0 -0.0278266)
(5.55 0 -0.0280787)
(5.6 0 -0.0283287)
(5.65 0 -0.028576)
(5.7 0 -0.0288251)
(5.75 0 -0.0290769)
(5.8 0 -0.0293269)
(5.85 0 -0.0295745)
(5.9 0 -0.029823)
(5.95 0 -0.0300736)
(6 0 -0.0303239)
(6.05 0 -0.030573)
(6.1 0 -0.0308215)
(6.15 0 -0.0310701)
(6.2 0 -0.0313189)
(6.25 0 -0.031568)
(6.3 0 -0.0318173)
(6.35 0 -0.0320668)
(6.4 0 -0.0323163)
(6.45 0 -0.0325659)
(6.5 0 -0.0328155)
(6.55 0 -0.0330651)
(6.6 0 -0.0333147)
(6.65 0 -0.0335643)
(6.7 0 -0.0338138)
(6.75 0 -0.0340634)
(6.8 0 -0.0343129)
(6.85 0 -0.0345624)
(6.9 0 -0.0348119)
(6.95 0 -0.0350613)
(7 0 -0.0353109)
(7.05 0 -0.0355604)
(7.1 0 -0.03581)
(7.15 0 -0.0360593)
(7.2 0 -0.0363088)
(7.25 0 -0.0365588)
(7.3 0 -0.0368073)
(7.35 0 -0.0370576)
(7.4 0 -0.037307)
(7.45 0 -0.0375547)
(7.5 0 -0.0378065)
(7.55 0 -0.0380554)
(7.6 0 -0.038303)
(7.65 0 -0.0385552)
(7.7 0 -0.0388036)
(7.75 0 -0.0390502)
(7.8 0 -0.0393044)
(7.85 0 -0.0395528)
(7.9 0 -0.0397973)
(7.95 0 -0.0400522)
(8 0 -0.0403024)
(8.05 0 -0.0405452)
(8.1 0 -0.0407991)
(8.15 0 -0.0410509)
(8.2 0 -0.0412946)
(8.25 0 -0.0415467)
(8.3 0 -0.0417974)
(8.35 0 -0.0420435)
(8.4 0 -0.0422959)
(8.45 0 -0.0425453)
(8.5 0 -0.0427901)
(8.55 0 -0.0430414)
(8.6 0 -0.0432938)
(8.65 0 -0.043539)
(8.7 0 -0.0437878)
(8.75 0 -0.0440392)
(8.8 0 -0.0442852)
(8.85 0 -0.0445323)
(8.9 0 -0.0447852)
(8.95 0 -0.0450346)
(9 0 -0.0452806)
(9.05 0 -0.0455315)
(9.1 0 -0.045784)
(9.15 0 -0.046031)
(9.2 0 -0.0462782)
(9.25 0 -0.0465299)
(9.3 0 -0.0467806)
(9.35 0 -0.0470283)
(9.4 0 -0.0472766)
(9.45 0 -0.047527)
(9.5 0 -0.0477774)
(9.55 0 -0.0480261)
(9.6 0 -0.0482762)
(9.65 0 -0.0485251)
(9.7 0 -0.0487745)
(9.75 0 -0.0490266)
(9.8 0 -0.049275)
(9.85 0 -0.0495245)
(9.9 0 -0.0497764)
(9.95 0 -0.0500237)