/*--------------------------------*- C++ -*----------------------------------*\
| =========                 |                                                 |
| \\      /  F ield         | foam-extend: Open Source CFD                    |
|  \\    /   O peration     | Version:     3.2                                |
|   \\  /    A nd           | Web:         http://www.foam-extend.org         |
|    \\/     M anipulation  | For copyright notice see file Copyright         |
\*---------------------------------------------------------------------------*/
FoamFile
{
    version     2.0;
    format      ascii;
    class       pointVectorField;
    location    "50";
    object      newPoints;
}
// * * * * * * * * * * * * * * * * * * * * * * * * * * * * * * * * * * * * * //

dimensions      [0 1 0 0 0 0 0];

internalField   nonuniform List<vector> 
602
(
(0 0 0)
(0.05 0 -0.00025)
(0.1 0 -0.0005)
(0.15 0 -0.00075)
(0.2 0 -0.001)
(0.25 0 -0.00125)
(0.3 0 -0.0015)
(0.35 0 -0.00175)
(0.4 0 -0.002)
(0.45 0 -0.00225)
(0.5 0 -0.0025)
(0.55 0 -0.00275)
(0.6 0 -0.003)
(0.65 0 -0.00325)
(0.7 0 -0.0035)
(0.75 0 -0.00375)
(0.8 0 -0.004)
(0.85 0 -0.00425)
(0.9 0 -0.0045)
(0.95 0 -0.00475)
(1 0 -0.005)
(1.05 0 -0.00525)
(1.1 0 -0.0055)
(1.15 0 -0.00575)
(1.2 0 -0.006)
(1.25 0 -0.00625)
(1.3 0 -0.0065)
(1.35 0 -0.00675)
(1.4 0 -0.007)
(1.45 0 -0.00725)
(1.5 0 -0.0075)
(1.55 0 -0.00775)
(1.6 0 -0.008)
(1.65 0 -0.00825)
(1.7 0 -0.0085)
(1.75 0 -0.00875)
(1.8 0 -0.009)
(1.85 0 -0.00925)
(1.9 0 -0.0095)
(1.95 0 -0.00975)
(2 0 -0.01)
(2.05 0 -0.01025)
(2.1 0 -0.0105)
(2.15 0 -0.01075)
(2.2 0 -0.011)
(2.25 0 -0.01125)
(2.3 0 -0.0115)
(2.35 0 -0.01175)
(2.4 0 -0.012)
(2.45 0 -0.01225)
(2.5 0 -0.0125)
(2.55 0 -0.01275)
(2.6 0 -0.013)
(2.65 0 -0.01325)
(2.7 0 -0.0135)
(2.75 0 -0.01375)
(2.8 0 -0.014)
(2.85 0 -0.01425)
(2.9 0 -0.0145)
(2.95 0 -0.01475)
(3 0 -0.0158759)
(3.05 0 -0.0173291)
(3.1 0 -0.0181912)
(3.15 0 -0.0188427)
(3.2 0 -0.0193316)
(3.25 0 -0.0197401)
(3.3 0 -0.0200785)
(3.35 0 -0.0203895)
(3.4 0 -0.020671)
(3.45 0 -0.020942)
(3.5 0 -0.0212075)
(3.55 0 -0.0214557)
(3.6 0 -0.0217014)
(3.65 0 -0.0219725)
(3.7 0 -0.022225)
(3.75 0 -0.0224594)
(3.8 0 -0.0227044)
(3.85 0 -0.0229515)
(3.9 0 -0.0231863)
(3.95 0 -0.0234363)
(4 0 -0.0236904)
(4.05 0 -0.0239321)
(4.1 0 -0.0241794)
(4.15 0 -0.0244295)
(4.2 0 -0.0246712)
(4.25 0 -0.0249205)
(4.3 0 -0.0251724)
(4.35 0 -0.0254173)
(4.4 0 -0.0256686)
(4.45 0 -0.0259213)
(4.5 0 -0.0261669)
(4.55 0 -0.0264189)
(4.6 0 -0.0266716)
(4.65 0 -0.0269173)
(4.7 0 -0.0271695)
(4.75 0 -0.0274215)
(4.8 0 -0.0276679)
(4.85 0 -0.0279193)
(4.9 0 -0.0281711)
(4.95 0 -0.0284182)
(5 0 -0.028668)
(5.05 0 -0.0289206)
(5.1 0 -0.0291679)
(5.15 0 -0.0294167)
(5.2 0 -0.029669)
(5.25 0 -0.0299181)
(5.3 0 -0.0301653)
(5.35 0 -0.0304168)
(5.4 0 -0.0306679)
(5.45 0 -0.0309152)
(5.5 0 -0.0311639)
(5.55 0 -0.031416)
(5.6 0 -0.031666)
(5.65 0 -0.0319132)
(5.7 0 -0.0321624)
(5.75 0 -0.0324142)
(5.8 0 -0.0326642)
(5.85 0 -0.0329118)
(5.9 0 -0.0331603)
(5.95 0 -0.0334108)
(6 0 -0.0336612)
(6.05 0 -0.0339103)
(6.1 0 -0.0341588)
(6.15 0 -0.0344073)
(6.2 0 -0.0346561)
(6.25 0 -0.0349053)
(6.3 0 -0.0351546)
(6.35 0 -0.035404)
(6.4 0 -0.0356535)
(6.45 0 -0.0359031)
(6.5 0 -0.0361528)
(6.55 0 -0.0364024)
(6.6 0 -0.036652)
(6.65 0 -0.0369016)
(6.7 0 -0.0371511)
(6.75 0 -0.0374006)
(6.8 0 -0.0376502)
(6.85 0 -0.0378997)
(6.9 0 -0.0381491)
(6.95 0 -0.0383986)
(7 0 -0.0386482)
(7.05 0 -0.0388977)
(7.1 0 -0.0391473)
(7.15 0 -0.0393966)
(7.2 0 -0.039646)
(7.25 0 -0.039896)
(7.3 0 -0.0401445)
(7.35 0 -0.0403949)
(7.4 0 -0.0406443)
(7.45 0 -0.0408919)
(7.5 0 -0.0411438)
(7.55 0 -0.0413927)
(7.6 0 -0.0416402)
(7.65 0 -0.0418925)
(7.7 0 -0.0421409)
(7.75 0 -0.0423874)
(7.8 0 -0.0426417)
(7.85 0 -0.0428901)
(7.9 0 -0.0431345)
(7.95 0 -0.0433894)
(8 0 -0.0436397)
(8.05 0 -0.0438824)
(8.1 0 -0.0441363)
(8.15 0 -0.0443882)
(8.2 0 -0.0446319)
(8.25 0 -0.0448839)
(8.3 0 -0.0451346)
(8.35 0 -0.0453807)
(8.4 0 -0.0456331)
(8.45 0 -0.0458826)
(8.5 0 -0.0461273)
(8.55 0 -0.0463786)
(8.6 0 -0.0466311)
(8.65 0 -0.0468762)
(8.7 0 -0.047125)
(8.75 0 -0.0473765)
(8.8 0 -0.0476224)
(8.85 0 -0.0478695)
(8.9 0 -0.0481224)
(8.95 0 -0.0483719)
(9 0 -0.0486178)
(9.05 0 -0.0488687)
(9.1 0 -0.0491212)
(9.15 0 -0.0493682)
(9.2 0 -0.0496155)
(9.25 0 -0.0498671)
(9.3 0 -0.0501179)
(9.35 0 -0.0503656)
(9.4 0 -0.0506139)
(9.45 0 -0.0508642)
(9.5 0 -0.0511147)
(9.55 0 -0.0513633)
(9.6 0 -0.0516134)
(9.65 0 -0.0518624)
(9.7 0 -0.0521117)
(9.75 0 -0.0523638)
(9.8 0 -0.0526123)
(9.85 0 -0.0528618)
(9.9 0 -0.0531136)
(9.95 0 -0.053361)
(10 0 -0.0536097)
(10.05 0 -0.0538625)
(10.1 0 -0.0541081)
(10.15 0 -0.0543559)
(10.2 0 -0.0546104)
(10.25 0 -0.0548566)
(10.3 0 -0.0551027)
(10.35 0 -0.0553577)
(10.4 0 -0.0556056)
(10.45 0 -0.0558509)
(10.5 0 -0.056104)
(10.55 0 -0.0563532)
(10.6 0 -0.0566005)
(10.65 0 -0.0568528)
(10.7 0 -0.0570999)
(10.75 0 -0.0573474)
(10.8 0 -0.0576018)
(10.85 0 -0.05785)
(10.9 0 -0.0580962)
(10.95 0 -0.0583495)
(11 0 -0.0585982)
(11.05 0 -0.058846)
(11.1 0 -0.0591002)
(11.15 0 -0.0593488)
(11.2 0 -0.0595955)
(11.25 0 -0.0598488)
(11.3 0 -0.0600968)
(11.35 0 -0.0603433)
(11.4 0 -0.0605966)
(11.45 0 -0.0608447)
(11.5 0 -0.0610913)
(11.55 0 -0.0613446)
(11.6 0 -0.0615929)
(11.65 0 -0.0618394)
(11.7 0 -0.0620927)
(11.75 0 -0.0623411)
(11.8 0 -0.0625877)
(11.85 0 -0.062841)
(11.9 0 -0.0630895)
(11.95 0 -0.063336)
(12 0 -0.0635894)
(12.05 0 -0.0638381)
(12.1 0 -0.0640846)
(12.15 0 -0.0643379)
(12.2 0 -0.0645867)
(12.25 0 -0.0648332)
(12.3 0 -0.0650866)
(12.35 0 -0.0653354)
(12.4 0 -0.0655819)
(12.45 0 -0.0658353)
(12.5 0 -0.0660843)
(12.55 0 -0.0663308)
(12.6 0 -0.0665843)
(12.65 0 -0.0668333)
(12.7 0 -0.0670798)
(12.75 0 -0.0673332)
(12.8 0 -0.0675825)
(12.85 0 -0.067829)
(12.9 0 -0.0680822)
(12.95 0 -0.0683321)
(13 0 -0.0685777)
(13.05 0 -0.068832)
(13.1 0 -0.0690805)
(13.15 0 -0.069328)
(13.2 0 -0.0695805)
(13.25 0 -0.0698308)
(13.3 0 -0.0700774)
(13.35 0 -0.0703277)
(13.4 0 -0.0705832)
(13.45 0 -0.0708249)
(13.5 0 -0.0710816)
(13.55 0 -0.0713243)
(13.6 0 -0.0715821)
(13.65 0 -0.0718268)
(13.7 0 -0.0720775)
(13.75 0 -0.0723277)
(13.8 0 -0.0725762)
(13.85 0 -0.0728325)
(13.9 0 -0.0730725)
(13.95 0 -0.0733294)
(14 0 -0.0735727)
(14.05 0 -0.0738337)
(14.1 0 -0.0740724)
(14.15 0 -0.0743298)
(14.2 0 -0.0745716)
(14.25 0 -0.0748314)
(14.3 0 -0.0750726)
(14.35 0 -0.0753328)
(14.4 0 -0.0755759)
(14.45 0 -0.0758335)
(14.5 0 -0.0760779)
(14.55 0 -0.0763329)
(14.6 0 -0.0765792)
(14.65 0 -0.0768314)
(14.7 0 -0.0770728)
(14.75 0 -0.0768006)
(14.8 0 -0.0753154)
(14.85 0 -0.07425)
(14.9 0 -0.0745)
(14.95 0 -0.07475)
(15 0 -0.075)
(0 0.02 0)
(0.05 0.02 -0.00025)
(0.1 0.02 -0.0005)
(0.15 0.02 -0.00075)
(0.2 0.02 -0.001)
(0.25 0.02 -0.00125)
(0.3 0.02 -0.0015)
(0.35 0.02 -0.00175)
(0.4 0.02 -0.002)
(0.45 0.02 -0.00225)
(0.5 0.02 -0.0025)
(0.55 0.02 -0.00275)
(0.6 0.02 -0.003)
(0.65 0.02 -0.00325)
(0.7 0.02 -0.0035)
(0.75 0.02 -0.00375)
(0.8 0.02 -0.004)
(0.85 0.02 -0.00425)
(0.9 0.02 -0.0045)
(0.95 0.02 -0.00475)
(1 0.02 -0.005)
(1.05 0.02 -0.00525)
(1.1 0.02 -0.0055)
(1.15 0.02 -0.00575)
(1.2 0.02 -0.006)
(1.25 0.02 -0.00625)
(1.3 0.02 -0.0065)
(1.35 0.02 -0.00675)
(1.4 0.02 -0.007)
(1.45 0.02 -0.00725)
(1.5 0.02 -0.0075)
(1.55 0.02 -0.00775)
(1.6 0.02 -0.008)
(1.65 0.02 -0.00825)
(1.7 0.02 -0.0085)
(1.75 0.02 -0.00875)
(1.8 0.02 -0.009)
(1.85 0.02 -0.00925)
(1.9 0.02 -0.0095)
(1.95 0.02 -0.00975)
(2 0.02 -0.01)
(2.05 0.02 -0.01025)
(2.1 0.02 -0.0105)
(2.15 0.02 -0.01075)
(2.2 0.02 -0.011)
(2.25 0.02 -0.01125)
(2.3 0.02 -0.0115)
(2.35 0.02 -0.01175)
(2.4 0.02 -0.012)
(2.45 0.02 -0.01225)
(2.5 0.02 -0.0125)
(2.55 0.02 -0.01275)
(2.6 0.02 -0.013)
(2.65 0.02 -0.01325)
(2.7 0.02 -0.0135)
(2.75 0.02 -0.01375)
(2.8 0.02 -0.014)
(2.85 0.02 -0.01425)
(2.9 0.02 -0.0145)
(2.95 0.02 -0.01475)
(3 0.02 -0.0158759)
(3.05 0.02 -0.0173291)
(3.1 0.02 -0.0181912)
(3.15 0.02 -0.0188427)
(3.2 0.02 -0.0193316)
(3.25 0.02 -0.0197401)
(3.3 0.02 -0.0200785)
(3.35 0.02 -0.0203895)
(3.4 0.02 -0.020671)
(3.45 0.02 -0.020942)
(3.5 0.02 -0.0212075)
(3.55 0.02 -0.0214557)
(3.6 0.02 -0.0217014)
(3.65 0.02 -0.0219725)
(3.7 0.02 -0.022225)
(3.75 0.02 -0.0224594)
(3.8 0.02 -0.0227044)
(3.85 0.02 -0.0229515)
(3.9 0.02 -0.0231863)
(3.95 0.02 -0.0234363)
(4 0.02 -0.0236904)
(4.05 0.02 -0.0239321)
(4.1 0.02 -0.0241794)
(4.15 0.02 -0.0244295)
(4.2 0.02 -0.0246712)
(4.25 0.02 -0.0249205)
(4.3 0.02 -0.0251724)
(4.35 0.02 -0.0254173)
(4.4 0.02 -0.0256686)
(4.45 0.02 -0.0259213)
(4.5 0.02 -0.0261669)
(4.55 0.02 -0.0264189)
(4.6 0.02 -0.0266716)
(4.65 0.02 -0.0269173)
(4.7 0.02 -0.0271695)
(4.75 0.02 -0.0274215)
(4.8 0.02 -0.0276679)
(4.85 0.02 -0.0279193)
(4.9 0.02 -0.0281711)
(4.95 0.02 -0.0284182)
(5 0.02 -0.028668)
(5.05 0.02 -0.0289206)
(5.1 0.02 -0.0291679)
(5.15 0.02 -0.0294167)
(5.2 0.02 -0.029669)
(5.25 0.02 -0.0299181)
(5.3 0.02 -0.0301653)
(5.35 0.02 -0.0304168)
(5.4 0.02 -0.0306679)
(5.45 0.02 -0.0309152)
(5.5 0.02 -0.0311639)
(5.55 0.02 -0.031416)
(5.6 0.02 -0.031666)
(5.65 0.02 -0.0319132)
(5.7 0.02 -0.0321624)
(5.75 0.02 -0.0324142)
(5.8 0.02 -0.0326642)
(5.85 0.02 -0.0329118)
(5.9 0.02 -0.0331603)
(5.95 0.02 -0.0334108)
(6 0.02 -0.0336612)
(6.05 0.02 -0.0339103)
(6.1 0.02 -0.0341588)
(6.15 0.02 -0.0344073)
(6.2 0.02 -0.0346561)
(6.25 0.02 -0.0349053)
(6.3 0.02 -0.0351546)
(6.35 0.02 -0.035404)
(6.4 0.02 -0.0356535)
(6.45 0.02 -0.0359031)
(6.5 0.02 -0.0361528)
(6.55 0.02 -0.0364024)
(6.6 0.02 -0.036652)
(6.65 0.02 -0.0369016)
(6.7 0.02 -0.0371511)
(6.75 0.02 -0.0374006)
(6.8 0.02 -0.0376502)
(6.85 0.02 -0.0378997)
(6.9 0.02 -0.0381491)
(6.95 0.02 -0.0383986)
(7 0.02 -0.0386482)
(7.05 0.02 -0.0388977)
(7.1 0.02 -0.0391473)
(7.15 0.02 -0.0393966)
(7.2 0.02 -0.039646)
(7.25 0.02 -0.039896)
(7.3 0.02 -0.0401445)
(7.35 0.02 -0.0403949)
(7.4 0.02 -0.0406443)
(7.45 0.02 -0.0408919)
(7.5 0.02 -0.0411438)
(7.55 0.02 -0.0413927)
(7.6 0.02 -0.0416402)
(7.65 0.02 -0.0418925)
(7.7 0.02 -0.0421409)
(7.75 0.02 -0.0423874)
(7.8 0.02 -0.0426417)
(7.85 0.02 -0.0428901)
(7.9 0.02 -0.0431345)
(7.95 0.02 -0.0433894)
(8 0.02 -0.0436397)
(8.05 0.02 -0.0438824)
(8.1 0.02 -0.0441363)
(8.15 0.02 -0.0443882)
(8.2 0.02 -0.0446319)
(8.25 0.02 -0.0448839)
(8.3 0.02 -0.0451346)
(8.35 0.02 -0.0453807)
(8.4 0.02 -0.0456331)
(8.45 0.02 -0.0458826)
(8.5 0.02 -0.0461273)
(8.55 0.02 -0.0463786)
(8.6 0.02 -0.0466311)
(8.65 0.02 -0.0468762)
(8.7 0.02 -0.047125)
(8.75 0.02 -0.0473765)
(8.8 0.02 -0.0476224)
(8.85 0.02 -0.0478695)
(8.9 0.02 -0.0481224)
(8.95 0.02 -0.0483719)
(9 0.02 -0.0486178)
(9.05 0.02 -0.0488687)
(9.1 0.02 -0.0491212)
(9.15 0.02 -0.0493682)
(9.2 0.02 -0.0496155)
(9.25 0.02 -0.0498671)
(9.3 0.02 -0.0501179)
(9.35 0.02 -0.0503656)
(9.4 0.02 -0.0506139)
(9.45 0.02 -0.0508642)
(9.5 0.02 -0.0511147)
(9.55 0.02 -0.0513633)
(9.6 0.02 -0.0516134)
(9.65 0.02 -0.0518624)
(9.7 0.02 -0.0521117)
(9.75 0.02 -0.0523638)
(9.8 0.02 -0.0526123)
(9.85 0.02 -0.0528618)
(9.9 0.02 -0.0531136)
(9.95 0.02 -0.053361)
(10 0.02 -0.0536097)
(10.05 0.02 -0.0538625)
(10.1 0.02 -0.0541081)
(10.15 0.02 -0.0543559)
(10.2 0.02 -0.0546104)
(10.25 0.02 -0.0548566)
(10.3 0.02 -0.0551027)
(10.35 0.02 -0.0553577)
(10.4 0.02 -0.0556056)
(10.45 0.02 -0.0558509)
(10.5 0.02 -0.056104)
(10.55 0.02 -0.0563532)
(10.6 0.02 -0.0566005)
(10.65 0.02 -0.0568528)
(10.7 0.02 -0.0570999)
(10.75 0.02 -0.0573474)
(10.8 0.02 -0.0576018)
(10.85 0.02 -0.05785)
(10.9 0.02 -0.0580962)
(10.95 0.02 -0.0583495)
(11 0.02 -0.0585982)
(11.05 0.02 -0.058846)
(11.1 0.02 -0.0591002)
(11.15 0.02 -0.0593488)
(11.2 0.02 -0.0595955)
(11.25 0.02 -0.0598488)
(11.3 0.02 -0.0600968)
(11.35 0.02 -0.0603433)
(11.4 0.02 -0.0605966)
(11.45 0.02 -0.0608447)
(11.5 0.02 -0.0610913)
(11.55 0.02 -0.0613446)
(11.6 0.02 -0.0615929)
(11.65 0.02 -0.0618394)
(11.7 0.02 -0.0620927)
(11.75 0.02 -0.0623411)
(11.8 0.02 -0.0625877)
(11.85 0.02 -0.062841)
(11.9 0.02 -0.0630895)
(11.95 0.02 -0.063336)
(12 0.02 -0.0635894)
(12.05 0.02 -0.0638381)
(12.1 0.02 -0.0640846)
(12.15 0.02 -0.0643379)
(12.2 0.02 -0.0645867)
(12.25 0.02 -0.0648332)
(12.3 0.02 -0.0650866)
(12.35 0.02 -0.0653354)
(12.4 0.02 -0.0655819)
(12.45 0.02 -0.0658353)
(12.5 0.02 -0.0660843)
(12.55 0.02 -0.0663308)
(12.6 0.02 -0.0665843)
(12.65 0.02 -0.0668333)
(12.7 0.02 -0.0670798)
(12.75 0.02 -0.0673332)
(12.8 0.02 -0.0675825)
(12.85 0.02 -0.067829)
(12.9 0.02 -0.0680822)
(12.95 0.02 -0.0683321)
(13 0.02 -0.0685777)
(13.05 0.02 -0.068832)
(13.1 0.02 -0.0690805)
(13.15 0.02 -0.069328)
(13.2 0.02 -0.0695805)
(13.25 0.02 -0.0698308)
(13.3 0.02 -0.0700774)
(13.35 0.02 -0.0703277)
(13.4 0.02 -0.0705832)
(13.45 0.02 -0.0708249)
(13.5 0.02 -0.0710816)
(13.55 0.02 -0.0713243)
(13.6 0.02 -0.0715821)
(13.65 0.02 -0.0718268)
(13.7 0.02 -0.0720775)
(13.75 0.02 -0.0723277)
(13.8 0.02 -0.0725762)
(13.85 0.02 -0.0728325)
(13.9 0.02 -0.0730725)
(13.95 0.02 -0.0733294)
(14 0.02 -0.0735727)
(14.05 0.02 -0.0738337)
(14.1 0.02 -0.0740724)
(14.15 0.02 -0.0743298)
(14.2 0.02 -0.0745716)
(14.25 0.02 -0.0748314)
(14.3 0.02 -0.0750726)
(14.35 0.02 -0.0753328)
(14.4 0.02 -0.0755759)
(14.45 0.02 -0.0758335)
(14.5 0.02 -0.0760779)
(14.55 0.02 -0.0763329)
(14.6 0.02 -0.0765792)
(14.65 0.02 -0.0768314)
(14.7 0.02 -0.0770728)
(14.75 0.02 -0.0768006)
(14.8 0.02 -0.0753154)
(14.85 0.02 -0.07425)
(14.9 0.02 -0.0745)
(14.95 0.02 -0.07475)
(15 0.02 -0.075)
)
;

boundaryField
{
    inlet
    {
        type            zeroGradient;
    }
    outlet
    {
        type            zeroGradient;
    }
    sideWall
    {
        type            empty;
    }
    bed
    {
        type            zeroGradient;
    }
    topWall
    {
        type            zeroGradient;
    }
}


// ************************************************************************* //
