/*--------------------------------*- C++ -*----------------------------------*\
| =========                 |                                                 |
| \\      /  F ield         | foam-extend: Open Source CFD                    |
|  \\    /   O peration     | Version:     3.2                                |
|   \\  /    A nd           | Web:         http://www.foam-extend.org         |
|    \\/     M anipulation  | For copyright notice see file Copyright         |
\*---------------------------------------------------------------------------*/
FoamFile
{
    version     2.0;
    format      ascii;
    class       volScalarField;
    location    "50";
    object      nut;
}
// * * * * * * * * * * * * * * * * * * * * * * * * * * * * * * * * * * * * * //

dimensions      [0 2 -1 0 0 0 0];

internalField   nonuniform List<scalar> 
5400
(
3.16128e-05
2.51441e-05
2.15492e-05
2.15963e-05
2.12401e-05
2.12469e-05
2.10758e-05
2.10693e-05
2.10072e-05
2.10313e-05
2.10362e-05
2.10768e-05
2.11165e-05
2.11802e-05
2.12395e-05
2.13147e-05
2.13908e-05
2.14758e-05
2.15599e-05
2.16523e-05
2.17488e-05
2.18481e-05
2.19496e-05
2.20523e-05
2.2156e-05
2.22599e-05
2.23559e-05
2.24393e-05
2.25096e-05
2.25683e-05
2.26173e-05
2.26579e-05
2.26918e-05
2.27197e-05
2.27432e-05
2.27624e-05
2.27788e-05
2.2792e-05
2.28037e-05
2.28127e-05
2.28213e-05
2.28274e-05
2.28341e-05
2.28381e-05
2.28434e-05
2.28458e-05
2.28504e-05
2.28516e-05
2.28565e-05
2.28545e-05
2.28627e-05
2.28535e-05
2.28713e-05
2.28455e-05
2.28893e-05
2.28207e-05
2.29337e-05
2.27648e-05
2.30935e-05
2.2393e-05
1.95199e-05
1.92399e-05
1.9349e-05
1.92948e-05
1.94325e-05
1.93985e-05
1.95078e-05
1.94823e-05
1.95449e-05
1.95236e-05
1.9545e-05
1.95671e-05
1.95433e-05
1.95121e-05
1.95475e-05
1.95456e-05
1.95232e-05
1.95423e-05
1.95445e-05
1.95096e-05
1.9519e-05
1.95244e-05
1.95046e-05
1.95144e-05
1.9519e-05
1.9499e-05
1.9507e-05
1.951e-05
1.94931e-05
1.95009e-05
1.95045e-05
1.9489e-05
1.94979e-05
1.95006e-05
1.94877e-05
1.94965e-05
1.94983e-05
1.94891e-05
1.9494e-05
1.94999e-05
1.94906e-05
1.94923e-05
1.94999e-05
1.94938e-05
1.9491e-05
1.94995e-05
1.94983e-05
1.94923e-05
1.94961e-05
1.95014e-05
1.94968e-05
1.94934e-05
1.94989e-05
1.95021e-05
1.94977e-05
1.94955e-05
1.94998e-05
1.95023e-05
1.95011e-05
1.94995e-05
1.95001e-05
1.95023e-05
1.95034e-05
1.95043e-05
1.95049e-05
1.95053e-05
1.95057e-05
1.95059e-05
1.95063e-05
1.95066e-05
1.95066e-05
1.95069e-05
1.95072e-05
1.95076e-05
1.95079e-05
1.95081e-05
1.95086e-05
1.95089e-05
1.95094e-05
1.95096e-05
1.95099e-05
1.95104e-05
1.95103e-05
1.9512e-05
1.95103e-05
1.9512e-05
1.95134e-05
1.95091e-05
1.95163e-05
1.9514e-05
1.9509e-05
1.95183e-05
1.95149e-05
1.95087e-05
1.95221e-05
1.95163e-05
1.95059e-05
1.95251e-05
1.95204e-05
1.95044e-05
1.95253e-05
1.95246e-05
1.95065e-05
1.95237e-05
1.95249e-05
1.95117e-05
1.9525e-05
1.95228e-05
1.95138e-05
1.9527e-05
1.95291e-05
1.95156e-05
1.95236e-05
1.95314e-05
1.95221e-05
1.9525e-05
1.95351e-05
1.9529e-05
1.95229e-05
1.95333e-05
1.95353e-05
1.95252e-05
1.95278e-05
1.95361e-05
1.95333e-05
1.95283e-05
1.95323e-05
1.95353e-05
1.95348e-05
1.9532e-05
1.95343e-05
1.95351e-05
1.95332e-05
1.95383e-05
1.95331e-05
1.95326e-05
1.95388e-05
1.95322e-05
1.95328e-05
1.95421e-05
1.95324e-05
1.95333e-05
1.95473e-05
1.95348e-05
1.95324e-05
1.95495e-05
1.95391e-05
1.95313e-05
1.95491e-05
1.95435e-05
1.95357e-05
1.95478e-05
1.95423e-05
1.95393e-05
1.95521e-05
1.95429e-05
1.95368e-05
1.95523e-05
1.9546e-05
1.954e-05
1.95521e-05
1.95444e-05
1.95382e-05
1.95527e-05
1.95463e-05
1.95403e-05
1.95545e-05
1.95485e-05
1.95421e-05
1.95562e-05
1.95503e-05
1.95436e-05
1.95578e-05
1.9552e-05
1.95451e-05
1.95593e-05
1.95537e-05
1.95466e-05
1.95608e-05
1.95554e-05
1.9548e-05
1.95622e-05
1.9557e-05
1.95494e-05
1.95635e-05
1.95585e-05
1.95506e-05
1.95648e-05
1.956e-05
1.95518e-05
1.9566e-05
1.95613e-05
1.95529e-05
1.95671e-05
1.95622e-05
1.95545e-05
1.95672e-05
1.95647e-05
1.95535e-05
1.95698e-05
1.95645e-05
1.95563e-05
1.95703e-05
1.95623e-05
1.95619e-05
1.95619e-05
1.95781e-05
1.95472e-05
1.95744e-05
1.95625e-05
1.95657e-05
1.95702e-05
1.95543e-05
1.95784e-05
1.95548e-05
1.95824e-05
1.95446e-05
1.95806e-05
1.95589e-05
1.9579e-05
1.95545e-05
1.95703e-05
1.95648e-05
1.9573e-05
1.95624e-05
1.95694e-05
1.95645e-05
1.95624e-05
1.95641e-05
1.95629e-05
1.95607e-05
1.9571e-05
1.95436e-05
1.95743e-05
1.96352e-05
2.18303e-05
2.45006e-05
2.3633e-05
2.2637e-05
2.28234e-05
3.01621e-05
4.00922e-05
4.35874e-05
4.6216e-05
4.78857e-05
4.87143e-05
4.93327e-05
4.97058e-05
5.0095e-05
5.03971e-05
5.07005e-05
5.09951e-05
5.12843e-05
5.15857e-05
5.18747e-05
5.21644e-05
5.24567e-05
5.27472e-05
5.30413e-05
5.33332e-05
5.36216e-05
5.39066e-05
5.41856e-05
5.44573e-05
5.47185e-05
5.49566e-05
5.51578e-05
5.53178e-05
5.5442e-05
5.55384e-05
5.56131e-05
5.56718e-05
5.57177e-05
5.57543e-05
5.57831e-05
5.58068e-05
5.58254e-05
5.58414e-05
5.58538e-05
5.58653e-05
5.58738e-05
5.58824e-05
5.58883e-05
5.58951e-05
5.58991e-05
5.59043e-05
5.59077e-05
5.59113e-05
5.59149e-05
5.59158e-05
5.59218e-05
5.59169e-05
5.59284e-05
5.59128e-05
5.59396e-05
5.58965e-05
5.59644e-05
5.58644e-05
5.5946e-05
5.4332e-05
5.3461e-05
5.23186e-05
5.12517e-05
5.05222e-05
4.98708e-05
4.9505e-05
4.91767e-05
4.89693e-05
4.87997e-05
4.8664e-05
4.85421e-05
4.84421e-05
4.83595e-05
4.82965e-05
4.82394e-05
4.81889e-05
4.81591e-05
4.81393e-05
4.81165e-05
4.80917e-05
4.80896e-05
4.80766e-05
4.80586e-05
4.80597e-05
4.80557e-05
4.80445e-05
4.80515e-05
4.80495e-05
4.80394e-05
4.80456e-05
4.80446e-05
4.80362e-05
4.80423e-05
4.80405e-05
4.80352e-05
4.8041e-05
4.80397e-05
4.80365e-05
4.80394e-05
4.80412e-05
4.80375e-05
4.80402e-05
4.80428e-05
4.804e-05
4.80412e-05
4.80449e-05
4.80436e-05
4.80433e-05
4.80448e-05
4.80455e-05
4.80459e-05
4.80475e-05
4.80482e-05
4.80476e-05
4.8049e-05
4.80507e-05
4.80512e-05
4.80506e-05
4.80523e-05
4.80541e-05
4.80553e-05
4.80555e-05
4.80562e-05
4.80576e-05
4.80596e-05
4.80613e-05
4.80628e-05
4.8064e-05
4.80654e-05
4.80666e-05
4.80668e-05
4.80675e-05
4.80687e-05
4.80695e-05
4.80701e-05
4.80713e-05
4.8072e-05
4.80729e-05
4.80732e-05
4.8074e-05
4.80746e-05
4.80749e-05
4.80757e-05
4.80778e-05
4.80783e-05
4.80795e-05
4.80806e-05
4.80794e-05
4.80842e-05
4.80826e-05
4.80811e-05
4.80881e-05
4.80852e-05
4.8083e-05
4.80918e-05
4.8088e-05
4.80843e-05
4.80963e-05
4.80913e-05
4.80881e-05
4.80988e-05
4.80947e-05
4.80905e-05
4.80999e-05
4.80968e-05
4.80932e-05
4.81038e-05
4.80998e-05
4.80992e-05
4.81051e-05
4.81063e-05
4.81027e-05
4.8107e-05
4.81106e-05
4.81072e-05
4.81109e-05
4.81149e-05
4.81152e-05
4.81168e-05
4.81215e-05
4.81213e-05
4.81197e-05
4.81226e-05
4.81241e-05
4.8124e-05
4.8125e-05
4.8127e-05
4.81264e-05
4.81282e-05
4.81293e-05
4.81305e-05
4.81304e-05
4.81302e-05
4.81325e-05
4.81313e-05
4.81322e-05
4.8135e-05
4.81306e-05
4.81323e-05
4.81358e-05
4.8131e-05
4.81339e-05
4.81391e-05
4.81336e-05
4.8136e-05
4.81423e-05
4.81381e-05
4.81364e-05
4.8148e-05
4.81424e-05
4.81404e-05
4.81494e-05
4.81444e-05
4.81452e-05
4.81502e-05
4.81473e-05
4.81455e-05
4.81548e-05
4.81493e-05
4.81482e-05
4.81543e-05
4.81504e-05
4.81476e-05
4.81561e-05
4.81503e-05
4.81481e-05
4.81572e-05
4.81524e-05
4.81503e-05
4.81597e-05
4.81551e-05
4.81529e-05
4.81624e-05
4.81578e-05
4.81554e-05
4.81649e-05
4.81603e-05
4.81578e-05
4.81673e-05
4.81627e-05
4.81601e-05
4.81696e-05
4.8165e-05
4.81623e-05
4.81717e-05
4.81671e-05
4.81643e-05
4.81737e-05
4.81691e-05
4.81661e-05
4.81755e-05
4.81709e-05
4.81678e-05
4.81772e-05
4.81726e-05
4.817e-05
4.81784e-05
4.81745e-05
4.81703e-05
4.81801e-05
4.81748e-05
4.81729e-05
4.81818e-05
4.81755e-05
4.81774e-05
4.81772e-05
4.81862e-05
4.81698e-05
4.81823e-05
4.81752e-05
4.8181e-05
4.818e-05
4.81742e-05
4.81863e-05
4.81728e-05
4.81911e-05
4.81694e-05
4.81864e-05
4.81803e-05
4.81786e-05
4.81802e-05
4.81816e-05
4.81811e-05
4.81797e-05
4.81817e-05
4.81826e-05
4.81779e-05
4.8181e-05
4.81777e-05
4.81778e-05
4.81786e-05
4.81782e-05
4.81683e-05
4.81943e-05
4.88856e-05
5.01323e-05
5.16136e-05
5.21207e-05
5.3315e-05
5.41746e-05
2.75797e-05
4.36667e-05
5.1355e-05
5.98744e-05
6.64807e-05
6.97933e-05
7.19723e-05
7.37305e-05
7.50663e-05
7.62628e-05
7.72287e-05
7.81367e-05
7.89589e-05
7.97171e-05
8.04439e-05
8.11207e-05
8.17747e-05
8.24076e-05
8.30187e-05
8.36082e-05
8.4175e-05
8.4718e-05
8.52355e-05
8.57228e-05
8.61802e-05
8.6571e-05
8.68632e-05
8.707e-05
8.72156e-05
8.73169e-05
8.73883e-05
8.74373e-05
8.74719e-05
8.74951e-05
8.75121e-05
8.75233e-05
8.75324e-05
8.75384e-05
8.75441e-05
8.7548e-05
8.75523e-05
8.75552e-05
8.75592e-05
8.75615e-05
8.75652e-05
8.75666e-05
8.75701e-05
8.75719e-05
8.75744e-05
8.75765e-05
8.75765e-05
8.75788e-05
8.75783e-05
8.75801e-05
8.75774e-05
8.75799e-05
8.75743e-05
8.76321e-05
8.74427e-05
8.38144e-05
8.39389e-05
8.39841e-05
8.3022e-05
8.19403e-05
8.06315e-05
7.98141e-05
7.89102e-05
7.83206e-05
7.77631e-05
7.73554e-05
7.70301e-05
7.67617e-05
7.65145e-05
7.63869e-05
7.62131e-05
7.60869e-05
7.6017e-05
7.59459e-05
7.58628e-05
7.58465e-05
7.58215e-05
7.57778e-05
7.57719e-05
7.57618e-05
7.57338e-05
7.5741e-05
7.57422e-05
7.57258e-05
7.5733e-05
7.57369e-05
7.57234e-05
7.57313e-05
7.57353e-05
7.57232e-05
7.57324e-05
7.57349e-05
7.57263e-05
7.57335e-05
7.57377e-05
7.57292e-05
7.57342e-05
7.57419e-05
7.57348e-05
7.57348e-05
7.57446e-05
7.57415e-05
7.57371e-05
7.57445e-05
7.57472e-05
7.57419e-05
7.57426e-05
7.57519e-05
7.57508e-05
7.57463e-05
7.57486e-05
7.57556e-05
7.57547e-05
7.57541e-05
7.5755e-05
7.57578e-05
7.57605e-05
7.57614e-05
7.57625e-05
7.57645e-05
7.5767e-05
7.57693e-05
7.57714e-05
7.57732e-05
7.57748e-05
7.57763e-05
7.57779e-05
7.57793e-05
7.57805e-05
7.57818e-05
7.57832e-05
7.57845e-05
7.57857e-05
7.57871e-05
7.5788e-05
7.57892e-05
7.57903e-05
7.57907e-05
7.57922e-05
7.57929e-05
7.57956e-05
7.57987e-05
7.57965e-05
7.58024e-05
7.58018e-05
7.57985e-05
7.58074e-05
7.58059e-05
7.58026e-05
7.58135e-05
7.58097e-05
7.58032e-05
7.58208e-05
7.5816e-05
7.58046e-05
7.58272e-05
7.58236e-05
7.58075e-05
7.58277e-05
7.58281e-05
7.58152e-05
7.58293e-05
7.58294e-05
7.5822e-05
7.58378e-05
7.58359e-05
7.58266e-05
7.58392e-05
7.58447e-05
7.58357e-05
7.58429e-05
7.58512e-05
7.58455e-05
7.58453e-05
7.58611e-05
7.586e-05
7.58517e-05
7.58602e-05
7.58674e-05
7.58626e-05
7.58604e-05
7.58683e-05
7.58695e-05
7.58685e-05
7.58682e-05
7.58727e-05
7.58746e-05
7.58727e-05
7.58766e-05
7.58732e-05
7.58737e-05
7.58803e-05
7.58746e-05
7.58757e-05
7.58823e-05
7.58738e-05
7.58761e-05
7.58879e-05
7.58755e-05
7.58763e-05
7.58926e-05
7.58823e-05
7.58781e-05
7.58956e-05
7.58906e-05
7.58843e-05
7.58959e-05
7.58934e-05
7.58902e-05
7.59018e-05
7.58936e-05
7.58914e-05
7.59055e-05
7.58996e-05
7.5894e-05
7.59052e-05
7.58987e-05
7.58949e-05
7.5907e-05
7.59009e-05
7.5895e-05
7.59066e-05
7.59017e-05
7.58965e-05
7.59087e-05
7.59042e-05
7.58992e-05
7.59115e-05
7.59072e-05
7.5902e-05
7.59143e-05
7.591e-05
7.59046e-05
7.5917e-05
7.59128e-05
7.59071e-05
7.59194e-05
7.59153e-05
7.59094e-05
7.59217e-05
7.59176e-05
7.59116e-05
7.59239e-05
7.59198e-05
7.59135e-05
7.59258e-05
7.59217e-05
7.59152e-05
7.59275e-05
7.59234e-05
7.59171e-05
7.59292e-05
7.59259e-05
7.59178e-05
7.59311e-05
7.59265e-05
7.5918e-05
7.59319e-05
7.59267e-05
7.59252e-05
7.59296e-05
7.59346e-05
7.59204e-05
7.59363e-05
7.5933e-05
7.59176e-05
7.59416e-05
7.59165e-05
7.5942e-05
7.59255e-05
7.59352e-05
7.5924e-05
7.59422e-05
7.59333e-05
7.59306e-05
7.59324e-05
7.59226e-05
7.59486e-05
7.59231e-05
7.59454e-05
7.59211e-05
7.59469e-05
7.59157e-05
7.59457e-05
7.5919e-05
7.59401e-05
7.59225e-05
7.59246e-05
7.59284e-05
7.5953e-05
7.74658e-05
7.89837e-05
8.03247e-05
7.99114e-05
8.14385e-05
8.33905e-05
2.63173e-05
3.79744e-05
4.80646e-05
6.06772e-05
7.15318e-05
7.9372e-05
8.56797e-05
8.96186e-05
9.27538e-05
9.54471e-05
9.76623e-05
9.96301e-05
0.000101363
0.00010294
0.000104387
0.000105704
0.000106944
0.000108109
0.00010921
0.000110248
0.000111224
0.000112139
0.000112991
0.000113774
0.000114485
0.000115066
0.000115477
0.000115752
0.000115929
0.000116038
0.000116102
0.000116135
0.000116149
0.00011615
0.000116145
0.000116135
0.000116125
0.000116115
0.000116107
0.000116099
0.000116093
0.000116088
0.000116085
0.000116083
0.000116081
0.00011608
0.00011608
0.00011608
0.00011608
0.000116081
0.000116079
0.000116082
0.000116079
0.000116084
0.000116075
0.000116088
0.000116065
0.000116167
0.000115788
0.00011062
0.00010944
0.000112064
0.000111993
0.000111074
0.000109645
0.000108553
0.000107225
0.00010626
0.000105301
0.000104571
0.000103958
0.000103422
0.000102948
0.00010267
0.000102356
0.000102104
0.000101938
0.000101786
0.000101636
0.000101575
0.00010152
0.000101447
0.000101421
0.000101397
0.000101353
0.000101353
0.000101353
0.000101329
0.000101336
0.000101344
0.000101326
0.000101336
0.000101345
0.000101329
0.000101341
0.000101348
0.000101337
0.000101346
0.000101353
0.000101343
0.000101348
0.00010136
0.000101352
0.00010135
0.000101363
0.000101361
0.000101354
0.000101363
0.000101368
0.000101361
0.000101361
0.000101373
0.000101374
0.000101367
0.000101368
0.000101379
0.000101379
0.000101377
0.000101376
0.000101381
0.000101385
0.000101387
0.000101387
0.000101389
0.000101391
0.000101394
0.000101397
0.000101399
0.000101401
0.000101403
0.000101405
0.000101407
0.000101409
0.000101411
0.000101413
0.000101415
0.000101416
0.000101418
0.000101419
0.000101421
0.000101422
0.000101422
0.000101424
0.000101426
0.00010143
0.000101433
0.00010143
0.000101438
0.000101438
0.000101433
0.000101444
0.000101443
0.000101438
0.000101452
0.000101448
0.000101438
0.00010146
0.000101457
0.00010144
0.000101467
0.000101468
0.000101444
0.000101468
0.000101472
0.000101455
0.00010147
0.000101474
0.000101463
0.000101482
0.000101482
0.000101468
0.000101483
0.000101492
0.000101481
0.000101488
0.000101499
0.000101491
0.000101489
0.000101509
0.00010151
0.000101499
0.000101509
0.00010152
0.000101514
0.000101509
0.00010152
0.000101523
0.000101521
0.000101519
0.000101525
0.000101528
0.000101526
0.000101531
0.000101527
0.000101527
0.000101536
0.00010153
0.00010153
0.000101539
0.000101529
0.000101529
0.000101545
0.00010153
0.000101527
0.00010155
0.000101537
0.000101529
0.000101551
0.000101548
0.000101537
0.000101551
0.00010155
0.000101544
0.00010156
0.000101549
0.000101544
0.000101563
0.000101557
0.000101548
0.000101562
0.000101554
0.000101548
0.000101564
0.000101558
0.000101549
0.000101563
0.000101558
0.000101549
0.000101564
0.00010156
0.000101551
0.000101567
0.000101562
0.000101553
0.000101569
0.000101565
0.000101556
0.000101571
0.000101567
0.000101558
0.000101574
0.00010157
0.00010156
0.000101576
0.000101572
0.000101562
0.000101578
0.000101574
0.000101564
0.000101579
0.000101576
0.000101566
0.000101581
0.000101578
0.000101568
0.000101582
0.00010158
0.000101568
0.000101584
0.000101581
0.000101568
0.000101586
0.000101581
0.000101577
0.000101583
0.000101591
0.000101572
0.000101588
0.000101588
0.000101569
0.000101597
0.000101566
0.000101599
0.000101578
0.00010159
0.000101577
0.000101595
0.00010159
0.000101587
0.000101579
0.000101577
0.000101606
0.00010158
0.000101597
0.000101574
0.000101603
0.000101566
0.000101603
0.000101572
0.000101597
0.00010158
0.00010158
0.000101584
0.000101591
0.000103867
0.000106246
0.000106248
0.000104243
0.000103737
0.000108267
2.78107e-05
3.2669e-05
4.48266e-05
5.6316e-05
6.61615e-05
7.75126e-05
8.75727e-05
9.5452e-05
0.0001021
0.000107539
0.000111484
0.000114913
0.000117923
0.000120641
0.000123087
0.000125298
0.000127348
0.000129244
0.000131013
0.000132659
0.000134185
0.000135597
0.000136893
0.000138067
0.000139112
0.000139952
0.00014055
0.000140956
0.000141222
0.00014139
0.00014149
0.000141543
0.000141566
0.000141571
0.000141565
0.000141554
0.000141541
0.000141528
0.000141516
0.000141507
0.000141498
0.000141493
0.000141489
0.000141487
0.000141485
0.000141484
0.000141484
0.000141485
0.000141485
0.000141487
0.000141486
0.000141492
0.000141488
0.000141497
0.000141485
0.000141505
0.000141474
0.000141603
0.000141056
0.000134863
0.000130437
0.000136566
0.000137449
0.000136984
0.000135855
0.000134722
0.000133223
0.000132009
0.000130739
0.000129726
0.000128836
0.00012803
0.000127316
0.000126851
0.000126382
0.000125985
0.0001257
0.000125449
0.00012522
0.00012509
0.000124987
0.000124876
0.000124818
0.000124772
0.000124709
0.000124693
0.000124685
0.000124654
0.000124655
0.000124663
0.000124642
0.000124652
0.000124663
0.000124647
0.000124659
0.000124668
0.000124657
0.000124667
0.000124677
0.000124668
0.000124672
0.000124686
0.000124678
0.000124675
0.000124689
0.000124689
0.000124681
0.000124691
0.000124698
0.000124691
0.000124689
0.000124703
0.000124706
0.000124698
0.000124698
0.00012471
0.000124713
0.00012471
0.000124708
0.000124713
0.000124719
0.000124721
0.000124722
0.000124723
0.000124725
0.000124728
0.00012473
0.000124733
0.000124736
0.000124738
0.000124741
0.000124744
0.000124746
0.000124749
0.000124751
0.000124753
0.000124755
0.000124757
0.000124759
0.000124761
0.000124762
0.000124763
0.000124765
0.000124766
0.000124771
0.000124775
0.000124772
0.000124779
0.00012478
0.000124774
0.000124787
0.000124787
0.00012478
0.000124796
0.000124793
0.000124781
0.000124805
0.000124805
0.000124783
0.000124811
0.000124816
0.000124789
0.000124812
0.000124821
0.000124802
0.000124817
0.000124823
0.00012481
0.00012483
0.000124832
0.000124817
0.000124831
0.000124842
0.000124831
0.000124837
0.00012485
0.000124842
0.000124837
0.000124858
0.000124862
0.000124852
0.000124859
0.000124874
0.000124868
0.000124861
0.000124872
0.000124879
0.000124876
0.000124873
0.000124879
0.000124884
0.000124881
0.000124887
0.000124882
0.000124881
0.000124892
0.000124886
0.000124885
0.000124896
0.000124885
0.000124884
0.000124902
0.000124886
0.00012488
0.000124906
0.000124894
0.000124881
0.000124906
0.000124904
0.00012489
0.000124905
0.000124905
0.000124898
0.000124915
0.000124905
0.000124896
0.000124917
0.000124913
0.000124901
0.000124916
0.000124909
0.0001249
0.000124918
0.000124914
0.000124901
0.000124917
0.000124912
0.0001249
0.000124917
0.000124913
0.000124901
0.000124918
0.000124914
0.000124902
0.000124919
0.000124916
0.000124904
0.000124921
0.000124918
0.000124906
0.000124923
0.00012492
0.000124908
0.000124924
0.000124922
0.000124909
0.000124926
0.000124924
0.000124911
0.000124927
0.000124925
0.000124912
0.000124929
0.000124927
0.000124914
0.00012493
0.000124929
0.000124914
0.000124931
0.00012493
0.000124915
0.000124934
0.00012493
0.000124923
0.00012493
0.00012494
0.000124919
0.000124932
0.000124938
0.000124915
0.000124946
0.000124912
0.000124948
0.000124927
0.000124939
0.000124925
0.000124941
0.000124943
0.000124936
0.000124924
0.000124923
0.000124956
0.000124932
0.000124943
0.000124922
0.000124953
0.000124914
0.000124952
0.000124921
0.000124946
0.000124932
0.000124931
0.000124934
0.00012492
0.000126791
0.000131071
0.000129815
0.00012689
0.00012429
0.000127717
3.48154e-05
3.08752e-05
3.82906e-05
5.05017e-05
5.78234e-05
6.98243e-05
8.12016e-05
9.17414e-05
0.000101401
0.000109578
0.000116737
0.000122652
0.000128086
0.000132552
0.00013624
0.000139576
0.000142642
0.000145468
0.000148084
0.000150496
0.000152716
0.000154756
0.000156612
0.000158285
0.000159766
0.000160971
0.000161863
0.000162504
0.000162957
0.00016327
0.000163484
0.000163627
0.000163722
0.000163784
0.000163825
0.000163851
0.00016387
0.000163883
0.000163894
0.000163905
0.000163913
0.000163924
0.000163932
0.000163942
0.00016395
0.000163959
0.000163966
0.000163975
0.000163981
0.000163989
0.000163993
0.000164003
0.000164003
0.000164019
0.000164008
0.000164035
0.000163999
0.000164146
0.00016345
0.000156692
0.000149871
0.000157442
0.000159679
0.000159742
0.000159084
0.000158071
0.000156626
0.000155313
0.000153867
0.000152657
0.000151547
0.000150509
0.000149581
0.00014893
0.000148306
0.000147763
0.000147349
0.000146991
0.000146676
0.000146466
0.000146303
0.000146146
0.000146048
0.00014597
0.000145884
0.000145847
0.000145824
0.000145783
0.000145776
0.000145779
0.000145755
0.000145761
0.000145773
0.000145756
0.000145767
0.000145779
0.000145768
0.000145778
0.00014579
0.000145782
0.000145785
0.000145801
0.000145795
0.000145791
0.000145805
0.000145807
0.000145798
0.000145808
0.000145817
0.000145811
0.000145808
0.000145822
0.000145827
0.00014582
0.000145818
0.00014583
0.000145835
0.000145832
0.000145829
0.000145834
0.000145842
0.000145844
0.000145846
0.000145847
0.000145849
0.000145851
0.000145853
0.000145856
0.000145859
0.000145862
0.000145865
0.000145868
0.000145871
0.000145874
0.000145877
0.000145879
0.000145881
0.000145884
0.000145886
0.000145888
0.00014589
0.000145891
0.000145893
0.000145895
0.0001459
0.000145904
0.000145901
0.000145908
0.00014591
0.000145903
0.000145916
0.000145918
0.00014591
0.000145926
0.000145925
0.000145911
0.000145935
0.000145937
0.000145914
0.00014594
0.000145949
0.000145921
0.000145942
0.000145953
0.000145935
0.000145949
0.000145956
0.000145943
0.000145962
0.000145966
0.000145952
0.000145963
0.000145976
0.000145966
0.000145971
0.000145985
0.000145978
0.000145971
0.000145992
0.000145998
0.000145988
0.000145994
0.00014601
0.000146006
0.000145997
0.000146008
0.000146016
0.000146014
0.000146011
0.000146016
0.000146021
0.000146018
0.000146024
0.00014602
0.000146018
0.000146029
0.000146023
0.000146022
0.000146033
0.000146023
0.000146021
0.00014604
0.000146024
0.000146015
0.000146041
0.000146031
0.000146016
0.00014604
0.000146041
0.000146025
0.000146039
0.00014604
0.000146032
0.00014605
0.000146041
0.00014603
0.00014605
0.000146047
0.000146033
0.000146048
0.000146042
0.000146032
0.00014605
0.000146046
0.000146032
0.000146048
0.000146045
0.00014603
0.000146047
0.000146043
0.00014603
0.000146046
0.000146044
0.00014603
0.000146047
0.000146045
0.000146031
0.000146048
0.000146046
0.000146032
0.000146048
0.000146047
0.000146033
0.000146049
0.000146048
0.000146034
0.00014605
0.000146049
0.000146035
0.000146051
0.00014605
0.000146036
0.000146052
0.000146052
0.000146038
0.000146053
0.000146053
0.000146037
0.000146053
0.000146055
0.000146038
0.000146057
0.000146054
0.000146046
0.000146053
0.000146064
0.000146043
0.000146053
0.000146063
0.000146039
0.000146069
0.000146036
0.000146072
0.000146051
0.000146063
0.000146049
0.000146062
0.00014607
0.00014606
0.000146047
0.000146045
0.000146081
0.00014606
0.000146066
0.000146047
0.000146078
0.000146039
0.000146076
0.000146046
0.000146071
0.00014606
0.000146057
0.000146062
0.000146026
0.000144768
0.000153251
0.000151101
0.00014781
0.000145516
0.000145431
5.07534e-05
3.39713e-05
3.40189e-05
4.16135e-05
5.28011e-05
6.25263e-05
7.15082e-05
8.26176e-05
9.38577e-05
0.000104014
0.000113714
0.000121992
0.000129697
0.000136278
0.0001422
0.000147273
0.000151944
0.000156412
0.000160308
0.000163635
0.000166686
0.000169481
0.000172017
0.000174304
0.000176356
0.000178081
0.000179409
0.000180418
0.000181179
0.000181753
0.000182185
0.000182513
0.000182764
0.000182957
0.00018311
0.000183232
0.000183332
0.000183416
0.000183487
0.00018355
0.000183602
0.000183652
0.000183694
0.000183734
0.000183766
0.000183798
0.000183824
0.00018385
0.000183869
0.000183891
0.000183906
0.000183927
0.000183936
0.00018396
0.000183955
0.00018399
0.000183956
0.000184113
0.000183298
0.000176322
0.00016962
0.000174737
0.000179233
0.000179737
0.000179548
0.000178726
0.000177477
0.000176181
0.000174695
0.000173382
0.000172129
0.00017092
0.000169828
0.000169015
0.000168253
0.000167575
0.000167041
0.000166579
0.000166175
0.000165884
0.000165653
0.000165446
0.000165304
0.000165187
0.000165075
0.000165014
0.000164971
0.000164916
0.000164898
0.000164893
0.000164864
0.000164866
0.000164875
0.000164858
0.000164867
0.000164879
0.00016487
0.000164878
0.000164891
0.000164885
0.000164888
0.000164904
0.0001649
0.000164896
0.00016491
0.000164913
0.000164906
0.000164914
0.000164925
0.00016492
0.000164917
0.00016493
0.000164937
0.000164931
0.000164928
0.00016494
0.000164946
0.000164944
0.000164941
0.000164945
0.000164953
0.000164957
0.000164959
0.00016496
0.000164961
0.000164963
0.000164965
0.000164968
0.000164971
0.000164974
0.000164978
0.000164981
0.000164985
0.000164988
0.000164991
0.000164993
0.000164996
0.000164999
0.000165001
0.000165003
0.000165005
0.000165007
0.000165009
0.000165011
0.000165016
0.00016502
0.000165017
0.000165024
0.000165027
0.00016502
0.000165032
0.000165035
0.000165027
0.000165043
0.000165043
0.000165028
0.000165052
0.000165056
0.000165032
0.000165056
0.000165066
0.000165041
0.000165059
0.000165071
0.000165055
0.000165068
0.000165076
0.000165063
0.00016508
0.000165086
0.000165072
0.000165082
0.000165095
0.000165086
0.00016509
0.000165105
0.000165099
0.00016509
0.00016511
0.000165117
0.000165109
0.000165113
0.000165129
0.000165126
0.000165117
0.000165127
0.000165136
0.000165135
0.000165131
0.000165136
0.00016514
0.000165138
0.000165144
0.00016514
0.000165138
0.000165148
0.000165143
0.000165141
0.000165152
0.000165143
0.000165139
0.000165158
0.000165143
0.000165133
0.000165158
0.00016515
0.000165133
0.000165156
0.000165157
0.000165141
0.000165155
0.000165156
0.000165148
0.000165164
0.000165156
0.000165144
0.000165163
0.000165161
0.000165146
0.00016516
0.000165155
0.000165144
0.000165161
0.000165158
0.000165144
0.000165159
0.000165156
0.000165141
0.000165155
0.000165153
0.000165138
0.000165153
0.000165151
0.000165137
0.000165153
0.000165151
0.000165137
0.000165152
0.000165151
0.000165137
0.000165152
0.000165151
0.000165137
0.000165152
0.000165152
0.000165137
0.000165152
0.000165152
0.000165137
0.000165153
0.000165153
0.000165138
0.000165153
0.000165154
0.000165139
0.000165153
0.000165155
0.000165138
0.000165153
0.000165156
0.000165139
0.000165158
0.000165156
0.000165147
0.000165153
0.000165165
0.000165144
0.000165151
0.000165164
0.000165141
0.000165169
0.000165137
0.000165172
0.000165153
0.000165165
0.000165152
0.000165162
0.000165173
0.000165161
0.00016515
0.000165145
0.000165183
0.000165163
0.000165167
0.000165149
0.00016518
0.000165143
0.000165177
0.000165149
0.000165173
0.000165164
0.00016516
0.000165168
0.000165114
0.000160326
0.000172402
0.00017021
0.000166997
0.000166682
0.000164688
8.08322e-05
4.56081e-05
3.6566e-05
3.73387e-05
4.48453e-05
5.6262e-05
6.31754e-05
7.32781e-05
8.33406e-05
9.39645e-05
0.000105009
0.00011497
0.000124588
0.000133121
0.000141112
0.000148101
0.000154357
0.000160287
0.000165594
0.000170449
0.000174781
0.000178517
0.000181789
0.00018459
0.000187901
0.000191392
0.000193309
0.000194828
0.000196035
0.000196997
0.000197768
0.00019839
0.000198896
0.000199311
0.000199654
0.000199941
0.000200183
0.00020039
0.000200566
0.00020072
0.000200851
0.00020097
0.00020107
0.000201161
0.000201237
0.000201308
0.000201365
0.000201421
0.000201464
0.000201507
0.000201541
0.000201579
0.000201602
0.000201639
0.000201645
0.000201691
0.000201664
0.000201826
0.000200936
0.000193981
0.000190166
0.000192231
0.000196576
0.000197386
0.000197586
0.000196967
0.000195969
0.000194761
0.000193338
0.000192003
0.000190688
0.000189376
0.00018818
0.000187241
0.000186371
0.000185579
0.000184941
0.000184387
0.000183902
0.000183534
0.000183237
0.000182979
0.00018279
0.000182633
0.000182494
0.000182404
0.000182339
0.00018227
0.000182238
0.000182222
0.000182188
0.000182183
0.000182188
0.00018217
0.000182177
0.000182187
0.000182179
0.000182187
0.0001822
0.000182195
0.000182198
0.000182215
0.000182211
0.000182209
0.000182222
0.000182226
0.00018222
0.000182228
0.00018224
0.000182237
0.000182234
0.000182246
0.000182254
0.000182249
0.000182247
0.000182257
0.000182264
0.000182263
0.00018226
0.000182264
0.000182272
0.000182276
0.000182279
0.00018228
0.000182281
0.000182283
0.000182285
0.000182288
0.000182291
0.000182294
0.000182298
0.000182301
0.000182305
0.000182308
0.000182311
0.000182314
0.000182317
0.00018232
0.000182322
0.000182325
0.000182327
0.000182329
0.000182332
0.000182334
0.000182338
0.000182342
0.000182339
0.000182347
0.000182349
0.000182342
0.000182354
0.000182357
0.00018235
0.000182366
0.000182367
0.000182352
0.000182374
0.000182379
0.000182356
0.000182378
0.000182389
0.000182366
0.000182381
0.000182393
0.00018238
0.000182391
0.000182399
0.000182387
0.000182403
0.000182409
0.000182397
0.000182404
0.000182418
0.00018241
0.000182413
0.000182428
0.000182423
0.000182414
0.000182432
0.00018244
0.000182433
0.000182436
0.000182452
0.00018245
0.000182441
0.000182449
0.000182458
0.000182458
0.000182454
0.000182458
0.000182462
0.000182461
0.000182466
0.000182463
0.00018246
0.000182469
0.000182464
0.000182461
0.000182472
0.000182463
0.000182459
0.000182477
0.000182464
0.000182453
0.000182476
0.000182469
0.000182452
0.000182473
0.000182474
0.000182458
0.00018247
0.000182472
0.000182463
0.000182479
0.000182471
0.000182459
0.000182475
0.000182473
0.000182459
0.000182471
0.000182467
0.000182456
0.000182471
0.000182468
0.000182454
0.000182468
0.000182465
0.00018245
0.000182463
0.00018246
0.000182446
0.000182459
0.000182457
0.000182443
0.000182457
0.000182456
0.000182441
0.000182455
0.000182454
0.00018244
0.000182454
0.000182454
0.000182439
0.000182453
0.000182453
0.000182438
0.000182452
0.000182453
0.000182438
0.000182452
0.000182453
0.000182438
0.000182452
0.000182453
0.000182439
0.000182452
0.000182454
0.000182438
0.000182451
0.000182455
0.000182438
0.000182456
0.000182455
0.000182445
0.000182451
0.000182462
0.000182443
0.000182448
0.000182462
0.00018244
0.000182466
0.000182437
0.00018247
0.000182453
0.000182464
0.000182452
0.000182459
0.000182473
0.000182459
0.00018245
0.000182443
0.000182481
0.000182463
0.000182467
0.000182449
0.00018248
0.000182444
0.000182475
0.00018245
0.000182472
0.000182464
0.000182461
0.000182472
0.000182405
0.00017598
0.000189684
0.000187518
0.000184545
0.000184266
0.000185406
0.000134438
6.83482e-05
4.85742e-05
4.05657e-05
4.07524e-05
4.75994e-05
5.82111e-05
6.71813e-05
7.42321e-05
8.36239e-05
9.37878e-05
0.000104083
0.00011478
0.000124678
0.000134292
0.000143092
0.000151063
0.000158263
0.000164884
0.000171168
0.000176718
0.000181427
0.000185741
0.000190061
0.000195964
0.000201135
0.000203775
0.000205945
0.000207737
0.000209222
0.000210457
0.00021149
0.000212356
0.000213086
0.000213705
0.000214231
0.00021468
0.000215066
0.000215397
0.000215686
0.000215933
0.000216152
0.000216338
0.000216504
0.000216644
0.00021677
0.000216876
0.000216973
0.000217053
0.000217127
0.000217188
0.000217249