/*--------------------------------*- C++ -*----------------------------------*\
| =========                 |                                                 |
| \\      /  F ield         | foam-extend: Open Source CFD                    |
|  \\    /   O peration     | Version:     3.2                                |
|   \\  /    A nd           | Web:         http://www.foam-extend.org         |
|    \\/     M anipulation  | For copyright notice see file Copyright         |
\*---------------------------------------------------------------------------*/
FoamFile
{
    version     2.0;
    format      ascii;
    class       volScalarField;
    location    "50";
    object      omega;
}
// * * * * * * * * * * * * * * * * * * * * * * * * * * * * * * * * * * * * * //

dimensions      [0 0 -1 0 0 0 0];

internalField   nonuniform List<scalar> 
5400
(
917.174
736.023
636.201
637.503
627.659
627.846
623.12
622.941
621.228
621.892
622.026
623.145
624.242
626.003
627.639
629.716
631.82
634.169
636.494
639.049
641.72
644.465
647.276
650.117
652.99
655.866
658.528
660.837
662.786
664.412
665.772
666.896
667.838
668.611
669.264
669.794
670.251
670.615
670.941
671.191
671.43
671.599
671.783
671.896
672.042
672.11
672.224
672.244
672.382
672.325
672.554
672.297
672.791
672.075
673.292
671.388
674.526
669.81
679.315
660.081
580.015
571.802
575.033
573.563
577.379
576.456
579.474
578.777
580.505
579.914
580.511
581.125
580.456
579.589
580.584
580.528
579.909
580.445
580.501
579.53
579.801
579.949
579.399
579.677
579.8
579.245
579.472
579.551
579.085
579.306
579.402
578.972
579.224
579.297
578.936
579.185
579.231
578.976
579.115
579.278
579.015
579.066
579.279
579.106
579.031
579.265
579.231
579.063
579.172
579.319
579.189
579.096
579.251
579.338
579.213
579.154
579.273
579.342
579.307
579.264
579.28
579.341
579.374
579.399
579.415
579.427
579.436
579.444
579.454
579.46
579.461
579.469
579.479
579.488
579.495
579.502
579.515
579.524
579.538
579.544
579.553
579.565
579.563
579.609
579.561
579.61
579.647
579.529
579.727
579.662
579.525
579.782
579.686
579.517
579.889
579.726
579.437
579.972
579.838
579.394
579.98
579.957
579.452
579.935
579.965
579.599
579.968
579.907
579.656
580.025
580.078
579.706
579.931
580.144
579.882
579.969
580.247
580.075
579.907
580.199
580.249
579.969
580.043
580.275
580.194
580.056
580.167
580.252
580.235
580.156
580.223
580.244
580.193
580.332
580.188
580.175
580.348
580.161
580.181
580.438
580.165
580.196
580.584
580.233
580.169
580.646
580.35
580.137
580.632
580.474
580.258
580.595
580.438
580.358
580.715
580.456
580.289
580.718
580.541
580.378
580.713
580.497
580.328
580.729
580.55
580.387
580.78
580.608
580.434
580.826
580.658
580.477
580.87
580.706
580.518
580.912
580.753
580.556
580.952
580.799
580.595
580.99
580.842
580.633
581.028
580.883
580.668
581.061
580.924
580.7
581.094
580.959
580.731
581.126
580.986
580.772
581.127
581.054
580.745
581.2
581.047
580.823
581.21
580.988
580.975
580.981
581.424
580.569
581.324
580.993
581.083
581.205
580.765
581.436
580.782
581.542
580.497
581.492
580.896
581.444
580.771
581.205
581.061
581.281
580.99
581.181
581.051
580.987
581.041
581.002
580.947
581.224
580.483
581.142
582.14
643.481
718.95
694.537
666.253
671.467
359.696
331.662
290.981
277.297
265.641
261.31
256.786
254.937
252.933
252.236
251.581
251.433
251.442
251.679
252.035
252.559
253.154
253.883
254.637
255.471
256.378
257.338
258.343
259.374
260.439
261.528
262.56
263.484
264.289
264.979
265.569
266.066
266.489
266.841
267.142
267.389
267.602
267.774
267.927
268.046
268.159
268.239
268.325
268.379
268.446
268.481
268.532
268.553
268.599
268.604
268.656
268.626
268.716
268.612
268.818
268.523
269.038
268.259
270.408
271.11
248.19
234.419
231.242
229.421
229.926
229.776
230.733
230.924
231.621
231.763
232.088
232.493
232.502
232.3
232.525
232.699
232.622
232.73
232.809
232.631
232.606
232.661
232.58
232.597
232.645
232.548
232.54
232.568
232.482
232.478
232.513
232.431
232.44
232.478
232.406
232.424
232.456
232.406
232.414
232.456
232.42
232.408
232.458
232.442
232.414
232.456
232.47
232.432
232.443
232.487
232.471
232.439
232.467
232.505
232.484
232.458
232.479
232.516
232.515
232.5
232.498
232.518
232.536
232.55
232.558
232.564
232.568
232.572
232.575
232.577
232.58
232.583
232.586
232.59
232.594
232.597
232.603
232.607
232.613
232.617
232.621
232.629
232.63
232.639
232.634
232.642
232.658
232.639
232.668
232.676
232.644
232.684
232.69
232.653
232.711
232.712
232.645
232.725
232.748
232.649
232.73
232.782
232.677
232.733
232.787
232.716
232.755
232.78
232.726
232.785
232.826
232.759
232.778
232.841
232.812
232.815
232.885
232.872
232.824
232.871
232.905
232.853
232.845
232.906
232.909
232.872
232.883
232.919
232.924
232.905
232.912
232.926
232.917
232.943
232.923
232.905
232.94
232.921
232.909
232.964
232.937
232.921
233.007
232.971
232.928
233.027
233.006
232.943
233.022
233.035
232.981
233.028
233.029
233
233.071
233.046
232.994
233.063
233.066
233.018
233.073
233.054
233.004
233.067
233.068
233.025
233.089
233.09
233.044
233.107
233.108
233.061
233.122
233.124
233.076
233.137
233.139
233.09
233.15
233.154
233.103
233.162
233.167
233.115
233.173
233.179
233.126
233.184
233.19
233.136
233.193
233.2
233.145
233.202
233.208
233.155
233.205
233.222
233.157
233.216
233.227
233.163
233.226
233.215
233.192
233.19
233.274
233.157
233.228
233.232
233.202
233.263
233.152
233.284
233.182
233.28
233.156
233.256
233.221
233.296
233.183
233.212
233.237
233.269
233.231
233.222
233.247
233.18
233.22
233.183
233.177
233.219
233.122
233.174
229.78
241.286
272.462
281.243
273.438
271.374
180.603
191.889
186.801
177.026
166.944
161.736
157.279
154.765
152.662
151.437
150.436
149.88
149.506
149.305
149.254
149.313
149.463
149.711
150.009
150.355
150.754
151.196
151.675
152.179
152.712
153.256
153.766
154.226
154.633
154.987
155.295
155.558
155.784
155.974
156.137
156.273
156.39
156.485
156.57
156.637
156.698
156.745
156.79
156.822
156.857
156.879
156.905
156.92
156.941
156.951
156.967
156.97
156.988
156.982
157.013
156.983
157.048
156.891
157.436
160.226
155.231
144.511
139.545
136.748
135.549
134.983
134.904
134.929
135.133
135.257
135.398
135.61
135.751
135.723
135.731
135.885
135.931
135.947
136.02
136.031
135.989
136.015
136.024
136.003
136.031
136.033
136.005
136.02
136.01
135.982
136
135.987
135.962
135.983
135.972
135.954
135.973
135.967
135.953
135.965
135.974
135.956
135.967
135.979
135.969
135.967
135.985
135.98
135.97
135.984
135.995
135.986
135.979
135.996
136.005
135.994
135.989
136.006
136.015
136.012
136.009
136.013
136.022
136.031
136.038
136.043
136.047
136.049
136.052
136.054
136.056
136.058
136.06
136.062
136.064
136.067
136.069
136.072
136.075
136.077
136.08
136.084
136.086
136.089
136.092
136.092
136.101
136.101
136.099
136.115
136.106
136.108
136.126
136.114
136.115
136.142
136.123
136.117
136.157
136.139
136.12
136.166
136.152
136.131
136.169
136.162
136.149
136.176
136.168
136.161
136.192
136.192
136.172
136.196
136.209
136.198
136.217
136.239
136.226
136.219
136.239
136.243
136.225
136.238
136.256
136.249
136.24
136.255
136.264
136.263
136.258
136.266
136.265
136.268
136.275
136.262
136.268
136.276
136.262
136.273
136.289
136.269
136.287
136.309
136.282
136.296
136.325
136.299
136.301
136.332
136.315
136.314
136.334
136.319
136.329
136.35
136.326
136.328
136.354
136.334
136.336
136.354
136.331
136.332
136.355
136.337
136.342
136.366
136.348
136.352
136.376
136.358
136.361
136.385
136.367
136.368
136.392
136.374
136.375
136.399
136.381
136.381
136.405
136.388
136.387
136.411
136.393
136.391
136.416
136.399
136.395
136.42
136.403
136.399
136.424
136.408
136.402
136.427
136.413
136.401
136.431
136.408
136.412
136.43
136.416
136.408
136.427
136.442
136.388
136.444
136.406
136.446
136.403
136.435
136.422
136.425
136.451
136.385
136.457
136.417
136.456
136.394
136.445
136.423
136.456
136.407
136.454
136.404
136.434
136.4
136.415
136.396
136.435
136.412
133.996
133.593
147.21
158.407
160.183
159.065
98.2248
125.752
131.552
129.094
124.42
120.195
116.132
113.309
111.012
109.394
108.127
107.283
106.634
106.186
105.884
105.685
105.591
105.586
105.643
105.744
105.891
106.079
106.3
106.546
106.816
107.081
107.312
107.513
107.689
107.844
107.979
108.096
108.198
108.284
108.359
108.421
108.475
108.52
108.559
108.59
108.619
108.641
108.661
108.677
108.692
108.703
108.714
108.722
108.73
108.737
108.74
108.747
108.747
108.758
108.75
108.771
108.739
108.713
108.791
111.434
112.504
105.432
100.776
97.5588
95.6913
94.696
94.0716
93.8081
93.6961
93.6817
93.6797
93.7529
93.8689
93.8807
93.8338
93.9364
93.9983
93.997
94.0633
94.1157
94.0963
94.1162
94.1427
94.1273
94.1497
94.172
94.1562
94.1683
94.1775
94.1563
94.1666
94.1716
94.1492
94.1603
94.1638
94.146
94.1559
94.1607
94.1462
94.1495
94.1632
94.1508
94.1509
94.1643
94.1611
94.1523
94.1651
94.1692
94.1576
94.1603
94.1753
94.1745
94.1622
94.1686
94.1823
94.18
94.1707
94.1769
94.1855
94.1882
94.186
94.1855
94.19
94.1956
94.2013
94.2055
94.2089
94.2112
94.2134
94.2153
94.2168
94.2184
94.2199
94.2212
94.2231
94.2248
94.2265
94.2285
94.2301
94.2323
94.2335
94.2354
94.2368
94.2392
94.244
94.2422
94.2483
94.2509
94.2452
94.2587
94.2561
94.2511
94.2663
94.2627
94.2535
94.2779
94.2722
94.2552
94.2855
94.2873
94.2588
94.2883
94.2954
94.2689
94.2912
94.297
94.2823
94.3005
94.3037
94.2866
94.3071
94.321
94.2996
94.3098
94.3269
94.3168
94.3198
94.3441
94.344
94.3293
94.342
94.3554
94.3422
94.3405
94.3564
94.3596
94.3499
94.3541
94.3624
94.3671
94.362
94.3663
94.3663
94.3652
94.3755
94.3676
94.3673
94.3767
94.3672
94.3673
94.3851
94.3711
94.3716
94.3974
94.3827
94.3766
94.4074
94.3966
94.3848
94.4088
94.405
94.3969
94.4134
94.4057
94.4016
94.4263
94.4151
94.4045
94.4262
94.4189
94.4102
94.4303
94.4189
94.4079
94.4279
94.4201
94.4123
94.4341
94.427
94.4189
94.4405
94.4335
94.4247
94.446
94.4391
94.4297
94.4509
94.4441
94.4341
94.455
94.4486
94.4381
94.4587
94.4524
94.4415
94.4619
94.4559
94.4444
94.4646
94.4589
94.4468
94.4669
94.4611
94.449
94.4689
94.4641
94.4518
94.4694
94.4678
94.4487
94.4727
94.4636
94.4569
94.4729
94.4667
94.4587
94.4631
94.4932
94.436
94.4827
94.4548
94.4805
94.4609
94.4663
94.4715
94.4612
94.5003
94.431
94.496
94.4429
94.5088
94.4421
94.4854
94.4534
94.4987
94.4515
94.4919
94.4592
94.4793
94.4537
94.4707
94.4464
94.4953
94.5085
93.0417
90.0694
95.3317
104.17
108.743
109.466
54.4589
83.0722
96.4535
98.2016
98.3137
96.663
93.9357
91.458
89.2143
87.4388
85.9793
84.9018
84.0173
83.3703
82.8799
82.4998
82.2338
82.052
81.9402
81.8778
81.8608
81.8841
81.9383
82.0153
82.1058
82.1736
82.2048
82.2172
82.2227
82.2252
82.2274
82.2287
82.2304
82.2313
82.2327
82.2331
82.2341
82.2343
82.2348
82.2348
82.235
82.2347
82.2346
82.2343
82.234
82.2337
82.2335
82.2332
82.2324
82.2334
82.231
82.2345
82.2284
82.2385
82.2226
82.2482
82.1999
82.1928
82.1129
84.3929
87.2851
83.0763
79.3965
76.2504
74.2381
72.9596
72.0512
71.5468
71.2083
71.0455
70.9205
70.8779
70.9237
70.9194
70.854
70.9051
70.9494
70.941
70.9976
71.0506
71.0469
71.0663
71.0939
71.088
71.1086
71.134
71.1289
71.1416
71.1555
71.1437
71.1518
71.1611
71.1462
71.1532
71.1596
71.1468
71.1526
71.1588
71.1484
71.1489
71.1602
71.1523
71.1501
71.1604
71.1593
71.1512
71.1599
71.1655
71.1568
71.1561
71.1679
71.1699
71.1598
71.1618
71.1731
71.1744
71.1666
71.1679
71.1744
71.1787
71.1779
71.1759
71.1779
71.1814
71.1857
71.1893
71.1923
71.1946
71.1966
71.1985
71.1999
71.2012
71.2025
71.2035
71.2049
71.2062
71.2075
71.209
71.2101
71.2119
71.2126
71.2136
71.2146
71.2167
71.2211
71.2195
71.2236
71.2263
71.2216
71.2314
71.2313
71.2262
71.2372
71.2364
71.2273
71.2457
71.2445
71.2294
71.2503
71.256
71.2329
71.2519
71.262
71.2411
71.2547
71.2621
71.251
71.2633
71.2676
71.2523
71.2665
71.2804
71.2649
71.269
71.2831
71.2759
71.2748
71.2938
71.2973
71.2852
71.2944
71.3068
71.2986
71.2938
71.3052
71.3107
71.3039
71.304
71.3103
71.3156
71.3124
71.3151
71.3154
71.3141
71.3228
71.3183
71.3169
71.3244
71.3179
71.3157
71.3295
71.32
71.3168
71.3369
71.329
71.3204
71.3435
71.3397
71.3281
71.3446
71.3453
71.3382
71.3499
71.3457
71.3401
71.3592
71.3544
71.3438
71.3589
71.3566
71.3484
71.3638
71.3582
71.3474
71.361
71.3574
71.3488
71.3642
71.3618
71.3533
71.3687
71.3664
71.3575
71.3727
71.3704
71.3612
71.3762
71.374
71.3643
71.3791
71.3771
71.3671
71.3816
71.3797
71.3694
71.3837
71.382
71.3714
71.3854
71.384
71.373
71.3869
71.3854
71.3744
71.3881
71.3871
71.3763
71.3882
71.3896
71.374
71.3902
71.387
71.3794
71.3913
71.3886
71.3817
71.3821
71.4073
71.3661
71.3968
71.3779
71.3958
71.3853
71.3837
71.3911
71.3813
71.4123
71.3631
71.4067
71.3637
71.421
71.3702
71.4018
71.3704
71.4117
71.3758
71.4061
71.3843
71.3988
71.3794
71.3954
71.3746
71.4147
71.4592
70.6793
67.3891
68.5808
74.9689
79.2867
81.2445
30.1705
53.1119
69.2183
76.2472
79.4778
79.2374
78.6793
77.3783
75.6935
74.1154
72.6533
71.4712
70.4503
69.6521
69.0059
68.4859
68.0773
67.7483
67.4992
67.3088
67.165
67.062
66.9872
66.9302
66.8668
66.7605
66.6239
66.4814
66.346
66.2219
66.1113
66.0135
65.9284
65.8542
65.7905
65.7354
65.6885
65.6482
65.6138
65.5845
65.5592
65.538
65.5193
65.5039
65.4899
65.479
65.4683
65.4602
65.4517
65.4467
65.4396
65.4384
65.4294
65.4348
65.4181
65.4377
65.3925
65.3806
65.2403
67.1864
70.2788
68.1126
65.4344
62.6988
60.7756
59.3665
58.3377
57.6689
57.1771
56.8878
56.6598
56.519
56.4886
56.4458
56.3623
56.3677
56.3846
56.3662
56.4075
56.4498
56.4511
56.4692
56.4937
56.4928
56.5124
56.5365
56.5376
56.5511
56.5662
56.561
56.569
56.5791
56.5701
56.5758
56.5824
56.5738
56.578
56.5837
56.5766
56.5765
56.5851
56.58
56.5777
56.5853
56.5847
56.5783
56.5846
56.5895
56.5834
56.5818
56.5905
56.593
56.5857
56.586
56.5944
56.5967
56.5912
56.5906
56.5952
56.5993
56.5994
56.5974
56.598
56.6002
56.6033
56.6063
56.609
56.6111
56.613
56.6147
56.616
56.6172
56.6184
56.6193
56.6204
56.6215
56.6224
56.6236
56.6245
56.626
56.6266
56.6272
56.6279
56.6296
56.6332
56.6321
56.6352
56.6373
56.634
56.6411
56.6418
56.6379
56.6458
56.6458
56.6388
56.6522
56.6524
56.6407
56.6556
56.661
56.6434
56.657
56.6659
56.6502
56.6596
56.666
56.658
56.6668
56.6703
56.6582
56.6685
56.68
56.6693
56.671
56.6816
56.6766
56.6747
56.6888
56.6929
56.6841
56.6914
56.7017
56.6965
56.6918
56.6999
56.7052
56.7009
56.6996
56.7043
56.709
56.7073
56.7092
56.7096
56.7089
56.7157
56.7131
56.7119
56.7175
56.7129
56.7106
56.7207
56.7139
56.7104
56.7254
56.7206
56.7132
56.7299
56.7289
56.7196
56.7311
56.7331
56.7279
56.7364
56.7337
56.7292
56.7433
56.7414
56.7329
56.7434
56.743
56.7369
56.7482
56.7453
56.7365
56.7458
56.7438
56.7365
56.7473
56.7465
56.7396
56.7505
56.7499
56.7428
56.7535
56.753
56.7456
56.7562
56.7557
56.748
56.7584
56.758
56.7501
56.7603
56.7599
56.7518
56.7618
56.7616
56.7532
56.763
56.7629
56.7543
56.764
56.7639
56.7553
56.7649
56.765
56.7566
56.7649
56.7667
56.755
56.7661
56.765
56.7587
56.7672
56.7664
56.7605
56.7599
56.7788
56.7507
56.7704
56.7571
56.7705
56.7639
56.761
56.7672
56.7599
56.7823
56.7488
56.777
56.7457
56.7887
56.7542
56.7764
56.7487
56.7819
56.7571
56.7791
56.764
56.7752
56.7603
56.7742
56.758
56.7892
56.8472
56.466
53.4719
52.7449
57.196
60.5431
62.7662
16.7911
32.1407
46.4027
57.035
63.7942
65.8872
66.5417
66.2554
65.6643
64.7049
63.553
62.4828
61.4763
60.6262
59.8856
59.2709
58.7587
58.3206
57.9635
57.663
57.4089
57.1967
57.0075
56.8257
56.6033
56.3207
56.0339
55.7583
55.5027
55.2704
55.0628
54.879
54.7181
54.5778
54.4567
54.3522
54.2626
54.1859
54.1202
54.0644
54.0162
53.9758
53.9403
53.9111
53.8848
53.8639
53.8441
53.8287
53.8135
53.8029
53.7916
53.7858
53.7746
53.7751
53.759
53.7713
53.7328
53.7138
53.551
55.2148
57.9528
57.0657
55.2652
53.0809
51.3753
49.9574
48.9079
48.1468
47.5657
47.1813
46.8727
46.6531
46.5528
46.4655
46.3602
46.3253
46.3132
46.2814
46.303
46.3305
46.3296
46.3439
46.363
46.3632
46.3808
46.4019
46.4056
46.4191
46.4337
46.4326
46.4407
46.4506
46.4456
46.451
46.4572
46.4515
46.4552
46.4602
46.4553
46.4553
46.4619
46.4584
46.4565
46.4623
46.4618
46.4567
46.4615
46.4655
46.4611
46.4596
46.466
46.4682
46.463
46.4627
46.469
46.4712
46.4674
46.4663
46.4696
46.4731
46.4734
46.4718
46.4719
46.4731
46.4753
46.4777
46.48
46.482
46.4837
46.4853
46.4866
46.4877
46.4888
46.4896
46.4905
46.4915
46.4922
46.4932
46.4939
46.4951
46.4957
46.4962
46.4967
46.4981
46.501
46.5002
46.5027
46.5043
46.5019
46.5074
46.5082
46.5053
46.5113
46.5115
46.5063
46.5163
46.5168
46.5078
46.519
46.5233
46.5098
46.5204
46.5276
46.5155
46.5228
46.5279
46.522
46.5288
46.5312
46.5218
46.5296
46.5387
46.5312
46.5321
46.5399
46.5363
46.5345
46.5451
46.5488
46.5425
46.5485
46.5569
46.5536
46.5498
46.5558
46.5603
46.5575
46.5561
46.5597
46.5635
46.5626
46.5643
46.5647
46.5645
46.5699
46.5682
46.5674
46.5718
46.5683
46.5664
46.5739
46.5687
46.5658
46.577
46.5736
46.5678
46.5803
46.5802
46.5731
46.5815
46.5836
46.58
46.5863
46.5845
46.5811
46.5919
46.591
46.5846
46.5923
46.5924
46.5882
46.5968
46.5951
46.5883
46.5949
46.5935
46.5877
46.5954
46.5951
46.5897
46.5977
46.5976
46.5922
46.6001
46.6
46.5944
46.6022
46.6022
46.5963
46.6039
46.604
46.598
46.6054
46.6055
46.5993
46.6066
46.6067
46.6004
46.6075
46.6077
46.6012
46.6083
46.6085
46.6019
46.6089
46.6092
46.6027
46.6089
46.6104
46.6017
46.6098
46.6093
46.6043
46.6107
46.6106
46.6057
46.6051
46.6189
46.5994
46.6127
46.6028
46.6132
46.6084
46.6058
46.6105
46.6054
46.6215
46.5983
46.6167
46.5948
46.6257
46.6025
46.6183
46.596
46.6208
46.604
46.6203
46.6094
46.6184
46.6072
46.6184
46.6064
46.6308
46.6882
46.4464
43.9218
42.3222
45.4103
47.9437
49.8611
9.52259
18.9307
28.8711
39.4311
48.5776
53.7745
56.4155
57.1309
57.1222
56.8598
56.3736
55.6825
54.8856
54.1284
53.4019
52.7589
52.1958
51.7002
51.2698
50.883
50.5351
50.2222
49.9167
49.5944
49.1998
48.7591
48.3428
47.9543
47.5973
47.2736
46.984
46.7274
46.5023
46.3059
46.1359
45.9893
45.8632
45.7553
45.6627
45.584
45.5161
45.4591
45.4093
45.368
45.3311
45.3015
45.274
45.2521
45.2315
45.2158
45.2009
45.1912
45.1781
45.1744
45.1589
45.1649
45.1327
45.109
44.949
46.362
48.6722
48.4536
47.3534
45.7059
44.2784
42.9488
41.9382
41.1418
40.522
40.0751
39.7105
39.4322
39.2735
39.1438
39.0156
38.9457
38.9057
38.8586
38.8588
38.8697
38.8622
38.8699
38.8821
38.8804
38.8947
38.9115
38.9154
38.9278
38.941
38.9418
38.9498
38.959
38.9563
38.9617
38.9674
38.9635
38.9671
38.9714
38.968
38.9682
38.9734
38.9709
38.9695
38.9741
38.9734
38.9695
38.9732
38.9763
38.9731
38.9718
38.9768
38.9784
38.9746
38.9743
38.9791
38.9809
38.9781
38.9771
38.9796
38.9823
38.9828
38.9816
38.9814
38.9821
38.9836
38.9855
38.9874
38.9891
38.9907
38.9922
38.9934
38.9944
38.9954
38.9963
38.9971
38.9979
38.9985
38.9993
39
39.001
39.0015
39.002
39.0025
39.0035
39.0058
39.0053
39.0073
39.0086
39.0068
39.0112
39.0119
39.0098
39.0145
39.0147
39.0108
39.0185
39.019
39.0121
39.0209
39.0241
39.0134
39.0223
39.0278
39.0185
39.0243
39.0283
39.0238
39.0294
39.031
39.0238
39.0298
39.0368
39.0314
39.0321
39.0379
39.0352
39.0337
39.0419
39.045
39.0404
39.0455
39.0523
39.0502
39.0473
39.0519
39.0556
39.0538
39.0527
39.0555
39.0586
39.0581
39.0596
39.0601
39.0602
39.0646
39.0635
39.0631
39.0666
39.0638
39.0624
39.068
39.0638
39.0616
39.0702
39.0675
39.0631
39.0727
39.0727
39.0673
39.0737
39.0756
39.0731
39.0781
39.0767
39.0743
39.0828
39.0823
39.0775
39.0833
39.0836
39.0807
39.0875
39.0864
39.0812
39.0861
39.085
39.0804
39.0861
39.0858
39.0817
39.0877
39.0877
39.0836
39.0896
39.0896
39.0854
39.0913
39.0914
39.087
39.0927
39.0929
39.0883
39.094
39.0941
39.0894
39.0949
39.0951
39.0903
39.0957
39.0959
39.0909
39.0963
39.0965
39.0915
39.0968
39.097
39.0919
39.0968
39.0979
39.0914
39.0975
39.0972
39.0934
39.0981
39.0984
39.0943
39.094
39.1041
39.0902
39.0996
39.0919
39.1002
39.0966
39.0945
39.0979
39.0944
39.1061
39.0895
39.1018
39.0868
39.1088
39.0926
39.1042
39.0875
39.1053
39.0935
39.1062
39.098
39.1054
39.0971
39.1057
39.097
39.1164
39.1642
38.9116
36.862
34.9682
37.1507
39.0632
40.6084
5.48225
11.3331
17.3306
25.1099
33.9878
41.4322
46.3835
48.8523
49.8836
50.1346
50.004
49.7799
49.4189
48.9285
48.3574
47.7901
47.2435
46.7424
46.2771
45.8364
45.4124
44.9996
44.5647
44.0807
43.526
42.9745
42.4573
41.978
41.539
41.1415
40.7859
40.471
40.1945
39.9535
39.7446
39.5643
39.4092
39.2764
39.1624
39.0654
38.9819
38.9115
38.8503
38.7992
38.754
38.7171
38.6837
38.6565
38.6317
38.612
38.5942
38.5812
38.5666
38.5596
38.5447
38.5456
38.5187
38.4932
38.3541
39.5338
41.4787
41.5819
40.9549
39.7577
38.6101
37.4345
36.5019
35.713
35.0906
34.6104
34.2145
33.8969
33.6942
33.5279
33.3785
33.2789
33.2138
33.1509
33.1302
33.124
33.1075
33.1064
33.1105
33.105
33.1144
33.1262
33.1284
33.1388
33.1497
33.1508
33.1581
33.1661
33.1647
33.1697
33.1748
33.1721
33.1755
33.1793
33.1768
33.1773
33.1814
33.1795
33.1785
33.1822
33.1815
33.1784
33.1813
33.1837
33.1812
33.1803
33.1842
33.1854
33.1825
33.1823
33.186
33.1874
33.1854
33.1845
33.1864
33.1886
33.189
33.1882
33.1879
33.1883
33.1894
33.1908
33.1924
33.1939
33.1953
33.1966
33.1978
33.1987
33.1997
33.2005
33.2012
33.2019
33.2025
33.2032
33.2038
33.2046
33.2051
33.2057
33.206
33.2069
33.2086
33.2083
33.2101
33.2111
33.2097
33.2133
33.2139
33.2124
33.2161
33.2163
33.2135
33.2196
33.2199
33.2144
33.2216
33.224
33.2155
33.2228
33.2272
33.2199
33.2246
33.2278
33.2243
33.229
33.2302
33.2245
33.2292
33.2347
33.2306
33.2312
33.2357
33.2336
33.2325
33.2389
33.2414
33.2381
33.2424
33.248
33.2465
33.2444
33.2483
33.2513
33.2501
33.2492
33.2516
33.254
33.2538
33.2552
33.2557
33.2561
33.2597
33.2589
33.2588
33.2616
33.2594
33.2584
33.2627
33.2592
33.2576
33.2644
33.262
33.2586
33.2662
33.2663
33.2621
33.2672
33.2688
33.2671
33.271
33.2699
33.2683
33.2751
33.2748
33.2711
33.2757
33.276
33.2741
33.2796
33.2788
33.2748
33.2787
33.2776
33.274
33.2784
33.278
33.2748
33.2795
33.2794
33.2763
33.281
33.281
33.2778
33.2825
33.2825
33.2791
33.2837
33.2837
33.2803
33.2847
33.2848
33.2812
33.2856
33.2856
33.282
33.2862
33.2863
33.2825
33.2867
33.2868
33.283
33.2871
33.2873
33.2832
33.2873
33.288
33.283
33.2877
33.2875
33.2846
33.2882
33.2887
33.2853
33.2851
33.2927
33.2824
33.2894
33.2833
33.2901
33.2871
33.2856
33.288
33.2857
33.2943
33.2821
33.2906
33.2803
33.2961
33.2843
33.2928
33.2809
33.2936
33.285
33.2951
33.2888
33.295
33.2888
33.2952
33.2891
33.3045
33.3385
33.0427
31.4185
29.7353
31.1486
32.5428
33.7695
3.44178
6.69563
10.6146
15.4236
21.936
29.3434
35.8275
40.2219
42.8292
44.0287
44.4995
44.5804
44.4457
44.2558
43.9869
43.6291
43.1911
42.7458
42.2881
41.8273
41.3432
40.8271
40.2541
39.6183
38.9625
38.3439
37.7563
37.2104
36.7104
36.2582
35.8542
35.4969
35.1835
34.9105
34.6739
34.4697
34.2941
34.1436
34.0144
33.9044
33.8098
33.7298
33.6604
33.6022
33.5513
33.509
33.4716
33.4404
33.4128
33.3902
33.3703
33.3549
33.3394
33.3299
33.3154
33.3128
33.2901
33.2651
33.1541
34.1185
35.7404
35.9914
35.6544
34.8064
33.9103
32.9165
32.0866
31.3394
30.7397
30.2504
29.8434
29.5058
29.2731
29.0783
28.9112
28.7881
28.7013
28.6236
28.5835
28.5607
28.5341
28.5229
28.5182
28.5077
28.5109
28.5172
28.5165
28.5238
28.5317
28.532
28.5381
28.5445
28.5434
28.5479
28.5522
28.5502
28.5533
28.5564
28.5545
28.5551
28.5585
28.5569
28.5562
28.5592
28.5586
28.5562
28.5584
28.5603
28.5583
28.5577
28.5607
28.5616
28.5594
28.5593
28.5623
28.5633
28.5617
28.561
28.5626
28.5643
28.5647
28.5641
28.5639
28.5641
28.5648
28.5659
28.5672
28.5685
28.5697
28.571
28.572
28.5729
28.5738
28.5746
28.5752
28.5759
28.5765
28.5771
28.5776
28.5783
28.5788
28.5793
28.5797
28.5804
28.5818
28.5815
28.5831
28.5839
28.5828
28.5858
28.5863
28.5852
28.5883
28.5884
28.5863
28.5913
28.5914
28.5871
28.5931
28.5948
28.5881
28.5941
28.5976
28.5919
28.5958
28.5983
28.5957
28.5995
28.6004
28.596
28.5997
28.6041
28.6009
28.6015
28.6049
28.6033
28.6025
28.6077
28.6096
28.6073
28.6109
28.6155
28.6145
28.6131
28.6163
28.6188
28.618
28.6174
28.6194
28.6214
28.6213
28.6226
28.6231
28.6236
28.6267
28.6261
28.6261
28.6285
28.6267
28.6261
28.6294
28.6266
28.6253
28.6309
28.6287
28.6261
28.6322
28.6322
28.6289
28.6331
28.6344
28.6332
28.6365
28.6356
28.6345
28.6401
28.6398
28.637
28.6407
28.641
28.6397
28.6443
28.6436
28.6406
28.6437
28.6428
28.6399
28.6433
28.643
28.6405
28.6442
28.644
28.6416
28.6454
28.6453
28.6429
28.6466
28.6466
28.644
28.6477
28.6477
28.645
28.6486
28.6486
28.6459
28.6493
28.6494
28.6465
28.6499
28.65
28.6471
28.6504
28.6505
28.6475
28.6508
28.6509
28.6476
28.651
28.6515
28.6476
28.6514
28.6511
28.6489
28.6517
28.6523
28.6494
28.6495
28.6552
28.6475
28.6528
28.648
28.6534
28.6509
28.6499
28.6516
28.6501
28.6565
28.6473
28.6534
28.6463
28.6578
28.6489
28.6552
28.6468
28.6561
28.6496
28.6577
28.6528
28.6579
28.6533
28.6581
28.6538
28.6661
28.6861
28.398
27.1127
25.786
26.6364
27.6183
28.56
2.32804
4.16386
6.44467
9.72602
13.7933
19.282
25.483
31.0548
35.1906
37.7208
39.1827
39.8374
40.0742
40.0837
39.9602
39.7787
39.5358
39.2224
38.8253
38.3717
37.8485
37.2416
36.559
35.8412
35.1553
34.4982
33.869
33.2815
32.7432
32.2572
31.824
31.4416
31.1068
30.8154
30.5631
30.3454
30.1581
29.9975
29.8597
29.7421
29.6412
29.5555
29.4816
29.419
29.3649
29.3192
29.2798
29.2461
29.2171
29.1926
29.1715
29.1547
29.1386
29.1276
29.1137
29.1086
29.0895
29.0664
28.9833
29.7493
31.0774
31.3706
31.2052
30.613
29.9274
29.1147
28.3985
27.7185
27.1589
26.6806
26.2774
25.9366
25.6869
25.4726
25.2924
25.1519
25.0476
24.9568
24.8998
24.8617
24.8248
24.8032
24.7893
24.7732
24.7696
24.7698
24.7655
24.7689
24.7733
24.7722
24.7764
24.7809
24.7796
24.7832
24.7865
24.7848
24.7874
24.7899
24.7884
24.789
24.7917
24.7904
24.7899
24.7924
24.7918
24.7899
24.7916
24.7931
24.7916
24.7911
24.7936
24.7942
24.7925
24.7926
24.7949
24.7957
24.7945
24.794
24.7953
24.7966
24.797
24.7966
24.7964
24.7965
24.7971
24.798
24.799
24.8001
24.8012
24.8023
24.8032
24.8041
24.8049
24.8056
24.8063
24.8069
24.8074
24.808
24.8085
24.8091
24.8096
24.8101
24.8105
24.8111
24.8121
24.812
24.8133
24.814
24.8132
24.8157
24.8161
24.8153
24.8179
24.818
24.8165
24.8205
24.8206
24.8173
24.8221
24.8234
24.8183
24.8231
24.8258
24.8215
24.8246
24.8267
24.8247
24.8278
24.8285
24.8252
24.8282
24.8316
24.8292
24.8297
24.8324
24.8312
24.8307
24.8349
24.8364
24.8348
24.8378
24.8416
24.8409
24.84
24.8427
24.8448
24.8443
24.844
24.8457
24.8473
24.8474
24.8486
24.849
24.8496
24.8523
24.8518
24.852
24.854
24.8525
24.8521
24.8548
24.8524
24.8516
24.8561
24.8541
24.8522
24.8571
24.8571
24.8545
24.8579
24.859
24.8582
24.8608
24.8602
24.8595
24.8641
24.8638
24.8617
24.8648
24.865
24.8642
24.868
24.8675
24.8652
24.8677
24.8669
24.8647
24.8674
24.867
24.8651
24.868
24.8678
24.866
24.869
24.8689
24.8671
24.8701
24.87
24.8681
24.871
24.871
24.869
24.8719
24.8719
24.8698
24.8726
24.8726
24.8704
24.8732
24.8732
24.8709
24.8737
24.8737
24.8714
24.8741
24.8741
24.8715
24.8742
24.8746
24.8716
24.8747
24.8744
24.8727
24.8748
24.8754
24.8731
24.8733
24.8776
24.8718
24.8759
24.8721
24.8765
24.8744
24.8737
24.875
24.874
24.8788
24.8719
24.8763
24.8714
24.8798
24.873
24.8777
24.8718
24.8786
24.8737
24.8801
24.8764
24.8805
24.877
24.8806
24.8776
24.8875
24.8973
24.6651
23.644
22.6415
23.1437
23.8227
24.5317
1.62651
2.87735
4.13667
6.12345
8.97677
12.4713
17.0262
22.2213
27.0868
30.8842
33.4547
34.9984
35.8701
36.2647
36.3813
36.3291
36.1704
35.9143
35.5647
35.1293
34.5995
33.9662
33.2682
32.5654
31.8835
31.2142
30.5702
29.9668
29.4141
28.9163
28.474
28.0844
27.744
27.448
27.1917
26.9706
26.7803
26.617
26.4769
26.357
26.2543
26.1668
26.0915
26.0274
25.9723
25.9254
25.8855
25.8509
25.8215
25.7964
25.7749
25.7575
25.7414
25.7297
25.7165
25.7099
25.6937
25.6734
25.6144
26.1969
27.2622
27.5338
27.4567
27.0418
26.5225
25.8732
25.2698
24.6715
24.1633
23.7121
23.3248
22.9925
22.7368
22.5123
22.3241
22.172
22.0541
21.9528
21.8817
21.83
21.7834
21.7518
21.7289
21.7068
21.6962
21.6902
21.682
21.6811
21.6818
21.6786
21.6806
21.683
21.681
21.6834
21.6856
21.684
21.6859
21.6877
21.6865
21.6869
21.6891
21.6879
21.6876
21.6896
21.6891
21.6877
21.689
21.6902
21.689
21.6887
21.6907
21.6912
21.6899
21.69
21.6919
21.6925
21.6916
21.6913
21.6923
21.6934
21.6937
21.6935
21.6934
21.6935
21.694
21.6947
21.6955
21.6964
21.6974
21.6983
21.6992
21.7
21.7008
21.7015
21.7021
21.7027
21.7032
21.7037
21.7042
21.7048
21.7053
21.7057
21.7061
21.7066
21.7075
21.7075
21.7086
21.7091
21.7087
21.7107
21.7111
21.7105
21.7126
21.7127
21.7117
21.715
21.715
21.7126
21.7165
21.7175
21.7137
21.7174
21.7195
21.7164
21.7189
21.7205
21.7191
21.7216
21.7222
21.7198
21.7222
21.7248
21.723
21.7236
21.7257
21.7248
21.7245
21.7279
21.7292
21.7281
21.7306
21.7337
21.7333
21.7328
21.7352
21.7369
21.7366
21.7366
21.738
21.7394
21.7396
21.7406
21.7411
21.7417
21.7439
21.7436
21.7439
21.7456
21.7444
21.7442
21.7464
21.7444
21.7438
21.7475
21.7459
21.7444
21.7484
21.7483
21.7464
21.7492
21.75
21.7495
21.7517
21.7512
21.7508
21.7546
21.7544
21.7529
21.7554
21.7556
21.7551
21.7582
21.7578
21.7561
21.7582
21.7575
21.7558
21.758
21.7576
21.7561
21.7585
21.7583
21.7569
21.7593
21.7593
21.7579
21.7603
21.7603
21.7588
21.7612
21.7612
21.7597
21.762
21.762
21.7604
21.7627
21.7627
21.761
21.7633
21.7633
21.7616
21.7638
21.7638
21.7621
21.7642
21.7642
21.7623
21.7644
21.7647
21.7624
21.7649
21.7647
21.7634
21.765
21.7656
21.7638
21.7641
21.7673
21.7629
21.766
21.7631
21.7666
21.7649
21.7645
21.7654
21.7648
21.7684
21.7632
21.7664
21.7631
21.7693
21.764
21.7675
21.7633
21.7685
21.7647
21.7697
21.7669
21.7701
21.7675
21.7702
21.7681
21.7759
21.7807
21.6077
20.822
20.0827
20.389
20.8594
21.3881
1.17972
2.1244
2.93496
4.08476
5.87485
8.39741
11.3428
15.1465
19.4825
23.7247
27.2197
29.7607
31.4075
32.3996
32.9404
33.1462
33.14
32.9529
32.6258
32.18
31.6354
31.0192
30.3594
29.6923
29.0249
28.3662
27.7314
27.1364
26.5928
26.1052
25.6732
25.2936
24.9622
24.6741
24.4246
24.2091
24.0234
23.8638
23.7267
23.6092
23.5085
23.4224
23.3485
23.2853
23.2311
23.1848
23.1456
23.1115
23.0827
23.0578
23.0367
23.0193
23.0038
22.9919
22.9796
22.9723
22.9587
22.9414
22.9012
23.3141
24.1457
24.3597
24.3151
24.0171
23.6202
23.1081
22.6083
22.0953
21.6442
21.2311
20.8688
20.5526
20.2995
20.0731
19.8817
19.7228
19.5954
19.4862
19.4039
19.3407
19.2855
19.2447
19.2136
19.1856
19.1683
19.1563
19.1441
19.1388
19.1356
19.1303