/*--------------------------------*- C++ -*----------------------------------*\
| =========                 |                                                 |
| \\      /  F ield         | foam-extend: Open Source CFD                    |
|  \\    /   O peration     | Version:     3.2                                |
|   \\  /    A nd           | Web:         http://www.foam-extend.org         |
|    \\/     M anipulation  | For copyright notice see file Copyright         |
\*---------------------------------------------------------------------------*/
FoamFile
{
    version     2.0;
    format      ascii;
    class       volScalarField;
    location    "50";
    object      p;
}
// * * * * * * * * * * * * * * * * * * * * * * * * * * * * * * * * * * * * * //

dimensions      [1 -1 -2 0 0 0 0];

internalField   nonuniform List<scalar> 
5400
(
1907.15
1854.73
1866.05
1848.72
1848.36
1839.01
1835.83
1828.96
1825.14
1819.48
1815.43
1810.44
1806.32
1801.75
1797.59
1793.26
1789.11
1784.86
1780.74
1776.57
1772.39
1768.16
1763.91
1759.57
1755.19
1750.7
1746.12
1741.4
1736.59
1731.69
1726.72
1721.68
1716.6
1711.46
1706.29
1701.09
1695.86
1690.61
1685.35
1680.06
1674.77
1669.46
1664.16
1658.83
1653.51
1648.16
1642.85
1637.48
1632.19
1626.75
1621.56
1615.94
1611.03
1604.96
1600.77
1593.53
1591.21
1580.96
1583.39
1570.81
1597.62
1620.45
1622.29
1631.23
1628.34
1631.09
1627.11
1626.62
1622.67
1620.56
1616.78
1613.84
1609.96
1607.32
1603.63
1599.91
1596.36
1592.96
1589.02
1585.68
1582.33
1578.62
1575.11
1571.74
1568.01
1564.59
1561.22
1557.59
1554.18
1550.85
1547.23
1543.83
1540.52
1536.88
1533.52
1530.16
1526.57
1523.19
1519.8
1516.29
1512.81
1509.49
1505.95
1502.48
1499.11
1495.65
1492.13
1488.74
1485.33
1481.82
1478.34
1474.96
1471.51
1468.01
1464.55
1461.16
1457.71
1454.22
1450.77
1447.34
1443.91
1440.45
1436.99
1433.55
1430.1
1426.66
1423.22
1419.78
1416.34
1412.91
1409.48
1406.04
1402.61
1399.18
1395.74
1392.31
1388.88
1385.44
1382.01
1378.57
1375.13
1371.69
1368.24
1364.79
1361.3
1357.88
1354.37
1350.91
1347.49
1343.92
1340.55
1337.07
1333.53
1330.14
1326.69
1323.06
1319.76
1316.29
1312.62
1309.33
1305.92
1302.19
1298.89
1295.51
1291.79
1288.45
1285.03
1281.4
1278.05
1274.57
1270.96
1267.53
1264.17
1260.53
1257.05
1253.63
1250.08
1246.5
1243.14
1239.64
1236.06
1232.62
1229.23
1225.68
1222.14
1218.72
1215.26
1211.72
1208.25
1204.77
1201.33
1197.78
1194.32
1190.83
1187.28
1183.9
1180.35
1176.85
1173.44
1169.9
1166.33
1162.99
1159.38
1155.8
1152.48
1148.9
1145.25
1141.95
1138.41
1134.76
1131.4
1127.9
1124.28
1120.9
1117.34
1113.73
1110.39
1106.86
1103.22
1099.86
1096.33
1092.72
1089.37
1085.84
1082.21
1078.84
1075.3
1071.66
1068.29
1064.76
1061.12
1057.75
1054.21
1050.57
1047.19
1043.66
1040.01
1036.64
1033.11
1029.45
1026.08
1022.55
1018.89
1015.51
1011.99
1008.33
1004.95
1001.42
997.761
994.375
990.854
987.189
983.804
980.281
976.613
973.232
969.693
966.061
962.621
959.18
955.42
952.117
948.516
944.891
941.54
937.898
934.519
930.598
927.78
923.374
920.726
916.35
913.532
909.562
906.085
902.814
898.688
896.113
891.373
889.114
884.263
882.2
877.178
875.068
870.151
868.044
863.136
860.977
856.19
853.864
849.226
846.795
842.131
839.943
832.333
813.352
768.351
727.735
741.118
722.794
1890.77
1838.55
1849.81
1832.44
1832.09
1822.73
1819.55
1812.68
1808.86
1803.19
1799.15
1794.16
1790.04
1785.47
1781.3
1776.97
1772.82
1768.58
1764.46
1760.28
1756.11
1751.88
1747.62
1743.29
1738.9
1734.42
1729.83
1725.11
1720.31
1715.41
1710.44
1705.4
1700.31
1695.17
1690.01
1684.8
1679.58
1674.32
1669.06
1663.78
1658.49
1653.18
1647.87
1642.54
1637.23
1631.88
1626.56
1621.2
1615.9
1610.47
1605.28
1599.65
1594.75
1588.67
1584.48
1577.25
1574.92
1564.68
1567.13
1554.6
1581.35
1604.12
1605.98
1614.91
1612.04
1614.77
1610.8
1610.32
1606.37
1604.26
1600.48
1597.54
1593.66
1591.02
1587.32
1583.6
1580.05
1576.65
1572.71
1569.37
1566.02
1562.31
1558.81
1555.44
1551.71
1548.28
1544.92
1541.29
1537.88
1534.55
1530.93
1527.53
1524.22
1520.58
1517.22
1513.86
1510.27
1506.89
1503.5
1499.98
1496.51
1493.19
1489.65
1486.18
1482.8
1479.35
1475.82
1472.44
1469.02
1465.52
1462.03
1458.65
1455.2
1451.7
1448.24
1444.86
1441.4
1437.92
1434.46
1431.04
1427.6
1424.14
1420.69
1417.24
1413.79
1410.35
1406.91
1403.48
1400.04
1396.61
1393.17
1389.74
1386.31
1382.87
1379.44
1376.01
1372.57
1369.14
1365.7
1362.27
1358.83
1355.39
1351.94
1348.48
1344.99
1341.58
1338.06
1334.61
1331.18
1327.62
1324.25
1320.77
1317.22
1313.83
1310.39
1306.76
1303.46
1299.99
1296.32
1293.02
1289.62
1285.88
1282.58
1279.2
1275.49
1272.14
1268.72
1265.09
1261.75
1258.27
1254.65
1251.22
1247.86
1244.23
1240.74
1237.33
1233.78
1230.2
1226.83
1223.34
1219.76
1216.32
1212.93
1209.38
1205.83
1202.41
1198.96
1195.42
1191.94
1188.46
1185.02
1181.48
1178.02
1174.52
1170.98
1167.6
1164.05
1160.54
1157.14
1153.6
1150.03
1146.69
1143.08
1139.5
1136.18
1132.6
1128.95
1125.65
1122.11
1118.46
1115.1
1111.6
1107.97
1104.6
1101.03
1097.42
1094.09
1090.55
1086.91
1083.55
1080.03
1076.41
1073.07
1069.54
1065.9
1062.54
1059
1055.36
1051.99
1048.46
1044.81
1041.44
1037.91
1034.26
1030.89
1027.36
1023.71
1020.33
1016.8
1013.15
1009.77
1006.24
1002.59
999.209
995.682
992.025
988.642
985.117
981.457
978.071
974.55
970.885
967.5
963.978
960.31
956.928
953.39
949.758
946.317
942.877
939.116
935.814
932.213
928.587
925.237
921.594
918.215
914.295
911.476
907.071
904.422
900.047
897.228
893.259
889.782
886.51
882.384
879.81
875.07
872.81
867.96
865.896
860.874
858.764
853.848
851.74
846.833
844.673
839.888
837.56
832.923
830.492
825.829
823.632
815.952
796.963
752.121
711.529
724.843
706.513
1874.17
1822.43
1833.6
1816.19
1815.82
1806.45
1803.27
1796.4
1792.58
1786.91
1782.87
1777.87
1773.75
1769.18
1765.02
1760.69
1756.54
1752.29
1748.17
1744
1739.82
1735.59
1731.34
1727
1722.62
1718.13
1713.54
1708.83
1704.02
1699.12
1694.15
1689.11
1684.02
1678.89
1673.72
1668.52
1663.29
1658.04
1652.78
1647.49
1642.2
1636.89
1631.59
1626.26
1620.94
1615.59
1610.28
1604.91
1599.62
1594.18
1588.99
1583.37
1578.46
1572.39
1568.2
1560.96
1558.64
1548.39
1550.91
1538.43
1565.08
1587.76
1589.62
1598.54
1595.68
1598.41
1594.44
1593.96
1590.01
1587.9
1584.13
1581.19
1577.31
1574.66
1570.97
1567.25
1563.7
1560.3
1556.36
1553.02
1549.67
1545.96
1542.46
1539.09
1535.36
1531.93
1528.57
1524.94
1521.53
1518.2
1514.58
1511.18
1507.87
1504.23
1500.87
1497.51
1493.92
1490.54
1487.15
1483.63
1480.16
1476.84
1473.3
1469.83
1466.45
1463
1459.47
1456.09
1452.67
1449.17
1445.68
1442.3
1438.85
1435.35
1431.89
1428.5
1425.05
1421.57
1418.11
1414.69
1411.25
1407.79
1404.34
1400.89
1397.44
1394
1390.56
1387.12
1383.69
1380.25
1376.82
1373.39
1369.96
1366.52
1363.09
1359.66
1356.22
1352.79
1349.35
1345.92
1342.48
1339.04
1335.58
1332.13
1328.64
1325.23
1321.71
1318.26
1314.83
1311.27
1307.9
1304.42
1300.87
1297.48
1294.04
1290.41
1287.11
1283.64
1279.97
1276.67
1273.27
1269.53
1266.23
1262.85
1259.14
1255.79
1252.37
1248.74
1245.4
1241.91
1238.3
1234.87
1231.51
1227.88
1224.39
1220.98
1217.43
1213.85
1210.48
1206.99
1203.41
1199.97
1196.58
1193.03
1189.49
1186.06
1182.61
1179.07
1175.6
1172.11
1168.67
1165.13
1161.67
1158.17
1154.63
1151.25
1147.7
1144.19
1140.79
1137.25
1133.68
1130.34
1126.73
1123.15
1119.83
1116.25
1112.6
1109.3
1105.76
1102.11
1098.75
1095.25
1091.62
1088.25
1084.69
1081.07
1077.74
1074.2
1070.56
1067.2
1063.68
1060.07
1056.72
1053.19
1049.56
1046.19
1042.65
1039.01
1035.64
1032.11
1028.46
1025.09
1021.56
1017.91
1014.54
1011.01
1007.36
1003.98
1000.45
996.801
993.422
989.895
986.24
982.859
979.333
975.675
972.292
968.767
965.108
961.722
958.201
954.536
951.15
947.629
943.961
940.578
937.04
933.409
929.968
926.527
922.767
919.464
915.863
912.238
908.887
905.244
901.866
897.945
895.126
890.721
888.072
883.699
880.877
876.91
873.432
870.161
866.035
863.46
858.721
856.461
851.61
849.546
844.525
842.415
837.499
835.39
830.485
828.322
823.54
821.21
816.574
814.142
809.479
807.288
799.465
780.496
735.85
695.403
708.582
690.236
1857.6
1806.34
1817.39
1799.95
1799.56
1790.19
1787
1780.13
1776.3
1770.63
1766.58
1761.59
1757.47
1752.9
1748.73
1744.4
1740.25
1736.01
1731.89
1727.71
1723.54
1719.3
1715.05
1710.72
1706.33
1701.84
1697.26
1692.54
1687.74
1682.83
1677.86
1672.82
1667.74
1662.6
1657.43
1652.23
1647.01
1641.75
1636.49
1631.21
1625.92
1620.61
1615.3
1609.97
1604.66
1599.31
1593.99
1588.63
1583.33
1577.9
1572.71
1567.09
1562.18
1556.1
1551.91
1544.68
1542.35
1532.1
1534.68
1522.24
1548.78
1571.35
1573.21
1582.1
1579.24
1581.98
1578.01
1577.53
1573.58
1571.47
1567.69
1564.75
1560.88
1558.23
1554.54
1550.82
1547.27
1543.87
1539.94
1536.59
1533.24
1529.53
1526.03
1522.66
1518.93
1515.5
1512.14
1508.51
1505.1
1501.77
1498.15
1494.75
1491.44
1487.8
1484.44
1481.08
1477.49
1474.11
1470.72
1467.2
1463.73
1460.41
1456.87
1453.4
1450.02
1446.57
1443.04
1439.66
1436.24
1432.74
1429.25
1425.87
1422.42
1418.92
1415.46
1412.07
1408.62
1405.14
1401.68
1398.26
1394.82
1391.36
1387.91
1384.46
1381.01
1377.57
1374.13
1370.7
1367.26
1363.83
1360.39
1356.96
1353.53
1350.09
1346.66
1343.23
1339.79
1336.36
1332.92
1329.49
1326.05
1322.61
1319.16
1315.7
1312.22
1308.8
1305.29
1301.83
1298.4
1294.84
1291.47
1287.99
1284.44
1281.05
1277.61
1273.98
1270.68
1267.21
1263.54
1260.24
1256.84
1253.1
1249.8
1246.42
1242.71
1239.36
1235.94
1232.31
1228.97
1225.49
1221.88
1218.44
1215.08
1211.45
1207.97
1204.55
1201
1197.42
1194.05
1190.56
1186.98
1183.54
1180.15
1176.6
1173.06
1169.64
1166.18
1162.64
1159.17
1155.69
1152.25
1148.7
1145.24
1141.75
1138.2
1134.82
1131.27
1127.77
1124.36
1120.82
1117.25
1113.91
1110.3
1106.72
1103.4
1099.82
1096.17
1092.87
1089.33
1085.68
1082.32
1078.82
1075.2
1071.82
1068.26
1064.65
1061.31
1057.78
1054.14
1050.77
1047.25
1043.64
1040.29
1036.76
1033.13
1029.76
1026.22
1022.58
1019.21
1015.68
1012.04
1008.66
1005.13
1001.49
998.111
994.58
990.932
987.555
984.026
980.374
976.995
973.468
969.814
966.431
962.906
959.249
955.865
952.34
948.682
945.294
941.773
938.11
934.723
931.201
927.534
924.151
920.613
916.982
913.54
910.1
906.341
903.036
899.436
895.812
892.46
888.817
885.44
881.519
878.699
874.295
871.644
867.274
864.449
860.484
857.006
853.734
849.609
847.032
842.295
840.034
835.184
833.119
828.099
825.988
821.072
818.963
814.059
811.893
807.114
804.782
800.147
797.714
793.053
790.859
782.891
764
719.528
679.354
692.323
673.96
1840.91
1790.32
1801.22
1783.71
1783.3
1773.92
1770.73
1763.85
1760.03
1754.36
1750.31
1745.31
1741.19
1736.62
1732.45
1728.12
1723.97
1719.72
1715.6
1711.43
1707.25
1703.02
1698.76
1694.43
1690.04
1685.56
1680.97
1676.25
1671.45
1666.55
1661.58
1656.54
1651.45
1646.32
1641.15
1635.94
1630.72
1625.47
1620.21
1614.92
1609.63
1604.32
1599.02
1593.69
1588.37
1583.03
1577.71
1572.34
1567.05
1561.61
1556.42
1550.8
1545.89
1539.82
1535.63
1528.39
1526.07
1515.82
1518.47
1506.03
1532.43
1554.86
1556.7
1565.57
1562.7
1565.44
1561.46
1560.98
1557.03
1554.92
1551.14
1548.21
1544.34
1541.68
1537.99
1534.28
1530.73
1527.33
1523.4
1520.05
1516.7
1512.99
1509.48
1506.11
1502.39
1498.96
1495.6
1491.97
1488.56
1485.23
1481.61
1478.21
1474.89
1471.26
1467.9
1464.53
1460.95
1457.57
1454.18
1450.66
1447.19
1443.86
1440.33
1436.86
1433.48
1430.03
1426.5
1423.12
1419.7
1416.2
1412.71
1409.33
1405.88
1402.38
1398.92
1395.53
1392.08
1388.6
1385.14
1381.72
1378.28
1374.82
1371.37
1367.92
1364.47
1361.03
1357.59
1354.16
1350.72
1347.29
1343.85
1340.42
1336.99
1333.55
1330.12
1326.69
1323.25
1319.82
1316.38
1312.95
1309.51
1306.07
1302.62
1299.16
1295.68
1292.26
1288.75
1285.29
1281.86
1278.3
1274.93
1271.45
1267.91
1264.51
1261.07
1257.44
1254.14
1250.67
1247.01
1243.7
1240.3
1236.57
1233.26
1229.88
1226.17
1222.83
1219.4
1215.78
1212.43
1208.95
1205.34
1201.9
1198.54
1194.91
1191.43
1188.01
1184.46
1180.88
1177.51
1174.02
1170.45
1167
1163.61
1160.06
1156.52
1153.1
1149.64
1146.11
1142.63
1139.15
1135.71
1132.16
1128.7
1125.21
1121.67
1118.28
1114.73
1111.23
1107.82
1104.28
1100.71
1097.37
1093.76
1090.18
1086.86
1083.29
1079.63
1076.33
1072.79
1069.14
1065.78
1062.28
1058.66
1055.29
1051.72
1048.11
1044.77
1041.24
1037.6
1034.24
1030.71
1027.1
1023.75
1020.23
1016.59
1013.22
1009.69
1006.05
1002.68
999.143
995.501
992.127
988.595
984.951
981.575
978.044
974.397
971.018
967.49
963.839
960.458
956.932
953.279
949.895
946.37
942.714
939.329
935.804
932.147
928.758
925.238
921.575
918.187
914.666
911
907.615
904.077
900.448
897.005
893.564
889.807
886.5
882.901
879.277
875.924
872.282
868.905
864.984
862.162
857.761
855.108
850.74
847.912
843.95
840.47
837.199
833.075
830.495
825.762
823.498
818.649
816.583
811.565
809.453
804.538
802.428
797.525
795.356
790.581
788.246
783.612
781.178
776.519
774.317
766.207
747.438
703.2
663.299
676.068
657.687
1824.34
1774.17
1785.07
1767.44
1767.03
1757.66
1754.46
1747.58
1743.76
1738.08
1734.03
1729.03
1724.91
1720.34
1716.17
1711.84
1707.68
1703.44
1699.32
1695.14
1690.97
1686.73
1682.48
1678.14
1673.76
1669.27
1664.68
1659.97
1655.16
1650.26
1645.29
1640.25
1635.17
1630.03
1624.86
1619.66
1614.44
1609.18
1603.92
1598.64
1593.35
1588.04
1582.73
1577.4
1572.09
1566.74
1561.42
1556.06
1550.76
1545.33
1540.14
1534.52
1529.61
1523.53
1519.34
1512.11
1509.79
1499.53
1502.25
1489.79
1516.01
1538.27
1540.07
1548.92
1546.02
1548.75
1544.77
1544.29
1540.34
1538.23
1534.45
1531.52
1527.65
1524.99
1521.3
1517.59
1514.04
1510.64
1506.71
1503.37
1500.01
1496.3
1492.8
1489.43
1485.7
1482.28
1478.91
1475.28
1471.87
1468.54
1464.92
1461.52
1458.21
1454.58
1451.21
1447.85
1444.26
1440.88
1437.49
1433.98
1430.5
1427.18
1423.64
1420.17
1416.79
1413.34
1409.82
1406.43
1403.01
1399.51
1396.03
1392.65
1389.19
1385.7
1382.24
1378.85
1375.4
1371.91
1368.46
1365.03
1361.6
1358.14
1354.68
1351.24
1347.79
1344.35
1340.91
1337.47
1334.04
1330.6
1327.17
1323.74
1320.3
1316.87
1313.44
1310
1306.57
1303.14
1299.7
1296.26
1292.83
1289.38
1285.93
1282.48
1278.99
1275.58
1272.06
1268.61
1265.18
1261.62
1258.25
1254.77
1251.22
1247.83
1244.38
1240.76
1237.45
1233.99
1230.32
1227.02
1223.61
1219.89
1216.58
1213.2
1209.49
1206.14
1202.72
1199.1
1195.75
1192.26
1188.66
1185.22
1181.86
1178.23
1174.75
1171.33
1167.78
1164.2
1160.83
1157.34
1153.77
1150.32
1146.93
1143.38
1139.84
1136.42
1132.96
1129.43
1125.95
1122.47
1119.03
1115.48
1112.02
1108.53
1104.99
1101.6
1098.05
1094.55
1091.14
1087.6
1084.03
1080.69
1077.08
1073.5
1070.18
1066.61
1062.96
1059.65
1056.11
1052.47
1049.1
1045.6
1041.98
1038.61
1035.04
1031.43
1028.09
1024.56
1020.92
1017.56
1014.04
1010.42
1007.07
1003.55
999.915
996.543
993.009
989.37
985.997
982.464
978.824
975.448
971.917
968.274
964.896
961.366
957.72
954.34
950.812
947.163
943.78
940.254
936.602
933.217
929.692
926.038
922.651
919.127
915.471
912.08
908.56
904.899
901.509
897.988
894.324
890.937
887.4
883.772
880.327
876.887
873.131
869.822
866.224
862.601
859.247
855.604
852.229
848.308
845.483
841.086
838.429
834.065
831.234
827.274
823.794
820.522
816.399
813.816
809.087
806.821
801.974
799.903
794.889
792.777
787.862
785.749
780.85
778.677
773.906
771.568
766.935
764.5
759.843
757.629
749.389
730.792
686.91
647.178
659.816
641.412
1807.87
1757.94
1768.92
1751.17
1750.76
1741.39
1738.19
1731.32
1727.49
1721.81
1717.75
1712.76
1708.63
1704.06
1699.89
1695.56
1691.4
1687.16
1683.03
1678.86
1674.68
1670.45
1666.2
1661.86
1657.47
1652.99
1648.4
1643.68
1638.88
1633.97
1629.01
1623.97
1618.88
1613.75
1608.58
1603.37
1598.15
1592.9
1587.64
1582.35
1577.06
1571.75
1566.45
1561.12
1555.8
1550.46
1545.14
1539.77
1534.48
1529.04
1523.85
1518.23
1513.32
1507.25
1503.06
1495.82
1493.5
1483.25
1486.03
1473.53
1499.52
1521.56
1523.3
1532.1
1529.18
1531.89
1527.9
1527.42
1523.47
1521.36
1517.58
1514.65
1510.78
1508.11
1504.42
1500.72
1497.17
1493.77
1489.84
1486.5
1483.14
1479.44
1475.93
1472.56
1468.84
1465.41
1462.04
1458.42
1455.01
1451.67
1448.06
1444.66
1441.34
1437.71
1434.35
1430.98
1427.4
1424.02
1420.62
1417.11
1413.64
1410.31
1406.78
1403.31
1399.93
1396.47
1392.96
1389.57
1386.15
1382.65
1379.16
1375.78
1372.33
1368.83
1365.38
1361.98
1358.53
1355.05
1351.59
1348.17
1344.73
1341.27
1337.82
1334.37
1330.93
1327.49
1324.05
1320.61
1317.17
1313.74
1310.31
1306.87
1303.44
1300.01
1296.57
1293.14
1289.71
1286.27
1282.84
1279.4
1275.97
1272.52
1269.07
1265.62
1262.13
1258.71
1255.2
1251.75
1248.32
1244.75
1241.39
1237.9
1234.36
1230.97
1227.52
1223.9
1220.59
1217.12
1213.46
1210.16
1206.75
1203.03
1199.72
1196.34
1192.63
1189.28
1185.86
1182.24
1178.88
1175.4
1171.8
1168.36
1165
1161.37
1157.89
1154.47
1150.92
1147.35
1143.97
1140.48
1136.91
1133.47
1130.07
1126.52
1122.98
1119.56
1116.1
1112.57
1109.09
1105.61
1102.17
1098.62
1095.16
1091.67
1088.13
1084.75
1081.2
1077.69
1074.28
1070.74
1067.18
1063.83
1060.23
1056.65
1053.32
1049.75
1046.1
1042.79
1039.25
1035.61
1032.25
1028.75
1025.13
1021.75
1018.19
1014.58
1011.23
1007.7
1004.07
1000.7
997.18
993.57
990.217
986.692
983.06
979.687
976.153
972.516
969.141
965.609
961.969
958.592
955.062
951.42
948.041
944.511
940.866
937.485
933.957
930.309
926.925
923.399
919.749
916.362
912.838
909.184
905.796
902.273
898.618
895.226
891.706
888.046
884.655
881.134
877.471
874.083
870.546
866.919
863.473
860.033
856.279
852.968
849.37
845.748
842.393
838.751
835.377
831.456
828.629
824.235
821.575
817.214
814.379
810.422
806.94
803.669
799.547
796.961
792.236
789.967
785.123
783.048
778.038
775.923
771.011
768.894
763.999
761.822
757.054
754.714
750.083
747.646
742.99
740.76
732.412
714.042
670.645
630.992
643.559
625.137
1791.37
1741.76
1752.72
1734.9
1734.5
1725.12
1721.92
1715.05
1711.21
1705.54
1701.48
1696.49
1692.36
1687.78
1683.61
1679.28
1675.12
1670.88
1666.75
1662.58
1658.4
1654.17
1649.91
1645.58
1641.19
1636.7
1632.11
1627.4
1622.59
1617.69
1612.72
1607.68
1602.6
1597.46
1592.29
1587.09
1581.87
1576.61
1571.35
1566.07
1560.78
1555.47
1550.16
1544.83
1539.52
1534.17
1528.86
1523.49
1518.2
1512.76
1507.57
1501.95
1497.04
1490.96
1486.78
1479.54
1477.22
1466.96
1469.81
1457.23
1482.94
1504.7
1506.35
1515.09
1512.14
1514.83
1510.82
1510.34
1506.38
1504.27
1500.49
1497.56
1493.69
1491.02
1487.33
1483.63
1480.08
1476.68
1472.76
1469.41
1466.05
1462.35
1458.85
1455.47
1451.76
1448.33
1444.96
1441.34
1437.92
1434.59
1430.98
1427.57
1424.26
1420.63
1417.27
1413.9
1410.32
1406.94
1403.54
1400.03
1396.56
1393.23
1389.7
1386.23
1382.85
1379.39
1375.87
1372.49
1369.07
1365.57
1362.08
1358.7
1355.25
1351.75
1348.3
1344.9
1341.45
1337.97
1334.51
1331.09
1327.65
1324.19
1320.74
1317.29
1313.85
1310.41
1306.97
1303.53
1300.09
1296.66
1293.23
1289.79
1286.36
1282.93
1279.5
1276.06
1272.63
1269.19
1265.76
1262.32
1258.89
1255.44
1251.99
1248.54
1245.05
1241.64
1238.12
1234.67
1231.24
1227.68
1224.31
1220.83
1217.29
1213.89
1210.45
1206.83
1203.51
1200.05
1196.39
1193.08
1189.68
1185.95
1182.64
1179.26
1175.56
1172.21
1168.79
1165.16
1161.81
1158.33
1154.73
1151.29
1147.93
1144.3
1140.82
1137.4
1133.85
1130.27
1126.9
1123.41
1119.84
1116.39
1113
1109.45
1105.91
1102.49
1099.03
1095.5
1092.02
1088.54
1085.1
1081.55
1078.09
1074.6
1071.06
1067.67
1064.13
1060.62
1057.21
1053.67
1050.11
1046.76
1043.16
1039.58
1036.25
1032.68
1029.03
1025.72
1022.18
1018.54
1015.18
1011.68
1008.06
1004.68
1001.12
997.511
994.164
990.636
987
983.633
980.112
976.502
973.148
969.624
965.993
962.618
959.085
955.449
952.072
948.541
944.903
941.524
937.995
934.354
930.973
927.445
923.8
920.417
916.891
913.244
909.858
906.333
902.684
899.295
895.772
892.12
888.73
885.207
881.553
878.159
874.64
870.982
867.589
864.069
860.407
857.018
853.481
849.855
846.408
842.968
839.215
835.903
832.306
828.684
825.328
821.686
818.313
814.392
811.562
807.172
804.508
800.152
797.312
793.358
789.876
786.605
782.483
779.895
775.175
772.901
768.06
765.981
760.976
758.858
753.949
751.828
746.937
744.755
739.992
737.647
733.019
730.58
725.926
723.677
715.247
697.164
654.321
614.811
627.3
608.867
1774.85
1725.6
1736.47
1718.63
1718.22
1708.84
1705.65
1698.77
1694.94
1689.26
1685.21
1680.21
1676.08
1671.5
1667.34
1663
1658.85
1654.6
1650.47
1646.3
1642.12
1637.89
1633.63
1629.29
1624.91
1620.42
1615.83
1611.11
1606.31
1601.41
1596.44
1591.4
1586.31
1581.18
1576.01
1570.81
1565.58
1560.33
1555.07
1549.78
1544.49
1539.18
1533.88
1528.55
1523.23
1517.89
1512.57
1507.2
1501.91
1496.48
1491.28
1485.66
1480.76
1474.68
1470.49
1463.25
1460.94
1450.68
1453.56
1440.91
1466.24
1487.67
1489.2
1497.86
1494.86
1497.52
1493.5
1493
1489.03
1486.92
1483.13
1480.22
1476.35
1473.66
1469.98
1466.28
1462.73
1459.33
1455.42
1452.07
1448.71
1445.01
1441.51
1438.13
1434.42
1430.99
1427.62
1424
1420.59
1417.25
1413.64
1410.24
1406.92
1403.29
1399.93
1396.56
1392.98
1389.6
1386.2
1382.69
1379.22
1375.89
1372.36
1368.89
1365.51
1362.06
1358.54
1355.15
1351.73
1348.23
1344.75
1341.36
1337.91
1334.42
1330.96
1327.57
1324.11
1320.63
1317.18
1313.75
1310.31
1306.86
1303.41
1299.96
1296.51
1293.07
1289.63
1286.2
1282.76
1279.33
1275.89
1272.46
1269.03
1265.6
1262.16
1258.73
1255.3
1251.86
1248.43
1244.99
1241.56
1238.11
1234.66
1231.21
1227.72
1224.3
1220.79
1217.34
1213.91
1210.35
1206.98
1203.5
1199.96
1196.56
1193.12
1189.5
1186.18
1182.72
1179.06
1175.75
1172.35
1168.63
1165.31
1161.93
1158.23
1154.88
1151.46
1147.83
1144.48
1141
1137.4
1133.96
1130.6
1126.97
1123.49
1120.07
1116.52
1112.95
1109.57
1106.08
1102.51
1099.07
1095.67
1092.13
1088.59
1085.16
1081.7
1078.17
1074.7
1071.22
1067.77
1064.23
1060.77
1057.28
1053.73
1050.35
1046.8
1043.3
1039.89
1036.35
1032.78
1029.44
1025.84
1022.26
1018.93
1015.36
1011.71
1008.4
1004.86
1001.22
997.855
994.356
990.739
987.358
983.799
980.192
976.844
973.316
969.681
966.313
962.792
959.184
955.827
952.304
948.674
945.298
941.766
938.131
934.753
931.223
927.586
924.205
920.677
917.037
913.655
910.127
906.484
903.099
899.574
895.928
892.54
889.016
885.368
881.978
878.455
874.804
871.413
867.891
864.238
860.843
857.325
853.667
850.273
846.753
843.092
839.702
836.165
832.541
829.092
825.652
821.901
818.587
814.991
811.37
808.013
804.371
800.999
797.077
794.246
789.86
787.193
782.839
779.996
776.045
772.562
769.291
765.17
762.578
757.863
755.586
750.748
748.664
743.665
741.542
736.637
734.511
729.626
727.438
722.679
720.331
715.705
713.264
708.612
706.346
697.859
680.134
637.937
598.623
611.042
592.596
1758.37
1709.39
1720.22
1702.35
1701.93
1692.56
1689.38
1682.5
1678.66
1672.99
1668.93
1663.94
1659.81
1655.23
1651.06
1646.73
1642.57
1638.32
1634.2
1630.02
1625.84
1621.6
1617.35
1613.01
1608.63
1604.14
1599.55
1594.83
1590.02
1585.12
1580.15
1575.11
1570.03
1564.89
1559.72
1554.52
1549.3
1544.05
1538.78
1533.5
1528.21
1522.9
1517.59
1512.26
1506.95
1501.6
1496.29
1490.92
1485.63
1480.19
1475
1469.38
1464.47
1458.39
1454.21
1446.97
1444.65
1434.4
1437.3
1424.55
1449.42
1470.45
1471.81
1480.36
1477.3
1479.92
1475.88
1475.36
1471.39
1469.27
1465.48
1462.57
1458.7
1456.01
1452.32
1448.63
1445.08
1441.69
1437.78
1434.43
1431.07
1427.38
1423.87
1420.5
1416.78
1413.36
1409.99
1406.37
1402.95
1399.62
1396.01
1392.6
1389.28
1385.66
1382.29
1378.92
1375.35
1371.96
1368.57
1365.06
1361.58
1358.26
1354.73
1351.26
1347.87
1344.42
1340.9
1337.51
1334.09
1330.6
1327.11
1323.73
1320.28
1316.78
1313.33
1309.93
1306.48
1303
1299.55
1296.12
1292.68
1289.23
1285.77
1282.33
1278.88
1275.44
1272
1268.57
1265.13
1261.7
1258.26
1254.83
1251.4
1247.97
1244.53
1241.1
1237.67
1234.23
1230.8
1227.36
1223.93
1220.48
1217.03
1213.58
1210.09
1206.68
1203.17
1199.71
1196.28
1192.72
1189.35
1185.87
1182.33
1178.93
1175.49
1171.87
1168.56
1165.09
1161.44
1158.13
1154.72
1151
1147.69
1144.31
1140.61
1137.26
1133.83
1130.21
1126.86
1123.38
1119.78
1116.34
1112.98
1109.35
1105.87
1102.45
1098.9
1095.33
1091.95
1088.46
1084.89
1081.45
1078.05
1074.51
1070.97
1067.54
1064.09
1060.56
1057.08
1053.6
1050.16
1046.61
1043.15
1039.66
1036.12
1032.73
1029.19
1025.68
1022.27
1018.74
1015.17
1011.82
1008.22
1004.64
1001.31
997.745
994.098
990.786
987.249
983.611
980.241
976.742
973.127
969.745
966.187
962.58
959.23
955.704
952.07
948.701
945.181
941.573
938.215
934.693
931.064
927.686
924.155
920.521
917.142
913.612
909.976
906.595
903.067
899.428
896.044
892.518
888.876
885.49
881.965
878.32
874.931
871.408
867.761
864.37
860.848
857.198
853.805
850.283
846.632
843.235
839.718
836.061
832.665
829.147
825.487
822.095
818.559
814.936
811.485
808.046
804.297
800.98
797.385
793.765
790.407
786.765
783.395
779.472
776.639
772.256
769.586
765.236
762.389
758.441
754.957
751.686
747.565
744.971
740.261
737.98
733.145
731.056
726.063
723.936
719.035
716.904
712.023
709.831
705.075
702.723
698.101
695.657
691.007
688.719
680.221
662.93
621.485
582.421
594.782
576.323
1741.97
1693.15
1703.96
1686.07
1685.65
1676.27
1673.1
1666.21
1662.39
1656.71
1652.65
1647.66
1643.53
1638.95
1634.78
1630.45
1626.29
1622.04
1617.92
1613.74
1609.56
1605.33
1601.07
1596.74
1592.35
1587.86
1583.26
1578.55
1573.74
1568.84
1563.87
1558.83
1553.74
1548.61
1543.44
1538.24
1533.01
1527.76
1522.5
1517.21
1511.93
1506.62
1501.31
1495.98
1490.66
1485.32
1480
1474.63
1469.34
1463.91
1458.71
1453.09
1448.19
1442.11
1437.92
1430.68
1428.37
1418.12
1421.03
1408.14
1432.46
1453
1454.15
1462.57
1459.42
1461.99
1457.92
1457.39
1453.41
1451.28
1447.49
1444.57
1440.7
1438
1434.32
1430.64
1427.09
1423.7
1419.79
1416.45
1413.08
1409.39
1405.89
1402.51
1398.81
1395.38
1392.01
1388.39
1384.97
1381.64
1378.03
1374.62
1371.31
1367.68
1364.31
1360.95
1357.37
1353.98
1350.59
1347.08
1343.61
1340.28
1336.75
1333.28
1329.9
1326.44
1322.93
1319.54
1316.12
1312.62
1309.14
1305.75
1302.3
1298.81
1295.35
1291.96
1288.5
1285.02
1281.57
1278.14
1274.71
1271.25
1267.8
1264.36
1260.91
1257.47
1254.03
1250.59
1247.16
1243.73
1240.29
1236.86
1233.43
1230
1226.56
1223.13
1219.7
1216.26
1212.83
1209.39
1205.96
1202.52
1199.06
1195.61
1192.13
1188.71
1185.2
1181.74
1178.32
1174.75
1171.38
1167.9
1164.37
1160.97
1157.53
1153.91
1150.59
1147.13
1143.47
1140.16
1136.76
1133.04
1129.73
1126.34
1122.65
1119.29
1115.87
1112.25
1108.89
1105.42
1101.82
1098.38
1095.01
1091.4
1087.91
1084.49
1080.95
1077.37
1074
1070.51
1066.94
1063.49
1060.09
1056.55
1053.02
1049.59
1046.13
1042.6
1039.13
1035.64
1032.2
1028.66
1025.2
1021.71
1018.16
1014.78
1011.23
1007.73
1004.32
1000.78
997.215
993.869
990.271
986.692
983.361
979.795
976.149
972.834
969.299
965.662
962.291
958.793
955.178
951.795
948.239
944.633
941.281
937.756
934.124
930.752
927.233
923.626
920.266
916.745
913.117
909.738
906.209
902.576
899.194
895.667
892.032
888.648
885.122
881.485
878.099
874.574
870.933
867.545
864.021
860.378
856.987
853.465
849.819
846.426
842.905
839.257
835.862
832.341
828.691
825.293
821.776
818.121
814.723
811.206
807.547
804.153
800.619
796.996
793.544
790.106
786.358
783.039
779.445
775.826
772.466
768.825
765.456
761.533
758.698
754.319
751.645
747.298
744.448
740.503
737.018
733.747
729.627
727.031
722.325
720.04
715.208
713.115
708.126
705.996
701.098
698.964
694.086
691.889
687.137
684.781
680.162
677.715
673.069
670.75
662.304
645.527
604.956
566.208
578.521
560.05
1725.63
1676.88
1687.69
1669.78
1669.36
1659.98
1656.82
1649.93
1646.11
1640.43
1636.38
1631.38
1627.25
1622.68
1618.51
1614.17
1610.02
1605.77
1601.64
1597.46
1593.29
1589.05
1584.8
1580.46
1576.07
1571.57
1566.98
1562.26
1557.46
1552.55
1547.59
1542.55
1537.46
1532.32
1527.16
1521.95
1516.73
1511.48
1506.21
1500.93
1495.64
1490.33
1485.03
1479.7
1474.38
1469.03
1463.72
1458.35
1453.06
1447.62
1442.43
1436.81
1431.9
1425.82
1421.64
1414.4
1412.08
1401.84
1404.75
1391.68
1415.34
1435.31
1436.19
1444.43
1441.18
1443.69
1439.58
1439.02
1435.03
1432.89
1429.1
1426.18
1422.31
1419.6
1415.92
1412.25
1408.7
1405.31
1401.41
1398.07
1394.7
1391.02
1387.51
1384.14
1380.44
1377.01
1373.64
1370.02
1366.6
1363.27
1359.66
1356.25
1352.93
1349.31
1345.94
1342.57
1339
1335.61
1332.22
1328.71
1325.24
1321.91
1318.38
1314.91
1311.53
1308.08
1304.56
1301.17
1297.75
1294.26
1290.77
1287.38
1283.93
1280.44
1276.99
1273.59
1270.14
1266.66
1263.21
1259.78
1256.34
1252.89
1249.44
1245.99
1242.55
1239.11
1235.67
1232.23
1228.8
1225.36
1221.93
1218.5
1215.07
1211.64
1208.2
1204.77
1201.34
1197.9
1194.47
1191.03
1187.6
1184.16
1180.71
1177.26
1173.77
1170.35
1166.84
1163.39
1159.96
1156.4
1153.03
1149.55
1146.01
1142.61
1139.17
1135.56
1132.24
1128.78
1125.12
1121.81
1118.4
1114.69
1111.37
1107.99
1104.3
1100.94
1097.52
1093.9
1090.54
1087.07
1083.47
1080.03
1076.66
1073.05
1069.56
1066.14
1062.6
1059.03
1055.65
1052.16
1048.6
1045.15
1041.75
1038.21
1034.67
1031.25
1027.79
1024.26
1020.79
1017.3
1013.86
1010.32
1006.86
1003.37
999.825
996.438
992.893
989.388
985.975
982.444
978.876
975.53
971.934
968.356
965.022
961.459
957.814
954.497
950.964
947.328
943.956
940.458
936.845
933.461
929.907
926.301
922.946
919.423
915.792
912.419
908.901
905.294
901.932
898.413
894.786
891.405
887.878
884.246
880.863
877.337
873.703
870.318
866.793
863.157
859.77
856.246
852.606
849.216
845.694
842.052
838.66
835.139
831.494
828.099
824.579
820.932
817.535
814.016
810.368
806.967
803.452
799.798
796.398
792.882
789.224
785.829
782.296
778.673
775.22
771.782
768.036
764.715
761.123
757.504
754.143
750.503
747.135
743.211
740.374
735.998
733.322
728.979
726.124
722.182
718.697
715.425
711.306
708.708
704.006
701.718
696.888
694.791
689.808
687.674
682.779
680.641
675.767
673.565
668.816
666.457
661.84
659.39
654.747
652.397
644.057
627.901
588.341
549.981
562.259
543.776
1709.31
1660.64
1671.41
1653.48
1653.06
1643.69
1640.53
1633.65
1629.83
1624.15
1620.1
1615.1
1610.97
1606.4
1602.23
1597.89
1593.74
1589.49
1585.36
1581.19
1577.01
1572.78
1568.52
1564.18
1559.79
1555.29
1550.7
1545.98
1541.18
1536.27
1531.3
1526.26
1521.18
1516.04
1510.87
1505.67
1500.44
1495.19
1489.93
1484.65
1479.36
1474.05
1468.74
1463.41
1458.1
1452.75
1447.43
1442.07
1436.77
1431.34
1426.15
1420.52
1415.62
1409.54
1405.35
1398.11
1395.8
1385.56
1388.46
1375.15
1398.04
1417.34
1417.88
1425.91
1422.53
1424.96
1420.8
1420.21
1416.2
1414.05
1410.25
1407.35
1403.47
1400.75
1397.07
1393.41
1389.87
1386.48
1382.59
1379.24
1375.87
1372.19
1368.69
1365.32
1361.62
1358.19
1354.82
1351.21
1347.79
1344.45
1340.85
1337.44
1334.12
1330.5
1327.13
1323.76
1320.19
1316.8
1313.4