/*--------------------------------*- C++ -*----------------------------------*\
| =========                 |                                                 |
| \\      /  F ield         | foam-extend: Open Source CFD                    |
|  \\    /   O peration     | Version:     3.2                                |
|   \\  /    A nd           | Web:         http://www.foam-extend.org         |
|    \\/     M anipulation  | For copyright notice see file Copyright         |
\*---------------------------------------------------------------------------*/
FoamFile
{
    version     2.0;
    format      ascii;
    class       areaScalarField;
    location    "50";
    object      Pa;
}
// * * * * * * * * * * * * * * * * * * * * * * * * * * * * * * * * * * * * * //

dimensions      [0 0 0 0 0 0 0];

internalField   nonuniform List<scalar> 
300
(
0.3
0.3
0.3
0.3
0.3
0.3
0.3
0.3
0.3
0.3
0.3
0.3
0.3
0.3
0.3
0.3
0.3
0.3
0.3
0.3
0.3
0.3
0.3
0.3
0.3
0.3
0.3
0.3
0.3
0.3
0.3
0.3
0.3
0.3
0.3
0.3
0.3
0.3
0.3
0.3
0.3
0.3
0.3
0.3
0.3
0.3
0.3
0.3
0.3
0.3
0.3
0.3
0.3
0.3
0.3
0.3
0.3
0.3
0.3
0.3
0.384407
0.435874
0.48592
0.514024
0.541531
0.552712
0.565706
0.569026
0.574824
0.574969
0.575746
0.577815
0.575995
0.576007
0.576804
0.577121
0.575906
0.576895
0.576257
0.574877
0.575051
0.574971
0.57397
0.574343
0.574138
0.57326
0.573478
0.573312
0.572559
0.572843
0.572734
0.572046
0.572439
0.572297
0.571796
0.572136
0.572024
0.571699
0.571818
0.572007
0.571514
0.571695
0.571819
0.571582
0.571411
0.571751
0.571552
0.571313
0.57143
0.571626
0.571268
0.5712
0.571301
0.571442
0.57114
0.571095
0.571171
0.571296
0.571122
0.57108
0.571031
0.571128
0.571096
0.571146
0.57106
0.571069
0.570969
0.570963
0.570854
0.570845
0.570744
0.570738
0.57063
0.570623
0.57052
0.570509
0.570406
0.570389
0.570292
0.570267
0.570161
0.570156
0.570023
0.57008
0.569837
0.569934
0.569811
0.56962
0.569841
0.569546
0.569396
0.569637
0.569335
0.569111
0.569576
0.569054
0.568782
0.569426
0.568946
0.568404
0.569183
0.568849
0.568172
0.568822
0.568625
0.568143
0.568582
0.56828
0.568002
0.56838
0.56837
0.567715
0.568129
0.568175
0.567791
0.567856
0.568209
0.567694
0.567504
0.567772
0.567697
0.56716
0.567328
0.567448
0.567225
0.566877
0.56702
0.566942
0.566852
0.566542
0.566613
0.566413
0.566293
0.566328
0.565921
0.565882
0.565929
0.565538
0.565526
0.565745
0.565145
0.565274
0.565602
0.564892
0.564874
0.565398
0.564681
0.564518
0.565018
0.564558
0.564263
0.564608
0.564132
0.564053
0.564391
0.563776
0.563574
0.564017
0.563505
0.563286
0.563619
0.56306
0.562863
0.563287
0.562799
0.562631
0.563059
0.562577
0.562397
0.562828
0.562354
0.562167
0.562603
0.56214
0.561947
0.562392
0.56194
0.561741
0.562195
0.561756
0.561552
0.562013
0.561587
0.561379
0.561849
0.561433
0.561222
0.561698
0.561298
0.561078
0.561567
0.561175
0.560952
0.561456
0.561052
0.560876
0.561288
0.561059
0.560644
0.561341
0.560844
0.560678
0.561249
0.560609
0.561003
0.560422
0.561771
0.559415
0.561993
0.559768
0.561551
0.560238
0.560632
0.561273
0.55954
0.562577
0.557968
0.563415
0.557746
0.563856
0.557027
0.56392
0.557143
0.564118
0.556856
0.564072
0.556058
0.563176
0.556696
0.562402
0.558347
0.560306
0.560671
0.558058
0.555399
0.439326
0.3
0.3
0.3
0.3
)
;

boundaryField
{
    inlet
    {
        type            calculated;
        value           uniform 0;
    }
    outlet
    {
        type            calculated;
        value           uniform 0;
    }
    sideWall
    {
        type            empty;
    }
}


// ************************************************************************* //
