/*--------------------------------*- C++ -*----------------------------------*\
| =========                 |                                                 |
| \\      /  F ield         | foam-extend: Open Source CFD                    |
|  \\    /   O peration     | Version:     3.2                                |
|   \\  /    A nd           | Web:         http://www.foam-extend.org         |
|    \\/     M anipulation  | For copyright notice see file Copyright         |
\*---------------------------------------------------------------------------*/
FoamFile
{
    version     2.0;
    format      ascii;
    class       areaScalarField;
    location    "50";
    object      Pc;
}
// * * * * * * * * * * * * * * * * * * * * * * * * * * * * * * * * * * * * * //

dimensions      [0 0 0 0 0 0 0];

internalField   nonuniform List<scalar> 
300
(
0.7
0.7
0.7
0.7
0.7
0.7
0.7
0.7
0.7
0.7
0.7
0.7
0.7
0.7
0.7
0.7
0.7
0.7
0.7
0.7
0.7
0.7
0.7
0.7
0.7
0.7
0.7
0.7
0.7
0.7
0.7
0.7
0.7
0.7
0.7
0.7
0.7
0.7
0.7
0.7
0.7
0.7
0.7
0.7
0.7
0.7
0.7
0.7
0.7
0.7
0.7
0.7
0.7
0.7
0.7
0.7
0.7
0.7
0.7
0.7
0.615593
0.564126
0.51408
0.485976
0.458469
0.447288
0.434294
0.430974
0.425176
0.425031
0.424254
0.422185
0.424005
0.423993
0.423196
0.422879
0.424094
0.423105
0.423743
0.425123
0.424949
0.425029
0.42603
0.425657
0.425862
0.42674
0.426522
0.426688
0.427441
0.427157
0.427266
0.427954
0.427561
0.427703
0.428204
0.427864
0.427976
0.428301
0.428182
0.427993
0.428486
0.428305
0.428181
0.428418
0.428589
0.428249
0.428448
0.428687
0.42857
0.428374
0.428732
0.4288
0.428699
0.428558
0.42886
0.428905
0.428829
0.428704
0.428878
0.42892
0.428969
0.428872
0.428904
0.428854
0.42894
0.428931
0.429031
0.429037
0.429146
0.429155
0.429256
0.429262
0.42937
0.429377
0.42948
0.429491
0.429594
0.429611
0.429708
0.429733
0.429839
0.429844
0.429977
0.42992
0.430163
0.430066
0.430189
0.43038
0.430159
0.430454
0.430604
0.430363
0.430665
0.430889
0.430424
0.430946
0.431218
0.430574
0.431054
0.431596
0.430817
0.431151
0.431828
0.431178
0.431375
0.431857
0.431418
0.43172
0.431998
0.43162
0.43163
0.432285
0.431871
0.431825
0.432209
0.432144
0.431791
0.432306
0.432496
0.432228
0.432303
0.43284
0.432672
0.432552
0.432775
0.433123
0.43298
0.433058
0.433148
0.433458
0.433387
0.433587
0.433707
0.433672
0.434079
0.434118
0.434071
0.434462
0.434474
0.434255
0.434855
0.434726
0.434398
0.435108
0.435126
0.434602
0.435319
0.435482
0.434982
0.435442
0.435737
0.435392
0.435868
0.435947
0.435609
0.436224
0.436426
0.435983
0.436495
0.436714
0.436381
0.43694
0.437137
0.436713
0.437201
0.437369
0.436941
0.437423
0.437603
0.437172
0.437646
0.437833
0.437397
0.43786
0.438053
0.437608
0.43806
0.438259
0.437805
0.438244
0.438448
0.437987
0.438413
0.438621
0.438151
0.438567
0.438778
0.438302
0.438702
0.438922
0.438433
0.438825
0.439048
0.438544
0.438948
0.439124
0.438712
0.438941
0.439356
0.438659
0.439156
0.439322
0.438751
0.439391
0.438997
0.439578
0.438229
0.440585
0.438007
0.440232
0.438449
0.439762
0.439368
0.438727
0.44046
0.437423
0.442032
0.436585
0.442254
0.436144
0.442973
0.43608
0.442857
0.435882
0.443144
0.435928
0.443942
0.436824
0.443304
0.437598
0.441653
0.439694
0.439329
0.441942
0.444601
0.560674
0.7
0.7
0.7
0.7
)
;

boundaryField
{
    inlet
    {
        type            calculated;
        value           uniform 0;
    }
    outlet
    {
        type            calculated;
        value           uniform 0;
    }
    sideWall
    {
        type            empty;
    }
}


// ************************************************************************* //
