/*--------------------------------*- C++ -*----------------------------------*\
| =========                 |                                                 |
| \\      /  F ield         | foam-extend: Open Source CFD                    |
|  \\    /   O peration     | Version:     3.2                                |
|   \\  /    A nd           | Web:         http://www.foam-extend.org         |
|    \\/     M anipulation  | For copyright notice see file Copyright         |
\*---------------------------------------------------------------------------*/
FoamFile
{
    version     2.0;
    format      ascii;
    class       volScalarField;
    location    "50";
    object      pd;
}
// * * * * * * * * * * * * * * * * * * * * * * * * * * * * * * * * * * * * * //

dimensions      [1 -1 -2 0 0 0 0];

internalField   nonuniform List<scalar> 
5400
(
1914.07
1859.2
1868.09
1848.31
1845.51
1833.71
1828.09
1818.79
1812.52
1804.41
1797.93
1790.49
1783.93
1776.92
1770.31
1763.54
1756.94
1750.26
1743.69
1737.08
1730.46
1723.79
1717.09
1710.31
1703.49
1696.56
1689.53
1682.37
1675.12
1667.77
1660.36
1652.88
1645.35
1637.77
1630.16
1622.51
1614.85
1607.15
1599.45
1591.72
1583.99
1576.23
1568.49
1560.71
1552.95
1545.16
1537.41
1529.6
1521.86
1513.98
1506.35
1498.28
1490.93
1482.41
1475.78
1466.1
1461.34
1448.65
1448.63
1429.35
1443.58
1455.12
1449.57
1452.94
1445.67
1444.76
1437.61
1434.23
1427.58
1422.85
1416.56
1411.21
1404.81
1399.61
1393.53
1387.47
1381.51
1375.76
1369.45
1363.65
1357.88
1351.78
1345.84
1340.07
1333.94
1328.07
1322.28
1316.22
1310.35
1304.59
1298.53
1292.67
1286.92
1280.85
1275.03
1269.23
1263.21
1257.38
1251.55
1245.6
1239.68
1233.91
1227.95
1222.03
1216.2
1210.33
1204.37
1198.53
1192.67
1186.75
1180.81
1174.98
1169.1
1163.18
1157.27
1151.43
1145.55
1139.64
1133.74
1127.87
1122
1116.11
1110.23
1104.35
1098.47
1092.59
1086.72
1080.84
1074.97
1069.09
1063.22
1057.35
1051.48
1045.61
1039.73
1033.86
1027.99
1022.12
1016.25
1010.37
1004.5
998.617
992.727
986.839
980.91
975.058
969.107
963.212
957.356
951.348
945.537
939.628
933.642
927.808
921.941
915.87
910.111
904.234
898.127
892.362
886.548
880.385
874.614
868.816
862.679
856.877
851.03
844.963
839.166
833.271
827.235
821.343
815.554
809.506
803.578
797.734
791.77
785.75
779.93
774.015
768.009
762.111
756.277
750.313
744.333
738.458
732.567
726.606
720.695
714.768
708.89
702.906
697.006
691.079
685.086
679.261
673.276
667.322
661.477
655.512
649.493
643.722
637.699
631.663
625.902
619.916
613.813
608.061
602.107
596.024
590.211
584.283
578.221
572.408
566.425
560.362
554.57
548.621
542.539
536.728
530.777
524.711
518.91
512.962
506.883
501.068
495.114
489.031
483.214
477.261
471.176
465.355
459.404
453.316
447.492
441.542
435.45
429.624
423.675
417.581
411.751
405.803
399.706
393.873
387.927
381.827
375.991
370.045
363.944
358.104
352.162
346.055
340.215
334.271
328.161
322.324
316.363
310.29
304.392
298.53
292.327
286.569
280.545
274.477
268.67
262.6
256.793
250.402
245.154
238.313
233.226
226.405
221.132
214.742
208.818
203.11
196.518
191.519
184.351
179.648
172.334
167.829
160.383
155.835
148.468
143.913
136.555
131.938
124.705
119.926
112.848
107.969
100.869
96.2701
88.8143
78.398
45.8188
9.17393
20.118
-0.648978
1913.97
1859.32
1868.13
1848.32
1845.52
1833.72
1828.1
1818.79
1812.52
1804.42
1797.93
1790.49
1783.93
1776.92
1770.31
1763.54
1756.94
1750.26
1743.69
1737.08
1730.46
1723.78
1717.09
1710.31
1703.49
1696.56
1689.53
1682.37
1675.12
1667.77
1660.36
1652.88
1645.35
1637.77
1630.16
1622.51
1614.85
1607.15
1599.45
1591.72
1583.99
1576.23
1568.49
1560.71
1552.95
1545.16
1537.41
1529.6
1521.86
1513.98
1506.35
1498.28
1490.93
1482.41
1475.78
1466.1
1461.34
1448.65
1448.66
1429.42
1443.61
1455.1
1449.56
1452.93
1445.67
1444.75
1437.61
1434.23
1427.58
1422.85
1416.56
1411.21
1404.81
1399.6
1393.53
1387.47
1381.51
1375.76
1369.45
1363.65
1357.88
1351.78
1345.84
1340.07
1333.94
1328.07
1322.28
1316.22
1310.35
1304.59
1298.53
1292.67
1286.92
1280.85
1275.03
1269.23
1263.21
1257.38
1251.55
1245.6
1239.68
1233.91
1227.95
1222.03
1216.2
1210.33
1204.37
1198.53
1192.67
1186.75
1180.81
1174.98
1169.1
1163.18
1157.27
1151.43
1145.55
1139.64
1133.74
1127.87
1122
1116.11
1110.23
1104.35
1098.47
1092.59
1086.72
1080.84
1074.97
1069.09
1063.22
1057.35
1051.48
1045.61
1039.73
1033.86
1027.99
1022.12
1016.25
1010.37
1004.5
998.617
992.727
986.839
980.91
975.058
969.107
963.212
957.356
951.348
945.537
939.628
933.642
927.808
921.941
915.87
910.11
904.234
898.127
892.362
886.547
880.385
874.614
868.815
862.679
856.877
851.03
844.963
839.166
833.27
827.235
821.343
815.554
809.506
803.578
797.734
791.77
785.75
779.929
774.014
768.01
762.111
756.277
750.313
744.333
738.458
732.566
726.606
720.695
714.768
708.89
702.906
697.006
691.079
685.086
679.261
673.276
667.322
661.477
655.512
649.493
643.722
637.699
631.663
625.901
619.916
613.814
608.061
602.107
596.024
590.211
584.283
578.221
572.408
566.425
560.362
554.57
548.621
542.539
536.728
530.777
524.712
518.91
512.962
506.883
501.068
495.114
489.031
483.213
477.261
471.176
465.355
459.404
453.316
447.492
441.542
435.45
429.624
423.675
417.581
411.75
405.803
399.707
393.873
387.927
381.827
375.991
370.045
363.944
358.104
352.162
346.055
340.215
334.271
328.161
322.324
316.363
310.29
304.392
298.53
292.328
286.569
280.545
274.477
268.67
262.6
256.793
250.402
245.153
238.314
233.226
226.405
221.131
214.742
208.818
203.11
196.518
191.518
184.352
179.648
172.334
167.829
160.383
155.835
148.468
143.912
136.556
131.937
124.706
119.926
112.849
107.969
100.87
96.2667
88.7517
78.315
45.8639
9.24103
20.1282
-0.645964
1913.66
1859.47
1868.2
1848.35
1845.54
1833.73
1828.1
1818.79
1812.53
1804.42
1797.93
1790.5
1783.93
1776.92
1770.31
1763.54
1756.94
1750.26
1743.69
1737.07
1730.46
1723.78
1717.09
1710.31
1703.48
1696.55
1689.52
1682.37
1675.12
1667.77
1660.36
1652.88
1645.35
1637.77
1630.16
1622.51
1614.84
1607.15
1599.45
1591.72
1583.99
1576.23
1568.48
1560.71
1552.95
1545.16
1537.4
1529.6
1521.86
1513.98
1506.35
1498.28
1490.93
1482.41
1475.78
1466.1
1461.34
1448.65
1448.7
1429.52
1443.66
1455.08
1449.55
1452.9
1445.66
1444.74
1437.6
1434.22
1427.58
1422.85
1416.56
1411.21
1404.81
1399.6
1393.53
1387.47
1381.51
1375.76
1369.45
1363.65
1357.88
1351.78
1345.84
1340.07
1333.94
1328.07
1322.28
1316.22
1310.35
1304.59
1298.53
1292.67
1286.92
1280.85
1275.03
1269.23
1263.21
1257.38
1251.55
1245.6
1239.68
1233.91
1227.95
1222.03
1216.2
1210.33
1204.37
1198.53
1192.67
1186.75
1180.81
1174.98
1169.1
1163.18
1157.27
1151.43
1145.55
1139.64
1133.74
1127.87
1122
1116.11
1110.23
1104.35
1098.47
1092.59
1086.72
1080.84
1074.97
1069.09
1063.22
1057.35
1051.48
1045.61
1039.73
1033.86
1027.99
1022.12
1016.25
1010.37
1004.5
998.617
992.727
986.839
980.91
975.057
969.108
963.212
957.356
951.348
945.537
939.628
933.642
927.808
921.941
915.87
910.11
904.234
898.127
892.361
886.547
880.386
874.614
868.815
862.68
856.877
851.03
844.964
839.165
833.27
827.236
821.342
815.554
809.506
803.578
797.733
791.771
785.75
779.929
774.014
768.01
762.111
756.277
750.313
744.334
738.458
732.566
726.606
720.695
714.768
708.89
702.906
697.006
691.079
685.086
679.261
673.276
667.322
661.477
655.512
649.493
643.722
637.699
631.664
625.901
619.916
613.814
608.06
602.107
596.024
590.211
584.283
578.221
572.407
566.426
560.362
554.569
548.621
542.539
536.728
530.777
524.712
518.909
512.962
506.884
501.067
495.114
489.032
483.213
477.261
471.176
465.355
459.404
453.316
447.492
441.542
435.451
429.623
423.675
417.581
411.75
405.803
399.707
393.873
387.927
381.827
375.991
370.045
363.944
358.103
352.162
346.055
340.214
334.271
328.161
322.324
316.363
310.29
304.392
298.53
292.328
286.568
280.545
274.477
268.669
262.599
256.794
250.402
245.153
238.314
233.225
226.407
221.13
214.742
208.818
203.11
196.518
191.518
184.352
179.648
172.334
167.828
160.383
155.835
148.468
143.912
136.557
131.935
124.707
119.925
112.849
107.968
100.87
96.2772
88.6354
78.1864
45.8686
9.38377
20.1532
-0.638203
1913.37
1859.67
1868.28
1848.4
1845.57
1833.75
1828.12
1818.8
1812.53
1804.42
1797.93
1790.5
1783.93
1776.92
1770.31
1763.54
1756.94
1750.26
1743.69
1737.07
1730.46
1723.78
1717.09
1710.31
1703.48
1696.55
1689.52
1682.36
1675.12
1667.77
1660.36
1652.88
1645.35
1637.77
1630.16
1622.51
1614.84
1607.15
1599.44
1591.72
1583.99
1576.23
1568.48
1560.71
1552.95
1545.16
1537.4
1529.6
1521.86
1513.98
1506.35
1498.28
1490.93
1482.41
1475.78
1466.1
1461.34
1448.65
1448.75
1429.61
1443.72
1455.07
1449.54
1452.88
1445.64
1444.74
1437.6
1434.22
1427.57
1422.84
1416.56
1411.21
1404.81
1399.6
1393.53
1387.47
1381.51
1375.76
1369.46
1363.65
1357.88
1351.78
1345.84
1340.07
1333.94
1328.07
1322.28
1316.22
1310.35
1304.59
1298.53
1292.67
1286.92
1280.85
1275.03
1269.23
1263.21
1257.38
1251.55
1245.6
1239.68
1233.91
1227.95
1222.03
1216.2
1210.33
1204.37
1198.53
1192.67
1186.75
1180.81
1174.98
1169.1
1163.18
1157.27
1151.43
1145.55
1139.64
1133.75
1127.87
1122
1116.11
1110.23
1104.35
1098.47
1092.59
1086.72
1080.84
1074.97
1069.09
1063.22
1057.35
1051.48
1045.61
1039.73
1033.86
1027.99
1022.12
1016.25
1010.37
1004.5
998.617
992.727
986.839
980.91
975.057
969.108
963.212
957.356
951.349
945.537
939.628
933.643
927.807
921.941
915.871
910.11
904.233
898.128
892.361
886.546
880.387
874.614
868.814
862.681
856.877
851.029
844.964
839.165
833.269
827.237
821.343
815.553
809.507
803.578
797.733
791.771
785.751
779.929
774.014
768.011
762.111
756.276
750.313
744.334
738.458
732.566
726.606
720.695
714.768
708.889
702.906
697.006
691.079
685.086
679.261
673.276
667.322
661.476
655.512
649.493
643.721
637.699
631.664
625.9
619.916
613.815
608.06
602.106
596.025
590.21
584.283
578.221
572.407
566.426
560.363
554.569
548.621
542.54
536.727
530.777
524.713
518.909
512.962
506.884
501.067
495.114
489.032
483.213
477.261
471.177
465.354
459.404
453.317
447.491
441.542
435.451
429.623
423.675
417.582
411.75
405.803
399.707
393.872
387.927
381.828
375.99
370.045
363.945
358.103
352.161
346.056
340.214
334.271
328.162
322.323
316.363
310.291
304.392
298.53
292.329
286.568
280.544
274.477
268.669
262.599
256.794
250.402
245.152
238.314
233.224
226.408
221.129
214.743
208.818
203.11
196.519
191.517
184.353
179.648
172.334
167.828
160.384
155.835
148.468
143.912
136.558
131.934
124.708
119.924
112.849
107.968
100.87
96.2817
88.51
78.0813
45.8318
9.60016
20.1802
-0.629378
1912.97
1859.93
1868.4
1848.44
1845.59
1833.77
1828.13
1818.81
1812.54
1804.43
1797.94
1790.5
1783.94
1776.92
1770.31
1763.54
1756.94
1750.26
1743.69
1737.07
1730.46
1723.78
1717.08
1710.31
1703.48
1696.55
1689.52
1682.36
1675.11
1667.77
1660.36
1652.87
1645.35
1637.77
1630.16
1622.51
1614.84
1607.15
1599.44
1591.72
1583.99
1576.23
1568.48
1560.71
1552.95
1545.16
1537.4
1529.6
1521.86
1513.98
1506.35
1498.28
1490.93
1482.41
1475.78
1466.1
1461.34
1448.65
1448.8
1429.7
1443.77
1455.06
1449.54
1452.86
1445.63
1444.73
1437.59
1434.21
1427.57
1422.84
1416.55
1411.2
1404.81
1399.6
1393.53
1387.47
1381.51
1375.76
1369.46
1363.65
1357.88
1351.78
1345.84
1340.07
1333.94
1328.07
1322.28
1316.22
1310.35
1304.59
1298.54
1292.67
1286.92
1280.86
1275.03
1269.23
1263.21
1257.38
1251.55
1245.6
1239.68
1233.91
1227.95
1222.03
1216.2
1210.32
1204.37
1198.53
1192.67
1186.75
1180.81
1174.98
1169.1
1163.18
1157.27
1151.43
1145.55
1139.64
1133.75
1127.87
1122
1116.11
1110.23
1104.35
1098.47
1092.59
1086.72
1080.84
1074.97
1069.09
1063.22
1057.35
1051.48
1045.61
1039.73
1033.86
1027.99
1022.12
1016.25
1010.37
1004.5
998.616
992.727
986.839
980.91
975.057
969.108
963.212
957.356
951.349
945.537
939.628
933.643
927.807
921.941
915.872
910.109
904.232
898.129
892.361
886.545
880.388
874.614
868.812
862.681
856.877
851.029
844.965
839.165
833.269
827.237
821.343
815.552
809.507
803.578
797.732
791.77
785.752
779.929
774.013
768.011
762.112
756.276
750.312
744.335
738.458
732.566
726.606
720.695
714.768
708.889
702.906
697.005
691.079
685.087
679.26
673.276
667.322
661.476
655.512
649.494
643.72
637.699
631.665
625.899
619.916
613.816
608.059
602.106
596.026
590.21
584.283
578.222
572.406
566.426
560.364
554.568
548.62
542.541
536.727
530.777
524.713
518.908
512.961
506.885
501.066
495.114
489.033
483.212
477.261
471.178
465.354
459.404
453.318
447.491
441.541
435.452
429.623
423.674
417.582
411.75
405.803
399.708
393.872
387.926
381.829
375.99
370.045
363.946
358.103
352.161
346.056
340.214
334.27
328.163
322.323
316.362
310.292
304.391
298.529
292.33
286.568
280.544
274.478
268.669
262.599
256.794
250.403
245.151
238.316
233.223
226.41
221.127
214.743
208.818
203.11
196.52
191.515
184.354
179.647
172.335
167.827
160.384
155.835
148.469
143.911
136.559
131.932
124.71
119.924
112.849
107.967
100.87
96.2832
88.3795
77.98
45.8065
9.8072
20.212
-0.618416
1912.68
1860.07
1868.53
1848.46
1845.6
1833.79
1828.15
1818.83
1812.56
1804.44
1797.95
1790.51
1783.94
1776.92
1770.32
1763.54
1756.95
1750.26
1743.69
1737.07
1730.46
1723.78
1717.08
1710.31
1703.48
1696.55
1689.52
1682.36
1675.11
1667.77
1660.36
1652.87
1645.35
1637.77
1630.16
1622.51
1614.84
1607.15
1599.44
1591.72
1583.98
1576.23
1568.48
1560.71
1552.95
1545.16
1537.4
1529.6
1521.86
1513.98
1506.35
1498.28
1490.93
1482.41
1475.78
1466.1
1461.34
1448.65
1448.86
1429.78
1443.82
1455.04
1449.52
1452.86
1445.61
1444.71
1437.58
1434.21
1427.57
1422.84
1416.55
1411.2
1404.81
1399.6
1393.52
1387.47
1381.51
1375.76
1369.46
1363.65
1357.87
1351.78
1345.84
1340.07
1333.94
1328.07
1322.28
1316.22
1310.35
1304.58
1298.54
1292.67
1286.92
1280.86
1275.03
1269.23
1263.21
1257.38
1251.54
1245.6
1239.68
1233.91
1227.95
1222.03
1216.2
1210.32
1204.37
1198.53
1192.67
1186.75
1180.82
1174.98
1169.1
1163.18
1157.27
1151.43
1145.55
1139.64
1133.75
1127.87
1122
1116.11
1110.23
1104.35
1098.47
1092.59
1086.72
1080.84
1074.97
1069.09
1063.22
1057.35
1051.48
1045.61
1039.73
1033.86
1027.99
1022.12
1016.25
1010.37
1004.5
998.616
992.727
986.839
980.91
975.057
969.108
963.212
957.356
951.35
945.537
939.628
933.644
927.807
921.94
915.873
910.109
904.232
898.13
892.361
886.544
880.389
874.614
868.811
862.682
856.877
851.028
844.966
839.165
833.268
827.238
821.344
815.551
809.507
803.579
797.732
791.77
785.752
779.928
774.013
768.011
762.112
756.275
750.312
744.335
738.458
732.565
726.606
720.695
714.768
708.889
702.906
697.005
691.079
685.087
679.26
673.277
667.323
661.475
655.513
649.494
643.72
637.699
631.666
625.899
619.916
613.817
608.059
602.105
596.026
590.21
584.282
578.223
572.406
566.426
560.365
554.568
548.62
542.542
536.727
530.777
524.714
518.908
512.961
506.886
501.066
495.114
489.034
483.212
477.26
471.178
465.353
459.403
453.319
447.491
441.541
435.453
429.622
423.674
417.583
411.749
405.802
399.709
393.872
387.926
381.829
375.99
370.044
363.946
358.103
352.16
346.057
340.214
334.27
328.163
322.323
316.362
310.292
304.391
298.529
292.331
286.567
280.544
274.478
268.669
262.598
256.795
250.404
245.149
238.317
233.221
226.412
221.126
214.744
208.818
203.109
196.522
191.513
184.356
179.646
172.337
167.825
160.386
155.835
148.47
143.909
136.561
131.93
124.712
119.923
112.849
107.967
100.87
96.2804
88.2492
77.8849
45.8461
9.94765
20.2464
-0.609394
1912.49
1860.13
1868.67
1848.47
1845.62
1833.81
1828.17
1818.85
1812.57
1804.45
1797.96
1790.52
1783.95
1776.93
1770.32
1763.55
1756.95
1750.26
1743.69
1737.08
1730.46
1723.78
1717.08
1710.31
1703.48
1696.55
1689.52
1682.36
1675.11
1667.77
1660.35
1652.87
1645.34
1637.77
1630.16
1622.51
1614.84
1607.15
1599.44
1591.72
1583.98
1576.23
1568.48
1560.71
1552.95
1545.16
1537.4
1529.6
1521.86
1513.98
1506.35
1498.28
1490.93
1482.41
1475.78
1466.1
1461.34
1448.65
1448.91
1429.86
1443.87
1455.03
1449.51
1452.85
1445.6
1444.71
1437.57
1434.21
1427.56
1422.83
1416.55
1411.2
1404.81
1399.59
1393.52
1387.47
1381.51
1375.75
1369.46
1363.66
1357.87
1351.78
1345.84
1340.07
1333.94
1328.07
1322.27
1316.22
1310.35
1304.58
1298.54
1292.67
1286.92
1280.86
1275.03
1269.23
1263.21
1257.38
1251.54
1245.6
1239.68
1233.91
1227.95
1222.03
1216.2
1210.32
1204.37
1198.53
1192.67
1186.75
1180.82
1174.98
1169.1
1163.18
1157.27
1151.43
1145.55
1139.64
1133.75
1127.87
1122
1116.11
1110.23
1104.35
1098.47
1092.59
1086.72
1080.84
1074.97
1069.09
1063.22
1057.35
1051.48
1045.61
1039.73
1033.86
1027.99
1022.12
1016.25
1010.37
1004.5
998.616
992.727
986.839
980.91
975.057
969.108
963.212
957.355
951.35
945.536
939.627
933.645
927.807
921.94
915.874
910.108
904.231
898.132
892.361
886.543
880.39
874.614
868.81
862.683
856.878
851.027
844.967
839.165
833.267
827.238
821.344
815.55
809.508
803.579
797.731
791.77
785.753
779.928
774.012
768.012
762.113
756.275
750.312
744.336
738.458
732.565
726.606
720.696
714.768
708.889
702.907
697.005
691.079
685.088
679.26
673.277
667.323
661.475
655.513
649.495
643.719
637.699
631.667
625.898
619.916
613.818
608.058
602.105
596.027
590.21
584.282
578.223
572.405
566.425
560.366
554.567
548.62
542.542
536.726
530.777
524.715
518.907
512.961
506.886
501.065
495.113
489.035
483.211
477.26
471.179
465.353
459.403
453.319
447.49
441.541
435.454
429.622
423.674
417.584
411.749
405.802
399.71
393.871
387.925
381.83
375.99
370.044
363.947
358.102
352.16
346.058
340.213
334.27
328.164
322.323
316.361
310.293
304.391
298.528
292.332
286.567
280.544
274.479
268.669
262.598
256.795
250.405
245.148
238.319
233.219
226.414
221.125
214.745
208.818
203.109
196.523
191.511
184.358
179.645
172.339
167.822
160.387
155.834
148.472
143.907
136.563
131.928
124.714
119.922
112.85
107.966
100.87
96.2728
88.1233
77.7959
45.9462
10.0256
20.2759
-0.598969
1912.29
1860.23
1868.75
1848.48
1845.64
1833.82
1828.18
1818.86
1812.59
1804.47
1797.97
1790.53
1783.96
1776.94
1770.33
1763.55
1756.95
1750.27
1743.7
1737.08
1730.46
1723.78
1717.09
1710.31
1703.48
1696.55
1689.52
1682.36
1675.11
1667.77
1660.35
1652.87
1645.34
1637.77
1630.16
1622.51
1614.84
1607.15
1599.44
1591.72
1583.98
1576.23
1568.48
1560.71
1552.95
1545.16
1537.4
1529.6
1521.86
1513.98
1506.35
1498.28
1490.93
1482.41
1475.78
1466.1
1461.34
1448.65
1448.96
1429.93
1443.92
1455.01
1449.5
1452.84
1445.6
1444.7
1437.56
1434.2
1427.56
1422.83
1416.54
1411.2
1404.82
1399.59
1393.52
1387.47
1381.51
1375.75
1369.46
1363.66
1357.87
1351.78
1345.84
1340.07
1333.94
1328.07
1322.27
1316.22
1310.35
1304.58
1298.54
1292.67
1286.92
1280.86
1275.03
1269.23
1263.22
1257.38
1251.54
1245.6
1239.68
1233.91
1227.95
1222.03
1216.2
1210.32
1204.37
1198.53
1192.67
1186.75
1180.82
1174.98
1169.1
1163.18
1157.27
1151.43
1145.55
1139.64
1133.75
1127.87
1122
1116.11
1110.23
1104.35
1098.47
1092.59
1086.72
1080.84
1074.97
1069.09
1063.22
1057.35
1051.48
1045.61
1039.73
1033.86
1027.99
1022.12
1016.25
1010.37
1004.5
998.616
992.727
986.839
980.911
975.057
969.109
963.212
957.355
951.351
945.536
939.627
933.645
927.806
921.94
915.874
910.108
904.23
898.133
892.361
886.542
880.392
874.615
868.809
862.684
856.878
851.027
844.967
839.165
833.267
827.239
821.345
815.55
809.508
803.58
797.731
791.77
785.754
779.928
774.012
768.012
762.113
756.274
750.312
744.336
738.458
732.565
726.607
720.696
714.769
708.888
702.907
697.005
691.079
685.088
679.259
673.277
667.324
661.474
655.513
649.496
643.718
637.699
631.668
625.897
619.916
613.82
608.058
602.105
596.028
590.21
584.282
578.224
572.405
566.425
560.367
554.567
548.619
542.543
536.726
530.776
524.716
518.907
512.96
506.887
501.065
495.113
489.036
483.211
477.26
471.18
465.353
459.403
453.32
447.49
441.541
435.455
429.622
423.673
417.585
411.749
405.802
399.711
393.871
387.925
381.831
375.989
370.044
363.948
358.102
352.16
346.059
340.213
334.269
328.165
322.322
316.361
310.294
304.391
298.527
292.333
286.566
280.544
274.48
268.669
262.598
256.795
250.407
245.146
238.321
233.218
226.416
221.123
214.746
208.818
203.109
196.525
191.509
184.36
179.644
172.341
167.82
160.389
155.833
148.474
143.905
136.566
131.926
124.716
119.92
112.851
107.965
100.871
96.2622
88.0041
77.71
46.0313
10.1098
20.3034
-0.584973
1912.05
1860.35
1868.78
1848.5
1845.65
1833.82
1828.19
1818.87
1812.6
1804.48
1797.98
1790.54
1783.97
1776.95
1770.34
1763.56
1756.96
1750.27
1743.7
1737.08
1730.47
1723.79
1717.09
1710.31
1703.48
1696.55
1689.52
1682.36
1675.11
1667.77
1660.35
1652.87
1645.34
1637.77
1630.16
1622.51
1614.84
1607.15
1599.44
1591.72
1583.98
1576.23
1568.48
1560.71
1552.95
1545.16
1537.4
1529.6
1521.86
1513.98
1506.35
1498.28
1490.93
1482.41
1475.78
1466.1
1461.34
1448.65
1448.98
1430.02
1443.97
1454.99
1449.49
1452.83
1445.59
1444.69
1437.55
1434.2
1427.55
1422.83
1416.54
1411.2
1404.82
1399.59
1393.51
1387.47
1381.51
1375.75
1369.46
1363.66
1357.87
1351.78
1345.85
1340.06
1333.95
1328.07
1322.27
1316.23
1310.35
1304.58
1298.54
1292.67
1286.92
1280.86
1275.03
1269.23
1263.22
1257.38
1251.54
1245.6
1239.68
1233.91
1227.95
1222.03
1216.2
1210.32
1204.37
1198.53
1192.67
1186.75
1180.82
1174.98
1169.1
1163.18
1157.27
1151.43
1145.55
1139.64
1133.75
1127.87
1122
1116.11
1110.23
1104.35
1098.47
1092.59
1086.72
1080.84
1074.97
1069.09
1063.22
1057.35
1051.48
1045.61
1039.73
1033.86
1027.99
1022.12
1016.25
1010.37
1004.5
998.617
992.728
986.839
980.911
975.057
969.109
963.212
957.355
951.351
945.536
939.627
933.646
927.806
921.939
915.876
910.108
904.23
898.134
892.361
886.541
880.393
874.615
868.808
862.685
856.878
851.026
844.968
839.165
833.266
827.24
821.345
815.549
809.508
803.581
797.73
791.77
785.755
779.928
774.012
768.013
762.114
756.274
750.312
744.337
738.458
732.564
726.607
720.696
714.769
708.888
702.907
697.006
691.079
685.089
679.259
673.277
667.324
661.474
655.513
649.497
643.718
637.7
631.669
625.896
619.916
613.821
608.057
602.104
596.03
590.21
584.282
578.225
572.404
566.426
560.368
554.567
548.619
542.544
536.726
530.776
524.717
518.907
512.96
506.888
501.065
495.113
489.037
483.211
477.26
471.181
465.353
459.403
453.321
447.49
441.54
435.456
429.621
423.673
417.586
411.749
405.802
399.712
393.871
387.925
381.832
375.989
370.043
363.949
358.102
352.16
346.06
340.213
334.269
328.166
322.323
316.361
310.295
304.391
298.527
292.334
286.566
280.544
274.481
268.669
262.598
256.796
250.408
245.145
238.323
233.216
226.418
221.122
214.747
208.819
203.109
196.526
191.507
184.363
179.642
172.344
167.818
160.392
155.831
148.476
143.903
136.568
131.924
124.718
119.919
112.853
107.965
100.871
96.2519
87.8909
77.6263
46.11
10.1901
20.3315
-0.571904
1911.85
1860.43
1868.82
1848.51
1845.65
1833.82
1828.21
1818.88
1812.6
1804.49
1797.99
1790.55
1783.98
1776.96
1770.34
1763.57
1756.97
1750.28
1743.71
1737.09
1730.47
1723.79
1717.09
1710.32
1703.49
1696.55
1689.52
1682.36
1675.11
1667.77
1660.35
1652.87
1645.34
1637.77
1630.16
1622.51
1614.84
1607.15
1599.44
1591.72
1583.98
1576.23
1568.48
1560.71
1552.95
1545.16
1537.4
1529.6
1521.86
1513.98
1506.35
1498.28
1490.93
1482.41
1475.78
1466.1
1461.34
1448.66
1449
1430.1
1444.01
1454.97
1449.47
1452.82
1445.58
1444.69
1437.55
1434.19
1427.55
1422.83
1416.54
1411.2
1404.82
1399.59
1393.51
1387.47
1381.51
1375.75
1369.46
1363.66
1357.87
1351.78
1345.85
1340.06
1333.95
1328.07
1322.27
1316.23
1310.35
1304.58
1298.54
1292.67
1286.92
1280.86
1275.03
1269.23
1263.22
1257.38
1251.54
1245.6
1239.68
1233.91
1227.95
1222.03
1216.2
1210.32
1204.37
1198.53
1192.67
1186.75
1180.82
1174.98
1169.1
1163.18
1157.27
1151.43
1145.55
1139.64
1133.75
1127.87
1122
1116.11
1110.23
1104.35
1098.47
1092.59
1086.72
1080.84
1074.97
1069.09
1063.22
1057.35
1051.48
1045.61
1039.74
1033.86
1027.99
1022.12
1016.25
1010.37
1004.5
998.617
992.728
986.84
980.911
975.057
969.11
963.212
957.355
951.352
945.536
939.627
933.647
927.806
921.939
915.877
910.108
904.23
898.135
892.361
886.54
880.394
874.616
868.808
862.686
856.879
851.026
844.969
839.165
833.266
827.24
821.346
815.548
809.509
803.581
797.73
791.771
785.756
779.929
774.012
768.013
762.114
756.274
750.313
744.337
738.459
732.565
726.607
720.697
714.769
708.888
702.908
697.006
691.08
685.089
679.259
673.278
667.325
661.474
655.514
649.498
643.717
637.7
631.671
625.896
619.916
613.822
608.057
602.104
596.031
590.21
584.282
578.226
572.404
566.426
560.369
554.567
548.619
542.546
536.726
530.777
524.718
518.907
512.961
506.89
501.065
495.113
489.038
483.211
477.26
471.183
465.353
459.403
453.323
447.49
441.541
435.457
429.622
423.674
417.587
411.749
405.802
399.713
393.871
387.925
381.834
375.99
370.044
363.951
358.102
352.16
346.062
340.213
334.269
328.168
322.323
316.361
310.296
304.392
298.527
292.336
286.566
280.544
274.482
268.67
262.598
256.797
250.41
245.144
238.325
233.215
226.42
221.121
214.748
208.819
203.109
196.528
191.506
184.366
179.641
172.347
167.816
160.395
155.83
148.479
143.902
136.571
131.923
124.721
119.918
112.855
107.964
100.873
96.2371
87.7922
77.5456
46.1826
10.263
20.3582
-0.55944
1911.74
1860.47
1868.84
1848.51
1845.65
1833.82
1828.21
1818.88
1812.61
1804.49
1797.99
1790.56
1783.99
1776.97
1770.35
1763.58
1756.98
1750.28
1743.72
1737.1
1730.48
1723.8
1717.1
1710.32
1703.49
1696.56
1689.52
1682.36
1675.11
1667.77
1660.36
1652.87
1645.35
1637.77
1630.16
1622.51
1614.84
1607.15
1599.44
1591.72
1583.98
1576.23
1568.48
1560.71
1552.95
1545.16
1537.4
1529.6
1521.86
1513.98
1506.35
1498.28
1490.93
1482.41
1475.78
1466.1
1461.34
1448.66
1449.01
1430.19
1444.05
1454.95
1449.46
1452.81
1445.58
1444.68
1437.55
1434.19
1427.54
1422.83
1416.54
1411.2
1404.82
1399.58
1393.51
1387.47
1381.51
1375.75
1369.46
1363.66
1357.87
1351.78
1345.85
1340.06
1333.95
1328.07
1322.27
1316.23
1310.35
1304.58
1298.54
1292.67
1286.92
1280.86
1275.03
1269.23
1263.22
1257.38
1251.54
1245.6
1239.68
1233.91
1227.95
1222.03
1216.2
1210.32
1204.37
1198.53
1192.67
1186.75
1180.82
1174.98
1169.1
1163.18
1157.27
1151.43
1145.55
1139.64
1133.75
1127.87
1122
1116.11
1110.23
1104.35
1098.47
1092.59
1086.72
1080.84
1074.97
1069.09
1063.22
1057.35
1051.48
1045.61
1039.74
1033.86
1027.99
1022.12
1016.25
1010.37
1004.5
998.617
992.728
986.84
980.911
975.057
969.11
963.213
957.355
951.353
945.536
939.627
933.647
927.807
921.939
915.878
910.108
904.23
898.136
892.361
886.54
880.395
874.616
868.807
862.687
856.879
851.026
844.969
839.165
833.266
827.241
821.347
815.548
809.509
803.582
797.73
791.771
785.757
779.929
774.012
768.014
762.115
756.273
750.313
744.338
738.459
732.565
726.608
720.697
714.77
708.889
702.908
697.006
691.08
685.09
679.259
673.278
667.326
661.474
655.514
649.499
643.717
637.701
631.672
625.896
619.916
613.824
608.057
602.104
596.032
590.21
584.282
578.227
572.404
566.426
560.37
554.567
548.62
542.547
536.726
530.777
524.719
518.907
512.961
506.891
501.065
495.113
489.039
483.211
477.26
471.184
465.353
459.403
453.324
447.49
441.541
435.458
429.622
423.674
417.589
411.749
405.802
399.715
393.872
387.925
381.835
375.99
370.044
363.952
358.103
352.16
346.063
340.214
334.27
328.169
322.323
316.362
310.297
304.392
298.527
292.337
286.566
280.545
274.483
268.67
262.598
256.798
250.411
245.143
238.328
233.214
226.423
221.121
214.749
208.82
203.11
196.53
191.505
184.368
179.64
172.349
167.814
160.398
155.829
148.482
143.901
136.574
131.922
124.723
119.918
112.857
107.964
100.875
96.2113
87.7167
77.4683
46.2481
10.329
20.383
-0.54757
1911.68
1860.49
1868.85
1848.5
1845.64
1833.82
1828.21
1818.88
1812.62
1804.5
1798
1790.56
1783.99
1776.97
1770.36
1763.58
1756.98
1750.29
1743.72
1737.1
1730.48
1723.81
1717.11
1710.33
1703.5
1696.56
1689.52
1682.36
1675.11
1667.77
1660.36
1652.87
1645.35
1637.77
1630.16
1622.51
1614.84
1607.15
1599.44
1591.72
1583.99
1576.23
1568.48
1560.71
1552.95
1545.16
1537.4
1529.6
1521.86
1513.98
1506.35
1498.28
1490.93
1482.41
1475.78
1466.1
1461.34
1448.66
1449.02
1430.26
1444.08
1454.93
1449.45
1452.8
1445.57
1444.68
1437.55
1434.19
1427.54
1422.82
1416.53
1411.2
1404.82
1399.58
1393.51
1387.47
1381.51
1375.75
1369.46
1363.66
1357.86
1351.78
1345.85
1340.06
1333.95
1328.07
1322.27
1316.23
1310.35
1304.58
1298.54
1292.67
1286.92
1280.86
1275.03
1269.23
1263.22
1257.38
1251.54
1245.6
1239.68
1233.91
1227.95
1222.03
1216.2
1210.32
1204.37
1198.53
1192.67
1186.75
1180.82
1174.98
1169.1
1163.18
1157.28
1151.43
1145.55
1139.64
1133.75
1127.87
1122
1116.11
1110.23
1104.35
1098.47
1092.59
1086.72
1080.84
1074.97
1069.09
1063.22
1057.35
1051.48
1045.61
1039.74
1033.86
1027.99
1022.12
1016.25
1010.37
1004.5
998.617
992.728
986.84
980.911
975.056
969.11
963.213
957.355
951.353
945.536
939.627
933.648
927.806
921.939
915.879
910.108
904.23
898.137
892.361
886.539
880.395
874.617
868.807
862.688
856.88
851.026
844.97
839.166
833.266
827.242
821.348
815.548
809.51
803.583
797.729
791.771
785.758
779.929
774.012
768.015
762.116
756.273
750.314
744.339
738.46
732.565
726.608
720.698
714.77
708.889
702.909
697.007
691.08
685.091
679.26
673.279
667.327
661.474
655.514
649.5
643.717
637.701
631.673
625.896
619.916
613.825
608.057
602.105
596.033
590.21
584.282
578.228
572.405
566.427
560.372
554.567
548.62
542.548
536.727
530.777
524.721
518.907
512.961
506.892
501.065
495.114
489.041
483.211
477.26
471.185
465.353
459.403
453.325
447.491
441.541
435.46
429.622
423.674
417.59
411.749
405.802
399.716
393.872
387.926
381.837
375.99
370.044
363.954
358.103
352.16
346.064
340.214
334.27
328.17
322.324
316.362
310.298
304.393
298.527
292.339
286.567
280.545
274.484
268.671
262.599
256.799
250.413
245.142
238.33
233.214
226.425
221.12
214.751
208.821
203.11
196.532
191.504
184.371
179.64
172.352
167.813
160.401
155.828
148.485
143.899
136.577
131.921
124.726
119.917
112.859
107.963
100.877
96.182
87.6572
77.3955
46.3069
10.3882
20.406
-0.536176
1911.65
1860.54
1868.86
1848.48
1845.62
1833.81
1828.21
1818.88
1812.62
1804.5
1798.01
1790.57
1784
1776.98
1770.36
1763.59
1756.99
1750.3
1743.73
1737.11
1730.49
1723.82
1717.12
1710.34
1703.5
1696.56
1689.53
1682.37
1675.12
1667.77
1660.36
1652.88
1645.35
1637.77
1630.16
1622.51
1614.84
1607.15
1599.44
1591.72
1583.99
1576.23
1568.48
1560.71
1552.95
1545.16
1537.41
1529.6
1521.86
1513.98
1506.35
1498.28
1490.93
1482.41
1475.79
1466.1
1461.35
1448.67
1449.02
1430.34
1444.1
1454.91
1449.44
1452.79
1445.56
1444.67
1437.54
1434.18
1427.54
1422.82
1416.53
1411.2
1404.82
1399.58
1393.5
1387.47
1381.51
1375.75
1369.46
1363.66
1357.86
1351.78
1345.85
1340.06
1333.95
1328.08
1322.27
1316.23
1310.35
1304.58
1298.54
1292.67