/*--------------------------------*- C++ -*----------------------------------*\
| =========                 |                                                 |
| \\      /  F ield         | foam-extend: Open Source CFD                    |
|  \\    /   O peration     | Version:     3.2                                |
|   \\  /    A nd           | Web:         http://www.foam-extend.org         |
|    \\/     M anipulation  | For copyright notice see file Copyright         |
\*---------------------------------------------------------------------------*/
FoamFile
{
    version     2.0;
    format      ascii;
    class       areaScalarField;
    location    "50";
    object      Pef;
}
// * * * * * * * * * * * * * * * * * * * * * * * * * * * * * * * * * * * * * //

dimensions      [0 0 0 0 0 0 0];

internalField   nonuniform List<scalar> 
300
(
0.982108
0.902184
0.765676
0.768046
0.749762
0.750117
0.741065
0.740719
0.73739
0.738683
0.738945
0.741115
0.743232
0.74661
0.749727
0.753652
0.757592
0.761947
0.766211
0.770845
0.775629
0.78048
0.785378
0.790255
0.795111
0.799898
0.80426
0.807989
0.811098
0.813665
0.815792
0.817537
0.81899
0.820176
0.821173
0.821981
0.822673
0.823225
0.823716
0.824093
0.824453
0.824707
0.824984
0.825153
0.825372
0.825473
0.825653
0.825693
0.8259
0.825814
0.826157
0.825773
0.82651
0.82544
0.827255
0.824408
0.82908
0.822045
0.835771
0.778268
0.4962
0.359147
0.300974
0.253484
0.237205
0.217476
0.215783
0.207312
0.20857
0.20445
0.204951
0.206986
0.204458
0.200203
0.20352
0.204855
0.203691
0.206148
0.207531
0.204633
0.205459
0.206658
0.205344
0.206517
0.207559
0.20598
0.206703
0.207263
0.205739
0.206349
0.206874
0.20539
0.206071
0.206511
0.205239
0.205944
0.20629
0.205386
0.205768
0.206465
0.205624
0.205684
0.206549
0.206057
0.205708
0.206569
0.206625
0.20599
0.206334
0.207023
0.206664
0.206235
0.2068
0.207305
0.20694
0.206628
0.207079
0.207539
0.207538
0.207356
0.207413
0.20773
0.208018
0.208262
0.208447
0.208583
0.208693
0.208782
0.20887
0.208937
0.208991
0.209067
0.209148
0.209226
0.209307
0.209385
0.209485
0.209578
0.209685
0.209765
0.209848
0.209943
0.21
0.210213
0.210128
0.210335
0.210544
0.210219
0.210934
0.210852
0.210372
0.211299
0.211124
0.210549
0.211877
0.211498
0.210426
0.212318
0.212157
0.210511
0.212477
0.212811
0.210996
0.212499
0.212997
0.211775
0.212938
0.212967
0.212099
0.213429
0.213936
0.212683
0.213349
0.214386
0.213684
0.214011
0.215252
0.214867
0.214191
0.215245
0.215669
0.214698
0.214849
0.215871
0.215788
0.215233
0.215594
0.216099
0.216172
0.215908
0.216121
0.216283
0.216185
0.216688
0.216237
0.216105
0.216738
0.216169
0.216201
0.217195
0.216403
0.216476
0.218021
0.217002
0.216646
0.218475
0.217721
0.216831
0.218609
0.218392
0.217581
0.21872
0.218387
0.218115
0.219471
0.218735
0.218005
0.219532
0.219177
0.218524
0.219665
0.219037
0.218301
0.219696
0.219298
0.218679
0.2201
0.219745
0.21909
0.220497
0.220148
0.219462
0.220862
0.220523
0.219811
0.221207
0.220879
0.220134
0.221528
0.221218
0.220448
0.221829
0.221533
0.220739
0.222112
0.221826
0.221007
0.222368
0.222101
0.22125
0.222606
0.222345
0.221474
0.222823
0.222548
0.221713
0.222936
0.222859
0.221741
0.223231
0.222947
0.222051
0.223377
0.222831
0.222585
0.222742
0.224241
0.221558
0.223621
0.223051
0.223106
0.223675
0.222055
0.224333
0.222429
0.224623
0.221515
0.224274
0.223083
0.224376
0.222515
0.223368
0.223532
0.223932
0.223327
0.223473
0.223349
0.22266
0.223018
0.22255
0.222619
0.223166
0.221261
0.223623
0.25332
0.555852
0.852548
0.856281
0.816594
0.824526
)
;

boundaryField
{
    inlet
    {
        type            calculated;
        value           uniform 0;
    }
    outlet
    {
        type            calculated;
        value           uniform 0;
    }
    sideWall
    {
        type            empty;
    }
}


// ************************************************************************* //
