/*--------------------------------*- C++ -*----------------------------------*\
| =========                 |                                                 |
| \\      /  F ield         | foam-extend: Open Source CFD                    |
|  \\    /   O peration     | Version:     3.2                                |
|   \\  /    A nd           | Web:         http://www.foam-extend.org         |
|    \\/     M anipulation  | For copyright notice see file Copyright         |
\*---------------------------------------------------------------------------*/
FoamFile
{
    version     2.0;
    format      ascii;
    class       surfaceScalarField;
    location    "50";
    object      phi;
}
// * * * * * * * * * * * * * * * * * * * * * * * * * * * * * * * * * * * * * //

dimensions      [0 3 -1 0 0 0 0];

internalField   nonuniform List<scalar> 
10482
(
9.2385e-06
1.23449e-05
6.60188e-06
2.63662e-06
6.26661e-06
3.35268e-07
6.22713e-06
3.94813e-08
6.20454e-06
2.25957e-08
6.16333e-06
4.12014e-08
6.14746e-06
1.58755e-08
6.12847e-06
1.89918e-08
6.12755e-06
9.16046e-10
6.12616e-06
1.38895e-09
6.13413e-06
-7.96933e-09
6.14147e-06
-7.33663e-09
6.15639e-06
-1.49207e-08
6.17128e-06
-1.48909e-08
6.18934e-06
-1.80583e-08
6.20898e-06
-1.96424e-08
6.23066e-06
-2.1684e-08
6.25275e-06
-2.20839e-08
6.2765e-06
-2.37517e-08
6.30213e-06
-2.56317e-08
6.3289e-06
-2.67722e-08
6.3563e-06
-2.73994e-08
6.38445e-06
-2.81494e-08
6.41289e-06
-2.84405e-08
6.44186e-06
-2.89702e-08
6.46996e-06
-2.80927e-08
6.49529e-06
-2.53373e-08
6.5169e-06
-2.16074e-08
6.53512e-06
-1.82164e-08
6.55029e-06
-1.51775e-08
6.56298e-06
-1.26881e-08
6.5735e-06
-1.05199e-08
6.58228e-06
-8.7751e-09
6.58954e-06
-7.26311e-09
6.59561e-06
-6.06528e-09
6.60063e-06
-5.0283e-09
6.60485e-06
-4.21299e-09
6.60836e-06
-3.50883e-09
6.61132e-06
-2.96336e-09
6.61379e-06
-2.4754e-09
6.61591e-06
-2.11588e-09
6.61768e-06
-1.76877e-09
6.61925e-06
-1.57138e-09
6.62052e-06
-1.26451e-09
6.62168e-06
-1.16354e-09
6.62256e-06
-8.79568e-10
6.62361e-06
-1.04703e-09
6.62427e-06
-6.66921e-10
6.62504e-06
-7.63467e-10
6.62529e-06
-2.55735e-10
6.62626e-06
-9.66367e-10
6.62558e-06
6.73887e-10
6.62751e-06
-1.92616e-09
6.62511e-06
2.39597e-09
6.6296e-06
-4.48174e-09
6.62303e-06
6.56436e-09
6.63616e-06
-1.31304e-08
6.6283e-06
7.87347e-09
6.62182e-06
6.37116e-09
5.87739e-06
6.26491e-07
5.40672e-06
9.59283e-08
5.54383e-06
-6.79402e-07
5.5624e-06
-5.99797e-07
5.6303e-06
-6.64796e-07
5.63978e-06
-6.14469e-07
5.67842e-06
-6.48141e-07
5.68515e-06
-6.18865e-07
5.70354e-06
-6.32103e-07
5.70637e-06
-6.1757e-07
5.71187e-06
-6.19851e-07
5.7177e-06
-6.19634e-07
5.7212e-06
-6.21334e-07
5.70832e-06
-6.0915e-07
5.71314e-06
-6.2284e-07
5.71972e-06
-6.19736e-07
5.71467e-06
-6.08961e-07
5.71381e-06
-6.12959e-07
5.72004e-06
-6.19511e-07
5.71262e-06
-6.09172e-07
5.70832e-06
-6.13231e-07
5.71269e-06
-6.19691e-07
5.70958e-06
-6.12241e-07
5.70739e-06
-6.13065e-07
5.71144e-06
-6.18467e-07
5.7078e-06
-6.12075e-07
5.7055e-06
-6.13912e-07
5.70868e-06
-6.18688e-07
5.70553e-06
-6.1327e-07
5.70363e-06
-6.14594e-07
5.70688e-06
-6.18949e-07
5.70405e-06
-6.13672e-07
5.7026e-06
-6.15052e-07
5.70587e-06
-6.18986e-07
5.70315e-06
-6.13701e-07
5.70245e-06
-6.15708e-07
5.70515e-06
-6.18381e-07
5.70312e-06
-6.14286e-07
5.70232e-06
-6.15554e-07
5.70473e-06
-6.17986e-07
5.70399e-06
-6.1544e-07
5.70205e-06
-6.14601e-07
5.70442e-06
-6.18063e-07
5.70447e-06
-6.15987e-07
5.70247e-06
-6.14627e-07
5.70377e-06
-6.17216e-07
5.70531e-06
-6.172e-07
5.7035e-06
-6.14774e-07
5.70315e-06
-6.16136e-07
5.70503e-06
-6.17503e-07
5.70511e-06
-6.16188e-07
5.70329e-06
-6.15117e-07
5.70386e-06
-6.16902e-07
5.70554e-06
-6.17297e-07
5.70516e-06
-6.15937e-07
5.70375e-06
-6.15633e-07
5.7043e-06
-6.17028e-07
5.70554e-06
-6.16987e-07
5.70561e-06
-6.16133e-07
5.70502e-06
-6.16166e-07
5.70488e-06
-6.16658e-07
5.70542e-06
-6.16878e-07
5.70591e-06
-6.16512e-07
5.70613e-06
-6.16255e-07
5.70629e-06
-6.16371e-07
5.70639e-06
-6.16481e-07
5.70648e-06
-6.16618e-07
5.70655e-06
-6.16699e-07
5.70666e-06
-6.16817e-07
5.70675e-06
-6.16889e-07
5.70677e-06
-6.16881e-07
5.70678e-06
-6.16922e-07
5.70687e-06
-6.17024e-07
5.70699e-06
-6.17091e-07
5.70708e-06
-6.17113e-07
5.70717e-06
-6.17151e-07
5.70729e-06
-6.1721e-07
5.7074e-06
-6.17227e-07
5.70749e-06
-6.17257e-07
5.70758e-06
-6.1732e-07
5.70762e-06
-6.17354e-07
5.70771e-06
-6.1746e-07
5.70773e-06
-6.17413e-07
5.70802e-06
-6.17722e-07
5.70814e-06
-6.17677e-07
5.70786e-06
-6.17281e-07
5.70865e-06
-6.18391e-07
5.70786e-06
-6.16977e-07
5.70833e-06
-6.18019e-07
5.70967e-06
-6.19023e-07
5.70756e-06
-6.16093e-07
5.70874e-06
-6.19013e-07
5.71003e-06
-6.19133e-07
5.7076e-06
-6.15968e-07
5.70913e-06
-6.19334e-07
5.71116e-06
-6.20075e-07
5.70697e-06
-6.14885e-07
5.7091e-06
-6.20083e-07
5.71244e-06
-6.21114e-07
5.70729e-06
-6.14309e-07
5.70857e-06
-6.19779e-07
5.71334e-06
-6.22407e-07
5.70834e-06
-6.14462e-07
5.70837e-06
-6.1927e-07
5.71272e-06
-6.22447e-07
5.70928e-06
-6.157e-07
5.70964e-06
-6.19678e-07
5.71238e-06
-6.21666e-07
5.70924e-06
-6.16497e-07
5.71035e-06
-6.20086e-07
5.71361e-06
-6.21708e-07
5.71085e-06
-6.17211e-07
5.70948e-06
-6.18713e-07
5.71323e-06
-6.22592e-07
5.7124e-06
-6.18539e-07
5.71084e-06
-6.18258e-07
5.71355e-06
-6.21619e-07
5.71433e-06
-6.20305e-07
5.71138e-06
-6.17918e-07
5.71253e-06
-6.21326e-07
5.71507e-06
-6.22171e-07
5.71312e-06
-6.19055e-07
5.71154e-06
-6.19808e-07
5.71395e-06
-6.22552e-07
5.71488e-06
-6.21185e-07
5.71307e-06
-6.19733e-07
5.71298e-06
-6.21457e-07
5.71444e-06
-6.22234e-07
5.71468e-06
-6.21247e-07
5.71406e-06
-6.21191e-07
5.71381e-06
-6.21728e-07
5.71468e-06
-6.22724e-07
5.71412e-06
-6.21391e-07
5.7148e-06
-6.2277e-07
5.71499e-06
-6.2282e-07
5.71341e-06
-6.21441e-07
5.71502e-06
-6.24369e-07
5.71483e-06
-6.22885e-07
5.71333e-06
-6.21802e-07
5.71556e-06
-6.25017e-07
5.71555e-06
-6.23345e-07
5.71309e-06
-6.212e-07
5.71664e-06
-6.26325e-07
5.71679e-06
-6.23749e-07
5.71309e-06
-6.20911e-07
5.71657e-06
-6.26919e-07
5.71806e-06
-6.25337e-07
5.71348e-06
-6.20778e-07
5.71611e-06
-6.26997e-07
5.71869e-06
-6.26587e-07
5.71516e-06
-6.21925e-07
5.71647e-06
-6.26728e-07
5.71805e-06
-6.26837e-07
5.71551e-06
-6.23184e-07
5.71788e-06
-6.27698e-07
5.71875e-06
-6.26913e-07
5.71498e-06
-6.23451e-07
5.71735e-06
-6.28703e-07
5.71943e-06
-6.28288e-07
5.71613e-06
-6.2413e-07
5.71785e-06
-6.29052e-07
5.71905e-06
-6.28883e-07
5.71552e-06
-6.25114e-07
5.71765e-06
-6.30039e-07
5.71954e-06
-6.29751e-07
5.71623e-06
-6.25561e-07
5.7183e-06
-6.3044e-07
5.72016e-06
-6.30351e-07
5.71682e-06
-6.26252e-07
5.7188e-06
-6.31132e-07
5.72069e-06
-6.31164e-07
5.71734e-06
-6.27034e-07
5.71926e-06
-6.31884e-07
5.72121e-06
-6.32004e-07
5.71785e-06
-6.2783e-07
5.71972e-06
-6.32649e-07
5.72171e-06
-6.3286e-07
5.71833e-06
-6.28633e-07
5.72015e-06
-6.33423e-07
5.72221e-06
-6.33732e-07
5.71883e-06
-6.29455e-07
5.72058e-06
-6.34197e-07
5.72268e-06
-6.34599e-07
5.7193e-06
-6.30285e-07
5.721e-06
-6.34976e-07
5.72314e-06
-6.35456e-07
5.71975e-06
-6.31095e-07
5.7214e-06
-6.35744e-07
5.72358e-06
-6.363e-07
5.72019e-06
-6.31893e-07
5.72176e-06
-6.36475e-07
5.724e-06
-6.37132e-07
5.72058e-06
-6.32629e-07
5.72213e-06
-6.37223e-07
5.72435e-06
-6.37849e-07
5.72099e-06
-6.33417e-07
5.72244e-06
-6.37837e-07
5.72466e-06
-6.38535e-07
5.72139e-06
-6.34204e-07
5.7224e-06
-6.38052e-07
5.72548e-06
-6.3996e-07
5.72141e-06
-6.33935e-07
5.72346e-06
-6.3977e-07
5.72468e-06
-6.38802e-07
5.72225e-06
-6.36168e-07
5.72302e-06
-6.38914e-07
5.72527e-06
-6.39971e-07
5.72415e-06
-6.38077e-07
5.72001e-06
-6.35076e-07
5.72797e-06
-6.46189e-07
5.72062e-06
-6.31285e-07
5.7275e-06
-6.46176e-07
5.72054e-06
-6.32645e-07
5.72555e-06
-6.44161e-07
5.72409e-06
-6.3733e-07
5.72437e-06
-6.39798e-07
5.72505e-06
-6.41065e-07
5.71983e-06
-6.34517e-07
5.72935e-06
-6.48138e-07
5.72109e-06
-6.31047e-07
5.72868e-06
-6.48248e-07
5.71821e-06
-6.30072e-07
5.72945e-06
-6.50583e-07
5.72064e-06
-6.30407e-07
5.72909e-06
-6.48586e-07
5.71961e-06
-6.30994e-07
5.72883e-06
-6.49468e-07
5.71896e-06
-6.30257e-07
5.72708e-06
-6.48335e-07
5.71968e-06
-6.3285e-07
5.7263e-06
-6.4692e-07
5.721e-06
-6.35017e-07
5.72478e-06
-6.44116e-07
5.71697e-06
-6.32503e-07
5.74236e-06
-6.63333e-07
6.1561e-06
-1.03073e-06
6.99268e-06
-1.27717e-06
7.17151e-06
-3.20396e-07
6.64718e-06
5.24214e-07
6.62201e-06
2.51751e-08
1.74585e-08
1.62236e-05
1.77045e-05
1.34998e-05
5.36045e-06
1.25624e-05
1.27263e-06
1.23086e-05
2.93318e-07
1.21314e-05
1.99704e-07
1.19977e-05
1.74972e-07
1.19146e-05
9.89846e-08
1.18605e-05
7.30625e-08
1.18329e-05
2.8564e-08
1.18226e-05
1.16401e-08
1.18241e-05
-9.50599e-09
1.18328e-05
-1.59584e-08
1.18525e-05
-3.46561e-08
1.18757e-05
-3.81246e-08
1.19053e-05
-4.76792e-08
1.1939e-05
-5.33239e-08
1.19769e-05
-5.95253e-08
1.20167e-05
-6.19304e-08
1.20591e-05
-6.61416e-08
1.21054e-05
-7.19264e-08
1.21542e-05
-7.56081e-08
1.22048e-05
-7.79649e-08
1.22569e-05
-8.02466e-08
1.231e-05
-8.15408e-08
1.23645e-05
-8.34613e-08
1.24177e-05
-8.1282e-08
1.24659e-05
-7.35775e-08
1.25078e-05
-6.34366e-08
1.25435e-05
-5.39562e-08
1.25737e-05
-4.54321e-08
1.25993e-05
-3.82212e-08
1.26207e-05
-3.19545e-08
1.26387e-05
-2.67576e-08
1.26537e-05
-2.23016e-08
1.26663e-05
-1.86538e-08
1.26769e-05
-1.55622e-08
1.26857e-05
-1.30274e-08
1.26931e-05
-1.09204e-08
1.26993e-05
-9.17762e-09
1.27046e-05
-7.7395e-09
1.2709e-05
-6.53683e-09
1.27128e-05
-5.54827e-09
1.2716e-05
-4.81089e-09
1.27187e-05
-4.00646e-09
1.27211e-05
-3.55596e-09
1.2723e-05
-2.77437e-09
1.27246e-05
-2.60029e-09
1.27261e-05
-2.13398e-09
1.27274e-05
-2.11849e-09
1.27284e-05
-1.21336e-09
1.27294e-05
-2.02966e-09
1.27297e-05
3.94661e-10
1.2731e-05
-3.25083e-09
1.27302e-05
3.24085e-09
1.27325e-05
-6.83889e-09
1.27303e-05
8.76291e-09
1.27389e-05
-2.16462e-08
1.27573e-05
-1.05619e-08
1.27543e-05
9.18576e-09
1.16715e-05
1.70938e-06
1.07266e-05
1.04172e-06
1.07138e-05
-6.65726e-07
1.07271e-05
-6.1255e-07
1.08072e-05
-7.44395e-07
1.08428e-05
-6.49541e-07
1.09005e-05
-7.05413e-07
1.09303e-05
-6.48102e-07
1.09614e-05
-6.62802e-07
1.09771e-05
-6.32812e-07
1.0989e-05
-6.31207e-07
1.10062e-05
-6.36438e-07
1.10138e-05
-6.28467e-07
1.0998e-05
-5.92802e-07
1.10044e-05
-6.28838e-07
1.10166e-05
-6.31411e-07
1.1012e-05
-6.03902e-07
1.10121e-05
-6.12609e-07
1.10204e-05
-6.2731e-07
1.1011e-05
-5.99333e-07
1.10043e-05
-6.06055e-07
1.10089e-05
-6.23792e-07
1.10053e-05
-6.08221e-07
1.10029e-05
-6.10179e-07
1.10075e-05
-6.22564e-07
1.10029e-05
-6.07045e-07
1.09995e-05
-6.10075e-07
1.10026e-05
-6.21246e-07
1.09986e-05
-6.0881e-07
1.0996e-05
-6.11528e-07
1.09992e-05
-6.21699e-07
1.09957e-05
-6.09716e-07
1.09939e-05
-6.12722e-07
1.09973e-05
-6.22015e-07
1.09941e-05
-6.10025e-07
1.09931e-05
-6.14218e-07
1.09962e-05
-6.20968e-07
1.09938e-05
-6.11476e-07
1.09928e-05
-6.14077e-07
1.09958e-05
-6.20523e-07
1.09949e-05
-6.14017e-07
1.09926e-05
-6.11791e-07
1.09955e-05
-6.2049e-07
1.09957e-05
-6.15729e-07
1.09931e-05
-6.11629e-07
1.09948e-05
-6.1845e-07
1.0997e-05
-6.18839e-07
1.09947e-05
-6.12037e-07
1.09942e-05
-6.15207e-07
1.09969e-05
-6.19698e-07
1.0997e-05
-6.15852e-07
1.09945e-05
-6.12108e-07
1.09953e-05
-6.172e-07
1.09979e-05
-6.19458e-07
1.09975e-05
-6.15028e-07
1.09953e-05
-6.13017e-07
1.0996e-05
-6.17227e-07
1.09981e-05
-6.18618e-07
1.09985e-05
-6.1612e-07
1.09976e-05
-6.14775e-07
1.09972e-05
-6.15749e-07
1.0998e-05
-6.17239e-07
1.09991e-05
-6.17109e-07
1.09997e-05
-6.16416e-07
1.10001e-05
-6.16276e-07
1.10003e-05
-6.16206e-07
1.10005e-05
-6.16313e-07
1.10006e-05
-6.16354e-07
1.10007e-05
-6.16492e-07
1.10009e-05
-6.16544e-07
1.1001e-05
-6.16518e-07
1.10011e-05
-6.16591e-07
1.10012e-05
-6.16681e-07
1.10014e-05
-6.16758e-07
1.10016e-05
-6.16835e-07
1.10017e-05
-6.16841e-07
1.10019e-05
-6.16927e-07
1.10021e-05
-6.16968e-07
1.10024e-05
-6.17031e-07
1.10026e-05
-6.1708e-07
1.10027e-05
-6.16998e-07
1.10029e-05
-6.17198e-07
1.10031e-05
-6.17083e-07
1.10035e-05
-6.17653e-07
1.10035e-05
-6.1725e-07
1.10034e-05
-6.16631e-07
1.10044e-05
-6.18917e-07
1.10035e-05
-6.15644e-07
1.10043e-05
-6.18313e-07
1.10058e-05
-6.20108e-07
1.10035e-05
-6.13329e-07
1.10049e-05
-6.19876e-07
1.10064e-05
-6.20173e-07
1.10038e-05
-6.12913e-07
1.10058e-05
-6.20839e-07
1.1008e-05
-6.21794e-07
1.10032e-05
-6.09611e-07
1.10059e-05
-6.22293e-07
1.10099e-05
-6.24688e-07
1.10038e-05
-6.0768e-07
1.10054e-05
-6.20939e-07
1.10114e-05
-6.27948e-07
1.10056e-05
-6.08154e-07
1.10055e-05
-6.18738e-07
1.1011e-05
-6.27409e-07
1.10072e-05
-6.11482e-07
1.10074e-05
-6.19414e-07
1.10106e-05
-6.24367e-07
1.10071e-05
-6.12475e-07
1.10086e-05
-6.21157e-07
1.10129e-05
-6.25502e-07
1.10095e-05
-6.13341e-07
1.1008e-05
-6.1671e-07
1.10127e-05
-6.26824e-07
1.1012e-05
-6.17369e-07
1.10104e-05
-6.16175e-07
1.10141e-05
-6.24872e-07
1.10151e-05
-6.20837e-07
1.10113e-05
-6.13618e-07
1.10127e-05
-6.22305e-07
1.10163e-05
-6.25217e-07
1.10137e-05
-6.16064e-07
1.10115e-05
-6.17089e-07
1.10148e-05
-6.25377e-07
1.10163e-05
-6.22249e-07
1.10139e-05
-6.16855e-07
1.10136e-05
-6.20662e-07
1.10158e-05
-6.23915e-07
1.10165e-05
-6.2148e-07
1.10155e-05
-6.19716e-07
1.10152e-05
-6.20915e-07
1.10163e-05
-6.23357e-07
1.10158e-05
-6.20471e-07
1.10168e-05
-6.23214e-07
1.10168e-05
-6.22341e-07
1.10148e-05
-6.19016e-07
1.10167e-05
-6.25728e-07
1.10165e-05
-6.22257e-07
1.10149e-05
-6.19672e-07
1.10177e-05
-6.27347e-07
1.10177e-05
-6.22877e-07
1.1015e-05
-6.18063e-07
1.10195e-05
-6.30351e-07
1.10198e-05
-6.23552e-07
1.10154e-05
-6.16048e-07
1.10198e-05
-6.30797e-07
1.10217e-05
-6.26733e-07
1.10163e-05
-6.14939e-07
1.10193e-05
-6.2953e-07
1.10226e-05
-6.29366e-07
1.10188e-05
-6.17691e-07
1.10201e-05
-6.275e-07
1.10219e-05
-6.28128e-07
1.10193e-05
-6.20164e-07
1.10223e-05
-6.30225e-07
1.10233e-05
-6.27371e-07
1.10188e-05
-6.18469e-07
1.10215e-05
-6.30965e-07
1.10241e-05
-6.30339e-07
1.10205e-05
-6.20091e-07
1.10224e-05
-6.30441e-07
1.10235e-05
-6.29537e-07
1.10195e-05
-6.20583e-07
1.10219e-05
-6.32012e-07
1.10242e-05
-6.31519e-07
1.10207e-05
-6.2163e-07
1.10232e-05
-6.32369e-07
1.10253e-05
-6.32048e-07
1.10218e-05
-6.22246e-07
1.10241e-05
-6.3292e-07
1.10263e-05
-6.32856e-07
1.10227e-05
-6.22985e-07
1.10249e-05
-6.33602e-07
1.10271e-05
-6.33742e-07
1.10235e-05
-6.23751e-07
1.10257e-05
-6.34312e-07
1.1028e-05
-6.34654e-07
1.10243e-05
-6.24505e-07
1.10264e-05
-6.3502e-07
1.10288e-05
-6.35609e-07
1.10251e-05
-6.25312e-07
1.10271e-05
-6.35713e-07
1.10295e-05
-6.36525e-07
1.10259e-05
-6.26127e-07
1.10278e-05
-6.36428e-07
1.10303e-05
-6.37424e-07
1.10266e-05
-6.269e-07
1.10285e-05
-6.37129e-07
1.1031e-05
-6.38329e-07
1.10273e-05
-6.27672e-07
1.1029e-05
-6.3778e-07
1.10316e-05
-6.39222e-07
1.10279e-05
-6.28374e-07
1.10296e-05
-6.38484e-07
1.10321e-05
-6.39892e-07
1.10284e-05
-6.29166e-07
1.103e-05
-6.38982e-07
1.10327e-05
-6.40748e-07
1.10289e-05
-6.29893e-07
1.10303e-05
-6.38896e-07
1.10338e-05
-6.42972e-07
1.10293e-05
-6.28943e-07
1.10313e-05
-6.41328e-07
1.10328e-05
-6.39802e-07
1.10301e-05
-6.32977e-07
1.10308e-05
-6.3909e-07
1.10339e-05
-6.42603e-07
1.10317e-05
-6.35347e-07
1.10284e-05
-6.31333e-07
1.10364e-05
-6.5369e-07
1.10293e-05
-6.23654e-07
1.10357e-05
-6.5208e-07
1.10289e-05
-6.25416e-07
1.10338e-05
-6.48499e-07
1.10328e-05
-6.35842e-07
1.10331e-05
-6.39627e-07
1.10325e-05
-6.39909e-07
1.10289e-05
-6.30429e-07
1.10377e-05
-6.56498e-07
1.10312e-05
-6.24058e-07
1.10369e-05
-6.53453e-07
1.10264e-05
-6.19085e-07
1.10375e-05
-6.61122e-07
1.10307e-05
-6.23138e-07
1.10377e-05
-6.55102e-07
1.10286e-05
-6.21405e-07
1.1037e-05
-6.57348e-07
1.10276e-05
-6.20358e-07
1.10342e-05
-6.5449e-07
1.1028e-05
-6.26167e-07
1.1033e-05
-6.51393e-07
1.10291e-05
-6.30643e-07
1.10311e-05
-6.45572e-07
1.10241e-05
-6.25047e-07
1.10078e-05
-6.46526e-07
1.16097e-05
-1.63179e-06
1.30551e-05
-2.72176e-06
1.36573e-05
-9.22686e-07
1.30485e-05
1.13277e-06
1.28342e-05
2.39487e-07
5.81918e-08
1.97368e-05
1.95511e-05
1.74841e-05
7.61321e-06
1.62917e-05
2.46498e-06
1.57656e-05
8.19477e-07
1.53974e-05
5.6789e-07
1.51803e-05
3.92057e-07
1.50333e-05
2.4601e-07
1.49411e-05
1.65192e-07
1.48843e-05
8.5418e-08
1.48575e-05
3.84144e-08
1.48463e-05
1.72924e-09
1.48498e-05
-1.95213e-08
1.48656e-05
-5.04667e-08
1.48882e-05
-6.06803e-08
1.49198e-05
-7.93199e-08
1.49572e-05
-9.0647e-08
1.50004e-05
-1.02731e-07
1.5047e-05
-1.08568e-07
1.50968e-05
-1.15924e-07
1.51515e-05
-1.26681e-07
1.52098e-05
-1.33842e-07
1.52705e-05
-1.38725e-07
1.53334e-05
-1.43103e-07
1.53979e-05
-1.46008e-07
1.54642e-05
-1.49833e-07
1.5529e-05
-1.46041e-07
1.55878e-05
-1.32389e-07
1.56392e-05
-1.14832e-07
1.56834e-05
-9.82031e-08
1.57212e-05
-8.31781e-08
1.57532e-05
-7.02557e-08
1.57803e-05
-5.90049e-08
1.58031e-05
-4.95403e-08
1.58222e-05
-4.14422e-08
1.58383e-05
-3.47163e-08
1.58517e-05
-2.9051e-08
1.5863e-05
-2.43289e-08
1.58726e-05
-2.04489e-08
1.58806e-05
-1.71638e-08
1.58873e-05
-1.45232e-08
1.5893e-05
-1.22188e-08
1.58979e-05
-1.0422e-08
1.5902e-05
-8.95738e-09
1.59056e-05
-7.55235e-09
1.59086e-05
-6.60388e-09
1.59111e-05
-5.23968e-09
1.59134e-05
-4.85737e-09
1.59153e-05
-4.04628e-09
1.5917e-05
-3.80939e-09
1.59183e-05
-2.52315e-09
1.59194e-05
-3.16659e-09
1.59202e-05
-3.86423e-10
1.59213e-05
-4.30735e-09
1.59219e-05
2.62233e-09
1.59232e-05
-8.15252e-09
1.59232e-05
8.7797e-09
1.59286e-05
-2.71276e-08
1.59581e-05
-4.00397e-08
1.59505e-05
1.65514e-08
1.48497e-05
2.81044e-06
1.37352e-05
2.15791e-06
1.35483e-05
-4.76677e-07
1.35185e-05
-5.80902e-07
1.35791e-05
-8.03202e-07
1.36179e-05
-6.86448e-07
1.36804e-05
-7.66173e-07
1.37207e-05
-6.86576e-07
1.37602e-05
-7.00446e-07
1.37841e-05
-6.54903e-07
1.38016e-05
-6.46886e-07
1.38256e-05
-6.58711e-07
1.38375e-05
-6.38548e-07
1.38245e-05
-5.77908e-07
1.38308e-05
-6.33393e-07
1.38449e-05
-6.43683e-07
1.38434e-05
-6.0064e-07
1.38447e-05
-6.12064e-07
1.38527e-05
-6.33544e-07
1.38447e-05
-5.89498e-07
1.3838e-05
-5.97526e-07
1.38413e-05
-6.25276e-07
1.38385e-05
-6.03619e-07
1.38364e-05
-6.06279e-07
1.38401e-05
-6.24504e-07
1.38362e-05
-6.01274e-07
1.38328e-05
-6.04818e-07
1.38348e-05
-6.21516e-07
1.38312e-05
-6.03351e-07
1.38284e-05
-6.06937e-07
1.38309e-05
-6.22404e-07
1.38278e-05
-6.04731e-07
1.38257e-05
-6.08817e-07
1.38286e-05
-6.23161e-07
1.38259e-05
-6.05446e-07
1.38246e-05
-6.11141e-07
1.38273e-05
-6.21822e-07
1.38253e-05
-6.07691e-07
1.38242e-05
-6.11168e-07
1.38269e-05
-6.21371e-07
1.38262e-05
-6.1154e-07
1.38241e-05
-6.07896e-07
1.38266e-05
-6.21162e-07
1.38271e-05
-6.14343e-07
1.38249e-05
-6.07619e-07
1.38263e-05
-6.18038e-07
1.38283e-05
-6.19046e-07
1.38264e-05
-6.08307e-07
1.38258e-05
-6.12848e-07
1.38285e-05
-6.20501e-07
1.38288e-05
-6.14374e-07
1.38264e-05
-6.07857e-07
1.3827e-05
-6.1597e-07
1.38297e-05
-6.20349e-07
1.38295e-05
-6.13037e-07
1.38273e-05
-6.09041e-07
1.38278e-05
-6.1586e-07
1.38301e-05
-6.19088e-07
1.38308e-05
-6.15074e-07
1.38299e-05
-6.12003e-07
1.38293e-05
-6.13378e-07
1.38302e-05
-6.16284e-07
1.38315e-05
-6.16548e-07
1.38323e-05
-6.15453e-07
1.38329e-05
-6.15028e-07
1.38332e-05
-6.14705e-07
1.38334e-05
-6.14716e-07
1.38336e-05
-6.147e-07
1.38338e-05
-6.14829e-07
1.38339e-05
-6.14825e-07
1.3834e-05
-6.14803e-07
1.38341e-05
-6.14946e-07
1.38343e-05
-6.15023e-07
1.38345e-05
-6.15104e-07
1.38347e-05
-6.1525e-07
1.38349e-05
-6.15227e-07
1.38352e-05
-6.15337e-07
1.38354e-05
-6.15411e-07
1.38357e-05
-6.15497e-07
1.3836e-05
-6.15524e-07
1.38362e-05
-6.15371e-07
1.38365e-05
-6.157e-07
1.38367e-05
-6.15475e-07
1.38371e-05
-6.16184e-07
1.38371e-05
-6.15458e-07
1.38371e-05
-6.14777e-07
1.38381e-05
-6.18083e-07
1.38374e-05
-6.13182e-07
1.38381e-05
-6.17174e-07
1.38395e-05
-6.19708e-07
1.38377e-05
-6.09633e-07
1.38388e-05
-6.1918e-07
1.38403e-05
-6.19829e-07
1.38382e-05
-6.0897e-07
1.38399e-05
-6.20758e-07
1.3842e-05
-6.22002e-07
1.38379e-05
-6.03729e-07
1.38401e-05
-6.22658e-07
1.38439e-05
-6.26628e-07
1.38388e-05
-6.00726e-07
1.38399e-05
-6.20251e-07
1.38454e-05
-6.31642e-07
1.38407e-05
-6.01588e-07
1.38403e-05
-6.165e-07
1.38452e-05
-6.30554e-07
1.38425e-05
-6.06858e-07
1.38423e-05
-6.17419e-07
1.38451e-05
-6.25305e-07
1.38423e-05
-6.07913e-07
1.38437e-05
-6.20687e-07
1.38477e-05
-6.2768e-07
1.38449e-05
-6.08697e-07
1.38435e-05
-6.13459e-07
1.38478e-05
-6.29253e-07
1.38476e-05
-6.15352e-07
1.38463e-05
-6.13091e-07
1.38499e-05
-6.26604e-07
1.38511e-05
-6.20233e-07
1.38477e-05
-6.08323e-07
1.38488e-05
-6.21616e-07
1.38521e-05
-6.26626e-07
1.385e-05
-6.12153e-07
1.38479e-05
-6.13115e-07
1.38509e-05
-6.26575e-07
1.38527e-05
-6.22194e-07
1.38505e-05
-6.12826e-07
1.385e-05
-6.18302e-07
1.38522e-05
-6.24255e-07
1.38531e-05
-6.20611e-07
1.38522e-05
-6.16929e-07
1.38518e-05
-6.18709e-07
1.38529e-05
-6.22553e-07
1.38526e-05
-6.1837e-07
1.38535e-05
-6.22241e-07
1.38535e-05
-6.20478e-07
1.38517e-05
-6.1536e-07
1.38532e-05
-6.25378e-07
1.38532e-05
-6.20423e-07
1.38518e-05
-6.16431e-07
1.38543e-05
-6.27952e-07
1.38545e-05
-6.21296e-07
1.38523e-05
-6.13992e-07
1.38563e-05
-6.3254e-07
1.3857e-05
-6.22323e-07
1.38531e-05
-6.10301e-07
1.3857e-05
-6.32844e-07
1.3859e-05
-6.26929e-07
1.38543e-05
-6.08348e-07
1.38567e-05
-6.30123e-07
1.38599e-05
-6.30706e-07
1.38568e-05
-6.1275e-07
1.38577e-05
-6.26529e-07
1.38594e-05
-6.27973e-07
1.38574e-05
-6.16241e-07
1.38601e-05
-6.31134e-07
1.38612e-05
-6.26542e-07
1.38571e-05
-6.12532e-07
1.38594e-05
-6.31382e-07
1.38619e-05
-6.30966e-07
1.38588e-05
-6.15191e-07
1.38604e-05
-6.30125e-07
1.38614e-05
-6.28748e-07
1.38578e-05
-6.15041e-07
1.38598e-05
-6.32182e-07
1.3862e-05
-6.31865e-07
1.38591e-05
-6.16884e-07
1.38612e-05
-6.32607e-07
1.38634e-05
-6.32366e-07
1.38605e-05
-6.17389e-07
1.38624e-05
-6.32999e-07
1.38645e-05
-6.33136e-07
1.38615e-05
-6.18082e-07
1.38634e-05
-6.33596e-07
1.38656e-05
-6.34044e-07
1.38625e-05
-6.18829e-07
1.38643e-05
-6.34239e-07
1.38665e-05
-6.3499e-07
1.38634e-05
-6.19551e-07
1.38652e-05
-6.34867e-07
1.38674e-05
-6.36003e-07
1.38644e-05
-6.20361e-07
1.3866e-05
-6.35472e-07
1.38683e-05
-6.36946e-07
1.38652e-05
-6.21172e-07
1.38668e-05
-6.36115e-07
1.38691e-05
-6.37868e-07
1.3866e-05
-6.21921e-07
1.38675e-05
-6.36738e-07
1.38699e-05
-6.38813e-07
1.38668e-05
-6.22683e-07
1.38682e-05
-6.37299e-07
1.38706e-05
-6.39741e-07
1.38675e-05
-6.23355e-07
1.38688e-05
-6.37962e-07
1.38712e-05
-6.40369e-07
1.38681e-05
-6.24177e-07
1.38693e-05
-6.38302e-07
1.38718e-05
-6.41354e-07
1.38687e-05
-6.24917e-07
1.38697e-05
-6.37918e-07
1.38727e-05
-6.44156e-07
1.3869e-05
-6.23306e-07
1.38705e-05
-6.40983e-07
1.38721e-05
-6.39524e-07
1.38699e-05
-6.28786e-07
1.38702e-05
-6.37539e-07
1.38731e-05
-6.43646e-07
1.38713e-05
-6.31653e-07
1.38686e-05
-6.26698e-07
1.38751e-05
-6.58247e-07
1.38695e-05
-6.16233e-07
1.38747e-05
-6.55358e-07
1.3869e-05
-6.17847e-07
1.38731e-05
-6.50613e-07
1.38725e-05
-6.33418e-07
1.38726e-05
-6.37769e-07
1.38721e-05
-6.37555e-07
1.38692e-05
-6.25588e-07
1.38762e-05
-6.61596e-07
1.38721e-05
-6.18062e-07
1.38759e-05
-6.55335e-07
1.38669e-05
-6.08178e-07
1.38761e-05
-6.68433e-07
1.38714e-05
-6.16583e-07
1.38769e-05
-6.58661e-07
1.38691e-05
-6.11738e-07
1.38758e-05
-6.6219e-07
1.3868e-05
-6.10609e-07
1.3873e-05
-6.57563e-07
1.38681e-05
-6.19417e-07
1.38716e-05
-6.52992e-07
1.38684e-05
-6.25561e-07
1.387e-05
-6.45214e-07
1.38637e-05
-6.16876e-07
1.38247e-05
-6.0556e-07
1.44036e-05
-2.20836e-06
1.60222e-05
-4.33824e-06
1.6894e-05
-1.79406e-06
1.63999e-05
1.62665e-06
1.61277e-05
5.11799e-07
1.26398e-07
2.15416e-05
1.95929e-05
2.01944e-05
8.96043e-06
1.91058e-05
3.55354e-06
1.83188e-05
1.6065e-06
1.77601e-05
1.12659e-06
1.74378e-05
7.14286e-07
1.72157e-05
4.68099e-07
1.70792e-05
3.01782e-07
1.69896e-05
1.7494e-07
1.69397e-05
8.83386e-08
1.69109e-05
3.05537e-08
1.69039e-05
-1.25627e-08
1.69113e-05
-5.77936e-08
1.69286e-05
-7.80171e-08
1.69572e-05
-1.07893e-07
1.69931e-05
-1.26571e-07
1.70368e-05
-1.4639e-07
1.70852e-05
-1.56972e-07
1.71375e-05
-1.68244e-07
1.71955e-05
-1.84736e-07
1.72579e-05
-1.96163e-07
1.73234e-05
-2.04273e-07
1.73915e-05
-2.11243e-07
1.7462e-05
-2.16418e-07
1.75345e-05
-2.22419e-07
1.76049e-05
-2.16375e-07
1.76685e-05
-1.95984e-07
1.77243e-05
-1.70631e-07
1.77726e-05
-1.46503e-07
1.7814e-05
-1.24622e-07
1.78494e-05
-1.05627e-07
1.78794e-05
-8.89835e-08
1.79047e-05
-7.48794e-08
1.79261e-05
-6.28074e-08
1.7944e-05
-5.26928e-08
1.79592e-05
-4.41872e-08
1.79719e-05
-3.70346e-08
1.79826e-05
-3.11787e-08
1.79916e-05
-2.61662e-08
1.79993e-05
-2.21772e-08
1.80057e-05
-1.86299e-08
1.80112e-05
-1.59233e-08
1.80158e-05
-1.36272e-08
1.80199e-05
-1.15583e-08
1.80233e-05
-1.0018e-08
1.80261e-05
-8.04588e-09
1.80286e-05
-7.39626e-09
1.80308e-05
-6.21238e-09
1.80327e-05
-5.70247e-09
1.80342e-05
-4.01469e-09
1.80354e-05
-4.36921e-09
1.80364e-05
-1.41967e-09
1.80374e-05
-5.27305e-09
1.80381e-05
1.8435e-09
1.8039e-05
-9.01771e-09
1.80399e-05
7.85667e-09
1.80436e-05
-3.07739e-08
1.80765e-05
-7.29159e-08
1.80576e-05
3.52189e-08
1.70503e-05
3.81832e-06
1.59143e-05
3.29664e-06
1.55788e-05
-1.37471e-07
1.54903e-05
-4.88926e-07
1.55123e-05
-8.21784e-07
1.55395e-05
-7.10227e-07
1.55979e-05
-8.21219e-07
1.56398e-05
-7.25158e-07
1.56831e-05
-7.40359e-07
1.57116e-05
-6.8012e-07
1.57331e-05
-6.65077e-07
1.5761e-05
-6.83248e-07
1.57765e-05
-6.50709e-07
1.5768e-05
-5.66035e-07
1.5774e-05
-6.36085e-07
1.57886e-05
-6.54941e-07
1.57907e-05
-5.99365e-07
1.57929e-05
-6.11e-07
1.58005e-05
-6.37779e-07
1.57946e-05
-5.80264e-07
1.57889e-05
-5.88462e-07
1.57913e-05
-6.24375e-07
1.57893e-05
-5.98222e-07
1.57875e-05
-6.01169e-07
1.57905e-05
-6.24141e-07
1.57873e-05
-5.94775e-07
1.57843e-05
-5.98381e-07
1.57857e-05
-6.1958e-07
1.57824e-05
-5.96776e-07
1.57797e-05
-6.0087e-07
1.57816e-05
-6.20924e-07
1.57789e-05
-5.98642e-07
1.57767e-05
-6.03327e-07
1.57791e-05
-6.22143e-07
1.57768e-05
-5.99823e-07
1.57755e-05
-6.06467e-07
1.57777e-05
-6.2067e-07
1.57761e-05
-6.02788e-07
1.5775e-05
-6.06684e-07
1.57772e-05
-6.20203e-07
1.57768e-05
-6.07831e-07
1.5775e-05
-6.02765e-07
1.5777e-05
-6.19827e-07
1.57776e-05
-6.11571e-07
1.57759e-05
-6.02502e-07
1.5777e-05
-6.15794e-07
1.57788e-05
-6.17505e-07
1.57773e-05
-6.03466e-07
1.57767e-05
-6.08881e-07
1.57789e-05
-6.19376e-07
1.57795e-05
-6.11605e-07
1.57775e-05
-6.02536e-07
1.57778e-05
-6.12903e-07
1.57802e-05
-6.19346e-07
1.57804e-05
-6.09867e-07
1.57786e-05
-6.03878e-07
1.57787e-05
-6.12679e-07
1.57808e-05
-6.17825e-07
1.57818e-05
-6.12671e-07
1.5781e-05
-6.07865e-07
1.57804e-05
-6.09471e-07
1.57812e-05
-6.13714e-07
1.57825e-05
-6.14473e-07
1.57835e-05
-6.13059e-07
1.57842e-05
-6.1235e-07
1.57846e-05
-6.11747e-07
1.57848e-05
-6.11626e-07
1.5785e-05
-6.11536e-07
1.57852e-05
-6.11642e-07
1.57853e-05
-6.11586e-07
1.57855e-05
-6.11562e-07
1.57856e-05
-6.11775e-07
1.57858e-05
-6.11843e-07
1.5786e-05
-6.11925e-07
1.57863e-05
-6.12142e-07
1.57865e-05
-6.12096e-07
1.57868e-05
-6.12228e-07
1.57871e-05
-6.12338e-07
1.57874e-05
-6.12437e-07
1.57876e-05
-6.1244e-07
1.57879e-05
-6.12235e-07
1.57882e-05
-6.12697e-07
1.57885e-05
-6.12373e-07
1.57889e-05
-6.13159e-07
1.57889e-05
-6.12154e-07
1.5789e-05
-6.11455e-07
1.57899e-05
-6.15628e-07
1.57895e-05
-6.09381e-07
1.579e-05
-6.1439e-07
1.57913e-05
-6.17611e-07
1.57899e-05
-6.04808e-07
1.57908e-05
-6.16704e-07
1.57922e-05
-6.17863e-07
1.57905e-05
-6.03934e-07
1.57919e-05
-6.18809e-07
1.57938e-05
-6.20528e-07
1.57906e-05
-5.97068e-07
1.57922e-05
-6.20969e-07
1.57956e-05
-6.26656e-07
1.57916e-05
-5.93333e-07
1.57924e-05
-6.17582e-07
1.57971e-05
-6.33025e-07
1.57935e-05
-5.94566e-07
1.57929e-05
-6.12538e-07
1.57972e-05
-6.31438e-07
1.57951e-05
-6.01462e-07
1.57949e-05
-6.13797e-07
1.57973e-05
-6.24324e-07
1.57953e-05
-6.02486e-07
1.57964e-05
-6.18408e-07
1.57999e-05
-6.27828e-07
1.57979e-05
-6.03269e-07
1.57965e-05
-6.08714e-07
1.58001e-05
-6.29472e-07
1.58004e-05
-6.1226e-07
1.57995e-05
-6.08733e-07
1.58026e-05
-6.26323e-07
1.5804e-05
-6.18299e-07
1.58013e-05
-6.0221e-07
1.58021e-05
-6.18975e-07
1.58048e-05
-6.25979e-07
1.58033e-05
-6.07232e-07
1.58014e-05
-6.07847e-07
1.58039e-05
-6.25703e-07
1.58058e-05
-6.20624e-07
1.58041e-05
-6.07711e-07
1.58034e-05
-6.14272e-07
1.58054e-05
-6.22784e-07
1.58065e-05
-6.18325e-07
1.58057e-05
-6.12798e-07
1.58054e-05
-6.14951e-07
1.58063e-05
-6.20018e-07
1.58062e-05
-6.14859e-07
1.58069e-05
-6.19563e-07
1.58069e-05
-6.17097e-07
1.58054e-05
-6.10435e-07
1.58066e-05
-6.23145e-07
1.58067e-05
-6.17104e-07
1.58055e-05
-6.11853e-07
1.58076e-05
-6.26614e-07
1.5808e-05
-6.18308e-07
1.58063e-05
-6.08796e-07
1.58096e-05
-6.32519e-07
1.58105e-05
-6.19769e-07
1.58073e-05
-6.03677e-07
1.58105e-05
-6.32574e-07
1.58126e-05
-6.25625e-07
1.58087e-05
-6.01077e-07
1.58106e-05
-6.28518e-07
1.58135e-05
-6.3027e-07
1.58111e-05
-6.06905e-07
1.58117e-05
-6.2365e-07
1.58132e-05
-6.26123e-07
1.58117e-05
-6.1124e-07
1.58139e-05
-6.29958e-07
1.58151e-05
-6.24238e-07
1.58117e-05
-6.05738e-07
1.58134e-05
-6.2962e-07
1.58157e-05
-6.29874e-07
1.58133e-05
-6.09335e-07
1.58144e-05
-6.27749e-07
1.58154e-05
-6.26347e-07
1.58124e-05
-6.08535e-07
1.58138e-05
-6.30213e-07
1.58159e-05
-6.30497e-07
1.58137e-05
-6.1117e-07
1.58153e-05
-6.30816e-07
1.58174e-05
-6.31031e-07
1.58151e-05
-6.11579e-07
1.58166e-05
-6.31047e-07
1.58186e-05
-6.31744e-07
1.58162e-05
-6.12219e-07
1.58176e-05
-6.31556e-07
1.58197e-05
-6.32651e-07
1.58173e-05
-6.12945e-07
1.58186e-05
-6.32134e-07
1.58207e-05
-6.33613e-07
1.58183e-05
-6.13635e-07
1.58196e-05
-6.32686e-07
1.58217e-05
-6.34661e-07
1.58193e-05
-6.14445e-07
1.58205e-05
-6.33212e-07
1.58226e-05
-6.35613e-07
1.58202e-05
-6.1525e-07
1.58213e-05
-6.3379e-07
1.58235e-05
-6.36542e-07
1.5821e-05
-6.15974e-07
1.58221e-05
-6.3434e-07
1.58242e-05
-6.37508e-07
1.58218e-05
-6.16723e-07
1.58228e-05
-6.3482e-07
1.5825e-05
-6.38451e-07
1.58225e-05
-6.17364e-07
1.58234e-05
-6.35436e-07
1.58256e-05
-6.39041e-07
1.58232e-05
-6.18227e-07
1.5824e-05
-6.35662e-07
1.58262e-05
-6.40087e-07
1.58238e-05
-6.18944e-07
1.58243e-05
-6.34997e-07
1.5827e-05
-6.43348e-07
1.58241e-05
-6.16835e-07
1.58252e-05
-6.38618e-07
1.58268e-05
-6.376e-07
1.58248e-05
-6.23346e-07
1.5825e-05
-6.34165e-07
1.58276e-05
-6.42823e-07
1.58264e-05
-6.269e-07
1.58237e-05
-6.20531e-07
1.58288e-05
-6.59804e-07
1.5825e-05
-6.08945e-07
1.58289e-05
-6.55737e-07
1.58243e-05
-6.09753e-07
1.58275e-05
-6.50328e-07
1.58273e-05
-6.29712e-07
1.58273e-05
-6.34233e-07
1.58271e-05
-6.33873e-07
1.58243e-05
-6.19249e-07
1.58299e-05
-6.63715e-07
1.58274e-05
-6.12056e-07
1.583e-05