/*--------------------------------*- C++ -*----------------------------------*\
| =========                 |                                                 |
| \\      /  F ield         | foam-extend: Open Source CFD                    |
|  \\    /   O peration     | Version:     3.2                                |
|   \\  /    A nd           | Web:         http://www.foam-extend.org         |
|    \\/     M anipulation  | For copyright notice see file Copyright         |
\*---------------------------------------------------------------------------*/
FoamFile
{
    version     2.0;
    format      ascii;
    class       areaVectorField;
    location    "50";
    object      PointNormalVector;
}
// * * * * * * * * * * * * * * * * * * * * * * * * * * * * * * * * * * * * * //

dimensions      [0 0 0 0 0 0 0];

internalField   nonuniform List<vector> 
300
(
(5e-06 -0 0.001)
(5e-06 -0 0.001)
(5e-06 -0 0.001)
(5e-06 -0 0.001)
(5e-06 -4.23516e-22 0.001)
(5e-06 -4.23516e-22 0.001)
(5e-06 -4.23516e-22 0.001)
(5e-06 -4.23516e-22 0.001)
(5e-06 -0 0.001)
(5e-06 -4.23516e-22 0.001)
(5e-06 -0 0.001)
(5e-06 4.23516e-22 0.001)
(5e-06 -0 0.001)
(5e-06 4.23516e-22 0.001)
(5e-06 -0 0.001)
(5e-06 -0 0.001)
(5e-06 4.23516e-22 0.001)
(5e-06 -4.23516e-22 0.001)
(5e-06 4.23516e-22 0.001)
(5e-06 -0 0.001)
(5e-06 -0 0.001)
(5e-06 -4.23516e-22 0.001)
(5e-06 -0 0.001)
(5e-06 -0 0.001)
(5e-06 -0 0.001)
(5e-06 -4.23516e-22 0.001)
(5e-06 -0 0.001)
(5e-06 -0 0.001)
(5e-06 -0 0.001)
(5e-06 -4.23516e-22 0.001)
(5e-06 -0 0.001)
(5e-06 -0 0.001)
(5e-06 -0 0.001)
(5e-06 -0 0.001)
(5e-06 -0 0.001)
(5e-06 -0 0.001)
(5e-06 -0 0.001)
(5e-06 -0 0.001)
(5e-06 -0 0.001)
(5e-06 -0 0.001)
(5e-06 -0 0.001)
(5e-06 -4.23516e-22 0.001)
(5e-06 -0 0.001)
(5e-06 -4.23516e-22 0.001)
(5e-06 -0 0.001)
(5e-06 -0 0.001)
(5e-06 -4.23516e-22 0.001)
(5e-06 -0 0.001)
(5e-06 -4.23516e-22 0.001)
(5e-06 -0 0.001)
(5e-06 -0 0.001)
(5e-06 -4.23516e-22 0.001)
(5e-06 -0 0.001)
(5e-06 -4.23516e-22 0.001)
(5e-06 -0 0.001)
(5e-06 -0 0.001)
(5e-06 -4.23516e-22 0.001)
(5e-06 -0 0.001)
(5e-06 -0 0.001)
(2.25177e-05 -0 0.001)
(2.90639e-05 -0 0.001)
(1.72416e-05 -0 0.001)
(1.30314e-05 -0 0.001)
(9.77656e-06 -0 0.001)
(8.17152e-06 -0 0.001)
(6.76763e-06 -0 0.001)
(6.21942e-06 -0 0.001)
(5.63005e-06 -0 0.001)
(5.41983e-06 4.23516e-22 0.001)
(5.31006e-06 -4.23516e-22 0.001)
(4.9635e-06 -0 0.001)
(4.91497e-06 -4.23516e-22 0.001)
(5.42183e-06 -0 0.001)
(5.05103e-06 -0 0.001)
(4.68705e-06 -4.23516e-22 0.001)
(4.89938e-06 -4.23516e-22 0.001)
(4.94311e-06 -0 0.001)
(4.69512e-06 4.23516e-22 0.001)
(5.00013e-06 -4.23516e-22 0.001)
(5.08142e-06 4.23516e-22 0.001)
(4.83494e-06 4.23516e-22 0.001)
(4.94575e-06 -0 0.001)
(5.00158e-06 4.23516e-22 0.001)
(4.83406e-06 -0 0.001)
(4.98625e-06 -0 0.001)
(5.03846e-06 4.23516e-22 0.001)
(4.8987e-06 -0 0.001)
(5.02558e-06 4.23516e-22 0.001)
(5.05296e-06 -0 0.001)
(4.91223e-06 4.23516e-22 0.001)
(5.03934e-06 -0 0.001)
(5.05476e-06 -4.23516e-22 0.001)
(4.91517e-06 -0 0.001)
(5.04292e-06 4.23516e-22 0.001)
(5.03954e-06 -0 0.001)
(4.92871e-06 -0 0.001)
(5.02809e-06 4.23516e-22 0.001)
(5.03555e-06 -0 0.001)
(4.94128e-06 4.23516e-22 0.001)
(4.9971e-06 4.23516e-22 0.001)
(5.05131e-06 -4.23516e-22 0.001)
(4.94744e-06 -0 0.001)
(4.97543e-06 -0 0.001)
(5.04597e-06 -0 0.001)
(4.9811e-06 -0 0.001)
(4.9452e-06 4.23516e-22 0.001)
(5.02878e-06 -0 0.001)
(5.02206e-06 -4.23516e-22 0.001)
(4.94651e-06 -0 0.001)
(4.9734e-06 -0 0.001)
(5.04247e-06 -0 0.001)
(5.00076e-06 -0 0.001)
(4.94441e-06 -0 0.001)
(4.98241e-06 -4.23516e-22 0.001)
(5.03697e-06 -0 0.001)
(4.99986e-06 -0 0.001)
(4.95134e-06 -0 0.001)
(4.97012e-06 -0 0.001)
(5.01106e-06 -0 0.001)
(5.00777e-06 -4.23516e-22 0.001)
(4.98203e-06 4.23516e-22 0.001)
(4.969e-06 -0 0.001)
(4.97111e-06 -0 0.001)
(4.97606e-06 -4.23516e-22 0.001)
(4.98256e-06 4.23516e-22 0.001)
(4.98628e-06 -0 0.001)
(4.98899e-06 -4.23516e-22 0.001)
(4.99039e-06 -0 0.001)
(4.99182e-06 -0 0.001)
(4.9926e-06 -0 0.001)
(4.99167e-06 -0 0.001)
(4.99201e-06 -0 0.001)
(4.99229e-06 -0 0.001)
(4.99059e-06 -0 0.001)
(4.99103e-06 -0 0.001)
(4.99082e-06 -0 0.001)
(4.98944e-06 -0 0.001)
(4.98966e-06 4.23516e-22 0.001)
(4.98938e-06 -0 0.001)
(4.99186e-06 -0 0.001)
(4.98947e-06 -0 0.001)
(4.99218e-06 -0 0.001)
(4.98647e-06 4.23516e-22 0.001)
(4.98843e-06 -0 0.001)
(5.00008e-06 -0 0.001)
(4.97008e-06 -4.23516e-22 0.001)
(5.00667e-06 -0 0.001)
(4.9877e-06 -0 0.001)
(4.95354e-06 -0 0.001)
(5.03736e-06 -0 0.001)
(4.97785e-06 -0 0.001)
(4.95049e-06 -0 0.001)
(5.0447e-06 -0 0.001)
(4.96929e-06 -0 0.001)
(4.92971e-06 -4.23516e-22 0.001)
(5.0862e-06 -0 0.001)
(4.96753e-06 -0 0.001)
(4.88827e-06 -4.23516e-22 0.001)
(5.09871e-06 -0 0.001)
(5.00504e-06 -0 0.001)
(4.85392e-06 -0 0.001)
(5.07898e-06 4.23516e-22 0.001)
(5.03778e-06 -0 0.001)
(4.87267e-06 4.23516e-22 0.001)
(5.04115e-06 -0 0.001)
(5.01442e-06 -0 0.001)
(4.92113e-06 -4.23516e-22 0.001)
(5.04881e-06 -0 0.001)
(4.98928e-06 -0 0.001)
(4.89357e-06 -0 0.001)
(5.02664e-06 -0 0.001)
(5.04905e-06 -4.23516e-22 0.001)
(4.90279e-06 -0 0.001)
(4.9767e-06 4.23516e-22 0.001)
(5.02825e-06 -0 0.001)
(4.91965e-06 -0 0.001)
(4.94116e-06 -0 0.001)
(5.05885e-06 -0 0.001)
(4.98916e-06 -0 0.001)
(4.91878e-06 -0 0.001)
(5.01757e-06 -0 0.001)
(5.05032e-06 -4.23516e-22 0.001)
(4.93988e-06 -0 0.001)
(4.94474e-06 -0 0.001)
(5.03312e-06 -0 0.001)
(5.01576e-06 -0 0.001)
(4.95353e-06 -0 0.001)
(4.96593e-06 -0 0.001)
(5.00704e-06 -0 0.001)
(5.00871e-06 -0 0.001)
(4.97286e-06 -0 0.001)
(5.00191e-06 -0 0.001)
(4.97952e-06 -0 0.001)
(4.98686e-06 -4.23516e-22 0.001)
(5.04239e-06 -4.23516e-22 0.001)
(4.96866e-06 -0 0.001)
(4.98994e-06 4.23516e-22 0.001)
(5.03761e-06 4.23516e-22 0.001)
(4.94634e-06 -4.23516e-22 0.001)
(4.97475e-06 -0 0.001)
(5.05623e-06 -0 0.001)
(4.91148e-06 4.23516e-22 0.001)
(4.95632e-06 -0 0.001)
(5.08975e-06 -0 0.001)
(4.92384e-06 -0 0.001)
(4.92191e-06 -0 0.001)
(5.10035e-06 -0 0.001)
(4.95712e-06 -0 0.001)
(4.90654e-06 -0 0.001)
(5.06233e-06 -0 0.001)
(4.98405e-06 -0 0.001)
(4.94534e-06 -4.23516e-22 0.001)
(5.04717e-06 -0 0.001)
(4.94128e-06 -0 0.001)
(4.94966e-06 -0 0.001)
(5.0888e-06 4.23516e-22 0.001)
(4.96279e-06 -0 0.001)
(4.92565e-06 -0 0.001)
(5.06599e-06 4.23516e-22 0.001)
(4.97395e-06 -0 0.001)
(4.95587e-06 -0 0.001)
(5.08443e-06 -4.23516e-22 0.001)
(4.97016e-06 -4.23516e-22 0.001)
(4.93504e-06 -4.23516e-22 0.001)
(5.06541e-06 -4.23516e-22 0.001)
(4.96055e-06 -0 0.001)
(4.93041e-06 -4.23516e-22 0.001)
(5.06498e-06 -0 0.001)
(4.96336e-06 4.23516e-22 0.001)
(4.93087e-06 -0 0.001)
(5.06583e-06 -0 0.001)
(4.96591e-06 -4.23516e-22 0.001)
(4.93098e-06 4.23516e-22 0.001)
(5.06638e-06 -0 0.001)
(4.96794e-06 -0 0.001)
(4.93064e-06 -4.23516e-22 0.001)
(5.06718e-06 -0 0.001)
(4.9704e-06 -0 0.001)
(4.92999e-06 4.23516e-22 0.001)
(5.06726e-06 4.23516e-22 0.001)
(4.97292e-06 -0 0.001)
(4.93004e-06 4.23516e-22 0.001)
(5.06751e-06 4.23516e-22 0.001)
(4.97495e-06 4.23516e-22 0.001)
(4.9299e-06 -0 0.001)
(5.0681e-06 4.23516e-22 0.001)
(4.97726e-06 -0 0.001)
(4.9296e-06 -0 0.001)
(5.06839e-06 -4.23516e-22 0.001)
(4.97985e-06 -0 0.001)
(4.92915e-06 -0 0.001)
(5.06944e-06 -0 0.001)
(4.98086e-06 -0 0.001)
(4.93068e-06 4.23516e-22 0.001)
(5.06766e-06 -0 0.001)
(4.98531e-06 -0 0.001)
(4.92932e-06 -0 0.001)
(5.06531e-06 -0 0.001)
(4.99723e-06 -0 0.001)
(4.91325e-06 4.23516e-22 0.001)
(5.08556e-06 -0 0.001)
(4.96939e-06 -0 0.001)
(4.95029e-06 -0 0.001)
(5.05047e-06 -0 0.001)
(5.00525e-06 -0 0.001)
(4.93111e-06 -4.23516e-22 0.001)
(5.00734e-06 -4.23516e-22 0.001)
(5.11055e-06 4.23516e-22 0.001)
(4.83396e-06 -0 0.001)
(5.13251e-06 -0 0.001)
(4.85469e-06 4.23516e-22 0.001)
(5.15541e-06 -0 0.001)
(4.89538e-06 4.23516e-22 0.001)
(5.01406e-06 -0 0.001)
(5.00239e-06 -0 0.001)
(4.97085e-06 -0 0.001)
(5.12602e-06 -4.23516e-22 0.001)
(4.79955e-06 -0 0.001)
(5.13811e-06 -0 0.001)
(4.86535e-06 4.23516e-22 0.001)
(5.221e-06 -0 0.001)
(4.7745e-06 -0 0.001)
(5.14809e-06 -0 0.001)
(4.83471e-06 -0 0.001)
(5.19728e-06 -0 0.001)
(4.82318e-06 -4.23516e-22 0.001)
(5.20398e-06 -0 0.001)
(4.86201e-06 -4.23516e-22 0.001)
(5.15167e-06 -0 0.001)
(4.88868e-06 4.23516e-22 0.001)
(5.09947e-06 -4.23516e-22 0.001)
(4.92533e-06 -0 0.001)
(5.0453e-06 4.23516e-22 0.001)
(4.82695e-06 -0 0.001)
(-5.44333e-06 4.23516e-22 0.001)
(-2.97037e-05 -0 0.001)
(-2.13083e-05 -1.69407e-21 0.001)
(5e-06 -0 0.001)
(5e-06 -0 0.001)
(5e-06 -0 0.001)
)
;

boundaryField
{
    inlet
    {
        type            calculated;
        value           uniform (0 0 0);
    }
    outlet
    {
        type            calculated;
        value           uniform (0 0 0);
    }
    sideWall
    {
        type            empty;
    }
}


// ************************************************************************* //
