/*--------------------------------*- C++ -*----------------------------------*\
| =========                 |                                                 |
| \\      /  F ield         | foam-extend: Open Source CFD                    |
|  \\    /   O peration     | Version:     3.2                                |
|   \\  /    A nd           | Web:         http://www.foam-extend.org         |
|    \\/     M anipulation  | For copyright notice see file Copyright         |
\*---------------------------------------------------------------------------*/
FoamFile
{
    version     2.0;
    format      ascii;
    class       areaScalarField;
    location    "50";
    object      Pva;
}
// * * * * * * * * * * * * * * * * * * * * * * * * * * * * * * * * * * * * * //

dimensions      [0 0 0 0 0 0 0];

internalField   nonuniform List<scalar> 
300
(
0.222222
0.222222
0.222222
0.222222
0.222222
0.222222
0.222222
0.222222
0.222222
0.222222
0.222222
0.222222
0.222222
0.222222
0.222222
0.222222
0.222222
0.222222
0.222222
0.222222
0.222222
0.222222
0.222222
0.222222
0.222222
0.222222
0.222222
0.222222
0.222222
0.222222
0.222222
0.222222
0.222222
0.222222
0.222222
0.222222
0.222222
0.222222
0.222222
0.222222
0.222222
0.222222
0.222222
0.222222
0.222222
0.222222
0.222222
0.222222
0.222222
0.222222
0.222222
0.222222
0.222222
0.222222
0.222222
0.222222
0.222222
0.222222
0.222222
0.222222
0.293935
0.339979
0.386559
0.413539
0.440544
0.451693
0.46478
0.468147
0.474048
0.474195
0.474989
0.477102
0.475243
0.475255
0.476068
0.476393
0.475152
0.476162
0.47551
0.474101
0.474279
0.474197
0.473176
0.473556
0.473347
0.472453
0.472675
0.472506
0.471738
0.472028
0.471917
0.471217
0.471617
0.471472
0.470962
0.471309
0.471195
0.470863
0.470984
0.471177
0.470675
0.470859
0.470986
0.470745
0.470571
0.470917
0.470714
0.47047
0.470589
0.470789
0.470425
0.470355
0.470458
0.470602
0.470295
0.470249
0.470326
0.470454
0.470277
0.470234
0.470184
0.470283
0.47025
0.470301
0.470214
0.470223
0.470121
0.470115
0.470004
0.469995
0.469892
0.469886
0.469776
0.469769
0.469665
0.469653
0.469549
0.469531
0.469433
0.469407
0.4693
0.469294
0.469159
0.469217
0.46897
0.469068
0.468944
0.46875
0.468974
0.468675
0.468523
0.468767
0.46846
0.468233
0.468705
0.468175
0.467899
0.468552
0.468066
0.467516
0.468306
0.467967
0.467279
0.467939
0.467739
0.46725
0.467696
0.467389
0.467107
0.467491
0.467481
0.466816
0.467236
0.467282
0.466893
0.466959
0.467317
0.466795
0.466602
0.466874
0.466798
0.466253
0.466424
0.466545
0.466319
0.465967
0.466111
0.466032
0.465941
0.465627
0.465699
0.465497
0.465375
0.46541
0.464998
0.464959
0.465007
0.46461
0.464598
0.46482
0.464212
0.464343
0.464675
0.463957
0.463938
0.464468
0.463743
0.463578
0.464084
0.463619
0.46332
0.463669
0.463188
0.463108
0.46345
0.462828
0.462623
0.463072
0.462553
0.462332
0.462669
0.462104
0.461906
0.462334
0.461841
0.461671
0.462103
0.461616
0.461435
0.461869
0.461391
0.461202
0.461642
0.461175
0.460981
0.46143
0.460973
0.460772
0.461231
0.460788
0.460582
0.461047
0.460617
0.460407
0.460881
0.460461
0.460248
0.460729
0.460325
0.460103
0.460596
0.460201
0.459976
0.460484
0.460077
0.459899
0.460315
0.460085
0.459666
0.460368
0.459867
0.4597
0.460276
0.45963
0.460028
0.459442
0.460803
0.458427
0.461027
0.458783
0.46058
0.459256
0.459654
0.4603
0.458553
0.461617
0.456971
0.462463
0.456747
0.462909
0.456024
0.462973
0.456141
0.463174
0.455852
0.463127
0.45505
0.462221
0.455691
0.46144
0.457351
0.459325
0.459692
0.457061
0.454388
0.343133
0.222222
0.222222
0.222222
0.222222
)
;

boundaryField
{
    inlet
    {
        type            calculated;
        value           uniform 0;
    }
    outlet
    {
        type            calculated;
        value           uniform 0;
    }
    sideWall
    {
        type            empty;
    }
}


// ************************************************************************* //
