/*--------------------------------*- C++ -*----------------------------------*\
| =========                 |                                                 |
| \\      /  F ield         | foam-extend: Open Source CFD                    |
|  \\    /   O peration     | Version:     3.2                                |
|   \\  /    A nd           | Web:         http://www.foam-extend.org         |
|    \\/     M anipulation  | For copyright notice see file Copyright         |
\*---------------------------------------------------------------------------*/
FoamFile
{
    version     2.0;
    format      ascii;
    class       areaVectorField;
    location    "50";
    object      q_bed;
}
// * * * * * * * * * * * * * * * * * * * * * * * * * * * * * * * * * * * * * //

dimensions      [0 2 -1 0 0 0 0];

internalField   nonuniform List<vector> 
300
(
(0.000485106 -7.70511e-29 -2.42553e-06)
(0.000339499 1.04442e-28 -1.69749e-06)
(0.000238198 3.41678e-29 -1.19099e-06)
(0.000239589 0 -1.19795e-06)
(0.000229052 -2.37299e-26 -1.14526e-06)
(0.000229252 -6.27736e-27 -1.14626e-06)
(0.000224191 -8.91101e-27 -1.12096e-06)
(0.000223999 -1.74464e-27 -1.12e-06)
(0.000222165 0 -1.11082e-06)
(0.000222876 -1.42723e-27 -1.11438e-06)
(0.00022302 0 -1.1151e-06)
(0.000224219 1.99978e-27 -1.12109e-06)
(0.000225394 -2.42622e-31 -1.12697e-06)
(0.00022728 2.65547e-27 -1.1364e-06)
(0.000229032 0 -1.14516e-06)
(0.000231257 0 -1.15628e-06)
(0.00023351 3.09273e-27 -1.16755e-06)
(0.000236024 -2.89274e-27 -1.18012e-06)
(0.000238511 3.22649e-27 -1.19256e-06)
(0.000241244 0 -1.20622e-06)
(0.000244097 0 -1.22049e-06)
(0.000247026 -3.34646e-27 -1.23513e-06)
(0.000250022 0 -1.25011e-06)
(0.000253043 0 -1.26522e-06)
(0.000256093 0 -1.28046e-06)
(0.00025914 -3.07387e-27 -1.2957e-06)
(0.000261953 -1.14072e-30 -1.30977e-06)
(0.000264388 0 -1.32194e-06)
(0.000266439 0 -1.3322e-06)
(0.000268148 -1.27437e-27 -1.34074e-06)
(0.000269574 -6.47044e-31 -1.34787e-06)
(0.000270752 0 -1.35376e-06)
(0.000271737 0 -1.35869e-06)
(0.000272545 0 -1.36273e-06)
(0.000273227 -3.28426e-31 -1.36614e-06)
(0.000273781 0 -1.3689e-06)
(0.000274257 0 -1.37129e-06)
(0.000274637 -1.95021e-31 -1.37319e-06)
(0.000274976 0 -1.37488e-06)
(0.000275237 0 -1.37618e-06)
(0.000275486 0 -1.37743e-06)
(0.000275662 -9.41596e-29 -1.37831e-06)
(0.000275853 0 -1.37927e-06)
(0.000275971 -5.77498e-29 -1.37986e-06)
(0.000276123 0 -1.38062e-06)
(0.000276194 0 -1.38097e-06)
(0.000276319 -8.68137e-29 -1.38159e-06)
(0.000276347 0 -1.38173e-06)
(0.00027649 -1.19489e-28 -1.38245e-06)
(0.000276431 0 -1.38215e-06)
(0.000276669 0 -1.38335e-06)
(0.000276402 4.90572e-28 -1.38201e-06)
(0.000276915 -4.40698e-32 -1.38458e-06)
(0.000276171 1.32814e-27 -1.38085e-06)
(0.000277436 0 -1.38718e-06)
(0.000275455 0 -1.37727e-06)
(0.000278716 -5.87115e-27 -1.39358e-06)
(0.000273825 0 -1.36912e-06)
(0.000283482 0 -1.41741e-06)
(0.000237398 -2.14157e-28 -5.34566e-06)
(0.000105477 0 -3.06559e-06)
(6.36984e-05 -1.64857e-29 -1.09826e-06)
(4.9538e-05 -6.03933e-30 -6.45549e-07)
(3.91938e-05 0 -3.83181e-07)
(3.59961e-05 0 -2.94143e-07)
(3.21411e-05 0 -2.17519e-07)
(3.18958e-05 -3.54506e-31 -1.98374e-07)
(3.029e-05 0 -1.70534e-07)
(3.05673e-05 -3.49018e-28 -1.6567e-07)
(2.97887e-05 3.38993e-29 -1.5818e-07)
(2.9896e-05 0 -1.48389e-07)
(3.02882e-05 -7.19634e-29 -1.48866e-07)
(2.98037e-05 0 -1.61591e-07)
(2.90007e-05 0 -1.46483e-07)
(2.96337e-05 2.77814e-29 -1.38895e-07)
(2.98788e-05 1.07402e-28 -1.46387e-07)
(2.96486e-05 -7.12501e-33 -1.46556e-07)
(3.01157e-05 1.64735e-28 -1.41397e-07)
(3.03738e-05 1.79482e-28 -1.51873e-07)
(2.98128e-05 -1.18504e-28 -1.51491e-07)
(2.9972e-05 1.50924e-28 -1.44913e-07)
(3.01979e-05 0 -1.49351e-07)
(2.99409e-05 -8.42127e-29 -1.49752e-07)
(3.01649e-05 0 -1.45819e-07)
(3.03614e-05 4.00931e-32 -1.5139e-07)
(3.00546e-05 -6.84796e-29 -1.51429e-07)
(3.01942e-05 0 -1.47912e-07)
(3.03003e-05 -8.05505e-29 -1.52277e-07)
(3.0006e-05 2.58317e-33 -1.51619e-07)
(3.01245e-05 1.20041e-28 -1.47978e-07)
(3.02242e-05 0 -1.5231e-07)
(2.99387e-05 5.24162e-29 -1.51333e-07)
(3.00709e-05 0 -1.47804e-07)
(3.01543e-05 -7.30133e-29 -1.52066e-07)
(2.99099e-05 0 -1.50732e-07)
(3.00463e-05 0 -1.4809e-07)
(3.01116e-05 -5.6132e-29 -1.51404e-07)
(2.9938e-05 0 -1.50754e-07)
(3.00122e-05 6.49175e-29 -1.48299e-07)
(3.01453e-05 -5.73055e-30 -1.50639e-07)
(2.9983e-05 6.52492e-29 -1.51453e-07)
(2.99954e-05 0 -1.484e-07)
(3.01608e-05 0 -1.50063e-07)
(3.00654e-05 0 -1.51709e-07)
(2.9999e-05 0 -1.49428e-07)
(3.01643e-05 4.80511e-29 -1.49168e-07)
(3.01737e-05 0 -1.51737e-07)
(3.0052e-05 1.51638e-29 -1.50923e-07)
(3.01183e-05 1.45785e-32 -1.48981e-07)
(3.02498e-05 -7.01026e-33 -1.50444e-07)
(3.018e-05 1.54114e-32 -1.52181e-07)
(3.0098e-05 0 -1.50513e-07)
(3.02066e-05 0 -1.49354e-07)
(3.03026e-05 1.10195e-30 -1.5098e-07)
(3.02318e-05 1.33817e-32 -1.52276e-07)
(3.01724e-05 0 -1.50858e-07)
(3.02591e-05 0 -1.49823e-07)
(3.03463e-05 0 -1.50824e-07)
(3.03451e-05 0 -1.52061e-07)
(3.03102e-05 1.1582e-30 -1.51787e-07)
(3.03213e-05 7.21052e-30 -1.51062e-07)
(3.03817e-05 0 -1.50967e-07)
(3.0436e-05 0 -1.51301e-07)
(3.0482e-05 -1.35851e-30 -1.51681e-07)
(3.05169e-05 2.45951e-30 -1.52052e-07)
(3.05426e-05 -5.2126e-34 -1.52294e-07)
(3.05632e-05 -1.54533e-30 -1.5248e-07)
(3.058e-05 0 -1.52606e-07)
(3.05967e-05 0 -1.52733e-07)
(3.06093e-05 0 -1.5282e-07)
(3.06195e-05 0 -1.52842e-07)
(3.06338e-05 0 -1.52924e-07)
(3.06491e-05 0 -1.53009e-07)
(3.06638e-05 0 -1.53031e-07)
(3.06792e-05 0 -1.53121e-07)
(3.06939e-05 0 -1.53188e-07)
(3.07129e-05 0 -1.5324e-07)
(3.07305e-05 1.13297e-30 -1.53335e-07)
(3.07508e-05 0 -1.53428e-07)
(3.07659e-05 0 -1.53579e-07)
(3.07816e-05 0 -1.53584e-07)
(3.07998e-05 0 -1.53758e-07)
(3.08103e-05 3.67453e-30 -1.53634e-07)
(3.08512e-05 0 -1.53899e-07)
(3.08341e-05 4.8918e-34 -1.54173e-07)
(3.0874e-05 -2.58165e-29 -1.53446e-07)
(3.09141e-05 0 -1.54777e-07)
(3.08504e-05 0 -1.53872e-07)
(3.09891e-05 0 -1.53506e-07)
(3.09722e-05 0 -1.56018e-07)
(3.08788e-05 -1.48409e-32 -1.5371e-07)
(3.10588e-05 1.9987e-33 -1.53757e-07)
(3.10236e-05 0 -1.56505e-07)
(3.09117e-05 0 -1.53609e-07)
(3.11699e-05 -7.83234e-29 -1.53658e-07)
(3.10948e-05 0 -1.58155e-07)
(3.08867e-05 0 -1.53431e-07)
(3.12548e-05 -1.16305e-28 -1.52782e-07)
(3.12212e-05 0 -1.59188e-07)
(3.09017e-05 0 -1.54664e-07)
(3.12849e-05 1.06498e-32 -1.51854e-07)
(3.13471e-05 -1.61636e-28 -1.59211e-07)
(3.09938e-05 1.6871e-32 -1.5614e-07)
(3.12879e-05 1.0253e-28 -1.52456e-07)
(3.13823e-05 0 -1.58203e-07)
(3.11434e-05 1.10553e-32 -1.56166e-07)
(3.13713e-05 -1.04794e-28 -1.54382e-07)
(3.13751e-05 0 -1.58407e-07)
(3.12057e-05 1.94059e-32 -1.55694e-07)
(3.1465e-05 -2.57631e-32 -1.53976e-07)
(3.1562e-05 0 -1.58651e-07)
(3.13168e-05 5.30081e-29 -1.5812e-07)
(3.14476e-05 0 -1.54181e-07)
(3.16485e-05 -2.44019e-29 -1.57505e-07)
(3.15096e-05 0 -1.58438e-07)
(3.15734e-05 0 -1.5533e-07)
(3.18147e-05 0 -1.57202e-07)
(3.17375e-05 0 -1.60555e-07)
(3.16057e-05 0 -1.57686e-07)
(3.18121e-05 0 -1.56477e-07)
(3.18936e-05 0 -1.60028e-07)
(3.1703e-05 4.86658e-29 -1.60111e-07)
(3.17333e-05 1.67249e-32 -1.56759e-07)
(3.19325e-05 0 -1.57898e-07)
(3.19147e-05 0 -1.60631e-07)
(3.18062e-05 0 -1.59532e-07)
(3.18772e-05 0 -1.57905e-07)
(3.1975e-05 -5.9391e-34 -1.58786e-07)
(3.19885e-05 0 -1.60168e-07)
(3.19364e-05 0 -1.5996e-07)
(3.19785e-05 0 -1.59025e-07)
(3.20097e-05 0 -1.6011e-07)
(3.19899e-05 0 -1.59294e-07)
(3.20887e-05 -1.98034e-29 -1.60022e-07)
(3.19996e-05 4.75872e-29 -1.61354e-07)
(3.19742e-05 -1.93913e-32 -1.58869e-07)
(3.20987e-05 -2.36072e-30 -1.60171e-07)
(3.1986e-05 -6.08069e-29 -1.61133e-07)
(3.19926e-05 -6.21383e-29 -1.58246e-07)
(3.21875e-05 0 -1.60125e-07)
(3.20305e-05 -6.61885e-33 -1.61954e-07)
(3.2045e-05 9.88809e-29 -1.57388e-07)
(3.23482e-05 0 -1.60328e-07)
(3.21458e-05 0 -1.63614e-07)
(3.20767e-05 0 -1.57941e-07)
(3.24363e-05 0 -1.59648e-07)
(3.22854e-05 0 -1.64667e-07)
(3.21109e-05 3.55513e-32 -1.59177e-07)
(3.24614e-05 6.51261e-33 -1.59273e-07)
(3.24161e-05 0 -1.64101e-07)
(3.22563e-05 0 -1.60767e-07)
(3.24816e-05 -5.59962e-29 -1.60632e-07)
(3.24144e-05 0 -1.63601e-07)
(3.23606e-05 0 -1.59903e-07)
(3.26278e-05 -4.15859e-33 -1.61497e-07)
(3.2481e-05 -1.21327e-28 -1.65289e-07)
(3.23379e-05 0 -1.60486e-07)
(3.26396e-05 0 -1.60771e-07)
(3.25674e-05 -1.12397e-28 -1.64986e-07)
(3.24388e-05 0 -1.61349e-07)
(3.26649e-05 0 -1.61883e-07)
(3.25397e-05 1.14805e-28 -1.65446e-07)
(3.23952e-05 -6.14646e-29 -1.61009e-07)
(3.26711e-05 -6.61942e-29 -1.61233e-07)
(3.25909e-05 1.19931e-28 -1.65086e-07)
(3.24686e-05 0 -1.61062e-07)
(3.27497e-05 -6.65497e-29 -1.6147e-07)
(3.26776e-05 0 -1.65512e-07)
(3.25481e-05 6.0075e-29 -1.61548e-07)
(3.28267e-05 -3.63686e-33 -1.61865e-07)
(3.27559e-05 0 -1.65935e-07)
(3.26203e-05 -5.8593e-29 -1.61989e-07)
(3.28977e-05 7.03956e-29 -1.62218e-07)
(3.28287e-05 2.6245e-32 -1.66322e-07)
(3.26878e-05 0 -1.62391e-07)
(3.29649e-05 -7.23897e-29 -1.62538e-07)
(3.2898e-05 -2.6439e-32 -1.667e-07)
(3.27506e-05 0 -1.62784e-07)
(3.30274e-05 7.46419e-29 -1.62825e-07)
(3.29642e-05 -1.17427e-28 -1.67038e-07)
(3.28115e-05 0 -1.63169e-07)
(3.30861e-05 7.63454e-29 -1.63116e-07)
(3.30257e-05 -1.16843e-28 -1.67358e-07)
(3.28683e-05 5.03163e-29 -1.63518e-07)
(3.31414e-05 5.07617e-33 -1.63384e-07)
(3.30829e-05 -1.16531e-28 -1.67668e-07)
(3.29204e-05 0 -1.63853e-07)
(3.31915e-05 0 -1.63621e-07)
(3.31368e-05 1.15834e-28 -1.6795e-07)
(3.29678e-05 -2.38958e-32 -1.64174e-07)
(3.3238e-05 0 -1.63835e-07)
(3.31844e-05 0 -1.68226e-07)
(3.30116e-05 0 -1.64426e-07)
(3.32805e-05 8.138e-29 -1.64096e-07)
(3.32241e-05 2.66154e-32 -1.68368e-07)
(3.30585e-05 -2.38098e-32 -1.64807e-07)
(3.33023e-05 0 -1.64157e-07)
(3.32856e-05 -2.5866e-32 -1.68602e-07)
(3.3063e-05 0 -1.65223e-07)
(3.33609e-05 1.25004e-28 -1.6391e-07)
(3.33024e-05 0 -1.69361e-07)
(3.31246e-05 2.63165e-32 -1.64609e-07)
(3.33892e-05 0 -1.65286e-07)
(3.32786e-05 1.36656e-32 -1.68072e-07)
(3.3231e-05 -3.64938e-33 -1.66329e-07)
(3.32613e-05 -6.68327e-29 -1.64015e-07)
(3.35612e-05 -3.68718e-30 -1.68052e-07)
(3.30236e-05 -2.25029e-28 -1.68769e-07)
(3.34392e-05 -3.12698e-32 -1.61644e-07)
(3.33209e-05 0 -1.7102e-07)
(3.33339e-05 3.08286e-28 -1.61825e-07)
(3.34466e-05 9.3173e-32 -1.72431e-07)
(3.31239e-05 1.95078e-28 -1.62154e-07)
(3.35792e-05 0 -1.68368e-07)
(3.31961e-05 0 -1.6606e-07)
(3.36379e-05 -1.97195e-33 -1.67209e-07)
(3.30135e-05 2.96207e-28 -1.69228e-07)
(3.35693e-05 3.03511e-32 -1.61118e-07)
(3.33247e-05 0 -1.71226e-07)
(3.35879e-05 4.16899e-28 -1.63417e-07)
(3.32124e-05 0 -1.73402e-07)
(3.33875e-05 5.72639e-32 -1.59409e-07)
(3.34152e-05 3.99577e-32 -1.72024e-07)
(3.34981e-05 0 -1.61954e-07)
(3.3374e-05 0 -1.73454e-07)
(3.34071e-05 -4.3382e-28 -1.61129e-07)
(3.33797e-05 0 -1.73708e-07)
(3.32457e-05 -3.82166e-28 -1.61641e-07)
(3.33158e-05 0 -1.71632e-07)
(3.32249e-05 3.45828e-28 -1.62426e-07)
(3.32366e-05 3.00587e-28 -1.69489e-07)
(3.33491e-05 0 -1.64255e-07)
(3.29642e-05 -5.67442e-28 -1.66314e-07)
(3.34373e-05 -3.94452e-31 -1.614e-07)
(3.93832e-05 7.62608e-27 2.14376e-07)
(0.000124369 2.64981e-28 3.69422e-06)
(0.000280776 1.48478e-25 5.98286e-06)
(0.000298885 0 -1.49442e-06)
(0.000270114 8.28397e-30 -1.35057e-06)
(0.000275536 0 -1.37768e-06)
)
;

boundaryField
{
    inlet
    {
        type            zeroGradient;
    }
    outlet
    {
        type            zeroGradient;
    }
    sideWall
    {
        type            empty;
    }
}


// ************************************************************************* //
