/*--------------------------------*- C++ -*----------------------------------*\
| =========                 |                                                 |
| \\      /  F ield         | foam-extend: Open Source CFD                    |
|  \\    /   O peration     | Version:     3.2                                |
|   \\  /    A nd           | Web:         http://www.foam-extend.org         |
|    \\/     M anipulation  | For copyright notice see file Copyright         |
\*---------------------------------------------------------------------------*/
FoamFile
{
    version     2.0;
    format      ascii;
    class       edgeScalarField;
    location    "50";
    object      q_f;
}
// * * * * * * * * * * * * * * * * * * * * * * * * * * * * * * * * * * * * * //

dimensions      [0 3 -1 0 0 0 0];

internalField   nonuniform List<scalar> 
299
(
8.24615e-06
5.77704e-06
4.77793e-06
4.68647e-06
4.5831e-06
4.53449e-06
4.48196e-06
4.4617e-06
4.45046e-06
4.45902e-06
4.47245e-06
4.49618e-06
4.52679e-06
4.56317e-06
4.60294e-06
4.64772e-06
4.6954e-06
4.74542e-06
4.79761e-06
4.85347e-06
4.9113e-06
4.97054e-06
5.03071e-06
5.09142e-06
5.15239e-06
5.21099e-06
5.26348e-06
5.30834e-06
5.34594e-06
5.37729e-06
5.40333e-06
5.42496e-06
5.4429e-06
5.45779e-06
5.47015e-06
5.48045e-06
5.48901e-06
5.4962e-06
5.5022e-06
5.5073e-06
5.51155e-06
5.51522e-06
5.51832e-06
5.52102e-06
5.52324e-06
5.52519e-06
5.52672e-06
5.52843e-06
5.52927e-06
5.53107e-06
5.53078e-06
5.53324e-06
5.53093e-06
5.53613e-06
5.52897e-06
5.54178e-06
5.52547e-06
5.57314e-06
5.20949e-06
3.42991e-06
1.69224e-06
1.1325e-06
8.87377e-07
7.51929e-07
6.8139e-07
6.40383e-07
6.2187e-07
6.08583e-07
6.03569e-07
5.96855e-07
6.0185e-07
6.00927e-07
5.88052e-07
5.86351e-07
5.95132e-07
5.95281e-07
5.97649e-07
6.04902e-07
6.01873e-07
5.97855e-07
6.01706e-07
6.01395e-07
6.01066e-07
6.05271e-07
6.04168e-07
6.02495e-07
6.04952e-07
6.03071e-07
6.01313e-07
6.03494e-07
6.01636e-07
6.00103e-07
6.02259e-07
6.00649e-07
5.99569e-07
6.01587e-07
6.00504e-07
5.9951e-07
6.01583e-07
6.01291e-07
5.99791e-07
6.01569e-07
6.02269e-07
6.00651e-07
6.0164e-07
6.03387e-07
6.02265e-07
6.01711e-07
6.03689e-07
6.04305e-07
6.02788e-07
6.03054e-07
6.05099e-07
6.05351e-07
6.0405e-07
6.04323e-07
6.06061e-07
6.06921e-07
6.06561e-07
6.06323e-07
6.07037e-07
6.08184e-07
6.09188e-07
6.09997e-07
6.10603e-07
6.11066e-07
6.1144e-07
6.11775e-07
6.12068e-07
6.12296e-07
6.1254e-07
6.12836e-07
6.13137e-07
6.13438e-07
6.13739e-07
6.14076e-07
6.14441e-07
6.14821e-07
6.15175e-07
6.15482e-07
6.15822e-07
6.16109e-07
6.16623e-07
6.16861e-07
6.17089e-07
6.17889e-07
6.17652e-07
6.18402e-07
6.19621e-07
6.18518e-07
6.19384e-07
6.20832e-07
6.19361e-07
6.20824e-07
6.22655e-07
6.19823e-07
6.21423e-07
6.24768e-07
6.21237e-07
6.21873e-07
6.26327e-07
6.23417e-07
6.22824e-07
6.26709e-07
6.25265e-07
6.25155e-07
6.27471e-07
6.25816e-07
6.26714e-07
6.30277e-07
6.28795e-07
6.27651e-07
6.30969e-07
6.31589e-07
6.30837e-07
6.33888e-07
6.3553e-07
6.3344e-07
6.34186e-07
6.37064e-07
6.35974e-07
6.34371e-07
6.36666e-07
6.38481e-07
6.37218e-07
6.36843e-07
6.3853e-07
6.39643e-07
6.39257e-07
6.39157e-07
6.3989e-07
6.40004e-07
6.40794e-07
6.40891e-07
6.39746e-07
6.40737e-07
6.40855e-07
6.39794e-07
6.41809e-07
6.42188e-07
6.40763e-07
6.4394e-07
6.44948e-07
6.42233e-07
6.45138e-07
6.47224e-07
6.4397e-07
6.45731e-07
6.48784e-07
6.46733e-07
6.47387e-07
6.48968e-07
6.47758e-07
6.49892e-07
6.51097e-07
6.48197e-07
6.49783e-07
6.52079e-07
6.5007e-07
6.51045e-07
6.52054e-07
6.49357e-07
6.50671e-07
6.52628e-07
6.50603e-07
6.52192e-07
6.54282e-07
6.52265e-07
6.53756e-07
6.55834e-07
6.5377e-07
6.55188e-07
6.57272e-07
6.55173e-07
6.56535e-07
6.58638e-07
6.56494e-07
6.57788e-07
6.59925e-07
6.57766e-07
6.58984e-07
6.61126e-07
6.58948e-07
6.60105e-07
6.62251e-07
6.60041e-07
6.61126e-07
6.63291e-07
6.61054e-07
6.62065e-07
6.64232e-07
6.61968e-07
6.62929e-07
6.65054e-07
6.62834e-07
6.63616e-07
6.65887e-07
6.63494e-07
6.64247e-07
6.66641e-07
6.64279e-07
6.65147e-07
6.66686e-07
6.65104e-07
6.64931e-07
6.68233e-07
6.65857e-07
6.64636e-07
6.67609e-07
6.66556e-07
6.67813e-07
6.65713e-07
6.67039e-07
6.67762e-07
6.68348e-07
6.66522e-07
6.65836e-07
6.68948e-07
6.69134e-07
6.68011e-07
6.66007e-07
6.68035e-07
6.69141e-07
6.68729e-07
6.67819e-07
6.67877e-07
6.66263e-07
6.65623e-07
6.65415e-07
6.64624e-07
6.65865e-07
6.63141e-07
6.64023e-07
7.28215e-07
1.6379e-06
4.0528e-06
5.7973e-06
5.69006e-06
5.45657e-06
)
;

boundaryField
{
    inlet
    {
        type            calculated;
        value           uniform -9.48038e-06;
    }
    outlet
    {
        type            calculated;
        value           uniform 5.28135e-06;
    }
    sideWall
    {
        type            empty;
    }
}


// ************************************************************************* //
