/*--------------------------------*- C++ -*----------------------------------*\
| =========                 |                                                 |
| \\      /  F ield         | foam-extend: Open Source CFD                    |
|  \\    /   O peration     | Version:     3.2                                |
|   \\  /    A nd           | Web:         http://www.foam-extend.org         |
|    \\/     M anipulation  | For copyright notice see file Copyright         |
\*---------------------------------------------------------------------------*/
FoamFile
{
    version     2.0;
    format      ascii;
    class       areaScalarField;
    location    "50";
    object      SSd1;
}
// * * * * * * * * * * * * * * * * * * * * * * * * * * * * * * * * * * * * * //

dimensions      [0 1 -2 -1 0 0 0];

internalField   nonuniform List<scalar> 
300
(
0.000412645
0.000412645
0.000412645
0.000412645
0.000412645
0.000412645
0.000412645
0.000412645
0.000412645
0.000412645
0.000412645
0.000412645
0.000412645
0.000412645
0.000412645
0.000412645
0.000412645
0.000412645
0.000412645
0.000412645
0.000412645
0.000412645
0.000412645
0.000412645
0.000412645
0.000412645
0.000412645
0.000412645
0.000412645
0.000412645
0.000412645
0.000412645
0.000412645
0.000412645
0.000412645
0.000412645
0.000412645
0.000412645
0.000412645
0.000412645
0.000412645
0.000412645
0.000412645
0.000412645
0.000412645
0.000412645
0.000412645
0.000412645
0.000412645
0.000412645
0.000412645
0.000412645
0.000412645
0.000412645
0.000412645
0.000412645
0.000412645
0.000412645
0.000412645
0.000412645
0.000413507
0.000413874
0.000414027
0.00041421
0.000414393
0.000414605
0.000414814
0.000415019
0.000415214
0.000415275
0.000415717
0.000415877
0.000415504
0.00041562
0.000416148
0.000416088
0.000416064
0.000416357
0.000416221
0.00041606
0.000416306
0.000416309
0.000416252
0.000416444
0.000416402
0.000416322
0.000416476
0.00041643
0.000416378
0.00041653
0.000416484
0.000416443
0.000416595
0.00041655
0.000416526
0.00041666
0.000416631
0.00041661
0.000416725
0.000416733
0.000416688
0.000416788
0.000416833
0.000416781
0.000416846
0.000416931
0.0004169
0.000416904
0.000417006
0.000417039
0.000417003
0.000417041
0.000417145
0.000417162
0.000417135
0.000417175
0.000417269
0.000417302
0.000417301
0.000417321
0.000417379
0.000417434
0.00041748
0.000417515
0.000417553
0.000417587
0.000417627
0.000417663
0.000417707
0.000417745
0.000417791
0.000417832
0.000417879
0.000417924
0.000417972
0.000418017
0.00041807
0.000418117
0.000418171
0.000418217
0.000418273
0.000418321
0.000418381
0.000418434
0.000418479
0.000418557
0.000418595
0.000418651
0.000418756
0.000418751
0.000418832
0.000418946
0.000418931
0.000419026
0.000419163
0.000419099
0.000419206
0.000419404
0.000419309
0.000419376
0.000419635
0.000419553
0.000419576
0.000419829
0.000419801
0.000419838
0.000420022
0.000420008
0.000420088
0.000420295
0.000420283
0.000420296
0.000420505
0.000420578
0.000420587
0.000420767
0.000420877
0.000420858
0.000420963
0.000421151
0.00042118
0.000421207
0.000421386
0.000421525
0.000421544
0.000421632
0.000421792
0.000421911
0.000421978
0.000422072
0.000422208
0.000422306
0.000422427
0.000422551
0.000422606
0.000422768
0.000422896
0.000422957
0.000423146
0.000423283
0.000423317
0.000423549
0.000423702
0.000423687
0.000423923
0.000424126
0.000424095
0.000424293
0.000424541
0.000424553
0.000424713
0.000424926
0.000424986
0.000425198
0.00042539
0.000425404
0.000425619
0.000425863
0.000425902
0.000426098
0.000426312
0.000426353
0.000426572
0.000426818
0.000426874
0.000427092
0.000427338
0.000427394
0.000427611
0.000427861
0.000427921
0.000428139
0.000428394
0.000428456
0.000428674
0.000428933
0.000428997
0.000429214
0.000429475
0.000429539
0.000429752
0.000430015
0.000430077
0.000430286
0.000430546
0.000430604
0.000430806
0.000431063
0.000431115
0.000431307
0.000431558
0.000431602
0.000431784
0.000432024
0.00043206
0.000432226
0.000432457
0.000432485
0.000432623
0.000432864
0.000432852
0.000433015
0.000433187
0.00043321
0.000433307
0.000433507
0.000433543
0.000433515
0.000433798
0.000433726
0.00043392
0.000433845
0.000434003
0.00043406
0.00043411
0.00043413
0.00043413
0.000434294
0.000434309
0.000434286
0.000434301
0.000434359
0.000434473
0.000434379
0.00043447
0.000434398
0.000434556
0.000434425
0.000434586
0.000434478
0.000434531
0.000434632
0.000434373
0.00043486
0.00043409
0.000433191
0.000432008
0.000431947
0.000431887
0.000431839
)
;

boundaryField
{
    inlet
    {
        type            calculated;
        value           uniform 0;
    }
    outlet
    {
        type            calculated;
        value           uniform 0;
    }
    sideWall
    {
        type            empty;
    }
}


// ************************************************************************* //
