/*--------------------------------*- C++ -*----------------------------------*\
| =========                 |                                                 |
| \\      /  F ield         | foam-extend: Open Source CFD                    |
|  \\    /   O peration     | Version:     3.2                                |
|   \\  /    A nd           | Web:         http://www.foam-extend.org         |
|    \\/     M anipulation  | For copyright notice see file Copyright         |
\*---------------------------------------------------------------------------*/
FoamFile
{
    version     2.0;
    format      ascii;
    class       areaScalarField;
    location    "50";
    object      SSe1;
}
// * * * * * * * * * * * * * * * * * * * * * * * * * * * * * * * * * * * * * //

dimensions      [0 1 -2 -1 0 0 0];

internalField   nonuniform List<scalar> 
300
(
0.00482781
0.00245296
0.00155849
0.00156849
0.00149389
0.00149529
0.00146029
0.00145898
0.00144643
0.00145128
0.00145227
0.00146048
0.00146856
0.00148158
0.00149375
0.0015093
0.00152515
0.00154297
0.00156074
0.00158043
0.00160119
0.00162271
0.00164494
0.0016676
0.00169072
0.00171409
0.0017359
0.00175496
0.00177116
0.00178475
0.00179616
0.00180564
0.0018136
0.00182015
0.00182569
0.00183021
0.0018341
0.00183721
0.00183999
0.00184212
0.00184417
0.00184562
0.00184719
0.00184816
0.00184942
0.00184999
0.00185103
0.00185123
0.00185241
0.00185192
0.00185389
0.00185168
0.00185592
0.00184978
0.00186023
0.00184389
0.00187086
0.00183054
0.00191087
0.000635
0.000135227
8.5404e-05
6.9018e-05
6.11177e-05
5.70615e-05
5.47717e-05
5.35883e-05
5.28665e-05
5.25604e-05
5.21609e-05
5.25614e-05
5.26475e-05
5.18538e-05
5.18304e-05
5.26195e-05
5.24959e-05
5.24559e-05
5.29965e-05
5.28383e-05
5.25487e-05
5.29607e-05
5.2977e-05
5.28689e-05
5.32043e-05
5.31556e-05
5.30005e-05
5.32532e-05
5.31695e-05
5.30341e-05
5.32657e-05
5.31684e-05
5.30448e-05
5.32708e-05
5.31662e-05
5.30731e-05
5.32686e-05
5.31891e-05
5.31058e-05
5.32655e-05
5.32545e-05
5.31339e-05
5.32624e-05
5.33159e-05
5.31885e-05
5.32521e-05
5.33692e-05
5.32859e-05
5.32438e-05
5.33755e-05
5.34044e-05
5.33064e-05
5.33173e-05
5.34522e-05
5.34507e-05
5.33653e-05
5.33813e-05
5.34951e-05
5.35171e-05
5.34815e-05
5.34679e-05
5.35156e-05
5.35643e-05
5.36039e-05
5.36255e-05
5.36511e-05
5.36641e-05
5.36859e-05
5.3697e-05
5.37183e-05
5.37275e-05
5.37472e-05
5.37578e-05
5.37795e-05
5.37933e-05
5.38146e-05
5.38271e-05
5.3853e-05
5.38675e-05
5.38924e-05
5.39028e-05
5.39286e-05
5.39384e-05
5.39689e-05
5.39872e-05
5.39884e-05
5.40463e-05
5.40349e-05
5.40455e-05
5.41563e-05
5.4064e-05
5.41058e-05
5.42308e-05
5.41138e-05
5.41749e-05
5.43419e-05
5.41367e-05
5.42018e-05
5.44738e-05
5.42173e-05
5.42057e-05
5.4571e-05
5.43409e-05
5.42505e-05
5.45904e-05
5.44448e-05
5.43881e-05
5.46097e-05
5.44718e-05
5.44809e-05
5.47385e-05
5.46223e-05
5.45094e-05
5.47498e-05
5.47747e-05
5.4664e-05
5.48516e-05
5.49428e-05
5.47896e-05
5.48239e-05
5.50248e-05
5.49512e-05
5.48435e-05
5.49979e-05
5.51094e-05
5.5003e-05
5.49944e-05
5.51111e-05
5.51699e-05
5.51337e-05
5.51319e-05
5.52012e-05
5.52031e-05
5.52385e-05
5.5286e-05
5.5196e-05
5.52868e-05
5.53292e-05
5.52353e-05
5.53704e-05
5.54307e-05
5.52856e-05
5.5488e-05
5.55838e-05
5.5349e-05
5.55419e-05
5.57187e-05
5.5454e-05
5.55635e-05
5.58036e-05
5.56116e-05
5.56541e-05
5.58121e-05
5.56816e-05
5.58101e-05
5.59324e-05
5.57111e-05
5.582e-05
5.6016e-05
5.58317e-05
5.59048e-05
5.60356e-05
5.5835e-05
5.59257e-05
5.61037e-05
5.59246e-05
5.60165e-05
5.61924e-05
5.6012e-05
5.60961e-05
5.62733e-05
5.60917e-05
5.61704e-05
5.63494e-05
5.61668e-05
5.62406e-05
5.64218e-05
5.62374e-05
5.63054e-05
5.64897e-05
5.63048e-05
5.63666e-05
5.65522e-05
5.6367e-05
5.64237e-05
5.66104e-05
5.64239e-05
5.64752e-05
5.66635e-05
5.64765e-05
5.65214e-05
5.6712e-05
5.65224e-05
5.65652e-05
5.67524e-05
5.65671e-05
5.65998e-05
5.67902e-05
5.66109e-05
5.66144e-05
5.68465e-05
5.66191e-05
5.66918e-05
5.68236e-05
5.66844e-05
5.66709e-05
5.68668e-05
5.67957e-05
5.65706e-05
5.69414e-05
5.66872e-05
5.69057e-05
5.6677e-05
5.68141e-05
5.68517e-05
5.68298e-05
5.68098e-05
5.67022e-05
5.69241e-05
5.69099e-05
5.68021e-05
5.67877e-05
5.67983e-05
5.70099e-05
5.67691e-05
5.69434e-05
5.673e-05
5.70132e-05
5.66622e-05
5.69711e-05
5.66856e-05
5.68219e-05
5.69247e-05
5.64987e-05
5.73841e-05
6.15831e-05
9.91423e-05
0.000594005
0.00204788
0.00180037
0.00184456
)
;

boundaryField
{
    inlet
    {
        type            calculated;
        value           uniform 0;
    }
    outlet
    {
        type            calculated;
        value           uniform 0;
    }
    sideWall
    {
        type            empty;
    }
}


// ************************************************************************* //
