/*--------------------------------*- C++ -*----------------------------------*\
| =========                 |                                                 |
| \\      /  F ield         | foam-extend: Open Source CFD                    |
|  \\    /   O peration     | Version:     3.2                                |
|   \\  /    A nd           | Web:         http://www.foam-extend.org         |
|    \\/     M anipulation  | For copyright notice see file Copyright         |
\*---------------------------------------------------------------------------*/
FoamFile
{
    version     2.0;
    format      ascii;
    class       areaScalarField;
    location    "50";
    object      tau;
}
// * * * * * * * * * * * * * * * * * * * * * * * * * * * * * * * * * * * * * //

dimensions      [1 1 2 0 0 0 0];

internalField   nonuniform List<scalar> 
300
(
8.66354
5.52979
4.09644
4.11378
3.98347
3.98592
3.92406
3.92173
3.89942
3.90805
3.90982
3.9244
3.93872
3.96176
3.98322
4.01055
4.03832
4.06944
4.10035
4.13445
4.17025
4.2072
4.2452
4.28377
4.32293
4.36233
4.39894
4.43081
4.45781
4.4804
4.49932
4.515
4.52816
4.53896
4.5481
4.55554
4.56193
4.56705
4.57162
4.57513
4.57849
4.58086
4.58345
4.58504
4.5871
4.58805
4.58974
4.59011
4.59205
4.59125
4.59448
4.59086
4.59781
4.58773
4.60486
4.57807
4.62225
4.55612
4.68751
4.41661
3.38296
3.28721
3.32454
3.30676
3.35253
3.34131
3.37775
3.36928
3.39019
3.38304
3.39038
3.39765
3.38947
3.37917
3.39124
3.39039
3.38299
3.3895
3.39002
3.37834
3.38169
3.38337
3.37675
3.38016
3.38155
3.37488
3.37766
3.37853
3.37295
3.37564
3.37673
3.37159
3.37464
3.37546
3.37114
3.37416
3.37467
3.37163
3.37332
3.37525
3.37209
3.37273
3.37527
3.37318
3.3723
3.37513
3.37468
3.37268
3.37402
3.37576
3.37417
3.37308
3.37497
3.37598
3.37447
3.37378
3.37523
3.37605
3.37562
3.37511
3.37531
3.37605
3.37644
3.37674
3.37693
3.37707
3.37719
3.37728
3.3774
3.37747
3.37749
3.37759
3.37772
3.37782
3.37791
3.37799
3.37815
3.37826
3.37843
3.3785
3.37861
3.37876
3.37872
3.37928
3.37871
3.3793
3.37974
3.37833
3.38073
3.37992
3.37829
3.3814
3.38021
3.37822
3.38269
3.38067
3.37725
3.38371
3.38202
3.37673
3.38382
3.38346
3.37742
3.38329
3.38359
3.37919
3.38367
3.38288
3.37989
3.38436
3.38493
3.38049
3.38325
3.38576
3.3826
3.3837
3.38703
3.38492
3.38294
3.38647
3.38703
3.38367
3.3846
3.38738
3.38638
3.38473
3.38609
3.3871
3.38688
3.38596
3.38676
3.38699
3.38639
3.38807
3.38632
3.38618
3.38826
3.386
3.38626
3.38934
3.38605
3.38646
3.39111
3.38685
3.38614
3.39188
3.38826
3.38576
3.39173
3.38976
3.3872
3.39128
3.38936
3.38842
3.39272
3.38955
3.3876
3.39277
3.39059
3.38868
3.39269
3.39006
3.38808
3.3929
3.3907
3.38879
3.39351
3.3914
3.38936
3.39408
3.39201
3.38988
3.39461
3.39259
3.39037
3.39513
3.39316
3.39084
3.39562
3.39372
3.39131
3.39608
3.39425
3.39177
3.39653
3.39475
3.39219
3.39694
3.39524
3.39257
3.39735
3.39567
3.39295
3.39772
3.39599
3.39344
3.39774
3.39682
3.39312
3.39862
3.39673
3.39407
3.39874
3.39601
3.3959
3.39597
3.40129
3.39097
3.40015
3.39608
3.3972
3.39866
3.39336
3.40148
3.39353
3.40275
3.39009
3.4022
3.39491
3.40157
3.3934
3.39871
3.39692
3.39959
3.39605
3.39839
3.39679
3.39603
3.39667
3.39621
3.39554
3.39891
3.38982
3.39906
3.41534
4.19734
5.2633
4.9045
4.50651
4.57917
)
;

boundaryField
{
    inlet
    {
        type            calculated;
        value           uniform 0;
    }
    outlet
    {
        type            calculated;
        value           uniform 0;
    }
    sideWall
    {
        type            empty;
    }
}


// ************************************************************************* //
