/*--------------------------------*- C++ -*----------------------------------*\
| =========                 |                                                 |
| \\      /  F ield         | foam-extend: Open Source CFD                    |
|  \\    /   O peration     | Version:     3.2                                |
|   \\  /    A nd           | Web:         http://www.foam-extend.org         |
|    \\/     M anipulation  | For copyright notice see file Copyright         |
\*---------------------------------------------------------------------------*/
FoamFile
{
    version     2.0;
    format      ascii;
    class       areaScalarField;
    location    "50";
    object      tauCB;
}
// * * * * * * * * * * * * * * * * * * * * * * * * * * * * * * * * * * * * * //

dimensions      [1 1 2 0 0 0 0];

internalField   nonuniform List<scalar> 
300
(
0.246313
0.246313
0.246313
0.246313
0.246313
0.246313
0.246313
0.246313
0.246313
0.246313
0.246313
0.246313
0.246313
0.246313
0.246313
0.246313
0.246313
0.246313
0.246313
0.246313
0.246313
0.246313
0.246313
0.246313
0.246313
0.246313
0.246313
0.246313
0.246313
0.246313
0.246313
0.246313
0.246313
0.246313
0.246313
0.246313
0.246313
0.246313
0.246313
0.246313
0.246313
0.246313
0.246313
0.246313
0.246313
0.246313
0.246313
0.246313
0.246313
0.246313
0.246313
0.246313
0.246313
0.246313
0.246313
0.246313
0.246313
0.246313
0.246313
0.37465
0.68793
0.983567
1.1489
1.2556
1.32147
1.36343
1.38824
1.40416
1.41294
1.41896
1.4219
1.42104
1.42259
1.42716
1.42589
1.42214
1.4208
1.41847
1.41538
1.41585
1.41573
1.41375
1.41321
1.41227
1.41051
1.4106
1.4104
1.40953
1.41009
1.41012
1.40946
1.41017
1.41024
1.40963
1.41029
1.41028
1.40972
1.41021
1.41023
1.40962
1.40988
1.4101
1.40943
1.40944
1.4098
1.40929
1.4089
1.40932
1.40924
1.40855
1.40852
1.40895
1.40864
1.40798
1.40801
1.40839
1.40811
1.40744
1.4072
1.40736
1.40734
1.40698
1.4065
1.40607
1.40572
1.40547
1.40527
1.4051
1.40496
1.40483
1.40471
1.40458
1.40445
1.40432
1.40417
1.40403
1.40388
1.40371
1.40355
1.40339
1.40325
1.4031
1.40294
1.40274
1.40262
1.40245
1.40218
1.40218
1.40179
1.40154
1.40179
1.40128
1.40103
1.40131
1.40059
1.40038
1.40106
1.40009
1.39953
1.40056
1.39977
1.39875
1.39976
1.39941
1.39836
1.39886
1.39855
1.39804
1.39847
1.39775
1.39683
1.39738
1.39731
1.3962
1.39612
1.39595
1.3948
1.39454
1.39507
1.3945
1.39378
1.39424
1.39441
1.39348
1.39311
1.39354
1.39343
1.39277
1.39246
1.39258
1.39251
1.39225
1.39215
1.39187
1.39198
1.39223
1.39186
1.39197
1.39204
1.39135
1.39142
1.39148
1.39033
1.39041
1.39088
1.38966
1.38945
1.39022
1.38924
1.38866
1.3892
1.38872
1.38844
1.38858
1.3877
1.3877
1.38838
1.38758
1.38721
1.38772
1.38721
1.38725
1.38793
1.38725
1.38697
1.38741
1.38661
1.38628
1.38672
1.38595
1.38564
1.3861
1.38536
1.38505
1.38553
1.38481
1.3845
1.38501
1.3843
1.38399
1.38451
1.38383
1.38351
1.38405
1.38339
1.38308
1.38363
1.383
1.38268
1.38326
1.38264
1.38233
1.38292
1.38233
1.38202
1.38262
1.38206
1.38173
1.38237
1.38184
1.38146
1.38214
1.38155
1.38134
1.38188
1.38153
1.38088
1.38159
1.38175
1.38084
1.38134
1.38077
1.38173
1.38076
1.38091
1.38077
1.3812
1.38132
1.38009
1.38071
1.38063
1.38155
1.38014
1.38067
1.38015
1.38111
1.38051
1.38177
1.38125
1.38214
1.38159
1.38216
1.38167
1.38113
1.31757
0.988713
0.473352
0.246313
0.246313
0.246313
)
;

boundaryField
{
    inlet
    {
        type            calculated;
        value           uniform 0;
    }
    outlet
    {
        type            calculated;
        value           uniform 0;
    }
    sideWall
    {
        type            empty;
    }
}


// ************************************************************************* //
