/*--------------------------------*- C++ -*----------------------------------*\
| =========                 |                                                 |
| \\      /  F ield         | foam-extend: Open Source CFD                    |
|  \\    /   O peration     | Version:     3.2                                |
|   \\  /    A nd           | Web:         http://www.foam-extend.org         |
|    \\/     M anipulation  | For copyright notice see file Copyright         |
\*---------------------------------------------------------------------------*/
FoamFile
{
    version     2.0;
    format      ascii;
    class       areaScalarField;
    location    "50";
    object      tauCSS2;
}
// * * * * * * * * * * * * * * * * * * * * * * * * * * * * * * * * * * * * * //

dimensions      [1 1 2 0 0 0 0];

internalField   nonuniform List<scalar> 
300
(
0.0552126
0.0552126
0.0552126
0.0552126
0.0552126
0.0552126
0.0552126
0.0552126
0.0552126
0.0552126
0.0552126
0.0552126
0.0552126
0.0552126
0.0552126
0.0552126
0.0552126
0.0552126
0.0552126
0.0552126
0.0552126
0.0552126
0.0552126
0.0552126
0.0552126
0.0552126
0.0552126
0.0552126
0.0552126
0.0552126
0.0552126
0.0552126
0.0552126
0.0552126
0.0552126
0.0552126
0.0552126
0.0552126
0.0552126
0.0552126
0.0552126
0.0552126
0.0552126
0.0552126
0.0552126
0.0552126
0.0552126
0.0552126
0.0552126
0.0552126
0.0552126
0.0552126
0.0552126
0.0552126
0.0552126
0.0552126
0.0552126
0.0552126
0.0552126
0.0839803
0.154204
0.220473
0.257532
0.281451
0.296217
0.305622
0.311182
0.314752
0.316719
0.31807
0.318728
0.318536
0.318883
0.319907
0.319623
0.318782
0.31848
0.31796
0.317268
0.317372
0.317345
0.316901
0.31678
0.31657
0.316176
0.316194
0.316151
0.315954
0.31608
0.316088
0.315939
0.316099
0.316114
0.315977
0.316125
0.316123
0.315997
0.316107
0.316112
0.315975
0.316034
0.316083
0.315932
0.315936
0.316016
0.315902
0.315815
0.315909
0.31589
0.315734
0.315729
0.315826
0.315756
0.315607
0.315615
0.315699
0.315636
0.315487
0.315434
0.315469
0.315463
0.315382
0.315275
0.315179
0.315102
0.315045
0.314999
0.314962
0.31493
0.314902
0.314874
0.314845
0.314817
0.314787
0.314755
0.314722
0.314688
0.314651
0.314614
0.314579
0.314547
0.314513
0.314478
0.314432
0.314406
0.314368
0.314309
0.314308
0.31422
0.314163
0.314219
0.314105
0.314051
0.314112
0.313952
0.313904
0.314057
0.31384
0.313714
0.313944
0.313767
0.313538
0.313766
0.313687
0.313452
0.313564
0.313495
0.313379
0.313476
0.313314
0.313107
0.313231
0.313217
0.312966
0.31295
0.31291
0.312653
0.312595
0.312715
0.312585
0.312424
0.312529
0.312565
0.312358
0.312275
0.312371
0.312346
0.312197
0.312129
0.312156
0.312141
0.312082
0.31206
0.311997
0.312022
0.312077
0.311993
0.312019
0.312035
0.311881
0.311896
0.311909
0.311652
0.31167
0.311774
0.311501
0.311454
0.311626
0.311408
0.311277
0.311397
0.311291
0.311228
0.311259
0.311061
0.311062
0.311214
0.311034
0.310951
0.311067
0.310951
0.31096
0.311113
0.310961
0.310899
0.310996
0.310817
0.310743
0.310843
0.310671
0.310599
0.310704
0.310538
0.310468
0.310576
0.310414
0.310344
0.310458
0.3103
0.310229
0.310346
0.310194
0.310124
0.310244
0.310096
0.310026
0.31015
0.310008
0.309937
0.310066
0.309929
0.309858
0.309991
0.309857
0.309789
0.309922
0.309798
0.309723
0.309866
0.309748
0.309663
0.309816
0.309683
0.309636
0.309757
0.309679
0.309533
0.309693
0.309728
0.309524
0.309635
0.309508
0.309724
0.309506
0.309541
0.309508
0.309606
0.309631
0.309357
0.309494
0.309477
0.309684
0.309366
0.309486
0.309369
0.309585
0.30945
0.309732
0.309617
0.309815
0.309693
0.309821
0.309711
0.309589
0.295343
0.221626
0.106105
0.0552126
0.0552126
0.0552126
)
;

boundaryField
{
    inlet
    {
        type            calculated;
        value           uniform 0;
    }
    outlet
    {
        type            calculated;
        value           uniform 0;
    }
    sideWall
    {
        type            empty;
    }
}


// ************************************************************************* //
