/*--------------------------------*- C++ -*----------------------------------*\
| =========                 |                                                 |
| \\      /  F ield         | foam-extend: Open Source CFD                    |
|  \\    /   O peration     | Version:     3.2                                |
|   \\  /    A nd           | Web:         http://www.foam-extend.org         |
|    \\/     M anipulation  | For copyright notice see file Copyright         |
\*---------------------------------------------------------------------------*/
FoamFile
{
    version     2.0;
    format      ascii;
    class       areaScalarField;
    location    "50";
    object      tauCSS1;
}
// * * * * * * * * * * * * * * * * * * * * * * * * * * * * * * * * * * * * * //

dimensions      [1 1 2 0 0 0 0];

internalField   nonuniform List<scalar> 
300
(
0.0368752
0.0368752
0.0368752
0.0368752
0.0368752
0.0368752
0.0368752
0.0368752
0.0368752
0.0368752
0.0368752
0.0368752
0.0368752
0.0368752
0.0368752
0.0368752
0.0368752
0.0368752
0.0368752
0.0368752
0.0368752
0.0368752
0.0368752
0.0368752
0.0368752
0.0368752
0.0368752
0.0368752
0.0368752
0.0368752
0.0368752
0.0368752
0.0368752
0.0368752
0.0368752
0.0368752
0.0368752
0.0368752
0.0368752
0.0368752
0.0368752
0.0368752
0.0368752
0.0368752
0.0368752
0.0368752
0.0368752
0.0368752
0.0368752
0.0368752
0.0368752
0.0368752
0.0368752
0.0368752
0.0368752
0.0368752
0.0368752
0.0368752
0.0368752
0.0560884
0.102989
0.147249
0.172
0.187975
0.197836
0.204117
0.207831
0.210215
0.211529
0.212431
0.212871
0.212742
0.212974
0.213658
0.213468
0.212907
0.212705
0.212358
0.211895
0.211965
0.211947
0.211651
0.21157
0.21143
0.211166
0.211178
0.21115
0.211018
0.211102
0.211107
0.211008
0.211115
0.211125
0.211033
0.211132
0.211131
0.211047
0.21112
0.211124
0.211032
0.211072
0.211104
0.211004
0.211006
0.211059
0.210984
0.210925
0.210988
0.210975
0.210871
0.210868
0.210933
0.210886
0.210787
0.210792
0.210848
0.210806
0.210706
0.210671
0.210694
0.21069
0.210636
0.210565
0.2105
0.210449
0.210411
0.210381
0.210356
0.210334
0.210315
0.210297
0.210278
0.210259
0.210239
0.210217
0.210196
0.210173
0.210148
0.210123
0.2101
0.210078
0.210056
0.210032
0.210002
0.209984
0.209959
0.209919
0.209919
0.20986
0.209822
0.209859
0.209783
0.209747
0.209788
0.209681
0.209649
0.209751
0.209606
0.209522
0.209676
0.209558
0.209405
0.209557
0.209504
0.209347
0.209422
0.209376
0.209298
0.209363
0.209255
0.209117
0.2092
0.20919
0.209023
0.209012
0.208985
0.208813
0.208775
0.208855
0.208768
0.208661
0.208731
0.208755
0.208616
0.208561
0.208625
0.208609
0.208509
0.208464
0.208482
0.208472
0.208432
0.208417
0.208375
0.208392
0.208429
0.208373
0.20839
0.208401
0.208298
0.208308
0.208317
0.208145
0.208157
0.208227
0.208044
0.208013
0.208127
0.207982
0.207894
0.207975
0.207904
0.207862
0.207882
0.20775
0.207751
0.207853
0.207732
0.207677
0.207754
0.207677
0.207683
0.207785
0.207684
0.207642
0.207707
0.207587
0.207538
0.207605
0.207489
0.207442
0.207512
0.207401
0.207354
0.207426
0.207318
0.207271
0.207347
0.207242
0.207195
0.207273
0.207171
0.207124
0.207204
0.207106
0.207059
0.207142
0.207047
0.207
0.207086
0.206994
0.206947
0.207035
0.206946
0.2069
0.20699
0.206906
0.206856
0.206952
0.206873
0.206816
0.206919
0.20683
0.206798
0.206879
0.206827
0.20673
0.206837
0.20686
0.206724
0.206798
0.206713
0.206857
0.206712
0.206735
0.206713
0.206778
0.206795
0.206612
0.206704
0.206692
0.20683
0.206618
0.206699
0.20662
0.206765
0.206674
0.206863
0.206786
0.206918
0.206836
0.206922
0.206848
0.206767
0.197252
0.148019
0.0708649
0.0368752
0.0368752
0.0368752
)
;

boundaryField
{
    inlet
    {
        type            calculated;
        value           uniform 0;
    }
    outlet
    {
        type            calculated;
        value           uniform 0;
    }
    sideWall
    {
        type            empty;
    }
}


// ************************************************************************* //
