/*--------------------------------*- C++ -*----------------------------------*\
| =========                 |                                                 |
| \\      /  F ield         | foam-extend: Open Source CFD                    |
|  \\    /   O peration     | Version:     3.2                                |
|   \\  /    A nd           | Web:         http://www.foam-extend.org         |
|    \\/     M anipulation  | For copyright notice see file Copyright         |
\*---------------------------------------------------------------------------*/
FoamFile
{
    version     2.0;
    format      ascii;
    class       volScalarField;
    location    "50";
    object      testS;
}
// * * * * * * * * * * * * * * * * * * * * * * * * * * * * * * * * * * * * * //

dimensions      [0 0 0 0 0 0 0];

internalField   uniform 0;

boundaryField
{
    inlet
    {
        type            calculated;
        value           uniform 0;
    }
    outlet
    {
        type            calculated;
        value           uniform 0;
    }
    sideWall
    {
        type            empty;
    }
    bed
    {
        type            calculated;
        value           nonuniform List<scalar> 
300
(
3.42516
1.74029
1.1057
1.11279
1.05987
1.06086
1.03603
1.03509
1.02619
1.02963
1.03034
1.03616
1.04189
1.05113
1.05977
1.07079
1.08204
1.09469
1.10729
1.12126
1.13599
1.15126
1.16703
1.18311
1.19951
1.21609
1.23156
1.24508
1.25657
1.26622
1.27432
1.28104
1.28669
1.29133
1.29527
1.29847
1.30123
1.30343
1.30541
1.30692
1.30837
1.3094
1.31052
1.31121
1.3121
1.31251
1.31324
1.31338
1.31422
1.31387
1.31527
1.3137
1.31671
1.31235
1.31977
1.30817
1.32731
1.29871
1.3557
0.45051
0.105683
0.0714014
0.0620835
0.0575062
0.0562812
0.0551213
0.055249
0.0548499
0.0551441
0.0547403
0.055244
0.0555581
0.0545266
0.0545034
0.055419
0.0553231
0.0551502
0.055826
0.0555902
0.0551374
0.0555885
0.0555969
0.055376
0.0557675
0.0556943
0.0554377
0.0557255
0.0556201
0.0553979
0.0556702
0.055557
0.0553544
0.0556323
0.0555078
0.0553572
0.0555976
0.0555026
0.055381
0.0555603
0.055569
0.0553906
0.0555438
0.055613
0.0554548
0.0555029
0.0556613
0.0555531
0.0554836
0.0556335
0.0556847
0.0555441
0.0555483
0.0556996
0.0557131
0.0555919
0.0556038
0.0557303
0.0557667
0.055711
0.0556924
0.0557367
0.0557979
0.0558357
0.0558636
0.0558811
0.0558955
0.0559075
0.0559185
0.0559289
0.0559376
0.0559472
0.0559576
0.0559686
0.0559822
0.0559933
0.056005
0.0560211
0.0560343
0.0560497
0.0560579
0.0560733
0.0560829
0.0561004
0.0561255
0.0561007
0.0561712
0.0561463
0.0561367
0.0562756
0.056148
0.0561754
0.0563309
0.056177
0.0562164
0.0564398
0.0561707
0.056209
0.0565606
0.0562428
0.0561726
0.0566353
0.0563605
0.0561941
0.0566163
0.0564441
0.0563336
0.0566104
0.056435
0.0564146
0.0567221
0.0566006
0.0564133
0.0567068
0.0567374
0.0565814
0.0567826
0.0569152
0.056701
0.056716
0.0569529
0.0568684
0.0566992
0.056877
0.0570053
0.0568711
0.0568246
0.0569607
0.057013
0.0569659
0.0569305
0.0570097
0.0569901
0.0570138
0.0570664
0.0569296
0.0570191
0.057068
0.056929
0.0570669
0.0571528
0.0569385
0.0571609
0.0572951
0.0569766
0.0571731
0.0574119
0.0570619
0.057157
0.0574582
0.0572109
0.0572228
0.0574225
0.0572368
0.0573604
0.0575227
0.0572289
0.0573189
0.0575681
0.0573235
0.0573748
0.0575451
0.0572789
0.0573508
0.0575791
0.0573428
0.0574189
0.0576455
0.0574084
0.0574753
0.0577034
0.0574661
0.0575265
0.0577571
0.05752
0.0575748
0.0578085
0.0575707
0.0576189
0.0578566
0.0576199
0.0576611
0.0579008
0.0576652
0.0577008
0.0579426
0.0577068
0.0577365
0.0579806
0.0577461
0.0577682
0.058016
0.0577797
0.0577993
0.0580452
0.0578121
0.0578265
0.0580657
0.0578577
0.0578164
0.058129
0.0578427
0.0578991
0.0580956
0.0578841
0.0579128
0.0580501
0.0581238
0.0576395
0.0582971
0.0577963
0.0582124
0.0578365
0.058019
0.058127
0.0579171
0.0582262
0.0576187
0.0584352
0.0578059
0.0583584
0.0576052
0.0583614
0.0578429
0.0583532
0.0577448
0.058308
0.0577305
0.0581402
0.0577558
0.0580798
0.0577808
0.0580966
0.0577011
0.0583213
0.0622823
0.0832853
0.421426
1.4529
1.2773
1.30865
)
;
    }
    topWall
    {
        type            calculated;
        value           uniform 0;
    }
}


// ************************************************************************* //
