/*--------------------------------*- C++ -*----------------------------------*\
| =========                 |                                                 |
| \\      /  F ield         | foam-extend: Open Source CFD                    |
|  \\    /   O peration     | Version:     3.2                                |
|   \\  /    A nd           | Web:         http://www.foam-extend.org         |
|    \\/     M anipulation  | For copyright notice see file Copyright         |
\*---------------------------------------------------------------------------*/
FoamFile
{
    version     2.0;
    format      ascii;
    class       areaScalarField;
    location    "50";
    object      thetaCB;
}
// * * * * * * * * * * * * * * * * * * * * * * * * * * * * * * * * * * * * * //

dimensions      [0 0 0 0 0 0 0];

internalField   nonuniform List<scalar> 
300
(
0.0317025
0.0317025
0.0317025
0.0317025
0.0317025
0.0317025
0.0317025
0.0317025
0.0317025
0.0317025
0.0317025
0.0317025
0.0317025
0.0317025
0.0317025
0.0317025
0.0317025
0.0317025
0.0317025
0.0317025
0.0317025
0.0317025
0.0317025
0.0317025
0.0317025
0.0317025
0.0317025
0.0317025
0.0317025
0.0317025
0.0317025
0.0317025
0.0317025
0.0317025
0.0317025
0.0317025
0.0317025
0.0317025
0.0317025
0.0317025
0.0317025
0.0317025
0.0317025
0.0317025
0.0317025
0.0317025
0.0317025
0.0317025
0.0317025
0.0317025
0.0317025
0.0317025
0.0317025
0.0317025
0.0317025
0.0317025
0.0317025
0.0317025
0.0317025
0.0482205
0.0885422
0.126593
0.147872
0.161606
0.170084
0.175485
0.178677
0.180727
0.181857
0.182632
0.18301
0.1829
0.183099
0.183687
0.183524
0.183041
0.182868
0.182569
0.182171
0.182232
0.182216
0.181961
0.181891
0.181771
0.181545
0.181555
0.18153
0.181417
0.18149
0.181494
0.181409
0.1815
0.181509
0.18143
0.181515
0.181514
0.181442
0.181505
0.181508
0.181429
0.181463
0.181491
0.181405
0.181407
0.181453
0.181388
0.181337
0.181391
0.18138
0.181291
0.181288
0.181344
0.181304
0.181218
0.181223
0.181271
0.181235
0.181149
0.181118
0.181139
0.181135
0.181089
0.181027
0.180972
0.180928
0.180895
0.180869
0.180848
0.180829
0.180813
0.180797
0.180781
0.180764
0.180747
0.180729
0.18071
0.18069
0.180669
0.180648
0.180628
0.180609
0.18059
0.18057
0.180544
0.180529
0.180507
0.180473
0.180472
0.180422
0.180389
0.180421
0.180356
0.180324
0.18036
0.180268
0.18024
0.180328
0.180203
0.180131
0.180263
0.180162
0.18003
0.180161
0.180116
0.179981
0.180045
0.180005
0.179939
0.179994
0.179901
0.179783
0.179854
0.179845
0.179702
0.179693
0.17967
0.179522
0.179489
0.179557
0.179483
0.17939
0.179451
0.179471
0.179352
0.179305
0.17936
0.179346
0.17926
0.179221
0.179237
0.179228
0.179194
0.179181
0.179145
0.179159
0.179191
0.179143
0.179158
0.179167
0.179078
0.179087
0.179095
0.178947
0.178957
0.179017
0.17886
0.178833
0.178932
0.178807
0.178732
0.178801
0.17874
0.178704
0.178721
0.178608
0.178608
0.178696
0.178592
0.178545
0.178611
0.178545
0.17855
0.178637
0.17855
0.178515
0.17857
0.178467
0.178425
0.178482
0.178384
0.178343
0.178403
0.178307
0.178267
0.178329
0.178236
0.178196
0.178261
0.178171
0.17813
0.178197
0.17811
0.178069
0.178138
0.178054
0.178014
0.178085
0.178003
0.177963
0.178036
0.177958
0.177917
0.177993
0.177917
0.177877
0.177954
0.177882
0.177839
0.177922
0.177854
0.177805
0.177893
0.177816
0.177789
0.177859
0.177814
0.17773
0.177822
0.177842
0.177725
0.177789
0.177716
0.17784
0.177715
0.177735
0.177716
0.177772
0.177786
0.177629
0.177708
0.177698
0.177817
0.177635
0.177704
0.177636
0.17776
0.177683
0.177845
0.177779
0.177892
0.177822
0.177896
0.177832
0.177762
0.169582
0.127255
0.0609243
0.0317025
0.0317025
0.0317025
)
;

boundaryField
{
    inlet
    {
        type            calculated;
        value           uniform 0;
    }
    outlet
    {
        type            calculated;
        value           uniform 0;
    }
    sideWall
    {
        type            empty;
    }
}


// ************************************************************************* //
