/*--------------------------------*- C++ -*----------------------------------*\
| =========                 |                                                 |
| \\      /  F ield         | foam-extend: Open Source CFD                    |
|  \\    /   O peration     | Version:     3.2                                |
|   \\  /    A nd           | Web:         http://www.foam-extend.org         |
|    \\/     M anipulation  | For copyright notice see file Copyright         |
\*---------------------------------------------------------------------------*/
FoamFile
{
    version     2.0;
    format      ascii;
    class       areaScalarField;
    location    "50";
    object      thetaC2SS1;
}
// * * * * * * * * * * * * * * * * * * * * * * * * * * * * * * * * * * * * * //

dimensions      [0 0 0 0 0 0 0];

internalField   nonuniform List<scalar> 
300
(
0.0947979
0.0947979
0.0947979
0.0947979
0.0947979
0.0947979
0.0947979
0.0947979
0.0947979
0.0947979
0.0947979
0.0947979
0.0947979
0.0947979
0.0947979
0.0947979
0.0947979
0.0947979
0.0947979
0.0947979
0.0947979
0.0947979
0.0947979
0.0947979
0.0947979
0.0947979
0.0947979
0.0947979
0.0947979
0.0947979
0.0947979
0.0947979
0.0947979
0.0947979
0.0947979
0.0947979
0.0947979
0.0947979
0.0947979
0.0947979
0.0947979
0.0947979
0.0947979
0.0947979
0.0947979
0.0947979
0.0947979
0.0947979
0.0947979
0.0947979
0.0947979
0.0947979
0.0947979
0.0947979
0.0947979
0.0947979
0.0947979
0.0947979
0.0947979
0.148252
0.275136
0.385919
0.447781
0.486864
0.511117
0.526188
0.535303
0.540947
0.54415
0.546377
0.547212
0.546841
0.547869
0.549312
0.548513
0.547251
0.54677
0.545666
0.544736
0.544985
0.54473
0.544061
0.5439
0.543398
0.54285
0.542926
0.542734
0.542503
0.542742
0.542636
0.542488
0.542775
0.542684
0.542556
0.542807
0.542711
0.542579
0.542773
0.542702
0.542514
0.542662
0.542658
0.542423
0.542488
0.542571
0.542346
0.542266
0.542422
0.542326
0.542081
0.54213
0.542262
0.542094
0.541871
0.54193
0.542043
0.541894
0.541654
0.541597
0.541654
0.541623
0.541473
0.541291
0.541129
0.541003
0.540908
0.540833
0.54077
0.540715
0.540668
0.54062
0.54057
0.540522
0.54047
0.540414
0.540358
0.540298
0.540234
0.54017
0.540113
0.540056
0.54
0.539935
0.539859
0.539823
0.539732
0.539661
0.539644
0.539465
0.539437
0.539484
0.539265
0.53925
0.539293
0.538985
0.539033
0.539197
0.538757
0.538718
0.539034
0.538604
0.538399
0.538755
0.538482
0.538219
0.538389
0.538192
0.5381
0.538217
0.537859
0.537616
0.537847
0.5377
0.537332
0.537347
0.537188
0.536763
0.536763
0.53691
0.536629
0.536435
0.536642
0.536612
0.53626
0.536192
0.536342
0.536248
0.536002
0.53592
0.535968
0.535911
0.535834
0.535778
0.535675
0.535764
0.535798
0.535672
0.535756
0.535707
0.535466
0.535561
0.535462
0.535059
0.535199
0.535241
0.53477
0.534838
0.535013
0.534597
0.534502
0.534644
0.534428
0.534406
0.53437
0.534037
0.534155
0.534312
0.533972
0.533946
0.534068
0.533854
0.533977
0.534144
0.533854
0.533856
0.533935
0.533602
0.533588
0.533675
0.533352
0.533342
0.533439
0.533124
0.533116
0.533221
0.532911
0.532905
0.533019
0.532715
0.532707
0.53283
0.532534
0.532526
0.532656
0.532365
0.532359
0.532498
0.532213
0.532207
0.532354
0.532077
0.532072
0.532226
0.531956
0.531951
0.532113
0.531852
0.531836
0.532026
0.531753
0.53175
0.531917
0.531672
0.531675
0.531845
0.53165
0.531463
0.531822
0.531653
0.531551
0.531512
0.531542
0.531697
0.531421
0.531471
0.53139
0.531685
0.531458
0.531268
0.531279
0.531542
0.531528
0.531292
0.53124
0.531337
0.5314
0.531482
0.531684
0.531726
0.531849
0.531812
0.531888
0.531799
0.531409
0.499013
0.36125
0.175076
0.0947979
0.0947979
0.0947979
)
;

boundaryField
{
    inlet
    {
        type            calculated;
        value           uniform 0;
    }
    outlet
    {
        type            calculated;
        value           uniform 0;
    }
    sideWall
    {
        type            empty;
    }
}


// ************************************************************************* //
