/*--------------------------------*- C++ -*----------------------------------*\
| =========                 |                                                 |
| \\      /  F ield         | foam-extend: Open Source CFD                    |
|  \\    /   O peration     | Version:     3.2                                |
|   \\  /    A nd           | Web:         http://www.foam-extend.org         |
|    \\/     M anipulation  | For copyright notice see file Copyright         |
\*---------------------------------------------------------------------------*/
FoamFile
{
    version     2.0;
    format      ascii;
    class       areaScalarField;
    location    "50";
    object      thetaSS2init;
}
// * * * * * * * * * * * * * * * * * * * * * * * * * * * * * * * * * * * * * //

dimensions      [0 0 0 0 0 0 0];

internalField   nonuniform List<scalar> 
300
(
14.6456
9.34812
6.92498
6.95433
6.73401
6.73818
6.63362
6.62967
6.59194
6.60655
6.60952
6.63418
6.65838
6.69734
6.73359
6.77985
6.82672
6.8794
6.93157
6.98929
7.04973
7.11226
7.1764
7.24166
7.30778
7.37447
7.43624
7.49019
7.53571
7.57399
7.60585
7.63249
7.65458
7.673
7.68828
7.70104
7.71165
7.72055
7.72801
7.73429
7.7396
7.74407
7.74796
7.75123
7.75413
7.75635
7.75856
7.75999
7.76188
7.76261
7.76455
7.76415
7.76758
7.76386
7.77203
7.7598
7.78195
7.74687
7.81679
7.58758
7.01785
6.97907
7.04548
6.9991
7.01899
7.00778
7.01318
7.01059
7.01245
7.01194
7.01224
7.01242
7.01238
7.01274
7.01303
7.01263
7.01293
7.01329
7.01325
7.013
7.01298
7.01318
7.01321
7.01332
7.01335
7.01322
7.01308
7.01314
7.01303
7.01284
7.01293
7.01296
7.0129
7.01302
7.01331
7.01302
7.01249
7.01301
7.01316
7.01302
7.01309
7.01297
7.01286
7.01298
7.013
7.01292
7.01286
7.01252
7.01284
7.01289
7.01263
7.01301
7.01288
7.01292
7.0136
7.01364
7.01328
7.01327
7.01321
7.01282
7.0128
7.01319
7.01314
7.01296
7.01322
7.01329
7.01334
7.01317
7.01318
7.01371
7.01376
7.0136
7.01321
7.01265
7.01259
7.01253
7.0125
7.01282
7.01294
7.01305
7.01305
7.01299
7.01278
7.01272
7.01326
7.01325
7.01287
7.01305
7.0129
7.01317
7.01355
7.0129
7.01333
7.0137
7.01302
7.01306
7.01331
7.01328
7.0131
7.01297
7.01291
7.01246
7.01288
7.01352
7.01313
7.01335
7.01368
7.0135
7.01327
7.01281
7.01307
7.01348
7.01303
7.01332
7.01338
7.01276
7.01318
7.0134
7.01268
7.01269
7.01319
7.01325
7.01283
7.01287
7.01329
7.01314
7.01279
7.01306
7.01308
7.01273
7.01308
7.01313
7.01263
7.0126
7.01305
7.01308
7.01261
7.01281
7.01312
7.01285
7.01302
7.01308
7.01271
7.01295
7.01298
7.01255
7.01284
7.01301
7.01268
7.0126
7.01262
7.01257
7.01273
7.01276
7.0125
7.01266
7.01276
7.01258
7.01258
7.01256
7.01248
7.01252
7.0125
7.01237
7.01244
7.01249
7.01243
7.0124
7.01235
7.01228
7.01227
7.01224
7.01219
7.01219
7.0122
7.01219
7.01215
7.01211
7.01208
7.01207
7.01206
7.01205
7.01205
7.01205
7.01205
7.01205
7.01205
7.01205
7.01205
7.01205
7.01205
7.01205
7.01205
7.01205
7.01205
7.01205
7.01205
7.01205
7.01205
7.01205
7.01205
7.01205
7.01205
7.01205
7.01205
7.01205
7.01205
7.01205
7.01205
7.01205
7.01205
7.01205
7.01205
7.01205
7.01205
7.01205
7.01205
7.01205
7.01205
7.01206
7.01203
7.01208
7.01198
7.01217
7.01182
7.01248
7.01131
7.01337
7.00974
7.01604
7.00521
7.0237
6.98976
7.05521
6.94688
6.99765
7.7169
7.80282
7.72216
7.77423
)
;

boundaryField
{
    inlet
    {
        type            calculated;
        value           uniform 0;
    }
    outlet
    {
        type            calculated;
        value           uniform 0;
    }
    sideWall
    {
        type            empty;
    }
}


// ************************************************************************* //
