/*--------------------------------*- C++ -*----------------------------------*\
| =========                 |                                                 |
| \\      /  F ield         | foam-extend: Open Source CFD                    |
|  \\    /   O peration     | Version:     3.2                                |
|   \\  /    A nd           | Web:         http://www.foam-extend.org         |
|    \\/     M anipulation  | For copyright notice see file Copyright         |
\*---------------------------------------------------------------------------*/
FoamFile
{
    version     2.0;
    format      ascii;
    class       areaScalarField;
    location    "50";
    object      thetaC2SS2;
}
// * * * * * * * * * * * * * * * * * * * * * * * * * * * * * * * * * * * * * //

dimensions      [0 0 0 0 0 0 0];

internalField   nonuniform List<scalar> 
300
(
0.0940613
0.0940613
0.0940613
0.0940613
0.0940613
0.0940613
0.0940613
0.0940613
0.0940613
0.0940613
0.0940613
0.0940613
0.0940613
0.0940613
0.0940613
0.0940613
0.0940613
0.0940613
0.0940613
0.0940613
0.0940613
0.0940613
0.0940613
0.0940613
0.0940613
0.0940613
0.0940613
0.0940613
0.0940613
0.0940613
0.0940613
0.0940613
0.0940613
0.0940613
0.0940613
0.0940613
0.0940613
0.0940613
0.0940613
0.0940613
0.0940613
0.0940613
0.0940613
0.0940613
0.0940613
0.0940613
0.0940613
0.0940613
0.0940613
0.0940613
0.0940613
0.0940613
0.0940613
0.0940613
0.0940613
0.0940613
0.0940613
0.0940613
0.0940613
0.1471
0.272998
0.382921
0.444302
0.483081
0.507145
0.5221
0.531144
0.536743
0.539922
0.542132
0.54296
0.542592
0.543612
0.545044
0.544251
0.542998
0.542522
0.541426
0.540503
0.54075
0.540497
0.539833
0.539674
0.539176
0.538632
0.538707
0.538517
0.538287
0.538525
0.53842
0.538273
0.538558
0.538467
0.53834
0.53859
0.538493
0.538363
0.538555
0.538485
0.538299
0.538445
0.538441
0.538208
0.538273
0.538355
0.538132
0.538053
0.538207
0.538112
0.537869
0.537917
0.538048
0.537882
0.53766
0.537719
0.537831
0.537683
0.537445
0.537388
0.537445
0.537414
0.537266
0.537085
0.536925
0.536799
0.536705
0.53663
0.536568
0.536514
0.536467
0.536419
0.53637
0.536322
0.53627
0.536215
0.53616
0.5361
0.536037
0.535973
0.535916
0.53586
0.535804
0.53574
0.535664
0.535629
0.535538
0.535468
0.535451
0.535273
0.535246
0.535292
0.535075
0.53506
0.535102
0.534797
0.534845
0.535008
0.534571
0.534532
0.534846
0.534419
0.534215
0.534569
0.534298
0.534037
0.534205
0.53401
0.533919
0.534034
0.53368
0.533438
0.533667
0.533521
0.533157
0.533172
0.533014
0.532592
0.532593
0.532738
0.532459
0.532266
0.532472
0.532442
0.532093
0.532026
0.532174
0.532081
0.531837
0.531755
0.531803
0.531747
0.531671
0.531615
0.531513
0.531601
0.531635
0.531509
0.531593
0.531544
0.531305
0.531399
0.531301
0.530901
0.531041
0.531082
0.530615
0.530682
0.530856
0.530443
0.530349
0.53049
0.530276
0.530253
0.530218
0.529888
0.530004
0.53016
0.529823
0.529797
0.529918
0.529706
0.529828
0.529993
0.529706
0.529708
0.529786
0.529456
0.529442
0.529528
0.529208
0.529198
0.529294
0.528982
0.528974
0.529078
0.52877
0.528764
0.528878
0.528576
0.528568
0.528689
0.528396
0.528388
0.528517
0.528229
0.528223
0.52836
0.528078
0.528072
0.528218
0.527942
0.527938
0.52809
0.527823
0.527817
0.527978
0.527719
0.527703
0.527892
0.527621
0.527618
0.527784
0.527541
0.527543
0.527712
0.527519
0.527333
0.52769
0.527522
0.52742
0.527382
0.527412
0.527566
0.527292
0.527342
0.527261
0.527554
0.527329
0.52714
0.52715
0.527412
0.527398
0.527164
0.527112
0.527208
0.52727
0.527353
0.527552
0.527594
0.527716
0.52768
0.527755
0.527666
0.527279
0.495136
0.358443
0.173716
0.0940613
0.0940613
0.0940613
)
;

boundaryField
{
    inlet
    {
        type            calculated;
        value           uniform 0;
    }
    outlet
    {
        type            calculated;
        value           uniform 0;
    }
    sideWall
    {
        type            empty;
    }
}


// ************************************************************************* //
