/*--------------------------------*- C++ -*----------------------------------*\
| =========                 |                                                 |
| \\      /  F ield         | foam-extend: Open Source CFD                    |
|  \\    /   O peration     | Version:     3.2                                |
|   \\  /    A nd           | Web:         http://www.foam-extend.org         |
|    \\/     M anipulation  | For copyright notice see file Copyright         |
\*---------------------------------------------------------------------------*/
FoamFile
{
    version     2.0;
    format      ascii;
    class       areaScalarField;
    location    "50";
    object      thetaCSS2;
}
// * * * * * * * * * * * * * * * * * * * * * * * * * * * * * * * * * * * * * //

dimensions      [0 0 0 0 0 0 0];

internalField   nonuniform List<scalar> 
300
(
0.0933366
0.0933366
0.0933366
0.0933366
0.0933366
0.0933366
0.0933366
0.0933366
0.0933366
0.0933366
0.0933366
0.0933366
0.0933366
0.0933366
0.0933366
0.0933366
0.0933366
0.0933366
0.0933366
0.0933366
0.0933366
0.0933366
0.0933366
0.0933366
0.0933366
0.0933366
0.0933366
0.0933366
0.0933366
0.0933366
0.0933366
0.0933366
0.0933366
0.0933366
0.0933366
0.0933366
0.0933366
0.0933366
0.0933366
0.0933366
0.0933366
0.0933366
0.0933366
0.0933366
0.0933366
0.0933366
0.0933366
0.0933366
0.0933366
0.0933366
0.0933366
0.0933366
0.0933366
0.0933366
0.0933366
0.0933366
0.0933366
0.0933366
0.0933366
0.141968
0.260681
0.372708
0.435357
0.475792
0.500753
0.516652
0.526051
0.532086
0.535412
0.537695
0.538807
0.538483
0.53907
0.540801
0.54032
0.538899
0.538389
0.537509
0.536339
0.536516
0.53647
0.535719
0.535514
0.53516
0.534493
0.534524
0.534452
0.534119
0.534332
0.534344
0.534093
0.534363
0.534389
0.534157
0.534407
0.534404
0.534191
0.534376
0.534385
0.534154
0.534254
0.534337
0.534082
0.534087
0.534223
0.534031
0.533883
0.534042
0.53401
0.533747
0.533737
0.533902
0.533784
0.533533
0.533546
0.533687
0.533581
0.533329
0.533239
0.533298
0.533289
0.533152
0.532971
0.532808
0.532678
0.532581
0.532505
0.532442
0.532387
0.53234
0.532293
0.532244
0.532196
0.532146
0.532091
0.532036
0.531978
0.531915
0.531852
0.531794
0.53174
0.531683
0.531623
0.531546
0.531502
0.531437
0.531337
0.531336
0.531187
0.531091
0.531186
0.530993
0.530901
0.531005
0.530734
0.530653
0.530912
0.530544
0.530332
0.530721
0.530422
0.530034
0.530419
0.530286
0.529888
0.530077
0.529961
0.529765
0.529929
0.529656
0.529306
0.529515
0.529491
0.529068
0.52904
0.528973
0.528537
0.528441
0.528642
0.528423
0.528151
0.528328
0.528389
0.528039
0.5279
0.528061
0.52802
0.527767
0.527653
0.527698
0.527673
0.527573
0.527535
0.527428
0.527471
0.527564
0.527423
0.527466
0.527493
0.527233
0.527259
0.527281
0.526847
0.526876
0.527052
0.526591
0.526511
0.526801
0.526433
0.526212
0.526415
0.526235
0.526129
0.526181
0.525846
0.525848
0.526106
0.525801
0.525661
0.525857
0.525661
0.525677
0.525934
0.525678
0.525573
0.525737
0.525434
0.52531
0.525478
0.525187
0.525067
0.525244
0.524962
0.524844
0.525027
0.524753
0.524635
0.524827
0.524561
0.52444
0.524638
0.524381
0.524262
0.524465
0.524216
0.524097
0.524308
0.524067
0.523947
0.524165
0.523932
0.523814
0.524037
0.523812
0.523696
0.523922
0.523711
0.523584
0.523827
0.523627
0.523483
0.523743
0.523517
0.523438
0.523642
0.523511
0.523264
0.523534
0.523593
0.523249
0.523437
0.523222
0.523586
0.523218
0.523277
0.523222
0.523387
0.523429
0.522966
0.523198
0.523168
0.523518
0.522982
0.523185
0.522986
0.523352
0.523124
0.5236
0.523405
0.523741
0.523533
0.52375
0.523564
0.523358
0.499275
0.374658
0.17937
0.0933366
0.0933366
0.0933366
)
;

boundaryField
{
    inlet
    {
        type            calculated;
        value           uniform 0;
    }
    outlet
    {
        type            calculated;
        value           uniform 0;
    }
    sideWall
    {
        type            empty;
    }
}


// ************************************************************************* //
