/*--------------------------------*- C++ -*----------------------------------*\
| =========                 |                                                 |
| \\      /  F ield         | foam-extend: Open Source CFD                    |
|  \\    /   O peration     | Version:     3.2                                |
|   \\  /    A nd           | Web:         http://www.foam-extend.org         |
|    \\/     M anipulation  | For copyright notice see file Copyright         |
\*---------------------------------------------------------------------------*/
FoamFile
{
    version     2.0;
    format      ascii;
    class       areaScalarField;
    location    "50";
    object      thetaSS2;
}
// * * * * * * * * * * * * * * * * * * * * * * * * * * * * * * * * * * * * * //

dimensions      [0 0 0 0 0 0 0];

internalField   nonuniform List<scalar> 
300
(
14.6457
9.34808
6.92501
6.95433
6.73403
6.73818
6.63361
6.62966
6.59194
6.60654
6.60952
6.63418
6.65839
6.69733
6.73362
6.77981
6.82676
6.87937
6.93161
6.98927
7.04978
7.11225
7.17648
7.24168
7.30789
7.37449
7.43638
7.49026
7.5359
7.57408
7.60608
7.63258
7.65482
7.67309
7.68854
7.70111
7.71192
7.72057
7.72829
7.73423
7.73991
7.74392
7.7483
7.75099
7.75446
7.75606
7.75892
7.75956
7.76284
7.76148
7.76693
7.76082
7.77257
7.75554
7.78449
7.7392
7.81389
7.7021
7.92421
7.46625
5.71887
5.55701
5.62012
5.59005
5.66743
5.64847
5.71007
5.69575
5.7311
5.71901
5.73141
5.7437
5.72988
5.71247
5.73287
5.73144
5.71893
5.72993
5.7308
5.71106
5.71673
5.71956
5.70837
5.71414
5.71649
5.70521
5.70992
5.71139
5.70195
5.70649
5.70834
5.69965
5.70481
5.7062
5.69889
5.704
5.70486
5.69972
5.70258
5.70584
5.70049
5.70158
5.70588
5.70234
5.70086
5.70563
5.70488
5.7015
5.70375
5.70671
5.70401
5.70218
5.70537
5.70708
5.70452
5.70336
5.70581
5.70719
5.70646
5.7056
5.70595
5.70719
5.70785
5.70835
5.70868
5.70892
5.70911
5.70927
5.70948
5.7096
5.70963
5.70979
5.71001
5.71018
5.71034
5.71048
5.71075
5.71093
5.71122
5.71134
5.71152
5.71177
5.71171
5.71266
5.71169
5.71269
5.71343
5.71105
5.7151
5.71374
5.71098
5.71623
5.71423
5.71085
5.71841
5.71501
5.70923
5.72014
5.71729
5.70834
5.72033
5.71972
5.7095
5.71943
5.71993
5.7125
5.72007
5.71874
5.71369
5.72125
5.7222
5.7147
5.71937
5.72361
5.71827
5.72013
5.72576
5.72218
5.71884
5.72481
5.72576
5.72007
5.72165
5.72635
5.72465
5.72186
5.72417
5.72587
5.7255
5.72394
5.72529
5.72569
5.72468
5.72751
5.72455
5.72432
5.72783
5.72402
5.72446
5.72966
5.72409
5.72479
5.73266
5.72545
5.72425
5.73396
5.72783
5.72361
5.7337
5.73037
5.72605
5.73294
5.72969
5.72811
5.73537
5.73001
5.72672
5.73546
5.73177
5.72854
5.73533
5.73087
5.72752
5.73568
5.73196
5.72873
5.73672
5.73315
5.72969
5.73767
5.73418
5.73056
5.73857
5.73516
5.7314
5.73944
5.73611
5.73219
5.74027
5.73706
5.73299
5.74105
5.73795
5.73376
5.74182
5.7388
5.73447
5.74251
5.73963
5.73512
5.74319
5.74035
5.73576
5.74383
5.74091
5.7366
5.74386
5.7423
5.73605
5.74535
5.74215
5.73765
5.74555
5.74094
5.74075
5.74087
5.74987
5.73241
5.74793
5.74106
5.74294
5.74541
5.73645
5.75018
5.73674
5.75232
5.73094
5.75141
5.73907
5.75034
5.73652
5.7455
5.74247
5.74699
5.74101
5.74496
5.74225
5.74097
5.74205
5.74127
5.74015
5.74585
5.73047
5.7461
5.77361
7.09558
8.89757
8.29103
7.61823
7.74105
)
;

boundaryField
{
    inlet
    {
        type            calculated;
        value           uniform 0;
    }
    outlet
    {
        type            calculated;
        value           uniform 0;
    }
    sideWall
    {
        type            empty;
    }
}


// ************************************************************************* //
