/*--------------------------------*- C++ -*----------------------------------*\
| =========                 |                                                 |
| \\      /  F ield         | foam-extend: Open Source CFD                    |
|  \\    /   O peration     | Version:     3.2                                |
|   \\  /    A nd           | Web:         http://www.foam-extend.org         |
|    \\/     M anipulation  | For copyright notice see file Copyright         |
\*---------------------------------------------------------------------------*/
FoamFile
{
    version     2.0;
    format      ascii;
    class       areaScalarField;
    location    "50";
    object      thetaC2B;
}
// * * * * * * * * * * * * * * * * * * * * * * * * * * * * * * * * * * * * * //

dimensions      [0 0 0 0 0 0 0];

internalField   nonuniform List<scalar> 
300
(
0.0319486
0.0319486
0.0319486
0.0319486
0.0319486
0.0319486
0.0319486
0.0319486
0.0319486
0.0319486
0.0319486
0.0319486
0.0319486
0.0319486
0.0319486
0.0319486
0.0319486
0.0319486
0.0319486
0.0319486
0.0319486
0.0319486
0.0319486
0.0319486
0.0319486
0.0319486
0.0319486
0.0319486
0.0319486
0.0319486
0.0319486
0.0319486
0.0319486
0.0319486
0.0319486
0.0319486
0.0319486
0.0319486
0.0319486
0.0319486
0.0319486
0.0319486
0.0319486
0.0319486
0.0319486
0.0319486
0.0319486
0.0319486
0.0319486
0.0319486
0.0319486
0.0319486
0.0319486
0.0319486
0.0319486
0.0319486
0.0319486
0.0319486
0.0319486
0.0499636
0.0927257
0.130062
0.15091
0.164082
0.172256
0.177335
0.180407
0.182309
0.183389
0.184139
0.18442
0.184295
0.184642
0.185128
0.184859
0.184433
0.184271
0.183899
0.183586
0.18367
0.183584
0.183358
0.183304
0.183135
0.18295
0.182976
0.182911
0.182833
0.182914
0.182878
0.182828
0.182925
0.182894
0.182851
0.182936
0.182903
0.182859
0.182924
0.1829
0.182837
0.182887
0.182886
0.182806
0.182828
0.182856
0.18278
0.182754
0.182806
0.182774
0.182691
0.182708
0.182752
0.182696
0.18262
0.18264
0.182678
0.182628
0.182547
0.182528
0.182547
0.182537
0.182486
0.182425
0.18237
0.182328
0.182296
0.18227
0.182249
0.182231
0.182215
0.182199
0.182182
0.182166
0.182148
0.182129
0.182111
0.18209
0.182069
0.182047
0.182028
0.182009
0.18199
0.181968
0.181942
0.18193
0.1819
0.181876
0.18187
0.181809
0.1818
0.181816
0.181742
0.181737
0.181751
0.181648
0.181664
0.181719
0.181571
0.181558
0.181664
0.181519
0.18145
0.18157
0.181478
0.18139
0.181447
0.18138
0.18135
0.181389
0.181268
0.181186
0.181264
0.181215
0.181091
0.181096
0.181042
0.180899
0.180899
0.180948
0.180854
0.180788
0.180858
0.180848
0.180729
0.180707
0.180757
0.180725
0.180642
0.180615
0.180631
0.180612
0.180586
0.180567
0.180532
0.180562
0.180574
0.180531
0.180559
0.180543
0.180462
0.180494
0.18046
0.180325
0.180372
0.180386
0.180227
0.18025
0.180309
0.180169
0.180137
0.180185
0.180112
0.180104
0.180092
0.17998
0.18002
0.180073
0.179958
0.17995
0.179991
0.179919
0.17996
0.180016
0.179919
0.179919
0.179946
0.179834
0.179829
0.179858
0.179749
0.179746
0.179779
0.179673
0.17967
0.179705
0.179601
0.179599
0.179637
0.179535
0.179532
0.179573
0.179473
0.179471
0.179515
0.179417
0.179415
0.179461
0.179366
0.179363
0.179413
0.17932
0.179318
0.17937
0.179279
0.179277
0.179332
0.179244
0.179238
0.179303
0.179211
0.179209
0.179266
0.179183
0.179184
0.179241
0.179176
0.179113
0.179234
0.179177
0.179142
0.179129
0.179139
0.179192
0.179099
0.179115
0.179088
0.179188
0.179111
0.179047
0.17905
0.179139
0.179135
0.179055
0.179037
0.17907
0.179091
0.179119
0.179187
0.179201
0.179243
0.17923
0.179256
0.179226
0.179094
0.168177
0.121748
0.0590038
0.0319486
0.0319486
0.0319486
)
;

boundaryField
{
    inlet
    {
        type            calculated;
        value           uniform 0;
    }
    outlet
    {
        type            calculated;
        value           uniform 0;
    }
    sideWall
    {
        type            empty;
    }
}


// ************************************************************************* //
