/*--------------------------------*- C++ -*----------------------------------*\
| =========                 |                                                 |
| \\      /  F ield         | foam-extend: Open Source CFD                    |
|  \\    /   O peration     | Version:     3.2                                |
|   \\  /    A nd           | Web:         http://www.foam-extend.org         |
|    \\/     M anipulation  | For copyright notice see file Copyright         |
\*---------------------------------------------------------------------------*/
FoamFile
{
    version     2.0;
    format      ascii;
    class       areaScalarField;
    location    "50";
    object      thetaSS1init;
}
// * * * * * * * * * * * * * * * * * * * * * * * * * * * * * * * * * * * * * //

dimensions      [0 0 0 0 0 0 0];

internalField   nonuniform List<scalar> 
300
(
22.1004
14.1064
10.4499
10.4941
10.1617
10.168
10.0102
10.0042
9.9473
9.96934
9.97383
10.011
10.0476
10.1063
10.1611
10.2308
10.3016
10.3811
10.4598
10.5469
10.6381
10.7325
10.8292
10.9277
11.0275
11.1281
11.2214
11.3028
11.3714
11.4292
11.4773
11.5175
11.5508
11.5786
11.6017
11.6209
11.637
11.6504
11.6616
11.6711
11.6791
11.6859
11.6917
11.6967
11.7011
11.7044
11.7077
11.7099
11.7127
11.7139
11.7168
11.7162
11.7213
11.7157
11.7281
11.7096
11.743
11.6901
11.7956
11.4497
10.59
10.5315
10.6317
10.5617
10.5917
10.5748
10.583
10.5791
10.5818
10.5811
10.5815
10.5818
10.5817
10.5823
10.5827
10.5821
10.5826
10.5831
10.5831
10.5827
10.5826
10.583
10.583
10.5832
10.5832
10.583
10.5828
10.5829
10.5827
10.5824
10.5826
10.5826
10.5825
10.5827
10.5832
10.5827
10.5819
10.5827
10.5829
10.5827
10.5828
10.5826
10.5825
10.5827
10.5827
10.5826
10.5825
10.582
10.5824
10.5825
10.5821
10.5827
10.5825
10.5826
10.5836
10.5836
10.5831
10.5831
10.583
10.5824
10.5824
10.583
10.5829
10.5826
10.583
10.5831
10.5832
10.5829
10.583
10.5837
10.5838
10.5836
10.583
10.5822
10.5821
10.582
10.5819
10.5824
10.5826
10.5827
10.5828
10.5827
10.5824
10.5823
10.5831
10.5831
10.5825
10.5828
10.5825
10.5829
10.5835
10.5825
10.5832
10.5837
10.5827
10.5828
10.5831
10.5831
10.5828
10.5826
10.5825
10.5819
10.5825
10.5835
10.5829
10.5832
10.5837
10.5834
10.5831
10.5824
10.5828
10.5834
10.5827
10.5832
10.5833
10.5823
10.583
10.5833
10.5822
10.5822
10.583
10.5831
10.5824
10.5825
10.5831
10.5829
10.5824
10.5828
10.5828
10.5823
10.5828
10.5829
10.5821
10.5821
10.5828
10.5828
10.5821
10.5824
10.5829
10.5825
10.5827
10.5828
10.5822
10.5826
10.5826
10.582
10.5824
10.5827
10.5822
10.5821
10.5821
10.582
10.5823
10.5823
10.5819
10.5822
10.5823
10.582
10.582
10.582
10.5819
10.582
10.5819
10.5817
10.5818
10.5819
10.5818
10.5818
10.5817
10.5816
10.5816
10.5815
10.5815
10.5815
10.5815
10.5815
10.5814
10.5813
10.5813
10.5813
10.5813
10.5813
10.5812
10.5812
10.5812
10.5812
10.5812
10.5812
10.5812
10.5812
10.5812
10.5812
10.5812
10.5812
10.5812
10.5812
10.5812
10.5812
10.5812
10.5812
10.5812
10.5812
10.5812
10.5812
10.5812
10.5812
10.5812
10.5812
10.5812
10.5812
10.5812
10.5812
10.5812
10.5812
10.5812
10.5812
10.5812
10.5812
10.5812
10.5813
10.5812
10.5813
10.5811
10.5814
10.5809
10.5819
10.5801
10.5832
10.5778
10.5873
10.5709
10.5988
10.5476
10.6464
10.4829
10.5595
11.6449
11.7745
11.6528
11.7314
)
;

boundaryField
{
    inlet
    {
        type            calculated;
        value           uniform 0;
    }
    outlet
    {
        type            calculated;
        value           uniform 0;
    }
    sideWall
    {
        type            empty;
    }
}


// ************************************************************************* //
