/*--------------------------------*- C++ -*----------------------------------*\
| =========                 |                                                 |
| \\      /  F ield         | foam-extend: Open Source CFD                    |
|  \\    /   O peration     | Version:     3.2                                |
|   \\  /    A nd           | Web:         http://www.foam-extend.org         |
|    \\/     M anipulation  | For copyright notice see file Copyright         |
\*---------------------------------------------------------------------------*/
FoamFile
{
    version     2.0;
    format      ascii;
    class       areaScalarField;
    location    "50";
    object      thetaCSS1;
}
// * * * * * * * * * * * * * * * * * * * * * * * * * * * * * * * * * * * * * //

dimensions      [0 0 0 0 0 0 0];

internalField   nonuniform List<scalar> 
300
(
0.0940675
0.0940675
0.0940675
0.0940675
0.0940675
0.0940675
0.0940675
0.0940675
0.0940675
0.0940675
0.0940675
0.0940675
0.0940675
0.0940675
0.0940675
0.0940675
0.0940675
0.0940675
0.0940675
0.0940675
0.0940675
0.0940675
0.0940675
0.0940675
0.0940675
0.0940675
0.0940675
0.0940675
0.0940675
0.0940675
0.0940675
0.0940675
0.0940675
0.0940675
0.0940675
0.0940675
0.0940675
0.0940675
0.0940675
0.0940675
0.0940675
0.0940675
0.0940675
0.0940675
0.0940675
0.0940675
0.0940675
0.0940675
0.0940675
0.0940675
0.0940675
0.0940675
0.0940675
0.0940675
0.0940675
0.0940675
0.0940675
0.0940675
0.0940675
0.14308
0.262722
0.375627
0.438766
0.479518
0.504674
0.520698
0.530171
0.536253
0.539605
0.541906
0.543027
0.5427
0.543291
0.545036
0.544551
0.543119
0.542605
0.541719
0.540539
0.540718
0.540672
0.539914
0.539708
0.539351
0.538679
0.53871
0.538637
0.538301
0.538516
0.538529
0.538276
0.538548
0.538574
0.53834
0.538592
0.538589
0.538375
0.538561
0.53857
0.538337
0.538438
0.538521
0.538264
0.53827
0.538406
0.538213
0.538064
0.538224
0.538192
0.537927
0.537917
0.538083
0.537964
0.537711
0.537724
0.537866
0.537759
0.537506
0.537414
0.537474
0.537465
0.537327
0.537144
0.53698
0.536849
0.536752
0.536675
0.536611
0.536556
0.536508
0.536462
0.536412
0.536364
0.536314
0.536258
0.536203
0.536144
0.536081
0.536017
0.535959
0.535904
0.535846
0.535786
0.535709
0.535664
0.535599
0.535498
0.535497
0.535347
0.53525
0.535345
0.535151
0.535058
0.535163
0.53489
0.534808
0.53507
0.534699
0.534485
0.534877
0.534575
0.534185
0.534573
0.534439
0.534038
0.534229
0.534111
0.533914
0.534079
0.533803
0.533451
0.533662
0.533637
0.533211
0.533183
0.533116
0.532676
0.532579
0.532782
0.532562
0.532287
0.532466
0.532527
0.532174
0.532034
0.532196
0.532155
0.531901
0.531785
0.531831
0.531805
0.531704
0.531667
0.531559
0.531601
0.531696
0.531553
0.531597
0.531624
0.531361
0.531388
0.53141
0.530972
0.531002
0.53118
0.530714
0.530634
0.530927
0.530556
0.530333
0.530538
0.530356
0.530249
0.530302
0.529964
0.529966
0.530226
0.529919
0.529778
0.529975
0.529777
0.529793
0.530053
0.529795
0.529689
0.529854
0.529548
0.529424
0.529593
0.5293
0.529178
0.529357
0.529073
0.528954
0.529139
0.528862
0.528744
0.528937
0.528669
0.528547
0.528747
0.528488
0.528368
0.528572
0.528321
0.528202
0.528414
0.528171
0.528051
0.528269
0.528035
0.527916
0.528141
0.527914
0.527797
0.528025
0.527812
0.527684
0.52793
0.527727
0.527582
0.527844
0.527617
0.527537
0.527743
0.527611
0.527362
0.527634
0.527693
0.527347
0.527536
0.52732
0.527687
0.527315
0.527375
0.527319
0.527485
0.527528
0.527061
0.527296
0.527265
0.527618
0.527077
0.527282
0.527082
0.52745
0.52722
0.527701
0.527504
0.527842
0.527633
0.527851
0.527664
0.527456
0.503185
0.377592
0.180774
0.0940675
0.0940675
0.0940675
)
;

boundaryField
{
    inlet
    {
        type            calculated;
        value           uniform 0;
    }
    outlet
    {
        type            calculated;
        value           uniform 0;
    }
    sideWall
    {
        type            empty;
    }
}


// ************************************************************************* //
