/*--------------------------------*- C++ -*----------------------------------*\
| =========                 |                                                 |
| \\      /  F ield         | foam-extend: Open Source CFD                    |
|  \\    /   O peration     | Version:     3.2                                |
|   \\  /    A nd           | Web:         http://www.foam-extend.org         |
|    \\/     M anipulation  | For copyright notice see file Copyright         |
\*---------------------------------------------------------------------------*/
FoamFile
{
    version     2.0;
    format      ascii;
    class       areaScalarField;
    location    "50";
    object      thetaBinit;
}
// * * * * * * * * * * * * * * * * * * * * * * * * * * * * * * * * * * * * * //

dimensions      [0 0 0 0 0 0 0];

internalField   nonuniform List<scalar> 
300
(
0.632253
0.403559
0.298952
0.300219
0.290708
0.290888
0.286374
0.286204
0.284575
0.285205
0.285334
0.286398
0.287443
0.289125
0.29069
0.292687
0.29471
0.296984
0.299236
0.301728
0.304338
0.307037
0.309806
0.312623
0.315477
0.318357
0.321023
0.323352
0.325317
0.32697
0.328345
0.329495
0.330449
0.331244
0.331904
0.332455
0.332913
0.333297
0.333619
0.33389
0.334119
0.334312
0.33448
0.334621
0.334747
0.334842
0.334938
0.335
0.335081
0.335113
0.335196
0.335179
0.335327
0.335167
0.335519
0.334991
0.335947
0.334433
0.337452
0.327556
0.302962
0.301287
0.304154
0.302152
0.303011
0.302527
0.30276
0.302648
0.302728
0.302706
0.302719
0.302727
0.302725
0.302741
0.302753
0.302736
0.302749
0.302765
0.302763
0.302752
0.302751
0.30276
0.302761
0.302766
0.302767
0.302762
0.302755
0.302758
0.302753
0.302745
0.302749
0.30275
0.302748
0.302753
0.302766
0.302753
0.30273
0.302752
0.302759
0.302753
0.302756
0.302751
0.302746
0.302751
0.302752
0.302749
0.302746
0.302731
0.302745
0.302747
0.302736
0.302753
0.302747
0.302748
0.302778
0.302779
0.302764
0.302763
0.302761
0.302744
0.302743
0.30276
0.302758
0.30275
0.302761
0.302764
0.302767
0.302759
0.30276
0.302782
0.302785
0.302778
0.302761
0.302737
0.302734
0.302732
0.30273
0.302744
0.302749
0.302754
0.302754
0.302751
0.302743
0.30274
0.302763
0.302763
0.302746
0.302754
0.302748
0.302759
0.302776
0.302748
0.302766
0.302782
0.302753
0.302754
0.302765
0.302764
0.302756
0.302751
0.302748
0.302729
0.302747
0.302774
0.302757
0.302767
0.302781
0.302774
0.302764
0.302744
0.302755
0.302773
0.302753
0.302766
0.302768
0.302742
0.30276
0.302769
0.302738
0.302738
0.30276
0.302763
0.302745
0.302746
0.302765
0.302758
0.302743
0.302754
0.302755
0.30274
0.302755
0.302758
0.302736
0.302734
0.302754
0.302755
0.302735
0.302744
0.302757
0.302745
0.302753
0.302755
0.30274
0.30275
0.302751
0.302733
0.302745
0.302752
0.302738
0.302735
0.302735
0.302733
0.30274
0.302741
0.302731
0.302737
0.302741
0.302734
0.302734
0.302733
0.302729
0.302731
0.30273
0.302725
0.302728
0.30273
0.302727
0.302726
0.302724
0.302721
0.30272
0.302719
0.302717
0.302717
0.302717
0.302717
0.302715
0.302714
0.302712
0.302712
0.302711
0.302711
0.302711
0.302711
0.302711
0.302711
0.302711
0.302711
0.302711
0.302711
0.302711
0.302711
0.302711
0.302711
0.302711
0.302711
0.302711
0.302711
0.302711
0.302711
0.302711
0.302711
0.302711
0.302711
0.302711
0.302711
0.302711
0.302711
0.302711
0.302711
0.302711
0.302711
0.302711
0.302711
0.302711
0.302711
0.302711
0.302711
0.302711
0.302711
0.30271
0.302712
0.302708
0.302716
0.302701
0.302729
0.302679
0.302768
0.302611
0.302883
0.302416
0.303214
0.301749
0.304574
0.299897
0.302089
0.333139
0.336849
0.333366
0.335614
)
;

boundaryField
{
    inlet
    {
        type            calculated;
        value           uniform 0;
    }
    outlet
    {
        type            calculated;
        value           uniform 0;
    }
    sideWall
    {
        type            empty;
    }
}


// ************************************************************************* //
