/*--------------------------------*- C++ -*----------------------------------*\
| =========                 |                                                 |
| \\      /  F ield         | foam-extend: Open Source CFD                    |
|  \\    /   O peration     | Version:     3.2                                |
|   \\  /    A nd           | Web:         http://www.foam-extend.org         |
|    \\/     M anipulation  | For copyright notice see file Copyright         |
\*---------------------------------------------------------------------------*/
FoamFile
{
    version     2.0;
    format      ascii;
    class       areaScalarField;
    location    "50";
    object      totH1;
}
// * * * * * * * * * * * * * * * * * * * * * * * * * * * * * * * * * * * * * //

dimensions      [0 0 0 0 0 0 0];

internalField   nonuniform List<scalar> 
300
(
0
0
0
0
0
0
0
0
0
0
0
0
0
0
0
0
0
0
0
0
0
0
0
0
0
0
0
0
0
0
0
0
0
0
0
0
0
0
0
0
0
0
0
0
0
0
0
0
0
0
0
0
0
0
0
0
0
0
0
-0.000436763
-0.00147373
-0.0023797
-0.00288614
-0.00320617
-0.00340476
-0.00352816
-0.00360277
-0.00364896
-0.00367518
-0.00369337
-0.00370012
-0.00369715
-0.00370568
-0.00371742
-0.00371077
-0.00370047
-0.00369654
-0.00368747
-0.00367992
-0.00368199
-0.00367984
-0.00367436
-0.00367305
-0.00366891
-0.00366445
-0.00366508
-0.00366348
-0.00366161
-0.00366357
-0.00366268
-0.00366148
-0.00366384
-0.00366306
-0.00366203
-0.00366409
-0.00366328
-0.00366221
-0.0036638
-0.0036632
-0.00366168
-0.0036629
-0.00366284
-0.00366092
-0.00366147
-0.00366213
-0.00366027
-0.00365964
-0.00366091
-0.0036601
-0.00365811
-0.00365853
-0.00365959
-0.0036582
-0.00365639
-0.00365689
-0.00365779
-0.00365656
-0.0036546
-0.00365414
-0.00365461
-0.00365434
-0.00365311
-0.00365162
-0.0036503
-0.00364926
-0.00364848
-0.00364787
-0.00364735
-0.0036469
-0.00364651
-0.00364612
-0.00364571
-0.00364532
-0.00364489
-0.00364443
-0.00364397
-0.00364348
-0.00364295
-0.00364243
-0.00364196
-0.00364149
-0.00364103
-0.00364049
-0.00363986
-0.00363957
-0.00363883
-0.00363825
-0.0036381
-0.00363663
-0.00363641
-0.00363678
-0.00363498
-0.00363487
-0.00363521
-0.00363268
-0.0036331
-0.00363442
-0.0036308
-0.00363051
-0.00363308
-0.00362953
-0.00362789
-0.00363081
-0.00362853
-0.0036264
-0.00362779
-0.00362616
-0.00362543
-0.00362637
-0.00362342
-0.00362146
-0.00362335
-0.00362211
-0.00361911
-0.00361924
-0.00361791
-0.00361444
-0.00361447
-0.00361565
-0.00361333
-0.00361176
-0.00361347
-0.00361319
-0.0036103
-0.00360978
-0.00361099
-0.0036102
-0.00360819
-0.00360753
-0.00360792
-0.00360745
-0.00360682
-0.00360635
-0.00360552
-0.00360625
-0.00360652
-0.00360548
-0.00360618
-0.00360576
-0.00360379
-0.00360457
-0.00360374
-0.00360044
-0.00360162
-0.00360192
-0.00359807
-0.00359866
-0.00360007
-0.00359664
-0.00359589
-0.00359704
-0.00359527
-0.00359509
-0.00359478
-0.00359206
-0.00359305
-0.00359431
-0.00359151
-0.00359133
-0.00359232
-0.00359056
-0.00359159
-0.00359293
-0.00359055
-0.00359058
-0.00359121
-0.00358848
-0.00358839
-0.00358908
-0.00358643
-0.00358637
-0.00358715
-0.00358456
-0.00358452
-0.00358536
-0.00358282
-0.00358279
-0.00358372
-0.00358122
-0.00358117
-0.00358216
-0.00357973
-0.00357969
-0.00358074
-0.00357835
-0.00357833
-0.00357945
-0.00357711
-0.00357709
-0.00357828
-0.00357599
-0.00357598
-0.00357723
-0.00357501
-0.00357499
-0.0035763
-0.00357416
-0.00357405
-0.0035756
-0.00357335
-0.00357335
-0.00357471
-0.00357269
-0.00357274
-0.00357412
-0.00357251
-0.003571
-0.00357395
-0.00357254
-0.00357171
-0.0035714
-0.00357166
-0.00357291
-0.00357064
-0.00357106
-0.00357041
-0.00357282
-0.00357093
-0.00356939
-0.0035695
-0.00357166
-0.00357152
-0.00356958
-0.00356917
-0.00356997
-0.00357048
-0.00357115
-0.0035728
-0.00357314
-0.00357415
-0.00357385
-0.00357448
-0.00357374
-0.00357057
-0.00330545
-0.00217858
-0.000656278
0
0
0
)
;

boundaryField
{
    inlet
    {
        type            calculated;
        value           uniform 0;
    }
    outlet
    {
        type            calculated;
        value           uniform 0;
    }
    sideWall
    {
        type            empty;
    }
}


// ************************************************************************* //
