/*--------------------------------*- C++ -*----------------------------------*\
| =========                 |                                                 |
| \\      /  F ield         | foam-extend: Open Source CFD                    |
|  \\    /   O peration     | Version:     3.2                                |
|   \\  /    A nd           | Web:         http://www.foam-extend.org         |
|    \\/     M anipulation  | For copyright notice see file Copyright         |
\*---------------------------------------------------------------------------*/
FoamFile
{
    version     2.0;
    format      ascii;
    class       areaScalarField;
    location    "50";
    object      totH;
}
// * * * * * * * * * * * * * * * * * * * * * * * * * * * * * * * * * * * * * //

dimensions      [0 0 0 0 0 0 0];

internalField   nonuniform List<scalar> 
300
(
0
0
0
0
0
0
0
0
0
0
0
0
0
0
0
0
0
0
0
0
0
0
0
0
0
0
0
0
0
0
0
0
0
0
0
0
0
0
0
0
0
0
0
0
0
0
0
0
0
0
0
0
0
0
0
0
0
0
0
-0.000437942
-0.00147748
-0.00238512
-0.00289194
-0.00321214
-0.00341084
-0.00353432
-0.003609
-0.00365524
-0.00368148
-0.00369973
-0.00370657
-0.00370353
-0.00371195
-0.00372377
-0.00371722
-0.00370688
-0.00370295
-0.0036939
-0.00368628
-0.00368832
-0.00368623
-0.00368075
-0.00367943
-0.00367532
-0.00367083
-0.00367145
-0.00366988
-0.00366798
-0.00366995
-0.00366908
-0.00366787
-0.00367022
-0.00366947
-0.00366842
-0.00367048
-0.00366969
-0.00366861
-0.0036702
-0.00366962
-0.00366808
-0.00366929
-0.00366926
-0.00366733
-0.00366786
-0.00366854
-0.0036667
-0.00366605
-0.00366732
-0.00366653
-0.00366453
-0.00366493
-0.00366601
-0.00366464
-0.00366281
-0.00366329
-0.00366421
-0.00366299
-0.00366103
-0.00366056
-0.00366103
-0.00366078
-0.00365955
-0.00365805
-0.00365673
-0.0036557
-0.00365492
-0.0036543
-0.00365379
-0.00365334
-0.00365295
-0.00365256
-0.00365215
-0.00365176
-0.00365133
-0.00365087
-0.00365042
-0.00364992
-0.0036494
-0.00364888
-0.00364841
-0.00364794
-0.00364748
-0.00364695
-0.00364632
-0.00364603
-0.00364529
-0.00364471
-0.00364457
-0.0036431
-0.00364287
-0.00364325
-0.00364146
-0.00364134
-0.00364169
-0.00363916
-0.00363956
-0.0036409
-0.0036373
-0.00363697
-0.00363957
-0.00363604
-0.00363436
-0.00363728
-0.00363504
-0.00363289
-0.00363428
-0.00363267
-0.00363192
-0.00363287
-0.00362994
-0.00362794
-0.00362984
-0.00362863
-0.00362562
-0.00362574
-0.00362444
-0.00362096
-0.00362096
-0.00362216
-0.00361986
-0.00361827
-0.00361997
-0.00361972
-0.00361684
-0.00361629
-0.00361751
-0.00361674
-0.00361473
-0.00361405
-0.00361444
-0.00361398
-0.00361335
-0.00361289
-0.00361205
-0.00361278
-0.00361306
-0.00361202
-0.00361271
-0.00361231
-0.00361034
-0.00361111
-0.0036103
-0.003607
-0.00360815
-0.00360849
-0.00360463
-0.00360519
-0.00360663
-0.00360322
-0.00360244
-0.0036036
-0.00360183
-0.00360165
-0.00360136
-0.00359863
-0.00359959
-0.00360088
-0.00359809
-0.00359788
-0.00359888
-0.00359713
-0.00359814
-0.0035995
-0.00359713
-0.00359714
-0.00359779
-0.00359506
-0.00359495
-0.00359566
-0.00359301
-0.00359293
-0.00359372
-0.00359115
-0.00359108
-0.00359194
-0.0035894
-0.00358935
-0.00359029
-0.0035878
-0.00358773
-0.00358873
-0.00358631
-0.00358625
-0.00358731
-0.00358493
-0.00358488
-0.00358601
-0.00358369
-0.00358364
-0.00358484
-0.00358257
-0.00358253
-0.00358379
-0.00358158
-0.00358154
-0.00358286
-0.00358073
-0.00358059
-0.00358215
-0.00357992
-0.00357989
-0.00358126
-0.00357925
-0.00357927
-0.00358066
-0.00357907
-0.00357753
-0.00358048
-0.00357909
-0.00357826
-0.00357794
-0.00357819
-0.00357946
-0.00357719
-0.00357761
-0.00357694
-0.00357936
-0.0035775
-0.00357594
-0.00357603
-0.00357818
-0.00357807
-0.00357614
-0.00357571
-0.00357651
-0.00357702
-0.0035777
-0.00357935
-0.00357969
-0.0035807
-0.0035804
-0.00358102
-0.00358029
-0.00357709
-0.00331168
-0.00218301
-0.000657708
0
0
0
)
;

boundaryField
{
    inlet
    {
        type            calculated;
        value           uniform 0;
    }
    outlet
    {
        type            calculated;
        value           uniform 0;
    }
    sideWall
    {
        type            empty;
    }
}


// ************************************************************************* //
