/*--------------------------------*- C++ -*----------------------------------*\
| =========                 |                                                 |
| \\      /  F ield         | foam-extend: Open Source CFD                    |
|  \\    /   O peration     | Version:     3.2                                |
|   \\  /    A nd           | Web:         http://www.foam-extend.org         |
|    \\/     M anipulation  | For copyright notice see file Copyright         |
\*---------------------------------------------------------------------------*/
FoamFile
{
    version     2.0;
    format      ascii;
    class       areaScalarField;
    location    "50";
    object      tVol;
}
// * * * * * * * * * * * * * * * * * * * * * * * * * * * * * * * * * * * * * //

dimensions      [0 3 0 0 0 0 0];

internalField   nonuniform List<scalar> 
300
(
6.99009e-06
6.99009e-06
6.99009e-06
6.99009e-06
6.99009e-06
6.99009e-06
6.99009e-06
6.99009e-06
6.99009e-06
6.99009e-06
6.99009e-06
6.99009e-06
6.99009e-06
6.99009e-06
6.99009e-06
6.99009e-06
6.99009e-06
6.99009e-06
6.99009e-06
6.99009e-06
6.99009e-06
6.99009e-06
6.99009e-06
6.99009e-06
6.99009e-06
6.99009e-06
6.99009e-06
6.99009e-06
6.99009e-06
6.99009e-06
6.99009e-06
6.99009e-06
6.99009e-06
6.99009e-06
6.99009e-06
6.99009e-06
6.99009e-06
6.99009e-06
6.99009e-06
6.99009e-06
6.99009e-06
6.99009e-06
6.99009e-06
6.99009e-06
6.99009e-06
6.99009e-06
6.99009e-06
6.99009e-06
6.99009e-06
6.99009e-06
6.99009e-06
6.99009e-06
6.99009e-06
6.99009e-06
6.99009e-06
6.99009e-06
6.99009e-06
6.99009e-06
6.99009e-06
6.55372e-06
5.51485e-06
4.60557e-06
4.09841e-06
3.77804e-06
3.57928e-06
3.45576e-06
3.38107e-06
3.33482e-06
3.30857e-06
3.29032e-06
3.28347e-06
3.28651e-06
3.2781e-06
3.26627e-06
3.27281e-06
3.28315e-06
3.28709e-06
3.29613e-06
3.30376e-06
3.30172e-06
3.30381e-06
3.30929e-06
3.31061e-06
3.31472e-06
3.31921e-06
3.31859e-06
3.32016e-06
3.32206e-06
3.32009e-06
3.32096e-06
3.32218e-06
3.31982e-06
3.32057e-06
3.32162e-06
3.31956e-06
3.32035e-06
3.32143e-06
3.31984e-06
3.32042e-06
3.32196e-06
3.32075e-06
3.32078e-06
3.32271e-06
3.32218e-06
3.3215e-06
3.32334e-06
3.32399e-06
3.32272e-06
3.32351e-06
3.32551e-06
3.32511e-06
3.32403e-06
3.3254e-06
3.32723e-06
3.32675e-06
3.32583e-06
3.32705e-06
3.32901e-06
3.32948e-06
3.32901e-06
3.32927e-06
3.33049e-06
3.33199e-06
3.33331e-06
3.33434e-06
3.33512e-06
3.33574e-06
3.33626e-06
3.3367e-06
3.33709e-06
3.33748e-06
3.33789e-06
3.33828e-06
3.33871e-06
3.33917e-06
3.33962e-06
3.34012e-06
3.34064e-06
3.34116e-06
3.34163e-06
3.3421e-06
3.34256e-06
3.34309e-06
3.34372e-06
3.34401e-06
3.34475e-06
3.34534e-06
3.34548e-06
3.34694e-06
3.34717e-06
3.34679e-06
3.34858e-06
3.34871e-06
3.34835e-06
3.35088e-06
3.35048e-06
3.34914e-06
3.35274e-06
3.35307e-06
3.35047e-06
3.354e-06
3.35568e-06
3.35276e-06
3.355e-06
3.35715e-06
3.35576e-06
3.35737e-06
3.35813e-06
3.35717e-06
3.3601e-06
3.3621e-06
3.36021e-06
3.36141e-06
3.36442e-06
3.3643e-06
3.3656e-06
3.36908e-06
3.36908e-06
3.36788e-06
3.37018e-06
3.37177e-06
3.37008e-06
3.37032e-06
3.3732e-06
3.37376e-06
3.37254e-06
3.3733e-06
3.37532e-06
3.37599e-06
3.3756e-06
3.37606e-06
3.37669e-06
3.37715e-06
3.37799e-06
3.37726e-06
3.37699e-06
3.37802e-06
3.37733e-06
3.37773e-06
3.37971e-06
3.37893e-06
3.37974e-06
3.38304e-06
3.38189e-06
3.38155e-06
3.38541e-06
3.38485e-06
3.38342e-06
3.38682e-06
3.3876e-06
3.38644e-06
3.38821e-06
3.3884e-06
3.38868e-06
3.39141e-06
3.39045e-06
3.38916e-06
3.39195e-06
3.39216e-06
3.39116e-06
3.39291e-06
3.39191e-06
3.39054e-06
3.39291e-06
3.3929e-06
3.39225e-06
3.39498e-06
3.39509e-06
3.39438e-06
3.39703e-06
3.39711e-06
3.39632e-06
3.39889e-06
3.39896e-06
3.3981e-06
3.40064e-06
3.40069e-06
3.39975e-06
3.40224e-06
3.40231e-06
3.40131e-06
3.40373e-06
3.4038e-06
3.40273e-06
3.40511e-06
3.40516e-06
3.40403e-06
3.40636e-06
3.40641e-06
3.4052e-06
3.40748e-06
3.40751e-06
3.40625e-06
3.40846e-06
3.40851e-06
3.40718e-06
3.40932e-06
3.40945e-06
3.40789e-06
3.41013e-06
3.41016e-06
3.40878e-06
3.41079e-06
3.41077e-06
3.40938e-06
3.41097e-06
3.41251e-06
3.40956e-06
3.41095e-06
3.41179e-06
3.4121e-06
3.41186e-06
3.41058e-06
3.41285e-06
3.41244e-06
3.41311e-06
3.41069e-06
3.41254e-06
3.41411e-06
3.41401e-06
3.41186e-06
3.41197e-06
3.41391e-06
3.41433e-06
3.41354e-06
3.41302e-06
3.41235e-06
3.41069e-06
3.41036e-06
3.40934e-06
3.40964e-06
3.40902e-06
3.40976e-06
3.41295e-06
3.67837e-06
4.80911e-06
6.33373e-06
6.99009e-06
6.99009e-06
6.99009e-06
)
;

boundaryField
{
    inlet
    {
        type            calculated;
        value           uniform 0;
    }
    outlet
    {
        type            calculated;
        value           uniform 0;
    }
    sideWall
    {
        type            empty;
    }
}


// ************************************************************************* //
