/*--------------------------------*- C++ -*----------------------------------*\
| =========                 |                                                 |
| \\      /  F ield         | foam-extend: Open Source CFD                    |
|  \\    /   O peration     | Version:     3.2                                |
|   \\  /    A nd           | Web:         http://www.foam-extend.org         |
|    \\/     M anipulation  | For copyright notice see file Copyright         |
\*---------------------------------------------------------------------------*/
FoamFile
{
    version     2.0;
    format      ascii;
    class       areaScalarField;
    location    "50";
    object      tVolC;
}
// * * * * * * * * * * * * * * * * * * * * * * * * * * * * * * * * * * * * * //

dimensions      [0 3 0 0 0 0 0];

internalField   nonuniform List<scalar> 
300
(
0
0
0
0
0
0
0
0
0
0
0
0
0
0
0
0
0
0
0
0
0
0
0
0
0
0
0
0
0
0
0
0
0
0
0
0
0
0
0
0
0
0
0
0
0
0
0
0
0
0
0
0
0
0
0
0
0
0
0
0
3.89051e-06
3.0361e-06
2.51055e-06
2.21216e-06
1.99904e-06
1.89143e-06
1.80628e-06
1.77029e-06
1.73683e-06
1.72675e-06
1.72043e-06
1.71515e-06
1.71698e-06
1.71063e-06
1.71129e-06
1.71576e-06
1.72188e-06
1.72323e-06
1.72947e-06
1.73307e-06
1.73348e-06
1.73668e-06
1.74076e-06
1.74161e-06
1.74472e-06
1.74737e-06
1.74741e-06
1.74901e-06
1.75052e-06
1.74997e-06
1.75102e-06
1.7521e-06
1.75113e-06
1.75221e-06
1.7528e-06
1.75203e-06
1.75302e-06
1.75328e-06
1.75315e-06
1.75335e-06
1.75439e-06
1.75375e-06
1.75436e-06
1.75491e-06
1.7551e-06
1.75492e-06
1.75596e-06
1.75609e-06
1.75609e-06
1.75649e-06
1.75752e-06
1.75716e-06
1.75752e-06
1.75803e-06
1.75881e-06
1.75846e-06
1.75883e-06
1.75946e-06
1.76031e-06
1.7602e-06
1.76049e-06
1.76081e-06
1.76171e-06
1.76224e-06
1.76308e-06
1.76346e-06
1.76413e-06
1.76442e-06
1.76503e-06
1.76526e-06
1.76581e-06
1.76605e-06
1.76662e-06
1.76687e-06
1.76746e-06
1.76774e-06
1.76835e-06
1.76868e-06
1.76929e-06
1.76962e-06
1.77023e-06
1.77049e-06
1.77122e-06
1.77136e-06
1.77234e-06
1.7724e-06
1.77313e-06
1.77385e-06
1.77387e-06
1.77502e-06
1.7753e-06
1.77543e-06
1.77655e-06
1.77709e-06
1.77684e-06
1.77846e-06
1.77863e-06
1.77833e-06
1.78021e-06
1.78063e-06
1.7798e-06
1.78192e-06
1.78264e-06
1.78157e-06
1.78345e-06
1.78433e-06
1.78366e-06
1.78514e-06
1.78555e-06
1.78579e-06
1.78694e-06
1.78816e-06
1.78734e-06
1.78882e-06
1.79008e-06
1.79051e-06
1.79117e-06
1.79297e-06
1.79295e-06
1.79323e-06
1.79438e-06
1.79531e-06
1.79483e-06
1.79596e-06
1.79705e-06
1.79757e-06
1.79747e-06
1.79882e-06
1.7995e-06
1.80035e-06
1.80034e-06
1.80136e-06
1.80201e-06
1.80235e-06
1.80336e-06
1.80332e-06
1.80372e-06
1.8047e-06
1.80493e-06
1.80524e-06
1.80691e-06
1.80685e-06
1.80751e-06
1.80937e-06
1.80919e-06
1.80946e-06
1.81168e-06
1.81141e-06
1.81151e-06
1.81356e-06
1.81391e-06
1.81367e-06
1.81543e-06
1.81582e-06
1.81613e-06
1.81777e-06
1.81772e-06
1.81768e-06
1.8196e-06
1.81978e-06
1.81958e-06
1.82099e-06
1.82089e-06
1.8207e-06
1.82241e-06
1.8226e-06
1.82259e-06
1.82435e-06
1.82455e-06
1.82449e-06
1.8262e-06
1.82638e-06
1.82626e-06
1.82793e-06
1.82809e-06
1.82792e-06
1.82955e-06
1.82969e-06
1.82946e-06
1.83106e-06
1.83118e-06
1.83089e-06
1.83244e-06
1.83254e-06
1.8322e-06
1.8337e-06
1.83378e-06
1.83338e-06
1.83484e-06
1.83491e-06
1.83444e-06
1.83586e-06
1.83591e-06
1.83536e-06
1.83682e-06
1.83668e-06
1.83639e-06
1.8373e-06
1.83786e-06
1.83665e-06
1.83843e-06
1.83822e-06
1.83733e-06
1.83956e-06
1.83744e-06
1.84026e-06
1.8365e-06
1.84301e-06
1.83484e-06
1.843e-06
1.837e-06
1.84143e-06
1.83935e-06
1.83838e-06
1.84411e-06
1.83405e-06
1.84856e-06
1.83082e-06
1.85116e-06
1.83014e-06
1.85243e-06
1.8288e-06
1.85311e-06
1.82941e-06
1.8539e-06
1.82886e-06
1.85597e-06
1.8307e-06
1.85271e-06
1.83263e-06
1.84668e-06
1.83962e-06
1.83882e-06
1.8494e-06
2.00354e-06
3.15519e-06
0
0
0
0
)
;

boundaryField
{
    inlet
    {
        type            calculated;
        value           uniform 0;
    }
    outlet
    {
        type            calculated;
        value           uniform 0;
    }
    sideWall
    {
        type            empty;
    }
}


// ************************************************************************* //
