/*--------------------------------*- C++ -*----------------------------------*\
| =========                 |                                                 |
| \\      /  F ield         | foam-extend: Open Source CFD                    |
|  \\    /   O peration     | Version:     3.2                                |
|   \\  /    A nd           | Web:         http://www.foam-extend.org         |
|    \\/     M anipulation  | For copyright notice see file Copyright         |
\*---------------------------------------------------------------------------*/
FoamFile
{
    version     2.0;
    format      ascii;
    class       areaScalarField;
    location    "50";
    object      tVolA;
}
// * * * * * * * * * * * * * * * * * * * * * * * * * * * * * * * * * * * * * //

dimensions      [0 3 0 0 0 0 0];

internalField   nonuniform List<scalar> 
300
(
0
0
0
0
0
0
0
0
0
0
0
0
0
0
0
0
0
0
0
0
0
0
0
0
0
0
0
0
0
0
0
0
0
0
0
0
0
0
0
0
0
0
0
0
0
0
0
0
0
0
0
0
0
0
0
0
0
0
0
0
1.61962e-06
1.5639e-06
1.58202e-06
1.55989e-06
1.57414e-06
1.55815e-06
1.56856e-06
1.55825e-06
1.56542e-06
1.55726e-06
1.55651e-06
1.56493e-06
1.55497e-06
1.5493e-06
1.55496e-06
1.56105e-06
1.55884e-06
1.56639e-06
1.56797e-06
1.56237e-06
1.56386e-06
1.56624e-06
1.5635e-06
1.56664e-06
1.56813e-06
1.56488e-06
1.56631e-06
1.56669e-06
1.56322e-06
1.56454e-06
1.56479e-06
1.56136e-06
1.563e-06
1.56305e-06
1.56039e-06
1.56187e-06
1.56204e-06
1.56019e-06
1.56083e-06
1.56222e-06
1.56e-06
1.56059e-06
1.56193e-06
1.5609e-06
1.55998e-06
1.56198e-06
1.56164e-06
1.56023e-06
1.56097e-06
1.56259e-06
1.56121e-06
1.56046e-06
1.56143e-06
1.56278e-06
1.56155e-06
1.56095e-06
1.56176e-06
1.56312e-06
1.56276e-06
1.5624e-06
1.56234e-06
1.56324e-06
1.56384e-06
1.56463e-06
1.56483e-06
1.56522e-06
1.56517e-06
1.5654e-06
1.56524e-06
1.56539e-06
1.56523e-06
1.5654e-06
1.56522e-06
1.5654e-06
1.56526e-06
1.56544e-06
1.56532e-06
1.56551e-06
1.56542e-06
1.56556e-06
1.56542e-06
1.56562e-06
1.56541e-06
1.5659e-06
1.56521e-06
1.56588e-06
1.56575e-06
1.56516e-06
1.56659e-06
1.56572e-06
1.56501e-06
1.56666e-06
1.56572e-06
1.56477e-06
1.56752e-06
1.56561e-06
1.56402e-06
1.56787e-06
1.56646e-06
1.56337e-06
1.56762e-06
1.56734e-06
1.56366e-06
1.56686e-06
1.56725e-06
1.56496e-06
1.56717e-06
1.56653e-06
1.56513e-06
1.56775e-06
1.56869e-06
1.56558e-06
1.56751e-06
1.56909e-06
1.56775e-06
1.56854e-06
1.57137e-06
1.56965e-06
1.56842e-06
1.57039e-06
1.5709e-06
1.56829e-06
1.56894e-06
1.5707e-06
1.57022e-06
1.56846e-06
1.56928e-06
1.56996e-06
1.56998e-06
1.56873e-06
1.56918e-06
1.5688e-06
1.5686e-06
1.56911e-06
1.56739e-06
1.56711e-06
1.56776e-06
1.56612e-06
1.56623e-06
1.56791e-06
1.56552e-06
1.5663e-06
1.56896e-06
1.56605e-06
1.56577e-06
1.56935e-06
1.5667e-06
1.56543e-06
1.5687e-06
1.56754e-06
1.56597e-06
1.56795e-06
1.56644e-06
1.56627e-06
1.56869e-06
1.56619e-06
1.56486e-06
1.56765e-06
1.56604e-06
1.5648e-06
1.56675e-06
1.56441e-06
1.56307e-06
1.5656e-06
1.56397e-06
1.56306e-06
1.56578e-06
1.56422e-06
1.56325e-06
1.56593e-06
1.56439e-06
1.56335e-06
1.56602e-06
1.56451e-06
1.56342e-06
1.5661e-06
1.56462e-06
1.56348e-06
1.56617e-06
1.56474e-06
1.56355e-06
1.56623e-06
1.56484e-06
1.56361e-06
1.5663e-06
1.56495e-06
1.56367e-06
1.56636e-06
1.56506e-06
1.56372e-06
1.56643e-06
1.56515e-06
1.56378e-06
1.5665e-06
1.56518e-06
1.56394e-06
1.56632e-06
1.56564e-06
1.56348e-06
1.56687e-06
1.56523e-06
1.564e-06
1.56688e-06
1.5647e-06
1.5654e-06
1.56411e-06
1.56949e-06
1.56006e-06
1.56949e-06
1.56229e-06
1.56851e-06
1.56394e-06
1.56467e-06
1.56792e-06
1.56178e-06
1.57254e-06
1.5556e-06
1.57512e-06
1.55639e-06
1.57736e-06
1.55292e-06
1.57661e-06
1.55422e-06
1.57841e-06
1.55308e-06
1.57764e-06
1.5498e-06
1.57349e-06
1.55107e-06
1.5702e-06
1.55641e-06
1.56283e-06
1.56446e-06
1.55688e-06
1.66856e-06
1.6482e-06
0
0
0
0
)
;

boundaryField
{
    inlet
    {
        type            calculated;
        value           uniform 0;
    }
    outlet
    {
        type            calculated;
        value           uniform 0;
    }
    sideWall
    {
        type            empty;
    }
}


// ************************************************************************* //
