/*--------------------------------*- C++ -*----------------------------------*\
| =========                 |                                                 |
| \\      /  F ield         | foam-extend: Open Source CFD                    |
|  \\    /   O peration     | Version:     3.2                                |
|   \\  /    A nd           | Web:         http://www.foam-extend.org         |
|    \\/     M anipulation  | For copyright notice see file Copyright         |
\*---------------------------------------------------------------------------*/
FoamFile
{
    version     2.0;
    format      ascii;
    class       volVectorField;
    location    "50";
    object      U;
}
// * * * * * * * * * * * * * * * * * * * * * * * * * * * * * * * * * * * * * //

dimensions      [0 1 -1 0 0 0 0];

internalField   nonuniform List<vector> 
5400
(
(0.332972 -5.28797e-26 0.00773961)
(0.215924 6.64243e-26 2.36844e-05)
(0.184551 2.64726e-26 -0.000989158)
(0.189303 0 -0.00101122)
(0.185532 -3.17481e-27 -0.000973037)
(0.186036 -2.66304e-27 -0.0009422)
(0.184222 -3.40482e-27 -0.000938391)
(0.184313 -1.07445e-27 -0.000924955)
(0.183621 0 -0.000928025)
(0.183871 -2.79254e-28 -0.000922136)
(0.183817 0 -0.000926209)
(0.184145 1.37795e-29 -0.000924605)
(0.184404 -1.98499e-28 -0.000928604)
(0.184937 -2.5054e-28 -0.00092979)
(0.185366 0 -0.000932536)
(0.185978 0 -0.000935403)
(0.186573 -5.35612e-28 -0.000938701)
(0.187256 5.69908e-28 -0.000941702)
(0.187916 0 -0.000945583)
(0.188671 0 -0.000949519)
(0.189459 0 -0.000953503)
(0.190272 7.96717e-28 -0.000957449)
(0.191108 0 -0.000961703)
(0.191957 0 -0.0009658)
(0.192818 0 -0.000969989)
(0.193693 9.13838e-28 -0.00097389)
(0.194505 -8.47007e-28 -0.000977193)
(0.19521 0 -0.000979703)
(0.195804 0 -0.000981899)
(0.196301 5.54182e-28 -0.000983707)
(0.196717 -4.72167e-28 -0.00098533)
(0.19706 0 -0.000986645)
(0.197349 0 -0.000987828)
(0.197586 0 -0.000988763)
(0.197786 -2.37744e-28 -0.000989618)
(0.197948 0 -0.000990274)
(0.198089 0 -0.000990898)
(0.1982 -1.40743e-28 -0.000991349)
(0.198301 0 -0.00099182)
(0.198376 0 -0.000992115)
(0.198451 0 -0.00099249)
(0.198501 -2.66505e-43 -0.000992666)
(0.19856 0 -0.000992992)
(0.198592 1.03411e-28 -0.00099306)
(0.19864 0 -0.000993346)
(0.198657 0 -0.000993352)
(0.1987 1.84898e-31 -0.000993645)
(0.198703 0 -0.000993546)
(0.198755 1.81574e-39 -0.000993979)
(0.198721 -1.39598e-29 -0.000993429)
(0.198819 0 -0.000994633)
(0.198697 7.94205e-31 -0.000992652)
(0.198916 0 -0.000996011)
(0.198588 -4.51038e-29 -0.000990687)
(0.199135 0 -0.000999336)
(0.198272 0 -0.000985442)
(0.199684 2.12005e-28 -0.00100836)
(0.197544 0 -0.000971957)
(0.201591 0 -0.00102127)
(0.193472 0 -0.00414564)
(0.160809 1.47172e-25 -0.00461628)
(0.16399 -8.62101e-26 -0.00293575)
(0.167246 0 -0.00218852)
(0.16731 0 -0.00164466)
(0.169583 0 -0.00137608)
(0.169297 -7.58629e-27 -0.00115228)
(0.170835 1.97759e-27 -0.00105548)
(0.170513 1.69204e-27 -0.000962428)
(0.171359 -5.04079e-28 -0.000924153)
(0.171098 0 -0.000908264)
(0.171401 5.98929e-28 -0.000848443)
(0.171666 0 -0.000844365)
(0.171415 0 -0.000924214)
(0.171087 0 -0.00086519)
(0.171565 0 -0.000803846)
(0.171527 2.66762e-28 -0.000838799)
(0.17126 1.53593e-28 -0.000845767)
(0.171513 0 -0.000807395)
(0.171555 5.23977e-28 -0.000855219)
(0.171137 -3.92678e-29 -0.000868132)
(0.171287 -1.91697e-28 -0.000830255)
(0.171364 -1.94158e-28 -0.000846251)
(0.171123 9.77709e-30 -0.000854827)
(0.171254 0 -0.000829583)
(0.171316 -3.97761e-32 -0.000852925)
(0.171072 -2.05812e-29 -0.000861078)
(0.171184 -1.26506e-28 -0.000840238)
(0.171228 -2.1012e-28 -0.000859385)
(0.171019 1.64546e-30 -0.000863386)
(0.171128 2.72801e-28 -0.000842217)
(0.171175 0 -0.000861553)
(0.170983 -1.32402e-29 -0.00086364)
(0.171104 -1.49398e-28 -0.000842513)
(0.171134 0 -0.000861974)
(0.170977 0 -0.000861298)
(0.171092 -1.12249e-28 -0.00084444)
(0.171111 1.41593e-28 -0.000859552)
(0.170996 -5.21039e-30 -0.00086077)
(0.171059 1.08822e-28 -0.000846138)
(0.171131 -2.68742e-33 -0.000855028)
(0.171014 2.48056e-29 -0.000862991)
(0.171037 4.72283e-32 -0.000847087)
(0.171129 0 -0.000851483)
(0.171049 0 -0.000862349)
(0.171017 -1.05725e-28 -0.000852208)
(0.171122 -1.59592e-29 -0.000846844)
(0.1711 0 -0.000859729)
(0.171028 1.93382e-29 -0.000858769)
(0.171075 -8.93111e-29 -0.000846775)
(0.171136 -4.95242e-29 -0.000851214)
(0.171078 0 -0.00086209)
(0.171038 0 -0.000855461)
(0.171104 0 -0.000846398)
(0.171137 0 -0.000852604)
(0.171082 0 -0.000861373)
(0.171059 6.82005e-29 -0.000855439)
(0.17111 0 -0.000847459)
(0.171133 -2.52949e-29 -0.000850484)
(0.171116 0 -0.000857354)
(0.171098 6.61871e-30 -0.000856847)
(0.171106 5.40257e-33 -0.000852577)
(0.171129 0 -0.000850359)
(0.171137 -2.7008e-29 -0.000850712)
(0.171142 -7.89317e-34 -0.000851603)
(0.171146 -7.04866e-34 -0.000852771)
(0.171149 0 -0.00085343)
(0.171152 0 -0.000853893)
(0.171153 0 -0.000854171)
(0.171158 0 -0.000854449)
(0.171159 0 -0.000854507)
(0.171158 3.27661e-30 -0.000854332)
(0.17116 0 -0.000854459)
(0.171164 0 -0.000854541)
(0.171167 -2.59524e-30 -0.000854232)
(0.171169 -4.89062e-30 -0.00085432)
(0.171173 0 -0.000854315)
(0.171177 3.66732e-30 -0.000854088)
(0.171179 0 -0.00085412)
(0.171182 1.13639e-29 -0.000854099)
(0.171184 1.05595e-30 -0.000854506)
(0.171186 0 -0.000854109)
(0.171189 2.07351e-30 -0.000854567)
(0.171186 0 -0.00085371)
(0.171209 0 -0.000854186)
(0.171186 -6.24418e-30 -0.000855744)
(0.171205 0 -0.0008512)
(0.171219 6.08184e-29 -0.000856905)
(0.171165 0 -0.000853779)
(0.171256 -1.41088e-29 -0.000848954)
(0.171221 0 -0.000861556)
(0.171158 1.59038e-28 -0.000852518)
(0.171277 1.04452e-29 -0.000848424)
(0.171227 0 -0.0008627)
(0.171148 -1.11539e-28 -0.000851026)
(0.171319 0 -0.000845493)
(0.17124 0 -0.000869225)
(0.171109 0 -0.00085067)
(0.171353 0 -0.000839037)
(0.171281 2.19695e-28 -0.000871302)
(0.171086 0 -0.000856481)
(0.171352 0 -0.000833957)
(0.171327 1.75824e-28 -0.000867961)
(0.171104 0 -0.000861812)
(0.171323 0 -0.000836209)
(0.171324 0 -0.000862517)
(0.171162 -1.89253e-32 -0.000858401)
(0.171335 0 -0.000844503)
(0.171298 0 -0.000863478)
(0.171185 2.50546e-28 -0.000854328)
(0.171348 -1.43945e-28 -0.000839669)
(0.171369 2.10562e-28 -0.000860443)
(0.171197 5.47023e-32 -0.000863776)
(0.171299 0 -0.00084124)
(0.171389 -1.16863e-28 -0.000852595)
(0.171269 0 -0.00086044)
(0.171302 1.24581e-28 -0.000843598)
(0.17142 -4.24552e-29 -0.00084739)
(0.171341 0 -0.000865766)
(0.171267 0 -0.000854797)
(0.171396 1.17915e-28 -0.00084391)
(0.171413 0 -0.000859493)
(0.171289 0 -0.000864501)
(0.171324 0 -0.000847083)
(0.17142 0 -0.000847899)
(0.17138 1.74355e-28 -0.000861968)
(0.171322 2.79013e-29 -0.000859316)
(0.171371 7.64501e-29 -0.000849309)
(0.171402 0 -0.000851114)
(0.171395 1.03107e-28 -0.000858057)
(0.171358 -1.06235e-29 -0.00085816)
(0.171389 5.74029e-29 -0.000852622)
(0.171395 0 -0.000856997)
(0.171369 3.28777e-29 -0.000853562)
(0.171433 7.00422e-29 -0.00085514)
(0.171368 6.50785e-29 -0.000863484)
(0.171363 3.40909e-32 -0.000852066)
(0.171442 -6.13513e-29 -0.000855461)
(0.171357 2.12857e-30 -0.000862469)
(0.171365 0 -0.000848442)
(0.171478 7.11545e-29 -0.000853213)
(0.171354 0 -0.000865176)
(0.171365 0 -0.000842943)
(0.171535 0 -0.000850393)
(0.171374 -1.02282e-31 -0.000870706)
(0.171346 0 -0.00084488)
(0.171556 6.03071e-32 -0.000845063)
(0.17142 1.12079e-31 -0.000872415)
(0.171325 0 -0.000850342)
(0.17155 0 -0.000842694)
(0.171467 0 -0.000866437)
(0.171372 0 -0.000854816)
(0.171529 4.98057e-32 -0.000848931)
(0.17145 0 -0.000864099)
(0.171411 1.58651e-28 -0.00084781)
(0.17157 0 -0.000849707)
(0.171453 0 -0.000870971)
(0.171377 1.76008e-28 -0.000851456)
(0.171575 0 -0.00084594)
(0.171486 1.286e-28 -0.000867287)
(0.171412 -1.12235e-28 -0.000853336)
(0.17157 -1.25807e-29 -0.000850874)
(0.171469 -1.41175e-28 -0.000870359)
(0.171393 -3.08256e-32 -0.000852719)
(0.171578 0 -0.000847506)
(0.17149 0 -0.000867135)
(0.171414 0 -0.000851163)
(0.171596 -1.15524e-29 -0.000846794)
(0.17151 1.30261e-28 -0.000867183)
(0.17143 0 -0.000851708)
(0.17161 -1.26168e-29 -0.000846968)
(0.171527 0 -0.00086742)
(0.171444 -2.58969e-32 -0.000852196)
(0.171625 0 -0.000847079)
(0.171543 1.31977e-28 -0.000867601)
(0.171458 1.3482e-28 -0.00085259)
(0.171639 -1.62475e-29 -0.000847113)
(0.171559 -2.66482e-28 -0.000867821)
(0.17147 0 -0.000853047)
(0.171652 -1.88541e-29 -0.000847093)
(0.171575 -1.33693e-28 -0.000867925)
(0.171484 0 -0.000853515)
(0.171665 2.05088e-29 -0.000847184)
(0.171591 -2.67997e-28 -0.000868055)
(0.171497 1.30435e-28 -0.000853902)
(0.171678 -2.16361e-29 -0.000847243)
(0.171605 0 -0.000868236)
(0.171509 1.296e-28 -0.000854328)
(0.171689 0 -0.000847269)
(0.17162 -1.35645e-28 -0.00086837)
(0.17152 -1.27881e-28 -0.000854788)
(0.171701 0 -0.000847283)
(0.171633 0 -0.000868601)
(0.171531 -1.25801e-28 -0.000855024)
(0.171712 4.93076e-29 -0.000847591)
(0.171642 -1.35809e-28 -0.000868394)
(0.171548 0 -0.000855756)
(0.17171 0 -0.000847337)
(0.17167 2.70888e-28 -0.000868251)
(0.171531 3.02717e-33 -0.000857373)
(0.171742 0 -0.000845276)
(0.171664 0 -0.000871244)
(0.171565 2.75663e-28 -0.000853525)
(0.171744 0 -0.00085075)
(0.171636 0 -0.000865875)
(0.171636 5.78856e-29 -0.000859108)
(0.171632 0 -0.000847158)
(0.171839 1.13277e-32 -0.000860465)
(0.171441 -5.34876e-30 -0.000873512)
(0.1718 0 -0.000834705)
(0.171634 -1.74572e-28 -0.000877005)
(0.17168 0 -0.000837142)
(0.171733 4.65544e-28 -0.00088191)
(0.171534 0 -0.000842164)
(0.17184 1.46703e-28 -0.000860734)
(0.17153 6.41821e-33 -0.000858142)
(0.171897 0 -0.000855325)
(0.171403 1.41821e-29 -0.000875091)
(0.171877 0 -0.000830488)
(0.171578 -3.31519e-28 -0.000876362)
(0.171841 1.22267e-28 -0.000841056)
(0.171536 2.27072e-28 -0.000889945)
(0.17174 0 -0.000825965)
(0.171663 0 -0.000878178)
(0.17176 -1.66409e-28 -0.00083567)
(0.171632 -2.29707e-28 -0.000886721)
(0.171723 0 -0.000833528)
(0.17166 0 -0.000888047)
(0.171639 1.07094e-27 -0.000839157)
(0.171665 2.08684e-31 -0.000880018)
(0.17165 -1.78692e-31 -0.000843374)
(0.171628 0 -0.000871587)
(0.171756 0 -0.000849047)
(0.171417 2.2449e-28 -0.000857903)
(0.171779 2.05778e-27 -0.000907258)
(0.17257 0 0.000860216)
(0.197171 0 0.00570671)
(0.221482 -1.05228e-25 0.00478447)
(0.206784 0 -0.000755957)
(0.195705 -5.99226e-27 -0.00104972)
(0.199137 0 -0.00100153)
(0.530078 -2.39076e-25 0.0128079)
(0.437787 1.61729e-25 0.00206991)
(0.37653 6.86668e-26 -0.00112247)
(0.375124 0 -0.00175439)
(0.364549 1.47879e-26 -0.00174534)
(0.362668 8.85514e-27 -0.00172149)
(0.357632 1.67854e-33 -0.00174247)
(0.356947 4.21994e-27 -0.00174597)
(0.354898 2.95753e-27 -0.00176522)
(0.354928 0 -0.0017711)
(0.354536 0 -0.00178322)
(0.354837 0 -0.00178646)
(0.355187 1.93999e-28 -0.00180098)
(0.355926 1.05418e-28 -0.00180574)
(0.356644 4.53593e-28 -0.0018151)
(0.357664 0 -0.00182349)
(0.358691 0 -0.00183238)
(0.359914 1.07023e-27 -0.00183961)
(0.3611 1.18671e-27 -0.00184832)
(0.362447 0 -0.0018587)
(0.363882 0 -0.00186809)
(0.365373 0 -0.00187688)
(0.366921 0 -0.00188603)
(0.368495 0 -0.00189459)
(0.37011 0 -0.00190382)
(0.371762 0 -0.00191065)
(0.373303 -2.03068e-27 -0.00191338)
(0.374654 0 -0.00191348)
(0.375815 0 -0.00191314)
(0.376796 0 -0.00191253)
(0.377632 -1.20169e-27 -0.0019121)
(0.378327 0 -0.00191158)
(0.378919 -8.68767e-28 -0.00191126)
(0.379405 0 -0.00191087)
(0.379823 -6.1826e-28 -0.00191068)
(0.380159 0 -0.00191042)
(0.380456 -4.36775e-28 -0.00191034)
(0.380687 -3.68624e-28 -0.00191017)
(0.380902 0 -0.00191018)
(0.381058 -2.62136e-28 -0.00191006)
(0.381219 0 -0.00191014)
(0.381322 -3.74291e-28 -0.00191002)
(0.381448 1.59334e-28 -0.00191023)
(0.381513 1.35639e-28 -0.00191002)
(0.381616 0 -0.00191029)
(0.381652 0 -0.00190996)
(0.381736 -1.72722e-28 -0.0019103)
(0.38175 0 -0.00191006)
(0.381839 -1.21352e-28 -0.00191055)
(0.381807 -4.96799e-29 -0.0019097)
(0.381939 0 -0.00191116)
(0.381797 1.1466e-37 -0.00190837)
(0.382079 0 -0.00191299)
(0.381676 -1.56229e-31 -0.00190556)
(0.382366 0 -0.00191759)
(0.381294 0 -0.00189854)
(0.383078 1.15854e-29 -0.00193321)
(0.380453 1.27442e-27 -0.00190086)
(0.38626 3.49679e-26 -0.00191658)
(0.377663 3.83974e-25 -0.00713652)
(0.323872 3.66737e-25 -0.0084759)
(0.318785 -8.3098e-26 -0.00568746)
(0.321682 0 -0.00422862)
(0.321442 0 -0.00326784)
(0.324925 0 -0.00268078)
(0.324801 -1.77223e-26 -0.0022735)
(0.327425 7.54475e-27 -0.00205429)
(0.327293 0 -0.00187848)
(0.328772 -1.93215e-27 -0.00179092)
(0.328607 0 -0.00175598)
(0.329204 1.8786e-27 -0.00164773)
(0.329851 0 -0.00162711)
(0.329503 0 -0.00176412)
(0.329038 1.88583e-27 -0.00167172)
(0.329764 0 -0.00155955)
(0.329832 0 -0.0016064)
(0.329481 2.38768e-28 -0.0016278)
(0.329861 0 -0.00155971)
(0.329931 -1.42627e-31 -0.00163616)
(0.329355 2.39686e-28 -0.00166684)
(0.329507 -6.17773e-28 -0.00160006)
(0.329613 0 -0.00162467)
(0.329313 2.81372e-29 -0.00164379)
(0.329479 0 -0.00159958)
(0.329556 -6.0993e-28 -0.00163661)
(0.329235 0 -0.00165534)
(0.329352 -3.74602e-28 -0.00161826)
(0.329398 -4.90126e-28 -0.00164977)
(0.32913 0 -0.00166019)
(0.329247 7.3697e-28 -0.00162248)
(0.3293 0 -0.00165443)
(0.329056 0 -0.00166117)
(0.329196 3.83499e-28 -0.00162338)
(0.329237 0 -0.0016555)
(0.329031 -2.62493e-29 -0.00165731)
(0.329171 -3.1721e-28 -0.00162677)
(0.329198 3.39207e-28 -0.00165163)
(0.32905 0 -0.00165568)
(0.32913 -2.37354e-28 -0.00163056)
(0.329228 1.74736e-33 -0.00164355)
(0.329072 3.90542e-29 -0.00165912)
(0.329102 -8.74578e-32 -0.00163242)
(0.329227 0 -0.00163789)
(0.329125 2.14181e-28 -0.00165737)
(0.329076 -2.44975e-28 -0.0016417)
(0.329224 8.39986e-29 -0.00163045)
(0.329199 1.9763e-28 -0.0016524)
(0.329098 6.41304e-29 -0.00165226)
(0.329165 -2.05411e-28 -0.00163166)
(0.329258 0 -0.0016375)
(0.329173 0 -0.00165655)
(0.329111 0 -0.00164697)
(0.329212 0 -0.00163092)
(0.329272 0 -0.00163971)
(0.329187 -1.78044e-28 -0.00165548)
(0.329146 0 -0.00164678)
(0.329222 0 -0.00163249)
(0.329274 0 -0.00163666)
(0.329252 1.154e-28 -0.00164873)
(0.329218 4.33291e-30 -0.00164832)
(0.329225 8.70958e-29 -0.00164125)
(0.329267 0 -0.00163715)
(0.329291 6.0294e-33 -0.00163741)
(0.329306 -3.20021e-29 -0.00163897)
(0.329313 -1.37859e-33 -0.00164096)
(0.329318 0 -0.00164221)
(0.329323 0 -0.00164309)
(0.329326 0 -0.00164363)
(0.329332 0 -0.00164411)
(0.329334 0 -0.00164429)
(0.329338 4.32253e-30 -0.00164401)
(0.329343 0 -0.00164423)
(0.329346 0 -0.00164437)
(0.329351 0 -0.00164384)
(0.329358 0 -0.00164399)
(0.329361 0 -0.00164398)
(0.329369 0 -0.00164357)
(0.329374 0 -0.00164367)
(0.329385 2.15322e-29 -0.00164361)
(0.329388 0 -0.00164434)
(0.329392 0 -0.00164367)
(0.329401 8.16391e-30 -0.00164448)
(0.3294 0 -0.00164304)
(0.329428 0 -0.00164341)
(0.329397 -1.67541e-29 -0.00164664)
(0.329427 1.23169e-28 -0.00163864)
(0.329446 1.40423e-28 -0.00164805)
(0.32938 0 -0.00164386)
(0.3295 -1.31136e-29 -0.00163431)
(0.329457 -1.7207e-28 -0.00165601)
(0.329382 1.76663e-28 -0.00164169)
(0.329525 1.50867e-29 -0.00163341)
(0.329471 -2.00922e-28 -0.001658)
(0.329379 -2.49284e-28 -0.00163962)
(0.329591 0 -0.00162794)
(0.329492 3.7395e-28 -0.00166872)
(0.32933 0 -0.0016401)
(0.329641 0 -0.00161677)
(0.329558 -4.52647e-28 -0.00167128)
(0.329298 3.97275e-28 -0.00165104)
(0.32965 0 -0.00160725)
(0.329634 1.06057e-27 -0.00166606)
(0.329336 0 -0.00165978)
(0.329619 -5.34553e-28 -0.00161358)
(0.329639 0 -0.00165555)
(0.329428 3.72291e-32 -0.00165285)
(0.32964 0 -0.00162617)
(0.329602 0 -0.00165898)
(0.329454 2.88514e-28 -0.00164606)
(0.329679 0 -0.00161884)
(0.329709 4.9315e-28 -0.00165226)
(0.329484 -1.03824e-31 -0.00166144)
(0.329623 0 -0.00162268)
(0.329746 -2.49418e-28 -0.00163935)
(0.329598 -2.94533e-29 -0.00165493)
(0.329649 0 -0.00162665)
(0.329817 -1.5287e-28 -0.00163079)
(0.329707 0 -0.00166265)
(0.329602 0 -0.00164675)
(0.329781 2.8161e-28 -0.00162653)
(0.329814 0 -0.00165112)
(0.329637 0 -0.00166209)
(0.329679 0 -0.00163303)
(0.329828 -2.71631e-29 -0.00163246)
(0.329776 2.06947e-28 -0.00165651)
(0.329689 8.56148e-29 -0.00165351)
(0.329752 0 -0.00163614)
(0.329815 0 -0.00163827)
(0.329805 2.70383e-28 -0.00165012)
(0.329748 0 -0.00165124)
(0.329792 1.40852e-28 -0.00164151)
(0.329804 7.90825e-29 -0.00164875)
(0.329776 7.2616e-29 -0.00164332)
(0.329858 1.98871e-28 -0.00164505)
(0.329767 0 -0.00166011)
(0.329758 2.57382e-28 -0.00164127)
(0.32986 1.23545e-28 -0.00164541)
(0.329755 -5.97919e-29 -0.00165905)
(0.329767 0 -0.00163491)
(0.329918 0 -0.00164087)
(0.329761 0 -0.00166357)
(0.329781 3.83164e-28 -0.00162594)
(0.330009 0 -0.00163542)
(0.329802 -3.90566e-28 -0.00167247)
(0.329764 0 -0.00162997)
(0.330047 -1.1894e-31 -0.00162672)
(0.329871 8.92185e-28 -0.00167461)
(0.329752 0 -0.00163938)
(0.33003 0 -0.00162352)
(0.329944 0 -0.00166432)
(0.329826 0 -0.0016461)
(0.330007 7.99785e-29 -0.00163451)
(0.329923 0 -0.00166103)
(0.329878 0 -0.00163424)
(0.330088 0 -0.00163503)
(0.32993 3.64274e-28 -0.00167247)
(0.329838 4.08568e-28 -0.00164116)
(0.33008 0 -0.00162924)
(0.329983 2.78276e-28 -0.00166609)
(0.329889 -2.70856e-28 -0.00164381)
(0.330081 6.70761e-29 -0.00163764)
(0.32995 -6.20293e-28 -0.00167162)
(0.329859 -3.68035e-28 -0.00164325)
(0.330084 0 -0.00163202)
(0.329986 2.6715e-28 -0.00166601)
(0.329899 0 -0.00164012)
(0.330118 0 -0.00163063)
(0.330022 -1.53029e-31 -0.00166594)
(0.329928 0 -0.00164102)
(0.330146 -9.92124e-31 -0.00163096)
(0.330051 0 -0.00166633)
(0.329953 4.61468e-32 -0.0016419)
(0.330171 4.91878e-30 -0.00163119)
(0.330078 -2.81745e-28 -0.00166663)
(0.329977 3.08838e-28 -0.00164262)
(0.330195 -9.27238e-30 -0.00163128)
(0.330105 1.52027e-31 -0.00166698)
(0.329998 3.04304e-28 -0.00164346)
(0.330218 1.19312e-31 -0.00163128)
(0.330131 0 -0.00166712)
(0.33002 2.96465e-28 -0.0016443)
(0.33024 2.25311e-29 -0.00163147)
(0.330156 -2.82012e-28 -0.00166732)
(0.330041 0 -0.001645)
(0.330261 -2.61544e-29 -0.00163159)
(0.330179 0 -0.0016676)
(0.33006 0 -0.00164578)
(0.33028 0 -0.00163166)
(0.330201 1.49168e-31 -0.00166779)
(0.330077 -2.79655e-28 -0.00164662)
(0.330299 3.50726e-29 -0.00163169)
(0.330221 0 -0.00166819)
(0.330095 -2.75451e-28 -0.00164699)
(0.330316 3.74524e-29 -0.00163225)
(0.330236 2.80553e-28 -0.00166774)
(0.330114 0 -0.00164848)
(0.330318 0 -0.00163182)
(0.330275 2.7326e-28 -0.00166722)
(0.330096 -2.44998e-28 -0.0016518)
(0.330365 5.37811e-29 -0.00162803)
(0.33027 -3.42501e-28 -0.00167262)
(0.330144 3.33703e-28 -0.0016441)
(0.330359 -3.68828e-29 -0.00163701)
(0.330236 0 -0.00166393)
(0.330225 0 -0.00165444)
(0.330229 2.49121e-28 -0.0016323)
(0.33048 -6.66372e-28 -0.0016521)
(0.329985 -1.45866e-28 -0.00168083)
(0.33046 0 -0.00161)
(0.330229 -2.05989e-28 -0.00168288)
(0.330299 0 -0.00161456)
(0.330353 1.11349e-27 -0.0016917)
(0.330116 -9.10977e-28 -0.00162438)
(0.330486 0 -0.00165474)
(0.330126 -1.26462e-32 -0.00165183)
(0.330541 0 -0.00164337)
(0.329943 -3.22707e-31 -0.00168445)
(0.330571 -3.41575e-28 -0.00160089)
(0.33014 -5.8018e-28 -0.0016839)
(0.330577 1.90255e-28 -0.00161957)
(0.330053 -5.608e-31 -0.00170657)
(0.330397 5.19798e-28 -0.00159555)
(0.330248 3.09435e-28 -0.00168678)
(0.330464 -4.32435e-28 -0.00161041)
(0.330204 0 -0.00170126)
(0.330375 0 -0.00160789)
(0.330258 0 -0.00170289)
(0.330242 2.47538e-27 -0.00161837)
(0.330249 1.0574e-27 -0.00168989)
(0.330257 -6.0964e-28 -0.00162437)
(0.330173 0 -0.00167605)
(0.330397 2.594e-28 -0.00163214)
(0.329899 0 -0.00165478)
(0.330444 4.75132e-30 -0.00158535)
(0.328265 -9.82708e-26 0.00102628)
(0.366487 9.26229e-25 0.00924455)
(0.415598 0 0.00848884)
(0.403105 0 -0.00122945)
(0.383126 -1.8876e-26 -0.00180015)
(0.384723 5.60706e-27 -0.00188447)
(0.617755 0 0.01654)
(0.560984 0 0.00367742)
(0.492229 0 -0.000642427)
(0.483281 0 -0.00192891)
(0.463743 4.94211e-26 -0.00198264)
(0.459477 1.4625e-26 -0.00203787)
(0.451735 2.13465e-26 -0.00210404)
(0.449991 7.13258e-27 -0.00214071)
(0.446668 1.07458e-26 -0.00218397)
(0.446252 0 -0.0022113)
(0.445297 0 -0.0022347)
(0.445411 0 -0.00224682)
(0.445628 1.22504e-27 -0.00227242)
(0.446277 -7.58455e-28 -0.00228197)
(0.447036 -2.65739e-28 -0.00229914)
(0.448141 -8.42741e-29 -0.00231276)
(0.449298 0 -0.00232726)
(0.450715 6.8453e-28 -0.00233813)
(0.452109 0 -0.0023507)
(0.453694 -1.10207e-27 -0.00236667)
(0.455399 2.68835e-27 -0.00238041)
(0.457184 1.53276e-27 -0.00239277)
(0.459048 0 -0.00240528)
(0.460952 0 -0.00241674)
(0.462919 0 -0.00242934)
(0.464932 0 -0.00243653)
(0.466806 0 -0.00243543)
(0.468459 2.02129e-27 -0.00242998)
(0.469891 0 -0.00242421)
(0.471112 0 -0.00241867)
(0.472158 0 -0.00241396)
(0.473033 0 -0.00240971)
(0.473782 -1.01238e-27 -0.00240625)
(0.474399 0 -0.00240316)
(0.474931 0 -0.00240074)
(0.475362 0 -0.0023986)
(0.475742 -5.1719e-28 -0.00239695)
(0.476039 -4.3712e-28 -0.0023955)
(0.476314 -3.66174e-28 -0.00239443)
(0.476517 -3.10922e-28 -0.00239344)
(0.476723 0 -0.00239277)
(0.476856 -2.21039e-28 -0.00239207)
(0.477017 3.74726e-28 -0.00239181)
(0.477102 1.60247e-28 -0.00239115)
(0.477233 0 -0.00239113)
(0.477281 0 -0.00239031)
(0.477386 -9.91502e-29 -0.00239057)
(0.477409 0 -0.00239006)
(0.477513 -1.30958e-28 -0.00239047)
(0.477489 0 -0.00238926)
(0.477629 -2.6797e-29 -0.00239072)
(0.477494 -1.59092e-28 -0.00238739)
(0.477781 0 -0.00239272)
(0.477385 -1.34235e-31 -0.00238398)
(0.47808 -1.44368e-28 -0.00239804)
(0.477015 0 -0.00237596)
(0.478803 1.06489e-31 -0.00241914)
(0.476188 1.30812e-27 -0.00240151)
(0.482284 4.35915e-26 -0.00243835)
(0.474323 3.76502e-25 -0.00822341)
(0.416759 4.05047e-25 -0.0100797)
(0.403663 -6.60837e-26 -0.00704207)
(0.404224 0 -0.00529408)
(0.403129 0 -0.00413142)
(0.406366 0 -0.00338353)
(0.406383 -1.70005e-26 -0.00287608)
(0.409214 -1.21704e-26 -0.00260113)
(0.409359 0 -0.00237157)
(0.411097 -1.16192e-31 -0.00225738)
(0.411101 0 -0.00220709)
(0.411871 0 -0.00207886)
(0.412735 6.92906e-28 -0.00204446)
(0.412473 0 -0.00219848)
(0.412017 2.18982e-27 -0.00209687)
(0.412744 0 -0.00196082)
(0.412952 0 -0.00201192)
(0.412646 0 -0.00203916)
(0.413036 0 -0.00195895)
(0.413124 -1.22022e-27 -0.00204341)
(0.412594 5.81327e-28 -0.0020809)
(0.412687 -1.00272e-27 -0.00200781)
(0.412801 0 -0.00203319)
(0.412536 1.80625e-28 -0.00205738)
(0.412675 0 -0.0020062)
(0.412755 0 -0.00204728)
(0.41246 0 -0.00207002)
(0.412537 -5.80157e-28 -0.00202936)
(0.412585 -5.37704e-28 -0.00206402)
(0.412328 0 -0.00207724)
(0.412414 5.49294e-28 -0.00203453)
(0.412475 5.1736e-28 -0.00207016)
(0.412233 1.24089e-28 -0.00207919)
(0.412348 -2.2762e-31 -0.00203582)
(0.412401 5.06811e-28 -0.00207179)
(0.412198 1.63503e-28 -0.00207474)
(0.412315 -9.48478e-28 -0.00204002)
(0.412356 0 -0.00206754)
(0.412209 0 -0.00207344)
(0.412278 1.30172e-31 -0.00204424)
(0.412374 2.0296e-28 -0.0020585)
(0.412238 1.36692e-28 -0.0020768)
(0.412253 -6.02298e-28 -0.00204642)
(0.412378 0 -0.00205217)
(0.412291 -1.11365e-31 -0.00207433)
(0.41224 2.37388e-28 -0.00205736)
(0.412374 4.15817e-28 -0.00204436)
(0.412366 2.99415e-28 -0.00206813)
(0.412262 0 -0.00206944)
(0.412324 2.44207e-28 -0.00204566)
(0.412426 0 -0.00205128)
(0.412347 2.48358e-28 -0.00207346)
(0.412279 0 -0.00206361)
(0.412375 0 -0.00204479)
(0.412449 0 -0.00205381)
(0.412367 -2.14e-28 -0.00207228)
(0.412317 0 -0.00206321)
(0.412389 1.78626e-28 -0.00204649)
(0.412461 0 -0.00205071)
(0.41244 3.19697e-28 -0.00206472)
(0.4124 0 -0.00206442)
(0.412405 0 -0.00205646)
(0.412453 1.17126e-28 -0.00205171)
(0.412483 7.37319e-29 -0.00205175)
(0.412506 -3.6569e-29 -0.00205344)
(0.412518 -5.57578e-31 -0.00205583)
(0.412526 -6.24422e-30 -0.00205733)
(0.412532 -6.68142e-30 -0.00205839)
(0.412537 0 -0.00205904)
(0.412542 0 -0.0020596)
(0.412543 0 -0.00205983)
(0.412548 0 -0.00205955)
(0.412555 0 -0.00205978)
(0.412559 0 -0.00205995)
(0.412565 0 -0.00205935)
(0.412574 0 -0.00205952)
(0.412578 0 -0.00205952)
(0.412588 0 -0.00205904)
(0.412594 -2.27052e-29 -0.00205918)
(0.412606 -1.92496e-29 -0.0020591)
(0.412611 0 -0.00205994)
(0.412618 6.28261e-29 -0.00205922)
(0.412631 2.14987e-29 -0.00206015)
(0.412631 -2.09775e-29 -0.00205847)
(0.412656 0 -0.00205872)
(0.412628 -4.95351e-30 -0.00206257)
(0.412661 2.8696e-28 -0.00205342)
(0.412683 0 -0.00206399)
(0.412623 0 -0.00205961)
(0.41273 -7.07815e-29 -0.00204823)
(0.412702 -2.15297e-28 -0.00207327)
(0.412628 1.82189e-28 -0.0020573)
(0.412762 6.43863e-29 -0.00204695)
(0.412722 -2.66807e-28 -0.00207566)
(0.412633 0 -0.00205513)
(0.412831 -1.83011e-29 -0.00204063)
(0.41275 4.24757e-28 -0.00208758)
(0.412595 0 -0.00205583)
(0.412875 2.02949e-28 -0.00202777)
(0.412826 2.59829e-31 -0.00209034)
(0.412573 5.92517e-28 -0.00206862)
(0.412885 6.91641e-28 -0.00201927)
(0.412906 8.05479e-28 -0.00208232)
(0.412617 6.49997e-29 -0.00207833)
(0.412865 -1.56037e-27 -0.00202509)
(0.412915 0 -0.00207213)
(0.412716 5.55572e-29 -0.00206982)
(0.412891 0 -0.00204027)
(0.412882 0 -0.00207557)
(0.41274 -2.3926e-28 -0.00206277)
(0.412949 0 -0.00203095)
(0.412994 0 -0.00206781)
(0.412782 -6.63284e-29 -0.00208056)
(0.412904 4.71551e-28 -0.00203547)
(0.413033 0 -0.00205369)
(0.412908 -9.14983e-29 -0.00207198)
(0.41295 3.21827e-28 -0.00204026)
(0.413127 1.23382e-28 -0.00204342)
(0.413028 0 -0.00208057)
(0.412922 0 -0.00206362)
(0.413086 0 -0.00204004)
(0.413127 -4.16965e-28 -0.00206694)
(0.412964 0 -0.00208067)
(0.412991 0 -0.00204764)
(0.413147 3.07955e-29 -0.00204615)
(0.413108 0 -0.00207362)
(0.413015 0 -0.00207111)
(0.41307 0 -0.00205099)
(0.413147 0 -0.00205299)
(0.413139 1.84509e-28 -0.00206638)
(0.413082 -7.19455e-30 -0.00206823)
(0.413122 1.878e-28 -0.00205707)
(0.413139 -3.95666e-32 -0.00206518)
(0.413113 0 -0.00205924)
(0.413193 1.79137e-28 -0.00206069)
(0.413107 0 -0.00207829)
(0.413092 0 -0.00205708)
(0.413188 8.3779e-29 -0.0020615)
(0.4131 0 -0.0020766)
(0.413101 0 -0.00205018)
(0.413249 0 -0.00205599)
(0.413115 2.30912e-28 -0.00208206)
(0.413123 5.12574e-28 -0.0020397)
(0.41335 0 -0.00204935)
(0.413169 0 -0.00209204)
(0.413115 0 -0.00204467)
(0.413398 6.84823e-29 -0.00203893)
(0.413243 5.8907e-28 -0.00209467)
(0.41312 0 -0.00205534)
(0.413378 0 -0.00203585)
(0.413321 0 -0.00208298)
(0.413198 2.07728e-28 -0.00206273)
(0.413366 1.21806e-28 -0.00204861)
(0.4133 0 -0.00207939)
(0.41325 0 -0.00204925)
(0.41346 0 -0.00204863)
(0.413316 4.65404e-28 -0.00209243)
(0.413218 -4.35508e-28 -0.0020575)
(0.413446 9.81918e-29 -0.00204238)
(0.413372 7.63645e-28 -0.00208527)
(0.413271 0 -0.00206038)
(0.413456 6.76363e-29 -0.00205186)
(0.413337 -7.81164e-28 -0.00209166)
(0.41324 0 -0.00205996)
(0.413452 0 -0.00204569)
(0.413376 3.61612e-28 -0.00208522)
(0.413285 0 -0.0020561)
(0.413496 6.2932e-29 -0.0020438)
(0.413419 -3.77007e-28 -0.00208513)
(0.413322 3.48593e-28 -0.00205712)
(0.413529 6.94792e-29 -0.00204418)
(0.413454 0 -0.00208558)
(0.413353 6.74937e-28 -0.00205815)
(0.413559 7.8785e-29 -0.0020445)
(0.413487 1.98964e-31 -0.00208593)
(0.413382 3.28181e-28 -0.00205899)
(0.413588 0 -0.00204464)
(0.413518 7.61507e-28 -0.00208633)
(0.413409 3.18114e-28 -0.00205996)
(0.413614 -1.59985e-31 -0.00204471)
(0.413548 0 -0.0020865)
(0.413436 3.05128e-28 -0.00206092)
(0.413639 1.08733e-28 -0.00204498)
(0.413576 0 -0.00208674)
(0.413461 2.95285e-28 -0.00206172)
(0.413663 -1.15926e-28 -0.00204515)
(0.413603 0 -0.00208706)
(0.413484 -2.85452e-28 -0.00206261)
(0.413685 1.25818e-28 -0.00204528)
(0.413628 7.59076e-28 -0.00208728)
(0.413505 0 -0.00206356)
(0.413706 1.34581e-28 -0.00204536)
(0.413651 3.82351e-28 -0.00208774)
(0.413524 0 -0.00206401)
(0.413726 -1.34749e-28 -0.00204601)
(0.413667 3.72288e-28 -0.00208718)
(0.413548 -2.46079e-28 -0.00206558)
(0.413728 1.63209e-28 -0.00204578)
(0.413708 0 -0.00208648)
(0.413538 0 -0.0020694)
(0.41377 2.11718e-28 -0.00204148)
(0.413706 2.52977e-31 -0.00209287)
(0.413572 0 -0.00206061)
(0.413775 -3.37053e-28 -0.00205225)
(0.413678 3.78509e-28 -0.00208222)
(0.413653 0 -0.00207221)
(0.413656 -1.29194e-31 -0.00204699)
(0.413897 -5.68312e-28 -0.00206815)
(0.413456 -7.85769e-28 -0.00210331)
(0.413859 0 -0.00202118)
(0.413673 -2.7744e-28 -0.00210481)
(0.413727 8.39249e-28 -0.00202578)
(0.413792 -1.30146e-27 -0.00211487)
(0.413546 -1.08433e-27 -0.0020377)
(0.413919 -4.27044e-28 -0.00207217)
(0.413567 1.65582e-32 -0.00206934)
(0.413951 0 -0.00205803)
(0.413428 -1.15285e-27 -0.00210759)
(0.413955 -8.0414e-28 -0.00201064)
(0.413602 5.5698e-31 -0.00210632)
(0.414014 9.84004e-29 -0.00203121)
(0.413494 -1.93945e-28 -0.00213129)
(0.41382 3.63323e-28 -0.00200541)
(0.413685 3.42034e-28 -0.00210934)
(0.413915 -1.00378e-28 -0.00202146)
(0.413646 -2.28527e-28 -0.00212497)
(0.413806 0 -0.00201943)
(0.4137 8.78083e-28 -0.00212724)
(0.413669 1.43594e-27 -0.00203063)
(0.413679 1.2609e-27 -0.00211322)
(0.413682 6.85524e-28 -0.00203733)
(0.413589 1.88414e-28 -0.00209717)
(0.413796 -2.05591e-31 -0.00204542)
(0.413357 0 -0.00206762)
(0.413842 7.06316e-27 -0.00197706)
(0.410093 -1.15203e-25 0.0009437)
(0.448125 8.99529e-25 0.0101254)
(0.510643 5.99949e-26 0.00952128)
(0.503605 1.6756e-25 -0.000931098)
(0.483081 2.49391e-26 -0.00204226)
(0.482582 1.53986e-26 -0.0023305)
(0.652159 0 0.0163926)
(0.635156 0 0.00551991)
(0.580497 0 0.000160695)
(0.563885 0 -0.0016443)
(0.536314 4.97151e-26 -0.00187067)
(0.528689 1.92945e-26 -0.00211687)
(0.517957 2.85238e-26 -0.00225262)
(0.514735 9.90799e-27 -0.00235392)
(0.510192 1.53164e-26 -0.00243093)
(0.509059 5.54723e-27 -0.00248878)
(0.507413 0 -0.00252553)
(0.507174 0 -0.0025552)
(0.507105 2.11707e-27 -0.00259206)
(0.507539 -1.77451e-27 -0.00260866)
(0.508194 0 -0.002636)
(0.509223 7.49988e-28 -0.00265557)
(0.51037 0 -0.00267678)
(0.511826 0 -0.00269196)
(0.513287 0 -0.0027084)
(0.514957 -4.54219e-28 -0.00273021)
(0.516774 1.48013e-27 -0.00274841)
(0.518693 9.69108e-28 -0.00276433)
(0.520711 0 -0.00277998)
(0.522781 1.35189e-27 -0.0027942)
(0.524938 1.58643e-27 -0.00280987)
(0.527134 1.78311e-27 -0.00281617)
(0.529159 -1.82616e-27 -0.00280947)
(0.530948 1.74107e-27 -0.002797)
(0.532508 1.58852e-27 -0.00278444)
(0.533844 1.41679e-27 -0.00277269)
(0.534996 0 -0.0027625)
(0.535964 0 -0.00275344)
(0.536796 9.30779e-28 -0.00274585)
(0.537483 0 -0.00273924)
(0.538079 0 -0.00273383)
(0.538561 0 -0.00272919)
(0.538988 0 -0.00272542)
(0.539323 -4.10406e-28 -0.00272225)
(0.539632 -3.44441e-28 -0.00271968)
(0.539862 0 -0.00271753)
(0.540093 -2.44261e-28 -0.00271578)
(0.540245 -2.06628e-28 -0.0027143)
(0.540425 1.75437e-28 -0.00271334)