/*--------------------------------*- C++ -*----------------------------------*\
| =========                 |                                                 |
| \\      /  F ield         | foam-extend: Open Source CFD                    |
|  \\    /   O peration     | Version:     3.2                                |
|   \\  /    A nd           | Web:         http://www.foam-extend.org         |
|    \\/     M anipulation  | For copyright notice see file Copyright         |
\*---------------------------------------------------------------------------*/
FoamFile
{
    version     2.0;
    format      ascii;
    class       areaVectorField;
    location    "50";
    object      Ub2;
}
// * * * * * * * * * * * * * * * * * * * * * * * * * * * * * * * * * * * * * //

dimensions      [0 1 -1 0 0 0 0];

internalField   nonuniform List<vector> 
300
(
(0.786135 -1.24865e-25 -0.00393068)
(0.598912 1.84247e-25 -0.00299456)
(0.495123 7.1022e-26 -0.00247561)
(0.496479 0 -0.00248239)
(0.486218 -5.03723e-23 -0.00243109)
(0.486413 -1.33189e-23 -0.00243206)
(0.481485 -1.91377e-23 -0.00240742)
(0.481298 -3.74864e-24 -0.00240649)
(0.47951 0 -0.00239755)
(0.480203 -3.07507e-24 -0.00240101)
(0.480344 0 -0.00240172)
(0.481511 4.29454e-24 -0.00240756)
(0.482656 -5.19548e-28 -0.00241328)
(0.484492 5.66066e-24 -0.00242246)
(0.486198 0 -0.00243099)
(0.488364 0 -0.00244182)
(0.490557 6.49721e-24 -0.00245279)
(0.493006 -6.04234e-24 -0.00246503)
(0.495428 6.70196e-24 -0.00247714)
(0.498091 0 -0.00249045)
(0.500874 0 -0.00250437)
(0.503735 -6.82408e-24 -0.00251867)
(0.506663 0 -0.00253331)
(0.509622 0 -0.00254811)
(0.512613 0 -0.00256306)
(0.515608 -6.11605e-24 -0.00257804)
(0.518379 -2.25737e-27 -0.0025919)
(0.520783 0 -0.00260391)
(0.522811 0 -0.00261406)
(0.524504 -2.4927e-24 -0.00262252)
(0.525919 -1.26233e-27 -0.0026296)
(0.527089 0 -0.00263545)
(0.528069 0 -0.00264035)
(0.528874 0 -0.00264437)
(0.529553 -6.36536e-28 -0.00264776)
(0.530105 0 -0.00265052)
(0.53058 0 -0.0026529)
(0.530959 -3.77037e-28 -0.00265479)
(0.531297 0 -0.00265649)
(0.531558 0 -0.00265779)
(0.531806 0 -0.00265903)
(0.531982 -1.81713e-25 -0.00265991)
(0.532174 0 -0.00266087)
(0.532291 -1.11387e-25 -0.00266146)
(0.532443 0 -0.00266222)
(0.532514 0 -0.00266257)
(0.532639 -1.67344e-25 -0.00266319)
(0.532666 0 -0.00266333)
(0.53281 -2.30262e-25 -0.00266405)
(0.53275 0 -0.00266375)
(0.532989 0 -0.00266495)
(0.532722 9.45502e-25 -0.00266361)
(0.533235 -8.48619e-29 -0.00266618)
(0.532491 2.56082e-24 -0.00266245)
(0.533756 0 -0.00266878)
(0.531775 0 -0.00265888)
(0.535039 -1.12706e-23 -0.00267519)
(0.530148 0 -0.00265074)
(0.539832 0 -0.00269916)
(0.485477 -4.37949e-25 -0.0109318)
(0.338317 0 -0.0098328)
(0.282277 -7.3056e-26 -0.00486691)
(0.261957 -3.1936e-26 -0.00341367)
(0.246086 0 -0.00240587)
(0.241519 0 -0.00197358)
(0.235217 0 -0.00159186)
(0.235254 -2.61473e-27 -0.00146314)
(0.232539 0 -0.00130921)
(0.233252 -2.66327e-24 -0.00126419)
(0.231891 2.6389e-25 -0.00123136)
(0.232158 0 -0.00115232)
(0.232891 -5.53339e-25 -0.00114465)
(0.231999 0 -0.00125786)
(0.230546 0 -0.00116449)
(0.23174 2.17254e-25 -0.00108618)
(0.232132 8.34419e-25 -0.0011373)
(0.23166 -5.56715e-29 -0.00114512)
(0.232506 1.27183e-24 -0.00109164)
(0.232936 1.37645e-24 -0.00116471)
(0.231871 -9.21673e-25 -0.00117824)
(0.232173 1.16911e-24 -0.00112254)
(0.232565 0 -0.00115021)
(0.232061 -6.52703e-25 -0.00116067)
(0.23247 0 -0.00112377)
(0.23281 3.07431e-28 -0.00116085)
(0.232224 -5.29124e-25 -0.00117005)
(0.232486 0 -0.00113888)
(0.232672 -6.18537e-25 -0.00116931)
(0.23212 1.99828e-29 -0.00117289)
(0.232347 9.25865e-25 -0.00114134)
(0.232525 0 -0.00117177)
(0.231992 4.06168e-25 -0.00117266)
(0.232247 0 -0.00114153)
(0.232395 -5.62703e-25 -0.00117195)
(0.231939 0 -0.00116887)
(0.232201 0 -0.00114445)
(0.232315 -4.33065e-25 -0.0011681)
(0.231992 0 -0.0011682)
(0.232134 5.02115e-25 -0.00114704)
(0.232377 -4.41742e-26 -0.00116121)
(0.232071 5.05036e-25 -0.00117226)
(0.232099 0 -0.0011483)
(0.232402 0 -0.0011563)
(0.23222 0 -0.00117178)
(0.2321 0 -0.00115611)
(0.232406 3.70218e-25 -0.00114929)
(0.232416 0 -0.00116877)
(0.232192 1.1716e-25 -0.00116608)
(0.232317 1.1245e-28 -0.00114916)
(0.232554 -5.38934e-29 -0.00115658)
(0.23242 1.18685e-28 -0.00117197)
(0.232272 0 -0.00116154)
(0.232473 0 -0.00114944)
(0.232643 8.46007e-27 -0.00115912)
(0.232509 1.02917e-28 -0.00117114)
(0.232403 0 -0.00116198)
(0.232562 0 -0.0011515)
(0.232715 0 -0.00115662)
(0.232708 0 -0.00116611)
(0.232645 8.88968e-27 -0.00116503)
(0.232665 5.53286e-26 -0.00115914)
(0.232773 0 -0.00115665)
(0.232867 0 -0.00115761)
(0.232946 -1.03818e-26 -0.00115915)
(0.233005 1.8779e-26 -0.00116096)
(0.233049 -3.97736e-30 -0.00116205)
(0.233084 -1.17851e-26 -0.00116285)
(0.233112 0 -0.00116332)
(0.233141 0 -0.0011638)
(0.233163 0 -0.00116409)
(0.233179 0 -0.00116395)
(0.233204 0 -0.00116416)
(0.23323 0 -0.00116435)
(0.233256 0 -0.00116408)
(0.233282 0 -0.00116432)
(0.233307 0 -0.00116439)
(0.233339 0 -0.00116423)
(0.233369 8.60385e-27 -0.00116443)
(0.233405 0 -0.00116455)
(0.23343 0 -0.00116525)
(0.233457 0 -0.00116483)
(0.233489 0 -0.00116562)
(0.233505 2.78485e-26 -0.00116437)
(0.233579 0 -0.00116519)
(0.233544 3.70515e-30 -0.00116774)
(0.233616 -1.95347e-25 -0.00116109)
(0.233687 0 -0.00116999)
(0.233565 0 -0.00116495)
(0.23382 0 -0.00115824)
(0.233783 0 -0.00117765)
(0.233611 -1.12278e-28 -0.00116288)
(0.233942 1.50547e-29 -0.00115813)
(0.233871 0 -0.00117981)
(0.233663 0 -0.00116114)
(0.234138 -5.8834e-25 -0.00115423)
(0.233992 0 -0.00119013)
(0.233611 0 -0.00116047)
(0.234288 -8.71827e-25 -0.00114526)
(0.234214 0 -0.00119419)
(0.233629 0 -0.00116932)
(0.234338 7.97721e-29 -0.00113746)
(0.234435 -1.20883e-24 -0.00119069)
(0.233787 1.27259e-28 -0.00117777)
(0.234336 7.67911e-25 -0.00114184)
(0.234494 0 -0.00118212)
(0.234052 8.30843e-29 -0.00117364)
(0.234476 -7.83254e-25 -0.00115389)
(0.234473 0 -0.00118381)
(0.234162 1.45618e-28 -0.0011683)
(0.234636 -1.92117e-28 -0.00114821)
(0.234801 0 -0.00118026)
(0.234349 3.9667e-25 -0.00118324)
(0.234594 0 -0.00115017)
(0.23495 -1.81153e-25 -0.00116928)
(0.234688 0 -0.00118007)
(0.234803 0 -0.00115515)
(0.235234 0 -0.00116233)
(0.235084 0 -0.00118926)
(0.234847 0 -0.00117169)
(0.235223 0 -0.00115701)
(0.235362 0 -0.00118094)
(0.235013 3.60758e-25 -0.00118689)
(0.235073 1.23894e-28 -0.00116123)
(0.235428 0 -0.00116413)
(0.235388 0 -0.00118474)
(0.235193 0 -0.00117967)
(0.235323 0 -0.00116568)
(0.235493 -4.3741e-30 -0.00116944)
(0.235513 0 -0.00117922)
(0.235417 0 -0.00117914)
(0.235495 0 -0.00117108)
(0.235548 0 -0.00117819)
(0.235509 0 -0.00117272)
(0.235688 -1.45454e-25 -0.00117534)
(0.235524 3.50252e-25 -0.0011876)
(0.235481 -1.42811e-28 -0.00117003)
(0.235706 -1.73352e-26 -0.00117616)
(0.235498 -4.47692e-25 -0.00118635)
(0.235511 -4.57427e-25 -0.00116492)
(0.235862 0 -0.00117336)
(0.23557 -4.86788e-29 -0.0011911)
(0.235598 7.26981e-25 -0.00115713)
(0.236142 0 -0.00117039)
(0.235766 0 -0.00119999)
(0.235645 0 -0.00116028)
(0.236292 0 -0.00116301)
(0.236008 0 -0.00120372)
(0.235696 2.60948e-28 -0.00116837)
(0.23633 4.7414e-29 -0.00115956)
(0.236235 0 -0.0011959)
(0.235947 0 -0.00117597)
(0.236358 -4.07466e-25 -0.00116887)
(0.236227 0 -0.00119228)
(0.236129 0 -0.00116678)
(0.236609 -3.01571e-29 -0.00117114)
(0.236337 -8.82798e-25 -0.00120267)
(0.236083 0 -0.00117163)
(0.236629 0 -0.00116555)
(0.236488 -8.16173e-25 -0.00119804)
(0.236258 0 -0.00117514)
(0.236668 0 -0.0011729)
(0.236437 8.34183e-25 -0.00120215)
(0.236181 -4.48114e-25 -0.00117386)
(0.236681 -4.79533e-25 -0.00116803)
(0.236527 8.70393e-25 -0.00119811)
(0.236307 0 -0.00117221)
(0.236814 -4.81222e-25 -0.00116759)
(0.236674 0 -0.00119875)
(0.236441 4.36407e-25 -0.00117354)
(0.236944 -2.62509e-29 -0.00116834)
(0.236807 0 -0.00119962)
(0.236563 -4.24919e-25 -0.00117475)
(0.237064 5.07276e-25 -0.00116896)
(0.23693 1.89415e-28 -0.00120038)
(0.236677 0 -0.0011758)
(0.237177 -5.20831e-25 -0.00116943)
(0.237048 -1.90507e-28 -0.00120116)
(0.236784 0 -0.00117691)
(0.237283 5.36259e-25 -0.0011698)
(0.23716 -8.44826e-25 -0.00120175)
(0.236887 0 -0.00117802)
(0.237382 5.47753e-25 -0.0011703)
(0.237265 -8.39433e-25 -0.00120234)
(0.236983 3.62785e-25 -0.00117898)
(0.237475 3.63734e-29 -0.00117073)
(0.237362 -8.36079e-25 -0.00120298)
(0.237071 0 -0.00117997)
(0.23756 0 -0.00117108)
(0.237454 8.30052e-25 -0.00120351)
(0.237152 -1.71893e-28 -0.00118098)
(0.237639 0 -0.00117136)
(0.237535 0 -0.00120417)
(0.237226 0 -0.00118159)
(0.237711 5.81269e-25 -0.00117208)
(0.237602 1.9034e-28 -0.00120409)
(0.237307 -1.70916e-28 -0.00118305)
(0.237746 0 -0.00117193)
(0.23771 -1.84723e-28 -0.00120407)
(0.237311 0 -0.0011859)
(0.23785 8.91232e-25 -0.00116861)
(0.237735 0 -0.00120902)
(0.23742 1.88623e-28 -0.00117983)
(0.237896 0 -0.00117766)
(0.237689 9.76054e-29 -0.00120044)
(0.237612 -2.60942e-29 -0.00118931)
(0.23766 -4.77537e-25 -0.00117193)
(0.238201 -2.61698e-26 -0.00119275)
(0.237223 -1.61648e-24 -0.00121234)
(0.237992 -2.22553e-28 -0.00115044)
(0.237757 0 -0.00122029)
(0.237791 2.19919e-24 -0.0011544)
(0.237987 6.62968e-28 -0.00122692)
(0.237411 1.3982e-24 -0.00116222)
(0.238231 0 -0.0011945)
(0.237529 0 -0.00118821)
(0.238339 -1.39721e-29 -0.00118475)
(0.237196 2.1282e-24 -0.00121587)
(0.238223 2.15385e-28 -0.00114336)
(0.237749 0 -0.00122158)
(0.238246 2.95716e-24 -0.00115915)
(0.237553 0 -0.00124026)
(0.237894 4.08019e-28 -0.00113582)
(0.237917 2.84499e-28 -0.00122482)
(0.23808 0 -0.00115105)
(0.237841 0 -0.00123613)
(0.237921 -3.08962e-24 -0.00114754)
(0.237859 0 -0.00123781)
(0.237637 -2.73168e-24 -0.00115539)
(0.237756 0 -0.00122484)
(0.237606 2.47316e-24 -0.00116158)
(0.237616 2.14896e-24 -0.00121172)
(0.237835 0 -0.00117142)
(0.237114 -4.08167e-24 -0.00119631)
(0.237977 -2.80736e-27 -0.0011487)
(0.247435 4.79129e-23 0.00134687)
(0.356102 7.58709e-25 0.0105775)
(0.524156 2.7718e-22 0.0111689)
(0.55553 0 -0.00277765)
(0.526455 1.61455e-26 -0.00263228)
(0.531856 0 -0.00265928)
)
;

boundaryField
{
    inlet
    {
        type            calculated;
        value           uniform (0 0 0);
    }
    outlet
    {
        type            calculated;
        value           uniform (0 0 0);
    }
    sideWall
    {
        type            empty;
    }
}


// ************************************************************************* //
