/*--------------------------------*- C++ -*----------------------------------*\
| =========                 |                                                 |
| \\      /  F ield         | foam-extend: Open Source CFD                    |
|  \\    /   O peration     | Version:     3.2                                |
|   \\  /    A nd           | Web:         http://www.foam-extend.org         |
|    \\/     M anipulation  | For copyright notice see file Copyright         |
\*---------------------------------------------------------------------------*/
FoamFile
{
    version     2.0;
    format      ascii;
    class       areaScalarField;
    location    "50";
    object      Uf;
}
// * * * * * * * * * * * * * * * * * * * * * * * * * * * * * * * * * * * * * //

dimensions      [0 1 -1 0 0 0 0];

internalField   nonuniform List<scalar> 
300
(
0.0932648
0.0745117
0.0641318
0.0642674
0.0632413
0.0632608
0.062768
0.0627493
0.0625706
0.0626398
0.062654
0.0627707
0.0628851
0.0630688
0.0632394
0.0634559
0.0636753
0.0639201
0.0641624
0.0644287
0.064707
0.064993
0.0652859
0.0655818
0.0658809
0.0661804
0.0664575
0.0666979
0.0669008
0.06707
0.0672116
0.0673286
0.0674266
0.067507
0.0675749
0.0676301
0.0676776
0.0677155
0.0677494
0.0677754
0.0678003
0.0678178
0.067837
0.0678488
0.067864
0.067871
0.0678835
0.0678863
0.0679006
0.0678947
0.0679185
0.0678918
0.0679431
0.0678687
0.0679952
0.0677972
0.0681235
0.0676345
0.0686028
0.0665891
0.0582752
0.0574404
0.0577662
0.0576115
0.0580092
0.057912
0.0582271
0.058154
0.0583342
0.0582727
0.0583352
0.0583983
0.0583287
0.0582392
0.0583426
0.0583361
0.058272
0.0583277
0.0583331
0.0582322
0.0582605
0.0582755
0.0582184
0.0582474
0.0582599
0.0582023
0.0582259
0.0582339
0.0581855
0.0582085
0.0582183
0.0581737
0.0581999
0.0582074
0.05817
0.0581958
0.0582005
0.0581741
0.0581885
0.0582054
0.0581781
0.0581835
0.0582055
0.0581876
0.0581798
0.0582042
0.0582005
0.0581832
0.0581945
0.0582097
0.0581961
0.0581866
0.0582028
0.0582116
0.0581987
0.0581926
0.0582051
0.0582122
0.0582085
0.0582041
0.0582058
0.0582121
0.0582156
0.0582182
0.0582199
0.0582211
0.0582221
0.0582228
0.0582239
0.0582245
0.0582247
0.0582255
0.0582265
0.0582274
0.0582282
0.0582289
0.0582303
0.0582312
0.0582327
0.0582334
0.0582343
0.0582356
0.0582352
0.0582401
0.0582351
0.0582402
0.058244
0.0582318
0.0582524
0.0582456
0.0582314
0.0582581
0.0582481
0.0582307
0.0582692
0.0582522
0.0582224
0.0582779
0.0582638
0.0582179
0.0582788
0.0582762
0.0582239
0.0582741
0.0582771
0.0582392
0.0582776
0.0582711
0.0582452
0.0582835
0.0582889
0.0582503
0.0582739
0.0582958
0.0582686
0.0582778
0.0583066
0.0582886
0.0582714
0.0583017
0.0583068
0.0582777
0.0582856
0.0583096
0.0583011
0.0582868
0.0582985
0.0583072
0.0583054
0.0582973
0.0583042
0.0583064
0.0583012
0.0583155
0.0583006
0.0582993
0.0583172
0.0582978
0.0582999
0.0583265
0.0582982
0.0583015
0.0583417
0.0583052
0.0582987
0.0583482
0.0583174
0.0582955
0.0583468
0.0583303
0.058308
0.0583431
0.0583267
0.0583185
0.0583554
0.0583285
0.0583113
0.0583558
0.0583374
0.0583206
0.0583552
0.0583328
0.0583154
0.058357
0.0583383
0.0583215
0.0583623
0.0583444
0.0583264
0.0583671
0.0583496
0.0583309
0.0583717
0.0583546
0.0583352
0.0583761
0.0583595
0.0583392
0.0583803
0.0583643
0.0583433
0.0583843
0.0583688
0.0583472
0.0583882
0.0583731
0.0583508
0.0583917
0.0583774
0.0583542
0.0583952
0.0583811
0.0583574
0.0583984
0.0583839
0.0583617
0.0583986
0.0583909
0.0583589
0.0584061
0.0583902
0.0583671
0.0584072
0.058384
0.058383
0.0583834
0.0584295
0.0583405
0.0584192
0.0583845
0.0583941
0.0584068
0.0583611
0.0584308
0.0583626
0.0584419
0.058333
0.0584369
0.0583744
0.0584318
0.0583615
0.058407
0.0583916
0.0584148
0.0583843
0.0584043
0.0583906
0.0583842
0.0583896
0.0583857
0.0583797
0.0584089
0.0583307
0.05841
0.058551
0.0649137
0.0726931
0.0701727
0.0672652
0.0678052
)
;

boundaryField
{
    inlet
    {
        type            calculated;
        value           uniform 0;
    }
    outlet
    {
        type            calculated;
        value           uniform 0;
    }
    sideWall
    {
        type            empty;
    }
}


// ************************************************************************* //
