/*--------------------------------*- C++ -*----------------------------------*\
| =========                 |                                                 |
| \\      /  F ield         | foam-extend: Open Source CFD                    |
|  \\    /   O peration     | Version:     3.2                                |
|   \\  /    A nd           | Web:         http://www.foam-extend.org         |
|    \\/     M anipulation  | For copyright notice see file Copyright         |
\*---------------------------------------------------------------------------*/
FoamFile
{
    version     2.0;
    format      ascii;
    class       areaVectorField;
    location    "50";
    object      uNormal;
}
// * * * * * * * * * * * * * * * * * * * * * * * * * * * * * * * * * * * * * //

dimensions      [0 0 0 0 0 0 0];

internalField   nonuniform List<vector> 
300
(
(0.00499994 -0 0.999988)
(0.00499994 -0 0.999988)
(0.00499994 -0 0.999988)
(0.00499994 -0 0.999988)
(0.00499994 -4.23511e-19 0.999988)
(0.00499994 -4.23511e-19 0.999988)
(0.00499994 -4.23511e-19 0.999988)
(0.00499994 -4.23511e-19 0.999988)
(0.00499994 -0 0.999988)
(0.00499994 -4.23511e-19 0.999988)
(0.00499994 -0 0.999988)
(0.00499994 4.23511e-19 0.999988)
(0.00499994 -0 0.999988)
(0.00499994 4.23511e-19 0.999988)
(0.00499994 -0 0.999988)
(0.00499994 -0 0.999988)
(0.00499994 4.23511e-19 0.999988)
(0.00499994 -4.23511e-19 0.999988)
(0.00499994 4.23511e-19 0.999988)
(0.00499994 -0 0.999988)
(0.00499994 -0 0.999988)
(0.00499994 -4.23511e-19 0.999988)
(0.00499994 -0 0.999988)
(0.00499994 -0 0.999988)
(0.00499994 -0 0.999988)
(0.00499994 -4.23511e-19 0.999988)
(0.00499994 -0 0.999988)
(0.00499994 -0 0.999988)
(0.00499994 -0 0.999988)
(0.00499994 -4.23511e-19 0.999988)
(0.00499994 -0 0.999988)
(0.00499994 -0 0.999988)
(0.00499994 -0 0.999988)
(0.00499994 -0 0.999988)
(0.00499994 -0 0.999988)
(0.00499994 -0 0.999988)
(0.00499994 -0 0.999988)
(0.00499994 -0 0.999988)
(0.00499994 -0 0.999988)
(0.00499994 -0 0.999988)
(0.00499994 -0 0.999988)
(0.00499994 -4.23511e-19 0.999988)
(0.00499994 -0 0.999988)
(0.00499994 -4.23511e-19 0.999988)
(0.00499994 -0 0.999988)
(0.00499994 -0 0.999988)
(0.00499994 -4.23511e-19 0.999988)
(0.00499994 -0 0.999988)
(0.00499994 -4.23511e-19 0.999988)
(0.00499994 -0 0.999988)
(0.00499994 -0 0.999988)
(0.00499994 -4.23511e-19 0.999988)
(0.00499994 -0 0.999988)
(0.00499994 -4.23511e-19 0.999988)
(0.00499994 -0 0.999988)
(0.00499994 -0 0.999988)
(0.00499994 -4.23511e-19 0.999988)
(0.00499994 -0 0.999988)
(0.00499994 -0 0.999988)
(0.022512 -0 0.999747)
(0.0290516 -0 0.999578)
(0.017239 -0 0.999851)
(0.0130303 -0 0.999915)
(0.00977609 -0 0.999952)
(0.00817125 -0 0.999967)
(0.00676748 -0 0.999977)
(0.0062193 -0 0.999981)
(0.00562996 -0 0.999984)
(0.00541975 4.2351e-19 0.999985)
(0.00530998 -4.23511e-19 0.999986)
(0.00496344 -0 0.999988)
(0.00491491 -4.23511e-19 0.999988)
(0.00542175 -0 0.999985)
(0.00505096 -0 0.999987)
(0.004687 -4.23512e-19 0.999989)
(0.00489932 -4.23511e-19 0.999988)
(0.00494305 -0 0.999988)
(0.00469507 4.23512e-19 0.999989)
(0.00500007 -4.23511e-19 0.999987)
(0.00508136 4.23511e-19 0.999987)
(0.00483489 4.23512e-19 0.999988)
(0.00494568 -0 0.999988)
(0.00500152 4.23511e-19 0.999987)
(0.004834 -0 0.999988)
(0.00498619 -0 0.999988)
(0.00503839 4.23511e-19 0.999987)
(0.00489864 -0 0.999988)
(0.00502551 4.23511e-19 0.999987)
(0.00505289 -0 0.999987)
(0.00491217 4.23511e-19 0.999988)
(0.00503928 -0 0.999987)
(0.0050547 -4.23511e-19 0.999987)
(0.00491511 -0 0.999988)
(0.00504286 4.23511e-19 0.999987)
(0.00503947 -0 0.999987)
(0.00492865 -0 0.999988)
(0.00502803 4.23511e-19 0.999987)
(0.00503548 -0 0.999987)
(0.00494122 4.23511e-19 0.999988)
(0.00499704 4.23511e-19 0.999988)
(0.00505125 -4.23511e-19 0.999987)
(0.00494738 -0 0.999988)
(0.00497537 -0 0.999988)
(0.00504591 -0 0.999987)
(0.00498104 -0 0.999988)
(0.00494514 4.23511e-19 0.999988)
(0.00502872 -0 0.999987)
(0.005022 -4.23511e-19 0.999987)
(0.00494645 -0 0.999988)
(0.00497334 -0 0.999988)
(0.00504241 -0 0.999987)
(0.0050007 -0 0.999987)
(0.00494435 -0 0.999988)
(0.00498235 -4.23511e-19 0.999988)
(0.0050369 -0 0.999987)
(0.0049998 -0 0.999988)
(0.00495128 -0 0.999988)
(0.00497005 -0 0.999988)
(0.00501099 -0 0.999987)
(0.00500771 -4.23511e-19 0.999987)
(0.00498197 4.23511e-19 0.999988)
(0.00496894 -0 0.999988)
(0.00497105 -0 0.999988)
(0.004976 -4.23511e-19 0.999988)
(0.00498249 4.23511e-19 0.999988)
(0.00498622 -0 0.999988)
(0.00498893 -4.23511e-19 0.999988)
(0.00499033 -0 0.999988)
(0.00499176 -0 0.999988)
(0.00499254 -0 0.999988)
(0.00499161 -0 0.999988)
(0.00499195 -0 0.999988)
(0.00499223 -0 0.999988)
(0.00499052 -0 0.999988)
(0.00499097 -0 0.999988)
(0.00499076 -0 0.999988)
(0.00498938 -0 0.999988)
(0.0049896 4.23511e-19 0.999988)
(0.00498932 -0 0.999988)
(0.0049918 -0 0.999988)
(0.00498941 -0 0.999988)
(0.00499212 -0 0.999988)
(0.00498641 4.23511e-19 0.999988)
(0.00498837 -0 0.999988)
(0.00500002 -0 0.999987)
(0.00497001 -4.23511e-19 0.999988)
(0.00500661 -0 0.999987)
(0.00498764 -0 0.999988)
(0.00495348 -0 0.999988)
(0.00503729 -0 0.999987)
(0.00497779 -0 0.999988)
(0.00495043 -0 0.999988)
(0.00504463 -0 0.999987)
(0.00496923 -0 0.999988)
(0.00492965 -4.23511e-19 0.999988)
(0.00508614 -0 0.999987)
(0.00496747 -0 0.999988)
(0.00488821 -4.23511e-19 0.999988)
(0.00509865 -0 0.999987)
(0.00500498 -0 0.999987)
(0.00485386 -0 0.999988)
(0.00507891 4.23511e-19 0.999987)
(0.00503772 -0 0.999987)
(0.00487261 4.23511e-19 0.999988)
(0.00504109 -0 0.999987)
(0.00501436 -0 0.999987)
(0.00492107 -4.23511e-19 0.999988)
(0.00504874 -0 0.999987)
(0.00498922 -0 0.999988)
(0.00489351 -0 0.999988)
(0.00502658 -0 0.999987)
(0.00504898 -4.23511e-19 0.999987)
(0.00490274 -0 0.999988)
(0.00497664 4.23511e-19 0.999988)
(0.00502819 -0 0.999987)
(0.00491959 -0 0.999988)
(0.0049411 -0 0.999988)
(0.00505879 -0 0.999987)
(0.0049891 -0 0.999988)
(0.00491872 -0 0.999988)
(0.00501751 -0 0.999987)
(0.00505026 -4.23511e-19 0.999987)
(0.00493982 -0 0.999988)
(0.00494468 -0 0.999988)
(0.00503306 -0 0.999987)
(0.00501569 -0 0.999987)
(0.00495347 -0 0.999988)
(0.00496587 -0 0.999988)
(0.00500698 -0 0.999987)
(0.00500864 -0 0.999987)
(0.00497279 -0 0.999988)
(0.00500185 -0 0.999987)
(0.00497946 -0 0.999988)
(0.0049868 -4.23511e-19 0.999988)
(0.00504233 -4.23511e-19 0.999987)
(0.0049686 -0 0.999988)
(0.00498988 4.23511e-19 0.999988)
(0.00503754 4.23511e-19 0.999987)
(0.00494628 -4.23511e-19 0.999988)
(0.00497469 -0 0.999988)
(0.00505617 -0 0.999987)
(0.00491142 4.23511e-19 0.999988)
(0.00495626 -0 0.999988)
(0.00508968 -0 0.999987)
(0.00492378 -0 0.999988)
(0.00492185 -0 0.999988)
(0.00510029 -0 0.999987)
(0.00495706 -0 0.999988)
(0.00490648 -0 0.999988)
(0.00506226 -0 0.999987)
(0.00498399 -0 0.999988)
(0.00494528 -4.23511e-19 0.999988)
(0.0050471 -0 0.999987)
(0.00494122 -0 0.999988)
(0.0049496 -0 0.999988)
(0.00508874 4.23511e-19 0.999987)
(0.00496272 -0 0.999988)
(0.00492559 -0 0.999988)
(0.00506592 4.23511e-19 0.999987)
(0.00497389 -0 0.999988)
(0.00495581 -0 0.999988)
(0.00508437 -4.23511e-19 0.999987)
(0.0049701 -4.23511e-19 0.999988)
(0.00493498 -4.23511e-19 0.999988)
(0.00506535 -4.23511e-19 0.999987)
(0.00496049 -0 0.999988)
(0.00493035 -4.23511e-19 0.999988)
(0.00506492 -0 0.999987)
(0.0049633 4.23511e-19 0.999988)
(0.00493081 -0 0.999988)
(0.00506576 -0 0.999987)
(0.00496585 -4.23511e-19 0.999988)
(0.00493092 4.23511e-19 0.999988)
(0.00506631 -0 0.999987)
(0.00496788 -0 0.999988)
(0.00493058 -4.23511e-19 0.999988)
(0.00506711 -0 0.999987)
(0.00497034 -0 0.999988)
(0.00492993 4.23511e-19 0.999988)
(0.00506719 4.23511e-19 0.999987)
(0.00497286 -0 0.999988)
(0.00492998 4.23511e-19 0.999988)
(0.00506744 4.23511e-19 0.999987)
(0.00497489 4.23511e-19 0.999988)
(0.00492984 -0 0.999988)
(0.00506804 4.23511e-19 0.999987)
(0.0049772 -0 0.999988)
(0.00492954 -0 0.999988)
(0.00506833 -4.23511e-19 0.999987)
(0.00497979 -0 0.999988)
(0.00492909 -0 0.999988)
(0.00506937 -0 0.999987)
(0.00498079 -0 0.999988)
(0.00493062 4.23511e-19 0.999988)
(0.0050676 -0 0.999987)
(0.00498525 -0 0.999988)
(0.00492926 -0 0.999988)
(0.00506524 -0 0.999987)
(0.00499717 -0 0.999988)
(0.00491319 4.23511e-19 0.999988)
(0.00508549 -0 0.999987)
(0.00496933 -0 0.999988)
(0.00495023 -0 0.999988)
(0.00505041 -0 0.999987)
(0.00500519 -0 0.999987)
(0.00493105 -4.23511e-19 0.999988)
(0.00500728 -4.23511e-19 0.999987)
(0.00511049 4.23511e-19 0.999987)
(0.0048339 -0 0.999988)
(0.00513244 -0 0.999987)
(0.00485463 4.23511e-19 0.999988)
(0.00515534 -0 0.999987)
(0.00489532 4.23511e-19 0.999988)
(0.005014 -0 0.999987)
(0.00500233 -0 0.999987)
(0.00497079 -0 0.999988)
(0.00512596 -4.23511e-19 0.999987)
(0.0047995 -0 0.999988)
(0.00513805 -0 0.999987)
(0.00486529 4.23511e-19 0.999988)
(0.00522093 -0 0.999986)
(0.00477445 -0 0.999989)
(0.00514802 -0 0.999987)
(0.00483465 -0 0.999988)
(0.00519721 -0 0.999986)
(0.00482313 -4.23512e-19 0.999988)
(0.00520391 -0 0.999986)
(0.00486195 -4.23511e-19 0.999988)
(0.0051516 -0 0.999987)
(0.00488862 4.23511e-19 0.999988)
(0.0050994 -4.23511e-19 0.999987)
(0.00492527 -0 0.999988)
(0.00504523 4.23511e-19 0.999987)
(0.00482689 -0 0.999988)
(-0.00544325 4.2351e-19 0.999985)
(-0.0296906 -0 0.999559)
(-0.0213035 -1.69368e-18 0.999773)
(0.00499994 -0 0.999988)
(0.00499994 -0 0.999988)
(0.00499994 -0 0.999988)
)
;

boundaryField
{
    inlet
    {
        type            calculated;
        value           uniform (0 0 0);
    }
    outlet
    {
        type            calculated;
        value           uniform (0 0 0);
    }
    sideWall
    {
        type            empty;
    }
}


// ************************************************************************* //
