/*--------------------------------*- C++ -*----------------------------------*\
| =========                 |                                                 |
| \\      /  F ield         | foam-extend: Open Source CFD                    |
|  \\    /   O peration     | Version:     3.2                                |
|   \\  /    A nd           | Web:         http://www.foam-extend.org         |
|    \\/     M anipulation  | For copyright notice see file Copyright         |
\*---------------------------------------------------------------------------*/
FoamFile
{
    version     2.0;
    format      ascii;
    class       areaVectorField;
    location    "50";
    object      Utau;
}
// * * * * * * * * * * * * * * * * * * * * * * * * * * * * * * * * * * * * * //

dimensions      [0 1 -1 0 0 0 0];

internalField   nonuniform List<vector> 
300
(
(0.932265 -1.48075e-25 -0.00466132)
(0.745098 2.29219e-25 -0.00372549)
(0.64131 9.19916e-26 -0.00320655)
(0.642666 0 -0.00321333)
(0.632405 -6.55174e-23 -0.00316203)
(0.6326 -1.73218e-23 -0.003163)
(0.627672 -2.49483e-23 -0.00313836)
(0.627485 -4.88724e-24 -0.00313743)
(0.625698 0 -0.00312849)
(0.626391 -4.01122e-24 -0.00313195)
(0.626532 0 -0.00313266)
(0.627699 5.59837e-24 -0.0031385)
(0.628843 -6.76909e-28 -0.00314422)
(0.63068 7.36868e-24 -0.0031534)
(0.632386 0 -0.00316193)
(0.634552 0 -0.00317276)
(0.636745 8.4334e-24 -0.00318372)
(0.639193 -7.83403e-24 -0.00319597)
(0.641616 8.67953e-24 -0.00320808)
(0.644279 0 -0.00322139)
(0.647062 0 -0.00323531)
(0.649922 -8.80448e-24 -0.00324961)
(0.652851 0 -0.00326425)
(0.65581 0 -0.00327905)
(0.658801 0 -0.003294)
(0.661796 -7.85011e-24 -0.00330898)
(0.664567 -2.89397e-27 -0.00332284)
(0.66697 0 -0.00333485)
(0.668999 0 -0.003345)
(0.670692 -3.18746e-24 -0.00335346)
(0.672107 -1.61322e-27 -0.00336054)
(0.673277 0 -0.00336639)
(0.674257 0 -0.00337129)
(0.675061 0 -0.00337531)
(0.67574 -8.12258e-28 -0.0033787)
(0.676293 0 -0.00338146)
(0.676767 0 -0.00338384)
(0.677147 -4.80845e-28 -0.00338573)
(0.677485 0 -0.00338743)
(0.677745 0 -0.00338873)
(0.677994 0 -0.00338997)
(0.67817 -2.31647e-25 -0.00339085)
(0.678361 0 -0.00339181)
(0.678479 -1.41979e-25 -0.0033924)
(0.678631 0 -0.00339316)
(0.678701 0 -0.00339351)
(0.678827 -2.13273e-25 -0.00339413)
(0.678854 0 -0.00339427)
(0.678998 -2.93439e-25 -0.00339499)
(0.678938 0 -0.00339469)
(0.679177 0 -0.00339588)
(0.67891 1.20496e-24 -0.00339455)
(0.679423 -1.08127e-28 -0.00339712)
(0.678678 3.26386e-24 -0.00339339)
(0.679944 0 -0.00339972)
(0.677963 0 -0.00338982)
(0.681227 -1.435e-23 -0.00340613)
(0.676336 0 -0.00338168)
(0.68602 0 -0.0034301)
(0.665722 -6.00548e-25 -0.0149905)
(0.582506 0 -0.0169299)
(0.574318 -1.48639e-25 -0.00990216)
(0.577613 -7.04186e-26 -0.00752711)
(0.576088 0 -0.00563215)
(0.580073 0 -0.00474008)
(0.579107 0 -0.00391919)
(0.58226 -6.47153e-27 -0.00362132)
(0.58153 0 -0.00327405)
(0.583334 -6.66051e-24 -0.00316157)
(0.582719 6.63129e-25 -0.00309427)
(0.583345 0 -0.00289543)
(0.583976 -1.3875e-24 -0.00287022)
(0.583279 0 -0.00316243)
(0.582385 0 -0.00294164)
(0.583419 5.4695e-25 -0.00273452)
(0.583354 2.09691e-24 -0.00285807)
(0.582713 -1.40035e-28 -0.00288041)
(0.583271 3.19054e-24 -0.00273852)
(0.583323 3.44692e-24 -0.00291669)
(0.582315 -2.31466e-24 -0.00295899)
(0.582598 2.93367e-24 -0.00281683)
(0.582748 0 -0.00288212)
(0.582176 -1.63745e-24 -0.0029118)
(0.582467 0 -0.00281568)
(0.582592 7.69328e-28 -0.00290495)
(0.582015 -1.32613e-24 -0.00293246)
(0.582252 0 -0.00285228)
(0.582332 -1.54807e-24 -0.00292656)
(0.581847 5.00902e-29 -0.00294005)
(0.582078 2.31949e-24 -0.0028593)
(0.582176 0 -0.00293378)
(0.58173 1.01848e-24 -0.00294051)
(0.581992 0 -0.00286059)
(0.582066 -1.40937e-24 -0.00293532)
(0.581692 0 -0.00293146)
(0.581951 0 -0.00286827)
(0.581998 -1.08492e-24 -0.00292634)
(0.581734 0 -0.00292935)
(0.581878 1.25863e-24 -0.00287522)
(0.582047 -1.10645e-25 -0.00290855)
(0.581774 1.26606e-24 -0.00293872)
(0.581828 0 -0.00287856)
(0.582048 0 -0.00289594)
(0.581868 0 -0.00293609)
(0.581791 0 -0.00289796)
(0.582035 9.2717e-25 -0.00287828)
(0.581998 0 -0.00292674)
(0.581825 2.93579e-25 -0.00292196)
(0.581938 2.81681e-28 -0.00287856)
(0.58209 -1.34897e-28 -0.00289497)
(0.581954 2.97175e-28 -0.00293449)
(0.581859 0 -0.00290973)
(0.582021 0 -0.00287775)
(0.582109 2.11684e-26 -0.00290031)
(0.581979 2.57605e-28 -0.00293141)
(0.581919 0 -0.00290952)
(0.582044 0 -0.0028819)
(0.582115 0 -0.00289318)
(0.582078 0 -0.00291683)
(0.582034 2.22403e-26 -0.00291469)
(0.582051 1.38414e-25 -0.00289979)
(0.582114 0 -0.00289253)
(0.582149 0 -0.00289392)
(0.582175 -2.59461e-26 -0.00289694)
(0.582191 4.69217e-26 -0.0029008)
(0.582203 -9.93626e-30 -0.00290303)
(0.582213 -2.94378e-26 -0.00290466)
(0.582221 0 -0.00290551)
(0.582232 0 -0.0029064)
(0.582238 0 -0.00290688)
(0.58224 0 -0.00290635)
(0.582248 0 -0.00290659)
(0.582258 0 -0.0029068)
(0.582267 0 -0.00290585)
(0.582275 0 -0.00290615)
(0.582282 0 -0.00290606)
(0.582296 0 -0.00290533)
(0.582305 2.14684e-26 -0.0029055)
(0.58232 0 -0.00290542)
(0.582326 0 -0.00290689)
(0.582335 0 -0.00290554)
(0.582348 0 -0.00290719)
(0.582345 6.94522e-26 -0.00290385)
(0.582393 0 -0.00290523)
(0.582343 9.23882e-30 -0.00291176)
(0.582394 -4.86992e-25 -0.00289454)
(0.582433 0 -0.00291605)
(0.582311 0 -0.00290439)
(0.582517 0 -0.00288552)
(0.582449 0 -0.002934)
(0.582307 -2.79868e-28 -0.00289863)
(0.582574 3.74899e-29 -0.00288403)
(0.582474 0 -0.0029384)
(0.582299 0 -0.00289362)
(0.582685 -1.46417e-24 -0.00287247)
(0.582514 0 -0.00296279)
(0.582216 0 -0.00289218)
(0.582772 -2.1686e-24 -0.00284875)
(0.582631 0 -0.00297067)
(0.582172 0 -0.0029138)
(0.582781 1.98388e-28 -0.00282877)
(0.582754 -3.00488e-24 -0.0029598)
(0.582232 3.1693e-28 -0.00293316)
(0.582735 1.9096e-24 -0.00283947)
(0.582764 0 -0.0029378)
(0.582384 2.06736e-28 -0.00292032)
(0.582769 -1.94671e-24 -0.00286788)
(0.582703 0 -0.00294196)
(0.582445 3.62205e-28 -0.00290598)
(0.582828 -4.77213e-28 -0.00285211)
(0.582881 0 -0.00292994)
(0.582496 9.85958e-25 -0.00294105)
(0.582732 0 -0.00285701)
(0.582951 -4.49471e-25 -0.00290117)
(0.582679 0 -0.00292986)
(0.582771 0 -0.00286703)
(0.583059 0 -0.00288099)
(0.582879 0 -0.0029487)
(0.582706 0 -0.00290721)
(0.58301 0 -0.0028677)
(0.583061 0 -0.00292555)
(0.58277 8.94582e-25 -0.00294317)
(0.582848 3.07188e-28 -0.0028792)
(0.583089 0 -0.00288322)
(0.583004 0 -0.00293433)
(0.582861 0 -0.00292349)
(0.582978 0 -0.0028878)
(0.583065 -1.083e-29 -0.00289546)
(0.583047 0 -0.00291934)
(0.582966 0 -0.0029199)
(0.583035 0 -0.00289935)
(0.583056 0 -0.0029164)
(0.583004 0 -0.00290308)
(0.583148 -3.59887e-25 -0.00290808)
(0.582998 8.66987e-25 -0.0029397)
(0.582986 -3.53561e-28 -0.00289666)
(0.583165 -4.28893e-26 -0.00290996)
(0.582971 -1.10825e-24 -0.00293678)
(0.582992 -1.13233e-24 -0.00288368)
(0.583258 0 -0.00290156)
(0.582975 -1.20467e-28 -0.00294766)
(0.583008 1.79898e-24 -0.00286343)
(0.58341 0 -0.00289157)
(0.583045 0 -0.00296755)
(0.58298 0 -0.0028705)
(0.583475 0 -0.00287181)
(0.583167 0 -0.00297435)
(0.582948 6.45406e-28 -0.00288974)
(0.583461 1.17057e-28 -0.00286277)
(0.583295 0 -0.00295283)
(0.583073 0 -0.00290606)
(0.583423 -1.00579e-24 -0.00288523)
(0.58326 0 -0.00294381)
(0.583178 0 -0.00288164)
(0.583547 -7.43762e-29 -0.00288836)
(0.583277 -2.17874e-24 -0.00296818)
(0.583106 0 -0.00289383)
(0.583551 0 -0.00287437)
(0.583366 -2.01333e-24 -0.00295533)
(0.583199 0 -0.0029008)
(0.583545 0 -0.00289198)
(0.58332 2.05804e-24 -0.00296585)
(0.583147 -1.10642e-24 -0.00289834)
(0.583563 -1.18234e-24 -0.00287991)
(0.583376 2.14676e-24 -0.00295504)
(0.583208 0 -0.00289303)
(0.583615 -1.18595e-24 -0.00287746)
(0.583436 0 -0.00295509)
(0.583257 1.07654e-24 -0.00289492)
(0.583664 -6.46638e-29 -0.00287797)
(0.583489 0 -0.00295585)
(0.583302 -1.04774e-24 -0.00289662)
(0.583709 1.24904e-24 -0.00287826)
(0.583538 4.66512e-28 -0.00295643)
(0.583345 0 -0.00289802)
(0.583754 -1.2819e-24 -0.00287828)
(0.583587 -4.69009e-28 -0.00295714)
(0.583385 0 -0.00289966)
(0.583796 1.31938e-24 -0.00287811)
(0.583635 -2.07906e-24 -0.00295743)
(0.583426 0 -0.00290133)
(0.583836 1.34719e-24 -0.00287833)
(0.583681 -2.06504e-24 -0.00295781)
(0.583465 8.93195e-25 -0.00290271)
(0.583875 8.94304e-29 -0.00287844)
(0.583724 -2.0561e-24 -0.00295837)
(0.583501 0 -0.00290424)
(0.58391 0 -0.00287844)
(0.583766 2.04063e-24 -0.00295876)
(0.583534 -4.22959e-28 -0.00290591)
(0.583945 0 -0.00287835)
(0.583803 0 -0.00295955)
(0.583567 0 -0.00290666)
(0.583977 1.42798e-24 -0.00287941)
(0.583831 4.677e-28 -0.00295866)
(0.58361 -4.20335e-28 -0.00290947)
(0.583979 0 -0.00287862)
(0.583902 -4.53746e-28 -0.00295764)
(0.583582 0 -0.00291629)
(0.584054 2.18847e-24 -0.0028696)
(0.583894 0 -0.00296943)
(0.583664 4.63703e-28 -0.00290046)
(0.584065 0 -0.00289129)
(0.583833 2.39747e-28 -0.00294863)
(0.583822 -6.41146e-29 -0.00292218)
(0.583827 -1.1731e-24 -0.00287892)
(0.584288 -6.41924e-26 -0.00292573)
(0.583397 -3.97538e-24 -0.00298148)
(0.584185 -5.46287e-28 -0.00282393)
(0.583838 0 -0.00299655)
(0.583934 5.40047e-24 -0.00283481)
(0.58406 1.62703e-27 -0.00301107)
(0.583604 3.43704e-24 -0.00285696)
(0.584301 0 -0.00292972)
(0.583619 0 -0.00291949)
(0.584412 -3.42598e-29 -0.00290502)
(0.583322 5.23375e-24 -0.00299012)
(0.584362 5.2834e-28 -0.00280468)
(0.583736 0 -0.0029993)
(0.584311 7.25258e-24 -0.00284288)
(0.583607 0 -0.00304701)
(0.584063 1.00174e-27 -0.00278861)
(0.583908 6.98234e-28 -0.00300601)
(0.584141 0 -0.00282415)
(0.583835 0 -0.00303435)
(0.584036 -7.58422e-24 -0.00281691)
(0.583898 0 -0.00303859)
(0.583835 -6.71129e-24 -0.00283861)
(0.583888 0 -0.00300799)
(0.58385 6.07711e-24 -0.00285425)
(0.58379 5.27971e-24 -0.00297702)
(0.584082 0 -0.00287679)
(0.583299 -1.00409e-23 -0.00294292)
(0.584093 -6.89041e-27 -0.00281939)
(0.585501 1.13375e-22 0.00318707)
(0.648851 1.38244e-24 0.0192733)
(0.726766 3.84322e-22 0.0154862)
(0.701718 0 -0.00350859)
(0.672643 2.06289e-26 -0.00336322)
(0.678044 0 -0.00339022)
)
;

boundaryField
{
    inlet
    {
        type            calculated;
        value           uniform (0 0 0);
    }
    outlet
    {
        type            calculated;
        value           uniform (0 0 0);
    }
    sideWall
    {
        type            empty;
    }
}


// ************************************************************************* //
