/*--------------------------------*- C++ -*----------------------------------*\
| =========                 |                                                 |
| \\      /  F ield         | foam-extend: Open Source CFD                    |
|  \\    /   O peration     | Version:     3.2                                |
|   \\  /    A nd           | Web:         http://www.foam-extend.org         |
|    \\/     M anipulation  | For copyright notice see file Copyright         |
\*---------------------------------------------------------------------------*/
FoamFile
{
    version     2.0;
    format      ascii;
    class       areaScalarField;
    location    "50";
    object      volA;
}
// * * * * * * * * * * * * * * * * * * * * * * * * * * * * * * * * * * * * * //

dimensions      [0 3 0 0 0 0 0];

internalField   nonuniform List<scalar> 
300
(
1.55335e-06
1.55335e-06
1.55335e-06
1.55335e-06
1.55335e-06
1.55335e-06
1.55335e-06
1.55335e-06
1.55335e-06
1.55335e-06
1.55335e-06
1.55335e-06
1.55335e-06
1.55335e-06
1.55335e-06
1.55335e-06
1.55335e-06
1.55335e-06
1.55335e-06
1.55335e-06
1.55335e-06
1.55335e-06
1.55335e-06
1.55335e-06
1.55335e-06
1.55335e-06
1.55335e-06
1.55335e-06
1.55335e-06
1.55335e-06
1.55335e-06
1.55335e-06
1.55335e-06
1.55335e-06
1.55335e-06
1.55335e-06
1.55335e-06
1.55335e-06
1.55335e-06
1.55335e-06
1.55335e-06
1.55335e-06
1.55335e-06
1.55335e-06
1.55335e-06
1.55335e-06
1.55335e-06
1.55335e-06
1.55335e-06
1.55335e-06
1.55335e-06
1.55335e-06
1.55335e-06
1.55335e-06
1.55335e-06
1.55335e-06
1.55335e-06
1.55335e-06
1.55335e-06
1.45638e-06
1.61962e-06
1.5639e-06
1.58202e-06
1.55989e-06
1.57414e-06
1.55815e-06
1.56856e-06
1.55825e-06
1.56542e-06
1.55726e-06
1.55661e-06
1.56493e-06
1.55484e-06
1.54931e-06
1.55503e-06
1.56099e-06
1.55883e-06
1.56644e-06
1.56789e-06
1.56231e-06
1.56389e-06
1.5662e-06
1.56347e-06
1.56667e-06
1.56809e-06
1.56486e-06
1.56634e-06
1.56666e-06
1.5632e-06
1.56457e-06
1.56476e-06
1.56135e-06
1.56302e-06
1.56303e-06
1.56038e-06
1.5619e-06
1.56202e-06
1.56018e-06
1.56086e-06
1.56221e-06
1.55998e-06
1.56061e-06
1.56193e-06
1.56088e-06
1.55999e-06
1.562e-06
1.56163e-06
1.56023e-06
1.56099e-06
1.56259e-06
1.5612e-06
1.56046e-06
1.56145e-06
1.56278e-06
1.56153e-06
1.56095e-06
1.56178e-06
1.56312e-06
1.56275e-06
1.56239e-06
1.56235e-06
1.56325e-06
1.56384e-06
1.56463e-06
1.56483e-06
1.56523e-06
1.56518e-06
1.5654e-06
1.56524e-06
1.56539e-06
1.56523e-06
1.5654e-06
1.56522e-06
1.5654e-06
1.56526e-06
1.56544e-06
1.56532e-06
1.56551e-06
1.56543e-06
1.56556e-06
1.56542e-06
1.56562e-06
1.56542e-06
1.5659e-06
1.56521e-06
1.56589e-06
1.56574e-06
1.56517e-06
1.5666e-06
1.5657e-06
1.56502e-06
1.56667e-06
1.5657e-06
1.56479e-06
1.56754e-06
1.56557e-06
1.56404e-06
1.5679e-06
1.56641e-06
1.56338e-06
1.56766e-06
1.5673e-06
1.56366e-06
1.5669e-06
1.56723e-06
1.56496e-06
1.5672e-06
1.56651e-06
1.56514e-06
1.56778e-06
1.56867e-06
1.56557e-06
1.56754e-06
1.56909e-06
1.56773e-06
1.56857e-06
1.57138e-06
1.56963e-06
1.56843e-06
1.57041e-06
1.57089e-06
1.56827e-06
1.56897e-06
1.57071e-06
1.5702e-06
1.56845e-06
1.5693e-06
1.56996e-06
1.56997e-06
1.56873e-06
1.56919e-06
1.5688e-06
1.56861e-06
1.56911e-06
1.56738e-06
1.56712e-06
1.56776e-06
1.56611e-06
1.56626e-06
1.56791e-06
1.5655e-06
1.56633e-06
1.56897e-06
1.56601e-06
1.5658e-06
1.56937e-06
1.56666e-06
1.56545e-06
1.56873e-06
1.56751e-06
1.56598e-06
1.56797e-06
1.56642e-06
1.5663e-06
1.5687e-06
1.56616e-06
1.56488e-06
1.56767e-06
1.56601e-06
1.56481e-06
1.56676e-06
1.56438e-06
1.56309e-06
1.56562e-06
1.56394e-06
1.56308e-06
1.56579e-06
1.56419e-06
1.56326e-06
1.56595e-06
1.56436e-06
1.56337e-06
1.56604e-06
1.56448e-06
1.56344e-06
1.56612e-06
1.56459e-06
1.56349e-06
1.56619e-06
1.56471e-06
1.56356e-06
1.56625e-06
1.56482e-06
1.56363e-06
1.56632e-06
1.56492e-06
1.56369e-06
1.56638e-06
1.56503e-06
1.56373e-06
1.56645e-06
1.56512e-06
1.56379e-06
1.56652e-06
1.56515e-06
1.56396e-06
1.56634e-06
1.56561e-06
1.56349e-06
1.5669e-06
1.5652e-06
1.56401e-06
1.56689e-06
1.56468e-06
1.5654e-06
1.56414e-06
1.56946e-06
1.56005e-06
1.56952e-06
1.56227e-06
1.56853e-06
1.56391e-06
1.56468e-06
1.56792e-06
1.56179e-06
1.57252e-06
1.5556e-06
1.57516e-06
1.55639e-06
1.57735e-06
1.5529e-06
1.57664e-06
1.55423e-06
1.57841e-06
1.55308e-06
1.57765e-06
1.5498e-06
1.57349e-06
1.55107e-06
1.5702e-06
1.55641e-06
1.56283e-06
1.56446e-06
1.55688e-06
1.66856e-06
1.6482e-06
1.4075e-06
1.55335e-06
1.55335e-06
1.55335e-06
)
;

boundaryField
{
    inlet
    {
        type            calculated;
        value           uniform 0;
    }
    outlet
    {
        type            calculated;
        value           uniform 0;
    }
    sideWall
    {
        type            empty;
    }
}


// ************************************************************************* //
