/*--------------------------------*- C++ -*----------------------------------*\
| =========                 |                                                 |
| \\      /  F ield         | foam-extend: Open Source CFD                    |
|  \\    /   O peration     | Version:     3.2                                |
|   \\  /    A nd           | Web:         http://www.foam-extend.org         |
|    \\/     M anipulation  | For copyright notice see file Copyright         |
\*---------------------------------------------------------------------------*/
FoamFile
{
    version     2.0;
    format      ascii;
    class       areaScalarField;
    location    "50";
    object      volC;
}
// * * * * * * * * * * * * * * * * * * * * * * * * * * * * * * * * * * * * * //

dimensions      [0 3 0 0 0 0 0];

internalField   nonuniform List<scalar> 
300
(
5.43673e-06
5.43673e-06
5.43673e-06
5.43673e-06
5.43673e-06
5.43673e-06
5.43673e-06
5.43673e-06
5.43673e-06
5.43673e-06
5.43673e-06
5.43673e-06
5.43673e-06
5.43673e-06
5.43673e-06
5.43673e-06
5.43673e-06
5.43673e-06
5.43673e-06
5.43673e-06
5.43673e-06
5.43673e-06
5.43673e-06
5.43673e-06
5.43673e-06
5.43673e-06
5.43673e-06
5.43673e-06
5.43673e-06
5.43673e-06
5.43673e-06
5.43673e-06
5.43673e-06
5.43673e-06
5.43673e-06
5.43673e-06
5.43673e-06
5.43673e-06
5.43673e-06
5.43673e-06
5.43673e-06
5.43673e-06
5.43673e-06
5.43673e-06
5.43673e-06
5.43673e-06
5.43673e-06
5.43673e-06
5.43673e-06
5.43673e-06
5.43673e-06
5.43673e-06
5.43673e-06
5.43673e-06
5.43673e-06
5.43673e-06
5.43673e-06
5.43673e-06
5.43673e-06
5.09734e-06
3.89523e-06
3.04166e-06
2.51639e-06
2.21815e-06
2.00513e-06
1.8976e-06
1.81251e-06
1.77657e-06
1.74314e-06
1.73305e-06
1.72686e-06
1.72158e-06
1.72326e-06
1.71696e-06
1.71778e-06
1.72216e-06
1.72826e-06
1.7297e-06
1.73587e-06
1.73941e-06
1.73991e-06
1.74309e-06
1.74714e-06
1.74804e-06
1.75112e-06
1.75374e-06
1.75383e-06
1.7554e-06
1.75689e-06
1.75639e-06
1.75741e-06
1.75848e-06
1.75755e-06
1.7586e-06
1.75918e-06
1.75846e-06
1.75942e-06
1.75966e-06
1.75957e-06
1.75975e-06
1.76077e-06
1.76017e-06
1.76078e-06
1.7613e-06
1.76151e-06
1.76134e-06
1.76237e-06
1.76249e-06
1.76251e-06
1.76292e-06
1.76392e-06
1.76357e-06
1.76396e-06
1.76446e-06
1.76522e-06
1.76487e-06
1.76527e-06
1.76589e-06
1.76673e-06
1.76662e-06
1.76692e-06
1.76724e-06
1.76814e-06
1.76867e-06
1.76951e-06
1.76989e-06
1.77056e-06
1.77086e-06
1.77146e-06
1.7717e-06
1.77225e-06
1.77249e-06
1.77306e-06
1.77331e-06
1.77391e-06
1.77419e-06
1.7748e-06
1.77513e-06
1.77574e-06
1.77607e-06
1.77668e-06
1.77694e-06
1.77768e-06
1.77782e-06
1.7788e-06
1.77886e-06
1.77959e-06
1.78031e-06
1.78035e-06
1.78147e-06
1.78177e-06
1.78191e-06
1.78301e-06
1.78357e-06
1.78334e-06
1.78491e-06
1.7851e-06
1.78484e-06
1.78666e-06
1.78709e-06
1.78633e-06
1.78838e-06
1.7891e-06
1.78809e-06
1.78993e-06
1.79081e-06
1.79018e-06
1.79162e-06
1.79204e-06
1.79232e-06
1.79343e-06
1.79464e-06
1.79387e-06
1.79533e-06
1.79657e-06
1.79703e-06
1.7977e-06
1.79945e-06
1.79945e-06
1.79977e-06
1.80089e-06
1.8018e-06
1.80135e-06
1.80249e-06
1.80355e-06
1.80408e-06
1.804e-06
1.80535e-06
1.80602e-06
1.80687e-06
1.80687e-06
1.80789e-06
1.80855e-06
1.80889e-06
1.80988e-06
1.80986e-06
1.81026e-06
1.81123e-06
1.81148e-06
1.8118e-06
1.81343e-06
1.81341e-06
1.81408e-06
1.81588e-06
1.81575e-06
1.81604e-06
1.8182e-06
1.81797e-06
1.8181e-06
1.82009e-06
1.82047e-06
1.82024e-06
1.82197e-06
1.82239e-06
1.82271e-06
1.8243e-06
1.82428e-06
1.82427e-06
1.82615e-06
1.82635e-06
1.82616e-06
1.82753e-06
1.82745e-06
1.82729e-06
1.82896e-06
1.82917e-06
1.82918e-06
1.8309e-06
1.83112e-06
1.83108e-06
1.83275e-06
1.83295e-06
1.83285e-06
1.83448e-06
1.83466e-06
1.83451e-06
1.8361e-06
1.83626e-06
1.83605e-06
1.8376e-06
1.83774e-06
1.83748e-06
1.83898e-06
1.83911e-06
1.83879e-06
1.84024e-06
1.84034e-06
1.83997e-06
1.84138e-06
1.84147e-06
1.84103e-06
1.8424e-06
1.84246e-06
1.84194e-06
1.84336e-06
1.84323e-06
1.84297e-06
1.84384e-06
1.8444e-06
1.84323e-06
1.84496e-06
1.84477e-06
1.8439e-06
1.84609e-06
1.84398e-06
1.84683e-06
1.84305e-06
1.84951e-06
1.84143e-06
1.84952e-06
1.84357e-06
1.84795e-06
1.8459e-06
1.84493e-06
1.85065e-06
1.84059e-06
1.85509e-06
1.83738e-06
1.85772e-06
1.83666e-06
1.85896e-06
1.83533e-06
1.85968e-06
1.83592e-06
1.86046e-06
1.83537e-06
1.86255e-06
1.83721e-06
1.85929e-06
1.83915e-06
1.85323e-06
1.84619e-06
1.84529e-06
1.85607e-06
2.00982e-06
3.16091e-06
4.92623e-06
5.43673e-06
5.43673e-06
5.43673e-06
)
;

boundaryField
{
    inlet
    {
        type            calculated;
        value           uniform 0;
    }
    outlet
    {
        type            calculated;
        value           uniform 0;
    }
    sideWall
    {
        type            empty;
    }
}


// ************************************************************************* //
