/*--------------------------------*- C++ -*----------------------------------*\
| =========                 |                                                 |
| \\      /  F ield         | foam-extend: Open Source CFD                    |
|  \\    /   O peration     | Version:     3.2                                |
|   \\  /    A nd           | Web:         http://www.foam-extend.org         |
|    \\/     M anipulation  | For copyright notice see file Copyright         |
\*---------------------------------------------------------------------------*/
FoamFile
{
    version     2.0;
    format      ascii;
    class       areaVectorField;
    location    "50";
    object      Wt;
}
// * * * * * * * * * * * * * * * * * * * * * * * * * * * * * * * * * * * * * //

dimensions      [1 1 -2 0 0 0 0];

internalField   nonuniform List<vector> 
300
(
(5.16563e-08 0 -2.58282e-10)
(5.16563e-08 0 -2.58282e-10)
(5.16563e-08 0 -2.58282e-10)
(5.16563e-08 0 -2.58282e-10)
(5.16563e-08 -4.37546e-24 -2.58282e-10)
(5.16563e-08 -4.37546e-24 -2.58282e-10)
(5.16563e-08 -4.37546e-24 -2.58282e-10)
(5.16563e-08 -4.37546e-24 -2.58282e-10)
(5.16563e-08 0 -2.58282e-10)
(5.16563e-08 -4.37546e-24 -2.58282e-10)
(5.16563e-08 0 -2.58282e-10)
(5.16563e-08 4.37546e-24 -2.58282e-10)
(5.16563e-08 0 -2.58282e-10)
(5.16563e-08 4.37546e-24 -2.58282e-10)
(5.16563e-08 0 -2.58282e-10)
(5.16563e-08 0 -2.58282e-10)
(5.16563e-08 4.37546e-24 -2.58282e-10)
(5.16563e-08 -4.37546e-24 -2.58282e-10)
(5.16563e-08 4.37546e-24 -2.58282e-10)
(5.16563e-08 0 -2.58282e-10)
(5.16563e-08 0 -2.58282e-10)
(5.16563e-08 -4.37546e-24 -2.58282e-10)
(5.16563e-08 0 -2.58282e-10)
(5.16563e-08 0 -2.58282e-10)
(5.16563e-08 0 -2.58282e-10)
(5.16563e-08 -4.37546e-24 -2.58282e-10)
(5.16563e-08 0 -2.58282e-10)
(5.16563e-08 0 -2.58282e-10)
(5.16563e-08 0 -2.58282e-10)
(5.16563e-08 -4.37546e-24 -2.58282e-10)
(5.16563e-08 0 -2.58282e-10)
(5.16563e-08 0 -2.58282e-10)
(5.16563e-08 0 -2.58282e-10)
(5.16563e-08 0 -2.58282e-10)
(5.16563e-08 0 -2.58282e-10)
(5.16563e-08 0 -2.58282e-10)
(5.16563e-08 0 -2.58282e-10)
(5.16563e-08 0 -2.58282e-10)
(5.16563e-08 0 -2.58282e-10)
(5.16563e-08 0 -2.58282e-10)
(5.16563e-08 0 -2.58282e-10)
(5.16563e-08 -4.37546e-24 -2.58282e-10)
(5.16563e-08 0 -2.58282e-10)
(5.16563e-08 -4.37546e-24 -2.58282e-10)
(5.16563e-08 0 -2.58282e-10)
(5.16563e-08 0 -2.58282e-10)
(5.16563e-08 -4.37546e-24 -2.58282e-10)
(5.16563e-08 0 -2.58282e-10)
(5.16563e-08 -4.37546e-24 -2.58282e-10)
(5.16563e-08 0 -2.58282e-10)
(5.16563e-08 0 -2.58282e-10)
(5.16563e-08 -4.37546e-24 -2.58282e-10)
(5.16563e-08 0 -2.58282e-10)
(5.16563e-08 -4.37546e-24 -2.58282e-10)
(5.16563e-08 0 -2.58282e-10)
(5.16563e-08 0 -2.58282e-10)
(5.16563e-08 -4.37546e-24 -2.58282e-10)
(5.16563e-08 0 -2.58282e-10)
(5.16563e-08 0 -2.58282e-10)
(2.32524e-07 0 -5.2359e-09)
(3.00021e-07 0 -8.71977e-09)
(1.78079e-07 0 -3.07036e-09)
(1.34611e-07 0 -1.75417e-09)
(1.00997e-07 0 -9.87404e-10)
(8.44186e-08 0 -6.89829e-10)
(6.99168e-08 0 -4.73171e-10)
(6.42536e-08 0 -3.9962e-10)
(5.81652e-08 0 -3.27473e-10)
(5.59934e-08 4.37544e-24 -3.03475e-10)
(5.48594e-08 -4.37545e-24 -2.91307e-10)
(5.12793e-08 0 -2.54525e-10)
(5.07779e-08 -4.37546e-24 -2.49572e-10)
(5.60141e-08 0 -3.03699e-10)
(5.21835e-08 0 -2.6358e-10)
(4.84233e-08 -4.37547e-24 -2.26963e-10)
(5.06168e-08 -4.37547e-24 -2.47991e-10)
(5.10686e-08 0 -2.52438e-10)
(4.85066e-08 4.37547e-24 -2.27744e-10)
(5.16577e-08 -4.37546e-24 -2.58295e-10)
(5.24975e-08 4.37546e-24 -2.66762e-10)
(4.99512e-08 4.37547e-24 -2.41511e-10)
(5.10958e-08 0 -2.52707e-10)
(5.16726e-08 4.37546e-24 -2.58445e-10)
(4.9942e-08 0 -2.41423e-10)
(5.15143e-08 0 -2.56864e-10)
(5.20536e-08 4.37546e-24 -2.6227e-10)
(5.06098e-08 0 -2.47922e-10)
(5.19206e-08 4.37546e-24 -2.60931e-10)
(5.22034e-08 0 -2.63782e-10)
(5.07496e-08 4.37546e-24 -2.49293e-10)
(5.20628e-08 0 -2.62362e-10)
(5.2222e-08 -4.37546e-24 -2.6397e-10)
(5.078e-08 0 -2.49592e-10)
(5.20998e-08 4.37546e-24 -2.62735e-10)
(5.20648e-08 0 -2.62382e-10)
(5.09198e-08 0 -2.50969e-10)
(5.19465e-08 4.37546e-24 -2.61192e-10)
(5.20236e-08 0 -2.61967e-10)
(5.10497e-08 4.37546e-24 -2.52251e-10)
(5.16264e-08 4.37546e-24 -2.57983e-10)
(5.21864e-08 -4.37546e-24 -2.6361e-10)
(5.11133e-08 0 -2.5288e-10)
(5.14025e-08 0 -2.55749e-10)
(5.21312e-08 0 -2.63053e-10)
(5.14611e-08 0 -2.56333e-10)
(5.10902e-08 4.37546e-24 -2.52652e-10)
(5.19537e-08 0 -2.61264e-10)
(5.18843e-08 -4.37546e-24 -2.60566e-10)
(5.11037e-08 0 -2.52785e-10)
(5.13815e-08 0 -2.55541e-10)
(5.20951e-08 0 -2.62688e-10)
(5.16642e-08 0 -2.5836e-10)
(5.1082e-08 0 -2.52571e-10)
(5.14747e-08 -4.37546e-24 -2.56468e-10)
(5.20382e-08 0 -2.62115e-10)
(5.16549e-08 0 -2.58268e-10)
(5.11537e-08 0 -2.53279e-10)
(5.13476e-08 0 -2.55203e-10)
(5.17705e-08 0 -2.59425e-10)
(5.17366e-08 -4.37546e-24 -2.59085e-10)
(5.14707e-08 4.37546e-24 -2.56428e-10)
(5.13361e-08 0 -2.55089e-10)
(5.13579e-08 0 -2.55305e-10)
(5.1409e-08 -4.37546e-24 -2.55815e-10)
(5.14761e-08 4.37546e-24 -2.56483e-10)
(5.15146e-08 0 -2.56866e-10)
(5.15426e-08 -4.37546e-24 -2.57146e-10)
(5.1557e-08 0 -2.57289e-10)
(5.15719e-08 0 -2.57438e-10)
(5.15799e-08 0 -2.57518e-10)
(5.15702e-08 0 -2.57421e-10)
(5.15738e-08 0 -2.57457e-10)
(5.15767e-08 0 -2.57486e-10)
(5.15591e-08 0 -2.5731e-10)
(5.15636e-08 0 -2.57356e-10)
(5.15615e-08 0 -2.57334e-10)
(5.15472e-08 0 -2.57192e-10)
(5.15495e-08 4.37546e-24 -2.57214e-10)
(5.15466e-08 0 -2.57186e-10)
(5.15723e-08 0 -2.57442e-10)
(5.15475e-08 0 -2.57195e-10)
(5.15755e-08 0 -2.57474e-10)
(5.15165e-08 4.37546e-24 -2.56885e-10)
(5.15368e-08 0 -2.57088e-10)
(5.16572e-08 0 -2.5829e-10)
(5.13472e-08 -4.37546e-24 -2.55199e-10)
(5.17252e-08 0 -2.58971e-10)
(5.15293e-08 0 -2.57013e-10)
(5.11763e-08 0 -2.53504e-10)
(5.20422e-08 0 -2.62155e-10)
(5.14275e-08 0 -2.55998e-10)
(5.11449e-08 0 -2.53192e-10)
(5.21181e-08 0 -2.6292e-10)
(5.13391e-08 0 -2.55119e-10)
(5.09302e-08 -4.37546e-24 -2.51071e-10)
(5.25469e-08 0 -2.67264e-10)
(5.13209e-08 0 -2.54938e-10)
(5.0502e-08 -4.37547e-24 -2.46868e-10)
(5.26761e-08 0 -2.6858e-10)
(5.17084e-08 0 -2.58803e-10)
(5.01472e-08 0 -2.43411e-10)
(5.24722e-08 4.37546e-24 -2.66505e-10)
(5.20466e-08 0 -2.622e-10)
(5.03409e-08 4.37547e-24 -2.45295e-10)
(5.20814e-08 0 -2.6255e-10)
(5.18053e-08 0 -2.59774e-10)
(5.08416e-08 -4.37546e-24 -2.50198e-10)
(5.21606e-08 0 -2.63349e-10)
(5.15456e-08 0 -2.57176e-10)
(5.05568e-08 0 -2.47403e-10)
(5.19316e-08 0 -2.61041e-10)
(5.2163e-08 -4.37546e-24 -2.63374e-10)
(5.06521e-08 0 -2.48337e-10)
(5.14156e-08 4.37546e-24 -2.5588e-10)
(5.19482e-08 0 -2.61208e-10)
(5.08263e-08 0 -2.50047e-10)
(5.10485e-08 0 -2.52239e-10)
(5.22643e-08 0 -2.64397e-10)
(5.15443e-08 0 -2.57163e-10)
(5.08173e-08 0 -2.49959e-10)
(5.18379e-08 0 -2.601e-10)
(5.21762e-08 -4.37546e-24 -2.63506e-10)
(5.10353e-08 0 -2.52108e-10)
(5.10855e-08 0 -2.52604e-10)
(5.19985e-08 0 -2.61715e-10)
(5.18191e-08 0 -2.59912e-10)
(5.11763e-08 0 -2.53503e-10)
(5.13044e-08 0 -2.54774e-10)
(5.17291e-08 0 -2.5901e-10)
(5.17463e-08 0 -2.59182e-10)
(5.13759e-08 0 -2.55485e-10)
(5.16761e-08 0 -2.58479e-10)
(5.14447e-08 0 -2.5617e-10)
(5.15206e-08 -4.37546e-24 -2.56926e-10)
(5.20942e-08 -4.37546e-24 -2.6268e-10)
(5.13325e-08 0 -2.55054e-10)
(5.15524e-08 4.37546e-24 -2.57244e-10)
(5.20448e-08 4.37546e-24 -2.62182e-10)
(5.1102e-08 -4.37546e-24 -2.52768e-10)
(5.13955e-08 0 -2.5568e-10)
(5.22373e-08 0 -2.64124e-10)
(5.07418e-08 4.37546e-24 -2.49217e-10)
(5.12051e-08 0 -2.53789e-10)
(5.25835e-08 0 -2.67637e-10)
(5.08695e-08 0 -2.50474e-10)
(5.08496e-08 0 -2.50277e-10)
(5.2693e-08 0 -2.68753e-10)
(5.12133e-08 0 -2.5387e-10)
(5.06908e-08 0 -2.48716e-10)
(5.23002e-08 0 -2.64761e-10)
(5.14915e-08 0 -2.56636e-10)
(5.10916e-08 -4.37546e-24 -2.52665e-10)
(5.21436e-08 0 -2.63177e-10)
(5.10497e-08 0 -2.52251e-10)
(5.11363e-08 0 -2.53107e-10)
(5.25737e-08 4.37546e-24 -2.67537e-10)
(5.12719e-08 0 -2.54451e-10)
(5.08882e-08 0 -2.50657e-10)
(5.2338e-08 4.37546e-24 -2.65144e-10)
(5.13872e-08 0 -2.55598e-10)
(5.12005e-08 0 -2.53743e-10)
(5.25286e-08 -4.37546e-24 -2.67078e-10)
(5.13481e-08 -4.37546e-24 -2.55209e-10)
(5.09852e-08 -4.37546e-24 -2.51614e-10)
(5.23321e-08 -4.37546e-24 -2.65083e-10)
(5.12488e-08 0 -2.54222e-10)
(5.09374e-08 -4.37546e-24 -2.51143e-10)
(5.23276e-08 0 -2.65039e-10)
(5.12778e-08 4.37546e-24 -2.5451e-10)
(5.09422e-08 0 -2.5119e-10)
(5.23364e-08 0 -2.65127e-10)
(5.13042e-08 -4.37546e-24 -2.54772e-10)
(5.09433e-08 4.37546e-24 -2.51201e-10)
(5.23421e-08 0 -2.65185e-10)
(5.13251e-08 0 -2.5498e-10)
(5.09398e-08 -4.37546e-24 -2.51166e-10)
(5.23503e-08 0 -2.65268e-10)
(5.13506e-08 0 -2.55233e-10)
(5.09331e-08 4.37546e-24 -2.511e-10)
(5.23511e-08 4.37546e-24 -2.65277e-10)
(5.13766e-08 0 -2.55492e-10)
(5.09335e-08 4.37546e-24 -2.51104e-10)
(5.23537e-08 4.37546e-24 -2.65303e-10)
(5.13976e-08 4.37546e-24 -2.55701e-10)
(5.09321e-08 0 -2.5109e-10)
(5.23599e-08 4.37546e-24 -2.65365e-10)
(5.14214e-08 0 -2.55938e-10)
(5.0929e-08 0 -2.5106e-10)
(5.23629e-08 -4.37546e-24 -2.65396e-10)
(5.14481e-08 0 -2.56204e-10)
(5.09244e-08 0 -2.51014e-10)
(5.23736e-08 0 -2.65505e-10)
(5.14586e-08 0 -2.56308e-10)
(5.09402e-08 4.37546e-24 -2.5117e-10)
(5.23553e-08 0 -2.65319e-10)
(5.15045e-08 0 -2.56766e-10)
(5.09261e-08 0 -2.51031e-10)
(5.2331e-08 0 -2.65072e-10)
(5.16277e-08 0 -2.57996e-10)
(5.07601e-08 4.37546e-24 -2.49397e-10)
(5.25402e-08 0 -2.67196e-10)
(5.13401e-08 0 -2.55129e-10)
(5.11427e-08 0 -2.53171e-10)
(5.21777e-08 0 -2.63522e-10)
(5.17105e-08 0 -2.58824e-10)
(5.09447e-08 -4.37546e-24 -2.51214e-10)
(5.17322e-08 -4.37546e-24 -2.5904e-10)
(5.27984e-08 4.37546e-24 -2.69829e-10)
(4.9941e-08 0 -2.41413e-10)
(5.30253e-08 0 -2.72153e-10)
(5.01551e-08 4.37547e-24 -2.43487e-10)
(5.32619e-08 0 -2.74587e-10)
(5.05755e-08 4.37547e-24 -2.47587e-10)
(5.18016e-08 0 -2.59736e-10)
(5.16811e-08 0 -2.58529e-10)
(5.13552e-08 0 -2.55279e-10)
(5.29582e-08 -4.37546e-24 -2.71465e-10)
(4.95855e-08 0 -2.37988e-10)
(5.30831e-08 0 -2.72747e-10)
(5.02652e-08 4.37547e-24 -2.44558e-10)
(5.39394e-08 0 -2.81617e-10)
(4.93268e-08 0 -2.35511e-10)
(5.31862e-08 0 -2.73807e-10)
(4.99488e-08 0 -2.41488e-10)
(5.36943e-08 0 -2.79064e-10)
(4.98297e-08 -4.37547e-24 -2.40337e-10)
(5.37636e-08 0 -2.79785e-10)
(5.02307e-08 -4.37547e-24 -2.44222e-10)
(5.32231e-08 0 -2.74188e-10)
(5.05063e-08 4.37547e-24 -2.46909e-10)
(5.26839e-08 -4.37546e-24 -2.6866e-10)
(5.08849e-08 0 -2.50625e-10)
(5.21243e-08 4.37546e-24 -2.62982e-10)
(4.98686e-08 0 -2.40713e-10)
(-5.62362e-08 4.37544e-24 -3.06112e-10)
(-3.06614e-07 0 -9.10756e-09)
(-2.20048e-07 -1.74943e-23 -4.68884e-09)
(5.16563e-08 0 -2.58282e-10)
(5.16563e-08 0 -2.58282e-10)
(5.16563e-08 0 -2.58282e-10)
)
;

boundaryField
{
    inlet
    {
        type            calculated;
        value           uniform (0 0 0);
    }
    outlet
    {
        type            calculated;
        value           uniform (0 0 0);
    }
    sideWall
    {
        type            empty;
    }
}


// ************************************************************************* //
