/*--------------------------------*- C++ -*----------------------------------*\
| =========                 |                                                 |
| \\      /  F ield         | foam-extend: Open Source CFD                    |
|  \\    /   O peration     | Version:     3.2                                |
|   \\  /    A nd           | Web:         http://www.foam-extend.org         |
|    \\/     M anipulation  | For copyright notice see file Copyright         |
\*---------------------------------------------------------------------------*/
FoamFile
{
    version     2.0;
    format      ascii;
    class       areaScalarField;
    location    "50";
    object      zCo;
}
// * * * * * * * * * * * * * * * * * * * * * * * * * * * * * * * * * * * * * //

dimensions      [0 1 0 0 0 0 0];

internalField   nonuniform List<scalar> 
300
(
-0.000125
-0.000375
-0.000625
-0.000875
-0.001125
-0.001375
-0.001625
-0.001875
-0.002125
-0.002375
-0.002625
-0.002875
-0.003125
-0.003375
-0.003625
-0.003875
-0.004125
-0.004375
-0.004625
-0.004875
-0.005125
-0.005375
-0.005625
-0.005875
-0.006125
-0.006375
-0.006625
-0.006875
-0.007125
-0.007375
-0.007625
-0.007875
-0.008125
-0.008375
-0.008625
-0.008875
-0.009125
-0.009375
-0.009625
-0.009875
-0.010125
-0.010375
-0.010625
-0.010875
-0.011125
-0.011375
-0.011625
-0.011875
-0.012125
-0.012375
-0.012625
-0.012875
-0.013125
-0.013375
-0.013625
-0.013875
-0.014125
-0.014375
-0.014625
-0.0153129
-0.0166025
-0.0177601
-0.0185169
-0.0190871
-0.0195358
-0.0199093
-0.020234
-0.0205302
-0.0208065
-0.0210747
-0.0213316
-0.0215785
-0.021837
-0.0220988
-0.0223422
-0.0225819
-0.0228279
-0.0230689
-0.0233113
-0.0235633
-0.0238112
-0.0240557
-0.0243044
-0.0245503
-0.0247958
-0.0250464
-0.0252949
-0.025543
-0.0257949
-0.0260441
-0.0262929
-0.0265452
-0.0267945
-0.0270434
-0.0272955
-0.0275447
-0.0277936
-0.0280452
-0.0282946
-0.0285431
-0.0287943
-0.0290443
-0.0292923
-0.0295429
-0.0297935
-0.0300417
-0.030291
-0.0305423
-0.0307915
-0.0310395
-0.0312899
-0.031541
-0.0317896
-0.0320378
-0.0322883
-0.0325392
-0.032788
-0.033036
-0.0332856
-0.033536
-0.0337858
-0.0340346
-0.0342831
-0.0345317
-0.0347807
-0.0350299
-0.0352793
-0.0355288
-0.0357783
-0.036028
-0.0362776
-0.0365272
-0.0367768
-0.0370263
-0.0372759
-0.0375254
-0.0377749
-0.0380244
-0.0382739
-0.0385234
-0.0387729
-0.0390225
-0.0392719
-0.0395213
-0.039771
-0.0400203
-0.0402697
-0.0405196
-0.0407681
-0.0410179
-0.0412682
-0.0415165
-0.0417663
-0.0420167
-0.0422642
-0.0425146
-0.0427659
-0.0430123
-0.043262
-0.0435146
-0.043761
-0.0440094
-0.0442623
-0.04451
-0.0447579
-0.0450093
-0.0452577
-0.0455069
-0.0457579
-0.0460049
-0.0462529
-0.0465048
-0.0467536
-0.0470006
-0.0472507
-0.0474994
-0.047746
-0.047996
-0.0482472
-0.0484949
-0.0487433
-0.048995
-0.0492447
-0.0494918
-0.0497413
-0.0499925
-0.0502417
-0.0504897
-0.0507391
-0.0509894
-0.051239
-0.0514884
-0.0517379
-0.051987
-0.0522378
-0.0524881
-0.052737
-0.0529877
-0.0532373
-0.0534853
-0.0537361
-0.0539853
-0.054232
-0.0544831
-0.0547335
-0.0549796
-0.0552302
-0.0554816
-0.0557282
-0.0559774
-0.0562286
-0.0564768
-0.0567266
-0.0569764
-0.0572236
-0.0574746
-0.0577259
-0.0579731
-0.0582229
-0.0584739
-0.0587221
-0.0589731
-0.0592245
-0.0594721
-0.0597221
-0.0599728
-0.0602201
-0.0604699
-0.0607207
-0.060968
-0.0612179
-0.0614687
-0.0617161
-0.0619661
-0.0622169
-0.0624644
-0.0627143
-0.0629653
-0.0632128
-0.0634627
-0.0637137
-0.0639613
-0.0642112
-0.0644623
-0.0647099
-0.0649599
-0.065211
-0.0654587
-0.0657086
-0.0659598
-0.0662076
-0.0664575
-0.0667088
-0.0669566
-0.0672065
-0.0674579
-0.0677057
-0.0679556
-0.0682072
-0.0684549
-0.0687049
-0.0689563
-0.0692043
-0.0694543
-0.0697057
-0.0699541
-0.0702025
-0.0704555
-0.0707041
-0.0709533
-0.0712029
-0.0714532
-0.0717045
-0.0719522
-0.0722026
-0.0724519
-0.0727044
-0.0729525
-0.0732009
-0.073451
-0.0737032
-0.0739531
-0.0742011
-0.0744507
-0.0747015
-0.074952
-0.0752027
-0.0754543
-0.0757047
-0.0759557
-0.0762054
-0.076456
-0.0767053
-0.0769521
-0.0769367
-0.076058
-0.0747827
-0.074375
-0.074625
-0.074875
)
;

boundaryField
{
    inlet
    {
        type            calculated;
        value           uniform 0;
    }
    outlet
    {
        type            calculated;
        value           uniform 0;
    }
    sideWall
    {
        type            empty;
    }
}


// ************************************************************************* //
