/*--------------------------------*- C++ -*----------------------------------*\
| =========                 |                                                 |
| \\      /  F ield         | foam-extend: Open Source CFD                    |
|  \\    /   O peration     | Version:     3.2                                |
|   \\  /    A nd           | Web:         http://www.foam-extend.org         |
|    \\/     M anipulation  | For copyright notice see file Copyright         |
\*---------------------------------------------------------------------------*/
FoamFile
{
    version     2.0;
    format      ascii;
    class       volScalarField;
    location    "50";
    object      zDim;
}
// * * * * * * * * * * * * * * * * * * * * * * * * * * * * * * * * * * * * * //

dimensions      [0 1 0 0 0 0 0];

internalField   nonuniform List<scalar> 
5400
(
0.00191667
0.00191667
0.00191667
0.00191667
0.00191667
0.00191667
0.00191667
0.00191667
0.00191667
0.00191667
0.00191667
0.00191667
0.00191667
0.00191667
0.00191667
0.00191667
0.00191667
0.00191667
0.00191667
0.00191667
0.00191667
0.00191667
0.00191667
0.00191667
0.00191667
0.00191667
0.00191667
0.00191667
0.00191667
0.00191667
0.00191667
0.00191667
0.00191667
0.00191667
0.00191667
0.00191667
0.00191667
0.00191667
0.00191667
0.00191667
0.00191667
0.00191667
0.00191667
0.00191667
0.00191667
0.00191667
0.00191667
0.0019167
0.0019167
0.0019167
0.0019167
0.0019167
0.0019167
0.0019167
0.0019167
0.0019167
0.0019167
0.00191669
0.00191677
0.00279164
0.00312016
0.00253028
0.00231894
0.00215615
0.00207577
0.00200557
0.0019781
0.00194864
0.0019381
0.00193261
0.0019153
0.00191285
0.00193816
0.00191968
0.00190148
0.00191205
0.00191425
0.00190187
0.00191708
0.00192117
0.00190886
0.00191438
0.00191717
0.00190881
0.0019164
0.00191902
0.00191204
0.00191837
0.00191974
0.00191272
0.00191905
0.00191983
0.00191287
0.00191923
0.00191908
0.00191354
0.00191849
0.00191887
0.00191417
0.00191695
0.00191966
0.00191448
0.00191587
0.00191939
0.00191616
0.00191436
0.00191853
0.0019182
0.00191443
0.00191576
0.00191922
0.00191714
0.00191432
0.00191621
0.00191894
0.00191709
0.00191467
0.0019156
0.00191765
0.00191749
0.0019162
0.00191555
0.00191565
0.0019159
0.00191622
0.00191641
0.00191655
0.00191662
0.00191669
0.00191673
0.00191668
0.0019167
0.00191671
0.00191663
0.00191665
0.00191664
0.00191657
0.00191658
0.00191656
0.00191669
0.00191657
0.0019167
0.00191642
0.00191652
0.0019171
0.0019156
0.00191743
0.00191648
0.00191477
0.00191896
0.00191599
0.00191462
0.00191932
0.00191557
0.00191358
0.00192139
0.00191548
0.00191151
0.00192202
0.00191735
0.0019098
0.00192103
0.00191899
0.00191074
0.00191914
0.00191782
0.00191316
0.00191952
0.00191656
0.00191178
0.00191842
0.00191954
0.00191224
0.00191592
0.0019185
0.00191308
0.00191415
0.00192003
0.00191656
0.00191304
0.00191796
0.00191961
0.00191409
0.00191433
0.00191874
0.00191788
0.00191477
0.00191539
0.00191744
0.00191753
0.00191574
0.00191719
0.00191607
0.00191643
0.00191921
0.00191553
0.00191659
0.00191897
0.00191442
0.00191583
0.0019199
0.00191268
0.0019149
0.00192157
0.0019133
0.00191319
0.0019221
0.00191496
0.00191242
0.0019202
0.0019163
0.00191436
0.00191944
0.00191416
0.00191457
0.00192152
0.00191524
0.00191338
0.00192038
0.0019158
0.00191489
0.0019213
0.00191561
0.00191384
0.00192035
0.00191513
0.00191361
0.00192033
0.00191527
0.00191364
0.00192037
0.00191539
0.00191364
0.0019204
0.00191549
0.00191362
0.00192044
0.00191562
0.00191359
0.00192044
0.00191574
0.00191359
0.00192046
0.00191584
0.00191359
0.00192048
0.00191596
0.00191357
0.0019205
0.00191609
0.00191355
0.00192055
0.00191614
0.00191363
0.00192046
0.00191636
0.00191356
0.00192034
0.00191696
0.00191276
0.00192135
0.00191557
0.0019146
0.00191961
0.00191736
0.00191365
0.00191745
0.00192261
0.00190881
0.00192369
0.00190985
0.00192484
0.00191188
0.00191778
0.00191721
0.00191563
0.00192338
0.00190709
0.00192397
0.00191038
0.00192811
0.00190585
0.00192446
0.00190885
0.00192692
0.00190828
0.00192726
0.00191022
0.00192465
0.00191154
0.00192205
0.00191337
0.00191935
0.00190841
0.00194118
0.00315206
0.00273057
0.00191515
0.00191682
0.00191669
0.00191666
0.00191666
0.00191666
0.00191666
0.00191666
0.00191666
0.00191666
0.00191666
0.00191666
0.00191666
0.00191666
0.00191666
0.00191666
0.00191666
0.00191666
0.00191666
0.00191666
0.00191666
0.00191666
0.00191666
0.00191666
0.00191666
0.00191666
0.00191666
0.00191666
0.00191666
0.00191666
0.00191666
0.00191666
0.00191666
0.00191666
0.00191666
0.00191666
0.00191666
0.00191666
0.00191666
0.00191666
0.00191666
0.00191666
0.00191666
0.00191666
0.00191666
0.00191666
0.00191666
0.00191666
0.00191666
0.00191663
0.00191663
0.00191663
0.00191663
0.00191663
0.00191663
0.00191663
0.00191663
0.0019166
0.0019166
0.00191661
0.00191651
0.00191777
0.00278935
0.00311935
0.00253365
0.00232149
0.00215911
0.00207869
0.00200867
0.00198114
0.00195177
0.00194121
0.00193571
0.00191846
0.00191601
0.00194118
0.00192284
0.00190467
0.00191515
0.00191735
0.00190505
0.00192015
0.00192425
0.00191202
0.00191747
0.00192026
0.00191195
0.00191948
0.0019221
0.00191517
0.00192144
0.00192282
0.00191584
0.00192213
0.00192292
0.00191599
0.00192231
0.00192216
0.00191666
0.00192157
0.00192196
0.00191728
0.00192004
0.00192274
0.00191759
0.00191896
0.00192247
0.00191926
0.00191746
0.00192161
0.00192129
0.00191753
0.00191886
0.00192229
0.00192023
0.00191742
0.0019193
0.00192202
0.00192019
0.00191776
0.00191869
0.00192073
0.00192057
0.00191929
0.00191864
0.00191874
0.00191898
0.00191931
0.00191949
0.00191963
0.0019197
0.00191977
0.00191981
0.00191976
0.00191978
0.00191979
0.00191971
0.00191973
0.00191972
0.00191965
0.00191966
0.00191964
0.00191977
0.00191965
0.00191978
0.0019195
0.00191959
0.00192017
0.00191869
0.0019205
0.00191956
0.00191786
0.00192201
0.00191907
0.00191771
0.00192238
0.00191865
0.00191667
0.00192443
0.00191857
0.00191461
0.00192505
0.00192043
0.00191291
0.00192406
0.00192205
0.00191385
0.00192218
0.00192088
0.00191625
0.00192257
0.00191963
0.00191487
0.00192146
0.0019226
0.00191534
0.00191898
0.00192155
0.00191616
0.00191721
0.00192306
0.00191962
0.00191611
0.00192101
0.00192265
0.00191717
0.00191739
0.00192178
0.00192094
0.00191784
0.00191844
0.00192049
0.00192058
0.0019188
0.00192023
0.00191913
0.00191949
0.00192225
0.0019186
0.00191964
0.00192201
0.00191748
0.00191888
0.00192293
0.00191575
0.00191796
0.00192459
0.00191637
0.00191625
0.00192511
0.00191802
0.00191549
0.00192321
0.00191936
0.00191742
0.00192246
0.00191722
0.00191762
0.00192453
0.0019183
0.00191643
0.00192339
0.00191885
0.00191794
0.00192432
0.00191866
0.0019169
0.00192337
0.00191818
0.00191667
0.00192334
0.00191832
0.00191669
0.00192338
0.00191844
0.00191669
0.00192341
0.00191854
0.00191668
0.00192345
0.00191867
0.00191664
0.00192345
0.00191879
0.00191664
0.00192346
0.00191889
0.00191664
0.00192349
0.001919
0.00191662
0.0019235
0.00191913
0.0019166
0.00192355
0.00191918
0.00191667
0.00192347
0.0019194
0.00191661
0.00192335
0.00191999
0.00191581
0.00192435
0.00191861
0.00191764
0.00192262
0.00192039
0.00191669
0.00192048
0.0019256
0.0019119
0.00192665
0.00191294
0.0019278
0.00191496
0.00192079
0.00192024
0.00191868
0.00192636
0.00191019
0.00192692
0.00191348
0.00193105
0.00190897
0.00192741
0.00191195
0.00192986
0.00191139
0.0019302
0.00191332
0.00192761
0.00191463
0.00192503
0.00191643
0.00192239
0.00191085
0.00194658
0.00315063
0.00272728
0.00191193
0.00191697
0.00191657
0.00191667
0.00191667
0.00191667
0.00191667
0.00191667
0.00191667
0.00191667
0.00191667
0.00191667
0.00191667
0.00191667
0.00191667
0.00191667
0.00191667
0.00191667
0.00191667
0.00191667
0.00191667
0.00191667
0.00191667
0.00191667
0.00191667
0.00191667
0.00191667
0.00191667
0.00191667
0.00191667
0.00191667
0.00191667
0.00191667
0.00191667
0.00191667
0.00191667
0.00191667
0.00191667
0.00191667
0.00191667
0.00191667
0.00191667
0.00191667
0.00191667
0.00191667
0.00191667
0.00191667
0.00191667
0.00191667
0.00191667
0.00191667
0.00191667
0.00191667
0.00191667
0.00191667
0.00191667
0.0019167
0.0019167
0.0019167
0.00191672
0.00191644
0.00192001
0.002786
0.00311756
0.00253905
0.00232636
0.00216493
0.00208465
0.00201503
0.00198749
0.0019583
0.00194774
0.00194222
0.00192509
0.00192267
0.00194759
0.00192947
0.00191138
0.0019217
0.00192388
0.00191172
0.00192665
0.00193074
0.00191864
0.001924
0.00192676
0.00191855
0.00192598
0.00192859
0.00192174
0.00192794
0.00192932
0.00192242
0.00192862
0.00192941
0.00192256
0.0019288
0.00192867
0.00192322
0.00192807
0.00192847
0.00192383
0.00192655
0.00192923
0.00192414
0.00192548
0.00192896
0.00192579
0.001924
0.00192811
0.0019278
0.00192407
0.00192538
0.00192879
0.00192675
0.00192396
0.00192582
0.00192852
0.0019267
0.00192429
0.0019252
0.00192723
0.00192708
0.0019258
0.00192515
0.00192525
0.00192549
0.00192581
0.001926
0.00192613
0.0019262
0.00192627
0.00192631
0.00192626
0.00192628
0.00192629
0.0019262
0.00192622
0.00192621
0.00192614
0.00192615
0.00192614
0.00192626
0.00192614
0.00192627
0.00192599
0.00192609
0.00192665
0.00192519
0.00192697
0.00192604
0.00192437
0.00192847
0.00192557
0.00192421
0.00192883
0.00192514
0.00192318
0.00193086
0.00192506
0.00192114
0.00193146
0.0019269
0.00191945
0.00193048
0.00192851
0.00192038
0.00192861
0.00192735
0.00192276
0.001929
0.0019261
0.00192138
0.0019279
0.00192903
0.00192184
0.00192543
0.00192798
0.00192265
0.00192368
0.00192948
0.00192608
0.00192259
0.00192744
0.00192908
0.00192364
0.00192385
0.00192821
0.00192738
0.0019243
0.00192489
0.00192692
0.00192701
0.00192525
0.00192666
0.00192557
0.00192594
0.00192866
0.00192505
0.00192608
0.00192842
0.00192395
0.00192532
0.00192932
0.00192223
0.0019244
0.00193097
0.00192284
0.0019227
0.00193147
0.00192448
0.00192195
0.00192959
0.00192579
0.00192387
0.00192885
0.00192367
0.00192406
0.0019309
0.00192474
0.00192288
0.00192977
0.00192529
0.00192438
0.00193069
0.0019251
0.00192334
0.00192974
0.00192462
0.00192311
0.00192971
0.00192475
0.00192313
0.00192975
0.00192487
0.00192313
0.00192977
0.00192497
0.00192311
0.00192981
0.00192509
0.00192308
0.00192981
0.00192521
0.00192308
0.00192982
0.0019253
0.00192307
0.00192984
0.00192541
0.00192305
0.00192985
0.00192554
0.00192303
0.0019299
0.00192559
0.0019231
0.00192982
0.0019258
0.00192303
0.0019297
0.00192638
0.00192225
0.00193068
0.00192503
0.00192405
0.00192898
0.00192678
0.00192311
0.00192686
0.00193192
0.0019184
0.00193292
0.00191944
0.00193407
0.00192142
0.00192714
0.00192662
0.0019251
0.00193266
0.00191671
0.00193318
0.00191998
0.00193728
0.00191552
0.00193365
0.00191847
0.00193611
0.00191792
0.00193644
0.00191983
0.00193389
0.00192111
0.00193135
0.00192287
0.00192882
0.00191615
0.00195519
0.00314745
0.00272227
0.00190766
0.00191744
0.00191664
0.00191667
0.00191667
0.00191667
0.00191667
0.00191667
0.00191667
0.00191667
0.00191667
0.00191667
0.00191667
0.00191667
0.00191667
0.00191667
0.00191667
0.00191667
0.00191667
0.00191667
0.00191667
0.00191667
0.00191667
0.00191667
0.00191667
0.00191667
0.00191667
0.00191667
0.00191667
0.00191667
0.00191667
0.00191667
0.00191667
0.00191667
0.00191667
0.00191667
0.00191667
0.00191667
0.00191667
0.00191667
0.00191667
0.00191667
0.00191667
0.00191667
0.00191667
0.00191667
0.00191667
0.00191667
0.00191667
0.00191667
0.00191667
0.00191667
0.00191667
0.00191667
0.00191667
0.00191667
0.00191667
0.00191667
0.00191667
0.00191671
0.00191616
0.00192292
0.00278059
0.00311362
0.00254551
0.0023329
0.00217311
0.00209324
0.00202429
0.00199681
0.00196795
0.00195742
0.0019519
0.00193495
0.00193257
0.00195714
0.00193931
0.00192136
0.00193146
0.00193362
0.00192164
0.00193634
0.00194042
0.00192848
0.00193372
0.00193644
0.00192836
0.00193566
0.00193826
0.00193152
0.00193761
0.00193898
0.00193219
0.00193829
0.00193908
0.00193234
0.00193846
0.00193835
0.00193298
0.00193775
0.00193815
0.00193358
0.00193625
0.0019389
0.00193388
0.00193519
0.00193863
0.0019355
0.00193373
0.00193778
0.00193748
0.0019338
0.00193508
0.00193845
0.00193645
0.00193368
0.00193551
0.00193818
0.00193639
0.001934
0.0019349
0.0019369
0.00193676
0.0019355
0.00193484
0.00193493
0.00193517
0.00193549
0.00193567
0.0019358
0.00193587
0.00193594
0.00193597
0.00193593
0.00193594
0.00193595
0.00193587
0.00193589
0.00193587
0.0019358
0.00193581
0.0019358
0.00193591
0.0019358
0.00193592
0.00193565
0.00193574
0.0019363
0.00193485
0.00193661
0.00193569
0.00193404
0.00193808
0.00193522
0.00193388
0.00193842
0.0019348
0.00193287
0.00194043
0.00193472
0.00193084
0.00194101
0.00193653
0.00192918
0.00194003
0.00193812
0.0019301
0.00193818
0.00193696
0.00193244
0.00193857
0.00193572
0.00193105
0.00193748
0.00193861
0.00193152
0.00193503
0.00193755
0.00193229
0.0019333
0.00193903
0.00193568
0.00193223
0.00193701
0.00193864
0.00193327
0.00193346
0.00193776
0.00193696
0.00193391
0.00193448
0.00193649
0.00193659
0.00193485
0.00193623
0.00193516
0.00193552
0.0019382
0.00193466
0.00193566
0.00193796
0.00193356
0.00193491
0.00193884
0.00193185
0.00193398
0.00194046
0.00193246
0.00193231
0.00194095
0.00193407
0.00193156
0.00193908
0.00193536
0.00193346
0.00193835
0.00193326
0.00193364
0.00194038
0.00193432
0.00193247
0.00193925
0.00193485
0.00193396
0.00194017
0.00193467
0.00193293
0.00193922
0.00193419
0.00193269
0.00193919
0.00193431
0.0019327
0.00193922
0.00193443
0.0019327
0.00193924
0.00193452
0.00193268
0.00193927
0.00193463
0.00193264
0.00193927
0.00193475
0.00193264
0.00193927
0.00193484
0.00193263
0.0019393
0.00193495
0.00193261
0.00193931
0.00193507
0.00193258
0.00193935
0.00193511
0.00193265
0.00193926
0.00193532
0.00193258
0.00193915
0.00193589
0.00193182
0.00194011
0.00193456
0.00193358
0.00193844
0.00193628
0.00193265
0.00193636
0.00194133
0.00192806
0.00194227
0.00192909
0.00194342
0.00193103
0.0019366
0.00193611
0.00193464
0.00194203
0.00192639
0.00194251
0.00192964
0.00194656
0.00192524
0.00194296
0.00192814
0.0019454
0.00192761
0.00194575
0.00192949
0.00194325
0.00193073
0.00194076
0.00193243
0.00193838
0.00192417
0.00196606
0.00314115
0.00271429
0.00190247
0.00191789
0.00191661
0.00191666
0.00191666
0.00191666
0.00191666
0.00191666
0.00191666
0.00191666
0.00191666
0.00191666
0.00191666
0.00191666
0.00191666
0.00191666
0.00191666
0.00191666
0.00191666
0.00191666
0.00191666
0.00191666
0.00191666
0.00191666
0.00191666
0.00191666
0.00191666
0.00191666
0.00191666
0.00191666
0.00191666
0.00191666
0.00191666
0.00191666
0.00191666
0.00191666
0.00191666
0.00191666
0.00191666
0.00191666
0.00191666
0.00191666
0.00191666
0.00191666
0.00191666
0.00191666
0.00191666
0.00191666
0.00191666
0.00191666
0.00191666
0.00191666
0.00191666
0.00191666
0.00191666
0.00191666
0.00191666
0.00191666
0.00191665
0.00191673
0.00191585
0.00192634
0.00277259
0.00310687
0.00255254
0.00234101
0.00218365
0.00210455
0.0020366
0.00200927
0.00198081
0.00197036
0.00196485
0.00194814
0.00194583
0.00196994
0.00195248
0.0019347
0.00194454
0.00194665
0.00193491
0.00194931
0.00195336
0.00194165
0.00194673
0.0019494
0.00194148
0.00194862
0.00195118
0.00194459
0.00195055
0.00195191
0.00194526
0.00195122
0.00195201
0.0019454
0.00195139
0.00195129
0.00194603
0.00195069
0.0019511
0.00194661
0.00194922
0.00195182
0.0019469
0.00194818
0.00195156
0.00194849
0.00194674
0.00195072
0.00195043
0.00194681
0.00194806
0.00195138
0.00194941
0.00194668
0.00194847
0.00195111
0.00194935
0.00194699
0.00194786
0.00194984
0.0019497
0.00194845
0.0019478
0.00194788
0.00194811
0.00194842
0.0019486
0.00194873
0.0019488
0.00194887
0.0019489
0.00194885
0.00194887
0.00194888
0.00194879
0.00194881
0.0019488
0.00194873
0.00194873
0.00194871
0.00194883
0.00194871
0.00194883
0.00194856
0.00194865
0.00194919
0.00194778
0.00194949
0.00194859
0.00194698
0.00195093
0.00194814
0.00194682
0.00195126
0.0019477
0.00194582
0.00195322
0.00194763
0.00194382
0.00195379
0.00194941
0.00194218
0.00195281
0.00195096
0.00194309
0.00195098
0.00194981
0.00194538
0.00195137
0.00194858
0.00194399
0.00195029
0.00195141
0.00194445
0.00194787
0.00195035
0.00194519
0.00194617
0.00195179
0.00194852
0.00194512
0.00194981
0.00195142
0.00194614
0.00194631
0.00195054
0.00194976
0.00194675
0.0019473
0.00194929
0.00194938
0.00194768
0.00194902
0.00194797
0.00194834
0.00195096
0.00194749
0.00194847
0.00195072
0.0019464
0.00194772
0.00195157
0.00194472
0.0019468
0.00195315
0.00194531
0.00194515
0.00195362
0.00194689
0.0019444
0.00195178
0.00194815
0.00194627
0.00195105
0.00194607
0.00194644
0.00195305
0.00194712
0.00194529
0.00195193
0.00194764
0.00194676
0.00195284
0.00194747
0.00194574
0.0019519
0.00194697
0.00194549
0.00195186
0.00194709
0.0019455
0.00195188
0.0019472
0.0019455
0.0019519
0.00194728
0.00194547
0.00195192
0.00194739
0.00194543
0.00195192
0.0019475
0.00194542
0.00195192
0.00194759
0.00194541
0.00195194
0.00194769
0.00194539
0.00195194
0.0019478
0.00194536
0.00195198
0.00194784
0.00194542
0.0019519
0.00194805
0.00194535
0.00195178
0.0019486
0.0019446
0.00195271
0.00194731
0.00194632
0.00195109
0.00194897
0.0019454
0.00194906
0.00195391
0.00194095
0.00195477
0.00194198
0.00195593
0.00194386
0.00194926
0.0019488
0.00194739
0.00195457
0.00193931
0.00195499
0.00194254
0.00195899
0.00193821
0.00195543
0.00194105
0.00195785
0.00194054
0.0019582
0.00194239
0.00195577
0.00194358
0.00195335
0.00194521
0.00195116
0.00193515
0.00197859
0.00313073
0.00270233
0.00189682
0.00191829
0.00191646
0.00191667
0.00191667
0.00191667
0.00191667
0.00191667
0.00191667
0.00191667
0.00191667
0.00191667
0.00191667
0.00191667
0.00191667
0.00191667
0.00191667
0.00191667
0.00191667
0.00191667
0.00191667
0.00191667
0.00191667
0.00191667
0.00191667
0.00191667
0.00191667
0.00191667
0.00191667
0.00191667
0.00191667
0.00191667
0.00191667
0.00191667
0.00191667
0.00191667
0.00191667
0.00191667
0.00191667
0.00191667
0.00191667
0.00191667
0.00191667
0.00191667
0.00191667
0.00191667
0.00191667
0.00191667
0.00191667
0.00191667
0.00191667
0.00191667
0.00191667
0.00191667
0.00191667
0.00191667
0.00191667
0.00191667
0.00191666
0.00191677
0.00191553
0.00192997
0.00276125
0.00309643
0.00255954
0.00235042
0.00219646
0.00211861
0.00205203
0.00202506
0.0019972
0.00198688
0.00198142
0.00196502
0.00196279
0.00198635
0.00196937
0.00195189
0.0019614
0.00196344
0.001952
0.00196603
0.00197003
0.0019586
0.00196349
0.00196609
0.00195837
0.00196532
0.00196784
0.00196142
0.00196722
0.00196855
0.00196207
0.00196788
0.00196866
0.00196222
0.00196804
0.00196797
0.00196283
0.00196736
0.00196777
0.00196338
0.00196593
0.00196847
0.00196367
0.0019649
0.00196821
0.00196521
0.0019635
0.00196738
0.00196711
0.00196356
0.00196477
0.00196803
0.00196611
0.00196342
0.00196517
0.00196776
0.00196604
0.00196371
0.00196456
0.0019665
0.00196638
0.00196514
0.00196449
0.00196456
0.00196479
0.00196509
0.00196527
0.00196539
0.00196546
0.00196552
0.00196555
0.00196551
0.00196552
0.00196552
0.00196544
0.00196545
0.00196544
0.00196537
0.00196537
0.00196535
0.00196546
0.00196535
0.00196546
0.00196519
0.00196528
0.0019658
0.00196443
0.00196609
0.00196521
0.00196364
0.00196748
0.00196476
0.00196347
0.0019678
0.00196433
0.0019625
0.0019697
0.00196425
0.00196053
0.00197025
0.00196599
0.00195893
0.00196928
0.0019675
0.00195981
0.00196748
0.00196636
0.00196204
0.00196786
0.00196515
0.00196066
0.0019668
0.00196791
0.0019611
0.00196441
0.00196684
0.00196179
0.00196274
0.00196824
0.00196505
0.00196171
0.00196629
0.00196788
0.00196271
0.00196286
0.001967
0.00196625
0.0019633
0.00196382
0.00196577
0.00196587
0.0019642
0.0019655
0.00196448
0.00196484
0.0019674
0.00196402
0.00196497
0.00196716
0.00196295
0.00196423
0.00196797
0.00196129
0.00196331
0.0019695
0.00196186
0.00196168
0.00196996
0.0019634
0.00196095
0.00196814
0.00196463
0.00196278
0.00196742
0.00196257
0.00196293
0.00196938
0.00196361
0.0019618
0.00196827
0.00196411
0.00196324
0.00196917
0.00196394
0.00196224
0.00196823
0.00196344
0.00196199
0.00196819
0.00196355
0.00196199
0.0019682
0.00196365
0.00196198
0.00196821
0.00196372
0.00196194
0.00196823
0.00196382
0.0019619
0.00196822
0.00196392
0.00196188
0.00196821
0.001964
0.00196186
0.00196823
0.00196409
0.00196184
0.00196823
0.0019642
0.00196181
0.00196826
0.00196424
0.00196187
0.00196817
0.00196443
0.0019618
0.00196806
0.00196497
0.00196107
0.00196896
0.00196371
0.00196273
0.00196738
0.00196533
0.00196182
0.00196542
0.00197012
0.00195754
0.00197091
0.00195856
0.00197205
0.00196037
0.00196556
0.00196514
0.0019638
0.00197074
0.00195593
0.0019711
0.00195912
0.00197502
0.00195489
0.00197152
0.00195765
0.00197391
0.00195717
0.00197427
0.00195897
0.00197192
0.00196011
0.00196958
0.00196166
0.00196761
0.00194965
0.00199258
0.00311542
0.00268565
0.00189141
0.00191888
0.00191652
0.0019167
0.0019167
0.0019167
0.0019167
0.0019167
0.0019167
0.0019167
0.00191667
0.00191667
0.00191667
0.00191667
0.00191667
0.00191667
0.00191667
0.00191667
0.00191667
0.00191667
0.00191667
0.00191667
0.00191667
0.00191667
0.00191667
0.00191667
0.00191667
0.00191667
0.00191667
0.00191667
0.00191667
0.00191667
0.00191667
0.00191667
0.00191667
0.00191667
0.00191667
0.00191667
0.00191667
0.00191667
0.00191667
0.00191667
0.00191667
0.00191667
0.00191667
0.00191667
0.00191667
0.00191667
0.00191667
0.00191667
0.00191667
0.00191667
0.00191667
0.00191667
0.00191667
0.00191667
0.00191667
0.00191667
0.00191666
0.0019168
0.00191521
0.00193353
0.00274581
0.00308134
0.0025658
0.00236081
0.00221133
0.00213532
0.00207056
0.00204413
0.00201702
0.00200692
0.00200154
0.00198554
0.00198341
0.0020063
0.00198983
0.0019727
0.00198183
0.0019838
0.0019727
0.00198628
0.00199021
0.0019791
0.00198379
0.0019863
0.00197882
0.00198553
0.00198799
0.00198178
0.00198742
0.00198873
0.00198245
0.00198807
0.00198884
0.0019826
0.00198823
0.00198817
0.00198318
0.00198757
0.00198798
0.00198372
0.00198618
0.00198865
0.00198399
0.00198517
0.00198839
0.00198548
0.00198381
0.00198757
0.00198732
0.00198386
0.00198503
0.0019882
0.00198634
0.00198371
0.00198541
0.00198793
0.00198627
0.00198399
0.00198479
0.00198669
0.00198658
0.00198537
0.00198472
0.00198478
0.001985
0.00198529
0.00198546
0.00198558
0.00198564
0.0019857
0.00198573
0.00198568
0.00198569
0.00198569
0.00198561
0.00198562
0.0019856
0.00198553
0.00198553
0.00198551
0.00198561
0.0019855
0.00198561
0.00198535
0.00198543
0.00198593
0.0019846
0.0019862
0.00198534
0.00198383
0.00198754
0.00198491
0.00198365
0.00198784
0.00198448
0.0019827
0.00198968
0.0019844
0.00198078
0.0019902
0.00198608
0.00197921
0.00198924
0.00198754
0.00198006
0.00198747
0.00198642
0.00198222
0.00198785
0.00198522
0.00198084
0.00198681
0.00198789
0.00198128
0.00198446
0.00198682
0.00198191
0.00198282
0.00198817
0.00198508
0.00198182
0.00198626
0.00198782
0.00198279
0.00198291
0.00198695
0.00198623
0.00198334
0.00198384
0.00198574
0.00198583
0.00198422
0.00198546
0.00198448
0.00198484
0.00198731
0.00198405
0.00198495
0.00198707
0.00198298
0.00198422
0.00198784
0.00198136
0.00198331
0.00198932
0.00198191
0.00198172
0.00198974
0.0019834
0.00198099
0.00198796
0.00198458
0.00198277
0.00198725
0.00198256
0.00198291
0.00198916
0.00198357
0.0019818
0.00198806
0.00198405
0.00198321
0.00198895
0.00198389
0.00198222
0.00198803
0.00198339
0.00198196
0.00198797
0.00198348
0.00198196
0.00198798
0.00198357
0.00198193
0.00198797
0.00198363
0.00198189
0.00198798
0.00198372
0.00198184
0.00198796
0.00198381
0.00198182
0.00198795
0.00198388
0.0019818
0.00198796
0.00198396
0.00198177
0.00198795
0.00198406
0.00198173
0.00198798
0.00198409
0.00198178
0.00198789
0.00198428
0.00198171
0.00198778
0.00198479
0.00198101
0.00198863
0.00198358
0.0019826
0.00198712
0.00198513
0.00198171
0.00198523
0.00198975
0.00197762
0.00199046
0.00197862
0.0019916
0.00198036
0.00198531
0.00198494
0.00198368
0.00199033
0.00197605
0.00199063
0.00197918
0.00199446
0.00197507
0.00199102
0.00197774
0.00199338
0.00197729
0.00199375
0.00197904
0.0019915
0.00198011
0.00198924
0.00198157
0.00198751
0.00196759
0.00200712
0.00309368
0.00266281
0.00188628
0.00191935
0.00191649
0.0019166
0.0019166
0.0019166
0.0019166
0.0019166
0.0019166
0.00191663
0.00191663
0.00191663
0.00191663
0.00191663
0.00191663
0.00191663
0.00191663
0.00191666
0.00191666
0.00191666
0.00191666
0.00191666
0.00191666
0.00191666
0.00191666
0.00191666
0.00191666
0.00191666
0.00191666
0.00191666
0.00191666
0.00191666
0.00191666
0.00191666
0.00191666
0.00191666
0.00191666
0.00191666
0.00191666
0.00191666
0.00191666
0.00191666
0.00191666
0.00191666
0.00191666
0.00191666
0.00191666
0.00191666
0.00191666
0.00191666
0.00191666
0.00191666
0.00191666
0.00191666
0.00191666
0.00191666
0.00191666
0.00191666
0.00191665
0.00191682
0.00191491
0.00193679
0.0027255
0.00306063
0.00257072
0.00237193
0.00222821
0.00215474
0.00209232
0.00206667
0.00204053
0.00203073
0.0020255
0.00200999
0.00200796
0.00203008
0.00201424
0.00199755
0.00200624
0.00200811
0.0019974
0.00201046
0.0020143
0.00200358
0.00200803
0.00201044
0.00200322
0.00200966
0.00201206
0.00200605
0.00201144
0.00201271
0.00200667
0.00201207
0.00201283
0.00200682
0.00201222
0.00201215
0.00200734
0.00201155
0.00201196
0.00200785
0.00201021
0.0020126
0.00200811
0.00200923
0.00201234
0.00200954
0.00200791
0.00201154
0.00201131
0.00200796
0.00200907
0.00201215
0.00201035
0.00200779
0.00200943
0.00201188
0.00201027
0.00200805
0.00200882
0.00201066
0.00201055
0.00200938
0.00200873
0.00200878
0.00200898
0.00200926
0.00200942
0.00200954
0.00200959
0.00200965
0.00200968
0.00200963
0.00200963
0.00200964
0.00200955
0.00200956
0.00200954
0.00200946
0.00200946
0.00200944
0.00200953
0.00200943
0.00200952
0.00200927
0.00200935
0.00200981
0.00200854
0.00201008
0.00200924
0.00200778
0.00201135
0.00200882
0.0020076
0.00201163
0.00200839
0.00200667
0.0020134
0.00200831
0.0020048
0.00201388
0.00200992
0.00200328
0.00201293
0.00201132
0.0020041
0.0020112
0.00201022
0.00200617
0.00201158
0.00200904
0.0020048
0.00201055
0.0020116
0.00200522
0.00200826
0.00201053
0.00200579
0.00200665
0.00201182
0.00200885
0.00200568
0.00200997
0.00201148
0.00200662
0.0020067
0.00201061
0.00200993
0.00200713
0.00200759
0.00200943
0.00200953
0.00200797
0.00200915
0.0020082
0.00200856
0.00201094
0.0020078
0.00200866
0.0020107
0.00200676
0.00200795
0.00201142
0.00200518
0.00200704
0.00201283
0.00200569
0.00200549
0.00201323
0.00200713
0.00200477
0.00201148
0.00200825
0.0020065
0.00201079
0.00200627
0.0020066
0.00201264
0.00200726
0.00200552
0.00201156
0.00200771
0.00200689
0.00201243
0.00200756
0.00200593
0.00201151
0.00200706
0.00200567
0.00201144
0.00200713
0.00200565
0.00201144
0.0020072
0.00200561
0.00201142
0.00200725
0.00200556
0.00201142
0.00200733
0.0020055
0.00201139
0.0020074
0.00200548
0.00201137
0.00200746
0.00200544
0.00201137
0.00200753
0.00200541
0.00201136
0.00200762
0.00200537
0.00201138
0.00200765
0.00200541
0.00201129
0.00200782
0.00200533
0.00201118
0.0020083
0.00200466
0.00201198
0.00200715
0.00200618
0.00201054
0.00200863
0.00200531
0.00200872
0.00201306
0.00200142
0.00201367
0.00200241
0.0020148
0.00200405
0.00200875
0.00200842
0.00200724
0.00201359
0.00199991
0.00201381
0.00200296
0.00201754
0.00199899
0.00201419
0.00200154
0.00201649
0.00200113
0.00201687
0.00200282
0.00201473
0.00200382
0.00201258
0.00200519
0.00201109
0.00198932
0.00202169
0.0030642
0.00263269
0.00188174
0.00191965
0.00191635
0.0019167
0.0019167
0.0019167
0.0019167
0.0019167
0.0019167
0.0019167
0.0019167
0.0019167
0.0019167
0.0019167
0.0019167
0.0019167
0.00191667
0.00191667
0.00191667
0.00191667
0.00191667
0.00191667
0.00191667
0.00191667
0.00191667
0.00191667
0.00191667
0.00191667
0.00191667
0.00191667
0.00191667
0.00191667
0.00191667
0.00191667
0.00191667
0.00191667
0.00191667
0.00191667
0.00191667
0.00191667
0.00191667
0.00191667
0.00191667
0.00191667
0.00191667
0.00191667
0.00191667
0.00191667
0.00191667
0.00191667
0.00191667
0.00191667
0.00191667
0.00191667
0.00191667
0.00191667
0.00191667
0.00191667
0.00191665
0.00191684
0.00191466
0.00193958
0.00269954
0.00303325
0.00257365
0.00238354
0.00224707
0.00217697
0.00211749
0.00209293
0.002068
0.00205861
0.00205358
0.00203868
0.00203676
0.00205799
0.00204289
0.00202673
0.00203494
0.00203669
0.00202642
0.00203886
0.00204259
0.00203232
0.0020365
0.00203879
0.00203188
0.002038
0.00204031
0.0020346
0.00203973
0.00204097
0.0020352
0.00204034
0.00204109
0.00203535
0.00204052
0.00204051
0.00203591
0.00203992
0.00204033
0.00203638
0.00203863
0.00204092
0.00203663
0.00203768
0.00204067
0.00203799
0.00203641
0.00203989
0.00203968
0.00203645
0.0020375
0.00204047
0.00203875
0.00203627
0.00203783
0.0020402
0.00203866
0.0020365
0.00203722
0.002039
0.0020389
0.00203777
0.00203713
0.00203716
0.00203735
0.00203761
0.00203776
0.00203787
0.00203792
0.00203797
0.00203799
0.00203794
0.00203794
0.00203794
0.00203786
0.00203786
0.00203784
0.00203776
0.00203775
0.00203773
0.00203782
0.00203771
0.0020378
0.00203755
0.00203763
0.00203806
0.00203685
0.0020383
0.0020375
0.00203611
0.00203951
0.0020371
0.00203592
0.00203976
0.00203666
0.00203502
0.00204144
0.00203657
0.0020332
0.00204188
0.00203811
0.00203173
0.00204095
0.00203944
0.00203251
0.00203927
0.00203836
0.00203448
0.00203963
0.00203721
0.00203313
0.00203862
0.00203965
0.00203352
0.00203639
0.00203857
0.00203402
0.00203482
0.00203978
0.00203695
0.00203389
0.00203799
0.00203946
0.00203479
0.00203484
0.00203859
0.00203796
0.00203525
0.00203567
0.00203744
0.00203754
0.00203605
0.00203716
0.00203626
0.0020366
0.00203888
0.00203588
0.0020367
0.00203864
0.00203487
0.00203599
0.00203931
0.00203333
0.00203509
0.00204064
0.00203381
0.00203359
0.002041
0.00203518
0.00203289
0.0020393
0.00203623
0.00203454
0.00203863
0.00203431
0.00203462
0.00204039
0.00203525
0.00203357
0.00203933
0.00203568
0.00203489
0.00204018
0.00203553
0.00203396
0.00203929
0.00203503
0.00203368
0.0020392
0.00203509
0.00203365
0.00203918
0.00203514
0.0020336
0.00203915
0.00203518
0.00203354
0.00203914
0.00203523
0.00203347
0.0020391
0.00203529
0.00203343
0.00203907
0.00203534
0.00203339
0.00203905
0.0020354
0.00203335
0.00203903
0.00203547
0.0020333
0.00203904
0.00203549
0.00203334
0.00203895
0.00203565
0.00203326
0.00203884
0.0020361
0.00203261
0.00203959
0.002035
0.00203404
0.00203822
0.00203641
0.00203321
0.00203649
0.00204061
0.00202954
0.00204114
0.0020305
0.00204225
0.00203205
0.00203647
0.00203617