/*--------------------------------*- C++ -*----------------------------------*\
| =========                 |                                                 |
| \\      /  F ield         | foam-extend: Open Source CFD                    |
|  \\    /   O peration     | Version:     3.2                                |
|   \\  /    A nd           | Web:         http://www.foam-extend.org         |
|    \\/     M anipulation  | For copyright notice see file Copyright         |
\*---------------------------------------------------------------------------*/
FoamFile
{
    version     2.0;
    format      ascii;
    class       volScalarField;
    location    "37";
    object      nut;
}
// * * * * * * * * * * * * * * * * * * * * * * * * * * * * * * * * * * * * * //

dimensions      [0 2 -1 0 0 0 0];

internalField   nonuniform List<scalar> 
96000
(
0.000133293
0.000106227
8.82923e-05
7.89944e-05
7.59941e-05
7.48668e-05
7.4095e-05
7.33396e-05
7.25384e-05
7.17134e-05
7.09295e-05
7.01954e-05
6.95099e-05
6.88752e-05
6.82899e-05
6.77496e-05
6.72454e-05
6.67745e-05
6.63457e-05
6.60832e-05
6.58368e-05
6.55951e-05
6.53567e-05
6.51255e-05
6.49039e-05
6.46898e-05
6.44825e-05
6.42796e-05
6.40845e-05
6.38958e-05
6.37143e-05
6.35372e-05
6.33655e-05
6.31982e-05
6.30366e-05
6.28806e-05
6.27279e-05
6.25806e-05
6.24354e-05
6.22955e-05
6.21589e-05
6.20265e-05
6.18972e-05
6.17709e-05
6.16478e-05
6.15275e-05
6.14109e-05
6.12967e-05
6.1185e-05
6.10762e-05
6.0969e-05
6.08651e-05
6.07631e-05
6.06637e-05
6.05662e-05
6.04705e-05
6.03773e-05
6.02836e-05
6.01889e-05
6.00956e-05
6.0004e-05
5.99145e-05
5.98267e-05
5.97406e-05
5.96564e-05
5.95738e-05
5.94927e-05
5.94131e-05
5.93349e-05
5.92582e-05
5.9183e-05
5.91091e-05
5.90366e-05
5.89652e-05
5.88951e-05
5.88262e-05
5.87584e-05
5.86919e-05
5.86264e-05
5.8562e-05
5.84987e-05
5.84363e-05
5.8375e-05
5.83146e-05
5.82552e-05
5.81968e-05
5.81391e-05
5.80824e-05
5.80265e-05
5.79714e-05
5.79172e-05
5.78638e-05
5.78111e-05
5.77593e-05
5.7708e-05
5.76576e-05
5.76079e-05
5.75588e-05
5.75105e-05
5.74628e-05
5.74157e-05
5.73693e-05
5.73235e-05
5.72783e-05
5.72337e-05
5.71896e-05
5.71462e-05
5.71034e-05
5.7061e-05
5.70192e-05
5.69779e-05
5.69372e-05
5.68969e-05
5.68572e-05
5.6818e-05
5.67792e-05
5.67409e-05
5.6703e-05
5.66656e-05
5.66286e-05
5.6592e-05
5.65559e-05
5.65202e-05
5.64849e-05
5.64499e-05
5.64152e-05
5.63808e-05
5.63467e-05
5.6313e-05
5.62797e-05
5.62467e-05
5.62143e-05
5.61824e-05
5.6151e-05
5.61201e-05
5.60897e-05
5.60598e-05
5.60303e-05
5.60011e-05
5.59722e-05
5.59436e-05
5.59151e-05
5.58867e-05
5.58585e-05
5.58304e-05
5.58024e-05
5.57747e-05
5.57471e-05
5.57197e-05
5.56926e-05
5.56659e-05
5.56394e-05
5.56133e-05
5.55875e-05
5.55621e-05
5.5537e-05
5.55123e-05
5.54878e-05
5.54635e-05
5.54396e-05
5.54158e-05
5.53923e-05
5.5369e-05
5.53459e-05
5.5323e-05
5.53002e-05
5.52777e-05
5.52553e-05
5.52332e-05
5.52113e-05
5.51895e-05
5.5168e-05
5.51466e-05
5.51255e-05
5.51046e-05
5.50838e-05
5.50633e-05
5.50429e-05
5.50228e-05
5.50028e-05
5.4983e-05
5.49634e-05
5.49439e-05
5.49246e-05
5.49055e-05
5.48866e-05
5.48678e-05
5.48492e-05
5.48307e-05
5.48124e-05
5.47943e-05
5.47763e-05
5.47585e-05
5.47409e-05
5.47233e-05
5.4706e-05
5.46888e-05
5.46717e-05
5.46548e-05
5.4638e-05
5.46213e-05
5.46048e-05
5.45885e-05
5.45722e-05
5.45561e-05
5.45402e-05
5.45244e-05
5.45087e-05
5.44931e-05
5.44777e-05
5.44624e-05
5.44472e-05
5.44322e-05
5.44172e-05
5.44024e-05
5.43877e-05
5.43732e-05
5.43587e-05
5.43444e-05
5.43302e-05
5.43161e-05
5.43021e-05
5.42882e-05
5.42745e-05
5.42608e-05
5.42473e-05
5.42338e-05
5.42205e-05
5.42073e-05
5.41942e-05
5.41811e-05
5.41682e-05
5.41554e-05
5.41427e-05
5.41301e-05
5.41176e-05
5.41052e-05
5.40929e-05
5.40807e-05
5.40686e-05
5.40565e-05
5.40446e-05
5.40328e-05
5.4021e-05
5.40093e-05
5.39978e-05
5.39863e-05
5.39749e-05
5.39636e-05
5.39524e-05
5.39413e-05
5.39302e-05
5.39193e-05
5.39084e-05
5.38976e-05
5.38869e-05
5.38763e-05
5.38658e-05
5.38552e-05
5.38449e-05
5.38346e-05
5.38244e-05
5.38142e-05
5.38042e-05
5.37941e-05
5.37843e-05
5.37743e-05
5.37647e-05
5.37549e-05
5.37453e-05
5.37357e-05
5.37263e-05
5.37168e-05
5.37076e-05
5.36982e-05
5.36891e-05
5.36799e-05
5.36709e-05
5.36618e-05
5.3653e-05
5.3644e-05
5.36353e-05
5.36264e-05
5.36178e-05
5.3609e-05
5.36005e-05
5.35918e-05
5.35834e-05
5.35748e-05
5.35663e-05
5.35577e-05
5.35495e-05
5.35406e-05
5.35323e-05
5.3526e-05
5.35149e-05
5.35192e-05
5.34911e-05
5.35146e-05
5.34492e-05
9.19619e-05
0.00013619
0.000148935
0.000161679
0.000171816
0.000178851
0.000183419
0.000185981
0.000187203
0.000187553
0.000187556
0.000187287
0.000186855
0.000186314
0.00018572
0.000185108
0.000184462
0.000183819
0.000183173
0.000182567
0.000181961
0.00018136
0.000180768
0.000180194
0.000179635
0.000179091
0.000178559
0.000178042
0.000177543
0.000177056
0.000176585
0.000176122
0.000175675
0.000175239
0.000174817
0.000174405
0.000174003
0.000173613
0.00017323
0.000172861
0.000172498
0.000172147
0.000171802
0.000171466
0.000171137
0.000170817
0.000170505
0.000170199
0.000169901
0.000169608
0.000169322
0.000169042
0.000168769
0.000168501
0.000168238
0.000167981
0.000167729
0.000167474
0.000167215
0.000166963
0.000166715
0.000166472
0.000166234
0.000166001
0.000165772
0.000165547
0.000165327
0.000165111
0.000164898
0.000164689
0.000164485
0.000164283
0.000164086
0.000163891
0.0001637
0.000163512
0.000163328
0.000163146
0.000162968
0.000162792
0.000162619
0.000162449
0.000162281
0.000162116
0.000161954
0.000161794
0.000161636
0.000161481
0.000161328
0.000161178
0.000161029
0.000160883
0.000160739
0.000160597
0.000160457
0.000160319
0.000160183
0.000160048
0.000159916
0.000159785
0.000159656
0.000159529
0.000159404
0.00015928
0.000159157
0.000159037
0.000158918
0.0001588
0.000158684
0.000158569
0.000158456
0.000158344
0.000158234
0.000158125
0.000158017
0.000157911
0.000157805
0.000157701
0.000157599
0.000157497
0.000157397
0.000157297
0.000157199
0.000157102
0.000157006
0.000156911
0.000156817
0.000156724
0.000156632
0.000156541
0.000156451
0.000156362
0.000156275
0.000156188
0.000156103
0.000156019
0.000155936
0.000155854
0.000155773
0.000155693
0.000155613
0.000155534
0.000155456
0.000155378
0.000155301
0.000155225
0.000155149
0.000155074
0.000154999
0.000154925
0.000154852
0.00015478
0.000154709
0.000154638
0.000154568
0.000154499
0.000154431
0.000154363
0.000154296
0.00015423
0.000154165
0.0001541
0.000154035
0.000153972
0.000153909
0.000153846
0.000153784
0.000153723
0.000153662
0.000153601
0.000153541
0.000153482
0.000153424
0.000153365
0.000153308
0.000153251
0.000153194
0.000153138
0.000153083
0.000153028
0.000152973
0.000152919
0.000152865
0.000152812
0.00015276
0.000152708
0.000152656
0.000152605
0.000152554
0.000152503
0.000152454
0.000152404
0.000152355
0.000152306
0.000152258
0.00015221
0.000152163
0.000152116
0.000152069
0.000152023
0.000151977
0.000151932
0.000151887
0.000151842
0.000151798
0.000151754
0.00015171
0.000151667
0.000151624
0.000151582
0.00015154
0.000151498
0.000151457
0.000151416
0.000151375
0.000151334
0.000151294
0.000151255
0.000151215
0.000151176
0.000151137
0.000151099
0.00015106
0.000151023
0.000150985
0.000150948
0.000150911
0.000150874
0.000150838
0.000150802
0.000150766
0.00015073
0.000150695
0.00015066
0.000150625
0.000150591
0.000150557
0.000150523
0.000150489
0.000150456
0.000150423
0.00015039
0.000150357
0.000150325
0.000150293
0.000150261
0.00015023
0.000150198
0.000150167
0.000150136
0.000150106
0.000150075
0.000150045
0.000150015
0.000149986
0.000149956
0.000149927
0.000149898
0.000149869
0.000149841
0.000149812
0.000149784
0.000149756
0.000149729
0.000149701
0.000149674
0.000149647
0.00014962
0.000149593
0.000149567
0.000149541
0.000149514
0.000149489
0.000149463
0.000149438
0.000149412
0.000149388
0.000149362
0.000149339
0.000149313
0.00014929
0.000149264
0.000149242
0.000149217
0.000149195
0.000149169
0.000149148
0.000149123
0.000149102
0.000149077
0.000149057
0.000149031
0.000149011
0.000148986
0.000148965
0.000148942
0.00014892
0.000148895
0.000148871
0.000148812
7.17215e-05
0.00010217
0.000144052
0.000171421
0.000198422
0.000221697
0.000240769
0.000252407
0.000260135
0.000265909
0.000270188
0.000273374
0.000275787
0.000277667
0.000279086
0.000280127
0.000280892
0.000281457
0.00028187
0.000282117
0.000282227
0.000282241
0.000282192
0.000282092
0.000281937
0.000281736
0.000281503
0.000281248
0.00028098
0.000280691
0.000280383
0.000280063
0.000279735
0.000279406
0.000279072
0.000278731
0.000278386
0.000278039
0.000277693
0.00027735
0.000277007
0.000276663
0.000276321
0.00027598
0.000275644
0.000275311
0.000274981
0.000274652
0.000274326
0.000274003
0.000273684
0.00027337
0.00027306
0.000272752
0.000272447
0.000272146
0.000271849
0.000271555
0.000271265
0.000270979
0.000270696
0.000270417
0.000270141
0.000269868
0.0002696
0.000269334
0.000269071
0.000268812
0.000268555
0.000268302
0.000268053
0.000267806
0.000267563
0.000267323
0.000267085
0.000266851
0.000266619
0.000266391
0.000266165
0.000265943
0.000265722
0.000265505
0.00026529
0.000265078
0.000264869
0.000264662
0.000264457
0.000264256
0.000264056
0.000263859
0.000263664
0.000263472
0.000263282
0.000263094
0.000262908
0.000262724
0.000262543
0.000262364
0.000262186
0.000262011
0.000261838
0.000261667
0.000261497
0.00026133
0.000261164
0.000261
0.000260839
0.000260678
0.00026052
0.000260363
0.000260208
0.000260055
0.000259903
0.000259753
0.000259604
0.000259457
0.000259312
0.000259168
0.000259025
0.000258884
0.000258745
0.000258607
0.00025847
0.000258334
0.0002582
0.000258067
0.000257936
0.000257806
0.000257677
0.00025755
0.000257424
0.000257301
0.000257178
0.000257058
0.000256939
0.000256821
0.000256705
0.00025659
0.000256475
0.000256362
0.000256249
0.000256136
0.000256024
0.000255913
0.000255802
0.000255692
0.000255583
0.000255474
0.000255367
0.000255261
0.000255156
0.000255053
0.000254951
0.00025485
0.00025475
0.000254651
0.000254553
0.000254457
0.000254361
0.000254266
0.000254172
0.000254079
0.000253986
0.000253895
0.000253803
0.000253713
0.000253624
0.000253535
0.000253447
0.000253359
0.000253273
0.000253187
0.000253102
0.000253018
0.000252934
0.000252852
0.00025277
0.000252688
0.000252608
0.000252528
0.000252449
0.00025237
0.000252292
0.000252215
0.000252138
0.000252062
0.000251987
0.000251913
0.000251838
0.000251765
0.000251692
0.00025162
0.000251548
0.000251477
0.000251407
0.000251337
0.000251268
0.000251199
0.000251131
0.000251063
0.000250996
0.00025093
0.000250864
0.000250798
0.000250733
0.000250669
0.000250605
0.000250542
0.000250479
0.000250417
0.000250355
0.000250294
0.000250233
0.000250172
0.000250113
0.000250053
0.000249994
0.000249936
0.000249878
0.00024982
0.000249763
0.000249707
0.00024965
0.000249595
0.000249539
0.000249485
0.00024943
0.000249376
0.000249322
0.000249269
0.000249217
0.000249164
0.000249112
0.000249061
0.00024901
0.000248959
0.000248909
0.000248859
0.000248809
0.00024876
0.000248711
0.000248663
0.000248614
0.000248567
0.000248519
0.000248473
0.000248426
0.00024838
0.000248334
0.000248288
0.000248243
0.000248198
0.000248154
0.00024811
0.000248066
0.000248022
0.000247979
0.000247936
0.000247894
0.000247852
0.00024781
0.000247768
0.000247727
0.000247686
0.000247645
0.000247605
0.000247565
0.000247526
0.000247486
0.000247447
0.000247409
0.00024737
0.000247332
0.000247294
0.000247257
0.000247219
0.000247183
0.000247146
0.00024711
0.000247073
0.000247038
0.000247002
0.000246968
0.000246931
0.000246898
0.000246862
0.00024683
0.000246794
0.000246762
0.000246726
0.000246696
0.000246659
0.000246629
0.000246595
0.000246563
0.000246531
0.000246502
0.000246461
0.000246428
0.000246325
5.97194e-05
7.63585e-05
0.000104338
0.00014181
0.000172465
0.00020221
0.000230766
0.000257217
0.000279133
0.000298143
0.00031115
0.000320772
0.000328785
0.000335578
0.000341283
0.000346066
0.000350122
0.000353604
0.000356612
0.000359173
0.000361355
0.000363235
0.000364871
0.000366292
0.000367512
0.00036856
0.000369466
0.000370254
0.000370941
0.000371524
0.000372018
0.000372435
0.000372788
0.000373089
0.000373336
0.000373532
0.000373684
0.000373799
0.000373882
0.00037394
0.000373968
0.000373971
0.00037395
0.00037391
0.000373855
0.000373786
0.000373701
0.000373602
0.000373491
0.000373369
0.000373239
0.000373102
0.000372957
0.000372804
0.000372645
0.00037248
0.000372311
0.000372138
0.000371961
0.00037178
0.000371596
0.000371409
0.000371219
0.000371028
0.000370836
0.000370641
0.000370445
0.000370247
0.000370049
0.00036985
0.000369651
0.000369452
0.000369253
0.000369053
0.000368853
0.000368653
0.000368455
0.000368257
0.000368059
0.000367862
0.000367665
0.000367469
0.000367274
0.000367079
0.000366886
0.000366694
0.000366503
0.000366313
0.000366123
0.000365935
0.000365748
0.000365562
0.000365378
0.000365194
0.000365012
0.000364831
0.000364651
0.000364472
0.000364295
0.000364119
0.000363944
0.00036377
0.000363597
0.000363426
0.000363256
0.000363087
0.00036292
0.000362754
0.000362589
0.000362425
0.000362262
0.000362101
0.000361941
0.000361782
0.000361625
0.000361468
0.000361313
0.000361158
0.000361005
0.000360854
0.000360703
0.000360554
0.000360406
0.000360259
0.000360113
0.000359969
0.000359826
0.000359684
0.000359544
0.000359406
0.000359268
0.000359133
0.000358999
0.000358866
0.000358735
0.000358605
0.000358475
0.000358347
0.000358218
0.00035809
0.000357963
0.000357836
0.000357709
0.000357582
0.000357457
0.000357332
0.000357208
0.000357085
0.000356963
0.000356842
0.000356723
0.000356605
0.000356489
0.000356374
0.00035626
0.000356147
0.000356036
0.000355925
0.000355815
0.000355706
0.000355598
0.000355491
0.000355384
0.000355278
0.000355173
0.000355069
0.000354965
0.000354862
0.00035476
0.000354659
0.000354558
0.000354459
0.00035436
0.000354262
0.000354165
0.000354068
0.000353973
0.000353878
0.000353784
0.00035369
0.000353597
0.000353505
0.000353414
0.000353324
0.000353234
0.000353144
0.000353056
0.000352968
0.000352881
0.000352795
0.000352709
0.000352624
0.000352539
0.000352455
0.000352372
0.00035229
0.000352208
0.000352126
0.000352046
0.000351966
0.000351886
0.000351807
0.000351729
0.000351651
0.000351574
0.000351498
0.000351422
0.000351347
0.000351272
0.000351198
0.000351124
0.000351051
0.000350979
0.000350907
0.000350835
0.000350765
0.000350694
0.000350625
0.000350555
0.000350487
0.000350418
0.000350351
0.000350283
0.000350217
0.000350151
0.000350085
0.00035002
0.000349955
0.000349891
0.000349827
0.000349764
0.000349701
0.000349639
0.000349577
0.000349516
0.000349455
0.000349394
0.000349334
0.000349275
0.000349216
0.000349157
0.000349099
0.000349041
0.000348984
0.000348927
0.00034887
0.000348814
0.000348759
0.000348703
0.000348649
0.000348594
0.00034854
0.000348486
0.000348433
0.00034838
0.000348328
0.000348276
0.000348225
0.000348173
0.000348123
0.000348072
0.000348022
0.000347972
0.000347923
0.000347874
0.000347826
0.000347778
0.00034773
0.000347682
0.000347635
0.000347589
0.000347542
0.000347497
0.000347451
0.000347406
0.000347361
0.000347317
0.000347272
0.000347229
0.000347185
0.000347143
0.0003471
0.000347058
0.000347015
0.000346975
0.000346932
0.000346892
0.00034685
0.000346812
0.000346769
0.000346732
0.000346689
0.000346652
0.000346612
0.000346573
0.000346536
0.000346504
0.000346453
0.000346417
0.000346284
5.34164e-05
6.02925e-05
7.42523e-05
9.8501e-05
0.000132542
0.000164556
0.000191909
0.000221567
0.000250138
0.000278282
0.00030281
0.000324655
0.000343585
0.00036008
0.000372936
0.000382772
0.000391404
0.000399054
0.000405859
0.000411852
0.000417156
0.000421891
0.000426143
0.000429964
0.000433385
0.000436461
0.000439239
0.00044176
0.000444052
0.000446122
0.000447998
0.000449702
0.000451257
0.000452681
0.000453976
0.000455153
0.000456224
0.000457203
0.000458099
0.00045892
0.000459667
0.000460346
0.000460965
0.000461528
0.000462045
0.000462516
0.000462943
0.000463327
0.000463675
0.000463988
0.000464273
0.000464529
0.000464758
0.000464961
0.000465139
0.000465296
0.000465435
0.000465555
0.000465658
0.000465744
0.000465814
0.00046587
0.000465913
0.000465945
0.000465965
0.000465974
0.000465972
0.00046596
0.00046594
0.000465912
0.000465877
0.000465835
0.000465786
0.00046573
0.000465669
0.000465602
0.000465531
0.000465456
0.000465375
0.000465291
0.000465203
0.000465111
0.000465016
0.000464919
0.000464818
0.000464716
0.00046461
0.000464502
0.000464393
0.000464281
0.000464168
0.000464053
0.000463937
0.000463819
0.0004637
0.00046358
0.000463459
0.000463337
0.000463214
0.000463091
0.000462966
0.000462842
0.000462716
0.00046259
0.000462464
0.000462337
0.00046221
0.000462083
0.000461956
0.000461828
0.0004617
0.000461573
0.000461445
0.000461318
0.00046119
0.000461063
0.000460935
0.000460808
0.000460681
0.000460555
0.000460429
0.000460303
0.000460178
0.000460053
0.000459929
0.000459806
0.000459684
0.000459562
0.000459441
0.000459321
0.000459202
0.000459084
0.000458966
0.000458849
0.000458732
0.000458615
0.000458498
0.000458381
0.000458264
0.000458147
0.000458029
0.000457912
0.000457794
0.000457677
0.00045756
0.000457443
0.000457328
0.000457213
0.000457099
0.000456986
0.000456875
0.000456764
0.000456654
0.000456545
0.000456437
0.00045633
0.000456224
0.000456118
0.000456013
0.000455909
0.000455805
0.000455702
0.000455599
0.000455497
0.000455395
0.000455294
0.000455193
0.000455093
0.000454994
0.000454895
0.000454797
0.0004547
0.000454603
0.000454507
0.000454411
0.000454316
0.000454222
0.000454128
0.000454035
0.000453942
0.000453851
0.000453759
0.000453668
0.000453578
0.000453489
0.0004534
0.000453311
0.000453223
0.000453136
0.000453049
0.000452963
0.000452878
0.000452793
0.000452708
0.000452625
0.000452541
0.000452458
0.000452376
0.000452295
0.000452213
0.000452133
0.000452053
0.000451973
0.000451894
0.000451816
0.000451738
0.000451661
0.000451584
0.000451508
0.000451432
0.000451357
0.000451282
0.000451208
0.000451134
0.000451061
0.000450989
0.000450916
0.000450845
0.000450774
0.000450703
0.000450633
0.000450563
0.000450494
0.000450425
0.000450357
0.000450289
0.000450222
0.000450155
0.000450088
0.000450023
0.000449957
0.000449892
0.000449828
0.000449764
0.0004497
0.000449637
0.000449574
0.000449512
0.00044945
0.000449389
0.000449328
0.000449267
0.000449207
0.000449147
0.000449088
0.000449029
0.000448971
0.000448913
0.000448855
0.000448798
0.000448741
0.000448685
0.000448629
0.000448574
0.000448519
0.000448464
0.00044841
0.000448356
0.000448302
0.000448249
0.000448197
0.000448144
0.000448092
0.000448041
0.00044799
0.000447939
0.000447889
0.000447839
0.000447789
0.000447741
0.000447692
0.000447643
0.000447595
0.000447548
0.000447501
0.000447454
0.000447408
0.000447362
0.000447316
0.000447271
0.000447226
0.000447182
0.000447138
0.000447094
0.000447051
0.000447007
0.000446966
0.000446922
0.000446882
0.000446838
0.000446799
0.000446754
0.000446716
0.000446674
0.000446634
0.000446597
0.000446565
0.000446512
0.000446477
0.000446328
5.38767e-05
5.16072e-05
5.68098e-05
6.83613e-05
8.9202e-05
0.000119236
0.000155716
0.000179574
0.000206509
0.000234907
0.000262757
0.00029129
0.000317162
0.000341434
0.00036355
0.000382959
0.000400396
0.000415986
0.000429834
0.000440014
0.000449199
0.000457544
0.000465159
0.000472103
0.000478414
0.000484175
0.000489457
0.000494318
0.000498796
0.000502909
0.000506698
0.000510198
0.00051344
0.000516451
0.000519239
0.000521821
0.000524219
0.000526451
0.000528534
0.000530478
0.000532286
0.000533972
0.000535546
0.000537017
0.000538398
0.000539689
0.000540897
0.000542024
0.000543081
0.000544072
0.000545003
0.000545877
0.000546695
0.000547461
0.000548179
0.000548853
0.000549488
0.000550083
0.000550641
0.000551163
0.000551652
0.000552111
0.000552542
0.000552946
0.000553324
0.000553677
0.000554006
0.000554313
0.0005546
0.000554869
0.000555119
0.000555352
0.000555568
0.000555768
0.000555954
0.000556126
0.000556286
0.000556433
0.000556568
0.000556692
0.000556805
0.000556908
0.000557001
0.000557086
0.000557163
0.000557231
0.000557291
0.000557344
0.000557389
0.000557428
0.000557462
0.000557489
0.00055751
0.000557526
0.000557536
0.000557542
0.000557543
0.00055754
0.000557532
0.000557521
0.000557505
0.000557486
0.000557463
0.000557437
0.000557408
0.000557375
0.00055734
0.000557303
0.000557262
0.000557219
0.000557174
0.000557126
0.000557077
0.000557025
0.000556972
0.000556917
0.00055686
0.000556801
0.000556742
0.00055668
0.000556618
0.000556555
0.000556491
0.000556426
0.000556361
0.000556295
0.000556229
0.000556162
0.000556095
0.000556028
0.000555959
0.00055589
0.00055582
0.000555749
0.000555676
0.000555602
0.000555528
0.000555451
0.000555374
0.000555295
0.000555216
0.000555136
0.000555055
0.000554974
0.000554893
0.000554811
0.00055473
0.000554649
0.000554569
0.000554488
0.000554408
0.000554328
0.000554249
0.000554169
0.00055409
0.000554011
0.000553932
0.000553853
0.000553774
0.000553696
0.000553617
0.000553538
0.00055346
0.000553381
0.000553303
0.000553224
0.000553146
0.000553068
0.00055299
0.000552913
0.000552835
0.000552758
0.000552681
0.000552604
0.000552528
0.000552452
0.000552376
0.0005523
0.000552225
0.000552149
0.000552074
0.000552
0.000551925
0.000551851
0.000551777
0.000551704
0.000551631
0.000551558
0.000551485
0.000551413
0.000551341
0.000551269
0.000551197
0.000551126
0.000551056
0.000550985
0.000550915
0.000550845
0.000550775
0.000550706
0.000550637
0.000550569
0.000550501
0.000550433
0.000550366
0.000550299
0.000550232
0.000550166
0.0005501
0.000550034
0.000549969
0.000549904
0.000549839
0.000549775
0.000549711
0.000549647
0.000549584
0.000549521
0.000549459
0.000549397
0.000549335
0.000549274
0.000549212
0.000549152
0.000549091
0.000549031
0.000548972
0.000548913
0.000548854
0.000548795
0.000548737
0.000548679
0.000548622
0.000548564
0.000548508
0.000548451
0.000548395
0.000548339
0.000548284
0.000548229
0.000548174
0.00054812
0.000548066
0.000548013
0.000547959
0.000547906
0.000547854
0.000547802
0.00054775
0.000547698
0.000547647
0.000547596
0.000547546
0.000547496
0.000547446
0.000547396
0.000547347
0.000547299
0.00054725
0.000547202
0.000547154
0.000547107
0.00054706
0.000547014
0.000546967
0.000546921
0.000546875
0.000546831
0.000546785
0.000546741
0.000546697
0.000546653
0.000546609
0.000546567
0.000546524
0.000546482
0.000546439
0.000546398
0.000546357
0.000546316
0.000546276
0.000546236
0.000546196
0.000546157
0.000546118
0.000546079
0.000546042
0.000546002
0.000545966
0.000545926
0.000545892
0.000545851
0.000545817
0.000545779
0.000545743
0.00054571
0.000545684
0.000545635
0.000545608
0.000545452
6.74576e-05
4.9982e-05
4.83926e-05
5.19879e-05
6.15063e-05
7.87796e-05
0.000105067
0.000137379
0.000170187
0.000192404
0.000217598
0.000244748
0.000271224
0.000299169
0.000325636
0.000350802
0.000374808
0.000396787
0.000417153
0.000435659
0.000452353
0.00046746
0.000481387
0.000493373
0.000503052
0.000511984
0.000520259
0.000527947
0.000535087
0.0005417
0.000547845
0.000553569
0.000558917
0.000563921
0.000568592
0.000572959
0.000577049
0.000580889
0.0005845
0.000587895
0.000591083
0.000594083
0.000596909
0.000599576
0.000602098
0.000604477
0.000606723
0.000608845
0.000610853
0.000612755
0.000614559
0.000616269
0.000617888
0.000619424
0.00062088
0.000622264
0.000623581
0.000624832
0.000626021
0.00062715
0.000628224
0.000629245
0.000630219
0.000631147
0.00063203
0.00063287
0.000633669
0.00063443
0.000635156
0.000635849
0.000636509
0.000637138
0.000637738
0.000638309
0.000638853
0.000639374
0.00063987
0.000640344
0.000640795
0.000641226
0.000641636
0.000642027
0.000642401
0.000642758
0.000643099
0.000643423
0.000643732
0.000644027
0.000644307
0.000644575
0.000644831
0.000645074
0.000645306
0.000645526
0.000645736
0.000645935
0.000646125
0.000646306
0.000646478
0.000646641
0.000646795
0.000646941
0.00064708
0.000647211
0.000647336
0.000647454
0.000647565
0.00064767
0.000647768
0.000647861
0.000647949
0.000648031
0.000648108
0.00064818
0.000648248
0.000648311
0.00064837
0.000648425
0.000648476
0.000648523
0.000648567
0.000648608
0.000648646
0.000648681
0.000648714
0.000648744
0.000648772
0.000648798
0.000648821
0.000648841
0.000648859
0.000648873
0.000648884
0.000648892
0.000648897
0.000648898
0.000648897
0.000648893
0.000648886
0.000648877
0.000648866
0.000648853
0.000648839
0.000648824
0.000648807
0.000648789
0.000648771
0.000648751
0.000648731
0.000648709
0.000648687
0.000648663
0.000648639
0.000648614
0.000648588
0.000648561
0.000648533
0.000648504
0.000648475
0.000648444
0.000648413
0.000648382
0.000648349
0.000648316
0.000648283
0.000648248
0.000648214
0.000648178
0.000648142
0.000648106
0.000648069
0.000648032
0.000647994
0.000647956
0.000647918
0.000647879
0.00064784
0.0006478
0.00064776
0.00064772
0.00064768
0.000647639
0.000647598
0.000647557
0.000647516
0.000647474
0.000647432
0.00064739
0.000647348
0.000647306
0.000647264
0.000647221
0.000647179
0.000647136
0.000647093
0.00064705
0.000647007
0.000646964
0.000646921
0.000646878
0.000646835
0.000646792
0.000646749
0.000646706
0.000646663
0.00064662
0.000646576
0.000646534
0.000646491
0.000646448
0.000646405
0.000646362
0.000646319
0.000646277
0.000646234
0.000646191
0.000646149
0.000646107
0.000646064
0.000646022
0.00064598
0.000645938
0.000645897
0.000645855
0.000645813
0.000645772
0.000645731
0.00064569
0.000645649
0.000645608
0.000645567
0.000645527
0.000645486
0.000645446
0.000645406
0.000645366
0.000645326
0.000645287
0.000645247
0.000645208
0.000645169
0.000645131
0.000645092
0.000645053
0.000645015
0.000644977
0.000644939
0.000644902
0.000644864
0.000644827
0.00064479
0.000644753
0.000644716
0.00064468
0.000644644
0.000644608
0.000644572
0.000644536
0.000644501
0.000644466
0.000644431
0.000644396
0.000644362
0.000644328
0.000644294
0.000644261
0.000644227
0.000644194
0.000644161
0.000644128
0.000644096
0.000644064
0.000644032
0.000644001
0.000643969
0.000643939
0.000643908
0.000643878
0.000643848
0.000643819
0.000643789
0.00064376
0.000643731
0.000643703
0.000643675
0.000643647
0.00064362
0.000643592
0.000643566
0.000643537
0.000643513
0.000643483
0.000643459
0.000643431
0.000643404
0.000643381
0.000643368
0.000643328
0.000643315
0.000643163
0.000107646
5.91573e-05
4.83499e-05
4.56602e-05
4.77461e-05
5.50382e-05
6.90201e-05
9.057e-05
0.000118681
0.000151092
0.000181939
0.000203175
0.000226679
0.000252075
0.000277146
0.000303675
0.000330379
0.000355617
0.000380326
0.00040398
0.000426054
0.000446733
0.000466096
0.000483978
0.000500339
0.000515431
0.000529317
0.000542216
0.00055365
0.000563085
0.000571916
0.000580199
0.000587989
0.00059532
0.000602197
0.000608661
0.00061475
0.000620499
0.000625932
0.000631066
0.000635914
0.0006405
0.000644844
0.000648963
0.000652877
0.000656588
0.000660111
0.000663457
0.000666641
0.000669672
0.000672561
0.000675312
0.000677933
0.000680432
0.000682816
0.000685094
0.000687272
0.000689353
0.000691341
0.000693241
0.00069506
0.000696801
0.00069847
0.000700069
0.0007016
0.000703067
0.000704473
0.000705821
0.000707116
0.000708359
0.000709553
0.000710698
0.000711798
0.000712855
0.00071387
0.000714848
0.000715788
0.000716692
0.000717561
0.000718397
0.000719202
0.000719976
0.000720723
0.000721442
0.000722135
0.000722802
0.000723445
0.000724064
0.000724661
0.000725236
0.000725792
0.000726327
0.000726844
0.000727341
0.000727821
0.000728284
0.000728732
0.000729163
0.00072958
0.000729982
0.000730369
0.000730743
0.000731104
0.000731452
0.000731789
0.000732114
0.000732428
0.00073273
0.000733022
0.000733304
0.000733577
0.00073384
0.000734094
0.00073434
0.000734577
0.000734806
0.000735027
0.000735241
0.000735448
0.000735649
0.000735843
0.000736031
0.000736213
0.00073639
0.000736562
0.000736728
0.00073689
0.000737047
0.000737198
0.000737344
0.000737483
0.000737617
0.000737745
0.000737867
0.000737983
0.000738094
0.0007382
0.000738301
0.000738398
0.000738491
0.00073858
0.000738666
0.00073875
0.00073883
0.000738909
0.000738984
0.000739057
0.000739128
0.000739195
0.000739261
0.000739323
0.000739383
0.000739441
0.000739496
0.000739548
0.000739599
0.000739647
0.000739693
0.000739738
0.00073978
0.000739821
0.00073986
0.000739897
0.000739932
0.000739966
0.000739998
0.000740029
0.000740058
0.000740085
0.000740112
0.000740136
0.00074016
0.000740182
0.000740202
0.000740222
0.00074024
0.000740257
0.000740273
0.000740288
0.000740302
0.000740314
0.000740326
0.000740337
0.000740346
0.000740355
0.000740363
0.00074037
0.000740377
0.000740382
0.000740387
0.00074039
0.000740394
0.000740396
0.000740398
0.000740399
0.000740399
0.000740399
0.000740398
0.000740396
0.000740394
0.000740391
0.000740388
0.000740385
0.000740381
0.000740376
0.000740371
0.000740366
0.00074036
0.000740353
0.000740347
0.00074034
0.000740332
0.000740324
0.000740316
0.000740308
0.000740299
0.00074029
0.00074028
0.00074027
0.00074026
0.00074025
0.00074024
0.000740229
0.000740218
0.000740207
0.000740196
0.000740184
0.000740172
0.00074016
0.000740148
0.000740136
0.000740123
0.000740111
0.000740098
0.000740085
0.000740073
0.00074006
0.000740046
0.000740033
0.00074002
0.000740007
0.000739993
0.00073998
0.000739966
0.000739952
0.000739939
0.000739925
0.000739911
0.000739897
0.000739884
0.00073987
0.000739856
0.000739842
0.000739828
0.000739814
0.0007398
0.000739786
0.000739773
0.000739759
0.000739745
0.000739731
0.000739718
0.000739704
0.000739691
0.000739677
0.000739664
0.000739651
0.000739638
0.000739624
0.000739612
0.000739599
0.000739587
0.000739573
0.000739562
0.000739549
0.000739538
0.000739525
0.000739514
0.000739502
0.000739492
0.00073948
0.00073947
0.000739459
0.000739449
0.000739438
0.000739428
0.000739419
0.000739408
0.0007394
0.000739388
0.000739381
0.000739368
0.000739361
0.00073935
0.000739339
0.000739333
0.000739336
0.000739313
0.00073932
0.000739179
0.00011349
8.73522e-05
6.02479e-05
4.92565e-05
4.48093e-05
4.49544e-05
4.98533e-05
6.03753e-05
7.72057e-05
0.00010064
0.000129381
0.000161164
0.000192618
0.000212635
0.000234436
0.000257985
0.000282022
0.000306549
0.000332548
0.000357588
0.000382284
0.000406589
0.000429696
0.000451701
0.000472836
0.000492731
0.00051131
0.000528811
0.000545243
0.000560366
0.000574388
0.000587563
0.00059982
0.000611336
0.000620646
0.000629442
0.000637769
0.000645668
0.000653166
0.000660277
0.000667016
0.000673416
0.0006795
0.000685295
0.000690818
0.000696075
0.000701082
0.000705856
0.000710414
0.000714769