/*--------------------------------*- C++ -*----------------------------------*\
| =========                 |                                                 |
| \\      /  F ield         | foam-extend: Open Source CFD                    |
|  \\    /   O peration     | Version:     3.2                                |
|   \\  /    A nd           | Web:         http://www.foam-extend.org         |
|    \\/     M anipulation  | For copyright notice see file Copyright         |
\*---------------------------------------------------------------------------*/
FoamFile
{
    version     2.0;
    format      ascii;
    class       areaVectorField;
    location    "37";
    object      Ub2;
}
// * * * * * * * * * * * * * * * * * * * * * * * * * * * * * * * * * * * * * //

dimensions      [0 1 -1 0 0 0 0];

internalField   nonuniform List<vector> 
300
(
(1.94961 0 0)
(1.70115 0 0)
(1.35641 0 0)
(1.19512 0 0)
(1.12979 0 0)
(1.09436 0 0)
(1.06816 0 0)
(1.04483 0 0)
(1.023 0 0)
(1.0029 0 0)
(0.984699 0 0)
(0.968219 0 0)
(0.953131 0 0)
(0.939523 0 0)
(0.927154 0 0)
(0.915806 0 0)
(0.905338 0 0)
(0.895598 0 0)
(0.886613 0 0)
(0.878362 0 0)
(0.870651 0 0)
(0.863362 0 0)
(0.856479 0 0)
(0.84998 0 0)
(0.843854 0 0)
(0.838025 0 0)
(0.832492 0 0)
(0.827205 0 0)
(0.822177 0 0)
(0.81739 0 0)
(0.812804 0 0)
(0.808416 0 0)
(0.804193 0 0)
(0.800146 0 0)
(0.796257 0 0)
(0.792527 0 0)
(0.78892 0 0)
(0.785446 0 0)
(0.782088 0 0)
(0.778841 0 0)
(0.775716 0 0)
(0.772679 0 0)
(0.769749 0 0)
(0.766896 0 0)
(0.764135 0 0)
(0.761453 0 0)
(0.758856 0 0)
(0.75633 0 0)
(0.753869 0 0)
(0.75148 0 0)
(0.749147 0 0)
(0.74688 0 0)
(0.744672 0 0)
(0.74252 0 0)
(0.740422 0 0)
(0.73837 0 0)
(0.73637 0 0)
(0.734407 0 0)
(0.73248 0 0)
(0.730596 0 0)
(0.728753 0 0)
(0.726953 0 0)
(0.725193 0 0)
(0.723471 0 0)
(0.721786 0 0)
(0.720138 0 0)
(0.718523 0 0)
(0.716941 0 0)
(0.71539 0 0)
(0.71387 0 0)
(0.71238 0 0)
(0.710919 0 0)
(0.709486 0 0)
(0.708079 0 0)
(0.706697 0 0)
(0.705343 0 0)
(0.704011 0 0)
(0.702704 0 0)
(0.701421 0 0)
(0.700159 0 0)
(0.698919 0 0)
(0.6977 0 0)
(0.696501 0 0)
(0.695324 0 0)
(0.694163 0 0)
(0.693025 0 0)
(0.691903 0 0)
(0.690799 0 0)
(0.689714 0 0)
(0.688643 0 0)
(0.687591 0 0)
(0.686555 0 0)
(0.685534 0 0)
(0.68453 0 0)
(0.683539 0 0)
(0.682563 0 0)
(0.681602 0 0)
(0.680654 0 0)
(0.679721 0 0)
(0.678801 0 0)
(0.677893 0 0)
(0.676999 0 0)
(0.676117 0 0)
(0.675247 0 0)
(0.674389 0 0)
(0.673543 0 0)
(0.672708 0 0)
(0.671885 0 0)
(0.671072 0 0)
(0.67027 0 0)
(0.669479 0 0)
(0.668697 0 0)
(0.667926 0 0)
(0.667165 0 0)
(0.666414 0 0)
(0.665673 0 0)
(0.66494 0 0)
(0.664216 0 0)
(0.663502 0 0)
(0.662797 0 0)
(0.662099 0 0)
(0.661411 0 0)
(0.660731 0 0)
(0.660059 0 0)
(0.659395 0 0)
(0.658738 0 0)
(0.658089 0 0)
(0.657446 0 0)
(0.65681 0 0)
(0.656181 0 0)
(0.655557 0 0)
(0.65494 0 0)
(0.65433 0 0)
(0.653727 0 0)
(0.653131 0 0)
(0.652542 0 0)
(0.651961 0 0)
(0.651387 0 0)
(0.650821 0 0)
(0.650262 0 0)
(0.649711 0 0)
(0.649167 0 0)
(0.648629 0 0)
(0.648097 0 0)
(0.647571 0 0)
(0.647049 0 0)
(0.646533 0 0)
(0.646022 0 0)
(0.645514 0 0)
(0.645011 0 0)
(0.644513 0 0)
(0.644018 0 0)
(0.643529 0 0)
(0.643043 0 0)
(0.642562 0 0)
(0.642086 0 0)
(0.641615 0 0)
(0.641149 0 0)
(0.640687 0 0)
(0.640231 0 0)
(0.639779 0 0)
(0.639332 0 0)
(0.63889 0 0)
(0.638452 0 0)
(0.638019 0 0)
(0.63759 0 0)
(0.637164 0 0)
(0.636744 0 0)
(0.636327 0 0)
(0.635914 0 0)
(0.635504 0 0)
(0.635099 0 0)
(0.634697 0 0)
(0.634299 0 0)
(0.633905 0 0)
(0.633514 0 0)
(0.633127 0 0)
(0.632743 0 0)
(0.632363 0 0)
(0.631987 0 0)
(0.631614 0 0)
(0.631244 0 0)
(0.630878 0 0)
(0.630515 0 0)
(0.630155 0 0)
(0.629799 0 0)
(0.629445 0 0)
(0.629095 0 0)
(0.628748 0 0)
(0.628404 0 0)
(0.628063 0 0)
(0.627725 0 0)
(0.62739 0 0)
(0.627058 0 0)
(0.626729 0 0)
(0.626403 0 0)
(0.626079 0 0)
(0.625759 0 0)
(0.625441 0 0)
(0.625125 0 0)
(0.624813 0 0)
(0.624503 0 0)
(0.624196 0 0)
(0.623891 0 0)
(0.623589 0 0)
(0.62329 0 0)
(0.622992 0 0)
(0.622698 0 0)
(0.622406 0 0)
(0.622116 0 0)
(0.621829 0 0)
(0.621544 0 0)
(0.621262 0 0)
(0.620982 0 0)
(0.620704 0 0)
(0.620428 0 0)
(0.620155 0 0)
(0.619884 0 0)
(0.619615 0 0)
(0.619349 0 0)
(0.619084 0 0)
(0.618822 0 0)
(0.618561 0 0)
(0.618304 0 0)
(0.618047 0 0)
(0.617794 0 0)
(0.617541 0 0)
(0.617292 0 0)
(0.617043 0 0)
(0.616798 0 0)
(0.616554 0 0)
(0.616312 0 0)
(0.616071 0 0)
(0.615834 0 0)
(0.615597 0 0)
(0.615363 0 0)
(0.61513 0 0)
(0.6149 0 0)
(0.61467 0 0)
(0.614444 0 0)
(0.614218 0 0)
(0.613995 0 0)
(0.613773 0 0)
(0.613554 0 0)
(0.613334 0 0)
(0.613119 0 0)
(0.612902 0 0)
(0.61269 0 0)
(0.612477 0 0)
(0.612268 0 0)
(0.612059 0 0)
(0.611853 0 0)
(0.611647 0 0)
(0.611444 0 0)
(0.611241 0 0)
(0.611042 0 0)
(0.610842 0 0)
(0.610645 0 0)
(0.610448 0 0)
(0.610254 0 0)
(0.610061 0 0)
(0.60987 0 0)
(0.60968 0 0)
(0.609491 0 0)
(0.609304 0 0)
(0.609117 0 0)
(0.608935 0 0)
(0.60875 0 0)
(0.608571 0 0)
(0.608387 0 0)
(0.608212 0 0)
(0.60803 0 0)
(0.607859 0 0)
(0.607678 0 0)
(0.607512 0 0)
(0.607331 0 0)
(0.607169 0 0)
(0.606989 0 0)
(0.606832 0 0)
(0.606651 0 0)
(0.6065 0 0)
(0.606318 0 0)
(0.606172 0 0)
(0.605989 0 0)
(0.605848 0 0)
(0.605664 0 0)
(0.605527 0 0)
(0.605342 0 0)
(0.605209 0 0)
(0.605023 0 0)
(0.604892 0 0)
(0.604706 0 0)
(0.604575 0 0)
(0.604384 0 0)
(0.604276 0 0)
(0.604052 0 0)
(0.604032 0 0)
(0.603712 0 0)
(0.603829 0 0)
(0.603206 0 0)
)
;

boundaryField
{
    inlet
    {
        type            calculated;
        value           uniform (0 0 0);
    }
    outlet
    {
        type            calculated;
        value           uniform (0 0 0);
    }
    sideWall
    {
        type            empty;
    }
}


// ************************************************************************* //
