/*--------------------------------*- C++ -*----------------------------------*\
| =========                 |                                                 |
| \\      /  F ield         | foam-extend: Open Source CFD                    |
|  \\    /   O peration     | Version:     3.2                                |
|   \\  /    A nd           | Web:         http://www.foam-extend.org         |
|    \\/     M anipulation  | For copyright notice see file Copyright         |
\*---------------------------------------------------------------------------*/
FoamFile
{
    version     2.0;
    format      ascii;
    class       regIOobject;
    location    "200/uniform";
    object      profilingInfo;
}
// * * * * * * * * * * * * * * * * * * * * * * * * * * * * * * * * * * * * * //

profilingInfo
(

    {
        id              26;
        parentId        23;
        description     "Foam::Time::writeObject - outputTime";
        calls           20;
        totalTime       0.258619;
        childTime       0;
        onStack         1;
    }

    {
        id              23;
        parentId        1;
        description     "Foam::Time::writeObject";
        calls           5000;
        totalTime       0.264064;
        childTime       0.258619;
        onStack         1;
    }

    {
        id              1;
        description     "application::main";
        calls           1;
        totalTime       173.552;
        childTime       139.336;
        onStack         1;
    }

    {
        id              25;
        parentId        24;
        description     "FO::fieldMinMax1::execute";
        calls           4999;
        totalTime       0.008319;
        childTime       0;
        onStack         0;
    }

    {
        id              7;
        parentId        6;
        description     "FO::fieldMinMax1::start";
        calls           1;
        totalTime       1.9e-05;
        childTime       0;
        onStack         0;
    }

    {
        id              8;
        parentId        1;
        description     "MULES::explicitSolve";
        calls           10000;
        totalTime       2.78481;
        childTime       0;
        onStack         0;
    }

    {
        id              6;
        parentId        5;
        description     "functionObjectList::read";
        calls           1;
        totalTime       5.7e-05;
        childTime       1.9e-05;
        onStack         0;
    }

    {
        id              24;
        parentId        1;
        description     "functionObjects_.execute()";
        calls           4999;
        totalTime       0.018367;
        childTime       0.008319;
        onStack         0;
    }

    {
        id              5;
        parentId        1;
        description     "functionObjects_.start()";
        calls           1;
        totalTime       6e-05;
        childTime       5.7e-05;
        onStack         0;
    }

    {
        id              9;
        parentId        1;
        description     "fvMatrix::solve_U";
        calls           5000;
        totalTime       0.954045;
        childTime       0.555454;
        onStack         0;
    }

    {
        id              20;
        parentId        1;
        description     "fvMatrix::solve_k";
        calls           5000;
        totalTime       0.418065;
        childTime       0.263795;
        onStack         0;
    }

    {
        id              17;
        parentId        1;
        description     "fvMatrix::solve_omega";
        calls           5000;
        totalTime       0.654997;
        childTime       0.275011;
        onStack         0;
    }

    {
        id              2;
        parentId        1;
        description     "fvMatrix::solve_pcorr";
        calls           2;
        totalTime       0.040564;
        childTime       0.040464;
        onStack         0;
    }

    {
        id              14;
        parentId        1;
        description     "fvMatrix::solve_pd";
        calls           20000;
        totalTime       134.201;
        childTime       133.192;
        onStack         0;
    }

    {
        id              11;
        parentId        10;
        description     "lduMatrix::smoother_Ux";
        calls           740;
        totalTime       0.08867;
        childTime       0;
        onStack         0;
    }

    {
        id              13;
        parentId        12;
        description     "lduMatrix::smoother_Uz";
        calls           1125;
        totalTime       0.103187;
        childTime       0;
        onStack         0;
    }

    {
        id              22;
        parentId        21;
        description     "lduMatrix::smoother_k";
        calls           803;
        totalTime       0.08802;
        childTime       0;
        onStack         0;
    }

    {
        id              19;
        parentId        18;
        description     "lduMatrix::smoother_omega";
        calls           752;
        totalTime       0.084832;
        childTime       0;
        onStack         0;
    }

    {
        id              10;
        parentId        9;
        description     "lduMatrix::solver_Ux";
        calls           5000;
        totalTime       0.273391;
        childTime       0.08867;
        onStack         0;
    }

    {
        id              12;
        parentId        9;
        description     "lduMatrix::solver_Uz";
        calls           5000;
        totalTime       0.282063;
        childTime       0.103187;
        onStack         0;
    }

    {
        id              4;
        parentId        3;
        description     "lduMatrix::solver_coarsestLevelCorr";
        calls           21;
        totalTime       0.036983;
        childTime       0;
        onStack         0;
    }

    {
        id              16;
        parentId        15;
        description     "lduMatrix::solver_coarsestLevelCorr";
        calls           64826;
        totalTime       122.466;
        childTime       0;
        onStack         0;
    }

    {
        id              21;
        parentId        20;
        description     "lduMatrix::solver_k";
        calls           5000;
        totalTime       0.263795;
        childTime       0.08802;
        onStack         0;
    }

    {
        id              18;
        parentId        17;
        description     "lduMatrix::solver_omega";
        calls           5000;
        totalTime       0.275011;
        childTime       0.084832;
        onStack         0;
    }

    {
        id              3;
        parentId        2;
        description     "lduMatrix::solver_pcorr";
        calls           2;
        totalTime       0.040464;
        childTime       0.036983;
        onStack         0;
    }

    {
        id              15;
        parentId        14;
        description     "lduMatrix::solver_pd";
        calls           20000;
        totalTime       133.192;
        childTime       122.466;
        onStack         0;
    }
);


// ************************************************************************* //
