/*--------------------------------*- C++ -*----------------------------------*\
| =========                 |                                                 |
| \\      /  F ield         | foam-extend: Open Source CFD                    |
|  \\    /   O peration     | Version:     3.2                                |
|   \\  /    A nd           | Web:         http://www.foam-extend.org         |
|    \\/     M anipulation  | For copyright notice see file Copyright         |
\*---------------------------------------------------------------------------*/
FoamFile
{
    version     2.0;
    format      ascii;
    class       areaScalarField;
    location    "50";
    object      a;
}
// * * * * * * * * * * * * * * * * * * * * * * * * * * * * * * * * * * * * * //

dimensions      [1 -1 0 0 0 0 0];

internalField   nonuniform List<scalar> 
300
(
0.000282065
0.000282065
0.000282065
0.000282065
0.000282065
0.000282065
0.000282065
0.000282065
0.000282065
0.000282065
0.000282065
0.000282065
0.000282065
0.000282065
0.000282065
0.000282065
0.000282065
0.000282065
0.000282065
0.000282065
0.000282065
0.000282065
0.000282065
0.000282065
0.000282065
0.000282065
0.000282065
0.000282065
0.000282065
0.000282065
0.000282065
0.000282065
0.000282065
0.000282065
0.000282065
0.000282065
0.000282065
0.000282065
0.000282065
0.000282065
0.000282065
0.000282065
0.000282065
0.000282065
0.000282065
0.000282065
0.000282065
0.000282065
0.000282065
0.000282065
0.000282065
0.000282065
0.000282065
0.000282065
0.000282065
0.000282065
0.000282065
0.000282065
0.000282065
0.000252295
0.000207207
0.000181427
0.000169985
0.000163671
0.000159704
0.000157186
0.000155454
0.000154309
0.000153505
0.000153006
0.000282065
0.000282065
0.000151582
0.000151448
0.000282065
0.000282065
0.000151741
0.000151858
0.000282065
0.000282065
0.000152091
0.000152373
0.000282065
0.000282065
0.000152766
0.000152847
0.000282065
0.000282065
0.000152865
0.000152908
0.000282065
0.000282065
0.000152889
0.000152926
0.000282065
0.000282065
0.000152897
0.000152932
0.000282065
0.000282065
0.000152903
0.000152939
0.000282065
0.000282065
0.000152912
0.000152949
0.000282065
0.000282065
0.000152925
0.000152962
0.000282065
0.000282065
0.000152939
0.000152977
0.000282065
0.000282065
0.000152955
0.000152993
0.000282065
0.000282065
0.000152972
0.00015301
0.000282065
0.000282065
0.00015299
0.000153028
0.000282065
0.000282065
0.000153009
0.000153047
0.000282065
0.000282065
0.000153028
0.000153067
0.000282065
0.000282065
0.000153049
0.000153088
0.000282065
0.000282065
0.000153069
0.00015311
0.000282065
0.000282065
0.000153095
0.000153137
0.000282065
0.000282065
0.000282065
0.000282065
0.000282065
0.000282065
0.000282065
0.000282065
0.000282065
0.000282065
0.000282065
0.000282065
0.000282065
0.000282065
0.000282065
0.000282065
0.000282065
0.000282065
0.000282065
0.000282065
0.000282065
0.000282065
0.000282065
0.000282065
0.000282065
0.000282065
0.000282065
0.000282065
0.000282065
0.000282065
0.000282065
0.000282065
0.000282065
0.000282065
0.000282065
0.000282065
0.000282065
0.000282065
0.000282065
0.000282065
0.000282065
0.000282065
0.000282065
0.000282065
0.000282065
0.000282065
0.000282065
0.000282065
0.000282065
0.000282065
0.000282065
0.000282065
0.000282065
0.000282065
0.000282065
0.000282065
0.000282065
0.000282065
0.000282065
0.000282065
0.000282065
0.000282065
0.000282065
0.000282065
0.000282065
0.000282065
0.000282065
0.000282065
0.000282065
0.000282065
0.000282065
0.000282065
0.000282065
0.000282065
0.000282065
0.000282065
0.000282065
0.000282065
0.000282065
0.000282065
0.000282065
0.000282065
0.000282065
0.000282065
0.000282065
0.000282065
0.000282065
0.000282065
0.000282065
0.000282065
0.000282065
0.000282065
0.000282065
0.000282065
0.000282065
0.000282065
0.000282065
0.000282065
0.000282065
0.000282065
0.000282065
0.000282065
0.000282065
0.000282065
0.000282065
0.000282065
0.000282065
0.000282065
0.000282065
0.000282065
0.000282065
0.000282065
0.000282065
0.000282065
0.000282065
0.000282065
0.000282065
0.000282065
0.000282065
0.000282065
0.000282065
0.000282065
0.000282065
0.000282065
0.000282065
0.000282065
0.000282065
0.000282065
0.000282065
0.000282065
0.000282065
0.000282065
0.000282065
0.000282065
0.000282065
0.000282065
0.000282065
0.000282065
0.000282065
0.000282065
0.000282065
0.000282065
0.000282065
0.000282065
0.000282065
0.000282065
0.000282065
0.000282065
0.000282065
0.000282065
0.000282065
0.000282065
0.000282065
0.000282065
)
;

boundaryField
{
    inlet
    {
        type            calculated;
        value           uniform 0;
    }
    outlet
    {
        type            calculated;
        value           uniform 0;
    }
    sideWall
    {
        type            empty;
    }
}


// ************************************************************************* //
