/*--------------------------------*- C++ -*----------------------------------*\
| =========                 |                                                 |
| \\      /  F ield         | foam-extend: Open Source CFD                    |
|  \\    /   O peration     | Version:     3.2                                |
|   \\  /    A nd           | Web:         http://www.foam-extend.org         |
|    \\/     M anipulation  | For copyright notice see file Copyright         |
\*---------------------------------------------------------------------------*/
FoamFile
{
    version     2.0;
    format      ascii;
    class       surfaceScalarField;
    location    "50";
    object      AdSS2;
}
// * * * * * * * * * * * * * * * * * * * * * * * * * * * * * * * * * * * * * //

dimensions      [0 3 -1 0 0 0 0];

internalField   nonuniform List<scalar> 
10482
(
7.50339e-06
7.67378e-06
5.36826e-06
-1.87732e-07
5.10436e-06
-2.05896e-06
5.06881e-06
-2.28731e-06
5.05162e-06
-2.30567e-06
5.02286e-06
-2.2941e-06
5.01113e-06
-2.31113e-06
4.99537e-06
-2.30711e-06
4.99536e-06
-2.32284e-06
4.99369e-06
-2.32119e-06
5.00094e-06
-2.33012e-06
5.00677e-06
-2.32869e-06
5.01916e-06
-2.33525e-06
5.03072e-06
-2.33442e-06
5.04567e-06
-2.33782e-06
5.06158e-06
-2.33877e-06
5.07883e-06
-2.34011e-06
5.09637e-06
-2.34041e-06
5.1154e-06
-2.34189e-06
5.13574e-06
-2.3432e-06
5.15677e-06
-2.3439e-06
5.1781e-06
-2.34419e-06
5.19994e-06
-2.3447e-06
5.22187e-06
-2.34479e-06
5.24366e-06
-2.34465e-06
5.26367e-06
-2.34288e-06
5.28095e-06
-2.34014e-06
5.29552e-06
-2.33744e-06
5.30778e-06
-2.33512e-06
5.31802e-06
-2.33311e-06
5.3266e-06
-2.33144e-06
5.33374e-06
-2.33e-06
5.3397e-06
-2.32883e-06
5.34466e-06
-2.32782e-06
5.34881e-06
-2.32701e-06
5.35226e-06
-2.32631e-06
5.35515e-06
-2.32576e-06
5.35757e-06
-2.32528e-06
5.35961e-06
-2.3249e-06
5.36132e-06
-2.32457e-06
5.36279e-06
-2.32433e-06
5.36403e-06
-2.3241e-06
5.36512e-06
-2.32395e-06
5.36597e-06
-2.32372e-06
5.36675e-06
-2.32364e-06
5.36738e-06
-2.32349e-06
5.36811e-06
-2.3236e-06
5.36859e-06
-2.32334e-06
5.36908e-06
-2.32335e-06
5.36934e-06
-2.32312e-06
5.36988e-06
-2.3234e-06
5.36964e-06
-2.32262e-06
5.3706e-06
-2.32383e-06
5.36957e-06
-2.32183e-06
5.37164e-06
-2.32493e-06
5.36883e-06
-2.32005e-06
5.3743e-06
-2.32833e-06
5.37181e-06
-2.32037e-06
5.36681e-06
-2.31787e-06
5.11204e-06
-2.06809e-06
4.99709e-06
-2.2079e-06
5.02318e-06
-2.34895e-06
5.04012e-06
-2.3398e-06
5.04138e-06
-2.32413e-06
5.0509e-06
-2.33238e-06
5.04922e-06
-2.32118e-06
5.05545e-06
-2.32909e-06
5.0529e-06
-2.32032e-06
5.05932e-06
-2.32928e-06
5.06292e-06
-2.32645e-06
5.06769e-06
-2.32764e-06
5.0586e-06
-2.31377e-06
5.05919e-06
-2.32345e-06
5.06203e-06
-2.32571e-06
5.06803e-06
-2.32886e-06
5.06212e-06
-2.31695e-06
5.06067e-06
-2.32141e-06
5.06343e-06
-2.32562e-06
5.06662e-06
-2.32606e-06
5.06125e-06
-2.31748e-06
5.0599e-06
-2.32151e-06
5.06522e-06
-2.32818e-06
5.06822e-06
-2.32586e-06
5.0624e-06
-2.31704e-06
5.05994e-06
-2.3204e-06
5.06464e-06
-2.32757e-06
5.06743e-06
-2.32565e-06
5.06188e-06
-2.31731e-06
5.05934e-06
-2.32033e-06
5.06431e-06
-2.32783e-06
5.06706e-06
-2.32561e-06
5.06169e-06
-2.31749e-06
5.0591e-06
-2.32027e-06
5.0642e-06
-2.32796e-06
5.06691e-06
-2.32558e-06
5.06165e-06
-2.3176e-06
5.05904e-06
-2.32025e-06
5.06421e-06
-2.32803e-06
5.0669e-06
-2.32555e-06
5.06168e-06
-2.31765e-06
5.05906e-06
-2.32024e-06
5.06425e-06
-2.32806e-06
5.06693e-06
-2.32553e-06
5.06174e-06
-2.31768e-06
5.05912e-06
-2.32024e-06
5.06432e-06
-2.32807e-06
5.06699e-06
-2.32553e-06
5.0618e-06
-2.31767e-06
5.05918e-06
-2.32024e-06
5.06439e-06
-2.32808e-06
5.06706e-06
-2.32553e-06
5.06187e-06
-2.31767e-06
5.05923e-06
-2.32023e-06
5.06445e-06
-2.32808e-06
5.06712e-06
-2.32554e-06
5.06193e-06
-2.31767e-06
5.05929e-06
-2.32022e-06
5.0645e-06
-2.32807e-06
5.06717e-06
-2.32553e-06
5.06199e-06
-2.31768e-06
5.05936e-06
-2.32023e-06
5.06456e-06
-2.32807e-06
5.06723e-06
-2.32553e-06
5.06205e-06
-2.31768e-06
5.05942e-06
-2.32023e-06
5.06463e-06
-2.32808e-06
5.0673e-06
-2.32553e-06
5.06211e-06
-2.31767e-06
5.05948e-06
-2.32024e-06
5.0647e-06
-2.32808e-06
5.06737e-06
-2.32553e-06
5.06218e-06
-2.31767e-06
5.05955e-06
-2.32023e-06
5.06477e-06
-2.32808e-06
5.06745e-06
-2.32554e-06
5.06226e-06
-2.31768e-06
5.05963e-06
-2.32023e-06
5.06484e-06
-2.32808e-06
5.06753e-06
-2.32555e-06
5.06236e-06
-2.31769e-06
5.0597e-06
-2.3202e-06
5.06495e-06
-2.32812e-06
5.06755e-06
-2.32546e-06
5.0624e-06
-2.31771e-06
5.05975e-06
-2.32021e-06
5.06515e-06
-2.32826e-06
5.06894e-06
-2.32666e-06
5.06788e-06
-2.32179e-06
5.06679e-06
-2.32177e-06
5.06628e-06
-2.32236e-06
5.066e-06
-2.32258e-06
5.06581e-06
-2.32267e-06
5.06574e-06
-2.32279e-06
5.06565e-06
-2.32278e-06
5.06558e-06
-2.32279e-06
5.06547e-06
-2.32275e-06
5.06541e-06
-2.3228e-06
5.0653e-06
-2.32276e-06
5.06525e-06
-2.32281e-06
5.06523e-06
-2.32284e-06
5.06526e-06
-2.32289e-06
5.06524e-06
-2.32284e-06
5.06524e-06
-2.32287e-06
5.06518e-06
-2.3228e-06
5.06515e-06
-2.32283e-06
5.06512e-06
-2.32283e-06
5.06515e-06
-2.32289e-06
5.06515e-06
-2.32287e-06
5.06518e-06
-2.32289e-06
5.06518e-06
-2.32286e-06
5.06522e-06
-2.32291e-06
5.06522e-06
-2.32286e-06
5.06526e-06
-2.3229e-06
5.06528e-06
-2.32288e-06
5.06531e-06
-2.3229e-06
5.06531e-06
-2.32286e-06
5.06535e-06
-2.3229e-06
5.06535e-06
-2.32286e-06
5.06538e-06
-2.3229e-06
5.06539e-06
-2.32287e-06
5.06543e-06
-2.3229e-06
5.06543e-06
-2.32286e-06
5.06546e-06
-2.3229e-06
5.06547e-06
-2.32287e-06
5.06551e-06
-2.3229e-06
5.06552e-06
-2.32287e-06
5.06555e-06
-2.3229e-06
5.06556e-06
-2.32287e-06
5.06561e-06
-2.32291e-06
5.06563e-06
-2.32288e-06
5.06567e-06
-2.3229e-06
5.06568e-06
-2.32288e-06
5.06573e-06
-2.32291e-06
5.06573e-06
-2.32287e-06
5.06577e-06
-2.3229e-06
5.06578e-06
-2.32287e-06
5.06581e-06
-2.3229e-06
5.06582e-06
-2.32287e-06
5.06586e-06
-2.3229e-06
5.06588e-06
-2.32288e-06
5.06591e-06
-2.3229e-06
5.06593e-06
-2.32288e-06
5.06598e-06
-2.32291e-06
5.06599e-06
-2.32288e-06
5.06604e-06
-2.32291e-06
5.06605e-06
-2.32287e-06
5.06609e-06
-2.3229e-06
5.06611e-06
-2.32288e-06
5.06616e-06
-2.32292e-06
5.06618e-06
-2.32288e-06
5.06621e-06
-2.3229e-06
5.06622e-06
-2.32287e-06
5.06626e-06
-2.3229e-06
5.06627e-06
-2.32288e-06
5.06631e-06
-2.3229e-06
5.06633e-06
-2.32288e-06
5.06638e-06
-2.32291e-06
5.0664e-06
-2.32289e-06
5.06644e-06
-2.3229e-06
5.06645e-06
-2.32287e-06
5.06649e-06
-2.3229e-06
5.0665e-06
-2.32288e-06
5.06652e-06
-2.32288e-06
5.06651e-06
-2.32285e-06
5.06655e-06
-2.3229e-06
5.06656e-06
-2.32287e-06
5.06658e-06
-2.32289e-06
5.0666e-06
-2.32288e-06
5.06667e-06
-2.32293e-06
5.06672e-06
-2.32291e-06
5.06674e-06
-2.32288e-06
5.0668e-06
-2.32293e-06
5.0668e-06
-2.32286e-06
5.0669e-06
-2.32295e-06
5.06683e-06
-2.3228e-06
5.06703e-06
-2.32306e-06
5.06679e-06
-2.32262e-06
5.0672e-06
-2.32327e-06
5.06668e-06
-2.32234e-06
5.06745e-06
-2.32363e-06
5.06648e-06
-2.32189e-06
5.06776e-06
-2.32413e-06
5.06627e-06
-2.32138e-06
5.06807e-06
-2.32466e-06
5.06602e-06
-2.32081e-06
5.06843e-06
-2.32528e-06
5.06573e-06
-2.32016e-06
5.06881e-06
-2.32594e-06
5.06542e-06
-2.31947e-06
5.06923e-06
-2.32667e-06
5.06504e-06
-2.31867e-06
5.06972e-06
-2.32754e-06
5.06458e-06
-2.31772e-06
5.07038e-06
-2.32866e-06
5.0639e-06
-2.31639e-06
5.07116e-06
-2.33012e-06
5.06319e-06
-2.31489e-06
5.07202e-06
-2.33169e-06
5.06264e-06
-2.31348e-06
5.07238e-06
-2.33261e-06
5.06257e-06
-2.31305e-06
5.07244e-06
-2.33273e-06
5.06295e-06
-2.31337e-06
5.07167e-06
-2.33158e-06
5.06387e-06
-2.31506e-06
5.07131e-06
-2.3303e-06
5.06404e-06
-2.31559e-06
5.07096e-06
-2.32978e-06
5.06468e-06
-2.31658e-06
5.07091e-06
-2.32909e-06
5.06427e-06
-2.31622e-06
5.0713e-06
-2.32989e-06
5.06367e-06
-2.31523e-06
5.0739e-06
-2.33309e-06
5.06226e-06
-2.31122e-06
5.07514e-06
-2.33574e-06
5.0611e-06
-2.30882e-06
5.07621e-06
-2.33797e-06
5.05897e-06
-2.30562e-06
5.07723e-06
-2.34112e-06
5.05796e-06
-2.30359e-06
5.07829e-06
-2.3432e-06
5.05705e-06
-2.30161e-06
5.07832e-06
-2.34414e-06
5.05671e-06
-2.30125e-06
5.07794e-06
-2.34409e-06
5.0566e-06
-2.30151e-06
5.07767e-06
-2.34394e-06
5.05749e-06
-2.30268e-06
5.0765e-06
-2.34187e-06
5.05936e-06
-2.30572e-06
5.07428e-06
-2.33778e-06
5.06123e-06
-2.30981e-06
5.06829e-06
-2.32992e-06
5.03307e-06
-2.28764e-06
5.35708e-06
-2.64687e-06
5.73996e-06
-2.70574e-06
5.36131e-06
-1.94421e-06
5.36828e-06
-2.32983e-06
-2.31734e-06
1.31752e-05
1.19985e-05
1.09649e-05
2.02252e-06
1.02159e-05
-1.30997e-06
1.00174e-05
-2.08874e-06
9.88099e-06
-2.1693e-06
9.78009e-06
-2.19321e-06
9.71617e-06
-2.24721e-06
9.67168e-06
-2.26262e-06
9.64991e-06
-2.30107e-06
9.6411e-06
-2.31238e-06
9.64341e-06
-2.33243e-06
9.65049e-06
-2.33577e-06
9.66654e-06
-2.3513e-06
9.68458e-06
-2.35246e-06
9.70902e-06
-2.36225e-06
9.73634e-06
-2.3661e-06
9.76641e-06
-2.37018e-06
9.79801e-06
-2.37201e-06
9.8318e-06
-2.37567e-06
9.86866e-06
-2.38006e-06
9.90704e-06
-2.38227e-06
9.94645e-06
-2.3836e-06
9.98686e-06
-2.38511e-06
1.0028e-05
-2.38596e-06
1.00691e-05
-2.3857e-06
1.0107e-05
-2.38075e-06
1.01401e-05
-2.37325e-06
1.01685e-05
-2.36582e-06
1.01926e-05
-2.35928e-06
1.02131e-05
-2.35357e-06
1.02304e-05
-2.34871e-06
1.02449e-05
-2.34453e-06
1.02571e-05
-2.34103e-06
1.02673e-05
-2.33805e-06
1.02759e-05
-2.33558e-06
1.02831e-05
-2.33351e-06
1.02891e-05
-2.33179e-06
1.02942e-05
-2.33036e-06
1.02985e-05
-2.32917e-06
1.03021e-05
-2.32819e-06
1.03051e-05
-2.32737e-06
1.03077e-05
-2.32672e-06
1.031e-05
-2.3262e-06
1.03119e-05
-2.32557e-06
1.03135e-05
-2.32525e-06
1.03148e-05
-2.3248e-06
1.03158e-05
-2.32463e-06
1.03168e-05
-2.32436e-06
1.03177e-05
-2.32427e-06
1.03184e-05
-2.32382e-06
1.03191e-05
-2.32407e-06
1.03194e-05
-2.32292e-06
1.03201e-05
-2.32456e-06
1.03198e-05
-2.32153e-06
1.0321e-05
-2.32604e-06
1.03202e-05
-2.31929e-06
1.03237e-05
-2.33183e-06
1.0336e-05
-2.33272e-06
1.03201e-05
-2.30197e-06
9.95247e-06
-1.70041e-06
9.70008e-06
-1.95552e-06
9.68579e-06
-2.33466e-06
9.70032e-06
-2.35433e-06
9.70494e-06
-2.32876e-06
9.71871e-06
-2.34614e-06
9.72185e-06
-2.32433e-06
9.7316e-06
-2.33884e-06
9.73292e-06
-2.32164e-06
9.74021e-06
-2.33657e-06
9.74323e-06
-2.32947e-06
9.74632e-06
-2.33073e-06
9.73843e-06
-2.30588e-06
9.7398e-06
-2.32482e-06
9.74186e-06
-2.32777e-06
9.74799e-06
-2.33499e-06
9.74577e-06
-2.31473e-06
9.74534e-06
-2.32098e-06
9.74633e-06
-2.32661e-06
9.74848e-06
-2.3282e-06
9.74542e-06
-2.31442e-06
9.74606e-06
-2.32216e-06
9.75022e-06
-2.33234e-06
9.75234e-06
-2.32799e-06
9.74863e-06
-2.31333e-06
9.74685e-06
-2.31862e-06
9.74963e-06
-2.33035e-06
9.75133e-06
-2.32735e-06
9.74749e-06
-2.31347e-06
9.74567e-06
-2.3185e-06
9.74878e-06
-2.33095e-06
9.75054e-06
-2.32737e-06
9.74696e-06
-2.31391e-06
9.74517e-06
-2.31849e-06
9.74851e-06
-2.33129e-06
9.75033e-06
-2.32739e-06
9.74686e-06
-2.31414e-06
9.74511e-06
-2.31849e-06
9.74849e-06
-2.33142e-06
9.75029e-06
-2.32735e-06
9.7469e-06
-2.31425e-06
9.74515e-06
-2.31849e-06
9.74856e-06
-2.33147e-06
9.75037e-06
-2.32734e-06
9.74701e-06
-2.31431e-06
9.74527e-06
-2.3185e-06
9.74869e-06
-2.33148e-06
9.7505e-06
-2.32734e-06
9.74713e-06
-2.31431e-06
9.7454e-06
-2.31851e-06
9.74883e-06
-2.3315e-06
9.75062e-06
-2.32732e-06
9.74726e-06
-2.31431e-06
9.74553e-06
-2.31849e-06
9.74896e-06
-2.33151e-06
9.75076e-06
-2.32734e-06
9.74738e-06
-2.31429e-06
9.74565e-06
-2.31849e-06
9.74908e-06
-2.3315e-06
9.75088e-06
-2.32734e-06
9.74752e-06
-2.31432e-06
9.74577e-06
-2.31848e-06
9.7492e-06
-2.3315e-06
9.75101e-06
-2.32734e-06
9.74765e-06
-2.31432e-06
9.74591e-06
-2.31848e-06
9.74933e-06
-2.3315e-06
9.75114e-06
-2.32734e-06
9.74778e-06
-2.31431e-06
9.74605e-06
-2.31851e-06
9.74948e-06
-2.3315e-06
9.75128e-06
-2.32733e-06
9.74793e-06
-2.31432e-06
9.7462e-06
-2.31851e-06
9.74964e-06
-2.33152e-06
9.75145e-06
-2.32735e-06
9.74808e-06
-2.31431e-06
9.74636e-06
-2.3185e-06
9.74979e-06
-2.3315e-06
9.75162e-06
-2.32738e-06
9.74827e-06
-2.31434e-06
9.7465e-06
-2.31843e-06
9.74999e-06
-2.33161e-06
9.75172e-06
-2.32719e-06
9.74839e-06
-2.31438e-06
9.74668e-06
-2.3185e-06
9.75017e-06
-2.33175e-06
9.75361e-06
-2.3301e-06
9.75435e-06
-2.32253e-06
9.75454e-06
-2.32197e-06
9.75434e-06
-2.32215e-06
9.75407e-06
-2.32231e-06
9.75387e-06
-2.32248e-06
9.75378e-06
-2.3227e-06
9.75367e-06
-2.32266e-06
9.75354e-06
-2.32266e-06
9.75336e-06
-2.32257e-06
9.75322e-06
-2.32267e-06
9.75307e-06
-2.3226e-06
9.75297e-06
-2.32271e-06
9.75284e-06
-2.32272e-06
9.75279e-06
-2.32283e-06
9.75276e-06
-2.32281e-06
9.75268e-06
-2.32279e-06
9.75257e-06
-2.32269e-06
9.75255e-06
-2.32282e-06
9.75256e-06
-2.32284e-06
9.75262e-06
-2.32295e-06
9.75268e-06
-2.32293e-06
9.75278e-06
-2.32299e-06
9.75282e-06
-2.32289e-06
9.75289e-06
-2.32298e-06
9.75291e-06
-2.32289e-06
9.75294e-06
-2.32293e-06
9.75294e-06
-2.32288e-06
9.75296e-06
-2.32292e-06
9.75299e-06
-2.32289e-06
9.75307e-06
-2.32298e-06
9.75308e-06
-2.32288e-06
9.75313e-06
-2.32294e-06
9.75314e-06
-2.32288e-06
9.75318e-06
-2.32294e-06
9.75321e-06
-2.32289e-06
9.75326e-06
-2.32294e-06
9.75328e-06
-2.3229e-06
9.75333e-06
-2.32295e-06
9.75335e-06
-2.32288e-06
9.75341e-06
-2.32296e-06
9.75347e-06
-2.32294e-06
9.75357e-06
-2.323e-06
9.75361e-06
-2.32292e-06
9.75366e-06
-2.32295e-06
9.75371e-06
-2.32293e-06
9.75379e-06
-2.32299e-06
9.75384e-06
-2.32292e-06
9.7539e-06
-2.32296e-06
9.75389e-06
-2.32286e-06
9.75393e-06
-2.32293e-06
9.75396e-06
-2.3229e-06
9.75401e-06
-2.32296e-06
9.75404e-06
-2.3229e-06
9.7541e-06
-2.32296e-06
9.75417e-06
-2.32295e-06
9.75425e-06
-2.323e-06
9.7543e-06
-2.32292e-06
9.75436e-06
-2.32297e-06
9.75439e-06
-2.32291e-06
9.75446e-06
-2.32297e-06
9.75451e-06
-2.32293e-06
9.7546e-06
-2.323e-06
9.75462e-06
-2.32289e-06
9.75465e-06
-2.32293e-06
9.75467e-06
-2.3229e-06
9.75472e-06
-2.32295e-06
9.75476e-06
-2.32291e-06
9.75482e-06
-2.32295e-06
9.75485e-06
-2.32291e-06
9.75493e-06
-2.32299e-06
9.75501e-06
-2.32297e-06
9.75509e-06
-2.32299e-06
9.75509e-06
-2.32287e-06
9.75513e-06
-2.32293e-06
9.75516e-06
-2.32292e-06
9.75522e-06
-2.32294e-06
9.75526e-06
-2.32289e-06
9.75531e-06
-2.32295e-06
9.75535e-06
-2.32291e-06
9.7554e-06
-2.32294e-06
9.75543e-06
-2.32292e-06
9.75549e-06
-2.32299e-06
9.75554e-06
-2.32296e-06
9.75558e-06
-2.32292e-06
9.75564e-06
-2.32298e-06
9.75565e-06
-2.32287e-06
9.75573e-06
-2.32303e-06
9.75571e-06
-2.32278e-06
9.75587e-06
-2.32322e-06
9.75575e-06
-2.3225e-06
9.75604e-06
-2.32356e-06
9.75573e-06
-2.32203e-06
9.75629e-06
-2.3242e-06
9.7556e-06
-2.3212e-06
9.75662e-06
-2.32516e-06
9.75545e-06
-2.32021e-06
9.75692e-06
-2.32613e-06
9.75527e-06
-2.31916e-06
9.75726e-06
-2.32727e-06
9.75506e-06
-2.31795e-06
9.75762e-06
-2.3285e-06
9.75483e-06
-2.31668e-06
9.758e-06
-2.32984e-06
9.75455e-06
-2.31522e-06
9.75842e-06
-2.33141e-06
9.75421e-06
-2.31351e-06
9.75901e-06
-2.33346e-06
9.75364e-06
-2.31102e-06
9.75972e-06
-2.3362e-06
9.75301e-06
-2.30818e-06
9.76075e-06
-2.33944e-06
9.75231e-06
-2.30504e-06
9.76134e-06
-2.34164e-06
9.7521e-06
-2.30381e-06
9.76149e-06
-2.34212e-06
9.75273e-06
-2.30461e-06
9.76047e-06
-2.33933e-06
9.754e-06
-2.30858e-06
9.76006e-06
-2.33637e-06
9.75406e-06
-2.30959e-06
9.75972e-06
-2.33544e-06
9.75479e-06
-2.31165e-06
9.75989e-06
-2.33418e-06
9.75427e-06
-2.31061e-06
9.75989e-06
-2.33552e-06
9.75413e-06
-2.30946e-06
9.7629e-06
-2.34186e-06
9.75336e-06
-2.30168e-06
9.76424e-06
-2.34662e-06
9.75254e-06
-2.29712e-06
9.76492e-06
-2.35035e-06
9.74993e-06
-2.29064e-06
9.76545e-06
-2.35664e-06
9.74874e-06
-2.28688e-06
9.7668e-06
-2.36125e-06
9.74763e-06
-2.28245e-06
9.76667e-06
-2.36318e-06
9.74668e-06
-2.28126e-06
9.76619e-06
-2.3636e-06
9.74612e-06
-2.28144e-06
9.76597e-06
-2.36379e-06
9.74769e-06
-2.2844e-06
9.76461e-06
-2.35879e-06
9.74937e-06
-2.29048e-06
9.76289e-06
-2.3513e-06
9.75011e-06
-2.29703e-06
9.75471e-06
-2.33452e-06
9.68349e-06
-2.21643e-06
1.01862e-05
-3.14955e-06
1.08076e-05
-3.32717e-06
1.04464e-05
-1.58301e-06
1.03775e-05
-2.26098e-06
-2.29811e-06
1.60203e-05
1.34782e-05
1.4189e-05
3.85389e-06
1.32379e-05
-3.58897e-07
1.28275e-05
-1.67838e-06
1.25397e-05
-1.8815e-06
1.23726e-05
-2.02612e-06
1.2258e-05
-2.1326e-06
1.21838e-05
-2.18843e-06
1.21386e-05
-2.25579e-06
1.21169e-05
-2.29075e-06
1.21092e-05
-2.32469e-06
1.21123e-05
-2.33891e-06
1.21251e-05
-2.36407e-06
1.21427e-05
-2.37006e-06
1.21689e-05
-2.3884e-06
1.21991e-05
-2.39637e-06
1.22335e-05
-2.40457e-06
1.22705e-05
-2.409e-06
1.23102e-05
-2.41533e-06
1.23538e-05
-2.42375e-06
1.23997e-05
-2.4281e-06
1.24471e-05
-2.43104e-06
1.24959e-05
-2.43396e-06
1.25461e-05
-2.43609e-06
1.2596e-05
-2.43566e-06
1.26421e-05
-2.4268e-06
1.26826e-05
-2.41377e-06
1.27176e-05
-2.40085e-06
1.27476e-05
-2.38931e-06
1.27732e-05
-2.37916e-06
1.27949e-05
-2.37042e-06
1.28133e-05
-2.36288e-06
1.28288e-05
-2.3565e-06
1.28418e-05
-2.35107e-06
1.28527e-05
-2.34652e-06
1.28619e-05
-2.34271e-06
1.28696e-05
-2.33951e-06
1.28762e-05
-2.33688e-06
1.28816e-05
-2.33464e-06
1.28863e-05
-2.33284e-06
1.28902e-05
-2.33128e-06
1.28936e-05
-2.3301e-06
1.28964e-05
-2.32908e-06
1.28988e-05
-2.32798e-06
1.29009e-05
-2.32729e-06
1.29026e-05
-2.32649e-06
1.29041e-05
-2.32618e-06
1.29055e-05
-2.32568e-06
1.29066e-05
-2.32543e-06
1.29075e-05
-2.32475e-06
1.29083e-05
-2.32483e-06
1.29089e-05
-2.32349e-06
1.29095e-05
-2.32522e-06
1.29101e-05
-2.3221e-06
1.29108e-05
-2.32674e-06
1.2911e-05
-2.31949e-06
1.29133e-05
-2.33416e-06
1.29313e-05
-2.35065e-06
1.29122e-05
-2.28286e-06
1.25392e-05
-1.32745e-06
1.22324e-05
-1.64874e-06
1.21702e-05
-2.27245e-06
1.21698e-05
-2.35393e-06
1.21714e-05
-2.33032e-06
1.21844e-05
-2.35912e-06
1.21898e-05
-2.32977e-06
1.22007e-05
-2.34969e-06
1.22046e-05
-2.32557e-06
1.22116e-05
-2.34359e-06
1.22141e-05
-2.33199e-06
1.22162e-05
-2.33279e-06
1.22097e-05
-2.2994e-06
1.22111e-05
-2.32622e-06
1.2213e-05
-2.32963e-06
1.22188e-05
-2.34078e-06
1.22186e-05
-2.31454e-06
1.22189e-05
-2.32134e-06
1.22194e-05
-2.32707e-06
1.22208e-05
-2.3296e-06
1.22192e-05
-2.31279e-06
1.22207e-05
-2.32374e-06
1.22244e-05
-2.33598e-06
1.22262e-05
-2.32982e-06
1.22237e-05
-2.31077e-06
1.22223e-05
-2.31731e-06
1.22242e-05
-2.33222e-06
1.22253e-05
-2.3284e-06
1.22224e-05
-2.31061e-06
1.2221e-05
-2.31709e-06
1.22231e-05
-2.33309e-06
1.22244e-05
-2.32858e-06
1.22217e-05
-2.3113e-06
1.22204e-05
-2.31716e-06
1.22228e-05
-2.33369e-06
1.22241e-05
-2.32871e-06
1.22216e-05
-2.31166e-06
1.22204e-05
-2.31722e-06
1.22228e-05
-2.33381e-06
1.22241e-05
-2.32865e-06
1.22216e-05
-2.31183e-06
1.22204e-05
-2.31729e-06
1.22228e-05
-2.33388e-06
1.22241e-05
-2.32864e-06
1.22217e-05
-2.31191e-06
1.22206e-05
-2.31735e-06
1.2223e-05
-2.33393e-06
1.22243e-05
-2.32863e-06
1.22219e-05
-2.31189e-06
1.22207e-05
-2.31732e-06
1.22232e-05
-2.334e-06
1.22245e-05
-2.32864e-06
1.22221e-05
-2.31188e-06
1.22209e-05
-2.31727e-06
1.22233e-05
-2.33397e-06
1.22247e-05
-2.32869e-06
1.22223e-05
-2.31188e-06
1.2221e-05
-2.31726e-06
1.22235e-05
-2.33393e-06
1.22248e-05
-2.32866e-06
1.22224e-05
-2.31196e-06
1.22212e-05
-2.31728e-06
1.22236e-05
-2.33392e-06
1.22249e-05
-2.32865e-06
1.22225e-05
-2.31192e-06
1.22214e-05
-2.31732e-06
1.22238e-05
-2.33395e-06
1.22251e-05
-2.32863e-06
1.22227e-05
-2.31189e-06
1.22215e-05
-2.31732e-06
1.2224e-05
-2.334e-06
1.22253e-05
-2.32866e-06
1.22229e-05
-2.31189e-06
1.22217e-05
-2.3173e-06
1.22242e-05
-2.33399e-06
1.22255e-05
-2.32872e-06
1.22231e-05
-2.31191e-06
1.22219e-05
-2.31728e-06
1.22244e-05
-2.33394e-06
1.22257e-05
-2.32874e-06
1.22234e-05
-2.31199e-06
1.22221e-05
-2.31722e-06
1.22246e-05
-2.33409e-06
1.22258e-05
-2.32842e-06
1.22235e-05
-2.31201e-06
1.22224e-05
-2.31739e-06
1.22249e-05
-2.33426e-06
1.2229e-05
-2.33418e-06
1.22313e-05
-2.32491e-06
1.22326e-05
-2.32319e-06
1.22328e-05
-2.32237e-06
1.22327e-05
-2.32222e-06
1.22325e-05
-2.32233e-06
1.22325e-05
-2.32263e-06
1.22324e-05
-2.32257e-06
1.22323e-05
-2.32257e-06
1.22321e-05
-2.32238e-06
1.22319e-05
-2.32247e-06
1.22317e-05
-2.32241e-06
1.22316e-05
-2.32258e-06
1.22315e-05
-2.3226e-06
1.22314e-05
-2.32275e-06
1.22313e-05
-2.3227e-06
1.22311e-05
-2.32266e-06
1.2231e-05
-2.32257e-06
1.22311e-05
-2.32287e-06
1.22311e-05
-2.32288e-06
1.22311e-05
-2.32297e-06
1.22312e-05
-2.323e-06
1.22313e-05
-2.32311e-06
1.22314e-05
-2.32298e-06
1.22315e-05
-2.32305e-06
1.22315e-05
-2.32287e-06
1.22315e-05
-2.32294e-06
1.22315e-05
-2.32289e-06
1.22316e-05
-2.32299e-06
1.22316e-05
-2.32293e-06
1.22316e-05
-2.32301e-06
1.22317e-05
-2.3229e-06
1.22317e-05
-2.32301e-06
1.22318e-05
-2.32295e-06
1.22319e-05
-2.323e-06
1.22319e-05
-2.3229e-06
1.22319e-05
-2.32298e-06
1.2232e-05
-2.32294e-06
1.22321e-05
-2.32306e-06
1.22321e-05
-2.32293e-06
1.22321e-05
-2.32299e-06
1.22322e-05
-2.32298e-06
1.22323e-05
-2.32309e-06
1.22324e-05
-2.32301e-06
1.22324e-05
-2.32303e-06
1.22325e-05
-2.32294e-06
1.22325e-05
-2.32306e-06
1.22326e-05
-2.32298e-06
1.22327e-05
-2.32305e-06
1.22327e-05
-2.3229e-06
1.22328e-05
-2.32296e-06
1.22328e-05
-2.32292e-06
1.22329e-05
-2.32303e-06
1.22329e-05
-2.32299e-06
1.2233e-05
-2.32303e-06
1.2233e-05
-2.32298e-06
1.22331e-05
-2.32306e-06
1.22332e-05
-2.32297e-06
1.22333e-05
-2.32309e-06
1.22333e-05
-2.32297e-06
1.22334e-05
-2.32301e-06
1.22334e-05
-2.32297e-06
1.22335e-05
-2.3231e-06
1.22336e-05
-2.32297e-06
1.22336e-05
-2.32299e-06
1.22337e-05
-2.32293e-06
1.22337e-05
-2.32302e-06
1.22338e-05
-2.32296e-06
1.22338e-05
-2.32301e-06
1.22339e-05
-2.32296e-06
1.2234e-05
-2.32307e-06
1.2234e-05
-2.32303e-06
1.22341e-05
-2.32305e-06
1.22341e-05
-2.3229e-06
1.22342e-05
-2.323e-06
1.22343e-05
-2.32297e-06
1.22343e-05
-2.323e-06
1.22344e-05
-2.32294e-06
1.22344e-05
-2.32302e-06
1.22345e-05
-2.32296e-06
1.22346e-05
-2.32301e-06
1.22346e-05
-2.32295e-06
1.22346e-05
-2.32303e-06
1.22347e-05
-2.32301e-06
1.22347e-05
-2.32297e-06
1.22348e-05
-2.32304e-06
1.22348e-05
-2.3229e-06
1.22349e-05
-2.32311e-06
1.22349e-05
-2.32277e-06
1.2235e-05
-2.32336e-06
1.22349e-05
-2.3224e-06
1.22352e-05
-2.32381e-06
1.22349e-05
-2.32178e-06
1.22354e-05
-2.32467e-06
1.22349e-05
-2.32067e-06
1.22357e-05
-2.32595e-06
1.22348e-05
-2.31935e-06
1.22359e-05
-2.32726e-06
1.22347e-05
-2.31793e-06
1.22362e-05
-2.3288e-06
1.22345e-05
-2.31628e-06
1.22365e-05
-2.33048e-06
1.22344e-05
-2.31455e-06
1.22368e-05
-2.3323e-06
1.22342e-05
-2.31255e-06
1.22372e-05
-2.33443e-06
1.2234e-05
-2.31027e-06
1.22377e-05
-2.33717e-06
1.22336e-05
-2.30693e-06
1.22382e-05
-2.34083e-06
1.22331e-05
-2.3031e-06
1.22392e-05
-2.34547e-06
1.22325e-05
-2.29835e-06
1.22398e-05
-2.34902e-06
1.22321e-05
-2.2961e-06
1.224e-05
-2.35002e-06
1.22329e-05
-2.29745e-06
1.22389e-05
-2.3454e-06
1.22341e-05
-2.30376e-06
1.22387e-05
-2.34094e-06
1.22341e-05
-2.30498e-06
1.22385e-05
-2.33985e-06
1.22346e-05
-2.30779e-06
1.22389e-05
-2.33845e-06
1.2234e-05
-2.30576e-06
1.22386e-05
-2.34012e-06
1.22343e-05
-2.30514e-06
1.22413e-05
-2.34879e-06
1.22342e-05
-2.29463e-06
1.22426e-05
-2.35504e-06
1.22337e-05
-2.2882e-06
1.2243e-05
-2.35965e-06
1.22312e-05
-2.27889e-06
1.22431e-05
-2.36848e-06
1.223e-05
-2.27378e-06
1.22444e-05
-2.37565e-06
1.2229e-05
-2.26704e-06
1.22442e-05
-2.37844e-06
1.22277e-05
-2.2647e-06
1.22437e-05
-2.37968e-06
1.2227e-05
-2.26473e-06
1.22431e-05
-2.37988e-06
1.22287e-05
-2.27e-06
1.22423e-05
-2.37235e-06
1.223e-05
-2.27819e-06
1.2241e-05
-2.36232e-06
1.22302e-05
-2.28625e-06
1.22332e-05
-2.33747e-06
1.21792e-05
-2.16243e-06
1.26765e-05
-3.64691e-06
1.33273e-05
-3.97795e-06
1.30982e-05
-1.35394e-06
1.30147e-05
-2.17747e-06
-2.26691e-06
1.74793e-05
1.3499e-05
1.63737e-05
4.9595e-06
1.55124e-05
5.02445e-07
1.48951e-05
-1.0611e-06
1.44533e-05
-1.43969e-06
1.42072e-05
-1.78008e-06
1.40318e-05
-1.95713e-06
1.3923e-05
-2.07971e-06
1.38519e-05
-2.18461e-06
1.38122e-05
-2.25113e-06
1.37905e-05
-2.30293e-06
1.37856e-05
-2.33405e-06
1.37916e-05
-2.37e-06
1.38054e-05
-2.38387e-06
1.38291e-05
-2.41212e-06
1.38582e-05
-2.42544e-06
1.3893e-05
-2.43942e-06
1.39314e-05
-2.44738e-06
1.39731e-05
-2.457e-06
1.40194e-05
-2.47013e-06
1.40685e-05
-2.47717e-06
1.41198e-05
-2.48227e-06
1.41728e-05
-2.48701e-06
1.42276e-05
-2.49088e-06
1.42819e-05
-2.48996e-06
1.43316e-05
-2.47646e-06
1.43754e-05
-2.45759e-06
1.44135e-05
-2.43895e-06
1.44463e-05
-2.42216e-06
1.44745e-05
-2.40729e-06
1.44985e-05
-2.39442e-06
1.45188e-05
-2.38322e-06
1.4536e-05
-2.3737e-06
1.45505e-05
-2.36559e-06
1.45628e-05
-2.35875e-06
1.45731e-05
-2.35302e-06
1.45818e-05
-2.34818e-06
1.45891e-05
-2.34422e-06
1.45953e-05
-2.34081e-06
1.46005e-05
-2.33808e-06
1.46049e-05
-2.33568e-06
1.46087e-05
-2.3339e-06
1.46119e-05
-2.33232e-06
1.46147e-05
-2.3307e-06
1.4617e-05
-2.32959e-06
1.46189e-05
-2.32842e-06
1.46206e-05
-2.32792e-06
1.46221e-05
-2.32717e-06
1.46234e-05
-2.32674e-06
1.46245e-05
-2.32578e-06
1.46253e-05
-2.32565e-06
1.4626e-05
-2.32421e-06
1.46266e-05
-2.32586e-06
1.46272e-05
-2.32267e-06
1.46277e-05
-2.32728e-06
1.46284e-05
-2.32011e-06
1.463e-05
-2.33577e-06
1.46487e-05
-2.36941e-06
1.46291e-05
-2.26322e-06
1.42866e-05
-9.8496e-07
1.39674e-05
-1.32953e-06
1.38659e-05
-2.17096e-06
1.38459e-05
-2.3339e-06
1.38397e-05
-2.32416e-06
1.38483e-05
-2.36771e-06
1.38534e-05
-2.33489e-06
1.38638e-05
-2.36012e-06
1.38688e-05
-2.33052e-06
1.38756e-05
-2.35037e-06
1.3878e-05
-2.33443e-06
1.38794e-05
-2.33422e-06
1.38742e-05
-2.29421e-06
1.38757e-05
-2.32766e-06
1.38774e-05
-2.33138e-06
1.38825e-05
-2.34585e-06
1.38834e-05
-2.31544e-06
1.38846e-05
-2.32253e-06
1.38851e-05
-2.32759e-06
1.38859e-05
-2.33043e-06
1.38851e-05
-2.31195e-06
1.38873e-05
-2.32593e-06
1.38907e-05
-2.33939e-06
1.38925e-05
-2.33162e-06
1.38906e-05
-2.30894e-06
1.38896e-05
-2.31629e-06
1.38911e-05
-2.33365e-06
1.38918e-05
-2.32919e-06
1.38895e-05
-2.30829e-06
1.38885e-05
-2.31603e-06
1.389e-05
-2.33466e-06
1.38909e-05
-2.32941e-06
1.38888e-05
-2.30925e-06
1.38879e-05
-2.31618e-06
1.38897e-05
-2.33553e-06
1.38906e-05
-2.3296e-06
1.38886e-05
-2.30968e-06
1.38877e-05
-2.31634e-06
1.38896e-05
-2.33566e-06
1.38906e-05
-2.32964e-06
1.38886e-05
-2.30989e-06
1.38877e-05
-2.31639e-06
1.38896e-05
-2.33578e-06
1.38907e-05
-2.32966e-06
1.38888e-05
-2.31006e-06
1.38879e-05
-2.31642e-06
1.38898e-05
-2.33583e-06
1.38908e-05
-2.32964e-06
1.3889e-05
-2.31007e-06
1.38881e-05
-2.31646e-06
1.389e-05
-2.33583e-06
1.38909e-05
-2.32963e-06
1.38891e-05
-2.31004e-06
1.38883e-05
-2.31645e-06
1.38902e-05
-2.33588e-06
1.38911e-05
-2.32961e-06
1.38893e-05
-2.31002e-06
1.38884e-05
-2.31643e-06
1.38904e-05
-2.33587e-06
1.38914e-05
-2.32965e-06
1.38894e-05
-2.31002e-06
1.38886e-05
-2.31642e-06
1.38905e-05
-2.33585e-06
1.38915e-05
-2.32969e-06
1.38897e-05
-2.31007e-06
1.38888e-05
-2.31638e-06
1.38907e-05
-2.33586e-06
1.38917e-05
-2.32966e-06
1.38899e-05
-2.31007e-06
1.3889e-05
-2.31647e-06
1.38909e-05
-2.33583e-06
1.38919e-05
-2.32966e-06
1.389e-05
-2.31007e-06
1.38892e-05
-2.3165e-06
1.38912e-05
-2.3359e-06
1.38921e-05
-2.32964e-06
1.38902e-05
-2.31007e-06
1.38894e-05
-2.31646e-06
1.38914e-05
-2.33589e-06
1.38924e-05
-2.32976e-06
1.38905e-05
-2.31007e-06
1.38896e-05
-2.31635e-06
1.38916e-05
-2.33607e-06
1.38926e-05
-2.3294e-06
1.38907e-05
-2.31017e-06
1.38898e-05
-2.31647e-06
1.38918e-05
-2.33626e-06
1.38961e-05
-2.33845e-06
1.38993e-05
-2.32817e-06
1.39013e-05
-2.3251e-06
1.39018e-05
-2.3229e-06
1.39019e-05
-2.32236e-06
1.3902e-05
-2.32238e-06
1.3902e-05
-2.32269e-06
1.3902e-05
-2.32254e-06
1.39018e-05
-2.32241e-06
1.39017e-05
-2.32222e-06
1.39015e-05
-2.32234e-06
1.39014e-05
-2.32228e-06
1.39013e-05
-2.32244e-06
1.3901e-05
-2.32238e-06
1.39009e-05
-2.32265e-06
1.39009e-05
-2.32264e-06
1.39008e-05
-2.32258e-06
1.39007e-05
-2.32244e-06
1.39006e-05
-2.32282e-06
1.39007e-05
-2.32293e-06
1.39007e-05
-2.32304e-06
1.39009e-05
-2.32313e-06
1.3901e-05
-2.32321e-06
1.3901e-05
-2.32296e-06
1.3901e-05
-2.32311e-06
1.39011e-05
-2.32292e-06
1.39011e-05
-2.32302e-06
1.39012e-05
-2.32292e-06
1.39011e-05
-2.32295e-06
1.39012e-05
-2.32297e-06
1.39013e-05
-2.3231e-06
1.39014e-05
-2.32299e-06
1.39014e-05
-2.32307e-06
1.39014e-05
-2.32292e-06
1.39014e-05
-2.32306e-06
1.39015e-05
-2.32299e-06
1.39016e-05
-2.32308e-06
1.39017e-05
-2.32298e-06
1.39017e-05
-2.32305e-06
1.39017e-05
-2.32298e-06
1.39018e-05
-2.3231e-06
1.39019e-05
-2.32308e-06
1.3902e-05
-2.32317e-06
1.3902e-05
-2.32301e-06
1.39021e-05
-2.3231e-06
1.39021e-05
-2.32302e-06
1.39023e-05
-2.32318e-06
1.39023e-05
-2.32304e-06
1.39023e-05
-2.32304e-06
1.39023e-05
-2.32294e-06
1.39025e-05
-2.32307e-06
1.39026e-05
-2.32303e-06
1.39026e-05
-2.3231e-06
1.39026e-05
-2.32296e-06
1.39027e-05
-2.3231e-06
1.39028e-05
-2.32308e-06
1.39029e-05
-2.32317e-06
1.39029e-05
-2.32303e-06
1.39029e-05
-2.32309e-06
1.3903e-05
-2.32303e-06
1.39031e-05
-2.32311e-06
1.39032e-05
-2.32307e-06
1.39033e-05
-2.32318e-06
1.39033e-05
-2.323e-06
1.39034e-05
-2.32304e-06
1.39034e-05
-2.32296e-06
1.39035e-05
-2.32309e-06
1.39035e-05
-2.32303e-06
1.39036e-05
-2.32308e-06
1.39036e-05
-2.323e-06
1.39037e-05
-2.32315e-06
1.39038e-05
-2.3231e-06
1.39039e-05
-2.32311e-06
1.39039e-05
-2.32295e-06
1.3904e-05
-2.32306e-06
1.3904e-05
-2.32303e-06
1.39041e-05
-2.32307e-06
1.39041e-05
-2.32299e-06
1.39042e-05
-2.32308e-06
1.39043e-05
-2.32302e-06
1.39044e-05
-2.32309e-06
1.39044e-05
-2.32301e-06
1.39045e-05
-2.32308e-06
1.39045e-05
-2.32304e-06
1.39045e-05
-2.32301e-06
1.39046e-05
-2.3231e-06
1.39046e-05
-2.32294e-06
1.39047e-05
-2.32318e-06
1.39047e-05
-2.32277e-06
1.39048e-05
-2.32349e-06
1.39048e-05
-2.32232e-06
1.3905e-05
-2.32403e-06
1.39048e-05
-2.32156e-06
1.39052e-05
-2.32507e-06
1.39047e-05
-2.32024e-06
1.39054e-05
-2.32659e-06
1.39047e-05
-2.31868e-06
1.39056e-05
-2.32815e-06
1.39046e-05
-2.31697e-06
1.39059e-05
-2.33001e-06
1.39046e-05
-2.31499e-06
1.39061e-05
-2.33203e-06
1.39045e-05
-2.3129e-06
1.39064e-05
-2.33423e-06
1.39043e-05
-2.31048e-06
1.39067e-05
-2.33679e-06
1.39042e-05
-2.30776e-06
1.39071e-05
-2.34005e-06
1.39039e-05
-2.30376e-06
1.39075e-05
-2.34441e-06
1.39036e-05
-2.29923e-06
1.39081e-05
-2.35002e-06
1.39032e-05
-2.29342e-06
1.39089e-05
-2.35466e-06
1.39027e-05
-2.28998e-06
1.39091e-05
-2.35636e-06
1.39035e-05
-2.29192e-06
1.39082e-05
-2.35001e-06
1.39045e-05
-2.30011e-06
1.3908e-05
-2.34445e-06
1.39045e-05
-2.30142e-06
1.3908e-05
-2.34337e-06
1.39047e-05
-2.30453e-06
1.39083e-05
-2.34206e-06
1.39045e-05
-2.30189e-06
1.39081e-05
-2.34373e-06
1.39047e-05
-2.30179e-06
1.39103e-05
-2.3544e-06
1.3905e-05
-2.28929e-06
1.39116e-05
-2.36163e-06
1.39047e-05
-2.28135e-06
1.39118e-05
-2.36677e-06
1.39026e-05