/*--------------------------------*- C++ -*----------------------------------*\
| =========                 |                                                 |
| \\      /  F ield         | foam-extend: Open Source CFD                    |
|  \\    /   O peration     | Version:     3.2                                |
|   \\  /    A nd           | Web:         http://www.foam-extend.org         |
|    \\/     M anipulation  | For copyright notice see file Copyright         |
\*---------------------------------------------------------------------------*/
FoamFile
{
    version     2.0;
    format      ascii;
    class       surfaceScalarField;
    location    "50";
    object      AdSS1;
}
// * * * * * * * * * * * * * * * * * * * * * * * * * * * * * * * * * * * * * //

dimensions      [0 3 -1 0 0 0 0];

internalField   nonuniform List<scalar> 
10482
(
7.50339e-06
8.18442e-06
5.36826e-06
3.22899e-07
5.10436e-06
-1.54833e-06
5.06881e-06
-1.77668e-06
5.05162e-06
-1.79504e-06
5.02286e-06
-1.78347e-06
5.01113e-06
-1.8005e-06
4.99537e-06
-1.79647e-06
4.99536e-06
-1.81221e-06
4.99369e-06
-1.81056e-06
5.00094e-06
-1.81949e-06
5.00677e-06
-1.81806e-06
5.01916e-06
-1.82462e-06
5.03072e-06
-1.82379e-06
5.04567e-06
-1.82718e-06
5.06158e-06
-1.82814e-06
5.07883e-06
-1.82948e-06
5.09637e-06
-1.82978e-06
5.1154e-06
-1.83125e-06
5.13574e-06
-1.83257e-06
5.15677e-06
-1.83326e-06
5.1781e-06
-1.83356e-06
5.19994e-06
-1.83407e-06
5.22187e-06
-1.83416e-06
5.24366e-06
-1.83402e-06
5.26367e-06
-1.83224e-06
5.28095e-06
-1.82951e-06
5.29552e-06
-1.82681e-06
5.30778e-06
-1.82448e-06
5.31802e-06
-1.82247e-06
5.3266e-06
-1.82081e-06
5.33374e-06
-1.81937e-06
5.3397e-06
-1.81819e-06
5.34466e-06
-1.81719e-06
5.34881e-06
-1.81638e-06
5.35226e-06
-1.81568e-06
5.35515e-06
-1.81512e-06
5.35757e-06
-1.81465e-06
5.35961e-06
-1.81427e-06
5.36132e-06
-1.81394e-06
5.36279e-06
-1.8137e-06
5.36403e-06
-1.81347e-06
5.36512e-06
-1.81332e-06
5.36597e-06
-1.81309e-06
5.36675e-06
-1.81301e-06
5.36738e-06
-1.81285e-06
5.36811e-06
-1.81296e-06
5.36859e-06
-1.81271e-06
5.36908e-06
-1.81272e-06
5.36934e-06
-1.81249e-06
5.36988e-06
-1.81277e-06
5.36964e-06
-1.81199e-06
5.3706e-06
-1.8132e-06
5.36957e-06
-1.8112e-06
5.37164e-06
-1.81429e-06
5.36883e-06
-1.80942e-06
5.3743e-06
-1.8177e-06
5.37181e-06
-1.80974e-06
5.36681e-06
-1.80724e-06
5.11204e-06
-1.55746e-06
4.99709e-06
-1.69727e-06
5.02318e-06
-1.83832e-06
5.04012e-06
-1.82917e-06
5.04138e-06
-1.8135e-06
5.0509e-06
-1.82175e-06
5.04922e-06
-1.81055e-06
5.05545e-06
-1.81845e-06
5.0529e-06
-1.80969e-06
5.05932e-06
-1.81865e-06
5.06292e-06
-1.81582e-06
5.06769e-06
-1.81701e-06
5.0586e-06
-1.80314e-06
5.05919e-06
-1.81282e-06
5.06203e-06
-1.81507e-06
5.06803e-06
-1.81823e-06
5.06212e-06
-1.80632e-06
5.06067e-06
-1.81078e-06
5.06343e-06
-1.81499e-06
5.06662e-06
-1.81543e-06
5.06125e-06
-1.80685e-06
5.0599e-06
-1.81088e-06
5.06522e-06
-1.81755e-06
5.06822e-06
-1.81523e-06
5.0624e-06
-1.80641e-06
5.05994e-06
-1.80976e-06
5.06464e-06
-1.81693e-06
5.06743e-06
-1.81502e-06
5.06188e-06
-1.80668e-06
5.05934e-06
-1.80969e-06
5.06431e-06
-1.8172e-06
5.06706e-06
-1.81498e-06
5.06169e-06
-1.80686e-06
5.0591e-06
-1.80964e-06
5.0642e-06
-1.81733e-06
5.06691e-06
-1.81494e-06
5.06165e-06
-1.80697e-06
5.05904e-06
-1.80961e-06
5.06421e-06
-1.8174e-06
5.0669e-06
-1.81492e-06
5.06168e-06
-1.80702e-06
5.05906e-06
-1.8096e-06
5.06425e-06
-1.81743e-06
5.06693e-06
-1.8149e-06
5.06174e-06
-1.80704e-06
5.05912e-06
-1.80961e-06
5.06432e-06
-1.81744e-06
5.06699e-06
-1.8149e-06
5.0618e-06
-1.80704e-06
5.05918e-06
-1.8096e-06
5.06439e-06
-1.81745e-06
5.06706e-06
-1.81489e-06
5.06187e-06
-1.80704e-06
5.05923e-06
-1.8096e-06
5.06445e-06
-1.81745e-06
5.06712e-06
-1.8149e-06
5.06193e-06
-1.80704e-06
5.05929e-06
-1.80959e-06
5.0645e-06
-1.81744e-06
5.06717e-06
-1.8149e-06
5.06199e-06
-1.80705e-06
5.05936e-06
-1.80959e-06
5.06456e-06
-1.81744e-06
5.06723e-06
-1.8149e-06
5.06205e-06
-1.80705e-06
5.05942e-06
-1.8096e-06
5.06463e-06
-1.81744e-06
5.0673e-06
-1.8149e-06
5.06211e-06
-1.80704e-06
5.05948e-06
-1.80961e-06
5.0647e-06
-1.81745e-06
5.06737e-06
-1.8149e-06
5.06218e-06
-1.80704e-06
5.05955e-06
-1.8096e-06
5.06477e-06
-1.81745e-06
5.06745e-06
-1.81491e-06
5.06226e-06
-1.80704e-06
5.05963e-06
-1.80959e-06
5.06484e-06
-1.81744e-06
5.06753e-06
-1.81492e-06
5.06236e-06
-1.80706e-06
5.0597e-06
-1.80957e-06
5.06495e-06
-1.81748e-06
5.06755e-06
-1.81483e-06
5.0624e-06
-1.80708e-06
5.05975e-06
-1.80958e-06
5.06515e-06
-1.81763e-06
5.06894e-06
-1.81602e-06
5.06788e-06
-1.81116e-06
5.06679e-06
-1.81114e-06
5.06628e-06
-1.81172e-06
5.066e-06
-1.81195e-06
5.06581e-06
-1.81204e-06
5.06574e-06
-1.81216e-06
5.06565e-06
-1.81214e-06
5.06558e-06
-1.81216e-06
5.06547e-06
-1.81212e-06
5.06541e-06
-1.81217e-06
5.0653e-06
-1.81212e-06
5.06525e-06
-1.81218e-06
5.06523e-06
-1.81221e-06
5.06526e-06
-1.81225e-06
5.06524e-06
-1.81221e-06
5.06524e-06
-1.81224e-06
5.06518e-06
-1.81217e-06
5.06515e-06
-1.8122e-06
5.06512e-06
-1.8122e-06
5.06515e-06
-1.81226e-06
5.06515e-06
-1.81223e-06
5.06518e-06
-1.81226e-06
5.06518e-06
-1.81222e-06
5.06522e-06
-1.81227e-06
5.06522e-06
-1.81223e-06
5.06526e-06
-1.81227e-06
5.06528e-06
-1.81225e-06
5.06531e-06
-1.81227e-06
5.06531e-06
-1.81223e-06
5.06535e-06
-1.81227e-06
5.06535e-06
-1.81223e-06
5.06538e-06
-1.81226e-06
5.06539e-06
-1.81224e-06
5.06543e-06
-1.81227e-06
5.06543e-06
-1.81223e-06
5.06546e-06
-1.81226e-06
5.06547e-06
-1.81224e-06
5.06551e-06
-1.81227e-06
5.06552e-06
-1.81223e-06
5.06555e-06
-1.81227e-06
5.06556e-06
-1.81224e-06
5.06561e-06
-1.81228e-06
5.06563e-06
-1.81225e-06
5.06567e-06
-1.81227e-06
5.06568e-06
-1.81224e-06
5.06573e-06
-1.81228e-06
5.06573e-06
-1.81224e-06
5.06577e-06
-1.81227e-06
5.06578e-06
-1.81224e-06
5.06581e-06
-1.81226e-06
5.06582e-06
-1.81224e-06
5.06586e-06
-1.81227e-06
5.06588e-06
-1.81224e-06
5.06591e-06
-1.81227e-06
5.06593e-06
-1.81224e-06
5.06598e-06
-1.81228e-06
5.06599e-06
-1.81225e-06
5.06604e-06
-1.81228e-06
5.06605e-06
-1.81224e-06
5.06609e-06
-1.81227e-06
5.06611e-06
-1.81225e-06
5.06616e-06
-1.81229e-06
5.06618e-06
-1.81225e-06
5.06621e-06
-1.81227e-06
5.06622e-06
-1.81224e-06
5.06626e-06
-1.81227e-06
5.06627e-06
-1.81224e-06
5.06631e-06
-1.81227e-06
5.06633e-06
-1.81224e-06
5.06638e-06
-1.81228e-06
5.0664e-06
-1.81225e-06
5.06644e-06
-1.81227e-06
5.06645e-06
-1.81224e-06
5.06649e-06
-1.81227e-06
5.0665e-06
-1.81224e-06
5.06652e-06
-1.81225e-06
5.06651e-06
-1.81222e-06
5.06655e-06
-1.81227e-06
5.06656e-06
-1.81224e-06
5.06658e-06
-1.81225e-06
5.0666e-06
-1.81225e-06
5.06667e-06
-1.8123e-06
5.06672e-06
-1.81228e-06
5.06674e-06
-1.81225e-06
5.0668e-06
-1.81229e-06
5.0668e-06
-1.81223e-06
5.0669e-06
-1.81232e-06
5.06683e-06
-1.81216e-06
5.06703e-06
-1.81243e-06
5.06679e-06
-1.81199e-06
5.0672e-06
-1.81264e-06
5.06668e-06
-1.81171e-06
5.06745e-06
-1.813e-06
5.06648e-06
-1.81126e-06
5.06776e-06
-1.8135e-06
5.06627e-06
-1.81074e-06
5.06807e-06
-1.81403e-06
5.06602e-06
-1.81018e-06
5.06843e-06
-1.81465e-06
5.06573e-06
-1.80953e-06
5.06881e-06
-1.81531e-06
5.06542e-06
-1.80884e-06
5.06923e-06
-1.81604e-06
5.06504e-06
-1.80804e-06
5.06972e-06
-1.81691e-06
5.06458e-06
-1.80709e-06
5.07038e-06
-1.81803e-06
5.0639e-06
-1.80576e-06
5.07116e-06
-1.81948e-06
5.06319e-06
-1.80426e-06
5.07202e-06
-1.82106e-06
5.06264e-06
-1.80285e-06
5.07238e-06
-1.82198e-06
5.06257e-06
-1.80242e-06
5.07244e-06
-1.8221e-06
5.06295e-06
-1.80274e-06
5.07167e-06
-1.82095e-06
5.06387e-06
-1.80443e-06
5.07131e-06
-1.81967e-06
5.06404e-06
-1.80496e-06
5.07096e-06
-1.81915e-06
5.06468e-06
-1.80595e-06
5.07091e-06
-1.81846e-06
5.06427e-06
-1.80559e-06
5.0713e-06
-1.81926e-06
5.06367e-06
-1.8046e-06
5.0739e-06
-1.82246e-06
5.06226e-06
-1.80059e-06
5.07514e-06
-1.82511e-06
5.0611e-06
-1.79819e-06
5.07621e-06
-1.82734e-06
5.05897e-06
-1.79499e-06
5.07723e-06
-1.83049e-06
5.05796e-06
-1.79296e-06
5.07829e-06
-1.83257e-06
5.05705e-06
-1.79098e-06
5.07832e-06
-1.83351e-06
5.05671e-06
-1.79062e-06
5.07794e-06
-1.83346e-06
5.0566e-06
-1.79088e-06
5.07767e-06
-1.83331e-06
5.05749e-06
-1.79205e-06
5.0765e-06
-1.83124e-06
5.05936e-06
-1.79509e-06
5.07428e-06
-1.82715e-06
5.06123e-06
-1.79918e-06
5.06829e-06
-1.81929e-06
5.03307e-06
-1.77701e-06
5.35708e-06
-2.13624e-06
5.73996e-06
-2.19511e-06
5.36131e-06
-1.43357e-06
5.36828e-06
-1.8192e-06
-1.80671e-06
1.31752e-05
1.25092e-05
1.09649e-05
2.53315e-06
1.02159e-05
-7.99334e-07
1.00174e-05
-1.57811e-06
9.88099e-06
-1.65867e-06
9.78009e-06
-1.68257e-06
9.71617e-06
-1.73657e-06
9.67168e-06
-1.75199e-06
9.64991e-06
-1.79044e-06
9.6411e-06
-1.80175e-06
9.64341e-06
-1.8218e-06
9.65049e-06
-1.82514e-06
9.66654e-06
-1.84066e-06
9.68458e-06
-1.84183e-06
9.70902e-06
-1.85162e-06
9.73634e-06
-1.85546e-06
9.76641e-06
-1.85955e-06
9.79801e-06
-1.86138e-06
9.8318e-06
-1.86504e-06
9.86866e-06
-1.86943e-06
9.90704e-06
-1.87164e-06
9.94645e-06
-1.87297e-06
9.98686e-06
-1.87448e-06
1.0028e-05
-1.87533e-06
1.00691e-05
-1.87507e-06
1.0107e-05
-1.87012e-06
1.01401e-05
-1.86262e-06
1.01685e-05
-1.85519e-06
1.01926e-05
-1.84865e-06
1.02131e-05
-1.84294e-06
1.02304e-05
-1.83808e-06
1.02449e-05
-1.8339e-06
1.02571e-05
-1.8304e-06
1.02673e-05
-1.82742e-06
1.02759e-05
-1.82495e-06
1.02831e-05
-1.82287e-06
1.02891e-05
-1.82115e-06
1.02942e-05
-1.81973e-06
1.02985e-05
-1.81854e-06
1.03021e-05
-1.81756e-06
1.03051e-05
-1.81674e-06
1.03077e-05
-1.81609e-06
1.031e-05
-1.81557e-06
1.03119e-05
-1.81494e-06
1.03135e-05
-1.81461e-06
1.03148e-05
-1.81417e-06
1.03158e-05
-1.814e-06
1.03168e-05
-1.81373e-06
1.03177e-05
-1.81364e-06
1.03184e-05
-1.81319e-06
1.03191e-05
-1.81344e-06
1.03194e-05
-1.81229e-06
1.03201e-05
-1.81393e-06
1.03198e-05
-1.8109e-06
1.0321e-05
-1.81541e-06
1.03202e-05
-1.80866e-06
1.03237e-05
-1.8212e-06
1.0336e-05
-1.82209e-06
1.03201e-05
-1.79134e-06
9.95247e-06
-1.18978e-06
9.70008e-06
-1.44488e-06
9.68579e-06
-1.82403e-06
9.70032e-06
-1.8437e-06
9.70494e-06
-1.81812e-06
9.71871e-06
-1.83551e-06
9.72185e-06
-1.8137e-06
9.7316e-06
-1.8282e-06
9.73292e-06
-1.81101e-06
9.74021e-06
-1.82594e-06
9.74323e-06
-1.81884e-06
9.74632e-06
-1.8201e-06
9.73843e-06
-1.79525e-06
9.7398e-06
-1.81419e-06
9.74186e-06
-1.81714e-06
9.74799e-06
-1.82436e-06
9.74577e-06
-1.8041e-06
9.74534e-06
-1.81035e-06
9.74633e-06
-1.81598e-06
9.74848e-06
-1.81757e-06
9.74542e-06
-1.80379e-06
9.74606e-06
-1.81152e-06
9.75022e-06
-1.82171e-06
9.75234e-06
-1.81736e-06
9.74863e-06
-1.8027e-06
9.74685e-06
-1.80798e-06
9.74963e-06
-1.81971e-06
9.75133e-06
-1.81672e-06
9.74749e-06
-1.80284e-06
9.74567e-06
-1.80787e-06
9.74878e-06
-1.82032e-06
9.75054e-06
-1.81674e-06
9.74696e-06
-1.80328e-06
9.74517e-06
-1.80785e-06
9.74851e-06
-1.82066e-06
9.75033e-06
-1.81676e-06
9.74686e-06
-1.80351e-06
9.74511e-06
-1.80786e-06
9.74849e-06
-1.82078e-06
9.75029e-06
-1.81672e-06
9.7469e-06
-1.80362e-06
9.74515e-06
-1.80785e-06
9.74856e-06
-1.82084e-06
9.75037e-06
-1.81671e-06
9.74701e-06
-1.80368e-06
9.74527e-06
-1.80787e-06
9.74869e-06
-1.82085e-06
9.7505e-06
-1.81671e-06
9.74713e-06
-1.80368e-06
9.7454e-06
-1.80787e-06
9.74883e-06
-1.82087e-06
9.75062e-06
-1.81669e-06
9.74726e-06
-1.80368e-06
9.74553e-06
-1.80786e-06
9.74896e-06
-1.82088e-06
9.75076e-06
-1.81671e-06
9.74738e-06
-1.80366e-06
9.74565e-06
-1.80786e-06
9.74908e-06
-1.82087e-06
9.75088e-06
-1.81671e-06
9.74752e-06
-1.80369e-06
9.74577e-06
-1.80785e-06
9.7492e-06
-1.82087e-06
9.75101e-06
-1.81671e-06
9.74765e-06
-1.80369e-06
9.74591e-06
-1.80785e-06
9.74933e-06
-1.82087e-06
9.75114e-06
-1.81671e-06
9.74778e-06
-1.80368e-06
9.74605e-06
-1.80788e-06
9.74948e-06
-1.82087e-06
9.75128e-06
-1.8167e-06
9.74793e-06
-1.80369e-06
9.7462e-06
-1.80788e-06
9.74964e-06
-1.82089e-06
9.75145e-06
-1.81672e-06
9.74808e-06
-1.80368e-06
9.74636e-06
-1.80787e-06
9.74979e-06
-1.82087e-06
9.75162e-06
-1.81675e-06
9.74827e-06
-1.80371e-06
9.7465e-06
-1.8078e-06
9.74999e-06
-1.82097e-06
9.75172e-06
-1.81656e-06
9.74839e-06
-1.80375e-06
9.74668e-06
-1.80787e-06
9.75017e-06
-1.82112e-06
9.75361e-06
-1.81947e-06
9.75435e-06
-1.81189e-06
9.75454e-06
-1.81134e-06
9.75434e-06
-1.81152e-06
9.75407e-06
-1.81168e-06
9.75387e-06
-1.81185e-06
9.75378e-06
-1.81207e-06
9.75367e-06
-1.81203e-06
9.75354e-06
-1.81203e-06
9.75336e-06
-1.81193e-06
9.75322e-06
-1.81204e-06
9.75307e-06
-1.81197e-06
9.75297e-06
-1.81208e-06
9.75284e-06
-1.81208e-06
9.75279e-06
-1.8122e-06
9.75276e-06
-1.81218e-06
9.75268e-06
-1.81216e-06
9.75257e-06
-1.81206e-06
9.75255e-06
-1.81219e-06
9.75256e-06
-1.81221e-06
9.75262e-06
-1.81232e-06
9.75268e-06
-1.8123e-06
9.75278e-06
-1.81236e-06
9.75282e-06
-1.81226e-06
9.75289e-06
-1.81234e-06
9.75291e-06
-1.81225e-06
9.75294e-06
-1.8123e-06
9.75294e-06
-1.81225e-06
9.75296e-06
-1.81229e-06
9.75299e-06
-1.81226e-06
9.75307e-06
-1.81235e-06
9.75308e-06
-1.81224e-06
9.75313e-06
-1.81231e-06
9.75314e-06
-1.81225e-06
9.75318e-06
-1.8123e-06
9.75321e-06
-1.81226e-06
9.75326e-06
-1.81231e-06
9.75328e-06
-1.81226e-06
9.75333e-06
-1.81232e-06
9.75335e-06
-1.81225e-06
9.75341e-06
-1.81233e-06
9.75347e-06
-1.81231e-06
9.75357e-06
-1.81237e-06
9.75361e-06
-1.81229e-06
9.75366e-06
-1.81232e-06
9.75371e-06
-1.81229e-06
9.75379e-06
-1.81236e-06
9.75384e-06
-1.81229e-06
9.7539e-06
-1.81233e-06
9.75389e-06
-1.81223e-06
9.75393e-06
-1.8123e-06
9.75396e-06
-1.81226e-06
9.75401e-06
-1.81233e-06
9.75404e-06
-1.81227e-06
9.7541e-06
-1.81232e-06
9.75417e-06
-1.81231e-06
9.75425e-06
-1.81237e-06
9.7543e-06
-1.81229e-06
9.75436e-06
-1.81234e-06
9.75439e-06
-1.81227e-06
9.75446e-06
-1.81234e-06
9.75451e-06
-1.8123e-06
9.7546e-06
-1.81237e-06
9.75462e-06
-1.81226e-06
9.75465e-06
-1.8123e-06
9.75467e-06
-1.81226e-06
9.75472e-06
-1.81232e-06
9.75476e-06
-1.81228e-06
9.75482e-06
-1.81232e-06
9.75485e-06
-1.81228e-06
9.75493e-06
-1.81236e-06
9.75501e-06
-1.81234e-06
9.75509e-06
-1.81236e-06
9.75509e-06
-1.81224e-06
9.75513e-06
-1.8123e-06
9.75516e-06
-1.81228e-06
9.75522e-06
-1.8123e-06
9.75526e-06
-1.81225e-06
9.75531e-06
-1.81232e-06
9.75535e-06
-1.81228e-06
9.7554e-06
-1.81231e-06
9.75543e-06
-1.81228e-06
9.75549e-06
-1.81236e-06
9.75554e-06
-1.81233e-06
9.75558e-06
-1.81229e-06
9.75564e-06
-1.81235e-06
9.75565e-06
-1.81224e-06
9.75573e-06
-1.8124e-06
9.75571e-06
-1.81214e-06
9.75587e-06
-1.81259e-06
9.75575e-06
-1.81187e-06
9.75604e-06
-1.81293e-06
9.75573e-06
-1.8114e-06
9.75629e-06
-1.81357e-06
9.7556e-06
-1.81057e-06
9.75662e-06
-1.81452e-06
9.75545e-06
-1.80958e-06
9.75692e-06
-1.8155e-06
9.75527e-06
-1.80853e-06
9.75726e-06
-1.81664e-06
9.75506e-06
-1.80732e-06
9.75762e-06
-1.81787e-06
9.75483e-06
-1.80605e-06
9.758e-06
-1.81921e-06
9.75455e-06
-1.80459e-06
9.75842e-06
-1.82078e-06
9.75421e-06
-1.80288e-06
9.75901e-06
-1.82283e-06
9.75364e-06
-1.80039e-06
9.75972e-06
-1.82557e-06
9.75301e-06
-1.79754e-06
9.76075e-06
-1.8288e-06
9.75231e-06
-1.79441e-06
9.76134e-06
-1.83101e-06
9.7521e-06
-1.79318e-06
9.76149e-06
-1.83149e-06
9.75273e-06
-1.79398e-06
9.76047e-06
-1.8287e-06
9.754e-06
-1.79795e-06
9.76006e-06
-1.82573e-06
9.75406e-06
-1.79896e-06
9.75972e-06
-1.82481e-06
9.75479e-06
-1.80102e-06
9.75989e-06
-1.82355e-06
9.75427e-06
-1.79997e-06
9.75989e-06
-1.82489e-06
9.75413e-06
-1.79883e-06
9.7629e-06
-1.83123e-06
9.75336e-06
-1.79105e-06
9.76424e-06
-1.83599e-06
9.75254e-06
-1.78649e-06
9.76492e-06
-1.83972e-06
9.74993e-06
-1.78e-06
9.76545e-06
-1.84601e-06
9.74874e-06
-1.77625e-06
9.7668e-06
-1.85062e-06
9.74763e-06
-1.77182e-06
9.76667e-06
-1.85255e-06
9.74668e-06
-1.77063e-06
9.76619e-06
-1.85297e-06
9.74612e-06
-1.77081e-06
9.76597e-06
-1.85316e-06
9.74769e-06
-1.77377e-06
9.76461e-06
-1.84816e-06
9.74937e-06
-1.77985e-06
9.76289e-06
-1.84067e-06
9.75011e-06
-1.7864e-06
9.75471e-06
-1.82389e-06
9.68349e-06
-1.7058e-06
1.01862e-05
-2.63891e-06
1.08076e-05
-2.81654e-06
1.04464e-05
-1.07238e-06
1.03775e-05
-1.75035e-06
-1.78748e-06
1.60203e-05
1.39889e-05
1.4189e-05
4.36453e-06
1.32379e-05
1.51735e-07
1.28275e-05
-1.16775e-06
1.25397e-05
-1.37087e-06
1.23726e-05
-1.51548e-06
1.2258e-05
-1.62197e-06
1.21838e-05
-1.6778e-06
1.21386e-05
-1.74516e-06
1.21169e-05
-1.78012e-06
1.21092e-05
-1.81406e-06
1.21123e-05
-1.82828e-06
1.21251e-05
-1.85344e-06
1.21427e-05
-1.85943e-06
1.21689e-05
-1.87777e-06
1.21991e-05
-1.88574e-06
1.22335e-05
-1.89394e-06
1.22705e-05
-1.89836e-06
1.23102e-05
-1.90469e-06
1.23538e-05
-1.91312e-06
1.23997e-05
-1.91746e-06
1.24471e-05
-1.92041e-06
1.24959e-05
-1.92333e-06
1.25461e-05
-1.92545e-06
1.2596e-05
-1.92503e-06
1.26421e-05
-1.91616e-06
1.26826e-05
-1.90314e-06
1.27176e-05
-1.89021e-06
1.27476e-05
-1.87868e-06
1.27732e-05
-1.86852e-06
1.27949e-05
-1.85979e-06
1.28133e-05
-1.85225e-06
1.28288e-05
-1.84587e-06
1.28418e-05
-1.84043e-06
1.28527e-05
-1.83589e-06
1.28619e-05
-1.83208e-06
1.28696e-05
-1.82888e-06
1.28762e-05
-1.82625e-06
1.28816e-05
-1.82401e-06
1.28863e-05
-1.82221e-06
1.28902e-05
-1.82064e-06
1.28936e-05
-1.81947e-06
1.28964e-05
-1.81845e-06
1.28988e-05
-1.81735e-06
1.29009e-05
-1.81666e-06
1.29026e-05
-1.81586e-06
1.29041e-05
-1.81555e-06
1.29055e-05
-1.81505e-06
1.29066e-05
-1.8148e-06
1.29075e-05
-1.81411e-06
1.29083e-05
-1.8142e-06
1.29089e-05
-1.81286e-06
1.29095e-05
-1.81458e-06
1.29101e-05
-1.81147e-06
1.29108e-05
-1.81611e-06
1.2911e-05
-1.80886e-06
1.29133e-05
-1.82353e-06
1.29313e-05
-1.84002e-06
1.29122e-05
-1.77223e-06
1.25392e-05
-8.16821e-07
1.22324e-05
-1.13811e-06
1.21702e-05
-1.76182e-06
1.21698e-05
-1.8433e-06
1.21714e-05
-1.81969e-06
1.21844e-05
-1.84849e-06
1.21898e-05
-1.81914e-06
1.22007e-05
-1.83906e-06
1.22046e-05
-1.81494e-06
1.22116e-05
-1.83296e-06
1.22141e-05
-1.82136e-06
1.22162e-05
-1.82216e-06
1.22097e-05
-1.78877e-06
1.22111e-05
-1.81558e-06
1.2213e-05
-1.819e-06
1.22188e-05
-1.83015e-06
1.22186e-05
-1.80391e-06
1.22189e-05
-1.81071e-06
1.22194e-05
-1.81644e-06
1.22208e-05
-1.81897e-06
1.22192e-05
-1.80216e-06
1.22207e-05
-1.81311e-06
1.22244e-05
-1.82534e-06
1.22262e-05
-1.81919e-06
1.22237e-05
-1.80014e-06
1.22223e-05
-1.80668e-06
1.22242e-05
-1.82159e-06
1.22253e-05
-1.81777e-06
1.22224e-05
-1.79998e-06
1.2221e-05
-1.80646e-06
1.22231e-05
-1.82246e-06
1.22244e-05
-1.81795e-06
1.22217e-05
-1.80066e-06
1.22204e-05
-1.80653e-06
1.22228e-05
-1.82306e-06
1.22241e-05
-1.81808e-06
1.22216e-05
-1.80103e-06
1.22204e-05
-1.80659e-06
1.22228e-05
-1.82318e-06
1.22241e-05
-1.81802e-06
1.22216e-05
-1.8012e-06
1.22204e-05
-1.80666e-06
1.22228e-05
-1.82324e-06
1.22241e-05
-1.81801e-06
1.22217e-05
-1.80128e-06
1.22206e-05
-1.80672e-06
1.2223e-05
-1.8233e-06
1.22243e-05
-1.81799e-06
1.22219e-05
-1.80126e-06
1.22207e-05
-1.80668e-06
1.22232e-05
-1.82336e-06
1.22245e-05
-1.818e-06
1.22221e-05
-1.80124e-06
1.22209e-05
-1.80664e-06
1.22233e-05
-1.82334e-06
1.22247e-05
-1.81806e-06
1.22223e-05
-1.80125e-06
1.2221e-05
-1.80663e-06
1.22235e-05
-1.8233e-06
1.22248e-05
-1.81803e-06
1.22224e-05
-1.80132e-06
1.22212e-05
-1.80665e-06
1.22236e-05
-1.82328e-06
1.22249e-05
-1.81802e-06
1.22225e-05
-1.80129e-06
1.22214e-05
-1.80669e-06
1.22238e-05
-1.82332e-06
1.22251e-05
-1.818e-06
1.22227e-05
-1.80125e-06
1.22215e-05
-1.80669e-06
1.2224e-05
-1.82337e-06
1.22253e-05
-1.81803e-06
1.22229e-05
-1.80125e-06
1.22217e-05
-1.80667e-06
1.22242e-05
-1.82336e-06
1.22255e-05
-1.81808e-06
1.22231e-05
-1.80128e-06
1.22219e-05
-1.80665e-06
1.22244e-05
-1.82331e-06
1.22257e-05
-1.81811e-06
1.22234e-05
-1.80136e-06
1.22221e-05
-1.80658e-06
1.22246e-05
-1.82345e-06
1.22258e-05
-1.81779e-06
1.22235e-05
-1.80138e-06
1.22224e-05
-1.80675e-06
1.22249e-05
-1.82363e-06
1.2229e-05
-1.82355e-06
1.22313e-05
-1.81428e-06
1.22326e-05
-1.81256e-06
1.22328e-05
-1.81174e-06
1.22327e-05
-1.81158e-06
1.22325e-05
-1.8117e-06
1.22325e-05
-1.81199e-06
1.22324e-05
-1.81194e-06
1.22323e-05
-1.81194e-06
1.22321e-05
-1.81175e-06
1.22319e-05
-1.81184e-06
1.22317e-05
-1.81178e-06
1.22316e-05
-1.81195e-06
1.22315e-05
-1.81197e-06
1.22314e-05
-1.81211e-06
1.22313e-05
-1.81207e-06
1.22311e-05
-1.81203e-06
1.2231e-05
-1.81194e-06
1.22311e-05
-1.81224e-06
1.22311e-05
-1.81225e-06
1.22311e-05
-1.81234e-06
1.22312e-05
-1.81237e-06
1.22313e-05
-1.81247e-06
1.22314e-05
-1.81235e-06
1.22315e-05
-1.81241e-06
1.22315e-05
-1.81224e-06
1.22315e-05
-1.81231e-06
1.22315e-05
-1.81226e-06
1.22316e-05
-1.81236e-06
1.22316e-05
-1.8123e-06
1.22316e-05
-1.81238e-06
1.22317e-05
-1.81227e-06
1.22317e-05
-1.81238e-06
1.22318e-05
-1.81232e-06
1.22319e-05
-1.81237e-06
1.22319e-05
-1.81227e-06
1.22319e-05
-1.81235e-06
1.2232e-05
-1.8123e-06
1.22321e-05
-1.81242e-06
1.22321e-05
-1.8123e-06
1.22321e-05
-1.81236e-06
1.22322e-05
-1.81235e-06
1.22323e-05
-1.81246e-06
1.22324e-05
-1.81238e-06
1.22324e-05
-1.81239e-06
1.22325e-05
-1.81231e-06
1.22325e-05
-1.81243e-06
1.22326e-05
-1.81235e-06
1.22327e-05
-1.81242e-06
1.22327e-05
-1.81227e-06
1.22328e-05
-1.81233e-06
1.22328e-05
-1.81229e-06
1.22329e-05
-1.8124e-06
1.22329e-05
-1.81235e-06
1.2233e-05
-1.8124e-06
1.2233e-05
-1.81235e-06
1.22331e-05
-1.81243e-06
1.22332e-05
-1.81234e-06
1.22333e-05
-1.81245e-06
1.22333e-05
-1.81233e-06
1.22334e-05
-1.81237e-06
1.22334e-05
-1.81234e-06
1.22335e-05
-1.81247e-06
1.22336e-05
-1.81234e-06
1.22336e-05
-1.81236e-06
1.22337e-05
-1.81229e-06
1.22337e-05
-1.81238e-06
1.22338e-05
-1.81233e-06
1.22338e-05
-1.81238e-06
1.22339e-05
-1.81232e-06
1.2234e-05
-1.81244e-06
1.2234e-05
-1.8124e-06
1.22341e-05
-1.81242e-06
1.22341e-05
-1.81227e-06
1.22342e-05
-1.81236e-06
1.22343e-05
-1.81233e-06
1.22343e-05
-1.81237e-06
1.22344e-05
-1.81231e-06
1.22344e-05
-1.81239e-06
1.22345e-05
-1.81233e-06
1.22346e-05
-1.81238e-06
1.22346e-05
-1.81232e-06
1.22346e-05
-1.8124e-06
1.22347e-05
-1.81237e-06
1.22347e-05
-1.81234e-06
1.22348e-05
-1.81241e-06
1.22348e-05
-1.81227e-06
1.22349e-05
-1.81248e-06
1.22349e-05
-1.81213e-06
1.2235e-05
-1.81273e-06
1.22349e-05
-1.81177e-06
1.22352e-05
-1.81318e-06
1.22349e-05
-1.81114e-06
1.22354e-05
-1.81403e-06
1.22349e-05
-1.81004e-06
1.22357e-05
-1.81531e-06
1.22348e-05
-1.80872e-06
1.22359e-05
-1.81663e-06
1.22347e-05
-1.80729e-06
1.22362e-05
-1.81817e-06
1.22345e-05
-1.80565e-06
1.22365e-05
-1.81985e-06
1.22344e-05
-1.80392e-06
1.22368e-05
-1.82167e-06
1.22342e-05
-1.80192e-06
1.22372e-05
-1.82379e-06
1.2234e-05
-1.79964e-06
1.22377e-05
-1.82653e-06
1.22336e-05
-1.7963e-06
1.22382e-05
-1.83019e-06
1.22331e-05
-1.79247e-06
1.22392e-05
-1.83484e-06
1.22325e-05
-1.78771e-06
1.22398e-05
-1.83839e-06
1.22321e-05
-1.78547e-06
1.224e-05
-1.83939e-06
1.22329e-05
-1.78682e-06
1.22389e-05
-1.83477e-06
1.22341e-05
-1.79313e-06
1.22387e-05
-1.83031e-06
1.22341e-05
-1.79435e-06
1.22385e-05
-1.82921e-06
1.22346e-05
-1.79716e-06
1.22389e-05
-1.82782e-06
1.2234e-05
-1.79513e-06
1.22386e-05
-1.82949e-06
1.22343e-05
-1.79451e-06
1.22413e-05
-1.83816e-06
1.22342e-05
-1.784e-06
1.22426e-05
-1.84441e-06
1.22337e-05
-1.77756e-06
1.2243e-05
-1.84902e-06
1.22312e-05
-1.76826e-06
1.22431e-05
-1.85785e-06
1.223e-05
-1.76315e-06
1.22444e-05
-1.86502e-06
1.2229e-05
-1.7564e-06
1.22442e-05
-1.86781e-06
1.22277e-05
-1.75406e-06
1.22437e-05
-1.86905e-06
1.2227e-05
-1.7541e-06
1.22431e-05
-1.86925e-06
1.22287e-05
-1.75937e-06
1.22423e-05
-1.86172e-06
1.223e-05
-1.76756e-06
1.2241e-05
-1.85169e-06
1.22302e-05
-1.77561e-06
1.22332e-05
-1.82683e-06
1.21792e-05
-1.6518e-06
1.26765e-05
-3.13628e-06
1.33273e-05
-3.46732e-06
1.30982e-05
-8.43309e-07
1.30147e-05
-1.66684e-06
-1.75627e-06
1.74793e-05
1.40096e-05
1.63737e-05
5.47013e-06
1.55124e-05
1.01308e-06
1.48951e-05
-5.50465e-07
1.44533e-05
-9.2906e-07
1.42072e-05
-1.26944e-06
1.40318e-05
-1.4465e-06
1.3923e-05
-1.56908e-06
1.38519e-05
-1.67397e-06
1.38122e-05
-1.7405e-06
1.37905e-05
-1.79229e-06
1.37856e-05
-1.82342e-06
1.37916e-05
-1.85937e-06
1.38054e-05
-1.87324e-06
1.38291e-05
-1.90149e-06
1.38582e-05
-1.91481e-06
1.3893e-05
-1.92879e-06
1.39314e-05
-1.93675e-06
1.39731e-05
-1.94637e-06
1.40194e-05
-1.95949e-06
1.40685e-05
-1.96654e-06
1.41198e-05
-1.97164e-06
1.41728e-05
-1.97637e-06
1.42276e-05
-1.98025e-06
1.42819e-05
-1.97933e-06
1.43316e-05
-1.96583e-06
1.43754e-05
-1.94696e-06
1.44135e-05
-1.92831e-06
1.44463e-05
-1.91153e-06
1.44745e-05
-1.89666e-06
1.44985e-05
-1.88379e-06
1.45188e-05
-1.87259e-06
1.4536e-05
-1.86307e-06
1.45505e-05
-1.85496e-06
1.45628e-05
-1.84812e-06
1.45731e-05
-1.84239e-06
1.45818e-05
-1.83755e-06
1.45891e-05
-1.83359e-06
1.45953e-05
-1.83017e-06
1.46005e-05
-1.82745e-06
1.46049e-05
-1.82505e-06
1.46087e-05
-1.82327e-06
1.46119e-05
-1.82169e-06
1.46147e-05
-1.82007e-06
1.4617e-05
-1.81896e-06
1.46189e-05
-1.81779e-06
1.46206e-05
-1.81729e-06
1.46221e-05
-1.81654e-06
1.46234e-05
-1.81611e-06
1.46245e-05
-1.81515e-06
1.46253e-05
-1.81502e-06
1.4626e-05
-1.81358e-06
1.46266e-05
-1.81523e-06
1.46272e-05
-1.81203e-06
1.46277e-05
-1.81664e-06
1.46284e-05
-1.80948e-06
1.463e-05
-1.82514e-06
1.46487e-05
-1.85878e-06
1.46291e-05
-1.75259e-06
1.42866e-05
-4.74328e-07
1.39674e-05
-8.18894e-07
1.38659e-05
-1.66033e-06
1.38459e-05
-1.82327e-06
1.38397e-05
-1.81353e-06
1.38483e-05
-1.85708e-06
1.38534e-05
-1.82426e-06
1.38638e-05
-1.84949e-06
1.38688e-05
-1.81988e-06
1.38756e-05
-1.83973e-06
1.3878e-05
-1.8238e-06
1.38794e-05
-1.82359e-06
1.38742e-05
-1.78357e-06
1.38757e-05
-1.81703e-06
1.38774e-05
-1.82075e-06
1.38825e-05
-1.83522e-06
1.38834e-05
-1.80481e-06
1.38846e-05
-1.8119e-06
1.38851e-05
-1.81696e-06
1.38859e-05
-1.8198e-06
1.38851e-05
-1.80131e-06
1.38873e-05
-1.8153e-06
1.38907e-05
-1.82875e-06
1.38925e-05
-1.82099e-06
1.38906e-05
-1.79831e-06
1.38896e-05
-1.80566e-06
1.38911e-05
-1.82302e-06
1.38918e-05
-1.81856e-06
1.38895e-05
-1.79766e-06
1.38885e-05
-1.8054e-06
1.389e-05
-1.82403e-06
1.38909e-05
-1.81878e-06
1.38888e-05
-1.79862e-06
1.38879e-05
-1.80555e-06
1.38897e-05
-1.8249e-06
1.38906e-05
-1.81897e-06
1.38886e-05
-1.79905e-06
1.38877e-05
-1.80571e-06
1.38896e-05
-1.82503e-06
1.38906e-05
-1.81901e-06
1.38886e-05
-1.79926e-06
1.38877e-05
-1.80576e-06
1.38896e-05
-1.82515e-06
1.38907e-05
-1.81903e-06
1.38888e-05
-1.79943e-06
1.38879e-05
-1.80579e-06
1.38898e-05
-1.8252e-06
1.38908e-05
-1.81901e-06
1.3889e-05
-1.79944e-06
1.38881e-05
-1.80583e-06
1.389e-05
-1.82519e-06
1.38909e-05
-1.819e-06
1.38891e-05
-1.79941e-06
1.38883e-05
-1.80582e-06
1.38902e-05
-1.82525e-06
1.38911e-05
-1.81898e-06
1.38893e-05
-1.79939e-06
1.38884e-05
-1.8058e-06
1.38904e-05
-1.82524e-06
1.38914e-05
-1.81902e-06
1.38894e-05
-1.79939e-06
1.38886e-05
-1.80579e-06
1.38905e-05
-1.82522e-06
1.38915e-05
-1.81905e-06
1.38897e-05
-1.79944e-06
1.38888e-05
-1.80575e-06
1.38907e-05
-1.82523e-06
1.38917e-05
-1.81903e-06
1.38899e-05
-1.79944e-06
1.3889e-05
-1.80583e-06
1.38909e-05
-1.8252e-06
1.38919e-05
-1.81903e-06
1.389e-05
-1.79944e-06
1.38892e-05
-1.80587e-06
1.38912e-05
-1.82527e-06
1.38921e-05
-1.819e-06
1.38902e-05
-1.79944e-06
1.38894e-05
-1.80583e-06
1.38914e-05
-1.82526e-06
1.38924e-05
-1.81913e-06
1.38905e-05
-1.79944e-06
1.38896e-05
-1.80572e-06
1.38916e-05
-1.82544e-06
1.38926e-05
-1.81877e-06
1.38907e-05
-1.79954e-06
1.38898e-05
-1.80584e-06
1.38918e-05
-1.82562e-06
1.38961e-05
-1.82782e-06
1.38993e-05
-1.81754e-06
1.39013e-05
-1.81446e-06
1.39018e-05
-1.81226e-06
1.39019e-05
-1.81173e-06
1.3902e-05
-1.81175e-06
1.3902e-05
-1.81205e-06
1.3902e-05
-1.8119e-06
1.39018e-05
-1.81177e-06
1.39017e-05
-1.81159e-06
1.39015e-05
-1.81171e-06
1.39014e-05
-1.81165e-06
1.39013e-05
-1.81181e-06
1.3901e-05
-1.81174e-06
1.39009e-05
-1.81202e-06
1.39009e-05
-1.81201e-06
1.39008e-05
-1.81195e-06
1.39007e-05
-1.81181e-06
1.39006e-05
-1.81219e-06
1.39007e-05
-1.8123e-06
1.39007e-05
-1.81241e-06
1.39009e-05
-1.8125e-06
1.3901e-05
-1.81258e-06
1.3901e-05
-1.81233e-06
1.3901e-05
-1.81248e-06
1.39011e-05
-1.81229e-06
1.39011e-05
-1.81239e-06
1.39012e-05
-1.81229e-06
1.39011e-05
-1.81232e-06
1.39012e-05
-1.81234e-06
1.39013e-05
-1.81247e-06
1.39014e-05
-1.81235e-06
1.39014e-05
-1.81243e-06
1.39014e-05
-1.81228e-06
1.39014e-05
-1.81243e-06
1.39015e-05
-1.81235e-06
1.39016e-05
-1.81245e-06
1.39017e-05
-1.81235e-06
1.39017e-05
-1.81242e-06
1.39017e-05
-1.81235e-06
1.39018e-05
-1.81247e-06
1.39019e-05
-1.81244e-06
1.3902e-05
-1.81254e-06
1.3902e-05
-1.81238e-06
1.39021e-05
-1.81246e-06
1.39021e-05
-1.81239e-06
1.39023e-05
-1.81255e-06
1.39023e-05
-1.81241e-06
1.39023e-05
-1.81241e-06
1.39023e-05
-1.81231e-06
1.39025e-05
-1.81243e-06
1.39026e-05
-1.8124e-06
1.39026e-05
-1.81246e-06
1.39026e-05
-1.81233e-06
1.39027e-05
-1.81247e-06
1.39028e-05
-1.81245e-06
1.39029e-05
-1.81254e-06
1.39029e-05
-1.8124e-06
1.39029e-05
-1.81246e-06
1.3903e-05
-1.8124e-06
1.39031e-05
-1.81248e-06
1.39032e-05
-1.81243e-06
1.39033e-05
-1.81255e-06
1.39033e-05
-1.81236e-06
1.39034e-05
-1.81241e-06
1.39034e-05
-1.81233e-06
1.39035e-05
-1.81246e-06
1.39035e-05
-1.8124e-06
1.39036e-05
-1.81245e-06
1.39036e-05
-1.81237e-06
1.39037e-05
-1.81252e-06
1.39038e-05
-1.81247e-06
1.39039e-05
-1.81248e-06
1.39039e-05
-1.81231e-06
1.3904e-05
-1.81243e-06
1.3904e-05
-1.8124e-06
1.39041e-05
-1.81244e-06
1.39041e-05
-1.81236e-06
1.39042e-05
-1.81245e-06
1.39043e-05
-1.81239e-06
1.39044e-05
-1.81246e-06
1.39044e-05
-1.81238e-06
1.39045e-05
-1.81245e-06
1.39045e-05
-1.81241e-06
1.39045e-05
-1.81238e-06
1.39046e-05
-1.81247e-06
1.39046e-05
-1.81231e-06
1.39047e-05
-1.81255e-06
1.39047e-05
-1.81213e-06
1.39048e-05
-1.81286e-06
1.39048e-05
-1.81169e-06
1.3905e-05
-1.8134e-06
1.39048e-05
-1.81093e-06
1.39052e-05
-1.81444e-06
1.39047e-05
-1.8096e-06
1.39054e-05
-1.81596e-06
1.39047e-05
-1.80805e-06
1.39056e-05
-1.81752e-06
1.39046e-05
-1.80634e-06
1.39059e-05
-1.81938e-06
1.39046e-05
-1.80436e-06
1.39061e-05
-1.8214e-06
1.39045e-05
-1.80226e-06
1.39064e-05
-1.8236e-06
1.39043e-05
-1.79985e-06
1.39067e-05
-1.82615e-06
1.39042e-05
-1.79713e-06
1.39071e-05
-1.82942e-06
1.39039e-05
-1.79313e-06
1.39075e-05
-1.83377e-06
1.39036e-05
-1.7886e-06
1.39081e-05
-1.83939e-06
1.39032e-05
-1.78279e-06
1.39089e-05
-1.84403e-06
1.39027e-05
-1.77935e-06
1.39091e-05
-1.84573e-06
1.39035e-05
-1.78129e-06
1.39082e-05
-1.83938e-06
1.39045e-05
-1.78948e-06
1.3908e-05
-1.83382e-06
1.39045e-05
-1.79079e-06
1.3908e-05
-1.83274e-06
1.39047e-05
-1.7939e-06
1.39083e-05
-1.83142e-06
1.39045e-05
-1.79126e-06
1.39081e-05
-1.8331e-06
1.39047e-05
-1.79116e-06
1.39103e-05
-1.84377e-06
1.3905e-05
-1.77866e-06
1.39116e-05
-1.85099e-06
1.39047e-05
-1.77072e-06