/*--------------------------------*- C++ -*----------------------------------*\
| =========                 |                                                 |
| \\      /  F ield         | foam-extend: Open Source CFD                    |
|  \\    /   O peration     | Version:     3.2                                |
|   \\  /    A nd           | Web:         http://www.foam-extend.org         |
|    \\/     M anipulation  | For copyright notice see file Copyright         |
\*---------------------------------------------------------------------------*/
FoamFile
{
    version     2.0;
    format      ascii;
    class       areaVectorField;
    location    "50";
    object      aMeshCentreN;
}
// * * * * * * * * * * * * * * * * * * * * * * * * * * * * * * * * * * * * * //

dimensions      [0 0 0 0 0 0 0];

internalField   nonuniform List<vector> 
300
(
(0.025 0.01 -0.000125)
(0.075 0.01 -0.000375)
(0.125 0.01 -0.000625)
(0.175 0.01 -0.000875)
(0.225 0.01 -0.001125)
(0.275 0.01 -0.001375)
(0.325 0.01 -0.001625)
(0.375 0.01 -0.001875)
(0.425 0.01 -0.002125)
(0.475 0.01 -0.002375)
(0.525 0.01 -0.002625)
(0.575 0.01 -0.002875)
(0.625 0.01 -0.003125)
(0.675 0.01 -0.003375)
(0.725 0.01 -0.003625)
(0.775 0.01 -0.003875)
(0.825 0.01 -0.004125)
(0.875 0.01 -0.004375)
(0.925 0.01 -0.004625)
(0.975 0.01 -0.004875)
(1.025 0.01 -0.005125)
(1.075 0.01 -0.005375)
(1.125 0.01 -0.005625)
(1.175 0.01 -0.005875)
(1.225 0.01 -0.006125)
(1.275 0.01 -0.006375)
(1.325 0.01 -0.006625)
(1.375 0.01 -0.006875)
(1.425 0.01 -0.007125)
(1.475 0.01 -0.007375)
(1.525 0.01 -0.007625)
(1.575 0.01 -0.007875)
(1.625 0.01 -0.008125)
(1.675 0.01 -0.008375)
(1.725 0.01 -0.008625)
(1.775 0.01 -0.008875)
(1.825 0.01 -0.009125)
(1.875 0.01 -0.009375)
(1.925 0.01 -0.009625)
(1.975 0.01 -0.009875)
(2.025 0.01 -0.010125)
(2.075 0.01 -0.010375)
(2.125 0.01 -0.010625)
(2.175 0.01 -0.010875)
(2.225 0.01 -0.011125)
(2.275 0.01 -0.011375)
(2.325 0.01 -0.011625)
(2.375 0.01 -0.011875)
(2.425 0.01 -0.012125)
(2.475 0.01 -0.012375)
(2.525 0.01 -0.012625)
(2.575 0.01 -0.012875)
(2.625 0.01 -0.013125)
(2.675 0.01 -0.013375)
(2.725 0.01 -0.013625)
(2.775 0.01 -0.013875)
(2.825 0.01 -0.014125)
(2.875 0.01 -0.014375)
(2.925 0.01 -0.014625)
(2.975 0.01 -0.0150677)
(3.025 0.01 -0.0157151)
(3.075 0.01 -0.016281)
(3.125 0.01 -0.0167019)
(3.175 0.01 -0.0170565)
(3.225 0.01 -0.0173764)
(3.275 0.01 -0.0176726)
(3.325 0.01 -0.0179553)
(3.375 0.01 -0.0182273)
(3.425 0.01 -0.0184929)
(3.475 0.01 -0.0187527)
(3.525 0.01 -0.0190106)
(3.575 0.01 -0.0192714)
(3.625 0.01 -0.019531)
(3.675 0.01 -0.0197837)
(3.725 0.01 -0.0200317)
(3.775 0.01 -0.0202791)
(3.825 0.01 -0.0205278)
(3.875 0.01 -0.0207755)
(3.925 0.01 -0.0210235)
(3.975 0.01 -0.0212727)
(4.025 0.01 -0.0215208)
(4.075 0.01 -0.0217652)
(4.125 0.01 -0.0220091)
(4.175 0.01 -0.022257)
(4.225 0.01 -0.0225074)
(4.275 0.01 -0.0227558)
(4.325 0.01 -0.0230033)
(4.375 0.01 -0.0232537)
(4.425 0.01 -0.0235055)
(4.475 0.01 -0.0237546)
(4.525 0.01 -0.0240025)
(4.575 0.01 -0.0242531)
(4.625 0.01 -0.024505)
(4.675 0.01 -0.0247543)
(4.725 0.01 -0.0250022)
(4.775 0.01 -0.0252529)
(4.825 0.01 -0.0255049)
(4.875 0.01 -0.0257542)
(4.925 0.01 -0.0260021)
(4.975 0.01 -0.0262527)
(5.025 0.01 -0.0265047)
(5.075 0.01 -0.026754)
(5.125 0.01 -0.027002)
(5.175 0.01 -0.0272526)
(5.225 0.01 -0.0275045)
(5.275 0.01 -0.0277538)
(5.325 0.01 -0.0280017)
(5.375 0.01 -0.0282523)
(5.425 0.01 -0.0285043)
(5.475 0.01 -0.0287536)
(5.525 0.01 -0.0290015)
(5.575 0.01 -0.0292521)
(5.625 0.01 -0.029504)
(5.675 0.01 -0.0297533)
(5.725 0.01 -0.0300012)
(5.775 0.01 -0.0302518)
(5.825 0.01 -0.0305037)
(5.875 0.01 -0.030753)
(5.925 0.01 -0.0310009)
(5.975 0.01 -0.0312514)
(6.025 0.01 -0.0315034)
(6.075 0.01 -0.0317526)
(6.125 0.01 -0.0320005)
(6.175 0.01 -0.0322511)
(6.225 0.01 -0.032503)
(6.275 0.01 -0.0327523)
(6.325 0.01 -0.0330002)
(6.375 0.01 -0.0332507)
(6.425 0.01 -0.0335027)
(6.475 0.01 -0.0337519)
(6.525 0.01 -0.0339998)
(6.575 0.01 -0.0342503)
(6.625 0.01 -0.0345023)
(6.675 0.01 -0.0347515)
(6.725 0.01 -0.0349994)
(6.775 0.01 -0.0352499)
(6.825 0.01 -0.0355019)
(6.875 0.01 -0.0357511)
(6.925 0.01 -0.035999)
(6.975 0.01 -0.0362495)
(7.025 0.01 -0.0365015)
(7.075 0.01 -0.0367507)
(7.125 0.01 -0.0369985)
(7.175 0.01 -0.0372491)
(7.225 0.01 -0.037501)
(7.275 0.01 -0.0377501)
(7.325 0.01 -0.0379961)
(7.375 0.01 -0.0382415)
(7.425 0.01 -0.038488)
(7.475 0.01 -0.0387356)
(7.525 0.01 -0.0389841)
(7.575 0.01 -0.039233)
(7.625 0.01 -0.0394821)
(7.675 0.01 -0.0397312)
(7.725 0.01 -0.0399805)
(7.775 0.01 -0.0402299)
(7.825 0.01 -0.0404795)
(7.875 0.01 -0.0407292)
(7.925 0.01 -0.0409789)
(7.975 0.01 -0.0412288)
(8.025 0.01 -0.0414786)
(8.075 0.01 -0.0417284)
(8.125 0.01 -0.0419783)
(8.175 0.01 -0.0422281)
(8.225 0.01 -0.0424779)
(8.275 0.01 -0.0427278)
(8.325 0.01 -0.0429777)
(8.375 0.01 -0.0432275)
(8.425 0.01 -0.0434774)
(8.475 0.01 -0.0437273)
(8.525 0.01 -0.0439772)
(8.575 0.01 -0.0442271)
(8.625 0.01 -0.0444769)
(8.675 0.01 -0.0447268)
(8.725 0.01 -0.0449767)
(8.775 0.01 -0.0452266)
(8.825 0.01 -0.0454765)
(8.875 0.01 -0.0457263)
(8.925 0.01 -0.0459762)
(8.975 0.01 -0.0462261)
(9.025 0.01 -0.046476)
(9.075 0.01 -0.0467258)
(9.125 0.01 -0.0469757)
(9.175 0.01 -0.0472256)
(9.225 0.01 -0.0474755)
(9.275 0.01 -0.0477254)
(9.325 0.01 -0.0479752)
(9.375 0.01 -0.0482251)
(9.425 0.01 -0.048475)
(9.475 0.01 -0.0487248)
(9.525 0.01 -0.0489747)
(9.575 0.01 -0.0492246)
(9.625 0.01 -0.0494744)
(9.675 0.01 -0.0497243)
(9.725 0.01 -0.0499742)
(9.775 0.01 -0.0502241)
(9.825 0.01 -0.0504739)
(9.875 0.01 -0.0507238)
(9.925 0.01 -0.0509737)
(9.975 0.01 -0.0512235)
(10.025 0.01 -0.0514734)
(10.075 0.01 -0.0517233)
(10.125 0.01 -0.0519732)
(10.175 0.01 -0.052223)
(10.225 0.01 -0.0524729)
(10.275 0.01 -0.0527228)
(10.325 0.01 -0.0529726)
(10.375 0.01 -0.0532225)
(10.425 0.01 -0.0534724)
(10.475 0.01 -0.0537223)
(10.525 0.01 -0.0539721)
(10.575 0.01 -0.054222)
(10.625 0.01 -0.0544719)
(10.675 0.01 -0.0547218)
(10.725 0.01 -0.0549716)
(10.775 0.01 -0.0552215)
(10.825 0.01 -0.0554714)
(10.875 0.01 -0.0557213)
(10.925 0.01 -0.0559712)
(10.975 0.01 -0.056221)
(11.025 0.01 -0.0564709)
(11.075 0.01 -0.0567208)
(11.125 0.01 -0.0569707)
(11.175 0.01 -0.0572206)
(11.225 0.01 -0.0574705)
(11.275 0.01 -0.0577204)
(11.325 0.01 -0.0579703)
(11.375 0.01 -0.0582201)
(11.425 0.01 -0.0584701)
(11.475 0.01 -0.05872)
(11.525 0.01 -0.0589699)
(11.575 0.01 -0.0592198)
(11.625 0.01 -0.0594697)
(11.675 0.01 -0.0597196)
(11.725 0.01 -0.0599695)
(11.775 0.01 -0.0602193)
(11.825 0.01 -0.0604693)
(11.875 0.01 -0.0607192)
(11.925 0.01 -0.0609692)
(11.975 0.01 -0.061219)
(12.025 0.01 -0.061469)
(12.075 0.01 -0.0617188)
(12.125 0.01 -0.0619689)
(12.175 0.01 -0.0622186)
(12.225 0.01 -0.0624687)
(12.275 0.01 -0.0627185)
(12.325 0.01 -0.0629686)
(12.375 0.01 -0.0632184)
(12.425 0.01 -0.0634685)
(12.475 0.01 -0.0637182)
(12.525 0.01 -0.0639684)
(12.575 0.01 -0.0642181)
(12.625 0.01 -0.0644683)
(12.675 0.01 -0.0647179)
(12.725 0.01 -0.0649682)
(12.775 0.01 -0.0652178)
(12.825 0.01 -0.0654681)
(12.875 0.01 -0.0657176)
(12.925 0.01 -0.0659678)
(12.975 0.01 -0.0662175)
(13.025 0.01 -0.0664676)
(13.075 0.01 -0.0667175)
(13.125 0.01 -0.0669671)
(13.175 0.01 -0.0672175)
(13.225 0.01 -0.0674669)
(13.275 0.01 -0.067717)
(13.325 0.01 -0.0679669)
(13.375 0.01 -0.068217)
(13.425 0.01 -0.0684666)
(13.475 0.01 -0.0687165)
(13.525 0.01 -0.0689667)
(13.575 0.01 -0.0692165)
(13.625 0.01 -0.0694666)
(13.675 0.01 -0.0697148)
(13.725 0.01 -0.0699649)
(13.775 0.01 -0.0702139)
(13.825 0.01 -0.0704642)
(13.875 0.01 -0.0707136)
(13.925 0.01 -0.0709651)
(13.975 0.01 -0.071215)
(14.025 0.01 -0.0714658)
(14.075 0.01 -0.0717153)
(14.125 0.01 -0.071966)
(14.175 0.01 -0.0722164)
(14.225 0.01 -0.0724672)
(14.275 0.01 -0.0727178)
(14.325 0.01 -0.0729683)
(14.375 0.01 -0.0732186)
(14.425 0.01 -0.0734682)
(14.475 0.01 -0.0737188)
(14.525 0.01 -0.0739678)
(14.575 0.01 -0.0742186)
(14.625 0.01 -0.074468)
(14.675 0.01 -0.074717)
(14.725 0.01 -0.0749656)
(14.775 0.01 -0.0749924)
(14.825 0.01 -0.0745683)
(14.875 0.01 -0.074375)
(14.925 0.01 -0.074625)
(14.975 0.01 -0.074875)
)
;

boundaryField
{
    inlet
    {
        type            calculated;
        value           uniform (0 0 0);
    }
    outlet
    {
        type            calculated;
        value           uniform (0 0 0);
    }
    sideWall
    {
        type            empty;
    }
}


// ************************************************************************* //
