/*--------------------------------*- C++ -*----------------------------------*\
| =========                 |                                                 |
| \\      /  F ield         | foam-extend: Open Source CFD                    |
|  \\    /   O peration     | Version:     3.2                                |
|   \\  /    A nd           | Web:         http://www.foam-extend.org         |
|    \\/     M anipulation  | For copyright notice see file Copyright         |
\*---------------------------------------------------------------------------*/
FoamFile
{
    version     2.0;
    format      ascii;
    class       areaScalarField;
    location    "50";
    object      angBeta;
}
// * * * * * * * * * * * * * * * * * * * * * * * * * * * * * * * * * * * * * //

dimensions      [0 0 0 0 0 0 0];

internalField   nonuniform List<scalar> 
300
(
0.00499996
0.00499996
0.00499996
0.00499996
0.00499996
0.00499996
0.00499996
0.00499996
0.00499996
0.00499996
0.00499996
0.00499996
0.00499996
0.00499996
0.00499996
0.00499996
0.00499996
0.00499996
0.00499996
0.00499996
0.00499996
0.00499996
0.00499996
0.00499996
0.00499996
0.00499996
0.00499996
0.00499996
0.00499996
0.00499996
0.00499996
0.00499996
0.00499996
0.00499996
0.00499996
0.00499996
0.00499996
0.00499996
0.00499996
0.00499996
0.00499996
0.00499996
0.00499996
0.00499996
0.00499996
0.00499996
0.00499996
0.00499996
0.00499996
0.00499996
0.00499996
0.00499996
0.00499996
0.00499996
0.00499996
0.00499996
0.00499996
0.00499996
0.00499996
0.0127086
0.0131836
0.0094531
0.00738344
0.00679873
0.00599799
0.00585043
0.00545547
0.00542438
0.00520033
0.00519149
0.00512228
0.00531045
0.0050741
0.00503308
0.00488755
0.00500743
0.00494192
0.00496501
0.00495489
0.00501328
0.00491203
0.00486362
0.00489394
0.00501953
0.00499788
0.00493863
0.00496067
0.00505253
0.00502036
0.00494588
0.0049688
0.00505363
0.0050241
0.00494641
0.00497126
0.00505396
0.00502573
0.00494621
0.00497207
0.0050534
0.00502585
0.00494555
0.00497189
0.00505292
0.00502574
0.00494506
0.00497161
0.00505258
0.00502559
0.00494489
0.00497143
0.0050523
0.00502542
0.00494477
0.00497137
0.00505219
0.00502525
0.00494459
0.0049713
0.00505211
0.00502516
0.00494446
0.00497112
0.00505205
0.00502508
0.00494441
0.00497103
0.00505195
0.00502497
0.00494442
0.00497088
0.00505191
0.00502488
0.00494427
0.00497094
0.00505166
0.00502467
0.00494455
0.00497067
0.00505157
0.00502572
0.00494206
0.00497245
0.00504907
0.00502639
0.00494055
0.00489682
0.00492108
0.00493911
0.00496498
0.00497531
0.00498064
0.00498127
0.00498394
0.00498656
0.00499078
0.00499249
0.00499487
0.00499539
0.00499688
0.00499615
0.00499709
0.00499615
0.00499633
0.00499657
0.00499825
0.0049974
0.00499811
0.00499723
0.00499776
0.00499712
0.00499793
0.00499722
0.00499797
0.00499727
0.00499783
0.00499698
0.00499789
0.00499728
0.00499787
0.00499698
0.00499773
0.00499735
0.00499802
0.0049971
0.00499771
0.004997
0.00499764
0.00499703
0.00499764
0.00499696
0.00499773
0.00499707
0.00499785
0.00499709
0.0049976
0.00499698
0.00499773
0.00499718
0.00499785
0.00499704
0.00499775
0.00499712
0.00499772
0.00499697
0.0049976
0.00499709
0.00499776
0.00499697
0.00499774
0.00499721
0.00499793
0.00499715
0.00499769
0.00499717
0.0049979
0.00499715
0.0049979
0.00499734
0.00499803
0.00499733
0.00499789
0.00499739
0.00499806
0.00499746
0.00499807
0.00499739
0.004998
0.0049982
0.00499831
0.00499795
0.00499752
0.00499848
0.00499696
0.005
0.00499462
0.00500355
0.00499036
0.00500972
0.00498248
0.00501915
0.00497257
0.00502948
0.00496188
0.0050413
0.00494924
0.00505468
0.00493575
0.00506897
0.0049207
0.00508556
0.004903
0.00510505
0.00487951
0.00513301
0.00484956
0.0051635
0.00481582
0.00519329
0.00479468
0.00520673
0.00478843
0.00519634
0.0048203
0.0051558
0.00484774
0.00514738
0.00485764
0.00512631
0.00486832
0.00513905
0.00485325
0.00515232
0.0047752
0.00523016
0.00472763
0.00528498
0.00469263
0.00536601
0.00463027
0.00539977
0.00458015
0.00544833
0.00456672
0.00546616
0.00455908
0.00545976
0.00455074
0.00543648
0.00458413
0.00537676
0.00465416
0.00532206
0.00463813
0.00530583
0.00423111
0.0127325
0.00499996
0.00499996
0.00499996
)
;

boundaryField
{
    inlet
    {
        type            calculated;
        value           uniform 0;
    }
    outlet
    {
        type            calculated;
        value           uniform 0;
    }
    sideWall
    {
        type            empty;
    }
}


// ************************************************************************* //
