/*--------------------------------*- C++ -*----------------------------------*\
| =========                 |                                                 |
| \\      /  F ield         | foam-extend: Open Source CFD                    |
|  \\    /   O peration     | Version:     3.2                                |
|   \\  /    A nd           | Web:         http://www.foam-extend.org         |
|    \\/     M anipulation  | For copyright notice see file Copyright         |
\*---------------------------------------------------------------------------*/
FoamFile
{
    version     2.0;
    format      ascii;
    class       areaVectorField;
    location    "50";
    object      aUf;
}
// * * * * * * * * * * * * * * * * * * * * * * * * * * * * * * * * * * * * * //

dimensions      [0 1 -1 0 0 0 0];

internalField   nonuniform List<vector> 
300
(
(0.757788 -9.7034e-26 0.0174444)
(0.603058 1.56979e-25 2.50095e-05)
(0.518094 6.1536e-26 -0.00279168)
(0.520337 0 -0.00274982)
(0.510795 -6.52977e-27 -0.00266759)
(0.511987 -5.90436e-27 -0.00259541)
(0.50792 -7.3305e-27 -0.00258537)
(0.507993 -2.55289e-27 -0.00254805)
(0.506431 0 -0.00256029)
(0.507116 -6.75215e-28 -0.0025416)
(0.507151 0 -0.00255597)
(0.508224 2.90257e-29 -0.00255069)
(0.509104 -4.67689e-28 -0.0025638)
(0.510634 -5.22145e-28 -0.00256617)
(0.51196 0 -0.00257541)
(0.513795 0 -0.00258344)
(0.51552 -1.20672e-27 -0.0025929)
(0.5175 1.27718e-27 -0.0026017)
(0.519416 0 -0.00261309)
(0.521565 0 -0.00262373)
(0.523764 0 -0.00263486)
(0.526014 1.76191e-27 -0.00264561)
(0.528298 0 -0.00265728)
(0.530596 0 -0.00266794)
(0.532904 0 -0.00267888)
(0.535101 1.85493e-27 -0.00268812)
(0.537031 -1.65144e-27 -0.00269535)
(0.538664 0 -0.00270128)
(0.540041 0 -0.00270649)
(0.541187 1.05711e-27 -0.00271085)
(0.542151 -8.99535e-28 -0.00271467)
(0.542948 0 -0.00271781)
(0.543619 0 -0.00272058)
(0.54417 0 -0.0027228)
(0.544638 -4.54767e-28 -0.0027248)
(0.545018 0 -0.00272636)
(0.545347 0 -0.00272781)
(0.545609 -2.70856e-28 -0.00272889)
(0.545845 0 -0.00272997)
(0.546025 0 -0.00273069)
(0.546198 0 -0.00273155)
(0.546322 -6.18673e-43 -0.00273201)
(0.546456 0 -0.00273272)
(0.546538 0 -0.00273291)
(0.546641 0 -0.00273354)
(0.54669 -6.62194e-29 -0.00273365)
(0.546776 1.26844e-28 -0.00273421)
(0.546798 0 -0.00273411)
(0.546892 1.89741e-39 -0.00273483)
(0.546861 0 -0.0027341)
(0.54701 0 -0.00273596)
(0.546856 -2.26376e-38 -0.00273295)
(0.547156 0 -0.00273812)
(0.546741 -2.99202e-29 -0.00273018)
(0.547443 0 -0.0027429)
(0.546378 0 -0.00272298)
(0.548105 5.92009e-28 -0.00275476)
(0.545521 7.86161e-28 -0.00270148)
(0.550485 1.26333e-26 -0.00276741)
(0.540614 0 -0.00659588)
(0.515864 -4.90038e-26 -0.00678932)
(0.514378 -1.95679e-26 -0.00493568)
(0.514947 1.33283e-26 -0.00381769)
(0.51464 4.7726e-31 -0.00348723)
(0.51478 -2.91547e-27 -0.00309325)
(0.514798 -1.38965e-27 -0.00299873)
(0.514744 1.61855e-27 -0.00281232)
(0.514833 4.26844e-28 -0.00277902)
(0.514695 0 -0.00268688)
(0.515115 0 -0.00268527)
(0.514962 5.42598e-27 -0.00265315)
(0.514916 0 -0.00270927)
(0.514613 -3.46062e-27 -0.00260718)
(0.514861 0 -0.00260287)
(0.514598 0 -0.00252768)
(0.514998 0 -0.00255706)
(0.51475 -9.50614e-32 -0.00253707)
(0.514929 0 -0.00257057)
(0.514583 4.12664e-27 -0.00255945)
(0.514829 8.17373e-27 -0.00256194)
(0.51465 -3.82095e-27 -0.00251943)
(0.514937 8.32173e-27 -0.00252142)
(0.514816 4.04588e-27 -0.00252916)
(0.514956 8.47372e-27 -0.00256619)
(0.514778 4.02116e-27 -0.00256461)
(0.514912 6.29648e-32 -0.00255998)
(0.514786 4.01138e-27 -0.00256325)
(0.514901 8.31853e-27 -0.00258355)
(0.514742 8.03537e-27 -0.00257575)
(0.514868 -6.52976e-32 -0.00256376)
(0.514763 4.01233e-27 -0.00256701)
(0.514873 -8.27412e-27 -0.00258418)
(0.51473 0 -0.00257737)
(0.514851 -8.25529e-27 -0.00256405)
(0.514758 0 -0.00256784)
(0.514864 -8.2731e-27 -0.00258461)
(0.51473 -7.99576e-27 -0.00257787)
(0.514847 0 -0.00256428)
(0.514762 0 -0.00256823)
(0.514864 -8.26649e-27 -0.00258439)
(0.514735 0 -0.00257791)
(0.514851 -8.24415e-27 -0.00256399)
(0.514768 3.97749e-32 -0.00256812)
(0.514869 0 -0.0025842)
(0.514742 7.99886e-27 -0.00257788)
(0.514857 -8.24578e-27 -0.00256378)
(0.514775 0 -0.002568)
(0.514876 9.27312e-32 -0.00258406)
(0.514749 7.99885e-27 -0.00257783)
(0.514864 0 -0.00256374)
(0.514783 4.02177e-27 -0.00256794)
(0.514883 8.26239e-27 -0.00258395)
(0.514756 0 -0.00257777)
(0.514871 0 -0.00256371)
(0.514789 -2.8689e-32 -0.00256795)
(0.51489 0 -0.00258392)
(0.514763 -2.36502e-32 -0.00257771)
(0.514878 -8.29759e-32 -0.00256364)
(0.514796 -4.02142e-27 -0.00256795)
(0.514896 -1.65234e-26 -0.00258393)
(0.51477 0 -0.0025777)
(0.514884 8.24323e-27 -0.0025636)
(0.514803 0 -0.00256788)
(0.514903 1.02556e-31 -0.00258393)
(0.514777 -7.99336e-27 -0.00257769)
(0.514892 8.23766e-27 -0.00256362)
(0.51481 0 -0.00256787)
(0.51491 0 -0.00258391)
(0.514784 0 -0.00257768)
(0.514899 -8.24046e-27 -0.00256366)
(0.514818 -4.02268e-27 -0.00256784)
(0.514918 -1.65188e-26 -0.00258394)
(0.514792 -4.00031e-27 -0.00257767)
(0.514908 0 -0.00256363)
(0.514826 -4.02275e-27 -0.00256791)
(0.514927 8.25747e-27 -0.00258386)
(0.514801 -2.31409e-32 -0.0025776)
(0.514916 -8.23698e-27 -0.00256382)
(0.514833 4.02331e-27 -0.00256781)
(0.514939 -8.25705e-27 -0.00258391)
(0.514808 -4.00641e-27 -0.00257814)
(0.514927 -1.64971e-26 -0.00256264)
(0.514843 0 -0.00256867)
(0.514942 8.24155e-27 -0.00258264)
(0.514816 0 -0.0025785)
(0.514929 6.68422e-32 -0.00256185)
(0.514848 8.901e-27 -0.00253027)
(0.514718 -1.61833e-27 -0.00252656)
(0.514602 1.94663e-28 -0.00253889)
(0.514541 0 -0.00255362)
(0.514509 4.2701e-29 -0.00255945)
(0.514488 -5.17054e-29 -0.00256225)
(0.514479 0 -0.00256269)
(0.514472 -1.82659e-29 -0.00256402)
(0.514467 -1.91471e-29 -0.00256542)
(0.514458 0 -0.00256751)
(0.514453 1.27188e-32 -0.00256845)
(0.514446 0 -0.00256953)
(0.51444 -9.95091e-33 -0.00256987)
(0.514436 -1.21028e-29 -0.0025707)
(0.514435 0 -0.00257032)
(0.514433 0 -0.00257064)
(0.514432 0 -0.00257031)
(0.514429 0 -0.00257025)
(0.514426 3.02295e-30 -0.00257028)
(0.514425 8.85192e-30 -0.00257119)
(0.514428 0 -0.00257087)
(0.51443 -7.88368e-30 -0.00257113)
(0.514433 3.44001e-30 -0.00257074)
(0.514434 0 -0.00257096)
(0.514438 1.5116e-29 -0.00257077)
(0.514439 -1.34531e-30 -0.00257113)
(0.514441 0 -0.0025709)
(0.514443 1.25385e-30 -0.00257123)
(0.514446 -1.07671e-30 -0.00257091)
(0.514447 -2.19285e-30 -0.0025711)
(0.51445 4.48474e-30 -0.00257075)
(0.514452 9.38153e-31 -0.00257117)
(0.514454 0 -0.00257094)
(0.514455 6.66552e-31 -0.00257119)
(0.514459 0 -0.00257081)
(0.514461 1.25341e-30 -0.00257114)
(0.514464 3.01011e-30 -0.00257101)
(0.514465 0 -0.00257132)
(0.514468 0 -0.00257092)
(0.514469 1.39079e-30 -0.00257118)
(0.514473 -2.96935e-30 -0.00257089)
(0.514475 0 -0.00257115)
(0.514479 -4.18633e-30 -0.00257093)
(0.51448 6.93224e-31 -0.00257119)
(0.514485 -8.04077e-30 -0.00257093)
(0.514486 1.39349e-30 -0.00257127)
(0.51449 9.87281e-30 -0.002571)
(0.514491 -2.25851e-30 -0.00257133)
(0.514494 0 -0.00257105)
(0.514497 1.59384e-30 -0.00257128)
(0.514501 -2.33678e-30 -0.00257102)
(0.514502 0 -0.00257136)
(0.514505 -3.68325e-30 -0.00257114)
(0.514507 -2.77792e-31 -0.00257145)
(0.514511 0 -0.0025711)
(0.514513 2.96245e-31 -0.00257141)
(0.514517 0 -0.00257118)
(0.514519 0 -0.00257143)
(0.514522 -9.79646e-33 -0.00257112)
(0.514524 1.32226e-30 -0.00257139)
(0.514528 0 -0.00257122)
(0.51453 2.35314e-30 -0.00257151)
(0.514535 6.34704e-30 -0.00257119)
(0.514537 6.6396e-31 -0.00257154)
(0.51454 0 -0.00257134)
(0.514542 -6.78891e-31 -0.00257167)
(0.514545 3.88495e-30 -0.00257134)
(0.514547 -4.0744e-31 -0.00257157)
(0.514551 4.19934e-30 -0.00257136)
(0.514552 0 -0.0025717)
(0.514557 0 -0.00257138)
(0.514559 0 -0.00257171)
(0.514562 0 -0.00257151)
(0.514564 1.15489e-31 -0.00257184)
(0.514567 0 -0.00257154)
(0.514569 0 -0.00257178)
(0.514573 0 -0.00257155)
(0.514574 -5.72825e-30 -0.00257184)
(0.514577 0 -0.00257161)
(0.514579 4.43904e-30 -0.00257191)
(0.51458 0 -0.0025716)
(0.514585 0 -0.00257196)
(0.514586 0 -0.00257214)
(0.514594 0 -0.00257219)
(0.514589 0 -0.0025719)
(0.514602 5.82431e-30 -0.00257186)
(0.514589 0 -0.00257215)
(0.514613 2.54121e-30 -0.00257167)
(0.514583 -9.0579e-33 -0.0025728)
(0.514633 1.42095e-29 -0.00257079)
(0.514571 2.3418e-32 -0.00257417)
(0.514657 0 -0.00256924)
(0.514553 -1.67165e-29 -0.00257653)
(0.514686 -2.25555e-29 -0.00256629)
(0.514535 0 -0.00258017)
(0.514711 0 -0.00256245)
(0.51452 5.5559e-29 -0.0025843)
(0.514736 7.62662e-29 -0.00255819)
(0.514502 0 -0.0025891)
(0.514762 -1.13387e-28 -0.00255308)
(0.514484 0 -0.00259455)
(0.51479 0 -0.00254768)
(0.514461 3.43091e-28 -0.00260031)
(0.514825 0 -0.00254167)
(0.51443 0 -0.00260697)
(0.514867 -2.44731e-28 -0.00253465)
(0.514389 0 -0.0026147)
(0.51492 0 -0.00252518)
(0.51435 0 -0.00262623)
(0.514952 -4.06135e-28 -0.00251267)
(0.514342 4.65118e-28 -0.00263927)
(0.514944 0 -0.00249745)
(0.514403 0 -0.00265323)
(0.514862 6.79711e-28 -0.00248723)
(0.51451 -7.00572e-28 -0.00266038)
(0.514755 -7.31015e-28 -0.00248333)
(0.514637 0 -0.00265612)
(0.514662 0 -0.00250214)
(0.514672 -6.89977e-31 -0.00263366)
(0.51471 -4.99937e-28 -0.00251052)
(0.514613 0 -0.00263382)
(0.514759 -4.80889e-28 -0.00251497)
(0.514549 0 -0.00262422)
(0.514899 0 -0.00252008)
(0.514394 -4.34311e-28 -0.00262917)
(0.515048 0 -0.00251572)
(0.514209 -2.85493e-28 -0.0026313)
(0.515287 -9.04682e-31 -0.0024828)
(0.514184 -6.07939e-28 -0.00266379)
(0.515333 0 -0.00246378)
(0.514152 0 -0.00268726)
(0.515387 8.19775e-28 -0.00245097)
(0.51407 -1.04933e-27 -0.00272329)
(0.515321 0 -0.00242331)
(0.514104 -1.27838e-27 -0.00273741)
(0.515264 1.37417e-27 -0.00240001)
(0.514207 -1.48709e-27 -0.00276024)
(0.5151 2.94144e-27 -0.00239401)
(0.514323 1.53501e-27 -0.00276985)
(0.514918 0 -0.0023885)
(0.514452 1.55237e-27 -0.0027681)
(0.514713 -1.7369e-27 -0.00238895)
(0.514704 -2.7962e-27 -0.00275438)
(0.514455 -1.67785e-30 -0.00239232)
(0.514996 -3.36399e-27 -0.00273801)
(0.514146 -3.03684e-27 -0.00241924)
(0.515381 0 -0.00272176)
(0.513494 0 -0.00239411)
(0.515834 0 -0.00276045)
(0.508424 7.70941e-26 0.00191479)
(0.570788 -5.57807e-26 0.00694358)
(0.5631 0 -0.00207044)
(0.540302 0 -0.00285041)
(0.547679 0 -0.00274824)
)
;

boundaryField
{
    inlet
    {
        type            calculated;
        value           uniform (0 0 0);
    }
    outlet
    {
        type            calculated;
        value           uniform (0 0 0);
    }
    sideWall
    {
        type            empty;
    }
}


// ************************************************************************* //
