/*--------------------------------*- C++ -*----------------------------------*\
| =========                 |                                                 |
| \\      /  F ield         | foam-extend: Open Source CFD                    |
|  \\    /   O peration     | Version:     3.2                                |
|   \\  /    A nd           | Web:         http://www.foam-extend.org         |
|    \\/     M anipulation  | For copyright notice see file Copyright         |
\*---------------------------------------------------------------------------*/
FoamFile
{
    version     2.0;
    format      ascii;
    class       areaScalarField;
    location    "50";
    object      Cpre;
}
// * * * * * * * * * * * * * * * * * * * * * * * * * * * * * * * * * * * * * //

dimensions      [1 -3 0 0 0 0 0];

internalField   nonuniform List<scalar> 
300
(
0.297
0.297
0.297
0.297
0.297
0.297
0.297
0.297
0.297
0.297
0.297
0.297
0.297
0.297
0.297
0.297
0.297
0.297
0.297
0.297
0.297
0.297
0.297
0.297
0.297
0.297
0.297
0.297
0.297
0.297
0.297
0.297
0.297
0.297
0.297
0.297
0.297
0.297
0.297
0.297
0.297
0.297
0.297
0.297
0.297
0.297
0.297
0.297
0.297
0.297
0.297
0.297
0.297
0.297
0.297
0.297
0.297
0.297
0.297
0.297
0.296866
0.296585
0.296599
0.296519
0.29647
0.296492
0.296402
0.296476
0.296368
0.296505
0.297583
0.297789
0.296434
0.296566
0.297591
0.297826
0.296502
0.296615
0.297572
0.297788
0.296512
0.296709
0.29773
0.297922
0.296601
0.29675
0.297738
0.297924
0.296604
0.296754
0.297741
0.297928
0.296608
0.296758
0.297745
0.297933
0.296614
0.296764
0.297751
0.297939
0.296621
0.296771
0.29776
0.297948
0.29663
0.296781
0.29777
0.297958
0.296641
0.296792
0.297781
0.29797
0.296652
0.296804
0.297793
0.297982
0.296665
0.296817
0.297806
0.297995
0.296678
0.29683
0.29782
0.298009
0.296693
0.296845
0.297835
0.298024
0.296708
0.296861
0.29785
0.29804
0.296725
0.296878
0.297868
0.298058
0.296743
0.296896
0.297886
0.298077
0.296761
0.296917
0.297905
0.298097
0.296782
0.296937
0.297943
0.298128
0.297971
0.298124
0.297967
0.298125
0.297974
0.298136
0.297985
0.298146
0.297993
0.298154
0.298001
0.298162
0.298011
0.298172
0.298022
0.298184
0.298034
0.298195
0.298046
0.298209
0.29806
0.298223
0.298075
0.298239
0.29809
0.298255
0.298106
0.298271
0.298123
0.298288
0.29814
0.298305
0.298158
0.298324
0.298176
0.298342
0.298195
0.298362
0.298215
0.298382
0.298236
0.298404
0.298258
0.298426
0.29828
0.298448
0.298303
0.298472
0.298327
0.298496
0.298352
0.298521
0.298377
0.298547
0.298403
0.298573
0.29843
0.298601
0.298458
0.298629
0.298487
0.298658
0.298516
0.298688
0.298546
0.298718
0.298576
0.298748
0.298607
0.298779
0.298638
0.298811
0.298669
0.298842
0.298701
0.298874
0.298732
0.298906
0.298764
0.298938
0.298795
0.298969
0.298826
0.299001
0.298857
0.299034
0.298887
0.299067
0.298914
0.299101
0.29894
0.299137
0.298964
0.299172
0.298989
0.299207
0.299012
0.299242
0.299034
0.299275
0.299055
0.299309
0.299074
0.299344
0.299089
0.299379
0.299102
0.299413
0.299116
0.299436
0.299138
0.299449
0.29917
0.299443
0.299211
0.299429
0.299251
0.299424
0.299258
0.299436
0.299276
0.299439
0.299254
0.299473
0.299255
0.299462
0.299218
0.299503
0.299218
0.299527
0.299187
0.299529
0.299191
0.299533
0.299197
0.299494
0.2992
0.299446
0.29921
0.2994
0.299265
0.299328
0.29934
0.299239
0.299416
0.299162
0.299494
0.298988
0.298559
0.298564
0.298564
0.298561
)
;

boundaryField
{
    inlet
    {
        type            calculated;
        value           uniform 0;
    }
    outlet
    {
        type            calculated;
        value           uniform 0;
    }
    sideWall
    {
        type            empty;
    }
}


// ************************************************************************* //
