/*--------------------------------*- C++ -*----------------------------------*\
| =========                 |                                                 |
| \\      /  F ield         | foam-extend: Open Source CFD                    |
|  \\    /   O peration     | Version:     3.2                                |
|   \\  /    A nd           | Web:         http://www.foam-extend.org         |
|    \\/     M anipulation  | For copyright notice see file Copyright         |
\*---------------------------------------------------------------------------*/
FoamFile
{
    version     2.0;
    format      ascii;
    class       areaScalarField;
    location    "50";
    object      Cs;
}
// * * * * * * * * * * * * * * * * * * * * * * * * * * * * * * * * * * * * * //

dimensions      [0 0 0 0 0 0 0];

internalField   nonuniform List<scalar> 
300
(
0.500804
0.500804
0.500804
0.500804
0.500804
0.500804
0.500804
0.500804
0.500804
0.500804
0.500804
0.500804
0.500804
0.500804
0.500804
0.500804
0.500804
0.500804
0.500804
0.500804
0.500804
0.500804
0.500804
0.500804
0.500804
0.500804
0.500804
0.500804
0.500804
0.500804
0.500804
0.500804
0.500804
0.500804
0.500804
0.500804
0.500804
0.500804
0.500804
0.500804
0.500804
0.500804
0.500804
0.500804
0.500804
0.500804
0.500804
0.500804
0.500804
0.500804
0.500804
0.500804
0.500804
0.500804
0.500804
0.500804
0.500804
0.500804
0.500804
0.447946
0.367895
0.322122
0.301807
0.290596
0.283553
0.279082
0.276007
0.273973
0.272547
0.27166
0.500804
0.500804
0.269132
0.268895
0.500804
0.500804
0.269415
0.269622
0.500804
0.500804
0.270036
0.270537
0.500804
0.500804
0.271235
0.271378
0.500804
0.500804
0.27141
0.271486
0.500804
0.500804
0.271452
0.271518
0.500804
0.500804
0.271467
0.27153
0.500804
0.500804
0.271478
0.271542
0.500804
0.500804
0.271494
0.27156
0.500804
0.500804
0.271516
0.271583
0.500804
0.500804
0.271542
0.271609
0.500804
0.500804
0.27157
0.271638
0.500804
0.500804
0.2716
0.271668
0.500804
0.500804
0.271632
0.2717
0.500804
0.500804
0.271665
0.271734
0.500804
0.500804
0.2717
0.271769
0.500804
0.500804
0.271737
0.271806
0.500804
0.500804
0.271772
0.271845
0.500804
0.500804
0.271818
0.271893
0.500804
0.500804
0.500804
0.500804
0.500804
0.500804
0.500804
0.500804
0.500804
0.500804
0.500804
0.500804
0.500804
0.500804
0.500804
0.500804
0.500804
0.500804
0.500804
0.500804
0.500804
0.500804
0.500804
0.500804
0.500804
0.500804
0.500804
0.500804
0.500804
0.500804
0.500804
0.500804
0.500804
0.500804
0.500804
0.500804
0.500804
0.500804
0.500804
0.500804
0.500804
0.500804
0.500804
0.500804
0.500804
0.500804
0.500804
0.500804
0.500804
0.500804
0.500804
0.500804
0.500804
0.500804
0.500804
0.500804
0.500804
0.500804
0.500804
0.500804
0.500804
0.500804
0.500804
0.500804
0.500804
0.500804
0.500804
0.500804
0.500804
0.500804
0.500804
0.500804
0.500804
0.500804
0.500804
0.500804
0.500804
0.500804
0.500804
0.500804
0.500804
0.500804
0.500804
0.500804
0.500804
0.500804
0.500804
0.500804
0.500804
0.500804
0.500804
0.500804
0.500804
0.500804
0.500804
0.500804
0.500804
0.500804
0.500804
0.500804
0.500804
0.500804
0.500804
0.500804
0.500804
0.500804
0.500804
0.500804
0.500804
0.500804
0.500804
0.500804
0.500804
0.500804
0.500804
0.500804
0.500804
0.500804
0.500804
0.500804
0.500804
0.500804
0.500804
0.500804
0.500804
0.500804
0.500804
0.500804
0.500804
0.500804
0.500804
0.500804
0.500804
0.500804
0.500804
0.500804
0.500804
0.500804
0.500804
0.500804
0.500804
0.500804
0.500804
0.500804
0.500804
0.500804
0.500804
0.500804
0.500804
0.500804
0.500804
0.500804
0.500804
0.500804
)
;

boundaryField
{
    inlet
    {
        type            calculated;
        value           uniform 0;
    }
    outlet
    {
        type            calculated;
        value           uniform 0;
    }
    sideWall
    {
        type            empty;
    }
}


// ************************************************************************* //
