/*--------------------------------*- C++ -*----------------------------------*\
| =========                 |                                                 |
| \\      /  F ield         | foam-extend: Open Source CFD                    |
|  \\    /   O peration     | Version:     3.2                                |
|   \\  /    A nd           | Web:         http://www.foam-extend.org         |
|    \\/     M anipulation  | For copyright notice see file Copyright         |
\*---------------------------------------------------------------------------*/
FoamFile
{
    version     2.0;
    format      ascii;
    class       areaScalarField;
    location    "50";
    object      Dbed;
}
// * * * * * * * * * * * * * * * * * * * * * * * * * * * * * * * * * * * * * //

dimensions      [0 0 0 0 0 0 0];

internalField   nonuniform List<scalar> 
300
(
0.000423
0.000423
0.000423
0.000423
0.000423
0.000423
0.000423
0.000423
0.000423
0.000423
0.000423
0.000423
0.000423
0.000423
0.000423
0.000423
0.000423
0.000423
0.000423
0.000423
0.000423
0.000423
0.000423
0.000423
0.000423
0.000423
0.000423
0.000423
0.000423
0.000423
0.000423
0.000423
0.000423
0.000423
0.000423
0.000423
0.000423
0.000423
0.000423
0.000423
0.000423
0.000423
0.000423
0.000423
0.000423
0.000423
0.000423
0.000423
0.000423
0.000423
0.000423
0.000423
0.000423
0.000423
0.000423
0.000423
0.000423
0.000423
0.000423
0.000423
0.000439407
0.000440594
0.000449791
0.000446088
0.000454135
0.000448445
0.000456204
0.000449557
0.000457206
0.000450083
0.000454308
0.000441793
0.000454872
0.000446428
0.000456569
0.000447945
0.000457301
0.000449009
0.000457638
0.000449243
0.00045792
0.0004497
0.000457974
0.000449489
0.000457889
0.000449605
0.000457819
0.000449356
0.000457777
0.000449547
0.000457762
0.000449347
0.000457748
0.000449537
0.000457746
0.000449339
0.000457739
0.000449539
0.000457743
0.000449342
0.000457741
0.000449541
0.000457745
0.000449342
0.000457738
0.00044954
0.000457745
0.00044934
0.000457736
0.000449536
0.00045774
0.000449336
0.000457731
0.000449529
0.000457734
0.000449328
0.000457726
0.000449523
0.000457725
0.000449321
0.000457718
0.000449516
0.00045772
0.000449312
0.00045771
0.000449508
0.00045771
0.000449304
0.000457701
0.000449497
0.000457702
0.000449294
0.000457691
0.000449487
0.000457693
0.000449285
0.000457685
0.000449477
0.00045768
0.000449273
0.000457673
0.000449471
0.000457673
0.000449282
0.000457656
0.000449467
0.000458856
0.000450251
0.000458097
0.00044942
0.000457596
0.00044921
0.00045749
0.000449141
0.00045743
0.000449088
0.000457387
0.000449046
0.000457348
0.000449014
0.000457328
0.000448995
0.000457311
0.000448983
0.000457299
0.000448962
0.000457284
0.000448954
0.00045728
0.000448946
0.00045727
0.000448938
0.000457268
0.00044893
0.00045726
0.000448924
0.000457257
0.000448917
0.00045725
0.000448912
0.000457247
0.000448901
0.000457238
0.000448899
0.000457237
0.000448891
0.00045723
0.000448886
0.000457227
0.000448877
0.000457217
0.00044887
0.000457216
0.000448865
0.000457208
0.000448857
0.000457205
0.000448851
0.000457197
0.000448845
0.000457195
0.000448839
0.000457189
0.000448832
0.000457184
0.000448826
0.000457179
0.00044882
0.000457175
0.000448811
0.000457166
0.000448805
0.000457165
0.000448802
0.00045716
0.000448795
0.000457156
0.000448788
0.000457148
0.000448781
0.000457146
0.000448777
0.00045714
0.000448771
0.000457137
0.000448765
0.00045713
0.00044876
0.000457125
0.000448757
0.00045712
0.000448758
0.000457111
0.000448759
0.000457091
0.000448773
0.000457063
0.000448806
0.000457016
0.000448858
0.000456944
0.000448931
0.000456849
0.00044903
0.00045673
0.000449158
0.000456579
0.00044931
0.000456403
0.00044949
0.000456196
0.000449698
0.000455956
0.00045003
0.000455592
0.000450364
0.000455242
0.000450967
0.000454832
0.000451239
0.000454483
0.000451866
0.000454171
0.000451931
0.000453921
0.000452546
0.000453704
0.00045243
0.000453479
0.000453274
0.000453324
0.000453025
0.000452373
0.000456992
0.000451869
0.000456445
0.00045095
0.000456667
0.000449903
0.000457142
0.000448961
0.000457804
0.000448039
0.000458511
0.000447263
0.000459135
0.000446692
0.000459736
0.000445678
0.000460744
0.000444767
0.000461576
0.000444061
0.000462212
0.000443411
0.000462512
0.000423
0.000423
0.000423
0.000423
)
;

boundaryField
{
    inlet
    {
        type            calculated;
        value           uniform 0;
    }
    outlet
    {
        type            calculated;
        value           uniform 0;
    }
    sideWall
    {
        type            empty;
    }
}


// ************************************************************************* //
