/*--------------------------------*- C++ -*----------------------------------*\
| =========                 |                                                 |
| \\      /  F ield         | foam-extend: Open Source CFD                    |
|  \\    /   O peration     | Version:     3.2                                |
|   \\  /    A nd           | Web:         http://www.foam-extend.org         |
|    \\/     M anipulation  | For copyright notice see file Copyright         |
\*---------------------------------------------------------------------------*/
FoamFile
{
    version     2.0;
    format      ascii;
    class       areaScalarField;
    location    "50";
    object      deltaH;
}
// * * * * * * * * * * * * * * * * * * * * * * * * * * * * * * * * * * * * * //

dimensions      [0 1 -1 0 0 0 0];

internalField   nonuniform List<scalar> 
300
(
0
0
0
0
0
0
0
0
0
0
0
0
0
0
0
0
0
0
0
0
0
0
0
0
0
0
0
0
0
0
0
0
0
0
0
0
0
0
0
0
0
0
0
0
0
0
0
0
0
0
0
0
0
0
0
0
0
0
0
0
2.08049e-06
2.99518e-06
3.36445e-06
3.6084e-06
3.75461e-06
3.8379e-06
3.91969e-06
3.94091e-06
3.99575e-06
3.97657e-06
-5.36709e-06
-2.78319e-06
5.45715e-06
2.69015e-06
-5.42853e-06
-2.79612e-06
5.44713e-06
2.66873e-06
-5.38258e-06
-2.76275e-06
5.42001e-06
2.62809e-06
-5.40724e-06
-2.76963e-06
5.39056e-06
2.63039e-06
-5.37571e-06
-2.75865e-06
5.38672e-06
2.63087e-06
-5.37112e-06
-2.75698e-06
5.3854e-06
2.63086e-06
-5.36988e-06
-2.75643e-06
5.38489e-06
2.63079e-06
-5.36975e-06
-2.75651e-06
5.38448e-06
2.63055e-06
-5.36992e-06
-2.75694e-06
5.38382e-06
2.63018e-06
-5.37017e-06
-2.75745e-06
5.38306e-06
2.62977e-06
-5.37027e-06
-2.758e-06
5.38218e-06
2.62935e-06
-5.37028e-06
-2.75853e-06
5.38124e-06
2.6289e-06
-5.37024e-06
-2.75906e-06
5.38022e-06
2.62844e-06
-5.37021e-06
-2.75962e-06
5.37914e-06
2.62797e-06
-5.37013e-06
-2.76016e-06
5.37802e-06
2.62749e-06
-5.37008e-06
-2.76076e-06
5.37685e-06
2.62695e-06
-5.36997e-06
-2.76144e-06
5.37566e-06
2.62652e-06
-5.36994e-06
-2.76225e-06
5.37469e-06
2.62558e-06
-5.36902e-06
-2.76286e-06
5.37325e-06
2.62537e-06
-5.37143e-06
-4.09075e-06
-3.98035e-06
-4.07978e-06
-3.97269e-06
-4.0754e-06
-3.97092e-06
-4.0743e-06
-3.96885e-06
-4.07137e-06
-3.96622e-06
-4.06949e-06
-3.96477e-06
-4.06851e-06
-3.96424e-06
-4.06812e-06
-3.96386e-06
-4.06774e-06
-3.9631e-06
-4.06706e-06
-3.96313e-06
-4.06727e-06
-3.96319e-06
-4.06736e-06
-3.96327e-06
-4.06731e-06
-3.96302e-06
-4.06726e-06
-3.96298e-06
-4.06716e-06
-3.96294e-06
-4.06706e-06
-3.96271e-06
-4.06694e-06
-3.96269e-06
-4.06694e-06
-3.96244e-06
-4.06662e-06
-3.96229e-06
-4.06661e-06
-3.96223e-06
-4.0665e-06
-3.96208e-06
-4.06641e-06
-3.96199e-06
-4.06622e-06
-3.9617e-06
-4.06592e-06
-3.96143e-06
-4.06585e-06
-3.96127e-06
-4.06556e-06
-3.96089e-06
-4.0652e-06
-3.96064e-06
-4.06503e-06
-3.96037e-06
-4.06472e-06
-3.96005e-06
-4.06444e-06
-3.95971e-06
-4.06408e-06
-3.95944e-06
-4.0638e-06
-3.95892e-06
-4.06328e-06
-3.95844e-06
-4.06291e-06
-3.95801e-06
-4.06242e-06
-3.95764e-06
-4.06209e-06
-3.9571e-06
-4.06152e-06
-3.95658e-06
-4.06111e-06
-3.95608e-06
-4.06053e-06
-3.95541e-06
-4.05993e-06
-3.95493e-06
-4.05967e-06
-3.95432e-06
-4.05915e-06
-3.95366e-06
-4.05894e-06
-3.95281e-06
-4.05874e-06
-3.95146e-06
-4.05967e-06
-3.94915e-06
-4.06116e-06
-3.94583e-06
-4.06407e-06
-3.94156e-06
-4.06723e-06
-3.93768e-06
-4.07006e-06
-3.93361e-06
-4.07332e-06
-3.92942e-06
-4.07652e-06
-3.92515e-06
-4.08025e-06
-3.92006e-06
-4.08501e-06
-3.9139e-06
-4.09113e-06
-3.90595e-06
-4.09869e-06
-3.89874e-06
-4.10237e-06
-3.89647e-06
-4.10017e-06
-3.90334e-06
-4.08627e-06
-3.91978e-06
-4.06537e-06
-3.94184e-06
-4.04937e-06
-3.94242e-06
-4.0511e-06
-3.94949e-06
-4.04438e-06
-3.93658e-06
-4.06195e-06
-3.93345e-06
-4.0585e-06
-3.90879e-06
-4.08274e-06
-3.90175e-06
-4.09257e-06
-3.88106e-06
-4.10468e-06
-3.88581e-06
-4.10966e-06
-3.88719e-06
-4.09328e-06
-3.90005e-06
-4.07503e-06
-3.92519e-06
-4.05069e-06
-3.96327e-06
-4.00887e-06
-4.0137e-06
-3.95455e-06
-4.06743e-06
-3.90307e-06
-4.1142e-06
-3.38312e-06
0
0
0
0
)
;

boundaryField
{
    inlet
    {
        type            zeroGradient;
    }
    outlet
    {
        type            zeroGradient;
    }
    sideWall
    {
        type            empty;
    }
}


// ************************************************************************* //
