/*--------------------------------*- C++ -*----------------------------------*\
| =========                 |                                                 |
| \\      /  F ield         | foam-extend: Open Source CFD                    |
|  \\    /   O peration     | Version:     3.2                                |
|   \\  /    A nd           | Web:         http://www.foam-extend.org         |
|    \\/     M anipulation  | For copyright notice see file Copyright         |
\*---------------------------------------------------------------------------*/
FoamFile
{
    version     2.0;
    format      ascii;
    class       areaScalarField;
    location    "50";
    object      deltaHs;
}
// * * * * * * * * * * * * * * * * * * * * * * * * * * * * * * * * * * * * * //

dimensions      [0 1 -1 0 0 0 0];

internalField   nonuniform List<scalar> 
300
(
-3.46598e-05
-1.28021e-05
-4.70416e-06
-4.88705e-06
-4.11997e-06
-4.21418e-06
-3.89437e-06
-3.90007e-06
-3.77855e-06
-3.83174e-06
-3.83447e-06
-3.91807e-06
-3.98693e-06
-4.10718e-06
-4.212e-06
-4.35796e-06
-4.49616e-06
-4.65594e-06
-4.8117e-06
-4.98778e-06
-5.16947e-06
-5.35704e-06
-5.54898e-06
-5.74385e-06
-5.94135e-06
-6.13092e-06
-6.29871e-06
-6.44168e-06
-6.56283e-06
-6.66422e-06
-6.74977e-06
-6.82077e-06
-6.88072e-06
-6.93006e-06
-6.97202e-06
-7.00619e-06
-7.03577e-06
-7.05941e-06
-7.08062e-06
-7.09692e-06
-7.11254e-06
-7.12367e-06
-7.13583e-06
-7.14327e-06
-7.15251e-06
-7.15697e-06
-7.16477e-06
-7.16647e-06
-7.17502e-06
-7.17218e-06
-7.18567e-06
-7.17173e-06
-7.1989e-06
-7.1613e-06
-7.22489e-06
-7.12847e-06
-7.28505e-06
-7.05121e-06
-7.50208e-06
-2.14496e-06
2.08049e-06
2.99518e-06
3.36445e-06
3.6084e-06
3.75461e-06
3.8379e-06
3.91969e-06
3.94091e-06
3.99575e-06
3.97657e-06
-4.02059e-06
-4.11661e-06
4.07347e-06
4.03028e-06
-4.03567e-06
-4.1365e-06
4.05996e-06
4.01326e-06
-3.99983e-06
-4.10543e-06
4.04477e-06
3.98042e-06
-4.02735e-06
-4.1057e-06
4.01868e-06
3.96613e-06
-4.00592e-06
-4.0927e-06
4.01684e-06
3.96496e-06
-4.00227e-06
-4.09018e-06
4.01639e-06
3.96469e-06
-4.00121e-06
-4.08928e-06
4.01626e-06
3.9646e-06
-4.00109e-06
-4.08926e-06
4.01605e-06
3.96432e-06
-4.00131e-06
-4.08951e-06
4.0156e-06
3.96383e-06
-4.00168e-06
-4.08986e-06
4.01504e-06
3.96323e-06
-4.00199e-06
-4.09019e-06
4.01439e-06
3.96257e-06
-4.00225e-06
-4.09046e-06
4.01372e-06
3.96186e-06
-4.00249e-06
-4.09069e-06
4.013e-06
3.96112e-06
-4.00274e-06
-4.09094e-06
4.01224e-06
3.96035e-06
-4.00298e-06
-4.09117e-06
4.01146e-06
3.95956e-06
-4.00323e-06
-4.09143e-06
4.01065e-06
3.9587e-06
-4.00346e-06
-4.09175e-06
4.00981e-06
3.95788e-06
-4.00371e-06
-4.09223e-06
4.00919e-06
3.95672e-06
-4.00341e-06
-4.09253e-06
4.00821e-06
3.95568e-06
-4.0103e-06
-4.09918e-06
-3.98626e-06
-4.0828e-06
-3.97449e-06
-4.07641e-06
-3.97145e-06
-4.07468e-06
-3.96929e-06
-4.07184e-06
-3.96665e-06
-4.06989e-06
-3.96509e-06
-4.06869e-06
-3.96437e-06
-4.06823e-06
-3.96401e-06
-4.06793e-06
-3.96322e-06
-4.06697e-06
-3.96297e-06
-4.0671e-06
-3.96303e-06
-4.0672e-06
-3.96309e-06
-4.06719e-06
-3.96289e-06
-4.0671e-06
-3.96284e-06
-4.06702e-06
-3.96279e-06
-4.06693e-06
-3.96257e-06
-4.06678e-06
-3.96251e-06
-4.06679e-06
-3.9623e-06
-4.06647e-06
-3.96213e-06
-4.06643e-06
-3.96205e-06
-4.06631e-06
-3.96188e-06
-4.06622e-06
-3.96179e-06
-4.06603e-06
-3.96153e-06
-4.06577e-06
-3.96125e-06
-4.06564e-06
-3.96107e-06
-4.06539e-06
-3.96073e-06
-4.06502e-06
-3.96043e-06
-4.06482e-06
-3.96018e-06
-4.06454e-06
-3.95986e-06
-4.06423e-06
-3.95951e-06
-4.06387e-06
-3.9592e-06
-4.06362e-06
-3.95876e-06
-4.06312e-06
-3.95826e-06
-4.06272e-06
-3.95783e-06
-4.06222e-06
-3.9574e-06
-4.06189e-06
-3.95694e-06
-4.06136e-06
-3.95639e-06
-4.06092e-06
-3.95589e-06
-4.06039e-06
-3.95527e-06
-4.05981e-06
-3.95469e-06
-4.05946e-06
-3.95403e-06
-4.05907e-06
-3.95339e-06
-4.05893e-06
-3.95242e-06
-4.05897e-06
-3.95078e-06
-4.06003e-06
-3.94834e-06
-4.06175e-06
-3.94486e-06
-4.06467e-06
-3.9407e-06
-4.06771e-06
-3.93686e-06
-4.07061e-06
-3.93274e-06
-4.07389e-06
-3.9285e-06
-4.07725e-06
-3.924e-06
-4.08126e-06
-3.91864e-06
-4.08634e-06
-3.91216e-06
-4.09237e-06
-3.90492e-06
-4.09887e-06
-3.89911e-06
-4.10022e-06
-3.89934e-06
-4.09649e-06
-3.90706e-06
-4.08197e-06
-3.92286e-06
-4.06427e-06
-3.94012e-06
-4.05144e-06
-3.9407e-06
-4.05334e-06
-3.94468e-06
-4.04962e-06
-3.93151e-06
-4.06824e-06
-3.92552e-06
-4.05913e-06
-3.90736e-06
-4.08368e-06
-3.90003e-06
-4.09517e-06
-3.88347e-06
-4.10343e-06
-3.88787e-06
-4.10595e-06
-3.89275e-06
-4.0892e-06
-3.9062e-06
-4.07056e-06
-3.92519e-06
-4.05069e-06
-3.96327e-06
-4.00887e-06
-4.0137e-06
-3.95455e-06
-4.06743e-06
-3.90307e-06
-4.1142e-06
-3.38312e-06
-5.66033e-06
-8.64893e-06
-6.53695e-06
-7.19851e-06
)
;

boundaryField
{
    inlet
    {
        type            calculated;
        value           uniform -3.46596e-05;
    }
    outlet
    {
        type            calculated;
        value           uniform -7.19904e-06;
    }
    sideWall
    {
        type            empty;
    }
}


// ************************************************************************* //
