/*--------------------------------*- C++ -*----------------------------------*\
| =========                 |                                                 |
| \\      /  F ield         | foam-extend: Open Source CFD                    |
|  \\    /   O peration     | Version:     3.2                                |
|   \\  /    A nd           | Web:         http://www.foam-extend.org         |
|    \\/     M anipulation  | For copyright notice see file Copyright         |
\*---------------------------------------------------------------------------*/
FoamFile
{
    version     2.0;
    format      ascii;
    class       areaScalarField;
    location    "50";
    object      deltaHb;
}
// * * * * * * * * * * * * * * * * * * * * * * * * * * * * * * * * * * * * * //

dimensions      [0 1 -1 0 0 0 0];

internalField   nonuniform List<scalar> 
300
(
0
0
0
0
0
0
0
0
0
0
0
0
0
0
0
0
0
0
0
0
0
0
0
0
0
0
0
0
0
0
0
0
0
0
0
0
0
0
0
0
0
0
0
0
0
0
0
0
0
0
0
0
0
0
0
0
0
0
0
0
0
0
0
0
0
0
0
0
0
0
-1.34651e-06
1.33342e-06
1.38368e-06
-1.34014e-06
-1.39285e-06
1.34038e-06
1.38717e-06
-1.34452e-06
-1.38275e-06
1.34268e-06
1.37524e-06
-1.35233e-06
-1.3799e-06
1.33607e-06
1.37188e-06
-1.33575e-06
-1.36979e-06
1.33405e-06
1.36988e-06
-1.33409e-06
-1.36885e-06
1.33319e-06
1.36901e-06
-1.33383e-06
-1.36867e-06
1.33286e-06
1.36862e-06
-1.33381e-06
-1.36866e-06
1.33275e-06
1.36843e-06
-1.33377e-06
-1.36861e-06
1.33257e-06
1.36822e-06
-1.33366e-06
-1.36849e-06
1.33241e-06
1.36802e-06
-1.33346e-06
-1.36828e-06
1.33219e-06
1.36779e-06
-1.33322e-06
-1.36803e-06
1.33192e-06
1.36752e-06
-1.33295e-06
-1.36774e-06
1.33163e-06
1.36722e-06
-1.33268e-06
-1.36747e-06
1.33132e-06
1.3669e-06
-1.33238e-06
-1.36715e-06
1.331e-06
1.36656e-06
-1.33207e-06
-1.36684e-06
1.33067e-06
1.3662e-06
-1.33175e-06
-1.36651e-06
1.33031e-06
1.36585e-06
-1.33136e-06
-1.36623e-06
1.32998e-06
1.3655e-06
-1.33113e-06
-1.36561e-06
1.32967e-06
1.36503e-06
-1.33031e-06
-1.36113e-06
8.43824e-09
5.90796e-09
3.02091e-09
1.80151e-09
1.00505e-09
5.30737e-10
3.81391e-10
4.49602e-10
4.68981e-10
4.27429e-10
4.01013e-10
3.15647e-10
1.82214e-10
1.33587e-10
1.09566e-10
1.42543e-10
1.96454e-10
1.23151e-10
-8.27857e-11
-1.6584e-10
-1.6751e-10
-1.55193e-10
-1.60914e-10
-1.83559e-10
-1.16378e-10
-1.33886e-10
-1.57447e-10
-1.35294e-10
-1.45182e-10
-1.56407e-10
-1.31496e-10
-1.34511e-10
-1.61989e-10
-1.80099e-10
-1.49072e-10
-1.34622e-10
-1.43598e-10
-1.63559e-10
-1.78081e-10
-1.85935e-10
-1.91627e-10
-1.97126e-10
-1.9236e-10
-1.94416e-10
-1.86993e-10
-1.77749e-10
-1.43323e-10
-1.86352e-10
-2.10558e-10
-1.97762e-10
-1.62252e-10
-1.5731e-10
-1.82371e-10
-2.13212e-10
-2.12923e-10
-1.95279e-10
-1.76093e-10
-1.9476e-10
-2.08956e-10
-2.06777e-10
-2.11781e-10
-2.35992e-10
-1.79709e-10
-1.65389e-10
-1.65737e-10
-1.82441e-10
-1.89268e-10
-1.82132e-10
-2.01318e-10
-2.34627e-10
-1.91431e-10
-1.669e-10
-1.64903e-10
-1.91387e-10
-1.82242e-10
-1.82232e-10
-1.43285e-10
-1.41588e-10
-1.18665e-10
-2.35457e-10
-2.1208e-10
-2.90203e-10
-7.85567e-11
-2.68219e-10
-7.88813e-12
-3.87515e-10
2.277e-10
-6.81692e-10
3.67216e-10
-8.16191e-10
5.95015e-10
-9.66337e-10
6.00607e-10
-8.51441e-10
4.76891e-10
-8.17353e-10
5.50054e-10
-8.748e-10
5.76318e-10
-9.19797e-10
7.30452e-10
-1.15047e-09
1.00708e-09
-1.41937e-09
1.32665e-09
-1.73946e-09
1.24153e-09
-1.02354e-09
1.75561e-10
3.65342e-10
-2.14656e-09
2.87474e-09
-3.68468e-09
3.7232e-09
-4.29526e-09
3.08325e-09
-1.09509e-09
-1.72334e-09
2.07436e-09
-1.71307e-09
2.23068e-09
-4.81737e-09
5.24635e-09
-5.06638e-09
6.28449e-09
-7.9301e-09
6.24438e-10
-1.43337e-09
9.40808e-10
-1.72124e-09
2.60213e-09
2.40711e-09
-1.25446e-09
2.06105e-09
-3.71205e-09
5.55759e-09
-4.07874e-09
6.15258e-09
-4.4736e-09
0
0
0
0
0
0
0
0
0
0
0
0
0
0
)
;

boundaryField
{
    inlet
    {
        type            zeroGradient;
    }
    outlet
    {
        type            zeroGradient;
    }
    sideWall
    {
        type            empty;
    }
}


// ************************************************************************* //
