/*--------------------------------*- C++ -*----------------------------------*\
| =========                 |                                                 |
| \\      /  F ield         | foam-extend: Open Source CFD                    |
|  \\    /   O peration     | Version:     3.2                                |
|   \\  /    A nd           | Web:         http://www.foam-extend.org         |
|    \\/     M anipulation  | For copyright notice see file Copyright         |
\*---------------------------------------------------------------------------*/
FoamFile
{
    version     2.0;
    format      ascii;
    class       volScalarField;
    location    "50";
    object      DiSSt;
}
// * * * * * * * * * * * * * * * * * * * * * * * * * * * * * * * * * * * * * //

dimensions      [0 2 -1 0 0 0 0];

internalField   nonuniform List<scalar> 
5400
(
2.6589e-05
2.12203e-05
1.8259e-05
1.83374e-05
1.80038e-05
1.80454e-05
1.79032e-05
1.79057e-05
1.78511e-05
1.7875e-05
1.78763e-05
1.79138e-05
1.79446e-05
1.79981e-05
1.80445e-05
1.81087e-05
1.8169e-05
1.82383e-05
1.83052e-05
1.83803e-05
1.84572e-05
1.85358e-05
1.86156e-05
1.86958e-05
1.87764e-05
1.88532e-05
1.89205e-05
1.89775e-05
1.90256e-05
1.90656e-05
1.90992e-05
1.9127e-05
1.91504e-05
1.91697e-05
1.9186e-05
1.91993e-05
1.92107e-05
1.92199e-05
1.92281e-05
1.92344e-05
1.92404e-05
1.92447e-05
1.92494e-05
1.92523e-05
1.92559e-05
1.92576e-05
1.92608e-05
1.92617e-05
1.9265e-05
1.92639e-05
1.92691e-05
1.92637e-05
1.92742e-05
1.92597e-05
1.92842e-05
1.9247e-05
1.93073e-05
1.92173e-05
1.93879e-05
1.90439e-05
1.81839e-05
1.81322e-05
1.81507e-05
1.81395e-05
1.81442e-05
1.81448e-05
1.81428e-05
1.81459e-05
1.8141e-05
1.81563e-05
1.81523e-05
1.81504e-05
1.81385e-05
1.81476e-05
1.81397e-05
1.81532e-05
1.81432e-05
1.81499e-05
1.81392e-05
1.81474e-05
1.81397e-05
1.81501e-05
1.81472e-05
1.81517e-05
1.81441e-05
1.81493e-05
1.81462e-05
1.81498e-05
1.81429e-05
1.81477e-05
1.81454e-05
1.81489e-05
1.81425e-05
1.81471e-05
1.81453e-05
1.81485e-05
1.81425e-05
1.8147e-05
1.81454e-05
1.81485e-05
1.81427e-05
1.81471e-05
1.81456e-05
1.81487e-05
1.81429e-05
1.81474e-05
1.81459e-05
1.81489e-05
1.81432e-05
1.81476e-05
1.81461e-05
1.81492e-05
1.81434e-05
1.81478e-05
1.81464e-05
1.81494e-05
1.81436e-05
1.81481e-05
1.81466e-05
1.81497e-05
1.81439e-05
1.81483e-05
1.81468e-05
1.81499e-05
1.81441e-05
1.81486e-05
1.81471e-05
1.81501e-05
1.81444e-05
1.81488e-05
1.81473e-05
1.81504e-05
1.81446e-05
1.81491e-05
1.81476e-05
1.81507e-05
1.8145e-05
1.81494e-05
1.81479e-05
1.81511e-05
1.81452e-05
1.81498e-05
1.81482e-05
1.81512e-05
1.81455e-05
1.81499e-05
1.81485e-05
1.81445e-05
1.81403e-05
1.81382e-05
1.81371e-05
1.81363e-05
1.8136e-05
1.81357e-05
1.81356e-05
1.81353e-05
1.81351e-05
1.81348e-05
1.81346e-05
1.81345e-05
1.81345e-05
1.81344e-05
1.81343e-05
1.81342e-05
1.81341e-05
1.81341e-05
1.81342e-05
1.81342e-05
1.81344e-05
1.81344e-05
1.81345e-05
1.81346e-05
1.81347e-05
1.81347e-05
1.81348e-05
1.81349e-05
1.8135e-05
1.8135e-05
1.81351e-05
1.81352e-05
1.81353e-05
1.81353e-05
1.81354e-05
1.81355e-05
1.81356e-05
1.81356e-05
1.81358e-05
1.81358e-05
1.8136e-05
1.8136e-05
1.81362e-05
1.81362e-05
1.81364e-05
1.81364e-05
1.81365e-05
1.81366e-05
1.81367e-05
1.81368e-05
1.81369e-05
1.81369e-05
1.81371e-05
1.81372e-05
1.81373e-05
1.81374e-05
1.81375e-05
1.81376e-05
1.81377e-05
1.81378e-05
1.81379e-05
1.8138e-05
1.81381e-05
1.81382e-05
1.81383e-05
1.81384e-05
1.81385e-05
1.81385e-05
1.81387e-05
1.81388e-05
1.81389e-05
1.8139e-05
1.81391e-05
1.81391e-05
1.81393e-05
1.81393e-05
1.81394e-05
1.81395e-05
1.81395e-05
1.81397e-05
1.81397e-05
1.814e-05
1.81398e-05
1.81403e-05
1.81398e-05
1.81407e-05
1.81396e-05
1.81414e-05
1.81392e-05
1.81422e-05
1.81386e-05
1.81432e-05
1.81379e-05
1.81441e-05
1.81374e-05
1.8145e-05
1.81368e-05
1.81459e-05
1.81362e-05
1.81469e-05
1.81354e-05
1.81481e-05
1.81343e-05
1.81496e-05
1.81329e-05
1.81514e-05
1.81315e-05
1.81525e-05
1.81312e-05
1.81522e-05
1.81334e-05
1.81494e-05
1.81371e-05
1.81456e-05
1.81415e-05
1.81424e-05
1.81427e-05
1.81441e-05
1.81407e-05
1.81458e-05
1.81384e-05
1.81507e-05
1.8133e-05
1.81559e-05
1.81266e-05
1.81642e-05
1.81257e-05
1.81658e-05
1.81246e-05
1.81677e-05
1.81217e-05
1.81654e-05
1.81229e-05
1.81634e-05
1.81265e-05
1.81577e-05
1.81306e-05
1.81513e-05
1.81351e-05
1.81442e-05
1.81439e-05
1.81352e-05
1.8154e-05
1.81244e-05
1.81675e-05
1.81014e-05
1.8186e-05
1.79303e-05
2.00956e-05
1.98236e-05
1.90355e-05
1.92924e-05
2.58397e-05
3.35986e-05
3.6267e-05
3.83246e-05
3.95545e-05
4.02704e-05
4.07493e-05
4.10644e-05
4.13729e-05
4.16235e-05
4.1862e-05
4.21032e-05
4.23336e-05
4.25763e-05
4.28077e-05
4.30375e-05
4.32691e-05
4.34974e-05
4.37284e-05
4.39556e-05
4.41796e-05
4.43993e-05
4.46126e-05
4.48187e-05
4.50103e-05
4.51764e-05
4.53104e-05
4.54158e-05
4.54981e-05
4.5563e-05
4.56139e-05
4.56546e-05
4.56866e-05
4.57126e-05
4.57332e-05
4.57502e-05
4.57637e-05
4.57754e-05
4.57845e-05
4.57928e-05
4.57991e-05
4.58053e-05
4.58097e-05
4.58145e-05
4.58175e-05
4.58212e-05
4.58236e-05
4.58262e-05
4.58287e-05
4.58295e-05
4.58334e-05
4.58309e-05
4.58377e-05
4.58292e-05
4.58442e-05
4.58215e-05
4.58575e-05
4.58059e-05
4.58189e-05
4.534e-05
4.50567e-05
4.4626e-05
4.42538e-05
4.39618e-05
4.37708e-05
4.36163e-05
4.3512e-05
4.34177e-05
4.33486e-05
4.33888e-05
4.33668e-05
4.33668e-05
4.32808e-05
4.32975e-05
4.32559e-05
4.3271e-05
4.31992e-05
4.32375e-05
4.32066e-05
4.32349e-05
4.3173e-05
4.32162e-05
4.32031e-05
4.32347e-05
4.318e-05
4.3225e-05
4.32088e-05
4.32403e-05
4.31844e-05
4.32286e-05
4.32115e-05
4.32428e-05
4.31865e-05
4.32308e-05
4.32124e-05
4.32444e-05
4.31871e-05
4.32319e-05
4.32133e-05
4.32455e-05
4.31879e-05
4.32328e-05
4.3214e-05
4.32463e-05
4.31886e-05
4.32335e-05
4.32147e-05
4.3247e-05
4.31892e-05
4.32341e-05
4.32153e-05
4.32475e-05
4.31898e-05
4.32347e-05
4.32159e-05
4.32481e-05
4.31904e-05
4.32353e-05
4.32164e-05
4.32487e-05
4.3191e-05
4.32359e-05
4.3217e-05
4.32493e-05
4.31916e-05
4.32365e-05
4.32177e-05
4.325e-05
4.31923e-05
4.32372e-05
4.32184e-05
4.32506e-05
4.3193e-05
4.32378e-05
4.32191e-05
4.32514e-05
4.31937e-05
4.32385e-05
4.32199e-05
4.3252e-05
4.31945e-05
4.32393e-05
4.32205e-05
4.3253e-05
4.31951e-05
4.32397e-05
4.32115e-05
4.31403e-05
4.31092e-05
4.30993e-05
4.30952e-05
4.30933e-05
4.30923e-05
4.3092e-05
4.30919e-05
4.3092e-05
4.30922e-05
4.30924e-05
4.30923e-05
4.30925e-05
4.30932e-05
4.30934e-05
4.30936e-05
4.30941e-05
4.30942e-05
4.30943e-05
4.30944e-05
4.30946e-05
4.30944e-05
4.30944e-05
4.30944e-05
4.30945e-05
4.30948e-05
4.30952e-05
4.30955e-05
4.30956e-05
4.30957e-05
4.3096e-05
4.3096e-05
4.30963e-05
4.30965e-05
4.30967e-05
4.30969e-05
4.30971e-05
4.30974e-05
4.30976e-05
4.30978e-05
4.3098e-05
4.30981e-05
4.30984e-05
4.30985e-05
4.30987e-05
4.30989e-05
4.3099e-05
4.30992e-05
4.30996e-05
4.30998e-05
4.31e-05
4.31002e-05
4.31005e-05
4.31007e-05
4.31008e-05
4.3101e-05
4.31012e-05
4.31014e-05
4.31016e-05
4.31018e-05
4.3102e-05
4.31022e-05
4.31024e-05
4.31027e-05
4.31029e-05
4.31031e-05
4.31034e-05
4.31036e-05
4.31038e-05
4.3104e-05
4.31041e-05
4.31043e-05
4.31045e-05
4.31047e-05
4.31048e-05
4.3105e-05
4.31049e-05
4.3105e-05
4.31052e-05
4.31054e-05
4.31057e-05
4.31061e-05
4.31066e-05
4.31064e-05
4.31069e-05
4.31067e-05
4.31076e-05
4.31067e-05
4.31085e-05
4.31066e-05
4.31092e-05
4.31065e-05
4.31098e-05
4.31067e-05
4.311e-05
4.3107e-05
4.31102e-05
4.31074e-05
4.31103e-05
4.31078e-05
4.31104e-05
4.31081e-05
4.31106e-05
4.31083e-05
4.31109e-05
4.31085e-05
4.3111e-05
4.31092e-05
4.31102e-05
4.31113e-05
4.3108e-05
4.3113e-05
4.31087e-05
4.31116e-05
4.31115e-05
4.31098e-05
4.31129e-05
4.31114e-05
4.31105e-05
4.31137e-05
4.31094e-05
4.31161e-05
4.3109e-05
4.31137e-05
4.31152e-05
4.31101e-05
4.31197e-05
4.31117e-05
4.31178e-05
4.31151e-05
4.31159e-05
4.31187e-05
4.31116e-05
4.31224e-05
4.31087e-05
4.3121e-05
4.31092e-05
4.31177e-05
4.31108e-05
4.31108e-05
4.31152e-05
4.31064e-05
4.31104e-05
4.31136e-05
4.31025e-05
4.31229e-05
4.30874e-05
4.31363e-05
4.36627e-05
4.44522e-05
4.42687e-05
4.44466e-05
4.51134e-05
2.43572e-05
3.70032e-05
4.29922e-05
4.95512e-05
5.48711e-05
5.75512e-05
5.92581e-05
6.06765e-05
6.1726e-05
6.26899e-05
6.34527e-05
6.41824e-05
6.48305e-05
6.5431e-05
6.6012e-05
6.65418e-05
6.70538e-05
6.75472e-05
6.80196e-05
6.84752e-05
6.8909e-05
6.93208e-05
6.97099e-05
7.00728e-05
7.03993e-05
7.06499e-05
7.08315e-05
7.09613e-05
7.10551e-05
7.11221e-05
7.11708e-05
7.12052e-05
7.12304e-05
7.1248e-05
7.12613e-05
7.12707e-05
7.12783e-05
7.12837e-05
7.12887e-05
7.12922e-05
7.12959e-05
7.12985e-05
7.13017e-05
7.13036e-05
7.13063e-05
7.13075e-05
7.131e-05
7.13114e-05
7.13133e-05
7.13148e-05
7.13149e-05
7.13169e-05
7.13164e-05
7.13184e-05
7.13164e-05
7.13199e-05
7.13144e-05
7.13542e-05
7.12009e-05
7.00681e-05
7.01794e-05
6.99992e-05
6.95723e-05
6.91108e-05
6.87312e-05
6.83953e-05
6.81456e-05
6.79126e-05
6.77534e-05
6.78014e-05
6.77542e-05
6.77305e-05
6.75669e-05
6.75832e-05
6.75143e-05
6.75257e-05
6.73867e-05
6.74445e-05
6.74006e-05
6.74417e-05
6.73279e-05
6.74051e-05
6.73744e-05
6.74356e-05
6.73247e-05
6.74119e-05
6.73821e-05
6.74429e-05
6.73326e-05
6.74189e-05
6.73887e-05
6.74489e-05
6.73383e-05
6.74243e-05
6.73929e-05
6.74529e-05
6.73412e-05
6.74271e-05
6.73953e-05
6.74553e-05
6.73433e-05
6.74291e-05
6.73969e-05
6.7457e-05
6.73447e-05
6.74304e-05
6.73981e-05
6.74581e-05
6.73457e-05
6.74315e-05
6.73991e-05
6.7459e-05
6.73466e-05
6.74324e-05
6.74e-05
6.746e-05
6.73475e-05
6.74332e-05
6.74009e-05
6.74609e-05
6.73485e-05
6.74342e-05
6.74018e-05
6.74618e-05
6.73494e-05
6.74352e-05
6.74029e-05
6.74629e-05
6.73505e-05
6.74363e-05
6.7404e-05
6.74639e-05
6.73516e-05
6.74373e-05
6.74051e-05
6.74651e-05
6.73527e-05
6.74383e-05
6.74063e-05
6.74661e-05
6.73539e-05
6.74395e-05
6.74072e-05
6.74677e-05
6.73554e-05
6.74408e-05
6.73858e-05
6.7252e-05
6.72098e-05
6.71913e-05
6.71821e-05
6.7177e-05
6.71742e-05
6.71727e-05
6.71721e-05
6.7172e-05
6.71723e-05
6.71725e-05
6.71731e-05
6.71735e-05
6.71743e-05
6.71744e-05
6.71746e-05
6.71753e-05
6.71765e-05
6.71774e-05
6.71778e-05
6.7178e-05
6.71782e-05
6.71781e-05
6.71782e-05
6.71781e-05
6.71784e-05
6.71787e-05
6.71791e-05
6.71793e-05
6.71796e-05
6.71799e-05
6.71803e-05
6.71806e-05
6.7181e-05
6.71812e-05
6.71816e-05
6.71819e-05
6.71824e-05
6.71827e-05
6.7183e-05
6.71832e-05
6.71835e-05
6.71838e-05
6.71841e-05
6.71843e-05
6.71846e-05
6.71847e-05
6.71852e-05
6.71856e-05
6.7186e-05
6.71862e-05
6.71866e-05
6.71869e-05
6.71872e-05
6.71873e-05
6.71876e-05
6.71878e-05
6.71883e-05
6.71885e-05
6.71888e-05
6.7189e-05
6.71893e-05
6.71896e-05
6.719e-05
6.71903e-05
6.71907e-05
6.7191e-05
6.71913e-05
6.71916e-05
6.71918e-05
6.7192e-05
6.71923e-05
6.71925e-05
6.71927e-05
6.71929e-05
6.71931e-05
6.71933e-05
6.71934e-05
6.71936e-05
6.71939e-05
6.71943e-05
6.71947e-05
6.71948e-05
6.7195e-05
6.71951e-05
6.71953e-05
6.71955e-05
6.71959e-05
6.71958e-05
6.71964e-05
6.71959e-05
6.71973e-05
6.71958e-05
6.71981e-05
6.71959e-05
6.71985e-05
6.71963e-05
6.71989e-05
6.71967e-05
6.71991e-05
6.71971e-05
6.71994e-05
6.71974e-05
6.71998e-05
6.71975e-05
6.72004e-05
6.71977e-05
6.72002e-05
6.7199e-05
6.71988e-05
6.72029e-05
6.71932e-05
6.72107e-05
6.71871e-05
6.72152e-05
6.71862e-05
6.72154e-05
6.71901e-05
6.72114e-05
6.71926e-05
6.72107e-05
6.71978e-05
6.7204e-05
6.72042e-05
6.72002e-05
6.72111e-05
6.72028e-05
6.721e-05
6.72059e-05
6.72088e-05
6.72069e-05
6.72053e-05
6.72125e-05
6.71995e-05
6.72205e-05
6.7188e-05
6.72293e-05
6.71772e-05
6.72319e-05
6.71711e-05
6.72357e-05
6.71659e-05
6.72334e-05
6.71678e-05
6.7229e-05
6.71697e-05
6.72165e-05
6.7099e-05
6.87314e-05
6.84835e-05
6.77121e-05
6.91117e-05
6.96896e-05
2.4413e-05
3.31425e-05
4.08745e-05
5.07563e-05
5.95438e-05
6.55101e-05
7.07444e-05
7.38922e-05
7.63627e-05
7.85128e-05
8.02662e-05
8.18372e-05
8.32019e-05
8.44484e-05
8.55975e-05
8.66263e-05
8.75958e-05
8.84995e-05
8.93481e-05
9.01459e-05
9.08885e-05
9.15776e-05
9.22123e-05
9.27884e-05
9.32852e-05
9.36493e-05
9.39008e-05
9.40698e-05
9.41817e-05
9.42528e-05
9.42967e-05
9.4321e-05
9.43334e-05
9.43373e-05
9.43371e-05
9.43338e-05
9.43298e-05
9.43252e-05
9.43212e-05
9.43176e-05
9.43148e-05
9.43126e-05
9.43112e-05
9.43099e-05
9.43092e-05
9.43086e-05
9.43088e-05
9.43092e-05
9.43093e-05
9.43103e-05
9.4309e-05
9.43115e-05
9.43094e-05
9.43137e-05
9.43079e-05
9.43171e-05
9.43024e-05
9.43672e-05
9.4076e-05
9.25216e-05
9.27736e-05
9.29653e-05
9.27156e-05
9.22712e-05
9.18136e-05
9.13597e-05
9.09827e-05
9.06182e-05
9.03435e-05
9.027e-05
9.01531e-05
9.00635e-05
8.98743e-05
8.98291e-05
8.97324e-05
8.96954e-05
8.95462e-05
8.95634e-05
8.95087e-05
8.95253e-05
8.94211e-05
8.94728e-05
8.94429e-05
8.94887e-05
8.93935e-05
8.94652e-05
8.94409e-05
8.94916e-05
8.94008e-05
8.94741e-05
8.94505e-05
8.95013e-05
8.941e-05
8.94833e-05
8.94577e-05
8.95085e-05
8.94154e-05
8.94886e-05
8.94623e-05
8.95131e-05
8.94192e-05
8.94921e-05
8.94652e-05
8.9516e-05
8.94215e-05
8.94943e-05
8.94669e-05
8.95176e-05
8.9423e-05
8.94958e-05
8.94683e-05
8.95189e-05
8.94243e-05
8.9497e-05
8.94696e-05
8.95201e-05
8.94254e-05
8.94982e-05
8.94707e-05
8.95213e-05
8.94266e-05
8.94993e-05
8.94719e-05
8.95225e-05
8.94279e-05
8.95006e-05
8.94732e-05
8.95239e-05
8.94293e-05
8.9502e-05
8.94746e-05
8.95252e-05
8.94307e-05
8.95034e-05
8.94761e-05
8.95267e-05
8.94321e-05
8.95047e-05
8.94777e-05
8.95279e-05
8.94335e-05
8.95061e-05
8.94787e-05
8.953e-05
8.94356e-05
8.95077e-05
8.94627e-05
8.93223e-05
8.92516e-05
8.92138e-05
8.91925e-05
8.91797e-05
8.9172e-05
8.91673e-05
8.91647e-05
8.91633e-05
8.91629e-05
8.91629e-05
8.91635e-05
8.91641e-05
8.91651e-05
8.91656e-05
8.9166e-05
8.91675e-05
8.91694e-05
8.91705e-05
8.91711e-05
8.91715e-05
8.91713e-05
8.91712e-05
8.91713e-05
8.91713e-05
8.91717e-05
8.9172e-05
8.91725e-05
8.91727e-05
8.91732e-05
8.91736e-05
8.91741e-05
8.91745e-05
8.9175e-05
8.91753e-05
8.91758e-05
8.91763e-05
8.91768e-05
8.91772e-05
8.91775e-05
8.91778e-05
8.91782e-05
8.91785e-05
8.91789e-05
8.91791e-05
8.91795e-05
8.91797e-05
8.91803e-05
8.91807e-05
8.91811e-05
8.91814e-05
8.91819e-05
8.91822e-05
8.91825e-05
8.91826e-05
8.9183e-05
8.91833e-05
8.91838e-05
8.9184e-05
8.91843e-05
8.91846e-05
8.91851e-05
8.91854e-05
8.91858e-05
8.91862e-05
8.91866e-05
8.91869e-05
8.91872e-05
8.91876e-05
8.91878e-05
8.91881e-05
8.91884e-05
8.91887e-05
8.91888e-05
8.91891e-05
8.91892e-05
8.91893e-05
8.91894e-05
8.91896e-05
8.91898e-05
8.91901e-05
8.91905e-05
8.91907e-05
8.91911e-05
8.91912e-05
8.91916e-05
8.91917e-05
8.91921e-05
8.91921e-05
8.91927e-05
8.91924e-05
8.91935e-05
8.91924e-05
8.91943e-05
8.91927e-05
8.91949e-05
8.91929e-05
8.91955e-05
8.91932e-05
8.9196e-05
8.91935e-05
8.91966e-05
8.91936e-05
8.91972e-05
8.91936e-05
8.91981e-05
8.91935e-05
8.91985e-05
8.9194e-05
8.91984e-05
8.91968e-05
8.91933e-05
8.92052e-05
8.91849e-05
8.92143e-05
8.91805e-05
8.92151e-05
8.91858e-05
8.92085e-05
8.91913e-05
8.92064e-05
8.91984e-05
8.91993e-05
8.92032e-05
8.91974e-05
8.92111e-05
8.92013e-05
8.92105e-05
8.92016e-05
8.92097e-05
8.91994e-05
8.92075e-05
8.92045e-05
8.92059e-05
8.92128e-05
8.91937e-05
8.92215e-05
8.91792e-05
8.923e-05
8.91665e-05
8.92416e-05
8.91577e-05
8.92386e-05
8.91585e-05
8.92335e-05
8.91584e-05
8.922e-05
8.90629e-05
9.0134e-05
9.06987e-05
8.92768e-05
9.05743e-05
9.13721e-05
2.78147e-05
2.99224e-05
3.90818e-05
4.8398e-05
5.56593e-05
6.46135e-05
7.27508e-05
7.89094e-05
8.42976e-05
8.85247e-05
9.18922e-05
9.46133e-05
9.69821e-05
9.9125e-05
0.000101061
0.000102788
0.000104388
0.000105856
0.000107218
0.00010848
0.00010964
0.000110701
0.000111663
0.000112524
0.000113252
0.000113786
0.000114162
0.00011442
0.000114593
0.000114704
0.000114774
0.000114814
0.000114835
0.000114844
0.000114845
0.000114842
0.000114838
0.000114832
0.000114827
0.000114823
0.00011482
0.000114818
0.000114816
0.000114815
0.000114814
0.000114814
0.000114815
0.000114816
0.000114816
0.000114818
0.000114817
0.000114821
0.000114819
0.000114825
0.000114818
0.000114831
0.000114812
0.000114892
0.00011449
0.00011265
0.000112846
0.000113314
0.000113292
0.000112976
0.000112544
0.000112059
0.000111607
0.000111154
0.000110782
0.000110589
0.000110396
0.000110235
0.000110011
0.000109903
0.000109776
0.00010969
0.000109525
0.000109498
0.000109429
0.000109418
0.000109317
0.000109341
0.000109311
0.000109337
0.000109254
0.000109308
0.000109289
0.000109328
0.000109254
0.000109314
0.000109298
0.000109339
0.000109265
0.000109325
0.000109308
0.000109349
0.000109273
0.000109333
0.000109315
0.000109356
0.000109279
0.000109339
0.00010932
0.00010936
0.000109283
0.000109342
0.000109322
0.000109362
0.000109285
0.000109344
0.000109324
0.000109364
0.000109286
0.000109345
0.000109326
0.000109366
0.000109288
0.000109347
0.000109327
0.000109367
0.000109289
0.000109348
0.000109329
0.000109369
0.000109291
0.00010935
0.00010933
0.00010937
0.000109292
0.000109351
0.000109332
0.000109372
0.000109294
0.000109353
0.000109334
0.000109373
0.000109296
0.000109355
0.000109335
0.000109375
0.000109297
0.000109356
0.000109337
0.000109377
0.0001093
0.000109358
0.000109328
0.000109198
0.00010911
0.000109055
0.00010902
0.000108997
0.000108982
0.000108972
0.000108966
0.000108962
0.00010896
0.000108959
0.000108959
0.000108959
0.00010896
0.000108961
0.000108961
0.000108963
0.000108965
0.000108966
0.000108967
0.000108968
0.000108967
0.000108967
0.000108967
0.000108967
0.000108968
0.000108968
0.000108969
0.000108969
0.00010897
0.00010897
0.000108971
0.000108971
0.000108972
0.000108972
0.000108973
0.000108973
0.000108974
0.000108974
0.000108974
0.000108975
0.000108975
0.000108976
0.000108976
0.000108976
0.000108977
0.000108977
0.000108978
0.000108978
0.000108978
0.000108979
0.000108979
0.000108979
0.00010898
0.00010898
0.00010898
0.000108981
0.000108981
0.000108981
0.000108982
0.000108982
0.000108983
0.000108983
0.000108983
0.000108984
0.000108984
0.000108984
0.000108985
0.000108985
0.000108985
0.000108986
0.000108986
0.000108986
0.000108986
0.000108987
0.000108987
0.000108987
0.000108987
0.000108987
0.000108987
0.000108987
0.000108987
0.000108988
0.000108988
0.000108988
0.000108989
0.000108989
0.000108989
0.000108989
0.00010899
0.00010899
0.000108991
0.00010899
0.000108991
0.000108991
0.000108992
0.000108991
0.000108992
0.000108991
0.000108993
0.000108992
0.000108993
0.000108992
0.000108994
0.000108992
0.000108995
0.000108992
0.000108995
0.000108992
0.000108996
0.000108995
0.000108992
0.000109001
0.000108984
0.000109013
0.000108977
0.000109014
0.000108983
0.000109006
0.000108991
0.000109003
0.000108999
0.000108998
0.000109001
0.000108997
0.000109008
0.000109004
0.000109008
0.000109003
0.000109007
0.000108998
0.000109004
0.000109003
0.000109006
0.00010901
0.000108997
0.000109015
0.000108982
0.000109027
0.000108965
0.000109044
0.000108956
0.00010904
0.000108955
0.000109034
0.000108954
0.000109021
0.000108854
0.000108717
0.00011082
0.000108966
0.000109795
0.000110714
3.77747e-05
3.05094e-05
3.54204e-05
4.47549e-05
4.98592e-05
5.94704e-05
6.83457e-05
7.65749e-05
8.43162e-05
9.06944e-05
9.65054e-05
0.000101169
0.000105561
0.000109042
0.000112176
0.000114781
0.000117169
0.000119354
0.000121367
0.000123218
0.000124905
0.000126439
0.000127821
0.000129052
0.000130101
0.000130896
0.00013148
0.000131904
0.000132209
0.000132424
0.000132575
0.00013268
0.000132754
0.000132804
0.000132839
0.000132864
0.000132883
0.000132898
0.000132909
0.00013292
0.000132928
0.000132938
0.000132945
0.000132953
0.000132958
0.000132966
0.000132971
0.000132978
0.000132982
0.000132988
0.00013299
0.000132998
0.000132998
0.000133008
0.000133003
0.00013302
0.000132999
0.000133089
0.000132607
0.00013061
0.000130522
0.000131297
0.000131461
0.000131301
0.000130952
0.000130503
0.000130028
0.000129537
0.0001291
0.000128813
0.000128551
0.000128324
0.000128062
0.000127898
0.000127741
0.00012761
0.000127425
0.000127357
0.000127271
0.000127232
0.000127127
0.000127127
0.000127092
0.000127099
0.000127023
0.00012706
0.000127045
0.000127072
0.00012701
0.000127058
0.000127049
0.00012708
0.00012702
0.00012707
0.00012706
0.000127092
0.000127031
0.00012708
0.00012707
0.000127102
0.000127039
0.000127088
0.000127076
0.000127107
0.000127044
0.000127092
0.00012708
0.00012711
0.000127047
0.000127095
0.000127082
0.000127112
0.000127049
0.000127096
0.000127084
0.000127114
0.00012705
0.000127098
0.000127086
0.000127116
0.000127052
0.0001271
0.000127087
0.000127117
0.000127054
0.000127101
0.000127089
0.000127119
0.000127056
0.000127103
0.000127091
0.000127121
0.000127057
0.000127105
0.000127093
0.000127123
0.000127059
0.000127107
0.000127095
0.000127125
0.000127061
0.000127109
0.000127096
0.000127127
0.000127064
0.000127112
0.000127094
0.000126981
0.000126886
0.000126817
0.00012677
0.000126736
0.000126713
0.000126698
0.000126687
0.000126679
0.000126674
0.000126672
0.00012667
0.000126669
0.000126669
0.000126669
0.00012667
0.000126671
0.000126674
0.000126674
0.000126675
0.000126676
0.000126675
0.000126675
0.000126675
0.000126676
0.000126676
0.000126677
0.000126677
0.000126677
0.000126678
0.000126678
0.000126679
0.000126679
0.00012668
0.00012668
0.000126681
0.000126681
0.000126682
0.000126682
0.000126683
0.000126683
0.000126683
0.000126684
0.000126684
0.000126684
0.000126685
0.000126685
0.000126686
0.000126686
0.000126687
0.000126687
0.000126687
0.000126688
0.000126688
0.000126688
0.000126689
0.000126689
0.000126689
0.00012669
0.00012669
0.00012669
0.000126691
0.000126691
0.000126692
0.000126692
0.000126692
0.000126693
0.000126693
0.000126693
0.000126693
0.000126694
0.000126694
0.000126694
0.000126694
0.000126694
0.000126694
0.000126694
0.000126694
0.000126694
0.000126694
0.000126694
0.000126694
0.000126695
0.000126695
0.000126696
0.000126696
0.000126696
0.000126697
0.000126697
0.000126697
0.000126697
0.000126698
0.000126698
0.000126698
0.000126698
0.000126699
0.000126699
0.000126699
0.0001267
0.0001267
0.0001267
0.0001267
0.0001267
0.0001267
0.000126701
0.000126701
0.000126701
0.000126702
0.000126702
0.000126703
0.000126703
0.0001267
0.000126709
0.000126693
0.000126721
0.000126685
0.000126721
0.000126692
0.000126714
0.000126701
0.000126709
0.000126708
0.000126707
0.000126707
0.000126708
0.000126715
0.000126716
0.000126715
0.000126715
0.000126713
0.000126709
0.000126709
0.000126713
0.000126714
0.00012672
0.000126706
0.000126721
0.000126693
0.000126734
0.000126674
0.000126753
0.000126667
0.000126748
0.000126665
0.000126743
0.000126662
0.00012673
0.000126575
0.000125497
0.000128826
0.000126757
0.000127319
0.000128005
5.84885e-05
3.67249e-05
3.43561e-05
3.93182e-05
4.76075e-05
5.51691e-05
6.15654e-05
7.02632e-05
7.90587e-05
8.7018e-05
9.47214e-05
0.000101218
0.000107411
0.000112533
0.000117338
0.00012131
0.000124976
0.000128508
0.000131488
0.000134281
0.0001366
0.000138705
0.000140606
0.000142316
0.000143817
0.000144986
0.000145884
0.000146571
0.000147096
0.000147497
0.000147804
0.000148041
0.000148225
0.000148369
0.000148484
0.000148577
0.000148653
0.000148718
0.000148771
0.000148819
0.000148858
0.000148895
0.000148925
0.000148954
0.000148976
0.000148999
0.000149017
0.000149036
0.00014905
0.000149064
0.000149075
0.000149089
0.000149096
0.000149112
0.00014911
0.000149132
0.000149114
0.000149209
0.000148682
0.000146624
0.000146529
0.000147215
0.000147515
0.000147497
0.000147248
0.000146868
0.000146409
0.000145921
0.000145451
0.000145103
0.000144787
0.000144509
0.000144213
0.000144004
0.000143818
0.000143649
0.000143444
0.00014334
0.000143236
0.000143171
0.000143059
0.000143037
0.000142994
0.000142983
0.000142911
0.000142932
0.000142918
0.000142935
0.000142881
0.000142919
0.000142914
0.000142938
0.000142888
0.00014293
0.000142926
0.000142951
0.000142901
0.000142942
0.000142938
0.000142962
0.000142911
0.000142951
0.000142945
0.000142969
0.000142917
0.000142957
0.00014295
0.000142974
0.000142921
0.00014296
0.000142953
0.000142976
0.000142924
0.000142963
0.000142956
0.000142978
0.000142926
0.000142964
0.000142958
0.00014298
0.000142927
0.000142966
0.000142959
0.000142982
0.000142929
0.000142968
0.000142961
0.000142984
0.000142931
0.00014297
0.000142963
0.000142986
0.000142933
0.000142972
0.000142965
0.000142988
0.000142936
0.000142975
0.000142968
0.000142991
0.000142937
0.000142976
0.000142969
0.000142993
0.000142941
0.00014298
0.000142973
0.000142878
0.000142783
0.000142706
0.000142648
0.000142606
0.000142575
0.000142552
0.000142536
0.000142524
0.000142515
0.00014251
0.000142506
0.000142504
0.000142502
0.000142502
0.000142501
0.000142502
0.000142504
0.000142504
0.000142505
0.000142505
0.000142505
0.000142505
0.000142505
0.000142505
0.000142505
0.000142506
0.000142506
0.000142506
0.000142507
0.000142507
0.000142508
0.000142508
0.000142509
0.000142509
0.00014251
0.00014251
0.00014251
0.000142511
0.000142511
0.000142512
0.000142512
0.000142513
0.000142513
0.000142513
0.000142513
0.000142514
0.000142514
0.000142515
0.000142515
0.000142516
0.000142516
0.000142516
0.000142516
0.000142516
0.000142517
0.000142517
0.000142517
0.000142518
0.000142518
0.000142518
0.000142519
0.000142519
0.00014252
0.00014252
0.00014252
0.000142521
0.000142521
0.000142521
0.000142521
0.000142521
0.000142522
0.000142522
0.000142522
0.000142522
0.000142522
0.000142522
0.000142521
0.000142521
0.000142521
0.000142521
0.000142521
0.000142521
0.000142522
0.000142523
0.000142523
0.000142523
0.000142524
0.000142524
0.000142524
0.000142524
0.000142525
0.000142525
0.000142525
0.000142525
0.000142525
0.000142526
0.000142525
0.000142527
0.000142526
0.000142527
0.000142526
0.000142528
0.000142526
0.000142529
0.000142527
0.000142529
0.000142527
0.00014253
0.000142528
0.000142532
0.000142527
0.000142536
0.00014252
0.000142548
0.000142514
0.000142547
0.00014252
0.000142541
0.000142529
0.000142536
0.000142536
0.000142536
0.000142533
0.000142537
0.00014254
0.000142546
0.000142541
0.000142546
0.000142539
0.00014254
0.000142534
0.000142543
0.000142539
0.000142549
0.000142533
0.000142549
0.00014252
0.000142562
0.000142503
0.000142579
0.000142498
0.000142574
0.000142496
0.000142569
0.000142492
0.000142557
0.000142427
0.000141431
0.000144891
0.00014275
0.000142976
0.000143507
9.97625e-05
5.19372e-05
4.03502e-05
3.86723e-05
4.32977e-05
5.16438e-05
5.63794e-05
6.43274e-05
7.1779e-05
8.00765e-05
8.86684e-05
9.64447e-05
0.000104056
0.000110723
0.000117061
0.000122474
0.000127408
0.000132085
0.000136141
0.000139914
0.000143152
0.000145942
0.000148453
0.000151061
0.000154511
0.000156171
0.000157493
0.000158547
0.000159392
0.000160071
0.00016062
0.000161065
0.000161429
0.000161729
0.000161978
0.000162187
0.000162362
0.000162512
0.000162639
0.00016275
0.000162843
0.000162928
0.000162998
0.000163061
0.000163114
0.000163163
0.000163204
0.000163242
0.000163272
0.000163302
0.000163325
0.000163351
0.000163367
0.000163392
0.000163398
0.000163427
0.000163414
0.000163511
0.000162976
0.00016092
0.000160671
0.000161361
0.000161752
0.000161846
0.000161688
0.000161387
0.000160967
0.000160509
0.000160031
0.000159652
0.0001593
0.000158988
0.000158666
0.000158423
0.000158213
0.000158014
0.000157793
0.000157658
0.000157538
0.000157451
0.000157329
0.000157288
0.000157236
0.000157211
0.000157139
0.000157147
0.000157131
0.00015714
0.000157091
0.000157121
0.000157118
0.000157137
0.000157094
0.000157129
0.000157128
0.000157149
0.000157108
0.000157143
0.000157142
0.000157163
0.00015712
0.000157154
0.000157152
0.000157171
0.000157128
0.00015716
0.000157158
0.000157177
0.000157133
0.000157165
0.000157162
0.00015718
0.000157136
0.000157168
0.000157165
0.000157183
0.000157138
0.00015717
0.000157167
0.000157185
0.00015714
0.000157171
0.000157168
0.000157187
0.000157142
0.000157174
0.000157171
0.000157189
0.000157144
0.000157176
0.000157173
0.000157191
0.000157146
0.000157178
0.000157175
0.000157193
0.000157149
0.000157181
0.000157178
0.000157196
0.000157151
0.000157183
0.00015718
0.000157198
0.000157155
0.000157187
0.000157187
0.00015711
0.000157019
0.000156938
0.000156873
0.000156823
0.000156785
0.000156755
0.000156733
0.000156716
0.000156704
0.000156695
0.000156689
0.000156684
0.000156681
0.000156679
0.000156677
0.000156677
0.000156678
0.000156678
0.000156677
0.000156677
0.000156677
0.000156677
0.000156676
0.000156677
0.000156677
0.000156677
0.000156677
0.000156677
0.000156678
0.000156678
0.000156678
0.000156679
0.000156679
0.000156679
0.00015668
0.00015668
0.000156681
0.000156681
0.000156681
0.000156681
0.000156682
0.000156682
0.000156683
0.000156683
0.000156683
0.000156684
0.000156684
0.000156684
0.000156685
0.000156685
0.000156685
0.000156685
0.000156685
0.000156686
0.000156686
0.000156686
0.000156686
0.000156687
0.000156687
0.000156687
0.000156688
0.000156688
0.000156689
0.000156689
0.000156689
0.000156689
0.000156689
0.000156689
0.00015669
0.00015669
0.00015669
0.00015669
0.00015669
0.00015669
0.00015669
0.000156689
0.000156689
0.000156689
0.000156689
0.000156688
0.000156688
0.000156689
0.000156689
0.00015669
0.00015669
0.00015669
0.000156691
0.000156691
0.000156691
0.000156691
0.000156692
0.000156692
0.000156692
0.000156693
0.000156692
0.000156693
0.000156692
0.000156694
0.000156692
0.000156695
0.000156693
0.000156696
0.000156693
0.000156697
0.000156694
0.000156698
0.000156694
0.000156699
0.000156695
0.000156701
0.000156693
0.000156705
0.000156687
0.000156715
0.000156683
0.000156713
0.000156689
0.000156708
0.000156697
0.000156704
0.000156704
0.000156705
0.0001567
0.000156706
0.000156707
0.000156716
0.000156708
0.000156717
0.000156706
0.000156711
0.0001567
0.000156714
0.000156705
0.00015672
0.000156699
0.000156718
0.000156688
0.00015673
0.000156673
0.000156744
0.00015667
0.000156739
0.000156668
0.000156734
0.000156664
0.000156725
0.000156625
0.000157326
0.000159212
0.000157099
0.000157058
0.000157438
0.000164552
8.33214e-05
5.57724e-05
4.54245e-05
4.30764e-05
4.70096e-05
5.45634e-05
6.1624e-05
6.61452e-05
7.34024e-05
8.10115e-05
8.89337e-05
9.72226e-05
0.00010494
0.000112404
0.000119208
0.000125461
0.000131046
0.000136132
0.000140931
0.00014512
0.000148875
0.000152687
0.000157264
0.000162396
0.000164642
0.000166489
0.000168015
0.00016928
0.000170333
0.000171212
0.000171948
0.000172566
0.000173087
0.000173528
0.000173902
0.000174222
0.000174495
0.00017473
0.000174933
0.000175106
0.000175259
0.000175389
0.000175503
0.0001756
0.000175687
0.000175761
0.000175827
0.000175882
0.000175933
0.000175975