/*--------------------------------*- C++ -*----------------------------------*\
| =========                 |                                                 |
| \\      /  F ield         | foam-extend: Open Source CFD                    |
|  \\    /   O peration     | Version:     3.2                                |
|   \\  /    A nd           | Web:         http://www.foam-extend.org         |
|    \\/     M anipulation  | For copyright notice see file Copyright         |
\*---------------------------------------------------------------------------*/
FoamFile
{
    version     2.0;
    format      ascii;
    class       areaScalarField;
    location    "50";
    object      Fi1;
}
// * * * * * * * * * * * * * * * * * * * * * * * * * * * * * * * * * * * * * //

dimensions      [0 1 -1 0 0 0 0];

internalField   nonuniform List<scalar> 
300
(
-3.46598e-05
-1.28021e-05
-4.70416e-06
-4.88705e-06
-4.11997e-06
-4.21418e-06
-3.89437e-06
-3.90007e-06
-3.77855e-06
-3.83174e-06
-3.83447e-06
-3.91807e-06
-3.98693e-06
-4.10718e-06
-4.212e-06
-4.35796e-06
-4.49616e-06
-4.65594e-06
-4.8117e-06
-4.98778e-06
-5.16947e-06
-5.35704e-06
-5.54898e-06
-5.74385e-06
-5.94135e-06
-6.13092e-06
-6.29871e-06
-6.44168e-06
-6.56283e-06
-6.66422e-06
-6.74977e-06
-6.82077e-06
-6.88072e-06
-6.93006e-06
-6.97202e-06
-7.00619e-06
-7.03577e-06
-7.05941e-06
-7.08062e-06
-7.09692e-06
-7.11254e-06
-7.12367e-06
-7.13583e-06
-7.14327e-06
-7.15251e-06
-7.15697e-06
-7.16477e-06
-7.16647e-06
-7.17502e-06
-7.17218e-06
-7.18567e-06
-7.17173e-06
-7.1989e-06
-7.1613e-06
-7.22488e-06
-7.12848e-06
-7.28504e-06
-7.05123e-06
-7.50207e-06
-4.23217e-06
-2.17789e-06
-2.936e-06
-3.41236e-06
-3.60299e-06
-3.74546e-06
-3.86333e-06
-3.88056e-06
-3.9811e-06
-3.94266e-06
-4.03786e-06
5.40564e-06
2.70119e-06
-5.39119e-06
-2.76414e-06
5.45984e-06
2.65486e-06
-5.42639e-06
-2.74666e-06
5.45828e-06
2.65409e-06
-5.42186e-06
-2.78634e-06
5.39742e-06
2.62848e-06
-5.38421e-06
-2.76117e-06
5.38788e-06
2.6308e-06
-5.37248e-06
-2.75762e-06
5.38578e-06
2.63076e-06
-5.3703e-06
-2.75661e-06
5.38497e-06
2.63076e-06
-5.36971e-06
-2.75643e-06
5.3846e-06
2.63063e-06
-5.36983e-06
-2.75675e-06
5.38411e-06
2.6303e-06
-5.3701e-06
-2.75728e-06
5.38338e-06
2.62992e-06
-5.37023e-06
-2.75782e-06
5.38255e-06
2.62949e-06
-5.37028e-06
-2.75834e-06
5.38164e-06
2.62907e-06
-5.37027e-06
-2.75887e-06
5.38064e-06
2.62861e-06
-5.37024e-06
-2.7594e-06
5.37959e-06
2.62814e-06
-5.37018e-06
-2.75995e-06
5.3785e-06
2.62767e-06
-5.37011e-06
-2.76054e-06
5.37736e-06
2.62717e-06
-5.37004e-06
-2.76122e-06
5.3762e-06
2.62664e-06
-5.36997e-06
-2.76171e-06
5.37491e-06
2.62608e-06
-5.36938e-06
-2.76323e-06
5.37406e-06
2.62546e-06
-5.36891e-06
-2.76462e-06
5.3763e-06
3.95377e-06
3.98466e-06
3.94311e-06
3.97846e-06
3.93851e-06
3.9739e-06
3.93434e-06
3.97106e-06
3.93274e-06
3.97011e-06
3.93199e-06
3.96956e-06
3.93145e-06
3.96897e-06
3.93085e-06
3.96843e-06
3.9303e-06
3.968e-06
3.92992e-06
3.96753e-06
3.92947e-06
3.96713e-06
3.92903e-06
3.96672e-06
3.92872e-06
3.96648e-06
3.92837e-06
3.96616e-06
3.92806e-06
3.9658e-06
3.92774e-06
3.96557e-06
3.92745e-06
3.96521e-06
3.9271e-06
3.96502e-06
3.92695e-06
3.96478e-06
3.92661e-06
3.96446e-06
3.92631e-06
3.96419e-06
3.92603e-06
3.96392e-06
3.92581e-06
3.96378e-06
3.92569e-06
3.96362e-06
3.92542e-06
3.96341e-06
3.9253e-06
3.96336e-06
3.92523e-06
3.96323e-06
3.92506e-06
3.96315e-06
3.92501e-06
3.96308e-06
3.92489e-06
3.96301e-06
3.92487e-06
3.96294e-06
3.92482e-06
3.96305e-06
3.92493e-06
3.96313e-06
3.92493e-06
3.96317e-06
3.92502e-06
3.96321e-06
3.92508e-06
3.96341e-06
3.92527e-06
3.96356e-06
3.92538e-06
3.96372e-06
3.92559e-06
3.96397e-06
3.92582e-06
3.96413e-06
3.92588e-06
3.9644e-06
3.92629e-06
3.96475e-06
3.92641e-06
3.96502e-06
3.92663e-06
3.96545e-06
3.9264e-06
3.96635e-06
3.92605e-06
3.96768e-06
3.92504e-06
3.96948e-06
3.92394e-06
3.97107e-06
3.92308e-06
3.97272e-06
3.92203e-06
3.97442e-06
3.9211e-06
3.97606e-06
3.92004e-06
3.97802e-06
3.91862e-06
3.98032e-06
3.91632e-06
3.9839e-06
3.91311e-06
3.98732e-06
3.91032e-06
3.98911e-06
3.91058e-06
3.98664e-06
3.91527e-06
3.97929e-06
3.92523e-06
3.96808e-06
3.93168e-06
3.96837e-06
3.93106e-06
3.96327e-06
3.93399e-06
3.96847e-06
3.928e-06
3.96692e-06
3.92037e-06
3.97512e-06
3.91004e-06
3.97634e-06
3.90819e-06
3.98978e-06
3.90523e-06
3.98857e-06
3.90251e-06
3.99103e-06
3.91202e-06
3.98979e-06
3.92211e-06
3.97881e-06
3.93411e-06
3.96462e-06
3.94986e-06
3.94486e-06
3.96911e-06
3.92548e-06
3.98391e-06
3.90094e-06
3.55159e-06
-1.11001e-06
-8.64901e-06
-6.53689e-06
-7.19852e-06
)
;

boundaryField
{
    inlet
    {
        type            calculated;
        value           uniform -3.46596e-05;
    }
    outlet
    {
        type            calculated;
        value           uniform -7.19904e-06;
    }
    sideWall
    {
        type            empty;
    }
}


// ************************************************************************* //
