/*--------------------------------*- C++ -*----------------------------------*\
| =========                 |                                                 |
| \\      /  F ield         | foam-extend: Open Source CFD                    |
|  \\    /   O peration     | Version:     3.2                                |
|   \\  /    A nd           | Web:         http://www.foam-extend.org         |
|    \\/     M anipulation  | For copyright notice see file Copyright         |
\*---------------------------------------------------------------------------*/
FoamFile
{
    version     2.0;
    format      ascii;
    class       areaScalarField;
    location    "50";
    object      Fi2;
}
// * * * * * * * * * * * * * * * * * * * * * * * * * * * * * * * * * * * * * //

dimensions      [0 1 -1 0 0 0 0];

internalField   nonuniform List<scalar> 
300
(
-3.46598e-05
-1.28021e-05
-4.70416e-06
-4.88705e-06
-4.11997e-06
-4.21418e-06
-3.89437e-06
-3.90007e-06
-3.77855e-06
-3.83174e-06
-3.83447e-06
-3.91807e-06
-3.98693e-06
-4.10718e-06
-4.212e-06
-4.35796e-06
-4.49616e-06
-4.65594e-06
-4.8117e-06
-4.98778e-06
-5.16947e-06
-5.35704e-06
-5.54898e-06
-5.74385e-06
-5.94135e-06
-6.13092e-06
-6.29871e-06
-6.44168e-06
-6.56283e-06
-6.66422e-06
-6.74977e-06
-6.82077e-06
-6.88072e-06
-6.93006e-06
-6.97202e-06
-7.00619e-06
-7.03577e-06
-7.05941e-06
-7.08062e-06
-7.09692e-06
-7.11254e-06
-7.12367e-06
-7.13583e-06
-7.14327e-06
-7.15251e-06
-7.15697e-06
-7.16477e-06
-7.16647e-06
-7.17502e-06
-7.17218e-06
-7.18567e-06
-7.17173e-06
-7.19889e-06
-7.1613e-06
-7.22488e-06
-7.12849e-06
-7.28503e-06
-7.05124e-06
-7.50201e-06
-2.14545e-06
2.0803e-06
2.99526e-06
3.36432e-06
3.60846e-06
3.75457e-06
3.83793e-06
3.91969e-06
3.94093e-06
3.99574e-06
3.97652e-06
-5.36712e-06
-2.78319e-06
5.45715e-06
2.69004e-06
-5.42881e-06
-2.79633e-06
5.44715e-06
2.66885e-06
-5.38265e-06
-2.76321e-06
5.4197e-06
2.62792e-06
-5.4072e-06
-2.76974e-06
5.39036e-06
2.63028e-06
-5.3757e-06
-2.75879e-06
5.38653e-06
2.63076e-06
-5.37112e-06
-2.75713e-06
5.38521e-06
2.63075e-06
-5.36989e-06
-2.75657e-06
5.3847e-06
2.63068e-06
-5.36976e-06
-2.75665e-06
5.38429e-06
2.63044e-06
-5.36993e-06
-2.75709e-06
5.38363e-06
2.63006e-06
-5.37018e-06
-2.7576e-06
5.38286e-06
2.62966e-06
-5.37028e-06
-2.75816e-06
5.38198e-06
2.62924e-06
-5.37029e-06
-2.75869e-06
5.38104e-06
2.62879e-06
-5.37025e-06
-2.75921e-06
5.38002e-06
2.62833e-06
-5.37021e-06
-2.75978e-06
5.37894e-06
2.62786e-06
-5.37014e-06
-2.76032e-06
5.37781e-06
2.62737e-06
-5.37008e-06
-2.76092e-06
5.37664e-06
2.62684e-06
-5.36997e-06
-2.76159e-06
5.37544e-06
2.6264e-06
-5.36995e-06
-2.76241e-06
5.37447e-06
2.62546e-06
-5.36902e-06
-2.76302e-06
5.37302e-06
2.62526e-06
-5.37142e-06
-4.09085e-06
-3.98041e-06
-4.07986e-06
-3.97274e-06
-4.07551e-06
-3.97098e-06
-4.0744e-06
-3.96889e-06
-4.07146e-06
-3.96627e-06
-4.06957e-06
-3.96479e-06
-4.06853e-06
-3.96423e-06
-4.06818e-06
-3.96384e-06
-4.06778e-06
-3.96314e-06
-4.06714e-06
-3.96317e-06
-4.06736e-06
-3.96327e-06
-4.06751e-06
-3.96332e-06
-4.06739e-06
-3.96307e-06
-4.06733e-06
-3.96302e-06
-4.06725e-06
-3.96298e-06
-4.06714e-06
-3.96275e-06
-4.06702e-06
-3.96273e-06
-4.06702e-06
-3.96247e-06
-4.06669e-06
-3.96232e-06
-4.06668e-06
-3.96226e-06
-4.06657e-06
-3.96211e-06
-4.06648e-06
-3.96201e-06
-4.06628e-06
-3.9617e-06
-4.06596e-06
-3.96145e-06
-4.06591e-06
-3.96129e-06
-4.06562e-06
-3.9609e-06
-4.06526e-06
-3.96066e-06
-4.06509e-06
-3.96038e-06
-4.06476e-06
-3.96005e-06
-4.06448e-06
-3.95972e-06
-4.06412e-06
-3.95944e-06
-4.06384e-06
-3.95892e-06
-4.06332e-06
-3.95844e-06
-4.06295e-06
-3.95801e-06
-4.06246e-06
-3.95763e-06
-4.06211e-06
-3.95707e-06
-4.06155e-06
-3.95656e-06
-4.06113e-06
-3.95606e-06
-4.06057e-06
-3.95545e-06
-4.06004e-06
-3.95494e-06
-4.05971e-06
-3.95432e-06
-4.05916e-06
-3.95365e-06
-4.05896e-06
-3.95279e-06
-4.05876e-06
-3.95145e-06
-4.05968e-06
-3.94914e-06
-4.06116e-06
-3.94583e-06
-4.06408e-06
-3.94155e-06
-4.06724e-06
-3.93767e-06
-4.07007e-06
-3.9336e-06
-4.07333e-06
-3.92941e-06
-4.07653e-06
-3.92515e-06
-4.08026e-06
-3.92005e-06
-4.08502e-06
-3.9139e-06
-4.09113e-06
-3.90596e-06
-4.09872e-06
-3.89872e-06
-4.10245e-06
-3.8964e-06
-4.10032e-06
-3.90322e-06
-4.08645e-06
-3.91965e-06
-4.06554e-06
-3.94181e-06
-4.04935e-06
-3.94249e-06
-4.0512e-06
-3.94952e-06
-4.04432e-06
-3.93673e-06
-4.06205e-06
-3.93351e-06
-4.05842e-06
-3.90896e-06
-4.08285e-06
-3.90182e-06
-4.09257e-06
-3.8811e-06
-4.10489e-06
-3.88583e-06
-4.10985e-06
-3.88707e-06
-4.09351e-06
-3.89992e-06
-4.07533e-06
-3.92505e-06
-4.05109e-06
-3.96313e-06
-4.00921e-06
-4.01355e-06
-3.9548e-06
-4.0674e-06
-3.90322e-06
-4.11425e-06
-3.38334e-06
-5.6597e-06
-8.64913e-06
-6.53683e-06
-7.19853e-06
)
;

boundaryField
{
    inlet
    {
        type            calculated;
        value           uniform -3.46596e-05;
    }
    outlet
    {
        type            calculated;
        value           uniform -7.19904e-06;
    }
    sideWall
    {
        type            empty;
    }
}


// ************************************************************************* //
