/*--------------------------------*- C++ -*----------------------------------*\
| =========                 |                                                 |
| \\      /  F ield         | foam-extend: Open Source CFD                    |
|  \\    /   O peration     | Version:     3.2                                |
|   \\  /    A nd           | Web:         http://www.foam-extend.org         |
|    \\/     M anipulation  | For copyright notice see file Copyright         |
\*---------------------------------------------------------------------------*/
FoamFile
{
    version     2.0;
    format      ascii;
    class       areaScalarField;
    location    "50";
    object      He;
}
// * * * * * * * * * * * * * * * * * * * * * * * * * * * * * * * * * * * * * //

dimensions      [0 0 0 0 0 0 0];

internalField   nonuniform List<scalar> 
300
(
0
0
0
0
0
0
0
0
0
0
0
0
0
0
0
0
0
0
0
0
0
0
0
0
0
0
0
0
0
0
0
0
0
0
0
0
0
0
0
0
0
0
0
0
0
0
0
0
0
0
0
0
0
0
0
0
0
0
0
5.44472e-07
1.82295e-06
2.86557e-06
3.34093e-06
3.59095e-06
3.73931e-06
3.83817e-06
3.90139e-06
3.94635e-06
3.97607e-06
1.65318e-06
0
0
2.71133e-06
1.3649e-06
0
0
2.73615e-06
1.36536e-06
0
0
2.74399e-06
1.39928e-06
0
0
2.72528e-06
1.37967e-06
0
0
2.71795e-06
1.37548e-06
0
0
2.71661e-06
1.37464e-06
0
0
2.71627e-06
1.3745e-06
0
0
2.71645e-06
1.37481e-06
0
0
2.7168e-06
1.37532e-06
0
0
2.71709e-06
1.37583e-06
0
0
2.71735e-06
1.37633e-06
0
0
2.71759e-06
1.37684e-06
0
0
2.71782e-06
1.37736e-06
0
0
2.71804e-06
1.3779e-06
0
0
2.71827e-06
1.37846e-06
0
0
2.71853e-06
1.37907e-06
0
0
2.71875e-06
1.37962e-06
0
0
2.71898e-06
1.38045e-06
0
0
2.71925e-06
1.38046e-06
0
0
0
0
0
0
0
0
0
0
0
0
0
0
0
0
0
0
0
0
0
0
0
0
0
0
0
0
0
0
0
0
0
0
0
0
0
0
0
0
0
0
0
0
0
0
0
0
0
0
0
0
0
0
0
0
0
0
0
0
0
0
0
0
0
0
0
0
0
0
0
0
0
0
0
0
0
0
0
0
0
0
0
0
0
0
0
0
0
0
0
0
0
0
0
0
0
0
0
0
0
0
0
0
0
0
0
0
0
0
0
0
0
0
0
0
0
0
0
0
0
0
0
0
0
0
0
0
0
0
0
0
0
0
0
0
0
0
0
0
0
0
0
0
0
0
0
0
0
0
0
0
0
0
)
;

boundaryField
{
    inlet
    {
        type            calculated;
        value           uniform 0;
    }
    outlet
    {
        type            calculated;
        value           uniform 0;
    }
    sideWall
    {
        type            empty;
    }
}


// ************************************************************************* //
