/*--------------------------------*- C++ -*----------------------------------*\
| =========                 |                                                 |
| \\      /  F ield         | foam-extend: Open Source CFD                    |
|  \\    /   O peration     | Version:     3.2                                |
|   \\  /    A nd           | Web:         http://www.foam-extend.org         |
|    \\/     M anipulation  | For copyright notice see file Copyright         |
\*---------------------------------------------------------------------------*/
FoamFile
{
    version     2.0;
    format      ascii;
    class       volScalarField;
    location    "50";
    object      k;
}
// * * * * * * * * * * * * * * * * * * * * * * * * * * * * * * * * * * * * * //

dimensions      [0 2 -2 0 0 0 0];

internalField   nonuniform List<scalar> 
5400
(
0.0191515
0.0121226
0.00894764
0.00902527
0.00869729
0.00873791
0.00859964
0.00860211
0.00854928
0.00857243
0.00857361
0.00860993
0.00863978
0.00869178
0.00873698
0.00879972
0.00885892
0.00892711
0.00899333
0.0090679
0.00914452
0.00922327
0.00930352
0.00938462
0.00946647
0.00954469
0.00961365
0.00967222
0.0097217
0.00976302
0.00979782
0.00982665
0.00985096
0.00987094
0.00988792
0.00990173
0.00991368
0.00992323
0.00993179
0.00993837
0.00994467
0.00994916
0.00995406
0.00995706
0.00996078
0.00996258
0.00996572
0.00996651
0.00996995
0.00996881
0.00997424
0.00996863
0.00997957
0.00996442
0.00999003
0.00995119
0.0100142
0.00992
0.0101014
0.00974375
0.00887272
0.00882145
0.00884074
0.00883021
0.00883493
0.00883559
0.0088337
0.00883677
0.00883204
0.00884563
0.00883886
0.00883767
0.00882881
0.00883683
0.00882619
0.00884042
0.00883345
0.00883917
0.00882571
0.00883463
0.00883001
0.00883939
0.00883368
0.00883899
0.00883441
0.00883855
0.00883268
0.00883711
0.00883318
0.00883704
0.00883189
0.00883616
0.00883279
0.00883644
0.00883173
0.00883583
0.00883279
0.00883633
0.00883185
0.00883585
0.00883296
0.00883645
0.00883205
0.00883601
0.0088332
0.00883667
0.00883231
0.00883625
0.00883345
0.00883691
0.00883256
0.00883649
0.00883369
0.00883714
0.00883279
0.00883671
0.00883392
0.00883736
0.00883301
0.00883694
0.00883415
0.0088376
0.00883325
0.00883718
0.00883439
0.00883784
0.0088335
0.00883742
0.00883464
0.0088381
0.00883376
0.0088377
0.00883491
0.00883839
0.00883405
0.008838
0.00883521
0.00883869
0.0088343
0.00883839
0.00883544
0.00883907
0.00883463
0.0088385
0.00883573
0.00883913
0.0088347
0.00882979
0.00882594
0.00882386
0.00882277
0.00882203
0.00882173
0.00882149
0.00882133
0.00882103
0.00882083
0.0088206
0.0088204
0.00882026
0.00882023
0.00882015
0.00882014
0.00882002
0.00881993
0.00881988
0.00882
0.00882005
0.00882017
0.00882018
0.00882033
0.00882038
0.00882045
0.00882051
0.00882061
0.00882064
0.00882076
0.0088208
0.0088209
0.00882093
0.00882106
0.00882111
0.00882121
0.00882124
0.00882136
0.00882141
0.00882154
0.00882159
0.00882173
0.00882179
0.00882193
0.00882198
0.00882212
0.00882216
0.00882227
0.00882234
0.00882248
0.00882254
0.00882264
0.00882269
0.00882283
0.0088229
0.00882305
0.0088231
0.00882323
0.00882329
0.00882344
0.0088235
0.00882366
0.00882373
0.00882384
0.0088239
0.00882401
0.00882408
0.0088242
0.00882426
0.0088244
0.00882449
0.0088246
0.00882466
0.00882477
0.00882485
0.00882494
0.008825
0.00882508
0.00882516
0.00882521
0.00882539
0.00882542
0.00882569
0.00882551
0.00882595
0.00882552
0.00882634
0.00882528
0.00882703
0.0088249
0.00882785
0.00882427
0.00882883
0.00882364
0.0088297
0.00882312
0.00883055
0.00882253
0.00883145
0.0088219
0.0088324
0.00882112
0.00883359
0.00882005
0.00883506
0.00881865
0.00883685
0.00881731
0.00883795
0.00881706
0.00883767
0.00881915
0.00883486
0.00882283
0.00883117
0.00882718
0.00882801
0.00882838
0.00882968
0.00882632
0.00883135
0.00882413
0.00883617
0.00881884
0.00884127
0.00881248
0.00884948
0.00881165
0.00885104
0.00881055
0.00885288
0.00880776
0.0088506
0.00880891
0.00884864
0.00881246
0.00884302
0.00881644
0.00883676
0.00882086
0.00882972
0.00882952
0.0088209
0.00883953
0.00881031
0.00885274
0.00878799
0.00886831
0.00861566
0.0108614
0.0105695
0.00973118
0.00999867
0.0072508
0.00881972
0.00850442
0.00862817
0.00845269
0.00846762
0.00839095
0.00840273
0.00838321
0.00841518
0.00843593
0.0084801
0.00852583
0.00857944
0.00863776
0.00870228
0.00876811
0.00883998
0.00891142
0.00898685
0.00906401
0.0091422
0.00922097
0.00929931
0.00937709
0.00944751
0.009508
0.00955864
0.00960109
0.0096363
0.00966582
0.00969016
0.00971064
0.00972742
0.00974167
0.00975326
0.00976327
0.0097713
0.00977846
0.00978403
0.00978928
0.00979312
0.00979714
0.0097998
0.00980286
0.00980457
0.00980696
0.00980811
0.00981021
0.00981072
0.00981275
0.00981195
0.00981521
0.00981181
0.00981866
0.00980912
0.00982543
0.00980384
0.00985797
0.00970099
0.00932337
0.0090653
0.0089456
0.00887029
0.00882633
0.00879738
0.0087762
0.00876162
0.00874997
0.00875644
0.00875028
0.00874759
0.00873437
0.00873626
0.00872652
0.00873294
0.0087259
0.00873106
0.00872265
0.00872765
0.00872248
0.00873102
0.00872628
0.0087335
0.0087274
0.00873375
0.00872801
0.00873381
0.00872757
0.00873344
0.00872795
0.00873358
0.00872763
0.0087334
0.00872817
0.00873364
0.00872789
0.00873352
0.00872836
0.00873379
0.00872811
0.00873372
0.00872859
0.00873403
0.00872836
0.00873397
0.00872885
0.00873429
0.00872861
0.00873423
0.0087291
0.00873454
0.00872886
0.00873448
0.00872935
0.00873478
0.00872911
0.00873472
0.0087296
0.00873503
0.00872936
0.00873498
0.00872986
0.0087353
0.00872963
0.00873524
0.00873013
0.00873557
0.0087299
0.00873553
0.00873041
0.00873586
0.0087302
0.00873583
0.00873071
0.00873616
0.00873051
0.00873614
0.00873101
0.0087365
0.0087308
0.00873647
0.00873137
0.00873679
0.00873119
0.00873678
0.00872921
0.00871823
0.00871636
0.00871561
0.0087152
0.00871491
0.00871482
0.00871474
0.00871474
0.00871467
0.00871462
0.00871452
0.00871447
0.00871438
0.00871435
0.00871429
0.00871425
0.00871418
0.00871425
0.00871438
0.00871444
0.00871451
0.00871464
0.00871469
0.00871476
0.00871479
0.00871487
0.00871491
0.00871498
0.00871503
0.00871513
0.00871518
0.00871528
0.00871533
0.00871543
0.00871549
0.00871559
0.00871565
0.00871576
0.00871583
0.00871594
0.008716
0.00871611
0.00871617
0.00871629
0.00871634
0.00871644
0.00871651
0.00871662
0.00871669
0.0087168
0.00871687
0.00871698
0.00871704
0.00871715
0.00871721
0.00871731
0.00871737
0.00871749
0.00871756
0.00871767
0.00871773
0.00871784
0.00871791
0.00871801
0.00871808
0.00871817
0.00871825
0.00871835
0.00871842
0.00871851
0.00871858
0.00871866
0.00871873
0.00871881
0.00871888
0.00871896
0.00871904
0.0087191
0.00871918
0.00871927
0.00871941
0.00871947
0.00871954
0.00871954
0.00871967
0.00871962
0.00871983
0.00871969
0.00872002
0.00871974
0.00872022
0.00871976
0.00872043
0.00871978
0.00872067
0.00871974
0.00872095
0.00871966
0.00872126
0.00871955
0.00872159
0.00871941
0.00872194
0.00871923
0.00872233
0.00871897
0.00872284
0.00871861
0.0087234
0.00871817
0.00872405
0.00871806
0.0087241
0.00871889
0.00872282
0.00872065
0.00872205
0.00872093
0.00872285
0.00872011
0.00872362
0.00871972
0.00872432
0.00871966
0.0087244
0.00871909
0.00872649
0.00871952
0.0087282
0.00871935
0.00872941
0.00871769
0.00872917
0.00871622
0.00872954
0.00871613
0.0087287
0.00871615
0.00872579
0.00871757
0.00872257
0.00871992
0.00872052
0.0087224
0.0087179
0.00872587
0.00871132
0.0087268
0.00876073
0.00944838
0.00973844
0.00970508
0.00975203
0.00341228
0.0055893
0.00667997
0.00720639
0.00729272
0.00743527
0.00745112
0.00751889
0.00754818
0.00761072
0.00765425
0.00771732
0.0077774
0.00784083
0.00790932
0.00797716
0.00804759
0.00812122
0.00819452
0.00826905
0.00834381
0.00841828
0.00849199
0.008564
0.00863323
0.00869169
0.0087393
0.0087777
0.00880899
0.00883433
0.00885515
0.008872
0.00888598
0.00889728
0.00890678
0.00891444
0.00892103
0.00892631
0.00893098
0.00893466
0.00893809
0.00894066
0.00894326
0.00894509
0.00894708
0.00894828
0.00894984
0.00895076
0.008952
0.00895271
0.00895346
0.00895389
0.00895467
0.00895469
0.00895577
0.00895496
0.00895696
0.00895604
0.00895689
0.00887494
0.00875803
0.00852763
0.00836859
0.00826219
0.00818755
0.00813683
0.00809887
0.00807015
0.00804904
0.00804295
0.00803346
0.00802664
0.00801384
0.0080095
0.00800087
0.00800031
0.00799453
0.00799673
0.00799152
0.00799265
0.00798978
0.00799427
0.0079926
0.00799748
0.00799383
0.00799821
0.00799525
0.00799895
0.00799513
0.0079989
0.00799596
0.00799939
0.00799571
0.00799937
0.00799638
0.00799974
0.007996
0.00799962
0.00799665
0.00800002
0.00799626
0.00799988
0.0079969
0.00800029
0.0079965
0.00800013
0.00799713
0.00800053
0.00799673
0.00800037
0.00799736
0.00800076
0.00799695
0.0080006
0.00799759
0.00800098
0.00799718
0.00800083
0.00799782
0.00800122
0.00799741
0.00800107
0.00799806
0.00800147
0.00799766
0.00800131
0.00799831
0.00800172
0.00799792
0.00800158
0.00799858
0.00800198
0.0079982
0.00800186
0.00799885
0.00800226
0.00799848
0.00800212
0.00799915
0.00800253
0.00799878
0.00800242
0.00799946
0.0080029
0.00799913
0.00800269
0.00799777
0.0079882
0.00798563
0.00798474
0.0079844
0.00798424
0.00798419
0.0079842
0.00798428
0.00798436
0.00798442
0.00798444
0.00798448
0.00798449
0.00798457
0.00798452
0.00798451
0.00798458
0.00798472
0.00798488
0.00798493
0.00798499
0.00798506
0.00798508
0.00798511
0.00798511
0.00798519
0.00798526
0.00798534
0.0079854
0.00798546
0.00798552
0.0079856
0.00798567
0.00798575
0.00798582
0.00798591
0.00798598
0.00798608
0.00798616
0.00798624
0.00798631
0.00798638
0.00798644
0.00798653
0.00798659
0.00798665
0.00798669
0.00798679
0.00798688
0.00798698
0.00798705
0.00798715
0.00798721
0.0079873
0.00798735
0.00798741
0.00798748
0.00798756
0.00798764
0.00798772
0.00798778
0.00798785
0.00798791
0.007988
0.00798807
0.00798816
0.00798824
0.00798832
0.00798839
0.00798845
0.00798849
0.00798853
0.00798861
0.00798867
0.00798874
0.00798879
0.00798885
0.0079889
0.00798897
0.00798903
0.00798915
0.00798923
0.00798926
0.00798929
0.00798933
0.00798937
0.00798942
0.00798949
0.00798948
0.00798965
0.00798947
0.0079899
0.00798936
0.00799023
0.00798924
0.00799045
0.00798921
0.00799066
0.00798917
0.00799086
0.00798913
0.00799108
0.00798903
0.00799134
0.00798888
0.00799166
0.00798869
0.00799193
0.00798867
0.00799191
0.00798911
0.0079912
0.0079904
0.00799044
0.00799069
0.00799063
0.00799107
0.00799069
0.00799106
0.00799069
0.00799129
0.00799128
0.00799012
0.00799292
0.00798906
0.00799431
0.00798857
0.00799537
0.00798925
0.00799605
0.00798941
0.00799597
0.00798938
0.00799466
0.00799027
0.00799292
0.00799169
0.00799099
0.00799112
0.00799038
0.00799072
0.00798943
0.00799082
0.00798967
0.00799056
0.00799018
0.00798954
0.00799085
0.00815441
0.00815132
0.00851952
0.00873904
0.0087989
0.00185336
0.00325216
0.00471361
0.005591
0.00607556
0.00640125
0.00656112
0.00670259
0.00679213
0.00689149
0.00696616
0.00705204
0.00712892
0.00720852
0.00728841
0.00736347
0.00744094
0.00751869
0.00759559
0.00767155
0.00774606
0.00781888
0.0078894
0.00795666
0.00801826
0.00806602
0.00810203
0.00812918
0.00815002
0.00816593
0.00817831
0.00818779
0.0081953
0.00820106
0.00820576
0.00820939
0.00821247
0.00821488
0.008217
0.00821868
0.00822023
0.00822142
0.00822261
0.00822351
0.00822442
0.00822503
0.00822578
0.00822629
0.00822685
0.00822735
0.00822751
0.00822812
0.008228
0.00822892
0.00822811
0.00822988
0.00822729
0.0082316
0.00820812
0.00816634
0.00817719
0.00801493
0.00785804
0.00774022
0.00764811
0.00758205
0.00753071
0.00749041
0.00746003
0.00744333
0.00742873
0.00741781
0.00740421
0.00739555
0.00738621
0.00738115
0.0073753
0.00737505
0.00737096
0.00737008
0.00736791
0.00736983
0.0073695
0.00737286
0.00737083
0.00737389
0.00737241
0.00737491
0.00737279
0.00737531
0.00737372
0.00737594
0.00737379
0.0073762
0.00737432
0.00737655
0.00737414
0.0073766
0.00737469
0.00737694
0.00737446
0.00737691
0.00737496
0.00737724
0.00737469
0.00737716
0.00737517
0.00737745
0.0073749
0.00737738
0.00737538
0.00737767
0.0073751
0.00737759
0.00737558
0.00737787
0.00737532
0.00737779
0.0073758
0.00737809
0.00737552
0.00737801
0.00737601
0.00737831
0.00737575
0.00737824
0.00737624
0.00737855
0.00737599
0.00737848
0.00737649
0.00737879
0.00737625
0.00737874
0.00737673
0.00737904
0.0073765
0.00737897
0.00737702
0.00737926
0.00737678
0.00737923
0.00737728
0.00737966
0.00737709
0.00737943
0.00737635
0.00736854
0.00736511
0.00736369
0.00736313
0.00736287
0.00736278
0.00736283
0.00736295
0.0073631
0.00736324
0.00736335
0.00736347
0.00736356
0.00736371
0.00736373
0.00736378
0.00736396
0.00736416
0.00736431
0.00736436
0.00736441
0.00736439
0.0073644
0.00736442
0.00736444
0.0073645
0.00736457
0.00736465
0.00736472
0.00736476
0.00736483
0.00736491
0.00736498
0.00736505
0.00736513
0.0073652
0.00736528
0.00736537
0.00736544
0.00736551
0.00736557
0.00736562
0.00736569
0.00736575
0.00736581
0.00736586
0.0073659
0.00736598
0.00736608
0.00736616
0.00736623
0.00736631
0.00736637
0.00736644
0.00736648
0.00736653
0.00736659
0.00736667
0.00736673
0.00736679
0.00736686
0.00736691
0.00736696
0.00736704
0.00736711
0.00736718
0.00736725
0.00736732
0.00736739
0.00736743
0.00736747
0.00736751
0.00736758
0.00736762
0.00736767
0.00736771
0.00736776
0.00736778
0.00736783
0.00736787
0.00736796
0.00736804
0.00736807
0.00736811
0.00736813
0.00736819
0.0073682
0.0073683
0.00736824
0.00736845
0.00736822
0.00736868
0.0073681
0.00736899
0.00736795
0.00736925
0.00736781
0.00736955
0.00736764
0.00736984
0.00736747
0.00737016
0.00736725
0.00737052
0.00736697
0.00737097
0.00736657
0.00737148
0.00736621
0.00737187
0.00736613
0.00737146
0.00736735
0.0073703
0.00736852
0.0073695
0.00736939
0.00736958
0.00736884
0.00737014
0.00736874
0.00737104
0.00736736
0.00737238
0.00736687
0.00737379
0.00736582
0.00737492
0.00736556
0.00737601
0.00736506
0.00737703
0.00736474
0.00737678
0.00736515
0.00737517
0.00736665
0.00737286
0.00736745
0.00737094
0.00736885
0.00736856
0.00736932
0.0073681
0.00736976
0.0073677
0.00737102
0.00737141
0.00753646
0.00731476
0.00761364
0.00786818
0.00797097
0.00116958
0.00192191
0.00304063
0.00396867
0.00477123
0.00530576
0.00564443
0.00589419
0.00606567
0.00621645
0.00633108
0.00644397
0.0065406
0.00663868
0.0067315
0.00681719
0.00690352
0.00698704
0.00706874
0.00714749
0.00722315
0.00729558
0.00736389
0.00742692
0.0074808
0.00751846
0.00754392
0.00756093
0.00757227
0.00757953
0.00758411
0.0075867
0.00758812
0.00758865
0.00758878
0.00758855
0.00758827
0.00758789
0.00758757
0.00758727
0.00758703
0.00758685
0.00758672
0.00758665
0.00758656
0.00758655
0.00758654
0.00758661
0.00758657
0.00758674
0.00758653
0.007587
0.00758649
0.00758751
0.00758611
0.00758844
0.00758449
0.00758939
0.00755453
0.00753691
0.00760671
0.00750995
0.00737544
0.00726059
0.00716178
0.00708696
0.00702605
0.00697732
0.0069392
0.00691418
0.0068944
0.00687963
0.00686412
0.00685236
0.00684171
0.00683378
0.00682694
0.0068247
0.00682078
0.00681883
0.00681631
0.00681671
0.00681675
0.00681911
0.00681789
0.00682018
0.00681937
0.00682133
0.00682004
0.006822
0.00682105
0.00682277
0.00682134
0.00682319
0.00682191
0.0068236
0.00682189
0.00682374
0.0068224
0.00682408
0.00682229
0.0068241
0.00682271
0.00682439
0.00682253
0.00682434
0.00682292
0.00682459
0.00682274
0.00682455
0.00682311
0.00682479
0.00682292
0.00682474
0.00682329
0.00682497
0.00682311
0.00682492
0.00682349
0.00682517
0.0068233
0.00682512
0.00682368
0.00682537
0.0068235
0.00682533
0.00682389
0.00682559
0.00682373
0.00682555
0.00682412
0.00682581
0.00682395
0.00682578
0.00682434
0.00682603
0.00682418
0.006826
0.00682459
0.00682623
0.00682442
0.00682621
0.00682482
0.00682657
0.00682474
0.0068264
0.00682442
0.00681812
0.0068143
0.0068124
0.00681152
0.00681106
0.00681086
0.00681087
0.00681099
0.00681117
0.00681134
0.00681151
0.00681169
0.00681184
0.00681201
0.0068121
0.00681219
0.00681248
0.00681273
0.00681284
0.00681292
0.00681296
0.00681289
0.0068129
0.0068129
0.00681294
0.006813
0.00681307
0.00681314
0.00681321
0.00681326
0.00681333
0.0068134
0.00681347
0.00681354
0.00681361
0.00681368
0.00681375
0.00681383
0.0068139
0.00681395
0.00681401
0.00681406
0.00681412
0.00681417
0.00681423
0.00681427
0.00681431
0.00681439
0.00681447
0.00681454
0.0068146
0.00681467
0.00681473
0.00681478
0.00681482
0.00681486
0.00681492
0.00681498
0.00681504
0.00681508
0.00681514
0.00681519
0.00681524
0.00681531
0.00681537
0.00681543
0.00681549
0.00681554
0.0068156
0.00681564
0.00681568
0.00681571
0.00681577
0.0068158
0.00681585
0.00681587
0.00681591
0.00681592
0.00681596
0.00681598
0.00681604
0.00681609
0.00681613
0.00681618
0.0068162
0.00681627
0.00681626
0.00681637
0.0068163
0.0068165
0.00681629
0.00681667
0.00681621
0.00681691
0.00681611
0.00681712
0.00681599
0.00681738
0.00681583
0.00681764
0.00681566
0.00681793
0.00681545
0.00681825
0.0068152
0.00681865
0.00681482
0.00681914
0.00681442
0.00681964
0.00681413
0.00681955
0.0068148
0.00681866
0.00681625
0.00681741
0.00681714
0.00681756
0.00681643
0.00681844
0.00681612
0.00681921
0.00681529
0.00681987
0.00681521
0.00682104
0.0068143
0.00682192
0.0068137
0.00682293
0.00681301
0.00682418
0.00681276
0.00682464
0.00681271
0.00682376
0.00681337
0.006822
0.00681462
0.00681949
0.00681684
0.006817
0.00681711
0.00681625
0.00681768
0.0068156
0.00681988
0.00682157
0.00695409
0.00668523
0.00688881
0.00711863
0.00724246
0.000887695
0.00124475
0.00188865
0.00264164
0.00346987
0.00412808
0.0046548
0.00503786
0.00531302
0.00553366
0.00570241
0.00585283
0.0059785
0.00609842
0.00620721
0.00630721
0.00640373
0.00649421
0.00658176
0.00666421
0.00674205
0.00681488
0.00688139
0.00693986
0.00698517
0.00701332
0.00702956
0.00703784
0.00704101
0.00704077
0.00703854
0.00703508
0.00703115
0.00702702
0.00702308
0.00701939
0.00701611
0.00701322
0.00701069
0.0070086
0.00700675
0.00700531
0.00700399
0.00700302
0.00700206
0.00700146
0.00700077
0.00700041
0.00699985
0.00699969
0.00699922
0.00699945
0.00699876
0.0069996
0.00699809
0.00700025
0.00699619
0.00700017
0.00696085
0.00695969
0.00705167
0.00700636
0.00690164
0.00679891
0.00670166
0.00662406
0.00655711
0.00650339
0.00645933
0.00642787
0.00640338
0.00638506
0.00636715
0.00635298
0.00634087
0.00633091
0.00632275
0.00631882
0.00631456
0.00631178
0.0063087
0.00630804
0.00630785
0.00630938
0.00630864
0.00631036
0.00630988
0.00631146
0.00631066
0.00631227
0.00631171
0.00631309
0.00631214
0.00631363
0.00631278
0.00631408
0.00631289
0.00631432
0.00631339
0.00631465
0.00631336
0.00631473
0.00631374
0.00631497
0.00631364
0.00631497
0.00631396
0.00631517
0.00631384
0.00631516
0.00631414
0.00631534
0.00631401
0.00631533
0.00631431
0.00631551
0.00631417
0.0063155
0.00631448
0.00631568
0.00631435
0.00631567
0.00631466
0.00631586
0.00631453
0.00631586
0.00631486
0.00631606
0.00631474
0.00631607
0.00631506
0.00631627
0.00631493
0.00631626
0.00631526
0.00631646
0.00631514
0.00631648
0.00631546
0.00631665
0.00631533
0.00631665
0.00631567
0.00631692
0.00631568
0.00631687
0.0063156
0.00631066
0.0063068
0.00630455
0.00630334
0.00630267
0.00630231
0.00630221
0.00630228
0.00630244
0.00630262
0.00630281
0.00630302
0.00630321
0.0063034
0.00630353
0.00630366
0.00630399
0.00630425
0.00630435
0.00630445
0.00630449
0.00630443
0.00630444
0.00630444
0.00630449
0.00630455
0.00630462
0.00630468
0.00630475
0.0063048
0.00630487
0.00630494
0.00630501
0.00630507
0.00630514
0.0063052
0.00630527
0.00630533
0.00630539
0.00630545
0.0063055
0.00630554
0.0063056
0.00630564
0.00630569
0.00630573
0.00630578
0.00630584
0.00630591
0.00630597
0.00630603
0.00630608
0.00630614
0.00630617
0.00630622
0.00630625
0.00630631
0.00630635
0.0063064
0.00630644
0.0063065
0.00630654
0.00630659
0.00630664
0.0063067
0.00630674
0.0063068
0.00630684
0.00630689
0.00630692
0.00630696
0.00630699
0.00630704
0.00630706
0.0063071
0.00630711
0.00630715
0.00630716
0.00630718
0.00630719
0.00630721
0.00630725
0.00630729
0.00630735
0.00630737
0.00630744
0.00630743
0.00630753
0.00630746
0.00630763
0.00630747
0.00630777
0.00630742
0.00630794
0.00630737
0.00630811
0.00630728
0.0063083
0.00630717
0.00630851
0.00630704
0.00630873
0.00630688
0.00630898
0.00630669
0.00630929
0.0063064
0.00630968
0.00630606
0.00631015
0.00630573
0.00631025
0.00630602
0.00630963
0.00630739
0.00630841
0.00630805
0.00630857
0.00630744
0.00630956
0.00630702
0.00631009
0.00630673
0.0063103
0.00630683
0.00631118
0.00630617
0.00631181
0.00630558
0.00631259
0.00630488
0.00631372
0.00630477
0.00631458
0.00630454
0.00631413
0.00630462
0.00631294
0.00630589
0.0063105
0.00630805
0.00630853
0.00630806
0.00630764
0.00630855
0.00630697
0.00631107
0.00631407
0.00640796
0.00615071
0.00627696
0.00646403
0.00658884
0.000775577
0.000912412
0.00122025
0.00171707
0.00238997
0.00301778
0.00362332
0.00410893
0.00450148
0.00480909
0.00504764
0.00524831
0.00541328
0.00556187
0.00569243
0.00581125
0.0059213
0.00602216
0.00611755
0.00620535
0.00628616
0.0063598
0.0064243
0.00647715
0.00651253
0.00653239
0.00654123
0.00654266
0.00653941
0.00653326
0.00652563
0.00651735
0.00650914
0.00650128
0.00649409
0.0064876
0.00648189
0.00647695
0.00647265
0.00646909
0.00646594
0.00646345
0.00646118
0.00645946
0.00645779
0.00645669
0.00645548
0.00645474
0.00645379
0.00645334
0.00645268
0.00645267
0.0064519
0.00645249
0.00645106
0.00645283
0.00644912
0.00645189
0.00641323
0.00642218
0.00651793
0.00650829
0.00643296
0.00634691
0.00625691
0.00618123
0.00611195
0.0060561
0.00600801
0.00597209
0.00594368
0.00592224
0.00590195
0.00588585
0.00587231
0.00586078
0.00585134
0.00584589
0.00584105
0.00583751
0.00583381
0.00583235
0.0058316
0.0058324
0.00583188
0.0058331
0.00583281
0.00583403
0.00583353
0.00583486
0.00583455
0.00583567
0.00583505
0.00583626
0.00583575
0.00583676
0.00583595
0.00583706
0.00583646
0.00583739
0.00583649
0.00583752
0.00583685
0.00583772
0.00583679
0.00583776
0.00583708
0.00583793
0.00583698
0.00583794
0.00583725
0.00583808
0.00583714
0.00583809
0.0058374
0.00583824
0.00583729
0.00583824
0.00583755
0.00583839
0.00583745
0.0058384
0.00583771
0.00583855
0.00583761
0.00583857
0.0058379
0.00583873
0.0058378
0.00583876
0.00583808
0.00583892
0.00583797
0.00583893
0.00583825
0.0058391
0.00583816
0.00583914
0.00583842
0.00583927
0.00583831
0.00583927
0.00583862
0.00583948
0.00583868
0.00583954
0.00583873
0.00583497
0.00583135
0.00582892
0.00582745
0.00582656
0.00582603
0.00582579
0.00582576
0.00582587
0.00582603
0.00582622
0.00582642
0.00582663
0.00582682
0.005827
0.00582715
0.00582745
0.0058277
0.00582781
0.00582793
0.00582798
0.00582794
0.00582796
0.00582798
0.00582803
0.00582809
0.00582815
0.00582821
0.00582828
0.00582833
0.00582839
0.00582845
0.00582852
0.00582858
0.00582864
0.0058287
0.00582876
0.00582881
0.00582887
0.00582892
0.00582897
0.00582901
0.00582906
0.0058291
0.00582915
0.00582918
0.00582923
0.00582928
0.00582935
0.00582939
0.00582944
0.00582948
0.00582953
0.00582957
0.00582961
0.00582964
0.00582968
0.00582972
0.00582976
0.0058298
0.00582985
0.00582988
0.00582993
0.00582998
0.00583003
0.00583006
0.00583011
0.00583014
0.00583019
0.00583021
0.00583025
0.00583028
0.00583032
0.00583033
0.00583036
0.00583037
0.0058304
0.0058304
0.00583042
0.00583042
0.00583042
0.00583045
0.00583048
0.00583054
0.00583057
0.00583063
0.00583063
0.00583071
0.00583066
0.0058308
0.00583067
0.00583091
0.00583065
0.00583104
0.00583062
0.00583116
0.00583056
0.0058313
0.00583049
0.00583146
0.0058304
0.00583163
0.0058303
0.00583181
0.00583016
0.00583204
0.00582996
0.00583233
0.00582971
0.00583272
0.00582942
0.00583287
0.00582954
0.00583242
0.00583064
0.00583151
0.00583105
0.00583162
0.00583062
0.00583249
0.00583024
0.00583288
0.00583022
0.00583285
0.00583037
0.00583353
0.0058299
0.00583398
0.00582946
0.00583452
0.00582887
0.00583542
0.00582887
0.00583635
0.00582866
0.00583613
0.0058285
0.00583532
0.00582965
0.00583339
0.00583122
0.00583199
0.0058311
0.00583108
0.00583147
0.00583046
0.00583398
0.00583773
0.00589722
0.00566916
0.0057417
0.00588511
0.00599893
0.000732422
0.000780691
0.000901504
0.00116343
0.00160325
0.00212519
0.00268151
0.00318214
0.00364152
0.00402481
0.00434391
0.00460678
0.00482219
0.00500893
0.00516927
0.0053115
0.00543936
0.00555486
0.00566059
0.0057557
0.00584067
0.00591521
0.00597682
0.00602315
0.00605162
0.0060658
0.00606977
0.00606671
0.00605922
0.00604916
0.00603795
0.00602646
0.00601539
0.00600503
0.00599564
0.00598728
0.00597993
0.0059736
0.0059681
0.00596353
0.0059595
0.0059563
0.00595338
0.00595113
0.005949
0.00594754
0.00594598
0.00594497
0.00594379
0.00594312
0.00594235
0.00594216
0.00594138
0.00594174
0.00594047
0.00594183
0.00593862
0.00594033
0.005906
0.00591975
0.00600968
0.00602253
0.00597253
0.00590431
0.00582492
0.00575434
0.00568633
0.00563057
0.00558036
0.00554182
0.0055104
0.00548653
0.00546422
0.00544654
0.0054317
0.00541895
0.00540839
0.00540158
0.00539604
0.00539178
0.00538749
0.00538529
0.0053839
0.00538403
0.00538353
0.00538427
0.00538409
0.00538498
0.00538465
0.00538568
0.00538554
0.00538645
0.00538606
0.00538703
0.00538676
0.00538756
0.00538704
0.00538789
0.00538753
0.00538824
0.00538762
0.00538839
0.00538796
0.00538859
0.00538794
0.00538864
0.0053882
0.0053888
0.00538813
0.00538881
0.00538836
0.00538895
0.00538828
0.00538895
0.0053885
0.00538909
0.00538841
0.00538909
0.00538863
0.00538922
0.00538855
0.00538923
0.00538878
0.00538936
0.0053887
0.00538939
0.00538894
0.00538953
0.00538887
0.00538955
0.00538911
0.00538971
0.00538903
0.00538971
0.00538926
0.00538986
0.00538919
0.0053899
0.00538941
0.00539002
0.00538933
0.00539001
0.0053896
0.00539019
0.00538968
0.00539032
0.00538981
0.00538703
0.00538381
0.00538137
0.00537972
0.00537865
0.00537795
0.00537757
0.00537743
0.00537745
0.00537756
0.00537773
0.0053779
0.00537809
0.00537828
0.00537849
0.00537865
0.0053789
0.00537914
0.00537927
0.00537938
0.00537944
0.00537944
0.00537946
0.00537949
0.00537955
0.0053796
0.00537966
0.00537972
0.00537978
0.00537983
0.00537989
0.00537994
0.00538
0.00538006
0.00538012
0.00538017
0.00538022
0.00538026
0.00538032
0.00538037
0.00538041
0.00538044
0.00538049
0.00538053
0.00538057
0.0053806
0.00538064
0.00538069
0.00538075
0.00538079
0.00538083
0.00538086
0.00538091
0.00538094
0.00538097
0.005381
0.00538104
0.00538107
0.00538111
0.00538114
0.00538118
0.00538122
0.00538126
0.00538129
0.00538134
0.00538137
0.0053814
0.00538143
0.00538147
0.00538149
0.00538153
0.00538155
0.00538158
0.00538159
0.00538162
0.00538162
0.00538164
0.00538164
0.00538166
0.00538165
0.00538164
0.00538165
0.00538168
0.00538174
0.00538177
0.00538182
0.00538183
0.0053819
0.00538186
0.00538197
0.00538187
0.00538206
0.00538186
0.00538216
0.00538185
0.00538226
0.00538182
0.00538237
0.00538177
0.00538249
0.00538172
0.00538261
0.00538164
0.00538275
0.00538155
0.00538292
0.00538141
0.00538314
0.00538123
0.00538343
0.00538103
0.00538357
0.00538108
0.00538324
0.00538187
0.00538265
0.00538212
0.00538271
0.00538186
0.00538336
0.00538161
0.00538369
0.00538165
0.00538358
0.00538179
0.00538411
0.00538145
0.00538445
0.00538114
0.00538481
0.00538071
0.00538549
0.00538078
0.00538631
0.00538066
0.0053862
0.00538046
0.00538565
0.00538137
0.00538431
0.00538235
0.00538335
0.00538221
0.00538248
0.00538246
0.00538194
0.00538481
0.00538871
0.00542314
0.0052261
0.00526375
0.00536928
0.00546651
0.000717379
0.000733038
0.000774209
0.000887265
0.00111802
0.00147907
0.00192822
0.00238264
0.00282585
0.00322968
0.00359856
0.00391637
0.00418919
0.00442249
0.00462095
0.004793
0.00494387
0.00507812
0.00519725
0.00530208
0.00539238
0.00546793
0.00552667
0.00556865
0.00559619
0.00560856
0.00561078
0.00560604
0.00559692
0.0055853
0.00557266
0.00555988
0.00554764
0.00553627
0.00552598
0.00551683
0.0055088
0.00550188
0.00549587
0.00549087
0.00548647
0.00548295
0.00547975
0.00547727
0.00547494
0.0054733
0.00547164
0.00547049
0.00546925
0.00546847
0.00546768
0.00546738
0.00546665
0.00546686
0.00546578
0.0054668
0.00546413
0.00546505
0.00543668
0.00545207
0.00553133
0.00555642
0.0055262
0.00547466
0.0054073
0.0053438
0.00527974
0.00522585
0.00517546
0.00513586
0.0051024
0.00507684
0.00505313
0.00503418
0.00501822
0.0050045
0.00499304
0.00498507
0.0049788
0.00497382
0.00496901
0.00496613
0.00496411
0.00496358
0.00496297
0.00496326
0.00496309
0.00496365
0.00496342
0.00496418
0.00496414
0.00496483
0.00496461
0.00496537
0.00496526
0.00496589
0.00496558
0.00496625
0.00496606
0.0049666
0.0049662
0.00496677
0.00496652
0.00496697
0.00496652
0.00496704
0.00496676
0.00496718
0.00496672
0.00496721
0.00496691
0.00496733
0.00496686
0.00496734
0.00496704
0.00496745
0.00496698
0.00496746
0.00496717
0.00496757
0.00496711
0.00496759
0.0049673
0.0049677
0.00496724
0.00496773
0.00496745
0.00496786
0.0049674
0.00496789
0.0049676
0.00496802
0.00496754
0.00496803
0.00496773
0.00496816
0.00496769
0.00496821
0.00496788
0.0049683
0.00496781
0.00496831
0.00496805
0.00496846
0.00496814
0.00496862
0.00496832
0.0049663
0.00496356
0.00496124
0.00495952
0.00495832
0.00495749
0.00495697
0.0049567
0.00495662
0.00495666
0.00495678
0.00495691
0.00495707
0.00495723
0.00495743
0.0049576
0.00495781
0.00495802
0.00495815
0.00495825
0.00495833
0.00495835
0.00495839
0.00495842
0.00495848
0.00495853
0.00495859
0.00495864
0.0049587
0.00495874
0.0049588
0.00495884
0.0049589
0.00495895
0.00495901
0.00495905
0.0049591
0.00495913
0.00495918
0.00495922
0.00495927
0.0049593
0.00495934
0.00495937
0.00495941
0.00495944
0.00495948
0.00495951
0.00495956
0.0049596
0.00495964
0.00495967
0.00495971
0.00495973
0.00495977
0.00495979
0.00495982
0.00495984
0.00495988
0.00495991
0.00495995
0.00495998
0.00496001
0.00496004
0.00496007
0.0049601
0.00496013
0.00496015
0.00496019
0.00496021
0.00496023
0.00496025
0.00496028
0.00496029
0.00496031
0.00496031
0.00496032
0.00496032
0.00496033
0.00496033
0.00496031
0.00496032
0.00496034
0.00496039
0.00496041
0.00496046
0.00496047
0.00496053
0.0049605
0.0049606
0.00496052
0.00496067
0.00496052
0.00496075
0.00496051
0.00496083
0.00496049
0.00496092
0.00496047
0.00496101
0.00496043
0.00496111
0.00496039
0.00496122
0.00496032
0.00496135
0.00496023
0.00496151
0.0049601
0.00496173
0.00495997
0.00496184
0.00495999
0.00496162
0.00496052
0.00496126
0.00496069
0.00496127
0.00496055
0.00496173
0.00496043
0.004962
0.00496047
0.00496189
0.00496057
0.00496231
0.00496032
0.00496258
0.00496011