/*--------------------------------*- C++ -*----------------------------------*\
| =========                 |                                                 |
| \\      /  F ield         | foam-extend: Open Source CFD                    |
|  \\    /   O peration     | Version:     3.2                                |
|   \\  /    A nd           | Web:         http://www.foam-extend.org         |
|    \\/     M anipulation  | For copyright notice see file Copyright         |
\*---------------------------------------------------------------------------*/
FoamFile
{
    version     2.0;
    format      ascii;
    class       volScalarField;
    location    "50";
    object      Ktemp;
}
// * * * * * * * * * * * * * * * * * * * * * * * * * * * * * * * * * * * * * //

dimensions      [0 2 -2 0 0 0 0];

internalField   nonuniform List<scalar> 
5400
(
0.0191515
0.0121226
0.00894764
0.00902527
0.00869729
0.00873791
0.00859964
0.00860211
0.00854928
0.00857243
0.00857361
0.00860993
0.00863978
0.00869178
0.00873698
0.00879972
0.00885892
0.00892711
0.00899333
0.0090679
0.00914452
0.00922327
0.00930352
0.00938462
0.00946647
0.00954469
0.00961365
0.00967222
0.0097217
0.00976302
0.00979782
0.00982665
0.00985096
0.00987094
0.00988792
0.00990173
0.00991368
0.00992323
0.00993179
0.00993837
0.00994467
0.00994916
0.00995406
0.00995706
0.00996078
0.00996258
0.00996572
0.00996651
0.00996995
0.00996881
0.00997424
0.00996863
0.00997957
0.00996442
0.00999003
0.00995119
0.0100142
0.00992001
0.0101014
0.00974355
0.00887206
0.00882031
0.00883951
0.00882889
0.00883358
0.00883421
0.00883229
0.00883536
0.00883059
0.00884502
0.00883976
0.00883821
0.00882778
0.0088363
0.00882724
0.00884098
0.00883245
0.00883862
0.00882673
0.00883518
0.00882903
0.00883888
0.00883471
0.00883954
0.00883342
0.00883803
0.00883371
0.00883767
0.00883218
0.00883652
0.00883292
0.00883671
0.00883179
0.00883592
0.00883276
0.00883638
0.00883179
0.00883582
0.00883289
0.0088364
0.00883196
0.00883594
0.00883308
0.00883656
0.00883221
0.00883616
0.00883334
0.0088368
0.00883246
0.0088364
0.00883359
0.00883704
0.00883269
0.00883662
0.00883382
0.00883727
0.00883292
0.00883685
0.00883404
0.00883749
0.00883316
0.00883708
0.00883429
0.00883773
0.0088334
0.00883733
0.00883453
0.00883798
0.00883365
0.00883759
0.0088348
0.00883826
0.00883392
0.00883788
0.00883508
0.00883855
0.00883422
0.00883818
0.00883534
0.00883895
0.00883445
0.00883856
0.00883567
0.00883906
0.00883474
0.00883861
0.00883582
0.00883138
0.00882739
0.0088253
0.00882421
0.00882347
0.00882317
0.00882294
0.00882277
0.00882247
0.00882227
0.00882204
0.00882185
0.00882171
0.00882167
0.00882159
0.00882157
0.00882145
0.00882136
0.00882132
0.00882144
0.00882148
0.00882161
0.00882163
0.00882177
0.00882181
0.00882189
0.00882195
0.00882205
0.00882208
0.0088222
0.00882223
0.00882233
0.00882237
0.00882249
0.00882255
0.00882264
0.00882268
0.00882279
0.00882284
0.00882297
0.00882303
0.00882317
0.00882322
0.00882336
0.00882341
0.00882356
0.00882359
0.0088237
0.00882378
0.00882391
0.00882397
0.00882408
0.00882413
0.00882426
0.00882434
0.00882448
0.00882453
0.00882466
0.00882473
0.00882487
0.00882493
0.00882509
0.00882517
0.00882527
0.00882533
0.00882544
0.00882551
0.00882563
0.00882569
0.00882584
0.00882592
0.00882603
0.00882609
0.0088262
0.00882628
0.00882639
0.00882645
0.00882652
0.0088266
0.00882665
0.00882682
0.00882686
0.00882712
0.00882695
0.00882739
0.00882696
0.00882778
0.00882673
0.00882847
0.00882634
0.00882929
0.00882572
0.00883027
0.00882508
0.00883115
0.00882457
0.00883199
0.00882397
0.00883289
0.00882335
0.00883384
0.00882257
0.00883503
0.00882149
0.00883649
0.00882009
0.00883829
0.00881876
0.00883939
0.00881849
0.00883912
0.00882058
0.00883631
0.00882426
0.00883261
0.00882862
0.00882944
0.00882982
0.0088311
0.00882777
0.00883278
0.00882558
0.00883759
0.00882028
0.0088427
0.00881393
0.00885091
0.00881309
0.00885247
0.008812
0.00885432
0.00880919
0.00885205
0.00881033
0.0088501
0.00881388
0.00884447
0.00881786
0.00883821
0.00882228
0.00883118
0.00883094
0.00882234
0.00884095
0.00881173
0.00885418
0.0087894
0.00886976
0.00861661
0.0108616
0.0105695
0.00973116
0.00999868
0.0072508
0.00881972
0.00850442
0.00862817
0.00845269
0.00846762
0.00839095
0.00840273
0.00838321
0.00841518
0.00843593
0.0084801
0.00852583
0.00857944
0.00863776
0.00870228
0.00876811
0.00883998
0.00891142
0.00898685
0.00906401
0.0091422
0.00922097
0.00929931
0.00937709
0.00944751
0.009508
0.00955864
0.00960109
0.0096363
0.00966582
0.00969016
0.00971064
0.00972742
0.00974167
0.00975326
0.00976327
0.0097713
0.00977846
0.00978403
0.00978928
0.00979312
0.00979714
0.0097998
0.00980286
0.00980457
0.00980696
0.00980811
0.00981021
0.00981072
0.00981275
0.00981195
0.0098152
0.00981181
0.00981866
0.00980912
0.00982543
0.00980384
0.00985797
0.00970098
0.00932325
0.0090658
0.00894627
0.00887102
0.00882714
0.00879816
0.00877687
0.0087622
0.0087505
0.00875666
0.00874996
0.00874742
0.00873474
0.00873644
0.00872616
0.00873278
0.0087263
0.00873125
0.00872227
0.00872747
0.00872288
0.00873123
0.00872594
0.00873335
0.0087278
0.00873396
0.00872766
0.00873366
0.00872796
0.00873364
0.0087276
0.00873342
0.00872803
0.0087336
0.00872782
0.00873348
0.00872828
0.00873372
0.00872802
0.00873364
0.0087285
0.00873392
0.00872825
0.00873388
0.00872875
0.00873417
0.0087285
0.00873413
0.008729
0.00873443
0.00872876
0.00873438
0.00872925
0.00873468
0.00872901
0.00873463
0.0087295
0.00873493
0.00872926
0.00873488
0.00872975
0.00873518
0.00872952
0.00873514
0.00873002
0.00873545
0.00872979
0.00873542
0.00873029
0.00873573
0.00873007
0.0087357
0.00873059
0.00873603
0.00873037
0.00873601
0.0087309
0.00873634
0.00873068
0.00873635
0.0087312
0.00873667
0.00873103
0.00873664
0.00873158
0.00873698
0.00872882
0.00871765
0.00871584
0.00871509
0.00871468
0.00871439
0.0087143
0.00871422
0.00871422
0.00871415
0.00871411
0.008714
0.00871395
0.00871386
0.00871383
0.00871377
0.00871373
0.00871366
0.00871373
0.00871385
0.00871393
0.00871399
0.00871413
0.00871417
0.00871425
0.00871428
0.00871436
0.0087144
0.00871447
0.00871451
0.00871461
0.00871467
0.00871476
0.00871482
0.00871492
0.00871498
0.00871508
0.00871514
0.00871525
0.00871532
0.00871542
0.00871549
0.0087156
0.00871566
0.00871577
0.00871583
0.00871593
0.00871599
0.00871611
0.00871618
0.00871629
0.00871636
0.00871647
0.00871653
0.00871663
0.0087167
0.0087168
0.00871686
0.00871697
0.00871705
0.00871716
0.00871722
0.00871733
0.0087174
0.0087175
0.00871756
0.00871766
0.00871774
0.00871784
0.0087179
0.00871799
0.00871806
0.00871815
0.00871822
0.00871829
0.00871837
0.00871844
0.00871852
0.00871859
0.00871867
0.00871875
0.00871889
0.00871895
0.00871902
0.00871902
0.00871915
0.00871909
0.0087193
0.00871916
0.00871949
0.00871921
0.00871969
0.00871923
0.0087199
0.00871925
0.00872013
0.00871921
0.00872042
0.00871914
0.00872073
0.00871903
0.00872105
0.0087189
0.0087214
0.00871871
0.00872178
0.00871846
0.0087223
0.0087181
0.00872285
0.00871766
0.0087235
0.00871756
0.00872355
0.00871839
0.00872228
0.00872014
0.00872151
0.00872043
0.0087223
0.0087196
0.00872308
0.00871921
0.00872377
0.00871915
0.00872385
0.00871859
0.00872593
0.00871903
0.00872763
0.00871886
0.00872884
0.0087172
0.00872859
0.00871575
0.00872897
0.00871565
0.00872813
0.00871566
0.00872522
0.00871707
0.008722
0.00871943
0.00871997
0.0087219
0.00871736
0.00872536
0.00871079
0.00872636
0.00876001
0.00944797
0.00973844
0.00970507
0.00975203
0.00341228
0.0055893
0.00667997
0.00720639
0.00729272
0.00743527
0.00745112
0.00751889
0.00754818
0.00761072
0.00765425
0.00771732
0.0077774
0.00784083
0.00790932
0.00797716
0.00804759
0.00812122
0.00819452
0.00826905
0.00834381
0.00841828
0.00849199
0.008564
0.00863323
0.00869169
0.0087393
0.0087777
0.00880899
0.00883433
0.00885515
0.008872
0.00888598
0.00889728
0.00890678
0.00891444
0.00892103
0.00892631
0.00893098
0.00893466
0.00893809
0.00894066
0.00894326
0.00894509
0.00894708
0.00894828
0.00894984
0.00895076
0.008952
0.00895271
0.00895346
0.00895389
0.00895467
0.00895469
0.00895577
0.00895496
0.00895696
0.00895604
0.00895689
0.00887506
0.00875836
0.00852809
0.00836918
0.00826284
0.00818825
0.00813756
0.00809962
0.00807092
0.0080498
0.00804326
0.00803302
0.00802639
0.00801436
0.00800977
0.00800035
0.00800006
0.00799507
0.007997
0.00799101
0.00799239
0.00799032
0.00799456
0.0079921
0.00799724
0.00799437
0.0079985
0.00799476
0.00799871
0.00799567
0.00799919
0.00799547
0.00799916
0.00799625
0.00799965
0.00799589
0.0079995
0.00799654
0.00799991
0.00799616
0.00799978
0.0079968
0.00800016
0.00799641
0.00800005
0.00799704
0.00800042
0.00799663
0.00800029
0.00799727
0.00800065
0.00799687
0.00800052
0.0079975
0.00800089
0.00799709
0.00800074
0.00799772
0.00800112
0.00799732
0.00800098
0.00799795
0.00800135
0.00799756
0.00800123
0.0079982
0.0080016
0.00799782
0.00800149
0.00799846
0.00800186
0.00799808
0.00800175
0.00799874
0.00800214
0.00799836
0.00800203
0.00799902
0.00800241
0.00799866
0.0080023
0.00799932
0.00800271
0.00799897
0.00800267
0.00799968
0.00800298
0.00799721
0.00798736
0.00798485
0.00798396
0.00798362
0.00798346
0.00798342
0.00798343
0.00798351
0.00798358
0.00798365
0.00798367
0.00798371
0.00798371
0.0079838
0.00798376
0.00798374
0.00798381
0.00798395
0.00798411
0.00798416
0.00798422
0.00798428
0.00798431
0.00798434
0.00798434
0.00798442
0.00798449
0.00798457
0.00798463
0.00798468
0.00798475
0.00798483
0.0079849
0.00798498
0.00798506
0.00798514
0.00798521
0.00798532
0.00798539
0.00798548
0.00798554
0.00798561
0.00798567
0.00798575
0.00798581
0.00798587
0.00798592
0.00798602
0.00798611
0.00798621
0.00798628
0.00798638
0.00798645
0.00798653
0.00798658
0.00798664
0.0079867
0.00798679
0.00798687
0.00798695
0.00798701
0.00798707
0.00798714
0.00798723
0.0079873
0.00798739
0.00798747
0.00798755
0.00798762
0.00798768
0.00798772
0.00798776
0.00798784
0.0079879
0.00798797
0.00798802
0.00798808
0.00798813
0.0079882
0.00798826
0.00798838
0.00798846
0.00798849
0.00798851
0.00798855
0.00798859
0.00798865
0.00798871
0.00798871
0.00798887
0.00798869
0.00798912
0.00798857
0.00798945
0.00798846
0.00798967
0.00798843
0.00798988
0.00798839
0.00799008
0.00798834
0.0079903
0.00798825
0.00799056
0.00798809
0.00799088
0.00798791
0.00799115
0.00798788
0.00799113
0.00798832
0.00799043
0.00798961
0.00798967
0.0079899
0.00798985
0.00799028
0.00798991
0.00799027
0.00798992
0.00799051
0.0079905
0.00798934
0.00799214
0.00798827
0.00799353
0.00798779
0.00799459
0.00798846
0.00799528
0.00798861
0.0079952
0.00798858
0.00799389
0.00798947
0.00799216
0.00799089
0.00799023
0.00799033
0.00798961
0.00798992
0.00798866
0.00799004
0.00798889
0.00798978
0.0079894
0.00798876
0.00799012
0.00815391
0.00815109
0.00851952
0.00873904
0.0087989
0.00185336
0.00325216
0.00471361
0.005591
0.00607556
0.00640125
0.00656112
0.00670259
0.00679213
0.00689149
0.00696616
0.00705204
0.00712892
0.00720852
0.00728841
0.00736347
0.00744094
0.00751869
0.00759559
0.00767155
0.00774606
0.00781888
0.0078894
0.00795666
0.00801826
0.00806602
0.00810203
0.00812918
0.00815002
0.00816593
0.00817831
0.00818779
0.0081953
0.00820106
0.00820576
0.00820939
0.00821247
0.00821488
0.008217
0.00821868
0.00822023
0.00822142
0.00822261
0.00822351
0.00822442
0.00822503
0.00822578
0.00822629
0.00822685
0.00822735
0.00822751
0.00822812
0.008228
0.00822892
0.00822811
0.00822988
0.00822729
0.0082316
0.00820813
0.00816643
0.00817746
0.00801524
0.00785845
0.00774067
0.00764859
0.00758255
0.00753124
0.00749095
0.00746056
0.00744355
0.00742841
0.00741764
0.00740459
0.00739573
0.00738585
0.00738099
0.00737568
0.00737523
0.0073706
0.00736991
0.00736829
0.00737003
0.00736915
0.0073727
0.00737123
0.00737409
0.00737206
0.00737476
0.00737318
0.0073755
0.00737337
0.00737579
0.00737418
0.00737639
0.00737397
0.0073764
0.00737453
0.00737679
0.00737434
0.00737679
0.00737485
0.0073771
0.00737461
0.00737709
0.00737508
0.00737735
0.00737482
0.00737731
0.00737529
0.00737757
0.00737503
0.00737752
0.00737549
0.00737778
0.00737523
0.00737772
0.00737571
0.00737799
0.00737545
0.00737794
0.00737591
0.0073782
0.00737566
0.00737816
0.00737614
0.00737844
0.0073759
0.0073784
0.00737638
0.00737868
0.00737614
0.00737864
0.00737664
0.00737893
0.00737639
0.00737889
0.0073769
0.00737917
0.00737667
0.00737911
0.00737718
0.00737943
0.00737693
0.00737951
0.00737748
0.00737962
0.00737595
0.00736795
0.00736456
0.00736315
0.00736258
0.00736232
0.00736224
0.00736228
0.0073624
0.00736256
0.00736269
0.0073628
0.00736293
0.00736302
0.00736316
0.00736319
0.00736323
0.00736342
0.00736362
0.00736376
0.00736382
0.00736387
0.00736385
0.00736386
0.00736387
0.00736389
0.00736396
0.00736402
0.00736411
0.00736417
0.00736422
0.00736429
0.00736437
0.00736444
0.00736451
0.00736458
0.00736466
0.00736473
0.00736482
0.0073649
0.00736496
0.00736502
0.00736508
0.00736514
0.00736521
0.00736526
0.00736531
0.00736535
0.00736544
0.00736553
0.00736561
0.00736568
0.00736576
0.00736583
0.00736589
0.00736594
0.00736598
0.00736605
0.00736612
0.00736619
0.00736625
0.00736631
0.00736636
0.00736642
0.0073665
0.00736657
0.00736664
0.00736671
0.00736677
0.00736684
0.00736688
0.00736692
0.00736696
0.00736703
0.00736707
0.00736713
0.00736716
0.00736721
0.00736723
0.00736728
0.00736732
0.00736742
0.00736749
0.00736752
0.00736756
0.00736758
0.00736764
0.00736765
0.00736775
0.00736769
0.0073679
0.00736767
0.00736813
0.00736755
0.00736844
0.0073674
0.0073687
0.00736726
0.00736899
0.00736709
0.00736929
0.00736692
0.0073696
0.0073667
0.00736997
0.00736641
0.00737042
0.00736602
0.00737092
0.00736566
0.00737132
0.00736557
0.00737091
0.00736679
0.00736975
0.00736796
0.00736895
0.00736884
0.00736902
0.00736829
0.00736959
0.00736819
0.00737048
0.0073668
0.00737182
0.00736632
0.00737323
0.00736527
0.00737437
0.00736501
0.00737546
0.0073645
0.00737648
0.00736418
0.00737623
0.00736458
0.00737463
0.00736608
0.00737232
0.00736689
0.00737039
0.00736828
0.00736801
0.00736877
0.00736756
0.0073692
0.00736715
0.00737047
0.00737089
0.00753613
0.00731462
0.00761364
0.00786818
0.00797097
0.00116958
0.00192191
0.00304063
0.00396867
0.00477123
0.00530576
0.00564443
0.00589419
0.00606567
0.00621645
0.00633108
0.00644397
0.0065406
0.00663868
0.0067315
0.00681719
0.00690352
0.00698704
0.00706874
0.00714749
0.00722315
0.00729558
0.00736389
0.00742692
0.0074808
0.00751846
0.00754392
0.00756093
0.00757227
0.00757953
0.00758411
0.0075867
0.00758812
0.00758865
0.00758878
0.00758855
0.00758827
0.00758789
0.00758757
0.00758727
0.00758703
0.00758685
0.00758672
0.00758665
0.00758656
0.00758655
0.00758654
0.00758661
0.00758657
0.00758674
0.00758653
0.007587
0.00758649
0.00758751
0.00758611
0.00758844
0.00758449
0.00758939
0.00755454
0.00753697
0.00760693
0.00751018
0.00737574
0.00726093
0.00716215
0.00708734
0.00702645
0.00697772
0.00693961
0.00691435
0.00689416
0.0068795
0.0068644
0.0068525
0.00684144
0.00683365
0.00682722
0.00682485
0.00682051
0.00681869
0.0068166
0.00681686
0.00681649
0.00681899
0.00681819
0.00682034
0.00681911
0.00682121
0.00682035
0.00682216
0.00682079
0.00682265
0.00682164
0.00682335
0.00682165
0.00682348
0.00682219
0.0068239
0.00682214
0.00682396
0.00682259
0.00682426
0.00682245
0.00682427
0.00682283
0.0068245
0.00682266
0.00682448
0.00682304
0.00682471
0.00682285
0.00682467
0.00682322
0.0068249
0.00682304
0.00682485
0.00682341
0.00682508
0.00682323
0.00682505
0.0068236
0.00682528
0.00682342
0.00682525
0.00682381
0.00682549
0.00682364
0.00682547
0.00682403
0.00682571
0.00682386
0.00682569
0.00682425
0.00682594
0.00682408
0.00682591
0.00682449
0.00682616
0.00682433
0.00682611
0.00682473
0.00682638
0.00682456
0.00682646
0.00682505
0.00682656
0.00682413
0.00681768
0.00681388
0.00681198
0.0068111
0.00681065
0.00681045
0.00681046
0.00681058
0.00681076
0.00681093
0.0068111
0.00681127
0.00681143
0.0068116
0.00681168
0.00681178
0.00681207
0.00681232
0.00681243
0.0068125
0.00681254
0.00681248
0.00681248
0.00681249
0.00681253
0.00681259
0.00681265
0.00681273
0.00681279
0.00681284
0.00681292
0.00681299
0.00681306
0.00681313
0.0068132
0.00681327
0.00681334
0.00681341
0.00681348
0.00681354
0.0068136
0.00681364
0.00681371
0.00681376
0.00681381
0.00681386
0.0068139
0.00681397
0.00681406
0.00681412
0.00681418
0.00681425
0.00681431
0.00681436
0.0068144
0.00681444
0.0068145
0.00681456
0.00681462
0.00681467
0.00681473
0.00681477
0.00681483
0.00681489
0.00681496
0.00681501
0.00681508
0.00681513
0.00681519
0.00681522
0.00681526
0.0068153
0.00681536
0.00681538
0.00681543
0.00681545
0.00681549
0.00681551
0.00681555
0.00681557
0.00681562
0.00681568
0.00681571
0.00681577
0.00681578
0.00681585
0.00681585
0.00681595
0.00681588
0.00681608
0.00681587
0.00681626
0.00681579
0.00681649
0.0068157
0.0068167
0.00681557
0.00681696
0.00681541
0.00681722
0.00681524
0.00681751
0.00681503
0.00681783
0.00681478
0.00681823
0.0068144
0.00681872
0.006814
0.00681922
0.00681371
0.00681914
0.00681438
0.00681825
0.00681582
0.00681699
0.00681672
0.00681713
0.00681601
0.00681802
0.0068157
0.00681879
0.00681487
0.00681945
0.00681479
0.00682062
0.00681388
0.0068215
0.00681329
0.00682251
0.00681259
0.00682376
0.00681234
0.00682423
0.00681229
0.00682334
0.00681295
0.00682159
0.00681419
0.00681908
0.00681641
0.00681659
0.00681669
0.00681584
0.00681726
0.00681518
0.00681946
0.00682116
0.00695382
0.00668513
0.00688881
0.00711863
0.00724246
0.000887695
0.00124475
0.00188865
0.00264164
0.00346987
0.00412808
0.0046548
0.00503786
0.00531302
0.00553366
0.00570241
0.00585283
0.0059785
0.00609842
0.00620721
0.00630721
0.00640373
0.00649421
0.00658176
0.00666421
0.00674205
0.00681488
0.00688139
0.00693986
0.00698517
0.00701332
0.00702956
0.00703784
0.00704101
0.00704077
0.00703854
0.00703508
0.00703115
0.00702702
0.00702308
0.00701939
0.00701611
0.00701322
0.00701069
0.0070086
0.00700675
0.00700531
0.00700399
0.00700302
0.00700206
0.00700146
0.00700077
0.00700041
0.00699985
0.00699969
0.00699922
0.00699945
0.00699876
0.0069996
0.00699809
0.00700025
0.00699619
0.00700017
0.00696086
0.00695973
0.00705183
0.00700659
0.00690186
0.00679916
0.00670192
0.00662433
0.0065574
0.00650368
0.00645964
0.00642798
0.00640319
0.00638496
0.00636738
0.00635309
0.00634065
0.00633081
0.00632298
0.00631892
0.00631434
0.00631169
0.00630893
0.00630815
0.00630764
0.0063093
0.00630888
0.00631047
0.00630967
0.00631138
0.0063109
0.00631239
0.0063115
0.00631301
0.00631238
0.00631375
0.00631258
0.00631401
0.00631313
0.00631444
0.00631319
0.00631457
0.00631361
0.00631485
0.00631354
0.00631489
0.00631388
0.00631509
0.00631376
0.00631509
0.00631408
0.00631528
0.00631394
0.00631526
0.00631426
0.00631545
0.00631411
0.00631543
0.00631442
0.00631562
0.00631428
0.0063156
0.00631459
0.00631579
0.00631446
0.00631578
0.00631478
0.00631598
0.00631466
0.00631598
0.00631498
0.00631619
0.00631485
0.00631619
0.00631518
0.00631638
0.00631506
0.00631639
0.00631538
0.0063166
0.00631526
0.00631658
0.00631557
0.00631677
0.00631547
0.00631684
0.00631593
0.00631699
0.00631537
0.00631032
0.00630649
0.00630424
0.00630304
0.00630237
0.00630201
0.00630191
0.00630198
0.00630214
0.00630231
0.00630251
0.00630271
0.0063029
0.00630309
0.00630323
0.00630335
0.00630369
0.00630395
0.00630405
0.00630414
0.00630419
0.00630412
0.00630413
0.00630414
0.00630418
0.00630425
0.00630431
0.00630438
0.00630444
0.0063045
0.00630457
0.00630463
0.0063047
0.00630477
0.00630484
0.0063049
0.00630497
0.00630502
0.00630509
0.00630514
0.0063052
0.00630524
0.00630529
0.00630534
0.00630539
0.00630543
0.00630548
0.00630554
0.00630561
0.00630567
0.00630572
0.00630577
0.00630583
0.00630587
0.00630591
0.00630595
0.006306
0.00630605
0.0063061
0.00630613
0.00630619
0.00630623
0.00630628
0.00630634
0.00630639
0.00630644
0.00630649
0.00630653
0.00630659
0.00630661
0.00630666
0.00630669
0.00630674
0.00630676
0.00630679
0.00630681
0.00630684
0.00630685
0.00630688
0.00630689
0.00630691
0.00630695
0.00630698
0.00630704
0.00630707
0.00630713
0.00630712
0.00630722
0.00630716
0.00630733
0.00630716
0.00630747
0.00630712
0.00630764
0.00630706
0.0063078
0.00630697
0.00630799
0.00630687
0.0063082
0.00630673
0.00630842
0.00630657
0.00630867
0.00630639
0.00630898
0.0063061
0.00630937
0.00630575
0.00630984
0.00630542
0.00630994
0.00630571
0.00630932
0.00630708
0.0063081
0.00630774
0.00630826
0.00630713
0.00630925
0.00630671
0.00630978
0.00630642
0.00630999
0.00630652
0.00631087
0.00630586
0.00631151
0.00630528
0.00631228
0.00630458
0.00631342
0.00630446
0.00631427
0.00630423
0.00631382
0.00630431
0.00631263
0.00630557
0.0063102
0.00630774
0.00630822
0.00630775
0.00630734
0.00630825
0.00630666
0.00631076
0.00631376
0.00640777
0.00615066
0.00627697
0.00646404
0.00658885
0.000775577
0.000912412
0.00122025
0.00171707
0.00238997
0.00301778
0.00362332
0.00410893
0.00450148
0.00480909
0.00504764
0.00524831
0.00541328
0.00556187
0.00569243
0.00581125
0.0059213
0.00602216
0.00611755
0.00620535
0.00628616
0.0063598
0.0064243
0.00647715
0.00651253
0.00653239
0.00654123
0.00654266
0.00653941
0.00653326
0.00652563
0.00651735
0.00650914
0.00650128
0.00649409
0.0064876
0.00648189
0.00647695
0.00647265
0.00646909
0.00646594
0.00646345
0.00646118
0.00645946
0.00645779
0.00645669
0.00645548
0.00645474
0.00645379
0.00645334
0.00645268
0.00645267
0.0064519
0.00645249
0.00645106
0.00645283
0.00644912
0.00645189
0.00641324
0.00642221
0.00651807
0.00650849
0.00643315
0.00634712
0.00625713
0.00618145
0.00611217
0.00605634
0.00600826
0.00597217
0.00594352
0.00592217
0.00590214
0.00588593
0.00587212
0.0058607
0.00585153
0.00584597
0.00584087
0.00583744
0.00583401
0.00583244
0.00583142
0.00583234
0.00583208
0.00583319
0.00583263
0.00583397
0.00583374
0.00583495
0.00583438
0.00583561
0.00583526
0.00583636
0.00583558
0.0058367
0.00583616
0.00583715
0.00583629
0.00583734
0.0058367
0.00583761
0.00583668
0.00583766
0.005837
0.00583786
0.00583691
0.00583787
0.00583719
0.00583803
0.00583708
0.00583803
0.00583735
0.00583818
0.00583723
0.00583818
0.0058375
0.00583834
0.00583738
0.00583833
0.00583766
0.00583849
0.00583754
0.00583849
0.00583782
0.00583867
0.00583773
0.00583867
0.00583801
0.00583885
0.00583791
0.00583886
0.00583818
0.00583903
0.00583808
0.00583904
0.00583837
0.00583924
0.00583825
0.00583922
0.00583852
0.00583937
0.00583845
0.00583942
0.00583889
0.00583964
0.00583855
0.0058347
0.0058311
0.00582868
0.0058272
0.00582631
0.00582579
0.00582555
0.00582552
0.00582563
0.00582578
0.00582598
0.00582618
0.00582638
0.00582657
0.00582676
0.00582691
0.00582721
0.00582746
0.00582757
0.00582768
0.00582774
0.0058277
0.00582772
0.00582774
0.00582779
0.00582785
0.00582791
0.00582797
0.00582803
0.00582809
0.00582815
0.00582821
0.00582828
0.00582834
0.0058284
0.00582846
0.00582852
0.00582856
0.00582863
0.00582868
0.00582872
0.00582876
0.00582881
0.00582885
0.0058289
0.00582894
0.00582898
0.00582903
0.0058291
0.00582915
0.0058292
0.00582924
0.00582929
0.00582932
0.00582936
0.00582939
0.00582944
0.00582947
0.00582952
0.00582955
0.0058296
0.00582964
0.00582969
0.00582973
0.00582978
0.00582982
0.00582986
0.0058299
0.00582994
0.00582997
0.00583001
0.00583003
0.00583007
0.00583009
0.00583011
0.00583013
0.00583015
0.00583016
0.00583017
0.00583017
0.00583018
0.0058302
0.00583023
0.00583029
0.00583032
0.00583038
0.00583038
0.00583046
0.00583041
0.00583055
0.00583042
0.00583066
0.0058304
0.00583079
0.00583037
0.00583091
0.00583031
0.00583106
0.00583025
0.00583121
0.00583016
0.00583138
0.00583005
0.00583156
0.00582992
0.00583179
0.00582971
0.00583208
0.00582946
0.00583247
0.00582917
0.00583262
0.00582929
0.00583217
0.00583039
0.00583126
0.0058308
0.00583137
0.00583038
0.00583223
0.00583
0.00583263
0.00582997
0.00583261
0.00583012
0.00583328
0.00582966
0.00583373
0.00582921
0.00583427
0.00582863
0.00583517
0.00582862
0.00583611
0.00582841
0.00583588
0.00582824
0.00583507
0.0058294
0.00583314
0.00583097
0.00583175
0.00583085
0.00583083
0.00583123
0.00583021
0.00583374
0.00583747
0.00589708
0.00566913
0.00574171
0.00588511
0.00599893
0.000732422
0.000780691
0.000901504
0.00116343
0.00160325
0.00212519
0.00268151
0.00318214
0.00364152
0.00402481
0.00434391
0.00460678
0.00482219
0.00500893
0.00516927
0.0053115
0.00543936
0.00555486
0.00566059
0.0057557
0.00584067
0.00591521
0.00597682
0.00602315
0.00605162
0.0060658
0.00606977
0.00606671
0.00605922
0.00604916
0.00603795
0.00602646
0.00601539
0.00600503
0.00599564
0.00598728
0.00597993
0.0059736
0.0059681
0.00596353
0.0059595
0.0059563
0.00595338
0.00595113
0.005949
0.00594754
0.00594598
0.00594497
0.00594379
0.00594312
0.00594235
0.00594216
0.00594138
0.00594174
0.00594047
0.00594183
0.00593862
0.00594033
0.005906
0.00591978
0.00600978
0.0060227
0.00597268
0.00590448
0.00582509
0.00575452
0.00568651
0.00563075
0.00558055
0.0055419
0.00551027
0.00548646
0.00546437
0.00544661
0.00543155
0.00541887
0.00540855
0.00540166
0.0053959
0.00539171
0.00538764
0.00538537
0.00538376
0.00538397
0.0053837
0.00538436
0.00538395
0.00538492
0.00538482
0.00538577
0.00538541
0.00538639
0.00538623
0.00538712
0.00538663
0.0053875
0.00538721
0.00538798
0.0053874
0.00538819
0.0053878
0.00538848
0.00538783
0.00538854
0.00538811
0.00538873
0.00538807
0.00538874
0.0053883
0.0053889
0.00538823
0.0053889
0.00538845
0.00538904
0.00538836
0.00538903
0.00538858
0.00538918
0.0053885
0.00538916
0.00538872
0.00538932
0.00538865
0.00538931
0.00538887
0.00538948
0.00538881
0.00538948
0.00538904
0.00538964
0.00538898
0.00538965
0.0053892
0.0053898
0.00538913
0.00538981
0.00538937
0.00538999
0.00538928
0.00538997
0.0053895
0.0053901
0.00538946
0.00539014
0.00538985
0.00539041
0.00538968
0.00538682
0.00538362
0.00538118
0.00537954
0.00537846
0.00537777
0.00537739
0.00537724
0.00537727
0.00537738
0.00537754
0.00537772
0.00537791
0.0053781
0.0053783
0.00537847
0.00537872
0.00537895
0.00537908
0.00537919
0.00537925
0.00537925
0.00537928
0.00537931
0.00537936
0.00537942
0.00537948
0.00537953
0.00537959
0.00537964
0.0053797
0.00537975
0.00537982
0.00537987
0.00537993
0.00537998
0.00538004
0.00538008
0.00538013
0.00538018
0.00538022
0.00538026
0.0053803
0.00538034
0.00538039
0.00538042
0.00538046
0.0053805
0.00538056
0.0053806
0.00538065
0.00538068
0.00538072
0.00538075
0.00538079
0.00538081
0.00538085
0.00538088
0.00538092
0.00538095
0.005381
0.00538103
0.00538107
0.00538111
0.00538115
0.00538118
0.00538122
0.00538124
0.00538128
0.00538131
0.00538134
0.00538136
0.00538139
0.0053814
0.00538143
0.00538143
0.00538145
0.00538145
0.00538147
0.00538146
0.00538145
0.00538146
0.00538149
0.00538155
0.00538158
0.00538163
0.00538164
0.00538171
0.00538167
0.00538178
0.00538168
0.00538187
0.00538167
0.00538197
0.00538166
0.00538207
0.00538163
0.00538218
0.00538158
0.0053823
0.00538152
0.00538242
0.00538145
0.00538256
0.00538136
0.00538273
0.00538122
0.00538295
0.00538104
0.00538324
0.00538084
0.00538338
0.00538089
0.00538305
0.00538168
0.00538246
0.00538193
0.00538252
0.00538167
0.00538317
0.00538142
0.0053835
0.00538146
0.00538338
0.0053816
0.00538392
0.00538126
0.00538426
0.00538095
0.00538462
0.00538052
0.0053853
0.0053806
0.00538612
0.00538048
0.00538601
0.00538027
0.00538547
0.00538118
0.00538412
0.00538216
0.00538316
0.00538202
0.00538229
0.00538227
0.00538175
0.00538461
0.0053885
0.00542303
0.00522608
0.00526376
0.00536928
0.00546651
0.000717379
0.000733038
0.000774209
0.000887265
0.00111802
0.00147907
0.00192822
0.00238264
0.00282585
0.00322968
0.00359856
0.00391637
0.00418919
0.00442249
0.00462095
0.004793
0.00494387
0.00507812
0.00519725
0.00530208
0.00539238
0.00546793
0.00552667
0.00556865
0.00559619
0.00560856
0.00561078
0.00560604
0.00559692
0.0055853
0.00557266
0.00555988
0.00554764
0.00553627
0.00552598
0.00551683
0.0055088
0.00550188
0.00549587
0.00549087
0.00548647
0.00548295
0.00547975
0.00547727
0.00547494
0.0054733
0.00547164
0.00547049
0.00546925
0.00546847
0.00546768
0.00546738
0.00546665
0.00546686
0.00546578
0.0054668
0.00546413
0.00546505
0.00543668
0.00545208
0.0055314
0.00555653
0.00552629
0.00547475
0.0054074
0.0053439
0.00527984
0.00522595
0.00517557
0.00513591
0.00510229
0.00507679
0.00505324
0.00503424
0.00501811
0.00500445
0.00499316
0.00498513
0.00497869
0.00497377
0.00496913
0.00496619
0.004964
0.00496354
0.00496309
0.00496333
0.00496298
0.00496362
0.00496356
0.00496426
0.00496403
0.00496479
0.00496474
0.00496544
0.00496516
0.00496585
0.00496572
0.00496632
0.00496596
0.00496656
0.00496634
0.00496684
0.00496642
0.00496693
0.00496666
0.00496711
0.00496666
0.00496715
0.00496685
0.00496728
0.00496681
0.00496729
0.004967
0.00496741
0.00496694
0.00496741
0.00496712
0.00496754
0.00496707
0.00496753
0.00496724
0.00496766
0.0049672
0.00496767
0.00496738
0.00496781
0.00496735
0.00496782
0.00496753
0.00496796
0.0049675
0.00496798
0.00496768
0.0049681
0.00496763
0.00496812
0.00496783
0.00496828
0.00496777
0.00496826
0.00496795
0.00496838
0.00496795
0.00496842
0.00496828
0.0049687
0.00496822
0.00496618
0.00496346
0.00496114
0.00495942
0.00495822
0.00495739
0.00495687
0.00495659
0.00495652
0.00495656
0.00495668
0.00495682
0.00495697
0.00495714
0.00495733
0.0049575
0.00495771
0.00495792
0.00495805
0.00495815
0.00495823
0.00495825
0.00495829
0.00495832
0.00495838
0.00495843
0.00495849
0.00495854
0.00495859
0.00495864
0.0049587
0.00495874
0.0049588
0.00495885
0.00495891
0.00495895
0.004959
0.00495903
0.00495908
0.00495912
0.00495917
0.0049592
0.00495924
0.00495927
0.00495931
0.00495934
0.00495937
0.00495941
0.00495946
0.0049595
0.00495954
0.00495957
0.0049596
0.00495963
0.00495966
0.00495969
0.00495972
0.00495974
0.00495978
0.0049598
0.00495985
0.00495987
0.00495991
0.00495993
0.00495997
0.00495999
0.00496003
0.00496005
0.00496008
0.0049601
0.00496013
0.00496015
0.00496018
0.00496018
0.0049602
0.00496021
0.00496022
0.00496022
0.00496023
0.00496022
0.0049602
0.00496021
0.00496023
0.00496028
0.00496031
0.00496036
0.00496037
0.00496043
0.0049604
0.00496049
0.00496042
0.00496057
0.00496041
0.00496065
0.00496041
0.00496073
0.00496039
0.00496081
0.00496036
0.00496091
0.00496033
0.004961
0.00496028
0.00496111
0.00496022
0.00496124
0.00496012
0.00496141
0.00496
0.00496162
0.00495986
0.00496173
0.00495989
0.00496152
0.00496042
0.00496115
0.00496059
0.00496116
0.00496045
0.00496163
0.00496033
0.00496189
0.00496037
0.00496178
0.00496046
0.00496221
0.00496022
0.00496247