/*--------------------------------*- C++ -*----------------------------------*\
| =========                 |                                                 |
| \\      /  F ield         | foam-extend: Open Source CFD                    |
|  \\    /   O peration     | Version:     3.2                                |
|   \\  /    A nd           | Web:         http://www.foam-extend.org         |
|    \\/     M anipulation  | For copyright notice see file Copyright         |
\*---------------------------------------------------------------------------*/
FoamFile
{
    version     2.0;
    format      ascii;
    class       areaScalarField;
    location    "50";
    object      kTempA;
}
// * * * * * * * * * * * * * * * * * * * * * * * * * * * * * * * * * * * * * //

dimensions      [0 2 -2 0 0 0 0];

internalField   nonuniform List<scalar> 
300
(
0.0191515
0.0121226
0.00894764
0.00902527
0.00869729
0.00873791
0.00859964
0.00860211
0.00854928
0.00857243
0.00857361
0.00860993
0.00863978
0.00869178
0.00873698
0.00879972
0.00885892
0.00892711
0.00899333
0.0090679
0.00914452
0.00922327
0.00930352
0.00938462
0.00946647
0.00954469
0.00961365
0.00967222
0.0097217
0.00976302
0.00979782
0.00982665
0.00985096
0.00987094
0.00988792
0.00990173
0.00991368
0.00992323
0.00993179
0.00993837
0.00994467
0.00994916
0.00995406
0.00995706
0.00996078
0.00996258
0.00996572
0.00996651
0.00996995
0.00996881
0.00997424
0.00996863
0.00997957
0.00996442
0.00999003
0.00995119
0.0100142
0.00992001
0.0101014
0.00974355
0.00887206
0.00882031
0.00883951
0.00882889
0.00883358
0.00883421
0.00883229
0.00883536
0.00883059
0.00884502
0.00883976
0.00883821
0.00882778
0.0088363
0.00882724
0.00884098
0.00883245
0.00883862
0.00882673
0.00883518
0.00882903
0.00883888
0.00883471
0.00883954
0.00883342
0.00883803
0.00883371
0.00883767
0.00883218
0.00883652
0.00883292
0.00883671
0.00883179
0.00883592
0.00883276
0.00883638
0.00883179
0.00883582
0.00883289
0.0088364
0.00883196
0.00883594
0.00883308
0.00883656
0.00883221
0.00883616
0.00883334
0.0088368
0.00883246
0.0088364
0.00883359
0.00883704
0.00883269
0.00883662
0.00883382
0.00883727
0.00883292
0.00883685
0.00883404
0.00883749
0.00883316
0.00883708
0.00883429
0.00883773
0.0088334
0.00883733
0.00883453
0.00883798
0.00883365
0.00883759
0.0088348
0.00883826
0.00883392
0.00883788
0.00883508
0.00883855
0.00883422
0.00883818
0.00883534
0.00883895
0.00883445
0.00883856
0.00883567
0.00883906
0.00883474
0.00883861
0.00883582
0.00883138
0.00882739
0.0088253
0.00882421
0.00882347
0.00882317
0.00882294
0.00882277
0.00882247
0.00882227
0.00882204
0.00882185
0.00882171
0.00882167
0.00882159
0.00882157
0.00882145
0.00882136
0.00882132
0.00882144
0.00882148
0.00882161
0.00882163
0.00882177
0.00882181
0.00882189
0.00882195
0.00882205
0.00882208
0.0088222
0.00882223
0.00882233
0.00882237
0.00882249
0.00882255
0.00882264
0.00882268
0.00882279
0.00882284
0.00882297
0.00882303
0.00882317
0.00882322
0.00882336
0.00882341
0.00882356
0.00882359
0.0088237
0.00882378
0.00882391
0.00882397
0.00882408
0.00882413
0.00882426
0.00882434
0.00882448
0.00882453
0.00882466
0.00882473
0.00882487
0.00882493
0.00882509
0.00882517
0.00882527
0.00882533
0.00882544
0.00882551
0.00882563
0.00882569
0.00882584
0.00882592
0.00882603
0.00882609
0.0088262
0.00882628
0.00882639
0.00882645
0.00882652
0.0088266
0.00882665
0.00882682
0.00882686
0.00882712
0.00882695
0.00882739
0.00882696
0.00882778
0.00882673
0.00882847
0.00882634
0.00882929
0.00882572
0.00883027
0.00882508
0.00883115
0.00882457
0.00883199
0.00882397
0.00883289
0.00882335
0.00883384
0.00882257
0.00883503
0.00882149
0.00883649
0.00882009
0.00883829
0.00881876
0.00883939
0.00881849
0.00883912
0.00882058
0.00883631
0.00882426
0.00883261
0.00882862
0.00882944
0.00882982
0.0088311
0.00882777
0.00883278
0.00882558
0.00883759
0.00882028
0.0088427
0.00881393
0.00885091
0.00881309
0.00885247
0.008812
0.00885432
0.00880919
0.00885205
0.00881033
0.0088501
0.00881388
0.00884447
0.00881786
0.00883821
0.00882228
0.00883118
0.00883094
0.00882234
0.00884095
0.00881173
0.00885418
0.0087894
0.00886976
0.00861661
0.0108616
0.0105695
0.00973116
0.00999868
)
;

boundaryField
{
    inlet
    {
        type            calculated;
        value           uniform 0;
    }
    outlet
    {
        type            calculated;
        value           uniform 0;
    }
    sideWall
    {
        type            empty;
    }
}


// ************************************************************************* //
