/*--------------------------------*- C++ -*----------------------------------*\
| =========                 |                                                 |
| \\      /  F ield         | foam-extend: Open Source CFD                    |
|  \\    /   O peration     | Version:     3.2                                |
|   \\  /    A nd           | Web:         http://www.foam-extend.org         |
|    \\/     M anipulation  | For copyright notice see file Copyright         |
\*---------------------------------------------------------------------------*/
FoamFile
{
    version     2.0;
    format      ascii;
    class       volVectorField;
    location    "50";
    object      meshCentreN;
}
// * * * * * * * * * * * * * * * * * * * * * * * * * * * * * * * * * * * * * //

dimensions      [0 1 0 0 0 0 0];

internalField   nonuniform List<vector> 
5400
(
(0.025 0.01 0.000708335)
(0.075 0.01 0.000458335)
(0.125 0.01 0.000208334)
(0.175 0.01 -4.16665e-05)
(0.225 0.01 -0.000291667)
(0.275 0.01 -0.000541666)
(0.325 0.01 -0.000791667)
(0.375 0.01 -0.00104167)
(0.425 0.01 -0.00129167)
(0.475 0.01 -0.00154167)
(0.525 0.01 -0.00179167)
(0.575 0.01 -0.00204166)
(0.625 0.01 -0.00229166)
(0.675 0.01 -0.00254167)
(0.725 0.01 -0.00279166)
(0.775 0.01 -0.00304167)
(0.825 0.01 -0.00329167)
(0.875 0.01 -0.00354166)
(0.925 0.01 -0.00379166)
(0.975 0.01 -0.00404166)
(1.025 0.01 -0.00429167)
(1.075 0.01 -0.00454167)
(1.125 0.01 -0.00479167)
(1.175 0.01 -0.00504167)
(1.225 0.01 -0.00529166)
(1.275 0.01 -0.00554167)
(1.325 0.01 -0.00579167)
(1.375 0.01 -0.00604167)
(1.425 0.01 -0.00629167)
(1.475 0.01 -0.00654167)
(1.525 0.01 -0.00679166)
(1.575 0.01 -0.00704166)
(1.625 0.01 -0.00729167)
(1.675 0.01 -0.00754167)
(1.725 0.01 -0.00779166)
(1.775 0.01 -0.00804167)
(1.825 0.01 -0.00829166)
(1.875 0.01 -0.00854167)
(1.925 0.01 -0.00879166)
(1.975 0.01 -0.00904166)
(2.025 0.01 -0.00929166)
(2.075 0.01 -0.00954166)
(2.125 0.01 -0.00979166)
(2.175 0.01 -0.0100417)
(2.225 0.01 -0.0102917)
(2.275 0.01 -0.0105417)
(2.325 0.01 -0.0107917)
(2.375 0.01 -0.0110417)
(2.425 0.01 -0.0112916)
(2.475 0.01 -0.0115417)
(2.525 0.01 -0.0117916)
(2.575 0.01 -0.0120416)
(2.625 0.01 -0.0122917)
(2.675 0.01 -0.0125416)
(2.725 0.01 -0.0127917)
(2.775 0.01 -0.0130416)
(2.825 0.01 -0.0132917)
(2.875 0.01 -0.0135416)
(2.925 0.01 -0.0137917)
(2.975 0.01 -0.0142345)
(3.025 0.01 -0.0148816)
(3.075 0.01 -0.0154475)
(3.125 0.01 -0.0158685)
(3.175 0.01 -0.0162231)
(3.225 0.01 -0.016543)
(3.275 0.01 -0.0168392)
(3.325 0.01 -0.0171218)
(3.375 0.01 -0.0173938)
(3.425 0.01 -0.0176595)
(3.475 0.01 -0.0179193)
(3.525 0.01 -0.0181771)
(3.575 0.01 -0.0184379)
(3.625 0.01 -0.0186976)
(3.675 0.01 -0.0189502)
(3.725 0.01 -0.0191983)
(3.775 0.01 -0.0194456)
(3.825 0.01 -0.0196944)
(3.875 0.01 -0.019942)
(3.925 0.01 -0.02019)
(3.975 0.01 -0.0204393)
(4.025 0.01 -0.0206874)
(4.075 0.01 -0.0209318)
(4.125 0.01 -0.0211757)
(4.175 0.01 -0.0214236)
(4.225 0.01 -0.021674)
(4.275 0.01 -0.0219224)
(4.325 0.01 -0.0221699)
(4.375 0.01 -0.0224202)
(4.425 0.01 -0.0226721)
(4.475 0.01 -0.0229212)
(4.525 0.01 -0.0231691)
(4.575 0.01 -0.0234196)
(4.625 0.01 -0.0236716)
(4.675 0.01 -0.0239209)
(4.725 0.01 -0.0241688)
(4.775 0.01 -0.0244194)
(4.825 0.01 -0.0246714)
(4.875 0.01 -0.0249207)
(4.925 0.01 -0.0251687)
(4.975 0.01 -0.0254193)
(5.025 0.01 -0.0256713)
(5.075 0.01 -0.0259206)
(5.125 0.01 -0.0261685)
(5.175 0.01 -0.0264192)
(5.225 0.01 -0.0266711)
(5.275 0.01 -0.0269204)
(5.325 0.01 -0.0271683)
(5.375 0.01 -0.0274189)
(5.425 0.01 -0.0276709)
(5.475 0.01 -0.0279201)
(5.525 0.01 -0.0281681)
(5.575 0.01 -0.0284186)
(5.625 0.01 -0.0286706)
(5.675 0.01 -0.0289198)
(5.725 0.01 -0.0291678)
(5.775 0.01 -0.0294183)
(5.825 0.01 -0.0296703)
(5.875 0.01 -0.0299195)
(5.925 0.01 -0.0301674)
(5.975 0.01 -0.030418)
(6.025 0.01 -0.0306699)
(6.075 0.01 -0.0309192)
(6.125 0.01 -0.0311671)
(6.175 0.01 -0.0314177)
(6.225 0.01 -0.0316696)
(6.275 0.01 -0.0319188)
(6.325 0.01 -0.0321667)
(6.375 0.01 -0.0324173)
(6.425 0.01 -0.0326692)
(6.475 0.01 -0.0329185)
(6.525 0.01 -0.0331663)
(6.575 0.01 -0.0334169)
(6.625 0.01 -0.0336688)
(6.675 0.01 -0.0339181)
(6.725 0.01 -0.034166)
(6.775 0.01 -0.0344165)
(6.825 0.01 -0.0346684)
(6.875 0.01 -0.0349177)
(6.925 0.01 -0.0351655)
(6.975 0.01 -0.0354161)
(7.025 0.01 -0.035668)
(7.075 0.01 -0.0359172)
(7.125 0.01 -0.0361651)
(7.175 0.01 -0.0364156)
(7.225 0.01 -0.0366675)
(7.275 0.01 -0.0369167)
(7.325 0.01 -0.0371626)
(7.375 0.01 -0.0374081)
(7.425 0.01 -0.0376546)
(7.475 0.01 -0.0379022)
(7.525 0.01 -0.0381507)
(7.575 0.01 -0.0383996)
(7.625 0.01 -0.0386487)
(7.675 0.01 -0.0388978)
(7.725 0.01 -0.0391471)
(7.775 0.01 -0.0393965)
(7.825 0.01 -0.0396461)
(7.875 0.01 -0.0398958)
(7.925 0.01 -0.0401455)
(7.975 0.01 -0.0403953)
(8.025 0.01 -0.0406452)
(8.075 0.01 -0.040895)
(8.125 0.01 -0.0411448)
(8.175 0.01 -0.0413946)
(8.225 0.01 -0.0416445)
(8.275 0.01 -0.0418943)
(8.325 0.01 -0.0421442)
(8.375 0.01 -0.0423941)
(8.425 0.01 -0.042644)
(8.475 0.01 -0.0428939)
(8.525 0.01 -0.0431438)
(8.575 0.01 -0.0433936)
(8.625 0.01 -0.0436435)
(8.675 0.01 -0.0438934)
(8.725 0.01 -0.0441433)
(8.775 0.01 -0.0443932)
(8.825 0.01 -0.044643)
(8.875 0.01 -0.0448929)
(8.925 0.01 -0.0451428)
(8.975 0.01 -0.0453927)
(9.025 0.01 -0.0456425)
(9.075 0.01 -0.0458924)
(9.125 0.01 -0.0461423)
(9.175 0.01 -0.0463922)
(9.225 0.01 -0.0466421)
(9.275 0.01 -0.0468919)
(9.325 0.01 -0.0471418)
(9.375 0.01 -0.0473917)
(9.425 0.01 -0.0476415)
(9.475 0.01 -0.0478914)
(9.525 0.01 -0.0481413)
(9.575 0.01 -0.0483911)
(9.625 0.01 -0.048641)
(9.675 0.01 -0.0488909)
(9.725 0.01 -0.0491408)
(9.775 0.01 -0.0493906)
(9.825 0.01 -0.0496405)
(9.875 0.01 -0.0498904)
(9.925 0.01 -0.0501402)
(9.975 0.01 -0.0503901)
(10.025 0.01 -0.05064)
(10.075 0.01 -0.0508899)
(10.125 0.01 -0.0511397)
(10.175 0.01 -0.0513896)
(10.225 0.01 -0.0516395)
(10.275 0.01 -0.0518893)
(10.325 0.01 -0.0521392)
(10.375 0.01 -0.0523891)
(10.425 0.01 -0.052639)
(10.475 0.01 -0.0528888)
(10.525 0.01 -0.0531387)
(10.575 0.01 -0.0533886)
(10.625 0.01 -0.0536385)
(10.675 0.01 -0.0538883)
(10.725 0.01 -0.0541382)
(10.775 0.01 -0.0543881)
(10.825 0.01 -0.054638)
(10.875 0.01 -0.0548878)
(10.925 0.01 -0.0551377)
(10.975 0.01 -0.0553876)
(11.025 0.01 -0.0556375)
(11.075 0.01 -0.0558874)
(11.125 0.01 -0.0561373)
(11.175 0.01 -0.0563872)
(11.225 0.01 -0.056637)
(11.275 0.01 -0.0568869)
(11.325 0.01 -0.0571368)
(11.375 0.01 -0.0573867)
(11.425 0.01 -0.0576366)
(11.475 0.01 -0.0578865)
(11.525 0.01 -0.0581364)
(11.575 0.01 -0.0583863)
(11.625 0.01 -0.0586362)
(11.675 0.01 -0.0588861)
(11.725 0.01 -0.059136)
(11.775 0.01 -0.0593859)
(11.825 0.01 -0.0596359)
(11.875 0.01 -0.0598857)
(11.925 0.01 -0.0601357)
(11.975 0.01 -0.0603855)
(12.025 0.01 -0.0606356)
(12.075 0.01 -0.0608854)
(12.125 0.01 -0.0611354)
(12.175 0.01 -0.0613852)
(12.225 0.01 -0.0616353)
(12.275 0.01 -0.0618851)
(12.325 0.01 -0.0621352)
(12.375 0.01 -0.0623849)
(12.425 0.01 -0.062635)
(12.475 0.01 -0.0628848)
(12.525 0.01 -0.0631349)
(12.575 0.01 -0.0633847)
(12.625 0.01 -0.0636349)
(12.675 0.01 -0.0638845)
(12.725 0.01 -0.0641348)
(12.775 0.01 -0.0643844)
(12.825 0.01 -0.0646347)
(12.875 0.01 -0.0648842)
(12.925 0.01 -0.0651344)
(12.975 0.01 -0.0653841)
(13.025 0.01 -0.0656341)
(13.075 0.01 -0.065884)
(13.125 0.01 -0.0661336)
(13.175 0.01 -0.0663841)
(13.225 0.01 -0.0666335)
(13.275 0.01 -0.0668836)
(13.325 0.01 -0.0671334)
(13.375 0.01 -0.0673836)
(13.425 0.01 -0.0676332)
(13.475 0.01 -0.067883)
(13.525 0.01 -0.0681332)
(13.575 0.01 -0.068383)
(13.625 0.01 -0.0686332)
(13.675 0.01 -0.0688814)
(13.725 0.01 -0.0691315)
(13.775 0.01 -0.0693804)
(13.825 0.01 -0.0696308)
(13.875 0.01 -0.0698802)
(13.925 0.01 -0.0701317)
(13.975 0.01 -0.0703816)
(14.025 0.01 -0.0706323)
(14.075 0.01 -0.0708818)
(14.125 0.01 -0.0711326)
(14.175 0.01 -0.0713829)
(14.225 0.01 -0.0716338)
(14.275 0.01 -0.0718844)
(14.325 0.01 -0.0721349)
(14.375 0.01 -0.0723851)
(14.425 0.01 -0.0726348)
(14.475 0.01 -0.0728853)
(14.525 0.01 -0.0731343)
(14.575 0.01 -0.0733851)
(14.625 0.01 -0.0736345)
(14.675 0.01 -0.0738835)
(14.725 0.01 -0.074132)
(14.775 0.01 -0.0741587)
(14.825 0.01 -0.0737351)
(14.875 0.01 -0.0735419)
(14.925 0.01 -0.0737916)
(14.975 0.01 -0.0740417)
(0.025 0.01 0.002375)
(0.075 0.01 0.002125)
(0.125 0.01 0.001875)
(0.175 0.01 0.001625)
(0.225 0.01 0.001375)
(0.275 0.01 0.001125)
(0.325 0.01 0.000874998)
(0.375 0.01 0.000624998)
(0.425 0.01 0.000374999)
(0.475 0.01 0.000124999)
(0.525 0.01 -0.000124999)
(0.575 0.01 -0.000374998)
(0.625 0.01 -0.000624998)
(0.675 0.01 -0.000874998)
(0.725 0.01 -0.001125)
(0.775 0.01 -0.001375)
(0.825 0.01 -0.001625)
(0.875 0.01 -0.001875)
(0.925 0.01 -0.002125)
(0.975 0.01 -0.002375)
(1.025 0.01 -0.002625)
(1.075 0.01 -0.002875)
(1.125 0.01 -0.003125)
(1.175 0.01 -0.003375)
(1.225 0.01 -0.003625)
(1.275 0.01 -0.003875)
(1.325 0.01 -0.004125)
(1.375 0.01 -0.004375)
(1.425 0.01 -0.004625)
(1.475 0.01 -0.004875)
(1.525 0.01 -0.005125)
(1.575 0.01 -0.005375)
(1.625 0.01 -0.005625)
(1.675 0.01 -0.005875)
(1.725 0.01 -0.006125)
(1.775 0.01 -0.006375)
(1.825 0.01 -0.006625)
(1.875 0.01 -0.006875)
(1.925 0.01 -0.007125)
(1.975 0.01 -0.007375)
(2.025 0.01 -0.007625)
(2.075 0.01 -0.007875)
(2.125 0.01 -0.008125)
(2.175 0.01 -0.008375)
(2.225 0.01 -0.008625)
(2.275 0.01 -0.008875)
(2.325 0.01 -0.00912499)
(2.375 0.01 -0.00937498)
(2.425 0.01 -0.00962498)
(2.475 0.01 -0.00987499)
(2.525 0.01 -0.010125)
(2.575 0.01 -0.010375)
(2.625 0.01 -0.010625)
(2.675 0.01 -0.010875)
(2.725 0.01 -0.011125)
(2.775 0.01 -0.011375)
(2.825 0.01 -0.011625)
(2.875 0.01 -0.011875)
(2.925 0.01 -0.0121254)
(2.975 0.01 -0.012568)
(3.025 0.01 -0.0132143)
(3.075 0.01 -0.01378)
(3.125 0.01 -0.014201)
(3.175 0.01 -0.0145556)
(3.225 0.01 -0.0148755)
(3.275 0.01 -0.0151717)
(3.325 0.01 -0.0154544)
(3.375 0.01 -0.0157264)
(3.425 0.01 -0.015992)
(3.475 0.01 -0.0162518)
(3.525 0.01 -0.0165097)
(3.575 0.01 -0.0167705)
(3.625 0.01 -0.0170301)
(3.675 0.01 -0.0172827)
(3.725 0.01 -0.0175308)
(3.775 0.01 -0.0177782)
(3.825 0.01 -0.0180269)
(3.875 0.01 -0.0182746)
(3.925 0.01 -0.0185226)
(3.975 0.01 -0.0187718)
(4.025 0.01 -0.0190199)
(4.075 0.01 -0.0192643)
(4.125 0.01 -0.0195083)
(4.175 0.01 -0.0197561)
(4.225 0.01 -0.0200065)
(4.275 0.01 -0.0202549)
(4.325 0.01 -0.0205024)
(4.375 0.01 -0.0207528)
(4.425 0.01 -0.0210046)
(4.475 0.01 -0.0212537)
(4.525 0.01 -0.0215016)
(4.575 0.01 -0.0217522)
(4.625 0.01 -0.0220041)
(4.675 0.01 -0.0222534)
(4.725 0.01 -0.0225013)
(4.775 0.01 -0.022752)
(4.825 0.01 -0.0230039)
(4.875 0.01 -0.0232533)
(4.925 0.01 -0.0235012)
(4.975 0.01 -0.0237519)
(5.025 0.01 -0.0240038)
(5.075 0.01 -0.0242531)
(5.125 0.01 -0.0245011)
(5.175 0.01 -0.0247517)
(5.225 0.01 -0.0250036)
(5.275 0.01 -0.0252529)
(5.325 0.01 -0.0255009)
(5.375 0.01 -0.0257515)
(5.425 0.01 -0.0260034)
(5.475 0.01 -0.0262527)
(5.525 0.01 -0.0265006)
(5.575 0.01 -0.0267512)
(5.625 0.01 -0.0270031)
(5.675 0.01 -0.0272524)
(5.725 0.01 -0.0275003)
(5.775 0.01 -0.0277509)
(5.825 0.01 -0.0280028)
(5.875 0.01 -0.0282521)
(5.925 0.01 -0.0285)
(5.975 0.01 -0.0287506)
(6.025 0.01 -0.0290025)
(6.075 0.01 -0.0292517)
(6.125 0.01 -0.0294996)
(6.175 0.01 -0.0297502)
(6.225 0.01 -0.0300021)
(6.275 0.01 -0.0302514)
(6.325 0.01 -0.0304993)
(6.375 0.01 -0.0307498)
(6.425 0.01 -0.0310017)
(6.475 0.01 -0.031251)
(6.525 0.01 -0.0314989)
(6.575 0.01 -0.0317495)
(6.625 0.01 -0.0320014)
(6.675 0.01 -0.0322506)
(6.725 0.01 -0.0324985)
(6.775 0.01 -0.0327491)
(6.825 0.01 -0.033001)
(6.875 0.01 -0.0332502)
(6.925 0.01 -0.0334981)
(6.975 0.01 -0.0337486)
(7.025 0.01 -0.0340006)
(7.075 0.01 -0.0342498)
(7.125 0.01 -0.0344976)
(7.175 0.01 -0.0347482)
(7.225 0.01 -0.0350001)
(7.275 0.01 -0.0352492)
(7.325 0.01 -0.0354952)
(7.375 0.01 -0.0357406)
(7.425 0.01 -0.0359871)
(7.475 0.01 -0.0362347)
(7.525 0.01 -0.0364832)
(7.575 0.01 -0.0367321)
(7.625 0.01 -0.0369812)
(7.675 0.01 -0.0372303)
(7.725 0.01 -0.0374796)
(7.775 0.01 -0.037729)
(7.825 0.01 -0.0379786)
(7.875 0.01 -0.0382283)
(7.925 0.01 -0.0384781)
(7.975 0.01 -0.0387279)
(8.025 0.01 -0.0389777)
(8.075 0.01 -0.0392275)
(8.125 0.01 -0.0394774)
(8.175 0.01 -0.0397272)
(8.225 0.01 -0.039977)
(8.275 0.01 -0.0402269)
(8.325 0.01 -0.0404768)
(8.375 0.01 -0.0407266)
(8.425 0.01 -0.0409765)
(8.475 0.01 -0.0412264)
(8.525 0.01 -0.0414763)
(8.575 0.01 -0.0417262)
(8.625 0.01 -0.041976)
(8.675 0.01 -0.0422259)
(8.725 0.01 -0.0424758)
(8.775 0.01 -0.0427257)
(8.825 0.01 -0.0429756)
(8.875 0.01 -0.0432254)
(8.925 0.01 -0.0434753)
(8.975 0.01 -0.0437252)
(9.025 0.01 -0.0439751)
(9.075 0.01 -0.0442249)
(9.125 0.01 -0.0444748)
(9.175 0.01 -0.0447247)
(9.225 0.01 -0.0449746)
(9.275 0.01 -0.0452245)
(9.325 0.01 -0.0454743)
(9.375 0.01 -0.0457242)
(9.425 0.01 -0.0459741)
(9.475 0.01 -0.0462239)
(9.525 0.01 -0.0464738)
(9.575 0.01 -0.0467237)
(9.625 0.01 -0.0469735)
(9.675 0.01 -0.0472234)
(9.725 0.01 -0.0474733)
(9.775 0.01 -0.0477232)
(9.825 0.01 -0.047973)
(9.875 0.01 -0.0482229)
(9.925 0.01 -0.0484728)
(9.975 0.01 -0.0487227)
(10.025 0.01 -0.0489725)
(10.075 0.01 -0.0492224)
(10.125 0.01 -0.0494723)
(10.175 0.01 -0.0497221)
(10.225 0.01 -0.049972)
(10.275 0.01 -0.0502219)
(10.325 0.01 -0.0504718)
(10.375 0.01 -0.0507216)
(10.425 0.01 -0.0509715)
(10.475 0.01 -0.0512214)
(10.525 0.01 -0.0514712)
(10.575 0.01 -0.0517211)
(10.625 0.01 -0.051971)
(10.675 0.01 -0.0522209)
(10.725 0.01 -0.0524707)
(10.775 0.01 -0.0527206)
(10.825 0.01 -0.0529705)
(10.875 0.01 -0.0532204)
(10.925 0.01 -0.0534703)
(10.975 0.01 -0.0537202)
(11.025 0.01 -0.05397)
(11.075 0.01 -0.0542199)
(11.125 0.01 -0.0544698)
(11.175 0.01 -0.0547197)
(11.225 0.01 -0.0549696)
(11.275 0.01 -0.0552195)
(11.325 0.01 -0.0554694)
(11.375 0.01 -0.0557193)
(11.425 0.01 -0.0559692)
(11.475 0.01 -0.0562191)
(11.525 0.01 -0.056469)
(11.575 0.01 -0.0567189)
(11.625 0.01 -0.0569688)
(11.675 0.01 -0.0572187)
(11.725 0.01 -0.0574686)
(11.775 0.01 -0.0577185)
(11.825 0.01 -0.0579684)
(11.875 0.01 -0.0582183)
(11.925 0.01 -0.0584683)
(11.975 0.01 -0.0587181)
(12.025 0.01 -0.0589681)
(12.075 0.01 -0.0592179)
(12.125 0.01 -0.059468)
(12.175 0.01 -0.0597177)
(12.225 0.01 -0.0599678)
(12.275 0.01 -0.0602176)
(12.325 0.01 -0.0604677)
(12.375 0.01 -0.0607175)
(12.425 0.01 -0.0609676)
(12.475 0.01 -0.0612173)
(12.525 0.01 -0.0614675)
(12.575 0.01 -0.0617172)
(12.625 0.01 -0.0619674)
(12.675 0.01 -0.062217)
(12.725 0.01 -0.0624673)
(12.775 0.01 -0.0627169)
(12.825 0.01 -0.0629672)
(12.875 0.01 -0.0632167)
(12.925 0.01 -0.0634669)
(12.975 0.01 -0.0637166)
(13.025 0.01 -0.0639667)
(13.075 0.01 -0.0642166)
(13.125 0.01 -0.0644662)
(13.175 0.01 -0.0647166)
(13.225 0.01 -0.064966)
(13.275 0.01 -0.0652161)
(13.325 0.01 -0.065466)
(13.375 0.01 -0.0657161)
(13.425 0.01 -0.0659657)
(13.475 0.01 -0.0662156)
(13.525 0.01 -0.0664658)
(13.575 0.01 -0.0667156)
(13.625 0.01 -0.0669657)
(13.675 0.01 -0.0672139)
(13.725 0.01 -0.067464)
(13.775 0.01 -0.067713)
(13.825 0.01 -0.0679633)
(13.875 0.01 -0.0682127)
(13.925 0.01 -0.0684642)
(13.975 0.01 -0.0687141)
(14.025 0.01 -0.0689649)
(14.075 0.01 -0.0692144)
(14.125 0.01 -0.0694651)
(14.175 0.01 -0.0697155)
(14.225 0.01 -0.0699663)
(14.275 0.01 -0.0702169)
(14.325 0.01 -0.0704674)
(14.375 0.01 -0.0707177)
(14.425 0.01 -0.0709673)
(14.475 0.01 -0.0712179)
(14.525 0.01 -0.0714669)
(14.575 0.01 -0.0717177)
(14.625 0.01 -0.0719671)
(14.675 0.01 -0.0722161)
(14.725 0.01 -0.0724642)
(14.775 0.01 -0.0724905)
(14.825 0.01 -0.0720687)
(14.875 0.01 -0.0718761)
(14.925 0.01 -0.0721249)
(14.975 0.01 -0.072375)
(0.025 0.01 0.00404167)
(0.075 0.01 0.00379166)
(0.125 0.01 0.00354166)
(0.175 0.01 0.00329167)
(0.225 0.01 0.00304167)
(0.275 0.01 0.00279167)
(0.325 0.01 0.00254167)
(0.375 0.01 0.00229167)
(0.425 0.01 0.00204166)
(0.475 0.01 0.00179167)
(0.525 0.01 0.00154167)
(0.575 0.01 0.00129167)
(0.625 0.01 0.00104167)
(0.675 0.01 0.000791667)
(0.725 0.01 0.000541667)
(0.775 0.01 0.000291666)
(0.825 0.01 4.16665e-05)
(0.875 0.01 -0.000208334)
(0.925 0.01 -0.000458335)
(0.975 0.01 -0.000708335)
(1.025 0.01 -0.000958335)
(1.075 0.01 -0.00120833)
(1.125 0.01 -0.00145833)
(1.175 0.01 -0.00170834)
(1.225 0.01 -0.00195833)
(1.275 0.01 -0.00220834)
(1.325 0.01 -0.00245834)
(1.375 0.01 -0.00270834)
(1.425 0.01 -0.00295833)
(1.475 0.01 -0.00320834)
(1.525 0.01 -0.00345834)
(1.575 0.01 -0.00370834)
(1.625 0.01 -0.00395833)
(1.675 0.01 -0.00420834)
(1.725 0.01 -0.00445833)
(1.775 0.01 -0.00470833)
(1.825 0.01 -0.00495834)
(1.875 0.01 -0.00520833)
(1.925 0.01 -0.00545833)
(1.975 0.01 -0.00570834)
(2.025 0.01 -0.00595834)
(2.075 0.01 -0.00620833)
(2.125 0.01 -0.00645833)
(2.175 0.01 -0.00670833)
(2.225 0.01 -0.00695834)
(2.275 0.01 -0.00720833)
(2.325 0.01 -0.00745834)
(2.375 0.01 -0.00770833)
(2.425 0.01 -0.00795834)
(2.475 0.01 -0.00820833)
(2.525 0.01 -0.00845834)
(2.575 0.01 -0.00870833)
(2.625 0.01 -0.00895834)
(2.675 0.01 -0.00920834)
(2.725 0.01 -0.00945835)
(2.775 0.01 -0.00970835)
(2.825 0.01 -0.00995836)
(2.875 0.01 -0.0102083)
(2.925 0.01 -0.0104592)
(2.97501 0.01 -0.0109015)
(3.025 0.01 -0.0115461)
(3.075 0.01 -0.012111)
(3.125 0.01 -0.012532)
(3.175 0.01 -0.0128864)
(3.225 0.01 -0.0132062)
(3.275 0.01 -0.0135024)
(3.325 0.01 -0.0137849)
(3.375 0.01 -0.0140569)
(3.425 0.01 -0.0143225)
(3.475 0.01 -0.0145823)
(3.525 0.01 -0.0148402)
(3.575 0.01 -0.015101)
(3.625 0.01 -0.0153605)
(3.675 0.01 -0.0156132)
(3.725 0.01 -0.0158612)
(3.775 0.01 -0.0161086)
(3.825 0.01 -0.0163574)
(3.875 0.01 -0.0166051)
(3.925 0.01 -0.0168531)
(3.975 0.01 -0.0171023)
(4.025 0.01 -0.0173504)
(4.075 0.01 -0.0175948)
(4.125 0.01 -0.0178388)
(4.175 0.01 -0.0180866)
(4.225 0.01 -0.018337)
(4.275 0.01 -0.0185855)
(4.325 0.01 -0.018833)
(4.375 0.01 -0.0190833)
(4.425 0.01 -0.0193351)
(4.475 0.01 -0.0195843)
(4.525 0.01 -0.0198322)
(4.575 0.01 -0.0200827)
(4.625 0.01 -0.0203346)
(4.675 0.01 -0.0205839)
(4.725 0.01 -0.0208319)
(4.775 0.01 -0.0210825)
(4.825 0.01 -0.0213345)
(4.875 0.01 -0.0215838)
(4.925 0.01 -0.0218318)
(4.975 0.01 -0.0220824)
(5.025 0.01 -0.0223344)
(5.075 0.01 -0.0225836)
(5.125 0.01 -0.0228316)
(5.175 0.01 -0.0230822)
(5.225 0.01 -0.0233342)
(5.275 0.01 -0.0235834)
(5.325 0.01 -0.0238314)
(5.375 0.01 -0.024082)
(5.425 0.01 -0.0243339)
(5.475 0.01 -0.0245832)
(5.525 0.01 -0.0248311)
(5.575 0.01 -0.0250817)
(5.625 0.01 -0.0253336)
(5.675 0.01 -0.0255829)
(5.725 0.01 -0.0258308)
(5.775 0.01 -0.0260814)
(5.825 0.01 -0.0263333)
(5.875 0.01 -0.0265826)
(5.925 0.01 -0.0268305)
(5.975 0.01 -0.0270811)
(6.025 0.01 -0.027333)
(6.075 0.01 -0.0275823)
(6.125 0.01 -0.0278302)
(6.175 0.01 -0.0280807)
(6.225 0.01 -0.0283326)
(6.275 0.01 -0.0285819)
(6.325 0.01 -0.0288298)
(6.375 0.01 -0.0290804)
(6.425 0.01 -0.0293323)
(6.475 0.01 -0.0295815)
(6.525 0.01 -0.0298294)
(6.575 0.01 -0.03008)
(6.625 0.01 -0.0303319)
(6.675 0.01 -0.0305811)
(6.725 0.01 -0.030829)
(6.775 0.01 -0.0310796)
(6.825 0.01 -0.0313315)
(6.875 0.01 -0.0315807)
(6.925 0.01 -0.0318286)
(6.975 0.01 -0.0320792)
(7.025 0.01 -0.0323311)
(7.075 0.01 -0.0325803)
(7.125 0.01 -0.0328282)
(7.175 0.01 -0.0330787)
(7.225 0.01 -0.0333306)
(7.275 0.01 -0.0335798)
(7.325 0.01 -0.0338257)
(7.375 0.01 -0.0340712)
(7.425 0.01 -0.0343177)
(7.475 0.01 -0.0345653)
(7.525 0.01 -0.0348138)
(7.575 0.01 -0.0350627)
(7.625 0.01 -0.0353118)
(7.675 0.01 -0.0355609)
(7.725 0.01 -0.0358102)
(7.775 0.01 -0.0360596)
(7.825 0.01 -0.0363092)
(7.875 0.01 -0.0365589)
(7.925 0.01 -0.0368086)
(7.975 0.01 -0.0370584)
(8.025 0.01 -0.0373083)
(8.075 0.01 -0.0375581)
(8.125 0.01 -0.0378079)
(8.175 0.01 -0.0380577)
(8.225 0.01 -0.0383076)
(8.275 0.01 -0.0385574)
(8.325 0.01 -0.0388073)
(8.375 0.01 -0.0390572)
(8.425 0.01 -0.0393071)
(8.475 0.01 -0.039557)
(8.525 0.01 -0.0398069)
(8.575 0.01 -0.0400567)
(8.625 0.01 -0.0403066)
(8.675 0.01 -0.0405565)
(8.725 0.01 -0.0408064)
(8.775 0.01 -0.0410563)
(8.825 0.01 -0.0413061)
(8.875 0.01 -0.041556)
(8.925 0.01 -0.0418059)
(8.975 0.01 -0.0420558)
(9.025 0.01 -0.0423056)
(9.075 0.01 -0.0425555)
(9.125 0.01 -0.0428054)
(9.175 0.01 -0.0430553)
(9.225 0.01 -0.0433052)
(9.275 0.01 -0.043555)
(9.325 0.01 -0.0438049)
(9.375 0.01 -0.0440548)
(9.425 0.01 -0.0443046)
(9.475 0.01 -0.0445545)
(9.525 0.01 -0.0448044)
(9.575 0.01 -0.0450543)
(9.625 0.01 -0.0453041)
(9.675 0.01 -0.045554)
(9.725 0.01 -0.0458039)
(9.775 0.01 -0.0460537)
(9.825 0.01 -0.0463036)
(9.875 0.01 -0.0465535)
(9.925 0.01 -0.0468034)
(9.975 0.01 -0.0470532)
(10.025 0.01 -0.0473031)
(10.075 0.01 -0.047553)
(10.125 0.01 -0.0478029)
(10.175 0.01 -0.0480527)
(10.225 0.01 -0.0483026)
(10.275 0.01 -0.0485525)
(10.325 0.01 -0.0488023)
(10.375 0.01 -0.0490522)
(10.425 0.01 -0.0493021)
(10.475 0.01 -0.0495519)
(10.525 0.01 -0.0498018)
(10.575 0.01 -0.0500517)
(10.625 0.01 -0.0503016)
(10.675 0.01 -0.0505515)
(10.725 0.01 -0.0508013)
(10.775 0.01 -0.0510512)
(10.825 0.01 -0.0513011)
(10.875 0.01 -0.051551)
(10.925 0.01 -0.0518008)
(10.975 0.01 -0.0520507)
(11.025 0.01 -0.0523006)
(11.075 0.01 -0.0525505)
(11.125 0.01 -0.0528004)
(11.175 0.01 -0.0530503)
(11.225 0.01 -0.0533002)
(11.275 0.01 -0.0535501)
(11.325 0.01 -0.0537999)
(11.375 0.01 -0.0540498)
(11.425 0.01 -0.0542997)
(11.475 0.01 -0.0545497)
(11.525 0.01 -0.0547996)
(11.575 0.01 -0.0550495)
(11.625 0.01 -0.0552994)
(11.675 0.01 -0.0555492)
(11.725 0.01 -0.0557992)
(11.775 0.01 -0.056049)
(11.825 0.01 -0.056299)
(11.875 0.01 -0.0565488)
(11.925 0.01 -0.0567988)
(11.975 0.01 -0.0570487)
(12.025 0.01 -0.0572987)
(12.075 0.01 -0.0575485)
(12.125 0.01 -0.0577985)
(12.175 0.01 -0.0580483)
(12.225 0.01 -0.0582984)
(12.275 0.01 -0.0585482)
(12.325 0.01 -0.0587983)
(12.375 0.01 -0.059048)
(12.425 0.01 -0.0592982)
(12.475 0.01 -0.0595479)
(12.525 0.01 -0.0597981)
(12.575 0.01 -0.0600478)
(12.625 0.01 -0.060298)
(12.675 0.01 -0.0605476)
(12.725 0.01 -0.0607979)
(12.775 0.01 -0.0610475)
(12.825 0.01 -0.0612978)
(12.875 0.01 -0.0615473)
(12.925 0.01 -0.0617975)
(12.975 0.01 -0.0620472)
(13.025 0.01 -0.0622973)
(13.075 0.01 -0.0625471)
(13.125 0.01 -0.0627968)
(13.175 0.01 -0.0630472)
(13.225 0.01 -0.0632966)
(13.275 0.01 -0.0635467)
(13.325 0.01 -0.0637966)
(13.375 0.01 -0.0640467)
(13.425 0.01 -0.0642963)
(13.475 0.01 -0.0645462)
(13.525 0.01 -0.0647964)
(13.575 0.01 -0.0650462)
(13.625 0.01 -0.0652963)
(13.675 0.01 -0.0655445)
(13.725 0.01 -0.0657946)
(13.775 0.01 -0.0660436)
(13.825 0.01 -0.0662939)
(13.875 0.01 -0.0665434)
(13.925 0.01 -0.0667948)
(13.975 0.01 -0.0670447)
(14.025 0.01 -0.0672955)
(14.075 0.01 -0.067545)
(14.125 0.01 -0.0677957)
(14.175 0.01 -0.0680461)
(14.225 0.01 -0.0682969)
(14.275 0.01 -0.0685475)
(14.325 0.01 -0.068798)
(14.375 0.01 -0.0690482)
(14.425 0.01 -0.0692979)
(14.475 0.01 -0.0695484)
(14.525 0.01 -0.0697975)
(14.575 0.01 -0.0700482)
(14.625 0.01 -0.0702977)
(14.675 0.01 -0.0705467)
(14.725 0.01 -0.0707943)
(14.775 0.01 -0.0708202)
(14.825 0.01 -0.0704018)
(14.875 0.01 -0.0702106)
(14.925 0.01 -0.0704582)
(14.975 0.01 -0.0707084)
(0.025 0.01 0.00570834)
(0.075 0.01 0.00545833)
(0.125 0.01 0.00520834)
(0.175 0.01 0.00495833)
(0.225 0.01 0.00470834)
(0.275 0.01 0.00445833)
(0.325 0.01 0.00420834)
(0.375 0.01 0.00395834)
(0.425 0.01 0.00370833)
(0.475 0.01 0.00345833)
(0.525 0.01 0.00320833)
(0.575 0.01 0.00295833)
(0.625 0.01 0.00270834)
(0.675 0.01 0.00245833)
(0.725 0.01 0.00220834)
(0.775 0.01 0.00195833)
(0.825 0.01 0.00170833)
(0.875 0.01 0.00145833)
(0.925 0.01 0.00120833)
(0.975 0.01 0.000958335)
(1.025 0.01 0.000708335)
(1.075 0.01 0.000458335)
(1.125 0.01 0.000208334)
(1.175 0.01 -4.16665e-05)
(1.225 0.01 -0.000291666)
(1.275 0.01 -0.000541667)
(1.325 0.01 -0.000791667)
(1.375 0.01 -0.00104167)
(1.425 0.01 -0.00129167)
(1.475 0.01 -0.00154167)
(1.525 0.01 -0.00179167)
(1.575 0.01 -0.00204167)
(1.625 0.01 -0.00229167)
(1.675 0.01 -0.00254167)
(1.725 0.01 -0.00279166)
(1.775 0.01 -0.00304166)
(1.825 0.01 -0.00329167)
(1.875 0.01 -0.00354167)
(1.925 0.01 -0.00379167)
(1.975 0.01 -0.00404167)
(2.025 0.01 -0.00429167)
(2.075 0.01 -0.00454166)
(2.125 0.01 -0.00479167)
(2.175 0.01 -0.00504166)
(2.225 0.01 -0.00529167)
(2.275 0.01 -0.00554166)
(2.325 0.01 -0.00579167)
(2.375 0.01 -0.00604166)
(2.425 0.01 -0.00629166)
(2.475 0.01 -0.00654167)
(2.525 0.01 -0.00679166)
(2.575 0.01 -0.00704166)
(2.625 0.01 -0.00729167)
(2.675 0.01 -0.00754166)
(2.725 0.01 -0.00779167)
(2.775 0.01 -0.00804166)
(2.825 0.01 -0.00829168)
(2.875 0.01 -0.00854154)
(2.925 0.01 -0.00879316)
(2.97501 0.01 -0.00923454)
(3.02501 0.01 -0.0098763)
(3.075 0.01 -0.0104396)
(3.125 0.01 -0.0108602)
(3.175 0.01 -0.0112143)
(3.225 0.01 -0.0115338)
(3.275 0.01 -0.0118298)
(3.325 0.01 -0.0121122)
(3.375 0.01 -0.0123841)
(3.425 0.01 -0.0126497)
(3.475 0.01 -0.0129095)
(3.525 0.01 -0.0131673)
(3.575 0.01 -0.013428)
(3.625 0.01 -0.0136875)
(3.675 0.01 -0.0139402)
(3.725 0.01 -0.0141883)
(3.775 0.01 -0.0144357)
(3.825 0.01 -0.0146844)
(3.875 0.01 -0.0149321)
(3.925 0.01 -0.0151801)
(3.975 0.01 -0.0154293)
(4.025 0.01 -0.0156775)
(4.075 0.01 -0.0159219)
(4.125 0.01 -0.0161659)
(4.175 0.01 -0.0164138)
(4.225 0.01 -0.0166642)
(4.275 0.01 -0.0169126)
(4.325 0.01 -0.0171601)
(4.375 0.01 -0.0174105)
(4.425 0.01 -0.0176622)
(4.475 0.01 -0.0179114)
(4.525 0.01 -0.0181593)
(4.575 0.01 -0.0184099)
(4.625 0.01 -0.0186618)
(4.675 0.01 -0.0189111)
(4.725 0.01 -0.019159)
(4.775 0.01 -0.0194097)
(4.825 0.01 -0.0196616)
(4.875 0.01 -0.0199109)
(4.925 0.01 -0.0201589)
(4.975 0.01 -0.0204096)
(5.025 0.01 -0.0206615)
(5.075 0.01 -0.0209108)
(5.125 0.01 -0.0211588)
(5.175 0.01 -0.0214094)
(5.225 0.01 -0.0216613)
(5.275 0.01 -0.0219106)
(5.325 0.01 -0.0221586)
(5.375 0.01 -0.0224092)
(5.425 0.01 -0.0226611)
(5.475 0.01 -0.0229103)
(5.525 0.01 -0.0231583)
(5.575 0.01 -0.0234089)
(5.625 0.01 -0.0236608)
(5.675 0.01 -0.02391)
(5.725 0.01 -0.024158)
(5.775 0.01 -0.0244086)
(5.825 0.01 -0.0246605)
(5.875 0.01 -0.0249097)
(5.925 0.01 -0.0251577)
(5.975 0.01 -0.0254083)
(6.025 0.01 -0.0256601)
(6.075 0.01 -0.0259094)
(6.125 0.01 -0.0261573)
(6.175 0.01 -0.0264079)
(6.225 0.01 -0.0266598)
(6.275 0.01 -0.026909)
(6.325 0.01 -0.027157)
(6.375 0.01 -0.0274075)
(6.425 0.01 -0.0276594)
(6.475 0.01 -0.0279087)
(6.525 0.01 -0.0281566)
(6.575 0.01 -0.0284072)
(6.625 0.01 -0.028659)
(6.675 0.01 -0.0289083)
(6.725 0.01 -0.0291562)
(6.775 0.01 -0.0294068)
(6.825 0.01 -0.0296586)
(6.875 0.01 -0.0299079)
(6.925 0.01 -0.0301558)
(6.975 0.01 -0.0304064)
(7.025 0.01 -0.0306582)
(7.075 0.01 -0.0309075)
(7.125 0.01 -0.0311554)
(7.175 0.01 -0.0314059)
(7.225 0.01 -0.0316577)
(7.275 0.01 -0.0319069)
(7.325 0.01 -0.0321529)
(7.375 0.01 -0.0323984)
(7.425 0.01 -0.0326449)
(7.475 0.01 -0.0328925)
(7.525 0.01 -0.033141)
(7.575 0.01 -0.0333899)
(7.625 0.01 -0.033639)
(7.675 0.01 -0.0338881)
(7.725 0.01 -0.0341374)
(7.775 0.01 -0.0343868)
(7.825 0.01 -0.0346364)
(7.875 0.01 -0.0348861)
(7.925 0.01 -0.0351359)
(7.975 0.01 -0.0353857)
(8.025 0.01 -0.0356355)
(8.075 0.01 -0.0358853)
(8.125 0.01 -0.0361352)
(8.175 0.01 -0.036385)
(8.225 0.01 -0.0366348)
(8.275 0.01 -0.0368847)
(8.325 0.01 -0.0371346)
(8.375 0.01 -0.0373845)
(8.425 0.01 -0.0376344)
(8.475 0.01 -0.0378842)
(8.525 0.01 -0.0381341)
(8.575 0.01 -0.038384)
(8.625 0.01 -0.0386339)
(8.675 0.01 -0.0388837)
(8.725 0.01 -0.0391336)
(8.775 0.01 -0.0393835)
(8.825 0.01 -0.0396334)
(8.875 0.01 -0.0398833)
(8.925 0.01 -0.0401331)
(8.975 0.01 -0.040383)
(9.025 0.01 -0.0406329)
(9.075 0.01 -0.0408828)
(9.125 0.01 -0.0411327)
(9.175 0.01 -0.0413825)
(9.225 0.01 -0.0416324)
(9.275 0.01 -0.0418823)
(9.325 0.01 -0.0421322)
(9.375 0.01 -0.042382)
(9.425 0.01 -0.0426319)
(9.475 0.01 -0.0428818)
(9.525 0.01 -0.0431316)
(9.575 0.01 -0.0433815)
(9.625 0.01 -0.0436314)
(9.675 0.01 -0.0438813)
(9.725 0.01 -0.0441311)
(9.775 0.01 -0.044381)
(9.825 0.01 -0.0446309)
(9.875 0.01 -0.0448807)
(9.925 0.01 -0.0451306)
(9.975 0.01 -0.0453805)
(10.025 0.01 -0.0456304)
(10.075 0.01 -0.0458802)
(10.125 0.01 -0.0461301)
(10.175 0.01 -0.04638)
(10.225 0.01 -0.0466299)
(10.275 0.01 -0.0468797)
(10.325 0.01 -0.0471296)
(10.375 0.01 -0.0473795)
(10.425 0.01 -0.0476293)
(10.475 0.01 -0.0478792)
(10.525 0.01 -0.0481291)
(10.575 0.01 -0.048379)
(10.625 0.01 -0.0486289)
(10.675 0.01 -0.0488787)
(10.725 0.01 -0.0491286)
(10.775 0.01 -0.0493785)
(10.825 0.01 -0.0496284)
(10.875 0.01 -0.0498782)
(10.925 0.01 -0.0501281)
(10.975 0.01 -0.050378)
(11.025 0.01 -0.0506279)
(11.075 0.01 -0.0508778)
(11.125 0.01 -0.0511277)
(11.175 0.01 -0.0513776)
(11.225 0.01 -0.0516274)
(11.275 0.01 -0.0518773)
(11.325 0.01 -0.0521272)
(11.375 0.01 -0.0523771)
(11.425 0.01 -0.052627)
(11.475 0.01 -0.0528769)
(11.525 0.01 -0.0531268)
(11.575 0.01 -0.0533767)
(11.625 0.01 -0.0536266)
(11.675 0.01 -0.0538765)
(11.725 0.01 -0.0541264)
(11.775 0.01 -0.0543763)
(11.825 0.01 -0.0546263)
(11.875 0.01 -0.0548761)
(11.925 0.01 -0.0551261)
(11.975 0.01 -0.0553759)
(12.025 0.01 -0.055626)
(12.075 0.01 -0.0558758)
(12.125 0.01 -0.0561258)
(12.175 0.01 -0.0563756)
(12.225 0.01 -0.0566257)
(12.275 0.01 -0.0568755)
(12.325 0.01 -0.0571256)
(12.375 0.01 -0.0573753)
(12.425 0.01 -0.0576254)
(12.475 0.01 -0.0578752)
(12.525 0.01 -0.0581253)
(12.575 0.01 -0.0583751)
(12.625 0.01 -0.0586253)
(12.675 0.01 -0.0588749)
(12.725 0.01 -0.0591252)
(12.775 0.01 -0.0593748)
(12.825 0.01 -0.0596251)
(12.875 0.01 -0.0598746)
(12.925 0.01 -0.0601248)
(12.975 0.01 -0.0603745)
(13.025 0.01 -0.0606246)
(13.075 0.01 -0.0608744)
(13.125 0.01 -0.0611241)
(13.175 0.01 -0.0613745)
(13.225 0.01 -0.0616239)
(13.275 0.01 -0.061874)
(13.325 0.01 -0.0621239)
(13.375 0.01 -0.062374)
(13.425 0.01 -0.0626236)
(13.475 0.01 -0.0628735)
(13.525 0.01 -0.0631236)
(13.575 0.01 -0.0633735)
(13.625 0.01 -0.0636236)
(13.675 0.01 -0.0638718)
(13.725 0.01 -0.0641219)
(13.775 0.01 -0.0643709)
(13.825 0.01 -0.0646212)
(13.875 0.01 -0.0648707)
(13.925 0.01 -0.0651221)
(13.975 0.01 -0.065372)
(14.025 0.01 -0.0656228)
(14.075 0.01 -0.0658723)
(14.125 0.01 -0.066123)
(14.175 0.01 -0.0663733)
(14.225 0.01 -0.0666242)
(14.275 0.01 -0.0668748)
(14.325 0.01 -0.0671253)
(14.375 0.01 -0.0673755)
(14.425 0.01 -0.0676252)
(14.475 0.01 -0.0678757)
(14.525 0.01 -0.0681248)
(14.575 0.01 -0.0683755)
(14.625 0.01 -0.0686249)
(14.675 0.01 -0.0688741)
(14.725 0.01 -0.0691209)
(14.775 0.01 -0.0691468)