/*--------------------------------*- C++ -*----------------------------------*\
| =========                 |                                                 |
| \\      /  F ield         | foam-extend: Open Source CFD                    |
|  \\    /   O peration     | Version:     3.2                                |
|   \\  /    A nd           | Web:         http://www.foam-extend.org         |
|    \\/     M anipulation  | For copyright notice see file Copyright         |
\*---------------------------------------------------------------------------*/
FoamFile
{
    version     2.0;
    format      ascii;
    class       surfaceScalarField;
    location    "50";
    object      meshPhi;
}
// * * * * * * * * * * * * * * * * * * * * * * * * * * * * * * * * * * * * * //

dimensions      [0 3 -1 0 0 0 0];

internalField   nonuniform List<scalar> 
10482
(
0
0
0
0
0
0
0
0
0
0
0
0
0
0
0
0
0
0
0
0
0
0
0
0
0
0
0
0
0
0
0
0
0
0
0
0
0
0
0
0
0
0
0
0
0
0
0
0
0
0
0
0
0
0
0
0
0
0
0
0
0
0
0
0
0
0
0
0
0
0
0
0
0
0
0
0
0
0
0
0
0
0
0
0
0
0
0
0
0
0
0
-1.73472e-19
4.10865e-33
5.20417e-19
0
-1.09866e-18
0
-6.36065e-19
4.93442e-19
1.95446e-17
0
-1.30551e-16
4.93442e-19
7.17886e-16
4.93442e-19
-3.73168e-15
1.33635e-28
1.79702e-14
0
-7.2493e-14
4.93442e-19
1.9373e-13
0
6.41111e-14
9.86905e-19
-4.77269e-12
0
5.26446e-11
4.9349e-19
5.20757e-08
-4.93568e-19
1.78845e-07
0
2.85811e-07
0
3.33316e-07
4.93505e-19
3.5842e-07
-4.93492e-19
3.7392e-07
-4.93499e-19
3.83789e-07
0
3.90494e-07
0
3.94998e-07
-4.93491e-19
3.97487e-07
-4.93491e-19
1.64361e-07
-3.31747e-24
-2.37861e-07
0
-1.3656e-07
4.93489e-19
2.69813e-07
1.23388e-24
1.34925e-07
0
-2.73361e-07
1.2324e-24
-1.39043e-07
4.93485e-19
2.68459e-07
4.9349e-19
1.34754e-07
2.9752e-24
-2.70769e-07
0
-1.36907e-07
0
2.66925e-07
9.86975e-19
1.3143e-07
0
-2.73191e-07
9.86975e-19
-1.38605e-07
-9.86979e-19
2.65339e-07
0
1.31597e-07
0
-2.71285e-07
0
-1.37364e-07
0
2.65434e-07
9.86976e-19
1.3164e-07
-9.8698e-19
-2.71003e-07
-9.86978e-19
-1.37199e-07
-9.86973e-19
2.6541e-07
9.86978e-19
1.31637e-07
9.86974e-19
-2.70927e-07
0
-1.37153e-07
9.86979e-19
2.65397e-07
0
1.31624e-07
-9.86973e-19
-2.70925e-07
9.86978e-19
-1.37164e-07
0
2.65369e-07
9.86975e-19
1.31598e-07
0
-2.7095e-07
-9.86978e-19
-1.37206e-07
-9.86974e-19
2.65315e-07
0
1.31557e-07
-9.86979e-19
-2.70984e-07
-9.86978e-19
-1.37257e-07
0
2.65254e-07
0
1.31515e-07
0
-2.71013e-07
2.44621e-24
-1.3731e-07
-9.86979e-19
2.65186e-07
0
1.31472e-07
0
-2.71038e-07
-9.86976e-19
-1.3736e-07
0
2.65115e-07
-9.86975e-19
1.31427e-07
9.8698e-19
-2.7106e-07
1.97395e-18
-1.3741e-07
0
2.65039e-07
-9.86977e-19
1.31379e-07
5.91537e-24
-2.71084e-07
9.86976e-19
-1.37465e-07
-9.86974e-19
2.6496e-07
9.86975e-19
1.3133e-07
-9.86979e-19
-2.71106e-07
-9.86977e-19
-1.37518e-07
-5.91776e-24
2.64878e-07
0
1.31279e-07
0
-2.7113e-07
0
-1.37575e-07
9.86973e-19
2.64791e-07
0
1.31226e-07
0
-2.71155e-07
-9.86975e-19
-1.37636e-07
9.86979e-19
2.64704e-07
-9.86973e-19
1.31175e-07
9.86974e-19
-2.71185e-07
9.86978e-19
-1.37701e-07
0
2.64612e-07
-2.43889e-24
1.31127e-07
-9.86973e-19
-2.71177e-07
0
-1.37745e-07
0
2.64523e-07
9.86977e-19
1.31003e-07
-2.83741e-24
-3.04782e-07
-9.8698e-19
-4.38184e-07
-9.8698e-19
-4.03387e-07
9.86982e-19
-4.02852e-07
1.97396e-18
-4.02559e-07
9.86981e-19
-4.02405e-07
0
-4.02332e-07
0
-4.02253e-07
9.86981e-19
-4.02128e-07
9.86981e-19
-4.01989e-07
1.97396e-18
-4.01877e-07
-9.86981e-19
-4.01793e-07
-9.86981e-19
-4.01732e-07
0
-4.01694e-07
0
-4.01672e-07
0
-4.01653e-07
1.97396e-18
-4.01634e-07
1.97396e-18
-4.01605e-07
-1.97396e-18
-4.01569e-07
0
-4.01552e-07
-1.97396e-18
-4.01559e-07
0
-4.01565e-07
0
-4.01569e-07
0
-4.01573e-07
0
-4.01574e-07
0
-4.01567e-07
-5.18874e-25
-4.01559e-07
0
-4.01557e-07
0
-4.01553e-07
0
-4.0155e-07
0
-4.01547e-07
0
-4.01538e-07
0
-4.01529e-07
0
-4.01526e-07
0
-4.01525e-07
0
-4.01519e-07
0
-4.01504e-07
0
-4.01493e-07
-1.97396e-18
-4.01489e-07
0
-4.01487e-07
0
-4.01483e-07
-5.18516e-25
-4.01477e-07
0
-4.01471e-07
0
-4.01466e-07
0
-4.01459e-07
1.97396e-18
-4.01447e-07
0
-4.01432e-07
0
-4.01418e-07
-1.97396e-18
-4.0141e-07
-1.97396e-18
-4.01404e-07
3.94792e-18
-4.01392e-07
-5.18298e-25
-4.01375e-07
0
-4.01357e-07
0
-4.01342e-07
0
-4.01332e-07
0
-4.01321e-07
0
-4.01306e-07
0
-4.0129e-07
0
-4.01275e-07
-1.97396e-18
-4.0126e-07
5.18187e-25
-4.01242e-07
-1.97396e-18
-4.01226e-07
1.97396e-18
-4.01213e-07
0
-4.01193e-07
1.97396e-18
-4.01167e-07
-1.97396e-18
-4.01142e-07
-1.97396e-18
-4.01121e-07
1.97396e-18
-4.01101e-07
1.97396e-18
-4.01078e-07
1.97396e-18
-4.01056e-07
5.17894e-25
-4.01038e-07
-1.97396e-18
-4.01017e-07
1.97396e-18
-4.00989e-07
-5.18152e-25
-4.00962e-07
0
-4.00938e-07
0
-4.00915e-07
1.97396e-18
-4.00888e-07
1.97396e-18
-4.00858e-07
5.18167e-25
-4.00826e-07
-3.94793e-18
-4.00799e-07
5.17801e-25
-4.0078e-07
1.97396e-18
-4.00758e-07
1.97396e-18
-4.0073e-07
0
-4.00701e-07
1.97396e-18
-4.00679e-07
-1.97396e-18
-4.00652e-07
-5.17107e-25
-4.00626e-07
-1.97396e-18
-4.00588e-07
0
-4.00577e-07
-1.97396e-18
-4.00542e-07
1.97396e-18
-4.00522e-07
0
-4.00476e-07
-1.97396e-18
-4.00466e-07
-1.97396e-18
-4.00432e-07
1.97397e-18
-4.00404e-07
1.97396e-18
-4.00386e-07
-1.97397e-18
-4.0036e-07
5.24967e-25
-4.00329e-07
0
-4.00309e-07
1.97395e-18
-4.00285e-07
1.97397e-18
-4.00261e-07
-1.97395e-18
-4.00234e-07
5.10419e-25
-4.00221e-07
3.94789e-18
-4.00187e-07
1.97398e-18
-4.00178e-07
5.29569e-25
-4.00143e-07
0
-4.00142e-07
-1.97394e-18
-4.00096e-07
0
-4.00087e-07
1.97393e-18
-4.00095e-07
0
-4.00008e-07
0
-4.00042e-07
5.26887e-25
-3.99931e-07
-4.99695e-25
-4.00047e-07
-1.974e-18
-3.99872e-07
0
-3.99935e-07
0
-3.99824e-07
4.83646e-25
-3.99853e-07
0
-4.00003e-07
-1.97393e-18
-3.99619e-07
0
-3.99677e-07
0
-3.99896e-07
1.97399e-18
-3.99905e-07
0
-3.99415e-07
-1.97399e-18
-3.99531e-07
1.97393e-18
-3.99892e-07
-1.974e-18
-3.99727e-07
5.59293e-25
-3.99026e-07
-1.97401e-18
-3.99015e-07
1.97391e-18
-3.99444e-07
3.94804e-18
-3.99513e-07
-5.46373e-25
-3.99243e-07
-1.97403e-18
-3.99029e-07
0
-3.99449e-07
-1.97404e-18
-3.99693e-07
5.02694e-25
-3.99851e-07
-5.45576e-25
-3.99477e-07
4.89409e-25
-3.99389e-07
0
-3.99254e-07
-1.97388e-18
-3.99426e-07
1.97405e-18
-3.99447e-07
-3.94776e-18
-3.99789e-07
1.97404e-18
-3.99697e-07
3.94778e-18
-3.99911e-07
-6.21369e-25
-3.99814e-07
1.9739e-18
-3.99799e-07
1.97403e-18
-3.99856e-07
0
-3.99735e-07
-1.97466e-18
-3.87772e-07
-1.97469e-18
-2.71913e-07
-1.97239e-18
-8.46762e-08
0
-8.28289e-11
1.97376e-18
5.76113e-12
-1.51565e-12
0
0
0
0
0
0
0
0
0
0
0
0
0
0
0
0
0
0
0
0
0
0
0
0
0
0
0
0
0
0
0
0
0
0
0
0
0
0
0
0
0
0
0
0
0
0
0
0
0
0
0
0
0
0
0
0
0
0
0
0
0
0
0
0
0
0
0
0
0
0
0
0
0
0
0
0
0
0
0
0
0
0
0
0
4.9343e-19
-2.89121e-20
-4.9343e-19
3.85562e-34
0
8.67362e-20
0
-6.93889e-19
0
2.71773e-18
4.93422e-19
-7.57496e-18
4.93422e-19
1.78677e-17
0
-5.89228e-17
0
3.73255e-16
4.93422e-19
-2.44878e-15
0
1.28516e-14
-5.43175e-28
-5.34038e-14
0
1.80082e-13
6.20403e-27
-5.09728e-13
-4.93411e-19
1.34639e-12
3.13916e-26
-7.74422e-12
-4.93148e-19
1.2747e-10
0
5.2085e-08
1.71749e-24
1.78484e-07
0
2.85281e-07
4.93803e-19
3.32852e-07
4.93841e-19
3.57969e-07
0
3.73467e-07
1.32308e-24
3.83339e-07
4.93844e-19
3.9003e-07
0
3.94558e-07
4.93848e-19
3.96648e-07
4.93858e-19
1.63965e-07
-6.66859e-24
-2.36493e-07
4.93866e-19
-1.3587e-07
-1.48157e-18
2.68327e-07
-4.93867e-19
1.34309e-07
0
-2.71873e-07
-9.87721e-19
-1.38422e-07
0
2.66978e-07
4.93859e-19
1.3414e-07
-4.93849e-19
-2.6929e-07
9.87718e-19
-1.36295e-07
0
2.65449e-07
0
1.30824e-07
0
-2.7171e-07
0
-1.37992e-07
9.87698e-19
2.63868e-07
9.87703e-19
1.30991e-07
0
-2.69811e-07
0
-1.36754e-07
0
2.63965e-07
9.87708e-19
1.31034e-07
9.87697e-19
-2.6953e-07
0
-1.36589e-07
9.87698e-19
2.63942e-07
0
1.31032e-07
0
-2.69454e-07
0
-1.36543e-07
0
2.63928e-07
0
1.31019e-07
0
-2.69452e-07
-9.87702e-19
-1.36554e-07
0
2.639e-07
-9.87706e-19
1.30993e-07
0
-2.69477e-07
9.87702e-19
-1.36596e-07
-9.87711e-19
2.63847e-07
0
1.30951e-07
9.87698e-19
-2.69511e-07
-5.09578e-24
-1.36647e-07
-9.87711e-19
2.63786e-07
9.87707e-19
1.30909e-07
-9.87709e-19
-2.69541e-07
5.09472e-24
-1.36699e-07
-9.87711e-19
2.63718e-07
-9.87702e-19
1.30866e-07
0
-2.69565e-07
-9.87701e-19
-1.36749e-07
9.8771e-19
2.63647e-07
9.87706e-19
1.30821e-07
0
-2.69587e-07
1.97541e-18
-1.368e-07
0
2.63571e-07
-5.12149e-24
1.30774e-07
1.23186e-23
-2.69611e-07
-5.09113e-24
-1.36854e-07
0
2.63492e-07
9.877e-19
1.30725e-07
-9.87709e-19
-2.69633e-07
0
-1.36908e-07
0
2.6341e-07
0
1.30674e-07
-9.87696e-19
-2.69658e-07
0
-1.36965e-07
-1.2286e-23
2.63324e-07
5.11927e-24
1.30621e-07
9.87709e-19
-2.69682e-07
-9.877e-19
-1.37026e-07
-9.87697e-19
2.63237e-07
9.87705e-19
1.3057e-07
0
-2.69712e-07
1.97541e-18
-1.3709e-07
0
2.63145e-07
-5.11904e-24
1.30522e-07
1.23074e-23
-2.69706e-07
0
-1.37132e-07
0
2.63053e-07
0
1.30359e-07
-8.80631e-24
-3.03639e-07
1.71051e-24
-4.37296e-07
0
-4.03013e-07
9.87699e-19
-4.02395e-07
9.87697e-19
-4.021e-07
9.87698e-19
-4.01943e-07
-9.87697e-19
-4.01872e-07
-9.877e-19
-4.01792e-07
-1.9754e-18
-4.01667e-07
9.87695e-19
-4.01529e-07
-9.87699e-19
-4.01417e-07
-9.87693e-19
-4.01333e-07
0
-4.01272e-07
0
-4.01234e-07
1.97539e-18
-4.01212e-07
0
-4.01193e-07
0
-4.01174e-07
1.9754e-18
-4.01145e-07
-1.9754e-18
-4.01109e-07
0
-4.01093e-07
0
-4.01099e-07
1.9754e-18
-4.01105e-07
0
-4.01109e-07
0
-4.01113e-07
0
-4.01114e-07
0
-4.01107e-07
5.44743e-24
-4.01099e-07
0
-4.01097e-07
0
-4.01093e-07
1.97539e-18
-4.0109e-07
1.97539e-18
-4.01087e-07
1.97539e-18
-4.01078e-07
-1.97539e-18
-4.01069e-07
0
-4.01066e-07
-1.97539e-18
-4.01065e-07
0
-4.01059e-07
-1.97539e-18
-4.01044e-07
0
-4.01033e-07
1.97539e-18
-4.01029e-07
0
-4.01027e-07
0
-4.01023e-07
0
-4.01017e-07
0
-4.01011e-07
0
-4.01006e-07
0
-4.00999e-07
0
-4.00987e-07
0
-4.00972e-07
0
-4.00958e-07
0
-4.0095e-07
3.95078e-18
-4.00944e-07
-1.97539e-18
-4.00932e-07
5.44666e-24
-4.00915e-07
0
-4.00897e-07
0
-4.00882e-07
-1.97538e-18
-4.00872e-07
-5.44655e-24
-4.00861e-07
5.44625e-24
-4.00846e-07
0
-4.0083e-07
0
-4.00815e-07
1.97539e-18
-4.008e-07
-1.97539e-18
-4.00782e-07
1.97539e-18
-4.00767e-07
0
-4.00753e-07
-1.97538e-18
-4.00733e-07
-1.97539e-18
-4.00707e-07
0
-4.00682e-07
0
-4.00661e-07
0
-4.00641e-07
0
-4.00618e-07
5.44419e-24
-4.00596e-07
-1.97538e-18
-4.00579e-07
1.97539e-18
-4.00557e-07
-5.44348e-24
-4.00529e-07
0
-4.00502e-07
1.97539e-18
-4.00479e-07
-5.44292e-24
-4.00456e-07
-1.97538e-18
-4.00429e-07
0
-4.00398e-07
1.97539e-18
-4.00367e-07
0
-4.00339e-07
3.95077e-18
-4.00321e-07
1.97539e-18
-4.00299e-07
-5.44129e-24
-4.00271e-07
1.97538e-18
-4.00241e-07
-1.97538e-18
-4.00219e-07
0
-4.00193e-07
-1.97538e-18
-4.00167e-07
0
-4.00128e-07
1.97539e-18
-4.00118e-07
-1.97538e-18
-4.00083e-07
1.97538e-18
-4.00063e-07
5.42742e-24
-4.00017e-07
-5.45112e-24
-4.00007e-07
3.95075e-18
-3.99973e-07
5.45038e-24
-3.99945e-07
1.97537e-18
-3.99927e-07
-1.9754e-18
-3.99901e-07
-5.42406e-24
-3.9987e-07
0
-3.9985e-07
5.42351e-24
-3.99826e-07
0
-3.99802e-07
1.97536e-18
-3.99775e-07
1.97541e-18
-3.99762e-07
3.9507e-18
-3.99728e-07
-1.97541e-18
-3.99719e-07
1.97534e-18
-3.99684e-07
0
-3.99683e-07
-5.40783e-24
-3.99638e-07
0
-3.99628e-07
0
-3.99636e-07
1.97545e-18
-3.99549e-07
0
-3.99583e-07
-5.41564e-24
-3.99473e-07
1.9753e-18
-3.99587e-07
1.97546e-18
-3.99414e-07
1.9753e-18
-3.99475e-07
1.97546e-18
-3.99365e-07
-1.97533e-18
-3.99394e-07
-1.97544e-18
-3.99543e-07
-1.97532e-18
-3.99162e-07
-1.97544e-18
-3.99218e-07
5.45503e-24
-3.99437e-07
1.97543e-18
-3.99445e-07
1.97533e-18
-3.98959e-07
5.46655e-24
-3.99073e-07
1.97532e-18
-3.99432e-07
1.97545e-18
-3.99267e-07
-1.9753e-18
-3.9857e-07
0
-3.98558e-07
0
-3.98984e-07
1.97549e-18
-3.99054e-07
5.37076e-24
-3.98784e-07
-1.97552e-18
-3.98573e-07
0
-3.9899e-07
0
-3.99234e-07
1.97521e-18
-3.99391e-07
5.37255e-24
-3.9902e-07
-5.48629e-24
-3.9893e-07
0
-3.98797e-07
1.97522e-18
-3.98967e-07
0
-3.9899e-07
0
-3.9933e-07
-1.97555e-18
-3.99239e-07
0
-3.99451e-07
5.24365e-24
-3.99356e-07
1.97525e-18
-3.99342e-07
5.33305e-24
-3.99395e-07
1.97515e-18
-3.99267e-07
0
-3.87145e-07
1.41351e-24
-2.71469e-07
-1.97102e-18
-8.47912e-08
-3.94773e-18
-2.58315e-10
-1.16304e-26
5.45591e-12
-1.0246e-12
0
0
0
0
0
0
0
0
0
0
0
0
0
0
0
0
0
0
0
0
0
0
0
0
0
0
0
0
0
0
0
0
0
0
0
0
0
0
0
3.77161e-33
0
3.77161e-33
0
0
0
0
0
0
0
0
0
0
0
0
0
0
0
0
0
0
0
0
0
0
0
0
0
0
0
0
0
0
0
0
0
0
0
0
0
0
0
0
0
0
4.93433e-19
-8.67362e-20
4.93433e-19
1.4456e-19
0
-2.31296e-19
0
-2.02384e-19
0
3.00685e-18
0
-1.45139e-17
0
4.97738e-17
-4.93433e-19
-1.39051e-16
4.93433e-19
3.64321e-16
-4.93433e-19
-1.06348e-15
-4.93433e-19
3.52766e-15
-4.93442e-19
-1.15367e-14
4.93442e-19
3.76462e-14
-3.24592e-27
-1.56443e-13
0
1.18551e-12
-9.86946e-19
-1.67145e-11
-4.93076e-19
2.41805e-10
-4.93833e-19
5.20297e-08
0
1.777e-07
4.94461e-19
2.84051e-07
-4.94491e-19
3.31563e-07
-4.9459e-19
3.56601e-07
-4.94591e-19
3.7205e-07
-4.94643e-19
3.81892e-07
-4.33979e-24
3.88565e-07
4.94675e-19
3.93126e-07
-8.17205e-24
3.94569e-07
4.94679e-19
1.62867e-07
-4.9468e-19
-2.34389e-07
-4.947e-19
-1.34744e-07
1.0087e-23
2.65927e-07
-9.8941e-19
1.3328e-07
0
-2.69483e-07
3.97896e-24
-1.37379e-07
-4.94686e-19
2.64605e-07
9.89379e-19
1.33113e-07
1.00605e-23
-2.66916e-07
0
-1.35267e-07
0
2.63085e-07
0
1.29813e-07
9.89352e-19
-2.6933e-07
-9.89348e-19
-1.36962e-07
-9.89332e-19
2.61512e-07
9.89341e-19
1.29979e-07
0
-2.67442e-07
0
-1.35728e-07
0
2.61612e-07
0
1.30023e-07
-2.00501e-23
-2.67162e-07
0
-1.35563e-07
0
2.61589e-07
-9.89335e-19
1.30021e-07
0
-2.67087e-07
0
-1.35518e-07
-9.8935e-19
2.61576e-07
0
1.30008e-07
9.89348e-19
-2.67085e-07
0
-1.35528e-07
9.89352e-19
2.61548e-07
0
1.29981e-07
9.89348e-19
-2.6711e-07
0
-1.3557e-07
1.97869e-18
2.61495e-07
9.89338e-19
1.2994e-07
-2.00477e-23
-2.67144e-07
-7.89467e-24
-1.35621e-07
-9.89349e-19
2.61434e-07
-9.89337e-19
1.29898e-07
9.8933e-19
-2.67173e-07
0
-1.35673e-07
-1.99562e-23
2.61366e-07
1.97868e-18
1.29855e-07
0
-2.67198e-07
0
-1.35723e-07
1.99549e-23
2.61296e-07
7.98305e-24
1.2981e-07
2.00476e-23
-2.6722e-07
9.89344e-19
-1.35774e-07
0
2.6122e-07
9.89334e-19
1.29763e-07
9.89345e-19
-2.67244e-07
9.89333e-19
-1.35827e-07
0
2.61142e-07
9.89335e-19
1.29714e-07
-2.00476e-23
-2.67266e-07
0
-1.3588e-07
1.97865e-18
2.6106e-07
9.89343e-19
1.29663e-07
0
-2.67291e-07
9.89348e-19
-1.35938e-07
-9.89345e-19
2.60974e-07
-9.89331e-19
1.29611e-07
0
-2.67316e-07
-9.89334e-19
-1.35998e-07
1.99453e-23
2.60888e-07
9.89338e-19
1.2956e-07
1.97869e-18
-2.67346e-07
-9.89341e-19
-1.36062e-07
0
2.60796e-07
-9.89338e-19
1.29512e-07
-9.89343e-19
-2.67339e-07
-9.89337e-19
-1.36105e-07
1.97867e-18
2.60711e-07
-9.89345e-19
1.29307e-07
-1.50783e-23
-3.01742e-07
-1.97864e-18
-4.35466e-07
9.89324e-19
-4.01677e-07
0
-4.00869e-07
-9.89324e-19
-4.00599e-07
0
-4.00439e-07
-9.893e-19
-4.00371e-07
0
-4.0029e-07
9.89318e-19
-4.00166e-07
9.893e-19
-4.00028e-07
-9.89324e-19
-3.99916e-07
9.89314e-19
-3.99833e-07
-9.89313e-19
-3.99772e-07
0
-3.99734e-07
0
-3.99711e-07
-1.97863e-18
-3.99693e-07
-1.97861e-18
-3.99674e-07
0
-3.99645e-07
0
-3.99609e-07
0
-3.99593e-07
0
-3.99599e-07
1.77607e-23
-3.99606e-07
0
-3.99609e-07
0
-3.99614e-07
0
-3.99614e-07
-1.97862e-18
-3.99607e-07
0
-3.99599e-07
0
-3.99597e-07
-1.97861e-18
-3.99593e-07
0
-3.9959e-07
0
-3.99587e-07
0
-3.99579e-07
-1.97862e-18
-3.9957e-07
1.97861e-18
-3.99566e-07
0
-3.99566e-07
0
-3.99559e-07
-1.9786e-18
-3.99545e-07
0
-3.99533e-07
0
-3.99529e-07
0
-3.99528e-07
1.9786e-18
-3.99523e-07
1.97861e-18
-3.99517e-07
0
-3.99511e-07
0
-3.99506e-07
-1.97862e-18
-3.99499e-07
-1.97861e-18
-3.99487e-07
1.77589e-23
-3.99473e-07
0
-3.99459e-07
0
-3.9945e-07
-1.97862e-18
-3.99444e-07
0
-3.99433e-07
-1.97861e-18
-3.99416e-07
0
-3.99398e-07
1.9786e-18
-3.99383e-07
1.97862e-18
-3.99372e-07
-1.77567e-23
-3.99361e-07
-1.97859e-18
-3.99347e-07
1.97859e-18
-3.99331e-07
0
-3.99316e-07
1.97861e-18
-3.99301e-07
0
-3.99283e-07
0
-3.99267e-07
0
-3.99254e-07
1.97859e-18
-3.99234e-07
0
-3.99208e-07
-1.97859e-18
-3.99183e-07
1.77509e-23
-3.99162e-07
1.97859e-18
-3.99142e-07
0
-3.99119e-07
-1.97859e-18
-3.99098e-07
-1.97861e-18
-3.9908e-07
-1.97859e-18
-3.99058e-07
1.97859e-18
-3.99031e-07
0
-3.99004e-07
1.97861e-18
-3.9898e-07
1.97859e-18
-3.98957e-07
0
-3.9893e-07
-1.97861e-18
-3.989e-07
-1.97859e-18
-3.98868e-07
1.97861e-18
-3.98841e-07
0
-3.98822e-07
-1.97859e-18
-3.98801e-07
1.97859e-18
-3.98773e-07
-3.95719e-18
-3.98743e-07
-1.97859e-18
-3.98721e-07
-1.77352e-23
-3.98695e-07
1.9786e-18
-3.98669e-07
-1.77293e-23
-3.98631e-07
0
-3.9862e-07
1.77236e-23
-3.98586e-07
0
-3.98565e-07
1.77153e-23
-3.9852e-07
0
-3.98509e-07
1.77104e-23
-3.98476e-07
1.97863e-18
-3.98448e-07
0
-3.9843e-07
3.95722e-18
-3.98404e-07
-1.97858e-18
-3.98373e-07
0
-3.98353e-07
1.97859e-18
-3.98329e-07
-1.77453e-23
-3.98305e-07
3.95711e-18
-3.98278e-07
-1.77475e-23
-3.98265e-07
-1.97853e-18
-3.98231e-07
-1.97863e-18
-3.98222e-07
-1.76893e-23
-3.98188e-07
-1.97864e-18
-3.98186e-07
3.95702e-18
-3.98141e-07
0
-3.98131e-07
-1.97849e-18
-3.9814e-07
0
-3.98054e-07
1.97849e-18
-3.98086e-07
1.97869e-18
-3.97978e-07
0
-3.9809e-07
0
-3.97919e-07
-1.78166e-23
-3.97979e-07
1.75955e-23
-3.9787e-07
-1.9785e-18
-3.97899e-07
-3.95734e-18
-3.98045e-07
1.97853e-18
-3.97668e-07
0
-3.97723e-07
3.95702e-18
-3.97941e-07
-1.97867e-18
-3.97947e-07
0
-3.97466e-07
-3.95731e-18
-3.97579e-07
-1.77024e-23
-3.97934e-07
3.95739e-18
-3.9777e-07
1.97844e-18
-3.97079e-07
0
-3.97066e-07
1.97843e-18
-3.97489e-07
-1.77766e-23
-3.97558e-07
0
-3.97291e-07
-1.9788e-18
-3.97081e-07
0
-3.97495e-07
1.97884e-18
-3.97739e-07
-1.97835e-18
-3.97893e-07
0
-3.97526e-07
-1.77823e-23
-3.97436e-07
0
-3.97304e-07
1.97835e-18
-3.97472e-07
0
-3.97497e-07
-1.97833e-18
-3.97833e-07
-1.97886e-18
-3.97745e-07
0
-3.97954e-07
1.9788e-18
-3.97861e-07
1.97837e-18
-3.97846e-07
-1.9788e-18
-3.97901e-07
0
-3.97763e-07
2.27211e-23
-3.85415e-07
7.72596e-24
-2.70183e-07
0
-8.46037e-08
1.97408e-18
-3.48437e-10
1.97374e-18
5.25582e-11
-2.48167e-12
0
0
0
0
0
0
0
0
0
0
0
0
0
0
0
0
0
0
0
0
0
0
0
0
0
0
0
0
0
0
0
0
0
0
0
0
0
0
0
0
0
0
0
0
0
0
0
0
0
0
0
0
0
0
0
0
0
0
0
0
0
0
0
0
0
0
0
0
0
0
0
0
0
0
0
0
0
0
0
0
0
0
0
0
0
-5.78241e-20
-4.93433e-19
2.31296e-19
4.93433e-19
-8.96274e-19
0
2.3997e-18
0
-5.14635e-18
-4.93433e-19
1.25767e-17
4.93433e-19
-6.59611e-17
0
4.08226e-16
-4.93433e-19
-1.91094e-15
0
5.82737e-15
1.11227e-28
-5.38909e-15
-1.74948e-28
-5.98674e-14
-4.93433e-19
4.57742e-13
-4.93434e-19
-2.07532e-12
4.9343e-19
8.08381e-12
4.93471e-19
-3.87879e-11
4.93006e-19
3.24445e-10
-4.94169e-19
5.18266e-08
1.23214e-23
1.76342e-07
-4.95354e-19
2.81832e-07
0
3.29122e-07
0
3.54021e-07
-4.95692e-19
3.69386e-07
8.03438e-24
3.79189e-07
-8.45985e-24
3.85779e-07
0
3.90471e-07
-1.20816e-23
3.91303e-07
-9.91739e-19
1.60888e-07
4.95859e-19
-2.31712e-07
0
-1.32663e-07
4.95907e-19
2.62901e-07
9.91841e-19
1.31316e-07
1.48538e-23
-2.66446e-07
4.95901e-19
-1.35387e-07
-1.47291e-23
2.616e-07
-4.95898e-19
1.3115e-07
-4.95884e-19
-2.63905e-07
0
-1.333e-07
9.91767e-19
2.60093e-07
0
1.27878e-07
0
-2.66303e-07
9.91724e-19
-1.34988e-07
0
2.58531e-07
-9.91719e-19
1.28044e-07
-9.917e-19
-2.64431e-07
-9.9172e-19
-1.33762e-07
9.91703e-19
2.58633e-07
0
1.28089e-07
0
-2.64154e-07
0
-1.33599e-07
0
2.58611e-07
6.27007e-24
1.28087e-07
0
-2.6408e-07
9.91715e-19
-1.33554e-07
0
2.58598e-07
0
1.28074e-07
-9.91701e-19
-2.64077e-07
0
-1.33565e-07
2.91679e-23
2.5857e-07
-9.91715e-19
1.28048e-07
-9.91729e-19
-2.64102e-07
0
-1.33607e-07
0
2.58518e-07
9.91706e-19
1.28007e-07
-2.93483e-23
-2.64137e-07
-9.91724e-19
-1.33657e-07
9.91701e-19
2.58457e-07
0
1.27965e-07
0
-2.64166e-07
6.08482e-24
-1.33709e-07
9.917e-19
2.5839e-07
6.27098e-24
1.27922e-07
0
-2.6419e-07
0
-1.33758e-07
9.91725e-19
2.5832e-07
9.91715e-19
1.27878e-07
0
-2.64212e-07
-9.91704e-19
-1.33808e-07
0
2.58245e-07
0
1.2783e-07
2.93495e-23
-2.64237e-07
-1.98343e-18
-1.33862e-07
9.91692e-19
2.58167e-07
9.91701e-19
1.27782e-07
-9.91721e-19
-2.64258e-07
-9.91713e-19
-1.33915e-07
-2.91479e-23
2.58086e-07
-9.917e-19
1.27732e-07
0
-2.64283e-07
9.91708e-19
-1.33972e-07
-2.91446e-23
2.58001e-07
9.9171e-19
1.27679e-07
0
-2.64308e-07
-9.91699e-19
-1.34032e-07
2.91415e-23
2.57915e-07
6.27003e-24
1.27629e-07
-9.91691e-19
-2.64338e-07
3.9668e-18
-1.34095e-07
-9.91687e-19
2.57824e-07
-9.91704e-19
1.27581e-07
-9.91661e-19
-2.64332e-07
9.91701e-19
-1.34135e-07
0
2.57725e-07
-9.91707e-19
1.27412e-07
-9.91709e-19
-2.9903e-07
-9.91675e-19
-4.32044e-07
-9.91665e-19
-3.98935e-07
-9.91656e-19
-3.98014e-07
0
-3.97785e-07
-9.91668e-19
-3.97623e-07
-9.91651e-19
-3.97554e-07
-9.91632e-19
-3.97473e-07
1.9833e-18
-3.9735e-07
-1.6668e-23
-3.97213e-07
9.91624e-19
-3.97101e-07
1.9833e-18
-3.97018e-07
-9.91643e-19
-3.96958e-07
0
-3.96921e-07
0
-3.96898e-07
0
-3.96879e-07
3.33187e-23
-3.9686e-07
0
-3.96832e-07
0
-3.96796e-07
1.9833e-18
-3.9678e-07
-3.33154e-23
-3.96786e-07
0
-3.96792e-07
1.98331e-18
-3.96796e-07
0
-3.968e-07
0
-3.96801e-07
0
-3.96793e-07
-1.98327e-18
-3.96786e-07
0
-3.96784e-07
1.98326e-18
-3.9678e-07
-1.98326e-18
-3.96777e-07
1.98326e-18
-3.96773e-07
3.33147e-23
-3.96765e-07
-1.98327e-18
-3.96757e-07
-1.98326e-18
-3.96753e-07
-1.98329e-18
-3.96752e-07
0
-3.96746e-07
0
-3.96732e-07
-1.98326e-18
-3.9672e-07
0
-3.96716e-07
0
-3.96714e-07
-1.98329e-18
-3.9671e-07
-1.98326e-18
-3.96704e-07
0
-3.96698e-07
0
-3.96693e-07
0
-3.96686e-07
0
-3.96674e-07
-1.98326e-18
-3.9666e-07
0
-3.96646e-07
1.98325e-18
-3.96637e-07
-1.98324e-18
-3.96631e-07
-3.3311e-23
-3.9662e-07
-1.98325e-18
-3.96603e-07
0
-3.96585e-07
1.98324e-18
-3.9657e-07
0
-3.9656e-07
-1.98328e-18
-3.96549e-07
0
-3.96534e-07
1.98328e-18
-3.96519e-07
0
-3.96504e-07
0
-3.96488e-07
-1.98327e-18
-3.96471e-07
1.98328e-18
-3.96455e-07
-1.98328e-18
-3.96442e-07
1.98324e-18
-3.96422e-07
1.98327e-18
-3.96397e-07
1.98323e-18
-3.96372e-07
-3.9665e-18
-3.96351e-07
0
-3.96331e-07
1.98326e-18
-3.96308e-07
-1.98323e-18
-3.96286e-07
0
-3.96269e-07
-3.96649e-18
-3.96247e-07
-3.32877e-23
-3.9622e-07
-1.98323e-18
-3.96193e-07
0
-3.96169e-07
-1.98326e-18
-3.96147e-07
-1.98323e-18
-3.9612e-07
-3.32799e-23
-3.96089e-07
-3.96648e-18
-3.96058e-07
3.32765e-23
-3.96031e-07
1.98322e-18
-3.96013e-07
1.98326e-18
-3.95991e-07
1.98322e-18
-3.95963e-07
-1.98325e-18
-3.95934e-07
3.32725e-23
-3.95912e-07
-3.3266e-23
-3.95886e-07
1.98322e-18
-3.9586e-07
-1.98325e-18
-3.95822e-07
0
-3.95811e-07
3.32487e-23
-3.95777e-07
0
-3.95756e-07
0
-3.95712e-07
1.98323e-18
-3.95701e-07
-1.98323e-18
-3.95667e-07
-1.9832e-18
-3.9564e-07
-1.98319e-18
-3.95622e-07
0
-3.95596e-07
0
-3.95565e-07
0
-3.95545e-07
-3.96635e-18
-3.95522e-07
0
-3.95497e-07
0
-3.95471e-07
-1.98333e-18
-3.95458e-07
1.98318e-18
-3.95424e-07
-1.98328e-18
-3.95415e-07
0
-3.95381e-07
3.32841e-23
-3.95379e-07
-3.31867e-23
-3.95335e-07
0
-3.95325e-07
-1.98309e-18
-3.95332e-07
-3.32456e-23
-3.95248e-07
-3.96617e-18
-3.95279e-07
-3.31872e-23
-3.95173e-07
1.98309e-18
-3.95282e-07
3.31068e-23
-3.95115e-07
0
-3.95172e-07
0
-3.95066e-07
-1.98311e-18
-3.95095e-07
0
-3.95237e-07
3.32167e-23
-3.94866e-07
-1.98334e-18
-3.9492e-07
0
-3.95135e-07
1.98329e-18
-3.95139e-07
0
-3.94666e-07
0
-3.94777e-07
1.98309e-18
-3.95127e-07
0
-3.94964e-07
-3.30106e-23
-3.94281e-07
1.98337e-18
-3.94267e-07
3.3142e-23
-3.94684e-07
0
-3.94754e-07
-1.98294e-18
-3.94489e-07
0
-3.94283e-07
0
-3.94691e-07
1.98353e-18
-3.94934e-07
1.98288e-18
-3.95086e-07
0
-3.94724e-07
1.98288e-18
-3.94632e-07
0
-3.94504e-07
3.33924e-23
-3.94669e-07
-3.96712e-18
-3.94695e-07
1.98292e-18
-3.95026e-07
-1.98356e-18
-3.94943e-07
0
-3.95148e-07
3.28184e-23
-3.95056e-07
0
-3.95043e-07
0
-3.95088e-07
-3.27341e-23
-3.94984e-07
3.78148e-23
-3.82436e-07
1.98237e-18
-2.67889e-07
1.96956e-18
-8.40641e-08
1.97414e-18
-4.95421e-10
-1.97374e-18
5.21464e-11
-1.4325e-11
0
0
0
0
0
0
0
0
0
0
0
0
0
0
0
0
0
0
0
0
0
0
0
0
0
0
0
0
0
0
0
0
0
0
0
0
0
0
0
0
0
0
0
0
0
0
0
0
0
0
0
0
0
0
0
0
0
0
0
0
0
0
0
0
0
0
0
0
0
0
0
0
0
0
0
0
0
0
0
0
0
2.1684e-20
-4.9343e-19
-5.78241e-20
0
2.89121e-20
-4.9343e-19
-1.4456e-20
4.9343e-19
-1.4456e-19
0
-1.63353e-18
-4.9343e-19
1.91253e-17
-4.9343e-19
-1.15603e-16
0
5.26156e-16
9.86861e-19
-2.01852e-15
0
7.06177e-15
4.9343e-19
-2.40905e-14
0
8.19217e-14
-4.9343e-19
-2.65748e-13
0
7.79138e-13
4.34693e-27
-2.1528e-12
4.93427e-19
6.84866e-12
0
-3.30942e-11
6.23512e-26
3.4117e-10
4.1892e-24
5.11297e-08
-4.96037e-19
1.74065e-07
0
2.78514e-07
4.96801e-19
3.25548e-07
4.97063e-19
3.50299e-07
-1.14165e-23
3.65562e-07
4.97304e-19
3.75307e-07
0
3.81855e-07
1.18577e-23
3.86498e-07
-4.9741e-19
3.87178e-07
4.97439e-19
1.59736e-07
-1.59577e-23
-2.28047e-07
0
-1.31377e-07
0
2.58909e-07
0
1.30152e-07
4.97481e-19
-2.62428e-07
8.26189e-24
-1.34182e-07
-4.97457e-19
2.57632e-07
0
1.29985e-07
1.52501e-23
-2.59922e-07
0
-1.32121e-07
-9.94885e-19
2.56142e-07
0
1.26749e-07
0
-2.62292e-07
0
-1.33789e-07
0
2.54595e-07
0
1.26909e-07
0
-2.60443e-07
0
-1.32575e-07
0
2.54699e-07
0
1.26953e-07
0
-2.60169e-07
0
-1.32413e-07
0
2.54677e-07
0
1.26951e-07
9.94818e-19
-2.60096e-07
0
-1.32368e-07
9.94849e-19
2.54665e-07
1.67158e-23
1.26938e-07
0
-2.60093e-07
9.94841e-19
-1.32379e-07
0
2.54637e-07
0
1.26912e-07
9.94843e-19
-2.60118e-07
0
-1.3242e-07
1.98968e-18
2.54585e-07
0
1.26872e-07
9.94813e-19
-2.60152e-07
9.94819e-19
-1.3247e-07
-9.94848e-19
2.54525e-07
-9.94826e-19
1.2683e-07
9.94815e-19
-2.60181e-07
-9.94803e-19
-1.32521e-07
-3.01551e-23
2.54459e-07
-9.94821e-19
1.26788e-07
0
-2.60205e-07
9.94837e-19
-1.3257e-07
3.01519e-23
2.54389e-07
0
1.26743e-07
9.94841e-19
-2.60227e-07
9.94821e-19
-1.3262e-07
0
2.54315e-07
-1.67197e-23
1.26696e-07
0
-2.60251e-07
-9.94832e-19
-1.32672e-07
9.94815e-19
2.54238e-07
-1.67197e-23
1.26649e-07
0
-2.60273e-07
-9.94827e-19
-1.32725e-07
9.9481e-19
2.54158e-07
-9.94833e-19
1.26598e-07
-3.04798e-23
-2.60297e-07
-9.94794e-19
-1.32781e-07
-3.01361e-23
2.54073e-07
-9.94828e-19
1.26546e-07
0
-2.60322e-07
0
-1.3284e-07
3.01328e-23
2.53988e-07
-9.94805e-19
1.26496e-07
9.94801e-19
-2.60352e-07
9.94827e-19
-1.32903e-07
0
2.53898e-07
-1.98962e-18
1.26449e-07
9.94826e-19
-2.60347e-07
0
-1.32941e-07
0
2.53801e-07
-1.63247e-23
1.26245e-07
-3.40258e-23
-2.94778e-07
1.98955e-18
-4.27246e-07
-9.94748e-19
-3.94987e-07
-9.94744e-19
-3.93991e-07
-9.94736e-19
-3.9378e-07
1.98945e-18
-3.9361e-07
2.98421e-18
-3.93539e-07
9.94768e-19
-3.9346e-07
1.98946e-18
-3.93338e-07
-9.94739e-19
-3.93202e-07
-2.37432e-23
-3.93091e-07
9.94731e-19
-3.93009e-07
1.98944e-18
-3.92949e-07
0
-3.92912e-07
0
-3.92889e-07
0
-3.9287e-07
-1.9894e-18
-3.92852e-07
0
-3.92823e-07
-3.97887e-18
-3.92788e-07
0
-3.92772e-07
1.9894e-18
-3.92778e-07
0
-3.92784e-07
1.9894e-18
-3.92788e-07
0
-3.92792e-07
0
-3.92793e-07
0
-3.92785e-07
0
-3.92778e-07
1.9894e-18
-3.92776e-07
0
-3.92772e-07
0
-3.92768e-07
0
-3.92765e-07
1.98943e-18
-3.92757e-07
1.98944e-18
-3.92748e-07
0
-3.92745e-07
0
-3.92744e-07
0
-3.92737e-07
-1.98938e-18
-3.92723e-07
0
-3.92712e-07
0
-3.92708e-07
-1.98938e-18
-3.92706e-07
0
-3.92702e-07
0
-3.92696e-07
0
-3.9269e-07
0
-3.92685e-07
0
-3.92678e-07
-1.98942e-18
-3.92666e-07
1.98941e-18
-3.92652e-07
0
-3.92638e-07
-1.98942e-18
-3.92629e-07
-1.98937e-18
-3.92623e-07
0
-3.92612e-07
4.74612e-23
-3.92595e-07
4.74586e-23
-3.92577e-07
0
-3.92563e-07
0
-3.92552e-07
-1.9894e-18
-3.92541e-07
1.98935e-18
-3.92527e-07
3.97876e-18
-3.92511e-07
-1.98941e-18
-3.92496e-07
0
-3.92481e-07
0
-3.92464e-07
1.98939e-18
-3.92448e-07
0
-3.92435e-07
0
-3.92415e-07
-3.97876e-18
-3.9239e-07
1.98936e-18
-3.92366e-07
-1.98936e-18
-3.92344e-07
-1.9894e-18
-3.92325e-07
-4.7436e-23
-3.92302e-07
4.74349e-23
-3.92281e-07
-1.9894e-18
-3.92263e-07
0
-3.92242e-07
1.98935e-18
-3.92215e-07
1.98939e-18
-3.92188e-07
1.98939e-18
-3.92165e-07
-1.98939e-18
-3.92142e-07
1.98939e-18
-3.92116e-07
1.98929e-18
-3.92085e-07
4.74137e-23
-3.92054e-07
4.74113e-23
-3.92028e-07
-4.74117e-23
-3.92009e-07
1.98938e-18
-3.91988e-07
-4.74059e-23
-3.9196e-07
-1.98938e-18
-3.91931e-07
-1.98933e-18
-3.91909e-07
1.98933e-18
-3.91883e-07
0
-3.91857e-07
1.98933e-18
-3.9182e-07
0
-3.91809e-07
1.98937e-18
-3.91775e-07
-1.98938e-18
-3.91755e-07
4.73593e-23
-3.91711e-07
1.98934e-18
-3.91699e-07
-1.98931e-18
-3.91667e-07
4.74019e-23
-3.91639e-07
0
-3.91621e-07
1.98935e-18
-3.91596e-07
-4.7342e-23
-3.91565e-07
1.98941e-18
-3.91545e-07
0
-3.91522e-07
-4.73877e-23
-3.91498e-07
1.98931e-18
-3.91472e-07
-1.98943e-18
-3.91458e-07
0
-3.91425e-07
1.98944e-18
-3.91416e-07
1.98923e-18
-3.91383e-07
-1.98941e-18
-3.91381e-07
-3.97845e-18
-3.91337e-07
0
-3.91327e-07
0
-3.91334e-07
-4.73572e-23
-3.91251e-07
4.73434e-23
-3.91281e-07
1.98949e-18
-3.91177e-07
-1.98913e-18
-3.91283e-07
0
-3.9112e-07
-1.98913e-18
-3.91175e-07
-1.98947e-18
-3.9107e-07
3.97836e-18
-3.91099e-07
0
-3.91237e-07
4.73102e-23
-3.90874e-07
-4.72906e-23
-3.90926e-07
0
-3.91137e-07
0
-3.91141e-07
0
-3.90676e-07
1.98947e-18
-3.90784e-07
-1.98917e-18
-3.91129e-07
0
-3.90967e-07
-1.98913e-18
-3.90294e-07
-1.98955e-18
-3.90279e-07
3.97815e-18
-3.90689e-07
-4.73898e-23
-3.90758e-07
4.71469e-23
-3.90497e-07
-1.98966e-18
-3.90296e-07
-1.98895e-18
-3.90697e-07
4.73182e-23
-3.90939e-07
1.98891e-18
-3.91087e-07
4.71524e-23
-3.90733e-07
-3.97786e-18
-3.9064e-07
1.98976e-18
-3.90515e-07
3.97794e-18
-3.90676e-07
-3.97949e-18
-3.90705e-07
0
-3.91029e-07
1.9897e-18
-3.9095e-07
0
-3.91151e-07
-1.98963e-18
-3.9106e-07
0
-3.91049e-07
4.69618e-23
-3.91091e-07
-1.98893e-18
-3.90981e-07
-1.99157e-18
-3.78488e-07
-1.98657e-18
-2.65294e-07
1.96918e-18
-8.36052e-08
-1.97405e-18
-7.15473e-10
1.68565e-25
3.31801e-11
-2.1442e-11
0
0
0
0
0
0
0
0
0
0
0
0
0
0
0
0
0
0
0
0
0
0
0
0
0
0
0
0
0
0
0
0
0
0
0
0
0
0
0
0
0
0
0
0
0
0
0
0
0
0
0
0
0
0
0
0
0
0
0
0
0
0
0
0
0
0
0
0
0
0
0
0
0
0
0
0
0
1.807e-21
-2.46717e-19
-6.94132e-21
0
2.19707e-20
0
-4.87891e-20
0
2.52981e-20
-4.93433e-19
2.99963e-19
0
-1.78532e-18
0
6.08599e-18
0
-1.46295e-17
-1.12063e-30
3.01191e-17
-4.95529e-30
-1.21548e-16
-4.93433e-19
9.19577e-16
0
-6.00606e-15
4.93433e-19
3.01459e-14
9.86867e-19
-1.18213e-13
-4.93433e-19
3.56755e-13
0
-7.34065e-13
0
3.57215e-13
-4.9343e-19
4.8666e-12
-4.93474e-19
-3.54742e-11
4.14712e-26
3.52693e-10
0
5.01249e-08
-4.97211e-19
1.70633e-07
-4.98054e-19
2.73066e-07
4.9847e-19
3.19194e-07
4.9885e-19
3.43454e-07
0
3.58446e-07
0
3.67999e-07
0
3.74449e-07
2.22754e-23
3.79042e-07
-2.3345e-23
3.79473e-07
0
1.56218e-07
-4.9949e-19
-2.23931e-07
-4.99549e-19
-1.28807e-07
-4.99532e-19