/*--------------------------------*- C++ -*----------------------------------*\
| =========                 |                                                 |
| \\      /  F ield         | foam-extend: Open Source CFD                    |
|  \\    /   O peration     | Version:     3.2                                |
|   \\  /    A nd           | Web:         http://www.foam-extend.org         |
|    \\/     M anipulation  | For copyright notice see file Copyright         |
\*---------------------------------------------------------------------------*/
FoamFile
{
    version     2.0;
    format      ascii;
    class       tetPointVectorField;
    location    "50";
    object      motionU;
}
// * * * * * * * * * * * * * * * * * * * * * * * * * * * * * * * * * * * * * //

dimensions      [0 1 -1 0 0 0 0];

internalField   nonuniform List<vector> 
38756
(
(0 0 0)
(0 0 0)
(0 0 0)
(0 0 0)
(0 0 0)
(0 0 0)
(0 0 0)
(0 0 0)
(0 0 0)
(0 0 0)
(0 0 0)
(0 0 0)
(0 0 0)
(0 0 0)
(0 0 0)
(0 0 0)
(0 0 0)
(0 0 0)
(0 0 0)
(0 0 0)
(0 0 0)
(0 0 0)
(0 0 0)
(0 0 0)
(0 0 0)
(0 0 0)
(0 0 0)
(0 0 0)
(0 0 0)
(0 0 0)
(0 0 0)
(0 0 0)
(0 0 0)
(0 0 0)
(0 0 0)
(0 0 0)
(0 0 0)
(0 0 0)
(0 0 0)
(0 0 0)
(0 0 0)
(0 0 0)
(0 0 0)
(0 0 0)
(0 0 0)
(0 0 0)
(0 0 0)
(0 0 0)
(0 0 0)
(0 0 0)
(0 0 0)
(0 0 0)
(0 0 0)
(0 0 0)
(0 0 0)
(0 0 0)
(0 0 0)
(0 0 0)
(0 0 0)
(0 0 0)
(0 0 0.000104024)
(0 0 0.000253784)
(0 0 0.000317981)
(0 0 0.000348642)
(0 0 0.000368151)
(0 0 0.000379626)
(0 0 0.00038788)
(0 0 0.00039303)
(0 0 0.000396833)
(0 0 0.000398616)
(0 0 -6.95263e-05)
(0 0 -0.000407514)
(0 0 0.000133698)
(0 0 0.000407365)
(0 0 -0.000136919)
(0 0 -0.000411232)
(0 0 0.000132551)
(0 0 0.000405793)
(0 0 -0.000135692)
(0 0 -0.000407266)
(0 0 0.000132863)
(0 0 0.000402405)
(0 0 -0.000138957)
(0 0 -0.000408843)
(0 0 0.000131047)
(0 0 0.000401047)
(0 0 -0.000137266)
(0 0 -0.000406718)
(0 0 0.000131403)
(0 0 0.000400879)
(0 0 -0.000137013)
(0 0 -0.000406405)
(0 0 0.000131421)
(0 0 0.000400813)
(0 0 -0.000136951)
(0 0 -0.000406316)
(0 0 0.000131423)
(0 0 0.000400784)
(0 0 -0.000136948)
(0 0 -0.000406313)
(0 0 0.000131399)
(0 0 0.000400752)
(0 0 -0.000136968)
(0 0 -0.000406343)
(0 0 0.000131344)
(0 0 0.0004007)
(0 0 -0.000136999)
(0 0 -0.000406381)
(0 0 0.00013128)
(0 0 0.000400641)
(0 0 -0.000137025)
(0 0 -0.000406414)
(0 0 0.000131209)
(0 0 0.000400576)
(0 0 -0.000137046)
(0 0 -0.000406441)
(0 0 0.000131135)
(0 0 0.000400507)
(0 0 -0.000137067)
(0 0 -0.000406465)
(0 0 0.000131058)
(0 0 0.000400433)
(0 0 -0.000137088)
(0 0 -0.000406491)
(0 0 0.000130976)
(0 0 0.000400356)
(0 0 -0.000137108)
(0 0 -0.000406515)
(0 0 0.000130893)
(0 0 0.000400275)
(0 0 -0.000137129)
(0 0 -0.000406542)
(0 0 0.000130805)
(0 0 0.00040019)
(0 0 -0.000137151)
(0 0 -0.00040657)
(0 0 0.000130711)
(0 0 0.000400109)
(0 0 -0.000137171)
(0 0 -0.00040661)
(0 0 0.000130622)
(0 0 0.000400014)
(0 0 -0.000137172)
(0 0 -0.000406594)
(0 0 0.000130519)
(0 0 0.000399931)
(0 0 -0.000137303)
(0 0 -0.000473109)
(0 0 -0.000403555)
(0 0 -0.000403006)
(0 0 -0.000402623)
(0 0 -0.000402405)
(0 0 -0.000402316)
(0 0 -0.000402261)
(0 0 -0.000402157)
(0 0 -0.000402011)
(0 0 -0.00040188)
(0 0 -0.000401786)
(0 0 -0.000401713)
(0 0 -0.000401664)
(0 0 -0.000401637)
(0 0 -0.000401618)
(0 0 -0.000401599)
(0 0 -0.00040158)
(0 0 -0.000401542)
(0 0 -0.000401508)
(0 0 -0.00040151)
(0 0 -0.00040152)
(0 0 -0.000401523)
(0 0 -0.000401528)
(0 0 -0.000401532)
(0 0 -0.000401529)
(0 0 -0.000401517)
(0 0 -0.000401514)
(0 0 -0.000401512)
(0 0 -0.000401507)
(0 0 -0.000401505)
(0 0 -0.0004015)
(0 0 -0.000401489)
(0 0 -0.000401482)
(0 0 -0.000401482)
(0 0 -0.000401482)
(0 0 -0.000401469)
(0 0 -0.000401453)
(0 0 -0.000401445)
(0 0 -0.000401445)
(0 0 -0.000401442)
(0 0 -0.000401437)
(0 0 -0.000401429)
(0 0 -0.000401424)
(0 0 -0.00040142)
(0 0 -0.00040141)
(0 0 -0.000401396)
(0 0 -0.000401381)
(0 0 -0.000401367)
(0 0 -0.000401364)
(0 0 -0.000401356)
(0 0 -0.000401341)
(0 0 -0.000401322)
(0 0 -0.000401304)
(0 0 -0.000401292)
(0 0 -0.000401284)
(0 0 -0.00040127)
(0 0 -0.000401254)
(0 0 -0.000401238)
(0 0 -0.000401224)
(0 0 -0.000401207)
(0 0 -0.00040119)
(0 0 -0.000401176)
(0 0 -0.000401162)
(0 0 -0.000401136)
(0 0 -0.00040111)
(0 0 -0.000401086)
(0 0 -0.000401068)
(0 0 -0.000401046)
(0 0 -0.000401022)
(0 0 -0.000401003)
(0 0 -0.000400986)
(0 0 -0.000400959)
(0 0 -0.000400931)
(0 0 -0.000400905)
(0 0 -0.000400884)
(0 0 -0.000400859)
(0 0 -0.00040083)
(0 0 -0.000400797)
(0 0 -0.000400767)
(0 0 -0.000400743)
(0 0 -0.00040073)
(0 0 -0.0004007)
(0 0 -0.000400674)
(0 0 -0.00040064)
(0 0 -0.00040063)
(0 0 -0.000400587)
(0 0 -0.000400577)
(0 0 -0.00040051)
(0 0 -0.000400556)
(0 0 -0.000400441)
(0 0 -0.000400516)
(0 0 -0.000400349)
(0 0 -0.000400495)
(0 0 -0.000400281)
(0 0 -0.00040044)
(0 0 -0.000400246)
(0 0 -0.000400387)
(0 0 -0.000400184)
(0 0 -0.000400347)
(0 0 -0.000400137)
(0 0 -0.000400297)
(0 0 -0.000400084)
(0 0 -0.00040027)
(0 0 -0.000400015)
(0 0 -0.000400253)
(0 0 -0.000399946)
(0 0 -0.000400251)
(0 0 -0.000399854)
(0 0 -0.000400232)
(0 0 -0.000399872)
(0 0 -0.000400056)
(0 0 -0.000399942)
(0 0 -0.000399832)
(0 0 -0.000400176)
(0 0 -0.00039948)
(0 0 -0.000400302)
(0 0 -0.000399257)
(0 0 -0.00040036)
(0 0 -0.00039956)
(0 0 -0.000399589)
(0 0 -0.000399676)
(0 0 -0.00040003)
(0 0 -0.000399694)
(0 0 -0.000399048)
(0 0 -0.000399927)
(0 0 -0.00039977)
(0 0 -0.000399598)
(0 0 -0.000398365)
(0 0 -0.000399577)
(0 0 -0.000399224)
(0 0 -0.000399716)
(0 0 -0.000398682)
(0 0 -0.000399287)
(0 0 -0.000399525)
(0 0 -0.000399773)
(0 0 -0.000399843)
(0 0 -0.000399024)
(0 0 -0.000399666)
(0 0 -0.000398754)
(0 0 -0.000400011)
(0 0 -0.000398794)
(0 0 -0.000400698)
(0 0 -0.000398607)
(0 0 -0.000401128)
(0 0 -0.000398412)
(0 0 -0.000401099)
(0 0 -0.000398525)
(0 0 -0.000400864)
(0 0 -0.000374866)
(0 0 -0.000169161)
(0 0 0)
(0 0 0)
(0 0 0)
(0 0 0)
(0 0 0)
(0 0 0)
(0 0 0)
(0 0 0)
(0 0 0)
(0 0 0)
(0 0 0)
(0 0 0)
(0 0 0)
(0 0 0)
(0 0 0)
(0 0 0)
(0 0 0)
(0 0 0)
(0 0 0)
(0 0 0)
(0 0 0)
(0 0 0)
(0 0 0)
(0 0 0)
(0 0 0)
(0 0 0)
(0 0 0)
(0 0 0)
(0 0 0)
(0 0 0)
(0 0 0)
(0 0 0)
(0 0 0)
(0 0 0)
(0 0 0)
(0 0 0)
(0 0 0)
(0 0 0)
(0 0 0)
(0 0 0)
(0 0 0)
(0 0 0)
(0 0 0)
(0 0 0)
(0 0 0)
(0 0 0)
(0 0 0)
(0 0 0)
(0 0 0)
(0 0 0)
(0 0 0)
(0 0 0)
(0 0 0)
(0 0 0)
(0 0 0)
(0 0 0)
(0 0 0)
(0 0 0)
(0 0 0)
(0 0 0)
(0 0 0)
(0 0 0)
(0 0 0)
(0 0 0)
(0 0 0.000104024)
(0 0 0.000253784)
(0 0 0.000317981)
(0 0 0.000348642)
(0 0 0.000368151)
(0 0 0.000379626)
(0 0 0.00038788)
(0 0 0.00039303)
(0 0 0.000396833)
(0 0 0.000398616)
(0 0 -6.95263e-05)
(0 0 -0.000407514)
(0 0 0.000133698)
(0 0 0.000407365)
(0 0 -0.000136919)
(0 0 -0.000411232)
(0 0 0.000132551)
(0 0 0.000405793)
(0 0 -0.000135692)
(0 0 -0.000407266)
(0 0 0.000132863)
(0 0 0.000402405)
(0 0 -0.000138957)
(0 0 -0.000408843)
(0 0 0.000131047)
(0 0 0.000401047)
(0 0 -0.000137266)
(0 0 -0.000406718)
(0 0 0.000131403)
(0 0 0.000400879)
(0 0 -0.000137013)
(0 0 -0.000406405)
(0 0 0.000131421)
(0 0 0.000400813)
(0 0 -0.000136951)
(0 0 -0.000406316)
(0 0 0.000131423)
(0 0 0.000400784)
(0 0 -0.000136948)
(0 0 -0.000406313)
(0 0 0.000131399)
(0 0 0.000400752)
(0 0 -0.000136968)
(0 0 -0.000406343)
(0 0 0.000131344)
(0 0 0.0004007)
(0 0 -0.000136999)
(0 0 -0.000406381)
(0 0 0.00013128)
(0 0 0.000400641)
(0 0 -0.000137025)
(0 0 -0.000406414)
(0 0 0.000131209)
(0 0 0.000400576)
(0 0 -0.000137046)
(0 0 -0.000406441)
(0 0 0.000131135)
(0 0 0.000400507)
(0 0 -0.000137067)
(0 0 -0.000406465)
(0 0 0.000131058)
(0 0 0.000400433)
(0 0 -0.000137088)
(0 0 -0.000406491)
(0 0 0.000130976)
(0 0 0.000400356)
(0 0 -0.000137108)
(0 0 -0.000406515)
(0 0 0.000130893)
(0 0 0.000400275)
(0 0 -0.000137129)
(0 0 -0.000406542)
(0 0 0.000130805)
(0 0 0.00040019)
(0 0 -0.000137151)
(0 0 -0.00040657)
(0 0 0.000130711)
(0 0 0.000400109)
(0 0 -0.000137171)
(0 0 -0.00040661)
(0 0 0.000130622)
(0 0 0.000400014)
(0 0 -0.000137172)
(0 0 -0.000406594)
(0 0 0.000130519)
(0 0 0.000399931)
(0 0 -0.000137303)
(0 0 -0.000473109)
(0 0 -0.000403555)
(0 0 -0.000403006)
(0 0 -0.000402623)
(0 0 -0.000402405)
(0 0 -0.000402316)
(0 0 -0.000402261)
(0 0 -0.000402157)
(0 0 -0.000402011)
(0 0 -0.00040188)
(0 0 -0.000401786)
(0 0 -0.000401713)
(0 0 -0.000401664)
(0 0 -0.000401637)
(0 0 -0.000401618)
(0 0 -0.000401599)
(0 0 -0.00040158)
(0 0 -0.000401542)
(0 0 -0.000401508)
(0 0 -0.00040151)
(0 0 -0.00040152)
(0 0 -0.000401523)
(0 0 -0.000401528)
(0 0 -0.000401532)
(0 0 -0.000401529)
(0 0 -0.000401517)
(0 0 -0.000401514)
(0 0 -0.000401512)
(0 0 -0.000401507)
(0 0 -0.000401505)
(0 0 -0.0004015)
(0 0 -0.000401489)
(0 0 -0.000401482)
(0 0 -0.000401482)
(0 0 -0.000401482)
(0 0 -0.000401469)
(0 0 -0.000401453)
(0 0 -0.000401445)
(0 0 -0.000401445)
(0 0 -0.000401442)
(0 0 -0.000401437)
(0 0 -0.000401429)
(0 0 -0.000401424)
(0 0 -0.00040142)
(0 0 -0.00040141)
(0 0 -0.000401396)
(0 0 -0.000401381)
(0 0 -0.000401367)
(0 0 -0.000401364)
(0 0 -0.000401356)
(0 0 -0.000401341)
(0 0 -0.000401322)
(0 0 -0.000401304)
(0 0 -0.000401292)
(0 0 -0.000401284)
(0 0 -0.00040127)
(0 0 -0.000401254)
(0 0 -0.000401238)
(0 0 -0.000401224)
(0 0 -0.000401207)
(0 0 -0.00040119)
(0 0 -0.000401176)
(0 0 -0.000401162)
(0 0 -0.000401136)
(0 0 -0.00040111)
(0 0 -0.000401086)
(0 0 -0.000401068)
(0 0 -0.000401046)
(0 0 -0.000401022)
(0 0 -0.000401003)
(0 0 -0.000400986)
(0 0 -0.000400959)
(0 0 -0.000400931)
(0 0 -0.000400905)
(0 0 -0.000400884)
(0 0 -0.000400859)
(0 0 -0.00040083)
(0 0 -0.000400797)
(0 0 -0.000400767)
(0 0 -0.000400743)
(0 0 -0.00040073)
(0 0 -0.0004007)
(0 0 -0.000400674)
(0 0 -0.00040064)
(0 0 -0.00040063)
(0 0 -0.000400587)
(0 0 -0.000400577)
(0 0 -0.00040051)
(0 0 -0.000400556)
(0 0 -0.000400441)
(0 0 -0.000400516)
(0 0 -0.000400349)
(0 0 -0.000400495)
(0 0 -0.000400281)
(0 0 -0.00040044)
(0 0 -0.000400246)
(0 0 -0.000400387)
(0 0 -0.000400184)
(0 0 -0.000400347)
(0 0 -0.000400137)
(0 0 -0.000400297)
(0 0 -0.000400084)
(0 0 -0.00040027)
(0 0 -0.000400015)
(0 0 -0.000400253)
(0 0 -0.000399946)
(0 0 -0.000400251)
(0 0 -0.000399854)
(0 0 -0.000400232)
(0 0 -0.000399872)
(0 0 -0.000400056)
(0 0 -0.000399942)
(0 0 -0.000399832)
(0 0 -0.000400176)
(0 0 -0.00039948)
(0 0 -0.000400302)
(0 0 -0.000399257)
(0 0 -0.00040036)
(0 0 -0.00039956)
(0 0 -0.000399589)
(0 0 -0.000399676)
(0 0 -0.00040003)
(0 0 -0.000399694)
(0 0 -0.000399048)
(0 0 -0.000399927)
(0 0 -0.00039977)
(0 0 -0.000399598)
(0 0 -0.000398365)
(0 0 -0.000399577)
(0 0 -0.000399224)
(0 0 -0.000399716)
(0 0 -0.000398682)
(0 0 -0.000399287)
(0 0 -0.000399525)
(0 0 -0.000399773)
(0 0 -0.000399843)
(0 0 -0.000399024)
(0 0 -0.000399666)
(0 0 -0.000398754)
(0 0 -0.000400011)
(0 0 -0.000398794)
(0 0 -0.000400698)
(0 0 -0.000398607)
(0 0 -0.000401128)
(0 0 -0.000398412)
(0 0 -0.000401099)
(0 0 -0.000398525)
(0 0 -0.000400864)
(0 0 -0.000374866)
(0 0 -0.000169161)
(0 0 0)
(0 0 0)
(0 0 0)
(0 0 0)
(0 0 0)
(0 0 -2.65198e-40)
(0 0 1.07625e-39)
(0 0 -3.04296e-39)
(0 0 5.67677e-39)
(0 0 3.69715e-39)
(0 0 -1.06166e-37)
(0 0 6.89084e-37)
(0 0 -3.32586e-36)
(0 0 1.36561e-35)
(0 0 -4.96029e-35)
(0 0 1.60524e-34)
(0 0 -4.54388e-34)
(0 0 1.04745e-33)
(0 0 -1.39746e-33)
(0 0 -3.6345e-33)
(0 0 4.29452e-32)
(0 0 -2.55535e-31)
(0 0 1.26626e-30)
(0 0 -5.78298e-30)
(0 0 2.51928e-29)
(0 0 -1.05654e-28)
(0 0 4.24981e-28)
(0 0 -1.62091e-27)
(0 0 5.75497e-27)
(0 0 -1.84437e-26)
(0 0 4.99975e-26)
(0 0 -9.24617e-26)
(0 0 -5.8747e-26)
(0 0 1.72451e-24)
(0 0 -1.1206e-23)
(0 0 5.35814e-23)
(0 0 -2.13995e-22)
(0 0 7.32089e-22)
(0 0 -2.09708e-21)
(0 0 4.50865e-21)
(0 0 -3.43051e-21)
(0 0 -3.1155e-20)
(0 0 2.28044e-19)
(0 0 -1.01333e-18)
(0 0 3.45183e-18)
(0 0 -9.0519e-18)
(0 0 1.5166e-17)
(0 0 7.42438e-18)
(0 0 -1.8456e-16)
(0 0 8.73796e-16)
(0 0 -2.67474e-15)
(0 0 5.34369e-15)
(0 0 -3.14299e-15)
(0 0 -2.67046e-14)
(0 0 1.49972e-13)
(0 0 -5.94543e-13)
(0 0 2.3722e-12)
(0 0 -8.71348e-12)
(0 0 1.88665e-11)
(0 0 3.82497e-11)
(0 0 -5.41253e-10)
(0 0 2.5265e-09)
(0 0 -1.10741e-08)
(0 0 1.07633e-07)
(0 0 0.000104076)
(0 0 0.000253749)
(0 0 0.000318075)
(0 0 0.000348764)
(0 0 0.000368283)
(0 0 0.000379771)
(0 0 0.00038803)
(0 0 0.00039317)
(0 0 0.000397046)
(0 0 0.000398201)
(0 0 -6.94211e-05)
(0 0 -0.000406617)
(0 0 0.000133374)
(0 0 0.000406588)
(0 0 -0.000136613)
(0 0 -0.000410455)
(0 0 0.000132246)
(0 0 0.000405019)
(0 0 -0.000135389)
(0 0 -0.000406495)
(0 0 0.00013256)
(0 0 0.000401635)
(0 0 -0.000138652)
(0 0 -0.000408074)
(0 0 0.000130742)
(0 0 0.000400279)
(0 0 -0.000136963)
(0 0 -0.000405951)
(0 0 0.0001311)
(0 0 0.000400111)
(0 0 -0.00013671)
(0 0 -0.000405638)
(0 0 0.000131118)
(0 0 0.000400045)
(0 0 -0.000136649)
(0 0 -0.000405548)
(0 0 0.00013112)
(0 0 0.000400016)
(0 0 -0.000136646)
(0 0 -0.000405546)
(0 0 0.000131096)
(0 0 0.000399984)
(0 0 -0.000136666)
(0 0 -0.000405576)
(0 0 0.000131041)
(0 0 0.000399932)
(0 0 -0.000136697)
(0 0 -0.000405614)
(0 0 0.000130977)
(0 0 0.000399874)
(0 0 -0.000136723)
(0 0 -0.000405647)
(0 0 0.000130906)
(0 0 0.000399809)
(0 0 -0.000136744)
(0 0 -0.000405674)
(0 0 0.000130832)
(0 0 0.00039974)
(0 0 -0.000136764)
(0 0 -0.000405698)
(0 0 0.000130755)
(0 0 0.000399666)
(0 0 -0.000136786)
(0 0 -0.000405724)
(0 0 0.000130673)
(0 0 0.000399588)
(0 0 -0.000136806)
(0 0 -0.000405748)
(0 0 0.00013059)
(0 0 0.000399508)
(0 0 -0.000136827)
(0 0 -0.000405775)
(0 0 0.000130502)
(0 0 0.000399423)
(0 0 -0.000136849)
(0 0 -0.000405803)
(0 0 0.000130409)
(0 0 0.000399342)
(0 0 -0.000136869)
(0 0 -0.000405843)
(0 0 0.00013032)
(0 0 0.000399247)
(0 0 -0.00013687)
(0 0 -0.000405827)
(0 0 0.000130218)
(0 0 0.000399161)
(0 0 -0.00013703)
(0 0 -0.000472855)
(0 0 -0.000403857)
(0 0 -0.000403128)
(0 0 -0.000402784)
(0 0 -0.000402562)
(0 0 -0.000402471)
(0 0 -0.000402417)
(0 0 -0.000402313)
(0 0 -0.000402167)
(0 0 -0.000402035)
(0 0 -0.000401941)
(0 0 -0.000401868)
(0 0 -0.000401819)
(0 0 -0.000401793)
(0 0 -0.000401774)
(0 0 -0.000401755)
(0 0 -0.000401736)
(0 0 -0.000401697)
(0 0 -0.000401663)
(0 0 -0.000401665)
(0 0 -0.000401676)
(0 0 -0.000401678)
(0 0 -0.000401683)
(0 0 -0.000401687)
(0 0 -0.000401684)
(0 0 -0.000401672)
(0 0 -0.00040167)
(0 0 -0.000401667)
(0 0 -0.000401662)
(0 0 -0.000401661)
(0 0 -0.000401656)
(0 0 -0.000401644)
(0 0 -0.000401638)
(0 0 -0.000401637)
(0 0 -0.000401637)
(0 0 -0.000401624)
(0 0 -0.000401608)
(0 0 -0.000401601)
(0 0 -0.0004016)
(0 0 -0.000401597)
(0 0 -0.000401592)
(0 0 -0.000401585)
(0 0 -0.00040158)
(0 0 -0.000401575)
(0 0 -0.000401566)
(0 0 -0.000401551)
(0 0 -0.000401536)
(0 0 -0.000401523)
(0 0 -0.00040152)
(0 0 -0.000401511)
(0 0 -0.000401496)
(0 0 -0.000401477)
(0 0 -0.00040146)
(0 0 -0.000401448)
(0 0 -0.000401439)
(0 0 -0.000401425)
(0 0 -0.00040141)
(0 0 -0.000401394)
(0 0 -0.00040138)
(0 0 -0.000401363)
(0 0 -0.000401345)
(0 0 -0.000401331)
(0 0 -0.000401317)
(0 0 -0.000401292)
(0 0 -0.000401266)
(0 0 -0.000401242)
(0 0 -0.000401223)
(0 0 -0.000401201)
(0 0 -0.000401177)
(0 0 -0.000401158)
(0 0 -0.000401141)
(0 0 -0.000401115)
(0 0 -0.000401087)
(0 0 -0.00040106)
(0 0 -0.000401039)
(0 0 -0.000401014)
(0 0 -0.000400986)
(0 0 -0.000400953)
(0 0 -0.000400923)
(0 0 -0.000400898)
(0 0 -0.000400885)
(0 0 -0.000400855)
(0 0 -0.000400829)
(0 0 -0.000400795)
(0 0 -0.000400785)
(0 0 -0.000400742)
(0 0 -0.000400733)
(0 0 -0.000400665)
(0 0 -0.000400711)
(0 0 -0.000400597)
(0 0 -0.00040067)
(0 0 -0.000400505)
(0 0 -0.00040065)
(0 0 -0.000400437)
(0 0 -0.000400594)
(0 0 -0.000400401)
(0 0 -0.000400542)
(0 0 -0.000400339)
(0 0 -0.000400501)
(0 0 -0.000400293)
(0 0 -0.000400452)
(0 0 -0.00040024)
(0 0 -0.000400425)
(0 0 -0.000400171)
(0 0 -0.000400408)
(0 0 -0.000400102)
(0 0 -0.000400405)
(0 0 -0.00040001)
(0 0 -0.000400386)
(0 0 -0.000400028)
(0 0 -0.00040021)
(0 0 -0.000400097)
(0 0 -0.000399988)
(0 0 -0.000400329)
(0 0 -0.000399638)
(0 0 -0.000400454)
(0 0 -0.000399416)
(0 0 -0.000400513)
(0 0 -0.000399717)
(0 0 -0.000399744)
(0 0 -0.000399832)
(0 0 -0.000400184)
(0 0 -0.000399848)
(0 0 -0.000399205)
(0 0 -0.00040008)
(0 0 -0.000399926)
(0 0 -0.000399751)
(0 0 -0.000398523)
(0 0 -0.000399729)
(0 0 -0.000399381)
(0 0 -0.000399869)
(0 0 -0.000398839)
(0 0 -0.000399442)
(0 0 -0.00039968)
(0 0 -0.000399928)
(0 0 -0.000399996)
(0 0 -0.000399181)
(0 0 -0.000399819)
(0 0 -0.000398913)
(0 0 -0.000400163)
(0 0 -0.000398954)
(0 0 -0.000400847)
(0 0 -0.000398769)
(0 0 -0.000401275)
(0 0 -0.000398576)
(0 0 -0.000401246)
(0 0 -0.000398686)
(0 0 -0.000401008)
(0 0 -0.000374765)
(0 0 -0.000169196)
(0 0 -1.44696e-07)
(0 0 2.42413e-08)
(0 0 -8.88988e-09)
(0 0 0)
(0 0 0)
(0 0 2.84052e-40)
(0 0 -9.16395e-40)
(0 0 1.93308e-39)
(0 0 -1.36572e-39)
(0 0 -1.40834e-38)
(0 0 1.0438e-37)
(0 0 -4.84271e-37)
(0 0 1.75659e-36)
(0 0 -4.95182e-36)
(0 0 8.3215e-36)
(0 0 1.63659e-35)
(0 0 -2.48122e-34)
(0 0 1.57364e-33)
(0 0 -7.85228e-33)
(0 0 3.45351e-32)
(0 0 -1.39955e-31)
(0 0 5.35163e-31)
(0 0 -1.95948e-30)
(0 0 6.92842e-30)
(0 0 -2.36959e-29)
(0 0 7.77637e-29)
(0 0 -2.39183e-28)
(0 0 6.51873e-28)
(0 0 -1.32761e-27)
(0 0 1.2521e-28)
(0 0 1.91928e-26)
(0 0 -1.44458e-25)
(0 0 7.75894e-25)
(0 0 -3.5167e-24)
(0 0 1.40461e-23)
(0 0 -4.9788e-23)
(0 0 1.53787e-22)
(0 0 -3.88336e-22)
(0 0 6.20441e-22)
(0 0 7.70167e-22)
(0 0 -1.2441e-20)
(0 0 6.92327e-20)
(0 0 -2.84654e-19)
(0 0 9.48091e-19)
(0 0 -2.51345e-18)
(0 0 4.48345e-18)
(0 0 6.89249e-19)
(0 0 -4.91502e-17)
(0 0 2.57613e-16)
(0 0 -8.78051e-16)
(0 0 2.08944e-15)
(0 0 -2.64323e-15)
(0 0 -3.76811e-15)
(0 0 3.06993e-14)
(0 0 -7.5645e-14)
(0 0 -2.11669e-15)
(0 0 1.0957e-12)
(0 0 -9.68114e-12)
(0 0 7.14094e-11)
(0 0 -4.18497e-10)
(0 0 1.69642e-09)
(0 0 -3.42523e-09)
(0 0 -7.11797e-09)
(0 0 1.21138e-07)
(0 0 0.000103998)
(0 0 0.000253558)
(0 0 0.000317864)
(0 0 0.000348561)
(0 0 0.000368071)
(0 0 0.000379556)
(0 0 0.000387799)
(0 0 0.000392979)
(0 0 0.000396796)
(0 0 0.000397903)
(0 0 -6.92365e-05)
(0 0 -0.000406171)
(0 0 0.000133173)
(0 0 0.000406115)
(0 0 -0.000136391)
(0 0 -0.000409984)
(0 0 0.000132023)
(0 0 0.00040455)
(0 0 -0.000135166)
(0 0 -0.000406028)
(0 0 0.000132337)
(0 0 0.000401167)
(0 0 -0.00013843)
(0 0 -0.000407608)
(0 0 0.000130521)
(0 0 0.000399814)
(0 0 -0.000136742)
(0 0 -0.000405486)
(0 0 0.000130879)
(0 0 0.000399647)
(0 0 -0.000136489)
(0 0 -0.000405174)
(0 0 0.000130897)
(0 0 0.000399581)
(0 0 -0.000136428)
(0 0 -0.000405084)
(0 0 0.000130899)
(0 0 0.000399552)
(0 0 -0.000136425)
(0 0 -0.000405082)
(0 0 0.000130875)
(0 0 0.00039952)
(0 0 -0.000136445)
(0 0 -0.000405111)
(0 0 0.000130821)
(0 0 0.000399468)
(0 0 -0.000136476)
(0 0 -0.00040515)
(0 0 0.000130757)
(0 0 0.00039941)
(0 0 -0.000136502)
(0 0 -0.000405183)
(0 0 0.000130685)
(0 0 0.000399345)
(0 0 -0.000136523)
(0 0 -0.000405209)
(0 0 0.000130612)
(0 0 0.000399275)
(0 0 -0.000136544)
(0 0 -0.000405234)
(0 0 0.000130535)
(0 0 0.000399201)
(0 0 -0.000136565)
(0 0 -0.00040526)
(0 0 0.000130453)
(0 0 0.000399124)
(0 0 -0.000136585)
(0 0 -0.000405284)
(0 0 0.00013037)
(0 0 0.000399044)
(0 0 -0.000136607)
(0 0 -0.000405311)
(0 0 0.000130282)
(0 0 0.000398959)
(0 0 -0.000136628)
(0 0 -0.000405339)
(0 0 0.000130188)
(0 0 0.000398878)
(0 0 -0.000136649)
(0 0 -0.000405379)
(0 0 0.0001301)
(0 0 0.000398783)
(0 0 -0.00013665)
(0 0 -0.000405363)
(0 0 0.000129992)
(0 0 0.00039872)
(0 0 -0.00013684)
(0 0 -0.000472404)
(0 0 -0.000403621)
(0 0 -0.000402942)
(0 0 -0.000402553)
(0 0 -0.000402337)
(0 0 -0.000402248)
(0 0 -0.000402193)
(0 0 -0.000402089)
(0 0 -0.000401943)
(0 0 -0.000401812)
(0 0 -0.000401718)
(0 0 -0.000401645)
(0 0 -0.000401596)
(0 0 -0.000401569)
(0 0 -0.00040155)
(0 0 -0.000401532)
(0 0 -0.000401512)
(0 0 -0.000401474)
(0 0 -0.00040144)
(0 0 -0.000401442)
(0 0 -0.000401452)
(0 0 -0.000401455)
(0 0 -0.00040146)
(0 0 -0.000401464)
(0 0 -0.000401461)
(0 0 -0.000401449)
(0 0 -0.000401446)
(0 0 -0.000401444)
(0 0 -0.000401439)
(0 0 -0.000401437)
(0 0 -0.000401433)
(0 0 -0.000401421)
(0 0 -0.000401415)
(0 0 -0.000401414)
(0 0 -0.000401414)
(0 0 -0.000401401)
(0 0 -0.000401385)
(0 0 -0.000401378)
(0 0 -0.000401377)
(0 0 -0.000401374)
(0 0 -0.000401369)
(0 0 -0.000401361)
(0 0 -0.000401357)
(0 0 -0.000401352)
(0 0 -0.000401343)
(0 0 -0.000401328)
(0 0 -0.000401313)
(0 0 -0.0004013)
(0 0 -0.000401297)
(0 0 -0.000401288)
(0 0 -0.000401273)
(0 0 -0.000401254)
(0 0 -0.000401237)
(0 0 -0.000401224)
(0 0 -0.000401216)
(0 0 -0.000401202)
(0 0 -0.000401187)
(0 0 -0.000401171)
(0 0 -0.000401157)
(0 0 -0.00040114)
(0 0 -0.000401122)
(0 0 -0.000401108)
(0 0 -0.000401094)
(0 0 -0.000401069)
(0 0 -0.000401043)
(0 0 -0.000401019)
(0 0 -0.000401)
(0 0 -0.000400979)
(0 0 -0.000400954)
(0 0 -0.000400935)
(0 0 -0.000400918)
(0 0 -0.000400892)
(0 0 -0.000400864)
(0 0 -0.000400837)
(0 0 -0.000400816)
(0 0 -0.000400791)
(0 0 -0.000400763)
(0 0 -0.00040073)
(0 0 -0.0004007)
(0 0 -0.000400675)
(0 0 -0.000400662)
(0 0 -0.000400632)
(0 0 -0.000400606)
(0 0 -0.000400573)
(0 0 -0.000400562)
(0 0 -0.000400519)
(0 0 -0.00040051)
(0 0 -0.000400443)
(0 0 -0.000400488)
(0 0 -0.000400374)
(0 0 -0.000400447)
(0 0 -0.000400282)
(0 0 -0.000400427)
(0 0 -0.000400214)
(0 0 -0.000400371)
(0 0 -0.000400179)
(0 0 -0.000400319)
(0 0 -0.000400117)
(0 0 -0.000400278)
(0 0 -0.00040007)
(0 0 -0.000400229)
(0 0 -0.000400017)
(0 0 -0.000400202)
(0 0 -0.000399948)
(0 0 -0.000400185)
(0 0 -0.000399879)
(0 0 -0.000400183)
(0 0 -0.000399787)
(0 0 -0.000400163)
(0 0 -0.000399805)
(0 0 -0.000399988)
(0 0 -0.000399874)
(0 0 -0.000399765)
(0 0 -0.000400106)
(0 0 -0.000399415)
(0 0 -0.000400232)
(0 0 -0.000399193)
(0 0 -0.00040029)
(0 0 -0.000399494)
(0 0 -0.000399521)
(0 0 -0.000399609)
(0 0 -0.000399961)
(0 0 -0.000399626)
(0 0 -0.000398983)
(0 0 -0.000399857)
(0 0 -0.000399703)
(0 0 -0.000399529)
(0 0 -0.000398301)
(0 0 -0.000399507)
(0 0 -0.000399158)
(0 0 -0.000399646)
(0 0 -0.000398616)
(0 0 -0.000399219)
(0 0 -0.000399457)
(0 0 -0.000399706)
(0 0 -0.000399774)
(0 0 -0.000398958)
(0 0 -0.000399596)
(0 0 -0.00039869)
(0 0 -0.00039994)
(0 0 -0.000398732)
(0 0 -0.000400624)
(0 0 -0.000398546)
(0 0 -0.000401052)
(0 0 -0.000398353)
(0 0 -0.000401021)
(0 0 -0.000398473)
(0 0 -0.000400772)
(0 0 -0.000374541)
(0 0 -0.000169149)
(0 0 -2.15726e-07)
(0 0 4.86583e-09)
(0 0 2.8273e-09)
(0 0 0)
(0 0 0)
(0 0 -1.39326e-39)
(0 0 5.54692e-39)
(0 0 -1.45227e-38)
(0 0 2.002e-38)
(0 0 6.89509e-38)
(0 0 -7.66821e-37)
(0 0 4.37252e-36)
(0 0 -1.97065e-35)
(0 0 7.63948e-35)
(0 0 -2.60259e-34)
(0 0 7.70618e-34)
(0 0 -1.86591e-33)
(0 0 2.8079e-33)
(0 0 4.52849e-33)
(0 0 -6.60732e-32)
(0 0 3.96831e-31)
(0 0 -1.92532e-30)
(0 0 8.52438e-30)
(0 0 -3.60976e-29)
(0 0 1.48996e-28)
(0 0 -6.00757e-28)
(0 0 2.34479e-27)
(0 0 -8.71092e-27)
(0 0 3.00457e-26)
(0 0 -9.23187e-26)
(0 0 2.29775e-25)
(0 0 -3.03682e-25)
(0 0 -1.1824e-24)
(0 0 1.28228e-23)
(0 0 -7.35579e-23)
(0 0 3.33233e-22)
(0 0 -1.28545e-21)
(0 0 4.26546e-21)
(0 0 -1.17553e-20)
(0 0 2.32383e-20)
(0 0 -5.67949e-21)
(0 0 -2.38933e-19)
(0 0 1.53209e-18)
(0 0 -6.5341e-18)
(0 0 2.1705e-17)
(0 0 -5.52075e-17)
(0 0 8.4424e-17)
(0 0 9.70729e-17)
(0 0 -1.34881e-15)
(0 0 6.04341e-15)
(0 0 -1.77954e-14)
(0 0 3.26435e-14)
(0 0 -4.93605e-15)
(0 0 -2.0752e-13)
(0 0 7.21193e-13)
(0 0 -4.54795e-13)
(0 0 -7.53129e-12)
(0 0 4.99918e-11)
(0 0 -2.08035e-10)
(0 0 6.4377e-10)
(0 0 -1.2223e-09)
(0 0 1.01662e-10)
(0 0 -6.22163e-09)
(0 0 2.62268e-07)
(0 0 0.000103826)
(0 0 0.000252982)
(0 0 0.000317372)
(0 0 0.000348091)
(0 0 0.000367601)
(0 0 0.000379083)
(0 0 0.000387339)
(0 0 0.000392485)
(0 0 0.000396323)
(0 0 0.000396726)
(0 0 -6.86508e-05)
(0 0 -0.000404146)
(0 0 0.000132248)
(0 0 0.000404265)
(0 0 -0.000135491)
(0 0 -0.000408118)
(0 0 0.000131125)
(0 0 0.000402695)
(0 0 -0.000134267)
(0 0 -0.000404177)
(0 0 0.000131439)
(0 0 0.000399322)
(0 0 -0.000137526)
(0 0 -0.000405759)
(0 0 0.000129626)
(0 0 0.000397974)
(0 0 -0.000135844)
(0 0 -0.000403642)
(0 0 0.000129986)
(0 0 0.000397809)
(0 0 -0.000135592)
(0 0 -0.000403331)
(0 0 0.000130005)
(0 0 0.000397743)
(0 0 -0.000135531)
(0 0 -0.000403242)
(0 0 0.000130007)
(0 0 0.000397714)
(0 0 -0.000135528)
(0 0 -0.000403239)
(0 0 0.000129983)
(0 0 0.000397682)
(0 0 -0.000135548)
(0 0 -0.000403269)
(0 0 0.000129928)
(0 0 0.00039763)
(0 0 -0.00013558)
(0 0 -0.000403307)
(0 0 0.000129865)
(0 0 0.000397572)
(0 0 -0.000135605)
(0 0 -0.00040334)
(0 0 0.000129793)
(0 0 0.000397507)
(0 0 -0.000135627)
(0 0 -0.000403367)
(0 0 0.00012972)
(0 0 0.000397438)
(0 0 -0.000135647)
(0 0 -0.000403391)
(0 0 0.000129643)
(0 0 0.000397364)
(0 0 -0.000135669)
(0 0 -0.000403418)
(0 0 0.000129562)
(0 0 0.000397287)
(0 0 -0.000135689)
(0 0 -0.000403441)
(0 0 0.000129479)
(0 0 0.000397207)
(0 0 -0.000135711)
(0 0 -0.000403469)
(0 0 0.000129391)
(0 0 0.000397122)
(0 0 -0.000135732)
(0 0 -0.000403497)
(0 0 0.000129298)
(0 0 0.000397041)
(0 0 -0.000135753)
(0 0 -0.000403537)
(0 0 0.000129209)
(0 0 0.000396946)
(0 0 -0.000135753)
(0 0 -0.000403523)
(0 0 0.000129112)
(0 0 0.000396867)
(0 0 -0.000136043)
(0 0 -0.000471038)
(0 0 -0.000403271)
(0 0 -0.000402437)
(0 0 -0.000402096)
(0 0 -0.000401855)
(0 0 -0.00040177)
(0 0 -0.000401715)
(0 0 -0.000401611)
(0 0 -0.000401466)
(0 0 -0.000401335)
(0 0 -0.000401241)
(0 0 -0.000401168)
(0 0 -0.000401119)
(0 0 -0.000401092)
(0 0 -0.000401073)
(0 0 -0.000401054)
(0 0 -0.000401035)
(0 0 -0.000400997)
(0 0 -0.000400963)
(0 0 -0.000400965)
(0 0 -0.000400975)
(0 0 -0.000400978)
(0 0 -0.000400983)
(0 0 -0.000400987)
(0 0 -0.000400984)
(0 0 -0.000400972)
(0 0 -0.000400969)
(0 0 -0.000400967)
(0 0 -0.000400962)
(0 0 -0.00040096)
(0 0 -0.000400955)
(0 0 -0.000400944)
(0 0 -0.000400937)
(0 0 -0.000400937)
(0 0 -0.000400937)
(0 0 -0.000400924)
(0 0 -0.000400908)
(0 0 -0.0004009)
(0 0 -0.0004009)
(0 0 -0.000400897)
(0 0 -0.000400892)
(0 0 -0.000400884)
(0 0 -0.000400879)
(0 0 -0.000400875)
(0 0 -0.000400865)
(0 0 -0.000400851)
(0 0 -0.000400836)
(0 0 -0.000400823)
(0 0 -0.000400819)
(0 0 -0.000400811)
(0 0 -0.000400796)
(0 0 -0.000400777)
(0 0 -0.000400759)
(0 0 -0.000400747)
(0 0 -0.000400739)
(0 0 -0.000400725)
(0 0 -0.00040071)
(0 0 -0.000400694)
(0 0 -0.00040068)
(0 0 -0.000400663)
(0 0 -0.000400645)
(0 0 -0.000400631)
(0 0 -0.000400617)
(0 0 -0.000400592)
(0 0 -0.000400566)
(0 0 -0.000400542)
(0 0 -0.000400523)
(0 0 -0.000400502)
(0 0 -0.000400477)
(0 0 -0.000400458)
(0 0 -0.000400442)
(0 0 -0.000400415)
(0 0 -0.000400387)
(0 0 -0.00040036)
(0 0 -0.00040034)
(0 0 -0.000400314)
(0 0 -0.000400286)
(0 0 -0.000400253)
(0 0 -0.000400223)
(0 0 -0.000400199)
(0 0 -0.000400185)
(0 0 -0.000400155)
(0 0 -0.000400129)
(0 0 -0.000400096)
(0 0 -0.000400085)
(0 0 -0.000400043)
(0 0 -0.000400033)
(0 0 -0.000399966)
(0 0 -0.000400011)
(0 0 -0.000399898)
(0 0 -0.00039997)
(0 0 -0.000399807)
(0 0 -0.000399949)
(0 0 -0.000399739)
(0 0 -0.000399894)
(0 0 -0.000399703)
(0 0 -0.000399841)
(0 0 -0.000399641)
(0 0 -0.000399801)
(0 0 -0.000399595)
(0 0 -0.000399751)
(0 0 -0.000399542)
(0 0 -0.000399724)
(0 0 -0.000399474)
(0 0 -0.000399707)
(0 0 -0.000399404)
(0 0 -0.000399704)
(0 0 -0.000399313)
(0 0 -0.000399685)
(0 0 -0.00039933)
(0 0 -0.000399511)
(0 0 -0.000399398)
(0 0 -0.00039929)
(0 0 -0.000399627)
(0 0 -0.000398944)
(0 0 -0.00039975)
(0 0 -0.000398723)
(0 0 -0.000399808)
(0 0 -0.000399021)
(0 0 -0.000399046)
(0 0 -0.000399134)
(0 0 -0.000399483)
(0 0 -0.000399149)
(0 0 -0.000398511)
(0 0 -0.000399379)
(0 0 -0.000399228)
(0 0 -0.00039905)
(0 0 -0.000397833)
(0 0 -0.000399027)
(0 0 -0.000398685)
(0 0 -0.000399166)
(0 0 -0.000398146)
(0 0 -0.000398743)
(0 0 -0.000398981)
(0 0 -0.00039923)
(0 0 -0.000399295)
(0 0 -0.000398487)
(0 0 -0.000399116)
(0 0 -0.000398221)
(0 0 -0.000399457)
(0 0 -0.000398266)
(0 0 -0.000400136)
(0 0 -0.000398084)
(0 0 -0.000400561)
(0 0 -0.000397892)
(0 0 -0.000400534)
(0 0 -0.000398004)
(0 0 -0.000400255)
(0 0 -0.0003738)
(0 0 -0.000169042)
(0 0 -5.20453e-07)
(0 0 -1.79372e-09)
(0 0 -8.29214e-09)
(0 0 0)
(0 0 0)
(0 0 1.51907e-39)
(0 0 -5.2937e-39)
(0 0 1.1854e-38)
(0 0 -1.04375e-38)
(0 0 -7.79973e-38)
(0 0 6.25794e-37)
(0 0 -3.02232e-36)
(0 0 1.14151e-35)
(0 0 -3.43125e-35)
(0 0 7.04498e-35)
(0 0 1.45973e-35)
(0 0 -1.16215e-33)
(0 0 8.16953e-33)
(0 0 -4.20423e-32)
(0 0 1.86466e-31)
(0 0 -7.54268e-31)
(0 0 2.86684e-30)
(0 0 -1.04449e-29)
(0 0 3.69991e-29)
(0 0 -1.28385e-28)
(0 0 4.35271e-28)
(0 0 -1.41727e-27)
(0 0 4.25668e-27)
(0 0 -1.07112e-26)
(0 0 1.51609e-26)
(0 0 5.37101e-26)
(0 0 -6.45192e-25)
(0 0 3.99475e-24)
(0 0 -1.96713e-23)
(0 0 8.36749e-23)
(0 0 -3.14016e-22)
(0 0 1.032e-21)
(0 0 -2.84528e-21)
(0 0 5.64687e-21)
(0 0 -1.13195e-21)
(0 0 -6.24038e-20)
(0 0 4.09891e-19)
(0 0 -1.82145e-18)
(0 0 6.43432e-18)
(0 0 -1.81573e-17)
(0 0 3.6197e-17)
(0 0 -1.42009e-17)
(0 0 -2.94616e-16)
(0 0 1.7371e-15)
(0 0 -6.2553e-15)
(0 0 1.54708e-14)
(0 0 -1.95874e-14)
(0 0 -3.87594e-14)
(0 0 3.2282e-13)
(0 0 -1.07196e-12)
(0 0 2.29865e-12)
(0 0 -4.10781e-12)
(0 0 1.30531e-11)
(0 0 -6.86257e-11)
(0 0 3.53221e-10)
(0 0 -1.8136e-09)
(0 0 8.31978e-09)
(0 0 -3.31767e-08)
(0 0 2.87011e-07)
(0 0 0.000103964)
(0 0 0.000253165)
(0 0 0.000317604)
(0 0 0.00034834)
(0 0 0.000367846)
(0 0 0.000379336)
(0 0 0.000387596)
(0 0 0.000392702)
(0 0 0.000396722)
(0 0 0.000396823)
(0 0 -6.90379e-05)
(0 0 -0.000404136)
(0 0 0.000132555)
(0 0 0.000404239)
(0 0 -0.000135777)
(0 0 -0.000408105)
(0 0 0.00013141)
(0 0 0.000402682)
(0 0 -0.000134552)
(0 0 -0.000404165)
(0 0 0.000131724)
(0 0 0.00039931)
(0 0 -0.00013781)
(0 0 -0.000405747)
(0 0 0.00012991)
(0 0 0.000397961)
(0 0 -0.000136128)
(0 0 -0.00040363)
(0 0 0.00013027)
(0 0 0.000397796)
(0 0 -0.000135876)
(0 0 -0.000403319)
(0 0 0.000130288)
(0 0 0.000397731)
(0 0 -0.000135815)
(0 0 -0.00040323)
(0 0 0.000130291)
(0 0 0.000397702)
(0 0 -0.000135812)
(0 0 -0.000403227)
(0 0 0.000130266)
(0 0 0.00039767)
(0 0 -0.000135832)
(0 0 -0.000403257)
(0 0 0.000130212)
(0 0 0.000397618)
(0 0 -0.000135863)
(0 0 -0.000403295)
(0 0 0.000130148)
(0 0 0.00039756)
(0 0 -0.000135889)
(0 0 -0.000403328)
(0 0 0.000130077)
(0 0 0.000397495)
(0 0 -0.00013591)
(0 0 -0.000403355)
(0 0 0.000130004)
(0 0 0.000397426)
(0 0 -0.000135931)
(0 0 -0.000403379)
(0 0 0.000129927)
(0 0 0.000397352)
(0 0 -0.000135953)
(0 0 -0.000403406)
(0 0 0.000129845)
(0 0 0.000397275)
(0 0 -0.000135972)
(0 0 -0.000403429)
(0 0 0.000129762)
(0 0 0.000397194)
(0 0 -0.000135994)
(0 0 -0.000403457)
(0 0 0.000129674)
(0 0 0.00039711)
(0 0 -0.000136016)
(0 0 -0.000403485)
(0 0 0.000129581)
(0 0 0.000397029)