/*--------------------------------*- C++ -*----------------------------------*\
| =========                 |                                                 |
| \\      /  F ield         | foam-extend: Open Source CFD                    |
|  \\    /   O peration     | Version:     3.2                                |
|   \\  /    A nd           | Web:         http://www.foam-extend.org         |
|    \\/     M anipulation  | For copyright notice see file Copyright         |
\*---------------------------------------------------------------------------*/
FoamFile
{
    version     2.0;
    format      ascii;
    class       pointVectorField;
    location    "50";
    object      newMeshPoints;
}
// * * * * * * * * * * * * * * * * * * * * * * * * * * * * * * * * * * * * * //

dimensions      [0 1 0 0 0 0 0];

internalField   nonuniform List<vector> 
11438
(
(0 0 0)
(0.05 0 -0.00025)
(0.1 0 -0.0005)
(0.15 0 -0.00075)
(0.2 0 -0.001)
(0.25 0 -0.00125)
(0.3 0 -0.0015)
(0.35 0 -0.00175)
(0.4 0 -0.002)
(0.45 0 -0.00225)
(0.5 0 -0.0025)
(0.55 0 -0.00275)
(0.6 0 -0.003)
(0.65 0 -0.00325)
(0.7 0 -0.0035)
(0.75 0 -0.00375)
(0.8 0 -0.004)
(0.85 0 -0.00425)
(0.9 0 -0.0045)
(0.95 0 -0.00475)
(1 0 -0.005)
(1.05 0 -0.00525)
(1.1 0 -0.0055)
(1.15 0 -0.00575)
(1.2 0 -0.006)
(1.25 0 -0.00625)
(1.3 0 -0.0065)
(1.35 0 -0.00675)
(1.4 0 -0.007)
(1.45 0 -0.00725)
(1.5 0 -0.0075)
(1.55 0 -0.00775)
(1.6 0 -0.008)
(1.65 0 -0.00825)
(1.7 0 -0.0085)
(1.75 0 -0.00875)
(1.8 0 -0.009)
(1.85 0 -0.00925)
(1.9 0 -0.0095)
(1.95 0 -0.00975)
(2 0 -0.01)
(2.05 0 -0.01025)
(2.1 0 -0.0105)
(2.15 0 -0.01075)
(2.2 0 -0.011)
(2.25 0 -0.01125)
(2.3 0 -0.0115)
(2.35 0 -0.01175)
(2.4 0 -0.012)
(2.45 0 -0.01225)
(2.5 0 -0.0125)
(2.55 0 -0.01275)
(2.6 0 -0.013)
(2.65 0 -0.01325)
(2.7 0 -0.0135)
(2.75 0 -0.01375)
(2.8 0 -0.014)
(2.85 0 -0.01425)
(2.9 0 -0.0145)
(2.95 0 -0.01475)
(3 0 -0.0153855)
(3.05 0 -0.0160447)
(3.1 0 -0.0165174)
(3.15 0 -0.0168865)
(3.2 0 -0.0172265)
(3.25 0 -0.0175264)
(3.3 0 -0.0178189)
(3.35 0 -0.0180917)
(3.4 0 -0.0183629)
(3.45 0 -0.0186229)
(3.5 0 -0.0188825)
(3.55 0 -0.0191386)
(3.6 0 -0.0194041)
(3.65 0 -0.0196578)
(3.7 0 -0.0199095)
(3.75 0 -0.0201539)
(3.8 0 -0.0204042)
(3.85 0 -0.0206513)
(3.9 0 -0.0208996)
(3.95 0 -0.0211473)
(4 0 -0.021398)
(4.05 0 -0.0216436)
(4.1 0 -0.0218868)
(4.15 0 -0.0221315)
(4.2 0 -0.0223825)
(4.25 0 -0.0226324)
(4.3 0 -0.0228793)
(4.35 0 -0.0231273)
(4.4 0 -0.02338)
(4.45 0 -0.023631)
(4.5 0 -0.0238783)
(4.55 0 -0.0241267)
(4.6 0 -0.0243794)
(4.65 0 -0.0246306)
(4.7 0 -0.0248779)
(4.75 0 -0.0251265)
(4.8 0 -0.0253792)
(4.85 0 -0.0256305)
(4.9 0 -0.0258778)
(4.95 0 -0.0261264)
(5 0 -0.0263791)
(5.05 0 -0.0266304)
(5.1 0 -0.0268777)
(5.15 0 -0.0271263)
(5.2 0 -0.0273789)
(5.25 0 -0.0276302)
(5.3 0 -0.0278774)
(5.35 0 -0.028126)
(5.4 0 -0.0283787)
(5.45 0 -0.0286299)
(5.5 0 -0.0288772)
(5.55 0 -0.0291258)
(5.6 0 -0.0293784)
(5.65 0 -0.0296297)
(5.7 0 -0.0298769)
(5.75 0 -0.0301255)
(5.8 0 -0.0303781)
(5.85 0 -0.0306293)
(5.9 0 -0.0308766)
(5.95 0 -0.0311251)
(6 0 -0.0313777)
(6.05 0 -0.031629)
(6.1 0 -0.0318762)
(6.15 0 -0.0321248)
(6.2 0 -0.0323774)
(6.25 0 -0.0326287)
(6.3 0 -0.0328759)
(6.35 0 -0.0331244)
(6.4 0 -0.033377)
(6.45 0 -0.0336283)
(6.5 0 -0.0338755)
(6.55 0 -0.034124)
(6.6 0 -0.0343766)
(6.65 0 -0.0346279)
(6.7 0 -0.0348751)
(6.75 0 -0.0351237)
(6.8 0 -0.0353762)
(6.85 0 -0.0356275)
(6.9 0 -0.0358747)
(6.95 0 -0.0361232)
(7 0 -0.0363758)
(7.05 0 -0.0366271)
(7.1 0 -0.0368742)
(7.15 0 -0.0371228)
(7.2 0 -0.0373753)
(7.25 0 -0.0376266)
(7.3 0 -0.0378736)
(7.35 0 -0.0381185)
(7.4 0 -0.0383645)
(7.45 0 -0.0386115)
(7.5 0 -0.0388598)
(7.55 0 -0.0391085)
(7.6 0 -0.0393576)
(7.65 0 -0.0396066)
(7.7 0 -0.0398558)
(7.75 0 -0.0401051)
(7.8 0 -0.0403547)
(7.85 0 -0.0406043)
(7.9 0 -0.0408541)
(7.95 0 -0.0411038)
(8 0 -0.0413537)
(8.05 0 -0.0416035)
(8.1 0 -0.0418533)
(8.15 0 -0.0421032)
(8.2 0 -0.042353)
(8.25 0 -0.0426028)
(8.3 0 -0.0428527)
(8.35 0 -0.0431026)
(8.4 0 -0.0433525)
(8.45 0 -0.0436024)
(8.5 0 -0.0438523)
(8.55 0 -0.0441021)
(8.6 0 -0.044352)
(8.65 0 -0.0446019)
(8.7 0 -0.0448518)
(8.75 0 -0.0451016)
(8.8 0 -0.0453515)
(8.85 0 -0.0456014)
(8.9 0 -0.0458513)
(8.95 0 -0.0461011)
(9 0 -0.046351)
(9.05 0 -0.0466009)
(9.1 0 -0.0468508)
(9.15 0 -0.0471007)
(9.2 0 -0.0473506)
(9.25 0 -0.0476004)
(9.3 0 -0.0478503)
(9.35 0 -0.0481002)
(9.4 0 -0.04835)
(9.45 0 -0.0485999)
(9.5 0 -0.0488498)
(9.55 0 -0.0490996)
(9.6 0 -0.0493495)
(9.65 0 -0.0495994)
(9.7 0 -0.0498493)
(9.75 0 -0.0500991)
(9.8 0 -0.050349)
(9.85 0 -0.0505989)
(9.9 0 -0.0508487)
(9.95 0 -0.0510986)
(10 0 -0.0513485)
(10.05 0 -0.0515984)
(10.1 0 -0.0518482)
(10.15 0 -0.0520981)
(10.2 0 -0.052348)
(10.25 0 -0.0525978)
(10.3 0 -0.0528477)
(10.35 0 -0.0530976)
(10.4 0 -0.0533475)
(10.45 0 -0.0535973)
(10.5 0 -0.0538472)
(10.55 0 -0.0540971)
(10.6 0 -0.054347)
(10.65 0 -0.0545968)
(10.7 0 -0.0548467)
(10.75 0 -0.0550966)
(10.8 0 -0.0553465)
(10.85 0 -0.0555963)
(10.9 0 -0.0558462)
(10.95 0 -0.0560961)
(11 0 -0.056346)
(11.05 0 -0.0565959)
(11.1 0 -0.0568458)
(11.15 0 -0.0570956)
(11.2 0 -0.0573455)
(11.25 0 -0.0575954)
(11.3 0 -0.0578453)
(11.35 0 -0.0580952)
(11.4 0 -0.0583451)
(11.45 0 -0.058595)
(11.5 0 -0.0588449)
(11.55 0 -0.0590948)
(11.6 0 -0.0593447)
(11.65 0 -0.0595946)
(11.7 0 -0.0598445)
(11.75 0 -0.0600945)
(11.8 0 -0.0603442)
(11.85 0 -0.0605944)
(11.9 0 -0.0608439)
(11.95 0 -0.0610944)
(12 0 -0.0613435)
(12.05 0 -0.0615945)
(12.1 0 -0.0618431)
(12.15 0 -0.0620946)
(12.2 0 -0.0623427)
(12.25 0 -0.0625948)
(12.3 0 -0.0628422)
(12.35 0 -0.063095)
(12.4 0 -0.0633417)
(12.45 0 -0.0635952)
(12.5 0 -0.0638412)
(12.55 0 -0.0640955)
(12.6 0 -0.0643407)
(12.65 0 -0.0645959)
(12.7 0 -0.0648399)
(12.75 0 -0.0650966)
(12.8 0 -0.065339)
(12.85 0 -0.0655972)
(12.9 0 -0.065838)
(12.95 0 -0.0660977)
(13 0 -0.0663374)
(13.05 0 -0.0665977)
(13.1 0 -0.0668372)
(13.15 0 -0.067097)
(13.2 0 -0.067338)
(13.25 0 -0.0675958)
(13.3 0 -0.0678382)
(13.35 0 -0.0680956)
(13.4 0 -0.0683384)
(13.45 0 -0.0685948)
(13.5 0 -0.0688382)
(13.55 0 -0.0690951)
(13.6 0 -0.0693378)
(13.65 0 -0.0695954)
(13.7 0 -0.0698342)
(13.75 0 -0.0700957)
(13.8 0 -0.0703321)
(13.85 0 -0.0705963)
(13.9 0 -0.070831)
(13.95 0 -0.0710993)
(14 0 -0.0713308)
(14.05 0 -0.0716008)
(14.1 0 -0.0718298)
(14.15 0 -0.0721022)
(14.2 0 -0.0723305)
(14.25 0 -0.0726038)
(14.3 0 -0.0728318)
(14.35 0 -0.0731048)
(14.4 0 -0.0733323)
(14.45 0 -0.0736042)
(14.5 0 -0.0738334)
(14.55 0 -0.0741022)
(14.6 0 -0.0743349)
(14.65 0 -0.074601)
(14.7 0 -0.0748329)
(14.75 0 -0.0750982)
(14.8 0 -0.0748867)
(14.85 0 -0.07425)
(14.9 0 -0.0745)
(14.95 0 -0.07475)
(15 0 -0.075)
(0 0.02 0)
(0.05 0.02 -0.00025)
(0.1 0.02 -0.0005)
(0.15 0.02 -0.00075)
(0.2 0.02 -0.001)
(0.25 0.02 -0.00125)
(0.3 0.02 -0.0015)
(0.35 0.02 -0.00175)
(0.4 0.02 -0.002)
(0.45 0.02 -0.00225)
(0.5 0.02 -0.0025)
(0.55 0.02 -0.00275)
(0.6 0.02 -0.003)
(0.65 0.02 -0.00325)
(0.7 0.02 -0.0035)
(0.75 0.02 -0.00375)
(0.8 0.02 -0.004)
(0.85 0.02 -0.00425)
(0.9 0.02 -0.0045)
(0.95 0.02 -0.00475)
(1 0.02 -0.005)
(1.05 0.02 -0.00525)
(1.1 0.02 -0.0055)
(1.15 0.02 -0.00575)
(1.2 0.02 -0.006)
(1.25 0.02 -0.00625)
(1.3 0.02 -0.0065)
(1.35 0.02 -0.00675)
(1.4 0.02 -0.007)
(1.45 0.02 -0.00725)
(1.5 0.02 -0.0075)
(1.55 0.02 -0.00775)
(1.6 0.02 -0.008)
(1.65 0.02 -0.00825)
(1.7 0.02 -0.0085)
(1.75 0.02 -0.00875)
(1.8 0.02 -0.009)
(1.85 0.02 -0.00925)
(1.9 0.02 -0.0095)
(1.95 0.02 -0.00975)
(2 0.02 -0.01)
(2.05 0.02 -0.01025)
(2.1 0.02 -0.0105)
(2.15 0.02 -0.01075)
(2.2 0.02 -0.011)
(2.25 0.02 -0.01125)
(2.3 0.02 -0.0115)
(2.35 0.02 -0.01175)
(2.4 0.02 -0.012)
(2.45 0.02 -0.01225)
(2.5 0.02 -0.0125)
(2.55 0.02 -0.01275)
(2.6 0.02 -0.013)
(2.65 0.02 -0.01325)
(2.7 0.02 -0.0135)
(2.75 0.02 -0.01375)
(2.8 0.02 -0.014)
(2.85 0.02 -0.01425)
(2.9 0.02 -0.0145)
(2.95 0.02 -0.01475)
(3 0.02 -0.0153855)
(3.05 0.02 -0.0160447)
(3.1 0.02 -0.0165174)
(3.15 0.02 -0.0168865)
(3.2 0.02 -0.0172265)
(3.25 0.02 -0.0175264)
(3.3 0.02 -0.0178189)
(3.35 0.02 -0.0180917)
(3.4 0.02 -0.0183629)
(3.45 0.02 -0.0186229)
(3.5 0.02 -0.0188825)
(3.55 0.02 -0.0191386)
(3.6 0.02 -0.0194041)
(3.65 0.02 -0.0196578)
(3.7 0.02 -0.0199095)
(3.75 0.02 -0.0201539)
(3.8 0.02 -0.0204042)
(3.85 0.02 -0.0206513)
(3.9 0.02 -0.0208996)
(3.95 0.02 -0.0211473)
(4 0.02 -0.021398)
(4.05 0.02 -0.0216436)
(4.1 0.02 -0.0218868)
(4.15 0.02 -0.0221315)
(4.2 0.02 -0.0223825)
(4.25 0.02 -0.0226324)
(4.3 0.02 -0.0228793)
(4.35 0.02 -0.0231273)
(4.4 0.02 -0.02338)
(4.45 0.02 -0.023631)
(4.5 0.02 -0.0238783)
(4.55 0.02 -0.0241267)
(4.6 0.02 -0.0243794)
(4.65 0.02 -0.0246306)
(4.7 0.02 -0.0248779)
(4.75 0.02 -0.0251265)
(4.8 0.02 -0.0253792)
(4.85 0.02 -0.0256305)
(4.9 0.02 -0.0258778)
(4.95 0.02 -0.0261264)
(5 0.02 -0.0263791)
(5.05 0.02 -0.0266304)
(5.1 0.02 -0.0268777)
(5.15 0.02 -0.0271263)
(5.2 0.02 -0.0273789)
(5.25 0.02 -0.0276302)
(5.3 0.02 -0.0278774)
(5.35 0.02 -0.028126)
(5.4 0.02 -0.0283787)
(5.45 0.02 -0.0286299)
(5.5 0.02 -0.0288772)
(5.55 0.02 -0.0291258)
(5.6 0.02 -0.0293784)
(5.65 0.02 -0.0296297)
(5.7 0.02 -0.0298769)
(5.75 0.02 -0.0301255)
(5.8 0.02 -0.0303781)
(5.85 0.02 -0.0306293)
(5.9 0.02 -0.0308766)
(5.95 0.02 -0.0311251)
(6 0.02 -0.0313777)
(6.05 0.02 -0.031629)
(6.1 0.02 -0.0318762)
(6.15 0.02 -0.0321248)
(6.2 0.02 -0.0323774)
(6.25 0.02 -0.0326287)
(6.3 0.02 -0.0328759)
(6.35 0.02 -0.0331244)
(6.4 0.02 -0.033377)
(6.45 0.02 -0.0336283)
(6.5 0.02 -0.0338755)
(6.55 0.02 -0.034124)
(6.6 0.02 -0.0343766)
(6.65 0.02 -0.0346279)
(6.7 0.02 -0.0348751)
(6.75 0.02 -0.0351237)
(6.8 0.02 -0.0353762)
(6.85 0.02 -0.0356275)
(6.9 0.02 -0.0358747)
(6.95 0.02 -0.0361232)
(7 0.02 -0.0363758)
(7.05 0.02 -0.0366271)
(7.1 0.02 -0.0368742)
(7.15 0.02 -0.0371228)
(7.2 0.02 -0.0373753)
(7.25 0.02 -0.0376266)
(7.3 0.02 -0.0378736)
(7.35 0.02 -0.0381185)
(7.4 0.02 -0.0383645)
(7.45 0.02 -0.0386115)
(7.5 0.02 -0.0388598)
(7.55 0.02 -0.0391085)
(7.6 0.02 -0.0393576)
(7.65 0.02 -0.0396066)
(7.7 0.02 -0.0398558)
(7.75 0.02 -0.0401051)
(7.8 0.02 -0.0403547)
(7.85 0.02 -0.0406043)
(7.9 0.02 -0.0408541)
(7.95 0.02 -0.0411038)
(8 0.02 -0.0413537)
(8.05 0.02 -0.0416035)
(8.1 0.02 -0.0418533)
(8.15 0.02 -0.0421032)
(8.2 0.02 -0.042353)
(8.25 0.02 -0.0426028)
(8.3 0.02 -0.0428527)
(8.35 0.02 -0.0431026)
(8.4 0.02 -0.0433525)
(8.45 0.02 -0.0436024)
(8.5 0.02 -0.0438523)
(8.55 0.02 -0.0441021)
(8.6 0.02 -0.044352)
(8.65 0.02 -0.0446019)
(8.7 0.02 -0.0448518)
(8.75 0.02 -0.0451016)
(8.8 0.02 -0.0453515)
(8.85 0.02 -0.0456014)
(8.9 0.02 -0.0458513)
(8.95 0.02 -0.0461011)
(9 0.02 -0.046351)
(9.05 0.02 -0.0466009)
(9.1 0.02 -0.0468508)
(9.15 0.02 -0.0471007)
(9.2 0.02 -0.0473506)
(9.25 0.02 -0.0476004)
(9.3 0.02 -0.0478503)
(9.35 0.02 -0.0481002)
(9.4 0.02 -0.04835)
(9.45 0.02 -0.0485999)
(9.5 0.02 -0.0488498)
(9.55 0.02 -0.0490996)
(9.6 0.02 -0.0493495)
(9.65 0.02 -0.0495994)
(9.7 0.02 -0.0498493)
(9.75 0.02 -0.0500991)
(9.8 0.02 -0.050349)
(9.85 0.02 -0.0505989)
(9.9 0.02 -0.0508487)
(9.95 0.02 -0.0510986)
(10 0.02 -0.0513485)
(10.05 0.02 -0.0515984)
(10.1 0.02 -0.0518482)
(10.15 0.02 -0.0520981)
(10.2 0.02 -0.052348)
(10.25 0.02 -0.0525978)
(10.3 0.02 -0.0528477)
(10.35 0.02 -0.0530976)
(10.4 0.02 -0.0533475)
(10.45 0.02 -0.0535973)
(10.5 0.02 -0.0538472)
(10.55 0.02 -0.0540971)
(10.6 0.02 -0.054347)
(10.65 0.02 -0.0545968)
(10.7 0.02 -0.0548467)
(10.75 0.02 -0.0550966)
(10.8 0.02 -0.0553465)
(10.85 0.02 -0.0555963)
(10.9 0.02 -0.0558462)
(10.95 0.02 -0.0560961)
(11 0.02 -0.056346)
(11.05 0.02 -0.0565959)
(11.1 0.02 -0.0568458)
(11.15 0.02 -0.0570956)
(11.2 0.02 -0.0573455)
(11.25 0.02 -0.0575954)
(11.3 0.02 -0.0578453)
(11.35 0.02 -0.0580952)
(11.4 0.02 -0.0583451)
(11.45 0.02 -0.058595)
(11.5 0.02 -0.0588449)
(11.55 0.02 -0.0590948)
(11.6 0.02 -0.0593447)
(11.65 0.02 -0.0595946)
(11.7 0.02 -0.0598445)
(11.75 0.02 -0.0600945)
(11.8 0.02 -0.0603442)
(11.85 0.02 -0.0605944)
(11.9 0.02 -0.0608439)
(11.95 0.02 -0.0610944)
(12 0.02 -0.0613435)
(12.05 0.02 -0.0615945)
(12.1 0.02 -0.0618431)
(12.15 0.02 -0.0620946)
(12.2 0.02 -0.0623427)
(12.25 0.02 -0.0625948)
(12.3 0.02 -0.0628422)
(12.35 0.02 -0.063095)
(12.4 0.02 -0.0633417)
(12.45 0.02 -0.0635952)
(12.5 0.02 -0.0638412)
(12.55 0.02 -0.0640955)
(12.6 0.02 -0.0643407)
(12.65 0.02 -0.0645959)
(12.7 0.02 -0.0648399)
(12.75 0.02 -0.0650966)
(12.8 0.02 -0.065339)
(12.85 0.02 -0.0655972)
(12.9 0.02 -0.065838)
(12.95 0.02 -0.0660977)
(13 0.02 -0.0663374)
(13.05 0.02 -0.0665977)
(13.1 0.02 -0.0668372)
(13.15 0.02 -0.067097)
(13.2 0.02 -0.067338)
(13.25 0.02 -0.0675958)
(13.3 0.02 -0.0678382)
(13.35 0.02 -0.0680956)
(13.4 0.02 -0.0683384)
(13.45 0.02 -0.0685948)
(13.5 0.02 -0.0688382)
(13.55 0.02 -0.0690951)
(13.6 0.02 -0.0693378)
(13.65 0.02 -0.0695954)
(13.7 0.02 -0.0698342)
(13.75 0.02 -0.0700957)
(13.8 0.02 -0.0703321)
(13.85 0.02 -0.0705963)
(13.9 0.02 -0.070831)
(13.95 0.02 -0.0710993)
(14 0.02 -0.0713308)
(14.05 0.02 -0.0716008)
(14.1 0.02 -0.0718298)
(14.15 0.02 -0.0721022)
(14.2 0.02 -0.0723305)
(14.25 0.02 -0.0726038)
(14.3 0.02 -0.0728318)
(14.35 0.02 -0.0731048)
(14.4 0.02 -0.0733323)
(14.45 0.02 -0.0736042)
(14.5 0.02 -0.0738334)
(14.55 0.02 -0.0741022)
(14.6 0.02 -0.0743349)
(14.65 0.02 -0.074601)
(14.7 0.02 -0.0748329)
(14.75 0.02 -0.0750982)
(14.8 0.02 -0.0748867)
(14.85 0.02 -0.07425)
(14.9 0.02 -0.0745)
(14.95 0.02 -0.07475)
(15 0.02 -0.075)
(0 0 0.00166667)
(0.05 0 0.00141667)
(0.1 0 0.00116667)
(0.15 0 0.000916667)
(0.2 0 0.000666667)
(0.25 0 0.000416667)
(0.3 0 0.000166667)
(0.35 0 -8.33333e-05)
(0.4 0 -0.000333333)
(0.45 0 -0.000583333)
(0.5 0 -0.000833333)
(0.55 0 -0.00108333)
(0.6 0 -0.00133333)
(0.65 0 -0.00158333)
(0.7 0 -0.00183333)
(0.75 0 -0.00208333)
(0.8 0 -0.00233333)
(0.85 0 -0.00258333)
(0.9 0 -0.00283333)
(0.95 0 -0.00308333)
(1 0 -0.00333333)
(1.05 0 -0.00358333)
(1.1 0 -0.00383333)
(1.15 0 -0.00408333)
(1.2 0 -0.00433333)
(1.25 0 -0.00458333)
(1.3 0 -0.00483333)
(1.35 0 -0.00508333)
(1.4 0 -0.00533333)
(1.45 0 -0.00558333)
(1.5 0 -0.00583333)
(1.55 0 -0.00608333)
(1.6 0 -0.00633333)
(1.65 0 -0.00658333)
(1.7 0 -0.00683333)
(1.75 0 -0.00708333)
(1.8 0 -0.00733333)
(1.85 0 -0.00758333)
(1.9 0 -0.00783333)
(1.95 0 -0.00808333)
(2 0 -0.00833333)
(2.05 0 -0.00858333)
(2.1 0 -0.00883333)
(2.15 0 -0.00908333)
(2.2 0 -0.00933333)
(2.25 0 -0.00958333)
(2.3 0 -0.00983333)
(2.35 0 -0.0100833)
(2.4 0 -0.0103333)
(2.45 0 -0.0105833)
(2.5 0 -0.0108333)
(2.55 0 -0.0110833)
(2.6 0 -0.0113333)
(2.65 0 -0.0115833)
(2.7 0 -0.0118333)
(2.75 0 -0.0120833)
(2.8 0 -0.0123333)
(2.85 0 -0.0125833)
(2.9 0 -0.0128333)
(2.95 0 -0.0130838)
(3 0 -0.0137186)
(3.05 0 -0.0143776)
(3.1 0 -0.0148504)
(3.15 0 -0.0152196)
(3.2 0 -0.0155596)
(3.25 0 -0.0158595)
(3.3 0 -0.016152)
(3.35 0 -0.0164248)
(3.4 0 -0.016696)
(3.45 0 -0.0169561)
(3.5 0 -0.0172156)
(3.55 0 -0.0174718)
(3.6 0 -0.0177373)
(3.65 0 -0.017991)
(3.7 0 -0.0182426)
(3.75 0 -0.018487)
(3.8 0 -0.0187374)
(3.85 0 -0.0189845)
(3.9 0 -0.0192327)
(3.95 0 -0.0194805)
(4 0 -0.0197311)
(4.05 0 -0.0199768)
(4.1 0 -0.0202199)
(4.15 0 -0.0204647)
(4.2 0 -0.0207156)
(4.25 0 -0.0209655)
(4.3 0 -0.0212125)
(4.35 0 -0.0214605)
(4.4 0 -0.0217131)
(4.45 0 -0.0219641)
(4.5 0 -0.0222114)
(4.55 0 -0.0224599)
(4.6 0 -0.0227126)
(4.65 0 -0.0229638)
(4.7 0 -0.0232111)
(4.75 0 -0.0234597)
(4.8 0 -0.0237123)
(4.85 0 -0.0239636)
(4.9 0 -0.024211)
(4.95 0 -0.0244596)
(5 0 -0.0247122)
(5.05 0 -0.0249635)
(5.1 0 -0.0252108)
(5.15 0 -0.0254594)
(5.2 0 -0.025712)
(5.25 0 -0.0259633)
(5.3 0 -0.0262106)
(5.35 0 -0.0264592)
(5.4 0 -0.0267118)
(5.45 0 -0.0269631)
(5.5 0 -0.0272103)
(5.55 0 -0.0274589)
(5.6 0 -0.0277115)
(5.65 0 -0.0279628)
(5.7 0 -0.02821)
(5.75 0 -0.0284586)
(5.8 0 -0.0287112)
(5.85 0 -0.0289625)
(5.9 0 -0.0292097)
(5.95 0 -0.0294583)
(6 0 -0.0297109)
(6.05 0 -0.0299621)
(6.1 0 -0.0302094)
(6.15 0 -0.0304579)
(6.2 0 -0.0307105)
(6.25 0 -0.0309618)
(6.3 0 -0.031209)
(6.35 0 -0.0314576)
(6.4 0 -0.0317102)
(6.45 0 -0.0319614)
(6.5 0 -0.0322086)
(6.55 0 -0.0324572)
(6.6 0 -0.0327098)
(6.65 0 -0.032961)
(6.7 0 -0.0332083)
(6.75 0 -0.0334568)
(6.8 0 -0.0337094)
(6.85 0 -0.0339606)
(6.9 0 -0.0342079)
(6.95 0 -0.0344564)
(7 0 -0.034709)
(7.05 0 -0.0349602)
(7.1 0 -0.0352074)
(7.15 0 -0.035456)
(7.2 0 -0.0357084)
(7.25 0 -0.0359598)
(7.3 0 -0.0362068)
(7.35 0 -0.0364516)
(7.4 0 -0.0366977)
(7.45 0 -0.0369446)
(7.5 0 -0.0371929)
(7.55 0 -0.0374417)
(7.6 0 -0.0376907)
(7.65 0 -0.0379398)
(7.7 0 -0.038189)
(7.75 0 -0.0384383)
(7.8 0 -0.0386878)
(7.85 0 -0.0389375)
(7.9 0 -0.0391872)
(7.95 0 -0.039437)
(8 0 -0.0396868)
(8.05 0 -0.0399366)
(8.1 0 -0.0401865)
(8.15 0 -0.0404363)
(8.2 0 -0.0406861)
(8.25 0 -0.0409359)
(8.3 0 -0.0411859)
(8.35 0 -0.0414357)
(8.4 0 -0.0416856)
(8.45 0 -0.0419355)
(8.5 0 -0.0421854)
(8.55 0 -0.0424352)
(8.6 0 -0.0426851)
(8.65 0 -0.042935)
(8.7 0 -0.0431849)
(8.75 0 -0.0434348)
(8.8 0 -0.0436847)
(8.85 0 -0.0439345)
(8.9 0 -0.0441844)
(8.95 0 -0.0444343)
(9 0 -0.0446842)
(9.05 0 -0.044934)
(9.1 0 -0.0451839)
(9.15 0 -0.0454338)
(9.2 0 -0.0456837)
(9.25 0 -0.0459335)
(9.3 0 -0.0461834)
(9.35 0 -0.0464333)
(9.4 0 -0.0466832)
(9.45 0 -0.046933)
(9.5 0 -0.0471829)
(9.55 0 -0.0474328)
(9.6 0 -0.0476826)
(9.65 0 -0.0479325)
(9.7 0 -0.0481824)
(9.75 0 -0.0484323)
(9.8 0 -0.0486821)
(9.85 0 -0.048932)
(9.9 0 -0.0491819)
(9.95 0 -0.0494317)
(10 0 -0.0496816)
(10.05 0 -0.0499315)
(10.1 0 -0.0501814)
(10.15 0 -0.0504312)
(10.2 0 -0.0506811)
(10.25 0 -0.050931)
(10.3 0 -0.0511809)
(10.35 0 -0.0514307)
(10.4 0 -0.0516806)
(10.45 0 -0.0519305)
(10.5 0 -0.0521803)
(10.55 0 -0.0524302)
(10.6 0 -0.0526801)
(10.65 0 -0.05293)
(10.7 0 -0.0531798)
(10.75 0 -0.0534297)
(10.8 0 -0.0536796)
(10.85 0 -0.0539295)
(10.9 0 -0.0541794)
(10.95 0 -0.0544292)
(11 0 -0.0546791)
(11.05 0 -0.054929)
(11.1 0 -0.0551789)
(11.15 0 -0.0554288)
(11.2 0 -0.0556787)
(11.25 0 -0.0559286)
(11.3 0 -0.0561785)
(11.35 0 -0.0564283)
(11.4 0 -0.0566782)
(11.45 0 -0.0569281)
(11.5 0 -0.0571781)
(11.55 0 -0.057428)
(11.6 0 -0.0576778)
(11.65 0 -0.0579278)
(11.7 0 -0.0581776)
(11.75 0 -0.0584276)
(11.8 0 -0.0586774)
(11.85 0 -0.0589275)
(11.9 0 -0.0591771)
(11.95 0 -0.0594275)
(12 0 -0.0596767)
(12.05 0 -0.0599276)
(12.1 0 -0.0601763)
(12.15 0 -0.0604277)
(12.2 0 -0.0606758)
(12.25 0 -0.0609279)
(12.3 0 -0.0611754)
(12.35 0 -0.0614281)
(12.4 0 -0.0616749)
(12.45 0 -0.0619283)
(12.5 0 -0.0621744)
(12.55 0 -0.0624286)
(12.6 0 -0.0626738)
(12.65 0 -0.062929)
(12.7 0 -0.0631731)
(12.75 0 -0.0634297)
(12.8 0 -0.0636722)
(12.85 0 -0.0639303)
(12.9 0 -0.0641712)
(12.95 0 -0.0644308)
(13 0 -0.0646706)
(13.05 0 -0.0649308)
(13.1 0 -0.0651703)
(13.15 0 -0.0654301)
(13.2 0 -0.0656712)
(13.25 0 -0.0659289)
(13.3 0 -0.0661713)
(13.35 0 -0.0664287)
(13.4 0 -0.0666716)
(13.45 0 -0.0669279)
(13.5 0 -0.0671713)
(13.55 0 -0.0674282)
(13.6 0 -0.067671)
(13.65 0 -0.0679285)
(13.7 0 -0.0681673)
(13.75 0 -0.0684288)
(13.8 0 -0.0686652)
(13.85 0 -0.0689294)
(13.9 0 -0.0691641)
(13.95 0 -0.0694323)
(14 0 -0.069664)
(14.05 0 -0.0699338)
(14.1 0 -0.070163)
(14.15 0 -0.0704353)
(14.2 0 -0.0706637)
(14.25 0 -0.0709369)
(14.3 0 -0.071165)
(14.35 0 -0.0714378)
(14.4 0 -0.0716655)
(14.45 0 -0.0719372)
(14.5 0 -0.0721666)
(14.55 0 -0.0724353)
(14.6 0 -0.0726681)
(14.65 0 -0.0729341)
(14.7 0 -0.0731662)
(14.75 0 -0.0734308)
(14.8 0 -0.0732192)
(14.85 0 -0.0725845)
(14.9 0 -0.0728332)
(14.95 0 -0.0730833)
(15 0 -0.0733333)
(0 0.02 0.00166667)
(0.05 0.02 0.00141667)
(0.1 0.02 0.00116667)
(0.15 0.02 0.000916667)
(0.2 0.02 0.000666667)
(0.25 0.02 0.000416667)
(0.3 0.02 0.000166667)
(0.35 0.02 -8.33333e-05)
(0.4 0.02 -0.000333333)
(0.45 0.02 -0.000583333)
(0.5 0.02 -0.000833333)
(0.55 0.02 -0.00108333)
(0.6 0.02 -0.00133333)
(0.65 0.02 -0.00158333)
(0.7 0.02 -0.00183333)
(0.75 0.02 -0.00208333)
(0.8 0.02 -0.00233333)
(0.85 0.02 -0.00258333)
(0.9 0.02 -0.00283333)
(0.95 0.02 -0.00308333)
(1 0.02 -0.00333333)
(1.05 0.02 -0.00358333)
(1.1 0.02 -0.00383333)
(1.15 0.02 -0.00408333)
(1.2 0.02 -0.00433333)
(1.25 0.02 -0.00458333)
(1.3 0.02 -0.00483333)
(1.35 0.02 -0.00508333)
(1.4 0.02 -0.00533333)
(1.45 0.02 -0.00558333)
(1.5 0.02 -0.00583333)
(1.55 0.02 -0.00608333)
(1.6 0.02 -0.00633333)
(1.65 0.02 -0.00658333)
(1.7 0.02 -0.00683333)
(1.75 0.02 -0.00708333)
(1.8 0.02 -0.00733333)
(1.85 0.02 -0.00758333)
(1.9 0.02 -0.00783333)
(1.95 0.02 -0.00808333)
(2 0.02 -0.00833333)
(2.05 0.02 -0.00858333)
(2.1 0.02 -0.00883333)
(2.15 0.02 -0.00908333)
(2.2 0.02 -0.00933333)
(2.25 0.02 -0.00958333)
(2.3 0.02 -0.00983333)
(2.35 0.02 -0.0100833)
(2.4 0.02 -0.0103333)
(2.45 0.02 -0.0105833)
(2.5 0.02 -0.0108333)
(2.55 0.02 -0.0110833)
(2.6 0.02 -0.0113333)
(2.65 0.02 -0.0115833)
(2.7 0.02 -0.0118333)
(2.75 0.02 -0.0120833)
(2.8 0.02 -0.0123333)
(2.85 0.02 -0.0125833)
(2.9 0.02 -0.0128333)
(2.95 0.02 -0.0130838)
(3 0.02 -0.0137186)
(3.05 0.02 -0.0143776)
(3.1 0.02 -0.0148504)
(3.15 0.02 -0.0152196)
(3.2 0.02 -0.0155596)
(3.25 0.02 -0.0158595)
(3.3 0.02 -0.016152)
(3.35 0.02 -0.0164248)
(3.4 0.02 -0.016696)
(3.45 0.02 -0.0169561)
(3.5 0.02 -0.0172156)
(3.55 0.02 -0.0174718)
(3.6 0.02 -0.0177373)
(3.65 0.02 -0.017991)
(3.7 0.02 -0.0182426)
(3.75 0.02 -0.018487)
(3.8 0.02 -0.0187374)
(3.85 0.02 -0.0189845)
(3.9 0.02 -0.0192327)
(3.95 0.02 -0.0194805)
(4 0.02 -0.0197311)
(4.05 0.02 -0.0199768)
(4.1 0.02 -0.0202199)
(4.15 0.02 -0.0204647)
(4.2 0.02 -0.0207156)
(4.25 0.02 -0.0209655)
(4.3 0.02 -0.0212125)
(4.35 0.02 -0.0214605)
(4.4 0.02 -0.0217131)
(4.45 0.02 -0.0219641)
(4.5 0.02 -0.0222114)
(4.55 0.02 -0.0224599)
(4.6 0.02 -0.0227126)
(4.65 0.02 -0.0229638)
(4.7 0.02 -0.0232111)
(4.75 0.02 -0.0234597)
(4.8 0.02 -0.0237123)
(4.85 0.02 -0.0239636)
(4.9 0.02 -0.024211)
(4.95 0.02 -0.0244596)
(5 0.02 -0.0247122)
(5.05 0.02 -0.0249635)
(5.1 0.02 -0.0252108)
(5.15 0.02 -0.0254594)
(5.2 0.02 -0.025712)
(5.25 0.02 -0.0259633)
(5.3 0.02 -0.0262106)
(5.35 0.02 -0.0264592)
(5.4 0.02 -0.0267118)
(5.45 0.02 -0.0269631)
(5.5 0.02 -0.0272103)
(5.55 0.02 -0.0274589)
(5.6 0.02 -0.0277115)
(5.65 0.02 -0.0279628)
(5.7 0.02 -0.02821)
(5.75 0.02 -0.0284586)
(5.8 0.02 -0.0287112)
(5.85 0.02 -0.0289625)
(5.9 0.02 -0.0292097)
(5.95 0.02 -0.0294583)
(6 0.02 -0.0297109)
(6.05 0.02 -0.0299621)
(6.1 0.02 -0.0302094)
(6.15 0.02 -0.0304579)
(6.2 0.02 -0.0307105)
(6.25 0.02 -0.0309618)
(6.3 0.02 -0.031209)
(6.35 0.02 -0.0314576)
(6.4 0.02 -0.0317102)
(6.45 0.02 -0.0319614)
(6.5 0.02 -0.0322086)
(6.55 0.02 -0.0324572)
(6.6 0.02 -0.0327098)
(6.65 0.02 -0.032961)
(6.7 0.02 -0.0332083)
(6.75 0.02 -0.0334568)
(6.8 0.02 -0.0337094)
(6.85 0.02 -0.0339606)
(6.9 0.02 -0.0342079)
(6.95 0.02 -0.0344564)
(7 0.02 -0.034709)
(7.05 0.02 -0.0349602)
(7.1 0.02 -0.0352074)
(7.15 0.02 -0.035456)
(7.2 0.02 -0.0357084)
(7.25 0.02 -0.0359598)
(7.3 0.02 -0.0362068)
(7.35 0.02 -0.0364516)
(7.4 0.02 -0.0366977)
(7.45 0.02 -0.0369446)
(7.5 0.02 -0.0371929)
(7.55 0.02 -0.0374417)
(7.6 0.02 -0.0376907)
(7.65 0.02 -0.0379398)
(7.7 0.02 -0.038189)
(7.75 0.02 -0.0384383)
(7.8 0.02 -0.0386878)
(7.85 0.02 -0.0389375)
(7.9 0.02 -0.0391872)
(7.95 0.02 -0.039437)
(8 0.02 -0.0396868)
(8.05 0.02 -0.0399366)
(8.1 0.02 -0.0401865)
(8.15 0.02 -0.0404363)
(8.2 0.02 -0.0406861)
(8.25 0.02 -0.0409359)
(8.3 0.02 -0.0411859)
(8.35 0.02 -0.0414357)
(8.4 0.02 -0.0416856)
(8.45 0.02 -0.0419355)
(8.5 0.02 -0.0421854)
(8.55 0.02 -0.0424352)
(8.6 0.02 -0.0426851)
(8.65 0.02 -0.042935)
(8.7 0.02 -0.0431849)
(8.75 0.02 -0.0434348)
(8.8 0.02 -0.0436847)
(8.85 0.02 -0.0439345)
(8.9 0.02 -0.0441844)
(8.95 0.02 -0.0444343)
(9 0.02 -0.0446842)
(9.05 0.02 -0.044934)
(9.1 0.02 -0.0451839)
(9.15 0.02 -0.0454338)
(9.2 0.02 -0.0456837)
(9.25 0.02 -0.0459335)
(9.3 0.02 -0.0461834)
(9.35 0.02 -0.0464333)
(9.4 0.02 -0.0466832)
(9.45 0.02 -0.046933)
(9.5 0.02 -0.0471829)
(9.55 0.02 -0.0474328)
(9.6 0.02 -0.0476826)
(9.65 0.02 -0.0479325)
(9.7 0.02 -0.0481824)
(9.75 0.02 -0.0484323)
(9.8 0.02 -0.0486821)
(9.85 0.02 -0.048932)
(9.9 0.02 -0.0491819)
(9.95 0.02 -0.0494317)
(10 0.02 -0.0496816)
(10.05 0.02 -0.0499315)
(10.1 0.02 -0.0501814)
(10.15 0.02 -0.0504312)
(10.2 0.02 -0.0506811)
(10.25 0.02 -0.050931)
(10.3 0.02 -0.0511809)
(10.35 0.02 -0.0514307)
(10.4 0.02 -0.0516806)
(10.45 0.02 -0.0519305)
(10.5 0.02 -0.0521803)
(10.55 0.02 -0.0524302)
(10.6 0.02 -0.0526801)
(10.65 0.02 -0.05293)
(10.7 0.02 -0.0531798)
(10.75 0.02 -0.0534297)
(10.8 0.02 -0.0536796)
(10.85 0.02 -0.0539295)
(10.9 0.02 -0.0541794)
(10.95 0.02 -0.0544292)
(11 0.02 -0.0546791)
(11.05 0.02 -0.054929)
(11.1 0.02 -0.0551789)
(11.15 0.02 -0.0554288)
(11.2 0.02 -0.0556787)
(11.25 0.02 -0.0559286)
(11.3 0.02 -0.0561785)
(11.35 0.02 -0.0564283)
(11.4 0.02 -0.0566782)
(11.45 0.02 -0.0569281)
(11.5 0.02 -0.0571781)
(11.55 0.02 -0.057428)
(11.6 0.02 -0.0576778)
(11.65 0.02 -0.0579278)
(11.7 0.02 -0.0581776)
(11.75 0.02 -0.0584276)
(11.8 0.02 -0.0586774)
(11.85 0.02 -0.0589275)
(11.9 0.02 -0.0591771)
(11.95 0.02 -0.0594275)
(12 0.02 -0.0596767)
(12.05 0.02 -0.0599276)
(12.1 0.02 -0.0601763)
(12.15 0.02 -0.0604277)
(12.2 0.02 -0.0606758)
(12.25 0.02 -0.0609279)
(12.3 0.02 -0.0611754)
(12.35 0.02 -0.0614281)
(12.4 0.02 -0.0616749)
(12.45 0.02 -0.0619283)
(12.5 0.02 -0.0621744)
(12.55 0.02 -0.0624286)
(12.6 0.02 -0.0626738)
(12.65 0.02 -0.062929)
(12.7 0.02 -0.0631731)
(12.75 0.02 -0.0634297)
(12.8 0.02 -0.0636722)
(12.85 0.02 -0.0639303)
(12.9 0.02 -0.0641712)
(12.95 0.02 -0.0644308)
(13 0.02 -0.0646706)
(13.05 0.02 -0.0649308)
(13.1 0.02 -0.0651703)
(13.15 0.02 -0.0654301)
(13.2 0.02 -0.0656712)
(13.25 0.02 -0.0659289)
(13.3 0.02 -0.0661713)
(13.35 0.02 -0.0664287)
(13.4 0.02 -0.0666716)
(13.45 0.02 -0.0669279)
(13.5 0.02 -0.0671713)
(13.55 0.02 -0.0674282)
(13.6 0.02 -0.067671)
(13.65 0.02 -0.0679285)
(13.7 0.02 -0.0681673)
(13.75 0.02 -0.0684288)
(13.8 0.02 -0.0686652)
(13.85 0.02 -0.0689294)
(13.9 0.02 -0.0691641)
(13.95 0.02 -0.0694323)
(14 0.02 -0.069664)
(14.05 0.02 -0.0699338)
(14.1 0.02 -0.070163)
(14.15 0.02 -0.0704353)
(14.2 0.02 -0.0706637)
(14.25 0.02 -0.0709369)
(14.3 0.02 -0.071165)
(14.35 0.02 -0.0714378)
(14.4 0.02 -0.0716655)
(14.45 0.02 -0.0719372)
(14.5 0.02 -0.0721666)
(14.55 0.02 -0.0724353)
(14.6 0.02 -0.0726681)
(14.65 0.02 -0.0729341)
(14.7 0.02 -0.0731662)
(14.75 0.02 -0.0734308)
(14.8 0.02 -0.0732192)
(14.85 0.02 -0.0725845)
(14.9 0.02 -0.0728332)
(14.95 0.02 -0.0730833)
(15 0.02 -0.0733333)
(0 0 0.00333333)
(0.05 0 0.00308333)
(0.1 0 0.00283333)
(0.15 0 0.00258333)
(0.2 0 0.00233333)
(0.25 0 0.00208333)
(0.3 0 0.00183333)
(0.35 0 0.00158333)
(0.4 0 0.00133333)
(0.45 0 0.00108333)
(0.5 0 0.000833333)
(0.55 0 0.000583333)
(0.6 0 0.000333333)
(0.65 0 8.33333e-05)
(0.7 0 -0.000166667)
(0.75 0 -0.000416667)
(0.8 0 -0.000666667)
(0.85 0 -0.000916667)
(0.9 0 -0.00116667)
(0.95 0 -0.00141667)
(1 0 -0.00166667)
(1.05 0 -0.00191667)
(1.1 0 -0.00216667)
(1.15 0 -0.00241667)
(1.2 0 -0.00266667)
(1.25 0 -0.00291667)
(1.3 0 -0.00316667)
(1.35 0 -0.00341667)
(1.4 0 -0.00366667)
(1.45 0 -0.00391667)
(1.5 0 -0.00416667)
(1.55 0 -0.00441667)
(1.6 0 -0.00466667)
(1.65 0 -0.00491667)
(1.7 0 -0.00516667)
(1.75 0 -0.00541667)
(1.8 0 -0.00566667)
(1.85 0 -0.00591667)
(1.9 0 -0.00616667)
(1.95 0 -0.00641667)
(2 0 -0.00666667)
(2.05 0 -0.00691667)
(2.1 0 -0.00716667)
(2.15 0 -0.00741667)
(2.2 0 -0.00766667)
(2.25 0 -0.00791667)
(2.3 0 -0.00816667)
(2.35 0 -0.00841667)
(2.4 0 -0.00866667)
(2.45 0 -0.00891667)
(2.5 0 -0.00916667)
(2.55 0 -0.00941667)
(2.6 0 -0.00966667)
(2.65 0 -0.00991667)
(2.7 0 -0.0101667)
(2.75 0 -0.0104167)
(2.8 0 -0.0106667)
(2.85 0 -0.0109167)
(2.9 0 -0.0111666)
(2.95 0 -0.011418)
(3 0 -0.0120515)
(3.05 0 -0.0127095)
(3.1 0 -0.0131824)
(3.15 0 -0.0135517)
(3.2 0 -0.0138915)
(3.25 0 -0.0141915)
(3.3 0 -0.0144839)
(3.35 0 -0.0147567)
(3.4 0 -0.0150279)
(3.45 0 -0.015288)
(3.5 0 -0.0155475)
(3.55 0 -0.0158037)
(3.6 0 -0.0160691)
(3.65 0 -0.0163229)
(3.7 0 -0.0165745)
(3.75 0 -0.0168189)
(3.8 0 -0.0170693)
(3.85 0 -0.0173164)
(3.9 0 -0.0175646)
(3.95 0 -0.0178124)
(4 0 -0.018063)
(4.05 0 -0.0183087)
(4.1 0 -0.0185519)
(4.15 0 -0.0187966)
(4.2 0 -0.0190475)
(4.25 0 -0.0192974)
(4.3 0 -0.0195444)
(4.35 0 -0.0197924)
(4.4 0 -0.020045)
(4.45 0 -0.020296)
(4.5 0 -0.0205434)
(4.55 0 -0.0207918)
(4.6 0 -0.0210445)
(4.65 0 -0.0212957)
(4.7 0 -0.021543)
(4.75 0 -0.0217916)
(4.8 0 -0.0220443)
(4.85 0 -0.0222955)
(4.9 0 -0.0225429)
(4.95 0 -0.0227915)
(5 0 -0.0230441)
(5.05 0 -0.0232954)
(5.1 0 -0.0235427)
(5.15 0 -0.0237913)
(5.2 0 -0.024044)
(5.25 0 -0.0242952)
(5.3 0 -0.0245425)
(5.35 0 -0.0247911)
(5.4 0 -0.0250437)
(5.45 0 -0.025295)
(5.5 0 -0.0255423)
(5.55 0 -0.0257908)
(5.6 0 -0.0260434)
(5.65 0 -0.0262947)
(5.7 0 -0.026542)
(5.75 0 -0.0267905)
(5.8 0 -0.0270431)
(5.85 0 -0.0272944)
(5.9 0 -0.0275416)
(5.95 0 -0.0277902)
(6 0 -0.0280428)
(6.05 0 -0.0282941)
(6.1 0 -0.0285413)
(6.15 0 -0.0287899)
(6.2 0 -0.0290425)
(6.25 0 -0.0292937)
(6.3 0 -0.0295409)
(6.35 0 -0.0297895)
(6.4 0 -0.0300421)
(6.45 0 -0.0302933)
(6.5 0 -0.0305406)
(6.55 0 -0.0307891)
(6.6 0 -0.0310417)
(6.65 0 -0.0312929)
(6.7 0 -0.0315402)
(6.75 0 -0.0317887)
(6.8 0 -0.0320413)
(6.85 0 -0.0322925)
(6.9 0 -0.0325398)
(6.95 0 -0.0327883)
(7 0 -0.0330409)
(7.05 0 -0.0332922)
(7.1 0 -0.0335393)
(7.15 0 -0.0337879)
(7.2 0 -0.0340404)
(7.25 0 -0.0342917)
(7.3 0 -0.0345387)
(7.35 0 -0.0347836)
(7.4 0 -0.0350296)
(7.45 0 -0.0352766)
(7.5 0 -0.0355248)
(7.55 0 -0.0357736)
(7.6 0 -0.0360226)
(7.65 0 -0.0362717)
(7.7 0 -0.0365209)
(7.75 0 -0.0367702)
(7.8 0 -0.0370198)
(7.85 0 -0.0372694)
(7.9 0 -0.0375191)
(7.95 0 -0.0377689)
(8 0 -0.0380187)
(8.05 0 -0.0382686)
(8.1 0 -0.0385184)
(8.15 0 -0.0387682)
(8.2 0 -0.039018)
(8.25 0 -0.0392679)
(8.3 0 -0.0395178)
(8.35 0 -0.0397677)
(8.4 0 -0.0400176)
(8.45 0 -0.0402674)
(8.5 0 -0.0405173)
(8.55 0 -0.0407672)
(8.6 0 -0.0410171)
(8.65 0 -0.0412669)
(8.7 0 -0.0415168)
(8.75 0 -0.0417667)
(8.8 0 -0.0420166)
(8.85 0 -0.0422665)
(8.9 0 -0.0425164)
(8.95 0 -0.0427662)
(9 0 -0.0430161)
(9.05 0 -0.043266)
(9.1 0 -0.0435159)
(9.15 0 -0.0437657)
(9.2 0 -0.0440156)
(9.25 0 -0.0442655)
(9.3 0 -0.0445154)
(9.35 0 -0.0447652)
(9.4 0 -0.0450151)
(9.45 0 -0.045265)
(9.5 0 -0.0455148)
(9.55 0 -0.0457647)
(9.6 0 -0.0460146)
(9.65 0 -0.0462644)
(9.7 0 -0.0465143)
(9.75 0 -0.0467642)
(9.8 0 -0.0470141)
(9.85 0 -0.0472639)
(9.9 0 -0.0475138)
(9.95 0 -0.0477637)
(10 0 -0.0480136)