/*--------------------------------*- C++ -*----------------------------------*\
| =========                 |                                                 |
| \\      /  F ield         | foam-extend: Open Source CFD                    |
|  \\    /   O peration     | Version:     3.2                                |
|   \\  /    A nd           | Web:         http://www.foam-extend.org         |
|    \\/     M anipulation  | For copyright notice see file Copyright         |
\*---------------------------------------------------------------------------*/
FoamFile
{
    version     2.0;
    format      ascii;
    class       pointVectorField;
    location    "50";
    object      newPoints;
}
// * * * * * * * * * * * * * * * * * * * * * * * * * * * * * * * * * * * * * //

dimensions      [0 1 0 0 0 0 0];

internalField   nonuniform List<vector> 
602
(
(0 0 0)
(0.05 0 -0.00025)
(0.1 0 -0.0005)
(0.15 0 -0.00075)
(0.2 0 -0.001)
(0.25 0 -0.00125)
(0.3 0 -0.0015)
(0.35 0 -0.00175)
(0.4 0 -0.002)
(0.45 0 -0.00225)
(0.5 0 -0.0025)
(0.55 0 -0.00275)
(0.6 0 -0.003)
(0.65 0 -0.00325)
(0.7 0 -0.0035)
(0.75 0 -0.00375)
(0.8 0 -0.004)
(0.85 0 -0.00425)
(0.9 0 -0.0045)
(0.95 0 -0.00475)
(1 0 -0.005)
(1.05 0 -0.00525)
(1.1 0 -0.0055)
(1.15 0 -0.00575)
(1.2 0 -0.006)
(1.25 0 -0.00625)
(1.3 0 -0.0065)
(1.35 0 -0.00675)
(1.4 0 -0.007)
(1.45 0 -0.00725)
(1.5 0 -0.0075)
(1.55 0 -0.00775)
(1.6 0 -0.008)
(1.65 0 -0.00825)
(1.7 0 -0.0085)
(1.75 0 -0.00875)
(1.8 0 -0.009)
(1.85 0 -0.00925)
(1.9 0 -0.0095)
(1.95 0 -0.00975)
(2 0 -0.01)
(2.05 0 -0.01025)
(2.1 0 -0.0105)
(2.15 0 -0.01075)
(2.2 0 -0.011)
(2.25 0 -0.01125)
(2.3 0 -0.0115)
(2.35 0 -0.01175)
(2.4 0 -0.012)
(2.45 0 -0.01225)
(2.5 0 -0.0125)
(2.55 0 -0.01275)
(2.6 0 -0.013)
(2.65 0 -0.01325)
(2.7 0 -0.0135)
(2.75 0 -0.01375)
(2.8 0 -0.014)
(2.85 0 -0.01425)
(2.9 0 -0.0145)
(2.95 0 -0.01475)
(3 0 -0.0153855)
(3.05 0 -0.0160447)
(3.1 0 -0.0165174)
(3.15 0 -0.0168865)
(3.2 0 -0.0172265)
(3.25 0 -0.0175264)
(3.3 0 -0.0178189)
(3.35 0 -0.0180917)
(3.4 0 -0.0183629)
(3.45 0 -0.0186229)
(3.5 0 -0.0188825)
(3.55 0 -0.0191386)
(3.6 0 -0.0194041)
(3.65 0 -0.0196578)
(3.7 0 -0.0199095)
(3.75 0 -0.0201539)
(3.8 0 -0.0204042)
(3.85 0 -0.0206513)
(3.9 0 -0.0208996)
(3.95 0 -0.0211473)
(4 0 -0.021398)
(4.05 0 -0.0216436)
(4.1 0 -0.0218868)
(4.15 0 -0.0221315)
(4.2 0 -0.0223825)
(4.25 0 -0.0226324)
(4.3 0 -0.0228793)
(4.35 0 -0.0231273)
(4.4 0 -0.02338)
(4.45 0 -0.023631)
(4.5 0 -0.0238783)
(4.55 0 -0.0241267)
(4.6 0 -0.0243794)
(4.65 0 -0.0246306)
(4.7 0 -0.0248779)
(4.75 0 -0.0251265)
(4.8 0 -0.0253792)
(4.85 0 -0.0256305)
(4.9 0 -0.0258778)
(4.95 0 -0.0261264)
(5 0 -0.0263791)
(5.05 0 -0.0266304)
(5.1 0 -0.0268777)
(5.15 0 -0.0271263)
(5.2 0 -0.0273789)
(5.25 0 -0.0276302)
(5.3 0 -0.0278774)
(5.35 0 -0.028126)
(5.4 0 -0.0283787)
(5.45 0 -0.0286299)
(5.5 0 -0.0288772)
(5.55 0 -0.0291258)
(5.6 0 -0.0293784)
(5.65 0 -0.0296297)
(5.7 0 -0.0298769)
(5.75 0 -0.0301255)
(5.8 0 -0.0303781)
(5.85 0 -0.0306293)
(5.9 0 -0.0308766)
(5.95 0 -0.0311251)
(6 0 -0.0313777)
(6.05 0 -0.031629)
(6.1 0 -0.0318762)
(6.15 0 -0.0321248)
(6.2 0 -0.0323774)
(6.25 0 -0.0326287)
(6.3 0 -0.0328759)
(6.35 0 -0.0331244)
(6.4 0 -0.033377)
(6.45 0 -0.0336283)
(6.5 0 -0.0338755)
(6.55 0 -0.034124)
(6.6 0 -0.0343766)
(6.65 0 -0.0346279)
(6.7 0 -0.0348751)
(6.75 0 -0.0351237)
(6.8 0 -0.0353762)
(6.85 0 -0.0356275)
(6.9 0 -0.0358747)
(6.95 0 -0.0361232)
(7 0 -0.0363758)
(7.05 0 -0.0366271)
(7.1 0 -0.0368742)
(7.15 0 -0.0371228)
(7.2 0 -0.0373753)
(7.25 0 -0.0376266)
(7.3 0 -0.0378736)
(7.35 0 -0.0381185)
(7.4 0 -0.0383645)
(7.45 0 -0.0386115)
(7.5 0 -0.0388598)
(7.55 0 -0.0391085)
(7.6 0 -0.0393576)
(7.65 0 -0.0396066)
(7.7 0 -0.0398558)
(7.75 0 -0.0401051)
(7.8 0 -0.0403547)
(7.85 0 -0.0406043)
(7.9 0 -0.0408541)
(7.95 0 -0.0411038)
(8 0 -0.0413537)
(8.05 0 -0.0416035)
(8.1 0 -0.0418533)
(8.15 0 -0.0421032)
(8.2 0 -0.042353)
(8.25 0 -0.0426028)
(8.3 0 -0.0428527)
(8.35 0 -0.0431026)
(8.4 0 -0.0433525)
(8.45 0 -0.0436024)
(8.5 0 -0.0438523)
(8.55 0 -0.0441021)
(8.6 0 -0.044352)
(8.65 0 -0.0446019)
(8.7 0 -0.0448518)
(8.75 0 -0.0451016)
(8.8 0 -0.0453515)
(8.85 0 -0.0456014)
(8.9 0 -0.0458513)
(8.95 0 -0.0461011)
(9 0 -0.046351)
(9.05 0 -0.0466009)
(9.1 0 -0.0468508)
(9.15 0 -0.0471007)
(9.2 0 -0.0473506)
(9.25 0 -0.0476004)
(9.3 0 -0.0478503)
(9.35 0 -0.0481002)
(9.4 0 -0.04835)
(9.45 0 -0.0485999)
(9.5 0 -0.0488498)
(9.55 0 -0.0490996)
(9.6 0 -0.0493495)
(9.65 0 -0.0495994)
(9.7 0 -0.0498493)
(9.75 0 -0.0500991)
(9.8 0 -0.050349)
(9.85 0 -0.0505989)
(9.9 0 -0.0508487)
(9.95 0 -0.0510986)
(10 0 -0.0513485)
(10.05 0 -0.0515984)
(10.1 0 -0.0518482)
(10.15 0 -0.0520981)
(10.2 0 -0.052348)
(10.25 0 -0.0525978)
(10.3 0 -0.0528477)
(10.35 0 -0.0530976)
(10.4 0 -0.0533475)
(10.45 0 -0.0535973)
(10.5 0 -0.0538472)
(10.55 0 -0.0540971)
(10.6 0 -0.054347)
(10.65 0 -0.0545968)
(10.7 0 -0.0548467)
(10.75 0 -0.0550966)
(10.8 0 -0.0553465)
(10.85 0 -0.0555963)
(10.9 0 -0.0558462)
(10.95 0 -0.0560961)
(11 0 -0.056346)
(11.05 0 -0.0565959)
(11.1 0 -0.0568458)
(11.15 0 -0.0570956)
(11.2 0 -0.0573455)
(11.25 0 -0.0575954)
(11.3 0 -0.0578453)
(11.35 0 -0.0580952)
(11.4 0 -0.0583451)
(11.45 0 -0.058595)
(11.5 0 -0.0588449)
(11.55 0 -0.0590948)
(11.6 0 -0.0593447)
(11.65 0 -0.0595946)
(11.7 0 -0.0598445)
(11.75 0 -0.0600945)
(11.8 0 -0.0603442)
(11.85 0 -0.0605944)
(11.9 0 -0.0608439)
(11.95 0 -0.0610944)
(12 0 -0.0613435)
(12.05 0 -0.0615945)
(12.1 0 -0.0618431)
(12.15 0 -0.0620946)
(12.2 0 -0.0623427)
(12.25 0 -0.0625948)
(12.3 0 -0.0628422)
(12.35 0 -0.063095)
(12.4 0 -0.0633417)
(12.45 0 -0.0635952)
(12.5 0 -0.0638412)
(12.55 0 -0.0640955)
(12.6 0 -0.0643407)
(12.65 0 -0.0645959)
(12.7 0 -0.0648399)
(12.75 0 -0.0650966)
(12.8 0 -0.065339)
(12.85 0 -0.0655972)
(12.9 0 -0.065838)
(12.95 0 -0.0660977)
(13 0 -0.0663374)
(13.05 0 -0.0665977)
(13.1 0 -0.0668372)
(13.15 0 -0.067097)
(13.2 0 -0.067338)
(13.25 0 -0.0675958)
(13.3 0 -0.0678382)
(13.35 0 -0.0680956)
(13.4 0 -0.0683384)
(13.45 0 -0.0685948)
(13.5 0 -0.0688382)
(13.55 0 -0.0690951)
(13.6 0 -0.0693378)
(13.65 0 -0.0695954)
(13.7 0 -0.0698342)
(13.75 0 -0.0700957)
(13.8 0 -0.0703321)
(13.85 0 -0.0705963)
(13.9 0 -0.070831)
(13.95 0 -0.0710993)
(14 0 -0.0713308)
(14.05 0 -0.0716008)
(14.1 0 -0.0718298)
(14.15 0 -0.0721022)
(14.2 0 -0.0723305)
(14.25 0 -0.0726038)
(14.3 0 -0.0728318)
(14.35 0 -0.0731048)
(14.4 0 -0.0733323)
(14.45 0 -0.0736042)
(14.5 0 -0.0738334)
(14.55 0 -0.0741022)
(14.6 0 -0.0743349)
(14.65 0 -0.074601)
(14.7 0 -0.0748329)
(14.75 0 -0.0750982)
(14.8 0 -0.0748867)
(14.85 0 -0.07425)
(14.9 0 -0.0745)
(14.95 0 -0.07475)
(15 0 -0.075)
(0 0.02 0)
(0.05 0.02 -0.00025)
(0.1 0.02 -0.0005)
(0.15 0.02 -0.00075)
(0.2 0.02 -0.001)
(0.25 0.02 -0.00125)
(0.3 0.02 -0.0015)
(0.35 0.02 -0.00175)
(0.4 0.02 -0.002)
(0.45 0.02 -0.00225)
(0.5 0.02 -0.0025)
(0.55 0.02 -0.00275)
(0.6 0.02 -0.003)
(0.65 0.02 -0.00325)
(0.7 0.02 -0.0035)
(0.75 0.02 -0.00375)
(0.8 0.02 -0.004)
(0.85 0.02 -0.00425)
(0.9 0.02 -0.0045)
(0.95 0.02 -0.00475)
(1 0.02 -0.005)
(1.05 0.02 -0.00525)
(1.1 0.02 -0.0055)
(1.15 0.02 -0.00575)
(1.2 0.02 -0.006)
(1.25 0.02 -0.00625)
(1.3 0.02 -0.0065)
(1.35 0.02 -0.00675)
(1.4 0.02 -0.007)
(1.45 0.02 -0.00725)
(1.5 0.02 -0.0075)
(1.55 0.02 -0.00775)
(1.6 0.02 -0.008)
(1.65 0.02 -0.00825)
(1.7 0.02 -0.0085)
(1.75 0.02 -0.00875)
(1.8 0.02 -0.009)
(1.85 0.02 -0.00925)
(1.9 0.02 -0.0095)
(1.95 0.02 -0.00975)
(2 0.02 -0.01)
(2.05 0.02 -0.01025)
(2.1 0.02 -0.0105)
(2.15 0.02 -0.01075)
(2.2 0.02 -0.011)
(2.25 0.02 -0.01125)
(2.3 0.02 -0.0115)
(2.35 0.02 -0.01175)
(2.4 0.02 -0.012)
(2.45 0.02 -0.01225)
(2.5 0.02 -0.0125)
(2.55 0.02 -0.01275)
(2.6 0.02 -0.013)
(2.65 0.02 -0.01325)
(2.7 0.02 -0.0135)
(2.75 0.02 -0.01375)
(2.8 0.02 -0.014)
(2.85 0.02 -0.01425)
(2.9 0.02 -0.0145)
(2.95 0.02 -0.01475)
(3 0.02 -0.0153855)
(3.05 0.02 -0.0160447)
(3.1 0.02 -0.0165174)
(3.15 0.02 -0.0168865)
(3.2 0.02 -0.0172265)
(3.25 0.02 -0.0175264)
(3.3 0.02 -0.0178189)
(3.35 0.02 -0.0180917)
(3.4 0.02 -0.0183629)
(3.45 0.02 -0.0186229)
(3.5 0.02 -0.0188825)
(3.55 0.02 -0.0191386)
(3.6 0.02 -0.0194041)
(3.65 0.02 -0.0196578)
(3.7 0.02 -0.0199095)
(3.75 0.02 -0.0201539)
(3.8 0.02 -0.0204042)
(3.85 0.02 -0.0206513)
(3.9 0.02 -0.0208996)
(3.95 0.02 -0.0211473)
(4 0.02 -0.021398)
(4.05 0.02 -0.0216436)
(4.1 0.02 -0.0218868)
(4.15 0.02 -0.0221315)
(4.2 0.02 -0.0223825)
(4.25 0.02 -0.0226324)
(4.3 0.02 -0.0228793)
(4.35 0.02 -0.0231273)
(4.4 0.02 -0.02338)
(4.45 0.02 -0.023631)
(4.5 0.02 -0.0238783)
(4.55 0.02 -0.0241267)
(4.6 0.02 -0.0243794)
(4.65 0.02 -0.0246306)
(4.7 0.02 -0.0248779)
(4.75 0.02 -0.0251265)
(4.8 0.02 -0.0253792)
(4.85 0.02 -0.0256305)
(4.9 0.02 -0.0258778)
(4.95 0.02 -0.0261264)
(5 0.02 -0.0263791)
(5.05 0.02 -0.0266304)
(5.1 0.02 -0.0268777)
(5.15 0.02 -0.0271263)
(5.2 0.02 -0.0273789)
(5.25 0.02 -0.0276302)
(5.3 0.02 -0.0278774)
(5.35 0.02 -0.028126)
(5.4 0.02 -0.0283787)
(5.45 0.02 -0.0286299)
(5.5 0.02 -0.0288772)
(5.55 0.02 -0.0291258)
(5.6 0.02 -0.0293784)
(5.65 0.02 -0.0296297)
(5.7 0.02 -0.0298769)
(5.75 0.02 -0.0301255)
(5.8 0.02 -0.0303781)
(5.85 0.02 -0.0306293)
(5.9 0.02 -0.0308766)
(5.95 0.02 -0.0311251)
(6 0.02 -0.0313777)
(6.05 0.02 -0.031629)
(6.1 0.02 -0.0318762)
(6.15 0.02 -0.0321248)
(6.2 0.02 -0.0323774)
(6.25 0.02 -0.0326287)
(6.3 0.02 -0.0328759)
(6.35 0.02 -0.0331244)
(6.4 0.02 -0.033377)
(6.45 0.02 -0.0336283)
(6.5 0.02 -0.0338755)
(6.55 0.02 -0.034124)
(6.6 0.02 -0.0343766)
(6.65 0.02 -0.0346279)
(6.7 0.02 -0.0348751)
(6.75 0.02 -0.0351237)
(6.8 0.02 -0.0353762)
(6.85 0.02 -0.0356275)
(6.9 0.02 -0.0358747)
(6.95 0.02 -0.0361232)
(7 0.02 -0.0363758)
(7.05 0.02 -0.0366271)
(7.1 0.02 -0.0368742)
(7.15 0.02 -0.0371228)
(7.2 0.02 -0.0373753)
(7.25 0.02 -0.0376266)
(7.3 0.02 -0.0378736)
(7.35 0.02 -0.0381185)
(7.4 0.02 -0.0383645)
(7.45 0.02 -0.0386115)
(7.5 0.02 -0.0388598)
(7.55 0.02 -0.0391085)
(7.6 0.02 -0.0393576)
(7.65 0.02 -0.0396066)
(7.7 0.02 -0.0398558)
(7.75 0.02 -0.0401051)
(7.8 0.02 -0.0403547)
(7.85 0.02 -0.0406043)
(7.9 0.02 -0.0408541)
(7.95 0.02 -0.0411038)
(8 0.02 -0.0413537)
(8.05 0.02 -0.0416035)
(8.1 0.02 -0.0418533)
(8.15 0.02 -0.0421032)
(8.2 0.02 -0.042353)
(8.25 0.02 -0.0426028)
(8.3 0.02 -0.0428527)
(8.35 0.02 -0.0431026)
(8.4 0.02 -0.0433525)
(8.45 0.02 -0.0436024)
(8.5 0.02 -0.0438523)
(8.55 0.02 -0.0441021)
(8.6 0.02 -0.044352)
(8.65 0.02 -0.0446019)
(8.7 0.02 -0.0448518)
(8.75 0.02 -0.0451016)
(8.8 0.02 -0.0453515)
(8.85 0.02 -0.0456014)
(8.9 0.02 -0.0458513)
(8.95 0.02 -0.0461011)
(9 0.02 -0.046351)
(9.05 0.02 -0.0466009)
(9.1 0.02 -0.0468508)
(9.15 0.02 -0.0471007)
(9.2 0.02 -0.0473506)
(9.25 0.02 -0.0476004)
(9.3 0.02 -0.0478503)
(9.35 0.02 -0.0481002)
(9.4 0.02 -0.04835)
(9.45 0.02 -0.0485999)
(9.5 0.02 -0.0488498)
(9.55 0.02 -0.0490996)
(9.6 0.02 -0.0493495)
(9.65 0.02 -0.0495994)
(9.7 0.02 -0.0498493)
(9.75 0.02 -0.0500991)
(9.8 0.02 -0.050349)
(9.85 0.02 -0.0505989)
(9.9 0.02 -0.0508487)
(9.95 0.02 -0.0510986)
(10 0.02 -0.0513485)
(10.05 0.02 -0.0515984)
(10.1 0.02 -0.0518482)
(10.15 0.02 -0.0520981)
(10.2 0.02 -0.052348)
(10.25 0.02 -0.0525978)
(10.3 0.02 -0.0528477)
(10.35 0.02 -0.0530976)
(10.4 0.02 -0.0533475)
(10.45 0.02 -0.0535973)
(10.5 0.02 -0.0538472)
(10.55 0.02 -0.0540971)
(10.6 0.02 -0.054347)
(10.65 0.02 -0.0545968)
(10.7 0.02 -0.0548467)
(10.75 0.02 -0.0550966)
(10.8 0.02 -0.0553465)
(10.85 0.02 -0.0555963)
(10.9 0.02 -0.0558462)
(10.95 0.02 -0.0560961)
(11 0.02 -0.056346)
(11.05 0.02 -0.0565959)
(11.1 0.02 -0.0568458)
(11.15 0.02 -0.0570956)
(11.2 0.02 -0.0573455)
(11.25 0.02 -0.0575954)
(11.3 0.02 -0.0578453)
(11.35 0.02 -0.0580952)
(11.4 0.02 -0.0583451)
(11.45 0.02 -0.058595)
(11.5 0.02 -0.0588449)
(11.55 0.02 -0.0590948)
(11.6 0.02 -0.0593447)
(11.65 0.02 -0.0595946)
(11.7 0.02 -0.0598445)
(11.75 0.02 -0.0600945)
(11.8 0.02 -0.0603442)
(11.85 0.02 -0.0605944)
(11.9 0.02 -0.0608439)
(11.95 0.02 -0.0610944)
(12 0.02 -0.0613435)
(12.05 0.02 -0.0615945)
(12.1 0.02 -0.0618431)
(12.15 0.02 -0.0620946)
(12.2 0.02 -0.0623427)
(12.25 0.02 -0.0625948)
(12.3 0.02 -0.0628422)
(12.35 0.02 -0.063095)
(12.4 0.02 -0.0633417)
(12.45 0.02 -0.0635952)
(12.5 0.02 -0.0638412)
(12.55 0.02 -0.0640955)
(12.6 0.02 -0.0643407)
(12.65 0.02 -0.0645959)
(12.7 0.02 -0.0648399)
(12.75 0.02 -0.0650966)
(12.8 0.02 -0.065339)
(12.85 0.02 -0.0655972)
(12.9 0.02 -0.065838)
(12.95 0.02 -0.0660977)
(13 0.02 -0.0663374)
(13.05 0.02 -0.0665977)
(13.1 0.02 -0.0668372)
(13.15 0.02 -0.067097)
(13.2 0.02 -0.067338)
(13.25 0.02 -0.0675958)
(13.3 0.02 -0.0678382)
(13.35 0.02 -0.0680956)
(13.4 0.02 -0.0683384)
(13.45 0.02 -0.0685948)
(13.5 0.02 -0.0688382)
(13.55 0.02 -0.0690951)
(13.6 0.02 -0.0693378)
(13.65 0.02 -0.0695954)
(13.7 0.02 -0.0698342)
(13.75 0.02 -0.0700957)
(13.8 0.02 -0.0703321)
(13.85 0.02 -0.0705963)
(13.9 0.02 -0.070831)
(13.95 0.02 -0.0710993)
(14 0.02 -0.0713308)
(14.05 0.02 -0.0716008)
(14.1 0.02 -0.0718298)
(14.15 0.02 -0.0721022)
(14.2 0.02 -0.0723305)
(14.25 0.02 -0.0726038)
(14.3 0.02 -0.0728318)
(14.35 0.02 -0.0731048)
(14.4 0.02 -0.0733323)
(14.45 0.02 -0.0736042)
(14.5 0.02 -0.0738334)
(14.55 0.02 -0.0741022)
(14.6 0.02 -0.0743349)
(14.65 0.02 -0.074601)
(14.7 0.02 -0.0748329)
(14.75 0.02 -0.0750982)
(14.8 0.02 -0.0748867)
(14.85 0.02 -0.07425)
(14.9 0.02 -0.0745)
(14.95 0.02 -0.07475)
(15 0.02 -0.075)
)
;

boundaryField
{
    inlet
    {
        type            zeroGradient;
    }
    outlet
    {
        type            zeroGradient;
    }
    sideWall
    {
        type            empty;
    }
    bed
    {
        type            zeroGradient;
    }
    topWall
    {
        type            zeroGradient;
    }
}


// ************************************************************************* //
