/*--------------------------------*- C++ -*----------------------------------*\
| =========                 |                                                 |
| \\      /  F ield         | foam-extend: Open Source CFD                    |
|  \\    /   O peration     | Version:     3.2                                |
|   \\  /    A nd           | Web:         http://www.foam-extend.org         |
|    \\/     M anipulation  | For copyright notice see file Copyright         |
\*---------------------------------------------------------------------------*/
FoamFile
{
    version     2.0;
    format      ascii;
    class       volScalarField;
    location    "50";
    object      nut;
}
// * * * * * * * * * * * * * * * * * * * * * * * * * * * * * * * * * * * * * //

dimensions      [0 2 -1 0 0 0 0];

internalField   nonuniform List<scalar> 
5400
(
2.5589e-05
2.02203e-05
1.7259e-05
1.73374e-05
1.70038e-05
1.70454e-05
1.69032e-05
1.69057e-05
1.68511e-05
1.6875e-05
1.68763e-05
1.69138e-05
1.69446e-05
1.69981e-05
1.70445e-05
1.71087e-05
1.7169e-05
1.72383e-05
1.73052e-05
1.73803e-05
1.74572e-05
1.75358e-05
1.76156e-05
1.76958e-05
1.77764e-05
1.78532e-05
1.79205e-05
1.79775e-05
1.80256e-05
1.80656e-05
1.80992e-05
1.8127e-05
1.81504e-05
1.81697e-05
1.8186e-05
1.81993e-05
1.82107e-05
1.82199e-05
1.82281e-05
1.82344e-05
1.82404e-05
1.82447e-05
1.82494e-05
1.82523e-05
1.82559e-05
1.82576e-05
1.82608e-05
1.82617e-05
1.8265e-05
1.82639e-05
1.82691e-05
1.82637e-05
1.82742e-05
1.82597e-05
1.82842e-05
1.8247e-05
1.83073e-05
1.82173e-05
1.83879e-05
1.80445e-05
1.71858e-05
1.71354e-05
1.71542e-05
1.71433e-05
1.71481e-05
1.71487e-05
1.71468e-05
1.71499e-05
1.71451e-05
1.71581e-05
1.71498e-05
1.71489e-05
1.71414e-05
1.71491e-05
1.71369e-05
1.71517e-05
1.7146e-05
1.71514e-05
1.71364e-05
1.71459e-05
1.71425e-05
1.71516e-05
1.71444e-05
1.71502e-05
1.71469e-05
1.71507e-05
1.71434e-05
1.71483e-05
1.71457e-05
1.71492e-05
1.71426e-05
1.71474e-05
1.71453e-05
1.71486e-05
1.71424e-05
1.7147e-05
1.71453e-05
1.71485e-05
1.71425e-05
1.7147e-05
1.71455e-05
1.71486e-05
1.71427e-05
1.71472e-05
1.71457e-05
1.71488e-05
1.7143e-05
1.71474e-05
1.7146e-05
1.71491e-05
1.71433e-05
1.71477e-05
1.71462e-05
1.71493e-05
1.71435e-05
1.71479e-05
1.71464e-05
1.71495e-05
1.71437e-05
1.71482e-05
1.71467e-05
1.71498e-05
1.7144e-05
1.71484e-05
1.71469e-05
1.715e-05
1.71442e-05
1.71486e-05
1.71472e-05
1.71503e-05
1.71445e-05
1.71489e-05
1.71475e-05
1.71506e-05
1.71448e-05
1.71492e-05
1.71478e-05
1.71509e-05
1.7145e-05
1.71496e-05
1.7148e-05
1.71513e-05
1.71454e-05
1.71497e-05
1.71483e-05
1.71513e-05
1.71454e-05
1.714e-05
1.71362e-05
1.71341e-05
1.7133e-05
1.71322e-05
1.71319e-05
1.71316e-05
1.71315e-05
1.71312e-05
1.7131e-05
1.71307e-05
1.71305e-05
1.71304e-05
1.71304e-05
1.71303e-05
1.71303e-05
1.71302e-05
1.71301e-05
1.713e-05
1.71301e-05
1.71302e-05
1.71303e-05
1.71303e-05
1.71305e-05
1.71305e-05
1.71306e-05
1.71307e-05
1.71308e-05
1.71308e-05
1.71309e-05
1.71309e-05
1.7131e-05
1.71311e-05
1.71312e-05
1.71313e-05
1.71314e-05
1.71314e-05
1.71315e-05
1.71316e-05
1.71317e-05
1.71317e-05
1.71319e-05
1.7132e-05
1.71321e-05
1.71321e-05
1.71323e-05
1.71323e-05
1.71325e-05
1.71325e-05
1.71327e-05
1.71327e-05
1.71328e-05
1.71329e-05
1.7133e-05
1.71331e-05
1.71332e-05
1.71333e-05
1.71334e-05
1.71335e-05
1.71336e-05
1.71337e-05
1.71339e-05
1.71339e-05
1.71341e-05
1.71341e-05
1.71342e-05
1.71343e-05
1.71344e-05
1.71345e-05
1.71346e-05
1.71347e-05
1.71348e-05
1.71349e-05
1.7135e-05
1.71351e-05
1.71352e-05
1.71352e-05
1.71353e-05
1.71354e-05
1.71354e-05
1.71356e-05
1.71357e-05
1.71359e-05
1.71358e-05
1.71362e-05
1.71358e-05
1.71366e-05
1.71355e-05
1.71373e-05
1.71351e-05
1.71381e-05
1.71345e-05
1.71391e-05
1.71338e-05
1.714e-05
1.71333e-05
1.71409e-05
1.71327e-05
1.71418e-05
1.71321e-05
1.71428e-05
1.71313e-05
1.7144e-05
1.71302e-05
1.71455e-05
1.71287e-05
1.71473e-05
1.71274e-05
1.71484e-05
1.71271e-05
1.71481e-05
1.71293e-05
1.71453e-05
1.7133e-05
1.71415e-05
1.71374e-05
1.71383e-05
1.71386e-05
1.714e-05
1.71366e-05
1.71417e-05
1.71343e-05
1.71466e-05
1.71289e-05
1.71518e-05
1.71225e-05
1.71602e-05
1.71216e-05
1.71618e-05
1.71205e-05
1.71636e-05
1.71177e-05
1.71613e-05
1.71188e-05
1.71593e-05
1.71224e-05
1.71536e-05
1.71265e-05
1.71473e-05
1.7131e-05
1.71401e-05
1.71398e-05
1.71311e-05
1.715e-05
1.71203e-05
1.71635e-05
1.70973e-05
1.7182e-05
1.69274e-05
1.90952e-05
1.88236e-05
1.80356e-05
1.82924e-05
2.48397e-05
3.25986e-05
3.5267e-05
3.73246e-05
3.85545e-05
3.92704e-05
3.97493e-05
4.00644e-05
4.03729e-05
4.06235e-05
4.0862e-05
4.11032e-05
4.13336e-05
4.15763e-05
4.18077e-05
4.20375e-05
4.22691e-05
4.24974e-05
4.27284e-05
4.29556e-05
4.31796e-05
4.33993e-05
4.36126e-05
4.38187e-05
4.40103e-05
4.41764e-05
4.43104e-05
4.44158e-05
4.44981e-05
4.4563e-05
4.46139e-05
4.46546e-05
4.46866e-05
4.47126e-05
4.47332e-05
4.47502e-05
4.47637e-05
4.47754e-05
4.47845e-05
4.47928e-05
4.47991e-05
4.48053e-05
4.48097e-05
4.48145e-05
4.48175e-05
4.48212e-05
4.48236e-05
4.48262e-05
4.48287e-05
4.48295e-05
4.48334e-05
4.48309e-05
4.48377e-05
4.48292e-05
4.48442e-05
4.48215e-05
4.48575e-05
4.48059e-05
4.48188e-05
4.43456e-05
4.40754e-05
4.36896e-05
4.33309e-05
4.30462e-05
4.28578e-05
4.26989e-05
4.25728e-05
4.24655e-05
4.23862e-05
4.24048e-05
4.23439e-05
4.23534e-05
4.23068e-05
4.23108e-05
4.22298e-05
4.22574e-05
4.22254e-05
4.22509e-05
4.21802e-05
4.22216e-05
4.21991e-05
4.22296e-05
4.2177e-05
4.22215e-05
4.2206e-05
4.22381e-05
4.21827e-05
4.22271e-05
4.22103e-05
4.22416e-05
4.21855e-05
4.22296e-05
4.22124e-05
4.22438e-05
4.21865e-05
4.22312e-05
4.22128e-05
4.2245e-05
4.21874e-05
4.22323e-05
4.22136e-05
4.22459e-05
4.21882e-05
4.22331e-05
4.22144e-05
4.22466e-05
4.21888e-05
4.22338e-05
4.2215e-05
4.22472e-05
4.21894e-05
4.22343e-05
4.22155e-05
4.22478e-05
4.219e-05
4.22349e-05
4.22161e-05
4.22483e-05
4.21906e-05
4.22355e-05
4.22167e-05
4.22489e-05
4.21912e-05
4.22361e-05
4.22173e-05
4.22496e-05
4.21918e-05
4.22367e-05
4.2218e-05
4.22503e-05
4.21925e-05
4.22374e-05
4.22187e-05
4.22509e-05
4.21933e-05
4.22381e-05
4.22194e-05
4.22516e-05
4.2194e-05
4.22388e-05
4.22202e-05
4.22524e-05
4.21946e-05
4.22398e-05
4.22209e-05
4.22528e-05
4.21827e-05
4.20988e-05
4.20716e-05
4.20618e-05
4.20577e-05
4.20558e-05
4.20548e-05
4.20545e-05
4.20544e-05
4.20546e-05
4.20547e-05
4.2055e-05
4.20549e-05
4.20551e-05
4.20558e-05
4.20559e-05
4.2056e-05
4.20565e-05
4.20565e-05
4.20566e-05
4.20571e-05
4.20572e-05
4.2057e-05
4.2057e-05
4.20573e-05
4.20574e-05
4.20575e-05
4.20578e-05
4.20581e-05
4.20583e-05
4.20584e-05
4.20586e-05
4.20588e-05
4.20591e-05
4.20593e-05
4.20595e-05
4.20597e-05
4.206e-05
4.20602e-05
4.20605e-05
4.20607e-05
4.20609e-05
4.2061e-05
4.20612e-05
4.20614e-05
4.20616e-05
4.20618e-05
4.20619e-05
4.20621e-05
4.20624e-05
4.20626e-05
4.20629e-05
4.20631e-05
4.20634e-05
4.20635e-05
4.20637e-05
4.20638e-05
4.20641e-05
4.20643e-05
4.20645e-05
4.20647e-05
4.20649e-05
4.20651e-05
4.20653e-05
4.20656e-05
4.20658e-05
4.2066e-05
4.20663e-05
4.20665e-05
4.20667e-05
4.20669e-05
4.2067e-05
4.20672e-05
4.20674e-05
4.20676e-05
4.20677e-05
4.20676e-05
4.20676e-05
4.20679e-05
4.20682e-05
4.20681e-05
4.20685e-05
4.20688e-05
4.20692e-05
4.20691e-05
4.20695e-05
4.20691e-05
4.20698e-05
4.20689e-05
4.20706e-05
4.20688e-05
4.20714e-05
4.20687e-05
4.2072e-05
4.2069e-05
4.20723e-05
4.20693e-05
4.20726e-05
4.20697e-05
4.20727e-05
4.20702e-05
4.20729e-05
4.20706e-05
4.20731e-05
4.20708e-05
4.20734e-05
4.20709e-05
4.20736e-05
4.20716e-05
4.20727e-05
4.20738e-05
4.20707e-05
4.20755e-05
4.20715e-05
4.20742e-05
4.20742e-05
4.20724e-05
4.20756e-05
4.20741e-05
4.20733e-05
4.20764e-05
4.20721e-05
4.20787e-05
4.20717e-05
4.20762e-05
4.20777e-05
4.20725e-05
4.20822e-05
4.20742e-05
4.20805e-05
4.20775e-05
4.20786e-05
4.20812e-05
4.20744e-05
4.20849e-05
4.20716e-05
4.20835e-05
4.20721e-05
4.20802e-05
4.20737e-05
4.20733e-05
4.20782e-05
4.2069e-05
4.20732e-05
4.20762e-05
4.20653e-05
4.20854e-05
4.20502e-05
4.20995e-05
4.26384e-05
4.34441e-05
4.32688e-05
4.34467e-05
4.41134e-05
2.33572e-05
3.60032e-05
4.19922e-05
4.85512e-05
5.38711e-05
5.65512e-05
5.82581e-05
5.96765e-05
6.0726e-05
6.16899e-05
6.24527e-05
6.31824e-05
6.38305e-05
6.4431e-05
6.5012e-05
6.55418e-05
6.60538e-05
6.65472e-05
6.70196e-05
6.74752e-05
6.7909e-05
6.83208e-05
6.87099e-05
6.90728e-05
6.93993e-05
6.96499e-05
6.98315e-05
6.99613e-05
7.00551e-05
7.01221e-05
7.01708e-05
7.02052e-05
7.02304e-05
7.0248e-05
7.02613e-05
7.02707e-05
7.02783e-05
7.02837e-05
7.02887e-05
7.02922e-05
7.02959e-05
7.02985e-05
7.03017e-05
7.03036e-05
7.03063e-05
7.03075e-05
7.031e-05
7.03114e-05
7.03133e-05
7.03148e-05
7.03149e-05
7.03169e-05
7.03164e-05
7.03184e-05
7.03164e-05
7.03199e-05
7.03144e-05
7.03543e-05
7.0201e-05
6.90844e-05
6.92306e-05
6.90554e-05
6.86408e-05
6.81871e-05
6.781e-05
6.74772e-05
6.72275e-05
6.69958e-05
6.68354e-05
6.6836e-05
6.67075e-05
6.67029e-05
6.66199e-05
6.66107e-05
6.64609e-05
6.6498e-05
6.644e-05
6.6472e-05
6.63474e-05
6.64144e-05
6.63811e-05
6.64325e-05
6.63211e-05
6.64082e-05
6.63777e-05
6.64391e-05
6.6329e-05
6.64156e-05
6.63855e-05
6.6446e-05
6.63357e-05
6.64216e-05
6.63911e-05
6.64514e-05
6.63398e-05
6.64257e-05
6.63941e-05
6.64541e-05
6.63423e-05
6.64281e-05
6.63962e-05
6.64561e-05
6.63439e-05
6.64298e-05
6.63975e-05
6.64575e-05
6.6345e-05
6.64309e-05
6.63985e-05
6.64585e-05
6.6346e-05
6.64318e-05
6.63994e-05
6.64594e-05
6.63469e-05
6.64327e-05
6.64003e-05
6.64603e-05
6.63478e-05
6.64337e-05
6.64013e-05
6.64612e-05
6.63488e-05
6.64346e-05
6.64023e-05
6.64622e-05
6.63498e-05
6.64356e-05
6.64033e-05
6.64633e-05
6.63509e-05
6.64367e-05
6.64044e-05
6.64643e-05
6.6352e-05
6.64378e-05
6.64055e-05
6.64654e-05
6.63532e-05
6.64388e-05
6.64067e-05
6.64666e-05
6.63542e-05
6.64404e-05
6.64083e-05
6.64678e-05
6.63253e-05
6.61629e-05
6.61264e-05
6.61084e-05
6.60993e-05
6.60942e-05
6.60915e-05
6.609e-05
6.60895e-05
6.60894e-05
6.60897e-05
6.60899e-05
6.60905e-05
6.60909e-05
6.60918e-05
6.60919e-05
6.60921e-05
6.60928e-05
6.6094e-05
6.60949e-05
6.60953e-05
6.60955e-05
6.60956e-05
6.60956e-05
6.60957e-05
6.60956e-05
6.60959e-05
6.60962e-05
6.60966e-05
6.60968e-05
6.60971e-05
6.60974e-05
6.60978e-05
6.60981e-05
6.60985e-05
6.60987e-05
6.60991e-05
6.60994e-05
6.61e-05
6.61003e-05
6.61006e-05
6.61008e-05
6.61011e-05
6.61013e-05
6.61017e-05
6.61018e-05
6.61021e-05
6.61022e-05
6.61027e-05
6.61031e-05
6.61035e-05
6.61037e-05
6.61042e-05
6.61044e-05
6.61048e-05
6.61049e-05
6.61051e-05
6.61054e-05
6.61058e-05
6.61061e-05
6.61064e-05
6.61066e-05
6.61069e-05
6.61072e-05
6.61076e-05
6.61079e-05
6.61083e-05
6.61086e-05
6.61089e-05
6.61092e-05
6.61094e-05
6.61096e-05
6.61098e-05
6.61101e-05
6.61103e-05
6.61105e-05
6.61107e-05
6.61109e-05
6.6111e-05
6.61112e-05
6.61115e-05
6.6112e-05
6.61123e-05
6.61124e-05
6.61126e-05
6.61127e-05
6.6113e-05
6.61131e-05
6.61135e-05
6.61134e-05
6.6114e-05
6.61136e-05
6.61148e-05
6.61135e-05
6.61157e-05
6.61137e-05
6.6116e-05
6.61141e-05
6.61163e-05
6.61146e-05
6.61165e-05
6.61151e-05
6.61167e-05
6.61154e-05
6.6117e-05
6.61156e-05
6.61175e-05
6.6116e-05
6.61172e-05
6.61174e-05
6.61156e-05
6.61214e-05
6.61099e-05
6.61294e-05
6.61039e-05
6.61339e-05
6.61029e-05
6.61339e-05
6.6107e-05
6.61299e-05
6.61096e-05
6.61291e-05
6.6115e-05
6.61223e-05
6.61213e-05
6.61186e-05
6.61281e-05
6.61216e-05
6.61266e-05
6.61249e-05
6.61252e-05
6.61262e-05
6.61214e-05
6.61321e-05
6.61153e-05
6.61403e-05
6.61036e-05
6.61493e-05
6.60928e-05
6.61519e-05
6.60867e-05
6.61556e-05
6.60816e-05
6.61531e-05
6.60838e-05
6.61482e-05
6.60861e-05
6.6135e-05
6.60147e-05
6.77009e-05
6.74722e-05
6.67118e-05
6.81117e-05
6.86896e-05
2.3413e-05
3.21425e-05
3.98745e-05
4.97563e-05
5.85438e-05
6.45101e-05
6.97444e-05
7.28922e-05
7.53627e-05
7.75128e-05
7.92662e-05
8.08372e-05
8.22019e-05
8.34484e-05
8.45975e-05
8.56263e-05
8.65958e-05
8.74995e-05
8.83481e-05
8.91459e-05
8.98885e-05
9.05776e-05
9.12123e-05
9.17884e-05
9.22852e-05
9.26493e-05
9.29008e-05
9.30698e-05
9.31817e-05
9.32528e-05
9.32967e-05
9.3321e-05
9.33334e-05
9.33373e-05
9.33371e-05
9.33338e-05
9.33298e-05
9.33252e-05
9.33212e-05
9.33176e-05
9.33148e-05
9.33126e-05
9.33112e-05
9.33099e-05
9.33092e-05
9.33086e-05
9.33088e-05
9.33092e-05
9.33093e-05
9.33103e-05
9.3309e-05
9.33115e-05
9.33094e-05
9.33137e-05
9.33079e-05
9.33171e-05
9.33024e-05
9.33672e-05
9.30761e-05
9.15346e-05
9.18151e-05
9.20125e-05
9.17721e-05
9.13348e-05
9.08796e-05
9.04289e-05
9.00522e-05
8.96894e-05
8.94137e-05
8.92992e-05
8.91135e-05
8.90406e-05
8.89192e-05
8.8852e-05
8.86873e-05
8.86725e-05
8.85913e-05
8.85863e-05
8.84637e-05
8.85027e-05
8.8466e-05
8.84955e-05
8.83978e-05
8.84659e-05
8.84383e-05
8.84877e-05
8.8396e-05
8.84689e-05
8.84454e-05
8.84965e-05
8.84056e-05
8.84786e-05
8.84546e-05
8.85057e-05
8.84128e-05
8.84859e-05
8.846e-05
8.8511e-05
8.84174e-05
8.84905e-05
8.84638e-05
8.85145e-05
8.84203e-05
8.84934e-05
8.84661e-05
8.85166e-05
8.8422e-05
8.8495e-05
8.84676e-05
8.85182e-05
8.84234e-05
8.84963e-05
8.84689e-05
8.85194e-05
8.84247e-05
8.84975e-05
8.847e-05
8.85205e-05
8.84258e-05
8.84987e-05
8.84712e-05
8.85217e-05
8.8427e-05
8.84999e-05
8.84725e-05
8.85229e-05
8.84283e-05
8.85012e-05
8.84739e-05
8.85244e-05
8.84297e-05
8.85026e-05
8.84752e-05
8.85258e-05
8.84312e-05
8.8504e-05
8.84767e-05
8.85271e-05
8.84328e-05
8.85053e-05
8.84781e-05
8.85285e-05
8.84338e-05
8.85073e-05
8.84801e-05
8.85301e-05
8.84113e-05
8.82463e-05
8.81802e-05
8.81427e-05
8.81215e-05
8.81088e-05
8.81011e-05
8.80965e-05
8.80939e-05
8.80926e-05
8.80922e-05
8.80922e-05
8.80928e-05
8.80934e-05
8.80945e-05
8.80949e-05
8.80954e-05
8.80969e-05
8.80988e-05
8.80998e-05
8.81005e-05
8.81008e-05
8.81007e-05
8.81006e-05
8.81006e-05
8.81007e-05
8.81011e-05
8.81014e-05
8.81018e-05
8.81021e-05
8.81026e-05
8.8103e-05
8.81035e-05
8.81039e-05
8.81043e-05
8.81047e-05
8.81052e-05
8.81057e-05
8.81062e-05
8.81066e-05
8.81069e-05
8.81072e-05
8.81076e-05
8.81079e-05
8.81083e-05
8.81085e-05
8.81089e-05
8.81091e-05
8.81097e-05
8.81101e-05
8.81105e-05
8.81108e-05
8.81113e-05
8.81116e-05
8.81119e-05
8.8112e-05
8.81124e-05
8.81128e-05
8.81132e-05
8.81135e-05
8.81137e-05
8.81141e-05
8.81145e-05
8.81148e-05
8.81153e-05
8.81156e-05
8.8116e-05
8.81164e-05
8.81167e-05
8.8117e-05
8.81173e-05
8.81175e-05
8.81179e-05
8.81181e-05
8.81183e-05
8.81185e-05
8.81187e-05
8.81188e-05
8.81189e-05
8.8119e-05
8.81193e-05
8.81196e-05
8.81201e-05
8.81202e-05
8.81205e-05
8.81207e-05
8.81211e-05
8.81212e-05
8.81216e-05
8.81216e-05
8.81222e-05
8.81219e-05
8.8123e-05
8.8122e-05
8.81238e-05
8.81223e-05
8.81242e-05
8.81226e-05
8.81248e-05
8.81229e-05
8.81252e-05
8.81232e-05
8.81257e-05
8.81234e-05
8.81263e-05
8.81235e-05
8.81271e-05
8.81235e-05
8.81274e-05
8.81242e-05
8.81271e-05
8.81272e-05
8.81219e-05
8.81357e-05
8.81134e-05
8.81448e-05
8.81091e-05
8.81455e-05
8.81146e-05
8.81387e-05
8.81202e-05
8.81365e-05
8.81275e-05
8.81294e-05
8.81322e-05
8.81276e-05
8.814e-05
8.81319e-05
8.8139e-05
8.81324e-05
8.8138e-05
8.81305e-05
8.81355e-05
8.81358e-05
8.81336e-05
8.81444e-05
8.81212e-05
8.81532e-05
8.81066e-05
8.81617e-05
8.80939e-05
8.81732e-05
8.80853e-05
8.817e-05
8.80865e-05
8.81645e-05
8.80867e-05
8.81502e-05
8.79888e-05
8.91073e-05
8.96873e-05
8.82763e-05
8.95743e-05
9.03721e-05
2.68147e-05
2.89224e-05
3.80818e-05
4.7398e-05
5.46593e-05
6.36135e-05
7.17508e-05
7.79094e-05
8.32976e-05
8.75247e-05
9.08922e-05
9.36133e-05
9.59821e-05
9.8125e-05
0.000100061
0.000101788
0.000103388
0.000104856
0.000106218
0.00010748
0.00010864
0.000109701
0.000110663
0.000111524
0.000112252
0.000112786
0.000113162
0.00011342
0.000113593
0.000113704
0.000113774
0.000113814
0.000113835
0.000113844
0.000113845
0.000113842
0.000113838
0.000113832
0.000113827
0.000113823
0.00011382
0.000113818
0.000113816
0.000113815
0.000113814
0.000113814
0.000113815
0.000113816
0.000113816
0.000113818
0.000113817
0.000113821
0.000113819
0.000113825
0.000113818
0.000113831
0.000113812
0.000113892
0.000113491
0.000111661
0.000111881
0.000112356
0.00011234
0.00011203
0.000111601
0.000111119
0.000110667
0.000110216
0.000109844
0.000109615
0.000109362
0.000109215
0.00010905
0.000108923
0.000108737
0.00010867
0.000108564
0.000108518
0.00010839
0.000108398
0.000108355
0.000108361
0.000108272
0.000108318
0.000108293
0.000108327
0.00010825
0.000108308
0.000108293
0.000108333
0.000108259
0.000108319
0.000108304
0.000108345
0.000108269
0.000108329
0.000108312
0.000108353
0.000108276
0.000108336
0.000108318
0.000108358
0.000108281
0.00010834
0.000108321
0.000108361
0.000108283
0.000108343
0.000108323
0.000108363
0.000108285
0.000108344
0.000108325
0.000108365
0.000108287
0.000108346
0.000108326
0.000108366
0.000108288
0.000108347
0.000108328
0.000108368
0.00010829
0.000108349
0.000108329
0.000108369
0.000108291
0.00010835
0.000108331
0.000108371
0.000108293
0.000108352
0.000108333
0.000108372
0.000108295
0.000108354
0.000108334
0.000108374
0.000108296
0.000108355
0.000108336
0.000108376
0.000108298
0.000108357
0.000108338
0.000108378
0.000108283
0.000108132
0.000108047
0.000107992
0.000107957
0.000107935
0.00010792
0.00010791
0.000107904
0.0001079
0.000107898
0.000107897
0.000107897
0.000107897
0.000107898
0.000107899
0.000107899
0.000107901
0.000107903
0.000107904
0.000107905
0.000107906
0.000107905
0.000107905
0.000107905
0.000107905
0.000107906
0.000107906
0.000107907
0.000107907
0.000107908
0.000107908
0.000107909
0.000107909
0.00010791
0.00010791
0.000107911
0.000107911
0.000107912
0.000107912
0.000107913
0.000107913
0.000107913
0.000107914
0.000107914
0.000107914
0.000107915
0.000107915
0.000107916
0.000107916
0.000107917
0.000107917
0.000107917
0.000107918
0.000107918
0.000107918
0.000107918
0.000107919
0.000107919
0.000107919
0.00010792
0.00010792
0.000107921
0.000107921
0.000107922
0.000107922
0.000107922
0.000107923
0.000107923
0.000107923
0.000107924
0.000107924
0.000107924
0.000107924
0.000107925
0.000107925
0.000107925
0.000107925
0.000107925
0.000107925
0.000107925
0.000107925
0.000107926
0.000107926
0.000107926
0.000107927
0.000107927
0.000107927
0.000107928
0.000107928
0.000107928
0.000107928
0.000107929
0.000107928
0.000107929
0.000107929
0.00010793
0.000107929
0.00010793
0.00010793
0.000107931
0.00010793
0.000107931
0.00010793
0.000107932
0.000107931
0.000107933
0.000107931
0.000107933
0.000107931
0.000107934
0.000107934
0.00010793
0.00010794
0.000107921
0.000107952
0.000107915
0.000107953
0.000107921
0.000107945
0.000107929
0.000107941
0.000107937
0.000107937
0.000107938
0.000107936
0.000107946
0.000107943
0.000107945
0.000107942
0.000107944
0.000107938
0.000107941
0.000107942
0.000107943
0.00010795
0.000107933
0.000107955
0.000107918
0.000107967
0.000107901
0.000107984
0.000107892
0.00010798
0.000107892
0.000107974
0.000107891
0.000107959
0.000107788
0.000107693
0.000109808
0.000107965
0.000108795
0.000109713
3.67747e-05
2.95094e-05
3.44204e-05
4.37549e-05
4.88592e-05
5.84704e-05
6.73457e-05
7.55749e-05
8.33162e-05
8.96944e-05
9.55054e-05
0.000100169
0.000104561
0.000108042
0.000111176
0.000113781
0.000116169
0.000118354
0.000120367
0.000122218
0.000123905
0.000125439
0.000126821
0.000128052
0.000129101
0.000129896
0.00013048
0.000130904
0.000131209
0.000131424
0.000131575
0.00013168
0.000131754
0.000131804
0.000131839
0.000131864
0.000131883
0.000131898
0.000131909
0.00013192
0.000131928
0.000131938
0.000131945
0.000131953
0.000131958
0.000131966
0.000131971
0.000131978
0.000131982
0.000131988
0.00013199
0.000131998
0.000131998
0.000132008
0.000132003
0.00013202
0.000131999
0.000132089
0.000131607
0.000129619
0.000129537
0.000130342
0.000130503
0.000130348
0.000130001
0.000129555
0.00012908
0.000128591
0.000128154
0.000127835
0.00012752
0.000127307
0.000127096
0.000126915
0.000126706
0.000126593
0.00012646
0.000126374
0.000126236
0.000126215
0.000126162
0.000126144
0.000126057
0.000126082
0.000126058
0.000126077
0.00012601
0.000126055
0.000126044
0.000126075
0.000126014
0.000126063
0.000126054
0.000126087
0.000126025
0.000126075
0.000126065
0.000126097
0.000126035
0.000126084
0.000126073
0.000126104
0.000126041
0.00012609
0.000126078
0.000126109
0.000126045
0.000126093
0.000126081
0.000126111
0.000126047
0.000126095
0.000126083
0.000126113
0.000126049
0.000126097
0.000126085
0.000126115
0.000126051
0.000126099
0.000126086
0.000126116
0.000126052
0.0001261
0.000126088
0.000126118
0.000126054
0.000126102
0.00012609
0.00012612
0.000126056
0.000126104
0.000126092
0.000126122
0.000126058
0.000126106
0.000126094
0.000126124
0.00012606
0.000126108
0.000126095
0.000126125
0.000126062
0.00012611
0.000126099
0.000126128
0.000126055
0.000125923
0.000125831
0.000125762
0.000125715
0.000125682
0.000125659
0.000125643
0.000125632
0.000125625
0.00012562
0.000125617
0.000125615
0.000125615
0.000125615
0.000125615
0.000125615
0.000125617
0.000125619
0.00012562
0.000125621
0.000125621
0.000125621
0.000125621
0.000125621
0.000125621
0.000125622
0.000125622
0.000125622
0.000125623
0.000125623
0.000125624
0.000125624
0.000125625
0.000125625
0.000125626
0.000125626
0.000125627
0.000125627
0.000125628
0.000125628
0.000125629
0.000125629
0.000125629
0.00012563
0.00012563
0.00012563
0.000125631
0.000125631
0.000125632
0.000125632
0.000125633
0.000125633
0.000125633
0.000125634
0.000125634
0.000125634
0.000125634
0.000125635
0.000125635
0.000125635
0.000125636
0.000125636
0.000125637
0.000125637
0.000125638
0.000125638
0.000125638
0.000125638
0.000125639
0.000125639
0.000125639
0.00012564
0.00012564
0.00012564
0.00012564
0.00012564
0.00012564
0.00012564
0.00012564
0.00012564
0.00012564
0.00012564
0.000125641
0.000125641
0.000125642
0.000125642
0.000125642
0.000125643
0.000125643
0.000125643
0.000125643
0.000125644
0.000125644
0.000125644
0.000125644
0.000125644
0.000125645
0.000125645
0.000125645
0.000125645
0.000125646
0.000125645
0.000125646
0.000125646
0.000125647
0.000125647
0.000125647
0.000125647
0.000125648
0.000125648
0.00012565
0.000125645
0.000125655
0.000125637
0.000125668
0.00012563
0.000125667
0.000125637
0.00012566
0.000125646
0.000125655
0.000125653
0.000125653
0.000125652
0.000125654
0.00012566
0.000125662
0.00012566
0.000125662
0.000125658
0.000125656
0.000125654
0.00012566
0.000125658
0.000125667
0.00012565
0.000125669
0.000125636
0.000125682
0.000125618
0.0001257
0.000125611
0.000125696
0.00012561
0.00012569
0.000125607
0.000125676
0.000125516
0.000124474
0.000127816
0.000125756
0.000126319
0.000127005
5.74885e-05
3.57249e-05
3.33561e-05
3.83182e-05
4.66075e-05
5.41691e-05
6.05654e-05
6.92632e-05
7.80587e-05
8.6018e-05
9.37214e-05
0.000100218
0.000106411
0.000111533
0.000116338
0.00012031
0.000123976
0.000127508
0.000130488
0.000133281
0.0001356
0.000137705
0.000139606
0.000141316
0.000142817
0.000143986
0.000144884
0.000145571
0.000146096
0.000146497
0.000146804
0.000147041
0.000147225
0.000147369
0.000147484
0.000147577
0.000147653
0.000147718
0.000147771
0.000147819
0.000147858
0.000147895
0.000147925
0.000147954
0.000147976
0.000147999
0.000148017
0.000148036
0.00014805
0.000148064
0.000148075
0.000148089
0.000148096
0.000148112
0.00014811
0.000148132
0.000148114
0.000148209
0.000147682
0.000145632
0.000145555
0.000146256
0.000146553
0.000146539
0.000146291
0.000145914
0.000145455
0.000144969
0.000144499
0.000144122
0.00014376
0.000143494
0.000143244
0.000143019
0.000142787
0.000142634
0.000142476
0.000142355
0.000142205
0.000142156
0.00014209
0.000142052
0.000141963
0.000141968
0.000141942
0.000141947
0.000141886
0.000141919
0.000141912
0.000141934
0.000141883
0.000141923
0.000141919
0.000141945
0.000141894
0.000141936
0.000141932
0.000141957
0.000141906
0.000141947
0.000141942
0.000141966
0.000141914
0.000141954
0.000141948
0.000141971
0.000141919
0.000141958
0.000141952
0.000141975
0.000141922
0.000141961
0.000141955
0.000141977
0.000141924
0.000141963
0.000141956
0.000141979
0.000141926
0.000141965
0.000141958
0.000141981
0.000141928
0.000141967
0.00014196
0.000141983
0.00014193
0.000141969
0.000141962
0.000141985
0.000141932
0.000141971
0.000141964
0.000141987
0.000141934
0.000141973
0.000141966
0.000141989
0.000141936
0.000141975
0.000141968
0.000141991
0.000141938
0.000141977
0.000141972
0.000141995
0.000141937
0.000141826
0.000141733
0.000141657
0.000141599
0.000141557
0.000141526
0.000141503
0.000141487
0.000141475
0.000141467
0.000141461
0.000141457
0.000141455
0.000141454
0.000141453
0.000141452
0.000141454
0.000141455
0.000141456
0.000141456
0.000141456
0.000141456
0.000141456
0.000141456
0.000141456
0.000141457
0.000141457
0.000141457
0.000141458
0.000141458
0.000141458
0.000141459
0.00014146
0.00014146
0.00014146
0.000141461
0.000141461
0.000141462
0.000141462
0.000141463
0.000141463
0.000141463
0.000141464
0.000141464
0.000141464
0.000141465
0.000141465
0.000141466
0.000141466
0.000141466
0.000141467
0.000141467
0.000141467
0.000141468
0.000141468
0.000141468
0.000141468
0.000141469
0.000141469
0.000141469
0.00014147
0.00014147
0.000141471
0.000141471
0.000141471
0.000141472
0.000141472
0.000141472
0.000141472
0.000141473
0.000141473
0.000141473
0.000141473
0.000141473
0.000141473
0.000141473
0.000141473
0.000141473
0.000141473
0.000141473
0.000141472
0.000141472
0.000141473
0.000141474
0.000141474
0.000141475
0.000141475
0.000141475
0.000141475
0.000141475
0.000141475
0.000141476
0.000141476
0.000141476
0.000141477
0.000141476
0.000141478
0.000141477
0.000141478
0.000141477
0.000141479
0.000141477
0.00014148
0.000141478
0.00014148
0.000141478
0.000141481
0.000141478
0.000141482
0.000141479
0.000141484
0.000141477
0.000141488
0.00014147
0.0001415
0.000141465
0.000141499
0.000141471
0.000141492
0.00014148
0.000141488
0.000141487
0.000141488
0.000141484
0.000141489
0.000141491
0.000141498
0.000141492
0.000141499
0.000141489
0.000141493
0.000141484
0.000141496
0.000141489
0.000141502
0.000141482
0.000141502
0.00014147
0.000141515
0.000141453
0.000141532
0.000141448
0.000141527
0.000141446
0.000141521
0.000141443
0.000141509
0.000141375
0.000140409
0.000143882
0.00014175
0.000141976
0.000142507
9.87625e-05
5.09372e-05
3.93502e-05
3.76723e-05
4.22977e-05
5.06438e-05
5.53794e-05
6.33274e-05
7.0779e-05
7.90765e-05
8.76684e-05
9.54447e-05
0.000103056
0.000109723
0.000116061
0.000121474
0.000126408
0.000131085
0.000135141
0.000138914
0.000142152
0.000144942
0.000147453
0.000150061
0.000153511
0.000155171
0.000156493
0.000157547
0.000158392
0.000159071
0.00015962
0.000160065
0.000160429
0.000160729
0.000160978
0.000161187
0.000161362
0.000161512
0.000161639
0.00016175
0.000161843
0.000161928
0.000161998
0.000162061
0.000162114
0.000162163
0.000162204
0.000162242
0.000162272
0.000162302
0.000162325
0.000162351
0.000162367
0.000162392
0.000162398
0.000162427
0.000162414
0.000162511
0.000161976
0.000159927
0.000159694
0.000160397
0.000160787
0.000160883
0.000160725
0.000160426
0.000160007
0.00015955
0.000159073
0.000158669
0.000158275
0.000157974
0.000157693
0.000157437
0.000157185
0.000157
0.000156821
0.000156672
0.00015651
0.000156437
0.000156357
0.000156302
0.000156208
0.000156196
0.000156167
0.000156161
0.000156103
0.000156125
0.000156119
0.000156134
0.00015609
0.000156122
0.000156122
0.000156142
0.0001561
0.000156135
0.000156135
0.000156156
0.000156114
0.000156149
0.000156148
0.000156167
0.000156124
0.000156157
0.000156155
0.000156174
0.00015613
0.000156162
0.00015616
0.000156178
0.000156134
0.000156166
0.000156163
0.000156181
0.000156136
0.000156168
0.000156165
0.000156183
0.000156138
0.00015617
0.000156167
0.000156185
0.00015614
0.000156172
0.00015617
0.000156187
0.000156142
0.000156175
0.000156172
0.00015619
0.000156145
0.000156177
0.000156174
0.000156192
0.000156147
0.000156179
0.000156176
0.000156195
0.00015615
0.000156182
0.000156178
0.000156196
0.000156152
0.000156184
0.000156183
0.000156201
0.000156156
0.000156064
0.000155975
0.000155895
0.00015583
0.00015578
0.000155741
0.000155712
0.00015569
0.000155673
0.000155661
0.000155652
0.000155646
0.000155641
0.000155638
0.000155635
0.000155634
0.000155634
0.000155635
0.000155634
0.000155634
0.000155634
0.000155634
0.000155633
0.000155633
0.000155633
0.000155634
0.000155634
0.000155634
0.000155634
0.000155634
0.000155635
0.000155635
0.000155636
0.000155636
0.000155636
0.000155637
0.000155637
0.000155637
0.000155638
0.000155638
0.000155638
0.000155639
0.000155639
0.00015564
0.00015564
0.00015564
0.00015564
0.000155641
0.000155641
0.000155641
0.000155642
0.000155642
0.000155642
0.000155642
0.000155643
0.000155643
0.000155643
0.000155643
0.000155644
0.000155644
0.000155644
0.000155645
0.000155645
0.000155646
0.000155646
0.000155646
0.000155646
0.000155646
0.000155646
0.000155647
0.000155647
0.000155647
0.000155647
0.000155647
0.000155647
0.000155646
0.000155646
0.000155646
0.000155646
0.000155646
0.000155645
0.000155645
0.000155646
0.000155646
0.000155647
0.000155647
0.000155647
0.000155648
0.000155648
0.000155648
0.000155648
0.000155648
0.000155649
0.000155649
0.00015565
0.000155649
0.00015565
0.000155649
0.000155651
0.000155649
0.000155652
0.00015565
0.000155653
0.00015565
0.000155654
0.00015565
0.000155655
0.00015565
0.000155656
0.000155651
0.000155658
0.00015565
0.000155662
0.000155644
0.000155673
0.00015564
0.000155671
0.000155645
0.000155666
0.000155654
0.000155662
0.00015566
0.000155662
0.000155657
0.000155663
0.000155664
0.000155674
0.000155665
0.000155675
0.000155662
0.000155669
0.000155656
0.000155672
0.000155661
0.000155678
0.000155654
0.000155677
0.000155643
0.000155688
0.000155629
0.000155702
0.000155626
0.000155698
0.000155624
0.000155692
0.00015562
0.000155682
0.000155579
0.000156304
0.000158204
0.000156098
0.000156058
0.000156438
0.000163552
8.23214e-05
5.47724e-05
4.44245e-05
4.20764e-05
4.60096e-05
5.35634e-05
6.0624e-05
6.51452e-05
7.24024e-05
8.00115e-05
8.79337e-05
9.62226e-05
0.00010394
0.000111404
0.000118208
0.000124461
0.000130046
0.000135132
0.000139931
0.00014412
0.000147875
0.000151687
0.000156264
0.000161396
0.000163642
0.000165489
0.000167015
0.00016828
0.000169333
0.000170212
0.000170948
0.000171566
0.000172087
0.000172528
0.000172902
0.000173222
0.000173495
0.00017373
0.000173933
0.000174106
0.000174259
0.000174389
0.000174503
0.0001746
0.000174687
0.000174761
0.000174827
0.000174882
0.000174933