/*--------------------------------*- C++ -*----------------------------------*\
| =========                 |                                                 |
| \\      /  F ield         | foam-extend: Open Source CFD                    |
|  \\    /   O peration     | Version:     3.2                                |
|   \\  /    A nd           | Web:         http://www.foam-extend.org         |
|    \\/     M anipulation  | For copyright notice see file Copyright         |
\*---------------------------------------------------------------------------*/
FoamFile
{
    version     2.0;
    format      ascii;
    class       volScalarField;
    location    "50";
    object      omega;
}
// * * * * * * * * * * * * * * * * * * * * * * * * * * * * * * * * * * * * * //

dimensions      [0 0 -1 0 0 0 0];

internalField   nonuniform List<scalar> 
5400
(
748.428
599.528
518.432
520.567
511.492
512.624
508.759
508.828
507.344
507.995
508.027
509.047
509.883
511.337
512.598
514.342
515.983
517.866
519.689
521.733
523.826
525.968
528.142
530.33
532.529
534.622
536.46
538.017
539.328
540.421
541.34
542.099
542.739
543.265
543.711
544.073
544.387
544.637
544.862
545.034
545.199
545.317
545.445
545.523
545.621
545.668
545.745
545.76
545.85
545.821
545.963
545.816
546.102
545.706
546.375
545.36
547.008
544.537
549.35
539.984
516.281
514.807
515.369
515.083
515.213
515.233
515.179
515.266
515.135
515.537
515.391
515.347
515.059
515.295
515.042
515.425
515.191
515.362
515.029
515.263
515.095
515.369
515.252
515.386
515.218
515.345
515.224
515.334
515.183
515.303
515.202
515.307
515.173
515.287
515.197
515.298
515.173
515.284
515.201
515.298
515.177
515.287
515.206
515.303
515.184
515.293
515.214
515.31
515.191
515.299
515.22
515.316
515.198
515.306
515.226
515.322
515.204
515.313
515.233
515.329
515.21
515.319
515.24
515.336
515.217
515.325
515.246
515.343
515.224
515.333
515.254
515.35
515.232
515.341
515.261
515.358
515.24
515.349
515.269
515.369
515.246
515.36
515.278
515.372
515.254
515.361
515.281
515.158
515.048
514.989
514.959
514.939
514.931
514.924
514.919
514.911
514.906
514.899
514.894
514.89
514.889
514.887
514.886
514.883
514.88
514.879
514.882
514.884
514.887
514.887
514.891
514.893
514.895
514.896
514.899
514.9
514.903
514.905
514.907
514.908
514.911
514.913
514.916
514.917
514.92
514.921
514.925
514.927
514.93
514.932
514.936
514.937
514.941
514.942
514.945
514.947
514.951
514.953
514.956
514.957
514.961
514.963
514.967
514.968
514.972
514.973
514.978
514.979
514.984
514.985
514.988
514.99
514.993
514.995
514.998
515
515.004
515.006
515.009
515.011
515.014
515.016
515.019
515.021
515.023
515.025
515.027
515.031
515.032
515.04
515.035
515.047
515.035
515.058
515.029
515.077
515.018
515.1
515.001
515.127
514.983
515.151
514.969
515.175
514.952
515.2
514.935
515.226
514.913
515.259
514.884
515.299
514.845
515.349
514.808
515.38
514.801
515.372
514.859
515.294
514.961
515.191
515.082
515.103
515.115
515.149
515.058
515.196
514.997
515.329
514.85
515.471
514.673
515.699
514.651
515.742
514.621
515.793
514.543
515.73
514.575
515.675
514.673
515.519
514.784
515.345
514.907
515.151
515.147
514.905
515.425
514.611
515.789
513.998
516.14
508.978
568.803
561.502
539.555
546.602
291.903
269.368
236.123
225.607
216.23
212.962
209.389
207.993
206.357
205.837
205.3
205.217
205.219
205.417
205.695
206.137
206.608
207.197
207.787
208.459
209.177
209.932
210.715
211.516
212.346
213.147
213.873
214.507
215.057
215.524
215.925
216.262
216.55
216.789
216.994
217.162
217.308
217.426
217.531
217.612
217.69
217.745
217.804
217.842
217.887
217.911
217.946
217.961
217.992
217.996
218.03
218.013
218.067
218.01
218.126
217.966
218.241
217.826
218.98
218.391
211.31
207.494
206.449
206.065
205.945
205.997
206
206.105
206.12
206.01
206.307
206.086
205.967
205.905
206.285
206.127
206.083
206.007
206.371
206.136
206.098
206.058
206.471
206.245
206.179
206.084
206.478
206.23
206.166
206.065
206.466
206.216
206.159
206.056
206.464
206.211
206.16
206.054
206.465
206.21
206.161
206.055
206.466
206.212
206.163
206.058
206.469
206.215
206.166
206.06
206.472
206.218
206.169
206.064
206.475
206.221
206.172
206.067
206.478
206.224
206.175
206.07
206.481
206.227
206.178
206.073
206.484
206.231
206.181
206.076
206.488
206.234
206.185
206.08
206.491
206.238
206.188
206.083
206.495
206.242
206.192
206.087
206.499
206.245
206.196
206.091
206.568
206.888
206.881
206.888
206.891
206.89
206.89
206.89
206.89
206.888
206.886
206.883
206.881
206.879
206.877
206.876
206.875
206.873
206.872
206.873
206.874
206.874
206.877
206.877
206.879
206.879
206.88
206.88
206.881
206.881
206.883
206.883
206.884
206.884
206.886
206.886
206.887
206.888
206.889
206.89
206.891
206.892
206.893
206.894
206.895
206.896
206.897
206.898
206.899
206.9
206.901
206.902
206.903
206.904
206.905
206.906
206.907
206.908
206.909
206.91
206.912
206.912
206.914
206.914
206.915
206.916
206.917
206.918
206.919
206.92
206.921
206.922
206.923
206.923
206.924
206.925
206.926
206.928
206.928
206.929
206.93
206.932
206.932
206.933
206.933
206.935
206.934
206.937
206.934
206.94
206.934
206.942
206.934
206.945
206.933
206.948
206.932
206.952
206.931
206.956
206.93
206.96
206.928
206.964
206.925
206.969
206.921
206.976
206.917
206.982
206.913
206.985
206.922
206.972
206.946
206.942
206.979
206.928
206.976
206.951
206.955
206.968
206.938
206.992
206.927
206.997
206.909
207.024
206.924
207.045
206.926
207.06
206.905
207.042
206.893
207.036
206.912
207.004
206.929
206.949
206.965
206.886
207.017
206.856
207.054
206.822
207.105
206.735
207.214
203.832
216.418
223.81
219.776
219.368
146.091
155.244
150.97
143.567
135.373
131.478
127.898
125.994
124.299
123.371
122.561
122.143
121.845
121.693
121.659
121.711
121.834
122.037
122.271
122.55
122.868
123.217
123.592
123.985
124.399
124.791
125.148
125.465
125.744
125.985
126.194
126.373
126.526
126.655
126.766
126.859
126.939
127.004
127.062
127.107
127.149
127.181
127.213
127.235
127.259
127.273
127.291
127.302
127.316
127.323
127.334
127.336
127.348
127.345
127.364
127.346
127.384
127.299
127.589
128.465
126.505
123.49
121.919
121.169
120.743
120.586
120.47
120.458
120.431
120.339
120.428
120.334
120.292
120.243
120.385
120.309
120.327
120.302
120.45
120.345
120.362
120.337
120.514
120.429
120.429
120.384
120.539
120.438
120.435
120.382
120.538
120.434
120.433
120.379
120.537
120.432
120.432
120.378
120.536
120.431
120.433
120.378
120.537
120.432
120.434
120.38
120.538
120.434
120.435
120.381
120.54
120.436
120.437
120.383
120.542
120.437
120.439
120.385
120.544
120.439
120.441
120.387
120.546
120.441
120.443
120.389
120.548
120.443
120.445
120.391
120.55
120.445
120.447
120.393
120.552
120.447
120.449
120.395
120.554
120.45
120.451
120.398
120.557
120.452
120.454
120.399
120.584
120.735
120.763
120.783
120.794
120.801
120.805
120.808
120.81
120.811
120.812
120.812
120.811
120.811
120.81
120.809
120.809
120.809
120.808
120.809
120.809
120.81
120.811
120.811
120.811
120.812
120.812
120.813
120.813
120.814
120.814
120.814
120.815
120.815
120.816
120.817
120.817
120.818
120.818
120.819
120.82
120.82
120.821
120.821
120.822
120.822
120.823
120.823
120.824
120.824
120.825
120.826
120.827
120.827
120.828
120.828
120.829
120.829
120.83
120.831
120.831
120.832
120.832
120.833
120.833
120.834
120.835
120.835
120.836
120.836
120.837
120.837
120.837
120.838
120.838
120.839
120.84
120.84
120.841
120.841
120.842
120.843
120.843
120.844
120.844
120.844
120.844
120.845
120.845
120.845
120.847
120.845
120.849
120.843
120.852
120.841
120.855
120.84
120.858
120.838
120.86
120.837
120.863
120.835
120.867
120.832
120.871
120.829
120.875
120.826
120.878
120.825
120.877
120.83
120.877
120.826
120.882
120.832
120.875
120.839
120.87
120.844
120.869
120.838
120.883
120.829
120.891
120.816
120.91
120.821
120.923
120.821
120.929
120.809
120.92
120.808
120.915
120.813
120.906
120.8
120.908
120.787
120.903
120.793
120.902
120.798
120.906
120.806
121.046
120.13
120.81
127.706
128.304
128.096
79.1594
101.18
105.757
104.027
100.367
97.2927
94.0738
91.9521
90.1259
88.9077
87.8831
87.2375
86.7245
86.383
86.1541
85.9954
85.9273
85.9283
85.9734
86.056
86.1741
86.3225
86.4949
86.6848
86.8856
87.0598
87.2116
87.345
87.4637
87.5676
87.6592
87.7379
87.8067
87.8648
87.9153
87.9574
87.9941
88.0242
88.0507
88.0721
88.0913
88.1062
88.1203
88.1311
88.1415
88.1487
88.1565
88.1617
88.1675
88.172
88.1749
88.179
88.1797
88.1855
88.1824
88.1927
88.1787
88.1637
88.1872
89.2159
89.0616
87.107
85.6256
84.7455
84.1565
83.8454
83.6261
83.515
83.4327
83.3527
83.3626
83.3082
83.269
83.2345
83.2838
83.2406
83.2508
83.2527
83.3219
83.2752
83.2852
83.2792
83.3674
83.3413
83.3444
83.3324
83.4021
83.3617
83.3598
83.3402
83.4079
83.3641
83.3624
83.3415
83.4078
83.3642
83.3613
83.341
83.4076
83.3642
83.3613
83.3413
83.408
83.3649
83.3618
83.3421
83.4087
83.3658
83.3627
83.3431
83.4098
83.367
83.3638
83.3443
83.4109
83.3681
83.3652
83.3456
83.4122
83.3695
83.3664
83.3469
83.4136
83.3708
83.3678
83.3484
83.4149
83.3723
83.3692
83.3497
83.4164
83.3737
83.3707
83.3513
83.4178
83.3752
83.3722
83.3527
83.4195
83.3765
83.3741
83.3543
83.4214
83.3791
83.3757
83.3551
83.4322
83.4997
83.5234
83.5428
83.5566
83.5657
83.572
83.5768
83.5807
83.5837
83.5856
83.5868
83.5876
83.5881
83.5887
83.5886
83.5887
83.5894
83.5898
83.5905
83.5905
83.5907
83.5906
83.5909
83.591
83.5912
83.5915
83.5919
83.5925
83.593
83.5931
83.5935
83.5938
83.5943
83.5947
83.5951
83.5955
83.596
83.5964
83.5969
83.5973
83.5978
83.598
83.5985
83.5989
83.5993
83.5995
83.5998
83.6002
83.6008
83.6013
83.6018
83.6023
83.6028
83.6032
83.6036
83.6038
83.6042
83.6046
83.6051
83.6055
83.6059
83.6061
83.6064
83.6069
83.6074
83.6078
83.6083
83.6086
83.6091
83.6093
83.6096
83.6096
83.6102
83.6105
83.611
83.6112
83.6116
83.6118
83.6123
83.6125
83.6131
83.6136
83.6138
83.614
83.614
83.6144
83.6144
83.6152
83.6144
83.6163
83.6139
83.6182
83.6124
83.6209
83.6105
83.6235
83.6087
83.6263
83.6065
83.6292
83.6042
83.6323
83.6015
83.6359
83.5982
83.6402
83.5937
83.6457
83.589
83.6504
83.5852
83.6507
83.5909
83.6456
83.5955
83.6406
83.6049
83.6362
83.6051
83.6374
83.6059
83.6407
83.597
83.6514
83.5933
83.6599
83.5772
83.6738
83.5739
83.6872
83.5699
83.701
83.5613
83.6999
83.5578
83.6934
83.5664
83.6811
83.5675
83.6714
83.5724
83.6525
83.5809
83.6463
83.5909
83.6415
83.6188
83.7767
83.5022
81.5584
86.2479
87.8398
88.2017
43.6171
66.4506
77.023
78.3969
78.7773
77.6836
75.6489
73.8516
72.1204
70.803
69.6549
68.836
68.144
67.6554
67.2741
66.9742
66.7731
66.6346
66.5491
66.5005
66.4874
66.5044
66.5433
66.5951
66.6431
66.661
66.6645
66.6632
66.6616
66.66
66.6594
66.6587
66.6587
66.6584
66.6586
66.6584
66.6587
66.6585
66.6586
66.6584
66.6583
66.658
66.6578
66.6577
66.6575
66.6573
66.657
66.6568
66.6564
66.6569
66.6555
66.6574
66.6541
66.6592
66.6511
66.6638
66.6405
66.6365
66.5653
67.4981
67.9891
66.8407
65.6527
64.8093
64.1734
63.7782
63.488
63.306
63.1735
63.0769
63.0421
62.9917
62.9448
62.9103
62.9197
62.8855
62.8839
62.8902
62.9279
62.9054
62.907
62.9074
62.9595
62.9548
62.9579
62.9589
62.9962
62.9806
62.9779
62.9725
63.0066
62.9876
62.9835
62.9766
63.0088
62.9894
62.9838
62.977
63.0091
62.9898
62.984
62.9773
63.0094
62.9903
62.9843
62.9777
63.0098
62.9908
62.9849
62.9784
63.0105
62.9916
62.9857
62.9793
63.0112
62.9924
62.9866
62.9802
63.0123
62.9934
62.9875
62.9812
63.0133
62.9944
62.9885
62.9823
63.0143
62.9955
62.9896
62.9833
63.0154
62.9966
62.9908
62.9844
63.0165
62.9977
62.9919
62.9855
63.0177
62.9986
62.9932
62.9866
63.0191
63.0006
62.9946
62.9871
63.0237
63.0538
63.0677
63.0823
63.0946
63.1037
63.1104
63.1161
63.1208
63.1247
63.1275
63.1297
63.1313
63.1326
63.1337
63.1342
63.1348
63.1363
63.1373
63.1378
63.138
63.1381
63.1377
63.1378
63.1378
63.138
63.1383
63.1387
63.1391
63.1396
63.1397
63.1401
63.1404
63.1408
63.1411
63.1415
63.1419
63.1422
63.1426
63.143
63.1433
63.1436
63.1438
63.1442
63.1444
63.1448
63.145
63.1452
63.1455
63.146
63.1464
63.1468
63.1471
63.1475
63.1478
63.1481
63.1482
63.1486
63.1489
63.1493
63.1495
63.1499
63.15
63.1502
63.1506
63.151
63.1513
63.1516
63.1519
63.1523
63.1524
63.1527
63.1528
63.1532
63.1534
63.1537
63.1539
63.1542
63.1543
63.1546
63.1548
63.1551
63.1555
63.1557
63.1558
63.1558
63.1562
63.1561
63.1568
63.1562
63.1577
63.1559
63.159
63.1549
63.1608
63.1537
63.1625
63.1523
63.1646
63.1506
63.1668
63.1488
63.1691
63.1467
63.1718
63.1442
63.1751
63.1407
63.1793
63.1367
63.1837
63.1327
63.1852
63.1348
63.1818
63.1413
63.174
63.1493
63.1717
63.1474
63.1752
63.1465
63.178
63.1415
63.1831
63.141
63.1893
63.1287
63.1979
63.1237
63.2081
63.1198
63.2214
63.1148
63.2245
63.1097
63.2222
63.1128
63.2144
63.1175
63.2013
63.1282
63.1835
63.1331
63.1765
63.1418
63.1713
63.1708
63.287
63.087
60.8808
63.8058
65.3641
66.0125
24.1387
42.1816
54.8701
60.3735
63.1016
63.0308
62.8056
62.0027
60.791
59.6708
58.5733
57.7004
56.9202
56.3285
55.8323
55.4329
55.1243
54.8709
54.6807
54.5271
54.4129
54.3283
54.2607
54.1955
54.1062
53.992
53.8744
53.7633
53.6627
53.573
53.4944
53.4255
53.3659
53.3142
53.27
53.2319
53.1995
53.1717
53.1479
53.1278
53.1103
53.0957
53.0827
53.0722
53.0627
53.0552
53.0479
53.0423
53.0366
53.033
53.0283
53.0271
53.0217
53.0239
53.0148
53.0243
53.0017
52.9959
52.8913
53.6933
54.3703
53.7538
52.8847
52.1596
51.5507
51.1294
50.7987
50.5744
50.4031
50.2826
50.2147
50.1549
50.097
50.0569
50.0439
50.0101
49.998
50.0009
50.0217
50.0084
50.005
50.0067
50.0395
50.042
50.0457
50.0516
50.0745
50.0693
50.0671
50.0678
50.0873
50.0788
50.0747
50.0737
50.0913
50.0819
50.0764
50.075
50.0923
50.0827
50.0769
50.0754
50.0927
50.0831
50.0772
50.0757
50.093
50.0834
50.0776
50.0761
50.0934
50.0839
50.0782
50.0767
50.094
50.0845
50.0788
50.0774
50.0947
50.0852
50.0796
50.0782
50.0955
50.086
50.0804
50.0789
50.0964
50.0869
50.0813
50.0798
50.0972
50.0878
50.0821
50.0806
50.098
50.0885
50.083
50.0816
50.0989
50.0893
50.0838
50.0823
50.0999
50.0906
50.0853
50.0829
50.102
50.1153
50.1214
50.1307
50.14
50.1479
50.1542
50.1597
50.1646
50.1688
50.1721
50.1749
50.1771
50.1789
50.1804
50.1814
50.1824
50.1842
50.1854
50.1859
50.1863
50.1865
50.1862
50.1862
50.1863
50.1865
50.1868
50.1872
50.1875
50.1879
50.1882
50.1885
50.1888
50.1892
50.1894
50.1898
50.1901
50.1905
50.1907
50.1911
50.1913
50.1916
50.1918
50.192
50.1922
50.1926
50.1927
50.1929
50.1932
50.1936
50.1939
50.1942
50.1945
50.1948
50.195
50.1952
50.1954
50.1957
50.1959
50.1962
50.1964
50.1967
50.1967
50.197
50.1972
50.1975
50.1978
50.1981
50.1983
50.1986
50.1987
50.1989
50.1991
50.1994
50.1995
50.1998
50.1999
50.2001
50.2002
50.2005
50.2005
50.2007
50.2009
50.2011
50.2013
50.2013
50.2017
50.2016
50.2022
50.2016
50.2028
50.2015
50.2037
50.2009
50.2049
50.2002
50.2061
50.1993
50.2074
50.1982
50.2089
50.1969
50.2106
50.1955
50.2124
50.1938
50.2146
50.1913
50.2176
50.1884
50.221
50.185
50.2228
50.1851
50.221
50.191
50.214
50.1964
50.2127
50.1946
50.2169
50.193
50.2182
50.1915
50.2203
50.192
50.2244
50.1834
50.2294
50.179
50.2364
50.1757
50.2471
50.1732
50.252
50.1687
50.2518
50.1685
50.2477
50.1735
50.2357
50.1833
50.2229
50.1852
50.2162
50.1916
50.2119
50.2171
50.3048
50.031
48.1216
49.9137
51.1722
51.8785
13.491
25.5399
36.5826
44.8108
50.156
51.8885
52.6028
52.5112
52.2342
51.6611
50.8689
50.128
49.3946
48.7845
48.2366
47.7812
47.3994
47.0657
46.7953
46.5585
46.3581
46.1841
46.0175
45.8344
45.6005
45.3683
45.1481
44.9449
44.7611
44.5967
44.4513
44.3235
44.2123
44.1157
44.0324
43.9608
43.8993
43.8469
43.8018
43.7637
43.7307
43.703
43.6787
43.6587
43.6407
43.6265
43.613
43.6024
43.5921
43.5847
43.5771
43.5729
43.5658
43.565
43.5558
43.5612
43.5416
43.5325
43.4259
44.0987
44.7798
44.4993
43.895
43.3121
42.7704
42.3622
42.0194
41.7751
41.5783
41.4376
41.3446
41.2717
41.2021
41.1543
41.1265
41.0898
41.069
41.0655
41.0749
41.0642
41.0572
41.058
41.0784
41.0825
41.0864
41.0934
41.1091
41.1081
41.1067
41.1097
41.1223
41.1186
41.1153
41.1165
41.1275
41.1225
41.118
41.1185
41.129
41.1237
41.1188
41.1191
41.1295
41.124
41.1191
41.1193
41.1297
41.1242
41.1194
41.1195
41.13
41.1245
41.1198
41.1199
41.1304
41.125
41.1203
41.1204
41.1309
41.1255
41.1209
41.1211
41.1316
41.1261
41.1215
41.1217
41.1323
41.1268
41.1222
41.1224
41.1329
41.1276
41.1228
41.123
41.1336
41.1282
41.1235
41.1238
41.1342
41.1288
41.124
41.1242
41.135
41.1296
41.1255
41.1251
41.136
41.1417
41.1431
41.1482
41.1545
41.1606
41.1659
41.1708
41.1753
41.1796
41.1831
41.186
41.1885
41.1907
41.1924
41.1939
41.1951
41.1969
41.1982
41.1989
41.1995
41.1998
41.1997
41.1998
41.1999
41.2002
41.2005
41.2008
41.2012
41.2016
41.2018
41.2021
41.2024
41.2028
41.203
41.2034
41.2036
41.2039
41.2041
41.2045
41.2047
41.2049
41.2051
41.2053
41.2055
41.2058
41.2059
41.2061
41.2063
41.2067
41.2069
41.2071
41.2073
41.2076
41.2078
41.208
41.2081
41.2084
41.2085
41.2088
41.2089
41.2092
41.2092
41.2094
41.2097
41.2099
41.2101
41.2104
41.2106
41.2108
41.2109
41.2111
41.2112
41.2115
41.2116
41.2118
41.2119
41.2121
41.2122
41.2124
41.2124
41.2125
41.2126
41.2127
41.2129
41.213
41.2133
41.2132
41.2137
41.2133
41.2142
41.2133
41.2149
41.213
41.2157
41.2125
41.2165
41.2119
41.2174
41.2112
41.2185
41.2104
41.2195
41.2094
41.2207
41.2083
41.2222
41.2066
41.2242
41.2046
41.2267
41.202
41.2283
41.2015
41.2271
41.2058
41.2224
41.2091
41.2214
41.208
41.2248
41.2066
41.2255
41.2065
41.2262
41.2073
41.2289
41.2012
41.232
41.1979
41.2365
41.1956
41.2444
41.1946
41.2494
41.1912
41.2499
41.1902
41.2477
41.1946
41.239
41.2008
41.2306
41.2013
41.2247
41.2057
41.2213
41.2269
41.2926
40.9388
39.4015
40.5059
41.4516
42.0956
7.41599
15.3265
22.9098
30.8829
37.904
41.9635
44.1653
44.8122
44.9832
44.8989
44.6745
44.286
43.7597
43.2537
42.7472
42.292
41.8842
41.5167
41.1945
40.8965
40.6221
40.3612
40.0889
39.7793
39.4213
39.091
38.7862
38.5072
38.2546
38.0281
37.8271
37.6501
37.4956
37.3612
37.2451
37.145
37.0591
36.9856
36.9225
36.8689
36.8226
36.7837
36.7497
36.7215
36.6964
36.6762
36.6575
36.6426
36.6285
36.6177
36.6077
36.6008
36.5922
36.589
36.5797
36.5815
36.5648
36.5535
36.4622
37.0153
37.6323
37.5477
37.1457
36.6994
36.2415
35.8691
35.5381
35.2903
35.0805
34.9268
34.8153
34.7305
34.651
34.595
34.5562
34.5155
34.4877
34.4769
34.4774
34.4662
34.4563
34.4545
34.4663
34.4696
34.473
34.4791
34.4906
34.4914
34.4907
34.4939
34.5029
34.5015
34.4991
34.5007
34.5084
34.5058
34.5024
34.5032
34.5103
34.5072
34.5034
34.504
34.5109
34.5075
34.5037
34.5041
34.5111
34.5077
34.5038
34.5042
34.5112
34.5079
34.5041
34.5044
34.5115
34.5082
34.5045
34.5049
34.5119
34.5086
34.505
34.5054
34.5124
34.5091
34.5054
34.5059
34.513
34.5097
34.506
34.5064
34.5135
34.5103
34.5066
34.5069
34.514
34.5108
34.5071
34.5076
34.5144
34.5112
34.5075
34.5079
34.5152
34.5119
34.5088
34.5089
34.5156
34.5181
34.5171
34.5192
34.523
34.5273
34.5313
34.5354
34.5394
34.5432
34.5467
34.5497
34.5522
34.5545
34.5565
34.5582
34.5597
34.5613
34.5626
34.5635
34.5642
34.5647
34.5647
34.565
34.5652
34.5655
34.5658
34.5661
34.5664
34.5668
34.5671
34.5674
34.5676
34.568
34.5682
34.5686
34.5688
34.569
34.5692
34.5695
34.5697
34.5699
34.57
34.5702
34.5704
34.5707
34.5708
34.571
34.5712
34.5715
34.5717
34.5719
34.572
34.5723
34.5725
34.5727
34.5728
34.5729
34.5731
34.5733
34.5734
34.5736
34.5737
34.5738
34.574
34.5743
34.5744
34.5746
34.5748
34.575
34.5751
34.5753
34.5754
34.5756
34.5757
34.5759
34.5759
34.5761
34.5762
34.5763
34.5763
34.5763
34.5764
34.5765
34.5767
34.5768
34.577
34.577
34.5774
34.5772
34.5778
34.5772
34.5783
34.577
34.5789
34.5767
34.5795
34.5763
34.5802
34.5758
34.5809
34.5753
34.5816
34.5746
34.5824
34.5738
34.5834
34.5727
34.5848
34.5713
34.5865
34.5695
34.5877
34.5689
34.587
34.5717
34.5841
34.5737
34.5831
34.5732
34.5855
34.5725
34.5861
34.5726
34.5862
34.5733
34.5881
34.5688
34.59
34.5664
34.5929
34.5649
34.5988
34.5648
34.6029
34.5627
34.6036
34.5617
34.6026
34.565
34.5971
34.5682
34.5916
34.5683
34.5865
34.5712
34.5839
34.5884
34.6365
34.2568
33.034
33.7208
34.4056
34.9436
4.38624
8.90459
14.135
19.9724
26.5712
32.147
35.9988
37.9727
38.9093
39.1986
39.2349
39.1605
39.0014
38.7431
38.3895
38.015
37.6395
37.2818
36.9388
36.6013
36.2631
35.9135
35.5294
35.1042
34.6736
34.2733
33.9043
33.5661
33.2595
32.9841
32.7395
32.5239
32.3354
32.1714
32.0295
31.9072
31.802
31.712
31.6346
31.5689
31.5121
31.4643
31.4226
31.3878
31.3571
31.332
31.3094
31.2909
31.2739
31.2604
31.2484
31.2393
31.2297
31.2244
31.2151
31.2142
31.1997
31.1876
31.1169
31.566
32.0936
32.1149
31.8581
31.529
31.1562
30.8309
30.5268
30.2879
30.0769
29.9176
29.7936
29.6999
29.6133
29.5502
29.5026
29.4577
29.4243
29.4068
29.3997
29.3862
29.3737
29.369
29.3742
29.3754
29.3776
29.3821
29.3906
29.3917
29.3915
29.3944
29.4008
29.4003
29.3988
29.4005
29.4059
29.4044
29.4021
29.403
29.4079
29.4059
29.4033
29.4039
29.4086
29.4063
29.4035
29.404
29.4087
29.4065
29.4036
29.404
29.4088
29.4066
29.4038
29.4042
29.409
29.4068
29.4041
29.4046
29.4093
29.4071
29.4045
29.405
29.4098
29.4075
29.4048
29.4054
29.4102
29.408
29.4053
29.4058
29.4107
29.4085
29.4058
29.4062
29.411
29.4089
29.4062
29.4068
29.4114
29.4092
29.4065
29.407
29.4121
29.4098
29.4077
29.408
29.4122
29.4132
29.4113
29.4116
29.4134
29.4161
29.419
29.4221
29.4254
29.4287
29.4319
29.4348
29.4372
29.4395
29.4415
29.4433
29.4449
29.4464
29.4477
29.4487
29.4495
29.4501
29.4503
29.4506
29.4509
29.4513
29.4516
29.4519
29.4522
29.4526
29.4529
29.4532
29.4534
29.4537
29.454
29.4543
29.4545
29.4547
29.4549
29.4552
29.4554
29.4556
29.4557
29.4558
29.456
29.4563
29.4564
29.4565
29.4567
29.457
29.4572
29.4573
29.4574
29.4576
29.4578
29.458
29.4581
29.4582
29.4583
29.4585
29.4586
29.4588
29.4589
29.459
29.4591
29.4593
29.4595
29.4596
29.4598
29.46
29.4601
29.4602
29.4603
29.4605
29.4606
29.4607
29.4608
29.4609
29.461
29.4611
29.4611
29.4611
29.4612
29.4612
29.4614
29.4615
29.4617
29.4617
29.462
29.4619
29.4624
29.4619
29.4628
29.4618
29.4632
29.4616
29.4637
29.4614
29.4642
29.4611
29.4647
29.4607
29.4652
29.4602
29.4658
29.4596
29.4665
29.4588
29.4675
29.4579
29.4686
29.4566
29.4695
29.4561
29.4691
29.4577
29.4673
29.4591
29.4665
29.459
29.468
29.4587
29.4685
29.4589
29.4685
29.4593
29.4698
29.4559
29.4711
29.4542
29.4731
29.4533
29.4774
29.4536
29.4806
29.4524
29.4814
29.4518
29.481
29.4539
29.4779
29.4555
29.4741
29.4554
29.4699
29.4573
29.4677
29.471
29.5052
29.1612
28.1764
28.6034
29.0886
29.5152
2.95919
5.4013
8.56119
12.7413
17.5871
22.9582
27.747
31.0898
33.1388
34.1421
34.6117
34.7455
34.7448
34.6705
34.5538
34.3582
34.0899
33.7863
33.4553
33.1027
32.713
32.2819
31.8055
31.3156
30.856
30.4142
30.0019
29.6222
29.2772
28.9672
28.6919
28.4493
28.2371
28.0526
27.8929
27.7552
27.6367
27.5351
27.4479
27.3736
27.3096
27.2554
27.2083
27.1688
27.1343
27.1056
27.0803
27.0591
27.0403
27.0249
27.0113
27.0007
26.9903
26.9835
26.9743
26.9714
26.9589
26.9469
26.8961
27.2565
27.6904
27.7605
27.6012
27.3654
27.0704
26.7953
26.5258
26.3038
26.1014
25.9429
25.813
25.7136
25.6232
25.5546
25.5001
25.4514
25.4136
25.3904
25.3767
25.3601
25.3453
25.3376
25.3374
25.3359
25.3366
25.3393
25.3451
25.3456
25.3457
25.3479
25.3526
25.3522
25.3513
25.3529
25.3567
25.3556
25.3542
25.3552
25.3586
25.3571
25.3554
25.3561
25.3593
25.3575
25.3556
25.3562
25.3594
25.3576
25.3557
25.3562
25.3594
25.3577
25.3559
25.3563
25.3595
25.3578
25.3561
25.3566
25.3598
25.3581
25.3563
25.3569
25.3602
25.3584
25.3566
25.3573
25.3606
25.3589
25.3571
25.3576
25.361
25.3593
25.3575
25.358
25.3613
25.3596
25.3579
25.3585
25.3616
25.3599
25.3581
25.3587
25.3622
25.3604
25.3591
25.3596
25.3622
25.3626
25.3605
25.3599
25.3605
25.362
25.3638
25.366
25.3685
25.3713
25.3741
25.3767
25.379
25.3811
25.383
25.3848
25.3864
25.3878
25.3891
25.3901
25.3909
25.3916
25.392
25.3923
25.3927
25.3931
25.3935
25.3937
25.394
25.3944
25.3947
25.395
25.3952
25.3955
25.3957
25.396
25.3963
25.3965
25.3966
25.3968
25.397
25.3972
25.3973
25.3974
25.3976
25.3979
25.398
25.3981
25.3982
25.3985
25.3987
25.3988
25.3989
25.3991
25.3992
25.3994
25.3995
25.3996
25.3997
25.3998
25.4
25.4002
25.4002
25.4003
25.4004
25.4006
25.4007
25.4009
25.401
25.4012
25.4012
25.4014
25.4015
25.4016
25.4017
25.4018
25.4019
25.402
25.4021
25.4022
25.4022
25.4022
25.4022
25.4023
25.4024
25.4025
25.4026
25.4027
25.4029
25.4028
25.4032
25.4029
25.4036
25.4029
25.404
25.4028
25.4043
25.4026
25.4047
25.4024
25.4051
25.4021
25.4055
25.4018
25.4059
25.4014
25.4064
25.4008
25.4071
25.4001
25.4079
25.3993
25.4086
25.3989
25.4084
25.3998
25.4073
25.4008
25.4065
25.4008
25.4075
25.4009
25.4078
25.401
25.4079
25.4012
25.4089
25.3986
25.4098
25.3974
25.4112
25.3969
25.4145
25.3973
25.4169
25.3966
25.4177
25.3964
25.4177
25.3977
25.4159
25.3984
25.4132
25.3983
25.4098
25.3995
25.4081
25.4102
25.4339
25.1469
24.3577
24.622
24.9612
25.2884
2.13578
3.61679
5.3928
8.10736
11.5899
15.6331
20.0703
24.1027
27.1615
29.0981
30.2658
30.8174
31.0766
31.1317
31.1069
31.0074
30.8548
30.6479
30.3683
30.0288
29.6162
29.1427
28.6368
28.1469
27.6774
27.2171
26.7817
26.3786
26.0117
25.6824
25.3901
25.1328
24.908
24.7125
24.5433
24.3973
24.2716
24.1638
24.0712
23.992
23.9241
23.8662
23.8162
23.7739
23.7373
23.7064
23.6797
23.6569
23.6372
23.6206
23.6062
23.5947
23.5839
23.5761
23.5671
23.5629
23.552
23.5408
23.5066
23.7911
24.1366
24.2202
24.1229
23.9557
23.7264
23.4992
23.2668
23.0664
22.8789
22.7262
22.5968
22.4949
22.4032
22.3309
22.2715
22.22
22.1788
22.1505
22.1314
22.1119
22.0948
22.084
22.0795
22.0753
22.0741
22.0748
22.0782
22.0779
22.0778
22.0792
22.0824
22.082
22.0816
22.0826
22.0854
22.0846
22.0838
22.0846
22.087
22.0859
22.0849
22.0854
22.0877
22.0864
22.0852
22.0856
22.0879
22.0865
22.0852
22.0855
22.0879
22.0866
22.0853
22.0857
22.088
22.0867
22.0856
22.0859
22.0882
22.0869
22.0858
22.0862
22.0885
22.0872
22.0861
22.0865
22.0889
22.0876
22.0864
22.0868
22.0892
22.088
22.0868
22.0872
22.0895
22.0883
22.0872
22.0876
22.0899
22.0886
22.0875
22.0879
22.0904
22.089
22.0883
22.0887
22.0903
22.0907
22.0889
22.088
22.0879
22.0885
22.0895
22.0909
22.0928
22.095
22.0972
22.0994
22.1014
22.1034
22.1052
22.1068
22.1083
22.1096
22.1109
22.1119
22.1127
22.1134
22.1138
22.1143
22.1147
22.1152
22.1155
22.1157
22.116
22.1164
22.1167
22.1169
22.1171
22.1174
22.1177
22.118
22.1182
22.1183
22.1185
22.1187
22.1189
22.1191
22.1191
22.1193
22.1194
22.1197
22.1198
22.1199
22.12
22.1202
22.1204
22.1205
22.1206
22.1208
22.1209
22.1211
22.1212
22.1212
22.1213
22.1215
22.1216
22.1217
22.1218
22.1219
22.122
22.1222
22.1223
22.1224
22.1225
22.1227
22.1228
22.1229
22.123
22.1231
22.1232
22.1233
22.1234
22.1235
22.1235
22.1236
22.1236
22.1236
22.1236
22.1237
22.1238
22.1239
22.124
22.1241
22.1243
22.1242
22.1245
22.1243
22.1248
22.1243
22.1251
22.1243
22.1254
22.1242
22.1257
22.124
22.126
22.1238
22.1263
22.1236
22.1267
22.1233
22.1271
22.1229
22.1276
22.1224
22.1282
22.1218
22.1286
22.1215
22.1286
22.122
22.1279
22.1228
22.1272
22.1229
22.1279
22.1231
22.1281
22.1232
22.1283
22.1233
22.129
22.1213
22.1296
22.1205
22.1307
22.1202
22.1333
22.1207
22.135
22.1203
22.1358
22.1203
22.136
22.1211
22.1351
22.1213
22.133
22.1212
22.1304
22.122
22.129
22.1302
22.1461
21.9126
21.298
21.4625
21.6986
21.9446
1.57957
2.62529
3.73024
5.33089
7.74411
10.6699
14.0133
17.7017
21.1392
23.8689
25.7824
26.9556
27.6542
27.9761
28.1075
28.0896
27.9815
27.7985
27.5362
27.2083
26.8073
26.3616
25.8954
25.4301
24.9641
24.5039
24.0645
23.656
23.2843
22.9511
22.6559
22.3964
22.1697
21.9726
21.802
21.6546
21.5276
21.4185
21.3248
21.2445
21.1756
21.1167
21.066
21.0227
20.9856
20.954
20.9271
20.9037
20.8838
20.8667
20.8521
20.8402
20.8294
20.8212
20.8125
20.8076
20.7982
20.7881
20.7661
20.9854
21.2513
21.3278
21.2665
21.1465
20.9696
20.7845
20.588
20.4112
20.2419
20.0985
19.9738
19.8725
19.7815
19.7073
19.6448
19.5915
19.5478
19.5152
19.4918
19.4697
19.4506
19.4368
19.4289
19.4223
19.4191
19.4175
19.4189
19.4178
19.4173
19.4175
19.4196
19.4192
19.4189
19.4193
19.4213
19.4208
19.4204
19.4207
19.4226
19.4219
19.4213
19.4215
19.4232
19.4223
19.4216
19.4216
19.4234
19.4225
19.4217
19.4217
19.4234
19.4226
19.4218
19.4218
19.4235
19.4227
19.422
19.422
19.4237
19.4229
19.4222
19.4223
19.424
19.4231
19.4225
19.4226
19.4244
19.4235
19.4228
19.4229
19.4247
19.4239
19.4232
19.4232
19.425
19.4242
19.4236
19.4236
19.4254
19.4245
19.4239
19.4239
19.4257
19.4248
19.4245
19.4246
19.4257
19.4262
19.425
19.4241
19.4237
19.4237
19.4241
19.4249
19.4262
19.4278
19.4296
19.4313
19.433
19.4347
19.4363
19.4378
19.4391
19.4403
19.4415
19.4425
19.4433
19.4439
19.4444
19.4449
19.4454
19.4458
19.4461
19.4463
19.4466
19.447
19.4473
19.4475
19.4477
19.448
19.4482
19.4485
19.4487
19.4488
19.449
19.4492
19.4494
19.4495
19.4496
19.4497
19.4499
19.4501
19.4502
19.4503
19.4504
19.4506
19.4508
19.4509
19.4509
19.4511
19.4513
19.4514
19.4515
19.4515
19.4516
19.4518
19.4519
19.452
19.452
19.4521
19.4523
19.4524
19.4525
19.4526
19.4527
19.4529
19.453
19.453
19.4531
19.4533
19.4534
19.4534
19.4535
19.4536
19.4537
19.4537
19.4537
19.4537
19.4538
19.4538
19.4539
19.454
19.4541
19.4542
19.4543
19.4543
19.4546
19.4544
19.4548
19.4545
19.4551
19.4545
19.4553
19.4544
19.4556
19.4543
19.4558
19.4542
19.4561
19.4541
19.4564
19.4539
19.4567
19.4536
19.4571
19.4532
19.4575
19.4528
19.4579
19.4526
19.4579
19.4529
19.4574
19.4535
19.4569
19.4536
19.4573
19.4538
19.4575
19.454
19.4577
19.454
19.4582
19.4525
19.4588
19.452
19.4596
19.4519
19.4616
19.4523
19.4629
19.4521
19.4636
19.4522
19.4639
19.4527
19.4634
19.4527
19.4618
19.4526
19.4598
19.4531
19.4587
19.4594
19.4696
19.2859
18.8254
18.9306
19.0964
19.2801
1.19495
2.03814
2.79851
3.81462
5.31208
7.46222
9.89582
12.6964
15.746
18.6835
21.1365
22.9579
24.1765
24.9116
25.327
25.4897
25.4768
25.3325
25.0868
24.7675
24.3827
23.9637
23.5263
23.0767
22.6236
22.1762
21.7482
21.3508
20.9902
20.668
20.383
20.1326
19.9139
19.7236
19.5586
19.4158
19.2927
19.1866
19.0954
19.017
18.9497
18.892
18.8423
18.7998
18.7634
18.7323
18.7059
18.6829
18.6635
18.6466
18.6323
18.6205
18.61
18.6017
18.5936
18.5883
18.5802
18.5714
18.5575
18.7204
18.9168
18.9748
18.9312
18.8415
18.7041
18.5541
18.3899
18.2362
18.0861
17.9539
17.8362
17.7376
17.6492
17.5746
17.5103
17.456
17.4108
17.375
17.3479
17.3235
17.3029
17.2866
17.2758
17.2672
17.2621
17.2585
17.2577
17.2558