/*--------------------------------*- C++ -*----------------------------------*\
| =========                 |                                                 |
| \\      /  F ield         | foam-extend: Open Source CFD                    |
|  \\    /   O peration     | Version:     3.2                                |
|   \\  /    A nd           | Web:         http://www.foam-extend.org         |
|    \\/     M anipulation  | For copyright notice see file Copyright         |
\*---------------------------------------------------------------------------*/
FoamFile
{
    version     2.0;
    format      ascii;
    class       volScalarField;
    location    "50";
    object      p;
}
// * * * * * * * * * * * * * * * * * * * * * * * * * * * * * * * * * * * * * //

dimensions      [1 -1 -2 0 0 0 0];

internalField   nonuniform List<scalar> 
5400
(
1288.76
1254.01
1264.47
1252.03
1253.9
1247.93
1247.12
1243.13
1241.73
1238.63
1236.99
1234.41
1232.65
1230.39
1228.54
1226.48
1224.59
1222.59
1220.71
1218.75
1216.81
1214.82
1212.82
1210.75
1208.66
1206.49
1204.26
1201.96
1199.6
1197.19
1194.75
1192.27
1189.77
1187.23
1184.68
1182.11
1179.53
1176.94
1174.33
1171.72
1169.1
1166.47
1163.85
1161.21
1158.58
1155.93
1153.3
1150.64
1148.02
1145.32
1142.75
1139.96
1137.53
1134.53
1132.43
1128.9
1127.62
1122.79
1123.58
1117.88
1127.54
1130.66
1132.21
1131.34
1131.09
1129.07
1128.06
1125.61
1124.16
1121.48
1120.39
1118.93
1117.41
1114.56
1113.31
1111.69
1109.78
1106.98
1105.53
1104.12
1102.06
1099.35
1097.71
1096.32
1094.24
1091.65
1090.05
1088.74
1086.65
1084.11
1082.49
1081.22
1079.12
1076.59
1074.96
1073.7
1071.59
1069.08
1067.45
1066.2
1064.08
1061.57
1059.94
1058.69
1056.57
1054.06
1052.42
1051.17
1049.06
1046.55
1044.91
1043.66
1041.54
1039.04
1037.4
1036.15
1034.03
1031.52
1029.88
1028.63
1026.51
1024.01
1022.37
1021.12
1019
1016.49
1014.85
1013.6
1011.48
1008.97
1007.33
1006.08
1003.96
1001.45
999.814
998.565
996.445
993.935
992.294
991.044
988.922
986.417
984.77
983.525
981.4
978.894
977.227
975.868
974.356
972.87
971.402
969.938
968.481
967.021
965.568
964.113
962.665
961.215
959.772
958.325
956.884
955.439
954
952.555
951.116
949.674
948.239
946.799
945.362
943.916
942.476
941.031
939.591
938.146
936.707
935.262
933.823
932.378
930.939
929.494
928.054
926.609
925.169
923.724
922.284
920.839
919.399
917.953
916.512
915.066
913.625
912.178
910.736
909.29
907.848
906.401
904.96
903.514
902.073
900.627
899.185
897.739
896.297
894.85
893.407
891.96
890.517
889.07
887.626
886.179
884.736
883.289
881.847
880.4
878.957
877.51
876.067
874.62
873.177
871.729
870.285
868.838
867.394
865.946
864.502
863.056
861.614
860.174
858.737
857.307
855.875
854.454
853.014
851.602
850.147
848.754
847.271
845.913
844.386
843.079
841.49
840.252
838.587
837.43
835.677
834.612
832.761
831.8
829.838
828.994
826.906
826.199
823.961
823.417
821.001
820.645
818.039
817.861
815.094
815.035
812.197
812.162
809.335
809.254
806.524
806.322
803.695
803.411
800.843
800.52
797.933
797.729
794.944
795.011
791.836
792.32
788.756
789.63
785.701
786.963
782.688
784.221
779.715
781.424
776.839
778.564
774.015
775.657
771.235
772.64
768.629
769.412
766.254
765.898
764.268
759.601
753.839
720.977
735.78
721.599
1272.42
1237.8
1248.21
1235.75
1237.62
1231.65
1230.83
1226.84
1225.44
1222.35
1220.71
1218.13
1216.36
1214.1
1212.25
1210.19
1208.3
1206.31
1204.42
1202.47
1200.53
1198.53
1196.53
1194.47
1192.38
1190.21
1187.97
1185.67
1183.32
1180.91
1178.47
1175.99
1173.48
1170.95
1168.4
1165.83
1163.25
1160.65
1158.05
1155.43
1152.82
1150.19
1147.56
1144.92
1142.29
1139.64
1137.01
1134.35
1131.73
1129.04
1126.47
1123.68
1121.25
1118.25
1116.14
1112.62
1111.34
1106.51
1107.31
1101.62
1111.25
1114.36
1115.91
1115.05
1114.8
1112.78
1111.77
1109.32
1107.87
1105.19
1104.1
1102.63
1101.12
1098.27
1097.01
1095.39
1093.48
1090.69
1089.24
1087.83
1085.76
1083.06
1081.42
1080.03
1077.94
1075.36
1073.76
1072.45
1070.36
1067.82
1066.2
1064.92
1062.82
1060.3
1058.67
1057.41
1055.3
1052.79
1051.16
1049.9
1047.79
1045.28
1043.65
1042.39
1040.27
1037.77
1036.13
1034.88
1032.76
1030.26
1028.62
1027.36
1025.25
1022.75
1021.11
1019.85
1017.73
1015.23
1013.59
1012.33
1010.22
1007.72
1006.08
1004.82
1002.7
1000.2
998.559
997.302
995.186
992.684
991.042
989.785
987.669
985.166
983.524
982.268
980.151
977.647
976.004
974.748
972.628
970.129
968.479
967.228
965.106
962.605
960.937
959.574
958.064
956.578
955.11
953.645
952.189
950.728
949.275
947.82
946.373
944.923
943.48
942.033
940.592
939.147
937.708
936.263
934.823
933.382
931.947
930.506
929.069
927.624
926.183
924.739
923.299
921.854
920.415
918.97
917.53
916.086
914.646
913.202
911.762
910.317
908.876
907.432
905.992
904.547
903.106
901.661
900.22
898.774
897.332
895.886
894.444
892.998
891.556
890.109
888.667
887.221
885.78
884.334
882.893
881.447
880.005
878.558
877.115
875.667
874.225
872.777
871.334
869.886
868.444
866.997
865.554
864.107
862.665
861.218
859.775
858.328
856.884
855.436
853.993
852.546
851.102
849.654
848.21
846.763
845.321
843.881
842.444
841.015
839.583
838.161
836.722
835.309
833.855
832.461
830.979
829.62
828.094
826.787
825.198
823.96
822.295
821.137
819.385
818.32
816.469
815.508
813.546
812.702
810.614
809.907
807.669
807.124
804.709
804.352
801.747
801.568
798.802
798.743
795.905
795.869
793.043
792.961
790.232
790.03
787.403
787.118
784.551
784.227
781.641
781.437
778.651
778.718
775.544
776.027
772.464
773.337
769.409
770.67
766.396
767.928
763.424
765.131
760.547
762.271
757.723
759.364
754.944
756.346
752.338
753.118
749.963
749.605
747.976
743.263
737.548
704.731
719.498
705.316
1255.93
1221.62
1231.98
1219.48
1221.35
1215.37
1214.55
1210.56
1209.16
1206.06
1204.42
1201.84
1200.08
1197.82
1195.97
1193.91
1192.02
1190.02
1188.14
1186.18
1184.24
1182.25
1180.25
1178.18
1176.09
1173.92
1171.69
1169.38
1167.03
1164.62
1162.18
1159.7
1157.2
1154.66
1152.11
1149.54
1146.96
1144.37
1141.76
1139.15
1136.53
1133.9
1131.28
1128.64
1126.01
1123.36
1120.73
1118.07
1115.45
1112.75
1110.18
1107.4
1104.96
1101.96
1099.86
1096.33
1095.06
1090.22
1091.04
1085.36
1094.96
1098.05
1099.6
1098.74
1098.48
1096.47
1095.46
1093.01
1091.56
1088.89
1087.79
1086.31
1084.8
1081.96
1080.7
1079.08
1077.17
1074.38
1072.93
1071.51
1069.45
1066.76
1065.11
1063.71
1061.63
1059.05
1057.45
1056.13
1054.05
1051.52
1049.89
1048.6
1046.51
1044
1042.36
1041.09
1038.99
1036.49
1034.85
1033.58
1031.47
1028.98
1027.34
1026.07
1023.96
1021.47
1019.82
1018.56
1016.45
1013.95
1012.31
1011.05
1008.93
1006.44
1004.8
1003.53
1001.42
998.927
997.282
996.017
993.904
991.411
989.767
988.502
986.389
983.895
982.25
980.984
978.872
976.378
974.733
973.467
971.354
968.86
967.215
965.951
963.836
961.341
959.694
958.43
956.313
953.823
952.17
950.911
948.791
946.299
944.627
943.261
941.752
940.266
938.798
937.334
935.877
934.417
932.963
931.508
930.061
928.611
927.168
925.721
924.28
922.835
921.396
919.951
918.512
917.07
915.635
914.194
912.758
911.312
909.872
908.427
906.987
905.542
904.103
902.658
901.219
899.774
898.335
896.89
895.45
894.005
892.565
891.12
889.68
888.235
886.795
885.349
883.908
882.462
881.02
879.574
878.132
876.686
875.244
873.797
872.356
870.91
869.469
868.023
866.581
865.135
863.693
862.246
860.803
859.356
857.913
856.466
855.023
853.575
852.132
850.685
849.243
847.796
846.353
844.906
843.463
842.016
840.573
839.125
837.681
836.234
834.79
833.342
831.898
830.452
829.01
827.57
826.133
824.703
823.271
821.85
820.41
818.998
817.543
816.15
814.668
813.309
811.782
810.475
808.886
807.648
805.983
804.826
803.074
802.008
800.157
799.196
797.234
796.39
794.302
793.595
791.358
790.813
788.398
788.041
785.435
785.256
782.491
782.431
779.593
779.557
776.732
776.649
773.92
773.718
771.091
770.806
768.24
767.915
765.329
765.125
762.34
762.406
759.233
759.716
756.153
757.026
753.098
754.359
750.085
751.616
747.113
748.819
744.236
745.959
741.412
743.052
738.634
740.032
736.03
736.804
733.653
733.292
731.667
726.885
721.222
688.512
703.225
689.035
1239.45
1205.46
1215.74
1203.23
1205.08
1199.1
1198.28
1194.28
1192.88
1189.78
1188.14
1185.56
1183.8
1181.54
1179.68
1177.62
1175.73
1173.74
1171.85
1169.9
1167.96
1165.96
1163.96
1161.9
1159.8
1157.64
1155.4
1153.1
1150.74
1148.34
1145.9
1143.42
1140.91
1138.38
1135.83
1133.26
1130.68
1128.08
1125.48
1122.86
1120.25
1117.62
1114.99
1112.35
1109.72
1107.07
1104.44
1101.78
1099.16
1096.47
1093.9
1091.11
1088.68
1085.68
1083.57
1080.05
1078.77
1073.94
1074.78
1069.1
1078.66
1081.71
1083.26
1082.4
1082.14
1080.12
1079.11
1076.66
1075.21
1072.55
1071.45
1069.96
1068.45
1065.62
1064.36
1062.72
1060.82
1058.04
1056.58
1055.15
1053.1
1050.42
1048.77
1047.36
1045.28
1042.72
1041.1
1039.78
1037.7
1035.18
1033.55
1032.25
1030.16
1027.66
1026.02
1024.74
1022.64
1020.15
1018.51
1017.23
1015.12
1012.64
1010.99
1009.72
1007.61
1005.13
1003.48
1002.21
1000.1
997.617
995.969
994.694
992.586
990.103
988.455
987.18
985.072
982.589
980.94
979.665
977.556
975.073
973.425
972.15
970.041
967.557
965.908
964.632
962.524
960.04
958.391
957.115
955.006
952.522
950.873
949.599
947.488
945.003
943.353
942.078
939.965
937.485
935.829
934.559
932.443
929.96
928.285
926.914
925.408
923.921
922.453
920.989
919.532
918.072
916.619
915.164
913.717
912.267
910.824
909.377
907.936
906.491
905.052
903.607
902.167
900.726
899.291
897.85
896.413
894.968
893.527
892.083
890.643
889.198
887.759
886.314
884.875
883.43
881.99
880.546
879.106
877.661
876.221
874.776
873.336
871.891
870.451
869.005
867.564
866.118
864.676
863.23
861.788
860.342
858.9
857.453
856.012
854.566
853.124
851.679
850.237
848.791
847.349
845.902
844.459
843.012
841.569
840.121
838.678
837.231
835.788
834.341
832.899
831.452
830.009
828.562
827.119
825.672
824.229
822.781
821.337
819.89
818.446
816.998
815.554
814.108
812.666
811.226
809.789
808.359
806.927
805.506
804.066
802.654
801.199
799.806
798.324
796.965
795.438
794.131
792.543
791.304
789.639
788.482
786.73
785.664
783.814
782.852
780.891
780.046
777.959
777.251
775.014
774.468
772.054
771.696
769.092
768.912
766.147
766.087
763.25
763.213
760.388
760.304
757.577
757.374
754.748
754.462
751.896
751.571
748.986
748.78
745.997
746.062
742.89
743.371
739.81
740.681
736.755
738.014
733.742
735.272
730.769
732.474
727.893
729.615
725.068
726.706
722.294
723.684
719.689
720.457
717.312
716.946
715.32
710.484
704.884
672.298
686.956
672.752
1222.9
1189.35
1199.53
1186.97
1188.81
1182.83
1182
1178.01
1176.6
1173.5
1171.86
1169.28
1167.51
1165.25
1163.4
1161.34
1159.45
1157.45
1155.57
1153.61
1151.67
1149.68
1147.68
1145.61
1143.52
1141.35
1139.12
1136.81
1134.46
1132.05
1129.61
1127.13
1124.63
1122.09
1119.54
1116.97
1114.39
1111.8
1109.19
1106.58
1103.96
1101.33
1098.71
1096.07
1093.44
1090.79
1088.16
1085.5
1082.88
1080.18
1077.61
1074.83
1072.39
1069.39
1067.29
1063.76
1062.49
1057.65
1058.51
1052.84
1062.33
1065.35
1066.88
1066.02
1065.76
1063.74
1062.72
1060.27
1058.82
1056.16
1055.06
1053.56
1052.05
1049.24
1047.97
1046.32
1044.42
1041.66
1040.19
1038.75
1036.7
1034.03
1032.38
1030.96
1028.89
1026.33
1024.72
1023.38
1021.3
1018.79
1017.16
1015.85
1013.76
1011.27
1009.64
1008.34
1006.24
1003.77
1002.12
1000.83
998.731
996.257
994.608
993.321
991.219
988.746
987.095
985.81
983.706
981.234
979.582
978.297
976.192
973.72
972.068
970.782
968.678
966.206
964.554
963.268
961.163
958.69
957.038
955.752
953.647
951.174
949.521
948.235
946.13
943.657
942.004
940.718
938.613
936.139
934.486
933.201
931.095
928.62
926.966
925.681
923.572
921.102
919.442
918.161
916.05
913.577
911.898
910.523
909.018
907.532
906.064
904.6
903.143
901.683
900.23
898.775
897.328
895.878
894.435
892.988
891.547
890.102
888.663
887.218
885.778
884.337
882.902
881.461
880.024
878.579
877.138
875.694
874.254
872.809
871.37
869.925
868.486
867.041
865.601
864.157
862.717
861.272
859.832
858.387
856.947
855.502
854.062
852.616
851.175
849.729
848.288
846.841
845.4
843.953
842.511
841.065
839.623
838.177
836.736
835.29
833.849
832.402
830.96
829.513
828.07
826.623
825.18
823.733
822.29
820.842
819.399
817.953
816.51
815.063
813.62
812.173
810.731
809.284
807.84
806.392
804.949
803.501
802.058
800.61
799.166
797.719
796.277
794.837
793.4
791.971
790.539
789.117
787.678
786.265
784.811
783.417
781.935
780.576
779.05
777.743
776.154
774.916
773.251
772.093
770.342
769.275
767.426
766.463
764.503
763.657
761.571
760.862
758.626
758.079
755.667
755.307
752.704
752.523
749.76
749.698
746.862
746.825
744.002
743.914
741.19
740.985
738.359
738.074
735.508
735.182
732.599
732.391
729.61
729.672
726.503
726.981
723.424
724.291
720.369
721.624
717.355
718.882
714.382
716.085
711.505
713.226
708.681
710.315
705.909
707.292
703.304
704.066
700.926
700.555
698.926
694.046
688.561
656.058
670.687
656.471
1206.42
1173.15
1183.34
1170.7
1172.54
1166.56
1165.73
1161.73
1160.33
1157.23
1155.58
1153
1151.23
1148.97
1147.12
1145.06
1143.16
1141.17
1139.28
1137.33
1135.39
1133.39
1131.39
1129.33
1127.23
1125.07
1122.83
1120.53
1118.17
1115.77
1113.33
1110.85
1108.34
1105.81
1103.26
1100.69
1098.11
1095.51
1092.91
1090.29
1087.68
1085.05
1082.42
1079.78
1077.15
1074.5
1071.87
1069.21
1066.59
1063.9
1061.33
1058.54
1056.11
1053.11
1051.01
1047.48
1046.2
1041.37
1042.25
1036.56
1045.98
1048.94
1050.46
1049.58
1049.32
1047.29
1046.27
1043.82
1042.37
1039.72
1038.61
1037.1
1035.6
1032.79
1031.52
1029.86
1027.97
1025.22
1023.75
1022.3
1020.25
1017.59
1015.93
1014.5
1012.44
1009.89
1008.27
1006.92
1004.85
1002.35
1000.72
999.396
997.312
994.832
993.189
991.883
989.791
987.324
985.674
984.374
982.278
979.815
978.162
976.864
974.766
972.304
970.649
969.353
967.253
964.792
963.136
961.839
959.74
957.278
955.622
954.325
952.225
949.764
948.108
946.81
944.71
942.248
940.592
939.295
937.195
934.732
933.076
931.778
929.678
927.215
925.559
924.261
922.16
919.698
918.04
916.744
914.642
912.178
910.52
909.224
907.119
904.66
902.996
901.704
899.597
897.135
895.452
894.072
892.57
891.083
889.616
888.152
886.695
885.235
883.782
882.327
880.88
879.43
877.987
876.54
875.099
873.654
872.215
870.77
869.331
867.89
866.454
865.014
863.577
862.131
860.691
859.246
857.807
856.362
854.923
853.478
852.038
850.594
849.154
847.71
846.27
844.825
843.385
841.94
840.5
839.055
837.615
836.169
834.728
833.282
831.84
830.394
828.953
827.506
826.064
824.618
823.176
821.73
820.289
818.843
817.402
815.955
814.514
813.066
811.624
810.176
808.733
807.286
805.843
804.395
802.952
801.506
800.063
798.616
797.174
795.727
794.284
792.837
791.393
789.946
788.502
787.055
785.611
784.163
782.719
781.273
779.831
778.391
776.954
775.524
774.092
772.671
771.231
769.819
768.364
766.971
765.489
764.13
762.604
761.296
759.708
758.469
756.805
755.646
753.896
752.829
750.98
750.016
748.057
747.21
745.125
744.415
742.181
741.632
739.221
738.86
736.259
736.075
733.314
733.251
730.416
730.377
727.557
727.466
724.745
724.538
721.913
721.628
719.062
718.736
716.153
715.944
713.165
713.224
710.059
710.533
706.98
707.843
703.926
705.175
700.912
702.434
697.938
699.638
695.06
696.778
692.237
693.864
689.467
690.842
686.861
687.616
684.483
684.105
682.473
677.56
672.209
639.822
654.418
640.189
1190
1156.9
1167.15
1154.42
1156.26
1150.28
1149.46
1145.46
1144.05
1140.95
1139.3
1136.72
1134.95
1132.69
1130.84
1128.77
1126.88
1124.89
1123
1121.04
1119.1
1117.11
1115.11
1113.04
1110.95
1108.78
1106.54
1104.24
1101.89
1099.48
1097.04
1094.56
1092.06
1089.52
1086.97
1084.4
1081.82
1079.23
1076.62
1074.01
1071.39
1068.77
1066.14
1063.5
1060.87
1058.22
1055.59
1052.93
1050.31
1047.61
1045.04
1042.26
1039.82
1036.82
1034.72
1031.19
1029.92
1025.08
1025.99
1020.27
1029.59
1032.48
1033.98
1033.09
1032.81
1030.78
1029.76
1027.31
1025.85
1023.2
1022.09
1020.57
1019.06
1016.27
1015
1013.33
1011.43
1008.7
1007.22
1005.76
1003.72
1001.07
999.414
997.969
995.909
993.376
991.752
990.39
988.325
985.837
984.199
982.866
980.786
978.317
976.67
975.352
973.265
970.809
969.154
967.843
965.752
963.3
961.642
960.334
958.24
955.789
954.13
952.822
950.727
948.277
946.617
945.309
943.214
940.763
939.103
937.795
935.699
933.249
931.588
930.28
928.184
925.733
924.073
922.765
920.669
918.217
916.556
915.247
913.152
910.7
909.039
907.73
905.634
903.183
901.521
900.214
898.117
895.664
894.001
892.694
890.594
888.146
886.477
885.174
883.072
880.62
878.933
877.549
876.048
874.563
873.095
871.631
870.175
868.715
867.262
865.807
864.36
862.91
861.467
860.02
858.58
857.134
855.695
854.251
852.811
851.37
849.935
848.494
847.057
845.612
844.171
842.727
841.287
839.842
838.403
836.958
835.519
834.074
832.635
831.19
829.75
828.305
826.865
825.421
823.981
822.536
821.095
819.65
818.209
816.763
815.321
813.875
812.433
810.987
809.545
808.099
806.657
805.211
803.77
802.324
800.883
799.437
797.995
796.547
795.105
793.657
792.215
790.767
789.324
787.877
786.434
784.987
783.545
782.098
780.655
779.208
777.765
776.318
774.875
773.427
771.983
770.536
769.092
767.644
766.2
764.754
763.312
761.872
760.435
759.006
757.574
756.152
754.713
753.301
751.846
750.453
748.971
747.611
746.085
744.778
743.19
741.951
740.287
739.128
737.378
736.31
734.462
733.497
731.539
730.691
728.608
727.896
725.664
725.113
722.704
722.34
719.742
719.556
716.798
716.732
713.899
713.857
711.041
710.947
708.229
708.019
705.396
705.109
702.545
702.217
699.637
699.425
696.648
696.705
693.544
694.013
690.465
691.323
687.411
688.655
684.397
685.913
681.424
683.117
678.545
680.257
675.723
677.342
672.953
674.32
670.346
671.095
667.968
667.584
665.947
661.017
655.834
623.585
638.148
623.907
1173.57
1140.68
1150.92
1138.15
1139.99
1134.01
1133.18
1129.18
1127.78
1124.67
1123.03
1120.44
1118.67
1116.41
1114.56
1112.49
1110.6
1108.61
1106.72
1104.76
1102.82
1100.82
1098.82
1096.76
1094.66
1092.5
1090.26
1087.96
1085.6
1083.2
1080.76
1078.28
1075.77
1073.24
1070.69
1068.12
1065.54
1062.94
1060.34
1057.73
1055.11
1052.48
1049.85
1047.21
1044.58
1041.93
1039.3
1036.64
1034.02
1031.33
1028.76
1025.97
1023.54
1020.54
1018.44
1014.91
1013.63
1008.8
1009.72
1003.97
1013.16
1015.97
1017.43
1016.52
1016.23
1014.19
1013.16
1010.7
1009.24
1006.6
1005.49
1003.95
1002.45
999.661
998.383
996.705
994.817
992.093
990.611
989.139
987.103
984.471
982.806
981.352
979.295
976.774
975.145
973.773
971.712
969.235
967.593
966.249
964.173
961.715
960.064
958.735
956.653
954.207
952.549
951.226
949.139
946.698
945.036
943.717
941.627
939.187
937.524
936.205
934.115
931.675
930.011
928.692
926.601
924.162
922.497
921.178
919.087
916.647
914.983
913.663
911.572
909.132
907.467
906.148
904.057
901.616
899.951
898.631
896.54
894.099
892.434
891.114
889.023
886.582
884.916
883.598
881.505
879.063
877.396
876.077
873.982
871.545
869.872
868.558
866.46
864.019
862.328
860.939
859.442
857.956
856.489
855.026
853.569
852.11
850.657
849.202
847.755
846.305
844.862
843.416
841.975
840.53
839.091
837.646
836.207
834.765
833.33
831.89
830.453
829.007
827.567
826.122
824.683
823.238
821.799
820.354
818.915
817.47
816.03
814.586
813.146
811.701
810.261
808.816
807.377
805.932
804.491
803.046
801.605
800.159
798.717
797.271
795.83
794.383
792.941
791.495
790.053
788.607
787.166
785.72
784.279
782.833
781.391
779.944
778.501
777.054
775.611
774.164
772.721
771.273
769.83
768.384
766.941
765.494
764.052
762.605
761.162
759.715
758.272
756.824
755.38
753.933
752.489
751.041
749.597
748.151
746.709
745.269
743.832
742.403
740.971
739.549
738.11
736.698
735.243
733.85
732.368
731.008
729.483
728.175
726.587
725.348
723.685
722.525
720.776
719.707
717.86
716.894
714.937
714.088
712.006
711.292
709.062
708.509
706.103
705.737
703.141
702.952
700.197
700.128
697.299
697.253
694.44
694.343
691.628
691.415
688.795
688.506
685.943
685.614
683.036
682.821
680.047
680.101
676.944
677.41
673.866
674.719
670.812
672.049
667.798
669.308
664.825
666.511
661.946
663.65
659.124
660.736
656.354
657.713
653.747
654.489
651.368
650.979
649.338
644.408
639.429
607.344
621.878
607.626
1157.11
1124.46
1134.65
1121.87
1123.72
1117.72
1116.9
1112.9
1111.5
1108.4
1106.75
1104.17
1102.4
1100.13
1098.28
1096.21
1094.32
1092.33
1090.44
1088.48
1086.54
1084.54
1082.54
1080.48
1078.38
1076.21
1073.98
1071.67
1069.32
1066.91
1064.47
1061.99
1059.49
1056.95
1054.4
1051.83
1049.25
1046.66
1044.06
1041.44
1038.82
1036.2
1033.57
1030.93
1028.3
1025.65
1023.02
1020.36
1017.74
1015.04
1012.47
1009.69
1007.25
1004.25
1002.15
998.625
997.35
992.517
993.44
987.655
996.695
999.393
1000.81
999.867
999.554
997.503
996.461
993.999
992.532
989.893
988.778
987.224
985.723
982.949
981.666
979.979
978.096
975.384
973.897
972.415
970.384
967.764
966.097
964.633
962.581
960.071
958.438
957.056
954.999
952.532
950.885
949.531
947.46
945.012
943.357
942.018
939.94
937.504
935.841
934.509
932.426
929.995
928.329
926.999
924.914
922.484
920.817
919.488
917.402
914.972
913.304
911.975
909.888
907.459
905.79
904.461
902.374
899.945
898.276
896.946
894.859
892.43
890.761
889.431
887.344
884.913
883.244
881.914
879.827
877.397
875.727
874.397
872.31
869.879
868.209
866.881
864.792
862.361
860.69
859.361
857.27
854.843
853.166
851.842
849.748
847.317
845.623
844.23
842.734
841.25
839.783
838.32
836.864
835.404
833.952
832.497
831.05
829.601
828.158
826.711
825.27
823.825
822.386
820.942
819.502
818.061
816.626
815.185
813.749
812.303
810.863
809.418
807.979
806.534
805.095
803.65
802.211
800.766
799.327
797.882
796.442
794.997
793.558
792.113
790.673
789.228
787.788
786.343
784.902
783.455
782.014
780.568
779.126
777.68
776.238
774.791
773.35
771.904
770.463
769.017
767.576
766.13
764.688
763.241
761.798
760.351
758.908
757.461
756.018
754.57
753.127
751.681
750.238
748.792
747.349
745.902
744.459
743.012
741.569
740.121
738.678
737.23
735.787
734.339
732.895
731.449
730.007
728.567
727.13
725.7
724.269
722.847
721.408
719.995
718.541
717.148
715.666
714.306
712.781
711.473
709.885
708.646
706.983
705.823
704.074
703.005
701.158
700.192
698.236
697.386
695.305
694.59
692.361
691.807
689.402
689.034
686.441
686.249
683.497
683.424
680.599
680.55
677.741
677.64
674.928
674.712
672.096
671.803
669.243
668.912
666.335
666.119
663.347
663.399
660.245
660.707
657.168
658.016
654.114
655.345
651.1
652.603
648.128
649.806
645.248
646.945
642.426
644.03
639.656
641.008
637.049
637.784
634.669
634.274
632.632
627.723
622.99
591.099
605.608
591.344
1140.68
1108.21
1118.39
1105.59
1107.44
1101.44
1100.62
1096.62
1095.22
1092.12
1090.47
1087.89
1086.12
1083.85
1082
1079.93
1078.04
1076.04
1074.16
1072.2
1070.26
1068.26
1066.26
1064.19
1062.1
1059.93
1057.69
1055.39
1053.03
1050.63
1048.19
1045.71
1043.2
1040.67
1038.12
1035.55
1032.97
1030.37
1027.77
1025.16
1022.54
1019.91
1017.29
1014.65
1012.01
1009.37
1006.73
1004.07
1001.45
998.76
996.189
993.403
990.97
987.968
985.867
982.34
981.066
976.234
977.161
971.324
980.177
982.739
984.091
983.114
982.775
980.707
979.653
977.183
975.709
973.073
971.953
970.383
968.884
966.118
964.831
963.135
961.258
958.558
957.065
955.574
953.549
950.941
949.271
947.798
945.751
943.251
941.614
940.222
938.169
935.712
934.062
932.697
930.631
928.193
926.533
925.184
923.11
920.685
919.018
917.675
915.597
913.176
911.506
910.166
908.085
905.665
903.993
902.654
900.573
898.153
896.48
895.141
893.059
890.64
888.967
887.627
885.545
883.126
881.453
880.113
878.03
875.611
873.938
872.598
870.515
868.094
866.421
865.081
862.999
860.578
858.905
857.564
855.482
853.061
851.387
850.048
847.964
845.542
843.867
842.528
840.441
838.025
836.344
835.009
832.92
830.498
828.801
827.404
825.912
824.428
822.962
821.499
820.043
818.584
817.132
815.677
814.231
812.781
811.338
809.892
808.451
807.006
805.567
804.123
802.683
801.242
799.807
798.367
796.93
795.484
794.044
792.6
791.16
789.716
788.276
786.831
785.392
783.948
782.508
781.064
779.624
778.179
776.74
775.295
773.855
772.41
770.97
769.525
768.084
766.637
765.196
763.75
762.309
760.862
759.42
757.974
756.533
755.087
753.646
752.2
750.759
749.313
747.871
746.424
744.981
743.534
742.091
740.644
739.201
737.753
736.31
734.864
733.422
731.975
730.532
729.085
727.643
726.196
724.752
723.305
721.861
720.414
718.97
717.523
716.079
714.633
713.191
711.751
710.314
708.884
707.453
706.031
704.592
703.18
701.725
700.332
698.85
697.49
695.965
694.657
693.07
691.83
690.168
689.007
687.259
686.189
684.343
683.376
681.421
680.57
678.49
677.774
675.546
674.99
672.588
672.217
669.627
669.432
666.683
666.608
663.785
663.733
660.927
660.823
658.114
657.896
655.282
654.987
652.43
652.096
649.522
649.303
646.534
646.583
643.433
643.891
640.356
641.2
637.303
638.528
634.289
635.786
631.317
632.988
628.437
630.126
625.614
627.211
622.844
624.189
620.237
620.965
617.856
617.456
615.813
610.95
606.511
574.848
589.337
575.062
1124.32
1091.94
1102.11
1089.3
1091.15
1085.15
1084.34
1080.34
1078.94
1075.84
1074.19
1071.61
1069.84
1067.57
1065.72
1063.65
1061.76
1059.76
1057.88
1055.92
1053.98
1051.98
1049.98
1047.91
1045.82
1043.64
1041.41
1039.11
1036.75
1034.35
1031.9
1029.42
1026.92
1024.38
1021.83
1019.26
1016.68
1014.09
1011.49
1008.87
1006.26
1003.63
1001
998.361
995.73
993.081
990.449
987.79
985.169
982.475
979.905
977.118
974.685
971.683
969.583
966.055
964.782
959.951
960.877
954.972
963.603
966.001
967.273
966.249
965.877
963.789
962.719
960.239
958.757
956.122
954.995
953.41
951.911
949.153
947.862
946.158
944.287
941.598
940.1
938.601
936.581
933.986
932.313
930.831
928.79
926.3
924.658
923.257
921.209
918.762
917.107
915.733
913.671
911.243
909.578
908.22
906.15
903.734
902.063
900.711
898.637
896.226
894.551
893.202
891.125
888.715
887.039
885.69
883.613
881.203
879.526
878.178
876.1
873.69
872.013
870.664
868.586
866.176
864.499
863.149
861.071
858.661
856.984
855.635
853.556
851.145
849.468
848.118
846.04
843.629
841.951
840.602
838.523
836.112
834.433
833.085
831.006
828.593
826.914
825.566
823.483
821.076
819.391
818.047
815.962
813.55
811.849
810.449
808.96
807.477
806.011
804.549
803.094
801.635
800.183
798.729
797.283
795.833
794.391
792.944
791.503
790.059
788.62
787.175
785.736
784.295
782.86
781.42
779.983
778.537
777.097
775.653
774.213
772.769
771.329
769.885
768.446
767.001
765.562
764.117
762.678
761.233
759.793
758.349
756.909
755.464
754.024
752.579
751.138
749.692
748.25
746.805
745.363
743.917
742.475
741.028
739.587
738.142
736.7
735.254
733.813
732.368
730.926
729.479
728.036
726.589
725.147
723.7
722.257
720.809
719.366
717.919
716.477
715.03
713.588
712.141
710.699
709.252
707.808
706.361
704.917
703.47
702.027
700.579
699.135
697.689
696.247
694.807
693.37
691.941
690.509
689.088
687.648
686.236
684.782
683.388
681.907
680.547
679.022
677.714
676.127
674.887
673.225
672.064
670.316
669.246
667.401
666.433
664.479
663.627
661.548
660.83
658.604
658.047
655.646
655.274
652.685
652.488
649.742
649.664
646.844
646.789
643.987
643.879
641.174
640.953
638.341
638.043
635.489
635.153
632.581
632.36
629.593
629.641
626.493
626.948
623.418
624.257
620.364
621.584
617.35
618.841
614.378
616.043
611.498
613.18
608.674
610.264
605.905
607.242
603.298
604.019
600.916
600.511
598.869
594.08
589.989
558.591
573.065
558.78
1108.01
1075.65
1085.83
1073.01
1074.86
1068.86
1068.06
1064.06
1062.66
1059.55
1057.91
1055.33
1053.55
1051.29
1049.44
1047.37
1045.48
1043.48
1041.6
1039.64
1037.7
1035.7
1033.7
1031.63
1029.53
1027.36
1025.13
1022.82
1020.47
1018.06
1015.62
1013.14
1010.63
1008.1
1005.55
1002.98
1000.4
997.804
995.202
992.587
989.971
987.342
984.717
982.076
979.445
976.797
974.165
971.505
968.885
966.191
963.62
960.834
958.401
955.399
953.298
949.771
948.498
943.667
944.591
938.597
946.967
949.169
950.342
949.259
948.847
946.732
945.644
943.151
941.66
939.023
937.889
936.289
934.789
932.038
930.742
929.033
927.167
924.488
922.986
921.479
919.466
916.881
915.207
913.719
911.682
909.202
907.556
906.147
904.102
901.664
900.005
898.623
896.564
894.145
892.477
891.11
889.044
886.636
884.962
883.601
881.531
879.128
877.45
876.091
874.019
871.617
869.938
868.58
866.507
864.105
862.425
861.068
858.994
856.592
854.912
853.554
851.481
849.079
847.398
846.04
843.966
841.564
839.883
838.525
836.451
834.048
832.368
831.009
828.935
826.532
824.851
823.493
821.418
819.015
817.333
815.977
813.901
811.497
809.814
808.457
806.379
803.98
802.291
800.939
798.858
796.454
794.751
793.348
791.862
790.381
788.916
787.455
786
784.542
783.09
781.637
780.191
778.741
777.298
775.852
774.411
772.967
771.528
770.084
768.644
767.203
765.769
764.328
762.891
761.446
760.006
758.562
757.122
755.678
754.238
752.794
751.355
749.911
748.471
747.027
745.587
744.143
742.703
741.258
739.818
738.374
736.934
735.489
734.048
732.602
731.161
729.715
728.274
726.827
725.385
723.939
722.498
721.052
719.611
718.165
716.725
715.279
713.837
712.39
710.947
709.5
708.058
706.611
705.168
703.72
702.278
700.831
699.389
697.942
696.5
695.053
693.611
692.164
690.72
689.273
687.83
686.383
684.939
683.491
682.048
680.602
679.16
677.72
676.283
674.854
673.422
672.001
670.562
669.149
667.695
666.302
664.82
663.461
661.935
660.627
659.041
657.8
656.139
654.977
653.23
652.159
650.315
649.346
647.393
646.54
644.462
643.744
641.519
640.96
638.561
638.187
635.6
635.401
632.658
632.577
629.76
629.702
626.903
626.792
624.09
623.866
621.257
620.957
618.405
618.067
615.497
615.274
612.509
612.555
609.411
609.863
606.336
607.171
603.282
604.497
600.269
601.754
597.297
598.954
594.415
596.091
591.591
593.175
588.822
590.153
586.215
586.93
583.833
583.422
581.784
577.1
573.417
542.328
556.792
542.498
1091.71
1059.36
1069.55
1056.71
1058.56
1052.57
1051.77
1047.77
1046.38
1043.27
1041.63
1039.04
1037.27
1035.01
1033.16
1031.09
1029.2
1027.2
1025.32
1023.36
1021.42
1019.42
1017.42
1015.35
1013.25
1011.08
1008.84
1006.54
1004.18
1001.78
999.334
996.854
994.349
991.816
989.266
986.696
984.115
981.519
978.917
976.303
973.686
971.058
968.432
965.791
963.161
960.512
957.88
955.221
952.6
949.906
947.336
944.549
942.116
939.114
937.014
933.486
932.213
927.384
928.303
922.193
930.263
932.233
933.286
932.13
931.67
929.523
928.412
925.904
924.401
921.762
920.619
919.003
917.501
914.756
913.456
911.741
909.882
907.212
905.705
904.192
902.185
899.612
897.937
896.443
894.41
891.939
890.29
888.873
886.833
884.402
882.739
881.35
879.295
876.883
875.211
873.837
871.775
869.375