/*--------------------------------*- C++ -*----------------------------------*\
| =========                 |                                                 |
| \\      /  F ield         | foam-extend: Open Source CFD                    |
|  \\    /   O peration     | Version:     3.2                                |
|   \\  /    A nd           | Web:         http://www.foam-extend.org         |
|    \\/     M anipulation  | For copyright notice see file Copyright         |
\*---------------------------------------------------------------------------*/
FoamFile
{
    version     2.0;
    format      ascii;
    class       areaScalarField;
    location    "50";
    object      Pa;
}
// * * * * * * * * * * * * * * * * * * * * * * * * * * * * * * * * * * * * * //

dimensions      [0 0 0 0 0 0 0];

internalField   nonuniform List<scalar> 
300
(
0.3
0.3
0.3
0.3
0.3
0.3
0.3
0.3
0.3
0.3
0.3
0.3
0.3
0.3
0.3
0.3
0.3
0.3
0.3
0.3
0.3
0.3
0.3
0.3
0.3
0.3
0.3
0.3
0.3
0.3
0.3
0.3
0.3
0.3
0.3
0.3
0.3
0.3
0.3
0.3
0.3
0.3
0.3
0.3
0.3
0.3
0.3
0.3
0.3
0.3
0.3
0.3
0.3
0.3
0.3
0.3
0.3
0.3
0.3
0.3
0.314781
0.31585
0.324136
0.3208
0.32805
0.322924
0.329914
0.323925
0.330816
0.324399
0.328205
0.31693
0.328714
0.321106
0.330242
0.322473
0.330902
0.323431
0.331205
0.323642
0.331459
0.324054
0.331508
0.323864
0.331432
0.323968
0.331369
0.323744
0.331331
0.323916
0.331317
0.323736
0.331304
0.323908
0.331303
0.323728
0.331297
0.323909
0.3313
0.323732
0.331299
0.323911
0.331302
0.323731
0.331295
0.32391
0.331301
0.32373
0.331293
0.323906
0.331297
0.323726
0.331289
0.3239
0.331292
0.323719
0.331285
0.323895
0.331284
0.323712
0.331278
0.323889
0.331279
0.323704
0.33127
0.323881
0.33127
0.323697
0.331262
0.323871
0.331263
0.323688
0.331253
0.323862
0.331255
0.32368
0.331247
0.323853
0.331243
0.32367
0.331237
0.323848
0.331237
0.323678
0.331221
0.323844
0.332303
0.32455
0.331619
0.323802
0.331168
0.323612
0.331072
0.32355
0.331018
0.323503
0.330979
0.323464
0.330944
0.323436
0.330926
0.323419
0.330911
0.323408
0.3309
0.323389
0.330887
0.323382
0.330883
0.323375
0.330874
0.323368
0.330872
0.323361
0.330865
0.323355
0.330863
0.323349
0.330856
0.323344
0.330853
0.323335
0.330845
0.323332
0.330844
0.323325
0.330838
0.323321
0.330835
0.323312
0.330826
0.323307
0.330825
0.323302
0.330818
0.323295
0.330815
0.323289
0.330808
0.323284
0.330806
0.323278
0.330801
0.323272
0.330796
0.323267
0.330792
0.323262
0.330789
0.323253
0.33078
0.323247
0.33078
0.323245
0.330775
0.323239
0.330771
0.323232
0.330764
0.323226
0.330762
0.323222
0.330756
0.323217
0.330754
0.323211
0.330748
0.323207
0.330743
0.323205
0.330739
0.323205
0.33073
0.323206
0.330713
0.323219
0.330687
0.323249
0.330645
0.323295
0.330581
0.323361
0.330495
0.323451
0.330387
0.323565
0.330251
0.323702
0.330093
0.323865
0.329906
0.324052
0.32969
0.324352
0.329362
0.324653
0.329047
0.325196
0.328678
0.325441
0.328363
0.326005
0.328082
0.326064
0.327857
0.326618
0.327661
0.326513
0.327458
0.327273
0.327319
0.32705
0.326462
0.330624
0.326008
0.33013
0.32518
0.330331
0.324237
0.330759
0.323388
0.331355
0.322558
0.331992
0.321859
0.332554
0.321344
0.333096
0.32043
0.334003
0.31961
0.334753
0.318973
0.335326
0.318388
0.335596
0.3
0.3
0.3
0.3
)
;

boundaryField
{
    inlet
    {
        type            calculated;
        value           uniform 0;
    }
    outlet
    {
        type            calculated;
        value           uniform 0;
    }
    sideWall
    {
        type            empty;
    }
}


// ************************************************************************* //
