/*--------------------------------*- C++ -*----------------------------------*\
| =========                 |                                                 |
| \\      /  F ield         | foam-extend: Open Source CFD                    |
|  \\    /   O peration     | Version:     3.2                                |
|   \\  /    A nd           | Web:         http://www.foam-extend.org         |
|    \\/     M anipulation  | For copyright notice see file Copyright         |
\*---------------------------------------------------------------------------*/
FoamFile
{
    version     2.0;
    format      ascii;
    class       areaScalarField;
    location    "50";
    object      Pc;
}
// * * * * * * * * * * * * * * * * * * * * * * * * * * * * * * * * * * * * * //

dimensions      [0 0 0 0 0 0 0];

internalField   nonuniform List<scalar> 
300
(
0.7
0.7
0.7
0.7
0.7
0.7
0.7
0.7
0.7
0.7
0.7
0.7
0.7
0.7
0.7
0.7
0.7
0.7
0.7
0.7
0.7
0.7
0.7
0.7
0.7
0.7
0.7
0.7
0.7
0.7
0.7
0.7
0.7
0.7
0.7
0.7
0.7
0.7
0.7
0.7
0.7
0.7
0.7
0.7
0.7
0.7
0.7
0.7
0.7
0.7
0.7
0.7
0.7
0.7
0.7
0.7
0.7
0.7
0.7
0.7
0.685219
0.68415
0.675864
0.6792
0.67195
0.677076
0.670086
0.676075
0.669184
0.675601
0.671795
0.68307
0.671286
0.678894
0.669758
0.677527
0.669098
0.676569
0.668795
0.676358
0.668541
0.675946
0.668492
0.676136
0.668568
0.676032
0.668631
0.676256
0.668669
0.676084
0.668683
0.676264
0.668696
0.676092
0.668697
0.676272
0.668703
0.676091
0.6687
0.676268
0.668701
0.676089
0.668698
0.676269
0.668705
0.67609
0.668699
0.67627
0.668707
0.676094
0.668703
0.676274
0.668711
0.6761
0.668708
0.676281
0.668715
0.676105
0.668716
0.676288
0.668722
0.676111
0.668721
0.676296
0.66873
0.676119
0.66873
0.676303
0.668738
0.676129
0.668737
0.676312
0.668747
0.676138
0.668745
0.67632
0.668753
0.676147
0.668757
0.67633
0.668763
0.676152
0.668763
0.676322
0.668779
0.676156
0.667697
0.67545
0.668381
0.676198
0.668832
0.676388
0.668928
0.67645
0.668982
0.676497
0.669021
0.676536
0.669056
0.676564
0.669074
0.676581
0.669089
0.676592
0.6691
0.676611
0.669113
0.676618
0.669117
0.676625
0.669126
0.676632
0.669128
0.676639
0.669135
0.676645
0.669137
0.676651
0.669144
0.676656
0.669147
0.676665
0.669155
0.676668
0.669156
0.676675
0.669162
0.676679
0.669165
0.676688
0.669174
0.676693
0.669175
0.676698
0.669182
0.676705
0.669185
0.676711
0.669192
0.676716
0.669194
0.676722
0.669199
0.676728
0.669204
0.676733
0.669208
0.676738
0.669211
0.676747
0.66922
0.676753
0.66922
0.676755
0.669225
0.676761
0.669229
0.676768
0.669236
0.676774
0.669238
0.676778
0.669244
0.676783
0.669246
0.676789
0.669252
0.676793
0.669257
0.676795
0.669261
0.676795
0.66927
0.676794
0.669287
0.676781
0.669313
0.676751
0.669355
0.676705
0.669419
0.676639
0.669505
0.676549
0.669613
0.676435
0.669749
0.676298
0.669907
0.676135
0.670094
0.675948
0.67031
0.675648
0.670638
0.675347
0.670953
0.674804
0.671322
0.674559
0.671637
0.673995
0.671918
0.673936
0.672143
0.673382
0.672339
0.673487
0.672542
0.672727
0.672681
0.67295
0.673538
0.669376
0.673992
0.66987
0.67482
0.669669
0.675763
0.669241
0.676612
0.668645
0.677442
0.668008
0.678141
0.667446
0.678656
0.666904
0.67957
0.665997
0.68039
0.665247
0.681027
0.664674
0.681612
0.664404
0.7
0.7
0.7
0.7
)
;

boundaryField
{
    inlet
    {
        type            calculated;
        value           uniform 0;
    }
    outlet
    {
        type            calculated;
        value           uniform 0;
    }
    sideWall
    {
        type            empty;
    }
}


// ************************************************************************* //
