/*--------------------------------*- C++ -*----------------------------------*\
| =========                 |                                                 |
| \\      /  F ield         | foam-extend: Open Source CFD                    |
|  \\    /   O peration     | Version:     3.2                                |
|   \\  /    A nd           | Web:         http://www.foam-extend.org         |
|    \\/     M anipulation  | For copyright notice see file Copyright         |
\*---------------------------------------------------------------------------*/
FoamFile
{
    version     2.0;
    format      ascii;
    class       volScalarField;
    location    "50";
    object      pd;
}
// * * * * * * * * * * * * * * * * * * * * * * * * * * * * * * * * * * * * * //

dimensions      [1 -1 -2 0 0 0 0];

internalField   nonuniform List<scalar> 
5400
(
1295.68
1258.49
1266.5
1251.62
1251.05
1242.64
1239.38
1232.95
1229.11
1223.57
1219.49
1214.46
1210.26
1205.55
1201.26
1196.76
1192.42
1187.99
1183.66
1179.26
1174.88
1170.44
1166
1161.49
1156.96
1152.35
1147.67
1142.92
1138.13
1133.28
1128.39
1123.47
1118.52
1113.54
1108.55
1103.54
1098.52
1093.48
1088.43
1083.37
1078.32
1073.24
1068.18
1063.09
1058.02
1052.93
1047.85
1042.75
1037.69
1032.55
1027.54
1022.31
1017.43
1011.99
1007.44
1001.48
997.755
990.482
988.826
978.807
982.154
979.756
977.194
972.867
969.49
964.578
960.806
955.701
951.657
946.414
942.76
938.762
934.75
929.411
925.697
921.679
917.373
912.14
908.228
904.402
899.953
894.844
890.781
886.984
882.494
877.463
873.403
869.666
865.158
860.165
856.087
852.376
847.852
842.878
838.79
835.094
830.562
825.6
821.505
817.816
813.279
808.322
804.223
800.537
795.998
791.042
786.942
783.256
778.717
773.761
769.661
765.975
761.435
756.48
752.379
748.693
744.153
739.198
735.097
731.411
726.871
721.915
717.814
714.128
709.587
704.631
700.53
696.843
692.303
687.347
683.246
679.559
675.019
670.062
665.96
662.276
657.734
652.776
648.673
644.988
640.444
635.492
631.383
627.703
623.156
618.202
614.09
610.32
606.403
602.497
598.602
594.705
590.815
586.921
583.032
579.14
575.254
571.364
567.481
563.593
559.711
555.825
551.945
548.059
544.178
540.296
536.419
532.537
528.658
524.771
520.889
517.003
513.122
509.235
505.355
501.468
497.587
493.701
489.82
485.934
482.053
478.166
474.284
470.398
466.517
462.63
458.748
454.862
450.979
447.092
443.209
439.321
435.438
431.55
427.666
423.778
419.895
416.008
412.125
408.238
404.355
400.467
396.584
392.695
388.811
384.922
381.038
377.149
373.265
369.376
365.491
361.603
357.719
353.831
349.946
346.058
342.174
338.285
334.4
330.51
326.625
322.737
318.851
314.962
311.076
307.188
303.304
299.423
295.544
291.672
287.799
283.936
280.055
276.201
272.304
268.469
264.545
260.744
256.775
253.028
248.995
245.317
241.208
237.611
233.415
229.909
225.614
222.213
217.807
214.523
209.99
206.844
202.161
199.178
194.317
191.522
186.47
183.854
178.643
176.144
170.862
168.386
163.12
160.592
155.425
152.78
147.711
144.983
139.977
137.212
132.18
129.536
124.306
121.948
116.33
114.381
108.372
106.808
100.423
99.2428
92.5174
91.6126
84.6573
83.9192
76.8834
76.1602
69.1632
68.3607
61.4984
60.4561
54.012
52.3444
46.7494
43.961
39.9034
34.9876
33.3829
2.4166
14.7796
-1.84424
1295.62
1258.56
1266.53
1251.62
1251.06
1242.64
1239.38
1232.95
1229.11
1223.57
1219.49
1214.46
1210.26
1205.55
1201.26
1196.76
1192.42
1187.99
1183.66
1179.26
1174.88
1170.44
1166
1161.49
1156.96
1152.35
1147.67
1142.92
1138.13
1133.28
1128.39
1123.47
1118.52
1113.54
1108.55
1103.54
1098.52
1093.48
1088.43
1083.37
1078.32
1073.24
1068.18
1063.09
1058.02
1052.93
1047.85
1042.75
1037.69
1032.55
1027.54
1022.31
1017.43
1011.99
1007.44
1001.48
997.755
990.482
988.832
978.824
982.158
979.75
977.19
972.865
969.489
964.577
960.805
955.701
951.656
946.417
942.763
938.759
934.747
929.415
925.699
921.675
917.371
912.145
908.23
904.398
899.951
894.848
890.783
886.98
882.492
877.467
873.405
869.662
865.156
860.169
856.089
852.372
847.85
842.882
838.792
835.09
830.56
825.604
821.507
817.812
813.277
808.326
804.225
800.533
795.996
791.046
786.944
783.253
778.715
773.765
769.663
765.971
761.433
756.484
752.381
748.689
744.151
739.202
735.099
731.407
726.869
721.919
717.816
714.124
709.586
704.635
700.532
696.839
692.301
687.351
683.248
679.555
675.017
670.066
665.962
662.272
657.732
652.78
648.675
644.985
640.442
635.495
631.385
627.699
623.154
618.206
614.092
610.319
606.403
602.497
598.602
594.705
590.815
586.921
583.032
579.14
575.254
571.364
567.481
563.593
559.711
555.825
551.945
548.059
544.178
540.296
536.419
532.537
528.658
524.771
520.889
517.003
513.122
509.235
505.355
501.468
497.587
493.701
489.82
485.934
482.053
478.166
474.284
470.398
466.517
462.63
458.748
454.862
450.979
447.092
443.209
439.321
435.438
431.55
427.666
423.778
419.895
416.008
412.125
408.238
404.355
400.467
396.584
392.695
388.811
384.922
381.038
377.149
373.265
369.376
365.491
361.603
357.719
353.831
349.946
346.058
342.174
338.285
334.4
330.51
326.625
322.737
318.851
314.962
311.076
307.188
303.304
299.423
295.544
291.672
287.799
283.936
280.055
276.201
272.304
268.469
264.545
260.744
256.775
253.028
248.995
245.317
241.208
237.61
233.415
229.909
225.614
222.213
217.807
214.523
209.99
206.844
202.161
199.178
194.317
191.521
186.47
183.854
178.643
176.144
170.863
168.386
163.12
160.592
155.425
152.78
147.711
144.983
139.977
137.211
132.181
129.536
124.307
121.948
116.33
114.381
108.372
106.808
100.423
99.2423
92.5181
91.612
84.658
83.9185
76.8842
76.1595
69.164
68.3599
61.4998
60.4543
54.0136
52.343
46.7507
43.9599
39.9081
34.9488
33.3735
2.44688
14.7824
-1.84256
1295.42
1258.66
1266.58
1251.65
1251.07
1242.65
1239.39
1232.95
1229.11
1223.57
1219.49
1214.46
1210.26
1205.55
1201.26
1196.76
1192.42
1187.99
1183.66
1179.26
1174.88
1170.44
1166
1161.49
1156.96
1152.35
1147.67
1142.92
1138.12
1133.28
1128.39
1123.47
1118.52
1113.54
1108.55
1103.54
1098.52
1093.48
1088.43
1083.37
1078.32
1073.24
1068.18
1063.09
1058.02
1052.93
1047.85
1042.75
1037.69
1032.55
1027.54
1022.31
1017.43
1011.99
1007.44
1001.48
997.755
990.481
988.845
978.852
982.166
979.743
977.184
972.862
969.486
964.576
960.804
955.7
951.655
946.422
942.766
938.753
934.743
929.421
925.701
921.669
917.368
912.151
908.232
904.392
899.947
894.854
890.786
886.974
882.489
877.473
873.408
869.656
865.153
860.175
856.092
852.366
847.847
842.888
838.795
835.084
830.557
825.61
821.51
817.806
813.274
808.331
804.228
800.527
795.993
791.052
786.947
783.247
778.712
773.771
769.666
765.965
761.431
756.49
752.384
748.683
744.149
739.207
735.102
731.401
726.866
721.924
717.819
714.118
709.583
704.641
700.535
696.833
692.299
687.357
683.251
679.549
675.014
670.072
665.965
662.266
657.729
652.786
648.678
644.979
640.439
635.501
631.388
627.693
623.152
618.212
614.095
610.317
606.403
602.497
598.602
594.705
590.815
586.921
583.032
579.14
575.254
571.364
567.481
563.593
559.711
555.825
551.945
548.059
544.179
540.296
536.419
532.537
528.658
524.771
520.889
517.003
513.122
509.235
505.355
501.468
497.587
493.701
489.82
485.934
482.053
478.166
474.284
470.398
466.517
462.63
458.748
454.862
450.979
447.092
443.209
439.321
435.438
431.55
427.666
423.778
419.895
416.008
412.125
408.238
404.355
400.467
396.584
392.695
388.811
384.922
381.038
377.149
373.265
369.376
365.491
361.603
357.719
353.831
349.946
346.058
342.174
338.285
334.4
330.51
326.625
322.737
318.851
314.962
311.076
307.188
303.304
299.423
295.544
291.672
287.799
283.936
280.055
276.201
272.304
268.469
264.545
260.744
256.775
253.028
248.995
245.317
241.208
237.61
233.415
229.909
225.614
222.213
217.807
214.523
209.991
206.844
202.161
199.178
194.317
191.521
186.47
183.853
178.643
176.143
170.863
168.385
163.121
160.591
155.425
152.78
147.711
144.983
139.977
137.211
132.181
129.536
124.307
121.948
116.33
114.381
108.372
106.808
100.423
99.242
92.5183
91.6117
84.6584
83.918
76.8847
76.159
69.1645
68.3589
61.5019
60.4516
54.0162
52.3406
46.753
43.9577
39.9151
34.8913
33.3346
2.50037
14.7951
-1.83953
1295.23
1258.79
1266.63
1251.68
1251.09
1242.66
1239.4
1232.96
1229.11
1223.57
1219.49
1214.47
1210.26
1205.56
1201.26
1196.76
1192.42
1187.99
1183.66
1179.26
1174.88
1170.44
1166
1161.49
1156.96
1152.34
1147.67
1142.92
1138.12
1133.28
1128.39
1123.47
1118.52
1113.54
1108.55
1103.54
1098.51
1093.48
1088.43
1083.37
1078.32
1073.24
1068.18
1063.09
1058.02
1052.93
1047.85
1042.75
1037.69
1032.55
1027.54
1022.31
1017.43
1011.99
1007.44
1001.48
997.756
990.481
988.86
978.88
982.175
979.737
977.179
972.858
969.483
964.574
960.802
955.699
951.653
946.427
942.77
938.746
934.739
929.427
925.704
921.662
917.364
912.158
908.235
904.385
899.944
894.861
890.789
886.968
882.486
877.48
873.411
869.65
865.15
860.182
856.095
852.36
847.844
842.895
838.798
835.077
830.554
825.617
821.513
817.799
813.271
808.338
804.231
800.52
795.99
791.059
786.95
783.24
778.709
773.778
769.669
765.959
761.427
756.496
752.387
748.676
744.145
739.214
735.105
731.394
726.863
721.931
717.822
714.112
709.58
704.647
700.538
696.826
692.295
687.364
683.254
679.542
675.011
670.079
665.968
662.259
657.726
652.793
648.682
644.972
640.436
635.508
631.391
627.686
623.148
618.218
614.097
610.315
606.403
602.497
598.602
594.705
590.815
586.921
583.032
579.14
575.254
571.364
567.481
563.593
559.711
555.825
551.945
548.059
544.179
540.296
536.419
532.537
528.658
524.771
520.889
517.003
513.122
509.235
505.355
501.468
497.587
493.701
489.82
485.934
482.053
478.166
474.284
470.398
466.517
462.63
458.748
454.862
450.979
447.092
443.209
439.321
435.438
431.55
427.666
423.778
419.895
416.008
412.125
408.238
404.355
400.467
396.584
392.695
388.811
384.922
381.038
377.149
373.265
369.376
365.491
361.603
357.719
353.831
349.946
346.058
342.174
338.285
334.4
330.51
326.625
322.737
318.851
314.962
311.076
307.188
303.304
299.423
295.544
291.672
287.799
283.936
280.055
276.201
272.304
268.469
264.545
260.744
256.775
253.027
248.996
245.317
241.209
237.61
233.415
229.909
225.615
222.212
217.807
214.523
209.991
206.843
202.162
199.177
194.317
191.521
186.47
183.853
178.643
176.143
170.863
168.385
163.121
160.59
155.426
152.779
147.712
144.983
139.977
137.211
132.181
129.535
124.308
121.947
116.331
114.38
108.374
106.807
100.424
99.2411
92.519
91.6111
84.6589
83.9177
76.8851
76.1586
69.1647
68.357
61.5055
60.4484
54.0192
52.3379
46.7556
43.9548
39.9191
34.8412
33.2933
2.55693
14.8123
-1.83738
1294.96
1258.97
1266.71
1251.7
1251.1
1242.67
1239.41
1232.97
1229.12
1223.58
1219.49
1214.47
1210.26
1205.56
1201.26
1196.76
1192.42
1187.99
1183.66
1179.26
1174.88
1170.44
1166
1161.49
1156.95
1152.34
1147.67
1142.92
1138.12
1133.27
1128.39
1123.47
1118.52
1113.54
1108.55
1103.54
1098.51
1093.48
1088.43
1083.37
1078.31
1073.24
1068.18
1063.09
1058.02
1052.93
1047.85
1042.75
1037.69
1032.55
1027.54
1022.31
1017.43
1011.99
1007.44
1001.47
997.756
990.481
988.876
978.905
982.182
979.731
977.173
972.855
969.48
964.572
960.801
955.697
951.652
946.432
942.774
938.738
934.734
929.434
925.707
921.654
917.36
912.166
908.239
904.377
899.94
894.869
890.792
886.96
882.482
877.487
873.415
869.642
865.146
860.189
856.099
852.352
847.841
842.902
838.802
835.07
830.551
825.624
821.517
817.792
813.268
808.345
804.235
800.513
795.987
791.066
786.954
783.232
778.706
773.785
769.673
765.951
761.424
756.504
752.391
748.669
744.142
739.221
735.108
731.387
726.859
721.938
717.825
714.104
709.576
704.655
700.542
696.819
692.292
687.371
683.257
679.535
675.007
670.086
665.972
662.252
657.723
652.8
648.685
644.964
640.433
635.515
631.395
627.679
623.145
618.225
614.101
610.314
606.403
602.497
598.602
594.705
590.815
586.921
583.032
579.14
575.254
571.364
567.481
563.593
559.711
555.825
551.945
548.059
544.179
540.296
536.419
532.537
528.658
524.771
520.889
517.003
513.122
509.235
505.355
501.468
497.587
493.701
489.82
485.934
482.053
478.166
474.284
470.398
466.517
462.63
458.748
454.862
450.979
447.092
443.209
439.321
435.438
431.55
427.666
423.778
419.895
416.008
412.125
408.238
404.355
400.467
396.584
392.695
388.811
384.922
381.038
377.149
373.265
369.376
365.491
361.603
357.719
353.831
349.946
346.058
342.174
338.285
334.4
330.511
326.625
322.737
318.851
314.962
311.076
307.188
303.304
299.423
295.544
291.672
287.799
283.936
280.055
276.201
272.304
268.469
264.545
260.744
256.775
253.027
248.996
245.316
241.209
237.61
233.415
229.908
225.615
222.212
217.808
214.522
209.992
206.843
202.163
199.176
194.318
191.52
186.471
183.852
178.644
176.143
170.863
168.385
163.122
160.589
155.427
152.779
147.712
144.982
139.977
137.21
132.182
129.534
124.309
121.945
116.333
114.378
108.375
106.805
100.426
99.2392
92.5209
91.6095
84.6602
83.917
76.8855
76.1584
69.1657
68.3543
61.5091
60.4449
54.0225
52.3349
46.7584
43.9515
39.9206
34.7923
33.2793
2.58469
14.829
-1.83465
1294.76
1259.05
1266.8
1251.72
1251.11
1242.69
1239.42
1232.98
1229.13
1223.59
1219.5
1214.47
1210.26
1205.56
1201.26
1196.76
1192.42
1187.99
1183.66
1179.26
1174.88
1170.44
1166
1161.49
1156.95
1152.34
1147.66
1142.92
1138.12
1133.27
1128.39
1123.47
1118.52
1113.54
1108.55
1103.54
1098.51
1093.48
1088.43
1083.37
1078.31
1073.24
1068.17
1063.09
1058.02
1052.93
1047.85
1042.75
1037.69
1032.55
1027.54
1022.31
1017.43
1011.99
1007.44
1001.47
997.756
990.481
988.892
978.927
982.19
979.725
977.168
972.852
969.477
964.57
960.798
955.696
951.65
946.438
942.779
938.731
934.73
929.442
925.71
921.646
917.357
912.175
908.242
904.37
899.936
894.876
890.796
886.953
882.479
877.495
873.418
869.635
865.143
860.196
856.102
852.345
847.837
842.909
838.805
835.063
830.547
825.631
821.52
817.784
813.264
808.353
804.238
800.505
795.983
791.073
786.958
783.225
778.702
773.793
769.676
765.944
761.421
756.511
752.394
748.662
744.139
739.229
735.112
731.379
726.856
721.946
717.829
714.097
709.573
704.662
700.545
696.812
692.289
687.378
683.261
679.527
675.004
670.093
665.976
662.244
657.719
652.807
648.689
644.957
640.429
635.523
631.398
627.671
623.142
618.232
614.104
610.312
606.403
602.498
598.602
594.705
590.815
586.921
583.032
579.14
575.254
571.364
567.481
563.593
559.711
555.825
551.945
548.059
544.179
540.296
536.419
532.537
528.658
524.771
520.889
517.003
513.122
509.236
505.355
501.468
497.587
493.701
489.82
485.934
482.053
478.166
474.285
470.398
466.517
462.63
458.748
454.862
450.979
447.092
443.209
439.321
435.438
431.55
427.666
423.778
419.895
416.008
412.125
408.238
404.355
400.467
396.584
392.695
388.811
384.922
381.038
377.149
373.265
369.376
365.491
361.603
357.719
353.831
349.946
346.058
342.174
338.285
334.4
330.511
326.625
322.737
318.851
314.962
311.076
307.188
303.304
299.423
295.544
291.672
287.799
283.936
280.055
276.201
272.304
268.469
264.545
260.744
256.776
253.027
248.996
245.316
241.209
237.61
233.416
229.908
225.616
222.212
217.809
214.522
209.992
206.842
202.164
199.175
194.319
191.519
186.473
183.851
178.645
176.142
170.864
168.383
163.124
160.587
155.429
152.778
147.712
144.982
139.978
137.21
132.183
129.533
124.31
121.944
116.335
114.376
108.378
106.803
100.429
99.2367
92.5232
91.6073
84.6624
83.9154
76.887
76.1571
69.1685
68.3504
61.513
60.4412
54.026
52.3318
46.7614
43.9479
39.9206
34.7457
33.257
2.61688
14.8462
-1.83177
1294.63
1259.09
1266.89
1251.72
1251.12
1242.7
1239.43
1232.99
1229.14
1223.59
1219.51
1214.48
1210.27
1205.56
1201.27
1196.76
1192.43
1187.99
1183.66
1179.26
1174.88
1170.44
1166
1161.49
1156.95
1152.34
1147.66
1142.92
1138.12
1133.27
1128.39
1123.47
1118.52
1113.54
1108.55
1103.54
1098.51
1093.48
1088.43
1083.37
1078.31
1073.24
1068.17
1063.09
1058.02
1052.93
1047.85
1042.75
1037.69
1032.55
1027.54
1022.31
1017.43
1011.99
1007.44
1001.47
997.756
990.483
988.905
978.95
982.196
979.719
977.163
972.849
969.475
964.57
960.796
955.695
951.649
946.443
942.783
938.723
934.725
929.449
925.713
921.639
917.353
912.183
908.245
904.362
899.932
894.884
890.799
886.945
882.475
877.503
873.422
869.627
865.139
860.204
856.106
852.337
847.834
842.917
838.809
835.055
830.544
825.639
821.524
817.776
813.261
808.361
804.242
800.498
795.98
791.081
786.961
783.217
778.699
773.8
769.68
765.936
761.417
756.519
752.398
748.654
744.135
739.236
735.116
731.372
726.852
721.954
717.833
714.089
709.569
704.67
700.549
696.804
692.285
687.386
683.265
679.52
675.001
670.101
665.979
662.236
657.716
652.815
648.692
644.949
640.426
635.53
631.402
627.664
623.138
618.239
614.108
610.31
606.403
602.498
598.602
594.705
590.815
586.921
583.032
579.14
575.254
571.364
567.481
563.593
559.711
555.825
551.945
548.059
544.179
540.296
536.419
532.537
528.658
524.771
520.889
517.003
513.122
509.236
505.355
501.468
497.587
493.701
489.82
485.934
482.053
478.166
474.285
470.398
466.517
462.63
458.748
454.862
450.979
447.092
443.209
439.321
435.438
431.55
427.666
423.778
419.895
416.008
412.125
408.238
404.355
400.467
396.584
392.695
388.811
384.922
381.038
377.149
373.265
369.376
365.491
361.603
357.719
353.831
349.947
346.058
342.174
338.285
334.4
330.511
326.625
322.737
318.851
314.962
311.076
307.188
303.304
299.423
295.544
291.673
287.799
283.936
280.055
276.201
272.304
268.469
264.545
260.744
256.776
253.027
248.996
245.316
241.21
237.609
233.416
229.908
225.616
222.211
217.809
214.521
209.993
206.841
202.165
199.174
194.321
191.518
186.474
183.85
178.647
176.141
170.866
168.382
163.126
160.586
155.43
152.777
147.713
144.982
139.979
137.209
132.185
129.532
124.311
121.942
116.337
114.374
108.38
106.8
100.432
99.2337
92.5263
91.6044
84.6656
83.9128
76.8899
76.1539
69.1722
68.3468
61.5169
60.4376
54.0295
52.3286
46.7644
43.9443
39.9201
34.701
33.2355
2.64827
14.8629
-1.82891
1294.48
1259.15
1266.95
1251.73
1251.13
1242.7
1239.43
1233
1229.15
1223.6
1219.51
1214.49
1210.27
1205.57
1201.27
1196.77
1192.43
1187.99
1183.66
1179.26
1174.88
1170.44
1166
1161.49
1156.95
1152.34
1147.66
1142.92
1138.12
1133.27
1128.39
1123.47
1118.52
1113.54
1108.55
1103.54
1098.51
1093.48
1088.43
1083.37
1078.31
1073.24
1068.17
1063.09
1058.02
1052.93
1047.85
1042.75
1037.69
1032.55
1027.54
1022.31
1017.43
1011.99
1007.44
1001.47
997.757
990.484
988.913
978.976
982.201
979.712
977.158
972.846
969.472
964.568
960.795
955.694
951.646
946.449
942.787
938.716
934.72
929.456
925.716
921.631
917.349
912.191
908.249
904.354
899.928
894.892
890.803
886.938
882.472
877.511
873.425
869.62
865.136
860.211
856.109
852.33
847.83
842.924
838.812
835.047
830.541
825.646
821.527
817.769
813.257
808.368
804.246
800.49
795.977
791.088
786.965
783.21
778.695
773.808
769.683
765.929
761.414
756.526
752.402
748.646
744.132
739.244
735.119
731.364
726.849
721.961
717.836
714.081
709.566
704.677
700.552
696.796
692.282
687.393
683.268
679.512
674.997
670.108
665.983
662.229
657.712
652.822
648.696
644.942
640.423
635.538
631.405
627.656
623.135
618.246
614.111
610.309
606.404
602.498
598.602
594.705
590.815
586.921
583.032
579.14
575.254
571.364
567.481
563.593
559.711
555.825
551.945
548.059
544.179
540.296
536.419
532.537
528.658
524.771
520.889
517.003
513.122
509.236
505.355
501.468
497.587
493.701
489.82
485.934
482.053
478.166
474.285
470.398
466.517
462.63
458.749
454.862
450.979
447.092
443.209
439.321
435.438
431.55
427.667
423.778
419.895
416.008
412.125
408.238
404.355
400.467
396.584
392.695
388.811
384.922
381.038
377.149
373.265
369.376
365.492
361.603
357.719
353.831
349.947
346.058
342.174
338.285
334.4
330.511
326.625
322.737
318.851
314.962
311.076
307.188
303.305
299.423
295.544
291.673
287.799
283.936
280.055
276.201
272.304
268.469
264.545
260.744
256.776
253.027
248.997
245.316
241.21
237.609
233.417
229.907
225.617
222.211
217.81
214.52
209.994
206.84
202.166
199.174
194.322
191.516
186.476
183.848
178.648
176.139
170.867
168.38
163.128
160.584
155.432
152.776
147.714
144.981
139.979
137.208
132.186
129.53
124.313
121.94
116.339
114.372
108.383
106.797
100.435
99.2305
92.5299
91.601
84.6695
83.9093
76.8938
76.1501
69.1762
68.3431
61.5209
60.434
54.0332
52.3256
46.7675
43.9407
39.9198
34.6589
33.2142
2.67794
14.8791
-1.82596
1294.31
1259.21
1266.96
1251.74
1251.14
1242.71
1239.44
1233
1229.15
1223.61
1219.52
1214.49
1210.28
1205.57
1201.28
1196.77
1192.43
1188
1183.67
1179.27
1174.88
1170.44
1166
1161.49
1156.96
1152.34
1147.66
1142.92
1138.12
1133.27
1128.39
1123.47
1118.52
1113.54
1108.55
1103.54
1098.51
1093.48
1088.43
1083.37
1078.31
1073.24
1068.17
1063.09
1058.02
1052.93
1047.85
1042.75
1037.69
1032.55
1027.54
1022.31
1017.43
1011.99
1007.44
1001.47
997.757
990.486
988.917
979.003
982.205
979.706
977.153
972.844
969.47
964.567
960.794
955.694
951.645
946.454
942.791
938.708
934.716
929.463
925.719
921.623
917.345
912.199
908.252
904.347
899.925
894.899
890.806
886.931
882.468
877.518
873.429
869.612
865.133
860.219
856.113
852.322
847.827
842.932
838.816
835.04
830.537
825.654
821.531
817.762
813.254
808.375
804.249
800.483
795.973
791.096
786.968
783.202
778.692
773.815
769.687
765.921
761.411
756.533
752.405
748.639
744.129
739.251
735.123
731.357
726.846
721.968
717.84
714.074
709.563
704.685
700.556
696.789
692.278
687.401
683.272
679.505
674.994
670.116
665.986
662.222
657.709
652.83
648.699
644.935
640.419
635.545
631.409
627.649
623.131
618.253
614.115
610.307
606.404
602.498
598.602
594.705
590.815
586.921
583.032
579.14
575.254
571.364
567.481
563.593
559.711
555.825
551.945
548.059
544.179
540.296
536.419
532.537
528.658
524.771
520.889
517.003
513.122
509.236
505.355
501.469
497.588
493.701
489.82
485.934
482.053
478.166
474.285
470.398
466.517
462.63
458.749
454.862
450.98
447.092
443.209
439.321
435.438
431.55
427.667
423.779
419.896
416.008
412.126
408.238
404.355
400.468
396.584
392.696
388.811
384.923
381.038
377.15
373.265
369.376
365.492
361.603
357.72
353.831
349.947
346.058
342.174
338.285
334.4
330.511
326.626
322.737
318.852
314.962
311.076
307.188
303.305
299.423
295.545
291.673
287.799
283.936
280.055
276.201
272.304
268.469
264.545
260.744
256.776
253.027
248.997
245.316
241.211
237.609
233.417
229.907
225.617
222.21
217.811
214.52
209.995
206.84
202.167
199.173
194.323
191.516
186.477
183.847
178.65
176.138
170.869
168.379
163.13
160.583
155.433
152.775
147.716
144.98
139.981
137.208
132.187
129.53
124.315
121.939
116.342
114.37
108.386
106.795
100.439
99.2276
92.5337
91.5978
84.6736
83.9059
76.8979
76.1468
69.1802
68.3398
61.525
60.4307
54.0369
52.3229
46.7707
43.9375
39.9204
34.6208
33.1926
2.70604
14.8946
-1.82292
1294.16
1259.25
1266.98
1251.74
1251.15
1242.71
1239.45
1233.01
1229.16
1223.61
1219.53
1214.5
1210.29
1205.58
1201.28
1196.77
1192.44
1188
1183.67
1179.27
1174.89
1170.45
1166
1161.49
1156.96
1152.34
1147.66
1142.92
1138.12
1133.27
1128.39
1123.47
1118.52
1113.54
1108.55
1103.54
1098.51
1093.48
1088.43
1083.37
1078.31
1073.24
1068.17
1063.09
1058.02
1052.93
1047.85
1042.75
1037.69
1032.55
1027.54
1022.31
1017.43
1011.99
1007.44
1001.47
997.757
990.487
988.919
979.03
982.209
979.7
977.149
972.841
969.468
964.566
960.793
955.693
951.644
946.46
942.795
938.701
934.712
929.47
925.722
921.616
917.341
912.206
908.255
904.34
899.921
894.906
890.81
886.924
882.465
877.525
873.432
869.606
865.129
860.226
856.116
852.315
847.824
842.939
838.819
835.033
830.534
825.661
821.534
817.755
813.251
808.382
804.252
800.476
795.97
791.103
786.972
783.196
778.689
773.822
769.69
765.914
761.407
756.54
752.408
748.632
744.125
739.258
735.126
731.35
726.843
721.975
717.843
714.067
709.559
704.691
700.559
696.782
692.275
687.408
683.275
679.498
674.991
670.123
665.99
662.215
657.706
652.837
648.703
644.928
640.416
635.552
631.412
627.642
623.128
618.26
614.118
610.306
606.404
602.498
598.602
594.705
590.815
586.921
583.032
579.14
575.254
571.364
567.481
563.593
559.711
555.825
551.945
548.059
544.179
540.296
536.419
532.537
528.658
524.771
520.89
517.003
513.122
509.236
505.355
501.469
497.588
493.701
489.82
485.935
482.053
478.166
474.285
470.399
466.517
462.631
458.749
454.862
450.98
447.092
443.209
439.321
435.438
431.55
427.667
423.779
419.896
416.008
412.126
408.238
404.356
400.468
396.584
392.696
388.812
384.923
381.039
377.15
373.265
369.376
365.492
361.604
357.72
353.831
349.947
346.059
342.174
338.286
334.401
330.511
326.626
322.737
318.852
314.962
311.077
307.189
303.305
299.424
295.545
291.673
287.8
283.937
280.055
276.201
272.305
268.47
264.546
260.745
256.777
253.028
248.998
245.316
241.211
237.609
233.418
229.907
225.618
222.21
217.812
214.52
209.996
206.84
202.168
199.172
194.325
191.515
186.479
183.846
178.653
176.137
170.872
168.378
163.132
160.582
155.435
152.774
147.718
144.979
139.982
137.207
132.189
129.529
124.317
121.938
116.344
114.368
108.389
106.793
100.442
99.2251
92.5375
91.595
84.6778
83.9029
76.9021
76.1438
69.1844
68.3368
61.5292
60.4278
54.0407
52.3205
46.774
43.9345
39.9213
34.5874
33.1712
2.7324
14.9092
-1.8198
1294.08
1259.26
1267
1251.74
1251.14
1242.7
1239.45
1233.01
1229.17
1223.62
1219.53
1214.5
1210.29
1205.59
1201.29
1196.78
1192.44
1188.01
1183.67
1179.27
1174.89
1170.45
1166.01
1161.5
1156.96
1152.34
1147.67
1142.92
1138.12
1133.27
1128.39
1123.47
1118.52
1113.54
1108.55
1103.54
1098.51
1093.48
1088.43
1083.37
1078.31
1073.24
1068.17
1063.09
1058.02
1052.93
1047.85
1042.75
1037.69
1032.55
1027.54
1022.31
1017.43
1011.99
1007.44
1001.47
997.758
990.489
988.918
979.056
982.213
979.694
977.144
972.839
969.467
964.565
960.792
955.692
951.643
946.465
942.799
938.694
934.708
929.476
925.725
921.61
917.338
912.213
908.258
904.333
899.918
894.912
890.813
886.917
882.462
877.532
873.435
869.599
865.126
860.232
856.119
852.309
847.821
842.945
838.822
835.027
830.531
825.667
821.537
817.748
813.248
808.389
804.255
800.469
795.967
791.109
786.975
783.189
778.686
773.828
769.693
765.908
761.404
756.547
752.412
748.626
744.122
739.265
735.129
731.343
726.84
721.982
717.846
714.061
709.557
704.698
700.562
696.776
692.272
687.414
683.278
679.492
674.988
670.129
665.993
662.208
657.703
652.843
648.706
644.921
640.413
635.558
631.415
627.635
623.125
618.266
614.121
610.305
606.404
602.498
598.602
594.705
590.815
586.921
583.032
579.14
575.254
571.364
567.481
563.593
559.711
555.825
551.945
548.059
544.179
540.296
536.419
532.537
528.658
524.771
520.89
517.003
513.122
509.236
505.355
501.469
497.588
493.701
489.821
485.935
482.053
478.167
474.285
470.399
466.517
462.631
458.749
454.862
450.98
447.092
443.209
439.321
435.438
431.55
427.667
423.779
419.896
416.009
412.126
408.238
404.356
400.468
396.585
392.696
388.812
384.923
381.039
377.15
373.265
369.376
365.492
361.604
357.72
353.832
349.947
346.059
342.175
338.286
334.401
330.511
326.626
322.738
318.852
314.963
311.077
307.189
303.305
299.424
295.545
291.673
287.8
283.937
280.056
276.202
272.305
268.47
264.546
260.745
256.777
253.028
248.998
245.316
241.212
237.609
233.419
229.907
225.619
222.21
217.813
214.52
209.997
206.839
202.169
199.172
194.326
191.514
186.481
183.845
178.655
176.136
170.873
168.377
163.134
160.581
155.437
152.773
147.72
144.979
139.984
137.207
132.19
129.528
124.318
121.937
116.347
114.367
108.392
106.791
100.445
99.2226
92.541
91.5923
84.6818
83.9002
76.9062
76.1412
69.1883
68.334
61.5331
60.4251
54.0443
52.3183
46.7772
43.9318
39.922
34.5583
33.1507
2.75667
14.9228
-1.81676
1294.06
1259.26
1267
1251.73
1251.14
1242.7
1239.45
1233.01
1229.17
1223.62
1219.53
1214.51
1210.29
1205.59
1201.29
1196.78
1192.45
1188.01
1183.68
1179.28
1174.9
1170.46
1166.01
1161.5
1156.96
1152.35
1147.67
1142.92
1138.12
1133.27
1128.39
1123.47
1118.52
1113.54
1108.55
1103.54
1098.51
1093.48
1088.43
1083.37
1078.31
1073.24
1068.18
1063.09
1058.02
1052.93
1047.85
1042.75
1037.69
1032.55
1027.54
1022.31
1017.43
1011.99
1007.44
1001.47
997.758
990.49
988.916
979.081
982.215
979.688
977.14
972.837
969.465
964.564
960.791
955.692
951.642
946.469
942.802
938.688
934.705
929.482
925.727
921.603
917.335
912.22
908.26
904.327
899.915
894.918
890.815
886.911
882.459
877.538
873.437
869.593
865.123
860.238
856.122
852.303
847.818
842.951
838.825
835.021
830.528
825.673
821.54
817.742
813.245
808.395
804.258
800.463
795.964
791.115
786.977
783.183
778.683
773.834
769.696
765.902
761.402
756.553
752.414
748.62
744.12
739.271
735.132
731.337
726.837
721.988
717.849
714.055
709.554
704.704
700.565
696.77
692.27
687.42
683.281
679.486
674.985
670.135
665.996
662.202
657.7
652.849
648.709
644.915
640.41
635.565
631.418
627.629
623.123
618.272
614.124
610.304
606.404
602.498
598.602
594.705
590.815
586.921
583.032
579.14
575.254
571.364
567.481
563.593
559.711
555.825
551.945
548.059
544.179
540.296
536.419
532.537
528.658
524.771
520.89
517.003
513.122
509.236
505.355
501.469
497.588
493.702
489.821
485.935
482.053
478.167
474.285
470.399
466.517
462.631
458.749
454.862
450.98
447.092
443.209
439.321
435.438
431.55
427.667
423.779
419.896
416.009
412.126
408.239
404.356
400.468
396.585
392.696
388.812
384.923
381.039
377.15
373.266
369.377
365.492
361.604
357.72
353.832
349.947
346.059
342.175
338.286
334.401
330.512
326.626
322.738
318.852
314.963
311.077
307.189
303.306
299.424
295.545
291.674
287.8
283.937
280.056
276.202
272.305
268.47
264.546
260.745
256.778
253.028
248.999
245.317
241.212
237.609
233.419
229.907
225.62
222.21
217.814
214.519
209.998
206.839
202.17
199.171
194.328
191.513
186.482
183.844
178.656
176.135
170.875
168.376
163.136
160.58
155.439
152.772
147.721
144.978
139.985
137.206
132.192
129.528
124.32
121.936
116.349
114.365
108.394
106.79
100.448
99.2203
92.5442
91.5897
84.6853
83.8977
76.91
76.1387
69.1921
68.3315
61.5369
60.4226
54.0477
52.3162
46.7801
43.9294
39.9226
34.5332
33.1313
2.77867
14.9351
-1.8138
1294.05
1259.26
1267
1251.72
1251.13
1242.7
1239.45
1233.01
1229.17
1223.62
1219.54
1214.51
1210.3
1205.59
1201.29
1196.79
1192.45
1188.01
1183.68
1179.28
1174.9
1170.46
1166.02
1161.5
1156.96
1152.35
1147.67
1142.92
1138.12
1133.28
1128.39
1123.47
1118.52
1113.54
1108.55
1103.54
1098.51
1093.48
1088.43
1083.37
1078.32
1073.24
1068.18
1063.09
1058.02
1052.93
1047.85
1042.75
1037.69
1032.55
1027.54
1022.31
1017.43
1011.99
1007.44
1001.47
997.758
990.491
988.914
979.102
982.217
979.683
977.137
972.835
969.464
964.563
960.79
955.691
951.641
946.474
942.806
938.682
934.702
929.487
925.729
921.598
917.332
912.226
908.263
904.321
899.912
894.924
890.818
886.906
882.456