/*--------------------------------*- C++ -*----------------------------------*\
| =========                 |                                                 |
| \\      /  F ield         | foam-extend: Open Source CFD                    |
|  \\    /   O peration     | Version:     3.2                                |
|   \\  /    A nd           | Web:         http://www.foam-extend.org         |
|    \\/     M anipulation  | For copyright notice see file Copyright         |
\*---------------------------------------------------------------------------*/
FoamFile
{
    version     2.0;
    format      ascii;
    class       areaScalarField;
    location    "50";
    object      Pef;
}
// * * * * * * * * * * * * * * * * * * * * * * * * * * * * * * * * * * * * * //

dimensions      [0 0 0 0 0 0 0];

internalField   nonuniform List<scalar> 
300
(
0.913004
0.693419
0.511045
0.51597
0.495049
0.497656
0.488763
0.488923
0.485512
0.487007
0.487084
0.489427
0.49135
0.494695
0.497596
0.501615
0.505396
0.50974
0.513946
0.518666
0.523498
0.528447
0.533469
0.538524
0.543603
0.548436
0.55268
0.55627
0.559295
0.561813
0.563929
0.565679
0.567152
0.568361
0.569388
0.570222
0.570943
0.571519
0.572035
0.572431
0.57281
0.57308
0.573375
0.573556
0.57378
0.573888
0.574077
0.574124
0.574331
0.574262
0.574589
0.574251
0.574909
0.573999
0.575537
0.573203
0.576988
0.571325
0.582196
0.551334
0.47407
0.451675
0.442474
0.435483
0.431467
0.428741
0.426577
0.42547
0.424168
0.424491
0.504134
0.504085
0.421658
0.422024
0.503293
0.504221
0.422123
0.422645
0.503269
0.503851
0.422302
0.423245
0.503773
0.50413
0.423412
0.423765
0.503718
0.504015
0.423451
0.423737
0.503669
0.503954
0.423453
0.423719
0.503659
0.503933
0.423464
0.423719
0.503667
0.503934
0.423482
0.423735
0.503679
0.503944
0.42351
0.423761
0.503696
0.503959
0.42354
0.423792
0.503712
0.503975
0.423573
0.423825
0.503727
0.503989
0.423607
0.423859
0.503741
0.504004
0.423642
0.423894
0.503756
0.504019
0.42368
0.423932
0.503772
0.504035
0.423718
0.423971
0.503789
0.504052
0.423759
0.424014
0.503807
0.504071
0.423803
0.424058
0.503824
0.504096
0.423842
0.424108
0.503845
0.504103
0.423891
0.424143
0.503839
0.503528
0.503285
0.503156
0.503088
0.503041
0.503022
0.503008
0.502997
0.502979
0.502967
0.502952
0.502941
0.502932
0.502929
0.502923
0.502921
0.502914
0.502909
0.502906
0.502914
0.502917
0.502925
0.502927
0.502936
0.502938
0.502943
0.502947
0.502953
0.502955
0.502963
0.502965
0.502971
0.502974
0.502982
0.502985
0.502992
0.502994
0.503001
0.503004
0.503012
0.503016
0.503025
0.503028
0.503037
0.503041
0.50305
0.503052
0.503059
0.503064
0.503073
0.503076
0.503083
0.503086
0.503095
0.5031
0.503109
0.503112
0.50312
0.503125
0.503134
0.503138
0.503148
0.503153
0.503159
0.503163
0.50317
0.503175
0.503182
0.503186
0.503196
0.503201
0.503208
0.503212
0.503219
0.503224
0.50323
0.503235
0.50324
0.503244
0.503248
0.503259
0.503261
0.503278
0.503266
0.503295
0.503267
0.503319
0.503252
0.503362
0.503228
0.503414
0.503189
0.503476
0.503149
0.50353
0.503118
0.503582
0.503082
0.503638
0.503044
0.503697
0.502996
0.503771
0.50293
0.503861
0.502843
0.503973
0.502761
0.504039
0.502749
0.504018
0.502886
0.503835
0.503123
0.503598
0.5034
0.503399
0.503473
0.503508
0.50334
0.503617
0.503197
0.503925
0.50286
0.504251
0.502456
0.504763
0.502413
0.504857
0.502351
0.504969
0.502182
0.504816
0.502261
0.504685
0.502493
0.504324
0.50275
0.503922
0.503032
0.503473
0.503583
0.502912
0.504215
0.502243
0.505052
0.500811
0.506047
0.48844
0.624029
0.609647
0.55987
0.576056
)
;

boundaryField
{
    inlet
    {
        type            calculated;
        value           uniform 0;
    }
    outlet
    {
        type            calculated;
        value           uniform 0;
    }
    sideWall
    {
        type            empty;
    }
}


// ************************************************************************* //
