/*--------------------------------*- C++ -*----------------------------------*\
| =========                 |                                                 |
| \\      /  F ield         | foam-extend: Open Source CFD                    |
|  \\    /   O peration     | Version:     3.2                                |
|   \\  /    A nd           | Web:         http://www.foam-extend.org         |
|    \\/     M anipulation  | For copyright notice see file Copyright         |
\*---------------------------------------------------------------------------*/
FoamFile
{
    version     2.0;
    format      ascii;
    class       surfaceScalarField;
    location    "50";
    object      phi;
}
// * * * * * * * * * * * * * * * * * * * * * * * * * * * * * * * * * * * * * //

dimensions      [0 3 -1 0 0 0 0];

internalField   nonuniform List<scalar> 
10482
(
7.50339e-06
9.99665e-06
5.36826e-06
2.13513e-06
5.10436e-06
2.63902e-07
5.06881e-06
3.55525e-08
5.05162e-06
1.71896e-08
5.02286e-06
2.87573e-08
5.01113e-06
1.17297e-08
4.99537e-06
1.57563e-08
4.99536e-06
1.76436e-11
4.99369e-06
1.66997e-09
5.00094e-06
-7.25546e-09
5.00677e-06
-5.83105e-09
5.01916e-06
-1.23859e-08
5.03072e-06
-1.15575e-08
5.04567e-06
-1.49542e-08
5.06158e-06
-1.5909e-08
5.07883e-06
-1.72475e-08
5.09637e-06
-1.75485e-08
5.1154e-06
-1.90246e-08
5.13574e-06
-2.034e-08
5.15677e-06
-2.10346e-08
5.1781e-06
-2.1328e-08
5.19994e-06
-2.18415e-08
5.22187e-06
-2.19285e-08
5.24366e-06
-2.17857e-08
5.26367e-06
-2.00142e-08
5.28095e-06
-1.72776e-08
5.29552e-06
-1.45752e-08
5.30778e-06
-1.22537e-08
5.31802e-06
-1.02438e-08
5.3266e-06
-8.57525e-09
5.33374e-06
-7.14009e-09
5.3397e-06
-5.96488e-09
5.34466e-06
-4.95821e-09
5.34881e-06
-4.14535e-09
5.35226e-06
-3.45064e-09
5.35515e-06
-2.89476e-09
5.35757e-06
-2.41888e-09
5.35961e-06
-2.04289e-09
5.36132e-06
-1.71041e-09
5.36279e-06
-1.46512e-09
5.36403e-06
-1.23937e-09
5.36512e-06
-1.08992e-09
5.36597e-06
-8.5544e-10
5.36675e-06
-7.81075e-10
5.36738e-06
-6.2456e-10
5.36811e-06
-7.3466e-10
5.36859e-06
-4.78322e-10
5.36908e-06
-4.89629e-10
5.36934e-06
-2.57447e-10
5.36988e-06
-5.41397e-10
5.36964e-06
2.45029e-10
5.3706e-06
-9.66101e-10
5.36957e-06
1.02701e-09
5.37164e-06
-2.06456e-09
5.36883e-06
2.81266e-09
5.3743e-06
-5.4741e-09
5.37181e-06
2.49158e-09
5.36723e-06
4.52609e-09
5.11513e-06
2.00031e-07
5.00367e-06
-6.7391e-08
5.03162e-06
-3.13754e-07
5.04948e-06
-3.51184e-07
5.05127e-06
-3.60204e-07
5.06113e-06
-3.83782e-07
5.0597e-06
-3.82357e-07
5.06609e-06
-3.96888e-07
5.06361e-06
-3.92513e-07
5.06836e-06
-4.02241e-07
5.06164e-06
-1.5764e-07
5.06009e-06
2.39412e-07
5.06116e-06
1.35494e-07
5.06709e-06
-2.7575e-07
5.05945e-06
-1.27287e-07
5.06007e-06
2.72749e-07
5.06466e-06
1.34447e-07
5.06862e-06
-2.72413e-07
5.06084e-06
-1.26975e-07
5.05871e-06
2.72894e-07
5.06381e-06
1.31811e-07
5.06779e-06
-2.70906e-07
5.06268e-06
-1.2632e-07
5.06035e-06
2.75524e-07
5.06494e-06
1.34015e-07
5.0678e-06
-2.68207e-07
5.06209e-06
-1.2588e-07
5.05957e-06
2.73803e-07
5.06442e-06
1.3251e-07
5.0672e-06
-2.68209e-07
5.06176e-06
-1.262e-07
5.0592e-06
2.73563e-07
5.06424e-06
1.32156e-07
5.06696e-06
-2.68127e-07
5.06164e-06
-1.26322e-07
5.05905e-06
2.73517e-07
5.0642e-06
1.32007e-07
5.06689e-06
-2.68085e-07
5.06165e-06
-1.26391e-07
5.05904e-06
2.73541e-07
5.06423e-06
1.31971e-07
5.06691e-06
-2.68047e-07
5.0617e-06
-1.2639e-07
5.05907e-06
2.73581e-07
5.06429e-06
1.31988e-07
5.06697e-06
-2.67997e-07
5.06177e-06
-1.26358e-07
5.05913e-06
2.73622e-07
5.06435e-06
1.32043e-07
5.06703e-06
-2.67934e-07
5.06184e-06
-1.26328e-07
5.0592e-06
2.73654e-07
5.06441e-06
1.32098e-07
5.06708e-06
-2.67858e-07
5.06189e-06
-1.26285e-07
5.05926e-06
2.73669e-07
5.06447e-06
1.3215e-07
5.06714e-06
-2.67782e-07
5.06195e-06
-1.26235e-07
5.05931e-06
2.73694e-07
5.06454e-06
1.32188e-07
5.0672e-06
-2.67708e-07
5.06201e-06
-1.26183e-07
5.05937e-06
2.73722e-07
5.06459e-06
1.32242e-07
5.06727e-06
-2.67636e-07
5.06208e-06
-1.26137e-07
5.05944e-06
2.73744e-07
5.06465e-06
1.32306e-07
5.06733e-06
-2.67558e-07
5.06215e-06
-1.26096e-07
5.05951e-06
2.73766e-07
5.06472e-06
1.32366e-07
5.0674e-06
-2.67469e-07
5.06222e-06
-1.26048e-07
5.05959e-06
2.7379e-07
5.06481e-06
1.32414e-07
5.06748e-06
-2.67378e-07
5.06229e-06
-1.25984e-07
5.05967e-06
2.73806e-07
5.0649e-06
1.32469e-07
5.06755e-06
-2.67259e-07
5.0624e-06
-1.25983e-07
5.05969e-06
2.73887e-07
5.06494e-06
1.32499e-07
5.06758e-06
-2.67164e-07
5.06233e-06
-1.25754e-07
5.05774e-06
3.09377e-07
5.05671e-06
4.39216e-07
5.05589e-06
4.04204e-07
5.0554e-06
4.03344e-07
5.05512e-06
4.02838e-07
5.05493e-06
4.02589e-07
5.05486e-06
4.02402e-07
5.05478e-06
4.02336e-07
5.05471e-06
4.02194e-07
5.05461e-06
4.02096e-07
5.05455e-06
4.01938e-07
5.05444e-06
4.01898e-07
5.05439e-06
4.01784e-07
5.05437e-06
4.01716e-07
5.05439e-06
4.01647e-07
5.05437e-06
4.01672e-07
5.05438e-06
4.0163e-07
5.05431e-06
4.01666e-07
5.05428e-06
4.01599e-07
5.05428e-06
4.01559e-07
5.05432e-06
4.01511e-07
5.05431e-06
4.01577e-07
5.05433e-06
4.0155e-07
5.05435e-06
4.01557e-07
5.05442e-06
4.01508e-07
5.05442e-06
4.01565e-07
5.05445e-06
4.01524e-07
5.05447e-06
4.01543e-07
5.0545e-06
4.01518e-07
5.0545e-06
4.01549e-07
5.05454e-06
4.01509e-07
5.05454e-06
4.01537e-07
5.05458e-06
4.01491e-07
5.05459e-06
4.01516e-07
5.05462e-06
4.0149e-07
5.05462e-06
4.01519e-07
5.05466e-06
4.01471e-07
5.05467e-06
4.01484e-07
5.05471e-06
4.01446e-07
5.05471e-06
4.01483e-07
5.05475e-06
4.01448e-07
5.05476e-06
4.01464e-07
5.05481e-06
4.01422e-07
5.05483e-06
4.0145e-07
5.05486e-06
4.01421e-07
5.05488e-06
4.01433e-07
5.05493e-06
4.01384e-07
5.05493e-06
4.01411e-07
5.05497e-06
4.01369e-07
5.05498e-06
4.01396e-07
5.05501e-06
4.01359e-07
5.05502e-06
4.01369e-07
5.05506e-06
4.01315e-07
5.05508e-06
4.01327e-07
5.05512e-06
4.01293e-07
5.05513e-06
4.01307e-07
5.05518e-06
4.01259e-07
5.05519e-06
4.01273e-07
5.05524e-06
4.01229e-07
5.05525e-06
4.01249e-07
5.05529e-06
4.01205e-07
5.05531e-06
4.01208e-07
5.05536e-06
4.01157e-07
5.05538e-06
4.01177e-07
5.05542e-06
4.0113e-07
5.05542e-06
4.01133e-07
5.05546e-06
4.01081e-07
5.05548e-06
4.01087e-07
5.05552e-06
4.0104e-07
5.05553e-06
4.01041e-07
5.05558e-06
4.00989e-07
5.0556e-06
4.00993e-07
5.05565e-06
4.00947e-07
5.05565e-06
4.00954e-07
5.05569e-06
4.00901e-07
5.05569e-06
4.00922e-07
5.05568e-06
4.00892e-07
5.0557e-06
4.00844e-07
5.05576e-06
4.00765e-07
5.05576e-06
4.00792e-07
5.0558e-06
4.00744e-07
5.05584e-06
4.00722e-07
5.05588e-06
4.00684e-07
5.05591e-06
4.0067e-07
5.05592e-06
4.00669e-07
5.05596e-06
4.0061e-07
5.05593e-06
4.00658e-07
5.056e-06
4.00518e-07
5.05593e-06
4.00648e-07
5.05613e-06
4.00342e-07
5.05589e-06
4.00762e-07
5.0563e-06
4.00071e-07
5.05578e-06
4.00986e-07
5.05655e-06
3.99659e-07
5.05558e-06
4.01371e-07
5.05686e-06
3.99114e-07
5.05537e-06
4.01844e-07
5.05717e-06
3.98528e-07
5.05512e-06
4.0236e-07
5.05754e-06
3.97872e-07
5.05484e-06
4.02959e-07
5.05791e-06
3.97157e-07
5.05453e-06
4.03609e-07
5.05833e-06
3.96379e-07
5.05415e-06
4.04361e-07
5.05882e-06
3.95474e-07
5.05369e-06
4.05273e-07
5.05948e-06
3.94308e-07
5.05302e-06
4.06548e-07
5.06026e-06
3.92851e-07
5.05231e-06
4.07959e-07
5.06112e-06
3.91231e-07
5.05176e-06
4.09288e-07
5.06149e-06
3.90322e-07
5.0517e-06
4.09656e-07
5.06155e-06
3.90094e-07
5.0521e-06
4.0927e-07
5.06081e-06
3.9114e-07
5.05302e-06
4.07795e-07
5.06043e-06
3.92209e-07
5.05318e-06
4.0693e-07
5.06008e-06
3.92994e-07
5.05382e-06
4.06168e-07
5.06003e-06
3.93203e-07
5.05339e-06
4.0617e-07
5.06041e-06
3.92873e-07
5.05279e-06
4.0734e-07
5.06302e-06
3.88802e-07
5.05139e-06
4.10642e-07
5.06425e-06
3.86583e-07
5.05024e-06
4.13531e-07
5.06532e-06
3.84158e-07
5.04811e-06
4.16242e-07
5.06633e-06
3.81226e-07
5.0471e-06
4.18923e-07
5.06739e-06
3.79556e-07
5.0462e-06
4.20677e-07
5.06742e-06
3.78162e-07
5.04587e-06
4.20811e-07
5.06704e-06
3.78253e-07
5.04576e-06
4.20723e-07
5.06682e-06
3.78736e-07
5.04672e-06
4.19792e-07
5.06567e-06
3.80965e-07
5.04859e-06
4.16895e-07
5.06345e-06
3.84937e-07
5.05045e-06
4.12851e-07
5.05758e-06
3.92608e-07
5.0236e-06
4.21751e-07
5.35215e-06
-5.66334e-08
5.73915e-06
-3.02324e-07
5.36129e-06
3.77937e-07
5.36828e-06
-6.98844e-09
5.52634e-09
1.31752e-05
1.43214e-05
1.09649e-05
4.34538e-06
1.02159e-05
1.0129e-06
1.00174e-05
2.34118e-07
9.88099e-06
1.53562e-07
9.78009e-06
1.29655e-07
9.71617e-06
7.56552e-08
9.67168e-06
6.02377e-08
9.64991e-06
2.17881e-08
9.6411e-06
1.0485e-08
9.64341e-06
-9.56986e-09
9.65049e-06
-1.29081e-08
9.66654e-06
-2.84339e-08
9.68458e-06
-2.95992e-08
9.70902e-06
-3.93918e-08
9.73634e-06
-4.3234e-08
9.76641e-06
-4.73154e-08
9.79801e-06
-4.9149e-08
9.8318e-06
-5.28122e-08
9.86866e-06
-5.72017e-08
9.90704e-06
-5.9411e-08
9.94645e-06
-6.07399e-08
9.98686e-06
-6.2253e-08
1.0028e-05
-6.30982e-08
1.00691e-05
-6.28384e-08
1.0107e-05
-5.78879e-08
1.01401e-05
-5.03925e-08
1.01685e-05
-4.29618e-08
1.01926e-05
-3.64217e-08
1.02131e-05
-3.07059e-08
1.02304e-05
-2.58507e-08
1.02449e-05
-2.16678e-08
1.02571e-05
-1.81681e-08
1.02673e-05
-1.51877e-08
1.02759e-05
-1.27204e-08
1.02831e-05
-1.06437e-08
1.02891e-05
-8.92416e-09
1.02942e-05
-7.49915e-09
1.02985e-05
-6.30704e-09
1.03021e-05
-5.32586e-09
1.03051e-05
-4.50887e-09
1.03077e-05
-3.8627e-09
1.031e-05
-3.33919e-09
1.03119e-05
-2.71103e-09
1.03135e-05
-2.38449e-09
1.03148e-05
-1.93644e-09
1.03158e-05
-1.77093e-09
1.03168e-05
-1.4961e-09
1.03177e-05
-1.40753e-09
1.03184e-05
-9.61022e-10
1.03191e-05
-1.21091e-09
1.03194e-05
-5.49278e-11
1.03201e-05
-1.69873e-09
1.03198e-05
1.33402e-09
1.0321e-05
-3.18317e-09
1.03202e-05
3.57405e-09
1.03237e-05
-8.97423e-09
1.0336e-05
-9.85771e-09
1.03203e-05
2.02427e-08
9.95418e-06
5.66095e-07
9.70397e-06
1.83179e-07
9.69071e-06
-2.99959e-07
9.70574e-06
-3.6575e-07
9.71066e-06
-3.64669e-07
9.7246e-06
-3.97275e-07
9.72786e-06
-3.85165e-07
9.73767e-06
-4.06236e-07
9.73903e-06
-3.93436e-07
9.74579e-06
-4.08156e-07
9.74244e-06
-1.53897e-07
9.74119e-06
2.39295e-07
9.74011e-06
1.35887e-07
9.74499e-06
-2.79152e-07
9.74018e-06
-1.21859e-07
9.74274e-06
2.68707e-07
9.74739e-06
1.29174e-07
9.75052e-06
-2.74058e-07
9.74469e-06
-1.2054e-07
9.7433e-06
2.72807e-07
9.74705e-06
1.27449e-07
9.75122e-06
-2.73597e-07
9.74857e-06
-1.23065e-07
9.74714e-06
2.75471e-07
9.75025e-06
1.30296e-07
9.75203e-06
-2.68516e-07
9.748e-06
-1.21243e-07
9.74614e-06
2.74187e-07
9.7491e-06
1.28935e-07
9.75083e-06
-2.6847e-07
9.74715e-06
-1.21908e-07
9.74535e-06
2.73883e-07
9.74858e-06
1.28323e-07
9.75035e-06
-2.68426e-07
9.74687e-06
-1.22242e-07
9.74514e-06
2.73777e-07
9.74848e-06
1.28054e-07
9.75028e-06
-2.68414e-07
9.74686e-06
-1.22366e-07
9.74511e-06
2.73819e-07
9.74852e-06
1.27953e-07
9.75032e-06
-2.68378e-07
9.74692e-06
-1.22393e-07
9.74518e-06
2.7385e-07
9.74862e-06
1.2794e-07
9.75044e-06
-2.68346e-07
9.74705e-06
-1.22366e-07
9.74531e-06
2.73889e-07
9.74875e-06
1.27995e-07
9.75057e-06
-2.68287e-07
9.74719e-06
-1.22345e-07
9.74544e-06
2.73938e-07
9.74888e-06
1.28044e-07
9.75069e-06
-2.68205e-07
9.74732e-06
-1.22307e-07
9.74557e-06
2.73946e-07
9.749e-06
1.28116e-07
9.75082e-06
-2.68134e-07
9.74744e-06
-1.22254e-07
9.74569e-06
2.73969e-07
9.74913e-06
1.28142e-07
9.75094e-06
-2.68047e-07
9.74757e-06
-1.22209e-07
9.74582e-06
2.73995e-07
9.74927e-06
1.28188e-07
9.75108e-06
-2.67979e-07
9.74769e-06
-1.22149e-07
9.74596e-06
2.74008e-07
9.74939e-06
1.28259e-07
9.75122e-06
-2.67915e-07
9.74784e-06
-1.22117e-07
9.74609e-06
2.74043e-07
9.74954e-06
1.28311e-07
9.75137e-06
-2.67829e-07
9.748e-06
-1.22082e-07
9.74626e-06
2.74067e-07
9.7497e-06
1.28363e-07
9.75153e-06
-2.67744e-07
9.74815e-06
-1.22004e-07
9.74644e-06
2.74052e-07
9.74988e-06
1.28412e-07
9.75167e-06
-2.67579e-07
9.74836e-06
-1.22069e-07
9.74653e-06
2.7424e-07
9.75e-06
1.28422e-07
9.75182e-06
-2.67515e-07
9.74845e-06
-1.21743e-07
9.747e-06
3.09686e-07
9.74815e-06
4.37182e-07
9.74839e-06
4.0359e-07
9.74817e-06
4.03102e-07
9.7479e-06
4.02647e-07
9.74771e-06
4.02323e-07
9.74762e-06
4.0203e-07
9.74751e-06
4.01985e-07
9.74738e-06
4.01862e-07
9.7472e-06
4.0182e-07
9.74706e-06
4.0161e-07
9.74691e-06
4.01593e-07
9.74681e-06
4.01425e-07
9.74668e-06
4.01382e-07
9.74665e-06
4.01218e-07
9.74664e-06
4.0122e-07
9.74655e-06
4.01261e-07
9.74644e-06
4.01322e-07
9.74644e-06
4.01136e-07
9.74645e-06
4.01092e-07
9.7465e-06
4.00995e-07
9.74655e-06
4.01073e-07
9.74663e-06
4.01013e-07
9.74667e-06
4.01056e-07
9.74674e-06
4.00974e-07
9.74676e-06
4.01084e-07
9.74679e-06
4.01038e-07
9.74679e-06
4.01081e-07
9.74681e-06
4.01035e-07
9.74684e-06
4.01062e-07
9.74692e-06
4.00969e-07
9.74695e-06
4.01041e-07
9.74702e-06
4.00968e-07
9.74703e-06
4.01043e-07
9.74707e-06
4.0099e-07
9.74711e-06
4.01026e-07
9.74715e-06
4.00962e-07
9.74718e-06
4.00998e-07
9.74723e-06
4.00935e-07
9.74725e-06
4.01006e-07
9.74731e-06
4.00928e-07
9.74735e-06
4.00965e-07
9.74742e-06
4.00893e-07
9.74746e-06
4.00951e-07
9.74751e-06
4.00906e-07
9.74756e-06
4.00925e-07
9.74764e-06
4.00843e-07
9.74769e-06
4.00902e-07
9.74775e-06
4.00852e-07
9.74776e-06
4.00918e-07
9.74782e-06
4.00839e-07
9.74785e-06
4.0088e-07
9.74791e-06
4.00797e-07
9.74794e-06
4.0084e-07
9.74799e-06
4.0078e-07
9.74804e-06
4.008e-07
9.74811e-06
4.00734e-07
9.74815e-06
4.00772e-07
9.74821e-06
4.00705e-07
9.74824e-06
4.00755e-07
9.74831e-06
4.00676e-07
9.74836e-06
4.00698e-07
9.74845e-06
4.00611e-07
9.74849e-06
4.00676e-07
9.74855e-06
4.00616e-07
9.74857e-06
4.00646e-07
9.74862e-06
4.0057e-07
9.74866e-06
4.00589e-07
9.74872e-06
4.00525e-07
9.74875e-06
4.00548e-07
9.74883e-06
4.00454e-07
9.74888e-06
4.00477e-07
9.74894e-06
4.00427e-07
9.74897e-06
4.00468e-07
9.74903e-06
4.00383e-07
9.74907e-06
4.00423e-07
9.74912e-06
4.00376e-07
9.74916e-06
4.00352e-07
9.74921e-06
4.00251e-07
9.74924e-06
4.00301e-07
9.74932e-06
4.00212e-07
9.74937e-06
4.00212e-07
9.74941e-06
4.00185e-07
9.74944e-06
4.00178e-07
9.74948e-06
4.0017e-07
9.74954e-06
4.00091e-07
9.74955e-06
4.00188e-07
9.74962e-06
3.99983e-07
9.74959e-06
4.00221e-07
9.74974e-06
3.99737e-07
9.7496e-06
4.0044e-07
9.74988e-06
3.99335e-07
9.74955e-06
4.00855e-07
9.7501e-06
3.98645e-07
9.7494e-06
4.01618e-07
9.75042e-06
3.97634e-07
9.74925e-06
4.02555e-07
9.75072e-06
3.96597e-07
9.74907e-06
4.03552e-07
9.75106e-06
3.95418e-07
9.74886e-06
4.04706e-07
9.75142e-06
3.9414e-07
9.74863e-06
4.05935e-07
9.7518e-06
3.92752e-07
9.74834e-06
4.07356e-07
9.75222e-06
3.91138e-07
9.74801e-06
4.0903e-07
9.75282e-06
3.89039e-07
9.74744e-06
4.11465e-07
9.75353e-06
3.86306e-07
9.74681e-06
4.14221e-07
9.75456e-06
3.8302e-07
9.74612e-06
4.17269e-07
9.75515e-06
3.80832e-07
9.74591e-06
4.18434e-07
9.75528e-06
3.80263e-07
9.74653e-06
4.17565e-07
9.75427e-06
3.82947e-07
9.74781e-06
4.13796e-07
9.75387e-06
3.85685e-07
9.74788e-06
4.12467e-07
9.75354e-06
3.86875e-07
9.74861e-06
4.10636e-07
9.7537e-06
3.87654e-07
9.74807e-06
4.11343e-07
9.7537e-06
3.86785e-07
9.74794e-06
4.12641e-07
9.75671e-06
3.79568e-07
9.74717e-06
4.19734e-07
9.75805e-06
3.75241e-07
9.74635e-06
4.24773e-07
9.75874e-06
3.71309e-07
9.74374e-06
4.30779e-07
9.75926e-06
3.65251e-07
9.74255e-06
4.35179e-07
9.7606e-06
3.6104e-07
9.74145e-06
4.39371e-07
9.76048e-06
3.58669e-07
9.7405e-06
4.40333e-07
9.76e-06
3.58298e-07
9.73994e-06
4.4033e-07
9.75979e-06
3.58426e-07
9.74157e-06
4.37546e-07
9.7585e-06
3.63584e-07
9.74329e-06
4.31647e-07
9.75678e-06
3.70984e-07
9.74403e-06
4.25145e-07
9.74864e-06
3.87529e-07
9.67795e-06
4.91814e-07
1.01834e-05
-5.62516e-07
1.08074e-05
-9.26175e-07
1.04464e-05
7.39092e-07
1.03775e-05
6.185e-08
2.4747e-08
1.60203e-05
1.58011e-05
1.4189e-05
6.17676e-06
1.32379e-05
1.96397e-06
1.28275e-05
6.44484e-07
1.25397e-05
4.41359e-07
1.23726e-05
2.96747e-07
1.2258e-05
1.90264e-07
1.21838e-05
1.34427e-07
1.21386e-05
6.70684e-08
1.21169e-05
3.21133e-08
1.21092e-05
-1.82803e-09
1.21123e-05
-1.60497e-08
1.21251e-05
-4.12093e-08
1.21427e-05
-4.72003e-08
1.21689e-05
-6.55398e-08
1.21991e-05
-7.3505e-08
1.22335e-05
-8.17108e-08
1.22705e-05
-8.61341e-08
1.23102e-05
-9.24645e-08
1.23538e-05
-1.00886e-07
1.23997e-05
-1.05235e-07
1.24471e-05
-1.08176e-07
1.24959e-05
-1.11096e-07
1.25461e-05
-1.13223e-07
1.2596e-05
-1.12795e-07
1.26421e-05
-1.03934e-07
1.26826e-05
-9.09113e-08
1.27176e-05
-7.79846e-08
1.27476e-05
-6.64496e-08
1.27732e-05
-5.62934e-08
1.27949e-05
-4.75611e-08
1.28133e-05
-4.00151e-08
1.28288e-05
-3.36351e-08
1.28418e-05
-2.82036e-08
1.28527e-05
-2.36575e-08
1.28619e-05
-1.98459e-08
1.28696e-05
-1.66475e-08
1.28762e-05
-1.40218e-08
1.28816e-05
-1.17811e-08
1.28863e-05
-9.9786e-09
1.28902e-05
-8.41474e-09
1.28936e-05
-7.23596e-09
1.28964e-05
-6.21852e-09
1.28988e-05
-5.11553e-09
1.29009e-05
-4.43087e-09
1.29026e-05
-3.63243e-09
1.29041e-05
-3.31906e-09
1.29055e-05
-2.81517e-09
1.29066e-05
-2.56935e-09
1.29075e-05
-1.88427e-09
1.29083e-05
-1.96709e-09
1.29089e-05
-6.32954e-10
1.29095e-05
-2.35471e-09
1.29101e-05
7.58171e-10
1.29108e-05
-3.88317e-09
1.2911e-05
3.36869e-09
1.29133e-05
-1.13017e-08
1.29313e-05
-2.77867e-08
1.29122e-05
3.92227e-08
1.25403e-05
9.38035e-07
1.2235e-05
4.89255e-07
1.21734e-05
-2.37161e-07
1.21733e-05
-3.64366e-07
1.21751e-05
-3.65042e-07
1.21882e-05
-4.08945e-07
1.21937e-05
-3.89219e-07
1.22046e-05
-4.15661e-07
1.22085e-05
-3.95966e-07
1.22154e-05
-4.12917e-07
1.22135e-05
-1.50976e-07
1.22125e-05
2.38241e-07
1.22109e-05
1.36348e-07
1.22148e-05
-2.80633e-07
1.22118e-05
-1.17797e-07
1.2215e-05
2.63053e-07
1.22197e-05
1.23427e-07
1.22226e-05
-2.74565e-07
1.22182e-05
-1.15144e-07
1.22171e-05
2.71555e-07
1.22203e-05
1.23216e-07
1.22244e-05
-2.75309e-07
1.22232e-05
-1.2086e-07
1.22225e-05
2.73785e-07
1.22248e-05
1.26983e-07
1.2226e-05
-2.67389e-07
1.22231e-05
-1.17264e-07
1.22216e-05
2.733e-07
1.22235e-05
1.25935e-07
1.22247e-05
-2.67241e-07
1.2222e-05
-1.18206e-07
1.22207e-05
2.72837e-07
1.22229e-05
1.25076e-07
1.22241e-05
-2.67277e-07
1.22216e-05
-1.18778e-07
1.22204e-05
2.72653e-07
1.22228e-05
1.24618e-07
1.22241e-05
-2.6733e-07
1.22216e-05
-1.18862e-07
1.22203e-05
2.72694e-07
1.22228e-05
1.24466e-07
1.22241e-05
-2.67366e-07
1.22217e-05
-1.18909e-07
1.22204e-05
2.72724e-07
1.22229e-05
1.24433e-07
1.22243e-05
-2.67372e-07
1.22218e-05
-1.18923e-07
1.22206e-05
2.72772e-07
1.22231e-05
1.24511e-07
1.22244e-05
-2.67281e-07
1.2222e-05
-1.18945e-07
1.22208e-05
2.7279e-07
1.22232e-05
1.24576e-07
1.22246e-05
-2.67173e-07
1.22221e-05
-1.18873e-07
1.2221e-05
2.72757e-07
1.22234e-05
1.24618e-07
1.22247e-05
-2.67085e-07
1.22223e-05
-1.18797e-07
1.22211e-05
2.72816e-07
1.22236e-05
1.246e-07
1.22249e-05
-2.67031e-07
1.22225e-05
-1.18738e-07
1.22212e-05
2.72859e-07
1.22237e-05
1.24678e-07
1.22251e-05
-2.67001e-07
1.22227e-05
-1.18712e-07
1.22214e-05
2.72886e-07
1.22239e-05
1.24775e-07
1.22252e-05
-2.66911e-07
1.22228e-05
-1.18722e-07
1.22216e-05
2.72887e-07
1.22241e-05
1.24837e-07
1.22254e-05
-2.66812e-07
1.2223e-05
-1.18659e-07
1.22218e-05
2.72877e-07
1.22243e-05
1.24844e-07
1.22256e-05
-2.66713e-07
1.22232e-05
-1.18545e-07
1.2222e-05
2.72867e-07
1.22245e-05
1.24856e-07
1.22258e-05
-2.66547e-07
1.22234e-05
-1.18663e-07
1.22221e-05
2.73176e-07
1.22246e-05
1.24897e-07
1.2226e-05
-2.66578e-07
1.22237e-05
-1.18324e-07
1.22245e-05
3.06968e-07
1.22274e-05
4.32489e-07
1.22286e-05
4.0102e-07
1.22288e-05
4.01353e-07
1.22287e-05
4.01234e-07
1.22286e-05
4.00966e-07
1.22285e-05
4.006e-07
1.22284e-05
4.00572e-07
1.22283e-05
4.00449e-07
1.22281e-05
4.00505e-07
1.22279e-05
4.00306e-07
1.22278e-05
4.00286e-07
1.22276e-05
4.00055e-07
1.22275e-05
3.99993e-07
1.22274e-05
3.99802e-07
1.22273e-05
3.99823e-07
1.22272e-05
3.9988e-07
1.22271e-05
3.99927e-07
1.22272e-05
3.99569e-07
1.22272e-05
3.99558e-07
1.22272e-05
3.99481e-07
1.22273e-05
3.99513e-07
1.22274e-05
3.99408e-07
1.22275e-05
3.99469e-07
1.22275e-05
3.99406e-07
1.22275e-05
3.99586e-07
1.22276e-05
3.99508e-07
1.22276e-05
3.99567e-07
1.22276e-05
3.99467e-07
1.22277e-05
3.99519e-07
1.22277e-05
3.99428e-07
1.22277e-05
3.99525e-07
1.22278e-05
3.99421e-07
1.22279e-05
3.99479e-07
1.22279e-05
3.99428e-07
1.22279e-05
3.99516e-07
1.2228e-05
3.99426e-07
1.2228e-05
3.99458e-07
1.22281e-05
3.99333e-07
1.22282e-05
3.99461e-07
1.22282e-05
3.99391e-07
1.22282e-05
3.99426e-07
1.22283e-05
3.99308e-07
1.22284e-05
3.99356e-07
1.22285e-05
3.99335e-07
1.22285e-05
3.99407e-07
1.22286e-05
3.99275e-07
1.22286e-05
3.99341e-07
1.22287e-05
3.99255e-07
1.22288e-05
3.9938e-07
1.22288e-05
3.99306e-07
1.22288e-05
3.99351e-07
1.22289e-05
3.99231e-07
1.2229e-05
3.9926e-07
1.2229e-05
3.99206e-07
1.22291e-05
3.99268e-07
1.22291e-05
3.99175e-07
1.22292e-05
3.99219e-07
1.22293e-05
3.99092e-07
1.22294e-05
3.99196e-07
1.22294e-05
3.99139e-07
1.22294e-05
3.9916e-07
1.22295e-05
3.99015e-07
1.22296e-05
3.99097e-07
1.22297e-05
3.99055e-07
1.22297e-05
3.99116e-07
1.22298e-05
3.99007e-07
1.22298e-05
3.99039e-07
1.22299e-05
3.98966e-07
1.22299e-05
3.99004e-07
1.223e-05
3.98872e-07
1.22301e-05
3.98914e-07
1.22301e-05
3.98864e-07
1.22302e-05
3.98935e-07
1.22302e-05
3.98819e-07
1.22303e-05
3.98871e-07
1.22304e-05
3.98811e-07
1.22304e-05
3.98807e-07
1.22305e-05
3.98689e-07
1.22305e-05
3.98743e-07
1.22306e-05
3.98615e-07
1.22307e-05
3.98656e-07
1.22307e-05
3.98652e-07
1.22308e-05
3.98649e-07
1.22308e-05
3.98626e-07
1.22309e-05
3.98532e-07
1.22309e-05
3.98661e-07
1.2231e-05
3.98409e-07
1.2231e-05
3.98735e-07
1.22311e-05
3.98098e-07
1.2231e-05
3.99047e-07
1.22313e-05
3.97586e-07
1.2231e-05
3.99617e-07
1.22315e-05
3.96687e-07
1.22309e-05
4.00656e-07
1.22317e-05
3.95352e-07
1.22308e-05
4.01921e-07
1.2232e-05
3.93981e-07
1.22307e-05
4.03293e-07
1.22322e-05
3.92391e-07
1.22306e-05
4.04884e-07
1.22326e-05
3.90666e-07
1.22304e-05
4.06576e-07
1.22329e-05
3.88793e-07
1.22302e-05
4.08527e-07
1.22332e-05
3.86628e-07
1.223e-05
4.10771e-07
1.22337e-05
3.83843e-07
1.22296e-05
4.14064e-07
1.22342e-05
3.80186e-07
1.22291e-05
4.17806e-07
1.22352e-05
3.75495e-07
1.22285e-05
4.22469e-07
1.22358e-05
3.71956e-07
1.22281e-05
4.24641e-07
1.2236e-05
3.70881e-07
1.22289e-05
4.23203e-07
1.2235e-05
3.75376e-07
1.22301e-05
4.17125e-07
1.22347e-05
3.7963e-07
1.22301e-05
4.15582e-07
1.22345e-05
3.80979e-07
1.22306e-05
4.13002e-07
1.22349e-05
3.81888e-07
1.22301e-05
4.14687e-07
1.22347e-05
3.8068e-07
1.22304e-05
4.15459e-07
1.22373e-05
3.71139e-07
1.22302e-05
4.2531e-07
1.22386e-05
3.65336e-07
1.22297e-05
4.32207e-07
1.2239e-05
3.60517e-07
1.22273e-05
4.41035e-07
1.22391e-05
3.51923e-07
1.2226e-05
4.46789e-07
1.22404e-05
3.45153e-07
1.2225e-05
4.53282e-07
1.22402e-05
3.41917e-07
1.22237e-05
4.55398e-07
1.22397e-05
3.40741e-07
1.22231e-05
4.55515e-07
1.22392e-05
3.40832e-07
1.22248e-05
4.50402e-07
1.22383e-05
3.48546e-07
1.22261e-05
4.42418e-07
1.22371e-05
3.5849e-07
1.22263e-05
4.34414e-07
1.22293e-05
3.83086e-07
1.21755e-05
5.43792e-07
1.26748e-05
-1.06306e-06
1.33272e-05
-1.5788e-06
1.30982e-05
9.68178e-07
1.30147e-05
1.45302e-07
5.59514e-08
1.74793e-05
1.58218e-05
1.63737e-05
7.28236e-06
1.55124e-05
2.82531e-06
1.48951e-05
1.26176e-06
1.44533e-05
8.8317e-07
1.42072e-05
5.42786e-07
1.40318e-05
3.6573e-07
1.3923e-05
2.43151e-07
1.38519e-05
1.38257e-07
1.38122e-05
7.1728e-08
1.37905e-05
1.99365e-08
1.37856e-05
-1.11896e-08
1.37916e-05
-4.71392e-08
1.38054e-05
-6.10084e-08
1.38291e-05
-8.9258e-08
1.38582e-05
-1.02583e-07
1.3893e-05
-1.16561e-07
1.39314e-05
-1.24518e-07
1.39731e-05
-1.34142e-07
1.40194e-05
-1.47263e-07
1.40685e-05
-1.54312e-07
1.41198e-05
-1.59406e-07
1.41728e-05
-1.64143e-07
1.42276e-05
-1.68018e-07
1.42819e-05
-1.67099e-07
1.43316e-05
-1.53603e-07
1.43754e-05
-1.34728e-07
1.44135e-05
-1.16084e-07
1.44463e-05
-9.92966e-08
1.44745e-05
-8.4428e-08
1.44985e-05
-7.15615e-08
1.45188e-05
-6.0357e-08
1.4536e-05
-5.08395e-08
1.45505e-05
-4.27272e-08
1.45628e-05
-3.58917e-08
1.45731e-05
-3.01631e-08
1.45818e-05
-2.53221e-08
1.45891e-05
-2.13582e-08
1.45953e-05
-1.79446e-08
1.46005e-05
-1.52221e-08
1.46049e-05
-1.28156e-08
1.46087e-05
-1.10357e-08
1.46119e-05
-9.45835e-09
1.46147e-05
-7.83492e-09
1.4617e-05
-6.72629e-09
1.46189e-05
-5.5576e-09
1.46206e-05
-5.0605e-09
1.46221e-05
-4.30641e-09
1.46234e-05
-3.87584e-09
1.46245e-05
-2.92124e-09
1.46253e-05
-2.78574e-09
1.4626e-05
-1.35237e-09
1.46266e-05
-2.99889e-09
1.46272e-05
1.96587e-10
1.46277e-05
-4.41552e-09
1.46284e-05
2.75571e-09
1.463e-05
-1.2924e-08
1.46487e-05
-4.65205e-08
1.46291e-05
5.87778e-08
1.42874e-05
1.27992e-06
1.39693e-05
8.0872e-07
1.38682e-05
-1.33883e-07
1.38484e-05
-3.42099e-07
1.38424e-05
-3.56431e-07
1.3851e-05
-4.14939e-07
1.38562e-05
-3.91692e-07
1.38667e-05
-4.23333e-07
1.38717e-05
-3.98319e-07
1.38784e-05
-4.16352e-07
1.38775e-05
-1.48084e-07
1.38766e-05
2.3645e-07
1.38752e-05
1.35625e-07
1.38785e-05
-2.80873e-07
1.38764e-05
-1.13754e-07
1.38796e-05
2.56801e-07
1.38843e-05
1.16717e-07
1.38874e-05
-2.74597e-07
1.38841e-05
-1.0993e-07
1.38831e-05
2.69599e-07
1.3886e-05
1.18303e-07
1.38901e-05
-2.76359e-07
1.38897e-05
-1.18551e-07
1.38896e-05
2.70816e-07
1.38916e-05
1.23063e-07
1.38924e-05
-2.65261e-07
1.38901e-05
-1.12982e-07
1.3889e-05
2.71388e-07
1.38905e-05
1.22467e-07
1.38913e-05
-2.65077e-07
1.38891e-05
-1.14028e-07
1.3888e-05
2.70866e-07
1.38898e-05
1.21349e-07
1.38907e-05
-2.6519e-07
1.38887e-05
-1.14879e-07
1.38877e-05
2.70614e-07
1.38896e-05
1.2083e-07
1.38905e-05
-2.65336e-07
1.38886e-05
-1.14981e-07
1.38877e-05
2.70551e-07
1.38896e-05
1.20646e-07
1.38906e-05
-2.65348e-07
1.38887e-05
-1.15087e-07
1.38878e-05
2.70555e-07
1.38898e-05
1.2053e-07
1.38907e-05
-2.65325e-07
1.38888e-05
-1.15091e-07
1.3888e-05
2.70606e-07
1.38899e-05
1.20567e-07
1.38909e-05
-2.65311e-07
1.3889e-05
-1.15046e-07
1.38881e-05
2.70652e-07
1.38901e-05
1.20647e-07
1.38911e-05
-2.65238e-07
1.38892e-05
-1.15052e-07
1.38883e-05
2.70695e-07
1.38902e-05
1.20718e-07
1.38912e-05
-2.65141e-07
1.38894e-05
-1.15012e-07
1.38885e-05
2.70676e-07
1.38904e-05
1.20771e-07
1.38914e-05
-2.65054e-07
1.38895e-05
-1.14945e-07
1.38887e-05
2.70675e-07
1.38906e-05
1.20767e-07
1.38916e-05
-2.64953e-07
1.38897e-05
-1.14884e-07
1.38888e-05
2.70711e-07
1.38908e-05
1.20826e-07
1.38918e-05
-2.64945e-07
1.38899e-05
-1.14829e-07
1.3889e-05
2.70743e-07
1.3891e-05
1.20894e-07
1.38921e-05
-2.649e-07
1.38902e-05
-1.14845e-07
1.38892e-05
2.70815e-07
1.38912e-05
1.20921e-07
1.38922e-05
-2.64786e-07
1.38904e-05
-1.14765e-07
1.38895e-05
2.70701e-07
1.38914e-05
1.21007e-07
1.38924e-05
-2.64573e-07
1.38906e-05
-1.1492e-07
1.38897e-05
2.71041e-07
1.38917e-05
1.20978e-07
1.38926e-05
-2.64526e-07
1.38908e-05
-1.14648e-07
1.38927e-05
3.02339e-07
1.38964e-05
4.2537e-07
1.38983e-05
3.96377e-07
1.38989e-05
3.97979e-07
1.3899e-05
3.98268e-07
1.38991e-05
3.98091e-07
1.38991e-05
3.97722e-07
1.38991e-05
3.97792e-07
1.38989e-05
3.97807e-07
1.38988e-05
3.9786e-07
1.38986e-05
3.9762e-07
1.38985e-05
3.976e-07
1.38984e-05
3.97383e-07
1.38981e-05
3.97406e-07
1.3898e-05
3.97088e-07
1.3898e-05
3.9706e-07
1.38979e-05
3.97133e-07
1.38978e-05
3.97227e-07
1.38978e-05
3.96798e-07
1.38978e-05
3.96705e-07
1.38979e-05
3.966e-07
1.3898e-05
3.96578e-07
1.38981e-05
3.96496e-07
1.38981e-05
3.96677e-07
1.38981e-05
3.96537e-07
1.38982e-05
3.96724e-07
1.38983e-05
3.96609e-07
1.38983e-05
3.96721e-07
1.38983e-05
3.96689e-07
1.38983e-05
3.96671e-07
1.38984e-05
3.9652e-07
1.38985e-05
3.96626e-07
1.38985e-05
3.96557e-07
1.38985e-05
3.96709e-07
1.38985e-05
3.96552e-07
1.38986e-05
3.9662e-07
1.38987e-05
3.96515e-07
1.38988e-05
3.96601e-07
1.38988e-05
3.96529e-07
1.38988e-05
3.96595e-07
1.38989e-05
3.96476e-07
1.3899e-05
3.96513e-07
1.38991e-05
3.96413e-07
1.38991e-05
3.96548e-07
1.38992e-05
3.96452e-07
1.38992e-05
3.96517e-07
1.38994e-05
3.9634e-07
1.38994e-05
3.96461e-07
1.38994e-05
3.96455e-07
1.38994e-05
3.96526e-07
1.38996e-05
3.96393e-07
1.38997e-05
3.96436e-07
1.38997e-05
3.9635e-07
1.38997e-05
3.96475e-07
1.38998e-05
3.9632e-07
1.38999e-05
3.96356e-07
1.39e-05
3.96246e-07
1.39e-05
3.96352e-07
1.39e-05
3.96275e-07
1.39001e-05
3.96316e-07
1.39002e-05
3.96224e-07
1.39003e-05
3.96252e-07
1.39004e-05
3.96119e-07
1.39004e-05
3.96264e-07
1.39005e-05
3.96193e-07
1.39005e-05
3.96269e-07
1.39006e-05
3.96123e-07
1.39006e-05
3.96165e-07
1.39007e-05
3.96091e-07
1.39007e-05
3.96146e-07
1.39008e-05
3.95979e-07
1.39009e-05
3.96035e-07
1.3901e-05
3.95989e-07
1.3901e-05
3.96085e-07
1.39011e-05
3.95942e-07
1.39011e-05
3.95996e-07
1.39012e-05
3.95927e-07
1.39012e-05
3.95947e-07
1.39013e-05
3.95817e-07
1.39014e-05
3.95868e-07
1.39015e-05
3.95703e-07
1.39015e-05
3.95774e-07
1.39016e-05
3.958e-07
1.39016e-05
3.95811e-07
1.39017e-05
3.95772e-07
1.39017e-05
3.95664e-07
1.39018e-05
3.95811e-07
1.39018e-05
3.95529e-07
1.39018e-05
3.95925e-07
1.3902e-05
3.95163e-07
1.39019e-05
3.96311e-07
1.39021e-05
3.94554e-07
1.39019e-05
3.97021e-07
1.39023e-05
3.93475e-07
1.39019e-05
3.98284e-07
1.39025e-05
3.919e-07
1.39018e-05
3.99783e-07
1.39027e-05
3.9028e-07
1.39018e-05
4.01446e-07
1.3903e-05
3.8838e-07
1.39017e-05
4.03371e-07
1.39032e-05
3.86306e-07
1.39016e-05
4.05423e-07
1.39035e-05
3.84061e-07
1.39014e-05
4.07791e-07
1.39038e-05
3.81461e-07
1.39013e-05
4.10476e-07
1.39042e-05
3.78152e-07
1.3901e-05
4.14425e-07
1.39046e-05
3.73802e-07
1.39007e-05
4.18875e-07
1.39052e-05
3.68147e-07
1.39003e-05
4.24602e-07
1.39059e-05
3.63524e-07
1.38998e-05
4.27956e-07
1.39062e-05
3.61721e-07
1.39007e-05
4.25894e-07
1.39053e-05
3.67968e-07
1.39016e-05
4.17985e-07
1.39051e-05
3.73337e-07
1.39015e-05
4.16337e-07
1.39051e-05
3.74646e-07
1.39018e-05
4.13432e-07
1.39054e-05
3.75463e-07
1.39016e-05
4.15747e-07
1.39052e-05
3.74258e-07
1.39019e-05
4.15998e-07
1.39075e-05
3.62732e-07
1.39021e-05
4.27862e-07
1.39087e-05
3.55947e-07
1.39018e-05
4.36253e-07
1.3909e-05
3.50595e-07
1.38998e-05
4.47445e-07
1.39086e-05
3.40246e-07
1.38987e-05
4.53889e-07
1.39095e-05
3.3157e-07
1.38979e-05
4.62124e-07
1.39095e-05
3.27482e-07
1.38962e-05
4.65853e-07
1.39091e-05
3.25112e-07
1.38956e-05
4.66135e-07
1.39083e-05
3.25344e-07
1.38971e-05
4.58827e-07
1.39078e-05
3.34988e-07
1.38982e-05
4.49306e-07
1.39069e-05
3.46921e-07
1.38982e-05
4.403e-07
1.39004e-05
3.78099e-07
1.38696e-05
5.71682e-07
1.43156e-05
-1.51145e-06
1.49424e-05
-2.20607e-06
1.48278e-05
1.08289e-06
1.47516e-05
2.21496e-07
8.70999e-08
1.81995e-05
1.51222e-05
1.77398e-05
7.74202e-06
1.72115e-05
3.35366e-06
1.65505e-05
1.92276e-06
1.6036e-05
1.39769e-06
1.57011e-05
8.77628e-07
1.54533e-05
6.13579e-07
1.52976e-05
3.98798e-07
1.51908e-05
2.45114e-07
1.51262e-05
1.3628e-07
1.50863e-05
5.9913e-08
1.50692e-05