/*--------------------------------*- C++ -*----------------------------------*\
| =========                 |                                                 |
| \\      /  F ield         | foam-extend: Open Source CFD                    |
|  \\    /   O peration     | Version:     3.2                                |
|   \\  /    A nd           | Web:         http://www.foam-extend.org         |
|    \\/     M anipulation  | For copyright notice see file Copyright         |
\*---------------------------------------------------------------------------*/
FoamFile
{
    version     2.0;
    format      ascii;
    class       areaVectorField;
    location    "50";
    object      PointNormalVector;
}
// * * * * * * * * * * * * * * * * * * * * * * * * * * * * * * * * * * * * * //

dimensions      [0 0 0 0 0 0 0];

internalField   nonuniform List<vector> 
300
(
(5e-06 -0 0.001)
(5e-06 -0 0.001)
(5e-06 -0 0.001)
(5e-06 -0 0.001)
(5e-06 -4.23516e-22 0.001)
(5e-06 -4.23516e-22 0.001)
(5e-06 -4.23516e-22 0.001)
(5e-06 -4.23516e-22 0.001)
(5e-06 -0 0.001)
(5e-06 -4.23516e-22 0.001)
(5e-06 -0 0.001)
(5e-06 4.23516e-22 0.001)
(5e-06 -0 0.001)
(5e-06 4.23516e-22 0.001)
(5e-06 -0 0.001)
(5e-06 -0 0.001)
(5e-06 4.23516e-22 0.001)
(5e-06 -4.23516e-22 0.001)
(5e-06 4.23516e-22 0.001)
(5e-06 -0 0.001)
(5e-06 -0 0.001)
(5e-06 -4.23516e-22 0.001)
(5e-06 -0 0.001)
(5e-06 -0 0.001)
(5e-06 -0 0.001)
(5e-06 -4.23516e-22 0.001)
(5e-06 -0 0.001)
(5e-06 -0 0.001)
(5e-06 -0 0.001)
(5e-06 -4.23516e-22 0.001)
(5e-06 -0 0.001)
(5e-06 -0 0.001)
(5e-06 -0 0.001)
(5e-06 -0 0.001)
(5e-06 -0 0.001)
(5e-06 -0 0.001)
(5e-06 -0 0.001)
(5e-06 -0 0.001)
(5e-06 -0 0.001)
(5e-06 -0 0.001)
(5e-06 -0 0.001)
(5e-06 -4.23516e-22 0.001)
(5e-06 -0 0.001)
(5e-06 -4.23516e-22 0.001)
(5e-06 -0 0.001)
(5e-06 -0 0.001)
(5e-06 -4.23516e-22 0.001)
(5e-06 -0 0.001)
(5e-06 -4.23516e-22 0.001)
(5e-06 -0 0.001)
(5e-06 -0 0.001)
(5e-06 -4.23516e-22 0.001)
(5e-06 -0 0.001)
(5e-06 -4.23516e-22 0.001)
(5e-06 -0 0.001)
(5e-06 -0 0.001)
(5e-06 -4.23516e-22 0.001)
(5e-06 -0 0.001)
(5e-06 -0 0.001)
(1.27093e-05 -0 0.001)
(1.31843e-05 -1.69407e-21 0.001)
(9.45338e-06 8.47033e-22 0.001)
(7.38358e-06 -8.47033e-22 0.001)
(6.79883e-06 -8.47033e-22 0.001)
(5.99806e-06 -0 0.001)
(5.8505e-06 -0 0.001)
(5.45552e-06 -0 0.001)
(5.42444e-06 -4.23516e-22 0.001)
(5.20038e-06 -0 0.001)
(5.19153e-06 -0 0.001)
(5.12232e-06 -4.23516e-22 0.001)
(5.3105e-06 -0 0.001)
(5.07415e-06 -0 0.001)
(5.03312e-06 -0 0.001)
(4.88759e-06 -0 0.001)
(5.00747e-06 -0 0.001)
(4.94196e-06 -4.23516e-22 0.001)
(4.96505e-06 -0 0.001)
(4.95493e-06 -0 0.001)
(5.01333e-06 -0 0.001)
(4.91207e-06 -0 0.001)
(4.86366e-06 -4.23516e-22 0.001)
(4.89398e-06 -4.23516e-22 0.001)
(5.01957e-06 -0 0.001)
(4.99792e-06 -0 0.001)
(4.93867e-06 4.23516e-22 0.001)
(4.96071e-06 -4.23516e-22 0.001)
(5.05257e-06 -0 0.001)
(5.02041e-06 4.23516e-22 0.001)
(4.94592e-06 -4.23516e-22 0.001)
(4.96884e-06 -4.23516e-22 0.001)
(5.05367e-06 -4.23516e-22 0.001)
(5.02415e-06 -0 0.001)
(4.94645e-06 4.23516e-22 0.001)
(4.97131e-06 -0 0.001)
(5.054e-06 -4.23516e-22 0.001)
(5.02577e-06 -4.23516e-22 0.001)
(4.94625e-06 -0 0.001)
(4.97211e-06 -0 0.001)
(5.05344e-06 -4.23516e-22 0.001)
(5.02589e-06 -0 0.001)
(4.94559e-06 4.23516e-22 0.001)
(4.97193e-06 4.23516e-22 0.001)
(5.05297e-06 -0 0.001)
(5.02579e-06 4.23516e-22 0.001)
(4.9451e-06 4.23516e-22 0.001)
(4.97165e-06 -0 0.001)
(5.05262e-06 -4.23516e-22 0.001)
(5.02563e-06 4.23516e-22 0.001)
(4.94493e-06 -0 0.001)
(4.97148e-06 -4.23516e-22 0.001)
(5.05234e-06 -0 0.001)
(5.02546e-06 -0 0.001)
(4.94481e-06 -0 0.001)
(4.97141e-06 -4.23516e-22 0.001)
(5.05223e-06 -0 0.001)
(5.02529e-06 4.23516e-22 0.001)
(4.94463e-06 -4.23516e-22 0.001)
(4.97134e-06 4.23516e-22 0.001)
(5.05215e-06 -4.23516e-22 0.001)
(5.0252e-06 -0 0.001)
(4.9445e-06 -4.23516e-22 0.001)
(4.97116e-06 -0 0.001)
(5.05209e-06 -4.23516e-22 0.001)
(5.02512e-06 -4.23516e-22 0.001)
(4.94445e-06 -4.23516e-22 0.001)
(4.97107e-06 -0 0.001)
(5.05199e-06 -0 0.001)
(5.02501e-06 -0 0.001)
(4.94446e-06 -0 0.001)
(4.97092e-06 -0 0.001)
(5.05195e-06 -4.23516e-22 0.001)
(5.02492e-06 -0 0.001)
(4.94431e-06 -0 0.001)
(4.97098e-06 -0 0.001)
(5.0517e-06 4.23516e-22 0.001)
(5.02471e-06 4.23516e-22 0.001)
(4.94459e-06 4.23516e-22 0.001)
(4.97071e-06 -4.23516e-22 0.001)
(5.05161e-06 -0 0.001)
(5.02576e-06 -0 0.001)
(4.9421e-06 4.23516e-22 0.001)
(4.97249e-06 -0 0.001)
(5.04911e-06 4.23516e-22 0.001)
(5.02643e-06 -0 0.001)
(4.94059e-06 4.23516e-22 0.001)
(4.89686e-06 -4.23516e-22 0.001)
(4.92112e-06 -4.23516e-22 0.001)
(4.93915e-06 -4.23516e-22 0.001)
(4.96502e-06 -0 0.001)
(4.97536e-06 4.23516e-22 0.001)
(4.98069e-06 -4.23516e-22 0.001)
(4.98131e-06 -0 0.001)
(4.98398e-06 -0 0.001)
(4.9866e-06 -0 0.001)
(4.99083e-06 -0 0.001)
(4.99253e-06 4.23516e-22 0.001)
(4.99491e-06 -0 0.001)
(4.99543e-06 4.23516e-22 0.001)
(4.99692e-06 -0 0.001)
(4.99619e-06 -0 0.001)
(4.99713e-06 -0 0.001)
(4.99619e-06 -0 0.001)
(4.99638e-06 -0 0.001)
(4.99662e-06 -0 0.001)
(4.99829e-06 -0 0.001)
(4.99744e-06 -0 0.001)
(4.99815e-06 -0 0.001)
(4.99727e-06 4.23516e-22 0.001)
(4.9978e-06 -0 0.001)
(4.99716e-06 -4.23516e-22 0.001)
(4.99797e-06 -4.23516e-22 0.001)
(4.99726e-06 -0 0.001)
(4.99802e-06 -0 0.001)
(4.99731e-06 -0 0.001)
(4.99788e-06 4.23516e-22 0.001)
(4.99702e-06 -4.23516e-22 0.001)
(4.99793e-06 -0 0.001)
(4.99732e-06 -0 0.001)
(4.99791e-06 -0 0.001)
(4.99703e-06 -0 0.001)
(4.99777e-06 -0 0.001)
(4.99739e-06 -4.23516e-22 0.001)
(4.99806e-06 -0 0.001)
(4.99714e-06 -0 0.001)
(4.99775e-06 -0 0.001)
(4.99704e-06 -0 0.001)
(4.99768e-06 -0 0.001)
(4.99708e-06 4.23516e-22 0.001)
(4.99768e-06 -0 0.001)
(4.997e-06 4.23516e-22 0.001)
(4.99777e-06 -0 0.001)
(4.99711e-06 -4.23516e-22 0.001)
(4.9979e-06 -0 0.001)
(4.99713e-06 -0 0.001)
(4.99764e-06 4.23516e-22 0.001)
(4.99702e-06 -0 0.001)
(4.99778e-06 -0 0.001)
(4.99722e-06 4.23516e-22 0.001)
(4.9979e-06 -0 0.001)
(4.99708e-06 -0 0.001)
(4.99779e-06 -0 0.001)
(4.99716e-06 -0 0.001)
(4.99776e-06 -0 0.001)
(4.99701e-06 4.23516e-22 0.001)
(4.99764e-06 -4.23516e-22 0.001)
(4.99713e-06 -0 0.001)
(4.9978e-06 -0 0.001)
(4.99701e-06 -4.23516e-22 0.001)
(4.99778e-06 -0 0.001)
(4.99725e-06 -0 0.001)
(4.99797e-06 -0 0.001)
(4.99719e-06 -4.23516e-22 0.001)
(4.99773e-06 4.23516e-22 0.001)
(4.99721e-06 -0 0.001)
(4.99794e-06 -0 0.001)
(4.99719e-06 -0 0.001)
(4.99794e-06 -0 0.001)
(4.99738e-06 -0 0.001)
(4.99807e-06 -4.23516e-22 0.001)
(4.99737e-06 -0 0.001)
(4.99793e-06 -0 0.001)
(4.99744e-06 -0 0.001)
(4.9981e-06 4.23516e-22 0.001)
(4.9975e-06 -0 0.001)
(4.99811e-06 -0 0.001)
(4.99743e-06 -0 0.001)
(4.99804e-06 -0 0.001)
(4.99824e-06 -0 0.001)
(4.99835e-06 -0 0.001)
(4.99799e-06 -0 0.001)
(4.99757e-06 -0 0.001)
(4.99852e-06 -0 0.001)
(4.997e-06 -0 0.001)
(5.00004e-06 4.23516e-22 0.001)
(4.99466e-06 -0 0.001)
(5.00359e-06 -4.23516e-22 0.001)
(4.9904e-06 -0 0.001)
(5.00977e-06 -4.23516e-22 0.001)
(4.98252e-06 -0 0.001)
(5.01919e-06 -0 0.001)
(4.97261e-06 -0 0.001)
(5.02952e-06 4.23516e-22 0.001)
(4.96192e-06 -0 0.001)
(5.04134e-06 -0 0.001)
(4.94928e-06 -0 0.001)
(5.05473e-06 -0 0.001)
(4.93579e-06 -0 0.001)
(5.06901e-06 4.23516e-22 0.001)
(4.92074e-06 -0 0.001)
(5.08561e-06 -0 0.001)
(4.90304e-06 4.23516e-22 0.001)
(5.1051e-06 -0 0.001)
(4.87954e-06 -0 0.001)
(5.13306e-06 -0 0.001)
(4.8496e-06 -0 0.001)
(5.16355e-06 4.23516e-22 0.001)
(4.81586e-06 -0 0.001)
(5.19334e-06 -0 0.001)
(4.79472e-06 -4.23516e-22 0.001)
(5.20678e-06 -0 0.001)
(4.78847e-06 4.23516e-22 0.001)
(5.19639e-06 -0 0.001)
(4.82034e-06 -0 0.001)
(5.15584e-06 4.23516e-22 0.001)
(4.84777e-06 4.23516e-22 0.001)
(5.14742e-06 -0 0.001)
(4.85768e-06 4.23516e-22 0.001)
(5.12635e-06 -0 0.001)
(4.86836e-06 -0 0.001)
(5.1391e-06 -0 0.001)
(4.85329e-06 -0 0.001)
(5.15236e-06 -0 0.001)
(4.77524e-06 -4.23516e-22 0.001)
(5.23021e-06 -0 0.001)
(4.72767e-06 -0 0.001)
(5.28503e-06 -0 0.001)
(4.69266e-06 -4.23516e-22 0.001)
(5.36606e-06 -4.23516e-22 0.001)
(4.6303e-06 -0 0.001)
(5.39982e-06 -4.23516e-22 0.001)
(4.58018e-06 -4.23516e-22 0.001)
(5.44839e-06 -0 0.001)
(4.56675e-06 -4.23516e-22 0.001)
(5.46621e-06 -0 0.001)
(4.55912e-06 -0 0.001)
(5.45981e-06 4.23516e-22 0.001)
(4.55077e-06 4.23516e-22 0.001)
(5.43653e-06 -4.23516e-22 0.001)
(4.58417e-06 -4.23516e-22 0.001)
(5.37681e-06 -0 0.001)
(4.65419e-06 -0 0.001)
(5.32211e-06 -0 0.001)
(4.63816e-06 -0 0.001)
(5.30588e-06 -0 0.001)
(-4.23114e-06 -0 0.001)
(-1.27332e-05 -0 0.001)
(5e-06 -0 0.001)
(5e-06 -0 0.001)
(5e-06 -0 0.001)
)
;

boundaryField
{
    inlet
    {
        type            calculated;
        value           uniform (0 0 0);
    }
    outlet
    {
        type            calculated;
        value           uniform (0 0 0);
    }
    sideWall
    {
        type            empty;
    }
}


// ************************************************************************* //
