/*--------------------------------*- C++ -*----------------------------------*\
| =========                 |                                                 |
| \\      /  F ield         | foam-extend: Open Source CFD                    |
|  \\    /   O peration     | Version:     3.2                                |
|   \\  /    A nd           | Web:         http://www.foam-extend.org         |
|    \\/     M anipulation  | For copyright notice see file Copyright         |
\*---------------------------------------------------------------------------*/
FoamFile
{
    version     2.0;
    format      ascii;
    class       areaScalarField;
    location    "50";
    object      Pva;
}
// * * * * * * * * * * * * * * * * * * * * * * * * * * * * * * * * * * * * * //

dimensions      [0 0 0 0 0 0 0];

internalField   nonuniform List<scalar> 
300
(
0.222222
0.222222
0.222222
0.222222
0.222222
0.222222
0.222222
0.222222
0.222222
0.222222
0.222222
0.222222
0.222222
0.222222
0.222222
0.222222
0.222222
0.222222
0.222222
0.222222
0.222222
0.222222
0.222222
0.222222
0.222222
0.222222
0.222222
0.222222
0.222222
0.222222
0.222222
0.222222
0.222222
0.222222
0.222222
0.222222
0.222222
0.222222
0.222222
0.222222
0.222222
0.222222
0.222222
0.222222
0.222222
0.222222
0.222222
0.222222
0.222222
0.222222
0.222222
0.222222
0.222222
0.222222
0.222222
0.222222
0.222222
0.222222
0.222222
0.222222
0.234455
0.235345
0.242267
0.239474
0.245551
0.241251
0.247118
0.24209
0.247878
0.242487
0.245682
0.236245
0.246109
0.23973
0.247395
0.240873
0.247951
0.241676
0.248206
0.241853
0.24842
0.242197
0.248461
0.242039
0.248397
0.242126
0.248344
0.241938
0.248312
0.242082
0.2483
0.241932
0.248289
0.242075
0.248288
0.241925
0.248283
0.242076
0.248286
0.241928
0.248285
0.242078
0.248287
0.241927
0.248282
0.242077
0.248287
0.241926
0.24828
0.242074
0.248283
0.241923
0.248276
0.242069
0.248279
0.241917
0.248273
0.242064
0.248272
0.241912
0.248267
0.242059
0.248268
0.241905
0.248261
0.242053
0.248261
0.241899
0.248254
0.242045
0.248255
0.241891
0.248246
0.242037
0.248247
0.241884
0.248241
0.242029
0.248238
0.241876
0.248232
0.242025
0.248233
0.241882
0.248219
0.242022
0.249131
0.242614
0.248554
0.241986
0.248174
0.241828
0.248094
0.241776
0.248049
0.241736
0.248015
0.241704
0.247986
0.24168
0.247971
0.241666
0.247958
0.241657
0.247948
0.241641
0.247937
0.241635
0.247934
0.241629
0.247927
0.241623
0.247925
0.241617
0.247919
0.241612
0.247917
0.241607
0.247911
0.241603
0.247909
0.241595
0.247903
0.241593
0.247902
0.241587
0.247896
0.241584
0.247894
0.241576
0.247887
0.241572
0.247886
0.241567
0.24788
0.241562
0.247877
0.241557
0.247872
0.241552
0.24787
0.241548
0.247865
0.241542
0.247861
0.241538
0.247858
0.241534
0.247855
0.241527
0.247848
0.241522
0.247847
0.24152
0.247843
0.241515
0.24784
0.241509
0.247834
0.241504
0.247833
0.241501
0.247828
0.241497
0.247826
0.241492
0.24782
0.241488
0.247816
0.241486
0.247813
0.241487
0.247806
0.241488
0.247791
0.241498
0.247769
0.241523
0.247734
0.241562
0.24768
0.241617
0.247607
0.241692
0.247517
0.241788
0.247403
0.241903
0.247269
0.242039
0.247112
0.242196
0.24693
0.242447
0.246654
0.242699
0.246389
0.243155
0.246079
0.24336
0.245814
0.243834
0.245578
0.243883
0.245389
0.244348
0.245224
0.24426
0.245054
0.244899
0.244937
0.244711
0.244218
0.247716
0.243836
0.247301
0.243142
0.24747
0.242351
0.24783
0.24164
0.248332
0.240945
0.248869
0.24036
0.249343
0.239929
0.249799
0.239166
0.250565
0.23848
0.251199
0.237949
0.251682
0.23746
0.251911
0.222222
0.222222
0.222222
0.222222
)
;

boundaryField
{
    inlet
    {
        type            calculated;
        value           uniform 0;
    }
    outlet
    {
        type            calculated;
        value           uniform 0;
    }
    sideWall
    {
        type            empty;
    }
}


// ************************************************************************* //
