/*--------------------------------*- C++ -*----------------------------------*\
| =========                 |                                                 |
| \\      /  F ield         | foam-extend: Open Source CFD                    |
|  \\    /   O peration     | Version:     3.2                                |
|   \\  /    A nd           | Web:         http://www.foam-extend.org         |
|    \\/     M anipulation  | For copyright notice see file Copyright         |
\*---------------------------------------------------------------------------*/
FoamFile
{
    version     2.0;
    format      ascii;
    class       areaScalarField;
    location    "50";
    object      Pvc;
}
// * * * * * * * * * * * * * * * * * * * * * * * * * * * * * * * * * * * * * //

dimensions      [0 0 0 0 0 0 0];

internalField   nonuniform List<scalar> 
300
(
0.777778
0.777778
0.777778
0.777778
0.777778
0.777778
0.777778
0.777778
0.777778
0.777778
0.777778
0.777778
0.777778
0.777778
0.777778
0.777778
0.777778
0.777778
0.777778
0.777778
0.777778
0.777778
0.777778
0.777778
0.777778
0.777778
0.777778
0.777778
0.777778
0.777778
0.777778
0.777778
0.777778
0.777778
0.777778
0.777778
0.777778
0.777778
0.777778
0.777778
0.777778
0.777778
0.777778
0.777778
0.777778
0.777778
0.777778
0.777778
0.777778
0.777778
0.777778
0.777778
0.777778
0.777778
0.777778
0.777778
0.777778
0.777778
0.777778
0.777778
0.765545
0.764655
0.757733
0.760526
0.754449
0.758749
0.752882
0.75791
0.752122
0.757513
0.754318
0.763755
0.753891
0.76027
0.752605
0.759127
0.752049
0.758324
0.751794
0.758147
0.75158
0.757803
0.751539
0.757961
0.751603
0.757874
0.751656
0.758062
0.751688
0.757918
0.7517
0.758068
0.751711
0.757925
0.751712
0.758075
0.751717
0.757924
0.751714
0.758072
0.751715
0.757922
0.751713
0.758073
0.751718
0.757923
0.751713
0.758074
0.75172
0.757926
0.751717
0.758077
0.751724
0.757931
0.751721
0.758083
0.751727
0.757936
0.751728
0.758088
0.751733
0.757941
0.751732
0.758095
0.751739
0.757947
0.751739
0.758101
0.751746
0.757955
0.751745
0.758109
0.751754
0.757963
0.751753
0.758116
0.751759
0.757971
0.751762
0.758124
0.751768
0.757975
0.751767
0.758118
0.751781
0.757978
0.750869
0.757386
0.751446
0.758014
0.751826
0.758172
0.751906
0.758224
0.751951
0.758264
0.751985
0.758296
0.752014
0.75832
0.752029
0.758334
0.752042
0.758343
0.752052
0.758359
0.752063
0.758365
0.752066
0.758371
0.752073
0.758377
0.752075
0.758383
0.752081
0.758388
0.752083
0.758393
0.752089
0.758397
0.752091
0.758405
0.752097
0.758407
0.752098
0.758413
0.752104
0.758416
0.752106
0.758424
0.752113
0.758428
0.752114
0.758433
0.75212
0.758438
0.752123
0.758443
0.752128
0.758448
0.75213
0.758452
0.752135
0.758458
0.752139
0.758462
0.752142
0.758466
0.752145
0.758473
0.752152
0.758478
0.752153
0.75848
0.752157
0.758485
0.75216
0.758491
0.752166
0.758496
0.752167
0.758499
0.752172
0.758503
0.752174
0.758508
0.75218
0.758512
0.752184
0.758514
0.752187
0.758513
0.752194
0.758512
0.752209
0.758502
0.752231
0.758477
0.752266
0.758438
0.75232
0.758383
0.752393
0.758308
0.752483
0.758212
0.752597
0.758097
0.752731
0.757961
0.752888
0.757804
0.75307
0.757553
0.753346
0.757301
0.753611
0.756845
0.753921
0.75664
0.754186
0.756166
0.754422
0.756117
0.754611
0.755652
0.754776
0.75574
0.754946
0.755101
0.755063
0.755289
0.755782
0.752284
0.756164
0.752699
0.756858
0.75253
0.757649
0.75217
0.75836
0.751668
0.759055
0.751131
0.75964
0.750657
0.760071
0.750201
0.760834
0.749435
0.76152
0.748801
0.762051
0.748318
0.76254
0.748089
0.777778
0.777778
0.777778
0.777778
)
;

boundaryField
{
    inlet
    {
        type            calculated;
        value           uniform 0;
    }
    outlet
    {
        type            calculated;
        value           uniform 0;
    }
    sideWall
    {
        type            empty;
    }
}


// ************************************************************************* //
