/*--------------------------------*- C++ -*----------------------------------*\
| =========                 |                                                 |
| \\      /  F ield         | foam-extend: Open Source CFD                    |
|  \\    /   O peration     | Version:     3.2                                |
|   \\  /    A nd           | Web:         http://www.foam-extend.org         |
|    \\/     M anipulation  | For copyright notice see file Copyright         |
\*---------------------------------------------------------------------------*/
FoamFile
{
    version     2.0;
    format      ascii;
    class       volVectorField;
    location    "50";
    object      q_b_slide;
}
// * * * * * * * * * * * * * * * * * * * * * * * * * * * * * * * * * * * * * //

dimensions      [0 2 -1 0 0 0 0];

internalField   uniform (0 0 0);

boundaryField
{
    inlet
    {
        type            calculated;
        value           uniform (0 0 0);
    }
    outlet
    {
        type            calculated;
        value           uniform (0 0 0);
    }
    sideWall
    {
        type            empty;
    }
    bed
    {
        type            calculated;
        value           nonuniform List<vector> 
300
(
(0.000350821 -4.49286e-29 -1.7541e-06)
(0.000199047 5.18143e-29 -9.95235e-07)
(0.000119419 1.41838e-29 -5.97096e-07)
(0.000121297 0 -6.06485e-07)
(0.000113411 -1.06849e-26 -5.67054e-07)
(0.00011438 -3.35748e-27 -5.71902e-07)
(0.000111088 -4.24098e-27 -5.55438e-07)
(0.000111146 -7.49794e-28 -5.55731e-07)
(0.000109894 0 -5.49472e-07)
(0.000110442 -5.55681e-28 -5.52212e-07)
(0.000110471 0 -5.52353e-07)
(0.000111332 8.88044e-28 -5.56659e-07)
(0.000112041 -1.02927e-31 -5.60206e-07)
(0.000113279 1.22095e-27 -5.66396e-07)
(0.000114358 0 -5.71791e-07)
(0.00011586 0 -5.793e-07)
(0.000117281 1.47399e-27 -5.86407e-07)
(0.000118924 -1.38169e-27 -5.94618e-07)
(0.000120524 1.57333e-27 -6.02618e-07)
(0.000122331 0 -6.11654e-07)
(0.000124194 0 -6.20969e-07)
(0.000126115 -1.57737e-27 -6.30576e-07)
(0.000128079 0 -6.40395e-07)
(0.00013007 0 -6.5035e-07)
(0.000132085 0 -6.60427e-07)
(0.000134017 -1.33791e-27 -6.70084e-07)
(0.000135724 -4.17369e-31 -6.78619e-07)
(0.000137176 0 -6.85882e-07)
(0.000138406 0 -6.92029e-07)
(0.000139434 -5.35586e-28 -6.97169e-07)
(0.0001403 -2.32786e-31 -7.01502e-07)
(0.000141019 0 -7.05095e-07)
(0.000141625 0 -7.08127e-07)
(0.000142124 0 -7.10621e-07)
(0.000142548 -1.19026e-31 -7.1274e-07)
(0.000142893 0 -7.14466e-07)
(0.000143192 0 -7.1596e-07)
(0.000143431 -7.12029e-32 -7.17153e-07)
(0.000143645 0 -7.18223e-07)
(0.000143809 0 -7.19046e-07)
(0.000143967 0 -7.19834e-07)
(0.000144079 -4.5292e-29 -7.20395e-07)
(0.000144202 0 -7.21008e-07)
(0.000144277 -2.47307e-29 -7.21383e-07)
(0.00014437 0 -7.21849e-07)
(0.000144415 -1.74927e-32 -7.22074e-07)
(0.000144493 -3.70175e-29 -7.22467e-07)
(0.000144513 0 -7.22566e-07)
(0.000144599 -4.10573e-29 -7.22997e-07)
(0.000144571 0 -7.22853e-07)
(0.000144707 0 -7.23533e-07)
(0.000144566 1.49253e-28 -7.22831e-07)
(0.00014484 0 -7.242e-07)
(0.000144461 3.93896e-28 -7.22305e-07)
(0.000145102 0 -7.2551e-07)
(0.00014413 0 -7.2065e-07)
(0.000145708 -1.60258e-27 -7.2854e-07)
(0.00014335 2.06585e-31 -7.16751e-07)
(0.000147894 3.39408e-30 -7.39469e-07)
(0.000134056 0 -1.70376e-06)
(0.000103185 4.05277e-27 -1.36042e-06)
(9.44334e-05 1.13572e-26 -8.92714e-07)
(9.09109e-05 -2.32021e-27 -6.71248e-07)
(8.83838e-05 1.70457e-27 -6.00906e-07)
(8.69323e-05 -4.92344e-31 -5.21425e-07)
(8.59649e-05 -2.32054e-31 -5.02937e-07)
(8.52085e-05 2.67928e-31 -4.64857e-07)
(8.48153e-05 9.52944e-28 -4.60075e-07)
(8.43722e-05 0 -4.38768e-07)
(8.44595e-05 0 -4.38474e-07)
(0.000116814 -1.47361e-27 -5.98357e-07)
(0.000116796 0 -6.20243e-07)
(8.35127e-05 -5.61598e-31 -4.23756e-07)
(8.36246e-05 0 -4.20893e-07)
(0.000116495 0 -5.69379e-07)
(0.000116842 0 -5.85083e-07)
(8.36633e-05 4.68423e-28 -4.13461e-07)
(8.38343e-05 0 -4.16241e-07)
(0.000116487 9.34155e-31 -5.77184e-07)
(0.000116703 1.85285e-30 -5.8507e-07)
(8.37321e-05 -6.21658e-31 -4.11298e-07)
(8.4041e-05 -1.17e-27 -4.08747e-07)
(0.000116675 -9.26428e-28 -5.71006e-07)
(0.000116808 1.92211e-30 -5.86327e-07)
(8.41068e-05 6.56996e-31 -4.2036e-07)
(8.42228e-05 1.17802e-27 -4.15948e-07)
(0.000116656 -9.15157e-28 -5.78695e-07)
(0.000116765 1.88641e-30 -5.89965e-07)
(8.41229e-05 -5.84188e-28 -4.22331e-07)
(8.42164e-05 -1.19567e-27 -4.16528e-07)
(0.000116637 -8.85324e-28 -5.79552e-07)
(0.000116742 1.70952e-27 -5.89978e-07)
(8.41246e-05 0 -4.22654e-07)
(8.42112e-05 1.20169e-27 -4.16547e-07)
(0.000116634 0 -5.79821e-07)
(0.000116734 1.67927e-27 -5.89977e-07)
(8.41282e-05 6.24644e-28 -4.22809e-07)
(8.42116e-05 0 -4.16532e-07)
(0.000116637 0 -5.7993e-07)
(0.000116735 1.67363e-27 -5.89913e-07)
(8.41343e-05 0 -4.2285e-07)
(8.42168e-05 1.22814e-27 -4.16502e-07)
(0.000116641 8.37764e-28 -5.79933e-07)
(0.000116739 0 -5.89877e-07)
(8.41432e-05 -6.29037e-28 -4.22886e-07)
(8.42254e-05 1.22896e-27 -4.16504e-07)
(0.000116648 0 -5.79932e-07)
(0.000116745 1.67238e-27 -5.89866e-07)
(8.41534e-05 -6.29553e-28 -4.22924e-07)
(8.42357e-05 0 -4.1654e-07)
(0.000116654 -8.35489e-28 -5.7994e-07)
(0.00011675 1.87351e-30 -5.89863e-07)
(8.41643e-05 0 -4.22964e-07)
(8.42465e-05 0 -4.16583e-07)
(0.000116659 -8.37154e-28 -5.7996e-07)
(0.000116756 0 -5.89877e-07)
(8.41754e-05 -6.31804e-28 -4.23006e-07)
(8.42578e-05 -1.23087e-27 -4.16624e-07)
(0.000116664 8.35816e-28 -5.79979e-07)
(0.000116761 1.66752e-27 -5.89895e-07)
(8.41872e-05 0 -4.23057e-07)
(8.42696e-05 -1.22935e-27 -4.16671e-07)
(0.00011667 0 -5.79986e-07)
(0.000116767 1.67135e-27 -5.89917e-07)
(8.41996e-05 6.30736e-28 -4.23113e-07)
(8.42822e-05 -1.23039e-27 -4.16729e-07)
(0.000116676 0 -5.80005e-07)
(0.000116773 0 -5.89936e-07)
(8.42124e-05 0 -4.23168e-07)
(8.42953e-05 -1.34906e-30 -4.16795e-07)
(0.000116683 -9.11734e-31 -5.80019e-07)
(0.00011678 1.66813e-27 -5.89964e-07)
(8.4226e-05 -6.54497e-31 -4.23229e-07)
(8.43094e-05 0 -4.16852e-07)
(0.000116689 -9.11788e-31 -5.8006e-07)
(0.000116787 -1.6694e-27 -5.89971e-07)
(8.42406e-05 -6.32597e-28 -4.23285e-07)
(8.43242e-05 1.23097e-27 -4.16948e-07)
(0.000116695 -8.36283e-28 -5.8006e-07)
(0.000116796 -1.87283e-30 -5.90009e-07)
(8.42536e-05 -6.5569e-31 -4.23439e-07)
(8.43408e-05 1.23278e-27 -4.16821e-07)
(0.000116704 0 -5.80307e-07)
(0.000116799 -1.66548e-27 -5.89729e-07)
(8.42703e-05 0 -4.23578e-07)
(8.43527e-05 1.23515e-27 -4.16752e-07)
(0.000116701 -8.74712e-28 -5.71466e-07)
(0.000116587 6.16319e-28 -5.7374e-07)
(0.000116495 2.68892e-28 -5.75388e-07)
(0.000116447 0 -5.78162e-07)
(0.000116422 -3.99043e-29 -5.79239e-07)
(0.000116404 2.43584e-29 -5.79773e-07)
(0.000116397 0 -5.7981e-07)
(0.000116392 -4.13238e-33 -5.80094e-07)
(0.000116388 -4.33164e-33 -5.8038e-07)
(0.000116381 0 -5.80837e-07)
(0.000116376 2.35801e-30 -5.81013e-07)
(0.000116371 0 -5.81261e-07)
(0.000116367 2.04017e-30 -5.81302e-07)
(0.000116363 -2.7376e-33 -5.81458e-07)
(0.000116362 0 -5.81368e-07)
(0.00011636 0 -5.81466e-07)
(0.000116359 0 -5.81354e-07)
(0.000116357 0 -5.81362e-07)
(0.000116355 6.83742e-34 -5.81379e-07)
(0.000116354 2.00215e-33 -5.8157e-07)
(0.000116357 0 -5.81486e-07)
(0.000116358 -1.78319e-33 -5.81573e-07)
(0.000116361 -1.96423e-30 -5.81486e-07)
(0.000116361 0 -5.81551e-07)
(0.000116365 -3.38195e-30 -5.81493e-07)
(0.000116366 1.96544e-30 -5.81593e-07)
(0.000116368 0 -5.81519e-07)
(0.000116369 2.83626e-34 -5.81614e-07)
(0.000116371 -2.43559e-34 -5.81544e-07)
(0.000116372 -3.90927e-30 -5.81614e-07)
(0.000116375 -3.0175e-30 -5.81528e-07)
(0.000116376 2.12223e-34 -5.81638e-07)
(0.000116378 0 -5.81579e-07)
(0.000116379 1.50786e-34 -5.81653e-07)
(0.000116382 0 -5.81564e-07)
(0.000116383 2.83552e-34 -5.81658e-07)
(0.000116386 -3.86616e-30 -5.81625e-07)
(0.000116387 0 -5.81707e-07)
(0.000116389 0 -5.81614e-07)
(0.00011639 3.14645e-34 -5.81691e-07)
(0.000116394 -6.71781e-34 -5.81624e-07)
(0.000116395 0 -5.81704e-07)
(0.000116398 4.17472e-30 -5.81651e-07)
(0.0001164 1.5684e-34 -5.81728e-07)
(0.000116403 4.79195e-30 -5.81665e-07)
(0.000116404 3.15282e-34 -5.81761e-07)
(0.000116408 -3.36729e-30 -5.81702e-07)
(0.000116408 -5.11009e-34 -5.81797e-07)
(0.000116411 0 -5.81722e-07)
(0.000116413 8.70941e-31 -5.8179e-07)
(0.000116416 -5.28743e-34 -5.81734e-07)
(0.000116418 0 -5.81829e-07)
(0.00011642 4.23978e-30 -5.81777e-07)
(0.000116421 -6.2858e-35 -5.81862e-07)
(0.000116425 0 -5.81783e-07)
(0.000116426 6.70356e-35 -5.81875e-07)
(0.00011643 0 -5.81819e-07)
(0.000116431 0 -5.81895e-07)
(0.000116434 4.56891e-30 -5.81822e-07)
(0.000116436 1.31721e-30 -5.81904e-07)
(0.000116439 0 -5.81862e-07)
(0.000116441 5.32527e-34 -5.81947e-07)
(0.000116444 -5.00621e-30 -5.81873e-07)
(0.000116446 1.50263e-34 -5.81973e-07)
(0.000116449 0 -5.81924e-07)
(0.00011645 -1.53645e-34 -5.82015e-07)
(0.000116453 -5.4877e-30 -5.81937e-07)
(0.000116455 3.35939e-32 -5.82008e-07)
(0.000116457 9.50431e-34 -5.81962e-07)
(0.000116459 0 -5.82054e-07)
(0.000116462 0 -5.81985e-07)
(0.000116464 0 -5.82082e-07)
(0.000116467 0 -5.8203e-07)
(0.000116468 -7.59242e-31 -5.82118e-07)
(0.000116471 0 -5.82049e-07)
(0.000116473 0 -5.82124e-07)
(0.000116476 0 -5.82079e-07)
(0.000116477 -5.25792e-30 -5.82166e-07)
(0.000116479 0 -5.82104e-07)
(0.000116481 1.00483e-33 -5.82183e-07)
(0.000116482 0 -5.82111e-07)
(0.000116486 0 -5.82203e-07)
(0.000116487 0 -5.82231e-07)
(0.000116493 0 -5.82274e-07)
(0.000116489 0 -5.82211e-07)
(0.0001165 1.31855e-33 -5.82214e-07)
(0.000116489 0 -5.82274e-07)
(0.000116509 5.75332e-34 -5.82195e-07)
(0.000116484 -1.31927e-29 -5.82423e-07)
(0.000116525 3.21737e-33 -5.82003e-07)
(0.000116475 5.10963e-29 -5.82792e-07)
(0.000116544 0 -5.81603e-07)
(0.00011646 1.21225e-28 -5.83438e-07)
(0.000116568 -5.10842e-33 -5.808e-07)
(0.000116445 0 -5.84462e-07)
(0.000116588 0 -5.79746e-07)
(0.000116434 -3.33928e-28 -5.85607e-07)
(0.000116607 1.72772e-32 -5.78596e-07)
(0.00011642 0 -5.86915e-07)
(0.000116628 -2.56897e-32 -5.77225e-07)
(0.000116406 0 -5.88402e-07)
(0.00011665 0 -5.7576e-07)
(0.000116388 -7.18272e-28 -5.89975e-07)
(0.000116678 0 -5.7414e-07)
(0.000116364 0 -5.91781e-07)
(0.000116711 9.8279e-28 -5.72241e-07)
(0.000116332 0 -5.93884e-07)
(0.000116753 0 -5.69702e-07)
(0.000116301 0 -5.96982e-07)
(0.000116778 -9.21006e-32 -5.66324e-07)
(0.000116297 -1.58593e-27 -6.00505e-07)
(0.000116769 0 -5.62342e-07)
(0.000116349 0 -6.04241e-07)
(0.0001167 -1.78661e-27 -5.59543e-07)
(0.000116438 -1.58546e-31 -6.06269e-07)
(0.000116611 1.76883e-27 -5.58386e-07)
(0.000116542 0 -6.05599e-07)
(0.000116536 0 -5.61745e-07)
(0.000116569 -1.90967e-27 -6.01011e-07)
(0.000116578 1.46957e-27 -5.65143e-07)
(0.000116519 0 -5.99772e-07)
(0.000116619 1.3847e-27 -5.66498e-07)
(0.000116465 0 -5.9704e-07)
(0.000116735 0 -5.68308e-07)
(0.000116339 -9.82265e-32 -5.97876e-07)
(0.000116857 0 -5.67141e-07)
(0.000116187 -6.4508e-32 -5.98638e-07)
(0.000117049 -2.13406e-27 -5.58936e-07)
(0.000116172 -1.37355e-31 -6.07604e-07)
(0.000117083 0 -5.53531e-07)
(0.00011615 0 -6.13854e-07)
(0.000117125 -3.12183e-27 -5.49629e-07)
(0.000116088 3.36979e-27 -6.22933e-07)
(0.000117067 0 -5.42053e-07)
(0.000116117 3.69719e-27 -6.27013e-07)
(0.000117016 -3.84767e-27 -5.35956e-07)
(0.000116206 -3.36067e-31 -6.33133e-07)
(0.00011688 -4.0045e-27 -5.33763e-07)
(0.000116302 3.47108e-31 -6.35733e-07)
(0.000116729 0 -5.32182e-07)
(0.000116408 -3.90128e-27 -6.35566e-07)
(0.00011656 4.47007e-27 -5.30438e-07)
(0.000116615 4.20505e-27 -6.3398e-07)
(0.00011635 -3.25402e-27 -5.33368e-07)
(0.000116851 -7.6328e-31 -6.28287e-07)
(0.0001161 -6.85754e-31 -5.40352e-07)
(0.000117166 0 -6.23569e-07)
(0.000115563 0 -5.36001e-07)
(0.00011754 0 -6.23654e-07)
(0.000110845 1.68079e-29 4.69002e-07)
(0.000165702 -1.61935e-29 2.10992e-06)
(0.000159698 0 -7.9849e-07)
(0.00013864 0 -6.93202e-07)
(0.000145319 0 -7.26593e-07)
)
;
    }
    topWall
    {
        type            calculated;
        value           uniform (0 0 0);
    }
}


// ************************************************************************* //
