/*--------------------------------*- C++ -*----------------------------------*\
| =========                 |                                                 |
| \\      /  F ield         | foam-extend: Open Source CFD                    |
|  \\    /   O peration     | Version:     3.2                                |
|   \\  /    A nd           | Web:         http://www.foam-extend.org         |
|    \\/     M anipulation  | For copyright notice see file Copyright         |
\*---------------------------------------------------------------------------*/
FoamFile
{
    version     2.0;
    format      ascii;
    class       edgeScalarField;
    location    "50";
    object      q_f;
}
// * * * * * * * * * * * * * * * * * * * * * * * * * * * * * * * * * * * * * //

dimensions      [0 3 -1 0 0 0 0];

internalField   nonuniform List<scalar> 
299
(
5.49875e-06
3.1847e-06
2.40719e-06
2.34711e-06
2.27794e-06
2.25471e-06
2.22237e-06
2.21043e-06
2.2034e-06
2.20916e-06
2.21805e-06
2.23376e-06
2.25323e-06
2.2764e-06
2.30221e-06
2.33144e-06
2.36208e-06
2.3945e-06
2.42857e-06
2.46528e-06
2.50312e-06
2.54197e-06
2.58152e-06
2.62159e-06
2.66105e-06
2.69744e-06
2.72904e-06
2.75586e-06
2.77843e-06
2.79738e-06
2.81323e-06
2.82648e-06
2.83753e-06
2.84676e-06
2.85445e-06
2.86089e-06
2.86626e-06
2.87079e-06
2.87457e-06
2.87779e-06
2.88049e-06
2.88284e-06
2.88482e-06
2.8865e-06
2.88788e-06
2.88912e-06
2.8901e-06
2.89116e-06
2.89174e-06
2.89281e-06
2.89277e-06
2.8941e-06
2.89305e-06
2.89567e-06
2.89236e-06
2.89842e-06
2.89062e-06
2.91248e-06
2.81963e-06
2.37261e-06
1.97631e-06
1.85351e-06
1.79299e-06
1.7532e-06
1.729e-06
1.71176e-06
1.70026e-06
1.6919e-06
1.68834e-06
2.01276e-06
2.33612e-06
2.00311e-06
1.67139e-06
2.00122e-06
2.3334e-06
2.00508e-06
1.675e-06
2.00324e-06
2.33193e-06
2.00438e-06
1.67775e-06
2.00719e-06
2.33486e-06
2.00918e-06
1.68332e-06
2.00881e-06
2.33424e-06
2.00891e-06
1.68341e-06
2.00856e-06
2.33383e-06
2.0087e-06
1.68338e-06
2.00847e-06
2.33371e-06
2.00865e-06
1.68342e-06
2.00851e-06
2.33374e-06
2.00872e-06
1.68353e-06
2.00861e-06
2.33383e-06
2.00885e-06
1.68371e-06
2.00876e-06
2.33395e-06
2.009e-06
1.68391e-06
2.00892e-06
2.33407e-06
2.00917e-06
1.68413e-06
2.00908e-06
2.33418e-06
2.00934e-06
1.68435e-06
2.00925e-06
2.33429e-06
2.00951e-06
1.68459e-06
2.00942e-06
2.3344e-06
2.00969e-06
1.68484e-06
2.00961e-06
2.33452e-06
2.00988e-06
1.6851e-06
2.0098e-06
2.33465e-06
2.01008e-06
1.68538e-06
2.01001e-06
2.33479e-06
2.0103e-06
1.68567e-06
2.01022e-06
2.33494e-06
2.01052e-06
1.68596e-06
2.01047e-06
2.33505e-06
2.01071e-06
1.68625e-06
2.01056e-06
2.33291e-06
2.33086e-06
2.32945e-06
2.32872e-06
2.32829e-06
2.32804e-06
2.32792e-06
2.32782e-06
2.32772e-06
2.3276e-06
2.3275e-06
2.3274e-06
2.32733e-06
2.32728e-06
2.32725e-06
2.32722e-06
2.32719e-06
2.32714e-06
2.32711e-06
2.32713e-06
2.32717e-06
2.32721e-06
2.32725e-06
2.32729e-06
2.32733e-06
2.32736e-06
2.32739e-06
2.32743e-06
2.32746e-06
2.3275e-06
2.32754e-06
2.32757e-06
2.3276e-06
2.32764e-06
2.32768e-06
2.32772e-06
2.32775e-06
2.32779e-06
2.32783e-06
2.32787e-06
2.32791e-06
2.32796e-06
2.32801e-06
2.32805e-06
2.3281e-06
2.32815e-06
2.32819e-06
2.32822e-06
2.32827e-06
2.32832e-06
2.32837e-06
2.32841e-06
2.32844e-06
2.32849e-06
2.32854e-06
2.32859e-06
2.32864e-06
2.32868e-06
2.32873e-06
2.32878e-06
2.32883e-06
2.32888e-06
2.32894e-06
2.32898e-06
2.32902e-06
2.32906e-06
2.3291e-06
2.32915e-06
2.32919e-06
2.32924e-06
2.3293e-06
2.32934e-06
2.32938e-06
2.32942e-06
2.32947e-06
2.32951e-06
2.32956e-06
2.32959e-06
2.32963e-06
2.32966e-06
2.32971e-06
2.32976e-06
2.32983e-06
2.32985e-06
2.32992e-06
2.32992e-06
2.33001e-06
2.32995e-06
2.33012e-06
2.33003e-06
2.33022e-06
2.33008e-06
2.33031e-06
2.33016e-06
2.33036e-06
2.33025e-06
2.33044e-06
2.33031e-06
2.33051e-06
2.33037e-06
2.33059e-06
2.33041e-06
2.33069e-06
2.33044e-06
2.33078e-06
2.33046e-06
2.33088e-06
2.33057e-06
2.33082e-06
2.33078e-06
2.33069e-06
2.33121e-06
2.33052e-06
2.33141e-06
2.33052e-06
2.33156e-06
2.33082e-06
2.33108e-06
2.3315e-06
2.331e-06
2.33141e-06
2.33087e-06
2.33203e-06
2.33077e-06
2.33199e-06
2.33047e-06
2.33239e-06
2.33224e-06
2.33258e-06
2.33236e-06
2.33278e-06
2.33216e-06
2.33157e-06
2.33187e-06
2.33137e-06
2.33225e-06
2.33089e-06
2.33185e-06
2.33034e-06
2.3314e-06
2.32971e-06
2.33178e-06
2.32968e-06
2.33204e-06
2.32954e-06
2.33269e-06
2.32732e-06
2.33106e-06
2.28388e-06
2.7656e-06
3.25415e-06
2.98342e-06
2.83963e-06
)
;

boundaryField
{
    inlet
    {
        type            calculated;
        value           uniform -7.01649e-06;
    }
    outlet
    {
        type            calculated;
        value           uniform 2.89686e-06;
    }
    sideWall
    {
        type            empty;
    }
}


// ************************************************************************* //
