/*--------------------------------*- C++ -*----------------------------------*\
| =========                 |                                                 |
| \\      /  F ield         | foam-extend: Open Source CFD                    |
|  \\    /   O peration     | Version:     3.2                                |
|   \\  /    A nd           | Web:         http://www.foam-extend.org         |
|    \\/     M anipulation  | For copyright notice see file Copyright         |
\*---------------------------------------------------------------------------*/
FoamFile
{
    version     2.0;
    format      ascii;
    class       areaScalarField;
    location    "50";
    object      SSd1;
}
// * * * * * * * * * * * * * * * * * * * * * * * * * * * * * * * * * * * * * //

dimensions      [0 1 -2 -1 0 0 0];

internalField   nonuniform List<scalar> 
300
(
0.000538232
0.000538232
0.000538232
0.000538232
0.000538232
0.000538232
0.000538232
0.000538232
0.000538232
0.000538232
0.000538232
0.000538232
0.000538232
0.000538232
0.000538232
0.000538232
0.000538232
0.000538232
0.000538232
0.000538232
0.000538232
0.000538232
0.000538232
0.000538232
0.000538232
0.000538232
0.000538232
0.000538232
0.000538232
0.000538232
0.000538232
0.000538232
0.000538232
0.000538232
0.000538232
0.000538232
0.000538232
0.000538232
0.000538232
0.000538232
0.000538232
0.000538232
0.000538232
0.000538232
0.000538232
0.000538232
0.000538232
0.000538232
0.000538232
0.000538232
0.000538232
0.000538232
0.000538232
0.000538232
0.000538232
0.000538232
0.000538232
0.000538232
0.000538233
0.000538232
0.00053899
0.000538948
0.000539298
0.00053928
0.000539307
0.000539421
0.000539288
0.000539479
0.000539274
0.000539577
0.000537049
0.000537449
0.000539446
0.000539737
0.000537022
0.00053749
0.000539585
0.000539824
0.000536997
0.000537426
0.000539601
0.000540012
0.000537305
0.000537691
0.000539747
0.000540068
0.000537327
0.000537699
0.000539746
0.000540071
0.000537333
0.000537705
0.000539753
0.000540078
0.000537341
0.000537714
0.000539762
0.000540088
0.000537352
0.000537726
0.000539776
0.000540103
0.000537367
0.000537742
0.000539793
0.00054012
0.000537386
0.000537761
0.000539812
0.00054014
0.000537407
0.000537782
0.000539833
0.000540162
0.000537429
0.000537805
0.000539856
0.000540185
0.000537452
0.000537829
0.000539881
0.00054021
0.000537478
0.000537855
0.000539907
0.000540237
0.000537505
0.000537883
0.000539935
0.000540266
0.000537535
0.000537913
0.000539965
0.000540297
0.000537566
0.000537945
0.000539998
0.000540329
0.0005376
0.00053798
0.000540031
0.000540368
0.000537635
0.000538017
0.000540068
0.000540406
0.000537702
0.000538067
0.000537766
0.000538068
0.000537764
0.000538072
0.000537779
0.000538095
0.000537802
0.000538114
0.000537817
0.000538129
0.000537833
0.000538145
0.00053785
0.000538164
0.00053787
0.000538186
0.000537892
0.000538206
0.000537914
0.000538231
0.00053794
0.000538258
0.000537967
0.000538286
0.000537995
0.000538314
0.000538024
0.000538344
0.000538055
0.000538375
0.000538086
0.000538406
0.000538118
0.00053844
0.000538152
0.000538474
0.000538186
0.000538509
0.000538223
0.000538547
0.000538261
0.000538586
0.000538301
0.000538626
0.000538341
0.000538667
0.000538382
0.000538709
0.000538426
0.000538754
0.00053847
0.000538799
0.000538516
0.000538846
0.000538564
0.000538894
0.000538613
0.000538944
0.000538664
0.000538995
0.000538716
0.000539048
0.000538769
0.000539101
0.000538822
0.000539156
0.000538877
0.000539211
0.000538933
0.000539267
0.000538989
0.000539324
0.000539046
0.000539381
0.000539103
0.000539438
0.00053916
0.000539496
0.000539217
0.000539553
0.000539274
0.00053961
0.00053933
0.000539669
0.000539386
0.000539727
0.000539439
0.000539788
0.000539489
0.00053985
0.000539535
0.000539915
0.000539579
0.000539979
0.000539622
0.000540042
0.000539664
0.000540104
0.000539705
0.000540165
0.000539743
0.000540227
0.000539776
0.000540289
0.000539803
0.000540352
0.000539826
0.000540413
0.000539852
0.000540454
0.000539894
0.000540476
0.000539955
0.000540461
0.000540032
0.000540434
0.000540107
0.000540424
0.000540118
0.000540447
0.000540152
0.000540454
0.000540109
0.000540517
0.00054011
0.000540493
0.000540046
0.000540571
0.00054005
0.000540616
0.000539994
0.000540615
0.000540002
0.00054062
0.000540016
0.000540543
0.000540023
0.00054045
0.000540045
0.000540362
0.000540151
0.000540224
0.000540295
0.000540056
0.000540439
0.000539908
0.000540593
0.000539814
0.000541057
0.000541066
0.000541067
0.000541061
)
;

boundaryField
{
    inlet
    {
        type            calculated;
        value           uniform 0;
    }
    outlet
    {
        type            calculated;
        value           uniform 0;
    }
    sideWall
    {
        type            empty;
    }
}


// ************************************************************************* //
