/*--------------------------------*- C++ -*----------------------------------*\
| =========                 |                                                 |
| \\      /  F ield         | foam-extend: Open Source CFD                    |
|  \\    /   O peration     | Version:     3.2                                |
|   \\  /    A nd           | Web:         http://www.foam-extend.org         |
|    \\/     M anipulation  | For copyright notice see file Copyright         |
\*---------------------------------------------------------------------------*/
FoamFile
{
    version     2.0;
    format      ascii;
    class       areaScalarField;
    location    "50";
    object      tau;
}
// * * * * * * * * * * * * * * * * * * * * * * * * * * * * * * * * * * * * * //

dimensions      [1 1 2 0 0 0 0];

internalField   nonuniform List<scalar> 
300
(
5.72248
3.62224
2.67355
2.69675
2.59875
2.61089
2.56957
2.57031
2.55453
2.56144
2.5618
2.57265
2.58157
2.5971
2.61061
2.62936
2.64705
2.66742
2.68721
2.70949
2.73238
2.75591
2.77989
2.80413
2.82858
2.85195
2.87256
2.89006
2.90485
2.91719
2.92759
2.9362
2.94347
2.94944
2.95451
2.95864
2.96221
2.96506
2.96762
2.96959
2.97147
2.97281
2.97427
2.97517
2.97628
2.97682
2.97776
2.97799
2.97902
2.97868
2.9803
2.97863
2.9819
2.97737
2.98502
2.97342
2.99225
2.9641
3.01829
2.91144
2.65119
2.63584
2.64162
2.63846
2.63988
2.64007
2.63951
2.64043
2.63901
2.64308
2.64105
2.64069
2.63804
2.64045
2.63728
2.64153
2.63944
2.64114
2.63712
2.6398
2.63843
2.64122
2.63952
2.6411
2.63973
2.64097
2.63922
2.64054
2.63936
2.64052
2.63898
2.64026
2.63925
2.64034
2.63893
2.64016
2.63925
2.64031
2.63897
2.64016
2.6393
2.64034
2.63903
2.64021
2.63937
2.64041
2.63911
2.64028
2.63945
2.64048
2.63918
2.64035
2.63952
2.64055
2.63925
2.64042
2.63959
2.64062
2.63932
2.64049
2.63966
2.64069
2.63939
2.64056
2.63973
2.64076
2.63946
2.64064
2.6398
2.64084
2.63954
2.64072
2.63988
2.64092
2.63963
2.64081
2.63997
2.64101
2.6397
2.64092
2.64004
2.64113
2.6398
2.64096
2.64013
2.64114
2.63982
2.63835
2.63721
2.63658
2.63626
2.63604
2.63595
2.63588
2.63583
2.63574
2.63568
2.63561
2.63556
2.63551
2.6355
2.63547
2.63546
2.63543
2.63541
2.63539
2.63543
2.63544
2.63548
2.63549
2.63553
2.63554
2.63557
2.63558
2.63561
2.63562
2.63566
2.63567
2.6357
2.63571
2.63575
2.63576
2.63579
2.6358
2.63584
2.63585
2.63589
2.63591
2.63595
2.63597
2.63601
2.63602
2.63606
2.63607
2.63611
2.63613
2.63617
2.63619
2.63622
2.63624
2.63628
2.6363
2.63634
2.63636
2.63639
2.63641
2.63646
2.63648
2.63652
2.63655
2.63658
2.63659
2.63663
2.63665
2.63669
2.6367
2.63675
2.63677
2.6368
2.63682
2.63685
2.63688
2.63691
2.63693
2.63695
2.63697
2.63699
2.63704
2.63705
2.63713
2.63708
2.63721
2.63708
2.63732
2.63701
2.63753
2.63689
2.63777
2.63671
2.63807
2.63652
2.63833
2.63636
2.63858
2.63618
2.63885
2.636
2.63913
2.63576
2.63949
2.63544
2.63993
2.63502
2.64046
2.63462
2.64079
2.63454
2.64071
2.63517
2.63988
2.63627
2.63877
2.63757
2.63782
2.63794
2.63831
2.63732
2.63881
2.63667
2.64025
2.63508
2.64178
2.63318
2.64423
2.63293
2.6447
2.6326
2.64525
2.63176
2.64458
2.6321
2.644
2.63316
2.64232
2.63435
2.64044
2.63567
2.63835
2.63826
2.6357
2.64126
2.63253
2.64522
2.62585
2.64989
2.57429
3.24538
3.15819
2.90766
2.98761
)
;

boundaryField
{
    inlet
    {
        type            calculated;
        value           uniform 0;
    }
    outlet
    {
        type            calculated;
        value           uniform 0;
    }
    sideWall
    {
        type            empty;
    }
}


// ************************************************************************* //
