/*--------------------------------*- C++ -*----------------------------------*\
| =========                 |                                                 |
| \\      /  F ield         | foam-extend: Open Source CFD                    |
|  \\    /   O peration     | Version:     3.2                                |
|   \\  /    A nd           | Web:         http://www.foam-extend.org         |
|    \\/     M anipulation  | For copyright notice see file Copyright         |
\*---------------------------------------------------------------------------*/
FoamFile
{
    version     2.0;
    format      ascii;
    class       areaScalarField;
    location    "50";
    object      tauCB;
}
// * * * * * * * * * * * * * * * * * * * * * * * * * * * * * * * * * * * * * //

dimensions      [1 1 2 0 0 0 0];

internalField   nonuniform List<scalar> 
300
(
0.246313
0.246313
0.246313
0.246313
0.246313
0.246313
0.246313
0.246313
0.246313
0.246313
0.246313
0.246313
0.246313
0.246313
0.246313
0.246313
0.246313
0.246313
0.246313
0.246313
0.246313
0.246313
0.246313
0.246313
0.246313
0.246313
0.246313
0.246313
0.246313
0.246313
0.246313
0.246313
0.246313
0.246313
0.246313
0.246313
0.246313
0.246313
0.246313
0.246313
0.246313
0.246313
0.246313
0.246313
0.246313
0.246313
0.246313
0.246313
0.246313
0.246313
0.246313
0.246313
0.246313
0.246313
0.246313
0.246313
0.246313
0.246313
0.246313
0.272068
0.331019
0.380287
0.407203
0.423299
0.434357
0.441417
0.446609
0.449946
0.452457
0.453941
0.246266
0.246194
0.458288
0.458722
0.246356
0.24631
0.457902
0.457535
0.24633
0.246308
0.45687
0.456058
0.246354
0.246305
0.454789
0.454592
0.246328
0.246293
0.45448
0.454406
0.246325
0.246292
0.454408
0.454352
0.246324
0.246292
0.454382
0.454332
0.246324
0.246292
0.454364
0.454313
0.246324
0.246293
0.454336
0.454283
0.246324
0.246293
0.454299
0.454245
0.246324
0.246293
0.454256
0.454201
0.246324
0.246293
0.45421
0.454153
0.246324
0.246293
0.45416
0.454103
0.246324
0.246293
0.454107
0.454049
0.246324
0.246293
0.454051
0.453992
0.246324
0.246293
0.453993
0.453933
0.246324
0.246293
0.453931
0.453872
0.246324
0.246293
0.453871
0.453809
0.246324
0.246294
0.453794
0.45373
0.246352
0.246343
0.246336
0.246326
0.246322
0.24632
0.24632
0.246319
0.246318
0.246316
0.246316
0.246315
0.246315
0.246314
0.246314
0.246314
0.246314
0.246314
0.246314
0.246314
0.246314
0.246314
0.246314
0.246314
0.246314
0.246314
0.246314
0.246314
0.246314
0.246314
0.246314
0.246314
0.246314
0.246314
0.246314
0.246314
0.246314
0.246314
0.246314
0.246314
0.246314
0.246314
0.246314
0.246314
0.246314
0.246314
0.246314
0.246314
0.246314
0.246314
0.246314
0.246314
0.246314
0.246314
0.246314
0.246314
0.246314
0.246314
0.246314
0.246314
0.246314
0.246314
0.246314
0.246314
0.246314
0.246314
0.246314
0.246314
0.246314
0.246314
0.246314
0.246314
0.246314
0.246314
0.246314
0.246314
0.246314
0.246314
0.246314
0.246314
0.246314
0.246314
0.246314
0.246314
0.246314
0.246314
0.246314
0.246314
0.246313
0.246315
0.246312
0.246317
0.246309
0.24632
0.246306
0.246323
0.246302
0.246328
0.246297
0.246332
0.246292
0.246338
0.246287
0.246343
0.24628
0.24635
0.246273
0.246359
0.246262
0.246371
0.24625
0.246384
0.246239
0.246392
0.246234
0.246394
0.246238
0.246382
0.246253
0.246371
0.246256
0.246367
0.246265
0.246363
0.24626
0.246369
0.246255
0.246399
0.246225
0.246417
0.246204
0.246431
0.246173
0.246455
0.24616
0.246474
0.246141
0.246479
0.246134
0.246482
0.246137
0.246485
0.246146
0.246472
0.246169
0.246445
0.24619
0.246452
0.246196
0.249839
0.253068
0.246313
0.246313
0.246313
)
;

boundaryField
{
    inlet
    {
        type            calculated;
        value           uniform 0;
    }
    outlet
    {
        type            calculated;
        value           uniform 0;
    }
    sideWall
    {
        type            empty;
    }
}


// ************************************************************************* //
