/*--------------------------------*- C++ -*----------------------------------*\
| =========                 |                                                 |
| \\      /  F ield         | foam-extend: Open Source CFD                    |
|  \\    /   O peration     | Version:     3.2                                |
|   \\  /    A nd           | Web:         http://www.foam-extend.org         |
|    \\/     M anipulation  | For copyright notice see file Copyright         |
\*---------------------------------------------------------------------------*/
FoamFile
{
    version     2.0;
    format      ascii;
    class       areaScalarField;
    location    "50";
    object      tauCSS1;
}
// * * * * * * * * * * * * * * * * * * * * * * * * * * * * * * * * * * * * * //

dimensions      [1 1 2 0 0 0 0];

internalField   nonuniform List<scalar> 
300
(
0.0368752
0.0368752
0.0368752
0.0368752
0.0368752
0.0368752
0.0368752
0.0368752
0.0368752
0.0368752
0.0368752
0.0368752
0.0368752
0.0368752
0.0368752
0.0368752
0.0368752
0.0368752
0.0368752
0.0368752
0.0368752
0.0368752
0.0368752
0.0368752
0.0368752
0.0368752
0.0368752
0.0368752
0.0368752
0.0368752
0.0368752
0.0368752
0.0368752
0.0368752
0.0368752
0.0368752
0.0368752
0.0368752
0.0368752
0.0368752
0.0368752
0.0368752
0.0368752
0.0368752
0.0368752
0.0368752
0.0368752
0.0368752
0.0368752
0.0368752
0.0368752
0.0368752
0.0368752
0.0368752
0.0368752
0.0368752
0.0368752
0.0368752
0.0368752
0.0407309
0.0495564
0.0569323
0.0609619
0.0633716
0.065027
0.0660839
0.0668612
0.0673608
0.0677368
0.0679589
0.0368682
0.0368574
0.0686098
0.0686747
0.0368816
0.0368748
0.0685519
0.0684969
0.0368778
0.0368744
0.0683974
0.0682759
0.0368813
0.0368741
0.0680859
0.0680564
0.0368774
0.0368722
0.0680397
0.0680285
0.036877
0.0368721
0.0680288
0.0680204
0.0368768
0.0368721
0.0680249
0.0680175
0.0368768
0.0368721
0.0680222
0.0680146
0.0368768
0.0368722
0.0680181
0.0680102
0.0368768
0.0368722
0.0680125
0.0680045
0.0368768
0.0368722
0.0680061
0.0679979
0.0368768
0.0368722
0.0679992
0.0679907
0.0368768
0.0368722
0.0679917
0.0679831
0.0368768
0.0368722
0.0679837
0.067975
0.0368769
0.0368722
0.0679753
0.0679666
0.0368769
0.0368722
0.0679666
0.0679578
0.0368769
0.0368722
0.0679574
0.0679485
0.0368769
0.0368722
0.0679484
0.0679391
0.0368768
0.0368724
0.0679368
0.0679273
0.0368811
0.0368797
0.0368787
0.0368772
0.0368766
0.0368763
0.0368763
0.0368761
0.036876
0.0368757
0.0368756
0.0368755
0.0368755
0.0368754
0.0368754
0.0368754
0.0368754
0.0368754
0.0368754
0.0368753
0.0368753
0.0368753
0.0368753
0.0368753
0.0368754
0.0368753
0.0368753
0.0368753
0.0368753
0.0368753
0.0368754
0.0368753
0.0368753
0.0368753
0.0368754
0.0368753
0.0368753
0.0368753
0.0368754
0.0368753
0.0368754
0.0368753
0.0368754
0.0368753
0.0368754
0.0368753
0.0368754
0.0368753
0.0368754
0.0368753
0.0368754
0.0368753
0.0368754
0.0368753
0.0368754
0.0368753
0.0368754
0.0368753
0.0368754
0.0368753
0.0368754
0.0368753
0.0368754
0.0368753
0.0368754
0.0368753
0.0368754
0.0368753
0.0368754
0.0368753
0.0368754
0.0368753
0.0368753
0.0368753
0.0368753
0.0368753
0.0368753
0.0368753
0.0368753
0.0368753
0.0368753
0.0368753
0.0368753
0.0368753
0.0368753
0.0368753
0.0368753
0.0368754
0.0368752
0.0368755
0.036875
0.0368757
0.0368746
0.0368762
0.0368741
0.0368768
0.0368735
0.0368774
0.0368728
0.0368781
0.0368721
0.0368789
0.0368712
0.0368797
0.0368703
0.0368808
0.0368692
0.0368821
0.0368676
0.0368838
0.0368658
0.0368858
0.0368641
0.036887
0.0368633
0.0368873
0.0368639
0.0368855
0.0368663
0.0368839
0.0368667
0.0368834
0.0368679
0.0368827
0.0368672
0.0368836
0.0368665
0.0368881
0.036862
0.0368908
0.0368588
0.0368928
0.0368542
0.0368964
0.0368523
0.0368993
0.0368495
0.0369
0.0368484
0.0369005
0.0368488
0.036901
0.0368502
0.036899
0.0368536
0.036895
0.0368567
0.0368959
0.0368576
0.0374031
0.0378864
0.0368752
0.0368752
0.0368752
)
;

boundaryField
{
    inlet
    {
        type            calculated;
        value           uniform 0;
    }
    outlet
    {
        type            calculated;
        value           uniform 0;
    }
    sideWall
    {
        type            empty;
    }
}


// ************************************************************************* //
