/*--------------------------------*- C++ -*----------------------------------*\
| =========                 |                                                 |
| \\      /  F ield         | foam-extend: Open Source CFD                    |
|  \\    /   O peration     | Version:     3.2                                |
|   \\  /    A nd           | Web:         http://www.foam-extend.org         |
|    \\/     M anipulation  | For copyright notice see file Copyright         |
\*---------------------------------------------------------------------------*/
FoamFile
{
    version     2.0;
    format      ascii;
    class       volScalarField;
    location    "50";
    object      testS;
}
// * * * * * * * * * * * * * * * * * * * * * * * * * * * * * * * * * * * * * //

dimensions      [0 0 0 0 0 0 0];

internalField   uniform 0;

boundaryField
{
    inlet
    {
        type            calculated;
        value           uniform 0;
    }
    outlet
    {
        type            calculated;
        value           uniform 0;
    }
    sideWall
    {
        type            empty;
    }
    bed
    {
        type            calculated;
        value           nonuniform List<scalar> 
300
(
1.83266
0.917734
0.578766
0.586422
0.554313
0.558256
0.54487
0.545108
0.540022
0.542248
0.542362
0.545861
0.548744
0.553777
0.558165
0.564275
0.57006
0.576747
0.583267
0.590638
0.598243
0.606094
0.614129
0.622286
0.630553
0.638488
0.645511
0.651496
0.656567
0.660811
0.664392
0.667364
0.669874
0.671939
0.673695
0.675126
0.676363
0.677353
0.678241
0.678923
0.679577
0.680043
0.680552
0.680863
0.68125
0.681437
0.681763
0.681834
0.682192
0.682073
0.682638
0.682055
0.683192
0.681618
0.68428
0.680244
0.686798
0.67701
0.695883
0.471642
0.300028
0.261401
0.248179
0.236811
0.232429
0.22762
0.22576
0.22349
0.222686
0.222146
0.566397
0.56378
0.218932
0.219157
0.568319
0.568101
0.220156
0.220513
0.567361
0.567454
0.220963
0.222213
0.568972
0.567798
0.222193
0.222846
0.567972
0.56717
0.222248
0.222886
0.567785
0.567061
0.222266
0.2229
0.567736
0.567024
0.222276
0.222912
0.567737
0.567034
0.222295
0.222935
0.567759
0.567056
0.222326
0.222969
0.567788
0.567084
0.222365
0.223008
0.567814
0.567112
0.222407
0.223051
0.567838
0.567135
0.222452
0.223097
0.567861
0.567158
0.222499
0.223145
0.567887
0.567183
0.222549
0.223196
0.567912
0.567208
0.222602
0.223248
0.56794
0.567236
0.222657
0.223305
0.567968
0.567268
0.222716
0.223362
0.567996
0.567308
0.222764
0.223439
0.568005
0.567352
0.22283
0.22351
0.569033
0.568222
0.567602
0.567049
0.566803
0.56666
0.566622
0.566563
0.566511
0.566425
0.566384
0.566328
0.566304
0.56627
0.566275
0.566254
0.566264
0.566251
0.566239
0.566212
0.566236
0.566231
0.566255
0.566251
0.566273
0.566266
0.566283
0.566279
0.566298
0.566293
0.566316
0.566308
0.566325
0.566321
0.566345
0.566341
0.566356
0.56635
0.566373
0.566369
0.566392
0.566389
0.566411
0.566408
0.566431
0.566425
0.566448
0.566441
0.566462
0.566462
0.566484
0.56648
0.566498
0.566493
0.566517
0.566516
0.566538
0.566535
0.566557
0.566555
0.566577
0.566573
0.566599
0.566596
0.566613
0.566609
0.566631
0.56663
0.566649
0.566645
0.56667
0.566668
0.566686
0.566682
0.566703
0.566703
0.56672
0.566718
0.566733
0.566732
0.566746
0.566756
0.566756
0.566779
0.566767
0.566816
0.56676
0.566861
0.566717
0.566959
0.566632
0.567096
0.566488
0.567298
0.5663
0.567516
0.566111
0.567742
0.565895
0.568001
0.565656
0.568275
0.565389
0.568594
0.565063
0.568976
0.564667
0.56947
0.564164
0.569983
0.563734
0.570414
0.563541
0.570425
0.563722
0.570145
0.564284
0.569401
0.564942
0.569191
0.564852
0.569223
0.56492
0.56955
0.564234
0.570257
0.56344
0.572123
0.562327
0.572926
0.561498
0.573585
0.560159
0.574217
0.559829
0.574713
0.559536
0.574341
0.559687
0.573826
0.560199
0.573249
0.561343
0.571917
0.563098
0.569914
0.565105
0.567934
0.566852
0.54541
0.620794
0.745898
0.657495
0.685183
)
;
    }
    topWall
    {
        type            calculated;
        value           uniform 0;
    }
}


// ************************************************************************* //
