/*--------------------------------*- C++ -*----------------------------------*\
| =========                 |                                                 |
| \\      /  F ield         | foam-extend: Open Source CFD                    |
|  \\    /   O peration     | Version:     3.2                                |
|   \\  /    A nd           | Web:         http://www.foam-extend.org         |
|    \\/     M anipulation  | For copyright notice see file Copyright         |
\*---------------------------------------------------------------------------*/
FoamFile
{
    version     2.0;
    format      ascii;
    class       areaScalarField;
    location    "50";
    object      thetaSS1init;
}
// * * * * * * * * * * * * * * * * * * * * * * * * * * * * * * * * * * * * * //

dimensions      [0 0 0 0 0 0 0];

internalField   nonuniform List<scalar> 
300
(
14.5978
9.24029
6.82012
6.87932
6.62931
6.6603
6.55492
6.5568
6.51652
6.53416
6.53506
6.56275
6.5855
6.62514
6.65956
6.70744
6.75249
6.80454
6.85495
6.91184
6.97018
7.03025
7.09135
7.15323
7.21551
7.27518
7.32766
7.37236
7.40996
7.44153
7.46794
7.49001
7.50843
7.52379
7.53659
7.54729
7.55622
7.56372
7.57001
7.57532
7.57981
7.58365
7.58696
7.58973
7.5921
7.59401
7.59581
7.59713
7.59859
7.59942
7.60076
7.601
7.60269
7.60162
7.60518
7.60053
7.60953
7.59585
7.62314
7.52379
7.24294
7.19513
7.21676
7.19752
7.20535
7.20084
7.20309
7.20213
7.20301
7.20265
7.20272
7.20287
7.20286
7.20292
7.2032
7.20311
7.20299
7.20318
7.20317
7.20316
7.20322
7.20305
7.20322
7.20333
7.20313
7.20333
7.2034
7.20347
7.2035
7.20324
7.20321
7.20312
7.20314
7.20329
7.20297
7.203
7.20336
7.20321
7.20301
7.20317
7.20325
7.20317
7.20304
7.20304
7.20324
7.20324
7.20305
7.20316
7.20338
7.20328
7.20315
7.20309
7.20321
7.2034
7.20325
7.20323
7.20333
7.20329
7.20328
7.20324
7.20328
7.20339
7.2033
7.20324
7.20336
7.2032
7.20301
7.20326
7.20324
7.20311
7.20324
7.20323
7.20334
7.20338
7.20316
7.20322
7.20325
7.20324
7.20329
7.20348
7.20356
7.20323
7.20325
7.20328
7.20301
7.2031
7.20338
7.20359
7.20361
7.2033
7.20337
7.20349
7.20321
7.20322
7.20339
7.20356
7.20354
7.20329
7.20337
7.20344
7.20322
7.20324
7.20336
7.20351
7.20349
7.20328
7.20335
7.20339
7.20321
7.20324
7.2033
7.20344
7.20344
7.20327
7.20333
7.20332
7.20318
7.2032
7.20323
7.20335
7.20335
7.20323
7.20326
7.20322
7.20315
7.20317
7.20315
7.20323
7.20323
7.20315
7.20318
7.20314
7.2031
7.2031
7.20307
7.20312
7.20313
7.20307
7.20307
7.20304
7.20301
7.20301
7.20299
7.203
7.20301
7.20297
7.20296
7.20295
7.20293
7.20293
7.20292
7.20291
7.20291
7.2029
7.20289
7.20288
7.20288
7.20288
7.20288
7.20288
7.20288
7.20288
7.20288
7.20288
7.20288
7.20288
7.20288
7.20288
7.20288
7.20288
7.20288
7.20288
7.20288
7.20288
7.20288
7.20288
7.20288
7.20288
7.20288
7.20288
7.20288
7.20288
7.20288
7.20288
7.20288
7.20288
7.20288
7.20288
7.20288
7.20288
7.20288
7.20288
7.20288
7.20288
7.20288
7.20288
7.20288
7.20288
7.20288
7.20288
7.20288
7.20288
7.20288
7.20288
7.20288
7.20288
7.20288
7.20288
7.20288
7.20288
7.20288
7.20288
7.20288
7.20288
7.20288
7.20288
7.20288
7.20288
7.20288
7.20288
7.20287
7.20289
7.20286
7.20292
7.2028
7.20303
7.20262
7.20334
7.20207
7.20429
7.20045
7.20703
7.19566
7.21756
7.17463
7.22478
7.54928
7.61012
7.58783
7.60798
)
;

boundaryField
{
    inlet
    {
        type            calculated;
        value           uniform 0;
    }
    outlet
    {
        type            calculated;
        value           uniform 0;
    }
    sideWall
    {
        type            empty;
    }
}


// ************************************************************************* //
