/*--------------------------------*- C++ -*----------------------------------*\
| =========                 |                                                 |
| \\      /  F ield         | foam-extend: Open Source CFD                    |
|  \\    /   O peration     | Version:     3.2                                |
|   \\  /    A nd           | Web:         http://www.foam-extend.org         |
|    \\/     M anipulation  | For copyright notice see file Copyright         |
\*---------------------------------------------------------------------------*/
FoamFile
{
    version     2.0;
    format      ascii;
    class       areaScalarField;
    location    "50";
    object      thetaCSS1;
}
// * * * * * * * * * * * * * * * * * * * * * * * * * * * * * * * * * * * * * //

dimensions      [0 0 0 0 0 0 0];

internalField   nonuniform List<scalar> 
300
(
0.0940675
0.0940675
0.0940675
0.0940675
0.0940675
0.0940675
0.0940675
0.0940675
0.0940675
0.0940675
0.0940675
0.0940675
0.0940675
0.0940675
0.0940675
0.0940675
0.0940675
0.0940675
0.0940675
0.0940675
0.0940675
0.0940675
0.0940675
0.0940675
0.0940675
0.0940675
0.0940675
0.0940675
0.0940675
0.0940675
0.0940675
0.0940675
0.0940675
0.0940675
0.0940675
0.0940675
0.0940675
0.0940675
0.0940675
0.0940675
0.0940675
0.0940675
0.0940675
0.0940675
0.0940675
0.0940675
0.0940675
0.0940675
0.0940675
0.0940675
0.0940675
0.0940675
0.0940675
0.0940675
0.0940675
0.0940675
0.0940675
0.0940675
0.0940675
0.103903
0.126417
0.145233
0.155512
0.161659
0.165882
0.168578
0.170561
0.171835
0.172795
0.173361
0.0940496
0.0940221
0.175022
0.175187
0.094084
0.0940665
0.174874
0.174734
0.0940741
0.0940656
0.17448
0.17417
0.0940831
0.0940647
0.173685
0.17361
0.0940733
0.0940599
0.173567
0.173539
0.0940721
0.0940597
0.173539
0.173518
0.0940717
0.0940596
0.173529
0.173511
0.0940716
0.0940597
0.173523
0.173503
0.0940717
0.0940598
0.173512
0.173492
0.0940717
0.0940598
0.173498
0.173477
0.0940717
0.0940599
0.173482
0.173461
0.0940717
0.0940599
0.173464
0.173442
0.0940717
0.0940599
0.173445
0.173423
0.0940718
0.0940599
0.173424
0.173402
0.0940718
0.0940599
0.173403
0.173381
0.0940718
0.0940599
0.173381
0.173358
0.0940718
0.09406
0.173357
0.173335
0.0940718
0.09406
0.173334
0.173311
0.0940716
0.0940604
0.173305
0.173281
0.0940826
0.0940791
0.0940764
0.0940727
0.0940712
0.0940704
0.0940703
0.0940699
0.0940695
0.0940689
0.0940686
0.0940683
0.0940682
0.094068
0.0940681
0.094068
0.0940681
0.0940681
0.094068
0.0940678
0.0940679
0.0940678
0.0940679
0.0940679
0.094068
0.0940678
0.0940679
0.0940678
0.0940679
0.0940679
0.094068
0.0940678
0.0940679
0.0940679
0.094068
0.0940679
0.0940679
0.0940678
0.094068
0.0940679
0.094068
0.0940679
0.094068
0.0940679
0.094068
0.0940679
0.094068
0.0940679
0.094068
0.0940679
0.094068
0.0940679
0.094068
0.0940679
0.094068
0.0940679
0.094068
0.0940679
0.094068
0.0940679
0.094068
0.0940679
0.094068
0.0940679
0.0940679
0.0940678
0.094068
0.0940679
0.094068
0.0940678
0.094068
0.0940678
0.0940679
0.0940678
0.0940679
0.0940678
0.0940679
0.0940678
0.0940679
0.0940678
0.0940679
0.0940678
0.0940678
0.0940678
0.0940678
0.0940679
0.0940678
0.094068
0.0940675
0.0940683
0.094067
0.0940689
0.0940661
0.0940701
0.0940647
0.0940716
0.0940632
0.0940731
0.0940615
0.094075
0.0940595
0.0940769
0.0940574
0.0940791
0.094055
0.0940817
0.0940522
0.0940852
0.0940481
0.0940895
0.0940436
0.0940945
0.0940393
0.0940976
0.0940373
0.0940985
0.0940388
0.0940938
0.0940447
0.0940898
0.094046
0.0940884
0.0940491
0.0940868
0.0940472
0.094089
0.0940453
0.0941004
0.0940339
0.0941074
0.0940258
0.0941125
0.094014
0.0941216
0.094009
0.094129
0.0940019
0.0941309
0.0939993
0.094132
0.0940003
0.0941333
0.0940037
0.0941284
0.0940124
0.0941181
0.0940204
0.0941205
0.0940228
0.0954142
0.0966471
0.0940675
0.0940675
0.0940675
)
;

boundaryField
{
    inlet
    {
        type            calculated;
        value           uniform 0;
    }
    outlet
    {
        type            calculated;
        value           uniform 0;
    }
    sideWall
    {
        type            empty;
    }
}


// ************************************************************************* //
