/*--------------------------------*- C++ -*----------------------------------*\
| =========                 |                                                 |
| \\      /  F ield         | foam-extend: Open Source CFD                    |
|  \\    /   O peration     | Version:     3.2                                |
|   \\  /    A nd           | Web:         http://www.foam-extend.org         |
|    \\/     M anipulation  | For copyright notice see file Copyright         |
\*---------------------------------------------------------------------------*/
FoamFile
{
    version     2.0;
    format      ascii;
    class       areaScalarField;
    location    "50";
    object      thetaCB;
}
// * * * * * * * * * * * * * * * * * * * * * * * * * * * * * * * * * * * * * //

dimensions      [0 0 0 0 0 0 0];

internalField   nonuniform List<scalar> 
300
(
0.0317025
0.0317025
0.0317025
0.0317025
0.0317025
0.0317025
0.0317025
0.0317025
0.0317025
0.0317025
0.0317025
0.0317025
0.0317025
0.0317025
0.0317025
0.0317025
0.0317025
0.0317025
0.0317025
0.0317025
0.0317025
0.0317025
0.0317025
0.0317025
0.0317025
0.0317025
0.0317025
0.0317025
0.0317025
0.0317025
0.0317025
0.0317025
0.0317025
0.0317025
0.0317025
0.0317025
0.0317025
0.0317025
0.0317025
0.0317025
0.0317025
0.0317025
0.0317025
0.0317025
0.0317025
0.0317025
0.0317025
0.0317025
0.0317025
0.0317025
0.0317025
0.0317025
0.0317025
0.0317025
0.0317025
0.0317025
0.0317025
0.0317025
0.0317025
0.0350173
0.0426048
0.0489461
0.0524103
0.054482
0.0559052
0.0568139
0.0574821
0.0579116
0.0582349
0.0584258
0.0316964
0.0316872
0.0589854
0.0590412
0.031708
0.0317021
0.0589357
0.0588884
0.0317047
0.0317018
0.0588028
0.0586984
0.0317077
0.0317015
0.0585351
0.0585097
0.0317044
0.0316999
0.0584953
0.0584857
0.031704
0.0316998
0.0584859
0.0584787
0.0317039
0.0316998
0.0584826
0.0584762
0.0317038
0.0316998
0.0584803
0.0584737
0.0317039
0.0316999
0.0584767
0.0584699
0.0317039
0.0316999
0.058472
0.058465
0.0317039
0.0316999
0.0584665
0.0584594
0.0317039
0.0316999
0.0584605
0.0584532
0.0317039
0.0316999
0.0584541
0.0584467
0.0317039
0.0316999
0.0584472
0.0584397
0.0317039
0.0316999
0.05844
0.0584325
0.0317039
0.0316999
0.0584325
0.0584249
0.0317039
0.0316999
0.0584246
0.058417
0.0317039
0.0316999
0.0584169
0.0584089
0.0317038
0.0317
0.0584069
0.0583987
0.0317076
0.0317064
0.0317055
0.0317042
0.0317037
0.0317034
0.0317034
0.0317033
0.0317031
0.0317029
0.0317028
0.0317027
0.0317027
0.0317026
0.0317027
0.0317026
0.0317027
0.0317026
0.0317026
0.0317026
0.0317026
0.0317026
0.0317026
0.0317026
0.0317026
0.0317026
0.0317026
0.0317026
0.0317026
0.0317026
0.0317026
0.0317026
0.0317026
0.0317026
0.0317026
0.0317026
0.0317026
0.0317026
0.0317026
0.0317026
0.0317026
0.0317026
0.0317026
0.0317026
0.0317026
0.0317026
0.0317026
0.0317026
0.0317026
0.0317026
0.0317026
0.0317026
0.0317026
0.0317026
0.0317026
0.0317026
0.0317026
0.0317026
0.0317026
0.0317026
0.0317026
0.0317026
0.0317026
0.0317026
0.0317026
0.0317026
0.0317026
0.0317026
0.0317026
0.0317026
0.0317026
0.0317026
0.0317026
0.0317026
0.0317026
0.0317026
0.0317026
0.0317026
0.0317026
0.0317026
0.0317026
0.0317026
0.0317026
0.0317026
0.0317026
0.0317026
0.0317025
0.0317026
0.0317025
0.0317027
0.0317023
0.0317029
0.031702
0.0317033
0.0317015
0.0317038
0.031701
0.0317043
0.0317004
0.031705
0.0316998
0.0317056
0.0316991
0.0317064
0.0316982
0.0317073
0.0316973
0.0317084
0.0316959
0.0317099
0.0316944
0.0317115
0.0316929
0.0317126
0.0316923
0.0317129
0.0316928
0.0317113
0.0316948
0.03171
0.0316952
0.0317095
0.0316962
0.031709
0.0316956
0.0317097
0.031695
0.0317136
0.0316911
0.0317159
0.0316884
0.0317176
0.0316844
0.0317207
0.0316828
0.0317232
0.0316804
0.0317238
0.0316795
0.0317242
0.0316798
0.0317246
0.0316809
0.031723
0.0316839
0.0317195
0.0316866
0.0317203
0.0316874
0.0321563
0.0325718
0.0317025
0.0317025
0.0317025
)
;

boundaryField
{
    inlet
    {
        type            calculated;
        value           uniform 0;
    }
    outlet
    {
        type            calculated;
        value           uniform 0;
    }
    sideWall
    {
        type            empty;
    }
}


// ************************************************************************* //
