/*--------------------------------*- C++ -*----------------------------------*\
| =========                 |                                                 |
| \\      /  F ield         | foam-extend: Open Source CFD                    |
|  \\    /   O peration     | Version:     3.2                                |
|   \\  /    A nd           | Web:         http://www.foam-extend.org         |
|    \\/     M anipulation  | For copyright notice see file Copyright         |
\*---------------------------------------------------------------------------*/
FoamFile
{
    version     2.0;
    format      ascii;
    class       areaScalarField;
    location    "50";
    object      thetaSS2init;
}
// * * * * * * * * * * * * * * * * * * * * * * * * * * * * * * * * * * * * * //

dimensions      [0 0 0 0 0 0 0];

internalField   nonuniform List<scalar> 
300
(
9.6738
6.12342
4.5196
4.55883
4.39315
4.41369
4.34385
4.3451
4.31841
4.3301
4.3307
4.34905
4.36412
4.39039
4.4132
4.44493
4.47479
4.50927
4.54268
4.58038
4.61905
4.65885
4.69934
4.74035
4.78162
4.82117
4.85594
4.88556
4.91048
4.9314
4.9489
4.96353
4.97574
4.98591
4.9944
5.00149
5.00741
5.01237
5.01654
5.02007
5.02304
5.02558
5.02778
5.02961
5.03118
5.03245
5.03364
5.03452
5.03548
5.03603
5.03692
5.03708
5.0382
5.03749
5.03985
5.03677
5.04273
5.03367
5.05175
4.98592
4.7998
4.76812
4.78245
4.7697
4.77489
4.7719
4.77339
4.77275
4.77334
4.7731
4.77315
4.77325
4.77324
4.77328
4.77346
4.7734
4.77333
4.77345
4.77344
4.77343
4.77348
4.77336
4.77348
4.77355
4.77342
4.77355
4.7736
4.77364
4.77366
4.77349
4.77347
4.77341
4.77342
4.77352
4.77331
4.77333
4.77357
4.77347
4.77334
4.77344
4.7735
4.77344
4.77336
4.77336
4.77349
4.77349
4.77336
4.77343
4.77358
4.77352
4.77343
4.77339
4.77347
4.7736
4.77349
4.77348
4.77355
4.77353
4.77352
4.77349
4.77352
4.77359
4.77353
4.77349
4.77357
4.77346
4.77334
4.7735
4.77349
4.7734
4.77349
4.77348
4.77356
4.77359
4.77344
4.77348
4.7735
4.77349
4.77352
4.77365
4.7737
4.77348
4.7735
4.77352
4.77334
4.7734
4.77358
4.77372
4.77373
4.77353
4.77357
4.77366
4.77347
4.77347
4.77359
4.7737
4.77369
4.77352
4.77357
4.77363
4.77348
4.77349
4.77357
4.77367
4.77366
4.77352
4.77356
4.77359
4.77347
4.77349
4.77353
4.77362
4.77362
4.77351
4.77355
4.77354
4.77345
4.77347
4.77348
4.77356
4.77357
4.77348
4.7735
4.77348
4.77343
4.77344
4.77343
4.77348
4.77348
4.77343
4.77345
4.77343
4.7734
4.7734
4.77338
4.77341
4.77342
4.77338
4.77338
4.77336
4.77334
4.77334
4.77332
4.77333
4.77333
4.77331
4.77331
4.7733
4.77328
4.77328
4.77328
4.77327
4.77327
4.77326
4.77326
4.77325
4.77325
4.77325
4.77325
4.77325
4.77325
4.77325
4.77325
4.77325
4.77325
4.77325
4.77325
4.77325
4.77325
4.77325
4.77325
4.77325
4.77325
4.77325
4.77325
4.77325
4.77325
4.77325
4.77325
4.77325
4.77325
4.77325
4.77325
4.77325
4.77325
4.77325
4.77325
4.77325
4.77325
4.77325
4.77325
4.77325
4.77325
4.77325
4.77325
4.77325
4.77325
4.77325
4.77325
4.77325
4.77325
4.77325
4.77325
4.77325
4.77325
4.77325
4.77325
4.77325
4.77325
4.77325
4.77325
4.77325
4.77325
4.77325
4.77325
4.77325
4.77325
4.77325
4.77325
4.77325
4.77325
4.77326
4.77324
4.77328
4.7732
4.77335
4.77308
4.77356
4.77271
4.77419
4.77164
4.776
4.76847
4.78298
4.75453
4.78777
5.00281
5.04313
5.02836
5.04171
)
;

boundaryField
{
    inlet
    {
        type            calculated;
        value           uniform 0;
    }
    outlet
    {
        type            calculated;
        value           uniform 0;
    }
    sideWall
    {
        type            empty;
    }
}


// ************************************************************************* //
