/*--------------------------------*- C++ -*----------------------------------*\
| =========                 |                                                 |
| \\      /  F ield         | foam-extend: Open Source CFD                    |
|  \\    /   O peration     | Version:     3.2                                |
|   \\  /    A nd           | Web:         http://www.foam-extend.org         |
|    \\/     M anipulation  | For copyright notice see file Copyright         |
\*---------------------------------------------------------------------------*/
FoamFile
{
    version     2.0;
    format      ascii;
    class       areaScalarField;
    location    "50";
    object      thetaC2B;
}
// * * * * * * * * * * * * * * * * * * * * * * * * * * * * * * * * * * * * * //

dimensions      [0 0 0 0 0 0 0];

internalField   nonuniform List<scalar> 
300
(
0.0319486
0.0319486
0.0319486
0.0319486
0.0319486
0.0319486
0.0319486
0.0319486
0.0319486
0.0319486
0.0319486
0.0319486
0.0319486
0.0319486
0.0319486
0.0319486
0.0319486
0.0319486
0.0319486
0.0319486
0.0319486
0.0319486
0.0319486
0.0319486
0.0319486
0.0319486
0.0319486
0.0319486
0.0319486
0.0319486
0.0319486
0.0319486
0.0319486
0.0319486
0.0319486
0.0319486
0.0319486
0.0319486
0.0319486
0.0319486
0.0319486
0.0319486
0.0319486
0.0319486
0.0319486
0.0319486
0.0319486
0.0319486
0.0319486
0.0319486
0.0319486
0.0319486
0.0319486
0.0319486
0.0319486
0.0319486
0.0319486
0.0319486
0.0319486
0.0357186
0.0434907
0.0496706
0.053014
0.0550592
0.0564269
0.0573309
0.0579695
0.0583999
0.0587054
0.058897
0.0319486
0.0319486
0.0594503
0.0595027
0.0319486
0.0319486
0.0593879
0.0593424
0.0319486
0.0319486
0.0592513
0.0591416
0.0319486
0.0319486
0.0589894
0.0589584
0.0319486
0.0319486
0.0589513
0.0589349
0.0319486
0.0319486
0.0589423
0.0589279
0.0319486
0.0319486
0.058939
0.0589254
0.0319486
0.0319486
0.0589367
0.0589228
0.0319486
0.0319486
0.0589331
0.0589189
0.0319486
0.0319486
0.0589283
0.0589139
0.0319486
0.0319486
0.0589228
0.0589082
0.0319486
0.0319486
0.0589167
0.058902
0.0319486
0.0319486
0.0589102
0.0588954
0.0319486
0.0319486
0.0589033
0.0588884
0.0319486
0.0319486
0.058896
0.0588811
0.0319486
0.0319486
0.0588885
0.0588735
0.0319486
0.0319486
0.0588805
0.0588655
0.0319486
0.0319486
0.0588728
0.0588571
0.0319486
0.0319486
0.0588628
0.0588467
0.0319486
0.0319486
0.0319486
0.0319486
0.0319486
0.0319486
0.0319486
0.0319486
0.0319486
0.0319486
0.0319486
0.0319486
0.0319486
0.0319486
0.0319486
0.0319486
0.0319486
0.0319486
0.0319486
0.0319486
0.0319486
0.0319486
0.0319486
0.0319486
0.0319486
0.0319486
0.0319486
0.0319486
0.0319486
0.0319486
0.0319486
0.0319486
0.0319486
0.0319486
0.0319486
0.0319486
0.0319486
0.0319486
0.0319486
0.0319486
0.0319486
0.0319486
0.0319486
0.0319486
0.0319486
0.0319486
0.0319486
0.0319486
0.0319486
0.0319486
0.0319486
0.0319486
0.0319486
0.0319486
0.0319486
0.0319486
0.0319486
0.0319486
0.0319486
0.0319486
0.0319486
0.0319486
0.0319486
0.0319486
0.0319486
0.0319486
0.0319486
0.0319486
0.0319486
0.0319486
0.0319486
0.0319486
0.0319486
0.0319486
0.0319486
0.0319486
0.0319486
0.0319486
0.0319486
0.0319486
0.0319486
0.0319486
0.0319486
0.0319486
0.0319486
0.0319486
0.0319486
0.0319486
0.0319486
0.0319486
0.0319486
0.0319486
0.0319486
0.0319486
0.0319486
0.0319486
0.0319486
0.0319486
0.0319486
0.0319486
0.0319486
0.0319486
0.0319486
0.0319486
0.0319486
0.0319486
0.0319486
0.0319486
0.0319486
0.0319486
0.0319486
0.0319486
0.0319486
0.0319486
0.0319486
0.0319486
0.0319486
0.0319486
0.0319486
0.0319486
0.0319486
0.0319486
0.0319486
0.0319486
0.0319486
0.0319486
0.0319486
0.0319486
0.0319486
0.0319486
0.0319486
0.0319486
0.0319486
0.0319486
0.0319486
0.0319486
0.0319486
0.0319486
0.0319486
0.0319486
0.0319486
0.0319486
0.0319486
0.0319486
0.0319486
0.0319486
0.0319486
0.0319486
0.0319486
0.0319486
0.0319486
0.0319486
0.0319486
0.0319486
)
;

boundaryField
{
    inlet
    {
        type            calculated;
        value           uniform 0;
    }
    outlet
    {
        type            calculated;
        value           uniform 0;
    }
    sideWall
    {
        type            empty;
    }
}


// ************************************************************************* //
