/*--------------------------------*- C++ -*----------------------------------*\
| =========                 |                                                 |
| \\      /  F ield         | foam-extend: Open Source CFD                    |
|  \\    /   O peration     | Version:     3.2                                |
|   \\  /    A nd           | Web:         http://www.foam-extend.org         |
|    \\/     M anipulation  | For copyright notice see file Copyright         |
\*---------------------------------------------------------------------------*/
FoamFile
{
    version     2.0;
    format      ascii;
    class       areaScalarField;
    location    "50";
    object      thetaSS2;
}
// * * * * * * * * * * * * * * * * * * * * * * * * * * * * * * * * * * * * * //

dimensions      [0 0 0 0 0 0 0];

internalField   nonuniform List<scalar> 
300
(
9.67382
6.12337
4.51963
4.55884
4.39317
4.41369
4.34385
4.3451
4.31841
4.3301
4.3307
4.34905
4.36412
4.39039
4.41322
4.44491
4.47481
4.50926
4.54271
4.58037
4.61908
4.65886
4.69939
4.74036
4.7817
4.82121
4.85605
4.88563
4.91062
4.9315
4.94907
4.96363
4.97591
4.98601
4.99458
5.00156
5.0076
5.01242
5.01674
5.02007
5.02325
5.02552
5.02799
5.02951
5.03139
5.03229
5.03388
5.03428
5.03602
5.03544
5.03819
5.03535
5.04088
5.03323
5.04616
5.02655
5.05838
5.0108
5.1024
4.92177
4.48182
4.45586
4.46565
4.4603
4.4627
4.46303
4.46207
4.46363
4.46124
4.46811
4.46468
4.46408
4.4596
4.46366
4.4583
4.4655
4.46196
4.46483
4.45803
4.46257
4.46025
4.46498
4.46209
4.46477
4.46246
4.46454
4.46158
4.46382
4.46183
4.46378
4.46118
4.46334
4.46163
4.46348
4.4611
4.46317
4.46163
4.46342
4.46116
4.46318
4.46172
4.46348
4.46126
4.46326
4.46185
4.46359
4.46139
4.46338
4.46197
4.46372
4.46152
4.4635
4.46209
4.46383
4.46163
4.46362
4.46221
4.46395
4.46175
4.46373
4.46232
4.46406
4.46187
4.46385
4.46245
4.46419
4.46199
4.46398
4.46257
4.46432
4.46213
4.46412
4.46271
4.46447
4.46227
4.46427
4.46286
4.46462
4.4624
4.46447
4.46298
4.46481
4.46257
4.46452
4.46312
4.46484
4.4626
4.46012
4.45818
4.45713
4.45658
4.4562
4.45605
4.45593
4.45585
4.4557
4.4556
4.45548
4.45539
4.45532
4.4553
4.45525
4.45524
4.45518
4.45514
4.45512
4.45518
4.4552
4.45527
4.45528
4.45535
4.45537
4.45541
4.45544
4.45549
4.45551
4.45556
4.45558
4.45563
4.45565
4.45572
4.45574
4.45579
4.45581
4.45587
4.45589
4.45596
4.45598
4.45606
4.45608
4.45616
4.45618
4.45625
4.45627
4.45632
4.45636
4.45643
4.45646
4.45652
4.45654
4.45661
4.45665
4.45672
4.45675
4.45681
4.45684
4.45692
4.45695
4.45703
4.45706
4.45712
4.45715
4.4572
4.45724
4.4573
4.45733
4.4574
4.45745
4.4575
4.45753
4.45759
4.45763
4.45768
4.45772
4.45776
4.45779
4.45782
4.45791
4.45793
4.45805
4.45796
4.45819
4.45797
4.45838
4.45785
4.45873
4.45765
4.45914
4.45734
4.45964
4.45702
4.46008
4.45675
4.4605
4.45645
4.46096
4.45614
4.46144
4.45574
4.46204
4.4552
4.46278
4.45449
4.46369
4.45382
4.46425
4.45368
4.46411
4.45473
4.46269
4.45659
4.46082
4.4588
4.45922
4.45942
4.46005
4.45837
4.4609
4.45727
4.46332
4.45459
4.46591
4.45138
4.47005
4.45096
4.47085
4.4504
4.47178
4.44898
4.47064
4.44956
4.46966
4.45134
4.46682
4.45335
4.46365
4.45559
4.46011
4.45997
4.45564
4.46503
4.45027
4.47172
4.43898
4.47962
4.35183
5.4863
5.3389
4.91539
5.05053
)
;

boundaryField
{
    inlet
    {
        type            calculated;
        value           uniform 0;
    }
    outlet
    {
        type            calculated;
        value           uniform 0;
    }
    sideWall
    {
        type            empty;
    }
}


// ************************************************************************* //
