/*--------------------------------*- C++ -*----------------------------------*\
| =========                 |                                                 |
| \\      /  F ield         | foam-extend: Open Source CFD                    |
|  \\    /   O peration     | Version:     3.2                                |
|   \\  /    A nd           | Web:         http://www.foam-extend.org         |
|    \\/     M anipulation  | For copyright notice see file Copyright         |
\*---------------------------------------------------------------------------*/
FoamFile
{
    version     2.0;
    format      ascii;
    class       areaScalarField;
    location    "50";
    object      thetaC2SS1;
}
// * * * * * * * * * * * * * * * * * * * * * * * * * * * * * * * * * * * * * //

dimensions      [0 0 0 0 0 0 0];

internalField   nonuniform List<scalar> 
300
(
0.0947979
0.0947979
0.0947979
0.0947979
0.0947979
0.0947979
0.0947979
0.0947979
0.0947979
0.0947979
0.0947979
0.0947979
0.0947979
0.0947979
0.0947979
0.0947979
0.0947979
0.0947979
0.0947979
0.0947979
0.0947979
0.0947979
0.0947979
0.0947979
0.0947979
0.0947979
0.0947979
0.0947979
0.0947979
0.0947979
0.0947979
0.0947979
0.0947979
0.0947979
0.0947979
0.0947979
0.0947979
0.0947979
0.0947979
0.0947979
0.0947979
0.0947979
0.0947979
0.0947979
0.0947979
0.0947979
0.0947979
0.0947979
0.0947979
0.0947979
0.0947979
0.0947979
0.0947979
0.0947979
0.0947979
0.0947979
0.0947979
0.0947979
0.0947979
0.105984
0.129046
0.147383
0.157303
0.163372
0.16743
0.170112
0.172007
0.173284
0.174191
0.174759
0.0947979
0.0947979
0.176401
0.176556
0.0947979
0.0947979
0.176216
0.176081
0.0947979
0.0947979
0.17581
0.175485
0.0947979
0.0947979
0.175033
0.174941
0.0947979
0.0947979
0.17492
0.174872
0.0947979
0.0947979
0.174893
0.174851
0.0947979
0.0947979
0.174884
0.174843
0.0947979
0.0947979
0.174877
0.174836
0.0947979
0.0947979
0.174866
0.174824
0.0947979
0.0947979
0.174852
0.174809
0.0947979
0.0947979
0.174836
0.174792
0.0947979
0.0947979
0.174818
0.174774
0.0947979
0.0947979
0.174798
0.174754
0.0947979
0.0947979
0.174778
0.174734
0.0947979
0.0947979
0.174756
0.174712
0.0947979
0.0947979
0.174734
0.174689
0.0947979
0.0947979
0.17471
0.174666
0.0947979
0.0947979
0.174687
0.174641
0.0947979
0.0947979
0.174658
0.17461
0.0947979
0.0947979
0.0947979
0.0947979
0.0947979
0.0947979
0.0947979
0.0947979
0.0947979
0.0947979
0.0947979
0.0947979
0.0947979
0.0947979
0.0947979
0.0947979
0.0947979
0.0947979
0.0947979
0.0947979
0.0947979
0.0947979
0.0947979
0.0947979
0.0947979
0.0947979
0.0947979
0.0947979
0.0947979
0.0947979
0.0947979
0.0947979
0.0947979
0.0947979
0.0947979
0.0947979
0.0947979
0.0947979
0.0947979
0.0947979
0.0947979
0.0947979
0.0947979
0.0947979
0.0947979
0.0947979
0.0947979
0.0947979
0.0947979
0.0947979
0.0947979
0.0947979
0.0947979
0.0947979
0.0947979
0.0947979
0.0947979
0.0947979
0.0947979
0.0947979
0.0947979
0.0947979
0.0947979
0.0947979
0.0947979
0.0947979
0.0947979
0.0947979
0.0947979
0.0947979
0.0947979
0.0947979
0.0947979
0.0947979
0.0947979
0.0947979
0.0947979
0.0947979
0.0947979
0.0947979
0.0947979
0.0947979
0.0947979
0.0947979
0.0947979
0.0947979
0.0947979
0.0947979
0.0947979
0.0947979
0.0947979
0.0947979
0.0947979
0.0947979
0.0947979
0.0947979
0.0947979
0.0947979
0.0947979
0.0947979
0.0947979
0.0947979
0.0947979
0.0947979
0.0947979
0.0947979
0.0947979
0.0947979
0.0947979
0.0947979
0.0947979
0.0947979
0.0947979
0.0947979
0.0947979
0.0947979
0.0947979
0.0947979
0.0947979
0.0947979
0.0947979
0.0947979
0.0947979
0.0947979
0.0947979
0.0947979
0.0947979
0.0947979
0.0947979
0.0947979
0.0947979
0.0947979
0.0947979
0.0947979
0.0947979
0.0947979
0.0947979
0.0947979
0.0947979
0.0947979
0.0947979
0.0947979
0.0947979
0.0947979
0.0947979
0.0947979
0.0947979
0.0947979
0.0947979
0.0947979
0.0947979
0.0947979
0.0947979
0.0947979
)
;

boundaryField
{
    inlet
    {
        type            calculated;
        value           uniform 0;
    }
    outlet
    {
        type            calculated;
        value           uniform 0;
    }
    sideWall
    {
        type            empty;
    }
}


// ************************************************************************* //
