/*--------------------------------*- C++ -*----------------------------------*\
| =========                 |                                                 |
| \\      /  F ield         | foam-extend: Open Source CFD                    |
|  \\    /   O peration     | Version:     3.2                                |
|   \\  /    A nd           | Web:         http://www.foam-extend.org         |
|    \\/     M anipulation  | For copyright notice see file Copyright         |
\*---------------------------------------------------------------------------*/
FoamFile
{
    version     2.0;
    format      ascii;
    class       areaScalarField;
    location    "50";
    object      thetaSS1;
}
// * * * * * * * * * * * * * * * * * * * * * * * * * * * * * * * * * * * * * //

dimensions      [0 0 0 0 0 0 0];

internalField   nonuniform List<scalar> 
300
(
14.5979
9.24022
6.82016
6.87934
6.62934
6.6603
6.5549
6.55679
6.51652
6.53416
6.53507
6.56275
6.5855
6.62514
6.65959
6.70741
6.75254
6.80451
6.85499
6.91183
6.97023
7.03026
7.09142
7.15324
7.21563
7.27525
7.32782
7.37246
7.41018
7.44167
7.46819
7.49017
7.5087
7.52393
7.53687
7.5474
7.55651
7.56379
7.57031
7.57533
7.58013
7.58355
7.58728
7.58957
7.59241
7.59378
7.59617
7.59677
7.5994
7.59853
7.60267
7.59839
7.60673
7.59519
7.6147
7.5851
7.63314
7.56133
7.69957
7.427
6.76311
6.72394
6.73871
6.73063
6.73425
6.73475
6.7333
6.73565
6.73205
6.74242
6.73724
6.73633
6.72957
6.7357
6.72761
6.73848
6.73314
6.73747
6.72721
6.73405
6.73055
6.73769
6.73333
6.73737
6.73389
6.73704
6.73256
6.73594
6.73294
6.73588
6.73196
6.73521
6.73264
6.73543
6.73184
6.73496
6.73265
6.73535
6.73193
6.73498
6.73278
6.73544
6.73208
6.7351
6.73296
6.7356
6.73228
6.73528
6.73315
6.73579
6.73247
6.73547
6.73333
6.73596
6.73265
6.73564
6.73351
6.73614
6.73282
6.73581
6.73369
6.73631
6.733
6.736
6.73387
6.7365
6.73319
6.73618
6.73406
6.7367
6.73339
6.7364
6.73427
6.73692
6.73361
6.73662
6.7345
6.73715
6.7338
6.73692
6.73467
6.73744
6.73406
6.73701
6.73489
6.73748
6.73411
6.73036
6.72743
6.72585
6.72502
6.72445
6.72423
6.72405
6.72392
6.72369
6.72354
6.72336
6.72323
6.72312
6.72308
6.72301
6.72299
6.72291
6.72284
6.72281
6.72291
6.72294
6.72304
6.72306
6.72316
6.7232
6.72325
6.7233
6.72337
6.7234
6.72349
6.72352
6.72359
6.72362
6.72372
6.72376
6.72383
6.72386
6.72394
6.72398
6.72408
6.72412
6.72423
6.72427
6.72438
6.72442
6.72452
6.72455
6.72463
6.72469
6.7248
6.72484
6.72492
6.72496
6.72507
6.72512
6.72523
6.72527
6.72537
6.72542
6.72553
6.72557
6.72569
6.72575
6.72583
6.72588
6.72596
6.72601
6.72611
6.72615
6.72626
6.72633
6.72641
6.72645
6.72654
6.7266
6.72668
6.72674
6.72679
6.72684
6.72689
6.72702
6.72705
6.72724
6.72711
6.72744
6.72711
6.72774
6.72693
6.72826
6.72664
6.72888
6.72616
6.72963
6.72568
6.7303
6.72528
6.73094
6.72483
6.73163
6.72435
6.73235
6.72376
6.73326
6.72294
6.73437
6.72187
6.73574
6.72085
6.73659
6.72065
6.73639
6.72223
6.73425
6.72504
6.73142
6.72837
6.729
6.7293
6.73025
6.72773
6.73154
6.72606
6.73519
6.72202
6.7391
6.71718
6.74535
6.71653
6.74656
6.7157
6.74796
6.71354
6.74624
6.71442
6.74476
6.71711
6.74047
6.72014
6.73569
6.72352
6.73035
6.73014
6.7236
6.73777
6.7155
6.74787
6.69846
6.75979
6.56695
8.27888
8.05645
7.41736
7.6213
)
;

boundaryField
{
    inlet
    {
        type            calculated;
        value           uniform 0;
    }
    outlet
    {
        type            calculated;
        value           uniform 0;
    }
    sideWall
    {
        type            empty;
    }
}


// ************************************************************************* //
