/*--------------------------------*- C++ -*----------------------------------*\
| =========                 |                                                 |
| \\      /  F ield         | foam-extend: Open Source CFD                    |
|  \\    /   O peration     | Version:     3.2                                |
|   \\  /    A nd           | Web:         http://www.foam-extend.org         |
|    \\/     M anipulation  | For copyright notice see file Copyright         |
\*---------------------------------------------------------------------------*/
FoamFile
{
    version     2.0;
    format      ascii;
    class       areaScalarField;
    location    "50";
    object      thetaB;
}
// * * * * * * * * * * * * * * * * * * * * * * * * * * * * * * * * * * * * * //

dimensions      [0 0 0 0 0 0 0];

internalField   nonuniform List<scalar> 
300
(
0.41762
0.264347
0.195113
0.196806
0.189654
0.190539
0.187524
0.187578
0.186426
0.186931
0.186957
0.187749
0.1884
0.189534
0.190519
0.191887
0.193178
0.194665
0.196109
0.197735
0.199406
0.201123
0.202873
0.204642
0.206426
0.208132
0.209636
0.210913
0.211992
0.212893
0.213652
0.214281
0.214811
0.215246
0.215617
0.215918
0.216178
0.216387
0.216573
0.216717
0.216854
0.216952
0.217059
0.217124
0.217206
0.217245
0.217313
0.21733
0.217405
0.217381
0.217499
0.217377
0.217615
0.217285
0.217843
0.216996
0.218371
0.216317
0.220271
0.212473
0.193481
0.19236
0.192783
0.192552
0.192655
0.192669
0.192628
0.192695
0.192592
0.192889
0.192741
0.192715
0.192521
0.192697
0.192465
0.192776
0.192623
0.192747
0.192454
0.192649
0.192549
0.192753
0.192629
0.192744
0.192645
0.192735
0.192607
0.192703
0.192618
0.192702
0.19259
0.192683
0.192609
0.192689
0.192586
0.192675
0.192609
0.192686
0.192589
0.192676
0.192613
0.192689
0.192593
0.192679
0.192618
0.192694
0.192599
0.192685
0.192624
0.192699
0.192604
0.19269
0.192629
0.192704
0.192609
0.192695
0.192634
0.192709
0.192614
0.1927
0.192639
0.192714
0.192619
0.192705
0.192644
0.19272
0.192625
0.19271
0.19265
0.192725
0.192631
0.192716
0.192656
0.192732
0.192637
0.192723
0.192662
0.192738
0.192642
0.192732
0.192667
0.192746
0.19265
0.192734
0.192673
0.192748
0.192651
0.192544
0.19246
0.192415
0.192391
0.192375
0.192368
0.192363
0.19236
0.192353
0.192349
0.192344
0.19234
0.192337
0.192336
0.192334
0.192333
0.192331
0.192329
0.192328
0.192331
0.192331
0.192334
0.192335
0.192338
0.192339
0.19234
0.192342
0.192344
0.192345
0.192347
0.192348
0.19235
0.192351
0.192354
0.192355
0.192357
0.192358
0.19236
0.192361
0.192364
0.192365
0.192368
0.19237
0.192373
0.192374
0.192377
0.192378
0.19238
0.192382
0.192385
0.192386
0.192388
0.192389
0.192392
0.192394
0.192397
0.192398
0.192401
0.192402
0.192406
0.192407
0.19241
0.192412
0.192414
0.192416
0.192418
0.192419
0.192422
0.192423
0.192427
0.192428
0.192431
0.192432
0.192435
0.192436
0.192439
0.19244
0.192442
0.192443
0.192444
0.192448
0.192449
0.192455
0.192451
0.19246
0.192451
0.192469
0.192446
0.192484
0.192437
0.192502
0.192424
0.192523
0.19241
0.192542
0.192399
0.19256
0.192386
0.19258
0.192372
0.192601
0.192355
0.192627
0.192332
0.192659
0.192301
0.192698
0.192272
0.192722
0.192266
0.192716
0.192311
0.192655
0.192392
0.192574
0.192487
0.192505
0.192513
0.192541
0.192468
0.192578
0.192421
0.192682
0.192305
0.192794
0.192167
0.192973
0.192148
0.193007
0.192124
0.193047
0.192063
0.192998
0.192088
0.192956
0.192165
0.192833
0.192252
0.192696
0.192348
0.192544
0.192537
0.19235
0.192756
0.192119
0.193045
0.191631
0.193386
0.187869
0.236844
0.230481
0.212198
0.218032
)
;

boundaryField
{
    inlet
    {
        type            calculated;
        value           uniform 0;
    }
    outlet
    {
        type            calculated;
        value           uniform 0;
    }
    sideWall
    {
        type            empty;
    }
}


// ************************************************************************* //
