/*--------------------------------*- C++ -*----------------------------------*\
| =========                 |                                                 |
| \\      /  F ield         | foam-extend: Open Source CFD                    |
|  \\    /   O peration     | Version:     3.2                                |
|   \\  /    A nd           | Web:         http://www.foam-extend.org         |
|    \\/     M anipulation  | For copyright notice see file Copyright         |
\*---------------------------------------------------------------------------*/
FoamFile
{
    version     2.0;
    format      ascii;
    class       areaScalarField;
    location    "50";
    object      thetaBinit;
}
// * * * * * * * * * * * * * * * * * * * * * * * * * * * * * * * * * * * * * //

dimensions      [0 0 0 0 0 0 0];

internalField   nonuniform List<scalar> 
300
(
0.417619
0.264349
0.195112
0.196805
0.189653
0.19054
0.187525
0.187579
0.186426
0.186931
0.186957
0.187749
0.1884
0.189534
0.190518
0.191888
0.193177
0.194666
0.196108
0.197736
0.199405
0.201123
0.202871
0.204641
0.206423
0.20813
0.209632
0.21091
0.211986
0.212889
0.213645
0.214276
0.214803
0.215242
0.215609
0.215915
0.21617
0.216385
0.216565
0.216717
0.216845
0.216955
0.21705
0.217129
0.217197
0.217251
0.217303
0.217341
0.217382
0.217406
0.217444
0.217451
0.2175
0.217469
0.217571
0.217438
0.217695
0.217304
0.218085
0.215243
0.207208
0.20584
0.206459
0.205908
0.206133
0.206003
0.206068
0.20604
0.206066
0.206055
0.206057
0.206062
0.206061
0.206063
0.206071
0.206068
0.206065
0.20607
0.20607
0.20607
0.206072
0.206067
0.206071
0.206075
0.206069
0.206075
0.206077
0.206079
0.206079
0.206072
0.206071
0.206069
0.206069
0.206074
0.206064
0.206065
0.206075
0.206071
0.206066
0.20607
0.206072
0.20607
0.206066
0.206066
0.206072
0.206072
0.206067
0.20607
0.206076
0.206073
0.20607
0.206068
0.206071
0.206077
0.206072
0.206072
0.206075
0.206074
0.206073
0.206072
0.206073
0.206076
0.206074
0.206072
0.206075
0.206071
0.206066
0.206073
0.206072
0.206068
0.206072
0.206072
0.206075
0.206076
0.20607
0.206072
0.206072
0.206072
0.206073
0.206079
0.206081
0.206072
0.206072
0.206073
0.206065
0.206068
0.206076
0.206082
0.206083
0.206074
0.206076
0.206079
0.206071
0.206071
0.206076
0.206081
0.206081
0.206073
0.206076
0.206078
0.206072
0.206072
0.206075
0.20608
0.206079
0.206073
0.206075
0.206076
0.206071
0.206072
0.206074
0.206078
0.206078
0.206073
0.206075
0.206074
0.20607
0.206071
0.206072
0.206075
0.206075
0.206072
0.206073
0.206072
0.20607
0.20607
0.206069
0.206072
0.206072
0.206069
0.20607
0.206069
0.206068
0.206068
0.206067
0.206069
0.206069
0.206067
0.206067
0.206066
0.206066
0.206066
0.206065
0.206065
0.206065
0.206064
0.206064
0.206064
0.206063
0.206063
0.206063
0.206063
0.206063
0.206062
0.206062
0.206062
0.206062
0.206062
0.206062
0.206062
0.206062
0.206062
0.206062
0.206062
0.206062
0.206062
0.206062
0.206062
0.206062
0.206062
0.206062
0.206062
0.206062
0.206062
0.206062
0.206062
0.206062
0.206062
0.206062
0.206062
0.206062
0.206062
0.206062
0.206062
0.206062
0.206062
0.206062
0.206062
0.206062
0.206062
0.206062
0.206062
0.206062
0.206062
0.206062
0.206062
0.206062
0.206062
0.206062
0.206062
0.206062
0.206062
0.206062
0.206062
0.206062
0.206062
0.206062
0.206062
0.206062
0.206062
0.206062
0.206062
0.206062
0.206062
0.206062
0.206062
0.206062
0.206062
0.206062
0.206062
0.206062
0.206062
0.206061
0.206063
0.20606
0.206066
0.206054
0.206075
0.206039
0.206102
0.205992
0.20618
0.205855
0.206482
0.205254
0.206688
0.215972
0.217712
0.217075
0.217651
)
;

boundaryField
{
    inlet
    {
        type            calculated;
        value           uniform 0;
    }
    outlet
    {
        type            calculated;
        value           uniform 0;
    }
    sideWall
    {
        type            empty;
    }
}


// ************************************************************************* //
