/*--------------------------------*- C++ -*----------------------------------*\
| =========                 |                                                 |
| \\      /  F ield         | foam-extend: Open Source CFD                    |
|  \\    /   O peration     | Version:     3.2                                |
|   \\  /    A nd           | Web:         http://www.foam-extend.org         |
|    \\/     M anipulation  | For copyright notice see file Copyright         |
\*---------------------------------------------------------------------------*/
FoamFile
{
    version     2.0;
    format      ascii;
    class       areaScalarField;
    location    "50";
    object      thetaC2SS2;
}
// * * * * * * * * * * * * * * * * * * * * * * * * * * * * * * * * * * * * * //

dimensions      [0 0 0 0 0 0 0];

internalField   nonuniform List<scalar> 
300
(
0.0940613
0.0940613
0.0940613
0.0940613
0.0940613
0.0940613
0.0940613
0.0940613
0.0940613
0.0940613
0.0940613
0.0940613
0.0940613
0.0940613
0.0940613
0.0940613
0.0940613
0.0940613
0.0940613
0.0940613
0.0940613
0.0940613
0.0940613
0.0940613
0.0940613
0.0940613
0.0940613
0.0940613
0.0940613
0.0940613
0.0940613
0.0940613
0.0940613
0.0940613
0.0940613
0.0940613
0.0940613
0.0940613
0.0940613
0.0940613
0.0940613
0.0940613
0.0940613
0.0940613
0.0940613
0.0940613
0.0940613
0.0940613
0.0940613
0.0940613
0.0940613
0.0940613
0.0940613
0.0940613
0.0940613
0.0940613
0.0940613
0.0940613
0.0940613
0.105161
0.128043
0.146237
0.156081
0.162102
0.166129
0.16879
0.170671
0.171938
0.172837
0.173401
0.0940613
0.0940613
0.17503
0.175185
0.0940613
0.0940613
0.174846
0.174713
0.0940613
0.0940613
0.174444
0.174121
0.0940613
0.0940613
0.173673
0.173582
0.0940613
0.0940613
0.173561
0.173513
0.0940613
0.0940613
0.173534
0.173492
0.0940613
0.0940613
0.173525
0.173485
0.0940613
0.0940613
0.173518
0.173477
0.0940613
0.0940613
0.173508
0.173466
0.0940613
0.0940613
0.173493
0.173451
0.0940613
0.0940613
0.173477
0.173434
0.0940613
0.0940613
0.173459
0.173416
0.0940613
0.0940613
0.17344
0.173397
0.0940613
0.0940613
0.17342
0.173376
0.0940613
0.0940613
0.173398
0.173354
0.0940613
0.0940613
0.173376
0.173332
0.0940613
0.0940613
0.173353
0.173308
0.0940613
0.0940613
0.17333
0.173284
0.0940613
0.0940613
0.173301
0.173253
0.0940613
0.0940613
0.0940613
0.0940613
0.0940613
0.0940613
0.0940613
0.0940613
0.0940613
0.0940613
0.0940613
0.0940613
0.0940613
0.0940613
0.0940613
0.0940613
0.0940613
0.0940613
0.0940613
0.0940613
0.0940613
0.0940613
0.0940613
0.0940613
0.0940613
0.0940613
0.0940613
0.0940613
0.0940613
0.0940613
0.0940613
0.0940613
0.0940613
0.0940613
0.0940613
0.0940613
0.0940613
0.0940613
0.0940613
0.0940613
0.0940613
0.0940613
0.0940613
0.0940613
0.0940613
0.0940613
0.0940613
0.0940613
0.0940613
0.0940613
0.0940613
0.0940613
0.0940613
0.0940613
0.0940613
0.0940613
0.0940613
0.0940613
0.0940613
0.0940613
0.0940613
0.0940613
0.0940613
0.0940613
0.0940613
0.0940613
0.0940613
0.0940613
0.0940613
0.0940613
0.0940613
0.0940613
0.0940613
0.0940613
0.0940613
0.0940613
0.0940613
0.0940613
0.0940613
0.0940613
0.0940613
0.0940613
0.0940613
0.0940613
0.0940613
0.0940613
0.0940613
0.0940613
0.0940613
0.0940613
0.0940613
0.0940613
0.0940613
0.0940613
0.0940613
0.0940613
0.0940613
0.0940613
0.0940613
0.0940613
0.0940613
0.0940613
0.0940613
0.0940613
0.0940613
0.0940613
0.0940613
0.0940613
0.0940613
0.0940613
0.0940613
0.0940613
0.0940613
0.0940613
0.0940613
0.0940613
0.0940613
0.0940613
0.0940613
0.0940613
0.0940613
0.0940613
0.0940613
0.0940613
0.0940613
0.0940613
0.0940613
0.0940613
0.0940613
0.0940613
0.0940613
0.0940613
0.0940613
0.0940613
0.0940613
0.0940613
0.0940613
0.0940613
0.0940613
0.0940613
0.0940613
0.0940613
0.0940613
0.0940613
0.0940613
0.0940613
0.0940613
0.0940613
0.0940613
0.0940613
0.0940613
0.0940613
0.0940613
0.0940613
)
;

boundaryField
{
    inlet
    {
        type            calculated;
        value           uniform 0;
    }
    outlet
    {
        type            calculated;
        value           uniform 0;
    }
    sideWall
    {
        type            empty;
    }
}


// ************************************************************************* //
