/*--------------------------------*- C++ -*----------------------------------*\
| =========                 |                                                 |
| \\      /  F ield         | foam-extend: Open Source CFD                    |
|  \\    /   O peration     | Version:     3.2                                |
|   \\  /    A nd           | Web:         http://www.foam-extend.org         |
|    \\/     M anipulation  | For copyright notice see file Copyright         |
\*---------------------------------------------------------------------------*/
FoamFile
{
    version     2.0;
    format      ascii;
    class       areaScalarField;
    location    "50";
    object      totH;
}
// * * * * * * * * * * * * * * * * * * * * * * * * * * * * * * * * * * * * * //

dimensions      [0 0 0 0 0 0 0];

internalField   nonuniform List<scalar> 
300
(
0
0
0
0
0
0
0
0
0
0
0
0
0
0
0
0
0
0
0
0
0
0
0
0
0
0
0
0
0
0
0
0
0
0
0
0
0
0
0
0
0
0
0
0
0
0
0
0
0
0
0
0
0
0
0
0
0
0
0
-0.000192733
-0.000590073
-0.000906016
-0.00107694
-0.0011815
-0.00125142
-0.00129764
-0.00133029
-0.00135229
-0.00136791
-0.0013777
-0.00138555
-0.00139637
-0.00140599
-0.00140867
-0.00140669
-0.00140406
-0.0014028
-0.00140047
-0.00139847
-0.00139768
-0.00139581
-0.00139021
-0.00138415
-0.00138199
-0.00138242
-0.00138084
-0.00137832
-0.00137866
-0.00138048
-0.00137964
-0.00137751
-0.00137807
-0.00138002
-0.00137928
-0.00137722
-0.00137786
-0.00137985
-0.00137915
-0.00137711
-0.00137775
-0.00137973
-0.00137902
-0.00137696
-0.00137758
-0.00137955
-0.00137882
-0.00137674
-0.00137735
-0.0013793
-0.00137857
-0.00137648
-0.00137707
-0.00137902
-0.00137828
-0.00137618
-0.00137677
-0.00137871
-0.00137796
-0.00137586
-0.00137644
-0.00137838
-0.00137762
-0.00137551
-0.00137609
-0.00137802
-0.00137726
-0.00137515
-0.00137573
-0.00137765
-0.00137689
-0.00137477
-0.00137535
-0.00137727
-0.0013765
-0.00137438
-0.00137495
-0.00137686
-0.00137609
-0.00137397
-0.00137453
-0.00137646
-0.00137566
-0.00137353
-0.00137407
-0.00137595
-0.00137513
-0.00137107
-0.00136652
-0.00136302
-0.00136063
-0.00135914
-0.00135804
-0.00135709
-0.00135622
-0.00135548
-0.00135492
-0.0013545
-0.00135419
-0.00135395
-0.00135376
-0.00135359
-0.00135342
-0.00135325
-0.00135307
-0.00135289
-0.00135276
-0.00135266
-0.00135255
-0.00135243
-0.00135231
-0.00135218
-0.00135206
-0.00135194
-0.00135182
-0.00135171
-0.00135159
-0.00135146
-0.00135133
-0.00135121
-0.00135109
-0.00135097
-0.00135084
-0.00135072
-0.0013506
-0.00135048
-0.00135036
-0.00135023
-0.00135009
-0.00134996
-0.00134983
-0.0013497
-0.00134957
-0.00134944
-0.00134931
-0.00134919
-0.00134906
-0.00134893
-0.0013488
-0.00134867
-0.00134855
-0.00134842
-0.0013483
-0.00134817
-0.00134804
-0.00134791
-0.00134778
-0.00134765
-0.00134752
-0.00134739
-0.00134726
-0.00134714
-0.00134702
-0.0013469
-0.00134677
-0.00134664
-0.00134652
-0.0013464
-0.00134628
-0.00134616
-0.00134605
-0.00134593
-0.00134582
-0.0013457
-0.00134559
-0.00134548
-0.00134537
-0.00134526
-0.00134514
-0.00134505
-0.00134497
-0.00134487
-0.00134476
-0.00134467
-0.00134455
-0.00134448
-0.00134435
-0.0013443
-0.00134415
-0.00134416
-0.00134396
-0.00134401
-0.0013438
-0.00134386
-0.00134364
-0.00134372
-0.00134349
-0.00134359
-0.00134335
-0.00134347
-0.00134322
-0.00134338
-0.00134309
-0.00134329
-0.00134291
-0.00134323
-0.00134279
-0.00134312
-0.00134261
-0.00134284
-0.00134254
-0.00134258
-0.00134246
-0.00134208
-0.0013425
-0.0013419
-0.00134199
-0.00134187
-0.001342
-0.0013416
-0.00134147
-0.00134165
-0.00134146
-0.0013416
-0.00133979
-0.00133993
-0.00133888
-0.00133919
-0.00133864
-0.00134011
-0.00134001
-0.00134077
-0.00134027
-0.00134098
-0.00134136
-0.00134218
-0.00134282
-0.00134329
-0.00134355
-0.00134324
-0.00134375
-0.00134278
-0.00134355
-0.00134296
-0.00134197
-0.00134057
-0.00111744
-0.00044333
0
0
0
)
;

boundaryField
{
    inlet
    {
        type            calculated;
        value           uniform 0;
    }
    outlet
    {
        type            calculated;
        value           uniform 0;
    }
    sideWall
    {
        type            empty;
    }
}


// ************************************************************************* //
