/*--------------------------------*- C++ -*----------------------------------*\
| =========                 |                                                 |
| \\      /  F ield         | foam-extend: Open Source CFD                    |
|  \\    /   O peration     | Version:     3.2                                |
|   \\  /    A nd           | Web:         http://www.foam-extend.org         |
|    \\/     M anipulation  | For copyright notice see file Copyright         |
\*---------------------------------------------------------------------------*/
FoamFile
{
    version     2.0;
    format      ascii;
    class       areaScalarField;
    location    "50";
    object      totH1;
}
// * * * * * * * * * * * * * * * * * * * * * * * * * * * * * * * * * * * * * //

dimensions      [0 0 0 0 0 0 0];

internalField   nonuniform List<scalar> 
300
(
0
0
0
0
0
0
0
0
0
0
0
0
0
0
0
0
0
0
0
0
0
0
0
0
0
0
0
0
0
0
0
0
0
0
0
0
0
0
0
0
0
0
0
0
0
0
0
0
0
0
0
0
0
0
0
0
0
0
0
-0.000192188
-0.00058825
-0.00090315
-0.0010736
-0.00117791
-0.00124768
-0.0012938
-0.00132639
-0.00134834
-0.00136393
-0.00137605
-0.00138792
-0.00139773
-0.00140328
-0.0014073
-0.00140939
-0.0014054
-0.00140006
-0.00139911
-0.00140118
-0.00139902
-0.00139307
-0.00138881
-0.00138681
-0.0013833
-0.0013797
-0.00137946
-0.00138099
-0.00137998
-0.00137776
-0.00137826
-0.00138017
-0.00137939
-0.0013773
-0.00137791
-0.00137989
-0.00137918
-0.00137713
-0.00137778
-0.00137977
-0.00137907
-0.00137702
-0.00137765
-0.00137962
-0.0013789
-0.00137683
-0.00137745
-0.0013794
-0.00137867
-0.00137659
-0.00137719
-0.00137914
-0.00137839
-0.0013763
-0.0013769
-0.00137884
-0.00137809
-0.00137599
-0.00137658
-0.00137851
-0.00137776
-0.00137566
-0.00137624
-0.00137817
-0.00137741
-0.00137531
-0.00137589
-0.00137781
-0.00137704
-0.00137493
-0.00137551
-0.00137743
-0.00137666
-0.00137455
-0.00137512
-0.00137703
-0.00137626
-0.00137414
-0.00137471
-0.00137663
-0.00137585
-0.00137375
-0.00137428
-0.00137618
-0.00137538
-0.00137324
-0.00137375
-0.00137405
-0.00137083
-0.00136699
-0.00136459
-0.0013631
-0.00136199
-0.00136104
-0.00136017
-0.00135944
-0.00135887
-0.00135846
-0.00135814
-0.0013579
-0.00135771
-0.00135754
-0.00135737
-0.0013572
-0.00135701
-0.00135684
-0.00135671
-0.00135661
-0.00135649
-0.00135638
-0.00135626
-0.00135613
-0.00135601
-0.00135589
-0.00135577
-0.00135565
-0.00135553
-0.00135541
-0.00135528
-0.00135516
-0.00135504
-0.00135491
-0.00135478
-0.00135466
-0.00135455
-0.00135443
-0.0013543
-0.00135417
-0.00135404
-0.00135391
-0.00135378
-0.00135364
-0.00135351
-0.00135338
-0.00135326
-0.00135314
-0.001353
-0.00135287
-0.00135274
-0.00135262
-0.00135249
-0.00135237
-0.00135224
-0.00135211
-0.00135199
-0.00135186
-0.00135172
-0.00135159
-0.00135146
-0.00135133
-0.0013512
-0.00135108
-0.00135096
-0.00135084
-0.00135071
-0.00135059
-0.00135047
-0.00135034
-0.00135022
-0.00135011
-0.00134999
-0.00134988
-0.00134976
-0.00134964
-0.00134953
-0.00134942
-0.00134931
-0.0013492
-0.00134909
-0.001349
-0.00134891
-0.00134882
-0.00134871
-0.00134861
-0.0013485
-0.00134843
-0.00134829
-0.00134825
-0.0013481
-0.0013481
-0.00134791
-0.00134795
-0.00134775
-0.0013478
-0.00134759
-0.00134767
-0.00134744
-0.00134754
-0.0013473
-0.00134742
-0.00134716
-0.00134732
-0.00134704
-0.00134724
-0.00134686
-0.00134718
-0.00134674
-0.00134707
-0.00134656
-0.00134679
-0.00134649
-0.00134652
-0.00134641
-0.00134603
-0.00134645
-0.00134585
-0.00134594
-0.00134582
-0.00134595
-0.00134555
-0.00134542
-0.0013456
-0.00134541
-0.00134555
-0.00134374
-0.00134388
-0.00134282
-0.00134314
-0.00134258
-0.00134405
-0.00134396
-0.00134471
-0.00134421
-0.00134493
-0.00134531
-0.00134614
-0.00134677
-0.00134724
-0.00134751
-0.00134719
-0.00134771
-0.00134673
-0.00134751
-0.00134691
-0.00134592
-0.0013444
-0.00112019
-0.000444218
0
0
0
)
;

boundaryField
{
    inlet
    {
        type            calculated;
        value           uniform 0;
    }
    outlet
    {
        type            calculated;
        value           uniform 0;
    }
    sideWall
    {
        type            empty;
    }
}


// ************************************************************************* //
