/*--------------------------------*- C++ -*----------------------------------*\
| =========                 |                                                 |
| \\      /  F ield         | foam-extend: Open Source CFD                    |
|  \\    /   O peration     | Version:     3.2                                |
|   \\  /    A nd           | Web:         http://www.foam-extend.org         |
|    \\/     M anipulation  | For copyright notice see file Copyright         |
\*---------------------------------------------------------------------------*/
FoamFile
{
    version     2.0;
    format      ascii;
    class       areaScalarField;
    location    "50";
    object      tVolA;
}
// * * * * * * * * * * * * * * * * * * * * * * * * * * * * * * * * * * * * * //

dimensions      [0 3 0 0 0 0 0];

internalField   nonuniform List<scalar> 
300
(
0
0
0
0
0
0
0
0
0
0
0
0
0
0
0
0
0
0
0
0
0
0
0
0
0
0
0
0
0
0
0
0
0
0
0
0
0
0
0
0
0
0
0
0
0
0
0
0
0
0
0
0
0
0
0
0
0
0
0
0
3.30792e-06
3.2458e-06
3.29967e-06
3.23655e-06
3.30145e-06
3.23246e-06
3.30299e-06
3.23043e-06
3.3038e-06
3.22955e-06
3.27249e-06
3.14359e-06
3.27049e-06
3.18571e-06
3.29009e-06
3.20332e-06
3.29574e-06
3.21355e-06
3.30291e-06
3.21788e-06
3.30372e-06
3.22296e-06
3.30985e-06
3.22415e-06
3.30675e-06
3.22428e-06
3.30973e-06
3.22361e-06
3.3061e-06
3.22399e-06
3.30936e-06
3.22367e-06
3.30592e-06
3.22399e-06
3.30927e-06
3.22364e-06
3.30587e-06
3.22403e-06
3.30926e-06
3.2237e-06
3.30592e-06
3.22409e-06
3.30932e-06
3.22374e-06
3.30593e-06
3.22412e-06
3.30937e-06
3.22378e-06
3.30597e-06
3.22414e-06
3.30939e-06
3.2238e-06
3.30599e-06
3.22415e-06
3.3094e-06
3.2238e-06
3.30602e-06
3.22416e-06
3.30939e-06
3.2238e-06
3.30603e-06
3.22418e-06
3.30942e-06
3.22379e-06
3.30603e-06
3.22417e-06
3.30941e-06
3.2238e-06
3.30604e-06
3.22416e-06
3.30943e-06
3.22379e-06
3.30603e-06
3.22415e-06
3.30943e-06
3.2238e-06
3.30606e-06
3.22415e-06
3.3094e-06
3.22378e-06
3.30604e-06
3.2242e-06
3.30944e-06
3.22398e-06
3.306e-06
3.22428e-06
3.32203e-06
3.23588e-06
3.31599e-06
3.22894e-06
3.31189e-06
3.22745e-06
3.31132e-06
3.22719e-06
3.31111e-06
3.22698e-06
3.31092e-06
3.22672e-06
3.31066e-06
3.22651e-06
3.31055e-06
3.2264e-06
3.31045e-06
3.22637e-06
3.31042e-06
3.22623e-06
3.31033e-06
3.2262e-06
3.31035e-06
3.22618e-06
3.31031e-06
3.22616e-06
3.31035e-06
3.22614e-06
3.31032e-06
3.22613e-06
3.31036e-06
3.22612e-06
3.31034e-06
3.22612e-06
3.31037e-06
3.22608e-06
3.31035e-06
3.22611e-06
3.3104e-06
3.22609e-06
3.31038e-06
3.22611e-06
3.31041e-06
3.22607e-06
3.31039e-06
3.22607e-06
3.31044e-06
3.22608e-06
3.31042e-06
3.22606e-06
3.31045e-06
3.22606e-06
3.31044e-06
3.22606e-06
3.31048e-06
3.22606e-06
3.31048e-06
3.22605e-06
3.31049e-06
3.22606e-06
3.31051e-06
3.22607e-06
3.31053e-06
3.22603e-06
3.3105e-06
3.22603e-06
3.31055e-06
3.22606e-06
3.31056e-06
3.22605e-06
3.31058e-06
3.22603e-06
3.31056e-06
3.22602e-06
3.3106e-06
3.22604e-06
3.31059e-06
3.22603e-06
3.31062e-06
3.22602e-06
3.3106e-06
3.22603e-06
3.3106e-06
3.22605e-06
3.3106e-06
3.2261e-06
3.31056e-06
3.22616e-06
3.3104e-06
3.22636e-06
3.31016e-06
3.22673e-06
3.30972e-06
3.2273e-06
3.30903e-06
3.22808e-06
3.30811e-06
3.22912e-06
3.30693e-06
3.23044e-06
3.30544e-06
3.232e-06
3.30368e-06
3.23385e-06
3.30161e-06
3.23598e-06
3.2992e-06
3.23938e-06
3.29553e-06
3.24277e-06
3.29202e-06
3.2489e-06
3.28794e-06
3.25167e-06
3.28447e-06
3.25801e-06
3.28143e-06
3.25867e-06
3.27895e-06
3.265e-06
3.27676e-06
3.26383e-06
3.27454e-06
3.27249e-06
3.27297e-06
3.26998e-06
3.26337e-06
3.31055e-06
3.25868e-06
3.30522e-06
3.24959e-06
3.30754e-06
3.23879e-06
3.31201e-06
3.22913e-06
3.31866e-06
3.21979e-06
3.32556e-06
3.21169e-06
3.33153e-06
3.20567e-06
3.33745e-06
3.19547e-06
3.34764e-06
3.18642e-06
3.35616e-06
3.17927e-06
3.36302e-06
3.17331e-06
3.42252e-06
0
0
0
0
)
;

boundaryField
{
    inlet
    {
        type            calculated;
        value           uniform 0;
    }
    outlet
    {
        type            calculated;
        value           uniform 0;
    }
    sideWall
    {
        type            empty;
    }
}


// ************************************************************************* //
