/*--------------------------------*- C++ -*----------------------------------*\
| =========                 |                                                 |
| \\      /  F ield         | foam-extend: Open Source CFD                    |
|  \\    /   O peration     | Version:     3.2                                |
|   \\  /    A nd           | Web:         http://www.foam-extend.org         |
|    \\/     M anipulation  | For copyright notice see file Copyright         |
\*---------------------------------------------------------------------------*/
FoamFile
{
    version     2.0;
    format      ascii;
    class       areaScalarField;
    location    "50";
    object      tVol;
}
// * * * * * * * * * * * * * * * * * * * * * * * * * * * * * * * * * * * * * //

dimensions      [0 3 0 0 0 0 0];

internalField   nonuniform List<scalar> 
300
(
1.47002e-05
1.47002e-05
1.47002e-05
1.47002e-05
1.47002e-05
1.47002e-05
1.47002e-05
1.47002e-05
1.47002e-05
1.47002e-05
1.47002e-05
1.47002e-05
1.47002e-05
1.47002e-05
1.47002e-05
1.47002e-05
1.47002e-05
1.47002e-05
1.47002e-05
1.47002e-05
1.47002e-05
1.47002e-05
1.47002e-05
1.47002e-05
1.47002e-05
1.47002e-05
1.47002e-05
1.47002e-05
1.47002e-05
1.47002e-05
1.47002e-05
1.47002e-05
1.47002e-05
1.47002e-05
1.47002e-05
1.47002e-05
1.47002e-05
1.47002e-05
1.47002e-05
1.47002e-05
1.47002e-05
1.47002e-05
1.47002e-05
1.47002e-05
1.47002e-05
1.47002e-05
1.47002e-05
1.47002e-05
1.47002e-05
1.47002e-05
1.47002e-05
1.47002e-05
1.47002e-05
1.47002e-05
1.47002e-05
1.47002e-05
1.47002e-05
1.47002e-05
1.47002e-05
1.45084e-05
1.41112e-05
1.37946e-05
1.36234e-05
1.35188e-05
1.34488e-05
1.34026e-05
1.33699e-05
1.33479e-05
1.33323e-05
1.33225e-05
1.33146e-05
1.33038e-05
1.32942e-05
1.32915e-05
1.32935e-05
1.32961e-05
1.32974e-05
1.32997e-05
1.33017e-05
1.33025e-05
1.33043e-05
1.33099e-05
1.3316e-05
1.33182e-05
1.33177e-05
1.33193e-05
1.33218e-05
1.33215e-05
1.33197e-05
1.33205e-05
1.33227e-05
1.33221e-05
1.33202e-05
1.33209e-05
1.33229e-05
1.33223e-05
1.33203e-05
1.3321e-05
1.33231e-05
1.33224e-05
1.33204e-05
1.33211e-05
1.33232e-05
1.33226e-05
1.33206e-05
1.33213e-05
1.33234e-05
1.33228e-05
1.33209e-05
1.33216e-05
1.33237e-05
1.33231e-05
1.33211e-05
1.33219e-05
1.3324e-05
1.33234e-05
1.33215e-05
1.33222e-05
1.33243e-05
1.33237e-05
1.33218e-05
1.33225e-05
1.33247e-05
1.33241e-05
1.33221e-05
1.33229e-05
1.3325e-05
1.33244e-05
1.33225e-05
1.33233e-05
1.33254e-05
1.33248e-05
1.33229e-05
1.33237e-05
1.33258e-05
1.33252e-05
1.33233e-05
1.33241e-05
1.33262e-05
1.33256e-05
1.33237e-05
1.33245e-05
1.33266e-05
1.33261e-05
1.33242e-05
1.3325e-05
1.33291e-05
1.33336e-05
1.33371e-05
1.33395e-05
1.3341e-05
1.33421e-05
1.33431e-05
1.33439e-05
1.33447e-05
1.33452e-05
1.33457e-05
1.3346e-05
1.33462e-05
1.33464e-05
1.33466e-05
1.33467e-05
1.33469e-05
1.33471e-05
1.33473e-05
1.33474e-05
1.33475e-05
1.33476e-05
1.33477e-05
1.33479e-05
1.3348e-05
1.33481e-05
1.33482e-05
1.33483e-05
1.33485e-05
1.33486e-05
1.33487e-05
1.33488e-05
1.3349e-05
1.33491e-05
1.33492e-05
1.33493e-05
1.33494e-05
1.33496e-05
1.33497e-05
1.33498e-05
1.33499e-05
1.33501e-05
1.33502e-05
1.33503e-05
1.33505e-05
1.33506e-05
1.33507e-05
1.33509e-05
1.3351e-05
1.33511e-05
1.33512e-05
1.33514e-05
1.33515e-05
1.33516e-05
1.33517e-05
1.33519e-05
1.3352e-05
1.33521e-05
1.33523e-05
1.33524e-05
1.33525e-05
1.33526e-05
1.33528e-05
1.33529e-05
1.3353e-05
1.33531e-05
1.33533e-05
1.33534e-05
1.33535e-05
1.33536e-05
1.33538e-05
1.33539e-05
1.3354e-05
1.33541e-05
1.33542e-05
1.33544e-05
1.33545e-05
1.33546e-05
1.33547e-05
1.33548e-05
1.33549e-05
1.3355e-05
1.33551e-05
1.33552e-05
1.33553e-05
1.33554e-05
1.33555e-05
1.33556e-05
1.33557e-05
1.33558e-05
1.33559e-05
1.3356e-05
1.3356e-05
1.33562e-05
1.33562e-05
1.33564e-05
1.33563e-05
1.33565e-05
1.33564e-05
1.33567e-05
1.33566e-05
1.33568e-05
1.33567e-05
1.33569e-05
1.33568e-05
1.33571e-05
1.33569e-05
1.33572e-05
1.3357e-05
1.33574e-05
1.33571e-05
1.33575e-05
1.33573e-05
1.33576e-05
1.33576e-05
1.33577e-05
1.33581e-05
1.33577e-05
1.33583e-05
1.33582e-05
1.33583e-05
1.33582e-05
1.33586e-05
1.33587e-05
1.33585e-05
1.33587e-05
1.33586e-05
1.33604e-05
1.33603e-05
1.33613e-05
1.3361e-05
1.33615e-05
1.33601e-05
1.33601e-05
1.33594e-05
1.33599e-05
1.33592e-05
1.33588e-05
1.3358e-05
1.33573e-05
1.33569e-05
1.33566e-05
1.3357e-05
1.33564e-05
1.33574e-05
1.33566e-05
1.33572e-05
1.33582e-05
1.33596e-05
1.35827e-05
1.42578e-05
1.47002e-05
1.47002e-05
1.47002e-05
)
;

boundaryField
{
    inlet
    {
        type            calculated;
        value           uniform 0;
    }
    outlet
    {
        type            calculated;
        value           uniform 0;
    }
    sideWall
    {
        type            empty;
    }
}


// ************************************************************************* //
