/*--------------------------------*- C++ -*----------------------------------*\
| =========                 |                                                 |
| \\      /  F ield         | foam-extend: Open Source CFD                    |
|  \\    /   O peration     | Version:     3.2                                |
|   \\  /    A nd           | Web:         http://www.foam-extend.org         |
|    \\/     M anipulation  | For copyright notice see file Copyright         |
\*---------------------------------------------------------------------------*/
FoamFile
{
    version     2.0;
    format      ascii;
    class       areaScalarField;
    location    "50";
    object      tVolC;
}
// * * * * * * * * * * * * * * * * * * * * * * * * * * * * * * * * * * * * * //

dimensions      [0 3 0 0 0 0 0];

internalField   nonuniform List<scalar> 
300
(
0
0
0
0
0
0
0
0
0
0
0
0
0
0
0
0
0
0
0
0
0
0
0
0
0
0
0
0
0
0
0
0
0
0
0
0
0
0
0
0
0
0
0
0
0
0
0
0
0
0
0
0
0
0
0
0
0
0
0
0
1.08011e-05
1.05459e-05
1.03203e-05
1.02787e-05
1.01436e-05
1.01663e-05
1.0063e-05
1.01135e-05
1.00245e-05
1.00889e-05
1.00475e-05
1.01629e-05
1.00183e-05
1.0103e-05
1.00088e-05
1.00954e-05
9.99619e-06
1.00834e-05
1.00042e-05
1.00873e-05
9.99521e-06
1.00842e-05
1.00116e-05
1.00967e-05
1.00056e-05
1.00923e-05
1.00175e-05
1.01005e-05
1.00082e-05
1.00938e-05
1.00187e-05
1.01011e-05
1.00089e-05
1.00941e-05
1.00191e-05
1.01013e-05
1.00091e-05
1.00942e-05
1.00192e-05
1.01014e-05
1.00091e-05
1.00943e-05
1.00193e-05
1.01015e-05
1.00093e-05
1.00945e-05
1.00194e-05
1.01017e-05
1.00095e-05
1.00947e-05
1.00197e-05
1.01019e-05
1.00098e-05
1.0095e-05
1.002e-05
1.01022e-05
1.00101e-05
1.00953e-05
1.00203e-05
1.01026e-05
1.00104e-05
1.00956e-05
1.00206e-05
1.01029e-05
1.00107e-05
1.0096e-05
1.0021e-05
1.01033e-05
1.00111e-05
1.00964e-05
1.00213e-05
1.01037e-05
1.00115e-05
1.00968e-05
1.00217e-05
1.01041e-05
1.00119e-05
1.00972e-05
1.00222e-05
1.01045e-05
1.00123e-05
1.00975e-05
1.00226e-05
1.01047e-05
1.00128e-05
1.0098e-05
1.00124e-05
1.01017e-05
1.00251e-05
1.01145e-05
1.00331e-05
1.01186e-05
1.00357e-05
1.01207e-05
1.00375e-05
1.01222e-05
1.00387e-05
1.01232e-05
1.00395e-05
1.01238e-05
1.004e-05
1.01243e-05
1.00404e-05
1.01247e-05
1.00408e-05
1.01251e-05
1.00411e-05
1.01254e-05
1.00414e-05
1.01256e-05
1.00416e-05
1.01259e-05
1.00418e-05
1.01261e-05
1.00421e-05
1.01264e-05
1.00423e-05
1.01266e-05
1.00426e-05
1.01269e-05
1.00428e-05
1.01272e-05
1.00431e-05
1.01274e-05
1.00433e-05
1.01276e-05
1.00435e-05
1.01279e-05
1.00438e-05
1.01282e-05
1.0044e-05
1.01285e-05
1.00443e-05
1.01287e-05
1.00445e-05
1.0129e-05
1.00448e-05
1.01292e-05
1.0045e-05
1.01295e-05
1.00452e-05
1.01297e-05
1.00455e-05
1.013e-05
1.00457e-05
1.01303e-05
1.0046e-05
1.01305e-05
1.00462e-05
1.01308e-05
1.00465e-05
1.0131e-05
1.00467e-05
1.01313e-05
1.00469e-05
1.01315e-05
1.00471e-05
1.01318e-05
1.00474e-05
1.0132e-05
1.00476e-05
1.01322e-05
1.00478e-05
1.01325e-05
1.0048e-05
1.01327e-05
1.00483e-05
1.01329e-05
1.00485e-05
1.01331e-05
1.00487e-05
1.01332e-05
1.00489e-05
1.01334e-05
1.00493e-05
1.01334e-05
1.00497e-05
1.01332e-05
1.00503e-05
1.01328e-05
1.00511e-05
1.01322e-05
1.00522e-05
1.01313e-05
1.00535e-05
1.01302e-05
1.00551e-05
1.01287e-05
1.0057e-05
1.0127e-05
1.00592e-05
1.0125e-05
1.00617e-05
1.01218e-05
1.00654e-05
1.01185e-05
1.0069e-05
1.01126e-05
1.00734e-05
1.01099e-05
1.00771e-05
1.01036e-05
1.00807e-05
1.01029e-05
1.00833e-05
1.00971e-05
1.00855e-05
1.00983e-05
1.0088e-05
1.00901e-05
1.00895e-05
1.00926e-05
1.00992e-05
1.00537e-05
1.01055e-05
1.006e-05
1.01154e-05
1.00579e-05
1.01253e-05
1.0052e-05
1.01343e-05
1.00451e-05
1.01434e-05
1.00371e-05
1.01503e-05
1.00297e-05
1.01552e-05
1.00231e-05
1.01655e-05
1.00127e-05
1.01749e-05
1.00044e-05
1.01819e-05
9.99914e-06
1.01902e-05
1.01637e-05
0
0
0
0
)
;

boundaryField
{
    inlet
    {
        type            calculated;
        value           uniform 0;
    }
    outlet
    {
        type            calculated;
        value           uniform 0;
    }
    sideWall
    {
        type            empty;
    }
}


// ************************************************************************* //
