/*--------------------------------*- C++ -*----------------------------------*\
| =========                 |                                                 |
| \\      /  F ield         | foam-extend: Open Source CFD                    |
|  \\    /   O peration     | Version:     3.2                                |
|   \\  /    A nd           | Web:         http://www.foam-extend.org         |
|    \\/     M anipulation  | For copyright notice see file Copyright         |
\*---------------------------------------------------------------------------*/
FoamFile
{
    version     2.0;
    format      ascii;
    class       volVectorField;
    location    "50";
    object      U;
}
// * * * * * * * * * * * * * * * * * * * * * * * * * * * * * * * * * * * * * //

dimensions      [0 1 -1 0 0 0 0];

internalField   nonuniform List<vector> 
5400
(
(0.270855 -3.46828e-26 0.00623515)
(0.175407 4.56593e-26 7.27433e-06)
(0.150041 1.78209e-26 -0.000808475)
(0.154396 0 -0.000815937)
(0.150808 -1.92786e-27 -0.000787583)
(0.151658 -1.74896e-27 -0.000768798)
(0.150117 -2.16655e-27 -0.000764114)
(0.150271 -7.55178e-28 -0.000753747)
(0.149659 0 -0.00075661)
(0.149909 -1.99601e-28 -0.000751327)
(0.149828 0 -0.000755112)
(0.150143 8.57495e-30 -0.000753541)
(0.150328 -1.38099e-28 -0.000757036)
(0.150777 -1.54176e-28 -0.000757722)
(0.151096 0 -0.000760088)
(0.151625 0 -0.000762395)
(0.152083 -3.55991e-28 -0.000764927)
(0.152636 3.76703e-28 -0.000767369)
(0.153154 0 -0.000770493)
(0.153765 0 -0.000773511)
(0.154383 0 -0.000776643)
(0.15502 5.19248e-28 -0.00077968)
(0.155669 0 -0.000782996)
(0.156325 0 -0.000786034)
(0.156989 0 -0.000789175)
(0.157629 5.46421e-28 -0.000791864)
(0.15819 -4.86457e-28 -0.000793955)
(0.158665 0 -0.000795671)
(0.159066 0 -0.00079718)
(0.1594 3.11357e-28 -0.000798445)
(0.159681 -2.64942e-28 -0.00079956)
(0.159914 0 -0.000800474)
(0.16011 0 -0.000801282)
(0.160271 0 -0.00080193)
(0.160408 -1.33939e-28 -0.000802515)
(0.160519 0 -0.000802968)
(0.160616 0 -0.000803396)
(0.160692 -7.9772e-29 -0.000803708)
(0.160762 0 -0.00080403)
(0.160814 0 -0.000804236)
(0.160866 0 -0.000804493)
(0.1609 -1.82209e-43 -0.000804621)
(0.160942 0 -0.000804837)
(0.160964 0 -0.000804884)
(0.160995 0 -0.000805075)
(0.161007 0 -0.000805097)
(0.161037 3.73584e-29 -0.000805282)
(0.16104 0 -0.000805238)
(0.161074 1.52728e-29 -0.000805479)
(0.161055 0 -0.000805216)
(0.161115 0 -0.000805844)
(0.161044 1.56511e-30 -0.000804828)
(0.161171 0 -0.000806545)
(0.160988 -1.76196e-29 -0.000803905)
(0.161291 2.8819e-29 -0.000808127)
(0.160826 0 -0.000801509)
(0.161573 1.73987e-28 -0.000812064)
(0.160442 0 -0.000794527)
(0.162525 -3.86261e-27 -0.000817236)
(0.158531 0 -0.00193327)
(0.149278 9.81688e-27 -0.00196327)
(0.150584 0 -0.00144446)
(0.151335 0 -0.00112179)
(0.15146 -2.13342e-27 -0.00102614)
(0.151694 9.32755e-28 -0.000911454)
(0.151805 0 -0.000884223)
(0.151859 9.82142e-32 -0.000829673)
(0.151953 0 -0.000820183)
(0.151934 -5.83701e-28 -0.000792386)
(0.151998 0 -0.00079697)
(0.151758 -1.46394e-27 -0.000785642)
(0.151797 0 -0.000792615)
(0.151899 1.46996e-27 -0.000766585)
(0.15195 2.43634e-27 -0.000774235)
(0.151674 -1.03424e-27 -0.000748)
(0.151894 0 -0.000748162)
(0.151982 2.51894e-27 -0.000746095)
(0.151994 2.58538e-27 -0.00076477)
(0.151681 0 -0.000757374)
(0.151841 -4.89357e-27 -0.000749655)
(0.151954 -1.28727e-27 -0.000740988)
(0.151997 -2.4897e-27 -0.000750294)
(0.151767 2.35842e-27 -0.000748496)
(0.151866 -2.39762e-27 -0.0007508)
(0.151989 1.18165e-27 -0.000754279)
(0.151972 4.94309e-27 -0.000761526)
(0.15175 2.37187e-27 -0.000758515)
(0.151843 0 -0.000755914)
(0.151975 1.18429e-27 -0.000757557)
(0.151955 2.44635e-27 -0.000762618)
(0.151742 -1.18398e-27 -0.000759618)
(0.151832 2.43226e-27 -0.000756098)
(0.15197 -1.18352e-27 -0.000758033)
(0.151948 -2.43782e-27 -0.000762689)
(0.15174 1.17776e-27 -0.000759858)
(0.151828 2.42746e-27 -0.000756226)
(0.15197 0 -0.000758178)
(0.151946 -2.66225e-32 -0.000762751)
(0.151741 -1.17853e-27 -0.000759973)
(0.151828 -2.43042e-27 -0.000756154)
(0.151971 1.18764e-27 -0.000758188)
(0.151947 -2.43951e-27 -0.000762664)
(0.151742 0 -0.000759941)
(0.151828 0 -0.000756097)
(0.151973 -1.18743e-27 -0.000758178)
(0.151949 2.43871e-27 -0.000762601)
(0.151744 -1.17903e-27 -0.000759906)
(0.15183 -2.32021e-32 -0.000756053)
(0.151975 0 -0.000758161)
(0.151951 2.43844e-27 -0.000762586)
(0.151746 1.1791e-27 -0.000759888)
(0.151832 2.64572e-32 -0.00075602)
(0.151977 -1.07863e-32 -0.000758142)
(0.151952 0 -0.000762575)
(0.151748 0 -0.00075989)
(0.151834 -2.43095e-27 -0.000756014)
(0.151979 1.18745e-27 -0.000758124)
(0.151954 0 -0.000762554)
(0.15175 0 -0.000759887)
(0.151836 -2.43093e-27 -0.000756015)
(0.151981 -1.18755e-27 -0.000758121)
(0.151956 2.24595e-32 -0.000762543)
(0.151752 -1.17878e-27 -0.000759866)
(0.151838 -4.85964e-27 -0.000756017)
(0.151983 0 -0.000758119)
(0.151958 -4.87231e-27 -0.000762543)
(0.151754 -1.17905e-27 -0.000759864)
(0.151839 0 -0.000756007)
(0.151984 0 -0.000758112)
(0.15196 -2.43746e-27 -0.000762556)
(0.151756 -1.17911e-27 -0.000759853)
(0.151842 -2.63543e-32 -0.000756014)
(0.151986 0 -0.000758108)
(0.151962 -2.89003e-32 -0.000762544)
(0.151758 0 -0.00075987)
(0.151844 2.42823e-27 -0.000755996)
(0.151989 0 -0.000758087)
(0.151964 2.43607e-27 -0.000762595)
(0.15176 -2.35755e-27 -0.000759841)
(0.151848 -2.42858e-27 -0.000756008)
(0.15199 -1.18607e-27 -0.000758243)
(0.151968 0 -0.000762249)
(0.151762 -1.18305e-27 -0.000760095)
(0.151847 2.28809e-32 -0.000755626)
(0.151993 1.18963e-27 -0.000758337)
(0.151967 2.35549e-27 -0.000761913)
(0.151762 1.08137e-27 -0.000748688)
(0.151691 -5.98888e-28 -0.000743228)
(0.151669 -1.20645e-28 -0.000748403)
(0.151649 0 -0.00075262)
(0.151639 -1.04354e-29 -0.000754334)
(0.151632 -2.00031e-33 -0.000755156)
(0.151629 0 -0.000755287)
(0.151627 4.38658e-30 -0.000755675)
(0.151625 5.26175e-30 -0.000756085)
(0.151622 0 -0.000756698)
(0.15162 0 -0.000756972)
(0.151617 0 -0.000757287)
(0.151614 -8.75825e-31 -0.00075738)
(0.151613 -2.70651e-30 -0.000757626)
(0.151614 0 -0.000757527)
(0.151614 0 -0.000757623)
(0.151614 0 -0.000757522)
(0.151613 0 -0.000757503)
(0.151611 7.05948e-31 -0.00075751)
(0.15161 -4.68219e-30 -0.000757784)
(0.151612 0 -0.000757693)
(0.151612 0 -0.000757752)
(0.151612 0 -0.000757633)
(0.151612 -3.0172e-33 -0.000757714)
(0.151614 0 -0.000757663)
(0.151615 0 -0.000757759)
(0.151615 0 -0.00075769)
(0.151616 0 -0.000757789)
(0.151617 -3.48526e-31 -0.000757696)
(0.151617 0 -0.000757751)
(0.151618 0 -0.000757649)
(0.151618 2.78e-31 -0.000757771)
(0.151619 0 -0.000757705)
(0.151619 -1.40878e-30 -0.000757779)
(0.151621 9.01564e-31 -0.000757665)
(0.151621 0 -0.00075776)
(0.151622 1.07437e-30 -0.000757724)
(0.151622 1.55337e-31 -0.000757813)
(0.151623 0 -0.000757697)
(0.151623 -2.58179e-31 -0.000757774)
(0.151624 0 -0.000757687)
(0.151625 0 -0.000757762)
(0.151626 1.856e-30 -0.000757698)
(0.151626 0 -0.000757774)
(0.151628 -1.23505e-30 -0.000757698)
(0.151628 4.38002e-31 -0.000757797)
(0.15163 0 -0.000757722)
(0.15163 5.03435e-31 -0.000757816)
(0.151631 0 -0.000757736)
(0.151631 0 -0.000757802)
(0.151632 0 -0.000757727)
(0.151633 0 -0.000757823)
(0.151634 0 -0.00075776)
(0.151634 0 -0.00075785)
(0.151635 -1.5867e-30 -0.000757747)
(0.151636 0 -0.000757837)
(0.151637 0 -0.000757769)
(0.151638 4.21846e-31 -0.000757844)
(0.151639 0 -0.000757755)
(0.151639 0 -0.000757834)
(0.151641 -1.2253e-30 -0.000757783)
(0.151641 0 -0.000757867)
(0.151643 0 -0.000757774)
(0.151643 -3.19871e-33 -0.000757878)
(0.151644 0 -0.000757821)
(0.151645 -1.96391e-31 -0.000757917)
(0.151646 0 -0.000757818)
(0.151646 0 -0.000757886)
(0.151647 -1.30668e-30 -0.000757826)
(0.151648 0 -0.000757926)
(0.151649 0 -0.000757832)
(0.15165 0 -0.000757929)
(0.151651 0 -0.000757869)
(0.151651 0 -0.000757968)
(0.151652 0 -0.00075788)
(0.151653 0 -0.000757939)
(0.151653 6.30514e-30 -0.00075786)
(0.151652 0 -0.000757967)
(0.151654 -4.47089e-30 -0.000757911)
(0.151655 0 -0.000757984)
(0.151655 0 -0.000757896)
(0.151657 0 -0.000758006)
(0.151657 -3.34822e-30 -0.000758042)
(0.151661 0 -0.000758065)
(0.151658 0 -0.000757976)
(0.151663 0 -0.000757967)
(0.151657 4.05426e-30 -0.000758034)
(0.151667 -6.22643e-30 -0.000757912)
(0.151652 -1.54158e-30 -0.000758226)
(0.151675 0 -0.000757672)
(0.151647 4.06884e-30 -0.000758621)
(0.151686 0 -0.00075723)
(0.151638 0 -0.000759298)
(0.151698 -1.63786e-32 -0.00075638)
(0.151628 -2.11008e-32 -0.000760353)
(0.151709 -2.83789e-29 -0.000755268)
(0.151621 1.76319e-29 -0.000761558)
(0.15172 -3.78202e-32 -0.000754026)
(0.151613 0 -0.000762955)
(0.151731 -3.47147e-29 -0.000752539)
(0.151604 0 -0.000764545)
(0.151743 0 -0.000750963)
(0.151593 0 -0.000766224)
(0.151758 6.03254e-29 -0.000749215)
(0.151579 0 -0.000768162)
(0.151776 0 -0.000747175)
(0.15156 0 -0.000770406)
(0.151799 0 -0.000744415)
(0.151543 0 -0.000773776)
(0.151812 -1.5479e-31 -0.000740747)
(0.15154 -1.40394e-28 -0.000777615)
(0.151806 0 -0.000736245)
(0.151568 0 -0.000781776)
(0.151767 -4.02234e-28 -0.000733173)
(0.151616 4.12607e-28 -0.000783949)
(0.151721 -2.10982e-31 -0.000731959)
(0.151669 0 -0.000782772)
(0.15168 0 -0.000737457)
(0.151686 -2.01154e-28 -0.00077618)
(0.151698 1.53899e-28 -0.000739905)
(0.151661 0 -0.000776215)
(0.151718 0 -0.000741259)
(0.151631 1.265e-28 -0.00077332)
(0.151781 -1.29696e-28 -0.000742843)
(0.151559 1.31643e-28 -0.000774665)
(0.15185 -1.14786e-28 -0.000741699)
(0.151473 -1.69746e-28 -0.000775116)
(0.151957 -1.49535e-28 -0.000732142)
(0.151453 -1.86941e-28 -0.000784649)
(0.15197 -2.09185e-28 -0.000726549)
(0.151437 -2.43722e-28 -0.000791515)
(0.151991 0 -0.000722775)
(0.151407 0 -0.0008021)
(0.151964 -3.48981e-28 -0.000714614)
(0.151429 -3.83182e-28 -0.00080632)
(0.151936 0 -0.000707683)
(0.151478 0 -0.000813118)
(0.151864 -4.36246e-28 -0.000705813)
(0.151536 4.5536e-28 -0.000816074)
(0.151789 0 -0.000704107)
(0.151594 -4.61544e-28 -0.000815666)
(0.151705 -5.10765e-28 -0.000704454)
(0.151705 -8.40527e-28 -0.000811535)
(0.151592 -1.08066e-27 -0.000704963)
(0.151833 0 -0.000807181)
(0.151455 -8.87636e-28 -0.000712703)
(0.152001 0 -0.000802678)
(0.151177 6.84659e-28 -0.000704941)
(0.152239 0 -0.00081474)
(0.148832 2.40027e-26 0.000562573)
(0.173731 0 0.00211521)
(0.167304 0 -0.000615529)
(0.15787 1.68874e-27 -0.000832853)
(0.161848 0 -0.000812149)
(0.431033 -1.64554e-25 0.0103826)
(0.355463 1.11496e-25 0.00166859)
(0.305758 4.71225e-26 -0.000929073)
(0.305417 0 -0.0014282)
(0.296659 9.8988e-27 -0.00142551)
(0.295598 5.88053e-27 -0.0014118)
(0.291595 1.14159e-33 -0.00142349)
(0.291109 2.90573e-27 -0.00142331)
(0.28939 2.06592e-27 -0.00144046)
(0.289465 0 -0.00144353)
(0.289108 0 -0.00145538)
(0.289419 0 -0.00145693)
(0.289671 1.26616e-28 -0.00146896)
(0.290281 4.53966e-29 -0.00147162)
(0.290823 3.30248e-28 -0.00148045)
(0.291702 0 -0.00148698)
(0.292493 0 -0.00149335)
(0.293484 7.24627e-28 -0.00149916)
(0.294407 8.12714e-28 -0.00150623)
(0.295499 0 -0.00151436)
(0.296627 0 -0.00152132)
(0.297795 0 -0.00152786)
(0.298997 0 -0.00153481)
(0.300215 0 -0.00154128)
(0.301472 0 -0.00154739)
(0.302675 0 -0.00155024)
(0.303745 -1.21188e-27 -0.00155069)
(0.304661 0 -0.00155043)
(0.305448 0 -0.00155015)
(0.306111 0 -0.00154979)
(0.306677 -6.91578e-28 -0.00154953)
(0.307147 0 -0.00154923)
(0.307549 -4.99835e-28 -0.00154904)
(0.307879 0 -0.00154881)
(0.308163 -3.5646e-28 -0.0015487)
(0.308393 0 -0.00154854)
(0.308596 -2.52679e-28 -0.00154849)
(0.308754 -2.13649e-28 -0.00154839)
(0.308901 0 -0.0015484)
(0.309009 0 -0.00154832)
(0.309119 -1.27341e-28 -0.00154838)
(0.30919 -2.19556e-28 -0.00154833)
(0.309278 9.42718e-29 -0.00154846)
(0.309323 -7.8286e-29 -0.00154827)
(0.309392 0 -0.00154844)
(0.309417 0 -0.00154828)
(0.309474 -1.16989e-31 -0.00154847)
(0.309485 0 -0.00154834)
(0.309543 -3.60675e-29 -0.0015486)
(0.309526 2.86238e-29 -0.0015482)
(0.309608 0 -0.00154889)
(0.309527 2.34011e-29 -0.00154749)
(0.309691 0 -0.00154978)
(0.309468 2.67574e-29 -0.0015462)
(0.309848 -1.46886e-34 -0.00155189)
(0.309275 0 -0.00154307)
(0.310213 3.61602e-30 -0.00155842)
(0.308838 0 -0.00154651)
(0.311936 -1.06158e-26 -0.00154973)
(0.306659 0 -0.00344955)
(0.291285 2.8144e-26 -0.00360694)
(0.290229 0 -0.00277932)
(0.290832 0 -0.00217851)
(0.290953 -6.01692e-27 -0.00198344)
(0.291318 -2.51803e-27 -0.00176523)
(0.291567 -1.40798e-27 -0.00170555)
(0.291721 2.72882e-27 -0.001603)
(0.291942 0 -0.00158155)
(0.291997 -1.26823e-27 -0.00152679)
(0.292133 -4.29347e-27 -0.00153419)
(0.291996 3.36834e-27 -0.00151253)
(0.291961 5.42292e-27 -0.00152071)
(0.29199 -1.33756e-31 -0.00147531)
(0.292079 5.50594e-27 -0.0014901)
(0.291901 -9.09491e-32 -0.00144421)
(0.292154 0 -0.00143935)
(0.292212 5.78731e-27 -0.00143442)
(0.292225 -5.89606e-27 -0.00146999)
(0.292003 0 -0.00145934)
(0.292119 2.99695e-32 -0.00144135)
(0.292201 -2.96962e-27 -0.00142644)
(0.292301 0 -0.00144522)
(0.292146 5.48941e-27 -0.00144175)
(0.292226 -5.5908e-27 -0.00144275)
(0.292285 2.69051e-27 -0.00144952)
(0.292276 -5.5426e-32 -0.00146565)
(0.292134 5.41236e-27 -0.00146077)
(0.292183 0 -0.00145265)
(0.292254 5.4141e-27 -0.00145585)
(0.29224 0 -0.00146806)
(0.292115 0 -0.00146303)
(0.292159 0 -0.0014532)
(0.292243 -2.70756e-27 -0.00145684)
(0.292224 0 -0.00146836)
(0.292112 -2.69811e-27 -0.00146383)
(0.292151 5.60389e-27 -0.00145332)
(0.292245 -2.6851e-27 -0.00145746)
(0.292221 5.27102e-32 -0.00146825)
(0.292113 -5.39745e-27 -0.00146402)
(0.292149 -5.6095e-27 -0.00145322)
(0.292247 2.68602e-27 -0.00145749)
(0.292222 -5.58436e-27 -0.00146812)
(0.292116 0 -0.00146397)
(0.292151 0 -0.00145314)
(0.292251 0 -0.00145748)
(0.292225 1.11661e-26 -0.00146801)
(0.29212 -5.39939e-27 -0.00146391)
(0.292155 -5.61071e-27 -0.00145306)
(0.292255 0 -0.00145745)
(0.292229 1.11656e-26 -0.00146798)
(0.292124 -2.69993e-27 -0.00146387)
(0.292159 5.61074e-27 -0.00145301)
(0.292259 1.92691e-32 -0.00145741)
(0.292233 5.58205e-27 -0.00146797)
(0.292128 -2.70022e-27 -0.00146388)
(0.292163 0 -0.00145299)
(0.292262 0 -0.00145738)
(0.292236 0 -0.00146793)
(0.292131 0 -0.00146387)
(0.292167 0 -0.001453)
(0.292266 0 -0.00145737)
(0.29224 1.11642e-26 -0.00146791)
(0.292135 2.69869e-27 -0.00146383)
(0.292171 -5.607e-27 -0.001453)
(0.29227 -2.68394e-27 -0.00145737)
(0.292244 4.35905e-32 -0.00146792)
(0.292139 1.9609e-32 -0.00146384)
(0.292175 -5.60758e-27 -0.00145299)
(0.292274 -2.6864e-27 -0.00145736)
(0.292249 4.63862e-32 -0.00146794)
(0.292144 1.19053e-32 -0.00146382)
(0.292179 4.03657e-32 -0.001453)
(0.292279 0 -0.00145736)
(0.292253 -1.11582e-26 -0.00146792)
(0.292148 0 -0.00146385)
(0.292184 -4.86003e-32 -0.00145298)
(0.292284 2.68314e-27 -0.00145733)
(0.292259 0 -0.001468)
(0.292152 -2.69829e-27 -0.00146382)
(0.292191 -1.12083e-26 -0.00145299)
(0.292287 0 -0.0014576)
(0.292265 0 -0.00146741)
(0.292158 2.04789e-32 -0.00146421)
(0.292192 5.6152e-27 -0.00145232)
(0.292293 2.69519e-27 -0.00145781)
(0.292268 5.36494e-27 -0.00146689)
(0.292163 2.3842e-27 -0.00144405)
(0.29218 -1.43899e-27 -0.0014335)
(0.292206 -5.37733e-33 -0.00144214)
(0.292201 -3.68392e-29 -0.00145004)
(0.292194 2.2443e-29 -0.00145331)
(0.292185 1.28163e-29 -0.00145497)
(0.292183 0 -0.00145533)
(0.292179 1.08298e-29 -0.00145606)
(0.292177 1.34533e-29 -0.00145682)
(0.292171 0 -0.00145798)
(0.292168 0 -0.00145853)
(0.292162 0 -0.00145913)
(0.292159 -5.56985e-30 -0.00145935)
(0.292155 -7.02854e-30 -0.00145979)
(0.292153 0 -0.00145968)
(0.292153 0 -0.00145991)
(0.292153 0 -0.00145962)
(0.292147 0 -0.00145955)
(0.292146 3.47353e-30 -0.00145971)
(0.292147 -1.10849e-29 -0.00146023)
(0.292148 0 -0.00146007)
(0.292149 -1.03477e-29 -0.0014602)
(0.292152 -1.10129e-29 -0.00146001)
(0.292152 -6.04725e-30 -0.00146015)
(0.292155 0 -0.00146006)
(0.292156 8.77894e-31 -0.0014602)
(0.292157 2.07533e-30 -0.00146003)
(0.292157 -9.09183e-31 -0.00146021)
(0.292158 -1.27938e-30 -0.00146005)
(0.292158 0 -0.00146019)
(0.292161 -2.79072e-30 -0.00146001)
(0.292161 4.08024e-30 -0.00146021)
(0.292164 0 -0.0014601)
(0.292164 -2.0471e-31 -0.00146022)
(0.292166 2.6585e-30 -0.00146003)
(0.292166 0 -0.00146019)
(0.292168 1.90004e-30 -0.00146013)
(0.292168 0 -0.00146028)
(0.29217 -2.24292e-30 -0.00146008)
(0.292171 2.94387e-31 -0.00146021)
(0.292173 0 -0.00146007)
(0.292173 0 -0.00146021)
(0.292176 6.72889e-30 -0.0014601)
(0.292176 -1.7621e-30 -0.00146023)
(0.292179 -2.36639e-30 -0.00146009)
(0.292179 1.39058e-30 -0.00146028)
(0.292182 3.09194e-30 -0.00146016)
(0.292183 0 -0.00146032)
(0.292186 0 -0.00146016)
(0.292186 0 -0.00146026)
(0.292188 1.78536e-30 -0.00146014)
(0.292189 0 -0.0014603)
(0.292191 0 -0.00146021)
(0.292191 0 -0.00146036)
(0.292194 -3.63021e-30 -0.00146019)
(0.292194 0 -0.00146036)
(0.292197 0 -0.00146023)
(0.292197 1.5971e-30 -0.00146036)
(0.2922 0 -0.0014602)
(0.292201 -1.47792e-30 -0.00146034)
(0.292203 0 -0.00146025)
(0.292204 0 -0.00146042)
(0.292207 0 -0.00146025)
(0.292208 -3.11506e-30 -0.00146042)
(0.29221 1.77321e-30 -0.00146031)
(0.292211 0 -0.00146048)
(0.292212 0 -0.00146031)
(0.292213 7.79723e-31 -0.00146043)
(0.292215 -2.47263e-30 -0.00146033)
(0.292216 0 -0.0014605)
(0.292218 0 -0.00146036)
(0.29222 0 -0.00146054)
(0.292222 6.15434e-30 -0.00146042)
(0.292223 0 -0.00146057)
(0.292225 -9.0361e-31 -0.00146042)
(0.292226 0 -0.00146053)
(0.292227 1.09468e-29 -0.00146041)
(0.292228 0 -0.00146061)
(0.29223 -6.80094e-30 -0.00146051)
(0.292231 -3.62673e-30 -0.00146062)
(0.292232 0 -0.00146048)
(0.292236 0 -0.00146066)
(0.292235 0 -0.00146073)
(0.292239 0 -0.00146076)
(0.292236 0 -0.00146062)
(0.292243 -9.93479e-30 -0.00146057)
(0.292237 7.98298e-30 -0.00146072)
(0.292248 -1.40744e-29 -0.00146048)
(0.292234 3.33936e-33 -0.00146108)
(0.292258 0 -0.00146001)
(0.292227 0 -0.00146186)
(0.292271 0 -0.00145908)
(0.292214 0 -0.00146326)
(0.292289 3.10403e-32 -0.00145734)
(0.292199 3.96028e-32 -0.00146534)
(0.292308 -4.28233e-29 -0.00145525)
(0.292187 -4.70114e-29 -0.00146753)
(0.292325 -5.72016e-29 -0.001453)
(0.292173 -6.31767e-29 -0.00147007)
(0.292344 0 -0.00145031)
(0.292158 0 -0.00147294)
(0.292364 0 -0.00144746)
(0.29214 0 -0.001476)
(0.292388 -1.52638e-31 -0.00144425)
(0.292117 0 -0.00147956)
(0.292418 0 -0.00144047)
(0.292088 -1.51948e-28 -0.00148373)
(0.292454 0 -0.00143545)
(0.292057 0 -0.00148969)
(0.292483 -1.95636e-28 -0.00142915)
(0.29204 1.9799e-28 -0.001496)
(0.292491 0 -0.00142218)
(0.292069 2.60936e-28 -0.00150224)
(0.292439 -6.16153e-28 -0.00141736)
(0.292146 -3.99687e-31 -0.0015058)
(0.292353 3.97567e-31 -0.00141543)
(0.292242 -3.09899e-28 -0.00150365)
(0.292286 0 -0.00142138)
(0.292261 -3.5956e-28 -0.0014961)
(0.292328 2.34473e-28 -0.00142838)
(0.292212 0 -0.0014932)
(0.292368 0 -0.00143064)
(0.292161 0 -0.00148837)
(0.292458 -1.82407e-28 -0.00143306)
(0.292075 0 -0.00149126)
(0.292533 2.87012e-31 -0.00142965)
(0.291965 -1.75664e-28 -0.00149376)
(0.292683 4.12445e-31 -0.00141233)
(0.291936 -7.07085e-28 -0.00151012)
(0.292732 -7.28148e-28 -0.00140284)
(0.291901 -4.21786e-28 -0.00152209)
(0.292784 -3.73852e-28 -0.00139617)
(0.291826 -4.66986e-28 -0.00153991)
(0.292763 4.71991e-28 -0.00138338)
(0.291823 4.89341e-28 -0.00154616)
(0.292741 -5.48875e-28 -0.00137228)
(0.291888 0 -0.00155736)
(0.292636 -6.67399e-28 -0.00136924)
(0.291973 -7.33484e-28 -0.00156242)
(0.292496 7.33613e-28 -0.00136649)
(0.292089 -7.42081e-28 -0.00156146)
(0.29233 8.5343e-31 -0.00136078)
(0.292275 0 -0.00155961)
(0.292181 -5.06764e-27 -0.00136988)
(0.292434 0 -0.001545)
(0.292016 -2.12701e-27 -0.00138316)
(0.292641 0 -0.00153578)
(0.291649 1.89426e-27 -0.00136485)
(0.292829 6.53592e-27 -0.00146661)
(0.286787 0 0.00060995)
(0.324921 -1.12111e-25 0.00348461)
(0.321109 0 -0.00104587)
(0.308872 1.73803e-26 -0.00152494)
(0.311645 0 -0.00154358)
(0.502015 0 0.0133528)
(0.455258 0 0.00298635)
(0.399288 0 -0.000543826)
(0.393279 0 -0.0015832)
(0.377353 3.46488e-26 -0.00162789)
(0.374466 9.76547e-27 -0.00167795)
(0.368248 1.46728e-26 -0.00172292)
(0.366989 4.88805e-27 -0.00174538)
(0.364221 7.52829e-27 -0.00178276)
(0.36396 0 -0.00180251)
(0.363154 0 -0.00182481)
(0.363327 0 -0.0018327)
(0.363466 8.45463e-28 -0.00185361)
(0.364004 -5.2465e-28 -0.00185927)
(0.364584 -1.71008e-28 -0.00187572)
(0.365532 -9.48351e-29 -0.00188608)
(0.366427 0 -0.00189632)
(0.367576 4.83782e-28 -0.00190496)
(0.36866 0 -0.00191522)
(0.369945 -7.97302e-28 -0.00192785)
(0.371288 1.9026e-27 -0.00193769)
(0.372689 1.06868e-27 -0.00194669)
(0.374139 0 -0.00195605)
(0.375615 0 -0.00196478)
(0.37715 0 -0.00197215)
(0.37861 0 -0.00197272)
(0.379913 0 -0.00196908)
(0.38104 1.22043e-27 -0.00196463)
(0.382015 0 -0.00196056)
(0.382841 0 -0.00195686)
(0.383551 0 -0.00195371)
(0.384143 0 -0.0019509)
(0.384653 -5.96304e-28 -0.0019486)
(0.385071 0 -0.00194656)
(0.385434 0 -0.00194494)
(0.385727 0 -0.00194352)
(0.385987 -3.05812e-28 -0.00194241)
(0.38619 -2.58875e-28 -0.00194145)
(0.386379 0 -0.00194072)
(0.386517 0 -0.00194005)
(0.386659 -1.54106e-28 -0.0019396)
(0.386751 -1.18922e-41 -0.00193917)
(0.386862 1.13627e-28 -0.00193898)
(0.386922 9.5567e-29 -0.00193842)
(0.387009 0 -0.00193837)
(0.387042 0 -0.00193792)
(0.387114 -1.18637e-28 -0.00193805)
(0.38713 0 -0.00193775)
(0.3872 -8.09021e-29 -0.00193794)
(0.387188 1.35499e-38 -0.00193733)
(0.387276 2.04386e-29 -0.00193795)
(0.387199 5.20997e-37 -0.00193629)
(0.387367 -6.6547e-30 -0.00193887)
(0.387148 0 -0.00193473)
(0.387531 2.49567e-34 -0.00194125)
(0.386962 0 -0.00193118)
(0.387903 -3.3869e-32 -0.00194995)
(0.386537 0 -0.00194961)
(0.389814 1.36788e-26 -0.00193338)
(0.384618 -1.13787e-25 -0.00404245)
(0.367946 0 -0.00432029)
(0.364535 0 -0.00343729)
(0.364418 1.18134e-26 -0.00272711)
(0.36431 -7.11739e-27 -0.00248276)
(0.364593 -4.96515e-32 -0.00221794)
(0.364877 -1.86558e-27 -0.00213731)
(0.365054 3.34792e-27 -0.00201337)
(0.365335 0 -0.00198107)
(0.365433 0 -0.00191593)
(0.365562 -4.79376e-27 -0.00191989)
(0.365481 3.7942e-27 -0.00189341)
(0.365407 6.26982e-27 -0.0018999)
(0.365421 -3.92032e-27 -0.00184802)
(0.365499 6.19977e-27 -0.00186389)
(0.365395 2.63634e-27 -0.00181087)
(0.365632 6.57564e-27 -0.0018032)
(0.365709 3.33681e-27 -0.00179654)
(0.365718 -6.78194e-27 -0.00183834)
(0.365558 0 -0.00182683)
(0.365629 6.53861e-27 -0.00180453)
(0.36573 0 -0.00178768)
(0.365827 6.5503e-27 -0.00180957)
(0.365747 2.65727e-32 -0.00180529)
(0.365797 5.77064e-32 -0.00180619)
(0.365849 -3.04742e-27 -0.0018144)
(0.365824 8.87389e-32 -0.00183395)
(0.365742 6.13116e-27 -0.00182871)
(0.365753 -6.38169e-27 -0.00181812)
(0.365816 3.03545e-27 -0.00182244)
(0.365782 6.4252e-27 -0.00183704)
(0.365719 -3.06019e-27 -0.00183162)
(0.365724 0 -0.00181904)
(0.365803 -3.0389e-27 -0.00182373)
(0.365763 6.41278e-27 -0.00183766)
(0.365717 -3.07088e-27 -0.0018324)
(0.365712 0 -0.00181958)
(0.365806 -3.05688e-27 -0.00182416)
(0.365758 6.46965e-27 -0.00183793)
(0.365718 -3.06682e-27 -0.00183268)
(0.36571 0 -0.00181947)
(0.365809 0 -0.00182423)
(0.365759 0 -0.00183776)
(0.365721 0 -0.00183262)
(0.365713 0 -0.00181939)
(0.365813 -3.05984e-27 -0.00182423)
(0.365763 -7.01698e-32 -0.00183764)
(0.365726 1.12258e-32 -0.00183255)
(0.365718 0 -0.00181929)
(0.365818 -3.05942e-27 -0.00182419)
(0.365768 1.2917e-26 -0.0018376)
(0.365732 -3.06195e-27 -0.00183251)
(0.365723 6.43001e-27 -0.00181922)
(0.365824 3.05828e-27 -0.00182414)
(0.365773 1.29173e-26 -0.00183758)
(0.365737 -6.12506e-27 -0.00183251)
(0.365728 6.42938e-27 -0.0018192)
(0.365828 3.05989e-27 -0.0018241)
(0.365778 0 -0.00183753)
(0.365741 -3.06219e-27 -0.0018325)
(0.365733 6.42928e-27 -0.00181921)
(0.365833 0 -0.0018241)
(0.365783 6.4555e-27 -0.00183751)
(0.365746 3.05922e-27 -0.00183246)
(0.365738 0 -0.00181922)
(0.365838 -6.11051e-27 -0.00182409)
(0.365788 -6.96105e-32 -0.00183752)
(0.365752 3.06372e-27 -0.00183246)
(0.365743 -6.42659e-27 -0.0018192)
(0.365844 2.93402e-32 -0.00182409)
(0.365794 -8.50917e-32 -0.00183755)
(0.365757 3.06218e-27 -0.00183245)
(0.365749 1.28531e-26 -0.00181922)
(0.365849 0 -0.0018241)
(0.3658 -6.45377e-27 -0.00183754)
(0.365763 0 -0.00183248)
(0.365755 -6.41748e-27 -0.00181919)
(0.365856 3.05528e-27 -0.00182404)
(0.365806 0 -0.00183764)
(0.365768 0 -0.00183247)
(0.365763 -6.42285e-27 -0.00181921)
(0.365861 -3.06157e-27 -0.00182438)
(0.365813 6.43997e-27 -0.00183691)
(0.365776 3.06896e-27 -0.0018329)
(0.365765 0 -0.00181835)
(0.365869 0 -0.0018247)
(0.365818 0 -0.00183613)
(0.365783 0 -0.00180955)
(0.36587 0 -0.00179681)
(0.36594 1.8754e-28 -0.00180726)
(0.365952 -3.11914e-29 -0.00181619)
(0.365952 3.48242e-29 -0.0018201)
(0.365947 -7.33008e-30 -0.00182219)
(0.365947 5.35585e-30 -0.0018227)
(0.365944 0 -0.00182359)
(0.365943 1.61265e-29 -0.00182455)
(0.365937 0 -0.00182595)
(0.365933 0 -0.00182665)
(0.365927 0 -0.00182741)
(0.365923 0 -0.00182772)
(0.365918 0 -0.00182824)
(0.365915 1.25083e-29 -0.00182816)
(0.365913 0 -0.00182845)
(0.365911 0 -0.00182803)
(0.365906 0 -0.00182797)
(0.365906 0 -0.00182827)
(0.365907 0 -0.00182893)
(0.365908 0 -0.00182874)
(0.365909 -1.40658e-29 -0.00182893)
(0.365914 -1.49109e-29 -0.00182871)
(0.365914 -5.58684e-30 -0.00182884)
(0.365918 4.84914e-30 -0.00182875)
(0.365918 -3.06597e-31 -0.00182888)
(0.36592 4.09269e-31 -0.00182868)
(0.36592 -8.21852e-31 -0.00182887)
(0.365921 0 -0.0018287)
(0.365922 8.16654e-31 -0.00182889)
(0.365925 -1.60518e-30 -0.0018287)
(0.365925 6.09218e-30 -0.00182891)
(0.365927 0 -0.00182877)
(0.365927 0 -0.00182891)
(0.36593 0 -0.00182869)
(0.36593 0 -0.00182888)
(0.365933 0 -0.00182882)
(0.365933 0 -0.001829)
(0.365936 -1.19027e-32 -0.00182876)
(0.365936 0 -0.00182891)
(0.365939 2.79149e-30 -0.00182874)
(0.36594 0 -0.00182893)
(0.365943 0 -0.0018288)
(0.365944 -2.45279e-30 -0.00182895)
(0.365947 0 -0.00182879)
(0.365948 1.75169e-30 -0.001829)
(0.365951 2.83827e-30 -0.00182887)
(0.365952 1.28804e-30 -0.00182906)
(0.365955 0 -0.00182886)
(0.365955 5.23245e-30 -0.00182897)
(0.365958 4.7595e-30 -0.00182882)
(0.365959 -2.12455e-31 -0.00182903)
(0.365961 0 -0.00182891)
(0.365962 0 -0.0018291)
(0.365965 -7.13468e-30 -0.0018289)
(0.365966 0 -0.00182911)
(0.365969 9.17932e-30 -0.00182896)
(0.36597 0 -0.0018291)
(0.365973 0 -0.00182892)
(0.365974 -1.92309e-30 -0.00182909)
(0.365977 0 -0.00182898)
(0.365978 0 -0.00182918)
(0.365981 0 -0.00182899)
(0.365982 0 -0.00182917)
(0.365985 5.26486e-30 -0.00182904)
(0.365986 0 -0.00182923)
(0.365988 0 -0.00182903)
(0.365989 1.52369e-30 -0.00182918)
(0.365991 1.98555e-30 -0.00182906)
(0.365992 0 -0.00182928)
(0.365995 0 -0.00182911)
(0.365997 0 -0.00182934)
(0.365999 -2.231e-33 -0.00182918)
(0.366 0 -0.00182934)
(0.366002 -4.00456e-30 -0.00182918)
(0.366004 7.86622e-30 -0.00182931)
(0.366006 -8.48757e-30 -0.00182918)
(0.366007 0 -0.00182941)
(0.366009 0 -0.00182928)
(0.366011 -3.57227e-30 -0.00182943)
(0.366013 0 -0.00182928)
(0.366017 0 -0.00182948)
(0.366016 0 -0.00182954)
(0.36602 0 -0.00182957)
(0.366018 0 -0.00182942)
(0.366024 -9.21961e-30 -0.00182936)
(0.366019 0 -0.00182954)
(0.36603 0 -0.00182925)
(0.366017 6.05363e-30 -0.00182997)
(0.366039 -2.7188e-29 -0.00182869)
(0.366013 0 -0.00183088)
(0.36605 0 -0.00182765)
(0.366005 -5.81646e-29 -0.00183245)
(0.366065 1.77468e-28 -0.00182572)
(0.365994 -5.00099e-32 -0.00183475)
(0.36608 0 -0.00182342)
(0.365984 -1.24825e-28 -0.00183721)
(0.366096 -1.41789e-28 -0.00182086)
(0.365972 -3.00488e-28 -0.00184011)
(0.366114 0 -0.0018178)
(0.365958 0 -0.00184338)
(0.366134 0 -0.00181455)
(0.365942 -2.10045e-28 -0.00184688)
(0.366156 -2.31648e-28 -0.00181089)
(0.365922 -2.51776e-28 -0.00185094)
(0.366183 0 -0.00180658)
(0.365896 -2.97836e-28 -0.00185573)
(0.366217 0 -0.00180079)
(0.365866 0 -0.00186264)
(0.366248 0 -0.00179339)
(0.365842 5.94312e-28 -0.00187018)
(0.366269 2.51525e-28 -0.00178515)
(0.365859 2.14881e-28 -0.00187695)
(0.366227 -1.98274e-28 -0.00178074)
(0.365933 -2.12427e-28 -0.00187995)
(0.366135 2.05605e-28 -0.00177894)
(0.366038 -3.11115e-28 -0.00187857)
(0.366069 0 -0.0017862)
(0.366054 -4.95742e-28 -0.00186794)
(0.366118 1.21022e-28 -0.00179248)
(0.365997 -1.63907e-28 -0.00186666)
(0.366163 -1.63371e-28 -0.00179511)
(0.365946 0 -0.00186142)
(0.366245 0 -0.00179759)
(0.365885 0 -0.00186433)
(0.366286 4.8104e-28 -0.00179443)
(0.365804 0 -0.00186708)
(0.36642 6.57315e-28 -0.00177468)
(0.365786 5.79856e-31 -0.00188563)
(0.366484 -6.70528e-28 -0.00176355)
(0.365748 0 -0.00189962)
(0.366544 -6.38546e-28 -0.0017555)
(0.365659 -1.36873e-27 -0.00192063)
(0.366534 5.98822e-28 -0.00174038)
(0.365626 4.93719e-28 -0.00192823)
(0.366529 1.08604e-30 -0.0017284)
(0.36568 -4.79162e-28 -0.00193953)
(0.366433 4.1165e-28 -0.00172655)
(0.365754 -4.69418e-28 -0.00194407)
(0.36628 9.94885e-28 -0.00172402)
(0.365883 0 -0.00194232)
(0.366094 1.45689e-27 -0.00172236)
(0.366073 2.81033e-27 -0.00193781)
(0.365955 -5.88153e-27 -0.00172518)
(0.366226 0 -0.00192603)
(0.365795 7.88426e-31 -0.00174061)
(0.366432 0 -0.00191491)
(0.365425 -2.54912e-27 -0.00171326)
(0.366635 5.36859e-27 -0.00178707)
(0.361272 5.33839e-26 0.000451689)
(0.398473 -1.586e-25 0.00359916)
(0.399806 0 -0.00100031)
(0.388717 2.91717e-26 -0.00183528)
(0.390275 0 -0.00191344)
(0.529763 0 0.0132326)
(0.51525 0 0.00447703)
(0.470257 0 8.69738e-05)
(0.4588 0 -0.00137155)
(0.435874 3.4679e-26 -0.00154617)
(0.430773 1.32081e-26 -0.00175452)
(0.422001 1.99214e-26 -0.00184792)
(0.419673 6.85545e-27 -0.00192024)
(0.415878 1.07379e-26 -0.00198475)
(0.415109 3.9028e-27 -0.00202902)
(0.413716 0 -0.00206346)
(0.413644 0 -0.00208434)
(0.413541 1.47989e-27 -0.00211376)
(0.413917 -1.2283e-27 -0.00212494)
(0.414425 0 -0.00215058)
(0.415303 4.88707e-28 -0.00216527)
(0.416194 0 -0.00218038)
(0.417377 0 -0.00219226)
(0.418511 0 -0.00220575)
(0.419867 -3.65732e-28 -0.00222316)
(0.4213 1.11818e-27 -0.0022359)
(0.422807 7.07119e-28 -0.00224732)
(0.424379 0 -0.00225891)
(0.425988 9.92956e-28 -0.00226985)
(0.42767 1.14139e-27 -0.00227772)
(0.429244 1.19809e-27 -0.00227461)
(0.43065 -1.16351e-27 -0.00226574)
(0.431872 1.07258e-27 -0.00225607)
(0.432937 9.63528e-28 -0.00224724)
(0.433843 8.52357e-28 -0.00223927)
(0.434625 0 -0.00223239)
(0.435281 0 -0.00222633)
(0.435846 5.55499e-28 -0.00222124)
(0.436312 0 -0.00221682)
(0.436718 0 -0.00221318)
(0.437046 0 -0.00221008)
(0.437338 0 -0.00220754)
(0.437566 -2.45856e-28 -0.0022054)
(0.437778 0 -0.00220365)