/*--------------------------------*- C++ -*----------------------------------*\
| =========                 |                                                 |
| \\      /  F ield         | foam-extend: Open Source CFD                    |
|  \\    /   O peration     | Version:     3.2                                |
|   \\  /    A nd           | Web:         http://www.foam-extend.org         |
|    \\/     M anipulation  | For copyright notice see file Copyright         |
\*---------------------------------------------------------------------------*/
FoamFile
{
    version     2.0;
    format      ascii;
    class       areaVectorField;
    location    "50";
    object      Ub2;
}
// * * * * * * * * * * * * * * * * * * * * * * * * * * * * * * * * * * * * * //

dimensions      [0 1 -1 0 0 0 0];

internalField   nonuniform List<vector> 
300
(
(0.611551 -7.83195e-26 -0.00305776)
(0.456857 1.18925e-25 -0.00228428)
(0.371907 4.41727e-26 -0.00185954)
(0.37415 0 -0.00187075)
(0.364608 -3.43512e-23 -0.00182304)
(0.365799 -1.07375e-23 -0.001829)
(0.361732 -1.38098e-23 -0.00180866)
(0.361805 -2.44074e-24 -0.00180903)
(0.360243 0 -0.00180121)
(0.360928 -1.81598e-24 -0.00180464)
(0.360963 0 -0.00180482)
(0.362036 2.8878e-24 -0.00181018)
(0.362916 -3.33394e-28 -0.00181458)
(0.364446 3.92809e-24 -0.00182223)
(0.365772 0 -0.00182886)
(0.367607 0 -0.00183803)
(0.369332 4.64175e-24 -0.00184666)
(0.371313 -4.31402e-24 -0.00185656)
(0.373228 4.87218e-24 -0.00186614)
(0.375377 0 -0.00187689)
(0.377576 0 -0.00188788)
(0.379827 -4.75065e-24 -0.00189913)
(0.38211 0 -0.00191055)
(0.384408 0 -0.00192204)
(0.386717 0 -0.00193358)
(0.388914 -3.88259e-24 -0.00194457)
(0.390843 -1.2019e-27 -0.00195422)
(0.392477 0 -0.00196238)
(0.393853 0 -0.00196926)
(0.394999 -1.51725e-24 -0.001975)
(0.395963 -6.5698e-28 -0.00197981)
(0.39676 0 -0.0019838)
(0.397431 0 -0.00198715)
(0.397982 0 -0.00198991)
(0.39845 -3.32701e-28 -0.00199225)
(0.39883 0 -0.00199415)
(0.399159 0 -0.00199579)
(0.399422 -1.98284e-28 -0.00199711)
(0.399657 0 -0.00199828)
(0.399838 0 -0.00199919)
(0.400011 0 -0.00200005)
(0.400134 -1.25784e-25 -0.00200067)
(0.400268 0 -0.00200134)
(0.400351 -6.86247e-26 -0.00200175)
(0.400453 0 -0.00200226)
(0.400502 -4.8512e-29 -0.00200251)
(0.400588 -1.02626e-25 -0.00200294)
(0.40061 0 -0.00200305)
(0.400704 -1.13775e-25 -0.00200352)
(0.400673 0 -0.00200337)
(0.400822 0 -0.00200411)
(0.400668 4.13658e-25 -0.00200334)
(0.400968 0 -0.00200484)
(0.400553 1.09217e-24 -0.00200276)
(0.401255 0 -0.00200627)
(0.40019 0 -0.00200095)
(0.401917 -4.42052e-24 -0.00200959)
(0.399333 5.75487e-28 -0.00199666)
(0.404298 9.27841e-27 -0.00202149)
(0.386982 0 -0.00491827)
(0.346413 1.36059e-23 -0.00456722)
(0.332751 4.0019e-23 -0.00314562)
(0.327 -8.34565e-24 -0.00241443)
(0.323014 6.22964e-24 -0.00219612)
(0.320666 -1.8161e-27 -0.00192338)
(0.319114 -8.61417e-28 -0.00186698)
(0.317912 9.99635e-28 -0.00173437)
(0.317267 3.56466e-24 -0.00172099)
(0.316578 0 -0.00164633)
(0.316665 0 -0.00164398)
(0.368781 -4.6522e-24 -0.00188901)
(0.368759 0 -0.0019583)
(0.315219 -2.11975e-27 -0.00159947)
(0.315368 0 -0.00158728)
(0.368389 0 -0.00180053)
(0.368807 0 -0.00184679)
(0.31544 1.76612e-24 -0.00155889)
(0.315694 0 -0.00156744)
(0.368381 2.95419e-27 -0.0018253)
(0.368638 5.85272e-27 -0.0018481)
(0.315565 -2.34287e-27 -0.00155008)
(0.316024 -4.39962e-24 -0.00153703)
(0.368607 -2.92683e-24 -0.00180396)
(0.368766 6.06814e-27 -0.00185105)
(0.316146 2.46956e-27 -0.00158008)
(0.316319 4.42432e-24 -0.00156219)
(0.368586 -2.89153e-24 -0.00182845)
(0.368715 5.95681e-27 -0.00186296)
(0.316178 -2.19568e-24 -0.00158734)
(0.316315 -4.49093e-24 -0.00156447)
(0.368564 -2.79755e-24 -0.00183133)
(0.368687 5.39887e-24 -0.00186322)
(0.316182 0 -0.00158855)
(0.31631 4.51371e-24 -0.00156461)
(0.368559 0 -0.00183222)
(0.368678 5.30358e-24 -0.0018633)
(0.316188 2.34767e-24 -0.00158909)
(0.316311 0 -0.00156455)
(0.368563 0 -0.00183254)
(0.368678 5.28575e-24 -0.00186309)
(0.316197 0 -0.00158917)
(0.316319 4.61291e-24 -0.00156438)
(0.368569 2.64721e-24 -0.0018325)
(0.368683 0 -0.00186294)
(0.31621 -2.36392e-24 -0.00158921)
(0.316331 4.61568e-24 -0.00156429)
(0.368576 0 -0.00183243)
(0.36869 5.28153e-24 -0.00186285)
(0.316225 -2.36569e-24 -0.00158923)
(0.316347 0 -0.00156431)
(0.368583 -2.63985e-24 -0.0018324)
(0.368697 5.91652e-27 -0.00186278)
(0.316242 0 -0.00158926)
(0.316363 0 -0.00156435)
(0.36859 -2.64503e-24 -0.00183241)
(0.368703 0 -0.00186277)
(0.316259 -2.37378e-24 -0.00158929)
(0.31638 -4.62178e-24 -0.00156438)
(0.368597 2.64073e-24 -0.00183242)
(0.36871 5.2657e-24 -0.00186278)
(0.316276 0 -0.00158935)
(0.316398 -4.6157e-24 -0.00156443)
(0.368604 0 -0.00183239)
(0.368717 5.27764e-24 -0.00186279)
(0.316295 2.36936e-24 -0.00158942)
(0.316417 -4.6192e-24 -0.00156451)
(0.368611 0 -0.00183239)
(0.368724 0 -0.00186279)
(0.316315 0 -0.00158948)
(0.316437 -5.06426e-27 -0.00156461)
(0.368619 -2.88031e-27 -0.00183237)
(0.368732 5.26715e-24 -0.00186282)
(0.316335 -2.45815e-27 -0.00158956)
(0.316458 0 -0.00156467)
(0.368627 -2.88038e-27 -0.00183244)
(0.368741 -5.27094e-24 -0.00186277)
(0.316357 -2.37565e-24 -0.0015896)
(0.31648 4.62001e-24 -0.00156486)
(0.368634 -2.64177e-24 -0.00183237)
(0.368752 -5.91295e-27 -0.00186279)
(0.316377 -2.46215e-27 -0.00159004)
(0.316505 4.62625e-24 -0.0015642)
(0.368644 0 -0.00183308)
(0.368755 -5.25825e-24 -0.00186189)
(0.316402 0 -0.00159037)
(0.316524 4.63478e-24 -0.00156381)
(0.368639 -2.76308e-24 -0.00180517)
(0.368509 1.94806e-24 -0.00181348)
(0.368396 8.50321e-25 -0.00181956)
(0.368338 0 -0.00182881)
(0.368307 -1.2624e-25 -0.00183246)
(0.368286 7.70664e-26 -0.00183432)
(0.368277 0 -0.0018345)
(0.368271 -1.30751e-29 -0.00183546)
(0.368266 -1.37059e-29 -0.0018364)
(0.368258 0 -0.00183791)
(0.368253 7.46151e-27 -0.00183851)
(0.368246 0 -0.00183935)
(0.368241 6.4561e-27 -0.00183952)
(0.368237 -8.66327e-30 -0.00184005)
(0.368235 0 -0.00183978)
(0.368233 0 -0.00184011)
(0.368232 0 -0.00183976)
(0.368229 0 -0.00183981)
(0.368226 2.16383e-30 -0.00183989)
(0.368225 6.3362e-30 -0.0018405)
(0.368229 0 -0.0018402)
(0.36823 -5.64316e-30 -0.00184047)
(0.368234 -6.21599e-27 -0.00184016)
(0.368234 0 -0.00184036)
(0.368238 -1.07022e-26 -0.00184015)
(0.36824 6.21963e-27 -0.00184045)
(0.368242 0 -0.0018402)
(0.368244 8.9752e-31 -0.00184049)
(0.368247 -7.70721e-31 -0.00184024)
(0.368248 -1.23705e-26 -0.00184046)
(0.368251 -9.54842e-27 -0.00184016)
(0.368252 6.71544e-31 -0.0018405)
(0.368255 0 -0.00184029)
(0.368256 4.77129e-31 -0.00184051)
(0.36826 0 -0.0018402)
(0.368261 8.97218e-31 -0.00184048)
(0.368264 -1.22332e-26 -0.00184036)
(0.368265 0 -0.00184061)
(0.368268 0 -0.00184029)
(0.36827 9.95564e-31 -0.00184052)
(0.368274 -2.12554e-30 -0.00184028)
(0.368275 0 -0.00184052)
(0.368279 1.32086e-26 -0.00184032)
(0.368281 4.96231e-31 -0.00184055)
(0.368285 1.51611e-26 -0.00184032)
(0.368286 9.97508e-31 -0.00184061)
(0.36829 -1.06534e-26 -0.00184039)
(0.368292 -1.61672e-30 -0.00184068)
(0.368295 0 -0.00184042)
(0.368297 2.75541e-27 -0.00184062)
(0.368301 -1.67276e-30 -0.00184041)
(0.368303 0 -0.00184069)
(0.368306 1.34129e-26 -0.00184051)
(0.368307 -1.98856e-31 -0.00184076)
(0.368311 0 -0.00184048)
(0.368313 2.12066e-31 -0.00184075)
(0.368317 0 -0.00184054)
(0.368319 0 -0.00184077)
(0.368323 1.44531e-26 -0.00184051)
(0.368325 4.16678e-27 -0.00184075)
(0.368329 0 -0.00184059)
(0.368331 1.68452e-30 -0.00184084)
(0.368335 -1.58356e-26 -0.00184057)
(0.368337 4.75304e-31 -0.00184087)
(0.368341 0 -0.00184069)
(0.368342 -4.85994e-31 -0.00184096)
(0.368345 -1.73578e-26 -0.00184069)
(0.368348 1.06258e-28 -0.0018409)
(0.368351 3.00618e-30 -0.00184073)
(0.368353 0 -0.00184101)
(0.368357 0 -0.00184075)
(0.36836 0 -0.00184104)
(0.368363 0 -0.00184085)
(0.368364 -2.40132e-27 -0.00184111)
(0.368368 0 -0.00184087)
(0.36837 0 -0.00184109)
(0.368373 0 -0.00184092)
(0.368375 -1.66289e-26 -0.00184118)
(0.368377 0 -0.00184097)
(0.368379 3.17784e-30 -0.0018412)
(0.368381 0 -0.00184096)
(0.368386 0 -0.00184121)
(0.368387 0 -0.00184129)
(0.368395 0 -0.00184136)
(0.368389 0 -0.00184121)
(0.368402 4.16961e-30 -0.00184111)
(0.36839 0 -0.0018414)
(0.368414 1.81926e-30 -0.00184096)
(0.368383 -4.17223e-26 -0.00184193)
(0.368433 1.01728e-29 -0.0018402)
(0.368372 1.61601e-25 -0.00184319)
(0.368457 0 -0.00183875)
(0.368355 3.83425e-25 -0.00184537)
(0.368485 -1.61484e-29 -0.00183598)
(0.368337 0 -0.00184876)
(0.368509 0 -0.00183245)
(0.368323 -1.05634e-24 -0.00185249)
(0.368532 5.46038e-29 -0.00182863)
(0.368308 0 -0.00185676)
(0.368557 -8.1182e-29 -0.00182409)
(0.368291 0 -0.00186161)
(0.368583 0 -0.00181925)
(0.36827 -2.27271e-24 -0.00186676)
(0.368616 0 -0.00181386)
(0.36824 0 -0.00187272)
(0.368657 3.10434e-24 -0.00180754)
(0.368201 0 -0.0018797)
(0.368707 0 -0.00179912)
(0.368166 0 -0.00188982)
(0.368735 -2.90816e-28 -0.00178822)
(0.368161 -5.02058e-24 -0.00190102)
(0.368724 0 -0.00177572)
(0.368225 0 -0.00191232)
(0.36864 -5.64366e-24 -0.00176752)
(0.368334 -5.01534e-28 -0.00191784)
(0.368531 5.59014e-24 -0.0017647)
(0.36846 0 -0.00191466)
(0.368442 0 -0.00177602)
(0.368491 -6.03672e-24 -0.00189988)
(0.368493 4.64519e-24 -0.00178637)
(0.36843 0 -0.00189647)
(0.368544 4.37597e-24 -0.00179027)
(0.368364 0 -0.00188836)
(0.368685 0 -0.00179489)
(0.368211 -3.10886e-28 -0.00189227)
(0.368832 0 -0.00179005)
(0.368027 -2.04332e-28 -0.00189621)
(0.369062 -6.72883e-24 -0.00176236)
(0.368011 -4.35113e-28 -0.00192478)
(0.369103 0 -0.00174499)
(0.367985 0 -0.00194481)
(0.369152 -9.83932e-24 -0.00173231)
(0.367912 1.06797e-23 -0.00197424)
(0.36908 0 -0.00170895)
(0.36795 1.17156e-23 -0.00198686)
(0.369017 -1.21338e-23 -0.00169016)
(0.368058 -1.06443e-27 -0.00200532)
(0.368852 -1.26374e-23 -0.00168445)
(0.368176 1.09884e-27 -0.00201253)
(0.368669 0 -0.0016808)
(0.368305 -1.23433e-23 -0.00201087)
(0.368463 1.41305e-23 -0.00167679)
(0.368555 1.32899e-23 -0.00200366)
(0.368209 -1.02979e-23 -0.00168793)
(0.36884 -2.40929e-27 -0.00198318)
(0.367907 -2.17307e-27 -0.00171231)
(0.369219 0 -0.00196502)
(0.367253 0 -0.00170338)
(0.369671 0 -0.00196143)
(0.361182 5.47674e-26 0.00152821)
(0.422614 -4.13006e-26 0.00538123)
(0.416909 0 -0.00208454)
(0.394115 0 -0.00197058)
(0.401492 0 -0.00200746)
)
;

boundaryField
{
    inlet
    {
        type            calculated;
        value           uniform (0 0 0);
    }
    outlet
    {
        type            calculated;
        value           uniform (0 0 0);
    }
    sideWall
    {
        type            empty;
    }
}


// ************************************************************************* //
