/*--------------------------------*- C++ -*----------------------------------*\
| =========                 |                                                 |
| \\      /  F ield         | foam-extend: Open Source CFD                    |
|  \\    /   O peration     | Version:     3.2                                |
|   \\  /    A nd           | Web:         http://www.foam-extend.org         |
|    \\/     M anipulation  | For copyright notice see file Copyright         |
\*---------------------------------------------------------------------------*/
FoamFile
{
    version     2.0;
    format      ascii;
    class       areaScalarField;
    location    "50";
    object      Uf;
}
// * * * * * * * * * * * * * * * * * * * * * * * * * * * * * * * * * * * * * //

dimensions      [0 1 -1 0 0 0 0];

internalField   nonuniform List<scalar> 
300
(
0.0757988
0.0603058
0.0518101
0.0520344
0.0510802
0.0511993
0.0507926
0.0507999
0.0506437
0.0507122
0.0507157
0.050823
0.050911
0.051064
0.0511966
0.0513801
0.0515527
0.0517507
0.0519423
0.0521572
0.052377
0.0526021
0.0528304
0.0530602
0.0532911
0.0535108
0.0537038
0.0538671
0.0540047
0.0541194
0.0542157
0.0542954
0.0543626
0.0544177
0.0544644
0.0545025
0.0545354
0.0545616
0.0545851
0.0546032
0.0546205
0.0546328
0.0546463
0.0546545
0.0546647
0.0546697
0.0546783
0.0546805
0.0546899
0.0546868
0.0547017
0.0546863
0.0547163
0.0546747
0.0547449
0.0546384
0.0548112
0.0545528
0.0550492
0.0540654
0.0515909
0.0514402
0.0514962
0.0514652
0.0514789
0.0514807
0.0514751
0.051484
0.0514702
0.0515122
0.0514969
0.0514923
0.051462
0.0514868
0.0514604
0.0515004
0.0514756
0.0514936
0.0514589
0.0514835
0.0514656
0.0514943
0.0514822
0.0514962
0.0514784
0.0514918
0.0514793
0.0514908
0.0514748
0.0514874
0.051477
0.051488
0.0514737
0.0514857
0.0514765
0.051487
0.0514737
0.0514854
0.0514768
0.0514871
0.0514742
0.0514857
0.0514774
0.0514875
0.0514749
0.0514864
0.0514782
0.0514882
0.0514756
0.0514871
0.0514789
0.0514889
0.0514763
0.0514877
0.0514796
0.0514896
0.051477
0.0514884
0.0514802
0.0514903
0.0514776
0.0514891
0.0514809
0.051491
0.0514784
0.0514898
0.0514816
0.0514917
0.0514791
0.0514906
0.0514824
0.0514925
0.0514799
0.0514914
0.0514832
0.0514934
0.0514807
0.0514923
0.051484
0.0514945
0.0514814
0.0514934
0.051485
0.0514948
0.0514822
0.0514935
0.0514854
0.0514725
0.0514608
0.0514548
0.0514516
0.0514494
0.0514485
0.0514478
0.0514474
0.0514465
0.0514459
0.0514452
0.0514447
0.0514443
0.0514442
0.0514439
0.0514439
0.0514435
0.0514433
0.0514431
0.0514435
0.0514436
0.051444
0.051444
0.0514444
0.0514446
0.0514448
0.051445
0.0514453
0.0514453
0.0514457
0.0514458
0.0514461
0.0514462
0.0514466
0.0514467
0.051447
0.0514471
0.0514474
0.0514476
0.051448
0.0514481
0.0514485
0.0514487
0.0514491
0.0514492
0.0514497
0.0514498
0.0514501
0.0514503
0.0514507
0.0514509
0.0514512
0.0514513
0.0514517
0.0514519
0.0514523
0.0514525
0.0514529
0.0514531
0.0514535
0.0514537
0.0514541
0.0514543
0.0514547
0.0514548
0.0514551
0.0514553
0.0514557
0.0514559
0.0514563
0.0514566
0.0514569
0.051457
0.0514574
0.0514576
0.0514579
0.0514581
0.0514583
0.0514585
0.0514587
0.0514592
0.0514593
0.05146
0.0514595
0.0514608
0.0514596
0.051462
0.0514589
0.051464
0.0514578
0.0514664
0.051456
0.0514692
0.0514541
0.0514718
0.0514526
0.0514742
0.0514509
0.0514769
0.051449
0.0514796
0.0514468
0.0514831
0.0514436
0.0514874
0.0514396
0.0514926
0.0514357
0.0514958
0.0514349
0.051495
0.051441
0.0514868
0.0514517
0.0514761
0.0514644
0.0514668
0.0514679
0.0514716
0.0514619
0.0514765
0.0514556
0.0514905
0.0514401
0.0515054
0.0514216
0.0515293
0.0514191
0.0515339
0.0514159
0.0515393
0.0514077
0.0515327
0.0514111
0.051527
0.0514214
0.0515106
0.051433
0.0514924
0.0514459
0.0514719
0.0514712
0.0514461
0.0515003
0.0514152
0.0515389
0.05135
0.0515842
0.0508427
0.057083
0.0563104
0.054031
0.0547686
)
;

boundaryField
{
    inlet
    {
        type            calculated;
        value           uniform 0;
    }
    outlet
    {
        type            calculated;
        value           uniform 0;
    }
    sideWall
    {
        type            empty;
    }
}


// ************************************************************************* //
