/*--------------------------------*- C++ -*----------------------------------*\
| =========                 |                                                 |
| \\      /  F ield         | foam-extend: Open Source CFD                    |
|  \\    /   O peration     | Version:     3.2                                |
|   \\  /    A nd           | Web:         http://www.foam-extend.org         |
|    \\/     M anipulation  | For copyright notice see file Copyright         |
\*---------------------------------------------------------------------------*/
FoamFile
{
    version     2.0;
    format      ascii;
    class       areaScalarField;
    location    "50";
    object      Uf2;
}
// * * * * * * * * * * * * * * * * * * * * * * * * * * * * * * * * * * * * * //

dimensions      [0 1 -1 0 0 0 0];

internalField   nonuniform List<scalar> 
300
(
0.0270927
0.0175407
0.0150043
0.0154399
0.015081
0.015166
0.0150119
0.0150273
0.0149661
0.0149911
0.014983
0.0150144
0.0150329
0.0150779
0.0151098
0.0151627
0.0152085
0.0152638
0.0153156
0.0153767
0.0154385
0.0155022
0.0155671
0.0156327
0.0156991
0.0157631
0.0158192
0.0158667
0.0159068
0.0159402
0.0159683
0.0159916
0.0160112
0.0160273
0.016041
0.0160521
0.0160618
0.0160694
0.0160764
0.0160816
0.0160868
0.0160902
0.0160944
0.0160966
0.0160997
0.0161009
0.0161039
0.0161042
0.0161076
0.0161057
0.0161117
0.0161046
0.0161173
0.016099
0.0161293
0.0160828
0.0161575
0.0160444
0.0162529
0.01585
0.0149144
0.0150358
0.0151069
0.0151173
0.0151395
0.0151496
0.0151543
0.0151634
0.0151607
0.0151861
0.0151963
0.0151919
0.0151669
0.0151833
0.0151909
0.0152016
0.0151752
0.0151875
0.0151915
0.0151962
0.0151725
0.0151879
0.0151999
0.0151988
0.0151761
0.0151855
0.0151982
0.0151964
0.0151747
0.0151838
0.0151974
0.0151953
0.0151743
0.0151831
0.0151972
0.0151949
0.0151742
0.0151829
0.0151973
0.0151949
0.0151743
0.015183
0.0151974
0.015195
0.0151746
0.0151832
0.0151976
0.0151951
0.0151747
0.0151834
0.0151978
0.0151953
0.0151749
0.0151835
0.015198
0.0151955
0.0151751
0.0151837
0.0151982
0.0151957
0.0151753
0.0151839
0.0151984
0.0151959
0.0151755
0.0151841
0.0151986
0.0151961
0.0151757
0.0151843
0.0151988
0.0151963
0.0151759
0.0151845
0.015199
0.0151965
0.0151761
0.0151847
0.0151992
0.0151969
0.0151763
0.0151851
0.0151994
0.0151969
0.0151765
0.015185
0.0152014
0.0152054
0.0151998
0.0151978
0.0151967
0.015196
0.0151957
0.0151955
0.0151953
0.0151949
0.0151947
0.0151945
0.0151942
0.0151941
0.0151942
0.0151941
0.0151942
0.0151941
0.0151939
0.0151938
0.0151938
0.0151938
0.015194
0.0151939
0.015194
0.0151941
0.0151941
0.0151942
0.0151943
0.0151943
0.0151944
0.0151944
0.0151945
0.0151945
0.0151946
0.0151947
0.0151948
0.0151948
0.0151949
0.0151949
0.015195
0.0151951
0.0151952
0.0151952
0.0151954
0.0151954
0.0151956
0.0151956
0.0151957
0.0151957
0.0151958
0.0151958
0.0151959
0.015196
0.0151961
0.0151961
0.0151963
0.0151963
0.0151965
0.0151965
0.0151966
0.0151967
0.0151968
0.0151969
0.015197
0.015197
0.0151971
0.0151972
0.0151973
0.0151973
0.0151975
0.0151975
0.0151977
0.0151977
0.0151978
0.0151979
0.015198
0.0151979
0.015198
0.0151981
0.0151981
0.0151982
0.0151982
0.0151986
0.0151984
0.015199
0.0151984
0.0151995
0.0151981
0.0152004
0.0151975
0.0152014
0.0151966
0.0152027
0.0151957
0.0152038
0.015195
0.0152048
0.0151941
0.015206
0.0151933
0.0152071
0.0151922
0.0152086
0.0151907
0.0152105
0.0151889
0.0152128
0.0151871
0.0152141
0.0151869
0.0152135
0.0151897
0.0152096
0.0151944
0.015205
0.0151997
0.0152007
0.0152013
0.0152026
0.0151989
0.0152046
0.0151959
0.0152109
0.0151887
0.0152179
0.0151801
0.0152285
0.0151781
0.0152298
0.0151765
0.0152319
0.0151735
0.0152293
0.0151757
0.0152265
0.0151806
0.0152192
0.0151863
0.0152118
0.0151922
0.0152032
0.015203
0.0151917
0.015216
0.0151781
0.0152327
0.0151502
0.015256
0.0149056
0.0173821
0.0167303
0.0157871
0.016185
)
;

boundaryField
{
    inlet
    {
        type            calculated;
        value           uniform 0;
    }
    outlet
    {
        type            calculated;
        value           uniform 0;
    }
    sideWall
    {
        type            empty;
    }
}


// ************************************************************************* //
