/*--------------------------------*- C++ -*----------------------------------*\
| =========                 |                                                 |
| \\      /  F ield         | foam-extend: Open Source CFD                    |
|  \\    /   O peration     | Version:     3.2                                |
|   \\  /    A nd           | Web:         http://www.foam-extend.org         |
|    \\/     M anipulation  | For copyright notice see file Copyright         |
\*---------------------------------------------------------------------------*/
FoamFile
{
    version     2.0;
    format      ascii;
    class       areaVectorField;
    location    "50";
    object      uNormal;
}
// * * * * * * * * * * * * * * * * * * * * * * * * * * * * * * * * * * * * * //

dimensions      [0 0 0 0 0 0 0];

internalField   nonuniform List<vector> 
300
(
(0.00499994 -0 0.999988)
(0.00499994 -0 0.999988)
(0.00499994 -0 0.999988)
(0.00499994 -0 0.999988)
(0.00499994 -4.23511e-19 0.999988)
(0.00499994 -4.23511e-19 0.999988)
(0.00499994 -4.23511e-19 0.999988)
(0.00499994 -4.23511e-19 0.999988)
(0.00499994 -0 0.999988)
(0.00499994 -4.23511e-19 0.999988)
(0.00499994 -0 0.999988)
(0.00499994 4.23511e-19 0.999988)
(0.00499994 -0 0.999988)
(0.00499994 4.23511e-19 0.999988)
(0.00499994 -0 0.999988)
(0.00499994 -0 0.999988)
(0.00499994 4.23511e-19 0.999988)
(0.00499994 -4.23511e-19 0.999988)
(0.00499994 4.23511e-19 0.999988)
(0.00499994 -0 0.999988)
(0.00499994 -0 0.999988)
(0.00499994 -4.23511e-19 0.999988)
(0.00499994 -0 0.999988)
(0.00499994 -0 0.999988)
(0.00499994 -0 0.999988)
(0.00499994 -4.23511e-19 0.999988)
(0.00499994 -0 0.999988)
(0.00499994 -0 0.999988)
(0.00499994 -0 0.999988)
(0.00499994 -4.23511e-19 0.999988)
(0.00499994 -0 0.999988)
(0.00499994 -0 0.999988)
(0.00499994 -0 0.999988)
(0.00499994 -0 0.999988)
(0.00499994 -0 0.999988)
(0.00499994 -0 0.999988)
(0.00499994 -0 0.999988)
(0.00499994 -0 0.999988)
(0.00499994 -0 0.999988)
(0.00499994 -0 0.999988)
(0.00499994 -0 0.999988)
(0.00499994 -4.23511e-19 0.999988)
(0.00499994 -0 0.999988)
(0.00499994 -4.23511e-19 0.999988)
(0.00499994 -0 0.999988)
(0.00499994 -0 0.999988)
(0.00499994 -4.23511e-19 0.999988)
(0.00499994 -0 0.999988)
(0.00499994 -4.23511e-19 0.999988)
(0.00499994 -0 0.999988)
(0.00499994 -0 0.999988)
(0.00499994 -4.23511e-19 0.999988)
(0.00499994 -0 0.999988)
(0.00499994 -4.23511e-19 0.999988)
(0.00499994 -0 0.999988)
(0.00499994 -0 0.999988)
(0.00499994 -4.23511e-19 0.999988)
(0.00499994 -0 0.999988)
(0.00499994 -0 0.999988)
(0.0127083 -0 0.999919)
(0.0131832 -1.69392e-18 0.999913)
(0.00945296 8.46995e-19 0.999955)
(0.00738338 -8.4701e-19 0.999973)
(0.00679867 -8.47013e-19 0.999977)
(0.00599796 -0 0.999982)
(0.0058504 -0 0.999983)
(0.00545544 -0 0.999985)
(0.00542436 -4.2351e-19 0.999985)
(0.00520031 -0 0.999986)
(0.00519146 -0 0.999987)
(0.00512225 -4.23511e-19 0.999987)
(0.00531043 -0 0.999986)
(0.00507408 -0 0.999987)
(0.00503306 -0 0.999987)
(0.00488753 -0 0.999988)
(0.00500741 -0 0.999987)
(0.0049419 -4.23511e-19 0.999988)
(0.00496499 -0 0.999988)
(0.00495487 -0 0.999988)
(0.00501326 -0 0.999987)
(0.00491201 -0 0.999988)
(0.0048636 -4.23511e-19 0.999988)
(0.00489392 -4.23511e-19 0.999988)
(0.00501951 -0 0.999987)
(0.00499786 -0 0.999988)
(0.00493861 4.23511e-19 0.999988)
(0.00496065 -4.23511e-19 0.999988)
(0.00505251 -0 0.999987)
(0.00502034 4.23511e-19 0.999987)
(0.00494586 -4.23511e-19 0.999988)
(0.00496878 -4.23511e-19 0.999988)
(0.00505361 -4.23511e-19 0.999987)
(0.00502408 -0 0.999987)
(0.00494639 4.23511e-19 0.999988)
(0.00497124 -0 0.999988)
(0.00505394 -4.23511e-19 0.999987)
(0.00502571 -4.23511e-19 0.999987)
(0.00494619 -0 0.999988)
(0.00497205 -0 0.999988)
(0.00505337 -4.23511e-19 0.999987)
(0.00502583 -0 0.999987)
(0.00494553 4.23511e-19 0.999988)
(0.00497187 4.23511e-19 0.999988)
(0.0050529 -0 0.999987)
(0.00502572 4.23511e-19 0.999987)
(0.00494504 4.23511e-19 0.999988)
(0.00497159 -0 0.999988)
(0.00505256 -4.23511e-19 0.999987)
(0.00502557 4.23511e-19 0.999987)
(0.00494487 -0 0.999988)
(0.00497141 -4.23511e-19 0.999988)
(0.00505228 -0 0.999987)
(0.0050254 -0 0.999987)
(0.00494475 -0 0.999988)
(0.00497135 -4.23511e-19 0.999988)
(0.00505217 -0 0.999987)
(0.00502522 4.23511e-19 0.999987)
(0.00494457 -4.23511e-19 0.999988)
(0.00497128 4.23511e-19 0.999988)
(0.00505209 -4.23511e-19 0.999987)
(0.00502514 -0 0.999987)
(0.00494444 -4.23511e-19 0.999988)
(0.0049711 -0 0.999988)
(0.00505203 -4.23511e-19 0.999987)
(0.00502506 -4.23511e-19 0.999987)
(0.00494439 -4.23511e-19 0.999988)
(0.004971 -0 0.999988)
(0.00505193 -0 0.999987)
(0.00502495 -0 0.999987)
(0.0049444 -0 0.999988)
(0.00497086 -0 0.999988)
(0.00505189 -4.23511e-19 0.999987)
(0.00502486 -0 0.999987)
(0.00494425 -0 0.999988)
(0.00497092 -0 0.999988)
(0.00505164 4.23511e-19 0.999987)
(0.00502465 4.23511e-19 0.999987)
(0.00494453 4.23511e-19 0.999988)
(0.00497065 -4.23511e-19 0.999988)
(0.00505155 -0 0.999987)
(0.0050257 -0 0.999987)
(0.00494204 4.23511e-19 0.999988)
(0.00497243 -0 0.999988)
(0.00504904 4.23511e-19 0.999987)
(0.00502637 -0 0.999987)
(0.00494053 4.23511e-19 0.999988)
(0.0048968 -4.23511e-19 0.999988)
(0.00492106 -4.23511e-19 0.999988)
(0.00493909 -4.23511e-19 0.999988)
(0.00496496 -0 0.999988)
(0.00497529 4.23511e-19 0.999988)
(0.00498062 -4.23511e-19 0.999988)
(0.00498125 -0 0.999988)
(0.00498392 -0 0.999988)
(0.00498654 -0 0.999988)
(0.00499076 -0 0.999988)
(0.00499247 4.23511e-19 0.999988)
(0.00499485 -0 0.999988)
(0.00499537 4.23511e-19 0.999988)
(0.00499686 -0 0.999988)
(0.00499613 -0 0.999988)
(0.00499707 -0 0.999988)
(0.00499613 -0 0.999988)
(0.00499631 -0 0.999988)
(0.00499655 -0 0.999988)
(0.00499823 -0 0.999988)
(0.00499738 -0 0.999988)
(0.00499809 -0 0.999988)
(0.0049972 4.23511e-19 0.999988)
(0.00499774 -0 0.999988)
(0.0049971 -4.23511e-19 0.999988)
(0.00499791 -4.23511e-19 0.999988)
(0.0049972 -0 0.999988)
(0.00499795 -0 0.999988)
(0.00499725 -0 0.999988)
(0.00499781 4.23511e-19 0.999988)
(0.00499696 -4.23511e-19 0.999988)
(0.00499786 -0 0.999988)
(0.00499726 -0 0.999988)
(0.00499785 -0 0.999988)
(0.00499696 -0 0.999988)
(0.00499771 -0 0.999988)
(0.00499733 -4.23511e-19 0.999988)
(0.004998 -0 0.999988)
(0.00499708 -0 0.999988)
(0.00499769 -0 0.999988)
(0.00499698 -0 0.999988)
(0.00499761 -0 0.999988)
(0.00499701 4.23511e-19 0.999988)
(0.00499762 -0 0.999988)
(0.00499693 4.23511e-19 0.999988)
(0.0049977 -0 0.999988)
(0.00499705 -4.23511e-19 0.999988)
(0.00499783 -0 0.999988)
(0.00499707 -0 0.999988)
(0.00499758 4.23511e-19 0.999988)
(0.00499696 -0 0.999988)
(0.00499771 -0 0.999988)
(0.00499716 4.23511e-19 0.999988)
(0.00499783 -0 0.999988)
(0.00499702 -0 0.999988)
(0.00499773 -0 0.999988)
(0.0049971 -0 0.999988)
(0.0049977 -0 0.999988)
(0.00499695 4.23511e-19 0.999988)
(0.00499758 -4.23511e-19 0.999988)
(0.00499706 -0 0.999988)
(0.00499774 -0 0.999988)
(0.00499694 -4.23511e-19 0.999988)
(0.00499772 -0 0.999988)
(0.00499719 -0 0.999988)
(0.00499791 -0 0.999988)
(0.00499713 -4.23511e-19 0.999988)
(0.00499767 4.23511e-19 0.999988)
(0.00499715 -0 0.999988)
(0.00499788 -0 0.999988)
(0.00499713 -0 0.999988)
(0.00499788 -0 0.999988)
(0.00499732 -0 0.999988)
(0.00499801 -4.23511e-19 0.999988)
(0.00499731 -0 0.999988)
(0.00499787 -0 0.999988)
(0.00499737 -0 0.999988)
(0.00499804 4.23511e-19 0.999988)
(0.00499744 -0 0.999988)
(0.00499805 -0 0.999988)
(0.00499737 -0 0.999988)
(0.00499797 -0 0.999988)
(0.00499818 -0 0.999988)
(0.00499829 -0 0.999988)
(0.00499793 -0 0.999988)
(0.0049975 -0 0.999988)
(0.00499846 -0 0.999988)
(0.00499694 -0 0.999988)
(0.00499998 4.23511e-19 0.999988)
(0.00499459 -0 0.999988)
(0.00500353 -4.23511e-19 0.999987)
(0.00499034 -0 0.999988)
(0.0050097 -4.23511e-19 0.999987)
(0.00498246 -0 0.999988)
(0.00501913 -0 0.999987)
(0.00497255 -0 0.999988)
(0.00502946 4.23511e-19 0.999987)
(0.00496186 -0 0.999988)
(0.00504128 -0 0.999987)
(0.00494922 -0 0.999988)
(0.00505466 -0 0.999987)
(0.00493573 -0 0.999988)
(0.00506895 4.23511e-19 0.999987)
(0.00492068 -0 0.999988)
(0.00508554 -0 0.999987)
(0.00490298 4.23511e-19 0.999988)
(0.00510503 -0 0.999987)
(0.00487949 -0 0.999988)
(0.00513299 -0 0.999987)
(0.00484954 -0 0.999988)
(0.00516348 4.23511e-19 0.999987)
(0.00481581 -0 0.999988)
(0.00519327 -0 0.999987)
(0.00479466 -4.23512e-19 0.999989)
(0.00520671 -0 0.999986)
(0.00478842 4.23512e-19 0.999989)
(0.00519632 -0 0.999986)
(0.00482028 -0 0.999988)
(0.00515577 4.23511e-19 0.999987)
(0.00484772 4.23511e-19 0.999988)
(0.00514736 -0 0.999987)
(0.00485762 4.23511e-19 0.999988)
(0.00512628 -0 0.999987)
(0.0048683 -0 0.999988)
(0.00513903 -0 0.999987)
(0.00485323 -0 0.999988)
(0.0051523 -0 0.999987)
(0.00477519 -4.23512e-19 0.999989)
(0.00523014 -0 0.999986)
(0.00472761 -0 0.999989)
(0.00528496 -0 0.999986)
(0.00469261 -4.23512e-19 0.999989)
(0.00536598 -4.2351e-19 0.999986)
(0.00463025 -0 0.999989)
(0.00539974 -4.2351e-19 0.999985)
(0.00458013 -4.23512e-19 0.99999)
(0.00544831 -0 0.999985)
(0.0045667 -4.23512e-19 0.99999)
(0.00546613 -0 0.999985)
(0.00455907 -0 0.99999)
(0.00545973 4.2351e-19 0.999985)
(0.00455072 4.23512e-19 0.99999)
(0.00543645 -4.2351e-19 0.999985)
(0.00458412 -4.23512e-19 0.999989)
(0.00537673 -0 0.999986)
(0.00465414 -0 0.999989)
(0.00532203 -0 0.999986)
(0.00463811 -0 0.999989)
(0.0053058 -0 0.999986)
(-0.0042311 -0 0.999991)
(-0.0127322 -0 0.999919)
(0.00499994 -0 0.999988)
(0.00499994 -0 0.999988)
(0.00499994 -0 0.999988)
)
;

boundaryField
{
    inlet
    {
        type            calculated;
        value           uniform (0 0 0);
    }
    outlet
    {
        type            calculated;
        value           uniform (0 0 0);
    }
    sideWall
    {
        type            empty;
    }
}


// ************************************************************************* //
