/*--------------------------------*- C++ -*----------------------------------*\
| =========                 |                                                 |
| \\      /  F ield         | foam-extend: Open Source CFD                    |
|  \\    /   O peration     | Version:     3.2                                |
|   \\  /    A nd           | Web:         http://www.foam-extend.org         |
|    \\/     M anipulation  | For copyright notice see file Copyright         |
\*---------------------------------------------------------------------------*/
FoamFile
{
    version     2.0;
    format      ascii;
    class       areaVectorField;
    location    "50";
    object      Utau;
}
// * * * * * * * * * * * * * * * * * * * * * * * * * * * * * * * * * * * * * //

dimensions      [0 1 -1 0 0 0 0];

internalField   nonuniform List<vector> 
300
(
(0.757681 -9.7034e-26 -0.00378841)
(0.603042 1.56979e-25 -0.00301521)
(0.518095 6.1536e-26 -0.00259047)
(0.520338 0 -0.00260169)
(0.510796 -4.81241e-23 -0.00255398)
(0.511987 -1.50287e-23 -0.00255993)
(0.50792 -1.93908e-23 -0.0025396)
(0.507993 -3.42693e-24 -0.00253996)
(0.506431 0 -0.00253215)
(0.507116 -2.55151e-24 -0.00253558)
(0.507151 0 -0.00253575)
(0.508224 4.05387e-24 -0.00254112)
(0.509104 -4.67689e-28 -0.00254552)
(0.510634 5.50373e-24 -0.00255317)
(0.51196 0 -0.0025598)
(0.513795 0 -0.00256897)
(0.51552 6.47903e-24 -0.0025776)
(0.5175 -6.01247e-24 -0.0025875)
(0.519416 6.78053e-24 -0.00259708)
(0.521565 0 -0.00260783)
(0.523764 0 -0.00261882)
(0.526015 -6.57908e-24 -0.00263007)
(0.528298 0 -0.00264149)
(0.530596 0 -0.00265298)
(0.532904 0 -0.00266452)
(0.535101 -5.34201e-24 -0.00267551)
(0.537031 -1.65144e-27 -0.00268516)
(0.538664 0 -0.00269332)
(0.540041 0 -0.0027002)
(0.541187 -2.07878e-24 -0.00270594)
(0.542151 -8.99535e-28 -0.00271075)
(0.542948 0 -0.00271474)
(0.543619 0 -0.00271809)
(0.54417 0 -0.00272085)
(0.544638 -4.54767e-28 -0.00272319)
(0.545018 0 -0.00272509)
(0.545347 0 -0.00272673)
(0.545609 -2.70856e-28 -0.00272805)
(0.545845 0 -0.00272922)
(0.546025 0 -0.00273013)
(0.546198 0 -0.00273099)
(0.546322 -1.71739e-25 -0.00273161)
(0.546456 0 -0.00273228)
(0.546538 -9.36829e-26 -0.00273269)
(0.546641 0 -0.0027332)
(0.54669 -6.62194e-29 -0.00273345)
(0.546776 -1.40077e-25 -0.00273388)
(0.546798 0 -0.00273399)
(0.546892 -1.55284e-25 -0.00273446)
(0.546861 0 -0.0027343)
(0.54701 0 -0.00273505)
(0.546856 5.64585e-25 -0.00273428)
(0.547156 0 -0.00273578)
(0.546741 1.49078e-24 -0.0027337)
(0.547443 0 -0.00273721)
(0.546378 0 -0.00273189)
(0.548105 -6.02838e-24 -0.00274053)
(0.545521 7.86161e-28 -0.0027276)
(0.550485 1.26333e-26 -0.00275243)
(0.54061 0 -0.00687078)
(0.515864 2.02614e-23 -0.00680131)
(0.514379 6.18628e-23 -0.00486262)
(0.514948 -1.31424e-23 -0.00380216)
(0.51464 9.92534e-24 -0.00349895)
(0.51478 -2.91547e-27 -0.00308768)
(0.514798 -1.38965e-27 -0.00301183)
(0.514744 1.61855e-27 -0.00280819)
(0.514833 5.78442e-24 -0.00279268)
(0.514695 0 -0.00267661)
(0.515115 0 -0.00267424)
(0.514962 -6.49629e-24 -0.0026378)
(0.514916 0 -0.00273446)
(0.514613 -3.46062e-27 -0.00261122)
(0.514861 0 -0.00259136)
(0.514598 0 -0.00251514)
(0.514998 0 -0.00257884)
(0.514749 2.88203e-24 -0.00254387)
(0.514929 0 -0.00255665)
(0.514583 4.12664e-27 -0.00254972)
(0.514829 8.17373e-27 -0.002581)
(0.51465 -3.82095e-27 -0.002528)
(0.514937 -7.16886e-24 -0.00250448)
(0.514816 -4.08775e-24 -0.0025195)
(0.514956 8.47372e-27 -0.00258486)
(0.514778 4.02116e-27 -0.00257282)
(0.514912 7.20202e-24 -0.00254298)
(0.514786 -4.03847e-24 -0.0025537)
(0.514901 8.31853e-27 -0.00260157)
(0.514741 -3.5746e-24 -0.00258421)
(0.514868 -7.30991e-24 -0.0025465)
(0.514763 -3.90726e-24 -0.00255778)
(0.514873 7.53954e-24 -0.002602)
(0.51473 0 -0.00258608)
(0.514851 7.34687e-24 -0.00254668)
(0.514759 0 -0.00255902)
(0.514864 7.40653e-24 -0.00260212)
(0.51473 3.82182e-24 -0.00258692)
(0.514848 0 -0.00254657)
(0.514762 0 -0.00255945)
(0.514864 7.38162e-24 -0.00260183)
(0.514735 0 -0.002587)
(0.514851 7.50813e-24 -0.00254624)
(0.514768 3.69727e-24 -0.00255939)
(0.514869 0 -0.00260161)
(0.514742 -3.8481e-24 -0.00258698)
(0.514857 7.51242e-24 -0.00254602)
(0.514775 0 -0.00255928)
(0.514876 7.37566e-24 -0.00260147)
(0.514749 -3.85085e-24 -0.00258694)
(0.514864 0 -0.00254597)
(0.514783 -3.68695e-24 -0.00255923)
(0.514883 8.26239e-27 -0.00260136)
(0.514756 0 -0.00258689)
(0.514871 0 -0.00254594)
(0.514789 -3.69417e-24 -0.00255923)
(0.51489 0 -0.00260134)
(0.514763 -3.86371e-24 -0.00258683)
(0.514878 -7.5215e-24 -0.00254588)
(0.514796 3.68814e-24 -0.00255923)
(0.514896 7.35345e-24 -0.00260133)
(0.51477 0 -0.00258682)
(0.514885 -7.51127e-24 -0.00254585)
(0.514803 0 -0.00255917)
(0.514903 7.37007e-24 -0.00260134)
(0.514777 3.85618e-24 -0.00258682)
(0.514892 -7.51663e-24 -0.00254585)
(0.51481 0 -0.00255915)
(0.51491 0 -0.00260132)
(0.514784 0 -0.0025868)
(0.514899 -8.24046e-27 -0.0025459)
(0.514818 -4.02268e-27 -0.00255912)
(0.514918 7.35534e-24 -0.00260134)
(0.514792 -4.00031e-27 -0.00258679)
(0.514908 0 -0.00254586)
(0.514826 -4.02275e-27 -0.00255919)
(0.514927 -7.36058e-24 -0.00260126)
(0.514801 -3.86585e-24 -0.00258673)
(0.514916 7.5168e-24 -0.00254605)
(0.514833 -3.68949e-24 -0.00255909)
(0.514938 -8.25705e-27 -0.00260127)
(0.514808 -4.00641e-27 -0.0025873)
(0.514928 7.52652e-24 -0.00254482)
(0.514843 0 -0.00256005)
(0.514942 -7.34278e-24 -0.0026)
(0.514816 0 -0.00258769)
(0.514929 7.53996e-24 -0.00254405)
(0.514848 -3.85897e-24 -0.00252114)
(0.514718 2.72097e-24 -0.00253299)
(0.514602 1.18779e-24 -0.0025417)
(0.514541 0 -0.00255471)
(0.514509 -1.76351e-25 -0.00255987)
(0.514488 1.0766e-25 -0.0025625)
(0.514479 0 -0.00256278)
(0.514472 -1.82659e-29 -0.00256412)
(0.514467 -1.91471e-29 -0.00256544)
(0.514458 0 -0.00256757)
(0.514453 1.04238e-26 -0.00256842)
(0.514446 0 -0.00256961)
(0.51444 9.01931e-27 -0.00256985)
(0.514436 -1.21028e-29 -0.0025706)
(0.514435 0 -0.00257022)
(0.514433 0 -0.00257069)
(0.514432 0 -0.0025702)
(0.514429 0 -0.00257028)
(0.514426 3.02295e-30 -0.00257039)
(0.514425 8.85192e-30 -0.00257125)
(0.514428 0 -0.00257083)
(0.51443 -7.88368e-30 -0.00257119)
(0.514433 -8.68391e-27 -0.00257076)
(0.514434 0 -0.00257104)
(0.514438 -1.49513e-26 -0.00257073)
(0.514439 8.68896e-27 -0.00257115)
(0.514441 0 -0.0025708)
(0.514443 1.25385e-30 -0.00257119)
(0.514446 -1.07671e-30 -0.00257085)
(0.514447 -1.72817e-26 -0.00257114)
(0.51445 -1.33392e-26 -0.00257072)
(0.514452 9.38153e-31 -0.00257119)
(0.514454 0 -0.0025709)
(0.514455 6.66552e-31 -0.0025712)
(0.514459 0 -0.00257077)
(0.514461 1.25341e-30 -0.00257116)
(0.514464 -1.70897e-26 -0.00257097)
(0.514465 0 -0.00257133)
(0.514468 0 -0.00257087)
(0.514469 1.39079e-30 -0.00257119)
(0.514473 -2.96935e-30 -0.00257084)
(0.514475 0 -0.00257118)
(0.514479 1.84522e-26 -0.00257089)
(0.51448 6.93224e-31 -0.00257121)
(0.514485 2.11797e-26 -0.00257088)
(0.514486 1.39349e-30 -0.00257128)
(0.51449 -1.48825e-26 -0.00257097)
(0.514491 -2.25851e-30 -0.00257137)
(0.514494 0 -0.002571)
(0.514497 3.8492e-27 -0.00257127)
(0.514501 -2.33678e-30 -0.00257097)
(0.514502 0 -0.00257137)
(0.514505 1.87372e-26 -0.0025711)
(0.514507 -2.77792e-31 -0.00257145)
(0.514511 0 -0.00257105)
(0.514513 2.96245e-31 -0.00257143)
(0.514517 0 -0.00257113)
(0.514519 0 -0.00257144)
(0.514522 2.019e-26 -0.00257107)
(0.514524 5.82071e-27 -0.00257141)
(0.514528 0 -0.00257116)
(0.51453 2.35314e-30 -0.00257152)
(0.514535 -2.2121e-26 -0.00257113)
(0.514537 6.6396e-31 -0.00257154)
(0.51454 0 -0.00257129)
(0.514542 -6.78891e-31 -0.00257167)
(0.514545 -2.42473e-26 -0.00257128)
(0.514547 1.48432e-28 -0.00257157)
(0.514551 4.19934e-30 -0.00257132)
(0.514552 0 -0.0025717)
(0.514557 0 -0.00257134)
(0.514559 0 -0.00257173)
(0.514562 0 -0.00257147)
(0.514564 -3.35437e-27 -0.00257183)
(0.514567 0 -0.00257148)
(0.514569 0 -0.00257178)
(0.514573 0 -0.00257154)
(0.514574 -2.32285e-26 -0.0025719)
(0.514577 0 -0.0025716)
(0.514579 4.43904e-30 -0.00257192)
(0.51458 0 -0.00257158)
(0.514585 0 -0.00257192)
(0.514586 0 -0.00257203)
(0.514594 0 -0.00257212)
(0.514589 0 -0.00257191)
(0.514602 5.82431e-30 -0.00257176)
(0.514589 0 -0.00257219)
(0.514613 2.54121e-30 -0.00257152)
(0.514583 -5.82806e-26 -0.00257293)
(0.514633 1.42095e-29 -0.00257042)
(0.514571 2.25737e-25 -0.00257471)
(0.514657 0 -0.00256834)
(0.514553 5.35605e-25 -0.00257779)
(0.514686 -2.25555e-29 -0.00256443)
(0.514535 0 -0.00258255)
(0.514711 0 -0.00255946)
(0.514519 -1.47562e-24 -0.00258779)
(0.514736 7.62662e-29 -0.00255408)
(0.514502 0 -0.00259378)
(0.514762 -1.13387e-28 -0.0025477)
(0.514484 0 -0.00260058)
(0.51479 0 -0.0025409)
(0.514461 -3.17491e-24 -0.00260781)
(0.514825 0 -0.00253332)
(0.51443 0 -0.00261619)
(0.514867 4.33553e-24 -0.00252442)
(0.514389 0 -0.00262601)
(0.51492 0 -0.00251257)
(0.51435 0 -0.00264019)
(0.514952 -4.06135e-28 -0.00249731)
(0.514342 -7.01403e-24 -0.00265583)
(0.514944 0 -0.0024799)
(0.514403 0 -0.00267147)
(0.514862 -7.88224e-24 -0.00246862)
(0.51451 -7.00572e-28 -0.00267894)
(0.514755 7.80816e-24 -0.00246489)
(0.514637 0 -0.00267425)
(0.514662 0 -0.00248085)
(0.514672 -8.43151e-24 -0.00265357)
(0.51471 6.48838e-24 -0.0024952)
(0.514613 0 -0.00264893)
(0.514759 6.11209e-24 -0.00250053)
(0.514549 0 -0.00263776)
(0.514899 0 -0.00250671)
(0.514394 -4.34311e-28 -0.00264352)
(0.515048 0 -0.00249968)
(0.514209 -2.85493e-28 -0.00264939)
(0.515287 -9.39484e-24 -0.00246062)
(0.514184 -6.07939e-28 -0.00268929)
(0.515333 0 -0.00243632)
(0.514152 0 -0.00271731)
(0.515387 -1.3737e-23 -0.00241854)
(0.51407 1.49224e-23 -0.00275853)
(0.515321 0 -0.00238609)
(0.514103 1.63691e-23 -0.00277606)
(0.515264 -1.69427e-23 -0.00236)
(0.514207 -1.48709e-27 -0.0028016)
(0.515101 -1.76481e-23 -0.00235233)
(0.514323 1.53501e-27 -0.0028114)
(0.514918 0 -0.00234757)
(0.514452 -1.72412e-23 -0.00280881)
(0.514713 1.97392e-23 -0.00234234)
(0.514704 1.85599e-23 -0.00279821)
(0.514456 -1.4388e-23 -0.00235835)
(0.514996 -3.36399e-27 -0.00276904)
(0.514146 -3.03684e-27 -0.00239294)
(0.515381 0 -0.00274292)
(0.513494 0 -0.00238167)
(0.515834 0 -0.00273696)
(0.508423 7.70941e-26 0.00215121)
(0.570784 -5.57807e-26 0.0072679)
(0.563096 0 -0.00281548)
(0.540303 0 -0.00270152)
(0.547679 0 -0.0027384)
)
;

boundaryField
{
    inlet
    {
        type            calculated;
        value           uniform (0 0 0);
    }
    outlet
    {
        type            calculated;
        value           uniform (0 0 0);
    }
    sideWall
    {
        type            empty;
    }
}


// ************************************************************************* //
