/*--------------------------------*- C++ -*----------------------------------*\
| =========                 |                                                 |
| \\      /  F ield         | foam-extend: Open Source CFD                    |
|  \\    /   O peration     | Version:     3.2                                |
|   \\  /    A nd           | Web:         http://www.foam-extend.org         |
|    \\/     M anipulation  | For copyright notice see file Copyright         |
\*---------------------------------------------------------------------------*/
FoamFile
{
    version     2.0;
    format      ascii;
    class       areaScalarField;
    location    "50";
    object      volC;
}
// * * * * * * * * * * * * * * * * * * * * * * * * * * * * * * * * * * * * * //

dimensions      [0 3 0 0 0 0 0];

internalField   nonuniform List<scalar> 
300
(
1.14335e-05
1.14335e-05
1.14335e-05
1.14335e-05
1.14335e-05
1.14335e-05
1.14335e-05
1.14335e-05
1.14335e-05
1.14335e-05
1.14335e-05
1.14335e-05
1.14335e-05
1.14335e-05
1.14335e-05
1.14335e-05
1.14335e-05
1.14335e-05
1.14335e-05
1.14335e-05
1.14335e-05
1.14335e-05
1.14335e-05
1.14335e-05
1.14335e-05
1.14335e-05
1.14335e-05
1.14335e-05
1.14335e-05
1.14335e-05
1.14335e-05
1.14335e-05
1.14335e-05
1.14335e-05
1.14335e-05
1.14335e-05
1.14335e-05
1.14335e-05
1.14335e-05
1.14335e-05
1.14335e-05
1.14335e-05
1.14335e-05
1.14335e-05
1.14335e-05
1.14335e-05
1.14335e-05
1.14335e-05
1.14335e-05
1.14335e-05
1.14335e-05
1.14335e-05
1.14335e-05
1.14335e-05
1.14335e-05
1.14335e-05
1.14335e-05
1.14335e-05
1.14335e-05
1.12843e-05
1.08032e-05
1.05488e-05
1.03238e-05
1.02823e-05
1.01474e-05
1.01701e-05
1.00669e-05
1.01175e-05
1.00285e-05
1.00929e-05
1.00435e-05
1.01589e-05
1.00223e-05
1.01071e-05
1.00048e-05
1.00914e-05
1.00002e-05
1.00875e-05
1.00002e-05
1.00833e-05
9.99924e-06
1.00883e-05
1.00075e-05
1.00927e-05
1.00096e-05
1.00964e-05
1.00135e-05
1.00966e-05
1.00122e-05
1.00979e-05
1.00147e-05
1.00971e-05
1.00129e-05
1.00982e-05
1.0015e-05
1.00973e-05
1.00131e-05
1.00983e-05
1.00152e-05
1.00974e-05
1.00131e-05
1.00984e-05
1.00153e-05
1.00975e-05
1.00133e-05
1.00985e-05
1.00154e-05
1.00977e-05
1.00135e-05
1.00988e-05
1.00157e-05
1.0098e-05
1.00138e-05
1.00991e-05
1.0016e-05
1.00983e-05
1.00141e-05
1.00994e-05
1.00163e-05
1.00986e-05
1.00144e-05
1.00997e-05
1.00166e-05
1.00989e-05
1.00147e-05
1.01001e-05
1.0017e-05
1.00993e-05
1.00151e-05
1.01004e-05
1.00173e-05
1.00997e-05
1.00155e-05
1.01008e-05
1.00177e-05
1.01001e-05
1.00159e-05
1.01013e-05
1.00182e-05
1.01005e-05
1.00163e-05
1.01016e-05
1.00186e-05
1.01008e-05
1.00169e-05
1.01021e-05
1.00084e-05
1.00978e-05
1.00211e-05
1.01106e-05
1.00291e-05
1.01147e-05
1.00318e-05
1.01168e-05
1.00336e-05
1.01183e-05
1.00347e-05
1.01193e-05
1.00356e-05
1.01199e-05
1.0036e-05
1.01203e-05
1.00365e-05
1.01207e-05
1.00369e-05
1.01212e-05
1.00372e-05
1.01214e-05
1.00374e-05
1.01217e-05
1.00377e-05
1.01219e-05
1.00379e-05
1.01222e-05
1.00381e-05
1.01224e-05
1.00383e-05
1.01227e-05
1.00386e-05
1.0123e-05
1.00388e-05
1.01232e-05
1.00391e-05
1.01234e-05
1.00393e-05
1.01237e-05
1.00396e-05
1.0124e-05
1.00398e-05
1.01243e-05
1.00401e-05
1.01245e-05
1.00403e-05
1.01248e-05
1.00406e-05
1.0125e-05
1.00408e-05
1.01253e-05
1.00411e-05
1.01256e-05
1.00413e-05
1.01258e-05
1.00415e-05
1.01261e-05
1.00418e-05
1.01263e-05
1.0042e-05
1.01266e-05
1.00422e-05
1.01269e-05
1.00425e-05
1.01271e-05
1.00427e-05
1.01273e-05
1.0043e-05
1.01276e-05
1.00432e-05
1.01279e-05
1.00434e-05
1.01281e-05
1.00436e-05
1.01283e-05
1.00439e-05
1.01285e-05
1.00441e-05
1.01288e-05
1.00443e-05
1.0129e-05
1.00445e-05
1.01292e-05
1.00447e-05
1.01293e-05
1.00449e-05
1.01294e-05
1.00453e-05
1.01295e-05
1.00457e-05
1.01293e-05
1.00463e-05
1.01289e-05
1.00471e-05
1.01283e-05
1.00482e-05
1.01274e-05
1.00495e-05
1.01262e-05
1.00511e-05
1.01248e-05
1.0053e-05
1.01231e-05
1.00552e-05
1.01211e-05
1.00577e-05
1.01179e-05
1.00614e-05
1.01146e-05
1.0065e-05
1.01086e-05
1.00694e-05
1.01059e-05
1.00731e-05
1.00997e-05
1.00767e-05
1.0099e-05
1.00793e-05
1.00932e-05
1.00815e-05
1.00943e-05
1.0084e-05
1.00862e-05
1.00856e-05
1.00887e-05
1.00952e-05
1.00498e-05
1.01016e-05
1.00561e-05
1.01114e-05
1.0054e-05
1.01213e-05
1.00481e-05
1.01303e-05
1.00412e-05
1.01394e-05
1.00332e-05
1.01463e-05
1.00258e-05
1.01512e-05
1.00191e-05
1.01615e-05
1.00087e-05
1.0171e-05
1.00004e-05
1.0178e-05
9.99516e-06
1.01863e-05
1.01602e-05
1.10894e-05
1.14335e-05
1.14335e-05
1.14335e-05
)
;

boundaryField
{
    inlet
    {
        type            calculated;
        value           uniform 0;
    }
    outlet
    {
        type            calculated;
        value           uniform 0;
    }
    sideWall
    {
        type            empty;
    }
}


// ************************************************************************* //
