/*--------------------------------*- C++ -*----------------------------------*\
| =========                 |                                                 |
| \\      /  F ield         | foam-extend: Open Source CFD                    |
|  \\    /   O peration     | Version:     3.2                                |
|   \\  /    A nd           | Web:         http://www.foam-extend.org         |
|    \\/     M anipulation  | For copyright notice see file Copyright         |
\*---------------------------------------------------------------------------*/
FoamFile
{
    version     2.0;
    format      ascii;
    class       areaVectorField;
    location    "50";
    object      Wt;
}
// * * * * * * * * * * * * * * * * * * * * * * * * * * * * * * * * * * * * * //

dimensions      [1 1 -2 0 0 0 0];

internalField   nonuniform List<vector> 
300
(
(5.16563e-08 0 -2.58282e-10)
(5.16563e-08 0 -2.58282e-10)
(5.16563e-08 0 -2.58282e-10)
(5.16563e-08 0 -2.58282e-10)
(5.16563e-08 -4.37546e-24 -2.58282e-10)
(5.16563e-08 -4.37546e-24 -2.58282e-10)
(5.16563e-08 -4.37546e-24 -2.58282e-10)
(5.16563e-08 -4.37546e-24 -2.58282e-10)
(5.16563e-08 0 -2.58282e-10)
(5.16563e-08 -4.37546e-24 -2.58282e-10)
(5.16563e-08 0 -2.58282e-10)
(5.16563e-08 4.37546e-24 -2.58282e-10)
(5.16563e-08 0 -2.58282e-10)
(5.16563e-08 4.37546e-24 -2.58282e-10)
(5.16563e-08 0 -2.58282e-10)
(5.16563e-08 0 -2.58282e-10)
(5.16563e-08 4.37546e-24 -2.58282e-10)
(5.16563e-08 -4.37546e-24 -2.58282e-10)
(5.16563e-08 4.37546e-24 -2.58282e-10)
(5.16563e-08 0 -2.58282e-10)
(5.16563e-08 0 -2.58282e-10)
(5.16563e-08 -4.37546e-24 -2.58282e-10)
(5.16563e-08 0 -2.58282e-10)
(5.16563e-08 0 -2.58282e-10)
(5.16563e-08 0 -2.58282e-10)
(5.16563e-08 -4.37546e-24 -2.58282e-10)
(5.16563e-08 0 -2.58282e-10)
(5.16563e-08 0 -2.58282e-10)
(5.16563e-08 0 -2.58282e-10)
(5.16563e-08 -4.37546e-24 -2.58282e-10)
(5.16563e-08 0 -2.58282e-10)
(5.16563e-08 0 -2.58282e-10)
(5.16563e-08 0 -2.58282e-10)
(5.16563e-08 0 -2.58282e-10)
(5.16563e-08 0 -2.58282e-10)
(5.16563e-08 0 -2.58282e-10)
(5.16563e-08 0 -2.58282e-10)
(5.16563e-08 0 -2.58282e-10)
(5.16563e-08 0 -2.58282e-10)
(5.16563e-08 0 -2.58282e-10)
(5.16563e-08 0 -2.58282e-10)
(5.16563e-08 -4.37546e-24 -2.58282e-10)
(5.16563e-08 0 -2.58282e-10)
(5.16563e-08 -4.37546e-24 -2.58282e-10)
(5.16563e-08 0 -2.58282e-10)
(5.16563e-08 0 -2.58282e-10)
(5.16563e-08 -4.37546e-24 -2.58282e-10)
(5.16563e-08 0 -2.58282e-10)
(5.16563e-08 -4.37546e-24 -2.58282e-10)
(5.16563e-08 0 -2.58282e-10)
(5.16563e-08 0 -2.58282e-10)
(5.16563e-08 -4.37546e-24 -2.58282e-10)
(5.16563e-08 0 -2.58282e-10)
(5.16563e-08 -4.37546e-24 -2.58282e-10)
(5.16563e-08 0 -2.58282e-10)
(5.16563e-08 0 -2.58282e-10)
(5.16563e-08 -4.37546e-24 -2.58282e-10)
(5.16563e-08 0 -2.58282e-10)
(5.16563e-08 0 -2.58282e-10)
(1.31285e-07 0 -1.66855e-09)
(1.3619e-07 -1.74992e-23 -1.79558e-09)
(9.76591e-08 8.75036e-24 -9.23208e-10)
(7.62795e-08 -8.75066e-24 -5.63215e-10)
(7.0239e-08 -8.75074e-24 -4.77543e-10)
(6.19669e-08 0 -3.71682e-10)
(6.04425e-08 0 -3.53619e-10)
(5.63622e-08 0 -3.07485e-10)
(5.6041e-08 -4.37544e-24 -3.03991e-10)
(5.37264e-08 0 -2.79398e-10)
(5.3635e-08 0 -2.78448e-10)
(5.292e-08 -4.37546e-24 -2.71073e-10)
(5.4864e-08 0 -2.91356e-10)
(5.24223e-08 0 -2.65998e-10)
(5.19985e-08 0 -2.61714e-10)
(5.0495e-08 0 -2.46799e-10)
(5.17335e-08 0 -2.59054e-10)
(5.10567e-08 -4.37546e-24 -2.5232e-10)
(5.12953e-08 0 -2.54684e-10)
(5.11907e-08 0 -2.53646e-10)
(5.1794e-08 0 -2.5966e-10)
(5.07479e-08 0 -2.49277e-10)
(5.02478e-08 -4.37547e-24 -2.44388e-10)
(5.05611e-08 -4.37547e-24 -2.47445e-10)
(5.18585e-08 0 -2.60308e-10)
(5.16349e-08 0 -2.58067e-10)
(5.10227e-08 4.37546e-24 -2.51984e-10)
(5.12504e-08 -4.37546e-24 -2.54238e-10)
(5.21994e-08 0 -2.63741e-10)
(5.18671e-08 4.37546e-24 -2.60394e-10)
(5.10976e-08 -4.37546e-24 -2.52724e-10)
(5.13344e-08 -4.37546e-24 -2.55072e-10)
(5.22108e-08 -4.37546e-24 -2.63856e-10)
(5.19058e-08 0 -2.60782e-10)
(5.11031e-08 4.37546e-24 -2.52779e-10)
(5.13599e-08 0 -2.55326e-10)
(5.22142e-08 -4.37546e-24 -2.63891e-10)
(5.19226e-08 -4.37546e-24 -2.60951e-10)
(5.11011e-08 0 -2.52759e-10)
(5.13682e-08 0 -2.55409e-10)
(5.22084e-08 -4.37546e-24 -2.63832e-10)
(5.19238e-08 0 -2.60963e-10)
(5.10942e-08 4.37546e-24 -2.52691e-10)
(5.13664e-08 4.37546e-24 -2.5539e-10)
(5.22035e-08 0 -2.63783e-10)
(5.19227e-08 4.37546e-24 -2.60952e-10)
(5.10892e-08 4.37546e-24 -2.52641e-10)
(5.13635e-08 0 -2.55361e-10)
(5.22e-08 -4.37546e-24 -2.63747e-10)
(5.19211e-08 4.37546e-24 -2.60936e-10)
(5.10874e-08 0 -2.52624e-10)
(5.13616e-08 -4.37546e-24 -2.55343e-10)
(5.21971e-08 0 -2.63717e-10)
(5.19194e-08 0 -2.60919e-10)
(5.10862e-08 0 -2.52611e-10)
(5.1361e-08 -4.37546e-24 -2.55337e-10)
(5.21959e-08 0 -2.63706e-10)
(5.19176e-08 4.37546e-24 -2.60901e-10)
(5.10843e-08 -4.37546e-24 -2.52593e-10)
(5.13603e-08 4.37546e-24 -2.5533e-10)
(5.21951e-08 -4.37546e-24 -2.63698e-10)
(5.19166e-08 0 -2.60891e-10)
(5.1083e-08 -4.37546e-24 -2.5258e-10)
(5.13584e-08 0 -2.55311e-10)
(5.21945e-08 -4.37546e-24 -2.63691e-10)
(5.19158e-08 -4.37546e-24 -2.60883e-10)
(5.10824e-08 -4.37546e-24 -2.52574e-10)
(5.13574e-08 0 -2.55301e-10)
(5.21934e-08 0 -2.63681e-10)
(5.19147e-08 0 -2.60872e-10)
(5.10826e-08 0 -2.52576e-10)
(5.13559e-08 0 -2.55286e-10)
(5.2193e-08 -4.37546e-24 -2.63676e-10)
(5.19138e-08 0 -2.60863e-10)
(5.1081e-08 0 -2.5256e-10)
(5.13565e-08 0 -2.55292e-10)
(5.21904e-08 4.37546e-24 -2.63651e-10)
(5.19116e-08 4.37546e-24 -2.60841e-10)
(5.10839e-08 4.37546e-24 -2.52589e-10)
(5.13538e-08 -4.37546e-24 -2.55265e-10)
(5.21895e-08 0 -2.63641e-10)
(5.19225e-08 0 -2.6095e-10)
(5.10582e-08 4.37546e-24 -2.52335e-10)
(5.13721e-08 0 -2.55447e-10)
(5.21637e-08 4.37546e-24 -2.6338e-10)
(5.19294e-08 0 -2.61019e-10)
(5.10425e-08 4.37546e-24 -2.5218e-10)
(5.05908e-08 -4.37547e-24 -2.47736e-10)
(5.08414e-08 -4.37546e-24 -2.50197e-10)
(5.10277e-08 -4.37546e-24 -2.52034e-10)
(5.1295e-08 0 -2.54681e-10)
(5.14017e-08 4.37546e-24 -2.55742e-10)
(5.14568e-08 -4.37546e-24 -2.5629e-10)
(5.14632e-08 0 -2.56354e-10)
(5.14909e-08 0 -2.5663e-10)
(5.15179e-08 0 -2.56899e-10)
(5.15616e-08 0 -2.57335e-10)
(5.15792e-08 4.37546e-24 -2.57511e-10)
(5.16037e-08 0 -2.57756e-10)
(5.16092e-08 4.37546e-24 -2.5781e-10)
(5.16245e-08 0 -2.57964e-10)
(5.1617e-08 0 -2.57889e-10)
(5.16267e-08 0 -2.57985e-10)
(5.1617e-08 0 -2.57889e-10)
(5.16189e-08 0 -2.57907e-10)
(5.16214e-08 0 -2.57932e-10)
(5.16387e-08 0 -2.58105e-10)
(5.16299e-08 0 -2.58018e-10)
(5.16372e-08 0 -2.5809e-10)
(5.16281e-08 4.37546e-24 -2.57999e-10)
(5.16336e-08 0 -2.58055e-10)
(5.1627e-08 -4.37546e-24 -2.57989e-10)
(5.16353e-08 -4.37546e-24 -2.58072e-10)
(5.1628e-08 0 -2.57999e-10)
(5.16358e-08 0 -2.58077e-10)
(5.16285e-08 0 -2.58004e-10)
(5.16344e-08 4.37546e-24 -2.58062e-10)
(5.16256e-08 -4.37546e-24 -2.57974e-10)
(5.16349e-08 0 -2.58068e-10)
(5.16287e-08 0 -2.58005e-10)
(5.16348e-08 0 -2.58066e-10)
(5.16256e-08 0 -2.57974e-10)
(5.16333e-08 0 -2.58051e-10)
(5.16293e-08 -4.37546e-24 -2.58012e-10)
(5.16363e-08 0 -2.58081e-10)
(5.16268e-08 0 -2.57986e-10)
(5.16331e-08 0 -2.5805e-10)
(5.16258e-08 0 -2.57976e-10)
(5.16323e-08 0 -2.58042e-10)
(5.16261e-08 4.37546e-24 -2.5798e-10)
(5.16324e-08 0 -2.58042e-10)
(5.16253e-08 4.37546e-24 -2.57971e-10)
(5.16333e-08 0 -2.58051e-10)
(5.16265e-08 -4.37546e-24 -2.57984e-10)
(5.16346e-08 0 -2.58064e-10)
(5.16267e-08 0 -2.57986e-10)
(5.16319e-08 4.37546e-24 -2.58038e-10)
(5.16256e-08 0 -2.57974e-10)
(5.16334e-08 0 -2.58052e-10)
(5.16276e-08 4.37546e-24 -2.57995e-10)
(5.16346e-08 0 -2.58064e-10)
(5.16262e-08 0 -2.5798e-10)
(5.16335e-08 0 -2.58053e-10)
(5.1627e-08 0 -2.57989e-10)
(5.16332e-08 0 -2.58051e-10)
(5.16254e-08 4.37546e-24 -2.57973e-10)
(5.16319e-08 -4.37546e-24 -2.58038e-10)
(5.16266e-08 0 -2.57985e-10)
(5.16336e-08 0 -2.58055e-10)
(5.16254e-08 -4.37546e-24 -2.57972e-10)
(5.16334e-08 0 -2.58053e-10)
(5.16279e-08 0 -2.57998e-10)
(5.16354e-08 0 -2.58072e-10)
(5.16273e-08 -4.37546e-24 -2.57992e-10)
(5.16329e-08 4.37546e-24 -2.58047e-10)
(5.16275e-08 0 -2.57994e-10)
(5.1635e-08 0 -2.58069e-10)
(5.16273e-08 0 -2.57991e-10)
(5.1635e-08 0 -2.58069e-10)
(5.16293e-08 0 -2.58011e-10)
(5.16364e-08 -4.37546e-24 -2.58083e-10)
(5.16292e-08 0 -2.5801e-10)
(5.16349e-08 0 -2.58068e-10)
(5.16298e-08 0 -2.58017e-10)
(5.16367e-08 4.37546e-24 -2.58086e-10)
(5.16305e-08 0 -2.58024e-10)
(5.16368e-08 0 -2.58086e-10)
(5.16298e-08 0 -2.58017e-10)
(5.1636e-08 0 -2.58079e-10)
(5.16382e-08 0 -2.581e-10)
(5.16393e-08 0 -2.58111e-10)
(5.16355e-08 0 -2.58074e-10)
(5.16312e-08 0 -2.5803e-10)
(5.16411e-08 0 -2.58129e-10)
(5.16254e-08 0 -2.57972e-10)
(5.16568e-08 4.37546e-24 -2.58286e-10)
(5.16011e-08 0 -2.5773e-10)
(5.16934e-08 -4.37546e-24 -2.58653e-10)
(5.15571e-08 0 -2.57291e-10)
(5.17572e-08 -4.37546e-24 -2.59291e-10)
(5.14758e-08 0 -2.56479e-10)
(5.18546e-08 0 -2.60268e-10)
(5.13734e-08 0 -2.5546e-10)
(5.19613e-08 4.37546e-24 -2.61341e-10)
(5.12629e-08 0 -2.54363e-10)
(5.20834e-08 0 -2.6257e-10)
(5.11324e-08 0 -2.53068e-10)
(5.22217e-08 0 -2.63966e-10)
(5.0993e-08 0 -2.51691e-10)
(5.23693e-08 4.37546e-24 -2.6546e-10)
(5.08375e-08 0 -2.50158e-10)
(5.25407e-08 0 -2.67201e-10)
(5.06546e-08 4.37547e-24 -2.48362e-10)
(5.27421e-08 0 -2.69254e-10)
(5.04119e-08 0 -2.45987e-10)
(5.30309e-08 0 -2.72211e-10)
(5.01026e-08 0 -2.42977e-10)
(5.33459e-08 4.37545e-24 -2.75454e-10)
(4.9754e-08 0 -2.39608e-10)
(5.36537e-08 0 -2.78642e-10)
(4.95356e-08 -4.37547e-24 -2.37509e-10)
(5.37925e-08 0 -2.80086e-10)
(4.94711e-08 4.37547e-24 -2.36891e-10)
(5.36851e-08 0 -2.78969e-10)
(4.98003e-08 0 -2.40054e-10)
(5.32663e-08 4.37545e-24 -2.74633e-10)
(5.00837e-08 4.37547e-24 -2.42795e-10)
(5.31793e-08 0 -2.73736e-10)
(5.0186e-08 4.37547e-24 -2.43787e-10)
(5.29616e-08 0 -2.715e-10)
(5.02963e-08 0 -2.44861e-10)
(5.30933e-08 0 -2.72852e-10)
(5.01406e-08 0 -2.43347e-10)
(5.32304e-08 0 -2.74262e-10)
(4.93344e-08 -4.37547e-24 -2.35583e-10)
(5.40345e-08 0 -2.82612e-10)
(4.88429e-08 0 -2.30913e-10)
(5.46009e-08 0 -2.88567e-10)
(4.84813e-08 -4.37547e-24 -2.27506e-10)
(5.5438e-08 -4.37544e-24 -2.97483e-10)
(4.7837e-08 0 -2.215e-10)
(5.57867e-08 -4.37544e-24 -3.01238e-10)
(4.73192e-08 -4.37548e-24 -2.16731e-10)
(5.62885e-08 0 -3.06681e-10)
(4.71805e-08 -4.37548e-24 -2.15461e-10)
(5.64726e-08 0 -3.08691e-10)
(4.71016e-08 0 -2.14742e-10)
(5.64065e-08 4.37544e-24 -3.07969e-10)
(4.70154e-08 4.37548e-24 -2.13956e-10)
(5.6166e-08 -4.37544e-24 -3.05349e-10)
(4.73604e-08 -4.37548e-24 -2.17108e-10)
(5.5549e-08 0 -2.98677e-10)
(4.80839e-08 0 -2.23792e-10)
(5.49839e-08 0 -2.92631e-10)
(4.79183e-08 0 -2.22253e-10)
(5.48163e-08 0 -2.90849e-10)
(-4.37133e-08 0 -1.84957e-10)
(-1.31532e-07 0 -1.67482e-09)
(5.16563e-08 0 -2.58282e-10)
(5.16563e-08 0 -2.58282e-10)
(5.16563e-08 0 -2.58282e-10)
)
;

boundaryField
{
    inlet
    {
        type            calculated;
        value           uniform (0 0 0);
    }
    outlet
    {
        type            calculated;
        value           uniform (0 0 0);
    }
    sideWall
    {
        type            empty;
    }
}


// ************************************************************************* //
