/*--------------------------------*- C++ -*----------------------------------*\
| =========                 |                                                 |
| \\      /  F ield         | foam-extend: Open Source CFD                    |
|  \\    /   O peration     | Version:     3.2                                |
|   \\  /    A nd           | Web:         http://www.foam-extend.org         |
|    \\/     M anipulation  | For copyright notice see file Copyright         |
\*---------------------------------------------------------------------------*/
FoamFile
{
    version     2.0;
    format      ascii;
    class       areaScalarField;
    location    "50";
    object      zCo;
}
// * * * * * * * * * * * * * * * * * * * * * * * * * * * * * * * * * * * * * //

dimensions      [0 1 0 0 0 0 0];

internalField   nonuniform List<scalar> 
300
(
-0.000125
-0.000375
-0.000625
-0.000875
-0.001125
-0.001375
-0.001625
-0.001875
-0.002125
-0.002375
-0.002625
-0.002875
-0.003125
-0.003375
-0.003625
-0.003875
-0.004125
-0.004375
-0.004625
-0.004875
-0.005125
-0.005375
-0.005625
-0.005875
-0.006125
-0.006375
-0.006625
-0.006875
-0.007125
-0.007375
-0.007625
-0.007875
-0.008125
-0.008375
-0.008625
-0.008875
-0.009125
-0.009375
-0.009625
-0.009875
-0.010125
-0.010375
-0.010625
-0.010875
-0.011125
-0.011375
-0.011625
-0.011875
-0.012125
-0.012375
-0.012625
-0.012875
-0.013125
-0.013375
-0.013625
-0.013875
-0.014125
-0.014375
-0.014625
-0.0150677
-0.0157151
-0.016281
-0.0167019
-0.0170565
-0.0173764
-0.0176726
-0.0179553
-0.0182273
-0.0184929
-0.0187527
-0.0190106
-0.0192714
-0.019531
-0.0197837
-0.0200317
-0.0202791
-0.0205278
-0.0207755
-0.0210235
-0.0212727
-0.0215208
-0.0217652
-0.0220091
-0.022257
-0.0225074
-0.0227558
-0.0230033
-0.0232537
-0.0235055
-0.0237546
-0.0240025
-0.0242531
-0.024505
-0.0247543
-0.0250022
-0.0252529
-0.0255049
-0.0257542
-0.0260021
-0.0262527
-0.0265047
-0.026754
-0.027002
-0.0272526
-0.0275045
-0.0277538
-0.0280017
-0.0282523
-0.0285043
-0.0287536
-0.0290015
-0.0292521
-0.029504
-0.0297533
-0.0300012
-0.0302518
-0.0305037
-0.030753
-0.0310009
-0.0312514
-0.0315034
-0.0317526
-0.0320005
-0.0322511
-0.032503
-0.0327523
-0.0330002
-0.0332507
-0.0335027
-0.0337519
-0.0339998
-0.0342503
-0.0345023
-0.0347515
-0.0349994
-0.0352499
-0.0355019
-0.0357511
-0.035999
-0.0362495
-0.0365015
-0.0367507
-0.0369985
-0.0372491
-0.037501
-0.0377501
-0.0379961
-0.0382415
-0.038488
-0.0387356
-0.0389841
-0.039233
-0.0394821
-0.0397312
-0.0399805
-0.0402299
-0.0404795
-0.0407292
-0.0409789
-0.0412288
-0.0414786
-0.0417284
-0.0419783
-0.0422281
-0.0424779
-0.0427278
-0.0429777
-0.0432275
-0.0434774
-0.0437273
-0.0439772
-0.0442271
-0.0444769
-0.0447268
-0.0449767
-0.0452266
-0.0454765
-0.0457263
-0.0459762
-0.0462261
-0.046476
-0.0467258
-0.0469757
-0.0472256
-0.0474755
-0.0477254
-0.0479752
-0.0482251
-0.048475
-0.0487248
-0.0489747
-0.0492246
-0.0494744
-0.0497243
-0.0499742
-0.0502241
-0.0504739
-0.0507238
-0.0509737
-0.0512235
-0.0514734
-0.0517233
-0.0519732
-0.052223
-0.0524729
-0.0527228
-0.0529726
-0.0532225
-0.0534724
-0.0537223
-0.0539721
-0.054222
-0.0544719
-0.0547218
-0.0549716
-0.0552215
-0.0554714
-0.0557213
-0.0559712
-0.056221
-0.0564709
-0.0567208
-0.0569707
-0.0572206
-0.0574705
-0.0577204
-0.0579703
-0.0582201
-0.0584701
-0.05872
-0.0589699
-0.0592198
-0.0594697
-0.0597196
-0.0599695
-0.0602193
-0.0604693
-0.0607192
-0.0609692
-0.061219
-0.061469
-0.0617188
-0.0619689
-0.0622186
-0.0624687
-0.0627185
-0.0629686
-0.0632184
-0.0634685
-0.0637182
-0.0639684
-0.0642181
-0.0644683
-0.0647179
-0.0649682
-0.0652178
-0.0654681
-0.0657176
-0.0659678
-0.0662175
-0.0664676
-0.0667175
-0.0669671
-0.0672175
-0.0674669
-0.067717
-0.0679669
-0.068217
-0.0684666
-0.0687165
-0.0689667
-0.0692165
-0.0694666
-0.0697148
-0.0699649
-0.0702139
-0.0704642
-0.0707136
-0.0709651
-0.071215
-0.0714658
-0.0717153
-0.071966
-0.0722164
-0.0724672
-0.0727178
-0.0729683
-0.0732186
-0.0734682
-0.0737188
-0.0739678
-0.0742186
-0.074468
-0.074717
-0.0749656
-0.0749924
-0.0745683
-0.074375
-0.074625
-0.074875
)
;

boundaryField
{
    inlet
    {
        type            calculated;
        value           uniform 0;
    }
    outlet
    {
        type            calculated;
        value           uniform 0;
    }
    sideWall
    {
        type            empty;
    }
}


// ************************************************************************* //
