/*--------------------------------*- C++ -*----------------------------------*\
| =========                 |                                                 |
| \\      /  F ield         | foam-extend: Open Source CFD                    |
|  \\    /   O peration     | Version:     3.2                                |
|   \\  /    A nd           | Web:         http://www.foam-extend.org         |
|    \\/     M anipulation  | For copyright notice see file Copyright         |
\*---------------------------------------------------------------------------*/
FoamFile
{
    version     2.0;
    format      ascii;
    class       areaScalarField;
    location    "50";
    object      zDimA;
}
// * * * * * * * * * * * * * * * * * * * * * * * * * * * * * * * * * * * * * //

dimensions      [0 1 0 0 0 0 0];

internalField   nonuniform List<scalar> 
300
(
0.00191667
0.00191667
0.00191667
0.00191667
0.00191667
0.00191667
0.00191667
0.00191667
0.00191667
0.00191667
0.00191667
0.00191667
0.00191667
0.00191667
0.00191667
0.00191667
0.00191667
0.00191667
0.00191667
0.00191667
0.00191667
0.00191667
0.00191667
0.00191667
0.00191667
0.00191667
0.00191667
0.00191667
0.00191667
0.00191667
0.00191667
0.00191667
0.00191667
0.00191667
0.00191667
0.00191667
0.00191667
0.00191667
0.00191667
0.00191667
0.00191667
0.00191667
0.00191667
0.00191667
0.00191667
0.00191667
0.00191667
0.0019167
0.0019167
0.0019167
0.0019167
0.0019167
0.0019167
0.0019167
0.0019167
0.0019167
0.0019167
0.0019167
0.00191673
0.00230171
0.00232608
0.00213979
0.00203616
0.00200683
0.00196682
0.00195939
0.00193967
0.00193809
0.0019269
0.00192644
0.00192298
0.00193237
0.00192058
0.00191851
0.00191125
0.00191722
0.00191396
0.00191511
0.0019146
0.00191752
0.00191247
0.00191004
0.00191155
0.00191783
0.00191675
0.00191379
0.00191489
0.00191948
0.00191788
0.00191416
0.0019153
0.00191953
0.00191806
0.00191418
0.00191542
0.00191955
0.00191815
0.00191417
0.00191546
0.00191952
0.00191815
0.00191414
0.00191545
0.0019195
0.00191815
0.00191412
0.00191544
0.00191948
0.00191814
0.00191411
0.00191543
0.00191947
0.00191813
0.0019141
0.00191542
0.00191946
0.00191812
0.00191409
0.00191542
0.00191946
0.00191812
0.00191409
0.00191541
0.00191945
0.00191811
0.00191408
0.00191541
0.00191945
0.00191811
0.00191408
0.0019154
0.00191945
0.0019181
0.00191408
0.0019154
0.00191944
0.00191809
0.00191409
0.00191539
0.00191943
0.00191815
0.00191397
0.00191548
0.00191931
0.00191818
0.00191389
0.0019117
0.00191291
0.00191382
0.00191511
0.00191563
0.0019159
0.00191593
0.00191606
0.00191619
0.0019164
0.00191649
0.00191661
0.00191663
0.00191671
0.00191667
0.00191672
0.00191667
0.00191668
0.00191669
0.00191678
0.00191674
0.00191677
0.00191673
0.00191675
0.00191672
0.00191676
0.00191673
0.00191676
0.00191673
0.00191676
0.00191671
0.00191676
0.00191673
0.00191676
0.00191672
0.00191675
0.00191673
0.00191677
0.00191672
0.00191675
0.00191671
0.00191675
0.00191672
0.00191675
0.00191671
0.00191675
0.00191672
0.00191676
0.00191672
0.00191675
0.00191671
0.00191675
0.00191672
0.00191676
0.00191672
0.00191675
0.00191672
0.00191675
0.00191671
0.00191675
0.00191672
0.00191675
0.00191671
0.00191675
0.00191673
0.00191676
0.00191672
0.00191675
0.00191672
0.00191676
0.00191672
0.00191676
0.00191673
0.00191677
0.00191673
0.00191676
0.00191674
0.00191677
0.00191674
0.00191677
0.00191674
0.00191677
0.00191678
0.00191678
0.00191676
0.00191674
0.00191679
0.00191671
0.00191687
0.0019166
0.00191704
0.00191638
0.00191735
0.00191599
0.00191782
0.0019155
0.00191834
0.00191496
0.00191892
0.00191433
0.00191959
0.00191366
0.0019203
0.00191291
0.00192113
0.00191203
0.0019221
0.00191086
0.0019235
0.00190937
0.00192502
0.00190768
0.0019265
0.00190663
0.00192717
0.00190632
0.00192665
0.00190791
0.00192463
0.00190928
0.00192421
0.00190977
0.00192316
0.0019103
0.0019238
0.00190955
0.00192446
0.00190565
0.00192834
0.00190329
0.00193107
0.00190154
0.00193511
0.00189844
0.00193679
0.00189594
0.00193921
0.00189527
0.0019401
0.00189489
0.00193978
0.00189447
0.00193862
0.00189614
0.00193564
0.00189963
0.00193292
0.00189883
0.00193206
0.00187903
0.0023022
0.00191554
0.00191679
0.00191669
)
;

boundaryField
{
    inlet
    {
        type            calculated;
        value           uniform 0;
    }
    outlet
    {
        type            calculated;
        value           uniform 0;
    }
    sideWall
    {
        type            empty;
    }
}


// ************************************************************************* //
