/*--------------------------------*- C++ -*----------------------------------*\
| =========                 |                                                 |
| \\      /  F ield         | foam-extend: Open Source CFD                    |
|  \\    /   O peration     | Version:     3.2                                |
|   \\  /    A nd           | Web:         http://www.foam-extend.org         |
|    \\/     M anipulation  | For copyright notice see file Copyright         |
\*---------------------------------------------------------------------------*/
FoamFile
{
    version     2.0;
    format      ascii;
    class       volScalarField;
    location    "37";
    object      DiSS;
}
// * * * * * * * * * * * * * * * * * * * * * * * * * * * * * * * * * * * * * //

dimensions      [0 2 -1 0 0 0 0];

internalField   nonuniform List<scalar> 
96000
(
0.000134293
0.000107227
8.92923e-05
7.99944e-05
7.69941e-05
7.58668e-05
7.5095e-05
7.43396e-05
7.35384e-05
7.27134e-05
7.19295e-05
7.11954e-05
7.05099e-05
6.98752e-05
6.92899e-05
6.87496e-05
6.82454e-05
6.77745e-05
6.73457e-05
6.70832e-05
6.68368e-05
6.65951e-05
6.63567e-05
6.61255e-05
6.59039e-05
6.56898e-05
6.54825e-05
6.52796e-05
6.50845e-05
6.48958e-05
6.47143e-05
6.45372e-05
6.43655e-05
6.41982e-05
6.40366e-05
6.38806e-05
6.37279e-05
6.35806e-05
6.34354e-05
6.32955e-05
6.31589e-05
6.30265e-05
6.28972e-05
6.27709e-05
6.26478e-05
6.25275e-05
6.24109e-05
6.22967e-05
6.2185e-05
6.20762e-05
6.1969e-05
6.18651e-05
6.17631e-05
6.16637e-05
6.15662e-05
6.14705e-05
6.13773e-05
6.12836e-05
6.11889e-05
6.10956e-05
6.1004e-05
6.09145e-05
6.08267e-05
6.07406e-05
6.06564e-05
6.05738e-05
6.04927e-05
6.04131e-05
6.03349e-05
6.02582e-05
6.0183e-05
6.01091e-05
6.00366e-05
5.99652e-05
5.98951e-05
5.98262e-05
5.97584e-05
5.96919e-05
5.96264e-05
5.9562e-05
5.94987e-05
5.94363e-05
5.9375e-05
5.93146e-05
5.92552e-05
5.91968e-05
5.91391e-05
5.90824e-05
5.90265e-05
5.89714e-05
5.89172e-05
5.88638e-05
5.88111e-05
5.87593e-05
5.8708e-05
5.86576e-05
5.86079e-05
5.85588e-05
5.85105e-05
5.84628e-05
5.84157e-05
5.83693e-05
5.83235e-05
5.82783e-05
5.82337e-05
5.81896e-05
5.81462e-05
5.81034e-05
5.8061e-05
5.80192e-05
5.79779e-05
5.79372e-05
5.78969e-05
5.78572e-05
5.7818e-05
5.77792e-05
5.77409e-05
5.7703e-05
5.76656e-05
5.76286e-05
5.7592e-05
5.75559e-05
5.75202e-05
5.74849e-05
5.74499e-05
5.74152e-05
5.73808e-05
5.73467e-05
5.7313e-05
5.72797e-05
5.72468e-05
5.72143e-05
5.71824e-05
5.7151e-05
5.71201e-05
5.70898e-05
5.70599e-05
5.70304e-05
5.70012e-05
5.69723e-05
5.69436e-05
5.69151e-05
5.68867e-05
5.68585e-05
5.68304e-05
5.68024e-05
5.67746e-05
5.6747e-05
5.67197e-05
5.66926e-05
5.66658e-05
5.66394e-05
5.66133e-05
5.65875e-05
5.65621e-05
5.6537e-05
5.65123e-05
5.64878e-05
5.64636e-05
5.64396e-05
5.64158e-05
5.63923e-05
5.6369e-05
5.63459e-05
5.6323e-05
5.63002e-05
5.62777e-05
5.62553e-05
5.62332e-05
5.62113e-05
5.61895e-05
5.6168e-05
5.61466e-05
5.61255e-05
5.61046e-05
5.60838e-05
5.60633e-05
5.60429e-05
5.60228e-05
5.60028e-05
5.5983e-05
5.59634e-05
5.59439e-05
5.59246e-05
5.59055e-05
5.58866e-05
5.58678e-05
5.58492e-05
5.58307e-05
5.58124e-05
5.57943e-05
5.57763e-05
5.57585e-05
5.57409e-05
5.57233e-05
5.5706e-05
5.56888e-05
5.56717e-05
5.56548e-05
5.5638e-05
5.56213e-05
5.56048e-05
5.55885e-05
5.55722e-05
5.55561e-05
5.55402e-05
5.55244e-05
5.55087e-05
5.54931e-05
5.54777e-05
5.54624e-05
5.54472e-05
5.54322e-05
5.54172e-05
5.54024e-05
5.53877e-05
5.53732e-05
5.53587e-05
5.53444e-05
5.53302e-05
5.53161e-05
5.53021e-05
5.52882e-05
5.52745e-05
5.52608e-05
5.52473e-05
5.52338e-05
5.52205e-05
5.52073e-05
5.51942e-05
5.51811e-05
5.51682e-05
5.51554e-05
5.51427e-05
5.51301e-05
5.51176e-05
5.51052e-05
5.50929e-05
5.50807e-05
5.50686e-05
5.50565e-05
5.50446e-05
5.50328e-05
5.5021e-05
5.50093e-05
5.49978e-05
5.49863e-05
5.49749e-05
5.49636e-05
5.49524e-05
5.49413e-05
5.49302e-05
5.49193e-05
5.49084e-05
5.48976e-05
5.48869e-05
5.48763e-05
5.48658e-05
5.48552e-05
5.48449e-05
5.48346e-05
5.48244e-05
5.48142e-05
5.48042e-05
5.47941e-05
5.47843e-05
5.47743e-05
5.47647e-05
5.47549e-05
5.47453e-05
5.47357e-05
5.47263e-05
5.47168e-05
5.47076e-05
5.46982e-05
5.46891e-05
5.46799e-05
5.46709e-05
5.46618e-05
5.4653e-05
5.4644e-05
5.46353e-05
5.46264e-05
5.46178e-05
5.4609e-05
5.46005e-05
5.45918e-05
5.45834e-05
5.45748e-05
5.45663e-05
5.45577e-05
5.45495e-05
5.45406e-05
5.45323e-05
5.4526e-05
5.45149e-05
5.45192e-05
5.44911e-05
5.45146e-05
5.44492e-05
9.29619e-05
0.00013719
0.000149935
0.000162679
0.000172816
0.000179851
0.000184419
0.000186981
0.000188203
0.000188553
0.000188556
0.000188287
0.000187855
0.000187314
0.00018672
0.000186108
0.000185462
0.000184819
0.000184173
0.000183567
0.000182961
0.00018236
0.000181768
0.000181194
0.000180635
0.000180091
0.000179559
0.000179042
0.000178543
0.000178056
0.000177585
0.000177122
0.000176675
0.000176239
0.000175817
0.000175405
0.000175003
0.000174613
0.00017423
0.000173861
0.000173498
0.000173147
0.000172802
0.000172466
0.000172137
0.000171817
0.000171505
0.000171199
0.000170901
0.000170608
0.000170322
0.000170042
0.000169769
0.000169501
0.000169238
0.000168981
0.000168729
0.000168474
0.000168215
0.000167963
0.000167715
0.000167472
0.000167234
0.000167001
0.000166772
0.000166547
0.000166327
0.000166111
0.000165898
0.000165689
0.000165485
0.000165283
0.000165086
0.000164891
0.0001647
0.000164512
0.000164328
0.000164146
0.000163968
0.000163792
0.000163619
0.000163449
0.000163281
0.000163116
0.000162954
0.000162794
0.000162636
0.000162481
0.000162328
0.000162178
0.000162029
0.000161883
0.000161739
0.000161597
0.000161457
0.000161319
0.000161183
0.000161048
0.000160916
0.000160785
0.000160656
0.000160529
0.000160404
0.00016028
0.000160157
0.000160037
0.000159918
0.0001598
0.000159684
0.000159569
0.000159456
0.000159344
0.000159234
0.000159125
0.000159017
0.000158911
0.000158805
0.000158701
0.000158599
0.000158497
0.000158397
0.000158297
0.000158199
0.000158102
0.000158006
0.000157911
0.000157817
0.000157724
0.000157632
0.000157541
0.000157451
0.000157362
0.000157275
0.000157188
0.000157103
0.000157019
0.000156936
0.000156854
0.000156773
0.000156693
0.000156613
0.000156534
0.000156456
0.000156378
0.000156301
0.000156225
0.000156149
0.000156074
0.000155999
0.000155925
0.000155852
0.00015578
0.000155709
0.000155638
0.000155568
0.000155499
0.000155431
0.000155363
0.000155296
0.00015523
0.000155165
0.0001551
0.000155035
0.000154972
0.000154909
0.000154846
0.000154784
0.000154723
0.000154662
0.000154601
0.000154541
0.000154482
0.000154424
0.000154365
0.000154308
0.000154251
0.000154194
0.000154138
0.000154083
0.000154028
0.000153973
0.000153919
0.000153865
0.000153812
0.00015376
0.000153708
0.000153656
0.000153605
0.000153554
0.000153503
0.000153454
0.000153404
0.000153355
0.000153306
0.000153258
0.00015321
0.000153163
0.000153116
0.000153069
0.000153023
0.000152977
0.000152932
0.000152887
0.000152842
0.000152798
0.000152754
0.00015271
0.000152667
0.000152624
0.000152582
0.00015254
0.000152498
0.000152457
0.000152416
0.000152375
0.000152334
0.000152294
0.000152255
0.000152215
0.000152176
0.000152137
0.000152099
0.00015206
0.000152023
0.000151985
0.000151948
0.000151911
0.000151874
0.000151838
0.000151802
0.000151766
0.00015173
0.000151695
0.00015166
0.000151625
0.000151591
0.000151557
0.000151523
0.000151489
0.000151456
0.000151423
0.00015139
0.000151357
0.000151325
0.000151293
0.000151261
0.00015123
0.000151198
0.000151167
0.000151136
0.000151106
0.000151075
0.000151045
0.000151015
0.000150986
0.000150956
0.000150927
0.000150898
0.000150869
0.000150841
0.000150812
0.000150784
0.000150756
0.000150729
0.000150701
0.000150674
0.000150647
0.00015062
0.000150593
0.000150567
0.000150541
0.000150514
0.000150489
0.000150463
0.000150438
0.000150412
0.000150388
0.000150362
0.000150339
0.000150313
0.00015029
0.000150264
0.000150242
0.000150217
0.000150195
0.000150169
0.000150148
0.000150123
0.000150102
0.000150077
0.000150057
0.000150031
0.000150011
0.000149986
0.000149965
0.000149942
0.00014992
0.000149895
0.000149871
0.000149812
7.27215e-05
0.00010317
0.000145052
0.000172421
0.000199422
0.000222697
0.000241769
0.000253407
0.000261135
0.000266909
0.000271188
0.000274374
0.000276787
0.000278667
0.000280086
0.000281127
0.000281892
0.000282457
0.00028287
0.000283117
0.000283227
0.000283241
0.000283192
0.000283092
0.000282937
0.000282736
0.000282503
0.000282248
0.00028198
0.000281691
0.000281383
0.000281063
0.000280735
0.000280406
0.000280072
0.000279731
0.000279386
0.000279039
0.000278693
0.00027835
0.000278007
0.000277663
0.000277321
0.00027698
0.000276644
0.000276311
0.000275981
0.000275652
0.000275326
0.000275003
0.000274684
0.00027437
0.00027406
0.000273752
0.000273447
0.000273146
0.000272849
0.000272555
0.000272265
0.000271979
0.000271696
0.000271417
0.000271141
0.000270868
0.0002706
0.000270334
0.000270071
0.000269812
0.000269555
0.000269302
0.000269053
0.000268806
0.000268563
0.000268323
0.000268085
0.000267851
0.000267619
0.000267391
0.000267165
0.000266943
0.000266722
0.000266505
0.00026629
0.000266078
0.000265869
0.000265662
0.000265457
0.000265256
0.000265056
0.000264859
0.000264664
0.000264472
0.000264282
0.000264094
0.000263908
0.000263724
0.000263543
0.000263364
0.000263186
0.000263011
0.000262838
0.000262667
0.000262497
0.00026233
0.000262164
0.000262
0.000261839
0.000261678
0.00026152
0.000261363
0.000261208
0.000261055
0.000260903
0.000260753
0.000260604
0.000260457
0.000260312
0.000260168
0.000260025
0.000259884
0.000259745
0.000259607
0.00025947
0.000259334
0.0002592
0.000259067
0.000258936
0.000258806
0.000258677
0.00025855
0.000258424
0.000258301
0.000258178
0.000258058
0.000257939
0.000257821
0.000257705
0.00025759
0.000257475
0.000257362
0.000257249
0.000257136
0.000257024
0.000256913
0.000256802
0.000256692
0.000256583
0.000256474
0.000256367
0.000256261
0.000256156
0.000256053
0.000255951
0.00025585
0.00025575
0.000255651
0.000255553
0.000255457
0.000255361
0.000255266
0.000255172
0.000255079
0.000254986
0.000254895
0.000254803
0.000254713
0.000254624
0.000254535
0.000254447
0.000254359
0.000254273
0.000254187
0.000254102
0.000254018
0.000253934
0.000253852
0.00025377
0.000253688
0.000253608
0.000253528
0.000253449
0.00025337
0.000253292
0.000253215
0.000253138
0.000253062
0.000252987
0.000252913
0.000252838
0.000252765
0.000252692
0.00025262
0.000252548
0.000252477
0.000252407
0.000252337
0.000252268
0.000252199
0.000252131
0.000252063
0.000251996
0.00025193
0.000251864
0.000251798
0.000251733
0.000251669
0.000251605
0.000251542
0.000251479
0.000251417
0.000251355
0.000251294
0.000251233
0.000251172
0.000251113
0.000251053
0.000250994
0.000250936
0.000250878
0.00025082
0.000250763
0.000250707
0.00025065
0.000250595
0.000250539
0.000250485
0.00025043
0.000250376
0.000250322
0.000250269
0.000250217
0.000250164
0.000250112
0.000250061
0.00025001
0.000249959
0.000249909
0.000249859
0.000249809
0.00024976
0.000249711
0.000249663
0.000249614
0.000249567
0.000249519
0.000249473
0.000249426
0.00024938
0.000249334
0.000249288
0.000249243
0.000249198
0.000249154
0.00024911
0.000249066
0.000249022
0.000248979
0.000248936
0.000248894
0.000248852
0.00024881
0.000248768
0.000248727
0.000248686
0.000248645
0.000248605
0.000248565
0.000248526
0.000248486
0.000248447
0.000248409
0.00024837
0.000248332
0.000248294
0.000248257
0.000248219
0.000248183
0.000248146
0.00024811
0.000248073
0.000248038
0.000248002
0.000247968
0.000247931
0.000247898
0.000247862
0.00024783
0.000247794
0.000247762
0.000247726
0.000247696
0.000247659
0.000247629
0.000247595
0.000247563
0.000247531
0.000247502
0.000247461
0.000247428
0.000247325
6.07194e-05
7.73585e-05
0.000105338
0.00014281
0.000173465
0.00020321
0.000231766
0.000258217
0.000280133
0.000299143
0.00031215
0.000321772
0.000329785
0.000336578
0.000342283
0.000347066
0.000351122
0.000354604
0.000357612
0.000360173
0.000362355
0.000364235
0.000365871
0.000367292
0.000368512
0.00036956
0.000370466
0.000371254
0.000371941
0.000372524
0.000373018
0.000373435
0.000373788
0.000374089
0.000374336
0.000374532
0.000374684
0.000374799
0.000374882
0.00037494
0.000374968
0.000374971
0.00037495
0.00037491
0.000374855
0.000374786
0.000374701
0.000374602
0.000374491
0.000374369
0.000374239
0.000374102
0.000373957
0.000373804
0.000373645
0.00037348
0.000373311
0.000373138
0.000372961
0.00037278
0.000372596
0.000372409
0.000372219
0.000372028
0.000371836
0.000371641
0.000371445
0.000371247
0.000371049
0.00037085
0.000370651
0.000370452
0.000370253
0.000370053
0.000369853
0.000369653
0.000369455
0.000369257
0.000369059
0.000368862
0.000368665
0.000368469
0.000368274
0.000368079
0.000367886
0.000367694
0.000367503
0.000367313
0.000367123
0.000366935
0.000366748
0.000366562
0.000366378
0.000366194
0.000366012
0.000365831
0.000365651
0.000365472
0.000365295
0.000365119
0.000364944
0.00036477
0.000364597
0.000364426
0.000364256
0.000364087
0.00036392
0.000363754
0.000363589
0.000363425
0.000363262
0.000363101
0.000362941
0.000362782
0.000362625
0.000362468
0.000362313
0.000362158
0.000362005
0.000361854
0.000361703
0.000361554
0.000361406
0.000361259
0.000361113
0.000360969
0.000360826
0.000360684
0.000360544
0.000360406
0.000360268
0.000360133
0.000359999
0.000359866
0.000359735
0.000359605
0.000359475
0.000359347
0.000359218
0.00035909
0.000358963
0.000358836
0.000358709
0.000358582
0.000358457
0.000358332
0.000358208
0.000358085
0.000357963
0.000357842
0.000357723
0.000357605
0.000357489
0.000357374
0.00035726
0.000357147
0.000357036
0.000356925
0.000356815
0.000356706
0.000356598
0.000356491
0.000356384
0.000356278
0.000356173
0.000356069
0.000355965
0.000355862
0.00035576
0.000355659
0.000355558
0.000355459
0.00035536
0.000355262
0.000355165
0.000355068
0.000354973
0.000354878
0.000354784
0.00035469
0.000354597
0.000354505
0.000354414
0.000354324
0.000354234
0.000354144
0.000354056
0.000353968
0.000353881
0.000353795
0.000353709
0.000353624
0.000353539
0.000353455
0.000353372
0.00035329
0.000353208
0.000353126
0.000353046
0.000352966
0.000352886
0.000352807
0.000352729
0.000352651
0.000352574
0.000352498
0.000352422
0.000352347
0.000352272
0.000352198
0.000352124
0.000352051
0.000351979
0.000351907
0.000351835
0.000351765
0.000351694
0.000351625
0.000351555
0.000351487
0.000351418
0.000351351
0.000351283
0.000351217
0.000351151
0.000351085
0.00035102
0.000350955
0.000350891
0.000350827
0.000350764
0.000350701
0.000350639
0.000350577
0.000350516
0.000350455
0.000350394
0.000350334
0.000350275
0.000350216
0.000350157
0.000350099
0.000350041
0.000349984
0.000349927
0.00034987
0.000349814
0.000349759
0.000349703
0.000349649
0.000349594
0.00034954
0.000349486
0.000349433
0.00034938
0.000349328
0.000349276
0.000349225
0.000349173
0.000349123
0.000349072
0.000349022
0.000348972
0.000348923
0.000348874
0.000348826
0.000348778
0.00034873
0.000348682
0.000348635
0.000348589
0.000348542
0.000348497
0.000348451
0.000348406
0.000348361
0.000348317
0.000348272
0.000348229
0.000348185
0.000348143
0.0003481
0.000348058
0.000348015
0.000347975
0.000347932
0.000347892
0.00034785
0.000347812
0.000347769
0.000347732
0.000347689
0.000347652
0.000347612
0.000347573
0.000347536
0.000347504
0.000347453
0.000347417
0.000347284
5.44164e-05
6.12925e-05
7.52523e-05
9.9501e-05
0.000133542
0.000165556
0.000192909
0.000222567
0.000251138
0.000279282
0.00030381
0.000325655
0.000344585
0.00036108
0.000373936
0.000383772
0.000392404
0.000400054
0.000406859
0.000412852
0.000418156
0.000422891
0.000427143
0.000430964
0.000434385
0.000437461
0.000440239
0.00044276
0.000445052
0.000447122
0.000448998
0.000450702
0.000452257
0.000453681
0.000454976
0.000456153
0.000457224
0.000458203
0.000459099
0.00045992
0.000460667
0.000461346
0.000461965
0.000462528
0.000463045
0.000463516
0.000463943
0.000464327
0.000464675
0.000464988
0.000465273
0.000465529
0.000465758
0.000465961
0.000466139
0.000466296
0.000466435
0.000466555
0.000466658
0.000466744
0.000466814
0.00046687
0.000466913
0.000466945
0.000466965
0.000466974
0.000466972
0.00046696
0.00046694
0.000466912
0.000466877
0.000466835
0.000466786
0.00046673
0.000466669
0.000466602
0.000466531
0.000466456
0.000466375
0.000466291
0.000466203
0.000466111
0.000466016
0.000465919
0.000465818
0.000465716
0.00046561
0.000465502
0.000465393
0.000465281
0.000465168
0.000465053
0.000464937
0.000464819
0.0004647
0.00046458
0.000464459
0.000464337
0.000464214
0.000464091
0.000463966
0.000463842
0.000463716
0.00046359
0.000463464
0.000463337
0.00046321
0.000463083
0.000462956
0.000462828
0.0004627
0.000462573
0.000462445
0.000462318
0.00046219
0.000462063
0.000461935
0.000461808
0.000461681
0.000461555
0.000461429
0.000461303
0.000461178
0.000461053
0.000460929
0.000460806
0.000460684
0.000460562
0.000460441
0.000460321
0.000460202
0.000460084
0.000459966
0.000459849
0.000459732
0.000459615
0.000459498
0.000459381
0.000459264
0.000459147
0.000459029
0.000458912
0.000458794
0.000458677
0.00045856
0.000458443
0.000458328
0.000458213
0.000458099
0.000457986
0.000457875
0.000457764
0.000457654
0.000457545
0.000457437
0.00045733
0.000457224
0.000457118
0.000457013
0.000456909
0.000456805
0.000456702
0.000456599
0.000456497
0.000456395
0.000456294
0.000456193
0.000456093
0.000455994
0.000455895
0.000455797
0.0004557
0.000455603
0.000455507
0.000455411
0.000455316
0.000455222
0.000455128
0.000455035
0.000454942
0.000454851
0.000454759
0.000454668
0.000454578
0.000454489
0.0004544
0.000454311
0.000454223
0.000454136
0.000454049
0.000453963
0.000453878
0.000453793
0.000453708
0.000453625
0.000453541
0.000453458
0.000453376
0.000453295
0.000453213
0.000453133
0.000453053
0.000452973
0.000452894
0.000452816
0.000452738
0.000452661
0.000452584
0.000452508
0.000452432
0.000452357
0.000452282
0.000452208
0.000452134
0.000452061
0.000451989
0.000451916
0.000451845
0.000451774
0.000451703
0.000451633
0.000451563
0.000451494
0.000451425
0.000451357
0.000451289
0.000451222
0.000451155
0.000451088
0.000451023
0.000450957
0.000450892
0.000450828
0.000450764
0.0004507
0.000450637
0.000450574
0.000450512
0.00045045
0.000450389
0.000450328
0.000450267
0.000450207
0.000450147
0.000450088
0.000450029
0.000449971
0.000449913
0.000449855
0.000449798
0.000449741
0.000449685
0.000449629
0.000449574
0.000449519
0.000449464
0.00044941
0.000449356
0.000449302
0.000449249
0.000449197
0.000449144
0.000449092
0.000449041
0.00044899
0.000448939
0.000448889
0.000448839
0.000448789
0.000448741
0.000448692
0.000448643
0.000448595
0.000448548
0.000448501
0.000448454
0.000448408
0.000448362
0.000448316
0.000448271
0.000448226
0.000448182
0.000448138
0.000448094
0.000448051
0.000448007
0.000447966
0.000447922
0.000447882
0.000447838
0.000447799
0.000447754
0.000447716
0.000447674
0.000447634
0.000447597
0.000447565
0.000447512
0.000447477
0.000447328
5.48767e-05
5.26072e-05
5.78098e-05
6.93613e-05
9.0202e-05
0.000120236
0.000156716
0.000180574
0.000207509
0.000235907
0.000263757
0.00029229
0.000318162
0.000342434
0.00036455
0.000383959
0.000401396
0.000416986
0.000430834
0.000441014
0.000450199
0.000458544
0.000466159
0.000473103
0.000479414
0.000485175
0.000490457
0.000495318
0.000499796
0.000503909
0.000507698
0.000511198
0.00051444
0.000517451
0.000520239
0.000522821
0.000525219
0.000527451
0.000529534
0.000531478
0.000533286
0.000534972
0.000536546
0.000538017
0.000539398
0.000540689
0.000541897
0.000543024
0.000544081
0.000545072
0.000546003
0.000546877
0.000547695
0.000548461
0.000549179
0.000549853
0.000550488
0.000551083
0.000551641
0.000552163
0.000552652
0.000553111
0.000553542
0.000553946
0.000554324
0.000554677
0.000555006
0.000555313
0.0005556
0.000555869
0.000556119
0.000556352
0.000556568
0.000556768
0.000556954
0.000557126
0.000557286
0.000557433
0.000557568
0.000557692
0.000557805
0.000557908
0.000558001
0.000558086
0.000558163
0.000558231
0.000558291
0.000558344
0.000558389
0.000558428
0.000558462
0.000558489
0.00055851
0.000558526
0.000558536
0.000558542
0.000558543
0.00055854
0.000558532
0.000558521
0.000558505
0.000558486
0.000558463
0.000558437
0.000558408
0.000558375
0.00055834
0.000558303
0.000558262
0.000558219
0.000558174
0.000558126
0.000558077
0.000558025
0.000557972
0.000557917
0.00055786
0.000557801
0.000557742
0.00055768
0.000557618
0.000557555
0.000557491
0.000557426
0.000557361
0.000557295
0.000557229
0.000557162
0.000557095
0.000557028
0.000556959
0.00055689
0.00055682
0.000556749
0.000556676
0.000556602
0.000556528
0.000556451
0.000556374
0.000556295
0.000556216
0.000556136
0.000556055
0.000555974
0.000555893
0.000555811
0.00055573
0.000555649
0.000555569
0.000555488
0.000555408
0.000555328
0.000555249
0.000555169
0.00055509
0.000555011
0.000554932
0.000554853
0.000554774
0.000554696
0.000554617
0.000554538
0.00055446
0.000554381
0.000554303
0.000554224
0.000554146
0.000554068
0.00055399
0.000553913
0.000553835
0.000553758
0.000553681
0.000553604
0.000553528
0.000553452
0.000553376
0.0005533
0.000553225
0.000553149
0.000553074
0.000553
0.000552925
0.000552851
0.000552777
0.000552704
0.000552631
0.000552558
0.000552485
0.000552413
0.000552341
0.000552269
0.000552197
0.000552126
0.000552056
0.000551985
0.000551915
0.000551845
0.000551775
0.000551706
0.000551637
0.000551569
0.000551501
0.000551433
0.000551366
0.000551299
0.000551232
0.000551166
0.0005511
0.000551034
0.000550969
0.000550904
0.000550839
0.000550775
0.000550711
0.000550647
0.000550584
0.000550521
0.000550459
0.000550397
0.000550335
0.000550274
0.000550212
0.000550152
0.000550091
0.000550031
0.000549972
0.000549913
0.000549854
0.000549795
0.000549737
0.000549679
0.000549622
0.000549564
0.000549508
0.000549451
0.000549395
0.000549339
0.000549284
0.000549229
0.000549174
0.00054912
0.000549066
0.000549013
0.000548959
0.000548906
0.000548854
0.000548802
0.00054875
0.000548698
0.000548647
0.000548596
0.000548546
0.000548496
0.000548446
0.000548396
0.000548347
0.000548299
0.00054825
0.000548202
0.000548154
0.000548107
0.00054806
0.000548014
0.000547967
0.000547921
0.000547875
0.000547831
0.000547785
0.000547741
0.000547697
0.000547653
0.000547609
0.000547567
0.000547524
0.000547482
0.000547439
0.000547398
0.000547357
0.000547316
0.000547276
0.000547236
0.000547196
0.000547157
0.000547118
0.000547079
0.000547042
0.000547002
0.000546966
0.000546926
0.000546892
0.000546851
0.000546817
0.000546779
0.000546743
0.00054671
0.000546684
0.000546635
0.000546608
0.000546452
6.84576e-05
5.0982e-05
4.93926e-05
5.29879e-05
6.25063e-05
7.97796e-05
0.000106067
0.000138379
0.000171187
0.000193404
0.000218598
0.000245748
0.000272224
0.000300169
0.000326636
0.000351802
0.000375808
0.000397787
0.000418153
0.000436659
0.000453353
0.00046846
0.000482387
0.000494373
0.000504052
0.000512984
0.000521259
0.000528947
0.000536087
0.0005427
0.000548845
0.000554569
0.000559917
0.000564921
0.000569592
0.000573959
0.000578049
0.000581889
0.0005855
0.000588895
0.000592083
0.000595083
0.000597909
0.000600576
0.000603098
0.000605477
0.000607723
0.000609845
0.000611853
0.000613755
0.000615559
0.000617269
0.000618888
0.000620424
0.00062188
0.000623264
0.000624581
0.000625832
0.000627021
0.00062815
0.000629224
0.000630245
0.000631219
0.000632147
0.00063303
0.00063387
0.000634669
0.00063543
0.000636156
0.000636849
0.000637509
0.000638138
0.000638738
0.000639309
0.000639853
0.000640374
0.00064087
0.000641344
0.000641795
0.000642226
0.000642636
0.000643027
0.000643401
0.000643758
0.000644099
0.000644423
0.000644732
0.000645027
0.000645307
0.000645575
0.000645831
0.000646074
0.000646306
0.000646526
0.000646736
0.000646935
0.000647125
0.000647306
0.000647478
0.000647641
0.000647795
0.000647941
0.00064808
0.000648211
0.000648336
0.000648454
0.000648565
0.00064867
0.000648768
0.000648861
0.000648949
0.000649031
0.000649108
0.00064918
0.000649248
0.000649311
0.00064937
0.000649425
0.000649476
0.000649523
0.000649567
0.000649608
0.000649646
0.000649681
0.000649714
0.000649744
0.000649772
0.000649798
0.000649821
0.000649841
0.000649859
0.000649873
0.000649884
0.000649892
0.000649897
0.000649898
0.000649897
0.000649893
0.000649886
0.000649877
0.000649866
0.000649853
0.000649839
0.000649824
0.000649807
0.000649789
0.000649771
0.000649751
0.000649731
0.000649709
0.000649687
0.000649663
0.000649639
0.000649614
0.000649588
0.000649561
0.000649533
0.000649504
0.000649475
0.000649444
0.000649413
0.000649382
0.000649349
0.000649316
0.000649283
0.000649248
0.000649214
0.000649178
0.000649142
0.000649106
0.000649069
0.000649032
0.000648994
0.000648956
0.000648918
0.000648879
0.00064884
0.0006488
0.00064876
0.00064872
0.00064868
0.000648639
0.000648598
0.000648557
0.000648516
0.000648474
0.000648432
0.00064839
0.000648348
0.000648306
0.000648264
0.000648221
0.000648179
0.000648136
0.000648093
0.00064805
0.000648007
0.000647964
0.000647921
0.000647878
0.000647835
0.000647792
0.000647749
0.000647706
0.000647663
0.00064762
0.000647576
0.000647534
0.000647491
0.000647448
0.000647405
0.000647362
0.000647319
0.000647277
0.000647234
0.000647191
0.000647149
0.000647107
0.000647064
0.000647022
0.00064698
0.000646938
0.000646897
0.000646855
0.000646813
0.000646772
0.000646731
0.00064669
0.000646649
0.000646608
0.000646567
0.000646527
0.000646486
0.000646446
0.000646406
0.000646366
0.000646326
0.000646287
0.000646247
0.000646208
0.000646169
0.000646131
0.000646092
0.000646053
0.000646015
0.000645977
0.000645939
0.000645902
0.000645864
0.000645827
0.00064579
0.000645753
0.000645716
0.00064568
0.000645644
0.000645608
0.000645572
0.000645536
0.000645501
0.000645466
0.000645431
0.000645396
0.000645362
0.000645328
0.000645294
0.000645261
0.000645227
0.000645194
0.000645161
0.000645128
0.000645096
0.000645064
0.000645032
0.000645001
0.000644969
0.000644939
0.000644908
0.000644878
0.000644848
0.000644819
0.000644789
0.00064476
0.000644731
0.000644703
0.000644675
0.000644647
0.00064462
0.000644592
0.000644566
0.000644537
0.000644513
0.000644483
0.000644459
0.000644431
0.000644404
0.000644381
0.000644368
0.000644328
0.000644315
0.000644163
0.000108646
6.01573e-05
4.93499e-05
4.66602e-05
4.87461e-05
5.60382e-05
7.00201e-05
9.157e-05
0.000119681
0.000152092
0.000182939
0.000204175
0.000227679
0.000253075
0.000278146
0.000304675
0.000331379
0.000356617
0.000381326
0.00040498
0.000427054
0.000447733
0.000467096
0.000484978
0.000501339
0.000516431
0.000530317
0.000543216
0.00055465
0.000564085
0.000572916
0.000581199
0.000588989
0.00059632
0.000603197
0.000609661
0.00061575
0.000621499
0.000626932
0.000632066
0.000636914
0.0006415
0.000645844
0.000649963
0.000653877
0.000657588
0.000661111
0.000664457
0.000667641
0.000670672
0.000673561
0.000676312
0.000678933
0.000681432
0.000683816
0.000686094
0.000688272
0.000690353
0.000692341
0.000694241
0.00069606
0.000697801
0.00069947
0.000701069
0.0007026
0.000704067
0.000705473
0.000706821
0.000708116
0.000709359
0.000710553
0.000711698
0.000712798
0.000713855
0.00071487
0.000715848
0.000716788
0.000717692
0.000718561
0.000719397
0.000720202
0.000720976
0.000721723
0.000722442
0.000723135
0.000723802
0.000724445
0.000725064
0.000725661
0.000726236
0.000726792
0.000727327
0.000727844
0.000728341
0.000728821
0.000729284
0.000729732
0.000730163
0.00073058
0.000730982
0.000731369
0.000731743
0.000732104
0.000732452
0.000732789
0.000733114
0.000733428
0.00073373
0.000734022
0.000734304
0.000734577
0.00073484
0.000735094
0.00073534
0.000735577
0.000735806
0.000736027
0.000736241
0.000736448
0.000736649
0.000736843
0.000737031
0.000737213
0.00073739
0.000737562
0.000737728
0.00073789
0.000738047
0.000738198
0.000738344
0.000738483
0.000738617
0.000738745
0.000738867
0.000738983
0.000739094
0.0007392
0.000739301
0.000739398
0.000739491
0.00073958
0.000739666
0.00073975
0.00073983
0.000739909
0.000739984
0.000740057
0.000740128
0.000740195
0.000740261
0.000740323
0.000740383
0.000740441
0.000740496
0.000740548
0.000740599
0.000740647
0.000740693
0.000740738
0.00074078
0.000740821
0.00074086
0.000740897
0.000740932
0.000740966
0.000740998
0.000741029
0.000741058
0.000741085
0.000741112
0.000741136
0.00074116
0.000741182
0.000741202
0.000741222
0.00074124
0.000741257
0.000741273
0.000741288
0.000741302
0.000741314
0.000741326
0.000741337
0.000741346
0.000741355
0.000741363
0.00074137
0.000741377
0.000741382
0.000741387
0.00074139
0.000741394
0.000741396
0.000741398
0.000741399
0.000741399
0.000741399
0.000741398
0.000741396
0.000741394
0.000741391
0.000741388
0.000741385
0.000741381
0.000741376
0.000741371
0.000741366
0.00074136
0.000741353
0.000741347
0.00074134
0.000741332
0.000741324
0.000741316
0.000741308
0.000741299
0.00074129
0.00074128
0.00074127
0.00074126
0.00074125
0.00074124
0.000741229
0.000741218
0.000741207
0.000741196
0.000741184
0.000741172
0.00074116
0.000741148
0.000741136
0.000741123
0.000741111
0.000741098
0.000741085
0.000741073
0.00074106
0.000741046
0.000741033
0.00074102
0.000741007
0.000740993
0.00074098
0.000740966
0.000740952
0.000740939
0.000740925
0.000740911
0.000740897
0.000740884
0.00074087
0.000740856
0.000740842
0.000740828
0.000740814
0.0007408
0.000740786
0.000740773
0.000740759
0.000740745
0.000740731
0.000740718
0.000740704
0.000740691
0.000740677
0.000740664
0.000740651
0.000740638
0.000740624
0.000740612
0.000740599
0.000740587
0.000740573
0.000740562
0.000740549
0.000740538
0.000740525
0.000740514
0.000740502
0.000740492
0.00074048
0.00074047
0.000740459
0.000740449
0.000740438
0.000740428
0.000740419
0.000740408
0.0007404
0.000740388
0.000740381
0.000740368
0.000740361
0.00074035
0.000740339
0.000740333
0.000740336
0.000740313
0.00074032
0.000740179
0.00011449
8.83522e-05
6.12479e-05
5.02565e-05
4.58093e-05
4.59544e-05
5.08533e-05
6.13753e-05
7.82057e-05
0.00010164
0.000130381
0.000162164
0.000193618
0.000213635
0.000235436
0.000258985
0.000283022
0.000307549
0.000333548
0.000358588
0.000383284
0.000407589
0.000430696
0.000452701
0.000473836
0.000493731
0.00051231
0.000529811
0.000546243
0.000561366
0.000575388
0.000588563
0.00060082
0.000612336
0.000621646
0.000630442
0.000638769
0.000646668
0.000654166
0.000661277
0.000668016
0.000674416
0.0006805
0.000686295
0.000691818
0.000697075
0.000702082
0.000706856
0.000711414
0.000715769