/*--------------------------------*- C++ -*----------------------------------*\
| =========                 |                                                 |
| \\      /  F ield         | foam-extend: Open Source CFD                    |
|  \\    /   O peration     | Version:     3.2                                |
|   \\  /    A nd           | Web:         http://www.foam-extend.org         |
|    \\/     M anipulation  | For copyright notice see file Copyright         |
\*---------------------------------------------------------------------------*/
FoamFile
{
    version     2.0;
    format      ascii;
    class       areaScalarField;
    location    "37";
    object      thetaSS1;
}
// * * * * * * * * * * * * * * * * * * * * * * * * * * * * * * * * * * * * * //

dimensions      [0 0 0 0 0 0 0];

internalField   nonuniform List<scalar> 
300
(
27.0486
21.5408
14.9436
12.2709
11.2634
10.735
10.3524
10.0176
9.70932
9.42962
9.17996
8.95678
8.75487
8.57472
8.4126
8.26523
8.13045
8.00603
7.8921
7.7882
7.69173
7.60109
7.51598
7.43606
7.36113
7.29018
7.22315
7.15939
7.09901
7.04177
6.98715
6.93508
6.88516
6.83749
6.79183
6.74818
6.70611
6.66572
6.62677
6.58924
6.55321
6.5183
6.4847
6.45207
6.42057
6.39004
6.36055
6.33194
6.30412
6.27717
6.25091
6.22545
6.2007
6.17661
6.15319
6.13032
6.10807
6.08627
6.06491
6.04406
6.0237
6.00386
5.98448
5.96554
5.94705
5.92899
5.91132
5.89404
5.87711
5.86055
5.84434
5.82846
5.81292
5.79768
5.78272
5.76809
5.75371
5.73962
5.7258
5.71223
5.69892
5.68583
5.67298
5.66037
5.64797
5.63581
5.62384
5.61207
5.60051
5.58913
5.57794
5.56694
5.55611
5.54547
5.53499
5.52466
5.51452
5.50451
5.49467
5.48497
5.47542
5.46601
5.45674
5.4476
5.4386
5.42973
5.42098
5.41237
5.40386
5.39549
5.38722
5.37907
5.37103
5.3631
5.35528
5.34757
5.33995
5.33244
5.32502
5.3177
5.31048
5.30335
5.2963
5.28935
5.28248
5.27569
5.26899
5.26235
5.25579
5.2493
5.24288
5.23652
5.23025
5.22404
5.21792
5.21187
5.20591
5.20003
5.19423
5.18851
5.18287
5.1773
5.1718
5.16636
5.16098
5.15566
5.15039
5.14516
5.13999
5.13486
5.12977
5.12474
5.11975
5.11481
5.10992
5.10508
5.1003
5.09556
5.09088
5.08625
5.08167
5.07714
5.07266
5.06823
5.06384
5.0595
5.0552
5.05095
5.04673
5.04256
5.03843
5.03434
5.03028
5.02627
5.02229
5.01836
5.01446
5.0106
5.00677
5.00298
4.99923
4.99551
4.99183
4.98819
4.98457
4.98099
4.97745
4.97394
4.97046
4.96701
4.96359
4.96021
4.95685
4.95353
4.95023
4.94697
4.94373
4.94053
4.93735
4.9342
4.93108
4.92798
4.92492
4.92188
4.91886
4.91588
4.91291
4.90998
4.90707
4.90419
4.90132
4.89849
4.89568
4.89289
4.89013
4.88739
4.88467
4.88198
4.8793
4.87666
4.87403
4.87143
4.86884
4.86629
4.86374
4.86123
4.85873
4.85626
4.85379
4.85136
4.84894
4.84655
4.84417
4.84182
4.83947
4.83716
4.83485
4.83258
4.83031
4.82808
4.82584
4.82364
4.82144
4.81928
4.81711
4.81498
4.81285
4.81076
4.80866
4.8066
4.80453
4.80251
4.80047
4.79848
4.79648
4.79451
4.79254
4.79061
4.78867
4.78676
4.78486
4.78298
4.78111
4.77925
4.77742
4.77558
4.77378
4.77197
4.77021
4.76841
4.76669
4.7649
4.76322
4.76145
4.75981
4.75804
4.75645
4.75468
4.75315
4.75137
4.74989
4.74811
4.74667
4.74489
4.7435
4.7417
4.74036
4.73855
4.73725
4.73543
4.73414
4.73233
4.73105
4.72918
4.72812
4.72593
4.72573
4.72261
4.72375
4.71767
)
;

boundaryField
{
    inlet
    {
        type            calculated;
        value           uniform 0;
    }
    outlet
    {
        type            calculated;
        value           uniform 0;
    }
    sideWall
    {
        type            empty;
    }
}


// ************************************************************************* //
