/*--------------------------------*- C++ -*----------------------------------*\
| =========                 |                                                 |
| \\      /  F ield         | foam-extend: Open Source CFD                    |
|  \\    /   O peration     | Version:     3.2                                |
|   \\  /    A nd           | Web:         http://www.foam-extend.org         |
|    \\/     M anipulation  | For copyright notice see file Copyright         |
\*---------------------------------------------------------------------------*/
FoamFile
{
    version     2.0;
    format      ascii;
    class       areaScalarField;
    location    "37";
    object      thetaSS2init;
}
// * * * * * * * * * * * * * * * * * * * * * * * * * * * * * * * * * * * * * //

dimensions      [0 0 0 0 0 0 0];

internalField   nonuniform List<scalar> 
300
(
13.5109
10.7597
7.46407
6.12875
5.62483
5.35973
5.16774
5.0002
4.84648
4.70712
4.58284
4.47173
4.37117
4.28143
4.20064
4.12719
4.06001
3.99797
3.94117
3.88935
3.84124
3.79602
3.75357
3.7137
3.67631
3.64091
3.60747
3.57566
3.54553
3.51697
3.48972
3.46374
3.43883
3.41504
3.39226
3.37048
3.34948
3.32932
3.30989
3.29116
3.27317
3.25575
3.23899
3.2227
3.20698
3.19174
3.17702
3.16273
3.14885
3.1354
3.12228
3.10957
3.09722
3.0852
3.0735
3.06209
3.05098
3.04009
3.02943
3.01902
3.00885
2.99894
2.98927
2.97981
2.97058
2.96156
2.95274
2.94411
2.93566
2.92739
2.91929
2.91136
2.9036
2.89599
2.88851
2.8812
2.87402
2.86699
2.86009
2.85331
2.84667
2.84013
2.83371
2.82741
2.82122
2.81514
2.80917
2.80329
2.79751
2.79182
2.78624
2.78074
2.77533
2.77002
2.76479
2.75962
2.75456
2.74955
2.74464
2.73979
2.73502
2.73032
2.72569
2.72112
2.71663
2.71219
2.70783
2.70352
2.69927
2.69508
2.69096
2.68688
2.68286
2.6789
2.67499
2.67113
2.66733
2.66356
2.65985
2.6562
2.65258
2.64902
2.6455
2.64202
2.63858
2.63519
2.63184
2.62853
2.62526
2.62204
2.61885
2.6157
2.61259
2.60951
2.60646
2.60346
2.60049
2.59755
2.59465
2.59179
2.58895
2.58615
2.58337
2.58063
2.57792
2.57524
2.57259
2.56997
2.56737
2.56481
2.56227
2.55976
2.55727
2.55481
2.55238
2.54997
2.54759
2.54523
2.54291
2.5406
2.53831
2.53605
2.53382
2.5316
2.52941
2.52724
2.52509
2.52296
2.52085
2.51877
2.51671
2.51466
2.51263
2.51063
2.50865
2.50668
2.50473
2.5028
2.50089
2.499
2.49713
2.49527
2.49343
2.49161
2.48981
2.48802
2.48625
2.4845
2.48276
2.48104
2.47933
2.47764
2.47596
2.4743
2.47265
2.47102
2.46941
2.4678
2.46622
2.46465
2.46308
2.46154
2.46
2.45849
2.45698
2.45549
2.45401
2.45254
2.45109
2.44965
2.44822
2.4468
2.4454
2.44401
2.44263
2.44126
2.4399
2.43856
2.43723
2.43591
2.43459
2.43329
2.432
2.43073
2.42946
2.4282
2.42694
2.42571
2.42448
2.42327
2.42206
2.42087
2.41967
2.4185
2.41733
2.41617
2.41502
2.41389
2.41275
2.41164
2.41052
2.40942
2.40832
2.40724
2.40616
2.4051
2.40403
2.40299
2.40194
2.40091
2.39988
2.39886
2.39785
2.39685
2.39585
2.39487
2.39389
2.39292
2.39196
2.39101
2.39006
2.38912
2.38818
2.38726
2.38634
2.38543
2.38453
2.38362
2.38275
2.38185
2.38099
2.3801
2.37927
2.37838
2.37757
2.37668
2.3759
2.37501
2.37425
2.37337
2.37263
2.37174
2.37104
2.37014
2.36946
2.36855
2.3679
2.36699
2.36635
2.36544
2.3648
2.36389
2.36325
2.36232
2.36179
2.3607
2.36059
2.35904
2.3596
2.35656
)
;

boundaryField
{
    inlet
    {
        type            calculated;
        value           uniform 0;
    }
    outlet
    {
        type            calculated;
        value           uniform 0;
    }
    sideWall
    {
        type            empty;
    }
}


// ************************************************************************* //
