/*--------------------------------*- C++ -*----------------------------------*\
| =========                 |                                                 |
| \\      /  F ield         | foam-extend: Open Source CFD                    |
|  \\    /   O peration     | Version:     3.2                                |
|   \\  /    A nd           | Web:         http://www.foam-extend.org         |
|    \\/     M anipulation  | For copyright notice see file Copyright         |
\*---------------------------------------------------------------------------*/
FoamFile
{
    version     2.0;
    format      ascii;
    class       areaScalarField;
    location    "37";
    object      thetaBinit;
}
// * * * * * * * * * * * * * * * * * * * * * * * * * * * * * * * * * * * * * //

dimensions      [0 0 0 0 0 0 0];

internalField   nonuniform List<scalar> 
300
(
0.990742
0.788994
0.547332
0.449415
0.412463
0.393023
0.378945
0.366659
0.355387
0.345168
0.336054
0.327907
0.320533
0.313952
0.308029
0.302642
0.297716
0.293167
0.289002
0.285202
0.281674
0.278358
0.275245
0.272321
0.26958
0.266984
0.264532
0.262199
0.25999
0.257896
0.255897
0.253992
0.252166
0.250421
0.248751
0.247153
0.245614
0.244136
0.242711
0.241337
0.240018
0.238741
0.237512
0.236317
0.235164
0.234047
0.232967
0.231919
0.230901
0.229915
0.228954
0.228021
0.227116
0.226234
0.225377
0.224539
0.223725
0.222927
0.222144
0.221382
0.220636
0.219909
0.2192
0.218507
0.217829
0.217168
0.216521
0.215888
0.215269
0.214662
0.214068
0.213487
0.212918
0.212359
0.211812
0.211275
0.210749
0.210233
0.209727
0.20923
0.208743
0.208263
0.207793
0.207331
0.206877
0.206431
0.205993
0.205562
0.205138
0.204721
0.204312
0.203909
0.203512
0.203122
0.202739
0.20236
0.201989
0.201622
0.201261
0.200906
0.200556
0.200211
0.199872
0.199537
0.199207
0.198882
0.198562
0.198246
0.197935
0.197628
0.197325
0.197026
0.196731
0.196441
0.196154
0.195871
0.195592
0.195316
0.195044
0.194776
0.194511
0.19425
0.193991
0.193736
0.193484
0.193236
0.19299
0.192748
0.192508
0.192271
0.192037
0.191806
0.191578
0.191352
0.191129
0.190909
0.190691
0.190476
0.190263
0.190053
0.189845
0.189639
0.189436
0.189234
0.189036
0.188839
0.188645
0.188453
0.188263
0.188075
0.187888
0.187704
0.187522
0.187341
0.187163
0.186987
0.186812
0.186639
0.186468
0.186299
0.186132
0.185966
0.185802
0.185639
0.185479
0.18532
0.185162
0.185006
0.184851
0.184698
0.184547
0.184397
0.184249
0.184102
0.183956
0.183812
0.183669
0.183528
0.183388
0.183249
0.183112
0.182975
0.182841
0.182707
0.182575
0.182444
0.182314
0.182185
0.182058
0.181932
0.181806
0.181683
0.181559
0.181438
0.181317
0.181197
0.181079
0.180961
0.180845
0.18073
0.180615
0.180502
0.180389
0.180278
0.180168
0.180058
0.17995
0.179842
0.179736
0.17963
0.179525
0.179421
0.179319
0.179217
0.179115
0.179015
0.178915
0.178817
0.178719
0.178622
0.178526
0.17843
0.178336
0.178242
0.178149
0.178057
0.177965
0.177875
0.177784
0.177696
0.177607
0.177519
0.177432
0.177346
0.17726
0.177175
0.177091
0.177008
0.176924
0.176843
0.176761
0.17668
0.176599
0.17652
0.176441
0.176363
0.176285
0.176208
0.176132
0.176056
0.17598
0.175906
0.175831
0.175758
0.175685
0.175613
0.175541
0.17547
0.175399
0.17533
0.17526
0.175191
0.175123
0.175055
0.174988
0.174921
0.174855
0.174788
0.174724
0.174658
0.174595
0.17453
0.174469
0.174404
0.174344
0.17428
0.174222
0.174157
0.174101
0.174036
0.173983
0.173917
0.173866
0.1738
0.17375
0.173683
0.173635
0.173568
0.173522
0.173455
0.173408
0.173342
0.173295
0.173226
0.173187
0.173107
0.1731
0.172985
0.173027
0.172804
)
;

boundaryField
{
    inlet
    {
        type            calculated;
        value           uniform 0;
    }
    outlet
    {
        type            calculated;
        value           uniform 0;
    }
    sideWall
    {
        type            empty;
    }
}


// ************************************************************************* //
