/*--------------------------------*- C++ -*----------------------------------*\
| =========                 |                                                 |
| \\      /  F ield         | foam-extend: Open Source CFD                    |
|  \\    /   O peration     | Version:     3.2                                |
|   \\  /    A nd           | Web:         http://www.foam-extend.org         |
|    \\/     M anipulation  | For copyright notice see file Copyright         |
\*---------------------------------------------------------------------------*/
FoamFile
{
    version     2.0;
    format      ascii;
    class       areaScalarField;
    location    "2000";
    object      a;
}
// * * * * * * * * * * * * * * * * * * * * * * * * * * * * * * * * * * * * * //

dimensions      [1 -1 0 0 0 0 0];

internalField   nonuniform List<scalar> 
300
(
0.000207762
0.000207762
0.000207762
0.000207762
0.000207762
0.000207762
0.000207762
0.000207762
0.000207762
0.000207762
0.000207762
0.000207762
0.000207762
0.000207762
0.000207762
0.000207762
0.000207762
0.000207762
0.000207762
0.000207762
0.000207762
0.000207762
0.000207762
0.000207762
0.000207762
0.000207762
0.000207762
0.000207762
0.000207762
0.000207762
0.000207762
0.000207762
0.000207762
0.000207762
0.000207762
0.000207762
0.000207762
0.000207762
0.000207762
0.000207762
0.000207762
0.000207762
0.000207762
0.000207762
0.000207762
0.000207762
0.000207762
0.000207762
0.000207762
0.000207762
0.000207762
0.000207762
0.000207762
0.000207762
0.000207762
0.000207762
0.000207762
0.000207762
0.000207762
0.000207627
0.000207515
0.00020753
0.000207679
0.000207695
0.000207706
0.000207717
0.000207723
0.000207733
0.000207744
0.000207762
0.000207748
0.000207748
0.000207749
0.00020775
0.000207751
0.000207751
0.000207762
0.000207762
0.000207762
0.000207762
0.000207754
0.000207755
0.000207755
0.000207756
0.000207756
0.000207756
0.000207762
0.000207762
0.000207762
0.000207762
0.000207757
0.000207757
0.000207758
0.000207758
0.000207759
0.000207759
0.000207762
0.000207762
0.000207762
0.000207762
0.000207762
0.00020776
0.00020776
0.00020776
0.000207761
0.000207761
0.000207762
0.000207762
0.000207762
0.000207762
0.000207761
0.000207761
0.000207761
0.000207761
0.000207762
0.000207762
0.000207762
0.000207762
0.000207759
0.000207762
0.000207762
0.000207759
0.000207761
0.000207749
0.000207762
0.000207762
0.000207762
0.000207762
0.000207742
0.000207755
0.000207762
0.000207762
0.000207762
0.000207748
0.000207762
0.000207762
0.000207762
0.000207762
0.000207762
0.000207762
0.000207762
0.000207762
0.000207762
0.000207762
0.000207762
0.000207762
0.000207762
0.000207762
0.000207762
0.000207762
0.000207762
0.000207762
0.000207762
0.000207762
0.000207762
0.000207762
0.000207762
0.000207762
0.000207762
0.000207762
0.000207762
0.000207762
0.000207762
0.000207762
0.000207762
0.000207762
0.000207762
0.000207762
0.000207762
0.000207762
0.000207762
0.000207762
0.000207762
0.000207762
0.000207762
0.000207762
0.000207762
0.000207762
0.000207762
0.000207762
0.000207762
0.000207762
0.000207762
0.000207762
0.000207762
0.000207762
0.000207762
0.000207762
0.000207762
0.000207762
0.000207762
0.000207762
0.000207762
0.000207762
0.000207758
0.000207762
0.000207738
0.000207752
0.000207762
0.000207762
0.000207762
0.000207762
0.000207573
0.000207601
0.000207482
0.000207508
0.000207762
0.000207762
0.000207762
0.000207762
0.00020709
0.00020709
0.000206926
0.000206917
0.000207762
0.000207762
0.000207762
0.000207762
0.000206331
0.000206267
0.000206111
0.000206041
0.000207762
0.000207762
0.000207762
0.000207762
0.000205383
0.000205255
0.000205144
0.000205005
0.000207762
0.000207762
0.000207762
0.000207762
0.000204381
0.000204181
0.000204151
0.000203941
0.000207762
0.000207762
0.000207762
0.000207762
0.000203419
0.000203159
0.000203197
0.000202956
0.000207762
0.000207762
0.000207762
0.000207762
0.000202556
0.000202253
0.00020239
0.000202095
0.000207762
0.000207762
0.000207762
0.000207762
0.000201858
0.000201505
0.00020171
0.000201386
0.000207762
0.000207762
0.000207762
0.000207762
0.000201271
0.000200859
0.000201145
0.000200767
0.000207762
0.000207762
0.000207762
0.000207762
0.000200716
0.000200263
0.000200598
0.000200177
0.000207762
0.000207762
0.000207762
0.000207762
0.000200106
0.000199638
0.000199915
0.00020032
0.000201067
0.000207762
0.000199758
0.000198906
0.000200642
0.000198263
0.000198189
0.000188285
0.000207762
0.000207762
0.000207762
0.000207762
0.000207762
0.000207762
)
;

boundaryField
{
    inlet
    {
        type            calculated;
        value           uniform 0;
    }
    outlet
    {
        type            calculated;
        value           uniform 0;
    }
    sideWall
    {
        type            empty;
    }
}


// ************************************************************************* //
