/*--------------------------------*- C++ -*----------------------------------*\
| =========                 |                                                 |
| \\      /  F ield         | foam-extend: Open Source CFD                    |
|  \\    /   O peration     | Version:     3.2                                |
|   \\  /    A nd           | Web:         http://www.foam-extend.org         |
|    \\/     M anipulation  | For copyright notice see file Copyright         |
\*---------------------------------------------------------------------------*/
FoamFile
{
    version     2.0;
    format      ascii;
    class       surfaceScalarField;
    location    "2000";
    object      AdSS1;
}
// * * * * * * * * * * * * * * * * * * * * * * * * * * * * * * * * * * * * * //

dimensions      [0 3 -1 0 0 0 0];

internalField   nonuniform List<scalar> 
4492
(
1.67231e-05
4.61316e-06
1.36793e-05
2.44247e-06
1.18042e-05
1.27389e-06
1.09296e-05
2.73372e-07
1.05786e-05
-2.50294e-07
1.04501e-05
-4.72757e-07
1.04209e-05
-5.72111e-07
1.04336e-05
-6.13932e-07
1.04658e-05
-6.33488e-07
1.05076e-05
-6.43076e-07
1.05519e-05
-6.4552e-07
1.05928e-05
-6.42208e-07
1.06353e-05
-6.43765e-07
1.06771e-05
-6.43063e-07
1.07168e-05
-6.40915e-07
1.07601e-05
-6.44602e-07
1.08035e-05
-6.44705e-07
1.0847e-05
-6.44728e-07
1.08907e-05
-6.45008e-07
1.09344e-05
-6.44873e-07
1.0978e-05
-6.44889e-07
1.10238e-05
-6.471e-07
1.10728e-05
-6.5029e-07
1.11222e-05
-6.50675e-07
1.11682e-05
-6.47243e-07
1.121e-05
-6.43022e-07
1.1247e-05
-6.3832e-07
1.12794e-05
-6.33618e-07
1.13072e-05
-6.2912e-07
1.13312e-05
-6.25211e-07
1.13518e-05
-6.21852e-07
1.13691e-05
-6.18566e-07
1.13832e-05
-6.15418e-07
1.13946e-05
-6.12623e-07
1.14039e-05
-6.10536e-07
1.14116e-05
-6.09047e-07
1.14182e-05
-6.078e-07
1.14237e-05
-6.06792e-07
1.14284e-05
-6.05946e-07
1.14324e-05
-6.05252e-07
1.14358e-05
-6.04658e-07
1.14387e-05
-6.04154e-07
1.14411e-05
-6.03731e-07
1.14432e-05
-6.03364e-07
1.1445e-05
-6.03044e-07
1.14465e-05
-6.02818e-07
1.14478e-05
-6.02546e-07
1.1449e-05
-6.02433e-07
1.145e-05
-6.02242e-07
1.14507e-05
-6.02001e-07
1.14515e-05
-6.0207e-07
1.1452e-05
-6.01778e-07
1.14526e-05
-6.01807e-07
1.14528e-05
-6.01465e-07
1.14533e-05
-6.01819e-07
1.1451e-05
-5.9894e-07
1.14413e-05
-5.91616e-07
1.12571e-05
-4.16984e-07
1.15548e-05
-8.9903e-07
1.4164e-05
-3.21043e-06
1.46982e-05
-1.13549e-06
1.27315e-05
1.36543e-06
1.27062e-05
-5.75974e-07
1.26788e-05
-5.73796e-07
1.26928e-05
-6.15289e-07
1.26819e-05
-5.90355e-07
1.26796e-05
-5.99031e-07
1.26809e-05
-6.02515e-07
1.26823e-05
-6.02681e-07
1.26832e-05
-6.022e-07
1.26845e-05
-6.02484e-07
1.26872e-05
-6.03999e-07
1.26896e-05
-6.03719e-07
1.2692e-05
-6.03655e-07
1.26941e-05
-6.03367e-07
1.26962e-05
-6.03278e-07
1.26978e-05
-6.02951e-07
1.26995e-05
-6.02937e-07
1.27008e-05
-6.02598e-07
1.27018e-05
-6.02204e-07
1.27028e-05
-6.02283e-07
1.27036e-05
-6.02107e-07
1.2704e-05
-6.01659e-07
1.27047e-05
-6.0193e-07
1.27051e-05
-6.01686e-07
1.27052e-05
-6.01393e-07
1.27056e-05
-6.01606e-07
1.27058e-05
-6.01517e-07
1.27058e-05
-6.01234e-07
1.2706e-05
-6.0146e-07
1.27058e-05
-6.01063e-07
1.2706e-05
-6.01469e-07
1.27061e-05
-6.01337e-07
1.27059e-05
-6.01135e-07
1.27061e-05
-6.01405e-07
1.27062e-05
-6.01383e-07
1.2706e-05
-6.01056e-07
1.27061e-05
-6.01389e-07
1.27059e-05
-6.00999e-07
1.2706e-05
-6.01419e-07
1.27061e-05
-6.01351e-07
1.27059e-05
-6.0109e-07
1.2706e-05
-6.0138e-07
1.27058e-05
-6.01032e-07
1.27059e-05
-6.01396e-07
1.2706e-05
-6.01378e-07
1.27058e-05
-6.01069e-07
1.2706e-05
-6.01413e-07
1.27057e-05
-6.01012e-07
1.27059e-05
-6.0142e-07
1.2706e-05
-6.01358e-07
1.27058e-05
-6.01082e-07
1.27059e-05
-6.01406e-07
1.27057e-05
-6.01025e-07
1.27059e-05
-6.01415e-07
1.27059e-05
-6.01354e-07
1.27058e-05
-6.01077e-07
1.27059e-05
-6.01449e-07
1.27056e-05
-6.00966e-07
1.27059e-05
-6.01476e-07
1.27058e-05
-6.01258e-07
1.27058e-05
-6.01259e-07
1.27058e-05
-6.01239e-07
1.27057e-05
-6.01157e-07
1.27057e-05
-6.01275e-07
1.27059e-05
-6.01444e-07
1.27058e-05
-6.0113e-07
1.27058e-05
-6.01281e-07
1.27057e-05
-6.01236e-07
1.27055e-05
-6.01044e-07
1.27062e-05
-6.01938e-07
1.27053e-05
-6.00351e-07
1.27062e-05
-6.02223e-07
1.2705e-05
-6.00034e-07
1.27063e-05
-6.0252e-07
1.27051e-05
-6.00066e-07
1.27064e-05
-6.02616e-07
1.27048e-05
-5.99634e-07
1.2707e-05
-6.03433e-07
1.27044e-05
-5.98758e-07
1.27072e-05
-6.04064e-07
1.2704e-05
-5.97987e-07
1.27075e-05
-6.04808e-07
1.27038e-05
-5.97548e-07
1.27079e-05
-6.05331e-07
1.27033e-05
-5.96685e-07
1.27082e-05
-6.06204e-07
1.27026e-05
-5.9567e-07
1.2709e-05
-6.07669e-07
1.27019e-05
-5.94166e-07
1.27096e-05
-6.08954e-07
1.27011e-05
-5.92759e-07
1.27102e-05
-6.10347e-07
1.27006e-05
-5.91674e-07
1.27108e-05
-6.11513e-07
1.26997e-05
-5.90165e-07
1.27119e-05
-6.13431e-07
1.26988e-05
-5.8819e-07
1.27127e-05
-6.15144e-07
1.26978e-05
-5.86363e-07
1.27135e-05
-6.16935e-07
1.26971e-05
-5.84922e-07
1.27143e-05
-6.18404e-07
1.26962e-05
-5.83151e-07
1.2715e-05
-6.20131e-07
1.26951e-05
-5.81376e-07
1.27162e-05
-6.22281e-07
1.26942e-05
-5.79273e-07
1.27169e-05
-6.24042e-07
1.26936e-05
-5.77891e-07
1.27177e-05
-6.25364e-07
1.26927e-05
-5.76333e-07
1.27187e-05
-6.27178e-07
1.2692e-05
-5.74595e-07
1.27192e-05
-6.28528e-07
1.26913e-05
-5.7328e-07
1.27197e-05
-6.29676e-07
1.2691e-05
-5.72586e-07
1.272e-05
-6.30304e-07
1.26905e-05
-5.71765e-07
1.27206e-05
-6.31366e-07
1.26902e-05
-5.70787e-07
1.27209e-05
-6.31974e-07
1.26898e-05
-5.70191e-07
1.27209e-05
-6.32411e-07
1.26899e-05
-5.70216e-07
1.27209e-05
-6.3229e-07
1.26898e-05
-5.70176e-07
1.27211e-05
-6.32565e-07
1.26898e-05
-5.69985e-07
1.27209e-05
-6.32364e-07
1.26903e-05
-5.7058e-07
1.27206e-05
-6.31646e-07
1.26905e-05
-5.71139e-07
1.27205e-05
-6.31297e-07
1.26909e-05
-5.71594e-07
1.27201e-05
-6.30484e-07
1.26912e-05
-5.72429e-07
1.27195e-05
-6.29562e-07
1.26921e-05
-5.73788e-07
1.27189e-05
-6.28117e-07
1.26927e-05
-5.75039e-07
1.27186e-05
-6.27136e-07
1.26933e-05
-5.76051e-07
1.27179e-05
-6.25812e-07
1.26944e-05
-5.77727e-07
1.27172e-05
-6.24059e-07
1.26951e-05
-5.79251e-07
1.27167e-05
-6.22811e-07
1.26959e-05
-5.80468e-07
1.27159e-05
-6.21293e-07
1.26969e-05
-5.82277e-07
1.27151e-05
-6.19472e-07
1.26977e-05
-5.83879e-07
1.27147e-05
-6.18176e-07
1.26985e-05
-5.85109e-07
1.27139e-05
-6.16634e-07
1.26994e-05
-5.86841e-07
1.27131e-05
-6.14869e-07
1.27002e-05
-5.88365e-07
1.27126e-05
-6.13738e-07
1.27008e-05
-5.89489e-07
1.2712e-05
-6.12402e-07
1.27017e-05
-5.91003e-07
1.27112e-05
-6.10763e-07
1.27022e-05
-5.92259e-07
1.27108e-05
-6.09838e-07
1.27026e-05
-5.93099e-07
1.27103e-05
-6.08934e-07
1.27034e-05
-5.94386e-07
1.27097e-05
-6.07559e-07
1.27039e-05
-5.95411e-07
1.27094e-05
-6.0678e-07
1.27041e-05
-5.96004e-07
1.27087e-05
-6.05817e-07
1.27047e-05
-5.97265e-07
1.27082e-05
-6.04838e-07
1.2705e-05
-5.9807e-07
1.27082e-05
-6.04402e-07
1.27052e-05
-5.98275e-07
1.27077e-05
-6.03767e-07
1.27054e-05
-5.98966e-07
1.27075e-05
-6.03382e-07
1.27055e-05
-5.99286e-07
1.27073e-05
-6.03025e-07
1.2706e-05
-5.99972e-07
1.27071e-05
-6.02362e-07
1.2706e-05
-6.00217e-07
1.27069e-05
-6.02146e-07
1.27058e-05
-6.00162e-07
1.27065e-05
-6.01999e-07
1.27059e-05
-6.00645e-07
1.27064e-05
-6.0171e-07
1.27061e-05
-6.00985e-07
1.27065e-05
-6.01699e-07
1.27063e-05
-6.00998e-07
1.27063e-05
-6.01259e-07
1.2706e-05
-6.00976e-07
1.27062e-05
-6.01477e-07
1.27058e-05
-6.00918e-07
1.27061e-05
-6.01568e-07
1.27061e-05
-6.01251e-07
1.27061e-05
-6.01232e-07
1.2706e-05
-6.01209e-07
1.2706e-05
-6.01281e-07
1.27059e-05
-6.01139e-07
1.27058e-05
-6.01129e-07
1.27058e-05
-6.01262e-07
1.2706e-05
-6.01513e-07
1.27058e-05
-6.01081e-07
1.2706e-05
-6.01451e-07
1.2706e-05
-6.01227e-07
1.27061e-05
-6.01362e-07
1.27056e-05
-6.00814e-07
1.27058e-05
-6.01448e-07
1.27057e-05
-6.01169e-07
1.27061e-05
-6.01653e-07
1.27059e-05
-6.01096e-07
1.27061e-05
-6.01442e-07
1.2706e-05
-6.01178e-07
1.2706e-05
-6.01226e-07
1.27056e-05
-6.00883e-07
1.27063e-05
-6.01947e-07
1.27055e-05
-6.0046e-07
1.27037e-05
-5.99429e-07
1.27108e-05
-6.08443e-07
1.27032e-05
-5.93649e-07
1.27029e-05
-6.00914e-07
1.27041e-05
-6.02454e-07
1.27051e-05
-6.02317e-07
1.27038e-05
-5.99984e-07
1.27075e-05
-6.04947e-07
1.27291e-05
-6.22891e-07
1.26323e-05
-5.04416e-07
1.30524e-05
-1.02137e-06
1.21637e-05
2.87426e-07
9.7365e-06
1.82593e-06
1.06086e-05
-1.47335e-06
1.10758e-05
-1.0685e-06
-7.04268e-07
2.14335e-05
5.11714e-06
2.04229e-05
3.45312e-06
1.93414e-05
2.35536e-06
1.84782e-05
1.13658e-06
1.79195e-05
3.08383e-07
1.75586e-05
-1.11824e-07
1.73232e-05
-3.36777e-07
1.71673e-05
-4.57953e-07
1.70588e-05
-5.2507e-07
1.69925e-05
-5.7675e-07
1.69572e-05
-6.10208e-07
1.69425e-05
-6.27493e-07
1.69447e-05
-6.45967e-07
1.6957e-05
-6.55339e-07
1.69787e-05
-6.62676e-07
1.70108e-05
-6.76674e-07
1.70501e-05
-6.83947e-07
1.70962e-05
-6.90852e-07
1.71475e-05
-6.96372e-07
1.72027e-05
-7.0006e-07
1.72608e-05
-7.02956e-07
1.73212e-05
-7.07527e-07
1.73836e-05
-7.12677e-07
1.74455e-05
-7.12524e-07
1.75033e-05
-7.05088e-07
1.75563e-05
-6.96006e-07
1.7604e-05
-6.86035e-07
1.76464e-05
-6.76043e-07
1.76837e-05
-6.66418e-07
1.77164e-05
-6.57926e-07
1.77452e-05
-6.50585e-07
1.777e-05
-6.43382e-07
1.7791e-05
-6.36382e-07
1.78083e-05
-6.29985e-07
1.78228e-05
-6.25043e-07
1.78352e-05
-6.21405e-07
1.78458e-05
-6.18373e-07
1.78548e-05
-6.15849e-07
1.78626e-05
-6.13714e-07
1.78692e-05
-6.11901e-07
1.78749e-05
-6.10362e-07
1.78798e-05
-6.09016e-07
1.7884e-05
-6.07912e-07
1.78875e-05
-6.06908e-07
1.78906e-05
-6.06102e-07
1.78932e-05
-6.05406e-07
1.78954e-05
-6.04768e-07
1.78973e-05
-6.04392e-07
1.7899e-05
-6.03938e-07
1.79006e-05
-6.03529e-07
1.79017e-05
-6.03184e-07
1.79026e-05
-6.02714e-07
1.79033e-05
-6.02528e-07
1.79041e-05
-6.02274e-07
1.79042e-05
-6.01883e-07
1.79031e-05
-5.9787e-07
1.78859e-05
-5.74387e-07
1.77083e-05
-2.39422e-07
1.79829e-05
-1.17363e-06
2.02721e-05
-5.49955e-06
2.12953e-05
-2.15867e-06
2.02328e-05
2.42786e-06
2.00835e-05
-4.26678e-07
1.99572e-05
-4.47497e-07
1.99115e-05
-5.69512e-07
1.98488e-05
-5.2771e-07
1.98073e-05
-5.57542e-07
1.97703e-05
-5.65455e-07
1.97412e-05
-5.73591e-07
1.97195e-05
-5.8054e-07
1.97026e-05
-5.85566e-07
1.96906e-05
-5.91984e-07
1.96814e-05
-5.94516e-07
1.96744e-05
-5.96642e-07
1.96689e-05
-5.97919e-07
1.96648e-05
-5.99188e-07
1.96617e-05
-5.99796e-07
1.96595e-05
-6.00728e-07
1.96578e-05
-6.00915e-07
1.96565e-05
-6.00912e-07
1.96558e-05
-6.01551e-07
1.96553e-05
-6.01683e-07
1.9655e-05
-6.01355e-07
1.96551e-05
-6.01959e-07
1.96551e-05
-6.01712e-07
1.96551e-05
-6.01417e-07
1.96554e-05
-6.01873e-07
1.96557e-05
-6.01801e-07
1.96558e-05
-6.01365e-07
1.96561e-05
-6.01771e-07
1.96561e-05
-6.01094e-07
1.96564e-05
-6.01782e-07
1.96567e-05
-6.01563e-07
1.96568e-05
-6.01225e-07
1.9657e-05
-6.01635e-07
1.96572e-05
-6.01601e-07
1.96572e-05
-6.01082e-07
1.96574e-05
-6.01595e-07
1.96573e-05
-6.00904e-07
1.96575e-05
-6.01565e-07
1.96576e-05
-6.01469e-07
1.96576e-05
-6.01064e-07
1.96577e-05
-6.01504e-07
1.96576e-05
-6.0089e-07
1.96576e-05
-6.01484e-07
1.96577e-05
-6.01481e-07
1.96577e-05
-6.00996e-07
1.96578e-05
-6.01516e-07
1.96576e-05
-6.00826e-07
1.96577e-05
-6.01506e-07
1.96578e-05
-6.01437e-07
1.96577e-05
-6.01007e-07
1.96578e-05
-6.01483e-07
1.96576e-05
-6.00831e-07
1.96576e-05
-6.01481e-07
1.96577e-05
-6.01434e-07
1.96576e-05
-6.01011e-07
1.96577e-05
-6.0154e-07
1.96575e-05
-6.00726e-07
1.96576e-05
-6.01619e-07
1.96576e-05
-6.01256e-07
1.96576e-05
-6.01259e-07
1.96576e-05
-6.01213e-07
1.96575e-05
-6.01065e-07
1.96575e-05
-6.01272e-07
1.96576e-05
-6.01567e-07
1.96576e-05
-6.01085e-07
1.96575e-05
-6.01182e-07
1.96576e-05
-6.01324e-07
1.96574e-05
-6.00827e-07
1.96578e-05
-6.02355e-07
1.96572e-05
-5.99799e-07
1.96579e-05
-6.02842e-07
1.9657e-05
-5.99176e-07
1.96579e-05
-6.03456e-07
1.9657e-05
-5.99113e-07
1.9658e-05
-6.03675e-07
1.96569e-05
-5.98514e-07
1.96584e-05
-6.04935e-07
1.96568e-05
-5.97124e-07
1.96587e-05
-6.0598e-07
1.96565e-05
-5.95754e-07
1.9659e-05
-6.07325e-07
1.96563e-05
-5.94907e-07
1.96593e-05
-6.08305e-07
1.96561e-05
-5.9343e-07
1.96596e-05
-6.09716e-07
1.96557e-05
-5.91804e-07
1.96601e-05
-6.1211e-07
1.96553e-05
-5.8935e-07
1.96607e-05
-6.143e-07
1.96548e-05
-5.86891e-07
1.96612e-05
-6.16778e-07
1.96545e-05
-5.84922e-07
1.96618e-05
-6.18836e-07
1.96541e-05
-5.82469e-07
1.96627e-05
-6.21983e-07
1.96537e-05
-5.79205e-07
1.96634e-05
-6.24895e-07
1.96531e-05
-5.76015e-07
1.96642e-05
-6.2804e-07
1.96527e-05
-5.73442e-07
1.9665e-05
-6.30655e-07
1.96522e-05
-5.70395e-07
1.96656e-05
-6.33539e-07
1.96517e-05
-5.67438e-07
1.96665e-05
-6.37122e-07
1.96511e-05
-5.6389e-07
1.96674e-05
-6.40294e-07
1.96508e-05
-5.61344e-07
1.96681e-05
-6.42657e-07
1.96505e-05
-5.58723e-07
1.9669e-05
-6.45674e-07
1.96502e-05
-5.55784e-07
1.96697e-05
-6.48068e-07
1.96498e-05
-5.5331e-07
1.96703e-05
-6.50199e-07
1.96497e-05
-5.51956e-07
1.96707e-05
-6.51325e-07
1.96495e-05
-5.50564e-07
1.96713e-05
-6.53133e-07
1.96494e-05
-5.48902e-07
1.96716e-05
-6.54177e-07
1.96492e-05
-5.47814e-07
1.96717e-05
-6.54931e-07
1.96493e-05
-5.47821e-07
1.96718e-05
-6.54735e-07
1.96493e-05
-5.47753e-07
1.9672e-05
-6.55197e-07
1.96494e-05
-5.47424e-07
1.96719e-05
-6.54871e-07
1.96497e-05
-5.48409e-07
1.96717e-05
-6.53644e-07
1.965e-05
-5.4935e-07
1.96717e-05
-6.53024e-07
1.96502e-05
-5.5014e-07
1.96714e-05
-6.51626e-07
1.96505e-05
-5.51512e-07
1.96709e-05
-6.50033e-07
1.9651e-05
-5.53832e-07
1.96704e-05
-6.47572e-07
1.96514e-05
-5.55973e-07
1.96701e-05
-6.45881e-07
1.96518e-05
-5.57724e-07
1.96696e-05
-6.43604e-07
1.96524e-05
-5.6059e-07
1.9669e-05
-6.40596e-07
1.96529e-05
-5.63191e-07
1.96685e-05
-6.38441e-07
1.96534e-05
-5.65294e-07
1.96679e-05
-6.35822e-07
1.9654e-05
-5.68401e-07
1.96672e-05
-6.32682e-07
1.96545e-05
-5.71129e-07
1.96668e-05
-6.30453e-07
1.96549e-05
-5.73265e-07
1.96661e-05
-6.27792e-07
1.96555e-05
-5.7626e-07
1.96654e-05
-6.24756e-07
1.96558e-05
-5.78823e-07
1.96649e-05
-6.22809e-07
1.96562e-05
-5.80765e-07
1.96643e-05
-6.20485e-07
1.96567e-05
-5.83413e-07
1.96636e-05
-6.17725e-07
1.96569e-05
-5.8552e-07
1.96632e-05
-6.16124e-07
1.96571e-05
-5.86992e-07
1.96626e-05
-6.14434e-07
1.96575e-05
-5.89275e-07
1.9662e-05
-6.1211e-07
1.96576e-05
-5.91022e-07
1.96617e-05
-6.10824e-07
1.96577e-05
-5.91986e-07
1.96611e-05
-6.09301e-07
1.9658e-05
-5.94155e-07
1.96606e-05
-6.07357e-07
1.96579e-05
-5.95416e-07
1.96603e-05
-6.06848e-07
1.96581e-05
-5.96016e-07
1.96598e-05
-6.05506e-07
1.96583e-05
-5.97443e-07
1.96597e-05
-6.04779e-07
1.96583e-05
-5.9787e-07
1.96594e-05
-6.041e-07
1.96584e-05
-5.98992e-07
1.96591e-05
-6.03091e-07
1.96583e-05
-5.99465e-07
1.96591e-05
-6.02865e-07
1.96583e-05
-5.99402e-07
1.96588e-05
-6.02463e-07
1.96583e-05
-6.00133e-07
1.96584e-05
-6.01859e-07
1.9658e-05
-6.00614e-07
1.96583e-05
-6.02009e-07
1.96583e-05
-6.00905e-07
1.96584e-05
-6.01376e-07
1.96583e-05
-6.00881e-07
1.96584e-05
-6.01595e-07
1.9658e-05
-6.00534e-07
1.9658e-05
-6.01579e-07
1.96579e-05
-6.01086e-07
1.96578e-05
-6.01205e-07
1.96579e-05
-6.01257e-07
1.96581e-05
-6.01513e-07
1.96582e-05
-6.01241e-07
1.96581e-05
-6.01008e-07
1.96579e-05
-6.01095e-07
1.96578e-05
-6.01389e-07
1.96575e-05
-6.00734e-07
1.96576e-05
-6.01612e-07
1.96578e-05
-6.0138e-07
1.96582e-05
-6.01771e-07
1.96582e-05
-6.00801e-07
1.96582e-05
-6.01508e-07
1.96579e-05
-6.00878e-07
1.96578e-05
-6.01526e-07
1.96573e-05
-6.00632e-07
1.96575e-05
-6.01648e-07
1.96578e-05
-6.01421e-07
1.96582e-05
-6.01683e-07
1.96584e-05
-6.01053e-07
1.96583e-05
-6.01871e-07
1.96577e-05
-5.99782e-07
1.96569e-05
-5.98682e-07
1.96616e-05
-6.13155e-07
1.96561e-05
-5.88084e-07
1.96554e-05
-6.00253e-07
1.96564e-05
-6.03437e-07
1.96568e-05
-6.02688e-07
1.96576e-05
-6.00782e-07
1.96616e-05
-6.09012e-07
1.96697e-05
-6.31006e-07
1.96201e-05
-4.54769e-07
1.99106e-05
-1.3119e-06
1.90593e-05
1.13871e-06
1.69874e-05
3.8979e-06
1.7298e-05
-1.784e-06
1.75e-05
-1.27046e-06
-7.70856e-07
2.26921e-05
4.36254e-06
2.29813e-05
3.16393e-06
2.28167e-05
2.51995e-06
2.23685e-05
1.58478e-06
2.18555e-05
8.21373e-07
2.14056e-05
3.38096e-07
2.10587e-05
1.01497e-08
2.07922e-05
-1.91496e-07
2.05857e-05
-3.18528e-07
2.04396e-05
-4.30678e-07
2.03397e-05
-5.10278e-07
2.02716e-05
-5.59426e-07
2.02314e-05
-6.05726e-07
2.02158e-05
-6.39824e-07
2.02188e-05
-6.65675e-07
2.0236e-05
-6.9384e-07
2.02663e-05
-7.14242e-07
2.03079e-05
-7.32402e-07
2.03574e-05
-7.45907e-07
2.04131e-05
-7.55817e-07
2.04728e-05
-7.62639e-07
2.05337e-05
-7.68413e-07
2.05948e-05
-7.73792e-07
2.06545e-05
-7.72242e-07
2.07102e-05
-7.6079e-07
2.07613e-05
-7.47016e-07
2.08073e-05
-7.32051e-07
2.08483e-05
-7.17054e-07
2.08844e-05
-7.02569e-07
2.09162e-05
-6.89724e-07
2.09442e-05
-6.78595e-07
2.09685e-05
-6.6766e-07
2.09891e-05
-6.56966e-07
2.10062e-05
-6.47096e-07
2.10206e-05
-6.39391e-07
2.10328e-05
-6.33659e-07
2.10433e-05
-6.28888e-07
2.10523e-05
-6.24866e-07
2.10601e-05
-6.21455e-07
2.10667e-05
-6.18524e-07
2.10724e-05
-6.16043e-07
2.10772e-05
-6.1386e-07
2.10814e-05
-6.12072e-07
2.10849e-05
-6.10439e-07
2.1088e-05
-6.09148e-07
2.10906e-05
-6.07981e-07
2.10928e-05
-6.06983e-07
2.10947e-05
-6.06335e-07
2.10964e-05
-6.05624e-07
2.10979e-05
-6.05045e-07
2.1099e-05
-6.04295e-07
2.10999e-05
-6.03623e-07
2.11007e-05
-6.0333e-07
2.11014e-05
-6.02945e-07
2.11019e-05
-6.02356e-07
2.11009e-05
-5.96874e-07
2.10928e-05
-5.66305e-07
2.0989e-05
-1.3558e-07
2.11822e-05
-1.36691e-06
2.28208e-05
-7.13811e-06
2.37804e-05
-3.11831e-06
2.33015e-05
2.9068e-06
2.3171e-05
-2.96202e-07
2.30682e-05
-3.44623e-07
2.30172e-05
-5.18577e-07
2.29555e-05
-4.6597e-07
2.29099e-05
-5.11944e-07
2.2871e-05
-5.26548e-07
2.28393e-05
-5.41886e-07
2.28152e-05
-5.56454e-07
2.27959e-05
-5.66302e-07
2.27813e-05
-5.7738e-07
2.27699e-05
-5.8306e-07
2.27608e-05
-5.87595e-07
2.27536e-05
-5.90705e-07
2.27479e-05
-5.93517e-07
2.27434e-05
-5.95299e-07
2.274e-05
-5.97303e-07
2.27374e-05
-5.98288e-07
2.27353e-05
-5.98825e-07
2.27338e-05
-6.0009e-07
2.27328e-05
-6.00701e-07
2.27321e-05
-6.00576e-07
2.27317e-05
-6.01571e-07
2.27315e-05
-6.01497e-07
2.27313e-05
-6.01266e-07
2.27314e-05
-6.01913e-07
2.27315e-05
-6.01962e-07
2.27316e-05
-6.01474e-07
2.27318e-05
-6.01964e-07
2.27319e-05
-6.0118e-07
2.27321e-05
-6.0201e-07
2.27323e-05
-6.01756e-07
2.27325e-05
-6.01365e-07
2.27327e-05
-6.01835e-07
2.27329e-05
-6.01788e-07
2.27329e-05
-6.01167e-07
2.27331e-05
-6.01772e-07
2.27331e-05
-6.00891e-07
2.27332e-05
-6.01677e-07
2.27333e-05
-6.01576e-07
2.27333e-05
-6.01087e-07
2.27334e-05
-6.01595e-07
2.27334e-05
-6.00826e-07
2.27334e-05
-6.01539e-07
2.27335e-05
-6.01563e-07
2.27335e-05
-6.0097e-07
2.27335e-05
-6.01575e-07
2.27334e-05
-6.00725e-07
2.27335e-05
-6.01546e-07
2.27335e-05
-6.01498e-07
2.27335e-05
-6.00973e-07
2.27335e-05
-6.01515e-07
2.27334e-05
-6.00714e-07
2.27334e-05
-6.01507e-07
2.27335e-05
-6.01498e-07
2.27335e-05
-6.0098e-07
2.27335e-05
-6.01571e-07
2.27334e-05
-6.00588e-07
2.27334e-05
-6.01693e-07
2.27334e-05
-6.0126e-07
2.27334e-05
-6.01257e-07
2.27334e-05
-6.01196e-07
2.27334e-05
-6.01007e-07
2.27334e-05
-6.01255e-07
2.27334e-05
-6.01637e-07
2.27334e-05
-6.01069e-07
2.27333e-05
-6.01093e-07
2.27334e-05
-6.0142e-07
2.27333e-05
-6.00669e-07
2.27335e-05
-6.02583e-07
2.27332e-05
-5.99513e-07
2.27335e-05
-6.03177e-07
2.27331e-05
-5.98717e-07
2.27336e-05
-6.03952e-07
2.27331e-05
-5.98599e-07
2.27337e-05
-6.04275e-07
2.27331e-05
-5.97911e-07
2.27339e-05
-6.05773e-07
2.27331e-05
-5.96282e-07
2.27341e-05
-6.07026e-07
2.27329e-05
-5.94583e-07
2.27343e-05
-6.08673e-07
2.27329e-05
-5.93521e-07
2.27345e-05
-6.09929e-07
2.27328e-05
-5.9171e-07
2.27347e-05
-6.11611e-07
2.27326e-05
-5.89754e-07
2.2735e-05
-6.14503e-07
2.27325e-05
-5.86841e-07
2.27354e-05
-6.17164e-07
2.27323e-05
-5.83826e-07
2.27357e-05
-6.20202e-07
2.27322e-05
-5.814e-07
2.27362e-05
-6.22763e-07
2.27321e-05
-5.78453e-07
2.27367e-05
-6.26558e-07
2.27321e-05
-5.74555e-07
2.27372e-05
-6.30083e-07
2.27319e-05
-5.70642e-07
2.27378e-05
-6.33916e-07
2.27318e-05
-5.67484e-07
2.27383e-05
-6.37159e-07
2.27317e-05
-5.63766e-07
2.27388e-05
-6.40624e-07
2.27315e-05
-5.60182e-07
2.27393e-05
-6.44957e-07
2.27314e-05
-5.55928e-07
2.27399e-05
-6.48855e-07
2.27314e-05
-5.52781e-07
2.27405e-05
-6.51783e-07
2.27314e-05
-5.49595e-07
2.27411e-05
-6.55414e-07
2.27314e-05
-5.46065e-07
2.27416e-05
-6.58312e-07
2.27313e-05
-5.42989e-07
2.2742e-05
-6.60917e-07
2.27313e-05
-5.41267e-07
2.27424e-05
-6.62356e-07
2.27314e-05
-5.39556e-07
2.27428e-05
-6.64531e-07
2.27314e-05
-5.37557e-07
2.27431e-05
-6.65825e-07
2.27314e-05
-5.36117e-07
2.27432e-05
-6.66793e-07
2.27314e-05
-5.36019e-07
2.27433e-05
-6.66642e-07
2.27315e-05
-5.35904e-07
2.27435e-05
-6.67194e-07
2.27316e-05
-5.355e-07
2.27435e-05
-6.66858e-07
2.27317e-05
-5.36581e-07
2.27435e-05
-6.65442e-07
2.27318e-05
-5.37672e-07
2.27435e-05
-6.64674e-07
2.2732e-05
-5.38635e-07
2.27434e-05
-6.63007e-07
2.2732e-05
-5.40184e-07
2.27431e-05
-6.61106e-07
2.27322e-05
-5.42937e-07
2.27428e-05
-6.5819e-07
2.27324e-05
-5.45514e-07
2.27426e-05
-6.56119e-07
2.27326e-05
-5.47665e-07
2.27423e-05
-6.53366e-07
2.27328e-05
-5.51089e-07
2.2742e-05
-6.49754e-07
2.2733e-05
-5.54229e-07
2.27417e-05
-6.47089e-07
2.27332e-05
-5.56831e-07
2.27413e-05
-6.43897e-07
2.27334e-05
-5.60576e-07
2.27408e-05
-6.40087e-07
2.27336e-05
-5.63883e-07
2.27405e-05
-6.37333e-07
2.27338e-05
-5.66559e-07
2.274e-05
-6.34057e-07
2.2734e-05
-5.70214e-07
2.27396e-05
-6.30361e-07
2.27341e-05
-5.73292e-07
2.27392e-05
-6.27929e-07
2.27342e-05
-5.75756e-07
2.27387e-05
-6.24994e-07
2.27344e-05
-5.79094e-07
2.27383e-05
-6.2166e-07
2.27345e-05
-5.81665e-07
2.27378e-05
-6.19497e-07
2.27347e-05
-5.83823e-07
2.27372e-05
-6.16943e-07
2.27347e-05
-5.86806e-07
2.27369e-05
-6.14291e-07
2.27346e-05
-5.8878e-07
2.27366e-05
-6.12777e-07
2.27347e-05
-5.90092e-07
2.27362e-05
-6.10837e-07
2.27347e-05
-5.92587e-07
2.27358e-05
-6.08463e-07
2.27344e-05
-5.94071e-07
2.27355e-05
-6.07918e-07
2.27344e-05
-5.94944e-07
2.27354e-05
-6.06468e-07
2.27346e-05
-5.96659e-07
2.27353e-05
-6.05494e-07
2.27344e-05
-5.96985e-07
2.27349e-05
-6.04538e-07
2.27342e-05
-5.98327e-07
2.27346e-05
-6.03493e-07
2.27343e-05
-5.99136e-07
2.27348e-05
-6.03362e-07
2.27345e-05
-5.99114e-07
2.27346e-05
-6.02628e-07
2.27342e-05
-5.99709e-07
2.27341e-05
-6.01712e-07
2.27337e-05
-6.00202e-07
2.27339e-05
-6.02231e-07
2.2734e-05
-6.01011e-07
2.27343e-05
-6.01678e-07
2.27344e-05
-6.01023e-07
2.27344e-05
-6.01561e-07
2.2734e-05
-6.00103e-07
2.27337e-05
-6.01269e-07
2.27333e-05
-6.00735e-07
2.27334e-05
-6.01263e-07
2.27336e-05
-6.01503e-07
2.27341e-05
-6.02012e-07
2.27345e-05
-6.01626e-07
2.27343e-05
-6.0082e-07
2.27339e-05
-6.00679e-07
2.27334e-05
-6.00847e-07
2.27328e-05
-6.00155e-07
2.2733e-05
-6.01833e-07
2.27335e-05
-6.01838e-07
2.27343e-05
-6.02576e-07
2.27348e-05
-6.01308e-07
2.27346e-05
-6.01352e-07
2.2734e-05
-6.00243e-07
2.27332e-05
-6.00735e-07
2.27323e-05
-5.99768e-07
2.27327e-05
-6.01989e-07
2.27334e-05
-6.02149e-07
2.27346e-05
-6.02843e-07
2.27354e-05
-6.01923e-07
2.2735e-05
-6.01449e-07
2.27343e-05
-5.99059e-07
2.27334e-05
-5.97846e-07
2.27357e-05
-6.15399e-07
2.27328e-05
-5.85174e-07
2.2732e-05
-5.99515e-07
2.27325e-05
-6.03889e-07
2.27329e-05
-6.0308e-07
2.27346e-05
-6.0247e-07
2.27362e-05
-6.10683e-07
2.27385e-05
-6.33309e-07
2.27115e-05
-4.2768e-07
2.28043e-05
-1.40474e-06
2.2324e-05
1.61897e-06
2.09447e-05
5.27719e-06
2.08042e-05
-1.6435e-06
2.08385e-05
-1.3047e-06
-7.90536e-07
2.29204e-05
3.37967e-06
2.35921e-05
2.49224e-06
2.40631e-05
2.04889e-06
2.42235e-05
1.42439e-06
2.41512e-05
8.93652e-07
2.39395e-05
5.498e-07
2.36614e-05
2.883e-07
2.33847e-05
8.5218e-08
2.31479e-05
-8.17822e-08
2.29551e-05
-2.37846e-07
2.27993e-05
-3.54508e-07
2.26769e-05
-4.36961e-07
2.25892e-05
-5.18097e-07
2.25332e-05
-5.83798e-07
2.25023e-05
-6.3473e-07
2.24939e-05
-6.85502e-07
2.25022e-05
-7.22507e-07
2.25246e-05
-7.5485e-07
2.25594e-05
-7.80692e-07
2.26026e-05
-7.99023e-07
2.26512e-05
-8.11211e-07
2.27e-05
-8.172e-07
2.27467e-05
-8.20564e-07
2.27913e-05
-8.16743e-07
2.28322e-05
-8.01711e-07
2.28692e-05
-7.84063e-07
2.29023e-05
-7.65138e-07
2.29315e-05
-7.46262e-07
2.2957e-05
-7.28094e-07
2.29794e-05
-7.12058e-07
2.2999e-05
-6.9819e-07
2.30158e-05
-6.84524e-07
2.303e-05
-6.71114e-07
2.30416e-05
-6.5875e-07
2.30514e-05
-6.4916e-07
2.30598e-05
-6.42041e-07
2.3067e-05
-6.36099e-07
2.30732e-05
-6.31048e-07
2.30785e-05
-6.26756e-07
2.3083e-05
-6.23052e-07
2.30869e-05
-6.19917e-07
2.30902e-05
-6.17165e-07
2.3093e-05
-6.14898e-07
2.30954e-05
-6.12849e-07
2.30975e-05
-6.11209e-07
2.30992e-05
-6.09735e-07
2.31007e-05
-6.08478e-07
2.31021e-05
-6.07656e-07
2.31032e-05
-6.0674e-07
2.31042e-05
-6.06031e-07
2.3105e-05
-6.05088e-07
2.31056e-05
-6.0424e-07
2.31061e-05
-6.03912e-07
2.31066e-05
-6.0336e-07
2.31071e-05
-6.02868e-07
2.31067e-05
-5.96549e-07
2.31075e-05
-5.671e-07
2.31124e-05
-1.4044e-07
2.32176e-05
-1.47214e-06
2.39574e-05
-7.87785e-06
2.45392e-05
-3.7001e-06
2.45351e-05
2.91091e-06
2.44831e-05
-2.44259e-07
2.44409e-05
-3.02449e-07
2.44126e-05
-4.90288e-07
2.43806e-05
-4.33907e-07
2.43534e-05
-4.84753e-07
2.43271e-05
-5.00291e-07
2.43055e-05
-5.20224e-07
2.42885e-05
-5.39442e-07
2.42742e-05
-5.52074e-07
2.42627e-05
-5.65851e-07
2.42533e-05
-5.73639e-07
2.42455e-05
-5.79821e-07
2.42391e-05
-5.84274e-07
2.42338e-05
-5.88226e-07
2.42294e-05
-5.90957e-07
2.42259e-05
-5.93789e-07
2.42231e-05
-5.95502e-07
2.42209e-05
-5.96552e-07
2.42191e-05
-5.9832e-07
2.42178e-05
-5.994e-07
2.42168e-05
-5.99528e-07
2.4216e-05
-6.00831e-07
2.42155e-05
-6.01022e-07
2.42152e-05
-6.00889e-07
2.4215e-05
-6.017e-07
2.42149e-05
-6.01899e-07
2.42148e-05
-6.01404e-07
2.42148e-05
-6.01985e-07
2.42149e-05
-6.01203e-07
2.42149e-05
-6.0209e-07
2.4215e-05
-6.01843e-07
2.42151e-05
-6.01462e-07
2.42152e-05
-6.01934e-07
2.42153e-05
-6.01884e-07
2.42154e-05
-6.01248e-07
2.42155e-05
-6.01873e-07
2.42155e-05
-6.00925e-07
2.42156e-05
-6.01735e-07
2.42157e-05
-6.01644e-07
2.42157e-05
-6.01126e-07
2.42157e-05
-6.01642e-07
2.42157e-05
-6.0082e-07
2.42158e-05
-6.01561e-07
2.42158e-05
-6.0161e-07
2.42158e-05
-6.00978e-07
2.42158e-05
-6.01591e-07
2.42158e-05
-6.00699e-07
2.42158e-05
-6.01553e-07
2.42158e-05
-6.01529e-07
2.42158e-05
-6.0097e-07
2.42158e-05
-6.01517e-07
2.42158e-05
-6.00678e-07
2.42158e-05
-6.01502e-07
2.42158e-05
-6.0153e-07
2.42158e-05
-6.00973e-07
2.42158e-05
-6.01568e-07
2.42158e-05
-6.00547e-07
2.42158e-05
-6.01707e-07
2.42158e-05
-6.01264e-07
2.42158e-05
-6.01254e-07
2.42158e-05
-6.0119e-07
2.42158e-05
-6.00984e-07
2.42158e-05
-6.01239e-07
2.42158e-05
-6.01659e-07
2.42158e-05
-6.0107e-07
2.42157e-05
-6.01043e-07
2.42158e-05
-6.01477e-07
2.42157e-05
-6.00591e-07
2.42158e-05
-6.0266e-07
2.42157e-05
-5.99437e-07
2.42158e-05
-6.03263e-07
2.42157e-05
-5.9861e-07
2.42158e-05
-6.04072e-07
2.42157e-05
-5.98475e-07
2.42159e-05
-6.0445e-07
2.42157e-05
-5.97768e-07
2.42159e-05
-6.06004e-07
2.42158e-05
-5.96098e-07
2.4216e-05
-6.07293e-07
2.42158e-05
-5.94335e-07
2.42161e-05
-6.09001e-07
2.42158e-05
-5.93221e-07
2.42162e-05
-6.10347e-07
2.42158e-05
-5.91321e-07
2.42163e-05
-6.12076e-07
2.42159e-05
-5.89304e-07
2.42164e-05
-6.15087e-07
2.42159e-05
-5.86305e-07
2.42166e-05
-6.17841e-07
2.42159e-05
-5.83186e-07
2.42167e-05
-6.20998e-07
2.4216e-05
-5.80662e-07
2.42169e-05
-6.23705e-07
2.42161e-05
-5.77605e-07
2.42172e-05
-6.27644e-07
2.42162e-05
-5.73601e-07
2.42174e-05
-6.31288e-07
2.42163e-05
-5.69536e-07
2.42177e-05
-6.35253e-07
2.42164e-05
-5.66256e-07
2.42179e-05
-6.3866e-07
2.42166e-05
-5.62384e-07
2.42182e-05
-6.42231e-07
2.42166e-05
-5.5866e-07
2.42184e-05
-6.46722e-07
2.42168e-05
-5.54309e-07
2.42187e-05
-6.50755e-07
2.42169e-05
-5.51045e-07
2.4219e-05
-6.53827e-07
2.42171e-05
-5.47725e-07
2.42193e-05
-6.5757e-07
2.42173e-05
-5.44116e-07
2.42195e-05
-6.60529e-07
2.42175e-05
-5.40918e-07
2.42197e-05
-6.63186e-07
2.42176e-05
-5.39126e-07
2.422e-05
-6.64708e-07
2.42177e-05
-5.37336e-07
2.42201e-05
-6.66932e-07
2.42179e-05
-5.35319e-07
2.42203e-05
-6.68233e-07
2.4218e-05
-5.33802e-07
2.42204e-05
-6.69191e-07
2.42181e-05
-5.3369e-07
2.42205e-05
-6.69065e-07
2.42181e-05
-5.33554e-07
2.42205e-05
-6.696e-07
2.42182e-05
-5.33202e-07
2.42206e-05
-6.69196e-07
2.42183e-05
-5.34317e-07
2.42206e-05
-6.67743e-07
2.42184e-05
-5.3542e-07
2.42206e-05
-6.66902e-07
2.42184e-05
-5.36489e-07
2.42205e-05
-6.65104e-07
2.42185e-05
-5.38103e-07
2.42204e-05
-6.63053e-07
2.42185e-05
-5.40983e-07
2.42203e-05
-6.60058e-07
2.42184e-05
-5.43633e-07
2.42202e-05
-6.57862e-07
2.42185e-05
-5.4598e-07
2.422e-05
-6.54894e-07
2.42185e-05
-5.49564e-07
2.42199e-05
-6.51178e-07
2.42185e-05
-5.52766e-07
2.42198e-05
-6.48385e-07
2.42184e-05
-5.55521e-07
2.42196e-05
-6.45061e-07
2.42184e-05
-5.59369e-07
2.42194e-05
-6.41125e-07
2.42183e-05
-5.62767e-07
2.42193e-05
-6.38278e-07
2.42183e-05
-5.65549e-07
2.42191e-05
-6.34927e-07
2.42182e-05
-5.69294e-07
2.4219e-05
-6.31109e-07
2.42181e-05
-5.72426e-07
2.42187e-05
-6.28562e-07
2.42179e-05
-5.74959e-07
2.42185e-05
-6.2559e-07
2.42179e-05
-5.7842e-07
2.42184e-05
-6.22222e-07
2.42178e-05
-5.81065e-07
2.42183e-05
-6.19937e-07
2.42176e-05
-5.83205e-07
2.4218e-05
-6.17274e-07
2.42174e-05
-5.86222e-07
2.42177e-05
-6.14645e-07
2.42173e-05
-5.88372e-07
2.42177e-05
-6.13151e-07
2.42174e-05
-5.89766e-07
2.42176e-05
-6.1108e-07
2.42171e-05
-5.92072e-07
2.42172e-05
-6.08578e-07
2.42167e-05
-5.93585e-07
2.4217e-05
-6.08156e-07
2.42168e-05
-5.94726e-07
2.42171e-05
-6.06833e-07
2.4217e-05
-5.96546e-07
2.42171e-05
-6.05619e-07
2.42167e-05
-5.96586e-07
2.42166e-05
-6.04427e-07
2.42162e-05
-5.97953e-07
2.42164e-05
-6.03618e-07
2.42164e-05
-5.99189e-07
2.42168e-05
-6.03716e-07
2.42169e-05
-5.99226e-07
2.42168e-05
-6.02564e-07
2.42165e-05
-5.99376e-07
2.42161e-05
-6.01319e-07
2.42157e-05
-5.99774e-07
2.42158e-05
-6.0238e-07
2.42161e-05
-6.01283e-07
2.42166e-05
-6.02158e-07
2.42169e-05
-6.01397e-07
2.42168e-05
-6.01405e-07
2.42163e-05
-5.99651e-07
2.42157e-05
-6.00668e-07
2.42152e-05
-6.00211e-07
2.42154e-05
-6.01415e-07
2.42158e-05
-6.01936e-07
2.42165e-05
-6.02761e-07
2.42172e-05
-6.02268e-07
2.42169e-05
-6.0057e-07
2.42163e-05
-6.00058e-07
2.42154e-05
-5.99931e-07
2.42146e-05
-5.99349e-07
2.42149e-05
-6.02118e-07
2.42156e-05
-6.02561e-07
2.42168e-05
-6.03751e-07
2.42177e-05
-6.0228e-07
2.42174e-05
-6.01004e-07
2.42165e-05
-5.99324e-07
2.42151e-05
-5.99321e-07
2.42138e-05
-5.98527e-07
2.42143e-05