/*--------------------------------*- C++ -*----------------------------------*\
| =========                 |                                                 |
| \\      /  F ield         | foam-extend: Open Source CFD                    |
|  \\    /   O peration     | Version:     3.2                                |
|   \\  /    A nd           | Web:         http://www.foam-extend.org         |
|    \\/     M anipulation  | For copyright notice see file Copyright         |
\*---------------------------------------------------------------------------*/
FoamFile
{
    version     2.0;
    format      ascii;
    class       surfaceScalarField;
    location    "2000";
    object      AdSS2;
}
// * * * * * * * * * * * * * * * * * * * * * * * * * * * * * * * * * * * * * //

dimensions      [0 3 -1 0 0 0 0];

internalField   nonuniform List<scalar> 
4492
(
1.67231e-05
2.84473e-06
1.36793e-05
6.74044e-07
1.18042e-05
-4.94539e-07
1.09296e-05
-1.49505e-06
1.05786e-05
-2.01872e-06
1.04501e-05
-2.24118e-06
1.04209e-05
-2.34054e-06
1.04336e-05
-2.38236e-06
1.04658e-05
-2.40192e-06
1.05076e-05
-2.4115e-06
1.05519e-05
-2.41395e-06
1.05928e-05
-2.41063e-06
1.06353e-05
-2.41219e-06
1.06771e-05
-2.41149e-06
1.07168e-05
-2.40934e-06
1.07601e-05
-2.41303e-06
1.08035e-05
-2.41313e-06
1.0847e-05
-2.41315e-06
1.08907e-05
-2.41343e-06
1.09344e-05
-2.4133e-06
1.0978e-05
-2.41332e-06
1.10238e-05
-2.41553e-06
1.10728e-05
-2.41872e-06
1.11222e-05
-2.4191e-06
1.11682e-05
-2.41567e-06
1.121e-05
-2.41145e-06
1.1247e-05
-2.40675e-06
1.12794e-05
-2.40204e-06
1.13072e-05
-2.39755e-06
1.13312e-05
-2.39364e-06
1.13518e-05
-2.39028e-06
1.13691e-05
-2.38699e-06
1.13832e-05
-2.38385e-06
1.13946e-05
-2.38105e-06
1.14039e-05
-2.37896e-06
1.14116e-05
-2.37747e-06
1.14182e-05
-2.37623e-06
1.14237e-05
-2.37522e-06
1.14284e-05
-2.37437e-06
1.14324e-05
-2.37368e-06
1.14358e-05
-2.37309e-06
1.14387e-05
-2.37258e-06
1.14411e-05
-2.37216e-06
1.14432e-05
-2.37179e-06
1.1445e-05
-2.37147e-06
1.14465e-05
-2.37124e-06
1.14478e-05
-2.37097e-06
1.1449e-05
-2.37086e-06
1.145e-05
-2.37067e-06
1.14507e-05
-2.37043e-06
1.14515e-05
-2.3705e-06
1.1452e-05
-2.3702e-06
1.14526e-05
-2.37023e-06
1.14528e-05
-2.36989e-06
1.14533e-05
-2.37025e-06
1.1451e-05
-2.36737e-06
1.14413e-05
-2.36004e-06
1.12571e-05
-2.18541e-06
1.15548e-05
-2.66746e-06
1.4164e-05
-4.97886e-06
1.46982e-05
-2.90391e-06
1.27315e-05
-4.02992e-07
1.27062e-05
-2.3444e-06
1.26788e-05
-2.34222e-06
1.26928e-05
-2.38372e-06
1.26819e-05
-2.35878e-06
1.26796e-05
-2.36746e-06
1.26809e-05
-2.37094e-06
1.26823e-05
-2.37111e-06
1.26832e-05
-2.37063e-06
1.26845e-05
-2.37091e-06
1.26872e-05
-2.37243e-06
1.26896e-05
-2.37215e-06
1.2692e-05
-2.37208e-06
1.26941e-05
-2.37179e-06
1.26962e-05
-2.3717e-06
1.26978e-05
-2.37138e-06
1.26995e-05
-2.37136e-06
1.27008e-05
-2.37102e-06
1.27018e-05
-2.37063e-06
1.27028e-05
-2.37071e-06
1.27036e-05
-2.37053e-06
1.2704e-05
-2.37009e-06
1.27047e-05
-2.37036e-06
1.27051e-05
-2.37011e-06
1.27052e-05
-2.36982e-06
1.27056e-05
-2.37003e-06
1.27058e-05
-2.36994e-06
1.27058e-05
-2.36966e-06
1.2706e-05
-2.36989e-06
1.27058e-05
-2.36949e-06
1.2706e-05
-2.3699e-06
1.27061e-05
-2.36976e-06
1.27059e-05
-2.36956e-06
1.27061e-05
-2.36983e-06
1.27062e-05
-2.36981e-06
1.2706e-05
-2.36948e-06
1.27061e-05
-2.36982e-06
1.27059e-05
-2.36943e-06
1.2706e-05
-2.36985e-06
1.27061e-05
-2.36978e-06
1.27059e-05
-2.36952e-06
1.2706e-05
-2.36981e-06
1.27058e-05
-2.36946e-06
1.27059e-05
-2.36982e-06
1.2706e-05
-2.3698e-06
1.27058e-05
-2.3695e-06
1.2706e-05
-2.36984e-06
1.27057e-05
-2.36944e-06
1.27059e-05
-2.36985e-06
1.2706e-05
-2.36978e-06
1.27058e-05
-2.36951e-06
1.27059e-05
-2.36983e-06
1.27057e-05
-2.36945e-06
1.27059e-05
-2.36984e-06
1.27059e-05
-2.36978e-06
1.27058e-05
-2.3695e-06
1.27059e-05
-2.36988e-06
1.27056e-05
-2.36939e-06
1.27059e-05
-2.3699e-06
1.27058e-05
-2.36968e-06
1.27058e-05
-2.36969e-06
1.27058e-05
-2.36967e-06
1.27057e-05
-2.36958e-06
1.27057e-05
-2.3697e-06
1.27059e-05
-2.36987e-06
1.27058e-05
-2.36956e-06
1.27058e-05
-2.36971e-06
1.27057e-05
-2.36966e-06
1.27055e-05
-2.36947e-06
1.27062e-05
-2.37036e-06
1.27053e-05
-2.36878e-06
1.27062e-05
-2.37065e-06
1.2705e-05
-2.36846e-06
1.27063e-05
-2.37095e-06
1.27051e-05
-2.36849e-06
1.27064e-05
-2.37104e-06
1.27048e-05
-2.36806e-06
1.2707e-05
-2.37186e-06
1.27044e-05
-2.36718e-06
1.27072e-05
-2.37249e-06
1.2704e-05
-2.36641e-06
1.27075e-05
-2.37323e-06
1.27038e-05
-2.36597e-06
1.27079e-05
-2.37376e-06
1.27033e-05
-2.36511e-06
1.27082e-05
-2.37463e-06
1.27026e-05
-2.3641e-06
1.2709e-05
-2.3761e-06
1.27019e-05
-2.36259e-06
1.27096e-05
-2.37738e-06
1.27011e-05
-2.36119e-06
1.27102e-05
-2.37877e-06
1.27006e-05
-2.3601e-06
1.27108e-05
-2.37994e-06
1.26997e-05
-2.35859e-06
1.27119e-05
-2.38186e-06
1.26988e-05
-2.35662e-06
1.27127e-05
-2.38357e-06
1.26978e-05
-2.35479e-06
1.27135e-05
-2.38536e-06
1.26971e-05
-2.35335e-06
1.27143e-05
-2.38683e-06
1.26962e-05
-2.35158e-06
1.2715e-05
-2.38856e-06
1.26951e-05
-2.3498e-06
1.27162e-05
-2.39071e-06
1.26942e-05
-2.3477e-06
1.27169e-05
-2.39247e-06
1.26936e-05
-2.34632e-06
1.27177e-05
-2.39379e-06
1.26927e-05
-2.34476e-06
1.27187e-05
-2.3956e-06
1.2692e-05
-2.34302e-06
1.27192e-05
-2.39696e-06
1.26913e-05
-2.34171e-06
1.27197e-05
-2.3981e-06
1.2691e-05
-2.34101e-06
1.272e-05
-2.39873e-06
1.26905e-05
-2.34019e-06
1.27206e-05
-2.39979e-06
1.26902e-05
-2.33921e-06
1.27209e-05
-2.4004e-06
1.26898e-05
-2.33862e-06
1.27209e-05
-2.40084e-06
1.26899e-05
-2.33864e-06
1.27209e-05
-2.40072e-06
1.26898e-05
-2.3386e-06
1.27211e-05
-2.40099e-06
1.26898e-05
-2.33841e-06
1.27209e-05
-2.40079e-06
1.26903e-05
-2.33901e-06
1.27206e-05
-2.40007e-06
1.26905e-05
-2.33957e-06
1.27205e-05
-2.39972e-06
1.26909e-05
-2.34002e-06
1.27201e-05
-2.39891e-06
1.26912e-05
-2.34086e-06
1.27195e-05
-2.39799e-06
1.26921e-05
-2.34221e-06
1.27189e-05
-2.39654e-06
1.26927e-05
-2.34347e-06
1.27186e-05
-2.39556e-06
1.26933e-05
-2.34448e-06
1.27179e-05
-2.39424e-06
1.26944e-05
-2.34615e-06
1.27172e-05
-2.39249e-06
1.26951e-05
-2.34768e-06
1.27167e-05
-2.39124e-06
1.26959e-05
-2.34889e-06
1.27159e-05
-2.38972e-06
1.26969e-05
-2.3507e-06
1.27151e-05
-2.3879e-06
1.26977e-05
-2.35231e-06
1.27147e-05
-2.3866e-06
1.26985e-05
-2.35354e-06
1.27139e-05
-2.38506e-06
1.26994e-05
-2.35527e-06
1.27131e-05
-2.3833e-06
1.27002e-05
-2.35679e-06
1.27126e-05
-2.38216e-06
1.27008e-05
-2.35792e-06
1.2712e-05
-2.38083e-06
1.27017e-05
-2.35943e-06
1.27112e-05
-2.37919e-06
1.27022e-05
-2.36069e-06
1.27108e-05
-2.37827e-06
1.27026e-05
-2.36153e-06
1.27103e-05
-2.37736e-06
1.27034e-05
-2.36281e-06
1.27097e-05
-2.37599e-06
1.27039e-05
-2.36384e-06
1.27094e-05
-2.37521e-06
1.27041e-05
-2.36443e-06
1.27087e-05
-2.37424e-06
1.27047e-05
-2.36569e-06
1.27082e-05
-2.37326e-06
1.2705e-05
-2.3665e-06
1.27082e-05
-2.37283e-06
1.27052e-05
-2.3667e-06
1.27077e-05
-2.37219e-06
1.27054e-05
-2.36739e-06
1.27075e-05
-2.37181e-06
1.27055e-05
-2.36771e-06
1.27073e-05
-2.37145e-06
1.2706e-05
-2.3684e-06
1.27071e-05
-2.37079e-06
1.2706e-05
-2.36864e-06
1.27069e-05
-2.37057e-06
1.27058e-05
-2.36859e-06
1.27065e-05
-2.37043e-06
1.27059e-05
-2.36907e-06
1.27064e-05
-2.37014e-06
1.27061e-05
-2.36941e-06
1.27065e-05
-2.37013e-06
1.27063e-05
-2.36942e-06
1.27063e-05
-2.36969e-06
1.2706e-05
-2.3694e-06
1.27062e-05
-2.3699e-06
1.27058e-05
-2.36934e-06
1.27061e-05
-2.36999e-06
1.27061e-05
-2.36968e-06
1.27061e-05
-2.36966e-06
1.2706e-05
-2.36964e-06
1.2706e-05
-2.36971e-06
1.27059e-05
-2.36957e-06
1.27058e-05
-2.36956e-06
1.27058e-05
-2.36969e-06
1.2706e-05
-2.36994e-06
1.27058e-05
-2.36951e-06
1.2706e-05
-2.36988e-06
1.2706e-05
-2.36965e-06
1.27061e-05
-2.36979e-06
1.27056e-05
-2.36924e-06
1.27058e-05
-2.36987e-06
1.27057e-05
-2.3696e-06
1.27061e-05
-2.37008e-06
1.27059e-05
-2.36952e-06
1.27061e-05
-2.36987e-06
1.2706e-05
-2.3696e-06
1.2706e-05
-2.36965e-06
1.27056e-05
-2.36931e-06
1.27063e-05
-2.37037e-06
1.27055e-05
-2.36889e-06
1.27037e-05
-2.36786e-06
1.27108e-05
-2.37687e-06
1.27032e-05
-2.36208e-06
1.27029e-05
-2.36934e-06
1.27041e-05
-2.37088e-06
1.27051e-05
-2.37074e-06
1.27038e-05
-2.36841e-06
1.27075e-05
-2.37337e-06
1.27291e-05
-2.39132e-06
1.26323e-05
-2.27284e-06
1.30524e-05
-2.78979e-06
1.21637e-05
-1.481e-06
9.7365e-06
5.74992e-08
1.06086e-05
-3.24178e-06
1.10758e-05
-2.83692e-06
-2.47269e-06
2.14335e-05
3.34872e-06
2.04229e-05
1.68469e-06
1.93414e-05
5.86932e-07
1.84782e-05
-6.31847e-07
1.79195e-05
-1.46004e-06
1.75586e-05
-1.88025e-06
1.73232e-05
-2.1052e-06
1.71673e-05
-2.22638e-06
1.70588e-05
-2.2935e-06
1.69925e-05
-2.34518e-06
1.69572e-05
-2.37864e-06
1.69425e-05
-2.39592e-06
1.69447e-05
-2.41439e-06
1.6957e-05
-2.42377e-06
1.69787e-05
-2.4311e-06
1.70108e-05
-2.4451e-06
1.70501e-05
-2.45237e-06
1.70962e-05
-2.45928e-06
1.71475e-05
-2.4648e-06
1.72027e-05
-2.46849e-06
1.72608e-05
-2.47138e-06
1.73212e-05
-2.47595e-06
1.73836e-05
-2.4811e-06
1.74455e-05
-2.48095e-06
1.75033e-05
-2.47352e-06
1.75563e-05
-2.46443e-06
1.7604e-05
-2.45446e-06
1.76464e-05
-2.44447e-06
1.76837e-05
-2.43484e-06
1.77164e-05
-2.42635e-06
1.77452e-05
-2.41901e-06
1.777e-05
-2.41181e-06
1.7791e-05
-2.40481e-06
1.78083e-05
-2.39841e-06
1.78228e-05
-2.39347e-06
1.78352e-05
-2.38983e-06
1.78458e-05
-2.3868e-06
1.78548e-05
-2.38428e-06
1.78626e-05
-2.38214e-06
1.78692e-05
-2.38033e-06
1.78749e-05
-2.37879e-06
1.78798e-05
-2.37744e-06
1.7884e-05
-2.37634e-06
1.78875e-05
-2.37533e-06
1.78906e-05
-2.37453e-06
1.78932e-05
-2.37383e-06
1.78954e-05
-2.37319e-06
1.78973e-05
-2.37282e-06
1.7899e-05
-2.37236e-06
1.79006e-05
-2.37196e-06
1.79017e-05
-2.37161e-06
1.79026e-05
-2.37114e-06
1.79033e-05
-2.37095e-06
1.79041e-05
-2.3707e-06
1.79042e-05
-2.37031e-06
1.79031e-05
-2.3663e-06
1.78859e-05
-2.34281e-06
1.77083e-05
-2.00785e-06
1.79829e-05
-2.94206e-06
2.02721e-05
-7.26798e-06
2.12953e-05
-3.92709e-06
2.02328e-05
6.59436e-07
2.00835e-05
-2.1951e-06
1.99572e-05
-2.21592e-06
1.99115e-05
-2.33794e-06
1.98488e-05
-2.29614e-06
1.98073e-05
-2.32597e-06
1.97703e-05
-2.33388e-06
1.97412e-05
-2.34202e-06
1.97195e-05
-2.34897e-06
1.97026e-05
-2.35399e-06
1.96906e-05
-2.36041e-06
1.96814e-05
-2.36294e-06
1.96744e-05
-2.36507e-06
1.96689e-05
-2.36635e-06
1.96648e-05
-2.36762e-06
1.96617e-05
-2.36822e-06
1.96595e-05
-2.36915e-06
1.96578e-05
-2.36934e-06
1.96565e-05
-2.36934e-06
1.96558e-05
-2.36998e-06
1.96553e-05
-2.37011e-06
1.9655e-05
-2.36978e-06
1.96551e-05
-2.37039e-06
1.96551e-05
-2.37014e-06
1.96551e-05
-2.36984e-06
1.96554e-05
-2.3703e-06
1.96557e-05
-2.37023e-06
1.96558e-05
-2.36979e-06
1.96561e-05
-2.3702e-06
1.96561e-05
-2.36952e-06
1.96564e-05
-2.37021e-06
1.96567e-05
-2.36999e-06
1.96568e-05
-2.36965e-06
1.9657e-05
-2.37006e-06
1.96572e-05
-2.37003e-06
1.96572e-05
-2.36951e-06
1.96574e-05
-2.37002e-06
1.96573e-05
-2.36933e-06
1.96575e-05
-2.36999e-06
1.96576e-05
-2.3699e-06
1.96576e-05
-2.36949e-06
1.96577e-05
-2.36993e-06
1.96576e-05
-2.36932e-06
1.96576e-05
-2.36991e-06
1.96577e-05
-2.36991e-06
1.96577e-05
-2.36942e-06
1.96578e-05
-2.36994e-06
1.96576e-05
-2.36925e-06
1.96577e-05
-2.36993e-06
1.96578e-05
-2.36986e-06
1.96577e-05
-2.36943e-06
1.96578e-05
-2.36991e-06
1.96576e-05
-2.36926e-06
1.96576e-05
-2.36991e-06
1.96577e-05
-2.36986e-06
1.96576e-05
-2.36944e-06
1.96577e-05
-2.36997e-06
1.96575e-05
-2.36915e-06
1.96576e-05
-2.37005e-06
1.96576e-05
-2.36968e-06
1.96576e-05
-2.36969e-06
1.96576e-05
-2.36964e-06
1.96575e-05
-2.36949e-06
1.96575e-05
-2.3697e-06
1.96576e-05
-2.36999e-06
1.96576e-05
-2.36951e-06
1.96575e-05
-2.36961e-06
1.96576e-05
-2.36975e-06
1.96574e-05
-2.36925e-06
1.96578e-05
-2.37078e-06
1.96572e-05
-2.36823e-06
1.96579e-05
-2.37127e-06
1.9657e-05
-2.3676e-06
1.96579e-05
-2.37188e-06
1.9657e-05
-2.36754e-06
1.9658e-05
-2.3721e-06
1.96569e-05
-2.36694e-06
1.96584e-05
-2.37336e-06
1.96568e-05
-2.36555e-06
1.96587e-05
-2.37441e-06
1.96565e-05
-2.36418e-06
1.9659e-05
-2.37575e-06
1.96563e-05
-2.36333e-06
1.96593e-05
-2.37673e-06
1.96561e-05
-2.36186e-06
1.96596e-05
-2.37814e-06
1.96557e-05
-2.36023e-06
1.96601e-05
-2.38054e-06
1.96553e-05
-2.35778e-06
1.96607e-05
-2.38273e-06
1.96548e-05
-2.35532e-06
1.96612e-05
-2.3852e-06
1.96545e-05
-2.35335e-06
1.96618e-05
-2.38726e-06
1.96541e-05
-2.3509e-06
1.96627e-05
-2.39041e-06
1.96537e-05
-2.34763e-06
1.96634e-05
-2.39332e-06
1.96531e-05
-2.34444e-06
1.96642e-05
-2.39647e-06
1.96527e-05
-2.34187e-06
1.9665e-05
-2.39908e-06
1.96522e-05
-2.33882e-06
1.96656e-05
-2.40197e-06
1.96517e-05
-2.33586e-06
1.96665e-05
-2.40555e-06
1.96511e-05
-2.33232e-06
1.96674e-05
-2.40872e-06
1.96508e-05
-2.32977e-06
1.96681e-05
-2.41108e-06
1.96505e-05
-2.32715e-06
1.9669e-05
-2.4141e-06
1.96502e-05
-2.32421e-06
1.96697e-05
-2.41649e-06
1.96498e-05
-2.32174e-06
1.96703e-05
-2.41863e-06
1.96497e-05
-2.32038e-06
1.96707e-05
-2.41975e-06
1.96495e-05
-2.31899e-06
1.96713e-05
-2.42156e-06
1.96494e-05
-2.31733e-06
1.96716e-05
-2.4226e-06
1.96492e-05
-2.31624e-06
1.96717e-05
-2.42336e-06
1.96493e-05
-2.31625e-06
1.96718e-05
-2.42316e-06
1.96493e-05
-2.31618e-06
1.9672e-05
-2.42362e-06
1.96494e-05
-2.31585e-06
1.96719e-05
-2.4233e-06
1.96497e-05
-2.31684e-06
1.96717e-05
-2.42207e-06
1.965e-05
-2.31778e-06
1.96717e-05
-2.42145e-06
1.96502e-05
-2.31857e-06
1.96714e-05
-2.42005e-06
1.96505e-05
-2.31994e-06
1.96709e-05
-2.41846e-06
1.9651e-05
-2.32226e-06
1.96704e-05
-2.416e-06
1.96514e-05
-2.3244e-06
1.96701e-05
-2.41431e-06
1.96518e-05
-2.32615e-06
1.96696e-05
-2.41203e-06
1.96524e-05
-2.32902e-06
1.9669e-05
-2.40902e-06
1.96529e-05
-2.33162e-06
1.96685e-05
-2.40687e-06
1.96534e-05
-2.33372e-06
1.96679e-05
-2.40425e-06
1.9654e-05
-2.33683e-06
1.96672e-05
-2.40111e-06
1.96545e-05
-2.33956e-06
1.96668e-05
-2.39888e-06
1.96549e-05
-2.34169e-06
1.96661e-05
-2.39622e-06
1.96555e-05
-2.34469e-06
1.96654e-05
-2.39318e-06
1.96558e-05
-2.34725e-06
1.96649e-05
-2.39124e-06
1.96562e-05
-2.34919e-06
1.96643e-05
-2.38891e-06
1.96567e-05
-2.35184e-06
1.96636e-05
-2.38615e-06
1.96569e-05
-2.35395e-06
1.96632e-05
-2.38455e-06
1.96571e-05
-2.35542e-06
1.96626e-05
-2.38286e-06
1.96575e-05
-2.3577e-06
1.9662e-05
-2.38054e-06
1.96576e-05
-2.35945e-06
1.96617e-05
-2.37925e-06
1.96577e-05
-2.36041e-06
1.96611e-05
-2.37773e-06
1.9658e-05
-2.36258e-06
1.96606e-05
-2.37578e-06
1.96579e-05
-2.36384e-06
1.96603e-05
-2.37527e-06
1.96581e-05
-2.36444e-06
1.96598e-05
-2.37393e-06
1.96583e-05
-2.36587e-06
1.96597e-05
-2.37321e-06
1.96583e-05
-2.3663e-06
1.96594e-05
-2.37253e-06
1.96584e-05
-2.36742e-06
1.96591e-05
-2.37152e-06
1.96583e-05
-2.36789e-06
1.96591e-05
-2.37129e-06
1.96583e-05
-2.36783e-06
1.96588e-05
-2.37089e-06
1.96583e-05
-2.36856e-06
1.96584e-05
-2.37029e-06
1.9658e-05
-2.36904e-06
1.96583e-05
-2.37044e-06
1.96583e-05
-2.36933e-06
1.96584e-05
-2.3698e-06
1.96583e-05
-2.36931e-06
1.96584e-05
-2.37002e-06
1.9658e-05
-2.36896e-06
1.9658e-05
-2.37001e-06
1.96579e-05
-2.36951e-06
1.96578e-05
-2.36963e-06
1.96579e-05
-2.36968e-06
1.96581e-05
-2.36994e-06
1.96582e-05
-2.36967e-06
1.96581e-05
-2.36943e-06
1.96579e-05
-2.36952e-06
1.96578e-05
-2.36982e-06
1.96575e-05
-2.36916e-06
1.96576e-05
-2.37004e-06
1.96578e-05
-2.36981e-06
1.96582e-05
-2.3702e-06
1.96582e-05
-2.36923e-06
1.96582e-05
-2.36993e-06
1.96579e-05
-2.3693e-06
1.96578e-05
-2.36995e-06
1.96573e-05
-2.36906e-06
1.96575e-05
-2.37007e-06
1.96578e-05
-2.36985e-06
1.96582e-05
-2.37011e-06
1.96584e-05
-2.36948e-06
1.96583e-05
-2.3703e-06
1.96577e-05
-2.36821e-06
1.96569e-05
-2.36711e-06
1.96616e-05
-2.38158e-06
1.96561e-05
-2.35651e-06
1.96554e-05
-2.36868e-06
1.96564e-05
-2.37186e-06
1.96568e-05
-2.37111e-06
1.96576e-05
-2.36921e-06
1.96616e-05
-2.37744e-06
1.96697e-05
-2.39943e-06
1.96201e-05
-2.2232e-06
1.99106e-05
-3.08032e-06
1.90593e-05
-6.29718e-07
1.69874e-05
2.12947e-06
1.7298e-05
-3.55243e-06
1.75e-05
-3.03889e-06
-2.53928e-06
2.26921e-05
2.59411e-06
2.29813e-05
1.3955e-06
2.28167e-05
7.51522e-07
2.23685e-05
-1.83648e-07
2.18555e-05
-9.47053e-07
2.14056e-05
-1.43033e-06
2.10587e-05
-1.75828e-06
2.07922e-05
-1.95992e-06
2.05857e-05
-2.08696e-06
2.04396e-05
-2.1991e-06
2.03397e-05
-2.2787e-06
2.02716e-05
-2.32785e-06
2.02314e-05
-2.37415e-06
2.02158e-05
-2.40825e-06
2.02188e-05
-2.4341e-06
2.0236e-05
-2.46227e-06
2.02663e-05
-2.48267e-06
2.03079e-05
-2.50083e-06
2.03574e-05
-2.51433e-06
2.04131e-05
-2.52424e-06
2.04728e-05
-2.53107e-06
2.05337e-05
-2.53684e-06
2.05948e-05
-2.54222e-06
2.06545e-05
-2.54067e-06
2.07102e-05
-2.52922e-06
2.07613e-05
-2.51544e-06
2.08073e-05
-2.50048e-06
2.08483e-05
-2.48548e-06
2.08844e-05
-2.471e-06
2.09162e-05
-2.45815e-06
2.09442e-05
-2.44702e-06
2.09685e-05
-2.43609e-06
2.09891e-05
-2.42539e-06
2.10062e-05
-2.41552e-06
2.10206e-05
-2.40782e-06
2.10328e-05
-2.40209e-06
2.10433e-05
-2.39731e-06
2.10523e-05
-2.39329e-06
2.10601e-05
-2.38988e-06
2.10667e-05
-2.38695e-06
2.10724e-05
-2.38447e-06
2.10772e-05
-2.38229e-06
2.10814e-05
-2.3805e-06
2.10849e-05
-2.37887e-06
2.1088e-05
-2.37757e-06
2.10906e-05
-2.37641e-06
2.10928e-05
-2.37541e-06
2.10947e-05
-2.37476e-06
2.10964e-05
-2.37405e-06
2.10979e-05
-2.37347e-06
2.1099e-05
-2.37272e-06
2.10999e-05
-2.37205e-06
2.11007e-05
-2.37176e-06
2.11014e-05
-2.37137e-06
2.11019e-05
-2.37078e-06
2.11009e-05
-2.3653e-06
2.10928e-05
-2.33473e-06
2.0989e-05
-1.90401e-06
2.11822e-05
-3.13534e-06
2.28208e-05
-8.90654e-06
2.37804e-05
-4.88674e-06
2.33015e-05
1.13837e-06
2.3171e-05
-2.06463e-06
2.30682e-05
-2.11305e-06
2.30172e-05
-2.287e-06
2.29555e-05
-2.2344e-06
2.29099e-05
-2.28037e-06
2.2871e-05
-2.29497e-06
2.28393e-05
-2.31031e-06
2.28152e-05
-2.32488e-06
2.27959e-05
-2.33473e-06
2.27813e-05
-2.34581e-06
2.27699e-05
-2.35149e-06
2.27608e-05
-2.35602e-06
2.27536e-05
-2.35913e-06
2.27479e-05
-2.36194e-06
2.27434e-05
-2.36373e-06
2.274e-05
-2.36573e-06
2.27374e-05
-2.36671e-06
2.27353e-05
-2.36725e-06
2.27338e-05
-2.36852e-06
2.27328e-05
-2.36913e-06
2.27321e-05
-2.369e-06
2.27317e-05
-2.37e-06
2.27315e-05
-2.36992e-06
2.27313e-05
-2.36969e-06
2.27314e-05
-2.37034e-06
2.27315e-05
-2.37039e-06
2.27316e-05
-2.3699e-06
2.27318e-05
-2.37039e-06
2.27319e-05
-2.36961e-06
2.27321e-05
-2.37044e-06
2.27323e-05
-2.37018e-06
2.27325e-05
-2.36979e-06
2.27327e-05
-2.37026e-06
2.27329e-05
-2.37021e-06
2.27329e-05
-2.36959e-06
2.27331e-05
-2.3702e-06
2.27331e-05
-2.36932e-06
2.27332e-05
-2.3701e-06
2.27333e-05
-2.37e-06
2.27333e-05
-2.36951e-06
2.27334e-05
-2.37002e-06
2.27334e-05
-2.36925e-06
2.27334e-05
-2.36997e-06
2.27335e-05
-2.36999e-06
2.27335e-05
-2.3694e-06
2.27335e-05
-2.37e-06
2.27334e-05
-2.36915e-06
2.27335e-05
-2.36997e-06
2.27335e-05
-2.36992e-06
2.27335e-05
-2.3694e-06
2.27335e-05
-2.36994e-06
2.27334e-05
-2.36914e-06
2.27334e-05
-2.36993e-06
2.27335e-05
-2.36992e-06
2.27335e-05
-2.36941e-06
2.27335e-05
-2.37e-06
2.27334e-05
-2.36901e-06
2.27334e-05
-2.37012e-06
2.27334e-05
-2.36969e-06
2.27334e-05
-2.36968e-06
2.27334e-05
-2.36962e-06
2.27334e-05
-2.36943e-06
2.27334e-05
-2.36968e-06
2.27334e-05
-2.37006e-06
2.27334e-05
-2.3695e-06
2.27333e-05
-2.36952e-06
2.27334e-05
-2.36985e-06
2.27333e-05
-2.3691e-06
2.27335e-05
-2.37101e-06
2.27332e-05
-2.36794e-06
2.27335e-05
-2.3716e-06
2.27331e-05
-2.36714e-06
2.27336e-05
-2.37238e-06
2.27331e-05
-2.36703e-06
2.27337e-05
-2.3727e-06
2.27331e-05
-2.36634e-06
2.27339e-05
-2.3742e-06
2.27331e-05
-2.36471e-06
2.27341e-05
-2.37545e-06
2.27329e-05
-2.36301e-06
2.27343e-05
-2.3771e-06
2.27329e-05
-2.36195e-06
2.27345e-05
-2.37836e-06
2.27328e-05
-2.36014e-06
2.27347e-05
-2.38004e-06
2.27326e-05
-2.35818e-06
2.2735e-05
-2.38293e-06
2.27325e-05
-2.35527e-06
2.27354e-05
-2.38559e-06
2.27323e-05
-2.35225e-06
2.27357e-05
-2.38863e-06
2.27322e-05
-2.34983e-06
2.27362e-05
-2.39119e-06
2.27321e-05
-2.34688e-06
2.27367e-05
-2.39498e-06
2.27321e-05
-2.34298e-06
2.27372e-05
-2.39851e-06
2.27319e-05
-2.33907e-06
2.27378e-05
-2.40234e-06
2.27318e-05
-2.33591e-06
2.27383e-05
-2.40559e-06
2.27317e-05
-2.33219e-06
2.27388e-05
-2.40905e-06
2.27315e-05
-2.32861e-06
2.27393e-05
-2.41338e-06
2.27314e-05
-2.32435e-06
2.27399e-05
-2.41728e-06
2.27314e-05
-2.32121e-06
2.27405e-05
-2.42021e-06
2.27314e-05
-2.31802e-06
2.27411e-05
-2.42384e-06
2.27314e-05
-2.31449e-06
2.27416e-05
-2.42674e-06
2.27313e-05
-2.31142e-06
2.2742e-05
-2.42934e-06
2.27313e-05
-2.30969e-06
2.27424e-05
-2.43078e-06
2.27314e-05
-2.30798e-06
2.27428e-05
-2.43296e-06
2.27314e-05
-2.30598e-06
2.27431e-05
-2.43425e-06
2.27314e-05
-2.30454e-06
2.27432e-05
-2.43522e-06
2.27314e-05
-2.30445e-06
2.27433e-05
-2.43507e-06
2.27315e-05
-2.30433e-06
2.27435e-05
-2.43562e-06
2.27316e-05
-2.30393e-06
2.27435e-05
-2.43529e-06
2.27317e-05
-2.30501e-06
2.27435e-05
-2.43387e-06
2.27318e-05
-2.3061e-06
2.27435e-05
-2.4331e-06
2.2732e-05
-2.30706e-06
2.27434e-05
-2.43143e-06
2.2732e-05
-2.30861e-06
2.27431e-05
-2.42953e-06
2.27322e-05
-2.31136e-06
2.27428e-05
-2.42662e-06
2.27324e-05
-2.31394e-06
2.27426e-05
-2.42455e-06
2.27326e-05
-2.31609e-06
2.27423e-05
-2.42179e-06
2.27328e-05
-2.31952e-06
2.2742e-05
-2.41818e-06
2.2733e-05
-2.32266e-06
2.27417e-05
-2.41552e-06
2.27332e-05
-2.32526e-06
2.27413e-05
-2.41232e-06
2.27334e-05
-2.329e-06
2.27408e-05
-2.40851e-06
2.27336e-05
-2.33231e-06
2.27405e-05
-2.40576e-06
2.27338e-05
-2.33499e-06
2.274e-05
-2.40248e-06
2.2734e-05
-2.33864e-06
2.27396e-05
-2.39879e-06
2.27341e-05
-2.34172e-06
2.27392e-05
-2.39636e-06
2.27342e-05
-2.34418e-06
2.27387e-05
-2.39342e-06
2.27344e-05
-2.34752e-06
2.27383e-05
-2.39009e-06
2.27345e-05
-2.35009e-06
2.27378e-05
-2.38792e-06
2.27347e-05
-2.35225e-06
2.27372e-05
-2.38537e-06
2.27347e-05
-2.35523e-06
2.27369e-05
-2.38272e-06
2.27346e-05
-2.35721e-06
2.27366e-05
-2.3812e-06
2.27347e-05
-2.35852e-06
2.27362e-05
-2.37926e-06
2.27347e-05
-2.36101e-06
2.27358e-05
-2.37689e-06
2.27344e-05
-2.3625e-06
2.27355e-05
-2.37634e-06
2.27344e-05
-2.36337e-06
2.27354e-05
-2.3749e-06
2.27346e-05
-2.36509e-06
2.27353e-05
-2.37392e-06
2.27344e-05
-2.36541e-06
2.27349e-05
-2.37296e-06
2.27342e-05
-2.36675e-06
2.27346e-05
-2.37192e-06
2.27343e-05
-2.36756e-06
2.27348e-05
-2.37179e-06
2.27345e-05
-2.36754e-06
2.27346e-05
-2.37106e-06
2.27342e-05
-2.36814e-06
2.27341e-05
-2.37014e-06
2.27337e-05
-2.36863e-06
2.27339e-05
-2.37066e-06
2.2734e-05
-2.36944e-06
2.27343e-05
-2.3701e-06
2.27344e-05
-2.36945e-06
2.27344e-05
-2.36999e-06
2.2734e-05
-2.36853e-06
2.27337e-05
-2.3697e-06
2.27333e-05
-2.36916e-06
2.27334e-05
-2.36969e-06
2.27336e-05
-2.36993e-06
2.27341e-05
-2.37044e-06
2.27345e-05
-2.37005e-06
2.27343e-05
-2.36925e-06
2.27339e-05
-2.36911e-06
2.27334e-05
-2.36927e-06
2.27328e-05
-2.36858e-06
2.2733e-05
-2.37026e-06
2.27335e-05
-2.37027e-06
2.27343e-05
-2.371e-06
2.27348e-05
-2.36974e-06
2.27346e-05
-2.36978e-06
2.2734e-05
-2.36867e-06
2.27332e-05
-2.36916e-06
2.27323e-05
-2.36819e-06
2.27327e-05
-2.37042e-06
2.27334e-05
-2.37058e-06
2.27346e-05
-2.37127e-06
2.27354e-05
-2.37035e-06
2.2735e-05
-2.36988e-06
2.27343e-05
-2.36749e-06
2.27334e-05
-2.36627e-06
2.27357e-05
-2.38383e-06
2.27328e-05
-2.3536e-06
2.2732e-05
-2.36794e-06
2.27325e-05
-2.37232e-06
2.27329e-05
-2.37151e-06
2.27346e-05
-2.3709e-06
2.27362e-05
-2.37911e-06
2.27385e-05
-2.40174e-06
2.27115e-05
-2.19611e-06
2.28043e-05
-3.17317e-06
2.2324e-05
-1.49454e-07
2.09447e-05
3.50876e-06
2.08042e-05
-3.41192e-06
2.08385e-05
-3.07312e-06
-2.55896e-06
2.29204e-05
1.61124e-06
2.35921e-05
7.23813e-07
2.40631e-05
2.80458e-07
2.42235e-05
-3.44037e-07
2.41512e-05
-8.74775e-07
2.39395e-05
-1.21863e-06
2.36614e-05
-1.48013e-06
2.33847e-05
-1.68321e-06
2.31479e-05
-1.85021e-06
2.29551e-05
-2.00627e-06
2.27993e-05
-2.12293e-06
2.26769e-05
-2.20539e-06
2.25892e-05
-2.28652e-06
2.25332e-05
-2.35223e-06
2.25023e-05
-2.40316e-06
2.24939e-05
-2.45393e-06
2.25022e-05
-2.49093e-06
2.25246e-05
-2.52328e-06
2.25594e-05
-2.54912e-06
2.26026e-05
-2.56745e-06
2.26512e-05
-2.57964e-06
2.27e-05
-2.58563e-06
2.27467e-05
-2.58899e-06
2.27913e-05
-2.58517e-06
2.28322e-05
-2.57014e-06
2.28692e-05
-2.55249e-06
2.29023e-05
-2.53357e-06
2.29315e-05
-2.51469e-06
2.2957e-05
-2.49652e-06
2.29794e-05
-2.48049e-06
2.2999e-05
-2.46662e-06
2.30158e-05
-2.45295e-06
2.303e-05
-2.43954e-06
2.30416e-05
-2.42718e-06
2.30514e-05
-2.41759e-06
2.30598e-05
-2.41047e-06
2.3067e-05
-2.40453e-06
2.30732e-05
-2.39948e-06
2.30785e-05
-2.39518e-06
2.3083e-05
-2.39148e-06
2.30869e-05
-2.38834e-06
2.30902e-05
-2.38559e-06
2.3093e-05
-2.38332e-06
2.30954e-05
-2.38128e-06
2.30975e-05
-2.37964e-06
2.30992e-05
-2.37816e-06
2.31007e-05
-2.3769e-06
2.31021e-05
-2.37608e-06
2.31032e-05
-2.37517e-06
2.31042e-05
-2.37446e-06
2.3105e-05
-2.37351e-06
2.31056e-05
-2.37267e-06
2.31061e-05
-2.37234e-06
2.31066e-05
-2.37179e-06
2.31071e-05
-2.37129e-06
2.31067e-05
-2.36498e-06
2.31075e-05
-2.33553e-06
2.31124e-05
-1.90887e-06
2.32176e-05
-3.24057e-06
2.39574e-05
-9.64627e-06
2.45392e-05
-5.46852e-06
2.45351e-05
1.14248e-06
2.44831e-05
-2.01269e-06
2.44409e-05
-2.07088e-06
2.44126e-05
-2.25871e-06
2.43806e-05
-2.20233e-06
2.43534e-05
-2.25318e-06
2.43271e-05
-2.26872e-06
2.43055e-05
-2.28865e-06
2.42885e-05
-2.30787e-06
2.42742e-05
-2.3205e-06
2.42627e-05
-2.33428e-06
2.42533e-05
-2.34207e-06
2.42455e-05
-2.34825e-06
2.42391e-05
-2.3527e-06
2.42338e-05
-2.35665e-06
2.42294e-05
-2.35938e-06
2.42259e-05
-2.36222e-06
2.42231e-05
-2.36393e-06
2.42209e-05
-2.36498e-06
2.42191e-05
-2.36675e-06
2.42178e-05
-2.36783e-06
2.42168e-05
-2.36795e-06
2.4216e-05
-2.36926e-06
2.42155e-05
-2.36945e-06
2.42152e-05
-2.36932e-06
2.4215e-05
-2.37013e-06
2.42149e-05
-2.37033e-06
2.42148e-05
-2.36983e-06
2.42148e-05
-2.37041e-06
2.42149e-05
-2.36963e-06
2.42149e-05
-2.37052e-06
2.4215e-05
-2.37027e-06
2.42151e-05
-2.36989e-06
2.42152e-05
-2.37036e-06
2.42153e-05
-2.37031e-06
2.42154e-05
-2.36967e-06
2.42155e-05
-2.3703e-06
2.42155e-05
-2.36935e-06
2.42156e-05
-2.37016e-06
2.42157e-05
-2.37007e-06
2.42157e-05
-2.36955e-06
2.42157e-05
-2.37007e-06
2.42157e-05
-2.36925e-06
2.42158e-05
-2.36999e-06
2.42158e-05
-2.37004e-06
2.42158e-05
-2.36941e-06
2.42158e-05
-2.37002e-06
2.42158e-05
-2.36913e-06
2.42158e-05
-2.36998e-06
2.42158e-05
-2.36996e-06
2.42158e-05
-2.3694e-06
2.42158e-05
-2.36994e-06
2.42158e-05
-2.3691e-06
2.42158e-05
-2.36993e-06
2.42158e-05
-2.36996e-06
2.42158e-05
-2.3694e-06
2.42158e-05
-2.36999e-06
2.42158e-05
-2.36897e-06
2.42158e-05
-2.37013e-06
2.42158e-05
-2.36969e-06
2.42158e-05
-2.36968e-06
2.42158e-05
-2.36962e-06
2.42158e-05
-2.36941e-06
2.42158e-05
-2.36967e-06
2.42158e-05
-2.37009e-06
2.42158e-05
-2.3695e-06
2.42157e-05
-2.36947e-06
2.42158e-05
-2.3699e-06
2.42157e-05
-2.36902e-06
2.42158e-05
-2.37109e-06
2.42157e-05
-2.36786e-06
2.42158e-05
-2.37169e-06
2.42157e-05
-2.36704e-06
2.42158e-05
-2.3725e-06
2.42157e-05
-2.3669e-06
2.42159e-05
-2.37288e-06
2.42157e-05
-2.3662e-06
2.42159e-05
-2.37443e-06
2.42158e-05
-2.36452e-06
2.4216e-05
-2.37572e-06
2.42158e-05
-2.36276e-06
2.42161e-05
-2.37743e-06
2.42158e-05
-2.36165e-06
2.42162e-05
-2.37877e-06
2.42158e-05
-2.35975e-06
2.42163e-05
-2.3805e-06
2.42159e-05
-2.35773e-06
2.42164e-05
-2.38351e-06
2.42159e-05
-2.35473e-06
2.42166e-05
-2.38627e-06
2.42159e-05
-2.35161e-06
2.42167e-05
-2.38943e-06
2.4216e-05
-2.34909e-06
2.42169e-05
-2.39213e-06
2.42161e-05
-2.34603e-06
2.42172e-05
-2.39607e-06
2.42162e-05
-2.34203e-06
2.42174e-05
-2.39971e-06
2.42163e-05
-2.33796e-06
2.42177e-05
-2.40368e-06
2.42164e-05
-2.33468e-06
2.42179e-05
-2.40709e-06
2.42166e-05
-2.33081e-06
2.42182e-05
-2.41066e-06
2.42166e-05
-2.32709e-06
2.42184e-05
-2.41515e-06
2.42168e-05
-2.32274e-06
2.42187e-05
-2.41918e-06
2.42169e-05
-2.31947e-06
2.4219e-05
-2.42225e-06
2.42171e-05
-2.31615e-06
2.42193e-05
-2.426e-06
2.42173e-05
-2.31254e-06
2.42195e-05
-2.42896e-06
2.42175e-05
-2.30934e-06
2.42197e-05
-2.43161e-06
2.42176e-05
-2.30755e-06
2.422e-05
-2.43314e-06
2.42177e-05
-2.30576e-06
2.42201e-05
-2.43536e-06
2.42179e-05
-2.30375e-06
2.42203e-05
-2.43666e-06
2.4218e-05
-2.30223e-06
2.42204e-05
-2.43762e-06
2.42181e-05
-2.30212e-06
2.42205e-05
-2.43749e-06
2.42181e-05
-2.30198e-06
2.42205e-05
-2.43803e-06
2.42182e-05
-2.30163e-06
2.42206e-05
-2.43762e-06
2.42183e-05
-2.30274e-06
2.42206e-05
-2.43617e-06
2.42184e-05
-2.30385e-06
2.42206e-05
-2.43533e-06
2.42184e-05
-2.30492e-06
2.42205e-05
-2.43353e-06
2.42185e-05
-2.30653e-06
2.42204e-05
-2.43148e-06
2.42185e-05
-2.30941e-06
2.42203e-05
-2.42848e-06
2.42184e-05
-2.31206e-06
2.42202e-05
-2.42629e-06
2.42185e-05
-2.31441e-06
2.422e-05
-2.42332e-06
2.42185e-05
-2.31799e-06
2.42199e-05
-2.41961e-06
2.42185e-05
-2.32119e-06
2.42198e-05
-2.41681e-06
2.42184e-05
-2.32395e-06
2.42196e-05
-2.41349e-06
2.42184e-05
-2.3278e-06
2.42194e-05
-2.40955e-06
2.42183e-05
-2.33119e-06
2.42193e-05
-2.4067e-06
2.42183e-05
-2.33398e-06
2.42191e-05
-2.40335e-06
2.42182e-05
-2.33772e-06
2.4219e-05
-2.39954e-06
2.42181e-05
-2.34085e-06
2.42187e-05
-2.39699e-06
2.42179e-05
-2.34339e-06
2.42185e-05
-2.39402e-06
2.42179e-05
-2.34685e-06
2.42184e-05
-2.39065e-06
2.42178e-05
-2.34949e-06
2.42183e-05
-2.38836e-06
2.42176e-05
-2.35163e-06
2.4218e-05
-2.3857e-06
2.42174e-05
-2.35465e-06
2.42177e-05
-2.38307e-06
2.42173e-05
-2.3568e-06
2.42177e-05
-2.38158e-06
2.42174e-05
-2.35819e-06
2.42176e-05
-2.37951e-06
2.42171e-05
-2.3605e-06
2.42172e-05
-2.377e-06
2.42167e-05
-2.36201e-06
2.4217e-05
-2.37658e-06
2.42168e-05
-2.36315e-06
2.42171e-05
-2.37526e-06
2.4217e-05
-2.36497e-06
2.42171e-05
-2.37405e-06
2.42167e-05
-2.36501e-06
2.42166e-05
-2.37285e-06
2.42162e-05
-2.36638e-06
2.42164e-05
-2.37205e-06
2.42164e-05
-2.36762e-06
2.42168e-05
-2.37214e-06
2.42169e-05
-2.36765e-06
2.42168e-05
-2.37099e-06
2.42165e-05
-2.3678e-06
2.42161e-05
-2.36975e-06
2.42157e-05
-2.3682e-06
2.42158e-05
-2.37081e-06
2.42161e-05
-2.36971e-06
2.42166e-05
-2.37059e-06
2.42169e-05
-2.36982e-06
2.42168e-05
-2.36983e-06
2.42163e-05
-2.36808e-06
2.42157e-05
-2.36909e-06
2.42152e-05
-2.36864e-06
2.42154e-05
-2.36984e-06
2.42158e-05
-2.37036e-06
2.42165e-05
-2.37119e-06
2.42172e-05
-2.37069e-06
2.42169e-05
-2.369e-06
2.42163e-05
-2.36849e-06
2.42154e-05
-2.36836e-06
2.42146e-05
-2.36778e-06
2.42149e-05
-2.37054e-06
2.42156e-05
-2.37099e-06
2.42168e-05
-2.37218e-06
2.42177e-05
-2.37071e-06
2.42174e-05
-2.36943e-06
2.42165e-05
-2.36775e-06
2.42151e-05
-2.36775e-06
2.42138e-05
-2.36695e-06