/*--------------------------------*- C++ -*----------------------------------*\
| =========                 |                                                 |
| \\      /  F ield         | foam-extend: Open Source CFD                    |
|  \\    /   O peration     | Version:     3.2                                |
|   \\  /    A nd           | Web:         http://www.foam-extend.org         |
|    \\/     M anipulation  | For copyright notice see file Copyright         |
\*---------------------------------------------------------------------------*/
FoamFile
{
    version     2.0;
    format      ascii;
    class       areaVectorField;
    location    "2000";
    object      aMeshCentreN;
}
// * * * * * * * * * * * * * * * * * * * * * * * * * * * * * * * * * * * * * //

dimensions      [0 0 0 0 0 0 0];

internalField   nonuniform List<vector> 
300
(
(0.025 0.01 -0.000125)
(0.075 0.01 -0.000375)
(0.125 0.01 -0.000625)
(0.175 0.01 -0.000875)
(0.225 0.01 -0.001125)
(0.275 0.01 -0.001375)
(0.325 0.01 -0.001625)
(0.375 0.01 -0.001875)
(0.425 0.01 -0.002125)
(0.475 0.01 -0.002375)
(0.525 0.01 -0.002625)
(0.575 0.01 -0.002875)
(0.625 0.01 -0.003125)
(0.675 0.01 -0.003375)
(0.725 0.01 -0.003625)
(0.775 0.01 -0.003875)
(0.825 0.01 -0.004125)
(0.875 0.01 -0.004375)
(0.925 0.01 -0.004625)
(0.975 0.01 -0.004875)
(1.025 0.01 -0.005125)
(1.075 0.01 -0.005375)
(1.125 0.01 -0.005625)
(1.175 0.01 -0.005875)
(1.225 0.01 -0.006125)
(1.275 0.01 -0.006375)
(1.325 0.01 -0.006625)
(1.375 0.01 -0.006875)
(1.425 0.01 -0.007125)
(1.475 0.01 -0.007375)
(1.525 0.01 -0.007625)
(1.575 0.01 -0.007875)
(1.625 0.01 -0.008125)
(1.675 0.01 -0.008375)
(1.725 0.01 -0.008625)
(1.775 0.01 -0.008875)
(1.825 0.01 -0.009125)
(1.875 0.01 -0.009375)
(1.925 0.01 -0.009625)
(1.975 0.01 -0.009875)
(2.025 0.01 -0.010125)
(2.075 0.01 -0.010375)
(2.125 0.01 -0.010625)
(2.175 0.01 -0.010875)
(2.225 0.01 -0.011125)
(2.275 0.01 -0.011375)
(2.325 0.01 -0.011625)
(2.375 0.01 -0.011875)
(2.425 0.01 -0.012125)
(2.475 0.01 -0.012375)
(2.525 0.01 -0.012625)
(2.575 0.01 -0.012875)
(2.625 0.01 -0.013125)
(2.675 0.01 -0.013375)
(2.725 0.01 -0.013625)
(2.775 0.01 -0.013875)
(2.825 0.01 -0.014125)
(2.875 0.01 -0.014375)
(2.925 0.01 -0.014625)
(2.975 0.01 -0.0137797)
(3.025 0.01 -0.0123238)
(3.075 0.01 -0.0123874)
(3.125 0.01 -0.0130379)
(3.175 0.01 -0.0132868)
(3.225 0.01 -0.0135549)
(3.275 0.01 -0.0138126)
(3.325 0.01 -0.0140832)
(3.375 0.01 -0.0143514)
(3.425 0.01 -0.0146212)
(3.475 0.01 -0.0148905)
(3.525 0.01 -0.0151595)
(3.575 0.01 -0.0154273)
(3.625 0.01 -0.0156935)
(3.675 0.01 -0.0159583)
(3.725 0.01 -0.0162218)
(3.775 0.01 -0.0164838)
(3.825 0.01 -0.0167444)
(3.875 0.01 -0.0170036)
(3.925 0.01 -0.0172615)
(3.975 0.01 -0.0175183)
(4.025 0.01 -0.017774)
(4.075 0.01 -0.0180286)
(4.125 0.01 -0.0182825)
(4.175 0.01 -0.0185357)
(4.225 0.01 -0.0187881)
(4.275 0.01 -0.0190401)
(4.325 0.01 -0.0192917)
(4.375 0.01 -0.0195428)
(4.425 0.01 -0.0197937)
(4.475 0.01 -0.0200444)
(4.525 0.01 -0.0202949)
(4.575 0.01 -0.0205452)
(4.625 0.01 -0.0207954)
(4.675 0.01 -0.0210455)
(4.725 0.01 -0.0212956)
(4.775 0.01 -0.0215456)
(4.825 0.01 -0.0217955)
(4.875 0.01 -0.0220455)
(4.925 0.01 -0.0222955)
(4.975 0.01 -0.0225455)
(5.025 0.01 -0.0227954)
(5.075 0.01 -0.0230454)
(5.125 0.01 -0.0232953)
(5.175 0.01 -0.0235453)
(5.225 0.01 -0.0237953)
(5.275 0.01 -0.0240452)
(5.325 0.01 -0.0242952)
(5.375 0.01 -0.0245452)
(5.425 0.01 -0.0247952)
(5.475 0.01 -0.0250453)
(5.525 0.01 -0.0252952)
(5.575 0.01 -0.0255452)
(5.625 0.01 -0.0257952)
(5.675 0.01 -0.0260452)
(5.725 0.01 -0.0262953)
(5.775 0.01 -0.0265452)
(5.825 0.01 -0.0267952)
(5.875 0.01 -0.0270452)
(5.925 0.01 -0.0272953)
(5.975 0.01 -0.0275453)
(6.025 0.01 -0.0277953)
(6.075 0.01 -0.0280453)
(6.125 0.01 -0.0282953)
(6.175 0.01 -0.0285453)
(6.225 0.01 -0.0287954)
(6.275 0.01 -0.0290453)
(6.325 0.01 -0.0292953)
(6.375 0.01 -0.0295454)
(6.425 0.01 -0.0297954)
(6.475 0.01 -0.0300455)
(6.525 0.01 -0.0302954)
(6.575 0.01 -0.0305454)
(6.625 0.01 -0.0307954)
(6.675 0.01 -0.0310455)
(6.725 0.01 -0.0312954)
(6.775 0.01 -0.0315455)
(6.825 0.01 -0.0317954)
(6.875 0.01 -0.0320454)
(6.925 0.01 -0.0322952)
(6.975 0.01 -0.0325453)
(7.025 0.01 -0.0327951)
(7.075 0.01 -0.0330452)
(7.125 0.01 -0.0332951)
(7.175 0.01 -0.0335451)
(7.225 0.01 -0.0337949)
(7.275 0.01 -0.034045)
(7.325 0.01 -0.0342948)
(7.375 0.01 -0.034545)
(7.425 0.01 -0.0347946)
(7.475 0.01 -0.0350448)
(7.525 0.01 -0.0352945)
(7.575 0.01 -0.0355447)
(7.625 0.01 -0.0357944)
(7.675 0.01 -0.0360445)
(7.725 0.01 -0.0362941)
(7.775 0.01 -0.0365443)
(7.825 0.01 -0.0367937)
(7.875 0.01 -0.0370439)
(7.925 0.01 -0.0372934)
(7.975 0.01 -0.0375436)
(8.025 0.01 -0.0377932)
(8.075 0.01 -0.0380433)
(8.125 0.01 -0.0382928)
(8.175 0.01 -0.038543)
(8.225 0.01 -0.0387925)
(8.275 0.01 -0.0390427)
(8.325 0.01 -0.0392921)
(8.375 0.01 -0.0395423)
(8.425 0.01 -0.0397918)
(8.475 0.01 -0.0400418)
(8.525 0.01 -0.0402913)
(8.575 0.01 -0.0405414)
(8.625 0.01 -0.0407909)
(8.675 0.01 -0.0410409)
(8.725 0.01 -0.0412905)
(8.775 0.01 -0.0415405)
(8.825 0.01 -0.0417902)
(8.875 0.01 -0.0420401)
(8.925 0.01 -0.0422898)
(8.975 0.01 -0.0425398)
(9.025 0.01 -0.0427894)
(9.075 0.01 -0.0430394)
(9.125 0.01 -0.0432891)
(9.175 0.01 -0.0435391)
(9.225 0.01 -0.043789)
(9.275 0.01 -0.0440389)
(9.325 0.01 -0.0442888)
(9.375 0.01 -0.0445387)
(9.425 0.01 -0.0447886)
(9.475 0.01 -0.0450385)
(9.525 0.01 -0.0452885)
(9.575 0.01 -0.0455383)
(9.625 0.01 -0.0457883)
(9.675 0.01 -0.0460382)
(9.725 0.01 -0.0462882)
(9.775 0.01 -0.046538)
(9.825 0.01 -0.0467882)
(9.875 0.01 -0.047038)
(9.925 0.01 -0.0472883)
(9.975 0.01 -0.047538)
(10.025 0.01 -0.0477883)
(10.075 0.01 -0.0480381)
(10.125 0.01 -0.0482883)
(10.175 0.01 -0.0485381)
(10.225 0.01 -0.0487885)
(10.275 0.01 -0.0490382)
(10.325 0.01 -0.0492885)
(10.375 0.01 -0.0495383)
(10.425 0.01 -0.0497886)
(10.475 0.01 -0.0500384)
(10.525 0.01 -0.0502888)
(10.575 0.01 -0.0505385)
(10.625 0.01 -0.050789)
(10.675 0.01 -0.0510388)
(10.725 0.01 -0.0512891)
(10.775 0.01 -0.0515389)
(10.825 0.01 -0.0517894)
(10.875 0.01 -0.0520392)
(10.925 0.01 -0.0522896)
(10.975 0.01 -0.0525395)
(11.025 0.01 -0.0527898)
(11.075 0.01 -0.0530397)
(11.125 0.01 -0.0532901)
(11.175 0.01 -0.05354)
(11.225 0.01 -0.0537904)
(11.275 0.01 -0.0540403)
(11.325 0.01 -0.0542907)
(11.375 0.01 -0.0545407)
(11.425 0.01 -0.054791)
(11.475 0.01 -0.0550409)
(11.525 0.01 -0.0552913)
(11.575 0.01 -0.0555413)
(11.625 0.01 -0.0557916)
(11.675 0.01 -0.0560416)
(11.725 0.01 -0.056292)
(11.775 0.01 -0.0565419)
(11.825 0.01 -0.0567923)
(11.875 0.01 -0.0570423)
(11.925 0.01 -0.0572925)
(11.975 0.01 -0.0575425)
(12.025 0.01 -0.0577928)
(12.075 0.01 -0.0580429)
(12.125 0.01 -0.058293)
(12.175 0.01 -0.0585431)
(12.225 0.01 -0.0587933)
(12.275 0.01 -0.0590432)
(12.325 0.01 -0.0592934)
(12.375 0.01 -0.0595435)
(12.425 0.01 -0.0597936)
(12.475 0.01 -0.0600437)
(12.525 0.01 -0.0602939)
(12.575 0.01 -0.0605439)
(12.625 0.01 -0.0607941)
(12.675 0.01 -0.0610441)
(12.725 0.01 -0.0612942)
(12.775 0.01 -0.0615442)
(12.825 0.01 -0.0617943)
(12.875 0.01 -0.0620444)
(12.925 0.01 -0.0622944)
(12.975 0.01 -0.0625445)
(13.025 0.01 -0.0627946)
(13.075 0.01 -0.0630445)
(13.125 0.01 -0.0632946)
(13.175 0.01 -0.0635447)
(13.225 0.01 -0.0637947)
(13.275 0.01 -0.0640448)
(13.325 0.01 -0.0642948)
(13.375 0.01 -0.0645449)
(13.425 0.01 -0.0647949)
(13.475 0.01 -0.0650448)
(13.525 0.01 -0.0652949)
(13.575 0.01 -0.0655449)
(13.625 0.01 -0.0657948)
(13.675 0.01 -0.0660449)
(13.725 0.01 -0.066295)
(13.775 0.01 -0.0665449)
(13.825 0.01 -0.0667949)
(13.875 0.01 -0.0670448)
(13.925 0.01 -0.0672948)
(13.975 0.01 -0.0675448)
(14.025 0.01 -0.0677948)
(14.075 0.01 -0.068045)
(14.125 0.01 -0.0682951)
(14.175 0.01 -0.0685448)
(14.225 0.01 -0.0687954)
(14.275 0.01 -0.0690436)
(14.325 0.01 -0.0692938)
(14.375 0.01 -0.0695467)
(14.425 0.01 -0.0697967)
(14.475 0.01 -0.0700462)
(14.525 0.01 -0.0702948)
(14.575 0.01 -0.0705444)
(14.625 0.01 -0.0707854)
(14.675 0.01 -0.0710699)
(14.725 0.01 -0.0712864)
(14.775 0.01 -0.0716469)
(14.825 0.01 -0.0731052)
(14.875 0.01 -0.074375)
(14.925 0.01 -0.074625)
(14.975 0.01 -0.074875)
)
;

boundaryField
{
    inlet
    {
        type            calculated;
        value           uniform (0 0 0);
    }
    outlet
    {
        type            calculated;
        value           uniform (0 0 0);
    }
    sideWall
    {
        type            empty;
    }
}


// ************************************************************************* //
