/*--------------------------------*- C++ -*----------------------------------*\
| =========                 |                                                 |
| \\      /  F ield         | foam-extend: Open Source CFD                    |
|  \\    /   O peration     | Version:     3.2                                |
|   \\  /    A nd           | Web:         http://www.foam-extend.org         |
|    \\/     M anipulation  | For copyright notice see file Copyright         |
\*---------------------------------------------------------------------------*/
FoamFile
{
    version     2.0;
    format      ascii;
    class       areaScalarField;
    location    "2000";
    object      angBeta;
}
// * * * * * * * * * * * * * * * * * * * * * * * * * * * * * * * * * * * * * //

dimensions      [0 0 0 0 0 0 0];

internalField   nonuniform List<scalar> 
300
(
0.00499996
0.00499996
0.00499996
0.00499996
0.00499996
0.00499996
0.00499996
0.00499996
0.00499996
0.00499996
0.00499996
0.00499996
0.00499996
0.00499996
0.00499996
0.00499996
0.00499996
0.00499996
0.00499996
0.00499996
0.00499996
0.00499996
0.00499996
0.00499996
0.00499996
0.00499996
0.00499996
0.00499996
0.00499996
0.00499996
0.00499996
0.00499996
0.00499996
0.00499996
0.00499996
0.00499996
0.00499996
0.00499996
0.00499996
0.00499996
0.00499996
0.00499996
0.00499996
0.00499996
0.00499996
0.00499996
0.00499996
0.00499996
0.00499996
0.00499996
0.00499996
0.00499996
0.00499996
0.00499996
0.00499996
0.00499996
0.00499996
0.00499996
0.00499996
0.0387913
0.0194239
0.0219662
0.00404959
0.00590899
0.00481208
0.00549595
0.00532865
0.00540028
0.0053903
0.00538236
0.00537735
0.00533512
0.00531125
0.00528217
0.00525558
0.00522529
0.00519903
0.00516984
0.00514537
0.00512579
0.0051028
0.00508306
0.00507213
0.00505438
0.00504321
0.00503692
0.00502568
0.00501789
0.00501787
0.00500862
0.00501155
0.00500357
0.00500204
0.00500349
0.00499984
0.00499786
0.00500163
0.00499685
0.00500289
0.0049975
0.00499734
0.00500101
0.0049972
0.00500279
0.00499826
0.00499729
0.00500183
0.00499743
0.00500361
0.00499834
0.00499795
0.00500196
0.00499797
0.0050038
0.00499882
0.00499791
0.00500224
0.00499768
0.00500459
0.00499717
0.00500022
0.0050001
0.00500026
0.00500154
0.00500064
0.00499757
0.00500092
0.00500224
0.00499687
0.00500658
0.00498918
0.00501361
0.00498457
0.00501922
0.0049791
0.00502111
0.00497543
0.00502687
0.00496442
0.0050384
0.00495451
0.00505049
0.00494252
0.00505932
0.00493217
0.0050729
0.00491873
0.00508823
0.00489752
0.00510936
0.00487726
0.00513114
0.00485495
0.00514988
0.00483459
0.00517225
0.00480669
0.00520028
0.00478017
0.00522845
0.00475235
0.00525237
0.00472767
0.00527957
0.00470159
0.00530644
0.00467045
0.00533638
0.00464243
0.00535967
0.00462014
0.0053831
0.00459443
0.00540782
0.00457391
0.00542894
0.00455626
0.00544199
0.00454515
0.00545439
0.00453097
0.00546775
0.00452215
0.00547755
0.00451616
0.00547923
0.00451686
0.00547986
0.00451482
0.00548114
0.00451816
0.005474
0.00452815
0.00546581
0.00453567
0.00545752
0.00454868
0.00544549
0.00456385
0.00542629
0.00458469
0.00540732
0.00460175
0.00538986
0.00462276
0.00536571
0.00464845
0.00534278
0.00466951
0.00532249
0.00469294
0.00529638
0.00472003
0.00527215
0.00474158
0.00525179
0.00476512
0.00522661
0.00479106
0.00520381
0.00481014
0.00518508
0.00483111
0.00516263
0.00485431
0.00514369
0.00487043
0.00512756
0.00488749
0.00510805
0.00490616
0.00509348
0.00491861
0.00508324
0.00493091
0.00506735
0.00494489
0.00505617
0.0049522
0.00504984
0.00496232
0.00503877
0.00496758
0.00503338
0.00497441
0.00502278
0.00498434
0.00501865
0.00498638
0.00501865
0.00498957
0.005011
0.00499454
0.00500753
0.00499447
0.00500469
0.00499959
0.00500511
0.00499683
0.00500607
0.00499685
0.00500105
0.00500148
0.00500198
0.00499965
0.00500147
0.00500125
0.00500108
0.00499709
0.00500281
0.00499794
0.00500161
0.0049976
0.00500565
0.00499662
0.00500185
0.00499457
0.00500263
0.00499756
0.00500137
0.00499958
0.00500677
0.00499699
0.00499272
0.00502967
0.00490143
0.00510421
0.00501346
0.0049852
0.00499491
0.00494715
0.00503871
0.00460129
0.00677847
0.00188007
0.0125388
0.0457611
0.00499996
0.00499996
0.00499996
)
;

boundaryField
{
    inlet
    {
        type            calculated;
        value           uniform 0;
    }
    outlet
    {
        type            calculated;
        value           uniform 0;
    }
    sideWall
    {
        type            empty;
    }
}


// ************************************************************************* //
