/*--------------------------------*- C++ -*----------------------------------*\
| =========                 |                                                 |
| \\      /  F ield         | foam-extend: Open Source CFD                    |
|  \\    /   O peration     | Version:     3.2                                |
|   \\  /    A nd           | Web:         http://www.foam-extend.org         |
|    \\/     M anipulation  | For copyright notice see file Copyright         |
\*---------------------------------------------------------------------------*/
FoamFile
{
    version     2.0;
    format      ascii;
    class       areaVectorField;
    location    "2000";
    object      aUf;
}
// * * * * * * * * * * * * * * * * * * * * * * * * * * * * * * * * * * * * * //

dimensions      [0 1 -1 0 0 0 0];

internalField   nonuniform List<vector> 
300
(
(0.326714 0 0.00466784)
(0.361541 0 0.00271824)
(0.332413 0 0.000317915)
(0.305415 0 -0.000979863)
(0.288762 -2.48386e-26 -0.00133415)
(0.281617 -2.58912e-42 -0.00144958)
(0.278785 -1.52969e-26 -0.0014849)
(0.278434 4.34532e-43 -0.00148264)
(0.278904 1.12748e-26 -0.00148193)
(0.279868 3.06682e-42 -0.00148072)
(0.281022 5.44347e-27 -0.0014766)
(0.282194 3.62829e-27 -0.00147101)
(0.283325 0 -0.00147406)
(0.284514 1.61068e-27 -0.00147679)
(0.285649 2.06813e-27 -0.00147839)
(0.286798 -1.18874e-28 -0.00148661)
(0.28801 -5.29967e-28 -0.00149061)
(0.289212 1.11149e-27 -0.001495)
(0.290438 -1.58027e-27 -0.00150022)
(0.291666 0 -0.00150517)
(0.292891 0 -0.00151054)
(0.294114 2.35004e-27 -0.00151921)
(0.295367 2.495e-27 -0.00152935)
(0.296646 0 -0.00153609)
(0.297876 0 -0.00153804)
(0.299003 2.43276e-27 -0.00153886)
(0.300016 0 -0.00153862)
(0.300904 0 -0.00153784)
(0.301673 0 -0.00153675)
(0.302331 1.71513e-27 -0.00153583)
(0.302893 0 -0.00153505)
(0.303373 0 -0.00153391)
(0.303772 -1.21479e-27 -0.00153255)
(0.304098 0 -0.00153127)
(0.30436 0 -0.00153051)
(0.304576 0 -0.00153017)
(0.304756 -6.50963e-28 -0.00152984)
(0.304907 0 -0.00152964)
(0.305034 0 -0.00152946)
(0.305143 0 -0.00152937)
(0.305234 -3.6027e-28 -0.00152926)
(0.305314 -4.81584e-43 -0.0015292)
(0.305378 0 -0.00152913)
(0.305438 0 -0.0015291)
(0.305483 -1.94941e-28 -0.00152901)
(0.305528 0 -0.00152907)
(0.305559 -4.8164e-43 -0.00152893)
(0.305594 0 -0.00152906)
(0.305614 0 -0.00152891)
(0.305647 0 -0.00152885)
(0.305643 0 -0.0015289)
(0.305705 1.87157e-28 -0.00152918)
(0.305625 0 -0.00152817)
(0.30583 -5.46875e-34 -0.0015302)
(0.305432 0 -0.00152573)
(0.30629 0 -0.00153281)
(0.304455 7.90286e-31 -0.00150263)
(0.307925 0 -0.00134084)
(0.295228 0 -0.00191385)
(0.318932 1.86055e-24 0.00897413)
(0.373761 3.83514e-25 0.00790469)
(0.362394 1.23006e-24 -0.00530353)
(0.339948 0 -0.00184725)
(0.340818 2.49485e-26 -0.00206078)
(0.338757 -2.58993e-27 -0.00171472)
(0.339171 0 -0.00185682)
(0.338922 0 -0.00182047)
(0.33904 -9.35996e-27 -0.0018423)
(0.339094 6.56866e-27 -0.00183889)
(0.339168 -2.46048e-27 -0.00183354)
(0.339202 0 -0.00183114)
(0.339248 3.46183e-31 -0.0018177)
(0.339302 1.0489e-27 -0.0018084)
(0.339343 7.50773e-28 -0.00179804)
(0.339377 5.30362e-28 -0.00178829)
(0.339403 0 -0.00177766)
(0.339423 0 -0.00176809)
(0.339436 -9.46426e-29 -0.00175799)
(0.339449 -9.59672e-29 -0.00174906)
(0.339453 -5.7813e-30 -0.00174188)
(0.339452 0 -0.00173397)
(0.339457 0 -0.00172696)
(0.339454 0 -0.00172264)
(0.339449 3.97106e-32 -0.00171647)
(0.33945 -7.19381e-29 -0.00171263)
(0.339446 -8.95048e-29 -0.00171006)
(0.339439 -1.56194e-28 -0.00170617)
(0.339441 -1.31086e-32 -0.00170358)
(0.339435 0 -0.00170314)
(0.339433 -1.4554e-28 -0.00170037)
(0.339429 0 -0.00170058)
(0.339423 7.57013e-29 -0.00169873)
(0.339425 -3.63096e-29 -0.00169789)
(0.339423 0 -0.00169802)
(0.339418 0 -0.00169726)
(0.339423 -3.10415e-29 -0.00169648)
(0.339419 -1.28506e-29 -0.00169736)
(0.339419 2.9481e-29 -0.00169612)
(0.339418 2.76292e-29 -0.00169772)
(0.339413 -4.02006e-29 -0.00169649)
(0.339418 9.07375e-30 -0.00169625)
(0.339416 -1.3417e-30 -0.00169719)
(0.339416 -4.64166e-30 -0.00169632)
(0.339415 2.23581e-29 -0.00169768)
(0.339412 2.88613e-29 -0.0016967)
(0.339417 9.93114e-30 -0.00169627)
(0.339414 4.91803e-32 -0.00169745)
(0.339415 -8.53407e-31 -0.00169646)
(0.339415 0 -0.00169793)
(0.339411 0 -0.00169676)
(0.339416 0 -0.00169647)
(0.339413 8.1449e-30 -0.0016975)
(0.339414 0 -0.00169662)
(0.339414 0 -0.00169802)
(0.33941 0 -0.00169692)
(0.339416 0 -0.00169645)
(0.339412 4.97045e-32 -0.00169759)
(0.339415 -2.25763e-30 -0.00169658)
(0.339412 0 -0.00169819)
(0.33941 0 -0.00169647)
(0.339413 1.86573e-29 -0.00169711)
(0.339413 -8.53284e-31 -0.0016971)
(0.339413 -6.08895e-30 -0.00169713)
(0.339412 1.71192e-29 -0.00169746)
(0.33941 0 -0.00169732)
(0.339411 0 -0.0016965)
(0.339415 1.2608e-29 -0.0016972)
(0.339407 0 -0.00169787)
(0.33942 0 -0.00169597)
(0.339397 -3.74681e-29 -0.00169902)
(0.339426 8.27438e-29 -0.00169429)
(0.339396 0 -0.0017004)
(0.339426 5.86045e-29 -0.00169322)
(0.339391 1.43158e-28 -0.00170178)
(0.339425 -9.7912e-29 -0.00169183)
(0.339386 0 -0.00170243)
(0.339435 2.51062e-28 -0.00169066)
(0.339376 1.16954e-28 -0.00170383)
(0.339444 0 -0.00168808)
(0.339372 0 -0.00170642)
(0.339449 1.76566e-28 -0.00168576)
(0.339365 -1.92415e-28 -0.0017093)
(0.339452 2.34285e-28 -0.00168287)
(0.339357 -1.37747e-30 -0.00171155)
(0.339464 2.77638e-28 -0.00168014)
(0.339345 0 -0.00171492)
(0.339474 0 -0.00167686)
(0.339328 3.48036e-28 -0.00171858)
(0.339486 -3.94015e-28 -0.00167185)
(0.339318 0 -0.00172338)
(0.339494 0 -0.00166707)
(0.339306 -2.98738e-30 -0.00172849)
(0.3395 0 -0.00166174)
(0.339293 5.71793e-28 -0.00173303)
(0.339515 0 -0.00165664)
(0.339275 -3.96422e-30 -0.00173831)
(0.339529 -7.06094e-28 -0.00165012)
(0.339265 7.26892e-28 -0.00174466)
(0.339539 1.57204e-27 -0.00164397)
(0.339252 0 -0.00175118)
(0.339544 -8.86971e-28 -0.00163749)
(0.339241 -1.80776e-27 -0.00175681)
(0.339558 -9.69221e-28 -0.00163152)
(0.339226 0 -0.00176321)
(0.339568 0 -0.00162544)
(0.33921 0 -0.00176942)
(0.339577 1.1331e-27 -0.00161832)
(0.339204 0 -0.00177601)
(0.33958 0 -0.00161191)
(0.339198 -1.23372e-27 -0.0017814)
(0.33959 1.29317e-27 -0.00160659)
(0.339188 0 -0.00178679)
(0.339596 0 -0.00160087)
(0.339187 -9.30602e-30 -0.00179216)
(0.339596 0 -0.00159642)
(0.339186 0 -0.00179698)
(0.339592 -1.46235e-27 -0.00159242)
(0.339186 1.48067e-27 -0.00180016)
(0.339595 0 -0.00158965)
(0.339184 0 -0.0018031)
(0.339596 1.56449e-27 -0.0015864)
(0.33919 -1.60884e-27 -0.0018062)
(0.33959 -1.63987e-27 -0.00158429)
(0.339196 3.34242e-27 -0.00180871)
(0.33958 0 -0.00158286)
(0.339203 0 -0.00180933)
(0.339577 -1.72418e-27 -0.0015829)
(0.339207 0 -0.00180956)
(0.339572 -1.09309e-29 -0.00158249)
(0.339219 0 -0.00180987)
(0.33956 0 -0.00158323)
(0.339232 1.79012e-27 -0.00180844)
(0.339555 0 -0.00158547)
(0.339239 1.75438e-27 -0.00180665)
(0.339548 -1.74281e-27 -0.00158733)
(0.339255 -1.7696e-27 -0.00180472)
(0.339536 -1.73403e-27 -0.00159038)
(0.339268 -1.75801e-27 -0.00180212)
(0.339522 -1.72286e-27 -0.00159399)
(0.339283 0 -0.0017978)
(0.339517 -9.40065e-30 -0.00159877)
(0.339293 1.64226e-27 -0.00179344)
(0.33951 1.60229e-27 -0.00160288)
(0.33931 1.60711e-27 -0.00178927)
(0.339497 8.52582e-30 -0.00160788)
(0.339326 -1.55451e-27 -0.00178377)
(0.339493 2.97031e-27 -0.00161384)
(0.339335 0 -0.00177849)
(0.339487 1.39234e-27 -0.00161892)
(0.339352 1.39553e-27 -0.00177366)
(0.339477 0 -0.00162445)
(0.339366 0 -0.00176768)
(0.339474 0 -0.00163082)
(0.339373 -1.19727e-27 -0.00176206)
(0.33947 0 -0.00163601)
(0.339387 1.12175e-27 -0.0017572)
(0.339461 -5.35225e-30 -0.00164155)
(0.339398 0 -0.00175136)
(0.339459 4.79115e-30 -0.00164762)
(0.339403 0 -0.00174606)
(0.339457 1.7596e-27 -0.00165231)
(0.339413 8.32443e-28 -0.00174153)
(0.339449 0 -0.00165736)
(0.339421 0 -0.00173626)
(0.339448 0 -0.00166268)
(0.339422 0 -0.0017317)
(0.339447 5.41726e-28 -0.00166688)
(0.339429 0 -0.00172727)
(0.339441 -3.99817e-28 -0.00167151)
(0.339434 -3.65512e-28 -0.00172279)
(0.33944 -3.77056e-28 -0.00167548)
(0.339432 0 -0.00171954)
(0.33944 2.61663e-28 -0.00167848)
(0.339436 0 -0.00171678)
(0.339435 0 -0.00168329)
(0.339438 0 -0.00171177)
(0.339434 1.19467e-30 -0.0016861)
(0.339436 0 -0.00170803)
(0.339435 -3.06232e-28 -0.00168803)
(0.339436 4.5541e-28 -0.00170869)
(0.339431 -6.22515e-28 -0.0016886)
(0.339434 6.03763e-28 -0.00170621)
(0.339433 -5.13402e-28 -0.00168987)
(0.339436 0 -0.00170506)
(0.33943 0 -0.00169164)
(0.339436 -3.27348e-28 -0.0017027)
(0.339431 -2.21933e-28 -0.00169409)
(0.339431 1.36016e-28 -0.00170151)
(0.33943 -1.46115e-28 -0.00169424)
(0.339431 0 -0.00170138)
(0.339426 1.90391e-28 -0.00169488)
(0.33943 1.84814e-31 -0.00169978)
(0.339425 0 -0.00169629)
(0.339425 9.31513e-29 -0.00169922)
(0.339423 0 -0.00169597)
(0.339426 3.53508e-29 -0.00169826)
(0.339424 -2.27064e-29 -0.00169698)
(0.339421 0 -0.00169831)
(0.339424 0 -0.00169636)
(0.339422 8.69315e-29 -0.00169863)
(0.339419 0 -0.00169666)
(0.339421 1.61408e-29 -0.00169752)
(0.339418 0 -0.00169761)
(0.339416 -3.54001e-29 -0.00169772)
(0.339416 -2.76441e-29 -0.00169691)
(0.339418 -5.86354e-29 -0.00169729)
(0.339418 0 -0.00169733)
(0.339414 0 -0.00169743)
(0.339418 -5.55673e-29 -0.00169658)
(0.339414 1.88122e-29 -0.00169788)
(0.339414 0 -0.00169673)
(0.339412 3.76063e-29 -0.00169757)
(0.339416 5.15532e-29 -0.00169626)
(0.339414 -5.94232e-29 -0.0016982)
(0.339414 0 -0.00169626)
(0.339413 0 -0.00169751)
(0.339417 0 -0.00169596)
(0.339417 1.18667e-29 -0.00169783)
(0.339414 6.31888e-29 -0.00169656)
(0.339416 -2.87481e-29 -0.00169743)
(0.339413 -7.7988e-29 -0.00169676)
(0.339418 1.06197e-28 -0.00169871)
(0.3394 0 -0.00169693)
(0.339453 2.9749e-31 -0.00169364)
(0.339349 -1.99993e-28 -0.0017045)
(0.339448 -9.88958e-29 -0.00167317)
(0.339468 1.9625e-27 -0.00172166)
(0.339336 -4.8559e-28 -0.00170207)
(0.339388 0 -0.00169401)
(0.339324 0 -0.00169619)
(0.3395 0 -0.00167812)
(0.339167 -4.51733e-28 -0.0017138)
(0.33982 -6.01405e-27 -0.00159254)
(0.339557 0 -0.00215332)
(0.33657 -1.55964e-26 -0.00115035)
(0.352993 -1.18148e-24 -0.00330207)
(0.307217 0 -0.0106987)
(0.283745 -1.81578e-25 -0.0031281)
(0.297324 0 -0.00214951)
(0.300109 0 -0.00146079)
)
;

boundaryField
{
    inlet
    {
        type            calculated;
        value           uniform (0 0 0);
    }
    outlet
    {
        type            calculated;
        value           uniform (0 0 0);
    }
    sideWall
    {
        type            empty;
    }
}


// ************************************************************************* //
