/*--------------------------------*- C++ -*----------------------------------*\
| =========                 |                                                 |
| \\      /  F ield         | foam-extend: Open Source CFD                    |
|  \\    /   O peration     | Version:     3.2                                |
|   \\  /    A nd           | Web:         http://www.foam-extend.org         |
|    \\/     M anipulation  | For copyright notice see file Copyright         |
\*---------------------------------------------------------------------------*/
FoamFile
{
    version     2.0;
    format      ascii;
    class       areaScalarField;
    location    "2000";
    object      Ce2;
}
// * * * * * * * * * * * * * * * * * * * * * * * * * * * * * * * * * * * * * //

dimensions      [1 -3 0 0 0 0 0];

internalField   nonuniform List<scalar> 
300
(
0.0293617
0.0403796
0.0310017
0.0236944
0.0198016
0.0182671
0.0176809
0.017609
0.0177053
0.0179036
0.018143
0.0183882
0.0186268
0.0188798
0.0191234
0.019372
0.0196364
0.0199011
0.0201733
0.0204484
0.0207253
0.021004
0.0212921
0.0215888
0.0218767
0.0221426
0.0223833
0.0225958
0.0227808
0.0229397
0.0230763
0.0231931
0.0232906
0.0233706
0.0234348
0.0234881
0.0235322
0.0235696
0.0236008
0.0236278
0.0236501
0.02367
0.0236859
0.0237006
0.0237117
0.0237229
0.0237305
0.0237392
0.0237442
0.0237524
0.0237516
0.0237668
0.0237469
0.0237977
0.0236991
0.0239121
0.0234583
0.0243205
0.0212671
0.0152736
0.0289929
0.0290189
0.0288132
0.0288365
0.0288218
0.0288312
0.0288288
0.02883
0.0288296
0.0288298
0.0288075
0.0288016
0.0288022
0.0288072
0.0288107
0.0288147
0.0288176
0.0288196
0.0288213
0.0288253
0.0288246
0.0288252
0.0288275
0.0288264
0.0288257
0.0288282
0.0288261
0.0288258
0.0288267
0.0288262
0.0288272
0.0288256
0.0288243
0.0288264
0.028824
0.0288241
0.0288253
0.0288247
0.0288258
0.0288241
0.0288234
0.0288249
0.0288241
0.0288256
0.0288238
0.0288234
0.0288247
0.0288241
0.0288255
0.0288238
0.0288234
0.0288247
0.0288241
0.0288255
0.0288238
0.0288236
0.0288244
0.0288244
0.0288251
0.0288245
0.0288225
0.0288255
0.0288236
0.0288261
0.0288238
0.0288229
0.0288263
0.0288216
0.0288298
0.0288188
0.0288295
0.0288179
0.0288322
0.0288162
0.0288346
0.0288102
0.0288395
0.0288071
0.0288412
0.028804
0.0288466
0.0287998
0.0288519
0.0287914
0.0288592
0.0287852
0.028867
0.0287777
0.0288724
0.0287704
0.0288815
0.0287621
0.0288907
0.0287497
0.028902
0.0287397
0.02891
0.0287304
0.0289214
0.0287203
0.0289321
0.0287067
0.0289442
0.0286965
0.0289556
0.0286858
0.0289633
0.0286771
0.0289735
0.0286653
0.0289838
0.0286575
0.0289894
0.0286518
0.0289967
0.0286468
0.0290021
0.0286397
0.0290074
0.028637
0.0290081
0.0286363
0.0290105
0.0286365
0.0290109
0.0286345
0.0290115
0.0286367
0.0290072
0.0286412
0.0290046
0.0286432
0.0290018
0.028649
0.0289943
0.0286568
0.0289889
0.0286651
0.0289819
0.028671
0.0289758
0.0286806
0.0289657
0.0286916
0.028958
0.0286993
0.028951
0.02871
0.0289403
0.0287216
0.0289323
0.0287295
0.0289253
0.0287401
0.0289149
0.0287511
0.0289074
0.0287581
0.0289013
0.0287674
0.028892
0.0287771
0.0288856
0.0287825
0.0288805
0.0287899
0.0288727
0.028798
0.0288676
0.028802
0.0288639
0.0288072
0.0288574
0.0288127
0.0288544
0.028815
0.0288519
0.0288193
0.028847
0.0288228
0.0288448
0.0288229
0.0288412
0.0288268
0.0288404
0.0288269
0.0288396
0.0288285
0.028836
0.0288303
0.0288358
0.0288295
0.028836
0.028831
0.0288328
0.0288294
0.0288334
0.02883
0.0288316
0.0288319
0.0288322
0.0288305
0.0288325
0.0288308
0.0288298
0.028829
0.0288318
0.0288302
0.0288307
0.0288317
0.028831
0.0288291
0.0288292
0.0288305
0.0288307
0.0288293
0.0288298
0.0288317
0.0288308
0.0288296
0.02883
0.0288355
0.0288208
0.0288459
0.0288107
0.0288532
0.0288275
0.0288262
0.0288258
0.0288258
0.0288251
0.0288263
0.0288204
0.0288493
0.0287824
0.0289204
0.0186778
0.0186462
0.0217546
0.0224048
)
;

boundaryField
{
    inlet
    {
        type            calculated;
        value           uniform 0;
    }
    outlet
    {
        type            calculated;
        value           uniform 0;
    }
    sideWall
    {
        type            empty;
    }
}


// ************************************************************************* //
