/*--------------------------------*- C++ -*----------------------------------*\
| =========                 |                                                 |
| \\      /  F ield         | foam-extend: Open Source CFD                    |
|  \\    /   O peration     | Version:     3.2                                |
|   \\  /    A nd           | Web:         http://www.foam-extend.org         |
|    \\/     M anipulation  | For copyright notice see file Copyright         |
\*---------------------------------------------------------------------------*/
FoamFile
{
    version     2.0;
    format      ascii;
    class       areaScalarField;
    location    "2000";
    object      Cpre;
}
// * * * * * * * * * * * * * * * * * * * * * * * * * * * * * * * * * * * * * //

dimensions      [1 -3 0 0 0 0 0];

internalField   nonuniform List<scalar> 
300
(
0.2079
0.2079
0.2079
0.2079
0.2079
0.2079
0.2079
0.2079
0.2079
0.2079
0.2079
0.2079
0.2079
0.2079
0.2079
0.2079
0.2079
0.2079
0.2079
0.2079
0.2079
0.2079
0.2079
0.2079
0.2079
0.2079
0.2079
0.2079
0.2079
0.2079
0.2079
0.2079
0.2079
0.2079
0.2079
0.2079
0.2079
0.2079
0.2079
0.2079
0.2079
0.2079
0.2079
0.2079
0.2079
0.2079
0.2079
0.2079
0.2079
0.2079
0.2079
0.2079
0.2079
0.2079
0.2079
0.2079
0.2079
0.2079
0.2079
0.2079
0.2079
0.2079
0.2079
0.2079
0.2079
0.2079
0.2079
0.2079
0.2079
0.2079
0.207896
0.207893
0.20789
0.20789
0.20789
0.20789
0.207891
0.207892
0.207892
0.207894
0.207894
0.207895
0.207896
0.207897
0.207897
0.207898
0.207898
0.207898
0.207898
0.207898
0.207898
0.207898
0.207898
0.207898
0.207898
0.207898
0.207898
0.207898
0.207898
0.207898
0.207898
0.207898
0.207898
0.207898
0.207898
0.207898
0.207898
0.207898
0.207898
0.207898
0.207898
0.207898
0.207898
0.207898
0.207898
0.207898
0.207898
0.207898
0.207898
0.207898
0.207898
0.207898
0.207898
0.207898
0.207898
0.207898
0.207898
0.207898
0.207899
0.207897
0.207899
0.207897
0.207899
0.207897
0.207899
0.207896
0.2079
0.207896
0.2079
0.207895
0.2079
0.207895
0.207901
0.207894
0.207902
0.207893
0.207903
0.207892
0.207903
0.207891
0.207904
0.207891
0.207905
0.207889
0.207906
0.207888
0.207907
0.207887
0.207909
0.207886
0.20791
0.207884
0.207911
0.207883
0.207913
0.207882
0.207913
0.207881
0.207915
0.207879
0.207916
0.207879
0.207916
0.207878
0.207917
0.207877
0.207918
0.207877
0.207918
0.207876
0.207918
0.207876
0.207919
0.207877
0.207919
0.207876
0.207919
0.207877
0.207919
0.207877
0.207918
0.207878
0.207918
0.207878
0.207917
0.207879
0.207917
0.207881
0.207916
0.207881
0.207916
0.207883
0.207915
0.207884
0.207914
0.207885
0.207914
0.207887
0.207913
0.207889
0.207913
0.20789
0.207912
0.207892
0.207911
0.207893
0.207911
0.207895
0.207911
0.207896
0.20791
0.207898
0.20791
0.207899
0.20791
0.2079
0.207909
0.207901
0.207909
0.207902
0.207909
0.207903
0.207909
0.207904
0.207909
0.207905
0.207909
0.207906
0.207909
0.207906
0.207909
0.207907
0.207909
0.207907
0.207909
0.207907
0.207909
0.207908
0.207909
0.207908
0.207909
0.207908
0.207909
0.207909
0.207909
0.207908
0.207909
0.207909
0.207909
0.207909
0.207909
0.207909
0.207909
0.207909
0.207909
0.207909
0.207909
0.207909
0.207909
0.207909
0.207909
0.207909
0.207909
0.207909
0.207909
0.207909
0.207909
0.20791
0.20791
0.20791
0.20791
0.207911
0.207909
0.207912
0.207908
0.207913
0.207911
0.20791
0.20791
0.207909
0.207909
0.207909
0.207909
0.207909
0.207908
0.207908
0.207908
0.207908
0.207908
0.207908
)
;

boundaryField
{
    inlet
    {
        type            calculated;
        value           uniform 0;
    }
    outlet
    {
        type            calculated;
        value           uniform 0;
    }
    sideWall
    {
        type            empty;
    }
}


// ************************************************************************* //
