/*--------------------------------*- C++ -*----------------------------------*\
| =========                 |                                                 |
| \\      /  F ield         | foam-extend: Open Source CFD                    |
|  \\    /   O peration     | Version:     3.2                                |
|   \\  /    A nd           | Web:         http://www.foam-extend.org         |
|    \\/     M anipulation  | For copyright notice see file Copyright         |
\*---------------------------------------------------------------------------*/
FoamFile
{
    version     2.0;
    format      ascii;
    class       areaScalarField;
    location    "2000";
    object      Cs;
}
// * * * * * * * * * * * * * * * * * * * * * * * * * * * * * * * * * * * * * //

dimensions      [0 0 0 0 0 0 0];

internalField   nonuniform List<scalar> 
300
(
0.531187
0.531187
0.531187
0.531187
0.531187
0.531187
0.531187
0.531187
0.531187
0.531187
0.531187
0.531187
0.531187
0.531187
0.531187
0.531187
0.531187
0.531187
0.531187
0.531187
0.531187
0.531187
0.531187
0.531187
0.531187
0.531187
0.531187
0.531187
0.531187
0.531187
0.531187
0.531187
0.531187
0.531187
0.531187
0.531187
0.531187
0.531187
0.531187
0.531187
0.531187
0.531187
0.531187
0.531187
0.531187
0.531187
0.531187
0.531187
0.531187
0.531187
0.531187
0.531187
0.531187
0.531187
0.531187
0.531187
0.531187
0.531187
0.531187
0.530841
0.530555
0.530593
0.530975
0.531016
0.531044
0.531072
0.531087
0.531111
0.53114
0.531187
0.531151
0.53115
0.531153
0.531155
0.531158
0.531159
0.531187
0.531187
0.531187
0.531187
0.531167
0.531168
0.531169
0.53117
0.531171
0.531171
0.531187
0.531187
0.531187
0.531187
0.531175
0.531172
0.531176
0.531177
0.531178
0.531179
0.531187
0.531187
0.531187
0.531187
0.531187
0.531181
0.531182
0.531182
0.531183
0.531183
0.531187
0.531187
0.531187
0.531187
0.531183
0.531183
0.531185
0.531185
0.531187
0.531187
0.531187
0.531187
0.531179
0.531187
0.531187
0.531178
0.531184
0.531153
0.531187
0.531187
0.531187
0.531187
0.531136
0.531167
0.531187
0.531187
0.531186
0.531151
0.531187
0.531187
0.531187
0.531187
0.531187
0.531187
0.531187
0.531187
0.531187
0.531187
0.531187
0.531187
0.531187
0.531187
0.531187
0.531187
0.531187
0.531187
0.531187
0.531187
0.531187
0.531187
0.531187
0.531187
0.531187
0.531187
0.531187
0.531187
0.531187
0.531187
0.531187
0.531187
0.531187
0.531187
0.531187
0.531187
0.531187
0.531187
0.531187
0.531187
0.531187
0.531187
0.531187
0.531187
0.531187
0.531187
0.531187
0.531187
0.531187
0.531187
0.531187
0.531187
0.531187
0.531187
0.531187
0.531187
0.531187
0.531187
0.531187
0.531187
0.531177
0.531186
0.531126
0.531161
0.531187
0.531187
0.531187
0.531187
0.530703
0.530774
0.530469
0.530538
0.531187
0.531187
0.531187
0.531187
0.529468
0.529469
0.529048
0.529027
0.531187
0.531187
0.531187
0.531187
0.527528
0.527363
0.526966
0.526787
0.531187
0.531187
0.531187
0.531187
0.525104
0.524776
0.524493
0.524137
0.531187
0.531187
0.531187
0.531187
0.522541
0.52203
0.521953
0.521417
0.531187
0.531187
0.531187
0.531187
0.520083
0.519417
0.519515
0.5189
0.531187
0.531187
0.531187
0.531187
0.517876
0.517102
0.517452
0.516698
0.531187
0.531187
0.531187
0.531187
0.516092
0.515188
0.515713
0.514885
0.531187
0.531187
0.531187
0.531187
0.51459
0.513538
0.514268
0.513303
0.531187
0.531187
0.531187
0.531187
0.513173
0.512015
0.512869
0.511794
0.531187
0.531187
0.531187
0.531187
0.511613
0.510415
0.511125
0.512159
0.514069
0.531187
0.510722
0.508545
0.512982
0.506901
0.506712
0.481389
0.531187
0.531187
0.531187
0.531187
0.531187
0.531187
)
;

boundaryField
{
    inlet
    {
        type            calculated;
        value           uniform 0;
    }
    outlet
    {
        type            calculated;
        value           uniform 0;
    }
    sideWall
    {
        type            empty;
    }
}


// ************************************************************************* //
