/*--------------------------------*- C++ -*----------------------------------*\
| =========                 |                                                 |
| \\      /  F ield         | foam-extend: Open Source CFD                    |
|  \\    /   O peration     | Version:     3.2                                |
|   \\  /    A nd           | Web:         http://www.foam-extend.org         |
|    \\/     M anipulation  | For copyright notice see file Copyright         |
\*---------------------------------------------------------------------------*/
FoamFile
{
    version     2.0;
    format      ascii;
    class       areaScalarField;
    location    "2000";
    object      dd;
}
// * * * * * * * * * * * * * * * * * * * * * * * * * * * * * * * * * * * * * //

dimensions      [0 1 0 0 0 0 0];

internalField   nonuniform List<scalar> 
300
(
0.000405
0.000405
0.000405
0.000405
0.000405
0.000405
0.000405
0.000405
0.000405
0.000405
0.000405
0.000405
0.000405
0.000405
0.000405
0.000405
0.000405
0.000405
0.000405
0.000405
0.000405
0.000405
0.000405
0.000405
0.000405
0.000405
0.000405
0.000405
0.000405
0.000405
0.000405
0.000405
0.000405
0.000405
0.000405
0.000405
0.000405
0.000405
0.000405
0.000405
0.000405
0.000405
0.000405
0.000405
0.000405
0.000405
0.000405
0.000405
0.000405
0.000405
0.000405
0.000405
0.000405
0.000405
0.000405
0.000405
0.000405
0.000405
0.000405
0.00150027
0.0032062
0.00339261
0.00299213
0.00299316
0.00297513
0.00296743
0.00294681
0.00292859
0.00290882
0.0028895
0.0028705
0.00285269
0.00283653
0.00282169
0.00280824
0.00279622
0.00278561
0.00277639
0.0027685
0.00276172
0.002756
0.00275136
0.00274747
0.00274431
0.00274187
0.00273986
0.00273829
0.0027372
0.00273631
0.00273564
0.00273514
0.00273476
0.00273461
0.00273447
0.00273439
0.00273444
0.00273445
0.00273449
0.00273449
0.00273448
0.00273461
0.00273465
0.00273469
0.00273469
0.00273466
0.00273477
0.00273479
0.00273481
0.00273478
0.00273473
0.00273482
0.00273482
0.00273482
0.00273477
0.0027347
0.00273478
0.00273478
0.00273478
0.00273472
0.00273467
0.00273473
0.00273472
0.00273471
0.00273467
0.00273461
0.00273465
0.00273469
0.00273461
0.00273463
0.00273454
0.00273464
0.00273457
0.00273461
0.00273452
0.00273456
0.00273455
0.00273463
0.00273457
0.00273479
0.00273472
0.00273489
0.00273476
0.00273494
0.00273489
0.0027351
0.00273497
0.00273518
0.002735
0.00273536
0.00273518
0.00273551
0.0027353
0.00273565
0.00273553
0.00273591
0.00273574
0.00273626
0.00273609
0.00273657
0.00273636
0.00273683
0.00273671
0.00273721
0.00273703
0.0027375
0.00273729
0.00273787
0.0027377
0.00273822
0.00273817
0.00273867
0.00273859
0.00273915
0.00273909
0.00273954
0.00273947
0.00273984
0.00273988
0.0027402
0.00274021
0.00274057
0.0027406
0.00274085
0.00274086
0.00274101
0.00274113
0.00274122
0.0027413
0.00274143
0.00274153
0.00274155
0.00274174
0.00274169
0.00274183
0.0027418
0.00274196
0.00274181
0.00274195
0.00274172
0.00274196
0.00274168
0.00274188
0.00274165
0.00274186
0.00274154
0.00274183
0.00274147
0.00274169
0.00274138
0.00274158
0.00274119
0.00274145
0.00274104
0.00274123
0.00274089
0.00274105
0.00274063
0.00274083
0.00274039
0.00274052
0.00274016
0.00274028
0.00273987
0.00274003
0.0027396
0.00273965
0.0027393
0.00273934
0.00273897
0.00273908
0.00273872
0.00273873
0.00273842
0.00273837
0.00273802
0.00273806
0.00273775
0.00273772
0.00273751
0.00273746
0.00273715
0.00273712
0.00273696
0.00273693
0.00273674
0.00273681
0.00273662
0.00273655
0.00273642
0.00273629
0.00273608
0.00273607
0.00273593
0.00273587
0.00273582
0.00273584
0.00273573
0.00273561
0.00273556
0.00273549
0.00273541
0.00273546
0.0027354
0.00273531
0.00273527
0.00273524
0.00273517
0.00273511
0.00273515
0.00273515
0.00273513
0.00273514
0.00273516
0.00273507
0.00273501
0.00273505
0.00273514
0.00273521
0.0027352
0.00273522
0.0027352
0.00273504
0.00273494
0.0027352
0.00273463
0.00273636
0.00273621
0.00273327
0.0027333
0.00273379
0.00273524
0.00273559
0.00274459
0.00271009
0.00274363
0.00263314
0.00142483
0.000405
0.000405
0.000405
)
;

boundaryField
{
    inlet
    {
        type            calculated;
        value           uniform 0;
    }
    outlet
    {
        type            calculated;
        value           uniform 0;
    }
    sideWall
    {
        type            empty;
    }
}


// ************************************************************************* //
