/*--------------------------------*- C++ -*----------------------------------*\
| =========                 |                                                 |
| \\      /  F ield         | foam-extend: Open Source CFD                    |
|  \\    /   O peration     | Version:     3.2                                |
|   \\  /    A nd           | Web:         http://www.foam-extend.org         |
|    \\/     M anipulation  | For copyright notice see file Copyright         |
\*---------------------------------------------------------------------------*/
FoamFile
{
    version     2.0;
    format      ascii;
    class       areaScalarField;
    location    "2000";
    object      ddmax;
}
// * * * * * * * * * * * * * * * * * * * * * * * * * * * * * * * * * * * * * //

dimensions      [0 1 0 0 0 0 0];

internalField   nonuniform List<scalar> 
300
(
0.000405
0.000405
0.000405
0.000405
0.000405
0.000405
0.000405
0.000405
0.000405
0.000405
0.000405
0.000405
0.000405
0.000405
0.000405
0.000405
0.000405
0.000405
0.000405
0.000405
0.000405
0.000405
0.000405
0.000405
0.000405
0.000405
0.000405
0.000405
0.000405
0.000405
0.000405
0.000405
0.000405
0.000405
0.000405
0.000405
0.000405
0.000405
0.000405
0.000405
0.000405
0.000405
0.000405
0.000405
0.000405
0.000405
0.000405
0.000405
0.000405
0.000405
0.000405
0.000405
0.000405
0.000405
0.000405
0.000405
0.000405
0.000405
0.000405
0.00150038
0.00320662
0.00339303
0.00299226
0.00299327
0.00297522
0.0029675
0.00294687
0.00292863
0.00290885
0.00288952
0.00287053
0.00285271
0.00283655
0.00282171
0.00280826
0.00279624
0.00278562
0.0027764
0.00276852
0.00276173
0.00275602
0.00275137
0.00274748
0.00274432
0.00274188
0.00273987
0.0027383
0.00273721
0.00273631
0.00273565
0.00273514
0.00273476
0.00273462
0.00273448
0.00273439
0.00273445
0.00273446
0.00273449
0.0027345
0.00273449
0.00273461
0.00273465
0.00273469
0.00273469
0.00273466
0.00273477
0.00273479
0.00273481
0.00273478
0.00273473
0.00273482
0.00273482
0.00273482
0.00273477
0.00273471
0.00273478
0.00273478
0.00273478
0.00273472
0.00273467
0.00273473
0.00273473
0.00273472
0.00273469
0.00273461
0.00273467
0.00273469
0.00273465
0.00273466
0.00273455
0.00273467
0.00273459
0.00273461
0.00273454
0.00273456
0.00273455
0.00273463
0.00273457
0.00273479
0.00273472
0.00273489
0.00273476
0.00273494
0.00273489
0.0027351
0.00273497
0.00273518
0.002735
0.00273536
0.00273518
0.00273551
0.0027353
0.00273565
0.00273553
0.00273591
0.00273574
0.00273626
0.00273609
0.00273657
0.00273636
0.00273683
0.00273671
0.00273721
0.00273703
0.0027375
0.00273729
0.00273787
0.0027377
0.00273822
0.00273817
0.00273867
0.00273859
0.00273915
0.00273909
0.00273954
0.00273947
0.00273984
0.00273988
0.0027402
0.00274021
0.00274057
0.0027406
0.00274085
0.00274086
0.00274101
0.00274113
0.00274122
0.0027413
0.00274143
0.00274153
0.00274155
0.00274174
0.00274169
0.00274183
0.0027418
0.00274196
0.00274184
0.00274197
0.0027418
0.00274202
0.00274185
0.00274201
0.00274193
0.0027421
0.00274195
0.0027422
0.00274204
0.00274223
0.00274214
0.00274233
0.00274218
0.00274244
0.00274227
0.00274248
0.00274238
0.00274258
0.00274241
0.00274269
0.0027425
0.00274272
0.0027426
0.00274283
0.00274264
0.00274294
0.00274273
0.00274297
0.00274283
0.00274307
0.00274286
0.00274318
0.00274294
0.00274321
0.00274303
0.0027433
0.00274306
0.0027434
0.00274314
0.00274343
0.00274323
0.00274353
0.00274326
0.00274364
0.00274347
0.00274384
0.00274359
0.00274402
0.00274373
0.00274411
0.00274387
0.00274424
0.00274392
0.00274437
0.00274402
0.00274443
0.00274413
0.00274466
0.00274431
0.00274479
0.00274448
0.00274496
0.00274456
0.00274512
0.00274468
0.00274519
0.00274481
0.00274544
0.002745
0.00274559
0.00274518
0.00274578
0.00274528
0.00274597
0.00274555
0.00274622
0.00274572
0.00274648
0.00274604
0.00274677
0.00274623
0.002747
0.00274644
0.00274719
0.00274662
0.00274762
0.00274661
0.0027477
0.00274637
0.002746
0.00274552
0.00274739
0.00274607
0.00275023
0.0027594
0.00274161
0.00295437
0.00282441
0.00144473
0.000405
0.000405
0.000405
)
;

boundaryField
{
    inlet
    {
        type            calculated;
        value           uniform 0;
    }
    outlet
    {
        type            calculated;
        value           uniform 0;
    }
    sideWall
    {
        type            empty;
    }
}


// ************************************************************************* //
