/*--------------------------------*- C++ -*----------------------------------*\
| =========                 |                                                 |
| \\      /  F ield         | foam-extend: Open Source CFD                    |
|  \\    /   O peration     | Version:     3.2                                |
|   \\  /    A nd           | Web:         http://www.foam-extend.org         |
|    \\/     M anipulation  | For copyright notice see file Copyright         |
\*---------------------------------------------------------------------------*/
FoamFile
{
    version     2.0;
    format      ascii;
    class       areaScalarField;
    location    "2000";
    object      deltaHb;
}
// * * * * * * * * * * * * * * * * * * * * * * * * * * * * * * * * * * * * * //

dimensions      [0 1 -1 0 0 0 0];

internalField   nonuniform List<scalar> 
300
(
0
0
0
0
0
0
0
0
0
0
0
0
0
0
0
0
0
0
0
0
0
0
0
0
0
0
0
0
0
0
0
0
0
0
0
0
0
0
0
0
0
0
0
0
0
0
0
0
0
0
0
0
0
0
0
0
0
0
0
0
0
0
0
0
0
0
0
0
0
0
-6.21562e-09
-8.00595e-09
-7.56979e-09
-5.9756e-09
-4.71679e-09
-3.66967e-09
-2.62236e-09
-1.86165e-09
-1.19168e-09
8.6504e-11
2.29063e-11
3.5163e-11
8.07435e-10
4.48188e-10
3.6477e-10
9.4795e-10
4.18692e-10
3.82492e-10
7.11724e-10
6.10236e-10
9.40164e-10
3.4108e-10
2.04735e-11
5.75498e-10
-4.21359e-11
-1.3164e-10
2.81387e-10
1.12637e-10
4.83304e-10
-4.84183e-11
-1.61724e-10
2.1528e-10
-9.64279e-14
3.67375e-10
-1.09576e-10
-2.60345e-10
1.23803e-10
-2.9332e-11
3.62465e-10
-9.51455e-11
-2.13466e-10
1.50483e-10
-5.53951e-11
3.61061e-10
-1.49467e-10
-1.7258e-10
1.12528e-10
7.22086e-12
3.76012e-10
-1.38287e-10
-1.73176e-10
4.30818e-11
2.2282e-10
2.59894e-10
-1.21077e-10
-4.41414e-10
3.30725e-10
-2.31785e-11
9.35286e-10
-8.0976e-10
-1.02943e-10
2.60301e-11
5.73073e-10
8.95223e-11
1.95752e-10
-7.97272e-10
8.2081e-10
-7.06327e-10
2.37481e-10
-3.71208e-10
5.35897e-10
-1.46777e-10
5.91212e-10
-9.20477e-10
9.90608e-10
-7.94129e-10
1.31176e-09
-8.4895e-10
6.67363e-10
-5.63847e-10
9.1641e-10
-3.79227e-10
9.48727e-10
-1.17076e-09
1.37106e-09
-1.04357e-09
7.02424e-10
-6.22688e-10
8.99848e-10
-3.15698e-10
8.09044e-10
-9.76838e-10
1.0844e-09
-6.8494e-10
1.20651e-09
-5.96472e-10
3.49732e-10
-8.91126e-11
3.76148e-10
-6.99429e-10
6.85068e-10
-4.09379e-10
-8.21592e-11
1.06969e-10
-7.5101e-12
4.51199e-10
-1.19929e-10
-2.06426e-10
1.51223e-10
4.78165e-11
-6.01734e-10
5.26065e-10
-5.06726e-10
8.69381e-10
-6.14427e-10
2.16518e-10
-3.15992e-10
4.40792e-10
-1.07194e-09
9.52608e-10
-9.75497e-10
3.64419e-10
-6.04981e-10
6.2614e-10
-1.23313e-09
1.24035e-09
-8.69533e-10
6.90804e-10
-1.27666e-09
3.6726e-10
-7.1707e-10
3.67338e-09
1.36328e-09
2.43385e-09
3.77342e-10
-4.48832e-09
-4.94981e-09
3.45466e-10
-1.24751e-09
1.20699e-08
1.03017e-08
2.87318e-09
2.39998e-09
-1.38773e-08
-1.52684e-08
6.24476e-10
-7.76969e-10
2.41739e-08
2.50044e-08
3.84098e-09
3.06948e-09
-2.73976e-08
-2.96388e-08
-8.18718e-11
5.24352e-12
4.03407e-08
4.20847e-08
4.57259e-09
3.94148e-09
-4.45117e-08
-4.65666e-08
-4.71561e-11
-2.41929e-10
5.78912e-08
6.0915e-08
3.96503e-09
4.39978e-09
-6.15875e-08
-6.50952e-08
2.67536e-10
1.43736e-10
7.39725e-08
7.85728e-08
4.04367e-09
3.6139e-09
-7.81813e-08
-8.18097e-08
5.09633e-11
2.39695e-11
8.95806e-08
9.46782e-08
2.94075e-09
3.2151e-09
-9.19689e-08
-9.73529e-08
-7.85949e-11
3.49442e-10
1.01465e-07
1.07611e-07
2.98438e-09
2.20746e-09
-1.03987e-07
-1.09353e-07
1.96143e-10
-1.54781e-10
1.11631e-07
1.19384e-07
2.1826e-09
1.60745e-09
-1.136e-07
-1.20492e-07
-2.44491e-10
-1.92934e-10
1.21822e-07
1.29664e-07
1.8421e-09
1.28735e-09
-1.23444e-07
-1.31076e-07
9.14541e-11
-2.6605e-10
1.33493e-07
1.37968e-07
7.43758e-09
-1.11857e-08
-3.06695e-08
0
0
0
0
0
0
0
0
0
0
0
0
0
0
)
;

boundaryField
{
    inlet
    {
        type            zeroGradient;
    }
    outlet
    {
        type            zeroGradient;
    }
    sideWall
    {
        type            empty;
    }
}


// ************************************************************************* //
