/*--------------------------------*- C++ -*----------------------------------*\
| =========                 |                                                 |
| \\      /  F ield         | foam-extend: Open Source CFD                    |
|  \\    /   O peration     | Version:     3.2                                |
|   \\  /    A nd           | Web:         http://www.foam-extend.org         |
|    \\/     M anipulation  | For copyright notice see file Copyright         |
\*---------------------------------------------------------------------------*/
FoamFile
{
    version     2.0;
    format      ascii;
    class       areaScalarField;
    location    "2000";
    object      deltaHs1;
}
// * * * * * * * * * * * * * * * * * * * * * * * * * * * * * * * * * * * * * //

dimensions      [0 1 -1 0 0 0 0];

internalField   nonuniform List<scalar> 
300
(
-1.62927e-07
-3.50431e-06
-6.61049e-07
1.56129e-06
2.7488e-06
3.21784e-06
3.39721e-06
3.41921e-06
3.38973e-06
3.32905e-06
3.2558e-06
3.18082e-06
3.10785e-06
3.03049e-06
2.95605e-06
2.88007e-06
2.79927e-06
2.71841e-06
2.63527e-06
2.55127e-06
2.46675e-06
2.38166e-06
2.29376e-06
2.20323e-06
2.11541e-06
2.0343e-06
1.9609e-06
1.89611e-06
1.8397e-06
1.79126e-06
1.74965e-06
1.71404e-06
1.68432e-06
1.65993e-06
1.64037e-06
1.62414e-06
1.61071e-06
1.5993e-06
1.5898e-06
1.58156e-06
1.57476e-06
1.56872e-06
1.56388e-06
1.55939e-06
1.556e-06
1.55259e-06
1.55026e-06
1.54761e-06
1.54611e-06
1.54361e-06
1.54386e-06
1.53923e-06
1.54527e-06
1.5298e-06
1.55984e-06
1.49494e-06
1.63321e-06
1.37057e-06
2.30129e-06
4.21916e-06
-1.98756e-11
-3.74884e-11
3.08744e-11
-4.28529e-11
3.67007e-11
-4.38843e-11
3.88607e-11
-4.38824e-11
3.97679e-11
-4.3051e-11
6.49291e-09
7.95543e-09
7.59863e-09
5.91944e-09
4.7456e-09
3.44995e-09
2.49708e-09
1.83067e-09
1.24313e-09
1.17687e-11
1.52265e-10
-8.07004e-11
-7.74081e-10
-4.93913e-10
-3.28287e-10
-1.08003e-09
-4.75417e-10
-4.10827e-10
-6.68774e-10
-5.58065e-10
-8.18849e-10
-3.76306e-10
-4.9897e-12
-6.13503e-10
6.38022e-11
4.69596e-11
-3.02066e-10
-1.37809e-10
-4.5364e-10
2.27824e-11
2.26142e-10
-2.07624e-10
2.60096e-11
-3.99445e-10
1.27747e-10
2.17892e-10
-1.33539e-10
1.85655e-11
-3.56917e-10
1.09916e-10
2.45142e-10
-1.49865e-10
3.51758e-11
-3.71232e-10
1.29464e-10
1.75015e-10
-5.97808e-11
-7.52415e-11
-2.27433e-10
-9.07955e-11
5.0855e-10
-3.88571e-10
1.84449e-10
-5.48364e-10
1.32211e-10
3.86794e-10
-6.13713e-10
7.92151e-10
-1.65365e-09
1.63399e-09
-1.61592e-09
1.94516e-09
-2.43121e-09
2.45521e-09
-3.17016e-09
4.23985e-09
-4.64517e-09
5.20474e-09
-5.19601e-09
6.15969e-09
-6.8268e-09
7.4562e-09
-8.44993e-09
9.98709e-09
-1.06652e-08
1.18675e-08
-1.30528e-08
1.4184e-08
-1.47254e-08
1.64136e-08
-1.75357e-08
1.8983e-08
-2.03586e-08
2.27453e-08
-2.37792e-08
2.57813e-08
-2.62872e-08
2.86699e-08
-2.97876e-08
3.1783e-08
-3.30867e-08
3.59096e-08
-3.67783e-08
3.90686e-08
-4.02794e-08
4.23483e-08
-4.26978e-08
4.50561e-08
-4.58249e-08
4.86558e-08
-4.89901e-08
5.10596e-08
-5.07661e-08
5.28666e-08
-5.29973e-08
5.44373e-08
-5.46706e-08
5.66054e-08
-5.6311e-08
5.74616e-08
-5.65723e-08
5.77165e-08
-5.7303e-08
5.77179e-08
-5.74484e-08
5.83234e-08
-5.76113e-08
5.76633e-08
-5.63401e-08
5.63319e-08
-5.5548e-08
5.57315e-08
-5.46747e-08
5.39804e-08
-5.2438e-08
5.16091e-08
-5.07515e-08
4.91122e-08
-4.86055e-08
4.72816e-08
-4.67114e-08
4.43864e-08
-4.36318e-08
4.10545e-08
-4.12394e-08
3.86635e-08
-3.90395e-08
3.54317e-08
-3.57656e-08
3.19134e-08
-3.3262e-08
2.94561e-08
-3.10699e-08
2.62532e-08
-2.78623e-08
2.29101e-08
-2.55073e-08
2.0753e-08
-2.35635e-08
1.79182e-08
-2.07107e-08
1.49688e-08
-1.86896e-08
1.32942e-08
-1.70621e-08
1.10418e-08
-1.46614e-08
8.60262e-09
-1.30673e-08
7.34924e-09
-1.18546e-08
5.75062e-09
-9.88246e-09
4.08344e-09
-8.91385e-09
3.36345e-09
-8.10249e-09
2.04297e-09
-6.59668e-09
1.00692e-09
-5.89425e-09
9.47971e-10
-4.80337e-09
-2.48211e-10
-4.52267e-09
-3.12081e-10
-4.22549e-09
-7.85526e-10
-3.14225e-09
-1.31747e-09
-3.06165e-09
-1.10852e-09
-3.10748e-09
-1.55321e-09
-2.15079e-09
-1.0927e-09
-2.30741e-09
-1.2611e-09
-1.78048e-09
-1.80548e-09
-1.95057e-09
-1.4149e-09
-1.99994e-09
-1.50607e-09
-1.20926e-09
-9.6569e-10
-1.80124e-09
-1.31513e-09
-1.47379e-09
-1.76669e-09
-1.54469e-09
-9.65203e-10
-1.02793e-09
-1.38949e-09
-1.45576e-09
-1.03312e-09
-1.21484e-09
-1.73221e-09
-1.4699e-09
-1.1026e-09
-1.22336e-09
-2.8095e-09
1.48874e-09
-5.95677e-09
4.65014e-09
-8.48697e-09
9.23313e-12
-6.308e-12
-6.59155e-12
-3.37353e-12
-3.67006e-12
-8.55643e-13
-1.28826e-12
4.99669e-13
8.74199e-14
1.26487e-12
3.19566e-06
3.1034e-06
2.1529e-06
1.95471e-06
)
;

boundaryField
{
    inlet
    {
        type            zeroGradient;
    }
    outlet
    {
        type            zeroGradient;
    }
    sideWall
    {
        type            empty;
    }
}


// ************************************************************************* //
