/*--------------------------------*- C++ -*----------------------------------*\
| =========                 |                                                 |
| \\      /  F ield         | foam-extend: Open Source CFD                    |
|  \\    /   O peration     | Version:     3.2                                |
|   \\  /    A nd           | Web:         http://www.foam-extend.org         |
|    \\/     M anipulation  | For copyright notice see file Copyright         |
\*---------------------------------------------------------------------------*/
FoamFile
{
    version     2.0;
    format      ascii;
    class       areaScalarField;
    location    "2000";
    object      deltaH;
}
// * * * * * * * * * * * * * * * * * * * * * * * * * * * * * * * * * * * * * //

dimensions      [0 1 -1 0 0 0 0];

internalField   nonuniform List<scalar> 
300
(
0
0
0
0
0
0
0
0
0
0
0
0
0
0
0
0
0
0
0
0
0
0
0
0
0
0
0
0
0
0
0
0
0
0
0
0
0
0
0
0
0
0
0
0
0
0
0
0
0
0
0
0
0
0
0
0
0
0
0
0
-1.98756e-11
-3.74884e-11
3.08744e-11
-4.28529e-11
3.67007e-11
-4.38843e-11
3.88607e-11
-4.38824e-11
3.97679e-11
-4.3051e-11
2.77289e-10
-5.052e-11
2.88339e-11
-5.61644e-11
2.88129e-11
-2.19713e-10
-1.25282e-10
-3.09719e-11
5.14555e-11
9.82727e-11
1.75171e-10
-4.55374e-11
3.33544e-11
-4.57252e-11
3.64825e-11
-1.32076e-10
-5.67256e-11
-2.83349e-11
4.29502e-11
5.2171e-11
1.21315e-10
-3.52263e-11
1.54838e-11
-3.80048e-11
2.16663e-11
-8.46803e-11
-2.06794e-11
-2.5172e-11
2.96637e-11
-2.56359e-11
6.44178e-11
7.65627e-12
2.59131e-11
-3.20698e-11
1.81714e-11
-4.24527e-11
-9.73625e-12
-1.07665e-11
5.54783e-12
1.47702e-11
3.16762e-11
6.1816e-13
-2.02193e-11
-1.01713e-11
-2.00021e-11
2.43509e-12
5.27476e-11
-6.80206e-11
1.48579e-10
-2.29083e-10
3.35375e-10
-3.4549e-10
4.07269e-10
-2.88471e-10
1.11332e-11
-5.46201e-11
-2.82988e-10
7.68973e-10
-7.18367e-10
8.2423e-10
-1.71887e-09
1.97119e-09
-1.85814e-09
2.54474e-09
-2.9744e-09
3.44257e-09
-3.82436e-09
4.49841e-09
-4.95853e-09
5.78848e-09
-6.2909e-09
7.30942e-09
-7.85872e-09
9.06662e-09
-9.67464e-09
1.10734e-08
-1.17411e-08
1.33351e-08
-1.40581e-08
1.58497e-08
-1.66193e-08
1.86037e-08
-1.94098e-08
2.15746e-08
-2.24081e-08
2.47377e-08
-2.55847e-08
2.80472e-08
-2.88878e-08
3.14673e-08
-3.22776e-08
3.49328e-08
-3.56939e-08
3.83837e-08
-3.90728e-08
4.17518e-08
-4.23481e-08
4.49669e-08
-4.54488e-08
4.79564e-08
-4.83051e-08
5.06502e-08
-5.08482e-08
5.29736e-08
-5.30048e-08
5.48885e-08
-5.47906e-08
5.6399e-08
-5.61598e-08
5.75094e-08
-5.7174e-08
5.82425e-08
-5.78098e-08
5.85873e-08
-5.80629e-08
5.854e-08
-5.79273e-08
5.81041e-08
-5.7412e-08
5.72845e-08
-5.65235e-08
5.60959e-08
-5.52797e-08
5.46065e-08
-5.36712e-08
5.28495e-08
-5.1621e-08
4.9803e-08
-4.98822e-08
4.76489e-08
-4.74285e-08
4.80598e-08
-4.22685e-08
4.34883e-08
-4.0862e-08
3.41752e-08
-4.39893e-08
3.57771e-08
-3.70131e-08
4.39833e-08
-2.29603e-08
3.23293e-08
-2.86699e-08
1.23759e-08
-4.31307e-08
2.35346e-08
-2.62842e-08
4.49269e-08
1.44086e-09
2.17591e-08
-1.76412e-08
-1.24288e-08
-4.83284e-08
1.32123e-08
-1.70568e-08
5.13824e-08
2.74233e-08
1.31752e-08
-9.12586e-09
-3.71625e-08
-5.84211e-08
5.70346e-09
-1.01244e-08
6.19746e-08
5.20011e-08
7.32848e-09
-3.70271e-09
-5.95445e-08
-7.16919e-08
1.27445e-09
-5.75052e-09
7.49205e-08
7.37695e-08
3.79546e-09
-9.08762e-10
-7.84934e-08
-8.60352e-08
-7.34563e-10
-3.11828e-09
8.82631e-08
9.16165e-08
1.83223e-09
1.07624e-10
-9.35221e-08
-9.95037e-08
-1.1713e-09
-1.95797e-09
1.00204e-07
1.05831e-07
1.1789e-09
2.56886e-10
-1.05402e-07
-1.11353e-07
-1.30992e-09
-1.36404e-09
1.10666e-07
1.17583e-07
8.6747e-10
1.33659e-10
-1.15367e-07
-1.22037e-07
-1.20969e-09
-1.22086e-09
1.20433e-07
1.28208e-07
8.08977e-10
7.25081e-11
-1.25176e-07
-1.32546e-07
-1.01114e-09
-1.48941e-09
1.30683e-07
1.39456e-07
1.48081e-09
-6.53556e-09
-3.91565e-08
9.23313e-12
-6.308e-12
-6.59155e-12
-3.37353e-12
-3.67006e-12
-8.55643e-13
-1.28826e-12
4.99669e-13
8.74199e-14
1.26487e-12
0
0
0
0
)
;

boundaryField
{
    inlet
    {
        type            zeroGradient;
    }
    outlet
    {
        type            zeroGradient;
    }
    sideWall
    {
        type            empty;
    }
}


// ************************************************************************* //
