/*--------------------------------*- C++ -*----------------------------------*\
| =========                 |                                                 |
| \\      /  F ield         | foam-extend: Open Source CFD                    |
|  \\    /   O peration     | Version:     3.2                                |
|   \\  /    A nd           | Web:         http://www.foam-extend.org         |
|    \\/     M anipulation  | For copyright notice see file Copyright         |
\*---------------------------------------------------------------------------*/
FoamFile
{
    version     2.0;
    format      ascii;
    class       volScalarField;
    location    "2000";
    object      DiSSt;
}
// * * * * * * * * * * * * * * * * * * * * * * * * * * * * * * * * * * * * * //

dimensions      [0 2 -1 0 0 0 0];

internalField   nonuniform List<scalar> 
2400
(
2.58005e-05
2.85057e-05
2.25993e-05
1.90321e-05
1.78406e-05
1.73437e-05
1.72365e-05
1.7539e-05
1.79827e-05
1.84294e-05
1.88208e-05
1.91627e-05
1.94329e-05
1.9699e-05
1.99129e-05
2.01093e-05
2.02959e-05
2.04586e-05
2.06059e-05
2.0742e-05
2.08649e-05
2.09827e-05
2.11086e-05
2.12422e-05
2.13713e-05
2.14883e-05
2.15919e-05
2.16801e-05
2.17542e-05
2.18149e-05
2.1865e-05
2.19052e-05
2.19369e-05
2.19608e-05
2.19788e-05
2.19924e-05
2.20034e-05
2.20117e-05
2.20187e-05
2.2024e-05
2.20288e-05
2.20324e-05
2.20358e-05
2.20383e-05
2.20408e-05
2.20424e-05
2.20445e-05
2.20454e-05
2.20469e-05
2.20481e-05
2.20455e-05
2.20547e-05
2.20388e-05
2.20738e-05
2.20017e-05
2.21542e-05
2.18307e-05
2.24924e-05
2.04359e-05
2.49626e-05
2.93552e-05
2.6359e-05
2.2715e-05
2.35613e-05
2.33485e-05
2.36413e-05
2.3722e-05
2.38732e-05
2.40002e-05
2.40962e-05
2.41712e-05
2.42359e-05
2.42901e-05
2.43339e-05
2.437e-05
2.43992e-05
2.44228e-05
2.44414e-05
2.44568e-05
2.44678e-05
2.44756e-05
2.44828e-05
2.44864e-05
2.44885e-05
2.44915e-05
2.44919e-05
2.44917e-05
2.44924e-05
2.44913e-05
2.44909e-05
2.44898e-05
2.44885e-05
2.44885e-05
2.44874e-05
2.44863e-05
2.44869e-05
2.44855e-05
2.44851e-05
2.44844e-05
2.44835e-05
2.44844e-05
2.44834e-05
2.44833e-05
2.44831e-05
2.44823e-05
2.44835e-05
2.44826e-05
2.44827e-05
2.44826e-05
2.44819e-05
2.44832e-05
2.44823e-05
2.44824e-05
2.44825e-05
2.44818e-05
2.44832e-05
2.44819e-05
2.44825e-05
2.44822e-05
2.44819e-05
2.44826e-05
2.44823e-05
2.44825e-05
2.44822e-05
2.4482e-05
2.44822e-05
2.44829e-05
2.4481e-05
2.44847e-05
2.44782e-05
2.44866e-05
2.44782e-05
2.44862e-05
2.44776e-05
2.44862e-05
2.44761e-05
2.4489e-05
2.44731e-05
2.44909e-05
2.44722e-05
2.44913e-05
2.44709e-05
2.44915e-05
2.44691e-05
2.44941e-05
2.44656e-05
2.44967e-05
2.44618e-05
2.44989e-05
2.44601e-05
2.44995e-05
2.4458e-05
2.44999e-05
2.44553e-05
2.45028e-05
2.44512e-05
2.45047e-05
2.44493e-05
2.45046e-05
2.44475e-05
2.45041e-05
2.44456e-05
2.45055e-05
2.44425e-05
2.45062e-05
2.44398e-05
2.45062e-05
2.44398e-05
2.45041e-05
2.44393e-05
2.45041e-05
2.44376e-05
2.4503e-05
2.44386e-05
2.44999e-05
2.44394e-05
2.44971e-05
2.44399e-05
2.44966e-05
2.44394e-05
2.44954e-05
2.44407e-05
2.44929e-05
2.4442e-05
2.44901e-05
2.44436e-05
2.44889e-05
2.44443e-05
2.44873e-05
2.44468e-05
2.44844e-05
2.44491e-05
2.44831e-05
2.44504e-05
2.44816e-05
2.44532e-05
2.44792e-05
2.44557e-05
2.44769e-05
2.44584e-05
2.44762e-05
2.446e-05
2.44755e-05
2.44629e-05
2.44738e-05
2.44656e-05
2.44736e-05
2.4467e-05
2.44735e-05
2.44697e-05
2.44724e-05
2.44719e-05
2.44728e-05
2.44731e-05
2.44733e-05
2.44752e-05
2.44727e-05
2.4477e-05
2.44735e-05
2.44774e-05
2.44745e-05
2.44789e-05
2.44746e-05
2.44803e-05
2.44757e-05
2.44799e-05
2.44772e-05
2.44805e-05
2.44772e-05
2.4482e-05
2.44779e-05
2.44819e-05
2.4479e-05
2.44824e-05
2.44793e-05
2.44823e-05
2.44799e-05
2.44832e-05
2.44809e-05
2.4483e-05
2.44813e-05
2.44828e-05
2.44818e-05
2.44832e-05
2.44817e-05
2.44838e-05
2.44824e-05
2.44834e-05
2.44827e-05
2.44831e-05
2.4482e-05
2.44831e-05
2.44821e-05
2.4483e-05
2.44828e-05
2.44834e-05
2.44827e-05
2.44823e-05
2.44825e-05
2.44824e-05
2.44821e-05
2.44829e-05
2.44825e-05
2.44824e-05
2.44822e-05
2.44822e-05
2.4482e-05
2.44813e-05
2.44825e-05
2.44821e-05
2.44821e-05
2.4482e-05
2.44826e-05
2.44816e-05
2.44812e-05
2.44814e-05
2.4482e-05
2.44827e-05
2.44822e-05
2.44826e-05
2.44816e-05
2.44822e-05
2.44788e-05
2.44917e-05
2.44671e-05
2.44871e-05
2.44902e-05
2.44672e-05
2.448e-05
2.4465e-05
2.45039e-05
2.44203e-05
2.4562e-05
2.45124e-05
2.39388e-05
2.71459e-05
2.07095e-05
1.87487e-05
2.0949e-05
2.14733e-05
1.79602e-05
2.06636e-05
2.74684e-05
3.07958e-05
3.32135e-05
3.55959e-05
3.7736e-05
3.95397e-05
4.11197e-05
4.24746e-05
4.36161e-05
4.45979e-05
4.54341e-05
4.61912e-05
4.68239e-05
4.74085e-05
4.7939e-05
4.84108e-05
4.88452e-05
4.92484e-05
4.96167e-05
4.99602e-05
5.02822e-05
5.05731e-05
5.08227e-05
5.10292e-05
5.11955e-05
5.1325e-05
5.14239e-05
5.14972e-05
5.15509e-05
5.15884e-05
5.16142e-05
5.16303e-05
5.16404e-05
5.16458e-05
5.1649e-05
5.165e-05
5.16509e-05
5.16504e-05
5.16507e-05
5.16498e-05
5.16499e-05
5.16489e-05
5.16491e-05
5.16478e-05
5.16484e-05
5.16469e-05
5.16475e-05
5.16462e-05
5.16443e-05
5.16493e-05
5.1639e-05
5.16599e-05
5.16159e-05
5.17073e-05
5.15062e-05
5.18242e-05
5.05894e-05
5.36675e-05
5.47096e-05
5.18907e-05
5.13029e-05
5.30156e-05
5.3455e-05
5.41642e-05
5.46169e-05
5.50327e-05
5.53699e-05
5.56242e-05
5.58241e-05
5.59824e-05
5.61036e-05
5.61951e-05
5.62628e-05
5.63115e-05
5.63449e-05
5.63663e-05
5.6379e-05
5.63837e-05
5.6384e-05
5.6381e-05
5.63747e-05
5.63671e-05
5.63598e-05
5.63511e-05
5.6343e-05
5.63359e-05
5.63283e-05
5.63223e-05
5.63163e-05
5.63111e-05
5.63076e-05
5.63036e-05
5.63003e-05
5.62987e-05
5.62959e-05
5.62943e-05
5.62927e-05
5.62914e-05
5.62915e-05
5.62902e-05
5.62898e-05
5.62893e-05
5.62888e-05
5.62895e-05
5.62886e-05
5.62887e-05
5.62885e-05
5.62882e-05
5.62891e-05
5.62882e-05
5.62885e-05
5.62885e-05
5.62881e-05
5.62892e-05
5.6288e-05
5.62886e-05
5.62883e-05
5.62882e-05
5.62887e-05
5.62885e-05
5.62886e-05
5.62884e-05
5.62883e-05
5.62886e-05
5.62888e-05
5.62875e-05
5.62904e-05
5.62848e-05
5.62923e-05
5.62839e-05
5.62915e-05
5.62829e-05
5.62913e-05
5.62814e-05
5.62934e-05
5.62782e-05
5.62949e-05
5.62762e-05
5.62948e-05
5.6274e-05
5.62946e-05
5.62716e-05
5.62963e-05
5.62674e-05
5.62981e-05
5.62629e-05
5.62996e-05
5.62594e-05
5.62992e-05
5.62555e-05
5.62987e-05
5.62514e-05
5.63002e-05
5.62457e-05
5.6301e-05
5.62413e-05
5.62997e-05
5.62371e-05
5.62982e-05
5.62331e-05
5.62981e-05
5.62279e-05
5.62978e-05
5.62231e-05
5.62968e-05
5.62201e-05
5.62936e-05
5.62173e-05
5.62923e-05
5.62136e-05
5.62905e-05
5.62119e-05
5.62868e-05
5.62109e-05
5.62833e-05
5.62104e-05
5.62817e-05
5.62092e-05
5.628e-05
5.62098e-05
5.62766e-05
5.62109e-05
5.62733e-05
5.62129e-05
5.62717e-05
5.62139e-05
5.62701e-05
5.62167e-05
5.6267e-05
5.62199e-05
5.62658e-05
5.62223e-05
5.62649e-05
5.62261e-05
5.62628e-05
5.62301e-05
5.62613e-05
5.62347e-05
5.62614e-05
5.62381e-05
5.62619e-05
5.62425e-05
5.62612e-05
5.62472e-05
5.62621e-05
5.62508e-05
5.62636e-05
5.62551e-05
5.62638e-05
5.62595e-05
5.62655e-05
5.62628e-05
5.62676e-05
5.62666e-05
5.62685e-05
5.62704e-05
5.62705e-05
5.62728e-05
5.62732e-05
5.62755e-05
5.62748e-05
5.62785e-05
5.62771e-05
5.62795e-05
5.62801e-05
5.62804e-05
5.62815e-05
5.62833e-05
5.62826e-05
5.62849e-05
5.62847e-05
5.62861e-05
5.62853e-05
5.62872e-05
5.62863e-05
5.62888e-05
5.6288e-05
5.62894e-05
5.62886e-05
5.62897e-05
5.62891e-05
5.629e-05
5.62892e-05
5.62909e-05
5.62901e-05
5.6291e-05
5.62905e-05
5.62905e-05
5.62898e-05
5.62903e-05
5.62895e-05
5.62904e-05
5.62901e-05
5.62904e-05
5.62897e-05
5.62893e-05
5.62892e-05
5.62889e-05
5.62886e-05
5.62891e-05
5.62887e-05
5.62888e-05
5.62886e-05
5.62883e-05
5.62879e-05
5.62872e-05
5.6288e-05
5.62875e-05
5.62876e-05
5.62876e-05
5.62881e-05
5.62871e-05
5.62869e-05
5.62868e-05
5.6287e-05
5.62874e-05
5.6287e-05
5.62874e-05
5.6287e-05
5.62875e-05
5.62856e-05
5.62942e-05
5.62735e-05
5.62921e-05
5.62873e-05
5.62746e-05
5.62856e-05
5.62747e-05
5.63013e-05
5.62338e-05
5.63571e-05
5.62413e-05
5.58327e-05
5.48463e-05
5.03035e-05
5.17304e-05
5.41191e-05
5.37718e-05
1.912e-05
1.65197e-05
1.93564e-05
2.3955e-05
2.93886e-05
3.50321e-05
3.96074e-05
4.40827e-05
4.81474e-05
5.17701e-05
5.50286e-05
5.79073e-05
6.04856e-05
6.27191e-05
6.44359e-05
6.59291e-05
6.72789e-05
6.85017e-05
6.96215e-05
7.0644e-05
7.15783e-05
7.24085e-05
7.31234e-05
7.3719e-05
7.42019e-05
7.45851e-05
7.48835e-05
7.51127e-05
7.52863e-05
7.54174e-05
7.55155e-05
7.55877e-05
7.56396e-05
7.56768e-05
7.57049e-05
7.57274e-05
7.5746e-05
7.57616e-05
7.57748e-05
7.57858e-05
7.57951e-05
7.58029e-05
7.58096e-05
7.58149e-05
7.58199e-05
7.58236e-05
7.58273e-05
7.58299e-05
7.58327e-05
7.58339e-05
7.58359e-05
7.58361e-05
7.58399e-05
7.58365e-05
7.58481e-05
7.58235e-05
7.58476e-05
7.52295e-05
7.36665e-05
7.85084e-05
7.7265e-05
7.25768e-05
7.4342e-05
7.56117e-05
7.68984e-05
7.78388e-05
7.86546e-05
7.93071e-05
7.9843e-05
8.02785e-05
8.06297e-05
8.09106e-05
8.11295e-05
8.12982e-05
8.14253e-05
8.15193e-05
8.15862e-05
8.16325e-05
8.16617e-05
8.16789e-05
8.16865e-05
8.16875e-05
8.16838e-05
8.16769e-05
8.16681e-05
8.16588e-05
8.16491e-05
8.16398e-05
8.16309e-05
8.16226e-05
8.16148e-05
8.16086e-05
8.16029e-05
8.15979e-05
8.15942e-05
8.15906e-05
8.15875e-05
8.15853e-05
8.15829e-05
8.15819e-05
8.15808e-05
8.15798e-05
8.15793e-05
8.15783e-05
8.15783e-05
8.15782e-05
8.15777e-05
8.15778e-05
8.15772e-05
8.15776e-05
8.15777e-05
8.15774e-05
8.15776e-05
8.15771e-05
8.15776e-05
8.15777e-05
8.15776e-05
8.15776e-05
8.1577e-05
8.15776e-05
8.15776e-05
8.15777e-05
8.15777e-05
8.15775e-05
8.15778e-05
8.15779e-05
8.15775e-05
8.15777e-05
8.15773e-05
8.15778e-05
8.1577e-05
8.15763e-05
8.15757e-05
8.15749e-05
8.15747e-05
8.15745e-05
8.15739e-05
8.15739e-05
8.15729e-05
8.15718e-05
8.15709e-05
8.15693e-05
8.15689e-05
8.15675e-05
8.1567e-05
8.15652e-05
8.15645e-05
8.15626e-05
8.15619e-05
8.15586e-05
8.15582e-05
8.15541e-05
8.15544e-05
8.15501e-05
8.15506e-05
8.15458e-05
8.15466e-05
8.15401e-05
8.15415e-05
8.15339e-05
8.15365e-05
8.15285e-05
8.15317e-05
8.15227e-05
8.15267e-05
8.1517e-05
8.15218e-05
8.15103e-05
8.15166e-05
8.15046e-05
8.15118e-05
8.14992e-05
8.15074e-05
8.14933e-05
8.15029e-05
8.14877e-05
8.14994e-05
8.14836e-05
8.14967e-05
8.14803e-05
8.14949e-05
8.14764e-05
8.14933e-05
8.14731e-05
8.14924e-05
8.14717e-05
8.1492e-05
8.1471e-05
8.14926e-05
8.14697e-05
8.14934e-05
8.14703e-05
8.14946e-05
8.14718e-05
8.14969e-05
8.14729e-05
8.14992e-05
8.14748e-05
8.15021e-05
8.14785e-05
8.15055e-05
8.14828e-05
8.15096e-05
8.14863e-05
8.15136e-05
8.14915e-05
8.15178e-05
8.14972e-05
8.15227e-05
8.15017e-05
8.15272e-05
8.15077e-05
8.15317e-05
8.1514e-05
8.15368e-05
8.1519e-05
8.15413e-05
8.1525e-05
8.15454e-05
8.15309e-05
8.15501e-05
8.15355e-05
8.15542e-05
8.15412e-05
8.15577e-05
8.15461e-05
8.15614e-05
8.15494e-05
8.15643e-05
8.15542e-05
8.15668e-05
8.15589e-05
8.15697e-05
8.15613e-05
8.15717e-05
8.15647e-05
8.15735e-05
8.15687e-05
8.15757e-05
8.15709e-05
8.1577e-05
8.1573e-05
8.15779e-05
8.15739e-05
8.15783e-05
8.15762e-05
8.15791e-05
8.15778e-05
8.15798e-05
8.15776e-05
8.15793e-05
8.15775e-05
8.15786e-05
8.15781e-05
8.15792e-05
8.15787e-05
8.15786e-05
8.15782e-05
8.1578e-05
8.15767e-05
8.1577e-05
8.15769e-05
8.1577e-05
8.15771e-05
8.15773e-05
8.15769e-05
8.15761e-05
8.15757e-05
8.15752e-05
8.1575e-05
8.15756e-05
8.15759e-05
8.15763e-05
8.15757e-05
8.15756e-05
8.15748e-05
8.15745e-05
8.15739e-05
8.15747e-05
8.15749e-05
8.15757e-05
8.15754e-05
8.15763e-05
8.1572e-05
8.15758e-05
8.15776e-05
8.15557e-05
8.15638e-05
8.15684e-05
8.15739e-05
8.157e-05
8.15991e-05
8.1558e-05
8.13378e-05
8.17324e-05
7.71067e-05
7.17079e-05
7.67367e-05
7.78403e-05
7.82571e-05
3.50522e-05
2.13202e-05
1.85048e-05
1.87358e-05
2.12559e-05
2.53517e-05
3.05768e-05
3.62591e-05
4.07371e-05
4.54904e-05
5.02924e-05
5.48383e-05
5.91106e-05
6.30902e-05
6.68727e-05
7.02572e-05
7.32458e-05
7.60003e-05
7.84905e-05
8.08259e-05
8.29498e-05
8.46393e-05
8.60749e-05
8.73074e-05
8.83472e-05
8.92167e-05
8.99401e-05
9.05414e-05
9.10407e-05
9.14564e-05
9.18021e-05
9.20881e-05
9.23242e-05
9.25203e-05
9.26865e-05
9.28287e-05
9.29509e-05
9.30557e-05
9.31457e-05
9.32225e-05
9.32886e-05
9.33447e-05
9.33933e-05
9.34342e-05
9.34701e-05
9.34997e-05
9.35264e-05
9.35479e-05
9.35675e-05
9.35824e-05
9.35964e-05
9.36072e-05
9.362e-05
9.36246e-05
9.36433e-05
9.36267e-05
9.36587e-05
9.30636e-05
9.05081e-05
9.67659e-05
9.48692e-05
8.96917e-05
9.04213e-05
9.1353e-05
9.25817e-05
9.36325e-05
9.46294e-05
9.54935e-05
9.62604e-05
9.69199e-05
9.74795e-05
9.79498e-05
9.83365e-05
9.86509e-05
9.89025e-05
9.91014e-05
9.92557e-05
9.93739e-05
9.94616e-05
9.95256e-05
9.9571e-05
9.96014e-05
9.96203e-05
9.96309e-05
9.9635e-05
9.96352e-05
9.96322e-05
9.96277e-05
9.96218e-05
9.96155e-05
9.96091e-05
9.96032e-05
9.95977e-05
9.95927e-05
9.95884e-05
9.95844e-05
9.95811e-05
9.95783e-05
9.95755e-05
9.9574e-05
9.95726e-05
9.95713e-05
9.95705e-05
9.95693e-05
9.95692e-05
9.95689e-05
9.95684e-05
9.95684e-05
9.95677e-05
9.95681e-05
9.95682e-05
9.9568e-05
9.95681e-05
9.95677e-05
9.95681e-05
9.95683e-05
9.95682e-05
9.95682e-05
9.95677e-05
9.95682e-05
9.95683e-05
9.95684e-05
9.95684e-05
9.95683e-05
9.95686e-05
9.95688e-05
9.95684e-05
9.95685e-05
9.95683e-05
9.95684e-05
9.95681e-05
9.95671e-05
9.95666e-05
9.95654e-05
9.95654e-05
9.95646e-05
9.95644e-05
9.95636e-05
9.95632e-05
9.95613e-05
9.95608e-05
9.95582e-05
9.95581e-05
9.95557e-05
9.95556e-05
9.95524e-05
9.95524e-05
9.9549e-05
9.95491e-05
9.95441e-05
9.95443e-05
9.95383e-05
9.95391e-05
9.95329e-05
9.95338e-05
9.9527e-05
9.95283e-05
9.95197e-05
9.95213e-05
9.95115e-05
9.95142e-05
9.9504e-05
9.95071e-05
9.94959e-05
9.94997e-05
9.9488e-05
9.94926e-05
9.94792e-05
9.94848e-05
9.9471e-05
9.94774e-05
9.94632e-05
9.94705e-05
9.9455e-05
9.94633e-05
9.9447e-05
9.9457e-05
9.94407e-05
9.94518e-05
9.94355e-05
9.9448e-05
9.94302e-05
9.94441e-05
9.94254e-05
9.94412e-05
9.94228e-05
9.94394e-05
9.94212e-05
9.94389e-05
9.94195e-05
9.94386e-05
9.94197e-05
9.94392e-05
9.9421e-05
9.94413e-05
9.94224e-05
9.94434e-05
9.94245e-05
9.94466e-05
9.94289e-05
9.94507e-05
9.94341e-05
9.9456e-05
9.94389e-05
9.94611e-05
9.94453e-05
9.94668e-05
9.94524e-05
9.94735e-05
9.94588e-05
9.94798e-05
9.94665e-05
9.94864e-05
9.94746e-05
9.94937e-05
9.94816e-05
9.95004e-05
9.94897e-05
9.95069e-05
9.94975e-05
9.95141e-05
9.95041e-05
9.95204e-05
9.95117e-05
9.95263e-05
9.95185e-05
9.95326e-05
9.95238e-05
9.95378e-05
9.95305e-05
9.95421e-05
9.95366e-05
9.9547e-05
9.95411e-05
9.95508e-05
9.9546e-05
9.95542e-05
9.9551e-05
9.95579e-05
9.95546e-05
9.95606e-05
9.95582e-05
9.9563e-05
9.95602e-05
9.95643e-05
9.95629e-05
9.95659e-05
9.95653e-05
9.95676e-05
9.95663e-05
9.95681e-05
9.95668e-05
9.95677e-05
9.95673e-05
9.95684e-05
9.95683e-05
9.95687e-05
9.95687e-05
9.95685e-05
9.95673e-05
9.95672e-05
9.95668e-05
9.95669e-05
9.95672e-05
9.95678e-05
9.95678e-05
9.9567e-05
9.95663e-05
9.95655e-05
9.95648e-05
9.95653e-05
9.9566e-05
9.95668e-05
9.95669e-05
9.95665e-05
9.95654e-05
9.95645e-05
9.95633e-05
9.9564e-05
9.95647e-05
9.95662e-05
9.95667e-05
9.95671e-05
9.95632e-05
9.95654e-05
9.95671e-05
9.95466e-05
9.9551e-05
9.9555e-05
9.95606e-05
9.95593e-05
9.95836e-05
9.95506e-05
9.93462e-05
9.96636e-05
9.52685e-05
9.103e-05
9.34178e-05
9.46398e-05
9.53891e-05
8.56645e-05
4.30027e-05
2.96385e-05
2.42697e-05
2.1955e-05
2.15716e-05
2.3299e-05
2.65057e-05
3.08191e-05
3.60151e-05
4.05051e-05
4.47331e-05
4.91728e-05
5.37968e-05
5.84696e-05
6.30258e-05
6.73808e-05
7.15687e-05
7.57133e-05
7.98101e-05
8.39081e-05
8.79816e-05
9.08923e-05
9.30785e-05
9.49921e-05
9.66692e-05
9.81397e-05
9.94281e-05
0.000100553
0.000101533
0.000102381
0.000103111
0.000103737
0.000104275
0.000104741
0.000105143
0.000105491
0.00010579
0.000106048
0.000106269
0.000106459
0.000106622
0.000106763
0.000106882
0.000106986
0.000107074
0.00010715
0.000107215
0.00010727
0.000107317
0.000107357
0.000107391
0.000107424
0.000107446
0.00010748
0.000107481
0.00010753
0.000107065
0.000108535
0.000110473
0.000108195
0.000103749
0.000103516
0.00010373
0.000104501
0.000105393
0.000106389
0.000107375
0.000108315
0.000109155
0.00010989
0.000110523
0.000111059
0.000111507
0.000111877
0.00011218
0.000112424
0.000112619
0.000112772
0.00011289
0.000112982
0.00011305
0.0001131
0.000113136
0.000113161
0.000113178
0.000113188
0.000113194
0.000113197
0.000113197
0.000113196
0.000113194
0.000113191
0.000113188
0.000113186
0.000113183
0.000113181
0.000113179
0.000113177
0.000113176
0.000113175
0.000113174
0.000113173
0.000113172
0.000113172
0.000113172
0.000113172
0.000113172
0.000113171
0.000113171
0.000113172
0.000113172
0.000113172
0.000113171
0.000113172
0.000113172
0.000113172
0.000113172
0.000113172
0.000113172
0.000113172
0.000113172
0.000113172
0.000113172
0.000113173
0.000113173
0.000113173
0.000113173
0.000113172
0.000113172
0.000113172
0.000113171
0.000113171
0.00011317
0.00011317
0.000113169
0.000113168
0.000113167
0.000113167
0.000113165
0.000113165
0.000113162
0.000113162
0.000113159
0.000113159
0.000113155
0.000113155
0.000113151
0.000113151
0.000113145
0.000113146
0.000113139
0.00011314
0.000113132
0.000113134
0.000113125
0.000113127
0.000113117
0.000113119
0.000113108
0.00011311
0.000113098
0.000113102
0.000113088
0.000113092
0.000113079
0.000113083
0.000113068
0.000113074
0.000113058
0.000113064
0.000113048
0.000113055
0.000113038
0.000113046
0.000113028
0.000113037
0.000113019
0.00011303
0.000113012
0.000113024
0.000113005
0.000113018
0.000112999
0.000113013
0.000112995
0.00011301
0.000112992
0.000113008
0.000112989
0.000113007
0.000112988
0.000113006
0.000112989
0.000113008
0.00011299
0.00011301
0.000112992
0.000113012
0.000112997
0.000113017
0.000113002
0.000113022
0.000113008
0.000113028
0.000113015
0.000113035
0.000113023
0.000113042
0.000113031
0.00011305
0.00011304
0.000113058
0.000113049
0.000113067
0.000113058
0.000113075
0.000113068
0.000113083
0.000113077
0.000113092
0.000113086
0.0001131
0.000113095
0.000113108
0.000113103
0.000113116
0.000113111
0.000113123
0.000113119
0.000113129
0.000113127
0.000113136
0.000113133
0.000113142
0.000113139
0.000113146
0.000113145
0.000113152
0.00011315
0.000113156
0.000113155
0.00011316
0.000113158
0.000113162
0.000113162
0.000113165
0.000113165
0.000113167
0.000113167
0.000113169
0.000113168
0.000113169
0.000113169
0.00011317
0.00011317
0.000113171
0.000113172
0.000113172
0.000113171
0.00011317
0.00011317
0.00011317
0.00011317
0.000113171
0.000113172
0.000113171
0.00011317
0.000113169
0.000113168
0.000113168
0.000113169
0.00011317
0.000113171
0.00011317
0.000113169
0.000113168
0.000113166
0.000113167
0.000113168
0.00011317
0.000113171
0.000113171
0.000113167
0.000113168
0.000113169
0.000113153
0.000113155
0.000113157
0.000113161
0.000113161
0.000113179
0.000113156
0.000112988
0.000113204
0.000109641
0.00010525
0.000106654
0.000107564
0.000108269
0.00010275
9.73477e-05
6.58129e-05
4.74428e-05
3.69493e-05
3.07221e-05
2.73943e-05
2.57925e-05
2.60745e-05
2.79862e-05
3.10985e-05
3.51204e-05
3.98497e-05
4.44295e-05
4.84338e-05
5.27785e-05
5.75065e-05
6.26426e-05
6.81583e-05
7.3954e-05
8.02791e-05
8.45802e-05
8.84645e-05
9.19493e-05
9.50996e-05
9.79609e-05
0.000100551
0.000102874
0.000104935
0.000106751
0.000108337
0.000109715
0.000110908
0.000111941
0.000112837
0.000113612
0.000114282
0.00011486
0.000115357
0.000115785
0.000116153
0.000116469
0.000116741
0.000116974
0.000117174
0.000117345
0.000117493
0.000117619
0.000117726
0.000117819
0.000117897
0.000117964
0.000118025
0.000118072
0.000118129
0.000118155
0.00011823
0.000117934
0.000118966
0.0001205
0.000118465
0.000115056
0.000114363
0.000114079
0.000114338
0.000114835
0.000115565
0.000116426
0.000117345
0.000118238
0.000119062
0.000119799
0.000120439
0.000120985
0.000121445
0.000121828
0.000122142
0.000122399
0.000122606
0.000122771
0.000122902
0.000123004
0.000123083
0.000123144
0.000123189
0.000123223
0.000123248
0.000123266
0.000123279
0.000123287
0.000123293
0.000123296
0.000123298
0.000123299
0.0001233
0.0001233
0.0001233
0.0001233
0.000123299
0.000123299
0.000123299
0.000123299
0.000123299
0.000123298
0.000123299
0.000123299
0.000123299
0.000123299
0.000123299
0.000123299
0.0001233
0.0001233
0.0001233
0.0001233
0.0001233
0.0001233
0.000123301
0.000123301
0.0001233
0.000123301
0.000123301
0.000123301
0.000123301
0.000123301
0.000123301
0.000123302
0.000123301
0.000123302
0.000123301
0.000123301
0.000123301
0.000123301
0.0001233
0.000123299
0.000123299
0.000123298
0.000123298
0.000123296
0.000123296
0.000123294
0.000123294
0.000123291
0.000123291
0.000123288
0.000123287
0.000123284
0.000123283
0.000123279
0.000123279
0.000123274
0.000123274
0.000123267
0.000123267
0.00012326
0.00012326
0.000123253
0.000123253
0.000123244
0.000123244
0.000123234
0.000123234
0.000123223
0.000123224
0.000123212
0.000123214
0.000123201
0.000123204
0.00012319
0.000123193
0.000123178
0.000123181
0.000123167
0.000123171
0.000123155
0.00012316
0.000123144
0.000123149
0.000123133
0.00012314
0.000123124
0.000123132
0.000123116
0.000123125
0.000123108
0.000123118
0.000123103
0.000123113
0.000123098
0.00012311
0.000123095
0.000123107
0.000123093
0.000123106
0.000123093
0.000123107
0.000123094
0.000123108
0.000123095
0.00012311
0.000123099
0.000123114
0.000123104
0.00012312
0.00012311
0.000123126
0.000123118
0.000123133
0.000123126
0.000123141
0.000123134
0.00012315
0.000123144
0.000123159
0.000123154
0.000123168
0.000123164
0.000123178
0.000123175
0.000123188
0.000123185
0.000123198
0.000123195
0.000123207
0.000123206
0.000123217
0.000123216
0.000123226
0.000123225
0.000123235
0.000123234
0.000123242
0.000123242
0.00012325
0.00012325
0.000123258
0.000123258
0.000123264
0.000123265
0.00012327
0.000123271
0.000123276
0.000123277
0.000123281
0.000123281
0.000123284
0.000123285
0.000123288
0.000123289
0.000123291
0.000123292
0.000123294
0.000123294
0.000123295
0.000123295
0.000123296
0.000123297
0.000123298
0.000123299
0.000123299
0.000123298
0.000123298
0.000123297
0.000123298
0.000123298
0.000123299
0.0001233
0.000123299
0.000123298
0.000123297
0.000123296
0.000123296
0.000123297
0.000123298
0.000123299
0.000123299
0.000123297
0.000123296
0.000123294
0.000123295
0.000123296
0.000123297
0.000123299
0.000123299
0.000123296
0.000123296
0.000123296
0.000123285
0.000123285
0.000123285
0.000123288
0.000123288
0.000123301
0.000123286
0.000123162
0.000123282
0.000120716
0.000116851
0.000117313
0.000117727
0.000118162
0.000106185
0.00011336
0.000127922
9.16903e-05
7.05284e-05
5.69955e-05
4.55837e-05
3.79481e-05
3.29876e-05
3.02044e-05
2.92696e-05
2.98946e-05
3.18364e-05
3.48128e-05
3.85782e-05
4.2886e-05
4.75907e-05
5.25793e-05
5.78102e-05
6.32689e-05
6.89389e-05
7.46313e-05
8.02486e-05
8.56559e-05
9.06991e-05
9.52623e-05
9.93102e-05
0.000102873
0.000106
0.000108734
0.000111117
0.000113184
0.000114974
0.000116523
0.000117865
0.000119025
0.000120026
0.00012089
0.000121634
0.000122274
0.000122824
0.000123297
0.000123703
0.000124052
0.000124351
0.000124607
0.000124828
0.000125016
0.000125178
0.000125316
0.000125434
0.000125535
0.000125624
0.000125697
0.000125785
0.000125831
0.000125945
0.000125801
0.000126434
0.000127337
0.000125889
0.000123325
0.000122345
0.000121746
0.000121667
0.000121864
0.000122343
0.000123012
0.000123803
0.000124635
0.000125448
0.000126205
0.000126882
0.000127473
0.000127979
0.000128406
0.000128761
0.000129054
0.000129294
0.000129487
0.000129643
0.000129768
0.000129866
0.000129944
0.000130004
0.00013005
0.000130087
0.000130114
0.000130135
0.00013015
0.000130162
0.00013017
0.000130177
0.000130181
0.000130185
0.000130188
0.00013019
0.000130191
0.000130192
0.000130194
0.000130195
0.000130195
0.000130196
0.000130197
0.000130197
0.000130198
0.000130198
0.000130199
0.000130199
0.0001302
0.0001302
0.000130201
0.000130201
0.000130201
0.000130201
0.000130202
0.000130202
0.000130202
0.000130202
0.000130202
0.000130202
0.000130202
0.000130203
0.000130203
0.000130203
0.000130203
0.000130203
0.000130203
0.000130203
0.000130203
0.000130203
0.000130202
0.000130202
0.000130201
0.000130201
0.0001302
0.000130199
0.000130199
0.000130198
0.000130197
0.000130196
0.000130194
0.000130192
0.00013019
0.000130189
0.000130186
0.000130185
0.000130182
0.000130181
0.000130177
0.000130175
0.00013017
0.000130168
0.000130163
0.000130161
0.000130156
0.000130153
0.000130147
0.000130144
0.000130137
0.000130134
0.000130126
0.000130123
0.000130115
0.000130112
0.000130103
0.000130101
0.000130091
0.000130089
0.000130079
0.000130077
0.000130067
0.000130065
0.000130054
0.000130053
0.000130042
0.000130041
0.000130031
0.00013003
0.000130021
0.000130021
0.000130011
0.000130012
0.000130003
0.000130005
0.000129996
0.000129998
0.000129991
0.000129994
0.000129986
0.000129991
0.000129984
0.000129988
0.000129982
0.000129988
0.000129983
0.000129989
0.000129984
0.000129991
0.000129987
0.000129994
0.000129991
0.00013
0.000129997
0.000130006
0.000130004
0.000130013
0.000130012
0.000130021
0.000130021
0.00013003
0.000130031
0.00013004
0.000130041
0.00013005
0.000130051
0.00013006
0.000130062
0.000130071
0.000130073
0.000130082
0.000130084
0.000130092
0.000130095
0.000130103
0.000130106
0.000130113
0.000130116
0.000130123
0.000130125
0.000130132
0.000130135
0.000130141
0.000130143
0.000130149
0.000130151
0.000130157
0.000130159
0.000130163
0.000130166
0.00013017
0.000130172
0.000130176
0.000130178
0.000130181
0.000130182
0.000130184
0.000130186
0.000130189
0.00013019
0.000130192
0.000130193
0.000130194
0.000130194
0.000130195
0.000130196
0.000130197
0.000130198
0.000130199
0.000130199
0.000130199
0.000130198
0.000130198
0.000130199
0.000130199
0.0001302
0.0001302
0.000130199
0.000130198
0.000130197
0.000130197
0.000130198
0.000130199
0.000130199
0.000130199
0.000130198
0.000130197
0.000130195
0.000130196
0.000130196
0.000130197
0.000130198
0.000130199
0.000130197
0.000130197
0.000130196
0.000130189
0.000130188
0.000130187
0.000130189
0.000130189
0.000130197
0.000130189
0.000130108
0.00013016
0.000128516
0.000125762
0.000125465
0.000125308
0.00012539
9.83189e-05
0.000111
0.000141647
0.000133817
0.000103411
8.38999e-05
6.78491e-05
5.64911e-05
4.84271e-05
4.23581e-05
3.74639e-05
3.44559e-05
3.32088e-05
3.34804e-05
3.48611e-05
3.73479e-05
4.08581e-05
4.53113e-05
5.04568e-05
5.60864e-05
6.20978e-05
6.83578e-05
7.47289e-05
8.10298e-05
8.70126e-05
9.25363e-05
9.75081e-05
0.000101911
0.000105774
0.000109143
0.000112073
0.000114606
0.000116792
0.00011868
0.000120313
0.000121724
0.000122942
0.000123991
0.000124895
0.000125672
0.00012634
0.000126914
0.000127407
0.00012783
0.000128193
0.000128504
0.000128771
0.000129
0.000129196
0.000129364
0.000129508
0.00012963
0.000129738
0.000129827
0.000129947
0.000129993
0.000130164
0.000130089
0.000130522
0.000130992
0.000129851
0.000127758
0.000126539
0.000125728
0.000125482
0.000125522
0.000125877
0.000126442
0.000127153
0.000127933
0.000128722
0.000129473
0.000130157
0.000130762
0.000131284
0.000131727
0.000132098
0.000132406
0.000132659
0.000132864
0.000133031
0.000133165
0.000133272
0.000133358
0.000133425
0.000133478
0.000133519
0.000133552
0.000133577
0.000133596
0.000133611
0.000133622
0.000133631
0.000133638
0.000133643
0.000133648
0.000133651
0.000133654
0.000133656
0.000133658
0.000133659
0.000133661
0.000133662
0.000133663
0.000133664
0.000133665
0.000133666
0.000133667
0.000133667
0.000133668
0.000133668
0.000133669
0.000133669
0.000133669
0.00013367
0.00013367
0.00013367
0.000133671
0.000133671
0.000133671
0.000133671
0.000133671
0.000133671
0.000133671
0.000133672
0.000133672
0.000133672
0.000133672
0.000133672
0.000133672
0.000133672
0.000133671
0.000133671
0.00013367
0.00013367
0.000133669
0.000133668
0.000133668
0.000133667
0.000133666
0.000133665
0.000133663
0.000133662
0.00013366
0.000133658
0.000133656
0.000133654
0.000133652
0.00013365
0.000133647
0.000133644
0.000133641
0.000133637
0.000133634
0.00013363
0.000133627
0.000133622
0.000133618
0.000133613
0.000133608
0.000133602
0.000133598
0.000133592
0.000133587
0.00013358
0.000133575
0.000133568
0.000133563
0.000133556
0.000133551
0.000133544
0.000133538
0.000133531
0.000133526
0.000133519
0.000133513
0.000133506
0.000133501
0.000133495
0.000133491
0.000133485
0.000133481
0.000133476
0.000133472
0.000133468
0.000133465
0.000133461
0.000133459
0.000133456
0.000133454
0.000133452
0.000133451
0.000133449
0.000133449
0.000133448
0.000133449
0.000133449
0.000133449
0.00013345
0.000133452
0.000133454
0.000133456
0.000133459
0.000133461
0.000133465
0.000133468
0.000133472
0.000133476
0.00013348
0.000133484
0.000133489
0.000133494
0.000133499
0.000133504
0.000133509
0.000133514
0.00013352
0.000133525
0.000133531
0.000133536
0.000133542
0.000133547
0.000133553
0.000133558
0.000133564
0.000133569
0.000133575
0.000133579
0.000133585
0.000133589
0.000133594
0.000133599
0.000133604
0.000133608
0.000133613
0.000133616
0.000133621
0.000133624
0.000133628
0.000133631
0.000133634
0.000133638
0.000133641
0.000133644
0.000133646
0.000133648
0.00013365
0.000133653
0.000133655
0.000133657
0.000133659
0.00013366
0.000133661
0.000133662
0.000133663
0.000133664
0.000133665
0.000133666
0.000133667
0.000133667
0.000133667
0.000133667
0.000133666
0.000133667
0.000133667
0.000133668
0.000133668
0.000133668
0.000133667
0.000133666
0.000133666
0.000133666
0.000133666
0.000133667
0.000133667
0.000133667
0.000133666
0.000133665
0.000133664
0.000133665
0.000133665
0.000133666
0.000133667
0.000133666
0.000133666
0.000133664
0.00013366
0.000133659
0.000133657
0.000133658
0.000133657
0.000133663
0.00013366
0.000133611
0.000133645
0.000132591
0.000131009
0.000130183
0.000129564
0.000129403
)
;

boundaryField
{
    inlet
    {
        type            calculated;
        value           nonuniform List<scalar> 8(2.74044e-06 1.24396e-05 3.37757e-05 7.76543e-05 0.000100284 9.84492e-05 0.000103249 9.57505e-05);
    }
    outlet
    {
        type            calculated;
        value           nonuniform List<scalar> 8(2.37263e-05 5.48805e-05 7.82571e-05 9.53891e-05 0.000108269 0.000118162 0.00012539 0.000129403);
    }
    sideWall
    {
        type            empty;
    }
    bed
    {
        type            calculated;
        value           nonuniform List<scalar> 
300
(