/*--------------------------------*- C++ -*----------------------------------*\
| =========                 |                                                 |
| \\      /  F ield         | foam-extend: Open Source CFD                    |
|  \\    /   O peration     | Version:     3.2                                |
|   \\  /    A nd           | Web:         http://www.foam-extend.org         |
|    \\/     M anipulation  | For copyright notice see file Copyright         |
\*---------------------------------------------------------------------------*/
FoamFile
{
    version     2.0;
    format      ascii;
    class       areaScalarField;
    location    "2000";
    object      Fi1;
}
// * * * * * * * * * * * * * * * * * * * * * * * * * * * * * * * * * * * * * //

dimensions      [0 1 -1 0 0 0 0];

internalField   nonuniform List<scalar> 
300
(
-1.62927e-07
-3.50431e-06
-6.61049e-07
1.56129e-06
2.7488e-06
3.21784e-06
3.39721e-06
3.41921e-06
3.38973e-06
3.32905e-06
3.2558e-06
3.18082e-06
3.10785e-06
3.03049e-06
2.95605e-06
2.88007e-06
2.79927e-06
2.71841e-06
2.63527e-06
2.55127e-06
2.46675e-06
2.38166e-06
2.29376e-06
2.20323e-06
2.11541e-06
2.0343e-06
1.9609e-06
1.89611e-06
1.8397e-06
1.79126e-06
1.74965e-06
1.71404e-06
1.68432e-06
1.65993e-06
1.64037e-06
1.62414e-06
1.61071e-06
1.5993e-06
1.5898e-06
1.58156e-06
1.57476e-06
1.56872e-06
1.56388e-06
1.55939e-06
1.556e-06
1.55259e-06
1.55026e-06
1.54761e-06
1.54611e-06
1.54361e-06
1.54386e-06
1.53923e-06
1.54527e-06
1.5298e-06
1.55984e-06
1.49494e-06
1.63321e-06
1.37057e-06
2.30129e-06
4.21916e-06
-1.98749e-11
-3.74873e-11
3.08737e-11
-4.2852e-11
3.67002e-11
-4.38837e-11
3.88603e-11
-4.38821e-11
3.97705e-11
-4.30542e-11
4.67142e-11
-5.12179e-11
2.7081e-11
-2.46171e-10
-1.49767e-10
-2.89001e-11
5.53801e-11
1.16197e-10
1.9202e-10
-4.90848e-11
3.43196e-11
-4.58281e-11
3.24317e-11
-1.48448e-10
-6.22361e-11
-2.88929e-11
4.31497e-11
5.91563e-11
1.28631e-10
-3.53952e-11
3.54437e-11
-3.55422e-11
1.4892e-11
-9.72336e-11
-2.99738e-11
-2.51055e-11
3.16619e-11
-2.51473e-11
7.29e-11
1.00557e-11
2.1124e-11
-2.81964e-11
2.56622e-11
-5.3873e-11
-6.24996e-12
-2.05551e-11
1.50036e-11
4.14183e-12
4.1047e-11
-2.34773e-13
-3.99935e-12
-1.17798e-11
-3.12158e-11
2.31689e-12
-1.92614e-12
1.16954e-11
4.59679e-11
-7.70917e-11
1.48075e-10
-2.28807e-10
3.34728e-10
-3.46366e-10
1.8826e-10
-2.87793e-10
2.31168e-10
-5.48386e-11
2.58601e-10
7.63381e-10
-1.38616e-09
8.27571e-10
-1.32706e-09
1.96935e-09
-2.35276e-09
2.54455e-09
-2.74037e-09
3.44096e-09
-3.82302e-09
4.49671e-09
-4.95678e-09
5.78654e-09
-6.28884e-09
7.30717e-09
-7.85636e-09
9.06404e-09
-9.67198e-09
1.10705e-08
-1.17381e-08
1.33319e-08
-1.40548e-08
1.58462e-08
-1.66157e-08
1.86e-08
-1.94061e-08
2.15706e-08
-2.24041e-08
2.47335e-08
-2.55806e-08
2.80429e-08
-2.88836e-08
3.1463e-08
-3.22734e-08
3.49285e-08
-3.56898e-08
3.83796e-08
-3.90689e-08
4.17479e-08
-4.23444e-08
4.49634e-08
-4.54454e-08
4.79533e-08
-4.83021e-08
5.06475e-08
-5.08458e-08
5.29715e-08
-5.30029e-08
5.4887e-08
-5.47892e-08
5.6398e-08
-5.6159e-08
5.75089e-08
-5.71737e-08
5.82426e-08
-5.78099e-08
5.85877e-08
-5.80634e-08
5.85409e-08
-5.79284e-08
5.81055e-08
-5.74135e-08
5.72864e-08
-5.65254e-08
5.60981e-08
-5.5282e-08
5.46084e-08
-5.36757e-08
5.24519e-08
-5.17884e-08
5.02078e-08
-4.97173e-08
4.95926e-08
-4.59248e-08
4.61152e-08
-4.38166e-08
3.8773e-08
-4.50942e-08
3.8907e-08
-3.97196e-08
4.45814e-08
-2.84045e-08
3.51553e-08
-3.1705e-08
1.82396e-08
-4.2787e-08
2.65064e-08
-2.88788e-08
4.41619e-08
-4.96281e-09
2.42342e-08
-2.01576e-08
-6.12397e-09
-4.64909e-08
1.55351e-08
-1.91966e-08
4.92932e-08
2.09507e-08
1.51811e-08
-1.10344e-08
-3.11955e-08
-5.55334e-08
7.34155e-09
-1.15537e-08
5.88685e-08
4.62248e-08
8.62821e-09
-4.97943e-09
-5.40964e-08
-6.82737e-08
2.06902e-09
-6.47666e-09
7.15688e-08
6.87156e-08
4.38677e-09
-1.50385e-09
-7.41198e-08
-8.2409e-08
-3.3286e-10
-3.71424e-09
8.49059e-08
8.7567e-08
2.33016e-09
-3.08702e-11
-9.01203e-08
-9.63034e-08
-1.2726e-09
-2.11792e-09
9.74022e-08
1.0256e-07
1.29093e-09
2.20318e-10
-1.02667e-07
-1.085e-07
-1.21122e-09
-1.49345e-09
1.08175e-07
1.14792e-07
8.01286e-10
2.29166e-10
-1.12917e-07
-1.19458e-07
-1.19911e-09
-1.23519e-09
1.17977e-07
1.25526e-07
8.33555e-10
1.57424e-10
-1.22636e-07
-1.29904e-07
-1.31715e-09
-1.2561e-09
1.27809e-07
1.36534e-07
1.41695e-09
3.76826e-11
-1.34017e-07
-1.33952e-07
-1.86603e-08
3.28007e-11
-6.68121e-12
-6.62093e-12
-3.38606e-12
-3.67326e-12
-8.55706e-13
-1.28883e-12
4.99269e-13
8.70406e-14
1.26469e-12
3.19566e-06
3.1034e-06
2.1529e-06
1.95471e-06
)
;

boundaryField
{
    inlet
    {
        type            calculated;
        value           uniform 0;
    }
    outlet
    {
        type            calculated;
        value           uniform 0;
    }
    sideWall
    {
        type            empty;
    }
}


// ************************************************************************* //
