/*--------------------------------*- C++ -*----------------------------------*\
| =========                 |                                                 |
| \\      /  F ield         | foam-extend: Open Source CFD                    |
|  \\    /   O peration     | Version:     3.2                                |
|   \\  /    A nd           | Web:         http://www.foam-extend.org         |
|    \\/     M anipulation  | For copyright notice see file Copyright         |
\*---------------------------------------------------------------------------*/
FoamFile
{
    version     2.0;
    format      ascii;
    class       areaScalarField;
    location    "2000";
    object      Fi2;
}
// * * * * * * * * * * * * * * * * * * * * * * * * * * * * * * * * * * * * * //

dimensions      [0 1 -1 0 0 0 0];

internalField   nonuniform List<scalar> 
300
(
-1.62927e-07
-3.50431e-06
-6.61049e-07
1.56129e-06
2.7488e-06
3.21784e-06
3.39721e-06
3.41921e-06
3.38973e-06
3.32905e-06
3.2558e-06
3.18082e-06
3.10785e-06
3.03049e-06
2.95605e-06
2.88007e-06
2.79927e-06
2.71841e-06
2.63527e-06
2.55127e-06
2.46675e-06
2.38166e-06
2.29376e-06
2.20323e-06
2.11541e-06
2.0343e-06
1.9609e-06
1.89611e-06
1.8397e-06
1.79126e-06
1.74965e-06
1.71404e-06
1.68432e-06
1.65993e-06
1.64037e-06
1.62414e-06
1.61071e-06
1.5993e-06
1.5898e-06
1.58156e-06
1.57476e-06
1.56872e-06
1.56388e-06
1.55939e-06
1.556e-06
1.55259e-06
1.55026e-06
1.54761e-06
1.54611e-06
1.54361e-06
1.54386e-06
1.53923e-06
1.54527e-06
1.5298e-06
1.55984e-06
1.49494e-06
1.63321e-06
1.37057e-06
2.30129e-06
4.21916e-06
-1.98742e-11
-3.74862e-11
3.08731e-11
-4.2851e-11
3.66997e-11
-4.38831e-11
3.886e-11
-4.38815e-11
3.97706e-11
-4.30568e-11
4.47127e-11
-2.69504e-10
-1.76908e-10
-2.71514e-11
5.64813e-11
1.38154e-10
2.14741e-10
-5.10902e-11
3.23144e-11
-4.93857e-11
3.33069e-11
-1.61559e-10
-7.62692e-11
-3.22138e-11
4.77637e-11
6.59314e-11
1.36613e-10
-3.57519e-11
3.50143e-11
-3.5596e-11
3.47536e-11
-1.04617e-10
-4.81336e-11
-2.79088e-11
3.37809e-11
-2.5076e-11
7.81913e-11
1.60407e-11
2.62903e-11
-3.13457e-11
2.08497e-11
-5.97606e-11
-7.16359e-12
-2.21462e-11
2.69379e-11
-1.20434e-13
4.43036e-11
-1.6376e-11
1.15375e-11
-2.18207e-11
-3.08537e-11
9.8432e-12
-4.12205e-12
4.35406e-11
-2.04189e-12
-2.96367e-11
4.56468e-11
-1.29419e-10
1.4815e-10
-1.75925e-10
2.79905e-10
-3.65184e-10
2.43122e-10
-2.68989e-10
4.13752e-10
-5.38397e-11
7.5094e-11
4.31582e-10
-1.38295e-09
1.43347e-09
-1.32733e-09
1.68908e-09
-2.3508e-09
2.54509e-09
-2.73906e-09
3.43937e-09
-3.82165e-09
4.49501e-09
-4.95503e-09
5.78461e-09
-6.28677e-09
7.30492e-09
-7.854e-09
9.06146e-09
-9.66931e-09
1.10676e-08
-1.17351e-08
1.33287e-08
-1.40515e-08
1.58427e-08
-1.66122e-08
1.85962e-08
-1.94023e-08
2.15666e-08
-2.24002e-08
2.47294e-08
-2.55765e-08
2.80387e-08
-2.88794e-08
3.14587e-08
-3.22692e-08
3.49243e-08
-3.56856e-08
3.83755e-08
-3.90649e-08
4.17441e-08
-4.23406e-08
4.49599e-08
-4.54421e-08
4.79501e-08
-4.82992e-08
5.06449e-08
-5.08434e-08
5.29695e-08
-5.30011e-08
5.48855e-08
-5.47879e-08
5.63971e-08
-5.61582e-08
5.75084e-08
-5.71733e-08
5.82426e-08
-5.781e-08
5.85882e-08
-5.8064e-08
5.85419e-08
-5.79294e-08
5.81069e-08
-5.7415e-08
5.72882e-08
-5.65273e-08
5.61004e-08
-5.52843e-08
5.45453e-08
-5.36801e-08
5.25208e-08
-5.17888e-08
5.12369e-08
-4.90522e-08
4.85655e-08
-4.66201e-08
4.29432e-08
-4.64764e-08
4.1958e-08
-4.24122e-08
4.55053e-08
-3.34649e-08
3.79669e-08
-3.47673e-08
2.38676e-08
-4.28208e-08
2.95604e-08
-3.1566e-08
4.37512e-08
-1.11975e-08
2.68636e-08
-2.28822e-08
1.42712e-10
-4.49865e-08
1.8037e-08
-2.14205e-08
4.75266e-08
1.44161e-08
1.71956e-08
-1.3067e-08
-2.49979e-08
-5.28311e-08
9.1032e-09
-1.33229e-08
5.61637e-08
4.01331e-08
9.88083e-09
-6.04842e-09
-4.86826e-08
-6.49312e-08
3.38879e-09
-7.7241e-09
6.81384e-08
6.34688e-08
5.27536e-09
-1.99328e-09
-6.94683e-08
-7.88595e-08
-3.38419e-11
-4.27611e-09
8.16488e-08
8.32702e-08
2.64348e-09
-3.43095e-10
-8.64826e-08
-9.29259e-08
-1.02329e-09
-2.46862e-09
9.445e-08
9.91684e-08
1.3505e-09
2.12449e-10
-9.96716e-08
-1.05591e-07
-1.37118e-09
-1.61628e-09
1.05665e-07
1.11929e-07
9.30943e-10
1.94728e-10
-1.10448e-07
-1.16788e-07
-1.29722e-09
-1.2564e-09
1.15593e-07
1.22917e-07
7.81569e-10
9.62457e-11
-1.20166e-07
-1.27249e-07
-1.22896e-09
-1.21014e-09
1.25464e-07
1.33568e-07
5.91622e-10
3.27517e-10
-1.30361e-07
-1.38379e-07
-1.78686e-09
5.8357e-09
9.69592e-08
-6.33972e-11
-7.11907e-12
-6.54897e-12
-3.39542e-12
-3.67593e-12
-8.56783e-13
-1.28933e-12
4.98992e-13
8.66896e-14
1.2645e-12
3.19566e-06
3.1034e-06
2.1529e-06
1.95471e-06
)
;

boundaryField
{
    inlet
    {
        type            calculated;
        value           uniform 0;
    }
    outlet
    {
        type            calculated;
        value           uniform 0;
    }
    sideWall
    {
        type            empty;
    }
}


// ************************************************************************* //
