/*--------------------------------*- C++ -*----------------------------------*\
| =========                 |                                                 |
| \\      /  F ield         | foam-extend: Open Source CFD                    |
|  \\    /   O peration     | Version:     3.2                                |
|   \\  /    A nd           | Web:         http://www.foam-extend.org         |
|    \\/     M anipulation  | For copyright notice see file Copyright         |
\*---------------------------------------------------------------------------*/
FoamFile
{
    version     2.0;
    format      ascii;
    class       areaScalarField;
    location    "2000";
    object      Hdep;
}
// * * * * * * * * * * * * * * * * * * * * * * * * * * * * * * * * * * * * * //

dimensions      [0 0 0 0 0 0 0];

internalField   nonuniform List<scalar> 
300
(
0
0
0
0
0
0
0
0
0
0
0
0
0
0
0
0
0
0
0
0
0
0
0
0
0
0
0
0
0
0
0
0
0
0
0
0
0
0
0
0
0
0
0
0
0
0
0
0
0
0
0
0
0
0
0
0
0
0
0
0
0.00280165
0.00298303
0.00258711
0.00258811
0.00257012
0.00256241
0.0025418
0.00252354
0.00250379
0.00248445
0.00246575
0.00244803
0.00243186
0.002417
0.00240351
0.00239146
0.00238083
0.00237158
0.00236376
0.00235688
0.00235116
0.0023465
0.00234259
0.00233941
0.00233696
0.00233493
0.00233335
0.00233224
0.00233134
0.00233065
0.00233018
0.00232978
0.00232964
0.00232947
0.00232941
0.00232943
0.00232947
0.00232947
0.0023295
0.00232945
0.00232961
0.0023296
0.00232968
0.00232963
0.00232964
0.0023297
0.00232977
0.00232973
0.00232976
0.00232965
0.00232981
0.00232974
0.0023298
0.0023297
0.00232968
0.0023297
0.00232975
0.00232969
0.00232969
0.00232961
0.00232972
0.00232966
0.00232969
0.0023296
0.00232958
0.00232958
0.00232967
0.00232954
0.00232963
0.00232949
0.00232963
0.00232954
0.00232958
0.00232948
0.0023295
0.00232954
0.00232956
0.00232956
0.00232962
0.00232968
0.00232963
0.00232973
0.00232955
0.00232984
0.00232962
0.00232996
0.00232959
0.00232999
0.00232957
0.00233015
0.00232949
0.00233027
0.00232939
0.00233047
0.00232945
0.00233071
0.0023295
0.00233105
0.00232948
0.00233132
0.00232939
0.00233166
0.00232944
0.00233199
0.00232938
0.00233227
0.00232935
0.0023327
0.00232929
0.00233316
0.00232935
0.00233359
0.00232942
0.00233409
0.0023294
0.00233448
0.00232931
0.00233486
0.00232937
0.00233525
0.0023294
0.00233565
0.00232935
0.00233591
0.00232923
0.00233615
0.00232925
0.00233636
0.00232931
0.00233658
0.00232927
0.00233675
0.00232934
0.00233688
0.00232939
0.00233703
0.00232936
0.00233704
0.00232925
0.00233702
0.00232927
0.00233697
0.00232931
0.00233695
0.00232928
0.00233687
0.00232935
0.00233675
0.00232938
0.00233666
0.00232936
0.00233649
0.00232941
0.00233631
0.00232944
0.00233615
0.00232945
0.00233591
0.00233037
0.00233983
0.00233483
0.00234458
0.00233997
0.00235007
0.00234597
0.00235627
0.00235272
0.00236337
0.00236037
0.00237124
0.00236897
0.00238005
0.00237836
0.00238977
0.00238874
0.00240035
0.00240019
0.00241189
0.00241239
0.00242455
0.00242569
0.0024379
0.00244002
0.00245306
0.00245537
0.00247394
0.00247203
0.00249896
0.0024894
0.00252564
0.00250774
0.00255103
0.00251673
0.00257983
0.00252913
0.0026084
0.00253548
0.00263964
0.00255011
0.00267216
0.00256036
0.00270359
0.002574
0.00273819
0.00258898
0.00277464
0.00260229
0.00281241
0.002618
0.00285122
0.00263138
0.00289081
0.00264446
0.00293395
0.00265426
0.00297929
0.00266053
0.00302585
0.00265927
0.00307132
0.00267819
0.00312278
0.0026781
0.0031569
0.00291678
0.0026492
0.00216297
0.00233356
0.00213877
0.00233407
0.00208931
0.00233499
0.0020781
0.00231538
0.00244441
0.00238646
0
0
0
0
)
;

boundaryField
{
    inlet
    {
        type            calculated;
        value           uniform 0;
    }
    outlet
    {
        type            calculated;
        value           uniform 0;
    }
    sideWall
    {
        type            empty;
    }
}


// ************************************************************************* //
