/*--------------------------------*- C++ -*----------------------------------*\
| =========                 |                                                 |
| \\      /  F ield         | foam-extend: Open Source CFD                    |
|  \\    /   O peration     | Version:     3.2                                |
|   \\  /    A nd           | Web:         http://www.foam-extend.org         |
|    \\/     M anipulation  | For copyright notice see file Copyright         |
\*---------------------------------------------------------------------------*/
FoamFile
{
    version     2.0;
    format      ascii;
    class       areaScalarField;
    location    "2000";
    object      He;
}
// * * * * * * * * * * * * * * * * * * * * * * * * * * * * * * * * * * * * * //

dimensions      [0 0 0 0 0 0 0];

internalField   nonuniform List<scalar> 
300
(
0
0
0
0
0
0
0
0
0
0
0
0
0
0
0
0
0
0
0
0
0
0
0
0
0
0
0
0
0
0
0
0
0
0
0
0
0
0
0
0
0
0
0
0
0
0
0
0
0
0
0
0
0
0
0
0
0
0
0
7.91578e-08
3.13193e-07
2.57491e-07
7.29604e-08
7.09534e-08
5.26677e-08
4.77749e-08
3.97714e-08
3.52252e-08
2.61335e-08
0
1.70196e-10
2.24287e-10
2.23424e-10
1.97439e-10
1.43651e-10
3.80467e-11
0
0
0
0
1.39993e-10
1.23925e-10
1.18931e-10
1.04908e-10
7.54532e-11
1.9218e-11
0
0
0
0
8.11286e-11
7.72596e-11
8.29461e-11
6.99298e-11
4.55717e-11
1.21307e-11
0
0
0
0
0
3.73962e-11
3.17448e-11
2.8213e-11
2.1732e-11
8.08915e-12
0
0
0
0
2.34246e-11
1.8516e-11
1.79736e-11
7.12705e-12
0
0
0
0
4.69842e-12
0
0
9.42714e-11
1.01392e-10
3.90395e-11
0
0
0
0
5.20552e-10
2.64521e-10
0
0
1.6476e-10
1.00782e-12
0
0
0
0
0
0
0
0
0
0
0
0
0
0
0
0
0
0
0
0
0
0
0
0
0
0
0
0
0
0
0
0
0
0
0
0
0
0
0
0
0
0
0
0
0
0
0
0
0
0
0
0
0
0
0
0
0
0
0
0
1.46506e-10
2.47083e-10
2.2937e-10
2.72619e-10
0
0
0
0
2.69927e-09
4.08446e-09
3.12716e-09
1.75002e-09
0
0
0
0
1.05573e-08
1.33198e-08
1.0207e-08
4.66331e-09
0
0
0
0
2.34996e-08
2.73074e-08
2.08927e-08
8.65434e-09
0
0
0
0
3.991e-08
4.42266e-08
3.37302e-08
1.3101e-08
0
0
0
0
5.76458e-08
6.18309e-08
4.71437e-08
1.76531e-08
0
0
0
0
7.49905e-08
7.88389e-08
5.98177e-08
2.16973e-08
0
0
0
0
9.03024e-08
9.3504e-08
7.09999e-08
2.52416e-08
0
0
0
0
1.0329e-07
1.05891e-07
8.02198e-08
2.8104e-08
0
0
0
0
1.14244e-07
1.16426e-07
8.82583e-08
3.0773e-08
0
0
0
0
1.24345e-07
1.26484e-07
9.59404e-08
3.34486e-08
0
0
0
0
1.35357e-07
1.34516e-07
1.05145e-07
4.28099e-08
4.65034e-09
0
1.22234e-05
1.35912e-05
1.08283e-05
1.10175e-05
1.48093e-05
8.91226e-11
0
0
0
0
0
0
)
;

boundaryField
{
    inlet
    {
        type            calculated;
        value           uniform 0;
    }
    outlet
    {
        type            calculated;
        value           uniform 0;
    }
    sideWall
    {
        type            empty;
    }
}


// ************************************************************************* //
