/*--------------------------------*- C++ -*----------------------------------*\
| =========                 |                                                 |
| \\      /  F ield         | foam-extend: Open Source CFD                    |
|  \\    /   O peration     | Version:     3.2                                |
|   \\  /    A nd           | Web:         http://www.foam-extend.org         |
|    \\/     M anipulation  | For copyright notice see file Copyright         |
\*---------------------------------------------------------------------------*/
FoamFile
{
    version     2.0;
    format      ascii;
    class       volScalarField;
    location    "2000";
    object      k;
}
// * * * * * * * * * * * * * * * * * * * * * * * * * * * * * * * * * * * * * //

dimensions      [0 2 -2 0 0 0 0];

internalField   nonuniform List<scalar> 
2400
(
0.00355879
0.00435731
0.00368328
0.0031093
0.00277951
0.00264367
0.00259077
0.00258425
0.00259299
0.00261094
0.00263252
0.00265452
0.00267584
0.00269835
0.00271992
0.00274184
0.00276506
0.00278819
0.00281188
0.00283571
0.00285958
0.00288351
0.00290813
0.00293337
0.00295775
0.00298018
0.0030004
0.00301819
0.00303364
0.00304687
0.00305822
0.00306791
0.00307599
0.0030826
0.00308791
0.00309231
0.00309594
0.00309903
0.0031016
0.00310383
0.00310566
0.0031073
0.0031086
0.00310982
0.00311073
0.00311165
0.00311228
0.003113
0.0031134
0.00311408
0.00311401
0.00311526
0.00311363
0.0031178
0.00310969
0.0031272
0.00308984
0.00316065
0.00290545
0.00339328
0.00465866
0.00437859
0.00385227
0.00387203
0.00382531
0.00383468
0.00382905
0.00383171
0.00383294
0.0038346
0.00383537
0.00383643
0.00383764
0.00383855
0.00383934
0.00383991
0.00384037
0.00384066
0.00384095
0.00384105
0.00384103
0.00384114
0.00384106
0.00384096
0.00384098
0.00384088
0.00384072
0.00384077
0.00384063
0.00384059
0.00384049
0.00384036
0.00384041
0.00384035
0.00384025
0.00384037
0.00384027
0.00384028
0.00384024
0.00384015
0.00384026
0.00384019
0.00384021
0.00384019
0.00384011
0.00384023
0.00384016
0.00384019
0.00384017
0.00384009
0.00384021
0.00384015
0.00384017
0.00384015
0.00384006
0.0038402
0.00384011
0.00384017
0.00384011
0.00384007
0.00384014
0.00384013
0.00384014
0.00384011
0.00384006
0.00384009
0.00384018
0.00383999
0.00384028
0.00383976
0.00384042
0.00383975
0.00384043
0.00383965
0.00384041
0.00383953
0.00384063
0.0038393
0.00384084
0.00383921
0.00384095
0.00383905
0.00384101
0.00383888
0.00384128
0.00383859
0.00384151
0.00383821
0.00384177
0.003838
0.00384196
0.00383772
0.00384209
0.00383743
0.00384244
0.00383702
0.00384277
0.00383679
0.00384297
0.00383651
0.0038431
0.00383625
0.0038434
0.00383592
0.00384363
0.00383555
0.00384383
0.00383541
0.0038439
0.00383527
0.00384412
0.00383505
0.00384427
0.00383504
0.00384427
0.00383501
0.00384418
0.00383502
0.00384425
0.00383496
0.00384426
0.00383511
0.00384413
0.00383523
0.0038439
0.00383539
0.00384384
0.00383548
0.00384372
0.00383577
0.00384346
0.00383605
0.00384335
0.00383622
0.00384318
0.00383657
0.00384292
0.00383687
0.0038426
0.0038372
0.00384247
0.00383742
0.00384231
0.00383781
0.00384204
0.00383817
0.00384193
0.00383839
0.00384181
0.00383876
0.00384158
0.00383907
0.00384151
0.00383925
0.00384141
0.00383956
0.00384121
0.00383981
0.00384118
0.00383991
0.00384112
0.00384015
0.00384095
0.00384033
0.00384094
0.00384036
0.00384091
0.0038405
0.00384075
0.00384062
0.00384075
0.00384058
0.00384075
0.00384066
0.00384064
0.0038407
0.00384061
0.00384065
0.00384062
0.00384065
0.00384054
0.00384063
0.00384058
0.00384066
0.00384052
0.00384066
0.00384055
0.00384056
0.00384053
0.00384055
0.00384043
0.00384051
0.0038404
0.00384039
0.00384037
0.00384042
0.00384039
0.00384032
0.00384038
0.00384033
0.00384027
0.00384031
0.00384025
0.00384021
0.00384021
0.00384025
0.00384024
0.00384015
0.00384025
0.00384016
0.00384015
0.00384012
0.00384022
0.00384016
0.00384015
0.00384014
0.00384022
0.00384021
0.00384015
0.0038402
0.00384014
0.00384026
0.00383984
0.00384104
0.00383867
0.00384092
0.00384137
0.0038384
0.00383956
0.00383813
0.00384211
0.00383456
0.00384934
0.00384345
0.00377603
0.00415383
0.00314989
0.00268404
0.00294687
0.00300225
0.000807917
0.00127668
0.00167869
0.00195463
0.00211019
0.00220678
0.00227186
0.00231852
0.00235292
0.00238156
0.00240752
0.00243147
0.00245466
0.00247747
0.00250134
0.00252466
0.00254817
0.00257203
0.00259633
0.00262067
0.00264498
0.00266834
0.00268969
0.00270864
0.00272512
0.00273914
0.00275084
0.0027605
0.00276836
0.00277474
0.00277988
0.00278405
0.0027874
0.00279008
0.00279218
0.00279388
0.00279525
0.00279642
0.00279738
0.00279822
0.0027989
0.00279951
0.00279999
0.00280044
0.00280078
0.00280111
0.00280134
0.00280159
0.00280175
0.00280195
0.00280206
0.0028022
0.00280222
0.00280247
0.00280221
0.00280298
0.00280174
0.00280073
0.00281308
0.00276122
0.0029743
0.00322704
0.0032965
0.00332386
0.00335066
0.00336924
0.00338376
0.00339407
0.00340083
0.00340572
0.0034089
0.00341067
0.00341146
0.00341146
0.00341088
0.00340985
0.00340855
0.00340708
0.00340554
0.00340403
0.00340254
0.00340116
0.00339992
0.00339877
0.00339776
0.00339691
0.00339615
0.00339552
0.00339501
0.00339457
0.00339421
0.00339392
0.00339368
0.00339351
0.00339336
0.00339325
0.00339318
0.00339312
0.00339308
0.00339305
0.00339302
0.00339302
0.00339302
0.00339301
0.00339301
0.003393
0.00339301
0.00339301
0.00339302
0.00339301
0.00339301
0.00339302
0.00339302
0.00339302
0.00339301
0.003393
0.00339302
0.00339301
0.00339301
0.003393
0.003393
0.00339301
0.00339301
0.00339301
0.003393
0.00339299
0.00339299
0.003393
0.00339296
0.00339303
0.0033929
0.003393
0.00339287
0.00339298
0.00339283
0.00339298
0.00339278
0.003393
0.00339274
0.00339301
0.00339271
0.003393
0.00339265
0.003393
0.0033926
0.00339302
0.00339252
0.00339303
0.00339243
0.00339301
0.00339234
0.00339298
0.00339225
0.00339297
0.00339215
0.00339298
0.00339205
0.00339297
0.00339198
0.00339295
0.00339189
0.00339293
0.00339181
0.00339294
0.00339172
0.00339292
0.00339163
0.00339288
0.00339157
0.00339286
0.00339153
0.00339288
0.0033915
0.00339286
0.00339151
0.00339285
0.00339151
0.00339284
0.00339153
0.00339286
0.00339156
0.00339285
0.00339163
0.00339284
0.00339169
0.00339283
0.00339175
0.00339286
0.00339182
0.00339285
0.00339192
0.00339287
0.00339202
0.00339291
0.00339212
0.00339293
0.00339225
0.00339295
0.00339235
0.00339298
0.00339246
0.00339303
0.00339257
0.00339307
0.0033927
0.00339312
0.00339283
0.0033932
0.00339294
0.00339324
0.00339305
0.0033933
0.00339317
0.00339338
0.00339326
0.00339342
0.00339335
0.00339347
0.00339344
0.00339353
0.00339349
0.00339357
0.00339354
0.0033936
0.00339359
0.00339364
0.00339359
0.00339367
0.00339361
0.00339366
0.00339364
0.00339366
0.00339362
0.00339364
0.00339361
0.00339362
0.00339362
0.00339362
0.0033936
0.00339358
0.00339356
0.00339355
0.00339353
0.00339353
0.00339352
0.0033935
0.0033935
0.00339347
0.00339345
0.00339343
0.0033934
0.00339338
0.00339337
0.00339333
0.0033933
0.00339328
0.00339327
0.00339325
0.00339323
0.00339321
0.0033932
0.00339318
0.00339316
0.00339313
0.00339311
0.0033931
0.00339309
0.00339309
0.00339307
0.00339307
0.00339306
0.00339304
0.00339303
0.00339303
0.00339303
0.00339304
0.00339304
0.00339304
0.00339303
0.00339303
0.00339302
0.00339302
0.003393
0.00339292
0.00339321
0.00339292
0.00339296
0.00339287
0.00339272
0.00339276
0.00339271
0.00339394
0.00339178
0.00339107
0.00337751
0.00326455
0.00324154
0.00310834
0.00298977
0.00293243
0.000293968
0.00042437
0.000598596
0.000815003
0.0010336
0.00124208
0.00141514
0.00155194
0.00166323
0.00175427
0.00182771
0.00188786
0.00193883
0.00198397
0.00202355
0.00205878
0.00209171
0.00212223
0.00215134
0.00217865
0.00220426
0.00222712
0.00224615
0.00226112
0.00227251
0.00228082
0.00228655
0.00229026
0.0022924
0.00229342
0.00229362
0.00229329
0.00229259
0.00229172
0.0022908
0.00228993
0.00228913
0.00228842
0.0022878
0.00228725
0.00228676
0.00228634
0.00228597
0.00228564
0.00228538
0.00228512
0.00228494
0.00228473
0.0022846
0.00228441
0.00228431
0.00228417
0.0022842
0.00228392
0.00228437
0.00228345
0.00228652
0.00228405
0.00233997
0.00222868
0.0021996
0.00235901
0.0024598
0.00252224
0.00257626
0.00261796
0.0026518
0.00267752
0.00269753
0.00271266
0.00272386
0.00273174
0.00273707
0.00274044
0.0027423
0.00274303
0.00274294
0.00274226
0.00274119
0.00273994
0.00273853
0.00273711
0.00273573
0.0027344
0.00273318
0.00273212
0.00273113
0.00273029
0.00272958
0.00272894
0.00272843
0.002728
0.00272763
0.00272734
0.00272712
0.00272691
0.00272678
0.00272666
0.00272658
0.00272652
0.00272646
0.00272644
0.00272641
0.0027264
0.00272639
0.00272637
0.00272638
0.00272637
0.00272637
0.00272638
0.00272637
0.00272638
0.00272637
0.00272638
0.00272638
0.00272637
0.00272639
0.00272636
0.00272638
0.00272637
0.00272637
0.00272637
0.00272637
0.00272637
0.00272638
0.00272636
0.00272636
0.00272637
0.00272633
0.0027264
0.00272628
0.0027264
0.00272623
0.0027264
0.00272619
0.0027264
0.00272615
0.00272643
0.00272607
0.00272645
0.00272599
0.00272648
0.00272592
0.0027265
0.00272583
0.00272654
0.00272573
0.00272661
0.00272559
0.00272665
0.00272544
0.0027267
0.00272529
0.00272673
0.00272513
0.00272681
0.00272495
0.00272687
0.00272476
0.00272694
0.00272459
0.002727
0.00272441
0.00272707
0.00272424
0.00272716
0.00272405
0.00272722
0.00272388
0.00272727
0.00272373
0.00272736
0.00272359
0.00272742
0.00272347
0.00272747
0.00272342
0.00272749
0.00272338
0.00272754
0.00272337
0.00272755
0.00272341
0.00272754
0.00272346
0.00272753
0.00272352
0.00272755
0.00272359
0.00272752
0.00272371
0.0027275
0.00272382
0.00272751
0.00272396
0.00272748
0.00272412
0.00272744
0.0027243
0.00272741
0.00272446
0.0027274
0.00272464
0.00272736
0.00272484
0.00272733
0.00272502
0.00272734
0.0027252
0.00272729
0.00272541
0.00272727
0.00272558
0.00272728
0.00272576
0.00272723
0.00272594
0.00272721
0.00272608
0.00272721
0.00272623
0.00272716
0.00272637
0.00272713
0.00272647
0.00272712
0.00272656
0.00272707
0.00272666
0.00272704
0.0027267
0.00272704
0.00272674
0.00272699
0.0027268
0.00272693
0.00272682
0.00272696
0.00272682
0.0027269
0.00272682
0.00272686
0.0027268
0.00272683
0.00272679
0.00272681
0.00272677
0.00272679
0.00272674
0.00272674
0.00272671
0.0027267
0.00272669
0.00272668
0.00272664
0.00272662
0.00272659
0.00272659
0.00272655
0.00272656
0.00272654
0.00272653
0.00272652
0.0027265
0.00272647
0.00272645
0.00272644
0.00272644
0.00272642
0.00272644
0.00272643
0.00272643
0.00272638
0.00272638
0.00272637
0.00272638
0.00272638
0.0027264
0.0027264
0.00272639
0.00272637
0.00272635
0.00272635
0.00272627
0.00272676
0.00272612
0.00272622
0.00272637
0.00272622
0.0027263
0.00272608
0.00272762
0.00272378
0.00272559
0.00271365
0.00258632
0.00274392
0.0026791
0.00257173
0.00250636
0.00018298
0.000214833
0.000262148
0.000326404
0.000429272
0.000560774
0.000711227
0.000867295
0.00101275
0.00114289
0.0012572
0.00135675
0.00144323
0.00151903
0.00158375
0.00163892
0.00168714
0.00172952
0.001767
0.00179973
0.00182811
0.00185084
0.00186877
0.00188208
0.00189115
0.00189665
0.00189931
0.00189989
0.001899
0.00189719
0.0018948
0.00189208
0.00188927
0.00188654
0.00188407
0.00188189
0.00187999
0.00187833
0.0018769
0.00187565
0.00187457
0.00187363
0.00187283
0.00187212
0.00187155
0.001871
0.0018706
0.00187017
0.00186987
0.00186952
0.00186929
0.00186905
0.00186899
0.00186867
0.00186902
0.00186821
0.00187121
0.00187186
0.00191907
0.00182952
0.00173435
0.00181962
0.00188415
0.00194097
0.00199451
0.00204159
0.00208245
0.0021157
0.00214328
0.00216506
0.00218199
0.00219473
0.0022041
0.00221077
0.00221531
0.00221819
0.00221981
0.00222049
0.00222046
0.00221999
0.00221918
0.00221817
0.00221709
0.00221596
0.00221486
0.00221384
0.00221288
0.00221202
0.00221126
0.00221058
0.00221002
0.00220951
0.0022091
0.00220876
0.00220848
0.00220823
0.00220806
0.00220789
0.00220778
0.00220769
0.00220762
0.00220758
0.00220753
0.0022075
0.00220748
0.00220746
0.00220746
0.00220745
0.00220745
0.00220745
0.00220744
0.00220745
0.00220744
0.00220745
0.00220745
0.00220744
0.00220745
0.00220743
0.00220745
0.00220744
0.00220744
0.00220744
0.00220744
0.00220745
0.00220745
0.00220744
0.00220744
0.00220744
0.00220742
0.00220746
0.00220739
0.00220746
0.00220736
0.00220746
0.00220733
0.00220745
0.0022073
0.00220746
0.00220725
0.00220747
0.00220718
0.00220748
0.00220713
0.00220749
0.00220707
0.0022075
0.002207
0.00220754
0.00220691
0.00220756
0.00220679
0.00220758
0.00220669
0.00220759
0.00220657
0.00220762
0.00220643
0.00220765
0.00220629
0.00220767
0.00220615
0.0022077
0.00220602
0.00220772
0.00220589
0.00220777
0.00220574
0.0022078
0.00220561
0.00220782
0.00220549
0.00220785
0.00220537
0.00220788
0.00220527
0.0022079
0.00220521
0.00220791
0.00220516
0.00220794
0.00220514
0.00220796
0.00220513
0.00220797
0.00220515
0.00220798
0.00220518
0.002208
0.00220522
0.002208
0.00220529
0.002208
0.00220536
0.00220802
0.00220545
0.00220802
0.00220556
0.00220802
0.00220569
0.00220802
0.00220581
0.00220803
0.00220595
0.00220802
0.00220609
0.00220802
0.00220623
0.00220804
0.00220638
0.00220803
0.00220654
0.00220803
0.00220668
0.00220805
0.00220683
0.00220803
0.00220697
0.00220803
0.00220709
0.00220804
0.00220722
0.00220802
0.00220735
0.00220801
0.00220744
0.002208
0.00220754
0.00220795
0.00220764
0.00220795
0.00220767
0.00220796
0.00220771
0.00220793
0.00220776
0.0022079
0.00220778
0.00220792
0.0022078
0.00220789
0.0022078
0.00220785
0.00220778
0.00220783
0.00220778
0.00220781
0.00220777
0.00220779
0.00220774
0.00220776
0.00220772
0.00220773
0.00220771
0.00220772
0.00220769
0.00220767
0.00220763
0.00220763
0.00220759
0.00220761
0.0022076
0.0022076
0.00220758
0.00220757
0.00220753
0.00220751
0.0022075
0.0022075
0.00220749
0.00220752
0.00220751
0.0022075
0.00220745
0.00220744
0.00220742
0.00220744
0.00220745
0.00220749
0.00220749
0.00220747
0.00220743
0.00220739
0.0022074
0.00220737
0.00220768
0.00220725
0.00220737
0.00220747
0.00220737
0.00220741
0.00220723
0.00220808
0.00220568
0.00220742
0.00219707
0.00212523
0.00226682
0.00223573
0.00216736
0.00211656
0.000161216
0.000169005
0.000178259
0.000191394
0.00021591
0.000253994
0.000320308
0.000409764
0.000515044
0.00062989
0.000744284
0.000854739
0.000957908
0.00105266
0.00113894
0.00121543
0.00128239
0.0013406
0.00139048
0.00143272
0.00146786
0.00149701
0.00151936
0.00153531
0.00154608
0.00155274
0.00155629
0.00155763
0.00155745
0.00155633
0.00155458
0.00155243
0.00155014
0.00154792
0.00154594
0.0015442
0.0015427
0.00154137
0.00154023
0.00153922
0.00153836
0.00153759
0.00153695
0.00153637
0.00153591
0.00153547
0.00153514
0.00153482
0.00153455
0.00153429
0.00153408
0.0015339
0.00153384
0.00153362
0.00153387
0.00153339
0.00153564
0.00153764
0.00156664
0.00151049
0.00141312
0.00146516
0.00149894
0.00153695
0.00157764
0.00161785
0.00165482
0.00168778
0.00171681
0.00174085
0.00176044
0.001776
0.00178813
0.00179737
0.00180423
0.00180917
0.00181256
0.00181475
0.00181601
0.00181658
0.00181665
0.00181635
0.00181583
0.00181515
0.00181439
0.00181362
0.00181286
0.00181214
0.00181148
0.00181086
0.00181034
0.00180986
0.00180945
0.00180911
0.00180881
0.00180856
0.00180837
0.0018082
0.00180807
0.00180797
0.00180788
0.00180783
0.00180777
0.00180774
0.00180771
0.00180768
0.00180768
0.00180766
0.00180766
0.00180765
0.00180765
0.00180765
0.00180764
0.00180765
0.00180765
0.00180764
0.00180765
0.00180764
0.00180765
0.00180765
0.00180765
0.00180765
0.00180765
0.00180765
0.00180765
0.00180765
0.00180764
0.00180765
0.00180764
0.00180766
0.00180762
0.00180766
0.0018076
0.00180765
0.00180758
0.00180764
0.00180756
0.00180764
0.00180752
0.00180764
0.00180748
0.00180764
0.00180745
0.00180764
0.0018074
0.00180763
0.00180736
0.00180764
0.0018073
0.00180765
0.00180723
0.00180765
0.00180715
0.00180764
0.00180707
0.00180764
0.00180698
0.00180763
0.00180688
0.00180762
0.00180678
0.00180761
0.00180668
0.0018076
0.00180658
0.00180761
0.00180649
0.0018076
0.00180639
0.00180759
0.0018063
0.00180758
0.00180621
0.00180757
0.00180613
0.00180756
0.00180607
0.00180755
0.00180603
0.00180755
0.001806
0.00180755
0.00180598
0.00180755
0.00180599
0.00180756
0.00180599
0.00180757
0.00180602
0.00180758
0.00180606
0.00180758
0.0018061
0.0018076
0.00180616
0.00180761
0.00180623
0.00180762
0.00180631
0.00180764
0.0018064
0.00180767
0.0018065
0.00180768
0.0018066
0.0018077
0.0018067
0.00180774
0.00180681
0.00180776
0.00180692
0.00180779
0.00180702
0.00180783
0.00180713
0.00180785
0.00180724
0.00180788
0.00180733
0.00180791
0.00180743
0.00180792
0.00180753
0.00180794
0.0018076
0.00180795
0.00180768
0.00180796
0.00180774
0.00180797
0.00180778
0.00180798
0.00180782
0.00180798
0.00180786
0.00180798
0.00180789
0.00180799
0.00180791
0.00180798
0.00180791
0.00180796
0.0018079
0.00180795
0.00180791
0.00180794
0.00180791
0.00180793
0.00180789
0.0018079
0.00180787
0.00180788
0.00180787
0.00180788
0.00180786
0.00180784
0.00180781
0.0018078
0.00180778
0.00180779
0.00180778
0.00180779
0.00180778
0.00180776
0.00180773
0.0018077
0.00180769
0.0018077
0.0018077
0.00180773
0.00180772
0.0018077
0.00180765
0.00180763
0.00180762
0.00180764
0.00180766
0.0018077
0.0018077
0.00180767
0.00180762
0.00180758
0.00180759
0.00180759
0.00180777
0.00180751
0.00180764
0.00180769
0.0018076
0.00180762
0.00180749
0.0018079
0.00180658
0.00180805
0.00180068
0.00177047
0.00187052
0.0018454
0.00180221
0.00176721
0.000155805
0.000159864
0.000161945
0.000163754
0.000167133
0.000173859
0.000188716
0.0002135
0.000254608
0.000312891
0.000384848
0.000466876
0.00055488
0.000643153
0.000728605
0.000810164
0.000885661
0.000953726
0.00101409
0.00106729
0.001114
0.00115303
0.00118467
0.00120892
0.00122715
0.00124063
0.00125049
0.00125769
0.0012629
0.00126665
0.00126922
0.00127088
0.00127193
0.00127263
0.00127319
0.00127361
0.00127393
0.00127416
0.00127434
0.00127446
0.00127456
0.00127462
0.00127468
0.00127471
0.00127475
0.00127477
0.00127479
0.00127481
0.00127481
0.00127481
0.0012748
0.00127479
0.00127485
0.0012748
0.0012751
0.00127496
0.00127661
0.0012787
0.00129314
0.00126888
0.00120504
0.00123426
0.00124969
0.00127147
0.00129819
0.00132752
0.00135666
0.00138464
0.00141067
0.00143364
0.00145339
0.00146993
0.00148347
0.00149435
0.00150289
0.00150945
0.00151435
0.0015179
0.00152036
0.00152197
0.00152292
0.00152337
0.00152347
0.0015233
0.00152297
0.00152253
0.00152204
0.00152153
0.00152103
0.00152055
0.00152011
0.00151971
0.00151935
0.00151904
0.00151876
0.00151853
0.00151834
0.00151818
0.00151805
0.00151794
0.00151785
0.00151779
0.00151773
0.0015177
0.00151766
0.00151764
0.00151762
0.00151761
0.0015176
0.0015176
0.00151759
0.00151759
0.00151759
0.00151759
0.00151759
0.00151759
0.00151759
0.00151758
0.00151759
0.00151759
0.00151759
0.00151759
0.00151759
0.00151759
0.00151759
0.00151759
0.00151759
0.00151759
0.00151758
0.00151759
0.00151757
0.00151759
0.00151756
0.00151759
0.00151755
0.00151758
0.00151753
0.00151757
0.00151751
0.00151757
0.00151748
0.00151756
0.00151746
0.00151755
0.00151743
0.00151754
0.00151739
0.00151754
0.00151735
0.00151753
0.00151731
0.00151752
0.00151725
0.0015175
0.0015172
0.00151748
0.00151713
0.00151746
0.00151706
0.00151744
0.00151699
0.00151741
0.00151691
0.00151738
0.00151683
0.00151736
0.00151676
0.00151733
0.00151669
0.0015173
0.00151661
0.00151727
0.00151654
0.00151724
0.00151647
0.00151721
0.00151642
0.00151718
0.00151637
0.00151716
0.00151634
0.00151715
0.00151631
0.00151713
0.0015163
0.00151713
0.0015163
0.00151713
0.0015163
0.00151713
0.00151632
0.00151713
0.00151634
0.00151714
0.00151638
0.00151716
0.00151642
0.00151717
0.00151648
0.0015172
0.00151653
0.00151723
0.0015166
0.00151726
0.00151668
0.00151729
0.00151675
0.00151733
0.00151684
0.00151737
0.00151692
0.00151741
0.00151701
0.00151746
0.00151709
0.0015175
0.00151718
0.00151755
0.00151726
0.00151759
0.00151734
0.00151763
0.00151741
0.00151766
0.00151748
0.00151769
0.00151754
0.00151772
0.0015176
0.00151775
0.00151764
0.00151777
0.00151768
0.00151779
0.00151772
0.0015178
0.00151774
0.00151782
0.00151777
0.00151782
0.00151778
0.00151781
0.00151778
0.00151782
0.00151779
0.00151782
0.0015178
0.00151781
0.00151778
0.00151779
0.00151777
0.00151778
0.00151777
0.00151778
0.00151777
0.00151776
0.00151773
0.00151772
0.0015177
0.00151771
0.00151771
0.00151772
0.0015177
0.00151769
0.00151767
0.00151764
0.00151763
0.00151764
0.00151764
0.00151766
0.00151765
0.00151764
0.0015176
0.00151758
0.00151757
0.00151759
0.0015176
0.00151764
0.00151763
0.00151761
0.00151757
0.00151753
0.00151754
0.00151755
0.00151765
0.00151751
0.00151762
0.00151762
0.00151755
0.00151755
0.00151747
0.00151767
0.00151701
0.00151805
0.00151381
0.00150414
0.00156577
0.00153867
0.00150705
0.00148132
0.00015399
0.000157437
0.000159013
0.000158953
0.00015831
0.000158062
0.000159631
0.000163872
0.000173036
0.000189293
0.000213732
0.000249921
0.000297789
0.000354796
0.000418586
0.000485417
0.000552691
0.000618498
0.000681169
0.000740208
0.000795778
0.000845607
0.000889009
0.000925631
0.000956348
0.000981922
0.00100304
0.00102035
0.00103446
0.00104591
0.00105511
0.00106246
0.00106837
0.0010732
0.00107721
0.00108054
0.00108331
0.00108562
0.00108756
0.00108917
0.00109054
0.00109169
0.00109266
0.00109348
0.00109419
0.00109478
0.00109529
0.00109572
0.00109609
0.0010964
0.00109665
0.00109687
0.00109709
0.00109724
0.00109778
0.00109785
0.00109945
0.00110095
0.00110843
0.0011063
0.00108358
0.0010978
0.00110384
0.00111502
0.00113171
0.00115184
0.00117385
0.00119638
0.0012185
0.00123925
0.00125804
0.0012745
0.00128853
0.00130022
0.00130974
0.00131732
0.00132322
0.0013277
0.00133102
0.00133338
0.001335
0.00133602
0.00133661
0.00133686
0.00133687
0.00133671
0.00133646
0.00133613
0.00133578
0.00133542
0.00133507
0.00133475
0.00133444
0.00133417
0.00133393
0.00133372
0.00133354
0.00133339
0.00133327
0.00133317
0.00133308
0.00133302
0.00133296
0.00133292
0.00133289
0.00133286
0.00133285
0.00133283
0.00133283
0.00133282
0.00133281
0.00133281
0.00133281
0.00133281
0.00133281
0.00133281
0.00133281
0.00133281
0.00133281
0.00133281
0.00133281
0.00133281
0.00133281
0.00133281
0.00133281
0.00133281
0.00133281
0.00133281
0.00133281
0.00133281
0.0013328
0.00133281
0.00133279
0.00133281
0.00133278
0.0013328
0.00133277
0.00133279
0.00133276
0.00133278
0.00133274
0.00133278
0.00133272
0.00133276
0.0013327
0.00133275
0.00133267
0.00133274
0.00133264
0.00133273
0.00133261
0.00133271
0.00133257
0.00133268
0.00133253
0.00133266
0.00133248
0.00133263
0.00133242
0.00133259
0.00133236
0.00133256
0.0013323
0.00133252
0.00133224
0.00133248
0.00133218
0.00133244
0.00133211
0.0013324
0.00133205
0.00133235
0.00133199
0.00133231
0.00133193
0.00133227
0.00133187
0.00133223
0.00133183
0.00133219
0.00133179
0.00133217
0.00133176
0.00133215
0.00133174
0.00133213
0.00133172
0.00133212
0.00133172
0.00133212
0.00133172
0.00133212
0.00133173
0.00133212
0.00133175
0.00133214
0.00133178
0.00133215
0.00133181
0.00133217
0.00133186
0.0013322
0.00133191
0.00133224
0.00133197
0.00133228
0.00133203
0.00133232
0.00133209
0.00133237
0.00133216
0.00133242
0.00133224
0.00133248
0.00133231
0.00133253
0.00133238
0.00133258
0.00133245
0.00133264
0.00133252
0.00133269
0.00133259
0.00133273
0.00133265
0.00133278
0.00133271
0.00133282
0.00133276
0.00133285
0.00133281
0.00133289
0.00133285
0.00133291
0.00133288
0.00133293
0.00133291
0.00133296
0.00133294
0.00133297
0.00133295
0.00133298
0.00133296
0.00133298
0.00133297
0.00133299
0.00133298
0.00133299
0.00133297
0.00133298
0.00133297
0.00133298
0.00133297
0.00133297
0.00133296
0.00133296
0.00133294
0.00133293
0.00133292
0.00133293
0.00133292
0.00133292
0.00133291
0.0013329
0.00133288
0.00133287
0.00133286
0.00133286
0.00133287
0.00133287
0.00133286
0.00133285
0.00133283
0.00133282
0.00133281
0.00133282
0.00133283
0.00133285
0.00133283
0.00133282
0.0013328
0.00133278
0.00133279
0.0013328
0.00133285
0.00133279
0.00133284
0.00133283
0.00133277
0.00133277
0.00133273
0.00133283
0.00133261
0.00133307
0.00133156
0.00132777
0.00135823
0.00133065
0.00130293
0.00128093
0.000153498
0.000156685
0.000158356
0.000158201
0.000156849
0.000155247
0.000153964
0.000153429
0.000154435
0.000158011
0.000165313
0.000177808
0.000197228
0.000224674
0.000258341
0.000299665
0.000348267
0.000402525
0.000461078
0.000522056
0.000583069
0.00064186
0.000696826
0.000746723
0.000789907
0.000826852
0.000857946
0.000883812
0.000905168
0.000922694
0.000937095
0.000948791
0.000958286
0.000966041
0.000972484
0.000977884
0.000982412
0.000986208
0.000989404
0.000992092
0.000994365
0.000996284
0.000997914
0.000999293
0.00100047
0.00100147
0.00100232
0.00100305
0.00100367
0.00100419
0.00100464
0.00100502
0.00100538
0.00100565
0.00100677
0.00100665
0.00100929
0.00100949
0.00101562
0.00102528
0.00102708
0.00103584
0.00103885
0.0010447
0.00105702
0.00107183
0.00108963
0.00110888
0.00112861
0.00114782
0.0011658
0.00118198
0.00119608
0.00120805
0.00121795
0.00122597
0.00123231
0.00123723
0.00124093
0.00124366
0.0012456
0.0012469
0.00124773
0.00124819
0.00124838
0.00124838
0.00124825
0.00124803
0.00124776
0.00124747
0.00124717
0.00124689
0.00124662
0.00124637
0.00124615
0.00124596
0.00124579
0.00124565
0.00124553
0.00124543
0.00124535
0.00124529
0.00124524
0.0012452
0.00124516
0.00124514
0.00124512
0.00124511
0.0012451
0.00124509
0.00124509
0.00124509
0.00124508
0.00124508
0.00124508
0.00124508
0.00124508
0.00124508
0.00124508
0.00124508
0.00124508
0.00124508
0.00124508
0.00124508
0.00124508
0.00124508
0.00124508
0.00124508
0.00124508
0.00124508
0.00124508
0.00124508
0.00124507
0.00124508
0.00124506
0.00124507
0.00124505
0.00124506
0.00124504
0.00124505
0.00124503
0.00124504
0.00124501
0.00124503
0.001245
0.00124502
0.00124497
0.001245
0.00124495
0.00124498
0.00124492
0.00124496
0.00124489
0.00124493
0.00124485
0.0012449
0.00124481
0.00124487
0.00124476
0.00124484
0.00124471
0.00124479
0.00124466
0.00124475
0.0012446
0.0012447
0.00124454
0.00124466
0.00124449
0.00124461
0.00124443
0.00124456
0.00124437
0.00124451
0.00124432
0.00124446
0.00124426
0.00124442
0.00124421
0.00124438
0.00124417
0.00124435
0.00124414
0.00124432
0.00124411
0.0012443
0.00124409
0.00124428
0.00124408
0.00124427
0.00124408
0.00124427
0.00124409
0.00124428
0.0012441
0.00124429
0.00124412
0.0012443
0.00124415
0.00124433
0.00124418
0.00124436
0.00124422
0.00124439
0.00124427
0.00124444
0.00124433
0.00124448
0.00124439
0.00124454
0.00124445
0.00124459
0.00124452
0.00124465
0.00124458
0.00124471
0.00124465
0.00124477
0.00124472
0.00124483
0.00124479
0.00124488
0.00124485
0.00124493
0.00124491
0.00124498
0.00124496
0.00124503
0.00124501
0.00124507
0.00124506
0.00124511
0.0012451
0.00124514
0.00124513
0.00124517
0.00124516
0.00124519
0.00124518
0.00124521
0.00124521
0.00124522
0.00124522
0.00124523
0.00124523
0.00124524
0.00124523
0.00124524
0.00124524
0.00124524
0.00124524
0.00124524
0.00124523
0.00124523
0.00124522
0.00124522
0.00124521
0.00124521
0.0012452
0.0012452
0.00124519
0.00124519
0.00124517
0.00124516
0.00124516
0.00124515
0.00124515
0.00124515
0.00124514
0.00124513
0.00124512
0.00124511
0.00124511
0.00124511
0.00124511
0.00124511
0.0012451
0.0012451
0.00124509
0.00124508
0.00124508
0.00124508
0.00124509
0.0012451
0.00124511
0.00124509
0.00124512
0.0012451
0.00124505
0.00124505
0.00124502
0.00124511
0.00124514
0.00124514
0.00124592
0.00124166
0.00125288
0.00122619
0.00119834
0.00117822
)
;

boundaryField
{
    inlet
    {
        type            fixedValue;
        value           uniform 0.00014968;
    }
    outlet
    {
        type            zeroGradient;
    }
    sideWall
    {
        type            empty;
    }
    bed
    {
        type            kqRWallFunction;
        value           nonuniform List<scalar> 
300
(
0.00355879
0.00435731
0.00368328
0.0031093
0.00277951
0.00264367
0.00259077
0.00258425
0.00259299
0.00261094
0.00263252
0.00265452
0.00267584
0.00269835
0.00271992
0.00274184
0.00276506
0.00278819
0.00281188
0.00283571
0.00285958
0.00288351
0.00290813
0.00293337
0.00295775
0.00298018
0.0030004
0.00301819
0.00303364
0.00304687
0.00305822
0.00306791
0.00307599
0.0030826
0.00308791
0.00309231
0.00309594
0.00309903
0.0031016
0.00310383
0.00310566
0.0031073
0.0031086
0.00310982
0.00311073
0.00311165
0.00311228
0.003113
0.0031134
0.00311408
0.00311401
0.00311526
0.00311363
0.0031178
0.00310969
0.0031272
0.00308984
0.00316065
0.00290545
0.00339328
0.00465866
0.00437859
0.00385227
0.00387203
0.00382531
0.00383468
0.00382905
0.00383171
0.00383294
0.0038346
0.00383537
0.00383643
0.00383764
0.00383855
0.00383934
0.00383991
0.00384037
0.00384066
0.00384095
0.00384105
0.00384103
0.00384114
0.00384106
0.00384096
0.00384098
0.00384088
0.00384072
0.00384077
0.00384063
0.00384059
0.00384049
0.00384036
0.00384041
0.00384035
0.00384025
0.00384037
0.00384027
0.00384028
0.00384024
0.00384015
0.00384026
0.00384019
0.00384021
0.00384019
0.00384011
0.00384023
0.00384016
0.00384019
0.00384017
0.00384009
0.00384021
0.00384015
0.00384017
0.00384015
0.00384006
0.0038402
0.00384011
0.00384017
0.00384011
0.00384007
0.00384014
0.00384013
0.00384014
0.00384011
0.00384006
0.00384009
0.00384018
0.00383999
0.00384028
0.00383976
0.00384042
0.00383975
0.00384043
0.00383965
0.00384041
0.00383953
0.00384063
0.0038393
0.00384084
0.00383921
0.00384095
0.00383905
0.00384101
0.00383888
0.00384128
0.00383859
0.00384151
0.00383821
0.00384177
0.003838
0.00384196
0.00383772
0.00384209
0.00383743
0.00384244
0.00383702
0.00384277
0.00383679
0.00384297
0.00383651
0.0038431
0.00383625
0.0038434
0.00383592
0.00384363
0.00383555
0.00384383
0.00383541
0.0038439
0.00383527
0.00384412
0.00383505
0.00384427
0.00383504
0.00384427
0.00383501
0.00384418
0.00383502
0.00384425
0.00383496
0.00384426
0.00383511
0.00384413
0.00383523
0.0038439
0.00383539
0.00384384
0.00383548
0.00384372
0.00383577
0.00384346
0.00383605
0.00384335
0.00383622
0.00384318
0.00383657
0.00384292
0.00383687
0.0038426
0.0038372
0.00384247
0.00383742
0.00384231
0.00383781
0.00384204
0.00383817
0.00384193
0.00383839
0.00384181
0.00383876
0.00384158
0.00383907
0.00384151
0.00383925
0.00384141
0.00383956
0.00384121
0.00383981
0.00384118
0.00383991
0.00384112
0.00384015
0.00384095
0.00384033
0.00384094
0.00384036
0.00384091
0.0038405
0.00384075
0.00384062
0.00384075
0.00384058