/*--------------------------------*- C++ -*----------------------------------*\
| =========                 |                                                 |
| \\      /  F ield         | foam-extend: Open Source CFD                    |
|  \\    /   O peration     | Version:     3.2                                |
|   \\  /    A nd           | Web:         http://www.foam-extend.org         |
|    \\/     M anipulation  | For copyright notice see file Copyright         |
\*---------------------------------------------------------------------------*/
FoamFile
{
    version     2.0;
    format      ascii;
    class       areaScalarField;
    location    "2000";
    object      kTempA;
}
// * * * * * * * * * * * * * * * * * * * * * * * * * * * * * * * * * * * * * //

dimensions      [0 2 -2 0 0 0 0];

internalField   nonuniform List<scalar> 
300
(
0.00355879
0.00435731
0.00368328
0.0031093
0.00277951
0.00264367
0.00259077
0.00258425
0.00259299
0.00261094
0.00263252
0.00265452
0.00267584
0.00269835
0.00271992
0.00274184
0.00276506
0.00278819
0.00281188
0.00283571
0.00285958
0.00288351
0.00290813
0.00293337
0.00295775
0.00298018
0.0030004
0.00301819
0.00303364
0.00304687
0.00305822
0.00306791
0.00307599
0.0030826
0.00308791
0.00309231
0.00309594
0.00309903
0.0031016
0.00310383
0.00310566
0.0031073
0.0031086
0.00310982
0.00311073
0.00311165
0.00311228
0.003113
0.0031134
0.00311408
0.00311401
0.00311526
0.00311363
0.0031178
0.00310969
0.0031272
0.00308984
0.00316065
0.00290545
0.00339328
0.00465866
0.00437859
0.00385227
0.00387203
0.00382531
0.00383468
0.00382905
0.00383171
0.00383294
0.0038346
0.00383537
0.00383643
0.00383764
0.00383855
0.00383934
0.00383991
0.00384037
0.00384066
0.00384095
0.00384105
0.00384103
0.00384114
0.00384106
0.00384096
0.00384098
0.00384088
0.00384072
0.00384077
0.00384063
0.00384059
0.00384049
0.00384036
0.00384041
0.00384035
0.00384025
0.00384037
0.00384027
0.00384028
0.00384024
0.00384015
0.00384026
0.00384019
0.00384021
0.00384019
0.00384011
0.00384023
0.00384016
0.00384019
0.00384017
0.00384009
0.00384021
0.00384015
0.00384017
0.00384015
0.00384006
0.0038402
0.00384011
0.00384017
0.00384011
0.00384007
0.00384014
0.00384013
0.00384014
0.00384011
0.00384006
0.00384009
0.00384018
0.00383999
0.00384028
0.00383976
0.00384042
0.00383975
0.00384043
0.00383965
0.00384041
0.00383953
0.00384063
0.0038393
0.00384084
0.00383921
0.00384095
0.00383905
0.00384101
0.00383888
0.00384128
0.00383859
0.00384151
0.00383821
0.00384177
0.003838
0.00384196
0.00383772
0.00384209
0.00383743
0.00384244
0.00383702
0.00384277
0.00383679
0.00384297
0.00383651
0.0038431
0.00383625
0.0038434
0.00383592
0.00384363
0.00383555
0.00384383
0.00383541
0.0038439
0.00383527
0.00384412
0.00383505
0.00384427
0.00383504
0.00384427
0.00383501
0.00384418
0.00383502
0.00384425
0.00383496
0.00384426
0.00383511
0.00384413
0.00383523
0.0038439
0.00383539
0.00384384
0.00383548
0.00384372
0.00383577
0.00384346
0.00383604
0.00384335
0.00383622
0.00384318
0.00383657
0.00384292
0.00383687
0.0038426
0.0038372
0.00384247
0.00383742
0.00384231
0.00383781
0.00384204
0.00383817
0.00384193
0.00383839
0.00384181
0.00383876
0.00384157
0.00383907
0.00384151
0.00383925
0.00384141
0.00383956
0.00384121
0.00383981
0.00384118
0.00383991
0.00384112
0.00384015
0.00384095
0.00384033
0.00384093
0.00384035
0.00384091
0.0038405
0.00384076
0.00384062
0.00384075
0.00384058
0.00384074
0.00384065
0.00384063
0.0038407
0.00384062
0.00384065
0.00384062
0.00384065
0.00384053
0.00384062
0.00384058
0.00384067
0.00384053
0.00384066
0.00384055
0.00384055
0.00384053
0.00384054
0.00384043
0.00384051
0.00384041
0.0038404
0.00384037
0.00384042
0.00384038
0.00384032
0.00384038
0.00384033
0.00384028
0.00384032
0.00384026
0.0038402
0.0038402
0.00384024
0.00384024
0.00384015
0.00384026
0.00384016
0.00384015
0.00384011
0.00384021
0.00384015
0.00384015
0.00384015
0.00384022
0.00384022
0.00384016
0.0038402
0.00384013
0.00384025
0.00383983
0.00384105
0.00383868
0.00384093
0.00384137
0.0038384
0.00383956
0.00383813
0.00384211
0.00383456
0.00384934
0.00384345
0.00377603
0.00415383
0.00314989
0.00268404
0.00294687
0.00300225
)
;

boundaryField
{
    inlet
    {
        type            calculated;
        value           uniform 0;
    }
    outlet
    {
        type            calculated;
        value           uniform 0;
    }
    sideWall
    {
        type            empty;
    }
}


// ************************************************************************* //
