/*--------------------------------*- C++ -*----------------------------------*\
| =========                 |                                                 |
| \\      /  F ield         | foam-extend: Open Source CFD                    |
|  \\    /   O peration     | Version:     3.2                                |
|   \\  /    A nd           | Web:         http://www.foam-extend.org         |
|    \\/     M anipulation  | For copyright notice see file Copyright         |
\*---------------------------------------------------------------------------*/
FoamFile
{
    version     2.0;
    format      ascii;
    class       surfaceScalarField;
    location    "2000";
    object      meshPhi;
}
// * * * * * * * * * * * * * * * * * * * * * * * * * * * * * * * * * * * * * //

dimensions      [0 3 -1 0 0 0 0];

internalField   nonuniform List<scalar> 
4492
(
0
0
0
0
0
0
0
0
0
0
0
0
0
0
0
0
0
0
0
0
0
0
0
0
0
0
0
0
0
0
0
0
0
0
0
0
0
0
0
0
0
0
0
0
0
0
0
0
0
0
0
0
0
0
0
0
0
0
0
0
0
0
0
0
0
0
0
0
0
0
0
0
0
0
0
0
0
0
0
0
0
0
0
0
0
0
0
0
0
0
0
0
0
0
0
0
0
0
0
0
0
0
0
0
0
0
0
0
0
-4.33681e-20
-2.56791e-33
4.04769e-19
-3.23556e-32
-5.01624e-18
-2.77465e-19
6.36024e-17
2.78703e-19
-8.10434e-16
0
-1.26169e-13
2.76226e-19
-4.79902e-13
2.77754e-19
-3.98565e-13
0
-1.18008e-13
-1.53907e-30
-1.12765e-13
-2.77217e-19
-8.33663e-14
2.77245e-19
-7.60981e-14
2.7724e-19
-6.26687e-14
4.19699e-30
-5.76514e-14
2.77247e-19
-3.76111e-14
7.29282e-29
1.44048e-12
2.77254e-19
2.85766e-12
-2.77255e-19
1.2807e-12
0
-2.9592e-13
0
-3.46758e-13
2.77261e-19
-1.36671e-12
-2.77263e-19
-3.32996e-12
0
-3.11602e-12
-2.77265e-19
-8.51249e-13
5.54532e-19
1.05983e-12
-2.77267e-19
2.63036e-12
0
2.50551e-12
0
7.38913e-13
0
-1.47914e-13
0
-1.37888e-13
0
-6.57314e-13
-1.13887e-28
-1.76706e-12
-5.54539e-19
-1.70202e-12
0
-4.41531e-13
0
6.83738e-13
-5.54539e-19
1.66983e-12
0
1.61299e-12
5.54539e-19
4.17615e-13
5.54539e-19
-2.59523e-13
0
-2.44076e-13
0
-4.9671e-13
-5.54539e-19
-1.04647e-12
-5.5454e-19
-9.40167e-13
0
-2.60664e-13
-5.5454e-19
5.24697e-14
0
2.68365e-13
-5.54539e-19
6.88868e-13
0
6.56563e-13
0
1.72419e-13
5.5454e-19
-1.23918e-13
5.54539e-19
-2.39015e-13
0
-4.75476e-13
-5.5454e-19
-4.52024e-13
5.05724e-30
-1.60995e-13
0
9.4553e-14
0
4.15103e-13
0
4.88479e-13
-2.3369e-29
7.95851e-14
5.54539e-19
-3.09835e-13
0
-3.77335e-13
0
-2.94995e-13
5.54539e-19
2.31012e-13
-9.3613e-29
2.50421e-13
5.54539e-19
4.03492e-13
1.91012e-28
4.02383e-15
-5.54539e-19
1.6256e-13
0
5.94586e-13
5.27191e-30
3.30681e-13
-5.54539e-19
1.10818e-12
0
-9.80166e-13
-5.5454e-19
-1.99977e-12
0
-2.35524e-12
7.25493e-28
9.17988e-13
3.27097e-28
3.32005e-12
-5.72929e-28
9.57174e-13
0
-4.8783e-12
-5.54538e-19
-3.97879e-12
-4.32124e-28
2.25585e-12
-5.54537e-19
4.95342e-12
5.54542e-19
1.61862e-12
0
2.48074e-13
0
5.44722e-13
5.54536e-19
1.8111e-12
-5.54543e-19
1.34516e-12
0
2.29785e-12
0
2.05346e-12
-5.54534e-19
3.20879e-12
-5.54546e-19
2.9377e-12
-2.07968e-27
4.09722e-12
0
3.7534e-12
0
4.92152e-12
5.54548e-19
4.57239e-12
5.5453e-19
5.7675e-12
-5.5455e-19
5.44501e-12
-5.54527e-19
6.65556e-12
-5.54552e-19
6.38707e-12
0
7.56856e-12
-3.19722e-27
7.36063e-12
-3.49376e-27
8.46605e-12
3.41583e-27
8.31297e-12
5.5452e-19
9.32444e-12
-5.5456e-19
9.25504e-12
5.54517e-19
1.00718e-11
-5.54563e-19
1.01228e-11
0
1.08439e-11
-1.10913e-18
1.10384e-11
-1.10902e-18
1.15071e-11
-7.57627e-27
1.18147e-11
0
1.20331e-11
0
1.24766e-11
0
1.24173e-11
0
1.29852e-11
1.109e-18
1.26252e-11
0
1.33209e-11
-1.109e-18
1.26478e-11
0
1.34541e-11
1.10899e-18
1.24678e-11
0
1.33764e-11
1.10898e-18
1.20395e-11
0
1.30446e-11
0
1.15724e-11
0
1.23427e-11
0
1.06616e-11
0
1.15054e-11
1.10897e-18
9.92515e-12
0
1.0492e-11
-1.7632e-27
8.7728e-12
1.10918e-18
9.34575e-12
0
7.56496e-12
-1.10919e-18
8.10129e-12
-1.10897e-18
6.26244e-12
-1.10919e-18
6.77758e-12
0
4.93874e-12
-1.10919e-18
5.39981e-12
0
3.53598e-12
0
3.93274e-12
1.10897e-18
2.09332e-12
0
2.40708e-12
-1.10897e-18
9.04687e-13
1.10918e-18
1.61848e-12
0
7.26969e-13
-1.10918e-18
2.48566e-12
1.10897e-18
-3.68838e-12
-4.23819e-27
-1.18022e-11
0
-1.44104e-11
0
-1.24808e-11
0
5.40644e-12
1.13823e-26
3.98656e-11
0
4.36221e-11
1.10916e-18
2.38578e-11
0
-2.54894e-11
0
-1.0252e-10
-1.109e-18
-1.12131e-10
0
-5.87908e-11
0
3.60125e-11
0
1.73875e-10
1.10901e-18
1.88946e-10
1.10914e-18
8.11273e-11
-1.10901e-18
-7.91152e-11
-3.07476e-26
-2.92338e-10
1.10902e-18
-3.13075e-10
1.77982e-27
-1.39266e-10
1.10902e-18
9.95053e-11
1.10913e-18
4.03895e-10
1.10903e-18
4.32428e-10
0
1.70353e-10
-1.10903e-18
-1.62277e-10
1.10912e-18
-5.64394e-10
-1.10904e-18
-5.96029e-10
1.10911e-18
-2.43034e-10
-1.10904e-18
1.90573e-10
-9.6888e-26
7.02935e-10
0
7.42177e-10
1.1091e-18
2.78647e-10
-1.15668e-26
-2.63898e-10
0
-8.81621e-10
-1.10906e-18
-9.21898e-10
0
-3.56634e-10
0
2.963e-10
1.36801e-25
1.03042e-09
0
1.0772e-09
-4.66157e-27
3.93087e-10
2.21813e-18
-3.72296e-10
0
-1.20859e-09
1.10907e-18
-1.25351e-09
1.10909e-18
-4.67652e-10
0
4.03973e-10
0
1.35381e-09
-1.10907e-18
1.40629e-09
1.10908e-18
5.02503e-10
1.10907e-18
-4.776e-10
1.10908e-18
-1.5159e-09
2.21815e-18
-1.56207e-09
-1.10908e-18
-5.66049e-10
1.10907e-18
5.07436e-10
0
1.64694e-09
-1.11372e-26
1.69888e-09
1.10908e-18
5.95968e-10
1.10908e-18
-5.7082e-10
-1.10908e-18
-1.7801e-09
0
-1.82561e-09
1.10908e-18
-6.48546e-10
1.10908e-18
5.9361e-10
-1.10908e-18
1.89094e-09
1.36687e-26
1.94573e-09
-1.10908e-18
6.77639e-10
1.10908e-18
-6.47056e-10
-1.10908e-18
-2.0005e-09
-1.10908e-18
-2.0476e-09
9.70087e-27
-7.20687e-10
1.10908e-18
6.65358e-10
0
2.09773e-09
0
2.1549e-09
-1.10908e-18
7.46486e-10
1.10908e-18
-7.12639e-10
-1.10908e-18
-2.19154e-09
1.52066e-26
-2.24172e-09
-1.10908e-18
-7.85344e-10
-1.66788e-26
7.28676e-10
2.9162e-25
2.28607e-09
-1.10908e-18
2.34732e-09
1.55669e-26
8.11795e-10
-1.10908e-18
-7.74936e-10
1.10908e-18
-2.37915e-09
0
-2.4321e-09
-1.10908e-18
-8.50239e-10
-1.74265e-26
7.90537e-10
-1.10908e-18
2.48177e-09
-1.10908e-18
2.55454e-09
-1.03159e-25
8.52259e-10
0
-3.10844e-10
3.63469e-26
-5.26743e-10
0
-2.44765e-10
0
-1.57526e-12
-1.10908e-18
-1.73718e-14
1.10908e-18
-1.15047e-13
1.10906e-18
-7.18992e-14
1.10914e-18
-4.16028e-14
0
-1.83527e-14
7.47774e-31
-1.27608e-15
0
1.20452e-14
0
1.627e-14
1.11484e-18
7.92977e-15
0
6.20664e-17
1.11025e-18
-5.08852e-18
4.62593e-19
0
0
0
0
0
0
0
0
0
0
0
0
0
0
0
0
0
0
0
0
0
0
0
0
0
0
0
0
0
0
0
0
0
0
0
0
0
0
0
0
0
0
0
0
0
0
0
0
0
0
0
0
0
0
0
0
0
0
0
0
0
0
0
0
0
0
0
0
0
0
0
0
0
0
0
0
0
0
0
0
0
0
0
0
0
0
0
0
0
0
0
0
0
0
0
0
0
0
0
0
0
0
0
0
0
0
6.41977e-35
2.1684e-20
-2.77556e-19
-8.67362e-20
-2.77555e-19
1.08738e-18
2.77568e-19
-1.32955e-17
-2.77413e-19
1.58672e-16
-7.11182e-30
-1.90739e-15
2.74658e-19
-1.27027e-13
0
-4.68355e-13
0
-3.9046e-13
-2.74521e-19
-1.18857e-13
-2.74755e-19
-1.10345e-13
0
-8.22029e-14
-2.74734e-19
-7.47459e-14
-2.74743e-19
-6.15278e-14
-2.74772e-19
-5.78637e-14
-2.74796e-19
-2.62303e-14
-2.7482e-19
1.41564e-12
2.11554e-28
2.78472e-12
-2.74865e-19
1.25848e-12
0
-2.80232e-13
-2.74901e-19
-3.47094e-13
0
-1.34943e-12
-2.74931e-19
-3.25719e-12
0
-3.0484e-12
0
-8.42574e-13
0
1.03933e-12
0
2.57517e-12
0
2.45194e-12
-5.49963e-19
7.32977e-13
0
-1.39967e-13
-5.49978e-19
-1.38855e-13
0
-6.50099e-13
5.49988e-19
-1.72837e-12
0
-1.6645e-12
0
-4.36935e-13
0
6.71109e-13
-5.49996e-19
1.63508e-12
-5.49998e-19
1.57778e-12
5.49998e-19
4.14492e-13
0
-2.5048e-13
0
-2.4173e-13
0
-4.90338e-13
5.49998e-19
-1.02437e-12
0
-9.20089e-13
0
-2.59108e-13
-5.49999e-19
5.05454e-14
0
2.65436e-13
-5.49998e-19
6.74198e-13
-5.49998e-19
6.42192e-13
0
1.70856e-13
0
-1.20197e-13
0
-2.36003e-13
5.49997e-19
-4.65515e-13
5.49998e-19
-4.42353e-13
5.49997e-19
-1.58947e-13
-5.49998e-19
9.32896e-14
5.49998e-19
4.06389e-13
-5.49997e-19
4.76702e-13
-5.22148e-29
7.8685e-14
4.20541e-29
-3.01875e-13
5.49998e-19
-3.70512e-13
0
-2.86086e-13
-5.49997e-19
2.21913e-13
-5.49998e-19
2.48652e-13
-2.97779e-28
3.91314e-13
0
9.24478e-15
5.49997e-19
1.62209e-13
5.49998e-19
5.75159e-13
1.1e-18
3.37235e-13
5.49998e-19
1.06577e-12
5.49998e-19
-9.51147e-13
-3.60811e-28
-1.96354e-12
5.49997e-19
-2.282e-12
-1.1e-18
8.85714e-13
-1.1e-18
3.22616e-12
0
9.23723e-13
-5.5e-19
-4.73829e-12
-5.49995e-19
-3.88246e-12
-5.79126e-28
2.18553e-12
0
4.82818e-12
1.99812e-27
1.61321e-12
-5.49993e-19
2.49927e-13
-5.50003e-19
5.4516e-13
5.49992e-19
1.76515e-12
5.50004e-19
1.33836e-12
5.4999e-19
2.24595e-12
0
2.03443e-12
3.65201e-27
3.13974e-12
-3.25925e-27
2.90453e-12
-4.26106e-27
4.01263e-12
0
3.70754e-12
0
4.82303e-12
-4.18413e-27
4.51326e-12
5.51702e-27
5.65495e-12
4.6438e-27
5.37127e-12
-5.49973e-19
6.52872e-12
5.07747e-27
6.29685e-12
5.49968e-19
7.42762e-12
5.50026e-19
7.25285e-12
5.49964e-19
8.31173e-12
-1.10006e-18
8.18779e-12
5.49958e-19
9.15794e-12
5.50034e-19
9.11132e-12
0
9.89624e-12
-5.50039e-19
9.96224e-12
5.49945e-19
1.06584e-11
0
1.08586e-11
0
1.13147e-11
1.1001e-18
1.1618e-11
0
1.18362e-11
0
1.22645e-11
0
1.22186e-11
0
1.27601e-11
0
1.24278e-11
0
1.30854e-11
0
1.24547e-11
0
1.32118e-11
1.09981e-18
1.22823e-11
0
1.31305e-11
1.0998e-18
1.18658e-11
0
1.28017e-11
1.09979e-18
1.14058e-11
1.10016e-18
1.21115e-11
0
1.05125e-11
0
1.12883e-11
0
9.78467e-12
0
1.02931e-11
0
8.6526e-12
2.20034e-18
9.16505e-12
1.09976e-18
7.46504e-12
0
7.9409e-12
0
6.18438e-12
0
6.63926e-12
0
4.88202e-12
-1.10017e-18
5.28463e-12
0
3.50198e-12
0
3.84278e-12
1.09975e-18
2.08175e-12
0
2.3463e-12
6.44535e-27
9.12587e-13
-1.10016e-18
1.56794e-12
0
7.44137e-13
0
2.37791e-12
1.09977e-18
-3.63706e-12
0
-1.15456e-11
0
-1.41318e-11
-1.10014e-18
-1.21776e-11
0
5.44277e-12
1.10014e-18
3.89104e-11
0
4.27089e-11
-1.10013e-18
2.32995e-11
0
-2.5264e-11
-1.10012e-18
-1.00216e-10
1.09981e-18
-1.09759e-10
0
-5.76369e-11
0
3.57135e-11
0
1.69927e-10
0
1.8482e-10
-1.10009e-18
7.9615e-11
0
-7.81583e-11
-1.0646e-25
-2.85857e-10
0
-3.06317e-10
4.56227e-27
-1.3681e-10
0
9.82727e-11
-1.79298e-25
3.949e-10
4.57532e-26
4.22926e-10
0
1.6748e-10
-1.09989e-18
-1.60012e-10
0
-5.51979e-10
-1.0999e-18
-5.83067e-10
0
-2.39025e-10
1.09991e-18
1.87865e-10
1.10003e-18
6.87422e-10
-1.09992e-18
7.2586e-10
0
2.74228e-10
-1.09457e-25
-2.59929e-10
0
-8.62323e-10
-1.09993e-18
-9.01786e-10
0
-3.5101e-10
0
2.91789e-10
-1.10001e-18
1.0078e-09
0
1.05353e-09
-6.06498e-27
3.87078e-10
0
-3.66432e-10
1.1e-18
-1.18221e-09
-1.09996e-18
-1.22613e-09
1.1e-18
-4.60531e-10
-1.51088e-25
3.97593e-10
0
1.32421e-09
0
1.3754e-09
1.1e-18
4.95033e-10
1.09997e-18
-4.69838e-10
6.02945e-25
-1.48289e-09
-1.09998e-18
-1.5279e-09
-1.09999e-18
-5.57657e-10
1.87822e-25
4.99193e-10
0
1.61103e-09
-2.19998e-18
1.66158e-09
0
5.87319e-10
1.09998e-18
-5.61343e-10
-1.09999e-18
-1.7414e-09
0
-1.78566e-09
-1.52738e-26
-6.39136e-10
-1.09999e-18
5.83812e-10
0
1.84981e-09
-2.19999e-18
1.90302e-09
-2.19999e-18
6.6792e-10
1.09999e-18
-6.36169e-10
-1.09998e-18
-1.95706e-09
0
-2.00279e-09
0
-7.10335e-10
0
6.54263e-10
-8.38157e-25
2.05216e-09
2.20001e-18
2.10761e-09
-1.1e-18
7.35865e-10
1.09998e-18
-7.00558e-10
0
-2.144e-09
0
-2.19264e-09
1.09999e-18
-7.74118e-10
-1.1e-18
7.16472e-10
1.10002e-18
2.23644e-09
-1.10001e-18
2.29581e-09
0
8.00274e-10
0
-7.6177e-10
-1.09997e-18
-2.32754e-09
-3.16257e-25
-2.37885e-09
1.09998e-18
-8.38111e-10
-1.10001e-18
7.77303e-10
9.88575e-25
2.42803e-09
0
2.49781e-09
-1.53334e-25
8.43732e-10
0
-2.98271e-10
-1.09994e-18
-5.1592e-10
-1.10001e-18
-2.42286e-10
6.36187e-27
-3.5507e-12
1.1e-18
2.19957e-13
0
-1.41834e-13
0
-6.74124e-14
0
-4.13774e-14
-1.09955e-18
-1.8048e-14
-1.1011e-18
-1.29212e-15
0
1.17737e-14
-4.24424e-30
1.59109e-14
0
7.84349e-15
1.10965e-18
1.46959e-16
-1.11027e-18
-1.2563e-17
1.04083e-18
0
0
0
0
0
0
0
0
0
0
0
0
0
0
0
0
0
0
0
0
0
0
0
0
0
0
0
0
0
0
0
0
0
0
0
0
0
0
0
0
0
0
0
0
0
0
0
0
0
0
0
0
0
0
0
0
0
0
0
0
0
0
0
0
0
0
0
0
0
0
0
0
0
0
0
0
0
0
0
0
0
0
0
0
0
0
0
0
-1.14957e-44
-1.2943e-30
0
-1.2943e-30
0
0
0
0
0
0
0
0
0
0
0
0
0
0
2.77556e-19
1.4456e-20
0
-1.59016e-19
-1.00148e-32
1.87928e-18
2.77569e-19
-2.18856e-17
0
2.54754e-16
2.79197e-19
-2.98656e-15
-5.41024e-19
-1.24309e-13
-2.65631e-19
-4.42791e-13
2.70447e-19
-3.70403e-13
2.69483e-19
-1.16108e-13
7.74766e-30
-1.04684e-13
2.69702e-19
-7.8621e-14
0
-7.12113e-14
-2.69864e-19
-5.85263e-14
0
-5.65056e-14
5.79235e-29
-1.68302e-14
-2.70064e-19
1.34753e-12
4.41403e-28
2.63228e-12
2.70184e-19
1.19649e-12
-2.70237e-19
-2.62424e-13
3.46829e-29
-3.35984e-13
0
-1.28907e-12
0
-3.09053e-12
2.62545e-28
-2.8919e-12
2.70425e-19
-8.08293e-13
5.40899e-19
9.87676e-13
0
2.44737e-12
5.40975e-19
2.32935e-12
0
7.02779e-13
0
-1.31534e-13
-5.41044e-19
-1.35032e-13
0
-6.2195e-13
0
-1.63998e-12
0
-1.57852e-12
0
-4.19143e-13
-5.41091e-19
6.38343e-13
0
1.55424e-12
0
1.4982e-12
0
3.97595e-13
0
-2.3629e-13
-5.411e-19
-2.31912e-13
0
-4.68666e-13
0
-9.73436e-13
0
-8.73634e-13
5.41098e-19
-2.48544e-13
-5.411e-19
4.73144e-14
0
2.54068e-13
-5.41098e-19
6.40598e-13
5.41099e-19
6.09504e-13
0
1.63366e-13
5.41099e-19
-1.13263e-13
0
-2.25698e-13
0
-4.42179e-13
-6.09762e-29
-4.19731e-13
5.41096e-19
-1.51972e-13
0
8.8938e-14
0
3.85905e-13
0
4.51471e-13
-5.41098e-19
7.53679e-14
0
-2.85286e-13
5.41098e-19
-3.53014e-13
0
-2.6912e-13
0
2.06444e-13
-1.79557e-28
2.39897e-13
-5.41097e-19
3.68004e-13
0
1.40801e-14
-5.41097e-19
1.57005e-13
0
5.36788e-13
1.80147e-28
3.32164e-13
5.41098e-19
9.96324e-13
5.41098e-19
-8.93503e-13
0
-1.86801e-12
-5.41098e-19
-2.13819e-12
5.41098e-19
8.20155e-13
-5.41099e-19
3.03621e-12
-5.41097e-19
8.76343e-13
-5.41101e-19
-4.46137e-12
0
-3.68844e-12
-5.41103e-19
2.04938e-12
0
4.57342e-12
5.41105e-19
1.56165e-12
-2.89472e-27
2.38597e-13
5.41106e-19
5.30323e-13
-5.4109e-19
1.67078e-12
3.29993e-27
1.29305e-12
5.41086e-19
2.12943e-12
5.4111e-19
1.95673e-12
5.41082e-19
2.98041e-12
0
2.78763e-12
-5.41078e-19
3.81264e-12
5.41116e-19
3.5548e-12
-5.41074e-19
4.5858e-12
-5.41119e-19
4.32405e-12
5.41069e-19
5.3797e-12
-5.41124e-19
5.14274e-12
5.41061e-19
6.21402e-12
0
6.02519e-12
-5.41053e-19
7.07291e-12
5.41136e-19
6.9361e-12
5.41046e-19
7.91815e-12
0
7.8267e-12
1.23815e-26
8.72777e-12
5.41146e-19
8.70511e-12
5.41027e-19
9.43576e-12
7.72391e-27
9.51467e-12
5.41016e-19
1.01659e-11
0
1.03659e-11
0
1.07963e-11
0
1.10867e-11
0
1.12984e-11
0
1.16991e-11
0
1.16678e-11
0
1.21674e-11
-1.08195e-18
1.18722e-11
-1.08237e-18
1.24731e-11
0
1.19027e-11
0
1.2589e-11
0
1.17428e-11
1.08239e-18
1.25064e-11
0
1.135e-11
0
1.21901e-11
0
1.09103e-11
0
1.15315e-11
-1.08185e-18
1.00603e-11
0
1.07461e-11
0
9.36209e-12
0
9.79787e-12
-1.08182e-18
8.28291e-12
1.08241e-18
8.72052e-12
-6.04407e-27
7.14986e-12
1.08241e-18
7.55198e-12
0
5.92798e-12
0
6.30994e-12
1.08181e-18
4.68451e-12
0
5.01748e-12
0
3.36699e-12
0
3.64243e-12
-1.0818e-18
2.01012e-12
1.0824e-18
2.21828e-12
-1.08181e-18
8.9399e-13
-1.08239e-18
1.46799e-12
-1.08181e-18
7.3481e-13
0
2.20728e-12
1.08182e-18
-3.4756e-12
1.08238e-18
-1.09395e-11
-1.08183e-18
-1.34147e-11
1.08236e-18
-1.15383e-11
1.08184e-18
5.28799e-12
0
3.68035e-11
1.08186e-18
4.04974e-11
0
2.20885e-11
0
-2.42313e-11
0
-9.49777e-11
1.08189e-18
-1.04108e-10
0
-5.4835e-11
0
3.42407e-11
0
1.61018e-10
0
1.75203e-10
1.08229e-18
7.58078e-11
0
-7.47339e-11
-2.34019e-25
-2.71057e-10
0
-2.905e-10
1.08227e-18
-1.30388e-10
1.08197e-18
9.38976e-11
0
3.74429e-10
1.08199e-18
4.00953e-10
1.08224e-18
1.59727e-10
-1.082e-18
-1.52743e-10
1.08223e-18
-5.23548e-10
0
-5.52942e-10
1.08222e-18
-2.28038e-10
2.19347e-25
1.79236e-10
1.08222e-18
6.51981e-10
1.08206e-18
6.8822e-10
0
2.61771e-10
-3.08973e-25
-2.4788e-10
-1.0822e-18
-8.1805e-10
1.08208e-18
-8.55202e-10
1.0822e-18
-3.3509e-10
1.0821e-18
2.7816e-10
8.90309e-25
9.56022e-10
0
9.98987e-10
1.08219e-18
3.69681e-10
0
-3.49232e-10
1.01699e-24
-1.12163e-09
-1.08212e-18
-1.16281e-09
1.08219e-18
-4.39865e-10
1.08214e-18
3.78855e-10
-1.08219e-18
1.25633e-09
1.08215e-18
1.30426e-09
-5.28453e-27
4.72972e-10
0
-4.4759e-10
1.2753e-24
-1.40702e-09
0
-1.44901e-09
-4.92855e-27
-5.32822e-10
1.08217e-18
4.75502e-10
-1.0822e-18
1.52858e-09
-6.37101e-25
1.57571e-09
0
5.61325e-10
1.08217e-18
-5.34603e-10
-1.49598e-24
-1.65241e-09
0
-1.69349e-09
-1.08218e-18
-6.10849e-10
0
5.55995e-10
-1.08221e-18
1.75526e-09
-1.0822e-18
1.80473e-09
0
6.38457e-10
6.87941e-25
-6.05748e-10
1.08216e-18
-1.85712e-09
1.08217e-18
-1.89942e-09
2.64116e-26
-6.78982e-10
1.0822e-18
6.23006e-10
-1.76856e-24
1.94734e-09
0
1.99878e-09
1.0822e-18
7.03471e-10
1.08217e-18
-6.66983e-10
0
-2.03456e-09
-1.08216e-18
-2.07949e-09
-1.08218e-18
-7.39992e-10
-1.08221e-18
6.82205e-10
1.92613e-24
2.12225e-09
0
2.17727e-09
1.08221e-18
7.65068e-10
0
-7.2524e-10
1.08213e-18
-2.20875e-09
1.08214e-18
-2.25608e-09
0
-8.01174e-10
-8.43784e-25
7.40122e-10
2.08921e-24
2.30419e-09
-9.79245e-25
2.36825e-09
-1.08221e-18
8.08988e-10
1.08222e-18
-2.78276e-10
1.08211e-18
-4.92143e-10
0
-2.33963e-10
0
-5.2748e-12
-1.08221e-18
5.07865e-13
0
-1.7952e-13
1.08215e-18
-5.70388e-14
-2.16457e-18
-4.08601e-14
0
-1.7044e-14
-1.08384e-18
-1.29992e-15
1.08005e-18
1.11686e-14
-9.32458e-30
1.51006e-14
1.11673e-18
7.53996e-15
0
2.30326e-16
-2.05433e-32
-1.96602e-17
1.96602e-18
0
0
0
0
0
0
0
0
0
0
0
0
0
0
0
0
0
0
0
0
0
0
0
0
0
0
0
0
0
0
0
0
0
0
0
0
0
0
0
0
0
0
0
0
0
0
0
0
0
0
0
0
0
0
0
0
0
0
0
0
0
0
0
0
0
0
0
0
0
0
0
0
0
0
0
0
0
0
0
0
0
0
0
0
0
0
0
0
0
0
0
0
0
0
0
0
0
0
0
0
0
0
0
0
0
-3.61401e-21
2.77556e-19
1.6263e-20
2.77556e-19
-2.11419e-19
-3.57902e-33
2.43223e-18
0
-2.80501e-17
0
3.23036e-16
2.78715e-19
-3.75617e-15
0
-1.15814e-13
0
-3.98914e-13
0
-3.34394e-13
0
-1.07645e-13
1.79176e-29
-9.46663e-14
0
-7.16092e-14
-2.62713e-19
-6.46519e-14
1.75537e-29
-5.2988e-14
0
-5.26064e-14
5.26125e-19
-1.2191e-14
0
1.22102e-12
0
2.37655e-12
2.63408e-19
1.07975e-12
2.63506e-19
-2.42355e-13
5.2719e-19
-3.05689e-13
0
-1.16865e-12
-1.11722e-27
-2.80042e-12
2.63808e-19
-2.61801e-12
-5.27723e-19
-7.3767e-13
-4.64141e-28
8.947e-13
0
2.22313e-12
0
2.11394e-12
0
6.37103e-13
0
-1.22769e-13
0
-1.22831e-13
0
-5.64363e-13
5.28138e-19
-1.48628e-12
5.28154e-19
-1.42873e-12
0
-3.82716e-13
5.28176e-19
5.78603e-13
0
1.41202e-12
0
1.35912e-12
5.28191e-19
3.60494e-13
0
-2.15527e-13
-5.28194e-19
-2.10766e-13
5.28194e-19
-4.25585e-13
-5.28193e-19
-8.84157e-13
-5.28194e-19
-7.91843e-13
0
-2.25047e-13
-3.40569e-29
4.22906e-14
0
2.30879e-13
0
5.81892e-13
-1.05638e-18
5.5233e-13
0
1.47456e-13
9.80853e-29
-1.02108e-13
0
-2.05118e-13
-5.28188e-19
-4.01059e-13
5.2819e-19
-3.79932e-13
-5.28188e-19
-1.38192e-13
0
8.03163e-14
0
3.49885e-13
-5.28188e-19
4.08714e-13
-1.352e-28
6.86222e-14
-5.28188e-19
-2.57537e-13
5.28191e-19
-3.20976e-13
0
-2.42118e-13
0
1.83571e-13
-1.78369e-28
2.20789e-13
0
3.3069e-13
6.53909e-28
1.69216e-14
0
1.44274e-13
5.2819e-19
4.754e-13
0
3.09238e-13
-8.41862e-28
8.95749e-13
0
-8.0129e-13
-5.28192e-19
-1.69329e-12
0
-1.90928e-12
3.84654e-27
7.12845e-13
5.28192e-19
2.7286e-12
-9.12073e-28
8.16528e-13
0
-4.01249e-12
5.28186e-19
-3.36624e-12
-5.28197e-19
1.83396e-12
5.28185e-19
4.1503e-12
0
1.43722e-12
3.78608e-27
2.05855e-13
-3.32658e-27
4.91522e-13
5.19336e-27
1.51315e-12
5.28203e-19
1.18958e-12
0
1.92622e-12
-5.28206e-19
1.7926e-12
0
2.699e-12
1.05642e-18
2.54902e-12
-5.28164e-19
3.45558e-12
0
3.24773e-12
0
4.15886e-12
0
3.9479e-12
5.28151e-19
4.8812e-12
-5.28223e-19
4.6927e-12
0
5.64067e-12
0
5.49491e-12
-5.2813e-19
6.42298e-12
5.28236e-19
6.32257e-12
5.2812e-19
7.19323e-12
7.9991e-27
7.13158e-12
0
7.93152e-12
5.28248e-19
7.92843e-12
0
8.57841e-12
-5.28254e-19
8.663e-12
0
9.24496e-12
5.28262e-19
9.43419e-12
0
9.82187e-12
0
1.00868e-11
0
1.02821e-11
0
1.06404e-11
3.9503e-26
1.06219e-11
0
1.10627e-11
1.05603e-18
1.08117e-11
0
1.13369e-11
0
1.08432e-11
0
1.14386e-11
0
1.07014e-11
0
1.13595e-11
1.05594e-18
1.03478e-11
0
1.10696e-11
0
9.94724e-12
1.05661e-18
1.04705e-11
2.27218e-26
9.17579e-12
-1.05661e-18
9.75606e-12
1.05588e-18
8.53766e-12
0
8.89447e-12
0
7.55671e-12
0
7.91359e-12
0
6.52604e-12
1.05661e-18
6.85015e-12
1.05583e-18
5.41456e-12
1.05661e-18
5.72021e-12
0
4.28273e-12
1.0566e-18
4.54454e-12
-1.05582e-18
3.08358e-12
0
3.29421e-12
0
1.84782e-12
0
2.00177e-12
-1.05583e-18
8.3172e-13
-1.05658e-18
1.30689e-12
0
6.83809e-13
0
1.96819e-12
-1.05584e-18
-3.16042e-12
-1.05656e-18
-9.87133e-12
1.05585e-18
-1.21164e-11
-1.05654e-18
-1.04672e-11
1.05587e-18
4.84666e-12
-1.05653e-18
3.32047e-11
0
3.65794e-11
1.05651e-18
2.00414e-11
0
-2.20539e-11
0
-8.58886e-11
0
-9.41249e-11
0
-4.98412e-11
-1.05595e-18
3.11188e-11
-1.05647e-18
1.45628e-10
0
1.5837e-10
-1.05645e-18
6.89401e-11
-1.056e-18
-6.78805e-11
-1.05643e-18
-2.4533e-10
1.05602e-18
-2.62733e-10
1.05642e-18
-1.18615e-10
2.27915e-25
8.51912e-11
0
3.38919e-10
2.95712e-25
3.62581e-10
0
1.45367e-10
-1.05609e-18
-1.38598e-10
-1.05639e-18
-4.74065e-10
0
-5.00186e-10
1.05638e-18
-2.07554e-10
1.05614e-18
1.62517e-10
-1.05637e-18
5.90386e-10
0
6.22518e-10
1.05637e-18
2.38344e-10
-1.05618e-18
-2.2481e-10
0
-7.40934e-10
1.0562e-18
-7.73713e-10
0
-3.05085e-10
1.05622e-18
2.52138e-10
0
8.65922e-10
0
9.0378e-10
-1.7308e-26
3.36669e-10
-1.05626e-18
-3.16632e-10
1.05634e-18
-1.01605e-09
-1.05627e-18
-1.05211e-09
0
-4.00596e-10
0
3.43371e-10
-2.11272e-18
1.13813e-09
0
1.18009e-09
2.11271e-18
4.30825e-10
0
-4.05733e-10
-1.05633e-18
-1.27476e-09
-1.05631e-18
-1.31115e-09
1.05634e-18
-4.85343e-10
1.05633e-18
4.30922e-10
0
1.38492e-09
-1.05635e-18
1.42582e-09
0
5.11389e-10
0
-4.84541e-10
0
-1.49721e-09
0
-1.53245e-09
0
-5.56507e-10
-1.05637e-18
5.03845e-10
1.05639e-18
1.59044e-09
1.38172e-24
1.63315e-09
0
5.81698e-10
1.05635e-18
-5.48976e-10
-2.82124e-24
-1.68281e-09
1.45554e-24
-1.71885e-09
1.05636e-18
-6.1861e-10
2.11277e-18
5.64544e-10
1.05641e-18
1.76457e-09
0
1.8088e-09
0
6.4095e-10
-1.05634e-18
-6.04438e-10
0
-1.84366e-09
-1.05632e-18
-1.88183e-09
-1.05636e-18
-6.7421e-10
-1.48218e-24
6.18179e-10
0
1.9231e-09
0
1.97034e-09
5.60269e-26
6.97079e-10
2.11266e-18
-6.57224e-10
1.05629e-18
-2.00153e-09
-1.0563e-18
-2.04165e-09
1.05634e-18
-7.29941e-10
1.05641e-18
6.70635e-10
1.05649e-18
2.08807e-09
1.05646e-18
2.14283e-09
-1.30638e-25
7.37342e-10
1.05641e-18
-2.49844e-10
0
-4.51276e-10
-1.05641e-18
-2.17218e-10
1.05643e-18
-6.15703e-12
0
7.91781e-13
0
-2.08616e-13
1.05632e-18
-4.53776e-14
-1.05644e-18
-3.84577e-14
-3.16702e-18
-1.53053e-14
1.05855e-18
-1.24936e-15
1.05363e-18
1.01097e-14
-1.06106e-18
1.36839e-14
1.11481e-18
6.92507e-15
-1.10982e-18
2.88294e-16
-1.11026e-18
-2.48644e-17
2.31296e-18
0
0
0
0
0
0
0
0
0
0
0
0
0
0
0
0
0
0
0
0
0
0
0
0
0
0
0
0
0
0
0
0
0
0
0
0
0
0
0
0
0
0
0
0
0
0
0
0
0
0
0
0
0
0
0
0
0
0
0
0
0
0
0
0
0
0
0
0
0
0
0
0
0
0
0
0
0
0
0
0
0
0
0
0
0
0
0
0
0
0
0
0
0
0
0
0
0
0
0
0
0
0
0
0
-1.60494e-35
0
2.77556e-19
2.1684e-20
-2.77556e-19
-2.38524e-19
0
2.5804e-18
0
-2.97946e-17
0
3.4195e-16
-2.77865e-19
-3.97433e-15
2.57221e-19
-9.98796e-14
-2.90704e-28
-3.33645e-13
-2.53589e-19
-2.79791e-13
0
-9.20858e-14
2.53559e-19
-7.94819e-14
-2.53464e-19
-6.04556e-14
-2.45745e-29
-5.44801e-14
2.6195e-29
-4.44138e-14
-2.54071e-19
-4.54485e-14
-1.65479e-29
-1.22517e-14
-5.08904e-19
1.02556e-12
0
1.99863e-12
2.54803e-19
9.02803e-13
0
-2.14174e-13
2.55095e-19
-2.52339e-13
2.55221e-19
-9.74817e-13
-1.66499e-27
-2.35888e-12
0
-2.20575e-12
-2.55513e-19
-6.27657e-13
0
7.4873e-13
0
1.87888e-12
-5.11393e-19
1.78715e-12
0
5.33405e-13
-5.11545e-19
-1.10242e-13
5.11599e-19
-1.00534e-13
0
-4.70595e-13
-5.11677e-19
-1.25228e-12
8.44069e-28
-1.20369e-12
0
-3.26189e-13
0
4.84514e-13
5.11746e-19
1.19345e-12
0
1.1486e-12
0
3.01858e-13
0
-1.84978e-13
-5.11766e-19
-1.75966e-13
0
-3.56231e-13
0
-7.47245e-13
5.11766e-19
-6.68115e-13
5.11763e-19
-1.87952e-13
-5.11766e-19
3.45671e-14
0
1.93038e-13
-5.11761e-19
4.91905e-13
-5.11762e-19
4.66091e-13
0
1.22825e-13
5.11762e-19
-8.54832e-14
0
-1.71956e-13
0
-3.38075e-13
0
-3.19854e-13
-5.11757e-19
-1.16876e-13
-5.11761e-19
6.62708e-14
0
2.94644e-13
0
3.44864e-13
5.11759e-19
5.84111e-14
-5.11757e-19
-2.15996e-13
5.11761e-19
-2.71118e-13
0
-2.03338e-13
-5.11758e-19
1.51909e-13
-1.60728e-28
1.88454e-13
5.11758e-19
2.76914e-13
5.11762e-19
1.70633e-14
5.11759e-19
1.22397e-13
-3.6188e-29
3.89089e-13
5.64846e-28
2.64597e-13
5.1176e-19
7.57666e-13
2.67019e-27
-6.66198e-13
5.11762e-19
-1.4239e-12
-5.1176e-19
-1.587e-12
-5.11761e-19
5.59796e-13
-5.11763e-19
2.27669e-12
1.02352e-18
7.30431e-13
-5.11767e-19
-3.35269e-12
0
-2.87601e-12
5.1177e-19
1.52269e-12
5.11754e-19
3.5184e-12
-5.11773e-19
1.22884e-12
5.11753e-19
1.54886e-13
0
4.19305e-13
5.11749e-19
1.27675e-12
0
1.01381e-12
0
1.61935e-12
-5.11779e-19
1.52211e-12
0
2.27123e-12
0
2.16128e-12
-1.19483e-26
2.90985e-12
6.07632e-27
2.75188e-12
0
3.50373e-12
-6.67626e-27
3.34343e-12
5.1171e-19
4.11382e-12
7.23419e-27
3.97244e-12
5.11696e-19
4.75552e-12
0
4.64954e-12
5.11683e-19
5.41682e-12
5.11813e-19
5.34784e-12
-5.1167e-19
6.06817e-12
5.11818e-19
6.03028e-12
5.11654e-19
6.69282e-12
0
6.70174e-12
-5.11634e-19
7.24096e-12
8.44522e-27
7.32083e-12
-5.11614e-19
7.80539e-12
-1.02368e-18
7.96998e-12
0
8.2948e-12
1.02369e-18
8.51902e-12
1.02315e-18
8.68579e-12
0
8.98418e-12
0
8.9751e-12
0
9.33842e-12
0
9.13791e-12
0
9.56745e-12
0
9.16699e-12
0
9.65087e-12
0
9.04968e-12
0
9.58139e-12
1.02294e-18
8.75352e-12
0
9.3352e-12
0
8.41486e-12
0
8.82921e-12
0
7.7646e-12
0
8.22592e-12
0
7.22374e-12
0
7.49901e-12
0
6.39587e-12
1.02375e-18
6.67014e-12
0
5.52553e-12
0
5.77183e-12
0
4.58696e-12
0
4.81758e-12
-1.02279e-18
3.63074e-12
0
3.8248e-12
0
2.6177e-12
1.02373e-18
2.76931e-12
0
1.57316e-12
1.61534e-26
1.68009e-12
1.02278e-18
7.14226e-13
-1.87992e-26
1.07769e-12
0
5.82675e-13
0
1.64966e-12
1.02279e-18
-2.65581e-12
0
-8.2588e-12
1.02281e-18
-1.01449e-11
0
-8.87973e-12
-1.02283e-18
4.03717e-12
-1.02364e-18
2.78209e-11
0
3.06798e-11
0
1.70265e-11
-1.02288e-18
-1.84356e-11
0
-7.21451e-11
0
-7.90706e-11
1.48913e-26
-4.23064e-11
0
2.58885e-11
4.12141e-25
1.22368e-10
-1.02296e-18
1.33086e-10
5.8477e-26
5.85879e-11
3.23785e-25
-5.66788e-11
-1.02353e-18
-2.06306e-10
1.02302e-18
-2.20923e-10
0
-1.00721e-10
0
7.09462e-11
0
2.85061e-10
1.02309e-18
3.04932e-10
-1.02349e-18
1.2354e-10
0
-1.15705e-10
-1.02348e-18
-3.9888e-10
-1.02315e-18
-4.20787e-10
-4.26927e-26
-1.7629e-10
1.02318e-18
1.35449e-10
-1.02347e-18
4.96808e-10
0
5.23774e-10
0
2.0257e-10
0
-1.87679e-10
0
-6.23641e-10
1.04682e-24
-6.5109e-10
0
-2.59177e-10
1.02329e-18
2.10257e-10
1.02347e-18
7.28898e-10
0
7.6064e-10
0
2.86132e-10
0
-2.64359e-10
1.02345e-18
-8.55387e-10
-1.02336e-18
-8.85543e-10
1.02346e-18
-3.40391e-10
1.02339e-18
2.86444e-10
0
9.58232e-10
1.02341e-18
9.93378e-10
-1.02347e-18
3.66181e-10
-1.02341e-18
-3.38796e-10
3.1913e-24
-1.07338e-09
0
-1.10372e-09
-1.02346e-18
-4.12451e-10
1.694e-24
3.596e-10
0
1.16619e-09
-1.85278e-24
1.20039e-09
1.02348e-18
4.3468e-10
1.02346e-18
-4.04635e-10
-3.74178e-24
-1.26084e-09
0
-1.29014e-09
-1.88564e-26
-4.72982e-10
-1.02348e-18
4.20533e-10
1.02351e-18
1.33938e-09
2.12108e-24
1.37505e-09
5.43513e-26
4.94438e-10
-1.02348e-18
-4.58465e-10
-1.02346e-18
-1.41726e-09
1.02347e-18
-1.44717e-09
-1.02349e-18
-5.25772e-10
0
4.71239e-10
-2.04708e-18
1.48612e-09
0
1.52302e-09
-1.02352e-18
5.44785e-10
-2.29004e-24
-5.04789e-10
0
-1.55279e-09
1.02347e-18
-1.58444e-09
4.79154e-26
-5.73031e-10
1.02352e-18
5.16035e-10
-1.02357e-18
1.61965e-09
1.02356e-18
1.65906e-09
0
5.92486e-10
-2.48623e-24
-5.48882e-10
1.02343e-18
-1.68578e-09
-2.64908e-24
-1.71902e-09
-1.02347e-18
-6.20375e-10
-2.57166e-24
5.59775e-10
0
1.75867e-09
-2.79021e-24
1.8042e-09
1.02353e-18
6.25008e-10
0
-2.07584e-10
-1.02335e-18
-3.8539e-10
-1.02356e-18
-1.88212e-10
0
-6.00187e-12
-1.02356e-18
1.02176e-12
0
-2.22753e-13
1.02345e-18
-3.66883e-14
-1.02352e-18
-3.19388e-14
0
-1.31353e-14
1.02624e-18
-1.03609e-15
0
8.494e-15
0
1.15354e-14
1.11145e-18
5.9139e-15
0
3.0356e-16
0
-2.62363e-17
2.25514e-18
0
0
0
0
0
0
0
0
0
0
0
0
0
0
0
0
0
0
0
0
0
0
0
0
0
0
0
0
0
0
0
0
0
0
0
0
0
0
0
0
0
0
0
0
0
0
0
0
0
0
0
0
0
0
0
0
0
0
0
0
0
0
0
0
0
0
0
0
0
0
0
0
0
0
0
0
0
0
0
0
0
0
0
0
0
0
0
0
0
0
0
0
0
0
0
0
0
0
0
0
0
0
0
0
0
0
0
1.4456e-20
1.92593e-34
-2.02384e-19
2.24692e-33
2.22623e-18
2.54223e-32
-2.58554e-17
2.77624e-19
2.97592e-16
3.31003e-30
-3.46397e-15
1.41353e-28
-7.54479e-14
0
-2.45316e-13
-2.42555e-19
-2.05446e-13
-2.42398e-19
-6.88133e-14
4.40118e-29
-5.86652e-14
2.42838e-19
-4.47941e-14
-3.50738e-29
-4.0328e-14
2.43392e-19
-3.26943e-14
-2.43666e-19
-3.42168e-14
-2.43934e-19
-1.33268e-14
2.44198e-19
7.54272e-13
1.50595e-27
1.47952e-12
-2.44687e-19
6.62125e-13
-2.44901e-19
-1.71759e-13
2.37108e-28
-1.83536e-13
0
-7.10523e-13
0
-1.74611e-12
0
-1.63374e-12
2.45679e-19
-4.67125e-13
2.45779e-19
5.4997e-13
0
1.39627e-12
-4.91873e-19
1.3302e-12
0
3.90479e-13
4.92086e-19
-9.02825e-14
-4.92161e-19
-7.25368e-14
0
-3.426e-13
-4.92271e-19
-9.27324e-13
4.92307e-19
-8.91579e-13
0
-2.43132e-13
0
3.56054e-13
0
8.86987e-13
0
8.54731e-13
0
2.20975e-13
0
-1.41755e-13
0
-1.29237e-13
0
-2.60801e-13
-4.92394e-19
-5.55353e-13
0
-4.96117e-13
-4.92392e-19
-1.36648e-13
-7.67747e-29
2.55183e-14
0
1.41028e-13
-4.92389e-19
3.6565e-13
9.8478e-19
3.46247e-13
-4.92387e-19
8.91619e-14
-4.9239e-19
-6.35449e-14
-4.92388e-19
-1.26237e-13
-6.91523e-28
-2.50446e-13
-2.93211e-28
-2.36701e-13
6.75322e-29
-8.64138e-14
0
4.78205e-14
0
2.17928e-13
9.84768e-19
2.56177e-13
-4.92386e-19
4.35874e-14
4.16177e-28
-1.59553e-13
-4.92389e-19
-2.01195e-13
0
-1.50579e-13
-4.92385e-19
1.11001e-13
4.92387e-19
1.41076e-13
0
2.04531e-13
0
1.40584e-14
-9.84774e-19
9.09656e-14
-3.03699e-29
2.79335e-13
4.92388e-19
1.95021e-13
-4.92388e-19
5.67442e-13
4.9239e-19
-4.86052e-13
4.92391e-19
-1.05019e-12
4.92388e-19
-1.15774e-12
9.84779e-19
3.83548e-13
-4.92392e-19
1.66709e-12
0
5.79772e-13
4.92396e-19
-2.46335e-12
-3.0137e-27
-2.17005e-12
1.8986e-27
1.10788e-12
-8.61737e-27
2.6304e-12
5.00746e-27
9.24012e-13
5.68934e-27
9.73063e-14
0
3.12116e-13
0
9.50347e-13
5.25357e-27
7.57805e-13
4.92365e-19
1.19795e-12
9.84821e-19
1.13396e-12
1.26293e-26
1.68166e-12
4.92416e-19
1.60855e-12
4.92347e-19
2.15549e-12
0
2.04719e-12
0
2.59627e-12
-4.92424e-19
2.48638e-12
9.84653e-19
3.04913e-12
9.84864e-19
2.95326e-12
-4.92309e-19
3.52557e-12
-4.9244e-19
3.45563e-12
0
4.01672e-12
-4.9245e-19
3.97358e-12
-2.71044e-26
4.50061e-12
4.92455e-19
4.4797e-12
0
4.96481e-12
9.84924e-19
4.97732e-12
-4.9223e-19
5.37257e-12
0
5.43616e-12
-4.92206e-19
5.79226e-12
0
5.91687e-12
9.84363e-19
6.15663e-12
0
6.32332e-12
-6.78754e-26
6.44799e-12
0
6.66736e-12
0
6.66393e-12
0
6.92904e-12
-9.84208e-19
6.78603e-12