/*--------------------------------*- C++ -*----------------------------------*\
| =========                 |                                                 |
| \\      /  F ield         | foam-extend: Open Source CFD                    |
|  \\    /   O peration     | Version:     3.2                                |
|   \\  /    A nd           | Web:         http://www.foam-extend.org         |
|    \\/     M anipulation  | For copyright notice see file Copyright         |
\*---------------------------------------------------------------------------*/
FoamFile
{
    version     2.0;
    format      ascii;
    class       volVectorField;
    location    "2000";
    object      meshCentreN;
}
// * * * * * * * * * * * * * * * * * * * * * * * * * * * * * * * * * * * * * //

dimensions      [0 1 0 0 0 0 0];

internalField   nonuniform List<vector> 
2400
(
(0.025 0.01 0.00175)
(0.075 0.01 0.0015)
(0.125 0.01 0.00125)
(0.175 0.01 0.001)
(0.225 0.01 0.00075)
(0.275 0.01 0.0005)
(0.325 0.01 0.00025)
(0.375 0.01 -1.98179e-20)
(0.425 0.01 -0.00025)
(0.475 0.01 -0.0005)
(0.525 0.01 -0.00075)
(0.575 0.01 -0.001)
(0.625 0.01 -0.00125)
(0.675 0.01 -0.0015)
(0.725 0.01 -0.00175)
(0.775 0.01 -0.002)
(0.825 0.01 -0.00225)
(0.875 0.01 -0.0025)
(0.925 0.01 -0.00275)
(0.975 0.01 -0.003)
(1.025 0.01 -0.00325)
(1.075 0.01 -0.0035)
(1.125 0.01 -0.00375)
(1.175 0.01 -0.004)
(1.225 0.01 -0.00425)
(1.275 0.01 -0.0045)
(1.325 0.01 -0.00475)
(1.375 0.01 -0.005)
(1.425 0.01 -0.00525)
(1.475 0.01 -0.0055)
(1.525 0.01 -0.00575)
(1.575 0.01 -0.006)
(1.625 0.01 -0.00625)
(1.675 0.01 -0.0065)
(1.725 0.01 -0.00675)
(1.775 0.01 -0.007)
(1.825 0.01 -0.00725)
(1.875 0.01 -0.0075)
(1.925 0.01 -0.00775)
(1.975 0.01 -0.008)
(2.025 0.01 -0.00825)
(2.075 0.01 -0.0085)
(2.125 0.01 -0.00875)
(2.175 0.01 -0.009)
(2.225 0.01 -0.00925)
(2.275 0.01 -0.0095)
(2.325 0.01 -0.00975)
(2.375 0.01 -0.01)
(2.425 0.01 -0.01025)
(2.475 0.01 -0.0105)
(2.525 0.01 -0.01075)
(2.575 0.01 -0.011)
(2.625 0.01 -0.01125)
(2.675 0.01 -0.0115)
(2.725 0.01 -0.01175)
(2.775 0.01 -0.012)
(2.825 0.01 -0.01225)
(2.875 0.01 -0.0125003)
(2.92502 0.01 -0.0127465)
(2.97497 0.01 -0.0119038)
(3.02499 0.01 -0.0104555)
(3.07502 0.01 -0.0105167)
(3.12499 0.01 -0.0111636)
(3.175 0.01 -0.0114142)
(3.225 0.01 -0.011682)
(3.275 0.01 -0.0119398)
(3.325 0.01 -0.0122103)
(3.375 0.01 -0.0124785)
(3.425 0.01 -0.0127483)
(3.475 0.01 -0.0130176)
(3.525 0.01 -0.0132865)
(3.575 0.01 -0.0135543)
(3.625 0.01 -0.0138205)
(3.675 0.01 -0.0140853)
(3.725 0.01 -0.0143488)
(3.775 0.01 -0.0146108)
(3.825 0.01 -0.0148714)
(3.875 0.01 -0.0151306)
(3.925 0.01 -0.0153885)
(3.975 0.01 -0.0156452)
(4.025 0.01 -0.0159009)
(4.075 0.01 -0.0161556)
(4.125 0.01 -0.0164095)
(4.175 0.01 -0.0166626)
(4.225 0.01 -0.0169151)
(4.275 0.01 -0.0171671)
(4.325 0.01 -0.0174186)
(4.375 0.01 -0.0176697)
(4.425 0.01 -0.0179206)
(4.475 0.01 -0.0181713)
(4.525 0.01 -0.0184218)
(4.575 0.01 -0.0186722)
(4.625 0.01 -0.0189223)
(4.675 0.01 -0.0191725)
(4.725 0.01 -0.0194225)
(4.775 0.01 -0.0196725)
(4.825 0.01 -0.0199225)
(4.875 0.01 -0.0201724)
(4.925 0.01 -0.0204224)
(4.975 0.01 -0.0206725)
(5.025 0.01 -0.0209223)
(5.075 0.01 -0.0211723)
(5.125 0.01 -0.0214222)
(5.175 0.01 -0.0216722)
(5.225 0.01 -0.0219223)
(5.275 0.01 -0.0221722)
(5.325 0.01 -0.0224221)
(5.375 0.01 -0.0226721)
(5.425 0.01 -0.0229222)
(5.475 0.01 -0.0231722)
(5.525 0.01 -0.0234221)
(5.575 0.01 -0.0236721)
(5.625 0.01 -0.0239221)
(5.675 0.01 -0.0241722)
(5.725 0.01 -0.0244222)
(5.775 0.01 -0.0246722)
(5.825 0.01 -0.0249222)
(5.875 0.01 -0.0251722)
(5.925 0.01 -0.0254222)
(5.975 0.01 -0.0256723)
(6.025 0.01 -0.0259222)
(6.075 0.01 -0.0261722)
(6.125 0.01 -0.0264222)
(6.175 0.01 -0.0266723)
(6.225 0.01 -0.0269223)
(6.275 0.01 -0.0271723)
(6.325 0.01 -0.0274222)
(6.375 0.01 -0.0276723)
(6.425 0.01 -0.0279223)
(6.475 0.01 -0.0281724)
(6.525 0.01 -0.0284223)
(6.575 0.01 -0.0286724)
(6.625 0.01 -0.0289223)
(6.675 0.01 -0.0291724)
(6.725 0.01 -0.0294224)
(6.775 0.01 -0.0296724)
(6.825 0.01 -0.0299223)
(6.875 0.01 -0.0301724)
(6.925 0.01 -0.0304221)
(6.975 0.01 -0.0306722)
(7.025 0.01 -0.030922)
(7.075 0.01 -0.0311722)
(7.125 0.01 -0.031422)
(7.175 0.01 -0.031672)
(7.225 0.01 -0.0319218)
(7.275 0.01 -0.032172)
(7.325 0.01 -0.0324218)
(7.375 0.01 -0.0326719)
(7.425 0.01 -0.0329216)
(7.475 0.01 -0.0331717)
(7.525 0.01 -0.0334214)
(7.575 0.01 -0.0336716)
(7.625 0.01 -0.0339213)
(7.675 0.01 -0.0341714)
(7.725 0.01 -0.034421)
(7.775 0.01 -0.0346712)
(7.825 0.01 -0.0349207)
(7.875 0.01 -0.0351708)
(7.925 0.01 -0.0354204)
(7.975 0.01 -0.0356706)
(8.025 0.01 -0.0359201)
(8.075 0.01 -0.0361702)
(8.125 0.01 -0.0364197)
(8.175 0.01 -0.0366699)
(8.225 0.01 -0.0369194)
(8.275 0.01 -0.0371696)
(8.325 0.01 -0.0374191)
(8.375 0.01 -0.0376692)
(8.425 0.01 -0.0379187)
(8.475 0.01 -0.0381688)
(8.525 0.01 -0.0384183)
(8.575 0.01 -0.0386683)
(8.625 0.01 -0.0389178)
(8.675 0.01 -0.0391678)
(8.725 0.01 -0.0394174)
(8.775 0.01 -0.0396675)
(8.825 0.01 -0.0399171)
(8.875 0.01 -0.0401671)
(8.925 0.01 -0.0404167)
(8.975 0.01 -0.0406667)
(9.025 0.01 -0.0409164)
(9.075 0.01 -0.0411663)
(9.125 0.01 -0.0414161)
(9.175 0.01 -0.0416661)
(9.225 0.01 -0.0419159)
(9.275 0.01 -0.0421658)
(9.325 0.01 -0.0424157)
(9.375 0.01 -0.0426656)
(9.425 0.01 -0.0429155)
(9.475 0.01 -0.0431654)
(9.525 0.01 -0.0434154)
(9.575 0.01 -0.0436652)
(9.625 0.01 -0.0439152)
(9.675 0.01 -0.0441651)
(9.725 0.01 -0.0444151)
(9.775 0.01 -0.044665)
(9.825 0.01 -0.0449151)
(9.875 0.01 -0.045165)
(9.925 0.01 -0.0454152)
(9.975 0.01 -0.045665)
(10.025 0.01 -0.0459153)
(10.075 0.01 -0.0461651)
(10.125 0.01 -0.0464153)
(10.175 0.01 -0.0466651)
(10.225 0.01 -0.0469154)
(10.275 0.01 -0.0471651)
(10.325 0.01 -0.0474155)
(10.375 0.01 -0.0476653)
(10.425 0.01 -0.0479156)
(10.475 0.01 -0.0481654)
(10.525 0.01 -0.0484157)
(10.575 0.01 -0.0486655)
(10.625 0.01 -0.0489159)
(10.675 0.01 -0.0491657)
(10.725 0.01 -0.049416)
(10.775 0.01 -0.0496659)
(10.825 0.01 -0.0499163)
(10.875 0.01 -0.0501661)
(10.925 0.01 -0.0504165)
(10.975 0.01 -0.0506664)
(11.025 0.01 -0.0509168)
(11.075 0.01 -0.0511667)
(11.125 0.01 -0.0514171)
(11.175 0.01 -0.0516669)
(11.225 0.01 -0.0519173)
(11.275 0.01 -0.0521673)
(11.325 0.01 -0.0524176)
(11.375 0.01 -0.0526676)
(11.425 0.01 -0.052918)
(11.475 0.01 -0.0531679)
(11.525 0.01 -0.0534182)
(11.575 0.01 -0.0536682)
(11.625 0.01 -0.0539185)
(11.675 0.01 -0.0541686)
(11.725 0.01 -0.0544189)
(11.775 0.01 -0.0546689)
(11.825 0.01 -0.0549192)
(11.875 0.01 -0.0551692)
(11.925 0.01 -0.0554194)
(11.975 0.01 -0.0556695)
(12.025 0.01 -0.0559198)
(12.075 0.01 -0.0561698)
(12.125 0.01 -0.05642)
(12.175 0.01 -0.05667)
(12.225 0.01 -0.0569202)
(12.275 0.01 -0.0571701)
(12.325 0.01 -0.0574203)
(12.375 0.01 -0.0576704)
(12.425 0.01 -0.0579205)
(12.475 0.01 -0.0581706)
(12.525 0.01 -0.0584208)
(12.575 0.01 -0.0586709)
(12.625 0.01 -0.058921)
(12.675 0.01 -0.0591711)
(12.725 0.01 -0.0594211)
(12.775 0.01 -0.0596711)
(12.825 0.01 -0.0599212)
(12.875 0.01 -0.0601713)
(12.925 0.01 -0.0604214)
(12.975 0.01 -0.0606714)
(13.025 0.01 -0.0609215)
(13.075 0.01 -0.0611715)
(13.125 0.01 -0.0614215)
(13.175 0.01 -0.0616716)
(13.225 0.01 -0.0619217)
(13.275 0.01 -0.0621717)
(13.325 0.01 -0.0624218)
(13.375 0.01 -0.0626718)
(13.425 0.01 -0.0629218)
(13.475 0.01 -0.0631718)
(13.525 0.01 -0.0634218)
(13.575 0.01 -0.0636718)
(13.625 0.01 -0.0639218)
(13.675 0.01 -0.0641719)
(13.725 0.01 -0.0644219)
(13.775 0.01 -0.0646719)
(13.825 0.01 -0.0649218)
(13.875 0.01 -0.0651717)
(13.925 0.01 -0.0654217)
(13.975 0.01 -0.0656717)
(14.025 0.01 -0.0659217)
(14.075 0.01 -0.0661719)
(14.125 0.01 -0.066422)
(14.175 0.01 -0.0666717)
(14.225 0.01 -0.0669223)
(14.275 0.01 -0.0671706)
(14.325 0.01 -0.0674207)
(14.375 0.01 -0.0676737)
(14.425 0.01 -0.0679236)
(14.475 0.01 -0.0681731)
(14.525 0.01 -0.0684217)
(14.575 0.01 -0.0686713)
(14.625 0.01 -0.0689125)
(14.675 0.01 -0.0691966)
(14.725 0.01 -0.0694135)
(14.775 0.01 -0.0697765)
(14.825 0.01 -0.0712307)
(14.875 0.01 -0.0724963)
(14.925 0.01 -0.0727503)
(14.975 0.01 -0.073)
(0.025 0.01 0.0055)
(0.075 0.01 0.00525)
(0.125 0.01 0.005)
(0.175 0.01 0.00475)
(0.225 0.01 0.0045)
(0.275 0.01 0.00425)
(0.325 0.01 0.004)
(0.375 0.01 0.00375)
(0.425 0.01 0.0035)
(0.475 0.01 0.00325)
(0.525 0.01 0.003)
(0.575 0.01 0.00275)
(0.625 0.01 0.0025)
(0.675 0.01 0.00225)
(0.725 0.01 0.002)
(0.775 0.01 0.00175)
(0.825 0.01 0.0015)
(0.875 0.01 0.00125)
(0.925 0.01 0.001)
(0.975 0.01 0.00075)
(1.025 0.01 0.0005)
(1.075 0.01 0.00025)
(1.125 0.01 -2.49877e-20)
(1.175 0.01 -0.00025)
(1.225 0.01 -0.0005)
(1.275 0.01 -0.00075)
(1.325 0.01 -0.001)
(1.375 0.01 -0.00125)
(1.425 0.01 -0.0015)
(1.475 0.01 -0.00175)
(1.525 0.01 -0.002)
(1.575 0.01 -0.00225)
(1.625 0.01 -0.0025)
(1.675 0.01 -0.00275)
(1.725 0.01 -0.003)
(1.775 0.01 -0.00325)
(1.825 0.01 -0.0035)
(1.875 0.01 -0.00375)
(1.925 0.01 -0.004)
(1.975 0.01 -0.00425)
(2.025 0.01 -0.0045)
(2.075 0.01 -0.00475)
(2.125 0.01 -0.005)
(2.175 0.01 -0.00525)
(2.225 0.01 -0.0055)
(2.275 0.01 -0.00575)
(2.325 0.01 -0.006)
(2.375 0.01 -0.00625)
(2.425 0.01 -0.0065)
(2.475 0.01 -0.00675)
(2.525 0.01 -0.007)
(2.575 0.01 -0.00725)
(2.625 0.01 -0.0075)
(2.675 0.01 -0.00775)
(2.725 0.01 -0.008)
(2.775 0.01 -0.00825001)
(2.825 0.01 -0.00849992)
(2.875 0.01 -0.00875099)
(2.92503 0.01 -0.00898789)
(2.97493 0.01 -0.00815768)
(3.02496 0.01 -0.00673981)
(3.07505 0.01 -0.00679584)
(3.12499 0.01 -0.00743164)
(3.175 0.01 -0.00768627)
(3.225 0.01 -0.00795329)
(3.275 0.01 -0.00821125)
(3.325 0.01 -0.00848145)
(3.375 0.01 -0.00874955)
(3.425 0.01 -0.00901909)
(3.475 0.01 -0.00928821)
(3.525 0.01 -0.009557)
(3.575 0.01 -0.00982463)
(3.625 0.01 -0.0100906)
(3.675 0.01 -0.0103553)
(3.725 0.01 -0.0106186)
(3.775 0.01 -0.0108805)
(3.825 0.01 -0.011141)
(3.875 0.01 -0.0114002)
(3.925 0.01 -0.011658)
(3.975 0.01 -0.0119147)
(4.025 0.01 -0.0121703)
(4.075 0.01 -0.0124249)
(4.125 0.01 -0.0126788)
(4.175 0.01 -0.0129319)
(4.225 0.01 -0.0131843)
(4.275 0.01 -0.0134363)
(4.325 0.01 -0.0136879)
(4.375 0.01 -0.013939)
(4.425 0.01 -0.0141898)
(4.475 0.01 -0.0144405)
(4.525 0.01 -0.014691)
(4.575 0.01 -0.0149414)
(4.625 0.01 -0.0151915)
(4.675 0.01 -0.0154417)
(4.725 0.01 -0.0156917)
(4.775 0.01 -0.0159417)
(4.825 0.01 -0.0161917)
(4.875 0.01 -0.0164416)
(4.925 0.01 -0.0166916)
(4.975 0.01 -0.0169417)
(5.025 0.01 -0.0171915)
(5.075 0.01 -0.0174415)
(5.125 0.01 -0.0176914)
(5.175 0.01 -0.0179414)
(5.225 0.01 -0.0181915)
(5.275 0.01 -0.0184414)
(5.325 0.01 -0.0186913)
(5.375 0.01 -0.0189413)
(5.425 0.01 -0.0191914)
(5.475 0.01 -0.0194414)
(5.525 0.01 -0.0196913)
(5.575 0.01 -0.0199413)
(5.625 0.01 -0.0201913)
(5.675 0.01 -0.0204414)
(5.725 0.01 -0.0206914)
(5.775 0.01 -0.0209414)
(5.825 0.01 -0.0211914)
(5.875 0.01 -0.0214414)
(5.925 0.01 -0.0216914)
(5.975 0.01 -0.0219415)
(6.025 0.01 -0.0221914)
(6.075 0.01 -0.0224414)
(6.125 0.01 -0.0226914)
(6.175 0.01 -0.0229415)
(6.225 0.01 -0.0231915)
(6.275 0.01 -0.0234415)
(6.325 0.01 -0.0236915)
(6.375 0.01 -0.0239415)
(6.425 0.01 -0.0241915)
(6.475 0.01 -0.0244416)
(6.525 0.01 -0.0246915)
(6.575 0.01 -0.0249416)
(6.625 0.01 -0.0251915)
(6.675 0.01 -0.0254416)
(6.725 0.01 -0.0256916)
(6.775 0.01 -0.0259416)
(6.825 0.01 -0.0261915)
(6.875 0.01 -0.0264416)
(6.925 0.01 -0.0266914)
(6.975 0.01 -0.0269414)
(7.025 0.01 -0.0271913)
(7.075 0.01 -0.0274414)
(7.125 0.01 -0.0276912)
(7.175 0.01 -0.0279412)
(7.225 0.01 -0.028191)
(7.275 0.01 -0.0284412)
(7.325 0.01 -0.028691)
(7.375 0.01 -0.0289411)
(7.425 0.01 -0.0291908)
(7.475 0.01 -0.029441)
(7.525 0.01 -0.0296906)
(7.575 0.01 -0.0299408)
(7.625 0.01 -0.0301905)
(7.675 0.01 -0.0304406)
(7.725 0.01 -0.0306902)
(7.775 0.01 -0.0309404)
(7.825 0.01 -0.0311899)
(7.875 0.01 -0.0314401)
(7.925 0.01 -0.0316896)
(7.975 0.01 -0.0319398)
(8.025 0.01 -0.0321893)
(8.075 0.01 -0.0324394)
(8.125 0.01 -0.032689)
(8.175 0.01 -0.0329391)
(8.225 0.01 -0.0331887)
(8.275 0.01 -0.0334389)
(8.325 0.01 -0.0336883)
(8.375 0.01 -0.0339385)
(8.425 0.01 -0.034188)
(8.475 0.01 -0.034438)
(8.525 0.01 -0.0346875)
(8.575 0.01 -0.0349376)
(8.625 0.01 -0.035187)
(8.675 0.01 -0.0354371)
(8.725 0.01 -0.0356866)
(8.775 0.01 -0.0359367)
(8.825 0.01 -0.0361863)
(8.875 0.01 -0.0364363)
(8.925 0.01 -0.036686)
(8.975 0.01 -0.036936)
(9.025 0.01 -0.0371856)
(9.075 0.01 -0.0374356)
(9.125 0.01 -0.0376853)
(9.175 0.01 -0.0379353)
(9.225 0.01 -0.0381852)
(9.275 0.01 -0.0384351)
(9.325 0.01 -0.038685)
(9.375 0.01 -0.0389349)
(9.425 0.01 -0.0391848)
(9.475 0.01 -0.0394347)
(9.525 0.01 -0.0396846)
(9.575 0.01 -0.0399345)
(9.625 0.01 -0.0401845)
(9.675 0.01 -0.0404344)
(9.725 0.01 -0.0406844)
(9.775 0.01 -0.0409343)
(9.825 0.01 -0.0411844)
(9.875 0.01 -0.0414343)
(9.925 0.01 -0.0416845)
(9.975 0.01 -0.0419343)
(10.025 0.01 -0.0421845)
(10.075 0.01 -0.0424343)
(10.125 0.01 -0.0426845)
(10.175 0.01 -0.0429344)
(10.225 0.01 -0.0431847)
(10.275 0.01 -0.0434344)
(10.325 0.01 -0.0436847)
(10.375 0.01 -0.0439345)
(10.425 0.01 -0.0441848)
(10.475 0.01 -0.0444346)
(10.525 0.01 -0.044685)
(10.575 0.01 -0.0449348)
(10.625 0.01 -0.0451851)
(10.675 0.01 -0.045435)
(10.725 0.01 -0.0456853)
(10.775 0.01 -0.0459352)
(10.825 0.01 -0.0461856)
(10.875 0.01 -0.0464354)
(10.925 0.01 -0.0466858)
(10.975 0.01 -0.0469357)
(11.025 0.01 -0.047186)
(11.075 0.01 -0.0474359)
(11.125 0.01 -0.0476863)
(11.175 0.01 -0.0479362)
(11.225 0.01 -0.0481866)
(11.275 0.01 -0.0484365)
(11.325 0.01 -0.0486869)
(11.375 0.01 -0.0489368)
(11.425 0.01 -0.0491872)
(11.475 0.01 -0.0494371)
(11.525 0.01 -0.0496875)
(11.575 0.01 -0.0499375)
(11.625 0.01 -0.0501877)
(11.675 0.01 -0.0504378)
(11.725 0.01 -0.0506881)
(11.775 0.01 -0.0509381)
(11.825 0.01 -0.0511884)
(11.875 0.01 -0.0514385)
(11.925 0.01 -0.0516887)
(11.975 0.01 -0.0519387)
(12.025 0.01 -0.052189)
(12.075 0.01 -0.052439)
(12.125 0.01 -0.0526892)
(12.175 0.01 -0.0529392)
(12.225 0.01 -0.0531894)
(12.275 0.01 -0.0534394)
(12.325 0.01 -0.0536895)
(12.375 0.01 -0.0539396)
(12.425 0.01 -0.0541897)
(12.475 0.01 -0.0544399)
(12.525 0.01 -0.0546901)
(12.575 0.01 -0.0549401)
(12.625 0.01 -0.0551902)
(12.675 0.01 -0.0554403)
(12.725 0.01 -0.0556903)
(12.775 0.01 -0.0559403)
(12.825 0.01 -0.0561904)
(12.875 0.01 -0.0564405)
(12.925 0.01 -0.0566906)
(12.975 0.01 -0.0569406)
(13.025 0.01 -0.0571907)
(13.075 0.01 -0.0574407)
(13.125 0.01 -0.0576908)
(13.175 0.01 -0.0579408)
(13.225 0.01 -0.0581909)
(13.275 0.01 -0.0584409)
(13.325 0.01 -0.058691)
(13.375 0.01 -0.058941)
(13.425 0.01 -0.059191)
(13.475 0.01 -0.059441)
(13.525 0.01 -0.059691)
(13.575 0.01 -0.059941)
(13.625 0.01 -0.060191)
(13.675 0.01 -0.060441)
(13.725 0.01 -0.0606911)
(13.775 0.01 -0.0609411)
(13.825 0.01 -0.061191)
(13.875 0.01 -0.061441)
(13.925 0.01 -0.061691)
(13.975 0.01 -0.061941)
(14.025 0.01 -0.0621909)
(14.075 0.01 -0.0624411)
(14.125 0.01 -0.0626911)
(14.175 0.01 -0.0629409)
(14.225 0.01 -0.0631915)
(14.275 0.01 -0.0634398)
(14.325 0.01 -0.06369)
(14.375 0.01 -0.0639428)
(14.425 0.01 -0.0641928)
(14.475 0.01 -0.0644423)
(14.525 0.01 -0.0646909)
(14.575 0.01 -0.0649404)
(14.625 0.01 -0.0651822)
(14.675 0.01 -0.065465)
(14.725 0.01 -0.0656833)
(14.775 0.01 -0.066052)
(14.8251 0.01 -0.0674871)
(14.875 0.01 -0.0687376)
(14.925 0.01 -0.069001)
(14.975 0.01 -0.0692499)
(0.025 0.01 0.00925)
(0.075 0.01 0.009)
(0.125 0.01 0.00875)
(0.175 0.01 0.0085)
(0.225 0.01 0.00825)
(0.275 0.01 0.008)
(0.325 0.01 0.00775)
(0.375 0.01 0.0075)
(0.425 0.01 0.00725)
(0.475 0.01 0.007)
(0.525 0.01 0.00675)
(0.575 0.01 0.0065)
(0.625 0.01 0.00625)
(0.675 0.01 0.006)
(0.725 0.01 0.00575)
(0.775 0.01 0.0055)
(0.825 0.01 0.00525)
(0.875 0.01 0.005)
(0.925 0.01 0.00475)
(0.975 0.01 0.0045)
(1.025 0.01 0.00425)
(1.075 0.01 0.004)
(1.125 0.01 0.00375)
(1.175 0.01 0.0035)
(1.225 0.01 0.00325)
(1.275 0.01 0.003)
(1.325 0.01 0.00275)
(1.375 0.01 0.0025)
(1.425 0.01 0.00225)
(1.475 0.01 0.002)
(1.525 0.01 0.00175)
(1.575 0.01 0.0015)
(1.625 0.01 0.00125)
(1.675 0.01 0.001)
(1.725 0.01 0.00075)
(1.775 0.01 0.0005)
(1.825 0.01 0.00025)
(1.875 0.01 2.98991e-19)
(1.925 0.01 -0.00025)
(1.975 0.01 -0.0005)
(2.025 0.01 -0.00075)
(2.075 0.01 -0.001)
(2.125 0.01 -0.00125)
(2.175 0.01 -0.0015)
(2.225 0.01 -0.00175)
(2.275 0.01 -0.002)
(2.325 0.01 -0.00225)
(2.375 0.01 -0.0025)
(2.425 0.01 -0.00275)
(2.475 0.01 -0.003)
(2.525 0.01 -0.00325)
(2.575 0.01 -0.0035)
(2.625 0.01 -0.00375)
(2.675 0.01 -0.004)
(2.725 0.01 -0.00425)
(2.775 0.01 -0.00450001)
(2.825 0.01 -0.00474984)
(2.875 0.01 -0.00500188)
(2.92503 0.01 -0.00522774)
(2.97487 0.01 -0.00443229)
(3.02492 0.01 -0.00308202)
(3.07507 0.01 -0.00313544)
(3.12499 0.01 -0.0037503)
(3.175 0.01 -0.00400944)
(3.225 0.01 -0.00427522)
(3.275 0.01 -0.0045332)
(3.325 0.01 -0.0048026)
(3.375 0.01 -0.00507018)
(3.425 0.01 -0.00533908)
(3.475 0.01 -0.0056076)
(3.525 0.01 -0.00587579)
(3.575 0.01 -0.00614286)
(3.625 0.01 -0.00640837)
(3.675 0.01 -0.00667259)
(3.725 0.01 -0.00693549)
(3.775 0.01 -0.00719702)
(3.825 0.01 -0.00745719)
(3.875 0.01 -0.00771604)
(3.925 0.01 -0.0079736)
(3.975 0.01 -0.00823011)
(4.025 0.01 -0.00848559)
(4.075 0.01 -0.00874006)
(4.125 0.01 -0.00899378)
(4.175 0.01 -0.00924681)
(4.225 0.01 -0.00949916)
(4.275 0.01 -0.00975109)
(4.325 0.01 -0.0100026)
(4.375 0.01 -0.0102536)
(4.425 0.01 -0.0105045)
(4.475 0.01 -0.0107551)
(4.525 0.01 -0.0110056)
(4.575 0.01 -0.011256)
(4.625 0.01 -0.0115061)
(4.675 0.01 -0.0117563)
(4.725 0.01 -0.0120063)
(4.775 0.01 -0.0122563)
(4.825 0.01 -0.0125063)
(4.875 0.01 -0.0127562)
(4.925 0.01 -0.0130062)
(4.975 0.01 -0.0132563)
(5.025 0.01 -0.0135061)
(5.075 0.01 -0.0137561)
(5.125 0.01 -0.0140061)
(5.175 0.01 -0.0142561)
(5.225 0.01 -0.0145061)
(5.275 0.01 -0.014756)
(5.325 0.01 -0.015006)
(5.375 0.01 -0.0152559)
(5.425 0.01 -0.015506)
(5.475 0.01 -0.015756)
(5.525 0.01 -0.0160059)
(5.575 0.01 -0.0162559)
(5.625 0.01 -0.0165059)
(5.675 0.01 -0.016756)
(5.725 0.01 -0.017006)
(5.775 0.01 -0.017256)
(5.825 0.01 -0.017506)
(5.875 0.01 -0.017756)
(5.925 0.01 -0.018006)
(5.975 0.01 -0.0182561)
(6.025 0.01 -0.018506)
(6.075 0.01 -0.018756)
(6.125 0.01 -0.019006)
(6.175 0.01 -0.0192561)
(6.225 0.01 -0.0195061)
(6.275 0.01 -0.0197561)
(6.325 0.01 -0.0200061)
(6.375 0.01 -0.0202561)
(6.425 0.01 -0.0205061)
(6.475 0.01 -0.0207562)
(6.525 0.01 -0.0210061)
(6.575 0.01 -0.0212562)
(6.625 0.01 -0.0215061)
(6.675 0.01 -0.0217562)
(6.725 0.01 -0.0220062)
(6.775 0.01 -0.0222562)
(6.825 0.01 -0.0225061)
(6.875 0.01 -0.0227562)
(6.925 0.01 -0.023006)
(6.975 0.01 -0.023256)
(7.025 0.01 -0.0235059)
(7.075 0.01 -0.023756)
(7.125 0.01 -0.0240058)
(7.175 0.01 -0.0242559)
(7.225 0.01 -0.0245057)
(7.275 0.01 -0.0247558)
(7.325 0.01 -0.0250056)
(7.375 0.01 -0.0252557)
(7.425 0.01 -0.0255054)
(7.475 0.01 -0.0257556)
(7.525 0.01 -0.0260053)
(7.575 0.01 -0.0262555)
(7.625 0.01 -0.0265051)
(7.675 0.01 -0.0267552)
(7.725 0.01 -0.0270049)
(7.775 0.01 -0.027255)
(7.825 0.01 -0.0275046)
(7.875 0.01 -0.0277547)
(7.925 0.01 -0.0280043)
(7.975 0.01 -0.0282544)
(8.025 0.01 -0.028504)
(8.075 0.01 -0.0287541)
(8.125 0.01 -0.0290036)
(8.175 0.01 -0.0292538)
(8.225 0.01 -0.0295034)
(8.275 0.01 -0.0297535)
(8.325 0.01 -0.030003)
(8.375 0.01 -0.0302532)
(8.425 0.01 -0.0305027)
(8.475 0.01 -0.0307527)
(8.525 0.01 -0.0310022)
(8.575 0.01 -0.0312523)
(8.625 0.01 -0.0315018)
(8.675 0.01 -0.0317518)
(8.725 0.01 -0.0320014)
(8.775 0.01 -0.0322515)
(8.825 0.01 -0.0325011)
(8.875 0.01 -0.0327511)
(8.925 0.01 -0.0330008)
(8.975 0.01 -0.0332508)
(9.025 0.01 -0.0335004)
(9.075 0.01 -0.0337504)
(9.125 0.01 -0.0340001)
(9.175 0.01 -0.0342501)
(9.225 0.01 -0.0345)
(9.275 0.01 -0.0347499)
(9.325 0.01 -0.0349998)
(9.375 0.01 -0.0352497)
(9.425 0.01 -0.0354996)
(9.475 0.01 -0.0357495)
(9.525 0.01 -0.0359995)
(9.575 0.01 -0.0362493)
(9.625 0.01 -0.0364993)
(9.675 0.01 -0.0367492)
(9.725 0.01 -0.0369992)
(9.775 0.01 -0.0372491)
(9.825 0.01 -0.0374992)
(9.875 0.01 -0.0377491)
(9.925 0.01 -0.0379993)
(9.975 0.01 -0.0382491)
(10.025 0.01 -0.0384993)
(10.075 0.01 -0.0387492)
(10.125 0.01 -0.0389994)
(10.175 0.01 -0.0392492)
(10.225 0.01 -0.0394995)
(10.275 0.01 -0.0397492)
(10.325 0.01 -0.0399995)
(10.375 0.01 -0.0402494)
(10.425 0.01 -0.0404996)
(10.475 0.01 -0.0407495)
(10.525 0.01 -0.0409998)
(10.575 0.01 -0.0412496)
(10.625 0.01 -0.0414999)
(10.675 0.01 -0.0417498)
(10.725 0.01 -0.0420001)
(10.775 0.01 -0.04225)
(10.825 0.01 -0.0425003)
(10.875 0.01 -0.0427502)
(10.925 0.01 -0.0430006)
(10.975 0.01 -0.0432505)
(11.025 0.01 -0.0435008)
(11.075 0.01 -0.0437507)
(11.125 0.01 -0.0440011)
(11.175 0.01 -0.044251)
(11.225 0.01 -0.0445013)
(11.275 0.01 -0.0447513)
(11.325 0.01 -0.0450016)
(11.375 0.01 -0.0452516)
(11.425 0.01 -0.0455019)
(11.475 0.01 -0.0457519)
(11.525 0.01 -0.0460022)
(11.575 0.01 -0.0462522)
(11.625 0.01 -0.0465025)
(11.675 0.01 -0.0467525)
(11.725 0.01 -0.0470028)
(11.775 0.01 -0.0472528)
(11.825 0.01 -0.0475031)
(11.875 0.01 -0.0477532)
(11.925 0.01 -0.0480034)
(11.975 0.01 -0.0482534)
(12.025 0.01 -0.0485037)
(12.075 0.01 -0.0487537)
(12.125 0.01 -0.0490038)
(12.175 0.01 -0.0492539)
(12.225 0.01 -0.0495041)
(12.275 0.01 -0.0497541)
(12.325 0.01 -0.0500042)
(12.375 0.01 -0.0502543)
(12.425 0.01 -0.0505044)
(12.475 0.01 -0.0507545)
(12.525 0.01 -0.0510047)
(12.575 0.01 -0.0512547)
(12.625 0.01 -0.0515049)
(12.675 0.01 -0.051755)
(12.725 0.01 -0.052005)
(12.775 0.01 -0.052255)
(12.825 0.01 -0.052505)
(12.875 0.01 -0.0527551)
(12.925 0.01 -0.0530052)
(12.975 0.01 -0.0532553)
(13.025 0.01 -0.0535054)
(13.075 0.01 -0.0537554)
(13.125 0.01 -0.0540055)
(13.175 0.01 -0.0542555)
(13.225 0.01 -0.0545055)
(13.275 0.01 -0.0547555)
(13.325 0.01 -0.0550055)
(13.375 0.01 -0.0552556)
(13.425 0.01 -0.0555056)
(13.475 0.01 -0.0557557)
(13.525 0.01 -0.0560058)
(13.575 0.01 -0.0562557)
(13.625 0.01 -0.0565056)
(13.675 0.01 -0.0567556)
(13.725 0.01 -0.0570056)
(13.775 0.01 -0.0572556)
(13.825 0.01 -0.0575056)
(13.875 0.01 -0.0577557)
(13.925 0.01 -0.0580058)
(13.975 0.01 -0.0582557)
(14.025 0.01 -0.0585055)
(14.075 0.01 -0.0587555)
(14.125 0.01 -0.0590056)
(14.175 0.01 -0.0592554)
(14.225 0.01 -0.059506)
(14.275 0.01 -0.0597545)
(14.325 0.01 -0.0600047)
(14.375 0.01 -0.0602574)
(14.425 0.01 -0.0605074)
(14.475 0.01 -0.0607569)
(14.525 0.01 -0.0610056)
(14.575 0.01 -0.0612549)
(14.625 0.01 -0.0614975)
(14.675 0.01 -0.0617782)
(14.725 0.01 -0.0619986)
(14.775 0.01 -0.0623723)
(14.8251 0.01 -0.0637631)
(14.875 0.01 -0.0649775)
(14.925 0.01 -0.0652519)
(14.975 0.01 -0.0654998)
(0.025 0.01 0.013)
(0.075 0.01 0.01275)
(0.125 0.01 0.0125)
(0.175 0.01 0.01225)
(0.225 0.01 0.012)
(0.275 0.01 0.01175)
(0.325 0.01 0.0115)
(0.375 0.01 0.01125)
(0.425 0.01 0.011)
(0.475 0.01 0.01075)
(0.525 0.01 0.0105)
(0.575 0.01 0.01025)
(0.625 0.01 0.01)
(0.675 0.01 0.00975)
(0.725 0.01 0.0095)
(0.775 0.01 0.00925)
(0.825 0.01 0.009)
(0.875 0.01 0.00875)
(0.925 0.01 0.0085)
(0.975 0.01 0.00825)
(1.025 0.01 0.008)
(1.075 0.01 0.00775)
(1.125 0.01 0.0075)
(1.175 0.01 0.00725)
(1.225 0.01 0.007)
(1.275 0.01 0.00675)
(1.325 0.01 0.0065)
(1.375 0.01 0.00625)
(1.425 0.01 0.006)
(1.475 0.01 0.00575)
(1.525 0.01 0.0055)
(1.575 0.01 0.00525)
(1.625 0.01 0.005)
(1.675 0.01 0.00475)
(1.725 0.01 0.0045)
(1.775 0.01 0.00425)
(1.825 0.01 0.004)
(1.875 0.01 0.00375)
(1.925 0.01 0.0035)
(1.975 0.01 0.00325)
(2.025 0.01 0.003)
(2.075 0.01 0.00275)
(2.125 0.01 0.0025)
(2.175 0.01 0.00225)
(2.225 0.01 0.002)
(2.275 0.01 0.00175)
(2.325 0.01 0.0015)
(2.375 0.01 0.00125)
(2.425 0.01 0.001)
(2.475 0.01 0.00075)
(2.525 0.01 0.0005)
(2.575 0.01 0.00025)
(2.625 0.01 1.26617e-11)
(2.675 0.01 -0.00025)
(2.725 0.01 -0.000499998)
(2.775 0.01 -0.00075002)
(2.825 0.01 -0.000999771)
(2.875 0.01 -0.00125265)
(2.92502 0.01 -0.00146909)
(2.97478 0.01 -0.000742565)
(3.02487 0.01 0.000488242)
(3.07511 0.01 0.000429439)
(3.12499 0.01 -0.000152353)
(3.17501 0.01 -0.000414988)
(3.225 0.01 -0.000679045)
(3.275 0.01 -0.000936742)
(3.325 0.01 -0.00120466)
(3.375 0.01 -0.00147108)
(3.425 0.01 -0.00173867)
(3.475 0.01 -0.00200593)
(3.525 0.01 -0.00227288)
(3.575 0.01 -0.00253878)
(3.625 0.01 -0.00280323)
(3.675 0.01 -0.00306649)
(3.725 0.01 -0.00332851)
(3.775 0.01 -0.00358926)
(3.825 0.01 -0.00384875)
(3.875 0.01 -0.00410699)
(3.925 0.01 -0.00436405)
(3.975 0.01 -0.00462012)
(4.025 0.01 -0.00487523)
(4.075 0.01 -0.00512939)
(4.125 0.01 -0.00538287)
(4.175 0.01 -0.0056357)
(4.225 0.01 -0.00588789)
(4.275 0.01 -0.00613968)
(4.325 0.01 -0.00639108)
(4.375 0.01 -0.00664207)
(4.425 0.01 -0.00689287)
(4.475 0.01 -0.00714346)
(4.525 0.01 -0.00739392)
(4.575 0.01 -0.00764425)
(4.625 0.01 -0.00789439)
(4.675 0.01 -0.00814451)
(4.725 0.01 -0.00839459)
(4.775 0.01 -0.00864454)
(4.825 0.01 -0.00889453)
(4.875 0.01 -0.0091445)
(4.925 0.01 -0.0093945)
(4.975 0.01 -0.0096445)
(5.025 0.01 -0.00989439)
(5.075 0.01 -0.0101444)
(5.125 0.01 -0.0103943)
(5.175 0.01 -0.0106443)
(5.225 0.01 -0.0108943)
(5.275 0.01 -0.0111443)
(5.325 0.01 -0.0113942)
(5.375 0.01 -0.0116442)
(5.425 0.01 -0.0118942)
(5.475 0.01 -0.0121443)
(5.525 0.01 -0.0123942)
(5.575 0.01 -0.0126442)
(5.625 0.01 -0.0128942)
(5.675 0.01 -0.0131442)
(5.725 0.01 -0.0133943)
(5.775 0.01 -0.0136442)
(5.825 0.01 -0.0138942)
(5.875 0.01 -0.0141442)
(5.925 0.01 -0.0143943)
(5.975 0.01 -0.0146443)
(6.025 0.01 -0.0148943)
(6.075 0.01 -0.0151443)
(6.125 0.01 -0.0153943)
(6.175 0.01 -0.0156443)
(6.225 0.01 -0.0158944)
(6.275 0.01 -0.0161444)
(6.325 0.01 -0.0163943)
(6.375 0.01 -0.0166444)
(6.425 0.01 -0.0168944)
(6.475 0.01 -0.0171445)
(6.525 0.01 -0.0173944)
(6.575 0.01 -0.0176444)
(6.625 0.01 -0.0178944)
(6.675 0.01 -0.0181445)
(6.725 0.01 -0.0183944)
(6.775 0.01 -0.0186444)
(6.825 0.01 -0.0188944)
(6.875 0.01 -0.0191444)
(6.925 0.01 -0.0193942)
(6.975 0.01 -0.0196443)
(7.025 0.01 -0.0198941)
(7.075 0.01 -0.0201442)
(7.125 0.01 -0.0203941)
(7.175 0.01 -0.0206441)
(7.225 0.01 -0.020894)
(7.275 0.01 -0.0211441)
(7.325 0.01 -0.0213939)
(7.375 0.01 -0.021644)
(7.425 0.01 -0.0218937)
(7.475 0.01 -0.0221439)
(7.525 0.01 -0.0223936)
(7.575 0.01 -0.0226438)
(7.625 0.01 -0.0228935)
(7.675 0.01 -0.0231436)
(7.725 0.01 -0.0233932)
(7.775 0.01 -0.0236434)
(7.825 0.01 -0.0238929)
(7.875 0.01 -0.0241431)
(7.925 0.01 -0.0243927)
(7.975 0.01 -0.0246428)
(8.025 0.01 -0.0248924)
(8.075 0.01 -0.0251425)
(8.125 0.01 -0.0253921)
(8.175 0.01 -0.0256422)
(8.225 0.01 -0.0258918)
(8.275 0.01 -0.026142)
(8.325 0.01 -0.0263915)
(8.375 0.01 -0.0266416)
(8.425 0.01 -0.0268912)
(8.475 0.01 -0.0271412)
(8.525 0.01 -0.0273908)
(8.575 0.01 -0.0276408)
(8.625 0.01 -0.0278903)
(8.675 0.01 -0.0281404)
(8.725 0.01 -0.02839)
(8.775 0.01 -0.02864)
(8.825 0.01 -0.0288897)
(8.875 0.01 -0.0291397)
(8.925 0.01 -0.0293894)
(8.975 0.01 -0.0296394)
(9.025 0.01 -0.0298891)
(9.075 0.01 -0.030139)
(9.125 0.01 -0.0303888)
(9.175 0.01 -0.0306388)
(9.225 0.01 -0.0308887)
(9.275 0.01 -0.0311386)
(9.325 0.01 -0.0313885)
(9.375 0.01 -0.0316384)
(9.425 0.01 -0.0318883)
(9.475 0.01 -0.0321382)
(9.525 0.01 -0.0323882)
(9.575 0.01 -0.032638)
(9.625 0.01 -0.032888)
(9.675 0.01 -0.033138)
(9.725 0.01 -0.0333879)
(9.775 0.01 -0.0336378)
(9.825 0.01 -0.0338879)
(9.875 0.01 -0.0341379)
(9.925 0.01 -0.034388)
(9.975 0.01 -0.0346378)
(10.025 0.01 -0.034888)
(10.075 0.01 -0.0351379)
(10.125 0.01 -0.0353881)
(10.175 0.01 -0.0356379)
(10.225 0.01 -0.0358882)
(10.275 0.01 -0.036138)
(10.325 0.01 -0.0363882)
(10.375 0.01 -0.0366381)
(10.425 0.01 -0.0368883)
(10.475 0.01 -0.0371382)
(10.525 0.01 -0.0373885)
(10.575 0.01 -0.0376383)
(10.625 0.01 -0.0378886)
(10.675 0.01 -0.0381385)
(10.725 0.01 -0.0383888)
(10.775 0.01 -0.0386387)
(10.825 0.01 -0.038889)
(10.875 0.01 -0.0391388)
(10.925 0.01 -0.0393892)
(10.975 0.01 -0.0396391)
(11.025 0.01 -0.0398894)
(11.075 0.01 -0.0401393)
(11.125 0.01 -0.0403897)
(11.175 0.01 -0.0406396)
(11.225 0.01 -0.0408899)
(11.275 0.01 -0.0411399)
(11.325 0.01 -0.0413902)
(11.375 0.01 -0.0416402)
(11.425 0.01 -0.0418905)
(11.475 0.01 -0.0421404)
(11.525 0.01 -0.0423907)
(11.575 0.01 -0.0426407)
(11.625 0.01 -0.042891)
(11.675 0.01 -0.043141)
(11.725 0.01 -0.0433913)
(11.775 0.01 -0.0436413)
(11.825 0.01 -0.0438916)
(11.875 0.01 -0.0441416)
(11.925 0.01 -0.0443918)
(11.975 0.01 -0.0446419)
(12.025 0.01 -0.0448921)
(12.075 0.01 -0.0451421)
(12.125 0.01 -0.0453922)
(12.175 0.01 -0.0456423)
(12.225 0.01 -0.0458925)
(12.275 0.01 -0.0461425)
(12.325 0.01 -0.0463927)
(12.375 0.01 -0.0466427)
(12.425 0.01 -0.0468928)
(12.475 0.01 -0.0471428)
(12.525 0.01 -0.047393)
(12.575 0.01 -0.047643)
(12.625 0.01 -0.0478932)
(12.675 0.01 -0.0481433)
(12.725 0.01 -0.0483934)
(12.775 0.01 -0.0486434)
(12.825 0.01 -0.0488934)
(12.875 0.01 -0.0491434)
(12.925 0.01 -0.0493934)
(12.975 0.01 -0.0496435)
(13.025 0.01 -0.0498937)
(13.075 0.01 -0.0501438)
(13.125 0.01 -0.0503939)
(13.175 0.01 -0.0506439)
(13.225 0.01 -0.0508938)
(13.275 0.01 -0.0511437)
(13.325 0.01 -0.0513937)
(13.375 0.01 -0.0516438)
(13.425 0.01 -0.0518939)
(13.475 0.01 -0.0521441)
(13.525 0.01 -0.0523942)
(13.575 0.01 -0.0526441)
(13.625 0.01 -0.0528939)
(13.675 0.01 -0.0531437)
(13.725 0.01 -0.0533937)
(13.775 0.01 -0.0536438)
(13.825 0.01 -0.053894)
(13.875 0.01 -0.0541442)
(13.925 0.01 -0.0543943)
(13.975 0.01 -0.0546441)
(14.025 0.01 -0.0548938)
(14.075 0.01 -0.0551436)
(14.125 0.01 -0.0553936)
(14.175 0.01 -0.0556436)
(14.225 0.01 -0.0558942)
(14.275 0.01 -0.0561429)
(14.325 0.01 -0.0563931)
(14.375 0.01 -0.0566455)
(14.425 0.01 -0.0568956)
(14.475 0.01 -0.0571451)
(14.525 0.01 -0.0573939)
(14.575 0.01 -0.0576432)
(14.625 0.01 -0.0578868)
(14.675 0.01 -0.0581644)
(14.725 0.01 -0.0583878)
(14.775 0.01 -0.0587611)
(14.8252 0.01 -0.0600717)
(14.875 0.01 -0.061219)
(14.925 0.01 -0.0615027)
(14.975 0.01 -0.0617498)
(0.025 0.01 0.01675)
(0.075 0.01 0.0165)
(0.125 0.01 0.01625)
(0.175 0.01 0.016)
(0.225 0.01 0.01575)
(0.275 0.01 0.0155)
(0.325 0.01 0.01525)
(0.375 0.01 0.015)
(0.425 0.01 0.01475)
(0.475 0.01 0.0145)
(0.525 0.01 0.01425)
(0.575 0.01 0.014)
(0.625 0.01 0.01375)
(0.675 0.01 0.0135)
(0.725 0.01 0.01325)
(0.775 0.01 0.013)
(0.825 0.01 0.01275)
(0.875 0.01 0.0125)
(0.925 0.01 0.01225)
(0.975 0.01 0.012)
(1.025 0.01 0.01175)
(1.075 0.01 0.0115)
(1.125 0.01 0.01125)
(1.175 0.01 0.011)
(1.225 0.01 0.01075)
(1.275 0.01 0.0105)
(1.325 0.01 0.01025)
(1.375 0.01 0.01)
(1.425 0.01 0.00975)
(1.475 0.01 0.0095)