/*--------------------------------*- C++ -*----------------------------------*\
| =========                 |                                                 |
| \\      /  F ield         | foam-extend: Open Source CFD                    |
|  \\    /   O peration     | Version:     3.2                                |
|   \\  /    A nd           | Web:         http://www.foam-extend.org         |
|    \\/     M anipulation  | For copyright notice see file Copyright         |
\*---------------------------------------------------------------------------*/
FoamFile
{
    version     2.0;
    format      ascii;
    class       tetPointVectorField;
    location    "2000";
    object      motionU;
}
// * * * * * * * * * * * * * * * * * * * * * * * * * * * * * * * * * * * * * //

dimensions      [0 1 -1 0 0 0 0];

internalField   nonuniform List<vector> 
17726
(
(0 0 0)
(0 0 0)
(0 0 0)
(0 0 0)
(0 0 0)
(0 0 0)
(0 0 0)
(0 0 0)
(0 0 0)
(0 0 0)
(0 0 0)
(0 0 0)
(0 0 0)
(0 0 0)
(0 0 0)
(0 0 0)
(0 0 0)
(0 0 0)
(0 0 0)
(0 0 0)
(0 0 0)
(0 0 0)
(0 0 0)
(0 0 0)
(0 0 0)
(0 0 0)
(0 0 0)
(0 0 0)
(0 0 0)
(0 0 0)
(0 0 0)
(0 0 0)
(0 0 0)
(0 0 0)
(0 0 0)
(0 0 0)
(0 0 0)
(0 0 0)
(0 0 0)
(0 0 0)
(0 0 0)
(0 0 0)
(0 0 0)
(0 0 0)
(0 0 0)
(0 0 0)
(0 0 0)
(0 0 0)
(0 0 0)
(0 0 0)
(0 0 0)
(0 0 0)
(0 0 0)
(0 0 0)
(0 0 0)
(0 0 0)
(0 0 0)
(0 0 0)
(0 0 0)
(0 0 0)
(0 0 -2.48506e-10)
(0 0 -7.17045e-10)
(0 0 -8.25889e-11)
(0 0 -1.49728e-10)
(0 0 -7.68997e-11)
(0 0 -8.97932e-11)
(0 0 -6.27947e-11)
(0 0 -6.27713e-11)
(0 0 -5.14313e-11)
(0 0 -4.10382e-11)
(0 0 2.92797e-09)
(0 0 2.83461e-09)
(0 0 -2.71076e-10)
(0 0 -3.41632e-10)
(0 0 -3.41894e-10)
(0 0 -2.38626e-09)
(0 0 -4.31244e-09)
(0 0 -1.95318e-09)
(0 0 2.56045e-10)
(0 0 1.8716e-09)
(0 0 3.41805e-09)
(0 0 1.62042e-09)
(0 0 -1.52288e-10)
(0 0 -1.54635e-10)
(0 0 -1.15533e-10)
(0 0 -1.19492e-09)
(0 0 -2.36002e-09)
(0 0 -1.06326e-09)
(0 0 1.82691e-10)
(0 0 1.18901e-09)
(0 0 2.16857e-09)
(0 0 1.0761e-09)
(0 0 -2.46782e-10)
(0 0 -2.81512e-10)
(0 0 -2.0423e-10)
(0 0 -7.87675e-10)
(0 0 -1.317e-09)
(0 0 -5.73142e-10)
(0 0 5.6146e-11)
(0 0 5.03468e-11)
(0 0 4.84773e-10)
(0 0 9.00925e-10)
(0 0 4.19617e-10)
(0 0 -7.69586e-11)
(0 0 -1.7373e-10)
(0 0 -3.03516e-10)
(0 0 -6.52362e-10)
(0 0 -2.56285e-10)
(0 0 -6.52336e-11)
(0 0 2.53976e-10)
(0 0 5.8058e-10)
(0 0 4.03679e-10)
(0 0 -2.45014e-10)
(0 0 -3.79882e-10)
(0 0 -3.77167e-10)
(0 0 -2.19588e-10)
(0 0 6.89784e-10)
(0 0 -1.90913e-10)
(0 0 1.00698e-09)
(0 0 -1.0063e-09)
(0 0 1.32865e-09)
(0 0 -1.26437e-10)
(0 0 7.7224e-10)
(0 0 1.48498e-09)
(0 0 -3.46672e-09)
(0 0 -5.43586e-10)
(0 0 -4.2201e-09)
(0 0 6.07481e-09)
(0 0 6.32571e-10)
(0 0 1.32329e-09)
(0 0 -1.11829e-08)
(0 0 3.15409e-09)
(0 0 1.41317e-09)
(0 0 8.58247e-09)
(0 0 -5.37084e-09)
(0 0 5.85212e-09)
(0 0 -4.77239e-09)
(0 0 8.42561e-09)
(0 0 -5.75145e-09)
(0 0 1.03744e-08)
(0 0 -6.2803e-09)
(0 0 1.27314e-08)
(0 0 -6.86632e-09)
(0 0 1.50987e-08)
(0 0 -7.60032e-09)
(0 0 1.74846e-08)
(0 0 -8.3457e-09)
(0 0 1.9925e-08)
(0 0 -9.03757e-09)
(0 0 2.23957e-08)
(0 0 -9.61947e-09)
(0 0 2.48055e-08)
(0 0 -1.00767e-08)
(0 0 2.70589e-08)
(0 0 -1.04198e-08)
(0 0 2.91191e-08)
(0 0 -1.05884e-08)
(0 0 3.07803e-08)
(0 0 -1.05078e-08)
(0 0 3.22429e-08)
(0 0 -1.01302e-08)
(0 0 3.31885e-08)
(0 0 -9.51504e-09)
(0 0 3.36213e-08)
(0 0 -8.61572e-09)
(0 0 3.34856e-08)
(0 0 -7.45474e-09)
(0 0 3.27346e-08)
(0 0 -6.02465e-09)
(0 0 3.13434e-08)
(0 0 -4.36014e-09)
(0 0 2.93119e-08)
(0 0 -2.47772e-09)
(0 0 2.6565e-08)
(0 0 -3.92144e-10)
(0 0 2.35445e-08)
(0 0 1.22201e-09)
(0 0 2.01021e-08)
(0 0 2.98663e-09)
(0 0 1.68669e-08)
(0 0 4.18924e-09)
(0 0 1.33538e-08)
(0 0 5.40689e-09)
(0 0 9.71578e-09)
(0 0 6.55195e-09)
(0 0 5.96065e-09)
(0 0 7.65474e-09)
(0 0 2.20654e-09)
(0 0 8.64798e-09)
(0 0 -1.59653e-09)
(0 0 9.51042e-09)
(0 0 -5.3475e-09)
(0 0 1.01994e-08)
(0 0 -8.41781e-09)
(0 0 1.16892e-08)
(0 0 -1.02739e-08)
(0 0 1.53531e-08)
(0 0 -2.27274e-08)
(0 0 -9.92017e-10)
(0 0 -2.79188e-08)
(0 0 2.75282e-09)
(0 0 7.88919e-09)
(0 0 7.23888e-08)
(0 0 1.52459e-08)
(0 0 3.28268e-08)
(0 0 -8.35868e-08)
(0 0 -1.22678e-07)
(0 0 -1.02654e-07)
(0 0 -1.5451e-08)
(0 0 8.71261e-08)
(0 0 2.62787e-07)
(0 0 1.17112e-07)
(0 0 4.57419e-08)
(0 0 -2.03675e-07)
(0 0 -3.84436e-07)
(0 0 -2.44953e-07)
(0 0 -3.43712e-08)
(0 0 2.33032e-07)
(0 0 5.79596e-07)
(0 0 2.9e-07)
(0 0 5.14733e-08)
(0 0 -3.75875e-07)
(0 0 -7.59465e-07)
(0 0 -4.38951e-07)
(0 0 -4.80562e-08)
(0 0 4.2907e-07)
(0 0 9.85072e-07)
(0 0 5.07482e-07)
(0 0 5.06167e-08)
(0 0 -5.78604e-07)
(0 0 -1.1948e-06)
(0 0 -6.58971e-07)
(0 0 -5.52616e-08)
(0 0 6.48127e-07)
(0 0 1.4247e-06)
(0 0 7.4162e-07)
(0 0 4.53221e-08)
(0 0 -7.9059e-07)
(0 0 -1.64046e-06)
(0 0 -8.80219e-07)
(0 0 -5.59508e-08)
(0 0 8.64625e-07)
(0 0 1.85862e-06)
(0 0 9.69562e-07)
(0 0 3.60837e-08)
(0 0 -9.92527e-07)
(0 0 -2.05661e-06)
(0 0 -1.08462e-06)
(0 0 -4.81606e-08)
(0 0 1.06431e-06)
(0 0 2.2485e-06)
(0 0 1.16811e-06)
(0 0 2.42482e-08)
(0 0 -1.16768e-06)
(0 0 -2.41282e-06)
(0 0 -1.25844e-06)
(0 0 -3.91159e-08)
(0 0 1.22808e-06)
(0 0 2.57543e-06)
(0 0 1.33762e-06)
(0 0 1.79473e-08)
(0 0 -1.31432e-06)
(0 0 -2.70944e-06)
(0 0 -1.40829e-06)
(0 0 -3.34246e-08)
(0 0 1.36627e-06)
(0 0 2.85311e-06)
(0 0 1.48063e-06)
(0 0 1.25141e-08)
(0 0 -1.44042e-06)
(0 0 -2.96755e-06)
(0 0 -1.54058e-06)
(0 0 -3.0382e-08)
(0 0 1.49015e-06)
(0 0 3.10802e-06)
(0 0 1.61272e-06)
(0 0 1.10186e-08)
(0 0 -1.56379e-06)
(0 0 -3.22153e-06)
(0 0 -1.66947e-06)
(0 0 -3.12569e-08)
(0 0 1.61492e-06)
(0 0 3.37674e-06)
(0 0 1.76171e-06)
(0 0 -6.31843e-08)
(0 0 -5.71151e-07)
(0 0 -4.89341e-07)
(0 0 3.65641e-11)
(0 0 -1.61244e-10)
(0 0 -1.24563e-10)
(0 0 -8.80448e-11)
(0 0 -5.65712e-11)
(0 0 -2.67988e-11)
(0 0 -9.8575e-12)
(0 0 7.33856e-12)
(0 0 1.69032e-11)
(0 0 1.58175e-11)
(0 0 0)
(0 0 0)
(0 0 0)
(0 0 0)
(0 0 0)
(0 0 0)
(0 0 0)
(0 0 0)
(0 0 0)
(0 0 0)
(0 0 0)
(0 0 0)
(0 0 0)
(0 0 0)
(0 0 0)
(0 0 0)
(0 0 0)
(0 0 0)
(0 0 0)
(0 0 0)
(0 0 0)
(0 0 0)
(0 0 0)
(0 0 0)
(0 0 0)
(0 0 0)
(0 0 0)
(0 0 0)
(0 0 0)
(0 0 0)
(0 0 0)
(0 0 0)
(0 0 0)
(0 0 0)
(0 0 0)
(0 0 0)
(0 0 0)
(0 0 0)
(0 0 0)
(0 0 0)
(0 0 0)
(0 0 0)
(0 0 0)
(0 0 0)
(0 0 0)
(0 0 0)
(0 0 0)
(0 0 0)
(0 0 0)
(0 0 0)
(0 0 0)
(0 0 0)
(0 0 0)
(0 0 0)
(0 0 0)
(0 0 0)
(0 0 0)
(0 0 0)
(0 0 0)
(0 0 0)
(0 0 0)
(0 0 0)
(0 0 0)
(0 0 0)
(0 0 -2.48506e-10)
(0 0 -7.17045e-10)
(0 0 -8.25889e-11)
(0 0 -1.49728e-10)
(0 0 -7.68997e-11)
(0 0 -8.97932e-11)
(0 0 -6.27947e-11)
(0 0 -6.27713e-11)
(0 0 -5.14313e-11)
(0 0 -4.10382e-11)
(0 0 2.92797e-09)
(0 0 2.83461e-09)
(0 0 -2.71076e-10)
(0 0 -3.41632e-10)
(0 0 -3.41894e-10)
(0 0 -2.38626e-09)
(0 0 -4.31244e-09)
(0 0 -1.95318e-09)
(0 0 2.56045e-10)
(0 0 1.8716e-09)
(0 0 3.41805e-09)
(0 0 1.62042e-09)
(0 0 -1.52288e-10)
(0 0 -1.54635e-10)
(0 0 -1.15533e-10)
(0 0 -1.19492e-09)
(0 0 -2.36002e-09)
(0 0 -1.06326e-09)
(0 0 1.82691e-10)
(0 0 1.18901e-09)
(0 0 2.16857e-09)
(0 0 1.0761e-09)
(0 0 -2.46782e-10)
(0 0 -2.81512e-10)
(0 0 -2.0423e-10)
(0 0 -7.87675e-10)
(0 0 -1.317e-09)
(0 0 -5.73142e-10)
(0 0 5.6146e-11)
(0 0 5.03468e-11)
(0 0 4.84773e-10)
(0 0 9.00925e-10)
(0 0 4.19617e-10)
(0 0 -7.69586e-11)
(0 0 -1.7373e-10)
(0 0 -3.03516e-10)
(0 0 -6.52362e-10)
(0 0 -2.56285e-10)
(0 0 -6.52336e-11)
(0 0 2.53976e-10)
(0 0 5.8058e-10)
(0 0 4.03679e-10)
(0 0 -2.45014e-10)
(0 0 -3.79882e-10)
(0 0 -3.77167e-10)
(0 0 -2.19588e-10)
(0 0 6.89784e-10)
(0 0 -1.90913e-10)
(0 0 1.00698e-09)
(0 0 -1.0063e-09)
(0 0 1.32865e-09)
(0 0 -1.26437e-10)
(0 0 7.7224e-10)
(0 0 1.48498e-09)
(0 0 -3.46672e-09)
(0 0 -5.43586e-10)
(0 0 -4.2201e-09)
(0 0 6.07481e-09)
(0 0 6.32571e-10)
(0 0 1.32329e-09)
(0 0 -1.11829e-08)
(0 0 3.15409e-09)
(0 0 1.41317e-09)
(0 0 8.58247e-09)
(0 0 -5.37084e-09)
(0 0 5.85212e-09)
(0 0 -4.77239e-09)
(0 0 8.42561e-09)
(0 0 -5.75145e-09)
(0 0 1.03744e-08)
(0 0 -6.2803e-09)
(0 0 1.27314e-08)
(0 0 -6.86632e-09)
(0 0 1.50987e-08)
(0 0 -7.60032e-09)
(0 0 1.74846e-08)
(0 0 -8.3457e-09)
(0 0 1.9925e-08)
(0 0 -9.03757e-09)
(0 0 2.23957e-08)
(0 0 -9.61947e-09)
(0 0 2.48055e-08)
(0 0 -1.00767e-08)
(0 0 2.70589e-08)
(0 0 -1.04198e-08)
(0 0 2.91191e-08)
(0 0 -1.05884e-08)
(0 0 3.07803e-08)
(0 0 -1.05078e-08)
(0 0 3.22429e-08)
(0 0 -1.01302e-08)
(0 0 3.31885e-08)
(0 0 -9.51504e-09)
(0 0 3.36213e-08)
(0 0 -8.61572e-09)
(0 0 3.34856e-08)
(0 0 -7.45474e-09)
(0 0 3.27346e-08)
(0 0 -6.02465e-09)
(0 0 3.13434e-08)
(0 0 -4.36014e-09)
(0 0 2.93119e-08)
(0 0 -2.47772e-09)
(0 0 2.6565e-08)
(0 0 -3.92144e-10)
(0 0 2.35445e-08)
(0 0 1.22201e-09)
(0 0 2.01021e-08)
(0 0 2.98663e-09)
(0 0 1.68669e-08)
(0 0 4.18924e-09)
(0 0 1.33538e-08)
(0 0 5.40689e-09)
(0 0 9.71578e-09)
(0 0 6.55195e-09)
(0 0 5.96065e-09)
(0 0 7.65474e-09)
(0 0 2.20654e-09)
(0 0 8.64798e-09)
(0 0 -1.59653e-09)
(0 0 9.51042e-09)
(0 0 -5.3475e-09)
(0 0 1.01994e-08)
(0 0 -8.41781e-09)
(0 0 1.16892e-08)
(0 0 -1.02739e-08)
(0 0 1.53531e-08)
(0 0 -2.27274e-08)
(0 0 -9.92017e-10)
(0 0 -2.79188e-08)
(0 0 2.75282e-09)
(0 0 7.88919e-09)
(0 0 7.23888e-08)
(0 0 1.52459e-08)
(0 0 3.28268e-08)
(0 0 -8.35868e-08)
(0 0 -1.22678e-07)
(0 0 -1.02654e-07)
(0 0 -1.5451e-08)
(0 0 8.71261e-08)
(0 0 2.62787e-07)
(0 0 1.17112e-07)
(0 0 4.57419e-08)
(0 0 -2.03675e-07)
(0 0 -3.84436e-07)
(0 0 -2.44953e-07)
(0 0 -3.43712e-08)
(0 0 2.33032e-07)
(0 0 5.79596e-07)
(0 0 2.9e-07)
(0 0 5.14733e-08)
(0 0 -3.75875e-07)
(0 0 -7.59465e-07)
(0 0 -4.38951e-07)
(0 0 -4.80562e-08)
(0 0 4.2907e-07)
(0 0 9.85072e-07)
(0 0 5.07482e-07)
(0 0 5.06167e-08)
(0 0 -5.78604e-07)
(0 0 -1.1948e-06)
(0 0 -6.58971e-07)
(0 0 -5.52616e-08)
(0 0 6.48127e-07)
(0 0 1.4247e-06)
(0 0 7.4162e-07)
(0 0 4.53221e-08)
(0 0 -7.9059e-07)
(0 0 -1.64046e-06)
(0 0 -8.80219e-07)
(0 0 -5.59508e-08)
(0 0 8.64625e-07)
(0 0 1.85862e-06)
(0 0 9.69562e-07)
(0 0 3.60837e-08)
(0 0 -9.92527e-07)
(0 0 -2.05661e-06)
(0 0 -1.08462e-06)
(0 0 -4.81606e-08)
(0 0 1.06431e-06)
(0 0 2.2485e-06)
(0 0 1.16811e-06)
(0 0 2.42482e-08)
(0 0 -1.16768e-06)
(0 0 -2.41282e-06)
(0 0 -1.25844e-06)
(0 0 -3.91159e-08)
(0 0 1.22808e-06)
(0 0 2.57543e-06)
(0 0 1.33762e-06)
(0 0 1.79473e-08)
(0 0 -1.31432e-06)
(0 0 -2.70944e-06)
(0 0 -1.40829e-06)
(0 0 -3.34246e-08)
(0 0 1.36627e-06)
(0 0 2.85311e-06)
(0 0 1.48063e-06)
(0 0 1.25141e-08)
(0 0 -1.44042e-06)
(0 0 -2.96755e-06)
(0 0 -1.54058e-06)
(0 0 -3.0382e-08)
(0 0 1.49015e-06)
(0 0 3.10802e-06)
(0 0 1.61272e-06)
(0 0 1.10186e-08)
(0 0 -1.56379e-06)
(0 0 -3.22153e-06)
(0 0 -1.66947e-06)
(0 0 -3.12569e-08)
(0 0 1.61492e-06)
(0 0 3.37674e-06)
(0 0 1.76171e-06)
(0 0 -6.31843e-08)
(0 0 -5.71151e-07)
(0 0 -4.89341e-07)
(0 0 3.65641e-11)
(0 0 -1.61244e-10)
(0 0 -1.24563e-10)
(0 0 -8.80448e-11)
(0 0 -5.65712e-11)
(0 0 -2.67988e-11)
(0 0 -9.8575e-12)
(0 0 7.33856e-12)
(0 0 1.69032e-11)
(0 0 1.58175e-11)
(0 0 0)
(0 0 0)
(0 0 0)
(0 0 0)
(0 0 0)
(0 0 4.02361e-56)
(0 0 -1.91943e-55)
(0 0 8.48106e-55)
(0 0 -3.65858e-54)
(0 0 1.54043e-53)
(0 0 -6.31418e-53)
(0 0 2.50847e-52)
(0 0 -9.58689e-52)
(0 0 3.47895e-51)
(0 0 -1.16879e-50)
(0 0 3.42834e-50)
(0 0 -7.19696e-50)
(0 0 -3.66759e-50)
(0 0 1.70396e-48)
(0 0 -1.40608e-47)
(0 0 8.90617e-47)
(0 0 -5.01411e-46)
(0 0 2.63401e-45)
(0 0 -1.32027e-44)
(0 0 6.39245e-44)
(0 0 -3.01253e-43)
(0 0 1.38887e-42)
(0 0 -6.28615e-42)
(0 0 2.79974e-41)
(0 0 -1.22855e-40)
(0 0 5.31122e-40)
(0 0 -2.25841e-39)
(0 0 9.40895e-39)
(0 0 -3.8136e-38)
(0 0 1.48541e-37)
(0 0 -5.43774e-37)
(0 0 1.78665e-36)
(0 0 -4.63373e-36)
(0 0 3.87751e-36)
(0 0 6.35267e-35)
(0 0 -6.51331e-34)
(0 0 4.4641e-33)
(0 0 -2.5877e-32)
(0 0 1.34673e-31)
(0 0 -6.41389e-31)
(0 0 2.79563e-30)
(0 0 -1.09183e-29)
(0 0 3.52293e-29)
(0 0 -5.62418e-29)
(0 0 -5.5005e-28)
(0 0 9.90523e-27)
(0 0 -1.24802e-25)
(0 0 1.50827e-24)
(0 0 -1.83805e-23)
(0 0 2.26576e-22)
(0 0 -2.81338e-21)
(0 0 3.50804e-20)
(0 0 -4.38629e-19)
(0 0 5.49659e-18)
(0 0 -6.90204e-17)
(0 0 8.68404e-16)
(0 0 -1.09477e-14)
(0 0 1.38232e-13)
(0 0 -1.75903e-12)
(0 0 -2.50578e-10)
(0 0 -7.09225e-10)
(0 0 -8.79049e-11)
(0 0 -1.48111e-10)
(0 0 -7.74197e-11)
(0 0 -8.93123e-11)
(0 0 -6.28874e-11)
(0 0 -6.24353e-11)
(0 0 -5.28971e-11)
(0 0 -2.23265e-11)
(0 0 2.90368e-09)
(0 0 2.81218e-09)
(0 0 -2.50629e-10)
(0 0 -3.40963e-10)
(0 0 -3.51837e-10)
(0 0 -2.38133e-09)
(0 0 -4.27925e-09)
(0 0 -1.95373e-09)
(0 0 2.50531e-10)
(0 0 1.86904e-09)
(0 0 3.39226e-09)
(0 0 1.61929e-09)
(0 0 -1.41404e-10)
(0 0 -1.5433e-10)
(0 0 -1.21056e-10)
(0 0 -1.19343e-09)
(0 0 -2.34106e-09)
(0 0 -1.0635e-09)
(0 0 1.80017e-10)
(0 0 1.18739e-09)
(0 0 2.1526e-09)
(0 0 1.0737e-09)
(0 0 -2.3843e-10)
(0 0 -2.80564e-10)
(0 0 -2.07371e-10)
(0 0 -7.8598e-10)
(0 0 -1.30717e-09)
(0 0 -5.73355e-10)
(0 0 5.19233e-11)
(0 0 5.28813e-11)
(0 0 4.83814e-10)
(0 0 8.94071e-10)
(0 0 4.19191e-10)
(0 0 -7.42965e-11)
(0 0 -1.73468e-10)
(0 0 -3.04533e-10)
(0 0 -6.46496e-10)
(0 0 -2.57665e-10)
(0 0 -6.444e-11)
(0 0 2.53489e-10)
(0 0 5.76794e-10)
(0 0 4.00297e-10)
(0 0 -2.41049e-10)
(0 0 -3.78622e-10)
(0 0 -3.76112e-10)
(0 0 -2.13952e-10)
(0 0 6.75953e-10)
(0 0 -1.75077e-10)
(0 0 9.82091e-10)
(0 0 -9.74024e-10)
(0 0 1.29912e-09)
(0 0 -1.09959e-10)
(0 0 7.71726e-10)
(0 0 1.44512e-09)
(0 0 -3.4056e-09)
(0 0 -5.94494e-10)
(0 0 -4.11719e-09)
(0 0 5.95196e-09)
(0 0 6.88936e-10)
(0 0 1.22721e-09)
(0 0 -1.09839e-08)
(0 0 3.02513e-09)
(0 0 1.48698e-09)
(0 0 8.42119e-09)
(0 0 -5.18386e-09)
(0 0 5.67927e-09)
(0 0 -4.59011e-09)
(0 0 8.2124e-09)
(0 0 -5.52202e-09)
(0 0 1.01177e-08)
(0 0 -6.0108e-09)
(0 0 1.24284e-08)
(0 0 -6.55298e-09)
(0 0 1.47474e-08)
(0 0 -7.24063e-09)
(0 0 1.70837e-08)
(0 0 -7.93889e-09)
(0 0 1.94739e-08)
(0 0 -8.58388e-09)
(0 0 2.1895e-08)
(0 0 -9.12086e-09)
(0 0 2.4258e-08)
(0 0 -9.53672e-09)
(0 0 2.64688e-08)
(0 0 -9.8429e-09)
(0 0 2.84918e-08)
(0 0 -9.9817e-09)
(0 0 3.01252e-08)
(0 0 -9.87961e-09)
(0 0 3.15674e-08)
(0 0 -9.49055e-09)
(0 0 3.25047e-08)
(0 0 -8.87528e-09)
(0 0 3.29414e-08)
(0 0 -7.98829e-09)
(0 0 3.28229e-08)
(0 0 -6.85253e-09)
(0 0 3.21028e-08)
(0 0 -5.46113e-09)
(0 0 3.07567e-08)
(0 0 -3.84847e-09)
(0 0 2.87841e-08)
(0 0 -2.03129e-09)
(0 0 2.61104e-08)
(0 0 -2.1203e-11)
(0 0 2.31661e-08)
(0 0 1.51941e-09)
(0 0 1.98038e-08)
(0 0 3.20705e-09)
(0 0 1.66432e-08)
(0 0 4.34072e-09)
(0 0 1.32049e-08)
(0 0 5.48661e-09)
(0 0 9.64331e-09)
(0 0 6.55927e-09)
(0 0 5.96561e-09)
(0 0 7.58954e-09)
(0 0 2.28793e-09)
(0 0 8.51169e-09)
(0 0 -1.43974e-09)
(0 0 9.30521e-09)
(0 0 -5.11858e-09)
(0 0 9.93277e-09)
(0 0 -8.12343e-09)
(0 0 1.13603e-08)
(0 0 -9.90566e-09)
(0 0 1.48781e-08)
(0 0 -2.22548e-08)
(0 0 -1.35056e-09)
(0 0 -2.74746e-08)
(0 0 2.50585e-09)
(0 0 8.3052e-09)
(0 0 7.14321e-08)
(0 0 1.58264e-08)
(0 0 3.19083e-08)
(0 0 -8.28821e-08)
(0 0 -1.22174e-07)
(0 0 -1.0212e-07)
(0 0 -1.54998e-08)
(0 0 8.75146e-08)
(0 0 2.60266e-07)
(0 0 1.17682e-07)
(0 0 4.46353e-08)
(0 0 -2.0285e-07)
(0 0 -3.81877e-07)
(0 0 -2.44361e-07)
(0 0 -3.42641e-08)
(0 0 2.3325e-07)
(0 0 5.74615e-07)
(0 0 2.90369e-07)
(0 0 5.04656e-08)
(0 0 -3.74989e-07)
(0 0 -7.539e-07)
(0 0 -4.38327e-07)
(0 0 -4.79098e-08)
(0 0 4.29014e-07)
(0 0 9.76989e-07)
(0 0 5.07581e-07)
(0 0 4.99223e-08)
(0 0 -5.7767e-07)
(0 0 -1.18573e-06)
(0 0 -6.58323e-07)
(0 0 -5.51983e-08)
(0 0 6.47738e-07)
(0 0 1.41329e-06)
(0 0 7.41413e-07)
(0 0 4.50552e-08)
(0 0 -7.89582e-07)
(0 0 -1.62783e-06)
(0 0 -8.79554e-07)
(0 0 -5.60865e-08)
(0 0 8.63955e-07)
(0 0 1.84392e-06)
(0 0 9.6907e-07)
(0 0 3.63095e-08)
(0 0 -9.91429e-07)
(0 0 -2.04066e-06)
(0 0 -1.08391e-06)
(0 0 -4.8598e-08)
(0 0 1.06338e-06)
(0 0 2.23082e-06)
(0 0 1.16742e-06)
(0 0 2.49543e-08)
(0 0 -1.1665e-06)
(0 0 -2.39405e-06)
(0 0 -1.25769e-06)
(0 0 -3.9884e-08)
(0 0 1.227e-06)
(0 0 2.55526e-06)
(0 0 1.33676e-06)
(0 0 1.90232e-08)
(0 0 -1.31303e-06)
(0 0 -2.68836e-06)
(0 0 -1.40743e-06)
(0 0 -3.44691e-08)
(0 0 1.36507e-06)
(0 0 2.8308e-06)
(0 0 1.47963e-06)
(0 0 1.38909e-08)
(0 0 -1.43905e-06)
(0 0 -2.94445e-06)
(0 0 -1.53963e-06)
(0 0 -3.1636e-08)
(0 0 1.48886e-06)
(0 0 3.08372e-06)
(0 0 1.61161e-06)
(0 0 1.25844e-08)
(0 0 -1.56233e-06)
(0 0 -3.19644e-06)
(0 0 -1.66846e-06)
(0 0 -3.26407e-08)
(0 0 1.61357e-06)
(0 0 3.35047e-06)
(0 0 1.75935e-06)
(0 0 -5.42163e-08)
(0 0 -5.6718e-07)
(0 0 -4.86337e-07)
(0 0 -3.28105e-09)
(0 0 1.13301e-10)
(0 0 -1.40724e-10)
(0 0 -8.83412e-11)
(0 0 -5.61574e-11)
(0 0 -2.68948e-11)
(0 0 -9.82845e-12)
(0 0 7.27628e-12)
(0 0 1.68151e-11)
(0 0 1.5725e-11)
(0 0 1.34692e-13)
(0 0 -1.05969e-14)
(0 0 8.34634e-16)
(0 0 0)
(0 0 0)
(0 0 -1.28519e-56)
(0 0 6.02763e-56)
(0 0 -2.44295e-55)
(0 0 9.51678e-55)
(0 0 -3.53717e-54)
(0 0 1.22927e-53)
(0 0 -3.82335e-53)
(0 0 9.37462e-53)
(0 0 -7.23092e-53)
(0 0 -1.19446e-51)
(0 0 1.18041e-50)
(0 0 -7.95055e-50)
(0 0 4.62367e-49)
(0 0 -2.47789e-48)
(0 0 1.25764e-47)
(0 0 -6.13058e-47)
(0 0 2.89357e-46)
(0 0 -1.32913e-45)
(0 0 5.96198e-45)
(0 0 -2.61784e-44)
(0 0 1.12715e-43)
(0 0 -4.76455e-43)
(0 0 1.97835e-42)
(0 0 -8.06613e-42)
(0 0 3.22295e-41)
(0 0 -1.25599e-40)
(0 0 4.72616e-40)
(0 0 -1.68202e-39)
(0 0 5.40343e-39)
(0 0 -1.36438e-38)
(0 0 8.60239e-39)
(0 0 2.20395e-37)
(0 0 -2.23573e-36)
(0 0 1.58135e-35)
(0 0 -9.63186e-35)
(0 0 5.3473e-34)
(0 0 -2.76318e-33)
(0 0 1.33897e-32)
(0 0 -6.08726e-32)
(0 0 2.58581e-31)
(0 0 -1.02065e-30)
(0 0 3.76903e-30)
(0 0 -1.41769e-29)
(0 0 7.42399e-29)
(0 0 -6.96947e-28)
(0 0 8.7061e-27)
(0 0 -1.12606e-25)
(0 0 1.43339e-24)
(0 0 -1.8009e-23)
(0 0 2.24986e-22)
(0 0 -2.80732e-21)
(0 0 3.50584e-20)
(0 0 -4.38537e-19)
(0 0 5.49606e-18)
(0 0 -6.90168e-17)
(0 0 8.68383e-16)
(0 0 -1.09476e-14)
(0 0 1.38232e-13)
(0 0 -1.75903e-12)
(0 0 -2.50578e-10)
(0 0 -7.09225e-10)
(0 0 -8.79049e-11)
(0 0 -1.48111e-10)
(0 0 -7.74194e-11)
(0 0 -8.93136e-11)
(0 0 -6.28793e-11)
(0 0 -6.24727e-11)
(0 0 -5.28007e-11)
(0 0 -2.24201e-11)
(0 0 2.90299e-09)
(0 0 2.81179e-09)
(0 0 -2.50534e-10)
(0 0 -3.41553e-10)
(0 0 -3.52678e-10)
(0 0 -2.381e-09)
(0 0 -4.27825e-09)
(0 0 -1.95287e-09)
(0 0 2.51071e-10)
(0 0 1.86869e-09)
(0 0 3.39146e-09)
(0 0 1.61905e-09)
(0 0 -1.41285e-10)
(0 0 -1.54639e-10)
(0 0 -1.21525e-10)
(0 0 -1.19325e-09)
(0 0 -2.34052e-09)
(0 0 -1.063e-09)
(0 0 1.80353e-10)
(0 0 1.18719e-09)
(0 0 2.15212e-09)
(0 0 1.07355e-09)
(0 0 -2.38361e-10)
(0 0 -2.80736e-10)
(0 0 -2.07634e-10)
(0 0 -7.85855e-10)
(0 0 -1.30688e-09)
(0 0 -5.7326e-10)
(0 0 5.20336e-11)
(0 0 5.30408e-11)
(0 0 4.83723e-10)
(0 0 8.93862e-10)
(0 0 4.19128e-10)
(0 0 -7.43457e-11)
(0 0 -1.73564e-10)
(0 0 -3.04497e-10)
(0 0 -6.46378e-10)
(0 0 -2.57557e-10)
(0 0 -6.4319e-11)
(0 0 2.53482e-10)
(0 0 5.76647e-10)
(0 0 4.00179e-10)
(0 0 -2.41087e-10)
(0 0 -3.78583e-10)
(0 0 -3.76024e-10)
(0 0 -2.1389e-10)
(0 0 6.75935e-10)
(0 0 -1.7513e-10)
(0 0 9.82083e-10)
(0 0 -9.74055e-10)
(0 0 1.2992e-09)
(0 0 -1.10016e-10)
(0 0 7.70974e-10)
(0 0 1.44491e-09)
(0 0 -3.4051e-09)
(0 0 -5.93871e-10)
(0 0 -4.11542e-09)
(0 0 5.95261e-09)
(0 0 6.86689e-10)
(0 0 1.22586e-09)
(0 0 -1.09824e-08)
(0 0 3.02597e-09)
(0 0 1.48533e-09)
(0 0 8.42019e-09)
(0 0 -5.18303e-09)
(0 0 5.67991e-09)
(0 0 -4.59018e-09)
(0 0 8.21229e-09)
(0 0 -5.52202e-09)
(0 0 1.01177e-08)
(0 0 -6.0108e-09)
(0 0 1.24284e-08)
(0 0 -6.55298e-09)
(0 0 1.47474e-08)
(0 0 -7.24063e-09)
(0 0 1.70837e-08)
(0 0 -7.93889e-09)
(0 0 1.94739e-08)
(0 0 -8.58388e-09)
(0 0 2.1895e-08)
(0 0 -9.12086e-09)
(0 0 2.4258e-08)
(0 0 -9.53672e-09)
(0 0 2.64688e-08)
(0 0 -9.8429e-09)
(0 0 2.84918e-08)
(0 0 -9.9817e-09)
(0 0 3.01252e-08)
(0 0 -9.87961e-09)
(0 0 3.15674e-08)
(0 0 -9.49055e-09)
(0 0 3.25047e-08)
(0 0 -8.87528e-09)
(0 0 3.29414e-08)
(0 0 -7.98829e-09)
(0 0 3.28229e-08)
(0 0 -6.85253e-09)
(0 0 3.21028e-08)
(0 0 -5.46113e-09)
(0 0 3.07567e-08)
(0 0 -3.84847e-09)
(0 0 2.87841e-08)
(0 0 -2.03129e-09)
(0 0 2.61104e-08)
(0 0 -2.12026e-11)
(0 0 2.31661e-08)
(0 0 1.51941e-09)
(0 0 1.98038e-08)
(0 0 3.20705e-09)
(0 0 1.66432e-08)
(0 0 4.34072e-09)
(0 0 1.32049e-08)
(0 0 5.48661e-09)
(0 0 9.64331e-09)
(0 0 6.55927e-09)
(0 0 5.96561e-09)
(0 0 7.58954e-09)
(0 0 2.28793e-09)
(0 0 8.51169e-09)
(0 0 -1.43974e-09)
(0 0 9.30521e-09)
(0 0 -5.11857e-09)
(0 0 9.93272e-09)
(0 0 -8.12331e-09)
(0 0 1.13603e-08)
(0 0 -9.90711e-09)
(0 0 1.48773e-08)
(0 0 -2.22542e-08)
(0 0 -1.34924e-09)
(0 0 -2.74673e-08)
(0 0 2.51273e-09)
(0 0 8.30199e-09)
(0 0 7.14233e-08)
(0 0 1.58064e-08)
(0 0 3.189e-08)
(0 0 -8.28739e-08)
(0 0 -1.22151e-07)
(0 0 -1.0208e-07)
(0 0 -1.54639e-08)
(0 0 8.74991e-08)
(0 0 2.60221e-07)
(0 0 1.17614e-07)
(0 0 4.45775e-08)
(0 0 -2.02824e-07)
(0 0 -3.81803e-07)
(0 0 -2.44259e-07)
(0 0 -3.41778e-08)
(0 0 2.33212e-07)
(0 0 5.74504e-07)
(0 0 2.90226e-07)
(0 0 5.035e-08)
(0 0 -3.74936e-07)
(0 0 -7.5375e-07)
(0 0 -4.38139e-07)
(0 0 -4.77584e-08)
(0 0 4.28946e-07)
(0 0 9.76792e-07)
(0 0 5.07345e-07)
(0 0 4.97386e-08)
(0 0 -5.77584e-07)
(0 0 -1.18549e-06)
(0 0 -6.58039e-07)
(0 0 -5.49761e-08)
(0 0 6.47636e-07)
(0 0 1.413e-06)
(0 0 7.4108e-07)
(0 0 4.48018e-08)
(0 0 -7.89461e-07)
(0 0 -1.62749e-06)
(0 0 -8.79173e-07)
(0 0 -5.57945e-08)
(0 0 8.63817e-07)
(0 0 1.84353e-06)
(0 0 9.68642e-07)
(0 0 3.5991e-08)
(0 0 -9.91273e-07)
(0 0 -2.04024e-06)
(0 0 -1.08344e-06)
(0 0 -4.8244e-08)
(0 0 1.06321e-06)
(0 0 2.23035e-06)
(0 0 1.16691e-06)
(0 0 2.45792e-08)
(0 0 -1.16631e-06)
(0 0 -2.39355e-06)
(0 0 -1.25714e-06)
(0 0 -3.94775e-08)
(0 0 1.2268e-06)
(0 0 2.55471e-06)
(0 0 1.33617e-06)
(0 0 1.86011e-08)
(0 0 -1.31282e-06)
(0 0 -2.68779e-06)
(0 0 -1.40683e-06)
(0 0 -3.40184e-08)
(0 0 1.36485e-06)
(0 0 2.83019e-06)
(0 0 1.47899e-06)
(0 0 1.3428e-08)
(0 0 -1.43882e-06)
(0 0 -2.94383e-06)
(0 0 -1.53896e-06)
(0 0 -3.1145e-08)
(0 0 1.48862e-06)
(0 0 3.08306e-06)
(0 0 1.61091e-06)
(0 0 1.20817e-08)
(0 0 -1.56208e-06)
(0 0 -3.19576e-06)
(0 0 -1.66774e-06)
(0 0 -3.21084e-08)
(0 0 1.61332e-06)
(0 0 3.34973e-06)
(0 0 1.75863e-06)
(0 0 -5.47304e-08)
(0 0 -5.6725e-07)
(0 0 -4.86207e-07)
(0 0 -3.23574e-09)
(0 0 1.02458e-10)
(0 0 -1.44522e-10)
(0 0 -8.65994e-11)
(0 0 -5.64979e-11)
(0 0 -2.68598e-11)
(0 0 -9.82718e-12)
(0 0 7.27477e-12)
(0 0 1.68155e-11)
(0 0 1.5725e-11)
(0 0 1.34711e-13)
(0 0 -1.06012e-14)
(0 0 8.35763e-16)
(0 0 0)
(0 0 0)
(0 0 2.92742e-55)
(0 0 -1.33491e-54)
(0 0 5.58893e-54)
(0 0 -2.26643e-53)
(0 0 8.85601e-53)
(0 0 -3.29747e-52)
(0 0 1.14543e-51)
(0 0 -3.54226e-51)
(0 0 8.47466e-51)
(0 0 -4.45413e-51)
(0 0 -1.28137e-49)
(0 0 1.21211e-48)
(0 0 -8.10727e-48)
(0 0 4.72294e-47)
(0 0 -2.54571e-46)
(0 0 1.30302e-45)
(0 0 -6.41977e-45)
(0 0 3.06867e-44)
(0 0 -1.43025e-43)
(0 0 6.52127e-43)
(0 0 -2.91518e-42)
(0 0 1.27942e-41)
(0 0 -5.51656e-41)
(0 0 2.33662e-40)
(0 0 -9.71185e-40)
(0 0 3.95106e-39)
(0 0 -1.56587e-38)
(0 0 5.9939e-38)
(0 0 -2.18135e-37)
(0 0 7.31081e-37)
(0 0 -2.08509e-36)
(0 0 3.66418e-36)
(0 0 1.01541e-35)
(0 0 -1.66589e-34)
(0 0 1.27858e-33)
(0 0 -7.95424e-33)
(0 0 4.43146e-32)
(0 0 -2.28887e-31)
(0 0 1.1119e-30)
(0 0 -5.10663e-30)
(0 0 2.21447e-29)
(0 0 -8.97405e-29)
(0 0 3.28502e-28)
(0 0 -9.49714e-28)
(0 0 2.94343e-28)
(0 0 3.35003e-26)
(0 0 -5.02953e-25)
(0 0 6.16286e-24)
(0 0 -7.28301e-23)
(0 0 8.58942e-22)
(0 0 -1.01692e-20)
(0 0 1.20803e-19)
(0 0 -1.43805e-18)
(0 0 1.71378e-17)
(0 0 -2.04349e-16)
(0 0 2.4371e-15)
(0 0 -2.90657e-14)
(0 0 3.46454e-13)
(0 0 -4.16118e-12)
(0 0 -2.49894e-10)
(0 0 -6.86816e-10)
(0 0 -9.41035e-11)
(0 0 -1.43611e-10)
(0 0 -7.70803e-11)
(0 0 -8.73225e-11)
(0 0 -6.21685e-11)
(0 0 -6.09457e-11)
(0 0 -5.44346e-11)
(0 0 1.49191e-12)
(0 0 2.82824e-09)
(0 0 2.74093e-09)
(0 0 -2.24604e-10)
(0 0 -3.38391e-10)
(0 0 -3.57218e-10)
(0 0 -2.34105e-09)
(0 0 -4.1726e-09)
(0 0 -1.92235e-09)
(0 0 2.39306e-10)
(0 0 1.83921e-09)
(0 0 3.31055e-09)
(0 0 1.5932e-09)
(0 0 -1.28036e-10)
(0 0 -1.53309e-10)
(0 0 -1.25152e-10)
(0 0 -1.17472e-09)
(0 0 -2.28162e-09)
(0 0 -1.0463e-09)
(0 0 1.7364e-10)
(0 0 1.16847e-09)
(0 0 2.10134e-09)
(0 0 1.05415e-09)
(0 0 -2.25642e-10)
(0 0 -2.76137e-10)
(0 0 -2.07721e-10)
(0 0 -7.72681e-10)
(0 0 -1.27593e-09)
(0 0 -5.64107e-10)
(0 0 4.66026e-11)
(0 0 5.49152e-11)
(0 0 4.75755e-10)
(0 0 8.7254e-10)
(0 0 4.11759e-10)
(0 0 -7.04788e-11)
(0 0 -1.70206e-10)
(0 0 -3.01716e-10)
(0 0 -6.29245e-10)
(0 0 -2.55233e-10)
(0 0 -6.22599e-11)
(0 0 2.48864e-10)
(0 0 5.63761e-10)
(0 0 3.895e-10)
(0 0 -2.32355e-10)
(0 0 -3.71445e-10)
(0 0 -3.69456e-10)
(0 0 -2.02612e-10)
(0 0 6.46468e-10)
(0 0 -1.49157e-10)
(0 0 9.31764e-10)
(0 0 -9.13377e-10)
(0 0 1.23811e-09)
(0 0 -8.82181e-11)
(0 0 7.60935e-10)
(0 0 1.37071e-09)
(0 0 -3.27289e-09)
(0 0 -6.5329e-10)
(0 0 -3.90567e-09)
(0 0 5.67763e-09)
(0 0 7.70886e-10)
(0 0 1.07711e-09)
(0 0 -1.05519e-08)
(0 0 2.78505e-09)
(0 0 1.58333e-09)
(0 0 8.07355e-09)
(0 0 -4.84673e-09)
(0 0 5.34574e-09)
(0 0 -4.25485e-09)
(0 0 7.78583e-09)
(0 0 -5.10913e-09)
(0 0 9.601e-09)
(0 0 -5.53214e-09)
(0 0 1.18116e-08)
(0 0 -6.00255e-09)
(0 0 1.40278e-08)
(0 0 -6.61273e-09)
(0 0 1.62588e-08)
(0 0 -7.23226e-09)
(0 0 1.85421e-08)
(0 0 -7.79961e-09)
(0 0 2.08571e-08)
(0 0 -8.26335e-09)
(0 0 2.31186e-08)
(0 0 -8.61289e-09)
(0 0 2.52363e-08)
(0 0 -8.86077e-09)
(0 0 2.71766e-08)
(0 0 -8.95399e-09)
(0 0 2.87465e-08)
(0 0 -8.822e-09)
(0 0 3.01387e-08)
(0 0 -8.42157e-09)
(0 0 3.10509e-08)
(0 0 -7.81481e-09)
(0 0 3.14873e-08)
(0 0 -6.95831e-09)
(0 0 3.13955e-08)
(0 0 -5.87534e-09)
(0 0 3.07309e-08)
(0 0 -4.56004e-09)
(0 0 2.94695e-08)
(0 0 -3.04582e-09)
(0 0 2.76104e-08)
(0 0 -1.3495e-09)
(0 0 2.50812e-08)
(0 0 5.22124e-10)
(0 0 2.22895e-08)
(0 0 1.93355e-09)
(0 0 1.90915e-08)
(0 0 3.4851e-09)
(0 0 1.60842e-08)
(0 0 4.50196e-09)
(0 0 1.28032e-08)
(0 0 5.52686e-09)
(0 0 9.40321e-09)
(0 0 6.4786e-09)
(0 0 5.89017e-09)
(0 0 7.38836e-09)
(0 0 2.37567e-09)
(0 0 8.19359e-09)
(0 0 -1.18963e-09)
(0 0 8.8752e-09)
(0 0 -4.71169e-09)
(0 0 9.40419e-09)
(0 0 -7.57846e-09)
(0 0 1.07138e-08)
(0 0 -9.22901e-09)
(0 0 1.39839e-08)
(0 0 -2.12591e-08)
(0 0 -1.83009e-09)
(0 0 -2.64142e-08)
(0 0 2.07172e-09)
(0 0 8.81272e-09)
(0 0 6.89998e-08)
(0 0 1.6368e-08)
(0 0 3.01899e-08)
(0 0 -8.07146e-08)
(0 0 -1.19698e-07)
(0 0 -9.9723e-08)
(0 0 -1.54613e-08)
(0 0 8.68824e-08)
(0 0 2.52933e-07)
(0 0 1.16549e-07)
(0 0 4.25266e-08)
(0 0 -1.98836e-07)
(0 0 -3.72816e-07)
(0 0 -2.39583e-07)
(0 0 -3.37979e-08)
(0 0 2.30334e-07)
(0 0 5.59373e-07)
(0 0 2.86159e-07)
(0 0 4.84691e-08)
(0 0 -3.68484e-07)
(0 0 -7.35349e-07)
(0 0 -4.30366e-07)
(0 0 -4.72417e-08)
(0 0 4.2296e-07)
(0 0 9.51719e-07)
(0 0 4.99481e-07)
(0 0 4.84214e-08)
(0 0 -5.6827e-07)
(0 0 -1.15618e-06)
(0 0 -6.46769e-07)
(0 0 -5.45763e-08)
(0 0 6.38142e-07)
(0 0 1.37722e-06)
(0 0 7.29111e-07)
(0 0 4.42577e-08)
(0 0 -7.77115e-07)
(0 0 -1.58703e-06)
(0 0 -8.64397e-07)
(0 0 -5.57584e-08)
(0 0 8.50931e-07)
(0 0 1.79718e-06)
(0 0 9.52701e-07)
(0 0 3.63563e-08)
(0 0 -9.76025e-07)
(0 0 -1.98941e-06)
(0 0 -1.06538e-06)
(0 0 -4.88149e-08)
(0 0 1.04719e-06)
(0 0 2.17448e-06)
(0 0 1.14758e-06)
(0 0 2.58483e-08)
(0 0 -1.14853e-06)
(0 0 -2.33386e-06)
(0 0 -1.23627e-06)
(0 0 -4.06945e-08)
(0 0 1.20831e-06)
(0 0 2.49086e-06)
(0 0 1.31394e-06)
(0 0 2.05283e-08)
(0 0 -1.29287e-06)
(0 0 -2.6208e-06)
(0 0 -1.38346e-06)
(0 0 -3.57538e-08)
(0 0 1.34427e-06)
(0 0 2.75954e-06)
(0 0 1.45432e-06)
(0 0 1.58962e-08)
(0 0 -1.41701e-06)
(0 0 -2.87047e-06)
(0 0 -1.51338e-06)
(0 0 -3.32652e-08)
(0 0 1.4662e-06)
(0 0 3.00613e-06)
(0 0 1.58401e-06)
(0 0 1.48874e-08)
(0 0 -1.53843e-06)
(0 0 -3.1161e-06)
(0 0 -1.64004e-06)
(0 0 -3.44447e-08)
(0 0 1.58905e-06)
(0 0 3.26636e-06)
(0 0 1.7278e-06)
(0 0 -4.211e-08)
(0 0 -5.55255e-07)
(0 0 -4.77162e-07)
(0 0 -7.68895e-09)
(0 0 6.60331e-10)
(0 0 -2.06922e-10)
(0 0 -7.93015e-11)
(0 0 -5.6043e-11)
(0 0 -2.64566e-11)
(0 0 -9.68037e-12)
(0 0 7.09557e-12)
(0 0 1.64541e-11)
(0 0 1.53667e-11)
(0 0 3.20293e-13)
(0 0 -2.66789e-14)
(0 0 2.22178e-15)
(0 0 0)
(0 0 0)
(0 0 -1.2737e-55)
(0 0 5.7083e-55)
(0 0 -2.19411e-54)
(0 0 7.9258e-54)
(0 0 -2.61553e-53)
(0 0 7.26869e-53)
(0 0 -1.19793e-52)
(0 0 -3.91531e-52)
(0 0 5.83566e-51)
(0 0 -4.36358e-50)
(0 0 2.68407e-49)
(0 0 -1.49708e-48)
(0 0 7.85365e-48)
(0 0 -3.94389e-47)
(0 0 1.91445e-46)
(0 0 -9.03613e-46)
(0 0 4.16255e-45)
(0 0 -1.87598e-44)
(0 0 8.28439e-44)
(0 0 -3.58801e-43)
(0 0 1.5246e-42)
(0 0 -6.35402e-42)
(0 0 2.59455e-41)
(0 0 -1.03558e-40)
(0 0 4.0224e-40)
(0 0 -1.50792e-39)
(0 0 5.36958e-39)
(0 0 -1.75573e-38)
(0 0 4.82211e-38)
(0 0 -7.35926e-38)
(0 0 -3.3432e-37)
(0 0 4.56117e-36)
(0 0 -3.42884e-35)
(0 0 2.1427e-34)
(0 0 -1.21274e-33)
(0 0 6.41062e-33)
(0 0 -3.206e-32)
(0 0 1.52481e-31)
(0 0 -6.90525e-31)
(0 0 2.97457e-30)
(0 0 -1.2175e-29)
(0 0 4.75717e-29)
(0 0 -1.83185e-28)
(0 0 7.83312e-28)
(0 0 -4.71798e-27)
(0 0 4.32346e-26)
(0 0 -4.8989e-25)
(0 0 5.85612e-24)
(0 0 -7.03809e-23)
(0 0 8.4347e-22)
(0 0 -1.0083e-20)
(0 0 1.2037e-19)
(0 0 -1.43612e-18)
(0 0 1.71305e-17)
(0 0 -2.04328e-16)
(0 0 2.43708e-15)
(0 0 -2.90659e-14)
(0 0 3.46455e-13)
(0 0 -4.16118e-12)
(0 0 -2.49894e-10)
(0 0 -6.86816e-10)
(0 0 -9.41033e-11)
(0 0 -1.43612e-10)
(0 0 -7.70767e-11)
(0 0 -8.73323e-11)
(0 0 -6.21603e-11)
(0 0 -6.08366e-11)
(0 0 -5.5238e-11)
(0 0 3.25942e-12)
(0 0 2.82958e-09)
(0 0 2.74013e-09)
(0 0 -2.22548e-10)
(0 0 -3.35384e-10)
(0 0 -3.57382e-10)
(0 0 -2.34207e-09)
(0 0 -4.17304e-09)
(0 0 -1.9256e-09)
(0 0 2.38349e-10)
(0 0 1.84045e-09)
(0 0 3.31047e-09)
(0 0 1.59355e-09)
(0 0 -1.26814e-10)
(0 0 -1.5171e-10)
(0 0 -1.25249e-10)
(0 0 -1.17527e-09)
(0 0 -2.28188e-09)
(0 0 -1.04819e-09)
(0 0 1.73103e-10)
(0 0 1.16922e-09)
(0 0 2.10128e-09)
(0 0 1.05436e-09)
(0 0 -2.24894e-10)
(0 0 -2.75246e-10)
(0 0 -2.07814e-10)
(0 0 -7.73138e-10)
(0 0 -1.27572e-09)
(0 0 -5.64592e-10)
(0 0 4.56652e-11)
(0 0 5.49988e-11)
(0 0 4.76076e-10)
(0 0 8.7242e-10)
(0 0 4.1205e-10)
(0 0 -6.9905e-11)
(0 0 -1.702e-10)
(0 0 -3.01889e-10)
(0 0 -6.29211e-10)
(0 0 -2.55724e-10)
(0 0 -6.25707e-11)
(0 0 2.49126e-10)
(0 0 5.63807e-10)
(0 0 3.89739e-10)
(0 0 -2.32144e-10)
(0 0 -3.71555e-10)
(0 0 -3.69593e-10)
(0 0 -2.02682e-10)
(0 0 6.46477e-10)
(0 0 -1.4918e-10)
(0 0 9.31829e-10)
(0 0 -9.13237e-10)
(0 0 1.23734e-09)
(0 0 -8.65973e-11)
(0 0 7.62822e-10)
(0 0 1.36861e-09)
(0 0 -3.27101e-09)
(0 0 -6.56947e-10)
(0 0 -3.91209e-09)
(0 0 5.68298e-09)
(0 0 7.73141e-10)
(0 0 1.07375e-09)
(0 0 -1.05522e-08)
(0 0 2.78917e-09)
(0 0 1.58459e-09)
(0 0 8.07126e-09)
(0 0 -4.84525e-09)
(0 0 5.34596e-09)
(0 0 -4.2562e-09)
(0 0 7.78583e-09)
(0 0 -5.10907e-09)
(0 0 9.60099e-09)
(0 0 -5.53214e-09)
(0 0 1.18116e-08)
(0 0 -6.00254e-09)
(0 0 1.40278e-08)
(0 0 -6.61272e-09)
(0 0 1.62588e-08)
(0 0 -7.23225e-09)
(0 0 1.85421e-08)
(0 0 -7.79961e-09)
(0 0 2.08571e-08)
(0 0 -8.26335e-09)
(0 0 2.31186e-08)
(0 0 -8.61288e-09)
(0 0 2.52363e-08)