/*--------------------------------*- C++ -*----------------------------------*\
| =========                 |                                                 |
| \\      /  F ield         | foam-extend: Open Source CFD                    |
|  \\    /   O peration     | Version:     3.2                                |
|   \\  /    A nd           | Web:         http://www.foam-extend.org         |
|    \\/     M anipulation  | For copyright notice see file Copyright         |
\*---------------------------------------------------------------------------*/
FoamFile
{
    version     2.0;
    format      ascii;
    class       pointVectorField;
    location    "2000";
    object      newMeshPoints;
}
// * * * * * * * * * * * * * * * * * * * * * * * * * * * * * * * * * * * * * //

dimensions      [0 1 0 0 0 0 0];

internalField   nonuniform List<vector> 
5418
(
(0 0 0)
(0.05 0 -0.00025)
(0.1 0 -0.0005)
(0.15 0 -0.00075)
(0.2 0 -0.001)
(0.25 0 -0.00125)
(0.3 0 -0.0015)
(0.35 0 -0.00175)
(0.4 0 -0.002)
(0.45 0 -0.00225)
(0.5 0 -0.0025)
(0.55 0 -0.00275)
(0.6 0 -0.003)
(0.65 0 -0.00325)
(0.7 0 -0.0035)
(0.75 0 -0.00375)
(0.8 0 -0.004)
(0.85 0 -0.00425)
(0.9 0 -0.0045)
(0.95 0 -0.00475)
(1 0 -0.005)
(1.05 0 -0.00525)
(1.1 0 -0.0055)
(1.15 0 -0.00575)
(1.2 0 -0.006)
(1.25 0 -0.00625)
(1.3 0 -0.0065)
(1.35 0 -0.00675)
(1.4 0 -0.007)
(1.45 0 -0.00725)
(1.5 0 -0.0075)
(1.55 0 -0.00775)
(1.6 0 -0.008)
(1.65 0 -0.00825)
(1.7 0 -0.0085)
(1.75 0 -0.00875)
(1.8 0 -0.009)
(1.85 0 -0.00925)
(1.9 0 -0.0095)
(1.95 0 -0.00975)
(2 0 -0.01)
(2.05 0 -0.01025)
(2.1 0 -0.0105)
(2.15 0 -0.01075)
(2.2 0 -0.011)
(2.25 0 -0.01125)
(2.3 0 -0.0115)
(2.35 0 -0.01175)
(2.4 0 -0.012)
(2.45 0 -0.01225)
(2.5 0 -0.0125)
(2.55 0 -0.01275)
(2.6 0 -0.013)
(2.65 0 -0.01325)
(2.7 0 -0.0135)
(2.75 0 -0.01375)
(2.8 0 -0.014)
(2.85 0 -0.01425)
(2.9 0 -0.0145)
(2.95 0 -0.01475)
(3 0 -0.0128095)
(3.05 0 -0.0118381)
(3.1 0 -0.0129366)
(3.15 0 -0.0131391)
(3.2 0 -0.0134346)
(3.25 0 -0.0136752)
(3.3 0 -0.01395)
(3.35 0 -0.0142164)
(3.4 0 -0.0144864)
(3.45 0 -0.0147559)
(3.5 0 -0.0150251)
(3.55 0 -0.0152939)
(3.6 0 -0.0155607)
(3.65 0 -0.0158263)
(3.7 0 -0.0160904)
(3.75 0 -0.0163531)
(3.8 0 -0.0166144)
(3.85 0 -0.0168744)
(3.9 0 -0.0171329)
(3.95 0 -0.0173901)
(4 0 -0.0176464)
(4.05 0 -0.0179016)
(4.1 0 -0.0181557)
(4.15 0 -0.0184093)
(4.2 0 -0.0186621)
(4.25 0 -0.0189142)
(4.3 0 -0.0191661)
(4.35 0 -0.0194173)
(4.4 0 -0.0196682)
(4.45 0 -0.0199191)
(4.5 0 -0.0201696)
(4.55 0 -0.0204202)
(4.6 0 -0.0206703)
(4.65 0 -0.0209204)
(4.7 0 -0.0211706)
(4.75 0 -0.0214206)
(4.8 0 -0.0216705)
(4.85 0 -0.0219206)
(4.9 0 -0.0221704)
(4.95 0 -0.0224206)
(5 0 -0.0226705)
(5.05 0 -0.0229203)
(5.1 0 -0.0231704)
(5.15 0 -0.0234202)
(5.2 0 -0.0236704)
(5.25 0 -0.0239203)
(5.3 0 -0.0241702)
(5.35 0 -0.0244203)
(5.4 0 -0.0246701)
(5.45 0 -0.0249203)
(5.5 0 -0.0251702)
(5.55 0 -0.0254201)
(5.6 0 -0.0256702)
(5.65 0 -0.0259201)
(5.7 0 -0.0261703)
(5.75 0 -0.0264203)
(5.8 0 -0.0266702)
(5.85 0 -0.0269203)
(5.9 0 -0.0271702)
(5.95 0 -0.0274204)
(6 0 -0.0276703)
(6.05 0 -0.0279203)
(6.1 0 -0.0281703)
(6.15 0 -0.0284203)
(6.2 0 -0.0286704)
(6.25 0 -0.0289204)
(6.3 0 -0.0291703)
(6.35 0 -0.0294203)
(6.4 0 -0.0296705)
(6.45 0 -0.0299203)
(6.5 0 -0.0301706)
(6.55 0 -0.0304201)
(6.6 0 -0.0306708)
(6.65 0 -0.03092)
(6.7 0 -0.031171)
(6.75 0 -0.0314199)
(6.8 0 -0.031671)
(6.85 0 -0.0319198)
(6.9 0 -0.0321711)
(6.95 0 -0.0324193)
(7 0 -0.0326712)
(7.05 0 -0.032919)
(7.1 0 -0.0331715)
(7.15 0 -0.0334186)
(7.2 0 -0.0336716)
(7.25 0 -0.0339182)
(7.3 0 -0.0341719)
(7.35 0 -0.0344178)
(7.4 0 -0.0346722)
(7.45 0 -0.0349171)
(7.5 0 -0.0351726)
(7.55 0 -0.0354164)
(7.6 0 -0.035673)
(7.65 0 -0.0359157)
(7.7 0 -0.0361732)
(7.75 0 -0.036415)
(7.8 0 -0.0366736)
(7.85 0 -0.0369139)
(7.9 0 -0.0371739)
(7.95 0 -0.0374129)
(8 0 -0.0376744)
(8.05 0 -0.037912)
(8.1 0 -0.0381746)
(8.15 0 -0.038411)
(8.2 0 -0.038675)
(8.25 0 -0.03891)
(8.3 0 -0.0391754)
(8.35 0 -0.0394089)
(8.4 0 -0.0396757)
(8.45 0 -0.0399078)
(8.5 0 -0.0401758)
(8.55 0 -0.0404068)
(8.6 0 -0.040676)
(8.65 0 -0.0409057)
(8.7 0 -0.0411761)
(8.75 0 -0.0414048)
(8.8 0 -0.0416763)
(8.85 0 -0.0419041)
(8.9 0 -0.0421762)
(8.95 0 -0.0424034)
(9 0 -0.0426762)
(9.05 0 -0.0429027)
(9.1 0 -0.0431761)
(9.15 0 -0.0434022)
(9.2 0 -0.0436761)
(9.25 0 -0.0439019)
(9.3 0 -0.0441759)
(9.35 0 -0.0444017)
(9.4 0 -0.0446757)
(9.45 0 -0.0449014)
(9.5 0 -0.0451755)
(9.55 0 -0.0454014)
(9.6 0 -0.0456751)
(9.65 0 -0.0459015)
(9.7 0 -0.0461748)
(9.75 0 -0.0464016)
(9.8 0 -0.0466745)
(9.85 0 -0.0469019)
(9.9 0 -0.0471742)
(9.95 0 -0.0474024)
(10 0 -0.0476737)
(10.05 0 -0.0479029)
(10.1 0 -0.0481733)
(10.15 0 -0.0484034)
(10.2 0 -0.0486729)
(10.25 0 -0.048904)
(10.3 0 -0.0491723)
(10.35 0 -0.0494047)
(10.4 0 -0.0496719)
(10.45 0 -0.0499054)
(10.5 0 -0.0501715)
(10.55 0 -0.0504061)
(10.6 0 -0.050671)
(10.65 0 -0.050907)
(10.7 0 -0.0511706)
(10.75 0 -0.0514077)
(10.8 0 -0.0516702)
(10.85 0 -0.0519085)
(10.9 0 -0.0521698)
(10.95 0 -0.0524094)
(11 0 -0.0526696)
(11.05 0 -0.0529101)
(11.1 0 -0.0531693)
(11.15 0 -0.0534109)
(11.2 0 -0.053669)
(11.25 0 -0.0539118)
(11.3 0 -0.0541689)
(11.35 0 -0.0544125)
(11.4 0 -0.0546688)
(11.45 0 -0.0549132)
(11.5 0 -0.0551686)
(11.55 0 -0.0554139)
(11.6 0 -0.0556686)
(11.65 0 -0.0559145)
(11.7 0 -0.0561687)
(11.75 0 -0.0564153)
(11.8 0 -0.0566686)
(11.85 0 -0.0569159)
(11.9 0 -0.0571687)
(11.95 0 -0.0574163)
(12 0 -0.0576688)
(12.05 0 -0.0579169)
(12.1 0 -0.0581688)
(12.15 0 -0.0584172)
(12.2 0 -0.0586689)
(12.25 0 -0.0589176)
(12.3 0 -0.0591688)
(12.35 0 -0.059418)
(12.4 0 -0.0596689)
(12.45 0 -0.0599182)
(12.5 0 -0.0601692)
(12.55 0 -0.0604187)
(12.6 0 -0.0606692)
(12.65 0 -0.0609189)
(12.7 0 -0.0611693)
(12.75 0 -0.061419)
(12.8 0 -0.0616693)
(12.85 0 -0.0619193)
(12.9 0 -0.0621695)
(12.95 0 -0.0624194)
(13 0 -0.0626697)
(13.05 0 -0.0629195)
(13.1 0 -0.0631696)
(13.15 0 -0.0634196)
(13.2 0 -0.0636697)
(13.25 0 -0.0639197)
(13.3 0 -0.0641698)
(13.35 0 -0.0644199)
(13.4 0 -0.0646699)
(13.45 0 -0.0649198)
(13.5 0 -0.0651699)
(13.55 0 -0.0654198)
(13.6 0 -0.0656699)
(13.65 0 -0.0659198)
(13.7 0 -0.0661701)
(13.75 0 -0.0664199)
(13.8 0 -0.06667)
(13.85 0 -0.0669197)
(13.9 0 -0.0671699)
(13.95 0 -0.0674197)
(14 0 -0.0676698)
(14.05 0 -0.0679198)
(14.1 0 -0.0681701)
(14.15 0 -0.06842)
(14.2 0 -0.0686696)
(14.25 0 -0.0689211)
(14.3 0 -0.0691662)
(14.35 0 -0.0694214)
(14.4 0 -0.0696721)
(14.45 0 -0.0699213)
(14.5 0 -0.0701711)
(14.55 0 -0.0704184)
(14.6 0 -0.0706704)
(14.65 0 -0.0709004)
(14.7 0 -0.0712394)
(14.75 0 -0.0713334)
(14.8 0 -0.0719603)
(14.85 0 -0.07425)
(14.9 0 -0.0745)
(14.95 0 -0.07475)
(15 0 -0.075)
(0 0.02 0)
(0.05 0.02 -0.00025)
(0.1 0.02 -0.0005)
(0.15 0.02 -0.00075)
(0.2 0.02 -0.001)
(0.25 0.02 -0.00125)
(0.3 0.02 -0.0015)
(0.35 0.02 -0.00175)
(0.4 0.02 -0.002)
(0.45 0.02 -0.00225)
(0.5 0.02 -0.0025)
(0.55 0.02 -0.00275)
(0.6 0.02 -0.003)
(0.65 0.02 -0.00325)
(0.7 0.02 -0.0035)
(0.75 0.02 -0.00375)
(0.8 0.02 -0.004)
(0.85 0.02 -0.00425)
(0.9 0.02 -0.0045)
(0.95 0.02 -0.00475)
(1 0.02 -0.005)
(1.05 0.02 -0.00525)
(1.1 0.02 -0.0055)
(1.15 0.02 -0.00575)
(1.2 0.02 -0.006)
(1.25 0.02 -0.00625)
(1.3 0.02 -0.0065)
(1.35 0.02 -0.00675)
(1.4 0.02 -0.007)
(1.45 0.02 -0.00725)
(1.5 0.02 -0.0075)
(1.55 0.02 -0.00775)
(1.6 0.02 -0.008)
(1.65 0.02 -0.00825)
(1.7 0.02 -0.0085)
(1.75 0.02 -0.00875)
(1.8 0.02 -0.009)
(1.85 0.02 -0.00925)
(1.9 0.02 -0.0095)
(1.95 0.02 -0.00975)
(2 0.02 -0.01)
(2.05 0.02 -0.01025)
(2.1 0.02 -0.0105)
(2.15 0.02 -0.01075)
(2.2 0.02 -0.011)
(2.25 0.02 -0.01125)
(2.3 0.02 -0.0115)
(2.35 0.02 -0.01175)
(2.4 0.02 -0.012)
(2.45 0.02 -0.01225)
(2.5 0.02 -0.0125)
(2.55 0.02 -0.01275)
(2.6 0.02 -0.013)
(2.65 0.02 -0.01325)
(2.7 0.02 -0.0135)
(2.75 0.02 -0.01375)
(2.8 0.02 -0.014)
(2.85 0.02 -0.01425)
(2.9 0.02 -0.0145)
(2.95 0.02 -0.01475)
(3 0.02 -0.0128095)
(3.05 0.02 -0.0118381)
(3.1 0.02 -0.0129366)
(3.15 0.02 -0.0131391)
(3.2 0.02 -0.0134346)
(3.25 0.02 -0.0136752)
(3.3 0.02 -0.01395)
(3.35 0.02 -0.0142164)
(3.4 0.02 -0.0144864)
(3.45 0.02 -0.0147559)
(3.5 0.02 -0.0150251)
(3.55 0.02 -0.0152939)
(3.6 0.02 -0.0155607)
(3.65 0.02 -0.0158263)
(3.7 0.02 -0.0160904)
(3.75 0.02 -0.0163531)
(3.8 0.02 -0.0166144)
(3.85 0.02 -0.0168744)
(3.9 0.02 -0.0171329)
(3.95 0.02 -0.0173901)
(4 0.02 -0.0176464)
(4.05 0.02 -0.0179016)
(4.1 0.02 -0.0181557)
(4.15 0.02 -0.0184093)
(4.2 0.02 -0.0186621)
(4.25 0.02 -0.0189142)
(4.3 0.02 -0.0191661)
(4.35 0.02 -0.0194173)
(4.4 0.02 -0.0196682)
(4.45 0.02 -0.0199191)
(4.5 0.02 -0.0201696)
(4.55 0.02 -0.0204202)
(4.6 0.02 -0.0206703)
(4.65 0.02 -0.0209204)
(4.7 0.02 -0.0211706)
(4.75 0.02 -0.0214206)
(4.8 0.02 -0.0216705)
(4.85 0.02 -0.0219206)
(4.9 0.02 -0.0221704)
(4.95 0.02 -0.0224206)
(5 0.02 -0.0226705)
(5.05 0.02 -0.0229203)
(5.1 0.02 -0.0231704)
(5.15 0.02 -0.0234202)
(5.2 0.02 -0.0236704)
(5.25 0.02 -0.0239203)
(5.3 0.02 -0.0241702)
(5.35 0.02 -0.0244203)
(5.4 0.02 -0.0246701)
(5.45 0.02 -0.0249203)
(5.5 0.02 -0.0251702)
(5.55 0.02 -0.0254201)
(5.6 0.02 -0.0256702)
(5.65 0.02 -0.0259201)
(5.7 0.02 -0.0261703)
(5.75 0.02 -0.0264203)
(5.8 0.02 -0.0266702)
(5.85 0.02 -0.0269203)
(5.9 0.02 -0.0271702)
(5.95 0.02 -0.0274204)
(6 0.02 -0.0276703)
(6.05 0.02 -0.0279203)
(6.1 0.02 -0.0281703)
(6.15 0.02 -0.0284203)
(6.2 0.02 -0.0286704)
(6.25 0.02 -0.0289204)
(6.3 0.02 -0.0291703)
(6.35 0.02 -0.0294203)
(6.4 0.02 -0.0296705)
(6.45 0.02 -0.0299203)
(6.5 0.02 -0.0301706)
(6.55 0.02 -0.0304201)
(6.6 0.02 -0.0306708)
(6.65 0.02 -0.03092)
(6.7 0.02 -0.031171)
(6.75 0.02 -0.0314199)
(6.8 0.02 -0.031671)
(6.85 0.02 -0.0319198)
(6.9 0.02 -0.0321711)
(6.95 0.02 -0.0324193)
(7 0.02 -0.0326712)
(7.05 0.02 -0.032919)
(7.1 0.02 -0.0331715)
(7.15 0.02 -0.0334186)
(7.2 0.02 -0.0336716)
(7.25 0.02 -0.0339182)
(7.3 0.02 -0.0341719)
(7.35 0.02 -0.0344178)
(7.4 0.02 -0.0346722)
(7.45 0.02 -0.0349171)
(7.5 0.02 -0.0351726)
(7.55 0.02 -0.0354164)
(7.6 0.02 -0.035673)
(7.65 0.02 -0.0359157)
(7.7 0.02 -0.0361732)
(7.75 0.02 -0.036415)
(7.8 0.02 -0.0366736)
(7.85 0.02 -0.0369139)
(7.9 0.02 -0.0371739)
(7.95 0.02 -0.0374129)
(8 0.02 -0.0376744)
(8.05 0.02 -0.037912)
(8.1 0.02 -0.0381746)
(8.15 0.02 -0.038411)
(8.2 0.02 -0.038675)
(8.25 0.02 -0.03891)
(8.3 0.02 -0.0391754)
(8.35 0.02 -0.0394089)
(8.4 0.02 -0.0396757)
(8.45 0.02 -0.0399078)
(8.5 0.02 -0.0401758)
(8.55 0.02 -0.0404068)
(8.6 0.02 -0.040676)
(8.65 0.02 -0.0409057)
(8.7 0.02 -0.0411761)
(8.75 0.02 -0.0414048)
(8.8 0.02 -0.0416763)
(8.85 0.02 -0.0419041)
(8.9 0.02 -0.0421762)
(8.95 0.02 -0.0424034)
(9 0.02 -0.0426762)
(9.05 0.02 -0.0429027)
(9.1 0.02 -0.0431761)
(9.15 0.02 -0.0434022)
(9.2 0.02 -0.0436761)
(9.25 0.02 -0.0439019)
(9.3 0.02 -0.0441759)
(9.35 0.02 -0.0444017)
(9.4 0.02 -0.0446757)
(9.45 0.02 -0.0449014)
(9.5 0.02 -0.0451755)
(9.55 0.02 -0.0454014)
(9.6 0.02 -0.0456751)
(9.65 0.02 -0.0459015)
(9.7 0.02 -0.0461748)
(9.75 0.02 -0.0464016)
(9.8 0.02 -0.0466745)
(9.85 0.02 -0.0469019)
(9.9 0.02 -0.0471742)
(9.95 0.02 -0.0474024)
(10 0.02 -0.0476737)
(10.05 0.02 -0.0479029)
(10.1 0.02 -0.0481733)
(10.15 0.02 -0.0484034)
(10.2 0.02 -0.0486729)
(10.25 0.02 -0.048904)
(10.3 0.02 -0.0491723)
(10.35 0.02 -0.0494047)
(10.4 0.02 -0.0496719)
(10.45 0.02 -0.0499054)
(10.5 0.02 -0.0501715)
(10.55 0.02 -0.0504061)
(10.6 0.02 -0.050671)
(10.65 0.02 -0.050907)
(10.7 0.02 -0.0511706)
(10.75 0.02 -0.0514077)
(10.8 0.02 -0.0516702)
(10.85 0.02 -0.0519085)
(10.9 0.02 -0.0521698)
(10.95 0.02 -0.0524094)
(11 0.02 -0.0526696)
(11.05 0.02 -0.0529101)
(11.1 0.02 -0.0531693)
(11.15 0.02 -0.0534109)
(11.2 0.02 -0.053669)
(11.25 0.02 -0.0539118)
(11.3 0.02 -0.0541689)
(11.35 0.02 -0.0544125)
(11.4 0.02 -0.0546688)
(11.45 0.02 -0.0549132)
(11.5 0.02 -0.0551686)
(11.55 0.02 -0.0554139)
(11.6 0.02 -0.0556686)
(11.65 0.02 -0.0559145)
(11.7 0.02 -0.0561687)
(11.75 0.02 -0.0564153)
(11.8 0.02 -0.0566686)
(11.85 0.02 -0.0569159)
(11.9 0.02 -0.0571687)
(11.95 0.02 -0.0574163)
(12 0.02 -0.0576688)
(12.05 0.02 -0.0579169)
(12.1 0.02 -0.0581688)
(12.15 0.02 -0.0584172)
(12.2 0.02 -0.0586689)
(12.25 0.02 -0.0589176)
(12.3 0.02 -0.0591688)
(12.35 0.02 -0.059418)
(12.4 0.02 -0.0596689)
(12.45 0.02 -0.0599182)
(12.5 0.02 -0.0601692)
(12.55 0.02 -0.0604187)
(12.6 0.02 -0.0606692)
(12.65 0.02 -0.0609189)
(12.7 0.02 -0.0611693)
(12.75 0.02 -0.061419)
(12.8 0.02 -0.0616693)
(12.85 0.02 -0.0619193)
(12.9 0.02 -0.0621695)
(12.95 0.02 -0.0624194)
(13 0.02 -0.0626697)
(13.05 0.02 -0.0629195)
(13.1 0.02 -0.0631696)
(13.15 0.02 -0.0634196)
(13.2 0.02 -0.0636697)
(13.25 0.02 -0.0639197)
(13.3 0.02 -0.0641698)
(13.35 0.02 -0.0644199)
(13.4 0.02 -0.0646699)
(13.45 0.02 -0.0649198)
(13.5 0.02 -0.0651699)
(13.55 0.02 -0.0654198)
(13.6 0.02 -0.0656699)
(13.65 0.02 -0.0659198)
(13.7 0.02 -0.0661701)
(13.75 0.02 -0.0664199)
(13.8 0.02 -0.06667)
(13.85 0.02 -0.0669197)
(13.9 0.02 -0.0671699)
(13.95 0.02 -0.0674197)
(14 0.02 -0.0676698)
(14.05 0.02 -0.0679198)
(14.1 0.02 -0.0681701)
(14.15 0.02 -0.06842)
(14.2 0.02 -0.0686696)
(14.25 0.02 -0.0689211)
(14.3 0.02 -0.0691662)
(14.35 0.02 -0.0694214)
(14.4 0.02 -0.0696721)
(14.45 0.02 -0.0699213)
(14.5 0.02 -0.0701711)
(14.55 0.02 -0.0704184)
(14.6 0.02 -0.0706704)
(14.65 0.02 -0.0709004)
(14.7 0.02 -0.0712394)
(14.75 0.02 -0.0713334)
(14.8 0.02 -0.0719603)
(14.85 0.02 -0.07425)
(14.9 0.02 -0.0745)
(14.95 0.02 -0.07475)
(15 0.02 -0.075)
(0 0 0.00375)
(0.05 0 0.0035)
(0.1 0 0.00325)
(0.15 0 0.003)
(0.2 0 0.00275)
(0.25 0 0.0025)
(0.3 0 0.00225)
(0.35 0 0.002)
(0.4 0 0.00175)
(0.45 0 0.0015)
(0.5 0 0.00125)
(0.55 0 0.001)
(0.6 0 0.00075)
(0.65 0 0.0005)
(0.7 0 0.00025)
(0.75 0 1.4456e-19)
(0.8 0 -0.00025)
(0.85 0 -0.0005)
(0.9 0 -0.00075)
(0.95 0 -0.001)
(1 0 -0.00125)
(1.05 0 -0.0015)
(1.1 0 -0.00175)
(1.15 0 -0.002)
(1.2 0 -0.00225)
(1.25 0 -0.0025)
(1.3 0 -0.00275)
(1.35 0 -0.003)
(1.4 0 -0.00325)
(1.45 0 -0.0035)
(1.5 0 -0.00375)
(1.55 0 -0.004)
(1.6 0 -0.00425)
(1.65 0 -0.0045)
(1.7 0 -0.00475)
(1.75 0 -0.005)
(1.8 0 -0.00525)
(1.85 0 -0.0055)
(1.9 0 -0.00575)
(1.95 0 -0.006)
(2 0 -0.00625)
(2.05 0 -0.0065)
(2.1 0 -0.00675)
(2.15 0 -0.007)
(2.2 0 -0.00725)
(2.25 0 -0.0075)
(2.3 0 -0.00775)
(2.35 0 -0.008)
(2.4 0 -0.00825)
(2.45 0 -0.0085)
(2.5 0 -0.00875)
(2.55 0 -0.009)
(2.6 0 -0.00925)
(2.65 0 -0.0095)
(2.7 0 -0.00975)
(2.75 0 -0.01)
(2.8 0 -0.01025)
(2.85 0 -0.0104999)
(2.9 0 -0.0107512)
(2.95 0 -0.0109845)
(3 0 -0.00906726)
(3.05 0 -0.00810611)
(3.1 0 -0.00918395)
(3.15 0 -0.00939466)
(3.2 0 -0.00968842)
(3.25 0 -0.00992975)
(3.3 0 -0.0102042)
(3.35 0 -0.0104707)
(3.4 0 -0.0107406)
(3.45 0 -0.0110101)
(3.5 0 -0.0112792)
(3.55 0 -0.011548)
(3.6 0 -0.0118147)
(3.65 0 -0.0120803)
(3.7 0 -0.0123444)
(3.75 0 -0.0126071)
(3.8 0 -0.0128684)
(3.85 0 -0.0131283)
(3.9 0 -0.0133868)
(3.95 0 -0.013644)
(4 0 -0.0139003)
(4.05 0 -0.0141555)
(4.1 0 -0.0144096)
(4.15 0 -0.0146632)
(4.2 0 -0.0149159)
(4.25 0 -0.0151681)
(4.3 0 -0.0154199)
(4.35 0 -0.0156712)
(4.4 0 -0.0159221)
(4.45 0 -0.016173)
(4.5 0 -0.0164234)
(4.55 0 -0.016674)
(4.6 0 -0.0169242)
(4.65 0 -0.0171743)
(4.7 0 -0.0174245)
(4.75 0 -0.0176745)
(4.8 0 -0.0179244)
(4.85 0 -0.0181745)
(4.9 0 -0.0184243)
(4.95 0 -0.0186744)
(5 0 -0.0189243)
(5.05 0 -0.0191742)
(5.1 0 -0.0194242)
(5.15 0 -0.0196741)
(5.2 0 -0.0199242)
(5.25 0 -0.0201742)
(5.3 0 -0.020424)
(5.35 0 -0.0206741)
(5.4 0 -0.020924)
(5.45 0 -0.0211742)
(5.5 0 -0.0214241)
(5.55 0 -0.021674)
(5.6 0 -0.0219241)
(5.65 0 -0.022174)
(5.7 0 -0.0224242)
(5.75 0 -0.0226741)
(5.8 0 -0.022924)
(5.85 0 -0.0231741)
(5.9 0 -0.023424)
(5.95 0 -0.0236743)
(6 0 -0.0239241)
(6.05 0 -0.0241741)
(6.1 0 -0.0244241)
(6.15 0 -0.0246742)
(6.2 0 -0.0249242)
(6.25 0 -0.0251743)
(6.3 0 -0.0254242)
(6.35 0 -0.0256742)
(6.4 0 -0.0259243)
(6.45 0 -0.0261742)
(6.5 0 -0.0264245)
(6.55 0 -0.026674)
(6.6 0 -0.0269246)
(6.65 0 -0.0271739)
(6.7 0 -0.0274248)
(6.75 0 -0.0276738)
(6.8 0 -0.0279248)
(6.85 0 -0.0281736)
(6.9 0 -0.0284249)
(6.95 0 -0.0286732)
(7 0 -0.0289251)
(7.05 0 -0.0291729)
(7.1 0 -0.0294253)
(7.15 0 -0.0296725)
(7.2 0 -0.0299254)
(7.25 0 -0.0301721)
(7.3 0 -0.0304257)
(7.35 0 -0.0306717)
(7.4 0 -0.030926)
(7.45 0 -0.031171)
(7.5 0 -0.0314263)
(7.55 0 -0.0316704)
(7.6 0 -0.0319267)
(7.65 0 -0.0321697)
(7.7 0 -0.032427)
(7.75 0 -0.032669)
(7.8 0 -0.0329273)
(7.85 0 -0.0331679)
(7.9 0 -0.0334276)
(7.95 0 -0.033667)
(8 0 -0.033928)
(8.05 0 -0.034166)
(8.1 0 -0.0344283)
(8.15 0 -0.0346651)
(8.2 0 -0.0349286)
(8.25 0 -0.0351641)
(8.3 0 -0.035429)
(8.35 0 -0.035663)
(8.4 0 -0.0359293)
(8.45 0 -0.036162)
(8.5 0 -0.0364294)
(8.55 0 -0.036661)
(8.6 0 -0.0369296)
(8.65 0 -0.0371599)
(8.7 0 -0.0374297)
(8.75 0 -0.037659)
(8.8 0 -0.0379298)
(8.85 0 -0.0381583)
(8.9 0 -0.0384297)
(8.95 0 -0.0386577)
(9 0 -0.0389297)
(9.05 0 -0.0391569)
(9.1 0 -0.0394296)
(9.15 0 -0.0396564)
(9.2 0 -0.0399296)
(9.25 0 -0.0401561)
(9.3 0 -0.0404294)
(9.35 0 -0.0406559)
(9.4 0 -0.0409292)
(9.45 0 -0.0411557)
(9.5 0 -0.041429)
(9.55 0 -0.0416557)
(9.6 0 -0.0419286)
(9.65 0 -0.0421558)
(9.7 0 -0.0424283)
(9.75 0 -0.0426558)
(9.8 0 -0.042928)
(9.85 0 -0.0431561)
(9.9 0 -0.0434277)
(9.95 0 -0.0436566)
(10 0 -0.0439273)
(10.05 0 -0.0441571)
(10.1 0 -0.0444269)
(10.15 0 -0.0446576)
(10.2 0 -0.0449265)
(10.25 0 -0.0451582)
(10.3 0 -0.0454259)
(10.35 0 -0.0456589)
(10.4 0 -0.0459255)
(10.45 0 -0.0461595)
(10.5 0 -0.0464251)
(10.55 0 -0.0466602)
(10.6 0 -0.0469246)
(10.65 0 -0.0471611)
(10.7 0 -0.0474242)
(10.75 0 -0.0476617)
(10.8 0 -0.0479239)
(10.85 0 -0.0481626)
(10.9 0 -0.0484235)
(10.95 0 -0.0486634)
(11 0 -0.0489233)
(11.05 0 -0.0491641)
(11.1 0 -0.0494231)
(11.15 0 -0.0496649)
(11.2 0 -0.0499228)
(11.25 0 -0.0501657)
(11.3 0 -0.0504227)
(11.35 0 -0.0506664)
(11.4 0 -0.0509226)
(11.45 0 -0.0511672)
(11.5 0 -0.0514224)
(11.55 0 -0.0516679)
(11.6 0 -0.0519224)
(11.65 0 -0.0521685)
(11.7 0 -0.0524225)
(11.75 0 -0.0526692)
(11.8 0 -0.0529224)
(11.85 0 -0.0531698)
(11.9 0 -0.0534225)
(11.95 0 -0.0536702)
(12 0 -0.0539226)
(12.05 0 -0.0541708)
(12.1 0 -0.0544227)
(12.15 0 -0.0546711)
(12.2 0 -0.0549227)
(12.25 0 -0.0551715)
(12.3 0 -0.0554226)
(12.35 0 -0.0556719)
(12.4 0 -0.0559228)
(12.45 0 -0.0561721)
(12.5 0 -0.056423)
(12.55 0 -0.0566725)
(12.6 0 -0.0569231)
(12.65 0 -0.0571728)
(12.7 0 -0.0574232)
(12.75 0 -0.0576729)
(12.8 0 -0.0579231)
(12.85 0 -0.0581731)
(12.9 0 -0.0584234)
(12.95 0 -0.0586732)
(13 0 -0.0589235)
(13.05 0 -0.0591734)
(13.1 0 -0.0594234)
(13.15 0 -0.0596735)
(13.2 0 -0.0599236)
(13.25 0 -0.0601736)
(13.3 0 -0.0604237)
(13.35 0 -0.0606737)
(13.4 0 -0.0609238)
(13.45 0 -0.0611736)
(13.5 0 -0.0614238)
(13.55 0 -0.0616737)
(13.6 0 -0.0619238)
(13.65 0 -0.0621737)
(13.7 0 -0.0624239)
(13.75 0 -0.0626738)
(13.8 0 -0.0629239)
(13.85 0 -0.0631736)
(13.9 0 -0.0634237)
(13.95 0 -0.0636736)
(14 0 -0.0639237)
(14.05 0 -0.0641737)
(14.1 0 -0.064424)
(14.15 0 -0.0646738)
(14.2 0 -0.0649235)
(14.25 0 -0.0651749)
(14.3 0 -0.0654201)
(14.35 0 -0.0656752)
(14.4 0 -0.0659259)
(14.45 0 -0.0661752)
(14.5 0 -0.0664249)
(14.55 0 -0.0666724)
(14.6 0 -0.066924)
(14.65 0 -0.0671551)
(14.7 0 -0.0674913)
(14.75 0 -0.06759)
(14.8 0 -0.0682225)
(14.85 0 -0.0704844)
(14.9 0 -0.0707512)
(14.95 0 -0.0709999)
(15 0 -0.07125)
(0 0.02 0.00375)
(0.05 0.02 0.0035)
(0.1 0.02 0.00325)
(0.15 0.02 0.003)
(0.2 0.02 0.00275)
(0.25 0.02 0.0025)
(0.3 0.02 0.00225)
(0.35 0.02 0.002)
(0.4 0.02 0.00175)
(0.45 0.02 0.0015)
(0.5 0.02 0.00125)
(0.55 0.02 0.001)
(0.6 0.02 0.00075)
(0.65 0.02 0.0005)
(0.7 0.02 0.00025)
(0.75 0.02 1.4456e-19)
(0.8 0.02 -0.00025)
(0.85 0.02 -0.0005)
(0.9 0.02 -0.00075)
(0.95 0.02 -0.001)
(1 0.02 -0.00125)
(1.05 0.02 -0.0015)
(1.1 0.02 -0.00175)
(1.15 0.02 -0.002)
(1.2 0.02 -0.00225)
(1.25 0.02 -0.0025)
(1.3 0.02 -0.00275)
(1.35 0.02 -0.003)
(1.4 0.02 -0.00325)
(1.45 0.02 -0.0035)
(1.5 0.02 -0.00375)
(1.55 0.02 -0.004)
(1.6 0.02 -0.00425)
(1.65 0.02 -0.0045)
(1.7 0.02 -0.00475)
(1.75 0.02 -0.005)
(1.8 0.02 -0.00525)
(1.85 0.02 -0.0055)
(1.9 0.02 -0.00575)
(1.95 0.02 -0.006)
(2 0.02 -0.00625)
(2.05 0.02 -0.0065)
(2.1 0.02 -0.00675)
(2.15 0.02 -0.007)
(2.2 0.02 -0.00725)
(2.25 0.02 -0.0075)
(2.3 0.02 -0.00775)
(2.35 0.02 -0.008)
(2.4 0.02 -0.00825)
(2.45 0.02 -0.0085)
(2.5 0.02 -0.00875)
(2.55 0.02 -0.009)
(2.6 0.02 -0.00925)
(2.65 0.02 -0.0095)
(2.7 0.02 -0.00975)
(2.75 0.02 -0.01)
(2.8 0.02 -0.01025)
(2.85 0.02 -0.0104999)
(2.9 0.02 -0.0107512)
(2.95 0.02 -0.0109845)
(3 0.02 -0.00906726)
(3.05 0.02 -0.00810611)
(3.1 0.02 -0.00918395)
(3.15 0.02 -0.00939466)
(3.2 0.02 -0.00968842)
(3.25 0.02 -0.00992975)
(3.3 0.02 -0.0102042)
(3.35 0.02 -0.0104707)
(3.4 0.02 -0.0107406)
(3.45 0.02 -0.0110101)
(3.5 0.02 -0.0112792)
(3.55 0.02 -0.011548)
(3.6 0.02 -0.0118147)
(3.65 0.02 -0.0120803)
(3.7 0.02 -0.0123444)
(3.75 0.02 -0.0126071)
(3.8 0.02 -0.0128684)
(3.85 0.02 -0.0131283)
(3.9 0.02 -0.0133868)
(3.95 0.02 -0.013644)
(4 0.02 -0.0139003)
(4.05 0.02 -0.0141555)
(4.1 0.02 -0.0144096)
(4.15 0.02 -0.0146632)
(4.2 0.02 -0.0149159)
(4.25 0.02 -0.0151681)
(4.3 0.02 -0.0154199)
(4.35 0.02 -0.0156712)
(4.4 0.02 -0.0159221)
(4.45 0.02 -0.016173)
(4.5 0.02 -0.0164234)
(4.55 0.02 -0.016674)
(4.6 0.02 -0.0169242)
(4.65 0.02 -0.0171743)
(4.7 0.02 -0.0174245)
(4.75 0.02 -0.0176745)
(4.8 0.02 -0.0179244)
(4.85 0.02 -0.0181745)
(4.9 0.02 -0.0184243)
(4.95 0.02 -0.0186744)
(5 0.02 -0.0189243)
(5.05 0.02 -0.0191742)
(5.1 0.02 -0.0194242)
(5.15 0.02 -0.0196741)
(5.2 0.02 -0.0199242)
(5.25 0.02 -0.0201742)
(5.3 0.02 -0.020424)
(5.35 0.02 -0.0206741)
(5.4 0.02 -0.020924)
(5.45 0.02 -0.0211742)
(5.5 0.02 -0.0214241)
(5.55 0.02 -0.021674)
(5.6 0.02 -0.0219241)
(5.65 0.02 -0.022174)
(5.7 0.02 -0.0224242)
(5.75 0.02 -0.0226741)
(5.8 0.02 -0.022924)
(5.85 0.02 -0.0231741)
(5.9 0.02 -0.023424)
(5.95 0.02 -0.0236743)
(6 0.02 -0.0239241)
(6.05 0.02 -0.0241741)
(6.1 0.02 -0.0244241)
(6.15 0.02 -0.0246742)
(6.2 0.02 -0.0249242)
(6.25 0.02 -0.0251743)
(6.3 0.02 -0.0254242)
(6.35 0.02 -0.0256742)
(6.4 0.02 -0.0259243)
(6.45 0.02 -0.0261742)
(6.5 0.02 -0.0264245)
(6.55 0.02 -0.026674)
(6.6 0.02 -0.0269246)
(6.65 0.02 -0.0271739)
(6.7 0.02 -0.0274248)
(6.75 0.02 -0.0276738)
(6.8 0.02 -0.0279248)
(6.85 0.02 -0.0281736)
(6.9 0.02 -0.0284249)
(6.95 0.02 -0.0286732)
(7 0.02 -0.0289251)
(7.05 0.02 -0.0291729)
(7.1 0.02 -0.0294253)
(7.15 0.02 -0.0296725)
(7.2 0.02 -0.0299254)
(7.25 0.02 -0.0301721)
(7.3 0.02 -0.0304257)
(7.35 0.02 -0.0306717)
(7.4 0.02 -0.030926)
(7.45 0.02 -0.031171)
(7.5 0.02 -0.0314263)
(7.55 0.02 -0.0316704)
(7.6 0.02 -0.0319267)
(7.65 0.02 -0.0321697)
(7.7 0.02 -0.032427)
(7.75 0.02 -0.032669)
(7.8 0.02 -0.0329273)
(7.85 0.02 -0.0331679)
(7.9 0.02 -0.0334276)
(7.95 0.02 -0.033667)
(8 0.02 -0.033928)
(8.05 0.02 -0.034166)
(8.1 0.02 -0.0344283)
(8.15 0.02 -0.0346651)
(8.2 0.02 -0.0349286)
(8.25 0.02 -0.0351641)
(8.3 0.02 -0.035429)
(8.35 0.02 -0.035663)
(8.4 0.02 -0.0359293)
(8.45 0.02 -0.036162)
(8.5 0.02 -0.0364294)
(8.55 0.02 -0.036661)
(8.6 0.02 -0.0369296)
(8.65 0.02 -0.0371599)
(8.7 0.02 -0.0374297)
(8.75 0.02 -0.037659)
(8.8 0.02 -0.0379298)
(8.85 0.02 -0.0381583)
(8.9 0.02 -0.0384297)
(8.95 0.02 -0.0386577)
(9 0.02 -0.0389297)
(9.05 0.02 -0.0391569)
(9.1 0.02 -0.0394296)
(9.15 0.02 -0.0396564)
(9.2 0.02 -0.0399296)
(9.25 0.02 -0.0401561)
(9.3 0.02 -0.0404294)
(9.35 0.02 -0.0406559)
(9.4 0.02 -0.0409292)
(9.45 0.02 -0.0411557)
(9.5 0.02 -0.041429)
(9.55 0.02 -0.0416557)
(9.6 0.02 -0.0419286)
(9.65 0.02 -0.0421558)
(9.7 0.02 -0.0424283)
(9.75 0.02 -0.0426558)
(9.8 0.02 -0.042928)
(9.85 0.02 -0.0431561)
(9.9 0.02 -0.0434277)
(9.95 0.02 -0.0436566)
(10 0.02 -0.0439273)
(10.05 0.02 -0.0441571)
(10.1 0.02 -0.0444269)
(10.15 0.02 -0.0446576)
(10.2 0.02 -0.0449265)
(10.25 0.02 -0.0451582)
(10.3 0.02 -0.0454259)
(10.35 0.02 -0.0456589)
(10.4 0.02 -0.0459255)
(10.45 0.02 -0.0461595)
(10.5 0.02 -0.0464251)
(10.55 0.02 -0.0466602)
(10.6 0.02 -0.0469246)
(10.65 0.02 -0.0471611)
(10.7 0.02 -0.0474242)
(10.75 0.02 -0.0476617)
(10.8 0.02 -0.0479239)
(10.85 0.02 -0.0481626)
(10.9 0.02 -0.0484235)
(10.95 0.02 -0.0486634)
(11 0.02 -0.0489233)
(11.05 0.02 -0.0491641)
(11.1 0.02 -0.0494231)
(11.15 0.02 -0.0496649)
(11.2 0.02 -0.0499228)
(11.25 0.02 -0.0501657)
(11.3 0.02 -0.0504227)
(11.35 0.02 -0.0506664)
(11.4 0.02 -0.0509226)
(11.45 0.02 -0.0511672)
(11.5 0.02 -0.0514224)
(11.55 0.02 -0.0516679)
(11.6 0.02 -0.0519224)
(11.65 0.02 -0.0521685)
(11.7 0.02 -0.0524225)
(11.75 0.02 -0.0526692)
(11.8 0.02 -0.0529224)
(11.85 0.02 -0.0531698)
(11.9 0.02 -0.0534225)
(11.95 0.02 -0.0536702)
(12 0.02 -0.0539226)
(12.05 0.02 -0.0541708)
(12.1 0.02 -0.0544227)
(12.15 0.02 -0.0546711)
(12.2 0.02 -0.0549227)
(12.25 0.02 -0.0551715)
(12.3 0.02 -0.0554226)
(12.35 0.02 -0.0556719)
(12.4 0.02 -0.0559228)
(12.45 0.02 -0.0561721)
(12.5 0.02 -0.056423)
(12.55 0.02 -0.0566725)
(12.6 0.02 -0.0569231)
(12.65 0.02 -0.0571728)
(12.7 0.02 -0.0574232)
(12.75 0.02 -0.0576729)
(12.8 0.02 -0.0579231)
(12.85 0.02 -0.0581731)
(12.9 0.02 -0.0584234)
(12.95 0.02 -0.0586732)
(13 0.02 -0.0589235)
(13.05 0.02 -0.0591734)
(13.1 0.02 -0.0594234)
(13.15 0.02 -0.0596735)
(13.2 0.02 -0.0599236)
(13.25 0.02 -0.0601736)
(13.3 0.02 -0.0604237)
(13.35 0.02 -0.0606737)
(13.4 0.02 -0.0609238)
(13.45 0.02 -0.0611736)
(13.5 0.02 -0.0614238)
(13.55 0.02 -0.0616737)
(13.6 0.02 -0.0619238)
(13.65 0.02 -0.0621737)
(13.7 0.02 -0.0624239)
(13.75 0.02 -0.0626738)
(13.8 0.02 -0.0629239)
(13.85 0.02 -0.0631736)
(13.9 0.02 -0.0634237)
(13.95 0.02 -0.0636736)
(14 0.02 -0.0639237)
(14.05 0.02 -0.0641737)
(14.1 0.02 -0.064424)
(14.15 0.02 -0.0646738)
(14.2 0.02 -0.0649235)
(14.25 0.02 -0.0651749)
(14.3 0.02 -0.0654201)
(14.35 0.02 -0.0656752)
(14.4 0.02 -0.0659259)
(14.45 0.02 -0.0661752)
(14.5 0.02 -0.0664249)
(14.55 0.02 -0.0666724)
(14.6 0.02 -0.066924)
(14.65 0.02 -0.0671551)
(14.7 0.02 -0.0674913)
(14.75 0.02 -0.06759)
(14.8 0.02 -0.0682225)
(14.85 0.02 -0.0704844)
(14.9 0.02 -0.0707512)
(14.95 0.02 -0.0709999)
(15 0.02 -0.07125)
(0 0 0.0075)
(0.05 0 0.00725)
(0.1 0 0.007)
(0.15 0 0.00675)
(0.2 0 0.0065)
(0.25 0 0.00625)
(0.3 0 0.006)
(0.35 0 0.00575)
(0.4 0 0.0055)
(0.45 0 0.00525)
(0.5 0 0.005)
(0.55 0 0.00475)
(0.6 0 0.0045)
(0.65 0 0.00425)
(0.7 0 0.004)
(0.75 0 0.00375)
(0.8 0 0.0035)
(0.85 0 0.00325)
(0.9 0 0.003)
(0.95 0 0.00275)
(1 0 0.0025)
(1.05 0 0.00225)
(1.1 0 0.002)
(1.15 0 0.00175)
(1.2 0 0.0015)
(1.25 0 0.00125)
(1.3 0 0.001)
(1.35 0 0.00075)
(1.4 0 0.0005)
(1.45 0 0.00025)
(1.5 0 -5.78241e-19)
(1.55 0 -0.00025)
(1.6 0 -0.0005)
(1.65 0 -0.00075)
(1.7 0 -0.001)
(1.75 0 -0.00125)
(1.8 0 -0.0015)
(1.85 0 -0.00175)
(1.9 0 -0.002)
(1.95 0 -0.00225)
(2 0 -0.0025)
(2.05 0 -0.00275)
(2.1 0 -0.003)
(2.15 0 -0.00325)
(2.2 0 -0.0035)
(2.25 0 -0.00375)
(2.3 0 -0.004)
(2.35 0 -0.00425)
(2.4 0 -0.0045)
(2.45 0 -0.00475)
(2.5 0 -0.005)
(2.55 0 -0.00525)
(2.6 0 -0.0055)
(2.65 0 -0.00575)
(2.7 0 -0.006)
(2.75 0 -0.00625)
(2.8 0 -0.00650002)
(2.85 0 -0.00674974)
(2.9 0 -0.00700315)
(2.95 0 -0.00721222)
(3 0 -0.00535641)
(3.05 0 -0.00442678)
(3.1 0 -0.00546252)
(3.15 0 -0.00568566)
(3.2 0 -0.00597626)
(3.25 0 -0.00621877)
(3.3 0 -0.0064923)
(3.35 0 -0.00675867)
(3.4 0 -0.00702823)
(3.45 0 -0.00729739)
(3.5 0 -0.00756616)
(3.55 0 -0.00783464)
(3.6 0 -0.00810111)
(3.65 0 -0.00836638)
(3.7 0 -0.00863023)
(3.75 0 -0.00889277)
(3.8 0 -0.00915383)
(3.85 0 -0.0094136)
(3.9 0 -0.00967194)
(3.95 0 -0.00992908)
(4 0 -0.0101853)
(4.05 0 -0.0104403)
(4.1 0 -0.0106944)
(4.15 0 -0.0109479)
(4.2 0 -0.0112006)
(4.25 0 -0.0114527)
(4.3 0 -0.0117045)
(4.35 0 -0.0119558)
(4.4 0 -0.0122067)
(4.45 0 -0.0124576)
(4.5 0 -0.012708)
(4.55 0 -0.0129586)
(4.6 0 -0.0132087)
(4.65 0 -0.0134588)
(4.7 0 -0.013709)
(4.75 0 -0.013959)
(4.8 0 -0.0142089)
(4.85 0 -0.014459)
(4.9 0 -0.0147088)
(4.95 0 -0.014959)
(5 0 -0.0152089)
(5.05 0 -0.0154587)
(5.1 0 -0.0157088)
(5.15 0 -0.0159587)
(5.2 0 -0.0162088)
(5.25 0 -0.0164587)
(5.3 0 -0.0167086)
(5.35 0 -0.0169587)
(5.4 0 -0.0172086)
(5.45 0 -0.0174587)
(5.5 0 -0.0177086)
(5.55 0 -0.0179585)
(5.6 0 -0.0182086)
(5.65 0 -0.0184586)
(5.7 0 -0.0187087)
(5.75 0 -0.0189587)
(5.8 0 -0.0192086)
(5.85 0 -0.0194587)
(5.9 0 -0.0197086)
(5.95 0 -0.0199588)
(6 0 -0.0202087)
(6.05 0 -0.0204587)
(6.1 0 -0.0207087)
(6.15 0 -0.0209587)
(6.2 0 -0.0212088)
(6.25 0 -0.0214588)
(6.3 0 -0.0217087)
(6.35 0 -0.0219587)
(6.4 0 -0.0222089)
(6.45 0 -0.0224587)
(6.5 0 -0.022709)
(6.55 0 -0.0229585)
(6.6 0 -0.0232091)
(6.65 0 -0.0234584)
(6.7 0 -0.0237093)
(6.75 0 -0.0239584)
(6.8 0 -0.0242093)
(6.85 0 -0.0244582)
(6.9 0 -0.0247094)
(6.95 0 -0.0249578)
(7 0 -0.0252096)
(7.05 0 -0.0254575)
(7.1 0 -0.0257098)
(7.15 0 -0.0259572)
(7.2 0 -0.0262099)
(7.25 0 -0.0264568)
(7.3 0 -0.0267101)
(7.35 0 -0.0269564)
(7.4 0 -0.0272104)
(7.45 0 -0.0274557)
(7.5 0 -0.0277107)
(7.55 0 -0.0279551)
(7.6 0 -0.0282111)
(7.65 0 -0.0284545)
(7.7 0 -0.0287113)
(7.75 0 -0.0289538)
(7.8 0 -0.0292116)
(7.85 0 -0.0294528)
(7.9 0 -0.0297119)
(7.95 0 -0.0299519)
(8 0 -0.0302123)
(8.05 0 -0.030451)
(8.1 0 -0.0307125)
(8.15 0 -0.0309501)
(8.2 0 -0.0312128)
(8.25 0 -0.0314492)
(8.3 0 -0.0317131)
(8.35 0 -0.0319481)
(8.4 0 -0.0322134)
(8.45 0 -0.0324471)
(8.5 0 -0.0327135)
(8.55 0 -0.0329462)
(8.6 0 -0.0332136)
(8.65 0 -0.0334451)
(8.7 0 -0.0337137)
(8.75 0 -0.0339443)
(8.8 0 -0.0342138)
(8.85 0 -0.0344436)
(8.9 0 -0.0347137)
(8.95 0 -0.034943)
(9 0 -0.0352136)
(9.05 0 -0.0354423)
(9.1 0 -0.0357136)
(9.15 0 -0.0359418)
(9.2 0 -0.0362135)
(9.25 0 -0.0364415)
(9.3 0 -0.0367133)
(9.35 0 -0.0369413)
(9.4 0 -0.0372131)
(9.45 0 -0.0374411)
(9.5 0 -0.037713)
(9.55 0 -0.037941)
(9.6 0 -0.0382126)
(9.65 0 -0.0384411)
(9.7 0 -0.0387123)
(9.75 0 -0.0389412)
(9.8 0 -0.039212)
(9.85 0 -0.0394415)
(9.9 0 -0.0397117)
(9.95 0 -0.0399419)
(10 0 -0.0402113)
(10.05 0 -0.0404424)
(10.1 0 -0.0407109)
(10.15 0 -0.0409428)
(10.2 0 -0.0412106)
(10.25 0 -0.0414434)
(10.3 0 -0.0417101)
(10.35 0 -0.0419441)
(10.4 0 -0.0422097)
(10.45 0 -0.0424446)
(10.5 0 -0.0427093)
(10.55 0 -0.0429453)
(10.6 0 -0.0432088)
(10.65 0 -0.0434461)
(10.7 0 -0.0437085)
(10.75 0 -0.0439467)
(10.8 0 -0.0442082)
(10.85 0 -0.0444475)
(10.9 0 -0.0447079)
(10.95 0 -0.0449484)
(11 0 -0.0452077)
(11.05 0 -0.045449)
(11.1 0 -0.0457075)
(11.15 0 -0.0459498)
(11.2 0 -0.0462072)
(11.25 0 -0.0464506)
(11.3 0 -0.0467071)
(11.35 0 -0.0469512)
(11.4 0 -0.0472071)
(11.45 0 -0.047452)
(11.5 0 -0.0477069)
(11.55 0 -0.0479526)