/*--------------------------------*- C++ -*----------------------------------*\
| =========                 |                                                 |
| \\      /  F ield         | foam-extend: Open Source CFD                    |
|  \\    /   O peration     | Version:     3.2                                |
|   \\  /    A nd           | Web:         http://www.foam-extend.org         |
|    \\/     M anipulation  | For copyright notice see file Copyright         |
\*---------------------------------------------------------------------------*/
FoamFile
{
    version     2.0;
    format      ascii;
    class       pointVectorField;
    location    "2000";
    object      newPoints;
}
// * * * * * * * * * * * * * * * * * * * * * * * * * * * * * * * * * * * * * //

dimensions      [0 1 0 0 0 0 0];

internalField   nonuniform List<vector> 
602
(
(0 0 0)
(0.05 0 -0.00025)
(0.1 0 -0.0005)
(0.15 0 -0.00075)
(0.2 0 -0.001)
(0.25 0 -0.00125)
(0.3 0 -0.0015)
(0.35 0 -0.00175)
(0.4 0 -0.002)
(0.45 0 -0.00225)
(0.5 0 -0.0025)
(0.55 0 -0.00275)
(0.6 0 -0.003)
(0.65 0 -0.00325)
(0.7 0 -0.0035)
(0.75 0 -0.00375)
(0.8 0 -0.004)
(0.85 0 -0.00425)
(0.9 0 -0.0045)
(0.95 0 -0.00475)
(1 0 -0.005)
(1.05 0 -0.00525)
(1.1 0 -0.0055)
(1.15 0 -0.00575)
(1.2 0 -0.006)
(1.25 0 -0.00625)
(1.3 0 -0.0065)
(1.35 0 -0.00675)
(1.4 0 -0.007)
(1.45 0 -0.00725)
(1.5 0 -0.0075)
(1.55 0 -0.00775)
(1.6 0 -0.008)
(1.65 0 -0.00825)
(1.7 0 -0.0085)
(1.75 0 -0.00875)
(1.8 0 -0.009)
(1.85 0 -0.00925)
(1.9 0 -0.0095)
(1.95 0 -0.00975)
(2 0 -0.01)
(2.05 0 -0.01025)
(2.1 0 -0.0105)
(2.15 0 -0.01075)
(2.2 0 -0.011)
(2.25 0 -0.01125)
(2.3 0 -0.0115)
(2.35 0 -0.01175)
(2.4 0 -0.012)
(2.45 0 -0.01225)
(2.5 0 -0.0125)
(2.55 0 -0.01275)
(2.6 0 -0.013)
(2.65 0 -0.01325)
(2.7 0 -0.0135)
(2.75 0 -0.01375)
(2.8 0 -0.014)
(2.85 0 -0.01425)
(2.9 0 -0.0145)
(2.95 0 -0.01475)
(3 0 -0.0128095)
(3.05 0 -0.0118381)
(3.1 0 -0.0129366)
(3.15 0 -0.0131391)
(3.2 0 -0.0134346)
(3.25 0 -0.0136752)
(3.3 0 -0.01395)
(3.35 0 -0.0142164)
(3.4 0 -0.0144864)
(3.45 0 -0.0147559)
(3.5 0 -0.0150251)
(3.55 0 -0.0152939)
(3.6 0 -0.0155607)
(3.65 0 -0.0158263)
(3.7 0 -0.0160904)
(3.75 0 -0.0163531)
(3.8 0 -0.0166144)
(3.85 0 -0.0168744)
(3.9 0 -0.0171329)
(3.95 0 -0.0173901)
(4 0 -0.0176464)
(4.05 0 -0.0179016)
(4.1 0 -0.0181557)
(4.15 0 -0.0184093)
(4.2 0 -0.0186621)
(4.25 0 -0.0189142)
(4.3 0 -0.0191661)
(4.35 0 -0.0194173)
(4.4 0 -0.0196682)
(4.45 0 -0.0199191)
(4.5 0 -0.0201696)
(4.55 0 -0.0204202)
(4.6 0 -0.0206703)
(4.65 0 -0.0209204)
(4.7 0 -0.0211706)
(4.75 0 -0.0214206)
(4.8 0 -0.0216705)
(4.85 0 -0.0219206)
(4.9 0 -0.0221704)
(4.95 0 -0.0224206)
(5 0 -0.0226705)
(5.05 0 -0.0229203)
(5.1 0 -0.0231704)
(5.15 0 -0.0234202)
(5.2 0 -0.0236704)
(5.25 0 -0.0239203)
(5.3 0 -0.0241702)
(5.35 0 -0.0244203)
(5.4 0 -0.0246701)
(5.45 0 -0.0249203)
(5.5 0 -0.0251702)
(5.55 0 -0.0254201)
(5.6 0 -0.0256702)
(5.65 0 -0.0259201)
(5.7 0 -0.0261703)
(5.75 0 -0.0264203)
(5.8 0 -0.0266702)
(5.85 0 -0.0269203)
(5.9 0 -0.0271702)
(5.95 0 -0.0274204)
(6 0 -0.0276703)
(6.05 0 -0.0279203)
(6.1 0 -0.0281703)
(6.15 0 -0.0284203)
(6.2 0 -0.0286704)
(6.25 0 -0.0289204)
(6.3 0 -0.0291703)
(6.35 0 -0.0294203)
(6.4 0 -0.0296705)
(6.45 0 -0.0299203)
(6.5 0 -0.0301706)
(6.55 0 -0.0304201)
(6.6 0 -0.0306708)
(6.65 0 -0.03092)
(6.7 0 -0.031171)
(6.75 0 -0.0314199)
(6.8 0 -0.031671)
(6.85 0 -0.0319198)
(6.9 0 -0.0321711)
(6.95 0 -0.0324193)
(7 0 -0.0326712)
(7.05 0 -0.032919)
(7.1 0 -0.0331715)
(7.15 0 -0.0334186)
(7.2 0 -0.0336716)
(7.25 0 -0.0339182)
(7.3 0 -0.0341719)
(7.35 0 -0.0344178)
(7.4 0 -0.0346722)
(7.45 0 -0.0349171)
(7.5 0 -0.0351726)
(7.55 0 -0.0354164)
(7.6 0 -0.035673)
(7.65 0 -0.0359157)
(7.7 0 -0.0361732)
(7.75 0 -0.036415)
(7.8 0 -0.0366736)
(7.85 0 -0.0369139)
(7.9 0 -0.0371739)
(7.95 0 -0.0374129)
(8 0 -0.0376744)
(8.05 0 -0.037912)
(8.1 0 -0.0381746)
(8.15 0 -0.038411)
(8.2 0 -0.038675)
(8.25 0 -0.03891)
(8.3 0 -0.0391754)
(8.35 0 -0.0394089)
(8.4 0 -0.0396757)
(8.45 0 -0.0399078)
(8.5 0 -0.0401758)
(8.55 0 -0.0404068)
(8.6 0 -0.040676)
(8.65 0 -0.0409057)
(8.7 0 -0.0411761)
(8.75 0 -0.0414048)
(8.8 0 -0.0416763)
(8.85 0 -0.0419041)
(8.9 0 -0.0421762)
(8.95 0 -0.0424034)
(9 0 -0.0426762)
(9.05 0 -0.0429027)
(9.1 0 -0.0431761)
(9.15 0 -0.0434022)
(9.2 0 -0.0436761)
(9.25 0 -0.0439019)
(9.3 0 -0.0441759)
(9.35 0 -0.0444017)
(9.4 0 -0.0446757)
(9.45 0 -0.0449014)
(9.5 0 -0.0451755)
(9.55 0 -0.0454014)
(9.6 0 -0.0456751)
(9.65 0 -0.0459015)
(9.7 0 -0.0461748)
(9.75 0 -0.0464016)
(9.8 0 -0.0466745)
(9.85 0 -0.0469019)
(9.9 0 -0.0471742)
(9.95 0 -0.0474024)
(10 0 -0.0476737)
(10.05 0 -0.0479029)
(10.1 0 -0.0481733)
(10.15 0 -0.0484034)
(10.2 0 -0.0486729)
(10.25 0 -0.048904)
(10.3 0 -0.0491723)
(10.35 0 -0.0494047)
(10.4 0 -0.0496719)
(10.45 0 -0.0499054)
(10.5 0 -0.0501715)
(10.55 0 -0.0504061)
(10.6 0 -0.050671)
(10.65 0 -0.050907)
(10.7 0 -0.0511706)
(10.75 0 -0.0514077)
(10.8 0 -0.0516702)
(10.85 0 -0.0519085)
(10.9 0 -0.0521698)
(10.95 0 -0.0524094)
(11 0 -0.0526696)
(11.05 0 -0.0529101)
(11.1 0 -0.0531693)
(11.15 0 -0.0534109)
(11.2 0 -0.053669)
(11.25 0 -0.0539118)
(11.3 0 -0.0541689)
(11.35 0 -0.0544125)
(11.4 0 -0.0546688)
(11.45 0 -0.0549132)
(11.5 0 -0.0551686)
(11.55 0 -0.0554139)
(11.6 0 -0.0556686)
(11.65 0 -0.0559145)
(11.7 0 -0.0561687)
(11.75 0 -0.0564153)
(11.8 0 -0.0566686)
(11.85 0 -0.0569159)
(11.9 0 -0.0571687)
(11.95 0 -0.0574163)
(12 0 -0.0576688)
(12.05 0 -0.0579169)
(12.1 0 -0.0581688)
(12.15 0 -0.0584172)
(12.2 0 -0.0586689)
(12.25 0 -0.0589176)
(12.3 0 -0.0591688)
(12.35 0 -0.059418)
(12.4 0 -0.0596689)
(12.45 0 -0.0599182)
(12.5 0 -0.0601692)
(12.55 0 -0.0604187)
(12.6 0 -0.0606692)
(12.65 0 -0.0609189)
(12.7 0 -0.0611693)
(12.75 0 -0.061419)
(12.8 0 -0.0616693)
(12.85 0 -0.0619193)
(12.9 0 -0.0621695)
(12.95 0 -0.0624194)
(13 0 -0.0626697)
(13.05 0 -0.0629195)
(13.1 0 -0.0631696)
(13.15 0 -0.0634196)
(13.2 0 -0.0636697)
(13.25 0 -0.0639197)
(13.3 0 -0.0641698)
(13.35 0 -0.0644199)
(13.4 0 -0.0646699)
(13.45 0 -0.0649198)
(13.5 0 -0.0651699)
(13.55 0 -0.0654198)
(13.6 0 -0.0656699)
(13.65 0 -0.0659198)
(13.7 0 -0.0661701)
(13.75 0 -0.0664199)
(13.8 0 -0.06667)
(13.85 0 -0.0669197)
(13.9 0 -0.0671699)
(13.95 0 -0.0674197)
(14 0 -0.0676698)
(14.05 0 -0.0679198)
(14.1 0 -0.0681701)
(14.15 0 -0.06842)
(14.2 0 -0.0686696)
(14.25 0 -0.0689211)
(14.3 0 -0.0691662)
(14.35 0 -0.0694214)
(14.4 0 -0.0696721)
(14.45 0 -0.0699213)
(14.5 0 -0.0701711)
(14.55 0 -0.0704184)
(14.6 0 -0.0706704)
(14.65 0 -0.0709004)
(14.7 0 -0.0712394)
(14.75 0 -0.0713334)
(14.8 0 -0.0719603)
(14.85 0 -0.07425)
(14.9 0 -0.0745)
(14.95 0 -0.07475)
(15 0 -0.075)
(0 0.02 0)
(0.05 0.02 -0.00025)
(0.1 0.02 -0.0005)
(0.15 0.02 -0.00075)
(0.2 0.02 -0.001)
(0.25 0.02 -0.00125)
(0.3 0.02 -0.0015)
(0.35 0.02 -0.00175)
(0.4 0.02 -0.002)
(0.45 0.02 -0.00225)
(0.5 0.02 -0.0025)
(0.55 0.02 -0.00275)
(0.6 0.02 -0.003)
(0.65 0.02 -0.00325)
(0.7 0.02 -0.0035)
(0.75 0.02 -0.00375)
(0.8 0.02 -0.004)
(0.85 0.02 -0.00425)
(0.9 0.02 -0.0045)
(0.95 0.02 -0.00475)
(1 0.02 -0.005)
(1.05 0.02 -0.00525)
(1.1 0.02 -0.0055)
(1.15 0.02 -0.00575)
(1.2 0.02 -0.006)
(1.25 0.02 -0.00625)
(1.3 0.02 -0.0065)
(1.35 0.02 -0.00675)
(1.4 0.02 -0.007)
(1.45 0.02 -0.00725)
(1.5 0.02 -0.0075)
(1.55 0.02 -0.00775)
(1.6 0.02 -0.008)
(1.65 0.02 -0.00825)
(1.7 0.02 -0.0085)
(1.75 0.02 -0.00875)
(1.8 0.02 -0.009)
(1.85 0.02 -0.00925)
(1.9 0.02 -0.0095)
(1.95 0.02 -0.00975)
(2 0.02 -0.01)
(2.05 0.02 -0.01025)
(2.1 0.02 -0.0105)
(2.15 0.02 -0.01075)
(2.2 0.02 -0.011)
(2.25 0.02 -0.01125)
(2.3 0.02 -0.0115)
(2.35 0.02 -0.01175)
(2.4 0.02 -0.012)
(2.45 0.02 -0.01225)
(2.5 0.02 -0.0125)
(2.55 0.02 -0.01275)
(2.6 0.02 -0.013)
(2.65 0.02 -0.01325)
(2.7 0.02 -0.0135)
(2.75 0.02 -0.01375)
(2.8 0.02 -0.014)
(2.85 0.02 -0.01425)
(2.9 0.02 -0.0145)
(2.95 0.02 -0.01475)
(3 0.02 -0.0128095)
(3.05 0.02 -0.0118381)
(3.1 0.02 -0.0129366)
(3.15 0.02 -0.0131391)
(3.2 0.02 -0.0134346)
(3.25 0.02 -0.0136752)
(3.3 0.02 -0.01395)
(3.35 0.02 -0.0142164)
(3.4 0.02 -0.0144864)
(3.45 0.02 -0.0147559)
(3.5 0.02 -0.0150251)
(3.55 0.02 -0.0152939)
(3.6 0.02 -0.0155607)
(3.65 0.02 -0.0158263)
(3.7 0.02 -0.0160904)
(3.75 0.02 -0.0163531)
(3.8 0.02 -0.0166144)
(3.85 0.02 -0.0168744)
(3.9 0.02 -0.0171329)
(3.95 0.02 -0.0173901)
(4 0.02 -0.0176464)
(4.05 0.02 -0.0179016)
(4.1 0.02 -0.0181557)
(4.15 0.02 -0.0184093)
(4.2 0.02 -0.0186621)
(4.25 0.02 -0.0189142)
(4.3 0.02 -0.0191661)
(4.35 0.02 -0.0194173)
(4.4 0.02 -0.0196682)
(4.45 0.02 -0.0199191)
(4.5 0.02 -0.0201696)
(4.55 0.02 -0.0204202)
(4.6 0.02 -0.0206703)
(4.65 0.02 -0.0209204)
(4.7 0.02 -0.0211706)
(4.75 0.02 -0.0214206)
(4.8 0.02 -0.0216705)
(4.85 0.02 -0.0219206)
(4.9 0.02 -0.0221704)
(4.95 0.02 -0.0224206)
(5 0.02 -0.0226705)
(5.05 0.02 -0.0229203)
(5.1 0.02 -0.0231704)
(5.15 0.02 -0.0234202)
(5.2 0.02 -0.0236704)
(5.25 0.02 -0.0239203)
(5.3 0.02 -0.0241702)
(5.35 0.02 -0.0244203)
(5.4 0.02 -0.0246701)
(5.45 0.02 -0.0249203)
(5.5 0.02 -0.0251702)
(5.55 0.02 -0.0254201)
(5.6 0.02 -0.0256702)
(5.65 0.02 -0.0259201)
(5.7 0.02 -0.0261703)
(5.75 0.02 -0.0264203)
(5.8 0.02 -0.0266702)
(5.85 0.02 -0.0269203)
(5.9 0.02 -0.0271702)
(5.95 0.02 -0.0274204)
(6 0.02 -0.0276703)
(6.05 0.02 -0.0279203)
(6.1 0.02 -0.0281703)
(6.15 0.02 -0.0284203)
(6.2 0.02 -0.0286704)
(6.25 0.02 -0.0289204)
(6.3 0.02 -0.0291703)
(6.35 0.02 -0.0294203)
(6.4 0.02 -0.0296705)
(6.45 0.02 -0.0299203)
(6.5 0.02 -0.0301706)
(6.55 0.02 -0.0304201)
(6.6 0.02 -0.0306708)
(6.65 0.02 -0.03092)
(6.7 0.02 -0.031171)
(6.75 0.02 -0.0314199)
(6.8 0.02 -0.031671)
(6.85 0.02 -0.0319198)
(6.9 0.02 -0.0321711)
(6.95 0.02 -0.0324193)
(7 0.02 -0.0326712)
(7.05 0.02 -0.032919)
(7.1 0.02 -0.0331715)
(7.15 0.02 -0.0334186)
(7.2 0.02 -0.0336716)
(7.25 0.02 -0.0339182)
(7.3 0.02 -0.0341719)
(7.35 0.02 -0.0344178)
(7.4 0.02 -0.0346722)
(7.45 0.02 -0.0349171)
(7.5 0.02 -0.0351726)
(7.55 0.02 -0.0354164)
(7.6 0.02 -0.035673)
(7.65 0.02 -0.0359157)
(7.7 0.02 -0.0361732)
(7.75 0.02 -0.036415)
(7.8 0.02 -0.0366736)
(7.85 0.02 -0.0369139)
(7.9 0.02 -0.0371739)
(7.95 0.02 -0.0374129)
(8 0.02 -0.0376744)
(8.05 0.02 -0.037912)
(8.1 0.02 -0.0381746)
(8.15 0.02 -0.038411)
(8.2 0.02 -0.038675)
(8.25 0.02 -0.03891)
(8.3 0.02 -0.0391754)
(8.35 0.02 -0.0394089)
(8.4 0.02 -0.0396757)
(8.45 0.02 -0.0399078)
(8.5 0.02 -0.0401758)
(8.55 0.02 -0.0404068)
(8.6 0.02 -0.040676)
(8.65 0.02 -0.0409057)
(8.7 0.02 -0.0411761)
(8.75 0.02 -0.0414048)
(8.8 0.02 -0.0416763)
(8.85 0.02 -0.0419041)
(8.9 0.02 -0.0421762)
(8.95 0.02 -0.0424034)
(9 0.02 -0.0426762)
(9.05 0.02 -0.0429027)
(9.1 0.02 -0.0431761)
(9.15 0.02 -0.0434022)
(9.2 0.02 -0.0436761)
(9.25 0.02 -0.0439019)
(9.3 0.02 -0.0441759)
(9.35 0.02 -0.0444017)
(9.4 0.02 -0.0446757)
(9.45 0.02 -0.0449014)
(9.5 0.02 -0.0451755)
(9.55 0.02 -0.0454014)
(9.6 0.02 -0.0456751)
(9.65 0.02 -0.0459015)
(9.7 0.02 -0.0461748)
(9.75 0.02 -0.0464016)
(9.8 0.02 -0.0466745)
(9.85 0.02 -0.0469019)
(9.9 0.02 -0.0471742)
(9.95 0.02 -0.0474024)
(10 0.02 -0.0476737)
(10.05 0.02 -0.0479029)
(10.1 0.02 -0.0481733)
(10.15 0.02 -0.0484034)
(10.2 0.02 -0.0486729)
(10.25 0.02 -0.048904)
(10.3 0.02 -0.0491723)
(10.35 0.02 -0.0494047)
(10.4 0.02 -0.0496719)
(10.45 0.02 -0.0499054)
(10.5 0.02 -0.0501715)
(10.55 0.02 -0.0504061)
(10.6 0.02 -0.050671)
(10.65 0.02 -0.050907)
(10.7 0.02 -0.0511706)
(10.75 0.02 -0.0514077)
(10.8 0.02 -0.0516702)
(10.85 0.02 -0.0519085)
(10.9 0.02 -0.0521698)
(10.95 0.02 -0.0524094)
(11 0.02 -0.0526696)
(11.05 0.02 -0.0529101)
(11.1 0.02 -0.0531693)
(11.15 0.02 -0.0534109)
(11.2 0.02 -0.053669)
(11.25 0.02 -0.0539118)
(11.3 0.02 -0.0541689)
(11.35 0.02 -0.0544125)
(11.4 0.02 -0.0546688)
(11.45 0.02 -0.0549132)
(11.5 0.02 -0.0551686)
(11.55 0.02 -0.0554139)
(11.6 0.02 -0.0556686)
(11.65 0.02 -0.0559145)
(11.7 0.02 -0.0561687)
(11.75 0.02 -0.0564153)
(11.8 0.02 -0.0566686)
(11.85 0.02 -0.0569159)
(11.9 0.02 -0.0571687)
(11.95 0.02 -0.0574163)
(12 0.02 -0.0576688)
(12.05 0.02 -0.0579169)
(12.1 0.02 -0.0581688)
(12.15 0.02 -0.0584172)
(12.2 0.02 -0.0586689)
(12.25 0.02 -0.0589176)
(12.3 0.02 -0.0591688)
(12.35 0.02 -0.059418)
(12.4 0.02 -0.0596689)
(12.45 0.02 -0.0599182)
(12.5 0.02 -0.0601692)
(12.55 0.02 -0.0604187)
(12.6 0.02 -0.0606692)
(12.65 0.02 -0.0609189)
(12.7 0.02 -0.0611693)
(12.75 0.02 -0.061419)
(12.8 0.02 -0.0616693)
(12.85 0.02 -0.0619193)
(12.9 0.02 -0.0621695)
(12.95 0.02 -0.0624194)
(13 0.02 -0.0626697)
(13.05 0.02 -0.0629195)
(13.1 0.02 -0.0631696)
(13.15 0.02 -0.0634196)
(13.2 0.02 -0.0636697)
(13.25 0.02 -0.0639197)
(13.3 0.02 -0.0641698)
(13.35 0.02 -0.0644199)
(13.4 0.02 -0.0646699)
(13.45 0.02 -0.0649198)
(13.5 0.02 -0.0651699)
(13.55 0.02 -0.0654198)
(13.6 0.02 -0.0656699)
(13.65 0.02 -0.0659198)
(13.7 0.02 -0.0661701)
(13.75 0.02 -0.0664199)
(13.8 0.02 -0.06667)
(13.85 0.02 -0.0669197)
(13.9 0.02 -0.0671699)
(13.95 0.02 -0.0674197)
(14 0.02 -0.0676698)
(14.05 0.02 -0.0679198)
(14.1 0.02 -0.0681701)
(14.15 0.02 -0.06842)
(14.2 0.02 -0.0686696)
(14.25 0.02 -0.0689211)
(14.3 0.02 -0.0691662)
(14.35 0.02 -0.0694214)
(14.4 0.02 -0.0696721)
(14.45 0.02 -0.0699213)
(14.5 0.02 -0.0701711)
(14.55 0.02 -0.0704184)
(14.6 0.02 -0.0706704)
(14.65 0.02 -0.0709004)
(14.7 0.02 -0.0712394)
(14.75 0.02 -0.0713334)
(14.8 0.02 -0.0719603)
(14.85 0.02 -0.07425)
(14.9 0.02 -0.0745)
(14.95 0.02 -0.07475)
(15 0.02 -0.075)
)
;

boundaryField
{
    inlet
    {
        type            zeroGradient;
    }
    outlet
    {
        type            zeroGradient;
    }
    sideWall
    {
        type            empty;
    }
    bed
    {
        type            zeroGradient;
    }
    topWall
    {
        type            zeroGradient;
    }
}


// ************************************************************************* //
