/*--------------------------------*- C++ -*----------------------------------*\
| =========                 |                                                 |
| \\      /  F ield         | foam-extend: Open Source CFD                    |
|  \\    /   O peration     | Version:     3.2                                |
|   \\  /    A nd           | Web:         http://www.foam-extend.org         |
|    \\/     M anipulation  | For copyright notice see file Copyright         |
\*---------------------------------------------------------------------------*/
FoamFile
{
    version     2.0;
    format      ascii;
    class       volScalarField;
    location    "2000";
    object      nut;
}
// * * * * * * * * * * * * * * * * * * * * * * * * * * * * * * * * * * * * * //

dimensions      [0 2 -1 0 0 0 0];

internalField   nonuniform List<scalar> 
2400
(
2.48005e-05
2.75057e-05
2.15993e-05
1.80321e-05
1.68406e-05
1.63437e-05
1.62365e-05
1.6539e-05
1.69827e-05
1.74294e-05
1.78208e-05
1.81627e-05
1.84329e-05
1.8699e-05
1.89129e-05
1.91093e-05
1.92959e-05
1.94586e-05
1.96059e-05
1.9742e-05
1.98649e-05
1.99827e-05
2.01086e-05
2.02422e-05
2.03713e-05
2.04883e-05
2.05919e-05
2.06801e-05
2.07542e-05
2.08149e-05
2.0865e-05
2.09052e-05
2.09369e-05
2.09608e-05
2.09788e-05
2.09924e-05
2.10034e-05
2.10117e-05
2.10187e-05
2.1024e-05
2.10288e-05
2.10324e-05
2.10358e-05
2.10383e-05
2.10408e-05
2.10424e-05
2.10445e-05
2.10454e-05
2.10469e-05
2.10481e-05
2.10455e-05
2.10547e-05
2.10388e-05
2.10738e-05
2.10017e-05
2.11542e-05
2.08307e-05
2.14924e-05
1.94359e-05
2.39626e-05
2.83552e-05
2.5359e-05
2.1715e-05
2.25613e-05
2.23485e-05
2.26413e-05
2.2722e-05
2.28732e-05
2.30002e-05
2.30962e-05
2.31712e-05
2.32359e-05
2.32901e-05
2.33339e-05
2.337e-05
2.33992e-05
2.34228e-05
2.34414e-05
2.34568e-05
2.34678e-05
2.34756e-05
2.34828e-05
2.34864e-05
2.34885e-05
2.34915e-05
2.34919e-05
2.34917e-05
2.34924e-05
2.34913e-05
2.34909e-05
2.34898e-05
2.34885e-05
2.34885e-05
2.34874e-05
2.34863e-05
2.34869e-05
2.34855e-05
2.34851e-05
2.34844e-05
2.34835e-05
2.34844e-05
2.34834e-05
2.34833e-05
2.34831e-05
2.34823e-05
2.34835e-05
2.34826e-05
2.34827e-05
2.34826e-05
2.34819e-05
2.34832e-05
2.34823e-05
2.34824e-05
2.34825e-05
2.34818e-05
2.34832e-05
2.34819e-05
2.34825e-05
2.34822e-05
2.34819e-05
2.34826e-05
2.34823e-05
2.34825e-05
2.34822e-05
2.3482e-05
2.34822e-05
2.34829e-05
2.3481e-05
2.34847e-05
2.34782e-05
2.34866e-05
2.34782e-05
2.34862e-05
2.34776e-05
2.34862e-05
2.34761e-05
2.3489e-05
2.34731e-05
2.34909e-05
2.34722e-05
2.34913e-05
2.34709e-05
2.34915e-05
2.34691e-05
2.34941e-05
2.34656e-05
2.34967e-05
2.34618e-05
2.34989e-05
2.34601e-05
2.34995e-05
2.3458e-05
2.34999e-05
2.34553e-05
2.35028e-05
2.34512e-05
2.35047e-05
2.34493e-05
2.35046e-05
2.34475e-05
2.35041e-05
2.34456e-05
2.35055e-05
2.34425e-05
2.35062e-05
2.34398e-05
2.35062e-05
2.34398e-05
2.35041e-05
2.34393e-05
2.35041e-05
2.34376e-05
2.3503e-05
2.34386e-05
2.34999e-05
2.34394e-05
2.34971e-05
2.34399e-05
2.34966e-05
2.34394e-05
2.34954e-05
2.34407e-05
2.34929e-05
2.3442e-05
2.34901e-05
2.34436e-05
2.34889e-05
2.34443e-05
2.34873e-05
2.34468e-05
2.34844e-05
2.34491e-05
2.34831e-05
2.34504e-05
2.34816e-05
2.34532e-05
2.34792e-05
2.34557e-05
2.34768e-05
2.34584e-05
2.34762e-05
2.346e-05
2.34755e-05
2.34629e-05
2.34738e-05
2.34656e-05
2.34736e-05
2.3467e-05
2.34735e-05
2.34697e-05
2.34725e-05
2.3472e-05
2.34728e-05
2.3473e-05
2.34732e-05
2.34752e-05
2.34727e-05
2.34771e-05
2.34736e-05
2.34775e-05
2.34745e-05
2.34788e-05
2.34745e-05
2.34803e-05
2.34758e-05
2.348e-05
2.34774e-05
2.34805e-05
2.34772e-05
2.34818e-05
2.34777e-05
2.34818e-05
2.34791e-05
2.34826e-05
2.34795e-05
2.34824e-05
2.34798e-05
2.34829e-05
2.34806e-05
2.34829e-05
2.34814e-05
2.34831e-05
2.34821e-05
2.34833e-05
2.34816e-05
2.34835e-05
2.34821e-05
2.34833e-05
2.34828e-05
2.34835e-05
2.34823e-05
2.34832e-05
2.3482e-05
2.34826e-05
2.34824e-05
2.34832e-05
2.34829e-05
2.34827e-05
2.34829e-05
2.34825e-05
2.3482e-05
2.34825e-05
2.3482e-05
2.34823e-05
2.34824e-05
2.34827e-05
2.34824e-05
2.34814e-05
2.34823e-05
2.34816e-05
2.34816e-05
2.34819e-05
2.34827e-05
2.34821e-05
2.34817e-05
2.34816e-05
2.34818e-05
2.34822e-05
2.34817e-05
2.34824e-05
2.34818e-05
2.34828e-05
2.34793e-05
2.34918e-05
2.3467e-05
2.3487e-05
2.34902e-05
2.34672e-05
2.348e-05
2.3465e-05
2.35039e-05
2.34203e-05
2.3562e-05
2.35124e-05
2.29388e-05
2.61459e-05
1.97095e-05
1.77487e-05
1.9949e-05
2.04733e-05
1.69602e-05
1.96636e-05
2.64684e-05
2.97958e-05
3.22135e-05
3.45959e-05
3.6736e-05
3.85397e-05
4.01197e-05
4.14746e-05
4.26161e-05
4.35979e-05
4.44341e-05
4.51912e-05
4.58239e-05
4.64085e-05
4.6939e-05
4.74108e-05
4.78452e-05
4.82484e-05
4.86167e-05
4.89602e-05
4.92822e-05
4.95731e-05
4.98227e-05
5.00292e-05
5.01955e-05
5.0325e-05
5.04239e-05
5.04972e-05
5.05509e-05
5.05884e-05
5.06142e-05
5.06303e-05
5.06404e-05
5.06458e-05
5.0649e-05
5.065e-05
5.06509e-05
5.06504e-05
5.06507e-05
5.06498e-05
5.06499e-05
5.06489e-05
5.06491e-05
5.06478e-05
5.06484e-05
5.06469e-05
5.06475e-05
5.06462e-05
5.06443e-05
5.06493e-05
5.0639e-05
5.06599e-05
5.06159e-05
5.07073e-05
5.05062e-05
5.08242e-05
4.95894e-05
5.26675e-05
5.37096e-05
5.08907e-05
5.03029e-05
5.20156e-05
5.2455e-05
5.31642e-05
5.36169e-05
5.40327e-05
5.43699e-05
5.46242e-05
5.48241e-05
5.49824e-05
5.51036e-05
5.51951e-05
5.52628e-05
5.53115e-05
5.53449e-05
5.53663e-05
5.5379e-05
5.53837e-05
5.5384e-05
5.5381e-05
5.53747e-05
5.53671e-05
5.53598e-05
5.53511e-05
5.5343e-05
5.53359e-05
5.53283e-05
5.53223e-05
5.53163e-05
5.53111e-05
5.53076e-05
5.53036e-05
5.53003e-05
5.52987e-05
5.52959e-05
5.52943e-05
5.52927e-05
5.52914e-05
5.52915e-05
5.52902e-05
5.52898e-05
5.52893e-05
5.52888e-05
5.52895e-05
5.52886e-05
5.52887e-05
5.52885e-05
5.52882e-05
5.52891e-05
5.52882e-05
5.52885e-05
5.52885e-05
5.52881e-05
5.52892e-05
5.5288e-05
5.52886e-05
5.52883e-05
5.52882e-05
5.52887e-05
5.52885e-05
5.52886e-05
5.52884e-05
5.52883e-05
5.52886e-05
5.52888e-05
5.52875e-05
5.52904e-05
5.52848e-05
5.52923e-05
5.52839e-05
5.52915e-05
5.52829e-05
5.52913e-05
5.52814e-05
5.52934e-05
5.52782e-05
5.52949e-05
5.52762e-05
5.52948e-05
5.5274e-05
5.52946e-05
5.52716e-05
5.52963e-05
5.52674e-05
5.52981e-05
5.52629e-05
5.52996e-05
5.52593e-05
5.52992e-05
5.52555e-05
5.52987e-05
5.52514e-05
5.53002e-05
5.52456e-05
5.5301e-05
5.52413e-05
5.52997e-05
5.52371e-05
5.52982e-05
5.52331e-05
5.52981e-05
5.52279e-05
5.52978e-05
5.52231e-05
5.52968e-05
5.52201e-05
5.52936e-05
5.52173e-05
5.52923e-05
5.52136e-05
5.52905e-05
5.52119e-05
5.52868e-05
5.52109e-05
5.52833e-05
5.52104e-05
5.52817e-05
5.52092e-05
5.528e-05
5.52098e-05
5.52766e-05
5.52109e-05
5.52733e-05
5.52129e-05
5.52717e-05
5.5214e-05
5.52701e-05
5.52167e-05
5.5267e-05
5.52199e-05
5.52658e-05
5.52223e-05
5.52649e-05
5.52261e-05
5.52628e-05
5.52301e-05
5.52613e-05
5.52347e-05
5.52614e-05
5.52381e-05
5.52619e-05
5.52425e-05
5.52612e-05
5.52472e-05
5.52621e-05
5.52508e-05
5.52636e-05
5.52552e-05
5.52638e-05
5.52596e-05
5.52655e-05
5.52627e-05
5.52675e-05
5.52666e-05
5.52686e-05
5.52705e-05
5.52707e-05
5.52729e-05
5.52732e-05
5.52753e-05
5.52746e-05
5.52784e-05
5.52771e-05
5.52798e-05
5.52804e-05
5.52806e-05
5.52814e-05
5.5283e-05
5.52823e-05
5.52847e-05
5.52848e-05
5.52865e-05
5.52857e-05
5.52873e-05
5.52862e-05
5.52884e-05
5.52876e-05
5.52893e-05
5.52887e-05
5.52902e-05
5.52895e-05
5.52902e-05
5.52891e-05
5.52904e-05
5.52896e-05
5.52908e-05
5.52906e-05
5.52912e-05
5.52903e-05
5.52906e-05
5.52894e-05
5.52897e-05
5.52895e-05
5.52901e-05
5.52899e-05
5.52899e-05
5.529e-05
5.52891e-05
5.52884e-05
5.52884e-05
5.52879e-05
5.52885e-05
5.52888e-05
5.52891e-05
5.52886e-05
5.52875e-05
5.52878e-05
5.52867e-05
5.52867e-05
5.52873e-05
5.52883e-05
5.52879e-05
5.52878e-05
5.52872e-05
5.52868e-05
5.52866e-05
5.52861e-05
5.52871e-05
5.52872e-05
5.52883e-05
5.52865e-05
5.52945e-05
5.52734e-05
5.52919e-05
5.52872e-05
5.52746e-05
5.52856e-05
5.52747e-05
5.53013e-05
5.52338e-05
5.53571e-05
5.52413e-05
5.48327e-05
5.38463e-05
4.93035e-05
5.07304e-05
5.31191e-05
5.27718e-05
1.812e-05
1.55197e-05
1.83564e-05
2.2955e-05
2.83886e-05
3.40321e-05
3.86074e-05
4.30827e-05
4.71474e-05
5.07701e-05
5.40286e-05
5.69073e-05
5.94856e-05
6.17191e-05
6.34359e-05
6.49291e-05
6.62789e-05
6.75017e-05
6.86215e-05
6.9644e-05
7.05783e-05
7.14085e-05
7.21234e-05
7.2719e-05
7.32019e-05
7.35851e-05
7.38835e-05
7.41127e-05
7.42863e-05
7.44174e-05
7.45155e-05
7.45877e-05
7.46396e-05
7.46768e-05
7.47049e-05
7.47274e-05
7.4746e-05
7.47616e-05
7.47748e-05
7.47858e-05
7.47951e-05
7.48029e-05
7.48096e-05
7.48149e-05
7.48199e-05
7.48236e-05
7.48273e-05
7.48299e-05
7.48327e-05
7.48339e-05
7.48359e-05
7.48361e-05
7.48399e-05
7.48365e-05
7.48481e-05
7.48235e-05
7.48476e-05
7.42295e-05
7.26665e-05
7.75084e-05
7.6265e-05
7.15768e-05
7.3342e-05
7.46117e-05
7.58984e-05
7.68388e-05
7.76546e-05
7.83071e-05
7.8843e-05
7.92785e-05
7.96297e-05
7.99106e-05
8.01295e-05
8.02982e-05
8.04253e-05
8.05193e-05
8.05862e-05
8.06325e-05
8.06617e-05
8.06789e-05
8.06865e-05
8.06875e-05
8.06838e-05
8.06769e-05
8.06681e-05
8.06588e-05
8.06491e-05
8.06398e-05
8.06309e-05
8.06226e-05
8.06148e-05
8.06086e-05
8.06029e-05
8.05979e-05
8.05942e-05
8.05906e-05
8.05875e-05
8.05853e-05
8.05829e-05
8.05819e-05
8.05808e-05
8.05798e-05
8.05793e-05
8.05783e-05
8.05783e-05
8.05782e-05
8.05777e-05
8.05778e-05
8.05772e-05
8.05776e-05
8.05777e-05
8.05774e-05
8.05776e-05
8.05771e-05
8.05776e-05
8.05777e-05
8.05776e-05
8.05776e-05
8.0577e-05
8.05776e-05
8.05776e-05
8.05777e-05
8.05777e-05
8.05775e-05
8.05778e-05
8.05779e-05
8.05775e-05
8.05777e-05
8.05774e-05
8.05778e-05
8.0577e-05
8.05763e-05
8.05757e-05
8.05749e-05
8.05747e-05
8.05745e-05
8.05739e-05
8.05739e-05
8.05729e-05
8.05718e-05
8.05709e-05
8.05693e-05
8.05689e-05
8.05675e-05
8.0567e-05
8.05652e-05
8.05645e-05
8.05626e-05
8.05619e-05
8.05586e-05
8.05582e-05
8.05541e-05
8.05544e-05
8.05501e-05
8.05506e-05
8.05458e-05
8.05466e-05
8.05401e-05
8.05415e-05
8.05339e-05
8.05365e-05
8.05285e-05
8.05317e-05
8.05227e-05
8.05267e-05
8.0517e-05
8.05218e-05
8.05103e-05
8.05166e-05
8.05046e-05
8.05118e-05
8.04992e-05
8.05074e-05
8.04933e-05
8.05029e-05
8.04877e-05
8.04994e-05
8.04836e-05
8.04967e-05
8.04803e-05
8.04949e-05
8.04764e-05
8.04933e-05
8.04731e-05
8.04924e-05
8.04717e-05
8.0492e-05
8.0471e-05
8.04926e-05
8.04697e-05
8.04934e-05
8.04703e-05
8.04946e-05
8.04718e-05
8.04969e-05
8.04729e-05
8.04992e-05
8.04748e-05
8.05021e-05
8.04785e-05
8.05055e-05
8.04828e-05
8.05096e-05
8.04864e-05
8.05136e-05
8.04915e-05
8.05178e-05
8.04972e-05
8.05227e-05
8.05018e-05
8.05272e-05
8.05078e-05
8.05317e-05
8.05138e-05
8.05367e-05
8.05189e-05
8.05413e-05
8.05252e-05
8.05455e-05
8.0531e-05
8.05501e-05
8.05352e-05
8.0554e-05
8.05411e-05
8.05578e-05
8.05465e-05
8.05616e-05
8.05496e-05
8.05642e-05
8.05537e-05
8.05666e-05
8.05586e-05
8.05697e-05
8.05618e-05
8.05719e-05
8.0565e-05
8.05735e-05
8.0568e-05
8.05754e-05
8.05706e-05
8.0577e-05
8.05738e-05
8.05783e-05
8.05742e-05
8.05783e-05
8.05754e-05
8.05787e-05
8.05775e-05
8.05799e-05
8.05784e-05
8.05798e-05
8.0578e-05
8.05786e-05
8.05773e-05
8.05784e-05
8.05783e-05
8.05789e-05
8.05789e-05
8.05786e-05
8.05773e-05
8.0577e-05
8.0576e-05
8.05761e-05
8.05768e-05
8.05775e-05
8.05776e-05
8.05769e-05
8.05762e-05
8.05752e-05
8.0574e-05
8.05746e-05
8.05756e-05
8.05765e-05
8.05766e-05
8.05764e-05
8.05754e-05
8.05745e-05
8.05728e-05
8.05735e-05
8.05746e-05
8.0576e-05
8.05763e-05
8.0577e-05
8.05727e-05
8.05758e-05
8.05774e-05
8.05556e-05
8.05638e-05
8.05684e-05
8.05739e-05
8.057e-05
8.05991e-05
8.0558e-05
8.03378e-05
8.07324e-05
7.61067e-05
7.07079e-05
7.57367e-05
7.68403e-05
7.72571e-05
3.40522e-05
2.03202e-05
1.75048e-05
1.77358e-05
2.02559e-05
2.43517e-05
2.95768e-05
3.52591e-05
3.97371e-05
4.44904e-05
4.92924e-05
5.38383e-05
5.81106e-05
6.20902e-05
6.58727e-05
6.92572e-05
7.22458e-05
7.50003e-05
7.74905e-05
7.98259e-05
8.19498e-05
8.36393e-05
8.50749e-05
8.63074e-05
8.73472e-05
8.82167e-05
8.89401e-05
8.95414e-05
9.00407e-05
9.04564e-05
9.08021e-05
9.10881e-05
9.13242e-05
9.15203e-05
9.16865e-05
9.18287e-05
9.19509e-05
9.20557e-05
9.21457e-05
9.22225e-05
9.22886e-05
9.23447e-05
9.23933e-05
9.24342e-05
9.24701e-05
9.24997e-05
9.25264e-05
9.25479e-05
9.25675e-05
9.25824e-05
9.25964e-05
9.26072e-05
9.262e-05
9.26246e-05
9.26433e-05
9.26267e-05
9.26587e-05
9.20636e-05
8.95081e-05
9.57659e-05
9.38692e-05
8.86917e-05
8.94213e-05
9.0353e-05
9.15817e-05
9.26325e-05
9.36294e-05
9.44935e-05
9.52604e-05
9.59199e-05
9.64795e-05
9.69498e-05
9.73365e-05
9.76509e-05
9.79025e-05
9.81014e-05
9.82557e-05
9.83739e-05
9.84616e-05
9.85256e-05
9.8571e-05
9.86014e-05
9.86203e-05
9.86309e-05
9.8635e-05
9.86352e-05
9.86322e-05
9.86277e-05
9.86218e-05
9.86155e-05
9.86091e-05
9.86032e-05
9.85977e-05
9.85927e-05
9.85884e-05
9.85844e-05
9.85811e-05
9.85783e-05
9.85755e-05
9.8574e-05
9.85726e-05
9.85713e-05
9.85705e-05
9.85693e-05
9.85692e-05
9.85689e-05
9.85684e-05
9.85684e-05
9.85677e-05
9.85681e-05
9.85682e-05
9.8568e-05
9.85681e-05
9.85677e-05
9.85681e-05
9.85683e-05
9.85682e-05
9.85682e-05
9.85677e-05
9.85682e-05
9.85683e-05
9.85684e-05
9.85684e-05
9.85683e-05
9.85686e-05
9.85688e-05
9.85684e-05
9.85685e-05
9.85683e-05
9.85684e-05
9.85681e-05
9.85671e-05
9.85666e-05
9.85654e-05
9.85654e-05
9.85646e-05
9.85644e-05
9.85636e-05
9.85632e-05
9.85613e-05
9.85608e-05
9.85582e-05
9.85581e-05
9.85557e-05
9.85555e-05
9.85524e-05
9.85524e-05
9.85489e-05
9.8549e-05
9.85441e-05
9.85442e-05
9.85383e-05
9.85391e-05
9.85328e-05
9.85338e-05
9.8527e-05
9.85283e-05
9.85197e-05
9.85213e-05
9.85115e-05
9.85142e-05
9.8504e-05
9.85071e-05
9.84959e-05
9.84997e-05
9.8488e-05
9.84926e-05
9.84791e-05
9.84848e-05
9.8471e-05
9.84774e-05
9.84632e-05
9.84705e-05
9.8455e-05
9.84633e-05
9.84469e-05
9.8457e-05
9.84407e-05
9.84518e-05
9.84355e-05
9.8448e-05
9.84302e-05
9.84441e-05
9.84254e-05
9.84412e-05
9.84228e-05
9.84394e-05
9.84212e-05
9.84389e-05
9.84195e-05
9.84386e-05
9.84197e-05
9.84392e-05
9.8421e-05
9.84413e-05
9.84224e-05
9.84434e-05
9.84245e-05
9.84466e-05
9.84289e-05
9.84507e-05
9.84341e-05
9.8456e-05
9.84389e-05
9.84611e-05
9.84453e-05
9.84668e-05
9.84524e-05
9.84735e-05
9.84588e-05
9.84799e-05
9.84666e-05
9.84864e-05
9.84745e-05
9.84937e-05
9.84816e-05
9.85004e-05
9.84898e-05
9.8507e-05
9.84976e-05
9.8514e-05
9.8504e-05
9.85203e-05
9.85116e-05
9.85264e-05
9.85188e-05
9.85327e-05
9.8524e-05
9.85377e-05
9.85302e-05
9.85419e-05
9.85365e-05
9.8547e-05
9.85415e-05
9.8551e-05
9.85462e-05
9.85541e-05
9.85506e-05
9.85577e-05
9.85544e-05
9.85606e-05
9.85587e-05
9.85632e-05
9.85604e-05
9.85642e-05
9.85624e-05
9.85656e-05
9.85651e-05
9.85677e-05
9.85668e-05
9.85684e-05
9.85671e-05
9.85677e-05
9.85668e-05
9.8568e-05
9.85681e-05
9.85688e-05
9.85691e-05
9.85688e-05
9.85676e-05
9.85672e-05
9.85662e-05
9.85663e-05
9.8567e-05
9.85679e-05
9.85683e-05
9.85675e-05
9.85667e-05
9.85654e-05
9.85641e-05
9.85647e-05
9.85659e-05
9.85669e-05
9.85674e-05
9.8567e-05
9.85658e-05
9.85644e-05
9.85625e-05
9.85633e-05
9.85646e-05
9.85664e-05
9.85673e-05
9.85676e-05
9.85636e-05
9.85654e-05
9.85669e-05
9.85465e-05
9.8551e-05
9.8555e-05
9.85606e-05
9.85593e-05
9.85836e-05
9.85506e-05
9.83462e-05
9.86636e-05
9.42685e-05
9.003e-05
9.24178e-05
9.36398e-05
9.43891e-05
8.46645e-05
4.20027e-05
2.86385e-05
2.32697e-05
2.0955e-05
2.05716e-05
2.2299e-05
2.55057e-05
2.98191e-05
3.50151e-05
3.95051e-05
4.37331e-05
4.81728e-05
5.27968e-05
5.74696e-05
6.20258e-05
6.63808e-05
7.05687e-05
7.47133e-05
7.88101e-05
8.29081e-05
8.69816e-05
8.98923e-05
9.20785e-05
9.39921e-05
9.56692e-05
9.71397e-05
9.84281e-05
9.95531e-05
0.000100533
0.000101381
0.000102111
0.000102737
0.000103275
0.000103741
0.000104143
0.000104491
0.00010479
0.000105048
0.000105269
0.000105459
0.000105622
0.000105763
0.000105882
0.000105986
0.000106074
0.00010615
0.000106215
0.00010627
0.000106317
0.000106357
0.000106391
0.000106424
0.000106446
0.00010648
0.000106481
0.00010653
0.000106065
0.000107535
0.000109473
0.000107195
0.000102749
0.000102516
0.00010273
0.000103501
0.000104393
0.000105389
0.000106375
0.000107315
0.000108155
0.00010889
0.000109523
0.000110059
0.000110507
0.000110877
0.00011118
0.000111424
0.000111619
0.000111772
0.00011189
0.000111982
0.00011205
0.0001121
0.000112136
0.000112161
0.000112178
0.000112188
0.000112194
0.000112197
0.000112197
0.000112196
0.000112194
0.000112191
0.000112188
0.000112186
0.000112183
0.000112181
0.000112179
0.000112177
0.000112176
0.000112175
0.000112174
0.000112173
0.000112172
0.000112172
0.000112172
0.000112172
0.000112172
0.000112171
0.000112171
0.000112172
0.000112172
0.000112172
0.000112171
0.000112172
0.000112172
0.000112172
0.000112172
0.000112172
0.000112172
0.000112172
0.000112172
0.000112172
0.000112172
0.000112173
0.000112173
0.000112173
0.000112173
0.000112172
0.000112172
0.000112172
0.000112171
0.000112171
0.00011217
0.00011217
0.000112169
0.000112168
0.000112167
0.000112167
0.000112165
0.000112165
0.000112162
0.000112162
0.000112159
0.000112159
0.000112155
0.000112155
0.000112151
0.000112151
0.000112145
0.000112146
0.000112139
0.00011214
0.000112132
0.000112134
0.000112125
0.000112127
0.000112117
0.000112119
0.000112108
0.00011211
0.000112098
0.000112102
0.000112088
0.000112092
0.000112079
0.000112083
0.000112068
0.000112074
0.000112058
0.000112064
0.000112048
0.000112055
0.000112038
0.000112046
0.000112028
0.000112037
0.000112019
0.00011203
0.000112012
0.000112024
0.000112005
0.000112018
0.000111999
0.000112013
0.000111995
0.00011201
0.000111992
0.000112008
0.000111989
0.000112007
0.000111988
0.000112006
0.000111989
0.000112008
0.00011199
0.00011201
0.000111992
0.000112012
0.000111997
0.000112017
0.000112002
0.000112022
0.000112008
0.000112028
0.000112015
0.000112035
0.000112023
0.000112042
0.000112031
0.00011205
0.00011204
0.000112058
0.000112049
0.000112067
0.000112058
0.000112075
0.000112068
0.000112083
0.000112077
0.000112092
0.000112086
0.0001121
0.000112095
0.000112108
0.000112104
0.000112116
0.000112111
0.000112123
0.000112119
0.000112129
0.000112127
0.000112136
0.000112133
0.000112142
0.000112139
0.000112146
0.000112145
0.000112151
0.00011215
0.000112156
0.000112155
0.00011216
0.000112158
0.000112162
0.000112161
0.000112164
0.000112165
0.000112167
0.000112167
0.000112169
0.000112168
0.000112169
0.000112169
0.00011217
0.00011217
0.000112171
0.000112172
0.000112172
0.000112171
0.00011217
0.000112169
0.000112169
0.00011217
0.000112171
0.000112172
0.000112171
0.00011217
0.000112169
0.000112167
0.000112168
0.000112169
0.00011217
0.000112171
0.000112171
0.000112169
0.000112168
0.000112166
0.000112166
0.000112168
0.00011217
0.000112171
0.000112171
0.000112168
0.000112168
0.000112169
0.000112153
0.000112155
0.000112157
0.000112161
0.000112161
0.000112179
0.000112156
0.000111988
0.000112204
0.000108641
0.00010425
0.000105654
0.000106564
0.000107269
0.00010175
9.63477e-05
6.48129e-05
4.64428e-05
3.59493e-05
2.97221e-05
2.63943e-05
2.47925e-05
2.50745e-05
2.69862e-05
3.00985e-05
3.41204e-05
3.88497e-05
4.34295e-05
4.74338e-05
5.17785e-05
5.65065e-05
6.16426e-05
6.71583e-05
7.2954e-05
7.92791e-05
8.35802e-05
8.74645e-05
9.09493e-05
9.40996e-05
9.69609e-05
9.9551e-05
0.000101874
0.000103935
0.000105751
0.000107337
0.000108715
0.000109908
0.000110941
0.000111837
0.000112612
0.000113282
0.00011386
0.000114357
0.000114785
0.000115153
0.000115469
0.000115741
0.000115974
0.000116174
0.000116345
0.000116493
0.000116619
0.000116726
0.000116819
0.000116897
0.000116964
0.000117025
0.000117072
0.000117129
0.000117155
0.00011723
0.000116934
0.000117966
0.0001195
0.000117465
0.000114056
0.000113363
0.000113079
0.000113338
0.000113835
0.000114565
0.000115426
0.000116345
0.000117238
0.000118062
0.000118799
0.000119439
0.000119985
0.000120445
0.000120828
0.000121142
0.000121399
0.000121606
0.000121771
0.000121902
0.000122004
0.000122083
0.000122144
0.000122189
0.000122223
0.000122248
0.000122266
0.000122279
0.000122287
0.000122293
0.000122296
0.000122298
0.000122299
0.0001223
0.0001223
0.0001223
0.0001223
0.000122299
0.000122299
0.000122299
0.000122299
0.000122299
0.000122298
0.000122299
0.000122299
0.000122299
0.000122299
0.000122299
0.000122299
0.0001223
0.0001223
0.0001223
0.0001223
0.0001223
0.0001223
0.000122301
0.000122301
0.0001223
0.000122301
0.000122301
0.000122301
0.000122301
0.000122301
0.000122301
0.000122302
0.000122301
0.000122302
0.000122301
0.000122301
0.000122301
0.000122301
0.0001223
0.000122299
0.000122299
0.000122298
0.000122298
0.000122296
0.000122296
0.000122294
0.000122294
0.000122291
0.000122291
0.000122288
0.000122287
0.000122284
0.000122283
0.000122279
0.000122279
0.000122274
0.000122274
0.000122267
0.000122267
0.00012226
0.00012226
0.000122253
0.000122253
0.000122244
0.000122244
0.000122234
0.000122234
0.000122223
0.000122224
0.000122212
0.000122214
0.000122201
0.000122204
0.00012219
0.000122193
0.000122178
0.000122181
0.000122167
0.000122171
0.000122155
0.00012216
0.000122144
0.000122149
0.000122133
0.00012214
0.000122124
0.000122132
0.000122116
0.000122125
0.000122108
0.000122118
0.000122103
0.000122113
0.000122098
0.00012211
0.000122095
0.000122107
0.000122093
0.000122106
0.000122093
0.000122107
0.000122094
0.000122108
0.000122095
0.00012211
0.000122099
0.000122114
0.000122104
0.00012212
0.00012211
0.000122126
0.000122118
0.000122133
0.000122126
0.000122141
0.000122134
0.00012215
0.000122144
0.000122159
0.000122154
0.000122168
0.000122164
0.000122178
0.000122175
0.000122188
0.000122185
0.000122198
0.000122195
0.000122207
0.000122206
0.000122217
0.000122216
0.000122226
0.000122225
0.000122235
0.000122234
0.000122242
0.000122243
0.00012225
0.00012225
0.000122258
0.000122258
0.000122264
0.000122264
0.00012227
0.000122271
0.000122276
0.000122277
0.000122281
0.000122281
0.000122284
0.000122285
0.000122288
0.000122289
0.000122291
0.000122292
0.000122294
0.000122294
0.000122295
0.000122295
0.000122296
0.000122297
0.000122298
0.000122299
0.000122299
0.000122298
0.000122298
0.000122297
0.000122298
0.000122298
0.000122299
0.0001223
0.000122299
0.000122298
0.000122297
0.000122296
0.000122296
0.000122297
0.000122298
0.000122299
0.000122299
0.000122297
0.000122296
0.000122294
0.000122295
0.000122296
0.000122297
0.000122299
0.000122299
0.000122296
0.000122296
0.000122296
0.000122285
0.000122285
0.000122285
0.000122288
0.000122288
0.000122301
0.000122286
0.000122162
0.000122282
0.000119716
0.000115851
0.000116313
0.000116727
0.000117162
0.000105185
0.00011236
0.000126922
9.06903e-05
6.95284e-05
5.59955e-05
4.45837e-05
3.69481e-05
3.19876e-05
2.92044e-05
2.82696e-05
2.88946e-05
3.08364e-05
3.38128e-05
3.75782e-05
4.1886e-05
4.65907e-05
5.15793e-05
5.68102e-05
6.22689e-05
6.79389e-05
7.36313e-05
7.92486e-05
8.46559e-05
8.96991e-05
9.42623e-05
9.83102e-05
0.000101873
0.000105
0.000107734
0.000110117
0.000112184
0.000113974
0.000115523
0.000116865
0.000118025
0.000119026
0.00011989
0.000120634
0.000121274
0.000121824
0.000122297
0.000122703
0.000123052
0.000123351
0.000123607
0.000123828
0.000124016
0.000124178
0.000124316
0.000124434
0.000124535
0.000124624
0.000124697
0.000124785
0.000124831
0.000124945
0.000124801
0.000125434
0.000126337
0.000124889
0.000122325
0.000121345
0.000120746
0.000120667
0.000120864
0.000121343
0.000122012
0.000122803
0.000123635
0.000124448
0.000125205
0.000125882
0.000126473
0.000126979
0.000127406
0.000127761
0.000128054
0.000128294
0.000128487
0.000128643
0.000128768
0.000128866
0.000128944
0.000129004
0.00012905
0.000129087
0.000129114
0.000129135
0.00012915
0.000129162
0.00012917
0.000129177
0.000129181
0.000129185
0.000129188
0.00012919
0.000129191
0.000129192
0.000129194
0.000129195
0.000129195
0.000129196
0.000129197
0.000129197
0.000129198
0.000129198
0.000129199
0.000129199
0.0001292
0.0001292
0.000129201
0.000129201
0.000129201
0.000129201
0.000129202
0.000129202
0.000129202
0.000129202
0.000129202
0.000129202
0.000129202
0.000129203
0.000129203
0.000129203
0.000129203
0.000129203
0.000129203
0.000129203
0.000129203
0.000129203
0.000129202
0.000129202
0.000129201
0.000129201
0.0001292
0.000129199
0.000129199
0.000129198
0.000129197
0.000129196
0.000129194
0.000129192
0.00012919
0.000129189
0.000129186
0.000129185
0.000129182
0.000129181
0.000129177
0.000129175
0.00012917
0.000129168
0.000129163
0.000129161
0.000129156
0.000129153
0.000129147
0.000129144
0.000129137
0.000129134
0.000129126
0.000129123
0.000129115
0.000129112
0.000129103
0.000129101
0.000129091
0.000129089
0.000129079
0.000129077
0.000129067
0.000129065
0.000129054
0.000129053
0.000129042
0.000129041
0.000129031
0.00012903
0.000129021
0.000129021
0.000129011
0.000129012
0.000129003
0.000129005
0.000128996
0.000128998
0.000128991
0.000128994
0.000128986
0.000128991
0.000128984
0.000128988
0.000128982
0.000128988
0.000128983
0.000128989
0.000128984
0.000128991
0.000128987
0.000128994
0.000128991
0.000129
0.000128997
0.000129006
0.000129004
0.000129013
0.000129012
0.000129021
0.000129021
0.00012903
0.000129031
0.00012904
0.000129041
0.00012905
0.000129051
0.00012906
0.000129062
0.000129071
0.000129073
0.000129082
0.000129084
0.000129093
0.000129095
0.000129103
0.000129105
0.000129113
0.000129116
0.000129123
0.000129125
0.000129132
0.000129135
0.000129141
0.000129143
0.000129149
0.000129151
0.000129157
0.000129159
0.000129164
0.000129166
0.00012917
0.000129172
0.000129176
0.000129178
0.000129181
0.000129182
0.000129185
0.000129186
0.000129189
0.00012919
0.000129192
0.000129193
0.000129194
0.000129195
0.000129196
0.000129197
0.000129197
0.000129198
0.000129199
0.000129199
0.000129199
0.000129198
0.000129198
0.000129199
0.000129199
0.0001292
0.0001292
0.000129199
0.000129198
0.000129197
0.000129198
0.000129198
0.000129198
0.000129199
0.000129199
0.000129198
0.000129197
0.000129196
0.000129196
0.000129196
0.000129197
0.000129198
0.000129198
0.000129197
0.000129197
0.000129196
0.00012919
0.000129188
0.000129187
0.000129189
0.000129189
0.000129197
0.000129189
0.000129108
0.00012916
0.000127516
0.000124762
0.000124465
0.000124308
0.00012439
9.73189e-05
0.00011
0.000140647
0.000132817
0.000102411
8.28999e-05
6.68491e-05
5.54911e-05
4.74271e-05
4.13581e-05
3.64639e-05
3.34559e-05
3.22088e-05
3.24804e-05
3.38611e-05
3.63479e-05
3.98581e-05
4.43113e-05
4.94568e-05
5.50864e-05
6.10978e-05
6.73578e-05
7.37289e-05
8.00298e-05
8.60126e-05
9.15363e-05
9.65081e-05
0.000100911
0.000104774
0.000108143
0.000111073
0.000113606
0.000115792
0.00011768
0.000119313
0.000120724
0.000121942
0.000122991
0.000123895
0.000124672
0.00012534
0.000125914
0.000126407
0.00012683
0.000127193
0.000127504
0.000127771
0.000128
0.000128196
0.000128364
0.000128508
0.00012863
0.000128738
0.000128827
0.000128947
0.000128993
0.000129164
0.000129089
0.000129522
0.000129992
0.000128851
0.000126758
0.000125539
0.000124728
0.000124482
0.000124522
0.000124877
0.000125442
0.000126153
0.000126933
0.000127722
0.000128473
0.000129157
0.000129762
0.000130284
0.000130727
0.000131098
0.000131406
0.000131659
0.000131864
0.000132031
0.000132165
0.000132272
0.000132358
0.000132425
0.000132478
0.000132519
0.000132552
0.000132577
0.000132596
0.000132611
0.000132622
0.000132631
0.000132638
0.000132643
0.000132648
0.000132651
0.000132654
0.000132656
0.000132658
0.000132659
0.000132661
0.000132662
0.000132663
0.000132664
0.000132665
0.000132666
0.000132667
0.000132667
0.000132668
0.000132668
0.000132669
0.000132669
0.000132669
0.00013267
0.00013267
0.00013267
0.000132671
0.000132671
0.000132671
0.000132671
0.000132671
0.000132671
0.000132671
0.000132672
0.000132672
0.000132672
0.000132672
0.000132672
0.000132672
0.000132672
0.000132671
0.000132671
0.00013267
0.00013267
0.000132669
0.000132668
0.000132668
0.000132667
0.000132666
0.000132665
0.000132663
0.000132662
0.00013266
0.000132658
0.000132656
0.000132654
0.000132652
0.00013265
0.000132647
0.000132644
0.000132641
0.000132637
0.000132634
0.00013263
0.000132627
0.000132622
0.000132618
0.000132613
0.000132608
0.000132602
0.000132598
0.000132592
0.000132587
0.00013258
0.000132575
0.000132568
0.000132563
0.000132556
0.000132551
0.000132544
0.000132538
0.000132531
0.000132526
0.000132519
0.000132513
0.000132506
0.000132501
0.000132495
0.000132491
0.000132485
0.000132481
0.000132476
0.000132472
0.000132468
0.000132465
0.000132461
0.000132459
0.000132456
0.000132454
0.000132452
0.000132451
0.000132449
0.000132449
0.000132448
0.000132449
0.000132449
0.000132449
0.00013245
0.000132452
0.000132454
0.000132456
0.000132459
0.000132461
0.000132465
0.000132468
0.000132472
0.000132476
0.00013248
0.000132484
0.000132489
0.000132494
0.000132499
0.000132504
0.000132509
0.000132514
0.00013252
0.000132525
0.000132531
0.000132536
0.000132542
0.000132547
0.000132553
0.000132558
0.000132564
0.000132569
0.000132575
0.000132579
0.000132585
0.000132589
0.000132595
0.000132599
0.000132604
0.000132608
0.000132612
0.000132616
0.000132621
0.000132624
0.000132628
0.000132631
0.000132634
0.000132637
0.000132641
0.000132643
0.000132646
0.000132649
0.000132651
0.000132653
0.000132655
0.000132657
0.000132658
0.00013266
0.000132661
0.000132662
0.000132663
0.000132664
0.000132665
0.000132665
0.000132666
0.000132667
0.000132667
0.000132667
0.000132667
0.000132667
0.000132667
0.000132667
0.000132667
0.000132667
0.000132667
0.000132667
0.000132667
0.000132667
0.000132666
0.000132667
0.000132667
0.000132667
0.000132666
0.000132665
0.000132665
0.000132665
0.000132665
0.000132665
0.000132666
0.000132665
0.000132665
0.000132665
0.000132661
0.000132659
0.000132657
0.000132658
0.000132657
0.000132663
0.00013266
0.000132611
0.000132645
0.000131591
0.000130009
0.000129183
0.000128564
0.000128403
)
;

boundaryField
{
    inlet
    {
        type            calculated;
        value           nonuniform List<scalar> 8(1.74044e-06 1.14396e-05 3.27757e-05 7.66543e-05 9.92842e-05 9.74492e-05 0.000102249 9.47505e-05);
    }
    outlet
    {
        type            calculated;
        value           nonuniform List<scalar> 8(2.27263e-05 5.38805e-05 7.72571e-05 9.43891e-05 0.000107269 0.000117162 0.00012439 0.000128403);
    }
    sideWall
    {
        type            empty;
    }
    bed
    {
        type            nutRoughWallFunction;
        Cmu             0.09;