/*--------------------------------*- C++ -*----------------------------------*\
| =========                 |                                                 |
| \\      /  F ield         | foam-extend: Open Source CFD                    |
|  \\    /   O peration     | Version:     3.2                                |
|   \\  /    A nd           | Web:         http://www.foam-extend.org         |
|    \\/     M anipulation  | For copyright notice see file Copyright         |
\*---------------------------------------------------------------------------*/
FoamFile
{
    version     2.0;
    format      ascii;
    class       volScalarField;
    location    "2000";
    object      omega;
}
// * * * * * * * * * * * * * * * * * * * * * * * * * * * * * * * * * * * * * //

dimensions      [0 0 -1 0 0 0 0];

internalField   nonuniform List<scalar> 
2400
(
143.497
158.415
145.923
134.372
127.262
124.216
123.009
122.859
123.06
123.47
123.962
124.462
124.944
125.451
125.935
126.425
126.942
127.455
127.978
128.502
129.025
129.547
130.082
130.628
131.153
131.634
132.067
132.446
132.775
133.056
133.296
133.501
133.671
133.811
133.923
134.015
134.092
134.157
134.211
134.257
134.296
134.33
134.358
134.383
134.402
134.422
134.435
134.45
134.458
134.473
134.471
134.497
134.463
134.551
134.381
134.748
133.962
135.467
129.769
140.164
164.296
159.161
149.211
149.719
148.814
148.999
148.886
148.936
148.958
148.988
149.001
149.019
149.041
149.057
149.071
149.081
149.089
149.094
149.099
149.1
149.099
149.101
149.099
149.097
149.097
149.095
149.092
149.093
149.09
149.089
149.087
149.085
149.086
149.085
149.083
149.085
149.083
149.083
149.083
149.081
149.083
149.082
149.082
149.082
149.08
149.082
149.081
149.082
149.081
149.08
149.082
149.081
149.081
149.081
149.079
149.082
149.08
149.081
149.08
149.079
149.081
149.081
149.081
149.08
149.079
149.08
149.082
149.078
149.084
149.074
149.086
149.073
149.086
149.071
149.086
149.069
149.09
149.065
149.094
149.063
149.096
149.06
149.097
149.057
149.102
149.051
149.107
149.044
149.112
149.04
149.115
149.035
149.118
149.029
149.125
149.022
149.131
149.017
149.135
149.012
149.137
149.007
149.143
149.001
149.147
148.994
149.151
148.991
149.152
148.989
149.157
148.985
149.159
148.985
149.159
148.984
149.157
148.984
149.159
148.983
149.159
148.986
149.157
148.989
149.152
148.992
149.151
148.993
149.149
148.999
149.144
149.004
149.142
149.007
149.139
149.014
149.134
149.02
149.127
149.026
149.125
149.03
149.122
149.038
149.117
149.044
149.115
149.049
149.113
149.056
149.108
149.062
149.107
149.065
149.105
149.071
149.101
149.075
149.101
149.077
149.1
149.082
149.096
149.085
149.096
149.085
149.096
149.088
149.093
149.091
149.093
149.09
149.092
149.091
149.09
149.092
149.09
149.091
149.09
149.091
149.088
149.09
149.089
149.091
149.088
149.091
149.089
149.089
149.088
149.089
149.086
149.088
149.086
149.086
149.085
149.086
149.085
149.084
149.085
149.084
149.083
149.084
149.083
149.082
149.082
149.083
149.083
149.081
149.083
149.081
149.081
149.08
149.082
149.081
149.081
149.081
149.083
149.083
149.081
149.082
149.081
149.083
149.075
149.098
149.052
149.096
149.105
149.047
149.07
149.042
149.119
148.972
149.268
149.124
147.876
155.157
135.301
124.882
130.939
132.105
47.6359
64.9261
63.4223
61.9134
60.3091
58.7296
57.3049
56.0878
55.0936
54.3202
53.7369
53.2906
52.9587
52.7181
52.5809
52.4976
52.4659
52.4788
52.5281
52.6039
52.7023
52.8105
52.9177
53.0229
53.1265
53.2247
53.3154
53.3977
53.4711
53.5357
53.592
53.6417
53.6849
53.7222
53.7529
53.7786
53.7999
53.8184
53.8337
53.8473
53.8584
53.8684
53.8764
53.8838
53.8895
53.895
53.8989
53.9032
53.9058
53.9094
53.9113
53.914
53.914
53.9189
53.913
53.9333
53.9181
54.2586
53.8371
51.627
55.3775
62.7079
61.9273
61.3056
60.9974
60.8099
60.6606
60.5375
60.4271
60.3371
60.2589
60.1897
60.1302
60.0783
60.033
59.9934
59.9591
59.9293
59.9038
59.8825
59.864
59.849
59.8368
59.8265
59.8184
59.8124
59.8071
59.8034
59.801
59.7987
59.7977
59.7963
59.7955
59.7955
59.7951
59.7949
59.7955
59.7954
59.7961
59.7958
59.7958
59.7964
59.7963
59.7969
59.7965
59.7965
59.7971
59.7968
59.7973
59.7969
59.7967
59.7972
59.797
59.7973
59.7969
59.7967
59.7972
59.7969
59.7973
59.7967
59.7967
59.7968
59.7968
59.7969
59.7967
59.7964
59.7968
59.7967
59.7962
59.7974
59.7953
59.7983
59.7954
59.7988
59.7952
59.7989
59.7947
59.8001
59.7942
59.8017
59.7944
59.8034
59.7942
59.8045
59.7938
59.8066
59.7934
59.8088
59.7926
59.8115
59.7926
59.8143
59.7923
59.8166
59.7919
59.82
59.7915
59.8239
59.7919
59.8277
59.792
59.8309
59.7921
59.8348
59.7923
59.8386
59.7921
59.8425
59.7928
59.8456
59.7934
59.8493
59.794
59.8529
59.7954
59.8559
59.7964
59.8576
59.7974
59.8597
59.7981
59.8617
59.7996
59.863
59.8008
59.8632
59.8018
59.8636
59.8024
59.8638
59.8038
59.863
59.8049
59.8623
59.8056
59.8614
59.8068
59.86
59.8075
59.8574
59.8081
59.8552
59.8083
59.8533
59.8091
59.8504
59.8098
59.8478
59.8097
59.8453
59.8102
59.8422
59.8106
59.8396
59.8104
59.8369
59.8104
59.8335
59.8103
59.8311
59.8098
59.8291
59.8095
59.8257
59.8089
59.8229
59.8077
59.8218
59.8075
59.8194
59.8074
59.8164
59.8059
59.8138
59.8054
59.8121
59.8054
59.8108
59.8044
59.8085
59.8033
59.8059
59.8026
59.8061
59.8029
59.8056
59.8028
59.8036
59.8013
59.8023
59.8009
59.8021
59.8018
59.8025
59.8011
59.8007
59.7998
59.7997
59.7995
59.8004
59.8004
59.8011
59.8007
59.7994
59.7984
59.7982
59.7987
59.7992
59.7996
59.8008
59.8
59.7988
59.7977
59.7979
59.798
59.7989
59.7995
59.8009
59.8003
59.7991
59.798
59.7979
59.797
59.7984
59.804
59.7939
59.8105
59.8019
59.796
59.7946
59.7968
59.8041
59.7772
59.9446
59.4436
60.6273
63.3301
57.9218
55.2797
54.4247
16.2234
27.3439
32.6097
35.5044
36.4089
35.9091
35.0535
34.4013
33.9158
33.5217
33.1371
32.7587
32.4162
32.1303
31.8992
31.7081
31.5593
31.4397
31.3508
31.2827
31.2314
31.1885
31.1432
31.0939
31.0444
30.9957
30.9481
30.9024
30.859
30.8183
30.7805
30.7462
30.7155
30.6885
30.6647
30.6437
30.6255
30.6096
30.5958
30.584
30.5737
30.5648
30.5572
30.5506
30.5451
30.5401
30.5361
30.5323
30.5294
30.5264
30.5243
30.5222
30.5212
30.5189
30.5201
30.5179
30.549
30.7702
31.0008
28.754
28.8415
32.9577
33.5387
33.8049
33.9436
34.0708
34.1486
34.1925
34.214
34.2168
34.2066
34.185
34.1581
34.1283
34.0975
34.0667
34.0373
34.0094
33.9837
33.9611
33.9404
33.9224
33.9069
33.8932
33.8818
33.8725
33.8644
33.8578
33.8528
33.8484
33.8453
33.8425
33.8403
33.8389
33.8377
33.8366
33.8363
33.8357
33.8357
33.8354
33.8351
33.8353
33.8351
33.8354
33.8352
33.8351
33.8354
33.8352
33.8356
33.8354
33.8352
33.8355
33.8353
33.8356
33.8354
33.8353
33.8355
33.8352
33.8357
33.8354
33.8353
33.8353
33.8353
33.8354
33.8353
33.8351
33.8352
33.8353
33.835
33.8357
33.8345
33.8363
33.8344
33.8369
33.8343
33.837
33.8341
33.8377
33.8336
33.8388
33.8334
33.8402
33.8334
33.8412
33.8331
33.8427
33.8329
33.8446
33.8323
33.8468
33.8319
33.8493
33.8317
33.8514
33.8313
33.8541
33.8307
33.8573
33.8305
33.8608
33.8305
33.8637
33.8303
33.8671
33.8303
33.8706
33.8299
33.8742
33.83
33.8773
33.8302
33.8805
33.8302
33.8839
33.8307
33.8868
33.8315
33.8887
33.8322
33.8908
33.8328
33.8925
33.8339
33.8938
33.8351
33.8943
33.8359
33.8948
33.8365
33.895
33.8377
33.8944
33.8386
33.894
33.8393
33.8931
33.8404
33.8919
33.8413
33.8899
33.842
33.888
33.8424
33.886
33.8432
33.8835
33.8437
33.8811
33.8439
33.8786
33.8446
33.8759
33.8448
33.8734
33.8449
33.8707
33.8453
33.8678
33.8452
33.8654
33.8451
33.863
33.8452
33.8601
33.8449
33.8578
33.8445
33.8558
33.8446
33.8537
33.844
33.8516
33.8432
33.8496
33.843
33.8476
33.8426
33.8466
33.8418
33.8449
33.8412
33.843
33.8403
33.8425
33.8402
33.8417
33.8398
33.8406
33.8389
33.8396
33.8386
33.8393
33.8388
33.8393
33.8384
33.8382
33.8376
33.8375
33.8372
33.8378
33.8377
33.838
33.8379
33.8373
33.8366
33.8363
33.8365
33.8368
33.837
33.8378
33.8373
33.8369
33.8359
33.8359
33.8358
33.8364
33.8367
33.8377
33.8375
33.8369
33.836
33.8356
33.8354
33.8362
33.8409
33.8323
33.8427
33.8412
33.8374
33.836
33.835
33.8418
33.8114
33.9266
33.6129
33.9829
37.8272
35.3739
33.4685
32.4417
5.37352
10.5724
14.9758
18.4037
21.1925
23.0282
24.0468
24.4982
24.5142
24.2284
23.925
23.7197
23.559
23.4236
23.2709
23.0978
22.9249
22.7588
22.6019
22.4471
22.2924
22.1289
21.9662
21.8067
21.6509
21.4998
21.3549
21.218
21.0904
20.9735
20.8674
20.772
20.6875
20.6133
20.549
20.4934
20.4456
20.4043
20.3688
20.3383
20.3121
20.2895
20.2702
20.2535
20.2395
20.2271
20.2169
20.2076
20.2001
20.1931
20.1875
20.1826
20.1791
20.1747
20.1743
20.1692
20.1946
20.3323
20.5215
19.1041
18.4762
20.5162
21.0705
21.4821
21.7785
22.0397
22.2414
22.3899
22.4992
22.5716
22.6161
22.6378
22.6441
22.6395
22.6277
22.6112
22.5922
22.5719
22.5515
22.5321
22.5135
22.4964
22.4811
22.4672
22.4551
22.4448
22.4357
22.428
22.4216
22.4161
22.4119
22.4081
22.4052
22.4029
22.401
22.3993
22.3984
22.3974
22.3969
22.3963
22.3958
22.3957
22.3954
22.3955
22.3953
22.3951
22.3952
22.3951
22.3953
22.3952
22.395
22.3952
22.395
22.3952
22.3952
22.395
22.3952
22.395
22.3953
22.3951
22.395
22.395
22.395
22.3951
22.3951
22.3949
22.395
22.395
22.3949
22.3952
22.3946
22.3955
22.3945
22.3959
22.3946
22.396
22.3945
22.3964
22.3942
22.3969
22.3941
22.3977
22.3942
22.3984
22.3941
22.3993
22.3942
22.4004
22.394
22.4017
22.3939
22.4033
22.394
22.4046
22.394
22.4063
22.3939
22.4082
22.394
22.4103
22.3943
22.4123
22.3945
22.4144
22.3948
22.4166
22.395
22.419
22.3954
22.421
22.3959
22.4231
22.3963
22.4253
22.3968
22.4273
22.3977
22.4288
22.3984
22.4304
22.399
22.4317
22.3998
22.4329
22.4007
22.4336
22.4014
22.4342
22.4019
22.4346
22.4027
22.4346
22.4032
22.4345
22.4037
22.4341
22.4043
22.4336
22.4049
22.4326
22.4052
22.4316
22.4054
22.4304
22.4057
22.4289
22.4058
22.4275
22.4059
22.4259
22.406
22.4242
22.4059
22.4225
22.4058
22.4208
22.4057
22.4189
22.4054
22.4172
22.4052
22.4155
22.405
22.4136
22.4045
22.4119
22.4042
22.4103
22.404
22.4089
22.4033
22.4075
22.4026
22.4061
22.4023
22.4047
22.4017
22.4039
22.401
22.4027
22.4004
22.4014
22.3996
22.4008
22.3994
22.4001
22.399
22.3993
22.3982
22.3986
22.3979
22.3982
22.3979
22.3982
22.3976
22.3974
22.3969
22.3968
22.3965
22.3969
22.3969
22.3971
22.397
22.3966
22.3961
22.3957
22.3958
22.396
22.3962
22.3968
22.3965
22.3962
22.3954
22.3952
22.3952
22.3956
22.396
22.3968
22.3966
22.3961
22.3953
22.3947
22.3948
22.3954
22.3982
22.3934
22.3992
22.3993
22.3973
22.3965
22.395
22.3981
22.3812
22.4454
22.2683
22.5444
25.1785
24.1916
23.1457
22.4237
1.90417
4.02368
6.22446
8.22506
10.3035
12.3468
14.3643
16.0656
17.2723
17.9891
18.3646
18.5369
18.5339
18.4181
18.2731
18.1417
18.0215
17.8927
17.741
17.5616
17.3533
17.13
16.9021
16.6739
16.449
16.2303
16.0212
15.8251
15.6444
15.4808
15.334
15.2034
15.0884
14.9882
14.902
14.8277
14.7639
14.7092
14.6622
14.6218
14.5872
14.5575
14.5321
14.5102
14.4916
14.4755
14.462
14.4501
14.4401
14.4313
14.4239
14.4175
14.4126
14.4075
14.4052
14.4006
14.4151
14.4972
14.5687
13.7979
13.1827
14.2595
14.6215
14.961
15.2428
15.4977
15.7021
15.8663
15.9978
16.0958
16.1672
16.2158
16.247
16.2647
16.2724
16.2725
16.2673
16.2585
16.2475
16.2354
16.2228
16.2102
16.1983
16.1869
16.1766
16.1674
16.1591
16.1518
16.1455
16.14
16.1356
16.1316
16.1283
16.1256
16.1234
16.1215
16.1201
16.1189
16.1181
16.1173
16.1167
16.1163
16.1159
16.1157
16.1155
16.1153
16.1153
16.1151
16.1152
16.1151
16.115
16.115
16.115
16.1151
16.115
16.1149
16.115
16.1149
16.115
16.115
16.1149
16.1149
16.1149
16.1149
16.1149
16.1148
16.1148
16.1149
16.1148
16.115
16.1147
16.1151
16.1147
16.1153
16.1147
16.1154
16.1147
16.1156
16.1145
16.1159
16.1145
16.1164
16.1146
16.1168
16.1147
16.1173
16.1148
16.118
16.1148
16.1188
16.115
16.1197
16.1152
16.1206
16.1153
16.1216
16.1155
16.1227
16.1157
16.124
16.1161
16.1253
16.1165
16.1266
16.1169
16.128
16.1173
16.1295
16.1179
16.1309
16.1184
16.1322
16.1189
16.1336
16.1195
16.1349
16.1203
16.1361
16.1209
16.1372
16.1216
16.1382
16.1222
16.139
16.1229
16.1397
16.1235
16.1402
16.124
16.1406
16.1245
16.1408
16.1249
16.1409
16.1253
16.1408
16.1256
16.1406
16.126
16.1401
16.1261
16.1396
16.1262
16.1389
16.1263
16.1381
16.1262
16.1372
16.1261
16.1363
16.126
16.1352
16.1258
16.1342
16.1255
16.1332
16.1253
16.132
16.1249
16.1309
16.1245
16.1299
16.1242
16.1287
16.1237
16.1275
16.1232
16.1265
16.1229
16.1255
16.1223
16.1245
16.1217
16.1235
16.1212
16.1226
16.1208
16.1219
16.1202
16.1211
16.1197
16.1201
16.119
16.1196
16.1187
16.1191
16.1184
16.1185
16.1178
16.1179
16.1174
16.1176
16.1174
16.1175
16.1171
16.1169
16.1165
16.1163
16.1161
16.1164
16.1164
16.1166
16.1165
16.1162
16.1158
16.1154
16.1155
16.1157
16.1159
16.1163
16.1161
16.1159
16.1153
16.1149
16.1149
16.1153
16.1157
16.1164
16.1162
16.1158
16.1151
16.1145
16.1146
16.1151
16.1166
16.1142
16.1176
16.1178
16.1167
16.1162
16.1151
16.1162
16.1077
16.145
16.0483
16.2965
17.9426
17.4665
16.9119
16.4745
0.796548
1.65924
2.49866
3.52592
4.64913
5.84946
7.14988
8.61148
10.1541
11.5945
12.7863
13.6832
14.2828
14.6253
14.7952
14.8535
14.8199
14.7041
14.5228
14.2988
14.0483
13.7955
13.5446
13.2923
13.041
12.7952
12.5613
12.3456
12.1508
11.9777
11.8246
11.69
11.5727
11.4713
11.3844
11.3097
11.2456
11.1906
11.1435
11.103
11.0684
11.0386
11.0132
10.9914
10.9728
10.9568
10.9431
10.9314
10.9214
10.9128
10.9053
10.899
10.8938
10.889
10.8862
10.8826
10.8898
10.9352
10.9619
10.6183
10.2587
10.8215
11.0238
11.2441
11.4541
11.6618
11.8418
11.9959
12.1249
12.2285
12.3104
12.3732
12.4203
12.4544
12.4778
12.4926
12.5006
12.5034
12.5024
12.4986
12.493
12.4862
12.4789
12.4714
12.464
12.457
12.4504
12.4444
12.4391
12.4342
12.4301
12.4264
12.4233
12.4206
12.4183
12.4164
12.4149
12.4136
12.4126
12.4117
12.411
12.4105
12.4101
12.4098
12.4095
12.4093
12.4091
12.409
12.409
12.4089
12.4088
12.4088
12.4087
12.4088
12.4087
12.4087
12.4087
12.4086
12.4087
12.4087
12.4086
12.4086
12.4086
12.4086
12.4086
12.4086
12.4086
12.4086
12.4085
12.4086
12.4085
12.4087
12.4085
12.4088
12.4085
12.4089
12.4085
12.409
12.4085
12.4092
12.4085
12.4094
12.4086
12.4097
12.4087
12.41
12.4088
12.4104
12.4089
12.4109
12.4091
12.4115
12.4093
12.4121
12.4096
12.4127
12.4098
12.4134
12.4101
12.4143
12.4105
12.4151
12.4109
12.4159
12.4113
12.4169
12.4117
12.4178
12.4123
12.4187
12.4128
12.4197
12.4133
12.4206
12.4138
12.4215
12.4144
12.4223
12.415
12.4231
12.4156
12.4238
12.4161
12.4245
12.4167
12.425
12.4171
12.4254
12.4175
12.4258
12.4179
12.426
12.4182
12.4261
12.4185
12.4262
12.4187
12.4261
12.4189
12.4259
12.419
12.4256
12.419
12.4253
12.419
12.4248
12.4189
12.4243
12.4187
12.4238
12.4186
12.4231
12.4183
12.4225
12.4181
12.4218
12.4178
12.4211
12.4174
12.4204
12.4171
12.4197
12.4167
12.4189
12.4163
12.4182
12.4158
12.4175
12.4155
12.4168
12.415
12.4161
12.4145
12.4154
12.4141
12.4147
12.4137
12.4142
12.4132
12.4136
12.4128
12.4129
12.4122
12.4125
12.412
12.4121
12.4117
12.4117
12.4112
12.4112
12.4109
12.4109
12.4107
12.4108
12.4106
12.4104
12.4101
12.4099
12.4098
12.4099
12.4099
12.4101
12.4099
12.4098
12.4095
12.4092
12.4092
12.4093
12.4095
12.4098
12.4096
12.4094
12.409
12.4087
12.4087
12.409
12.4093
12.4098
12.4096
12.4094
12.4089
12.4084
12.4085
12.4088
12.4097
12.4085
12.4105
12.4106
12.4099
12.4096
12.409
12.4093
12.4055
12.4266
12.3797
12.5642
13.5153
13.2287
12.9108
12.6433
0.409155
0.807409
1.25284
1.7527
2.27691
2.82276
3.58048
4.43521
5.40949
6.48165
7.56048
8.64941
9.65705
10.4929
11.1391
11.589
11.8627
11.9912
11.9903
11.8873
11.7131
11.4843
11.218
10.934
10.6617
10.4169
10.2028
10.0158
9.85205
9.70824
9.58174
9.4707
9.37383
9.28991
9.21761
9.15521
9.10145
9.05515
9.01536
8.98112
8.95177
8.92654
8.90494
8.88638
8.87052
8.85689
8.84527
8.83528
8.82676
8.81942
8.81312
8.80771
8.80324
8.79925
8.79741
8.79468
8.79949
8.8217
8.83676
8.75668
8.67634
8.97442
9.09671
9.23438
9.37882
9.5301
9.67387
9.80541
9.92243
10.0235
10.109
10.1793
10.236
10.2806
10.3146
10.3395
10.357
10.3683
10.3748
10.3775
10.3775
10.3754
10.3721
10.3678
10.363
10.3581
10.3532
10.3485
10.3441
10.3401
10.3365
10.3332
10.3304
10.3279
10.3257
10.3239
10.3224
10.3211
10.32
10.3191
10.3184
10.3178
10.3173
10.317
10.3167
10.3164
10.3163
10.3161
10.316
10.3159
10.3159
10.3158
10.3158
10.3158
10.3157
10.3157
10.3157
10.3157
10.3157
10.3157
10.3157
10.3157
10.3156
10.3156
10.3156
10.3156
10.3156
10.3156
10.3156
10.3156
10.3156
10.3157
10.3156
10.3157
10.3156
10.3158
10.3156
10.3158
10.3156
10.3159
10.3157
10.3161
10.3158
10.3163
10.3159
10.3165
10.316
10.3167
10.3161
10.3171
10.3163
10.3174
10.3165
10.3178
10.3168
10.3182
10.317
10.3187
10.3173
10.3193
10.3177
10.3198
10.3181
10.3204
10.3185
10.321
10.3189
10.3217
10.3194
10.3223
10.3198
10.323
10.3203
10.3236
10.3208
10.3243
10.3213
10.3249
10.3218
10.3254
10.3223
10.326
10.3227
10.3265
10.3232
10.3269
10.3235
10.3273
10.3239
10.3276
10.3242
10.3278
10.3244
10.3279
10.3246
10.328
10.3248
10.3281
10.3249
10.328
10.3249
10.3279
10.3249
10.3277
10.3249
10.3274
10.3247
10.3271
10.3246
10.3268
10.3244
10.3264
10.3242
10.326
10.324
10.3256
10.3237
10.3251
10.3234
10.3247
10.3231
10.3242
10.3228
10.3237
10.3224
10.3232
10.322
10.3227
10.3217
10.3222
10.3213
10.3217
10.3209
10.3212
10.3205
10.3207
10.3201
10.3203
10.3197
10.3199
10.3194
10.3194
10.319
10.319
10.3187
10.3187
10.3184
10.3183
10.3181
10.318
10.3178
10.3177
10.3176
10.3176
10.3174
10.3173
10.3171
10.317
10.3169
10.3169
10.3169
10.3169
10.3168
10.3167
10.3165
10.3164
10.3163
10.3164
10.3164
10.3165
10.3164
10.3163
10.3161
10.316
10.316
10.3161
10.3163
10.3165
10.3164
10.3162
10.316
10.3158
10.3158
10.316
10.3164
10.316
10.317
10.317
10.3166
10.3164
10.3161
10.3163
10.3152
10.3252
10.3093
10.4126
10.8866
10.6909
10.4815
10.2977
0.287872
0.509318
0.839275
1.19112
1.53156
1.8727
2.30316
2.76493
3.25626
3.82057
4.5336
5.31469
6.12341
6.91721
7.62942
8.24436
8.73765
9.08403
9.32284
9.47704
9.5432
9.52911
9.4512
9.33056
9.18362
9.03306
8.88989
8.75831
8.63922
8.53213
8.43679
8.35162
8.27589
8.20904
8.15072
8.10017
8.0564
8.01853
7.98584
7.95763
7.93334
7.91242
7.89446
7.87901
7.86577
7.85439
7.84466
7.8363
7.82916
7.82301
7.81776
7.81322
7.80954
7.80618
7.80761
7.80395
7.81405
7.82013
7.84132
7.88722
7.97108
8.17181
8.27506
8.37585
8.49138
8.60752
8.72567
8.83973
8.94635
9.04268
9.12762
9.20021
9.26066
9.30975
9.34846
9.37808
9.39991
9.41528
9.42538
9.43134
9.4341
9.43442
9.43305
9.43046
9.42711
9.42333
9.41938
9.41542
9.41164
9.40806
9.40478
9.40181
9.39915
9.39681
9.39477
9.39301
9.39152
9.39025
9.3892
9.38832
9.38759
9.387
9.38652
9.38614
9.38583
9.38558
9.38539
9.38524
9.38513
9.38504
9.38496
9.38492
9.38487
9.38485
9.38482
9.38479
9.38479
9.38477
9.38477
9.38475
9.38474
9.38473
9.38472
9.38472
9.38471
9.3847
9.38469
9.38469
9.38467
9.38468
9.38466
9.38471
9.38467
9.38474
9.38469
9.38476
9.3847
9.38479
9.38473
9.38488
9.3848
9.38499
9.38489
9.38512
9.38499
9.38527
9.38511
9.38545
9.38526
9.38568
9.38544
9.38595
9.38566
9.38623
9.38589
9.38654
9.38615
9.38691
9.38646
9.38732
9.3868
9.38774
9.38716
9.38819
9.38754
9.38866
9.38794
9.38917
9.38837
9.38968
9.38882
9.39019
9.38927
9.39072
9.38973
9.39124
9.39019
9.39172
9.39062
9.39218
9.39104
9.39264
9.39145
9.39305
9.39183
9.39341
9.39216
9.39372
9.39245
9.394
9.39271
9.39422
9.39293
9.39437
9.39309
9.3945
9.39322
9.39456
9.3933
9.39455
9.39332
9.39449
9.3933
9.3944
9.39324
9.39424
9.39314
9.39405
9.393
9.39385
9.39285
9.39359
9.39265
9.3933
9.39242
9.39302
9.3922
9.3927
9.39192
9.39234
9.39161
9.39198
9.39132
9.39161
9.39101
9.39123
9.39067
9.39083
9.39031
9.39042
9.38996
9.39003
9.38962
9.38967
9.38928
9.38926
9.3889
9.38887
9.38855
9.38852
9.38825
9.38817
9.38791
9.38783
9.38758
9.3875
9.38729
9.38721
9.38705
9.38696
9.38681
9.38671
9.38656
9.38648
9.38633
9.38625
9.38616
9.38608
9.38599
9.38593
9.38586
9.3858
9.3857
9.38564
9.38559
9.38554
9.3855
9.38546
9.38543
9.38542
9.38532
9.38528
9.38525
9.38523
9.38522
9.38524
9.38526
9.3853
9.38519
9.38515
9.38514
9.38514
9.38519
9.38526
9.38538
9.38528
9.38576
9.38575
9.38547
9.38541
9.38523
9.38551
9.38599
9.3894
9.39288
9.43573
9.63688
9.49183
9.32096
9.17597
)
;

boundaryField
{
    inlet
    {
        type            fixedValue;
        value           uniform 0.18449;
    }
    outlet
    {
        type            zeroGradient;
    }
    sideWall
    {
        type            empty;
    }
    bed
    {
        type            omegaWallFunction;
        refValue        nonuniform List<scalar> 
300
(
143.497
158.415
145.923
134.372
127.262
124.216
123.009
122.859
123.06
123.47
123.962
124.462
124.944
125.451
125.935
126.425
126.942
127.455
127.978
128.502
129.025
129.547
130.082
130.628
131.153
131.634
132.067
132.446
132.775
133.056
133.296
133.501
133.671
133.811
133.923
134.015
134.092
134.157
134.211
134.257
134.296
134.33
134.358
134.383
134.402
134.422
134.435
134.45
134.458
134.473
134.471
134.497
134.463
134.551
134.381
134.748
133.962
135.467
129.769
140.164
164.296
159.161
149.211
149.719
148.814
148.999
148.886
148.936
148.958
148.988
149.001
149.019
149.041
149.057
149.071
149.081
149.089
149.094
149.099
149.1
149.099
149.101
149.099
149.097
149.097
149.095
149.092
149.093
149.09
149.089
149.087
149.085
149.086
149.085
149.083
149.085
149.083
149.083
149.083
149.081
149.083
149.082
149.082
149.082
149.08
149.082
149.081
149.082
149.081
149.08
149.082
149.081
149.081
149.081
149.079
149.082
149.08
149.081
149.08
149.079
149.081
149.081
149.081
149.08
149.079
149.08
149.082
149.078
149.084
149.074
149.086
149.073
149.086
149.071
149.086
149.069
149.09
149.065
149.094
149.063
149.096
149.06
149.097
149.057
149.102
149.051
149.107
149.044
149.112
149.04
149.115
149.035
149.118
149.029
149.125
149.022
149.131
149.017
149.135
149.012
149.137
149.007
149.143
149.001
149.147
148.994
149.151
148.991
149.152
148.989
149.157
148.985
149.159
148.985
149.159
148.984
149.157
148.984
149.159
148.983
149.159
148.986
149.157
148.989
149.152
148.992
149.151
148.993
149.149
148.999
149.144
149.004
149.142
149.007
149.139
149.014
149.134
149.02
149.127
149.026
149.125
149.03
149.122
149.038
149.117
149.044
149.115
149.049
149.113
149.056
149.108
149.062
149.107
149.065
149.105
149.071
149.101
149.075
149.101
149.077
149.1
149.082
149.096
149.085
149.096
149.085
149.096
149.088
149.093
149.091
149.093
149.09
149.092
149.091
149.09
149.092
149.09
149.091
149.09
149.091
149.088
149.09
149.089
149.091
149.088
149.091
149.089
149.089
149.088
149.089
149.086
149.088
149.086
149.086
149.085
149.086
149.085
149.084
149.085
149.084
149.083
149.084
149.083
149.082
149.082
149.083
149.083
149.081
149.083
149.081
149.081
149.08
149.082
149.081
149.081
149.081
149.083
149.083
149.081
149.082
149.081
149.083
149.075
149.098
149.052
149.096
149.105
149.047
149.07
149.042
149.119
148.972
149.268
149.124
147.876
155.157
135.301
124.882
130.939
132.105
)
;
        value           nonuniform List<scalar> 
300
(
143.497
158.415
145.923
134.372
127.262
124.216
123.009
122.859
123.06
123.47
123.962
124.462
124.944
125.451
125.935
126.425
126.942
127.455
127.978
128.502
129.025
129.547
130.082
130.628
131.153
131.634
132.067
132.446
132.775
133.056
133.296
133.501
133.671
133.811
133.923
134.015
134.092
134.157
134.211
134.257
134.296
134.33
134.358
134.383
134.402
134.422
134.435
134.45
134.458
134.473
134.471
134.497
134.463
134.551
134.381
134.748
133.962
135.467
129.769
140.164
164.296
159.161
149.211
149.719
148.814
148.999
148.886
148.936
148.958
148.988
149.001
149.019
149.041
149.057
149.071
149.081
149.089
149.094
149.099
149.1
149.099
149.101
149.099
149.097
149.097
149.095
149.092
149.093
149.09
149.089
149.087
149.085
149.086
149.085
149.083
149.085
149.083
149.083
149.083
149.081
149.083
149.082
149.082
149.082
149.08
149.082
149.081
149.082
149.081
149.08
149.082
149.081
149.081
149.081
149.079
149.082
149.08
149.081
149.08
149.079
149.081
149.081
149.081
149.08
149.079
149.08
149.082
149.078
149.084
149.074
149.086
149.073
149.086
149.071
149.086
149.069
149.09
149.065
149.094
149.063
149.096
149.06
149.097
149.057
149.102
149.051
149.107
149.044
149.112
149.04
149.115
149.035
149.118
149.029
149.125
149.022
149.131
149.017
149.135
149.012
149.137
149.007
149.143
149.001
149.147
148.994
149.151
148.991
149.152
148.989
149.157
148.985
149.159
148.985
149.159
148.984
149.157
148.984
149.159
148.983
149.159
148.986
149.157
148.989
149.152
148.992
149.151
148.993
149.149
148.999
149.144
149.004
149.142
149.007
149.139
149.014
149.134
149.02
149.127
149.026
149.125
149.03
149.122
149.038
149.117
149.044
149.115
149.049
149.113
149.056
149.108
149.062
149.107
149.065
149.105
149.071
149.101
149.075
149.101
149.077
149.1
149.082
149.096
149.085
149.096
149.085
149.096
149.088
149.093
149.091
149.093
149.09
149.092
149.091
149.09
149.092
149.09
149.091
149.09
149.091
149.088
149.09
149.089
149.091
149.088
149.091
149.089
149.089
149.088
149.089
149.086
149.088
149.086
149.086
149.085
149.086
149.085
149.084
149.085
149.084
149.083
149.084
149.083
149.082
149.082
149.083
149.083
149.081
149.083
149.081
149.081
149.08
149.082
149.081
149.081
149.081
149.083
149.083
149.081
149.082
149.081
149.083
149.075
149.098
149.052
149.096
149.105
149.047
149.07
149.042
149.119
148.972
149.268
149.124
147.876
155.157
135.301
124.882
130.939
132.105
)
;
        Cmu             0.09;
        kappa           0.41;
        E               9.8;
        beta1           0.075;
    }
    topWall
    {
        type            slip;
        value           nonuniform List<scalar> 
300
(
0.287872
0.509318
0.839275
1.19112
1.53156
1.8727
2.30316
2.76493
3.25626
3.82057
4.5336
5.31469
6.12341
6.91721
7.62942
8.24436
8.73765
9.08403
9.32284
9.47704
9.5432
9.52911
9.4512
9.33056
9.18362
9.03306
8.88989
8.75831
8.63922
8.53213
8.43679
8.35162
8.27589
8.20904
8.15072
8.10017
8.0564
8.01853
7.98584
7.95763
7.93334
7.91242
7.89446
7.87901
7.86577
7.85439
7.84466
7.8363
7.82916
7.82301
7.81776
7.81322
7.80954
7.80618
7.80761
7.80395
7.81405
7.82013
7.84132
7.88722
7.97108
8.17181
8.27506
8.37585
8.49138
8.60752
8.72567
8.83973
8.94635
9.04268
9.12762
9.20021
9.26066
9.30975
9.34846
9.37808
9.39991
9.41528
9.42538
9.43134
9.4341
9.43442
9.43305
9.43046
9.42711
9.42333
9.41938
9.41542
9.41164
9.40806
9.40478
9.40181
9.39915
9.39681
9.39477
9.39301
9.39152
9.39025
9.3892
9.38832
9.38759
9.387
9.38652
9.38614
9.38583
9.38558
9.38539
9.38524
9.38513
9.38504
9.38496
9.38492
9.38487
9.38485
9.38482
9.38479
9.38479
9.38477
9.38477
9.38475
9.38474
9.38473
9.38472
9.38472
9.38471
9.3847
9.38469
9.38469
9.38467
9.38468
9.38466
9.38471
9.38467
9.38474
9.38469
9.38476
9.3847
9.38479
9.38473
9.38488
9.3848
9.38499
9.38489
9.38512
9.38499
9.38527
9.38511
9.38545
9.38526
9.38568
9.38544
9.38595
9.38566
9.38623
9.38589
9.38654
9.38615
9.38691
9.38646
9.38732
9.3868
9.38774
9.38716
9.38819
9.38754
9.38866
9.38794
9.38917
9.38837
9.38968
9.38882
9.39019
9.38927
9.39072
9.38973
9.39124
9.39019
9.39172
9.39062
9.39218
9.39104
9.39264
9.39145
9.39305
9.39183
9.39341
9.39216
9.39372
9.39245
9.394
9.39271
9.39422
9.39293
9.39437
9.39309
9.3945
9.39322
9.39456
9.3933
9.39455
9.39332
9.39449
9.3933
9.3944
9.39324
9.39424
9.39314
9.39405
9.393
9.39385
9.39285
9.39359
9.39265
9.3933
9.39242
9.39302
9.3922
9.3927
9.39192
9.39234
9.39161
9.39198
9.39132
9.39161
9.39101
9.39123
9.39067
9.39083
9.39031
9.39042
9.38996
9.39003
9.38962
9.38967
9.38928
9.38926
9.3889
9.38887
9.38855
9.38852
9.38825
9.38817
9.38791
9.38783
9.38758
9.3875
9.38729
9.38721
9.38705
9.38696
9.38681
9.38671
9.38656
9.38648
9.38633
9.38625
9.38616
9.38608
9.38599
9.38593
9.38586
9.3858
9.3857
9.38564
9.38559
9.38554
9.3855
9.38546
9.38543
9.38542
9.38532
9.38528
9.38525
9.38523
9.38522
9.38524
9.38526
9.3853
9.38519
9.38515
9.38514
9.38514
9.38519
9.38526
9.38538
9.38528
9.38576
9.38575
9.38547
9.38541
9.38523
9.38551
9.38599
9.3894
9.39288
9.43573
9.63688
9.49183
9.32096
9.17597
)
;
    }
}


// ************************************************************************* //
