/*--------------------------------*- C++ -*----------------------------------*\
| =========                 |                                                 |
| \\      /  F ield         | foam-extend: Open Source CFD                    |
|  \\    /   O peration     | Version:     3.2                                |
|   \\  /    A nd           | Web:         http://www.foam-extend.org         |
|    \\/     M anipulation  | For copyright notice see file Copyright         |
\*---------------------------------------------------------------------------*/
FoamFile
{
    version     2.0;
    format      ascii;
    class       volScalarField;
    location    "2000";
    object      p;
}
// * * * * * * * * * * * * * * * * * * * * * * * * * * * * * * * * * * * * * //

dimensions      [1 -1 -2 0 0 0 0];

internalField   nonuniform List<scalar> 
2400
(
596.329
592.271
592.298
591.741
592.352
592.975
593.93
594.829
595.848
596.85
597.885
598.914
599.97
601.028
602.089
603.164
604.226
605.295
606.359
607.426
608.49
609.556
610.609
611.642
612.651
613.642
614.611
615.563
616.499
617.419
618.327
619.222
620.107
620.986
621.859
622.727
623.591
624.451
625.307
626.162
627.013
627.863
628.711
629.558
630.404
631.249
632.092
632.936
633.777
634.622
635.456
636.314
637.117
638.037
638.709
639.902
640
642.405
639.803
635.336
609.739
595.982
610.773
606.949
608.827
608.654
609.401
609.889
610.46
611.012
611.57
612.117
612.639
613.149
613.637
614.108
614.557
614.989
615.401
615.797
616.179
616.546
616.9
617.247
617.581
617.909
618.232
618.548
618.859
619.17
619.475
619.782
620.083
620.385
620.686
620.986
621.283
621.585
621.882
622.184
622.481
622.779
623.08
623.377
623.679
623.977
624.275
624.576
624.874
625.176
625.474
625.772
626.074
626.372
626.674
626.973
627.27
627.573
627.87
628.173
628.47
628.771
629.07
629.37
629.671
629.97
630.269
630.568
630.873
631.165
631.475
631.761
632.078
632.358
632.681
632.954
633.282
633.549
633.885
634.14
634.489
634.732
635.094
635.323
635.698
635.913
636.305
636.502
636.913
637.087
637.522
637.672
638.132
638.256
638.74
638.839
639.35
639.417
639.96
639.997
640.571
640.576
641.179
641.155
641.789
641.735
642.399
642.312
643.008
642.89
643.614
643.469
644.219
644.048
644.824
644.63
645.427
645.215
646.027
645.802
646.627
646.388
647.226
646.978
647.824
647.571
648.42
648.167
649.014
648.762
649.609
649.361
650.2
649.963
650.791
650.565
651.381
651.171
651.971
651.779
652.559
652.389
653.146
652.998
653.734
653.609
654.319
654.222
654.905
654.834
655.492
655.448
656.078
656.063
656.665
656.676
657.254
657.29
657.84
657.905
658.429
658.518
659.021
659.132
659.611
659.746
660.202
660.356
660.796
660.968
661.39
661.581
661.984
662.19
662.578
662.797
663.175
663.408
663.774
664.016
664.372
664.623
664.965
665.225
665.563
665.833
666.162
666.441
666.761
667.042
667.358
667.644
667.957
668.25
668.56
668.853
669.158
669.453
669.755
670.051
670.356
670.654
670.959
671.259
671.559
671.856
672.154
672.454
672.756
673.054
673.36
673.657
673.958
674.253
674.555
674.849
675.153
675.45
675.756
676.054
676.353
676.653
676.946
677.256
677.53
677.866
678.096
678.477
678.782
679.044
679.393
679.559
679.964
680.283
680.473
683.578
690.434
715.777
711.45
714.314
559.614
555.686
555.67
555.109
555.722
556.343
557.297
558.195
559.212
560.214
561.247
562.275
563.331
564.388
565.449
566.524
567.586
568.654
569.718
570.785
571.849
572.914
573.968
575.001
576.009
577
577.97
578.922
579.857
580.778
581.686
582.581
583.467
584.345
585.218
586.087
586.95
587.81
588.667
589.521
590.373
591.223
592.071
592.918
593.763
594.608
595.451
596.295
597.136
597.981
598.816
599.674
600.476
601.397
602.069
603.261
603.36
605.772
603.031
598.619
573.484
559.768
574.263
570.536
572.394
572.228
572.969
573.456
574.024
574.574
575.13
575.676
576.196
576.704
577.191
577.661
578.109
578.54
578.951
579.347
579.728
580.094
580.448
580.795
581.129
581.457
581.779
582.095
582.407
582.718
583.023
583.33
583.631
583.932
584.233
584.533
584.831
585.132
585.429
585.731
586.029
586.326
586.627
586.925
587.226
587.525
587.822
588.124
588.421
588.723
589.022
589.319
589.621
589.919
590.221
590.52
590.818
591.12
591.417
591.721
592.018
592.318
592.618
592.918
593.218
593.518
593.817
594.115
594.42
594.712
595.023
595.308
595.625
595.905
596.228
596.501
596.829
597.096
597.432
597.687
598.036
598.279
598.642
598.87
599.245
599.461
599.852
600.05
600.461
600.634
601.07
601.22
601.679
601.804
602.287
602.386
602.897
602.965
603.507
603.545
604.118
604.124
604.726
604.703
605.336
605.283
605.946
605.86
606.555
606.438
607.161
607.017
607.766
607.596
608.371
608.178
608.974
608.763
609.574
609.35
610.174
609.937
610.773
610.527
611.372
611.12
611.967
611.715
612.562
612.311
613.156
612.91
613.747
613.511
614.338
614.113
614.928
614.719
615.518
615.327
616.106
615.937
616.693
616.547
617.281
617.158
617.866
617.771
618.453
618.383
619.039
618.996
619.625
619.611
620.213
620.225
620.801
620.839
621.388
621.453
621.977
622.067
622.569
622.681
623.158
623.294
623.749
623.904
624.343
624.516
624.937
625.129
625.531
625.738
626.126
626.345
626.722
626.956
627.321
627.564
627.919
628.17
628.513
628.773
629.11
629.381
629.709
629.988
630.308
630.589
630.905
631.191
631.504
631.798
632.107
632.401
632.705
633.001
633.302
633.598
633.904
634.202
634.506
634.807
635.106
635.403
635.702
636.001
636.303
636.602
636.908
637.205
637.506
637.8
638.101
638.397
638.7
638.998
639.304
639.601
639.9
640.2
640.493
640.803
641.077
641.414
641.644
642.023
642.329
642.591
642.94
643.105
643.518
643.826
644.01
647.258
653.959
678.974
674.807
677.675
522.871
519.054
519.062
518.503
519.102
519.715
520.665
521.561
522.577
523.578
524.61
525.638
526.693
527.75
528.809
529.885
530.946
532.014
533.078
534.144
535.209
536.274
537.327
538.36
539.369
540.36
541.329
542.281
543.217
544.138
545.045
545.94
546.826
547.705
548.578
549.446
550.31
551.17
552.026
552.881
553.732
554.582
555.43
556.278
557.123
557.968
558.811
559.655
560.496
561.341
562.176
563.033
563.836
564.756
565.428
566.621
566.718
569.133
566.237
562.138
537.742
524.197
538.253
534.624
536.456
536.294
537.025
537.507
538.069
538.613
539.163
539.702
540.218
540.721
541.204
541.67
542.115
542.543
542.952
543.346
543.725
544.09
544.443
544.788
545.122
545.45
545.771
546.087
546.398
546.709
547.014
547.321
547.621
547.923
548.224
548.524
548.822
549.123
549.42
549.722
550.02
550.317
550.618
550.915
551.217
551.515
551.813
552.114
552.412
552.714
553.013
553.31
553.612
553.91
554.212
554.511
554.809
555.111
555.408
555.711
556.008
556.309
556.609
556.909
557.209
557.509
557.808
558.106
558.411
558.703
559.013
559.299
559.616
559.896
560.219
560.492
560.82
561.087
561.423
561.678
562.027
562.27
562.633
562.862
563.236
563.452
563.843
564.041
564.451
564.626
565.06
565.211
565.67
565.795
566.278
566.378
566.888
566.957
567.498
567.536
568.109
568.116
568.717
568.695
569.328
569.275
569.938
569.852
570.547
570.43
571.152
571.01
571.758
571.589
572.362
572.171
572.966
572.756
573.566
573.343
574.166
573.93
574.765
574.52
575.364
575.113
575.959
575.709
576.554
576.304
577.148
576.903
577.739
577.505
578.33
578.107
578.921
578.713
579.511
579.321
580.098
579.931
580.686
580.54
581.273
581.151
581.859
581.764
582.445
582.376
583.032
582.989
583.618
583.604
584.205
584.218
584.793
584.832
585.38
585.446
585.969
586.059
586.561
586.673
587.151
587.286
587.741
587.896
588.335
588.509
588.929
589.121
589.523
589.73
590.117
590.337
590.713
590.948
591.313
591.556
591.91
592.162
592.504
592.765
593.102
593.373
593.701
593.98
594.299
594.581
594.896
595.183
595.495
595.789
596.099
596.392
596.696
596.991
597.293
597.589
597.895
598.193
598.498
598.798
599.097
599.394
599.692
599.991
600.294
600.594
600.899
601.196
601.496
601.79
602.091
602.387
602.691
602.99
603.296
603.593
603.891
604.189
604.482
604.793
605.068
605.405
605.636
606.013
606.319
606.582
606.931
607.096
607.518
607.81
607.997
611.347
617.677
642.171
638.164
641.022
486.165
482.436
482.44
481.874
482.476
483.085
484.034
484.928
485.943
486.943
487.975
489.002
490.057
491.113
492.172
493.247
494.308
495.376
496.439
497.505
498.569
499.634
500.687
501.72
502.728
503.719
504.689
505.641
506.576
507.497
508.404
509.3
510.185
511.064
511.937
512.806
513.669
514.529
515.386
516.24
517.092
517.942
518.79
519.637
520.482
521.328
522.171
523.015
523.856
524.701
525.535
526.393
527.196
528.116
528.788
529.98
530.076
532.487
529.477
525.997
502.858
489.53
503.054
499.512
501.318
501.156
501.872
502.343
502.891
503.422
503.96
504.488
504.993
505.487
505.961
506.42
506.858
507.28
507.684
508.073
508.449
508.811
509.162
509.505
509.837
510.163
510.484
510.799
511.11
511.42
511.724
512.031
512.332
512.634
512.935
513.234
513.532
513.833
514.131
514.432
514.73
515.028
515.329
515.626
515.927
516.226
516.523
516.825
517.123
517.425
517.723
518.021
518.323
518.621
518.923
519.222
519.519
519.822
520.119
520.422
520.719
521.019
521.319
521.619
521.92
522.219
522.518
522.817
523.121
523.414
523.724
524.009
524.327
524.606
524.929
525.203
525.531
525.798
526.134
526.389
526.738
526.981
527.343
527.573
527.947
528.163
528.554
528.752
529.162
529.337
529.771
529.923
530.381
530.507
530.989
531.09
531.598
531.669
532.209
532.249
532.819
532.829
533.428
533.409
534.038
533.989
534.649
534.566
535.258
535.145
535.864
535.725
536.469
536.304
537.074
536.887
537.678
537.472
538.278
538.06
538.878
538.646
539.477
539.237
540.076
539.83
540.672
540.426
541.267
541.022
541.861
541.62
542.452
542.222
543.043
542.824
543.634
543.43
544.224
544.038
544.812
544.648
545.399
545.257
545.987
545.868
546.572
546.481
547.159
547.093
547.745
547.706
548.331
548.32
548.919
548.934
549.507
549.547
550.094
550.161
550.683
550.774
551.274
551.388
551.864
552.001
552.454
552.611
553.047
553.223
553.642
553.835
554.236
554.443
554.829
555.05
555.425
555.661
556.025
556.269
556.622
556.874
557.215
557.477
557.813
558.085
558.413
558.692
559.011
559.292
559.607
559.894
560.207
560.501
560.811
561.104
561.408
561.702
562.004
562.3
562.606
562.905
563.21
563.51
563.808
564.104
564.402
564.702
565.005
565.306
565.612
565.908
566.207
566.5
566.801
567.097
567.403
567.702
568.009
568.306
568.602
568.898
569.19
569.503
569.778
570.117
570.349
570.723
571.029
571.292
571.641
571.807
572.236
572.509
572.708
576.079
581.716
605.389
601.517
604.372
449.452
445.806
445.809
445.24
445.848
446.452
447.397
448.292
449.307
450.307
451.339
452.365
453.42
454.476
455.536
456.61
457.671
458.738
459.802
460.867
461.931
462.996
464.049
465.08
466.089
467.079
468.049
469.001
469.936
470.857
471.764
472.659
473.545
474.424
475.297
476.165
477.029
477.889
478.746
479.6
480.452
481.302
482.15
482.997
483.842
484.687
485.53
486.374
487.215
488.06
488.895
489.753
490.555
491.476
492.148
493.34
493.434
495.839
492.791
490.326
469.123
456.025
468.959
465.475
467.252
467.085
467.777
468.229
468.756
469.267
469.784
470.293
470.781
471.259
471.718
472.164
472.591
473.003
473.399
473.781
474.151
474.508
474.854
475.194
475.523
475.848
476.167
476.48
476.79
477.1
477.404
477.71
478.011
478.312
478.613
478.913
479.211
479.512
479.809
480.111
480.409
480.706
481.007
481.305
481.606
481.905
482.202
482.504
482.802
483.103
483.402
483.7
484.002
484.3
484.601
484.901
485.198
485.501
485.798
486.101
486.398
486.698
486.998
487.298
487.598
487.898
488.197
488.496
488.8
489.092
489.403
489.688
490.005
490.285
490.608
490.882
491.209
491.477
491.812
492.068
492.417
492.66
493.022
493.252
493.626
493.843
494.233
494.432
494.841
495.017
495.45
495.603
496.06
496.188
496.668
496.771
497.278
497.351
497.888
497.931
498.499
498.512
499.108
499.092
499.719
499.672
500.329
500.25
500.938
500.83
501.545
501.41
502.151
501.99
502.756
502.573
503.359
503.159
503.96
503.747
504.56
504.334
505.16
504.925
505.759
505.518
506.355
506.114
506.95
506.71
507.544
507.309
508.136
507.911
508.727
508.513
509.318
509.119
509.908
509.727
510.495
510.337
511.083
510.946
511.67
511.557
512.256
512.169
512.842
512.781
513.429
513.393
514.015
514.008
514.602
514.621
515.19
515.234
515.777
515.848
516.366
516.46
516.957
517.074
517.547
517.686
518.137
518.295
518.73
518.907
519.324
519.519
519.918
520.126
520.511
520.733
521.107
521.343
521.706
521.951
522.303
522.556
522.896
523.158
523.494
523.766
524.094
524.373
524.691
524.972
525.287
525.574
525.887
526.182
526.491
526.785
527.087
527.381
527.683
527.979
528.286
528.586
528.89
529.19
529.487
529.783
530.08
530.38
530.685
530.986
531.292
531.588
531.886
532.178
532.478
532.775
533.082
533.384
533.691
533.986
534.281
534.575
534.866
535.18
535.456
535.797
536.03
536.4
536.706
536.97
537.321
537.487
537.925
538.169
538.39
541.683
546.182
568.651
564.867
567.722
412.775
409.162
409.164
408.606
409.21
409.813
410.756
411.654
412.669
413.67
414.7
415.728
416.784
417.839
418.899
419.973
421.034
422.101
423.165
424.231
425.294
426.358
427.41
428.442
429.45
430.44
431.409
432.361
433.296
434.217
435.124
436.019
436.905
437.784
438.657
439.525
440.389
441.249
442.105
442.96
443.811
444.661
445.509
446.357
447.202
448.047
448.89
449.734
450.575
451.42
452.254
453.112
453.915
454.835
455.507
456.699
456.793
459.189
456.18
455.248
436.75
423.941
436.204
432.741
434.485
434.309
434.969
435.391
435.888
436.369
436.856
437.337
437.8
438.255
438.693
439.12
439.531
439.929
440.312
440.683
441.044
441.394
441.734
442.069
442.395
442.716
443.033
443.345
443.653
443.962
444.265
444.571
444.871
445.172
445.473
445.773
446.071
446.372
446.669
446.971
447.269
447.567
447.868
448.165
448.467
448.766
449.063
449.365
449.662
449.964
450.263
450.561
450.862
451.16
451.462
451.761
452.059
452.361
452.658
452.961
453.258
453.559
453.858
454.158
454.459
454.758
455.058
455.356
455.66
455.953
456.263
456.548
456.865
457.145
457.468
457.742
458.07
458.337
458.673
458.929
459.277
459.521
459.882
460.113
460.486
460.704
461.093
461.293
461.702
461.879
462.311
462.465
462.921
463.05
463.53
463.634
464.14
464.214
464.751
464.795
465.362
465.376
465.971
465.957
466.582
466.538
467.193
467.117
467.803
467.697
468.409
468.278
469.016
468.859
469.622
469.443
470.226
470.03
470.827
470.618
471.428
471.206
472.028
471.797
472.627
472.391
473.223
472.987
473.819
473.584
474.413
474.183
475.005
474.785
475.596
475.387
476.187
475.993
476.777
476.601
477.365
477.21
477.952
477.819
478.54
478.43
479.125
479.042
479.712
479.653
480.298
480.266
480.884
480.88
481.471
481.492
482.059
482.105
482.645
482.718
483.234
483.33
483.825
483.943
484.414
484.554
485.004
485.163
485.597
485.775
486.19
486.386
486.784
486.993
487.376
487.599
487.972
488.209
488.571
488.816
489.167
489.42
489.76
490.022
490.358
490.63
490.957
491.237
491.554
491.835
492.149
492.436
492.749
493.044
493.353
493.647
493.949
494.243
494.544
494.84
495.147
495.447
495.752
496.051
496.349
496.643
496.941
497.241
497.546
497.848
498.154
498.45
498.748
499.038
499.338
499.635
499.943
500.246
500.553
500.849
501.142
501.435
501.725
502.04
502.316
502.66
502.893
503.258
503.564
503.829
504.182
504.349
504.798
505.001
505.255
508.362
511.162
531.983
528.213
531.074
376.127
372.523
372.512
371.958
372.567
373.17
374.115
375.012
376.028
377.029
378.06
379.09
380.145
381.201
382.26
383.336
384.397
385.464
386.528
387.593
388.656
389.72
390.772
391.803
392.811
393.801
394.77
395.722
396.657
397.578
398.485
399.38
400.265
401.144
402.017
402.885
403.749
404.609
405.465
406.319
407.171
408.021
408.869
409.716
410.562
411.407
412.25
413.094
413.935
414.78
415.614
416.472
417.275
418.195
418.867
420.059
420.153
422.535
419.636
420.866
405.867
393.517
404.973
401.491
403.2
403.009
403.626
404.01
404.466
404.906
405.354
405.798
406.227
406.651
407.062
407.464
407.852
408.231
408.597
408.955
409.304
409.644
409.976
410.305
410.625
410.942
411.256
411.565
411.872
412.179
412.481
412.786
413.086
413.387
413.688
413.988
414.285
414.587
414.884
415.186
415.484
415.782
416.083
416.381
416.682
416.981
417.278
417.58
417.878
418.179
418.478
418.776
419.078
419.376
419.677
419.977
420.274
420.577
420.874
421.176
421.474
421.774
422.074
422.374
422.674
422.973
423.273
423.571
423.875
424.168
424.478
424.764
425.08
425.36
425.683
425.957
426.285
426.552
426.888
427.144
427.493
427.737
428.098
428.329
428.702
428.92
429.309
429.509
429.918
430.096
430.528
430.682
431.138
431.268
431.747
431.852
432.358
432.433
432.969
433.015
433.581
433.597
434.191
434.178
434.802
434.76
435.414
435.339
436.024
435.921
436.632
436.503
437.239
437.085
437.846
437.67
438.451
438.257
439.052
438.846
439.654
439.435
440.255
440.027
440.854
440.621
441.451
441.218
442.046
441.815
442.641
442.414
443.233
443.016
443.825
443.619
444.416
444.225
445.006
444.832
445.593
445.441
446.181
446.05
446.768
446.661
447.354
447.273
447.94
447.884
448.526
448.496
449.112
449.109
449.699
449.721
450.286
450.334
450.872
450.946
451.46
451.558
452.051
452.17
452.639
452.78
453.228
453.389
453.82
453.999
454.414
454.61
455.006
455.216
455.599
455.822
456.193
456.43
456.792
457.037
457.388
457.641
457.98
458.242
458.577
458.85
459.176
459.456
459.773
460.054
460.368
460.655
460.967
461.261
461.571
461.864
462.167
462.461
462.762
463.058
463.364
463.664
463.968
464.268
464.566
464.861
465.158
465.457
465.762
466.063
466.369
466.665
466.964
467.255
467.555
467.852
468.159
468.461
468.768
469.064
469.359
469.653
469.943
470.257
470.532
470.878
471.111
471.47
471.777
472.042
472.398
472.568
473.03
473.175
473.479
476.291
476.73
495.398
491.555
494.429
339.512
335.89
335.868
335.31
335.922
336.526
337.471
338.37
339.386
340.387
341.419
342.449
343.505
344.561
345.62
346.698
347.758
348.825
349.889
350.954
352.017
353.082
354.134
355.165
356.172
357.162
358.131
359.082
360.017
360.938
361.845
362.74
363.625
364.504
365.377
366.245
367.108
367.968
368.825
369.679
370.531
371.381
372.229
373.076
373.921
374.766
375.609
376.453
377.294
378.139
378.974
379.832
380.634
381.554
382.227
383.418
383.513
385.878
383.156
387.242
376.617
364.877
375.388
371.859
373.528
373.315
373.88
374.216
374.621
375.011
375.41
375.808
376.195
376.58
376.956
377.326
377.687
378.042
378.388
378.728
379.062
379.389
379.712
380.032
380.345
380.657
380.967
381.274
381.578
381.883
382.184
382.488
382.788
383.088
383.389
383.689
383.987
384.288
384.585
384.887
385.186
385.484
385.785
386.082
386.383
386.683
386.98
387.282
387.58
387.881
388.18
388.478
388.78
389.078
389.379
389.679
389.976
390.279
390.575
390.878
391.176
391.476
391.776
392.075
392.375
392.675
392.975
393.273
393.577
393.869
394.18
394.465
394.782
395.062
395.384
395.658
395.986
396.254
396.59
396.846
397.195
397.439
397.8
398.031
398.405
398.623
399.012
399.212
399.621
399.799
400.231
400.386
400.842
400.972
401.451
401.557
402.063
402.139
402.675
402.721
403.288
403.304
403.899
403.887
404.511
404.469
405.123
405.05
405.734
405.632
406.343
406.216
406.952
406.799
407.559
407.385
408.165
407.973
408.768
408.563
409.37
409.153
409.972
409.745
410.571
410.34
411.169
410.937
411.765
411.535
412.36
412.135
412.953
412.738
413.545
413.34
414.135
413.946
414.725
414.554
415.313
415.163
415.9
415.771
416.487
416.382
417.073
416.993
417.659
417.604
418.245
418.216
418.83
418.828
419.416
419.44
420.003
420.052
420.588
420.663
421.176
421.274
421.765
421.886
422.354
422.495
422.942
423.103
423.533
423.712
424.126
424.322
424.718
424.928
425.309
425.532
425.903
426.14
426.5
426.746
427.096
427.35
427.688
427.95
428.284
428.556
428.882
429.162
429.48
429.761
430.074
430.361
430.672
430.965
431.274
431.568
431.872
432.166
432.467
432.762
433.067
433.366
433.67
433.97
434.269
434.565
434.863
435.162
435.464
435.764
436.07
436.367
436.667
436.961
437.261
437.557
437.861
438.161
438.467
438.765
439.062
439.359
439.651
439.964
440.235
440.583
440.817
441.169
441.475
441.742
442.1
442.274
442.751
442.824
443.196
445.61
442.946
458.897
454.897
457.787
)
;

boundaryField
{
    inlet
    {
        type            calculated;
        value           nonuniform List<scalar> 8(595.108 558.392 521.649 484.943 448.231 411.554 374.906 338.29);
    }
    outlet
    {
        type            calculated;
        value           nonuniform List<scalar> 8(714.487 677.846 641.206 604.566 567.925 531.285 494.645 458.004);
    }
    sideWall
    {
        type            empty;
    }
    bed
    {
        type            calculated;
        value           nonuniform List<scalar> 
300
(
614.65
610.591
610.618
610.061
610.672
611.295
612.251
613.15
614.168
615.171
616.205
617.234
618.291
619.348
620.409
621.485
622.547
623.615
624.679
625.746
626.811
627.876
628.929
629.962
630.971
631.962
632.931
633.884
634.819
635.74
636.647
637.542
638.428
639.306
640.179
641.047
641.911
642.771
643.627
644.482
645.333
646.183
647.031
647.879
648.724
649.569
650.412
651.256
652.097
652.942
653.776
654.634
655.437
656.357
657.029
658.222
658.32
660.722
658.158
653.665
627.995
614.259
629.087
625.246
627.127
626.952
627.701
628.188
628.759
629.312
629.87
630.417
630.94
631.449
631.937
632.409
632.858
633.29
633.702
634.098
634.48
634.847
635.201
635.548
635.882
636.211
636.533
636.849
637.16
637.472
637.777
638.084
638.385
638.686
638.987
639.287
639.585
639.886
640.183
640.485
640.783
641.08
641.381
641.679
641.98
642.279
642.576
642.878
643.175
643.477
643.776
644.073
644.375
644.673
644.975
645.274
645.572
645.874
646.171
646.475
646.772
647.072
647.372
647.672
647.972
648.272
648.571
648.869
649.174
649.466
649.777
650.062
650.379
650.659
650.982
651.255
651.584
651.85
652.186
652.441
652.791
653.033
653.396
653.624
654
654.215
654.606
654.803
655.215
655.388
655.824
655.973
656.433
656.557
657.041
657.14
657.651
657.718
658.261
658.298
658.872
658.877
659.48
659.457
660.09
660.036
660.7
660.613
661.31
661.191
661.915
661.77
662.52
662.349
663.125
662.931
663.728
663.516
664.328
664.103
664.928
664.689
665.527
665.279
666.126
665.872
666.721
666.468
667.316
667.063
667.91
667.662
668.501
668.264
669.092
668.866
669.682
669.472
670.273
670.08
670.86
670.69
671.447
671.299
672.035
671.91
672.62
672.524
673.207
673.136
673.793
673.749
674.379
674.364
674.967
674.978
675.555
675.592
676.142
676.206
676.731
676.82
677.322
677.434
677.912
678.047
678.503
678.657
679.097
679.269
679.691
679.883
680.285
680.491
680.88
681.098
681.476
681.709
682.075
682.318
682.673
682.924
683.267
683.526
683.864
684.134
684.463
684.742
685.062
685.343
685.659
685.945
686.258
686.551
686.861
687.155
687.459
687.755
688.056
688.352
688.658
688.955
689.26
689.56
689.86
690.157
690.456
690.755
691.057
691.356
691.661
691.958
692.259
692.555
692.856
693.151
693.454
693.751
694.057
694.355
694.654
694.954
695.247
695.558
695.832
696.168
696.397
696.778
697.083
697.345
697.694
697.861
698.264
698.587
698.772
701.853
708.749
734.133
729.768
732.635
)
;
    }
    topWall
    {
        type            calculated;
        value           nonuniform List<scalar> 
300
(
321.192
317.569
317.548
316.99
317.602
318.206
319.151
320.049
321.066
322.067
323.099
324.129
325.185
326.241
327.3
328.378
329.438
330.505
331.568
332.634
333.697
334.761
335.814
336.845
337.852
338.842
339.81
340.762
341.697
342.618
343.525
344.419
345.305
346.183
347.057
347.925
348.788
349.648
350.505
351.359
352.211
353.061
353.909
354.756
355.601
356.446
357.289
358.133
358.974
359.819
360.654
361.511
362.314
363.234
363.907
365.098
365.194
367.55
364.933
370.668
362.434
350.996
361.021
357.459
359.109
358.882
359.419
359.729
360.106
360.469
360.84
361.213
361.577
361.941
362.297
362.651
362.996
363.338
363.672
364.003
364.328
364.65
364.966
365.282
365.592
365.901
366.208
366.514
366.816
367.121
367.421
367.724
368.024
368.324
368.625
368.925
369.223
369.524
369.821
370.123
370.422
370.72
371.021
371.319
371.62
371.919
372.217
372.519
372.816
373.117
373.417
373.715
374.016
374.314
374.615
374.915
375.213
375.515
375.812
376.114
376.412
376.712
377.012
377.311
377.611
377.911
378.211
378.509
378.813
379.105
379.416
379.701
380.018
380.298
380.62
380.894
381.222
381.49
381.826
382.082
382.431
382.675
383.037
383.268
383.642
383.859
384.249
384.449
384.859
385.036
385.469
385.623
386.079
386.209
386.689
386.794
387.302
387.377
387.914
387.96
388.527
388.543
389.139
389.126
389.751
389.709
390.364
390.29
390.976
390.873
391.586
391.457
392.195
392.041
392.803
392.628
393.409
393.217
394.012
393.807
394.615
394.397
395.217
394.99
395.817
395.586
396.415
396.183
397.011
396.781
397.607
397.381
398.199
397.984
398.791
398.587
399.382
399.192
399.972
399.8
400.559
400.409
401.147
401.017
401.734
401.628
402.319
402.239
402.905
402.85
403.49
403.461
404.075
404.074
404.662
404.685
405.248
405.297
405.833
405.908
406.42
406.518
407.009
407.129
407.597
407.739
408.185
408.346
408.776
408.955
409.368
409.564
409.96
410.169
410.551
410.774
411.144
411.38
411.74
411.986
412.336
412.59
412.928
413.19
413.523
413.795
414.121
414.401
414.718
415
415.313
415.599
415.91
416.203
416.511
416.806
417.109
417.404
417.706
418
418.304
418.602
418.906
419.206
419.506
419.804
420.101
420.399
420.701
420.999
421.305
421.602
421.904
422.199
422.5
422.795
423.098
423.396
423.701
424
424.3
424.598
424.891
425.203
425.472
425.822
426.055
426.403
426.709
426.977
427.337
427.512
427.998
428.028
428.445
430.624
426.171
440.669
436.569
439.468
)
;
    }
}


// ************************************************************************* //
