/*--------------------------------*- C++ -*----------------------------------*\
| =========                 |                                                 |
| \\      /  F ield         | foam-extend: Open Source CFD                    |
|  \\    /   O peration     | Version:     3.2                                |
|   \\  /    A nd           | Web:         http://www.foam-extend.org         |
|    \\/     M anipulation  | For copyright notice see file Copyright         |
\*---------------------------------------------------------------------------*/
FoamFile
{
    version     2.0;
    format      ascii;
    class       volScalarField;
    location    "2000";
    object      pd;
}
// * * * * * * * * * * * * * * * * * * * * * * * * * * * * * * * * * * * * * //

dimensions      [1 -1 -2 0 0 0 0];

internalField   nonuniform List<scalar> 
2400
(
613.428
606.927
604.511
601.511
599.68
597.86
596.373
594.829
593.405
591.965
590.557
589.143
587.757
586.372
584.99
583.623
582.242
580.868
579.49
578.114
576.735
575.358
573.969
572.559
571.125
569.673
568.2
566.71
565.202
563.68
562.145
560.597
559.04
557.476
555.906
554.332
552.753
551.17
549.584
547.995
546.404
544.812
543.217
541.622
540.024
538.427
536.827
535.228
533.627
532.029
530.421
528.836
527.196
525.673
523.903
522.653
520.308
520.268
515.26
519.026
507.582
493.225
501.697
495.423
494.685
491.993
490.097
487.964
485.899
483.82
481.75
479.681
477.603
475.525
473.439
471.35
469.253
467.152
465.044
462.932
460.815
458.693
456.567
454.44
452.308
450.174
448.039
445.901
443.761
441.623
439.48
437.341
435.198
433.056
430.913
428.771
426.626
424.485
422.339
420.198
418.054
415.91
413.768
411.623
409.481
407.338
405.193
403.052
400.907
398.766
396.622
394.478
392.337
390.191
388.05
385.907
383.762
381.622
379.476
377.336
375.191
373.048
370.905
368.762
366.619
364.477
362.333
360.188
358.05
355.899
353.768
351.61
349.485
347.321
345.202
343.032
340.919
338.742
336.638
334.449
332.357
330.156
328.078
325.863
323.798
321.569
319.52
317.273
315.244
312.974
310.97
308.675
306.695
304.375
302.421
300.075
298.148
295.771
293.876
291.468
289.604
287.166
285.33
282.863
281.058
278.559
276.787
274.255
272.514
269.952
268.238
265.65
263.963
261.348
259.686
257.049
255.407
252.752
251.125
248.457
246.843
244.162
242.559
239.869
238.274
235.579
233.986
231.291
229.697
227.003
225.407
222.719
221.114
218.436
216.821
214.154
212.526
209.874
208.23
205.597
203.932
201.321
199.633
197.044
195.334
192.77
191.034
188.497
186.734
184.222
182.434
179.949
178.132
175.676
173.833
171.403
169.533
167.13
165.233
162.856
160.934
158.581
156.637
154.307
152.339
150.032
148.042
145.754
143.747
141.477
139.453
137.202
135.159
132.922
130.865
128.641
126.572
124.362
122.283
120.083
117.993
115.801
113.7
111.516
109.409
107.237
105.121
102.957
100.833
98.6712
96.5426
94.3851
92.2533
90.1032
87.9697
85.8212
83.6824
81.5346
79.3931
77.245
75.1065
72.9616
70.8227
68.6802
66.5375
64.3923
62.2472
60.1024
57.9617
55.8171
53.68
51.535
49.3942
47.2463
45.1044
42.9564
40.8173
38.6716
36.5349
34.391
32.2479
30.104
27.9537
25.8232
23.6486
21.5584
19.3438
17.2536
15.1163
12.9408
10.8605
8.58829
6.63641
4.1796
2.2499
1.80883
-5.54453
7.43302
0.624608
1.04886
613.353
606.982
604.523
601.52
599.69
597.868
596.38
594.835
593.41
591.969
590.559
589.145
587.758
586.373
584.99
583.623
582.242
580.868
579.489
578.113
576.734
575.357
573.968
572.558
571.124
569.672
568.199
566.709
565.201
563.679
562.144
560.597
559.04
557.476
555.906
554.332
552.752
551.17
549.584
547.995
546.404
544.812
543.217
541.621
540.024
538.427
536.827
535.228
533.626
532.029
530.421
528.836
527.196
525.673
523.903
522.652
520.309
520.268
515.213
518.912
507.631
493.367
501.65
495.435
494.684
491.998
490.099
487.966
485.901
483.821
481.751
479.681
477.603
475.525
473.439
471.35
469.253
467.152
465.044
462.932
460.815
458.693
456.567
454.44
452.308
450.174
448.039
445.901
443.761
441.623
439.48
437.341
435.198
433.055
430.913
428.771
426.626
424.485
422.339
420.198
418.054
415.91
413.768
411.623
409.481
407.338
405.193
403.052
400.907
398.766
396.622
394.478
392.337
390.191
388.05
385.907
383.762
381.622
379.476
377.336
375.191
373.048
370.905
368.762
366.619
364.477
362.333
360.188
358.05
355.899
353.768
351.61
349.485
347.321
345.202
343.032
340.919
338.742
336.638
334.449
332.357
330.156
328.078
325.863
323.798
321.569
319.52
317.273
315.244
312.974
310.969
308.675
306.695
304.376
302.42
300.075
298.148
295.772
293.876
291.469
289.603
287.166
285.33
282.863
281.058
278.56
276.786
274.255
272.513
269.952
268.238
265.651
263.962
261.349
259.685
257.049
255.406
252.753
251.124
248.458
246.842
244.162
242.558
239.87
238.273
235.58
233.985
231.292
229.697
227.004
225.407
222.719
221.114
218.437
216.82
214.155
212.525
209.875
208.229
205.598
203.931
201.322
199.633
197.045
195.334
192.771
191.033
188.497
186.733
184.223
182.433
179.949
178.132
175.677
173.832
171.403
169.533
167.13
165.232
162.856
160.934
158.581
156.637
154.308
152.339
150.032
148.042
145.754
143.747
141.477
139.453
137.202
135.159
132.922
130.865
128.641
126.572
124.362
122.283
120.083
117.993
115.802
113.7
111.517
109.409
107.237
105.121
102.957
100.833
98.6713
96.5425
94.3852
92.2533
90.1032
87.9697
85.8212
83.6824
81.5346
79.3931
77.245
75.1065
72.9617
70.8227
68.6802
66.5375
64.3923
62.2472
60.1025
57.9617
55.8171
53.6799
51.5349
49.3941
47.2463
45.1044
42.9564
40.8173
38.6717
36.5348
34.3909
32.2479
30.104
27.9538
25.8232
23.6485
21.5584
19.3443
17.2533
15.1161
12.9409
10.8602
8.58808
6.63903
4.1834
2.23487
1.87962
-5.44141
7.35547
0.615026
1.05111
613.25
606.991
604.556
601.554
599.711
597.881
596.388
594.842
593.415
591.973
590.563
589.148
587.76
586.374
584.991
583.624
582.243
580.868
579.489
578.113
576.734
575.357
573.968
572.558
571.124
569.672
568.199
566.708
565.201
563.679
562.144
560.596
559.039
557.475
555.906
554.331
552.752
551.17
549.584
547.995
546.404
544.812
543.217
541.621
540.024
538.426
536.827
535.228
533.626
532.029
530.421
528.836
527.196
525.673
523.903
522.652
520.308
520.261
515.158
518.831
507.628
493.561
501.61
495.448
494.684
492.001
490.1
487.968
485.902
483.822
481.752
479.682
477.603
475.525
473.439
471.35
469.253
467.152
465.044
462.931
460.815
458.693
456.567
454.44
452.308
450.174
448.038
445.901
443.761
441.623
439.48
437.341
435.198
433.055
430.913
428.771
426.626
424.485
422.339
420.198
418.054
415.91
413.768
411.623
409.481
407.338
405.193
403.052
400.907
398.766
396.622
394.478
392.337
390.191
388.05
385.907
383.762
381.622
379.476
377.336
375.191
373.048
370.905
368.762
366.619
364.477
362.333
360.188
358.05
355.899
353.768
351.61
349.485
347.321
345.202
343.032
340.918
338.742
336.637
334.449
332.357
330.156
328.077
325.863
323.797
321.569
319.52
317.273
315.244
312.974
310.969
308.675
306.695
304.376
302.42
300.075
298.147
295.772
293.875
291.469
289.603
287.166
285.33
282.863
281.057
278.56
276.785
274.256
272.513
269.953
268.237
265.651
263.962
261.349
259.684
257.05
255.405
252.753
251.124
248.458
246.841
244.163
242.558
239.87
238.273
235.58
233.985
231.292
229.696
227.005
225.406
222.72
221.113
218.437
216.82
214.155
212.525
209.875
208.229
205.598
203.931
201.322
199.632
197.045
195.334
192.771
191.033
188.498
186.733
184.223
182.433
179.95
178.132
175.677
173.832
171.404
169.533
167.13
165.232
162.856
160.933
158.581
156.637
154.308
152.339
150.032
148.041
145.754
143.746
141.478
139.452
137.202
135.159
132.922
130.864
128.641
126.572
124.363
122.283
120.084
117.992
115.802
113.7
111.517
109.409
107.237
105.121
102.957
100.833
98.6713
96.5424
94.3853
92.2532
90.1033
87.9696
85.8212
83.6823
81.5345
79.3931
77.2451
75.1065
72.9617
70.8227
68.6802
66.5375
64.3923
62.2473
60.1025
57.9617
55.8171
53.6799
51.5349
49.3941
47.2463
45.1044
42.9564
40.8173
38.6717
36.5347
34.3909
32.2479
30.104
27.9538
25.8231
23.6486
21.5582
19.3448
17.2531
15.116
12.9409
10.8598
8.5884
6.64061
4.18978
2.22319
1.9225
-5.33704
7.29056
0.602982
1.03925
613.185
607.013
604.575
601.565
599.725
597.892
596.398
594.849
593.421
591.978
590.568
589.152
587.764
586.378
584.994
583.626
582.245
580.87
579.49
578.114
576.735
575.358
573.968
572.558
571.124
569.672
568.198
566.708
565.201
563.679
562.143
560.596
559.039
557.475
555.906
554.331
552.752
551.17
549.584
547.995
546.404
544.812
543.217
541.621
540.024
538.426
536.827
535.228
533.626
532.029
530.421
528.836
527.196
525.673
523.903
522.652
520.307
520.248
515.123
518.742
507.629
493.726
501.565
495.458
494.683
492.003
490.101
487.969
485.903
483.823
481.752
479.682
477.604
475.525
473.439
471.35
469.253
467.152
465.044
462.931
460.815
458.693
456.567
454.44
452.308
450.174
448.038
445.901
443.761
441.623
439.48
437.341
435.198
433.055
430.913
428.771
426.626
424.485
422.339
420.198
418.054
415.91
413.768
411.623
409.481
407.338
405.193
403.052
400.907
398.766
396.622
394.478
392.337
390.191
388.05
385.907
383.762
381.622
379.476
377.336
375.191
373.048
370.905
368.762
366.619
364.477
362.333
360.188
358.05
355.899
353.768
351.61
349.485
347.321
345.202
343.032
340.918
338.742
336.637
334.449
332.357
330.157
328.077
325.864
323.797
321.569
319.519
317.274
315.243
312.975
310.968
308.676
306.694
304.377
302.419
300.076
298.146
295.773
293.874
291.47
289.602
287.168
285.328
282.865
281.056
278.562
276.784
274.257
272.511
269.955
268.235
265.653
263.96
261.351
259.682
257.052
255.403
252.756
251.121
248.46
246.839
244.165
242.556
239.872
238.271
235.582
233.983
231.294
229.694
227.007
225.404
222.722
221.111
218.439
216.818
214.157
212.523
209.877
208.227
205.6
203.929
201.324
199.631
197.047
195.332
192.772
191.032
188.499
186.732
184.224
182.432
179.951
178.131
175.678
173.831
171.404
169.532
167.131
165.231
162.857
160.933
158.582
156.636
154.308
152.338
150.033
148.041
145.755
143.746
141.478
139.452
137.203
135.158
132.923
130.864
128.642
126.571
124.363
122.282
120.084
117.992
115.802
113.699
111.517
109.409
107.237
105.121
102.957
100.833
98.6714
96.5423
94.3854
92.2532
90.1033
87.9695
85.8213
83.6823
81.5345
79.3931
77.2451
75.1065
72.9617
70.8227
68.6802
66.5374
64.3923
62.2473
60.1025
57.9617
55.8172
53.6799
51.5349
49.3941
47.2463
45.1044
42.9565
40.8173
38.6717
36.5347
34.3909
32.2478
30.104
27.9538
25.8231
23.6488
21.5577
19.3455
17.2529
15.1159
12.9409
10.8594
8.5891
6.63885
4.19927
2.21477
1.93802
-5.2301
7.23252
0.589665
1.02986
613.112
607.023
604.584
601.572
599.737
597.899
596.401
594.853
593.426
591.983
590.572
589.156
587.768
586.382
584.998
583.63
582.248
580.873
579.493
578.116
576.737
575.36
573.97
572.559
571.124
569.672
568.199
566.708
565.201
563.679
562.144
560.596
559.039
557.475
555.906
554.331
552.752
551.17
549.584
547.995
546.404
544.812
543.217
541.621
540.024
538.426
536.827
535.228
533.626
532.029
530.421
528.836
527.196
525.673
523.903
522.652
520.306
520.236
515.122
518.643
507.663
493.82
501.528
495.464
494.682
492.005
490.102
487.97
485.904
483.824
481.753
479.683
477.604
475.526
473.439
471.35
469.253
467.152
465.044
462.931
460.815
458.693
456.567
454.44
452.308
450.174
448.038
445.901
443.761
441.623
439.48
437.341
435.198
433.055
430.913
428.771
426.626
424.485
422.339
420.198
418.054
415.91
413.768
411.623
409.481
407.338
405.193
403.052
400.907
398.766
396.622
394.478
392.337
390.191
388.05
385.907
383.762
381.622
379.476
377.336
375.191
373.048
370.905
368.762
366.619
364.477
362.333
360.188
358.05
355.899
353.768
351.61
349.485
347.321
345.202
343.033
340.918
338.742
336.637
334.45
332.357
330.157
328.077
325.864
323.797
321.57
319.519
317.274
315.243
312.975
310.968
308.677
306.693
304.378
302.418
300.077
298.145
295.774
293.873
291.472
289.6
287.169
285.327
282.867
281.054
278.563
276.782
274.259
272.509
269.957
268.233
265.655
263.957
261.354
259.68
257.055
255.401
252.758
251.119
248.463
246.837
244.168
242.553
239.875
238.268
235.585
233.98
231.297
229.691
227.009
225.401
222.725
221.108
218.442
216.815
214.16
212.52
209.88
208.225
205.602
203.926
201.326
199.628
197.049
195.33
192.775
191.029
188.501
186.73
184.226
182.43
179.953
178.129
175.68
173.83
171.406
169.53
167.132
165.23
162.858
160.931
158.583
156.635
154.309
152.337
150.034
148.04
145.756
143.745
141.479
139.451
137.203
135.158
132.923
130.863
128.642
126.571
124.363
122.282
120.084
117.992
115.802
113.699
111.517
109.409
107.237
105.121
102.957
100.833
98.6715
96.5423
94.3854
92.2532
90.1034
87.9694
85.8213
83.6823
81.5345
79.3931
77.2451
75.1064
72.9618
70.8227
68.6802
66.5374
64.3922
62.2473
60.1025
57.9617
55.8172
53.6798
51.5349
49.3941
47.2463
45.1044
42.9565
40.8173
38.6718
36.5346
34.3909
32.2478
30.104
27.9538
25.8231
23.649
21.5572
19.3461
17.2527
15.1158
12.941
10.8592
8.58975
6.63672
4.20821
2.20797
1.94011
-5.12798
7.17769
0.575852
1.02074
613.075
607.02
604.579
601.578
599.74
597.9
596.4
594.856
593.428
591.986
590.574
589.159
587.772
586.385
585.002
583.633
582.252
580.876
579.497
578.12
576.741
575.362
573.972
572.56
571.126
569.673
568.2
566.709
565.202
563.68
562.144
560.597
559.04
557.475
555.906
554.332
552.752
551.17
549.584
547.995
546.404
544.812
543.217
541.621
540.024
538.427
536.827
535.228
533.627
532.029
530.421
528.836
527.196
525.673
523.903
522.652
520.306
520.227
515.137
518.551
507.724
493.854
501.5
495.468
494.68
492.007
490.103
487.97
485.904
483.824
481.753
479.683
477.604
475.526
473.439
471.35
469.253
467.152
465.044
462.932
460.815
458.693
456.567
454.44
452.308
450.174
448.038
445.901
443.761
441.623
439.48
437.341
435.198
433.055
430.913
428.771
426.626
424.485
422.339
420.198
418.054
415.91
413.768
411.623
409.481
407.338
405.193
403.052
400.907
398.766
396.622
394.478
392.337
390.191
388.05
385.907
383.762
381.622
379.476
377.336
375.191
373.048
370.905
368.762
366.619
364.477
362.333
360.188
358.05
355.9
353.768
351.61
349.485
347.321
345.202
343.033
340.918
338.743
336.637
334.45
332.356
330.157
328.077
325.864
323.796
321.57
319.518
317.274
315.242
312.976
310.967
308.677
306.692
304.378
302.417
300.078
298.144
295.775
293.872
291.473
289.599
287.17
285.325
282.868
281.053
278.565
276.78
274.261
272.507
269.958
268.231
265.657
263.956
261.355
259.678
257.056
255.399
252.76
251.117
248.465
246.835
244.17
242.551
239.877
238.266
235.587
233.978
231.299
229.689
227.012
225.399
222.727
221.106
218.444
216.813
214.162
212.518
209.882
208.223
205.604
203.925
201.328
199.627
197.051
195.328
192.776
191.028
188.503
186.728
184.228
182.428
179.954
178.128
175.681
173.828
171.407
169.529
167.133
165.229
162.859
160.931
158.584
156.634
154.31
152.337
150.034
148.039
145.756
143.744
141.48
139.451
137.204
135.157
132.924
130.863
128.643
126.571
124.364
122.282
120.084
117.992
115.803
113.699
111.518
109.408
107.238
105.12
102.957
100.833
98.6716
96.5422
94.3855
92.2532
90.1034
87.9694
85.8213
83.6823
81.5345
79.3931
77.2452
75.1064
72.9618
70.8226
68.6801
66.5374
64.3922
62.2473
60.1025
57.9617
55.8172
53.6798
51.5349
49.3941
47.2463
45.1044
42.9565
40.8173
38.6718
36.5346
34.3909
32.2478
30.104
27.9538
25.823
23.6491
21.5569
19.3465
17.2525
15.1158
12.941
10.859
8.59023
6.63522
4.21506
2.2019
1.93633
-5.04553
7.1347
0.563278
1.01329
613.068
607.021
604.568
601.571
599.737
597.898
596.4
594.854
593.427
591.986
590.574
589.161
587.774
586.387
585.004
583.637
582.255
580.88
579.5
578.123
576.743
575.365
573.974
572.562
571.127
569.675
568.201
566.71
565.202
563.681
562.145
560.597
559.04
557.476
555.906
554.332
552.753
551.17
549.584
547.995
546.404
544.812
543.217
541.622
540.024
538.427
536.827
535.228
533.627
532.029
530.421
528.836
527.196
525.673
523.903
522.652
520.305
520.221
515.151
518.483
507.758
493.88
501.484
495.47
494.679
492.008
490.103
487.97
485.904
483.824
481.753
479.683
477.605
475.526
473.44
471.35
469.253
467.152
465.044
462.932
460.815
458.693
456.567
454.44
452.308
450.174
448.038
445.901
443.761
441.623
439.48
437.341
435.198
433.055
430.913
428.771
426.626
424.485
422.339
420.198
418.054
415.91
413.768
411.623
409.481
407.338
405.193
403.052
400.907
398.766
396.622
394.478
392.337
390.191
388.05
385.907
383.762
381.622
379.476
377.336
375.191
373.048
370.905
368.762
366.619
364.477
362.333
360.188
358.05
355.9
353.768
351.61
349.485
347.321
345.201
343.033
340.918
338.743
336.637
334.45
332.356
330.157
328.076
325.865
323.796
321.57
319.518
317.275
315.242
312.976
310.967
308.678
306.692
304.379
302.417
300.079
298.144
295.776
293.871
291.473
289.598
287.171
285.325
282.869
281.052
278.566
276.78
274.262
272.506
269.96
268.23
265.658
263.954
261.357
259.677
257.058
255.398
252.761
251.116
248.466
246.833
244.171
242.55
239.879
238.264
235.589
233.976
231.301
229.688
227.013
225.398
222.728
221.105
218.445
216.812
214.163
212.517
209.883
208.221
205.605
203.923
201.329
199.625
197.052
195.327
192.777
191.027
188.504
186.727
184.229
182.428
179.955
178.127
175.682
173.828
171.408
169.529
167.134
165.228
162.86
160.93
158.585
156.634
154.311
152.336
150.035
148.039
145.756
143.744
141.48
139.45
137.204
135.157
132.924
130.863
128.643
126.57
124.364
122.282
120.085
117.992
115.803
113.699
111.518
109.408
107.238
105.12
102.958
100.833
98.6716
96.5422
94.3855
92.2532
90.1034
87.9694
85.8213
83.6823
81.5345
79.3931
77.2452
75.1064
72.9618
70.8226
68.6801
66.5374
64.3922
62.2474
60.1026
57.9617
55.8172
53.6798
51.5349
49.3941
47.2463
45.1044
42.9565
40.8173
38.6718
36.5346
34.3909
32.2478
30.104
27.9538
25.823
23.6492
21.5568
19.3467
17.2524
15.1157
12.941
10.8588
8.59055
6.6345
4.21932
2.19751
1.93414
-4.99138
7.10621
0.55363
1.00797
613.093
607.028
604.564
601.564
599.733
597.894
596.396
594.852
593.426
591.984
590.573
589.161
587.774
586.387
585.004
583.639
582.256
580.881
579.501
578.124
576.745
575.366
573.976
572.564
571.129
569.676
568.202
566.711
565.203
563.681
562.145
560.597
559.04
557.476
555.907
554.332
552.753
551.17
549.584
547.996
546.404
544.812
543.217
541.622
540.024
538.427
536.827
535.228
533.627
532.029
530.421
528.836
527.196
525.673
523.903
522.652
520.305
520.218
515.158
518.45
507.774
493.893
501.476
495.471
494.678
492.008
490.103
487.97
485.904
483.825
481.753
479.683
477.605
475.526
473.44
471.35
469.253
467.152
465.044
462.932
460.815
458.693
456.567
454.44
452.308
450.174
448.038
445.901
443.761
441.623
439.48
437.341
435.198
433.055
430.913
428.771
426.626
424.485
422.339
420.198
418.054
415.91
413.768
411.623
409.481
407.338
405.193
403.052
400.907
398.766
396.622
394.478
392.337
390.191
388.05
385.907
383.762
381.622
379.476
377.336
375.191
373.048
370.905
368.762
366.619
364.477
362.333
360.188
358.05
355.9
353.768
351.61
349.484
347.321
345.201
343.033
340.918
338.743
336.637
334.45
332.356
330.157
328.076
325.865
323.796
321.571
319.518
317.275
315.242
312.976
310.967
308.678
306.692
304.379
302.417
300.079
298.144
295.776
293.871
291.474
289.598
287.171
285.324
282.869
281.051
278.566
276.779
274.262
272.506
269.96
268.23
265.659
263.954
261.357
259.676
257.058
255.397
252.762
251.115
248.467
246.833
244.172
242.549
239.879
238.264
235.589
233.976
231.301
229.687
227.014
225.397
222.729
221.104
218.446
216.811
214.164
212.517
209.884
208.221
205.606
203.923
201.33
199.625
197.053
195.326
192.778
191.026
188.504
186.727
184.229
182.427
179.955
178.126
175.682
173.827
171.408
169.528
167.134
165.228
162.86
160.93
158.585
156.633
154.311
152.336
150.035
148.039
145.757
143.744
141.48
139.45
137.204
135.157
132.924
130.863
128.643
126.57
124.364
122.282
120.085
117.991
115.803
113.699
111.518
109.408
107.238
105.12
102.958
100.833
98.6716
96.5422
94.3856
92.2532
90.1034
87.9694
85.8213
83.6823
81.5345
79.3932
77.2452
75.1064
72.9618
70.8226
68.6801
66.5374
64.3922
62.2474
60.1026
57.9617
55.8172
53.6798
51.5349
49.394
47.2463
45.1044
42.9565
40.8173
38.6718
36.5346
34.3909
32.2478
30.104
27.9538
25.823
23.6493
21.5567
19.3468
17.2524
15.1157
12.941
10.8588
8.5907
6.63427
4.22127
2.19548
1.93226
-4.96365
7.09105
0.549329
1.00483
)
;

boundaryField
{
    inlet
    {
        type            buoyantPressure;
        gradient        nonuniform List<scalar> 8(2.25842e-12 2.50935e-13 2.42571e-11 4.15716e-11 -1.27224e-10 -4.69249e-11 -4.45828e-11 -5.89698e-11);
        rho             rho;
        value           nonuniform List<scalar> 8(613.428 613.353 613.25 613.185 613.112 613.075 613.068 613.093);
    }
    outlet
    {
        type            fixedValue;
        value           uniform 0;
    }
    sideWall
    {
        type            empty;
    }
    bed
    {
        type            buoyantPressure;
        gradient        uniform -0;
        rho             rho;
        value           nonuniform List<scalar> 
300
(
613.428
606.927
604.511
601.511
599.68
597.86
596.373
594.829
593.405
591.965
590.557
589.143
587.757
586.372
584.99
583.623
582.242
580.868
579.49
578.114
576.735
575.358
573.969
572.559
571.125
569.673
568.2
566.71
565.202
563.68
562.145
560.597
559.04
557.476
555.906
554.332
552.753
551.17
549.584
547.995
546.404
544.812
543.217
541.622
540.024
538.427
536.827
535.228
533.627
532.029
530.421
528.836
527.196
525.673
523.903
522.653
520.308
520.268
515.26
519.026
507.582
493.225
501.697
495.423
494.685
491.993
490.097
487.964
485.899
483.82
481.75
479.681
477.603
475.525
473.439
471.35
469.253
467.152
465.044
462.932
460.815
458.693
456.567
454.44
452.308
450.174
448.039
445.901
443.761
441.623
439.48
437.341
435.198
433.056
430.913
428.771
426.626
424.485
422.339
420.198
418.054
415.91
413.768
411.623
409.481
407.338
405.193
403.052
400.907
398.766
396.622
394.478
392.337
390.191
388.05
385.907
383.762
381.622
379.476
377.336
375.191
373.048
370.905
368.762
366.619
364.477
362.333
360.188
358.05
355.899
353.768
351.61
349.485
347.321
345.202
343.032
340.919
338.742
336.638
334.449
332.357
330.156
328.078
325.863
323.798
321.569
319.52
317.273
315.244
312.974
310.97
308.675
306.695
304.375
302.421
300.075
298.148
295.771
293.876
291.468
289.604
287.166
285.33
282.863
281.058
278.559
276.787
274.255
272.514
269.952
268.238
265.65
263.963
261.348
259.686
257.049
255.407
252.752
251.125
248.457
246.843
244.162
242.559
239.869
238.274
235.579
233.986
231.291
229.697
227.003
225.407
222.719
221.114
218.436
216.821
214.154
212.526
209.874
208.23
205.597
203.932
201.321
199.633
197.044
195.334
192.77
191.034
188.497
186.734
184.222
182.434
179.949
178.132
175.676
173.833
171.403
169.533
167.13
165.233
162.856
160.934
158.581
156.637
154.307
152.339
150.032
148.042
145.754
143.747
141.477
139.453
137.202
135.159
132.922
130.865
128.641
126.572
124.362
122.283
120.083
117.993
115.801
113.7
111.516
109.409
107.237
105.121
102.957
100.833
98.6712
96.5426
94.3851
92.2533
90.1032
87.9697
85.8212
83.6824
81.5346
79.3931
77.245
75.1065
72.9616
70.8227
68.6802
66.5375
64.3923
62.2472
60.1024
57.9617
55.8171
53.68
51.535
49.3942
47.2463
45.1044
42.9564
40.8173
38.6716
36.5349
34.391
32.2479
30.104
27.9537
25.8232
23.6486
21.5584
19.3438
17.2536
15.1163
12.9408
10.8605
8.58829
6.63641
4.1796
2.2499
1.80883
-5.54453
7.43302
0.624608
1.04886
)
;
    }
    topWall
    {
        type            slip;
        value           nonuniform List<scalar> 
300
(
613.093
607.028
604.564
601.564
599.733
597.894
596.396
594.852
593.426
591.984
590.573
589.161
587.774
586.387
585.004
583.639
582.256
580.881
579.501
578.124
576.745
575.366
573.976
572.564
571.129
569.676
568.202
566.711
565.203
563.681
562.145
560.597
559.04
557.476
555.907
554.332
552.753
551.17
549.584
547.996
546.404
544.812
543.217
541.622
540.024
538.427
536.827
535.228
533.627
532.029
530.421
528.836
527.196
525.673
523.903
522.652
520.305
520.218
515.158
518.45
507.774
493.893
501.476
495.471
494.678
492.008
490.103
487.97
485.904
483.825
481.753
479.683
477.605
475.526
473.44
471.35
469.253
467.152
465.044
462.932
460.815
458.693
456.567
454.44
452.308
450.174
448.038
445.901
443.761
441.623
439.48
437.341
435.198
433.055
430.913
428.771
426.626
424.485
422.339
420.198
418.054
415.91
413.768
411.623
409.481
407.338
405.193
403.052
400.907
398.766
396.622
394.478
392.337
390.191
388.05
385.907
383.762
381.622
379.476
377.336
375.191
373.048
370.905
368.762
366.619
364.477
362.333
360.188
358.05
355.9
353.768
351.61
349.484
347.321
345.201
343.033
340.918
338.743
336.637
334.45
332.356
330.157
328.076
325.865
323.796
321.571
319.518
317.275
315.242
312.976
310.967
308.678
306.692
304.379
302.417
300.079
298.144
295.776
293.871
291.474
289.598
287.171
285.324
282.869
281.051
278.566
276.779
274.262
272.506
269.96
268.23
265.659
263.954
261.357
259.676
257.058
255.397
252.762
251.115
248.467
246.833
244.172
242.549
239.879
238.264
235.589
233.976
231.301
229.687
227.014
225.397
222.729
221.104
218.446
216.811
214.164
212.517
209.884
208.221
205.606
203.923
201.33
199.625
197.053
195.326
192.778
191.026
188.504
186.727
184.229
182.427
179.955
178.126
175.682
173.827
171.408
169.528
167.134
165.228
162.86
160.93
158.585
156.633
154.311
152.336
150.035
148.039
145.757
143.744
141.48
139.45
137.204
135.157
132.924
130.863
128.643
126.57
124.364
122.282
120.085
117.991
115.803
113.699
111.518
109.408
107.238
105.12
102.958
100.833
98.6716
96.5422
94.3856
92.2532
90.1034
87.9694
85.8213
83.6823
81.5345
79.3932
77.2452
75.1064
72.9618
70.8226
68.6801
66.5374
64.3922
62.2474
60.1026
57.9617
55.8172
53.6798
51.5349
49.394
47.2463
45.1044
42.9565
40.8173
38.6718
36.5346
34.3909
32.2478
30.104
27.9538
25.823
23.6493
21.5567
19.3468
17.2524
15.1157
12.941
10.8588
8.5907
6.63427
4.22127
2.19548
1.93226
-4.96365
7.09105
0.549329
1.00483
)
;
    }
}


// ************************************************************************* //
