/*--------------------------------*- C++ -*----------------------------------*\
| =========                 |                                                 |
| \\      /  F ield         | foam-extend: Open Source CFD                    |
|  \\    /   O peration     | Version:     3.2                                |
|   \\  /    A nd           | Web:         http://www.foam-extend.org         |
|    \\/     M anipulation  | For copyright notice see file Copyright         |
\*---------------------------------------------------------------------------*/
FoamFile
{
    version     2.0;
    format      ascii;
    class       areaScalarField;
    location    "2000";
    object      Pef;
}
// * * * * * * * * * * * * * * * * * * * * * * * * * * * * * * * * * * * * * //

dimensions      [0 0 0 0 0 0 0];

internalField   nonuniform List<scalar> 
300
(
0.332978
0.42669
0.347738
0.279379
0.239838
0.223516
0.217156
0.216371
0.217423
0.219581
0.222176
0.22482
0.227383
0.230088
0.23268
0.235314
0.238102
0.240881
0.243725
0.246585
0.24945
0.252322
0.255275
0.258302
0.261226
0.263914
0.266338
0.268469
0.27032
0.271905
0.273263
0.274424
0.275391
0.276183
0.276818
0.277344
0.27778
0.278149
0.278457
0.278723
0.278943
0.279138
0.279295
0.27944
0.27955
0.27966
0.279735
0.279821
0.279869
0.27995
0.279942
0.280091
0.279896
0.280396
0.279426
0.28152
0.27705
0.285521
0.254953
0.306912
0.457769
0.431466
0.367525
0.370129
0.364468
0.365678
0.364992
0.365321
0.365469
0.365672
0.365756
0.365874
0.366014
0.366118
0.366207
0.36627
0.366325
0.366355
0.366386
0.366394
0.366386
0.366396
0.366385
0.366371
0.366372
0.366359
0.366341
0.366346
0.366329
0.366323
0.36631
0.366294
0.3663
0.366293
0.366281
0.366295
0.366285
0.366285
0.366282
0.36627
0.366283
0.366275
0.366277
0.366275
0.366265
0.366279
0.366273
0.366275
0.366274
0.366263
0.366277
0.36627
0.366272
0.366271
0.36626
0.366276
0.366266
0.366273
0.366266
0.366261
0.36627
0.366267
0.366269
0.36626
0.36626
0.366263
0.366275
0.366252
0.366277
0.366223
0.366302
0.366225
0.366301
0.366208
0.366298
0.3662
0.366324
0.366174
0.366347
0.366166
0.366359
0.366149
0.366364
0.366129
0.366394
0.366097
0.36642
0.366055
0.366447
0.366033
0.366466
0.366003
0.366479
0.365972
0.366517
0.365927
0.366551
0.365904
0.366572
0.365874
0.366583
0.365848
0.366615
0.365812
0.366637
0.365773
0.366657
0.365761
0.366661
0.365748
0.366684
0.365725
0.366698
0.365727
0.366695
0.365727
0.366681
0.36573
0.366688
0.365725
0.366687
0.365744
0.36667
0.36576
0.366643
0.365779
0.366636
0.36579
0.366622
0.365824
0.366591
0.365855
0.366579
0.365875
0.366559
0.365915
0.366521
0.365944
0.366496
0.365984
0.366484
0.366008
0.366383
0.365979
0.366313
0.365976
0.36643
0.366113
0.366419
0.366153
0.366092
0.365885
0.366014
0.365824
0.366382
0.366237
0.366362
0.366263
0.365716
0.365598
0.365613
0.365521
0.36634
0.366315
0.366342
0.366315
0.365264
0.365195
0.365139
0.365091
0.366327
0.366334
0.366329
0.366342
0.364779
0.364715
0.364672
0.364595
0.366319
0.366336
0.36631
0.366332
0.364332
0.364229
0.364221
0.364132
0.366315
0.36632
0.366313
0.36632
0.363911
0.363782
0.363831
0.363692
0.366295
0.366303
0.366298
0.366292
0.363577
0.363405
0.363494
0.363344
0.366283
0.366277
0.366276
0.366282
0.363282
0.363075
0.363223
0.363031
0.36627
0.366265
0.366278
0.366272
0.363005
0.362788
0.362956
0.362754
0.36627
0.366276
0.366267
0.366284
0.362674
0.36259
0.36245
0.362891
0.363332
0.366066
0.362471
0.361889
0.363192
0.361159
0.3628
0.357314
0.358254
0.404141
0.290292
0.228368
0.259921
0.266559
)
;

boundaryField
{
    inlet
    {
        type            calculated;
        value           uniform 0;
    }
    outlet
    {
        type            calculated;
        value           uniform 0;
    }
    sideWall
    {
        type            empty;
    }
}


// ************************************************************************* //
