/*--------------------------------*- C++ -*----------------------------------*\
| =========                 |                                                 |
| \\      /  F ield         | foam-extend: Open Source CFD                    |
|  \\    /   O peration     | Version:     3.2                                |
|   \\  /    A nd           | Web:         http://www.foam-extend.org         |
|    \\/     M anipulation  | For copyright notice see file Copyright         |
\*---------------------------------------------------------------------------*/
FoamFile
{
    version     2.0;
    format      ascii;
    class       surfaceScalarField;
    location    "2000";
    object      phi;
}
// * * * * * * * * * * * * * * * * * * * * * * * * * * * * * * * * * * * * * //

dimensions      [0 3 -1 0 0 0 0];

internalField   nonuniform List<scalar> 
4492
(
1.67231e-05
5.21442e-06
1.36793e-05
3.04374e-06
1.18042e-05
1.87515e-06
1.09296e-05
8.74637e-07
1.05786e-05
3.50971e-07
1.04501e-05
1.28508e-07
1.04209e-05
2.91541e-08
1.04336e-05
-1.26672e-08
1.04658e-05
-3.22233e-08
1.05076e-05
-4.18111e-08
1.05519e-05
-4.4255e-08
1.05928e-05
-4.09424e-08
1.06353e-05
-4.25002e-08
1.06771e-05
-4.17974e-08
1.07168e-05
-3.96494e-08
1.07601e-05
-4.33364e-08
1.08035e-05
-4.344e-08
1.0847e-05
-4.3463e-08
1.08907e-05
-4.37424e-08
1.09344e-05
-4.36077e-08
1.0978e-05
-4.36235e-08
1.10238e-05
-4.58346e-08
1.10728e-05
-4.90251e-08
1.11222e-05
-4.94095e-08
1.11682e-05
-4.59781e-08
1.121e-05
-4.17564e-08
1.1247e-05
-3.70554e-08
1.12794e-05
-3.23529e-08
1.13072e-05
-2.7855e-08
1.13312e-05
-2.3946e-08
1.13518e-05
-2.05865e-08
1.13691e-05
-1.73009e-08
1.13832e-05
-1.41534e-08
1.13946e-05
-1.13574e-08
1.14039e-05
-9.27121e-09
1.14116e-05
-7.78235e-09
1.14182e-05
-6.53465e-09
1.14237e-05
-5.52707e-09
1.14284e-05
-4.68079e-09
1.14324e-05
-3.98665e-09
1.14358e-05
-3.39327e-09
1.14387e-05
-2.88902e-09
1.14411e-05
-2.46593e-09
1.14432e-05
-2.09905e-09
1.1445e-05
-1.77926e-09
1.14465e-05
-1.55266e-09
1.14478e-05
-1.28105e-09
1.1449e-05
-1.16741e-09
1.145e-05
-9.76983e-10
1.14507e-05
-7.35441e-10
1.14515e-05
-8.04804e-10
1.1452e-05
-5.12487e-10
1.14526e-05
-5.41489e-10
1.14528e-05
-1.9993e-10
1.14533e-05
-5.5429e-10
1.1451e-05
2.32519e-09
1.14413e-05
9.64953e-09
1.12571e-05
1.84281e-07
1.15548e-05
-2.97765e-07
1.4164e-05
-2.60917e-06
1.46982e-05
-5.3422e-07
1.27315e-05
1.9667e-06
1.27062e-05
2.52908e-08
1.26788e-05
2.74697e-08
1.26928e-05
-1.40239e-08
1.26819e-05
1.09103e-08
1.26796e-05
2.23394e-09
1.26809e-05
-1.24965e-09
1.26823e-05
-1.41618e-09
1.26832e-05
-9.36546e-10
1.26845e-05
-1.22192e-09
1.26872e-05
-2.73518e-09
1.26896e-05
-2.45326e-09
1.2692e-05
-2.38932e-09
1.26941e-05
-2.10057e-09
1.26962e-05
-2.00939e-09
1.26978e-05
-1.68323e-09
1.26995e-05
-1.67143e-09
1.27008e-05
-1.33387e-09
1.27018e-05
-9.41275e-10
1.27028e-05
-1.01995e-09
1.27036e-05
-8.42766e-10
1.2704e-05
-3.93513e-10
1.27047e-05
-6.64405e-10
1.27051e-05
-4.20312e-10
1.27052e-05
-1.26223e-10
1.27056e-05
-3.3966e-10
1.27058e-05
-2.51294e-10
1.27058e-05
3.04437e-11
1.2706e-05
-1.96718e-10
1.27058e-05
2.00549e-10
1.2706e-05
-2.04288e-10
1.27061e-05
-7.13785e-11
1.27059e-05
1.30572e-10
1.27061e-05
-1.3932e-10
1.27062e-05
-1.17245e-10
1.2706e-05
2.09567e-10
1.27061e-05
-1.2411e-10
1.27059e-05
2.65744e-10
1.2706e-05
-1.53938e-10
1.27061e-05
-8.66917e-11
1.27059e-05
1.74584e-10
1.2706e-05
-1.15426e-10
1.27058e-05
2.3302e-10
1.27059e-05
-1.3077e-10
1.2706e-05
-1.12172e-10
1.27058e-05
1.9657e-10
1.2706e-05
-1.47785e-10
1.27057e-05
2.52661e-10
1.27059e-05
-1.55415e-10
1.2706e-05
-9.3349e-11
1.27058e-05
1.83456e-10
1.27059e-05
-1.40373e-10
1.27057e-05
2.40809e-10
1.27059e-05
-1.49409e-10
1.27059e-05
-8.87959e-11
1.27058e-05
1.88312e-10
1.27059e-05
-1.8449e-10
1.27056e-05
2.99152e-10
1.27059e-05
-2.11587e-10
1.27058e-05
7.031e-12
1.27058e-05
5.54383e-12
1.27058e-05
2.51718e-11
1.27057e-05
1.09009e-10
1.27057e-05
-8.27053e-12
1.27059e-05
-1.76501e-10
1.27058e-05
1.34244e-10
1.27058e-05
-1.91353e-11
1.27057e-05
2.75053e-11
1.27055e-05
2.27325e-10
1.27062e-05
-6.69558e-10
1.27053e-05
9.11975e-10
1.27062e-05
-9.62735e-10
1.2705e-05
1.23029e-09
1.27063e-05
-1.25595e-09
1.27051e-05
1.19929e-09
1.27064e-05
-1.35296e-09
1.27048e-05
1.63021e-09
1.2707e-05
-2.17143e-09
1.27044e-05
2.50635e-09
1.27072e-05
-2.80259e-09
1.2704e-05
3.27647e-09
1.27075e-05
-3.54795e-09
1.27038e-05
3.71479e-09
1.27079e-05
-4.07201e-09
1.27033e-05
4.57649e-09
1.27082e-05
-4.94595e-09
1.27026e-05
5.5911e-09
1.2709e-05
-6.4119e-09
1.27019e-05
7.09441e-09
1.27096e-05
-7.69792e-09
1.27011e-05
8.5003e-09
1.27102e-05
-9.09215e-09
1.27006e-05
9.58465e-09
1.27109e-05
-1.02595e-08
1.26997e-05
1.1093e-08
1.27119e-05
-1.21777e-08
1.26988e-05
1.30676e-08
1.27127e-05
-1.38923e-08
1.26978e-05
1.4893e-08
1.27135e-05
-1.56832e-08
1.26971e-05
1.63331e-08
1.27143e-05
-1.71529e-08
1.26962e-05
1.81043e-08
1.2715e-05
-1.88801e-08
1.26951e-05
1.98785e-08
1.27162e-05
-2.10311e-08
1.26942e-05
2.19807e-08
1.27169e-05
-2.27917e-08
1.26936e-05
2.33626e-08
1.27177e-05
-2.4113e-08
1.26927e-05
2.49201e-08
1.27187e-05
-2.59265e-08
1.2692e-05
2.66581e-08
1.27192e-05
-2.72761e-08
1.26913e-05
2.79743e-08
1.27197e-05
-2.84224e-08
1.2691e-05
2.86688e-08
1.272e-05
-2.905e-08
1.26905e-05
2.94902e-08
1.27206e-05
-3.01099e-08
1.26902e-05
3.04694e-08
1.27209e-05
-3.07164e-08
1.26898e-05
3.1066e-08
1.27209e-05
-3.11518e-08
1.26899e-05
3.10425e-08
1.27209e-05
-3.10295e-08
1.26898e-05
3.10834e-08
1.27211e-05
-3.13027e-08
1.26898e-05
3.12753e-08
1.27209e-05
-3.11001e-08
1.26903e-05
3.06817e-08
1.27206e-05
-3.0381e-08
1.26905e-05
3.01238e-08
1.27205e-05
-3.00312e-08
1.26909e-05
2.96675e-08
1.27201e-05
-2.92124e-08
1.26912e-05
2.88476e-08
1.27195e-05
-2.82806e-08
1.26921e-05
2.74874e-08
1.27189e-05
-2.68596e-08
1.26927e-05
2.61818e-08
1.27186e-05
-2.59109e-08
1.26934e-05
2.51913e-08
1.27179e-05
-2.45118e-08
1.26943e-05
2.36458e-08
1.27171e-05
-2.26838e-08
1.26951e-05
2.20642e-08
1.27167e-05
-2.15946e-08
1.26959e-05
2.06087e-08
1.27159e-05
-2.02071e-08
1.26969e-05
1.89183e-08
1.27151e-05
-1.81033e-08
1.26977e-05
1.76963e-08
1.27146e-05
-1.66084e-08
1.26985e-05
1.62721e-08
1.27139e-05
-1.54998e-08
1.26995e-05
1.39902e-08
1.27131e-05
-1.40159e-08
1.27002e-05
1.27603e-08
1.27126e-05
-1.22648e-08
1.27008e-05
1.23765e-08
1.27119e-05
-1.0566e-08
1.27017e-05
1.04615e-08
1.27113e-05
-9.74362e-09
1.27023e-05
8.25353e-09
1.27108e-05
-9.27886e-09
1.27026e-05
7.94072e-09
1.27102e-05
-7.33541e-09
1.27033e-05
7.81879e-09
1.27096e-05
-5.41388e-09
1.27038e-05
6.14298e-09
1.27094e-05
-5.88965e-09
1.27042e-05
4.15556e-09
1.27087e-05
-5.56805e-09
1.27047e-05
3.68136e-09
1.27081e-05
-3.11003e-09
1.27049e-05
4.4467e-09
1.2708e-05
-1.84346e-09
1.27052e-05
3.27738e-09
1.27078e-05
-2.98319e-09
1.27056e-05
8.59386e-10
1.27076e-05
-3.45457e-09
1.27055e-05
1.57539e-09
1.27072e-05
-1.16591e-09
1.27058e-05
2.89643e-09
1.27069e-05
4.08638e-10
1.2706e-05
1.49721e-09
1.27071e-05
-1.54168e-09
1.2706e-05
-6.19263e-10
1.27067e-05
-2.35619e-09
1.27059e-05
1.4386e-10
1.27063e-05
2.58954e-10
1.27059e-05
2.18348e-09
1.27064e-05
1.28814e-09
1.27062e-05
7.90052e-10
1.27064e-05
-7.3518e-10
1.27062e-05
-1.7232e-09
1.27063e-05
-2.05726e-09
1.27058e-05
-1.91844e-10
1.2706e-05
4.98914e-10
1.27059e-05
2.1389e-09
1.27059e-05
1.97844e-09
1.2706e-05
6.3332e-10
1.27062e-05
-8.48868e-10
1.27062e-05
-2.10234e-09
1.2706e-05
-1.90789e-09
1.27058e-05
-5.90177e-10
1.27059e-05
6.37197e-10
1.27055e-05
2.52001e-09
1.27059e-05
1.9346e-09
1.2706e-05
6.62739e-10
1.27062e-05
-1.00386e-09
1.27059e-05
-1.98242e-09
1.2706e-05
-2.40921e-09
1.27057e-05
-5.46106e-10
1.27059e-05
5.76297e-10
1.27056e-05
2.68216e-09
1.27059e-05
2.14239e-09
1.2706e-05
7.64555e-10
1.27062e-05
-9.42061e-10
1.27059e-05
-2.25374e-09
1.27065e-05
-3.10345e-09
1.27055e-05
1.20363e-10
1.27036e-05
2.21776e-09
1.27108e-05
-6.64868e-09
1.27032e-05
7.82307e-09
1.27029e-05
3.43502e-10
1.27041e-05
-1.18889e-09
1.27051e-05
-1.05194e-09
1.27038e-05
1.28106e-09
1.27075e-05
-3.68183e-09
1.27291e-05
-2.16262e-08
1.26323e-05
9.68491e-08
1.30524e-05
-4.20102e-07
1.21637e-05
8.88691e-07
9.7365e-06
2.42719e-06
1.06086e-05
-8.72088e-07
1.10758e-05
-4.6723e-07
-1.03003e-07
2.14335e-05
5.71841e-06
2.04229e-05
4.05438e-06
1.93414e-05
2.95662e-06
1.84782e-05
1.73784e-06
1.79195e-05
9.09648e-07
1.75586e-05
4.89441e-07
1.73232e-05
2.64488e-07
1.71673e-05
1.43313e-07
1.70588e-05
7.61948e-08
1.69925e-05
2.45155e-08
1.69572e-05
-8.94307e-09
1.69425e-05
-2.62282e-08
1.69447e-05
-4.47014e-08
1.6957e-05
-5.40739e-08
1.69787e-05
-6.1411e-08
1.70108e-05
-7.54086e-08
1.70501e-05
-8.2682e-08
1.70962e-05
-8.95873e-08
1.71475e-05
-9.51073e-08
1.72027e-05
-9.87946e-08
1.72608e-05
-1.01691e-07
1.73212e-05
-1.06262e-07
1.73836e-05
-1.11412e-07
1.74455e-05
-1.11259e-07
1.75033e-05
-1.03823e-07
1.75563e-05
-9.47412e-08
1.7604e-05
-8.47694e-08
1.76464e-05
-7.47776e-08
1.76837e-05
-6.51528e-08
1.77164e-05
-5.66607e-08
1.77452e-05
-4.93198e-08
1.777e-05
-4.21168e-08
1.7791e-05
-3.51168e-08
1.78083e-05
-2.87201e-08
1.78228e-05
-2.37782e-08
1.78352e-05
-2.01395e-08
1.78458e-05
-1.71077e-08
1.78548e-05
-1.45835e-08
1.78626e-05
-1.2449e-08
1.78692e-05
-1.06354e-08
1.78749e-05
-9.09696e-09
1.78798e-05
-7.7508e-09
1.7884e-05
-6.64642e-09
1.78875e-05
-5.64242e-09
1.78906e-05
-4.83707e-09
1.78932e-05
-4.1408e-09
1.78954e-05
-3.50284e-09
1.78973e-05
-3.12692e-09
1.7899e-05
-2.67244e-09
1.79006e-05
-2.26428e-09
1.79017e-05
-1.91911e-09
1.79026e-05
-1.44915e-09
1.79033e-05
-1.26261e-09
1.79041e-05
-1.00865e-09
1.79042e-05
-6.17455e-10
1.79031e-05
3.39494e-09
1.78859e-05
2.68781e-08
1.77083e-05
3.61843e-07
1.79829e-05
-5.72366e-07
2.02721e-05
-4.89829e-06
2.12953e-05
-1.5574e-06
2.02328e-05
3.02913e-06
2.00835e-05
1.74587e-07
1.99572e-05
1.53768e-07
1.99115e-05
3.17529e-08
1.98488e-05
7.35549e-08
1.98073e-05
4.3723e-08
1.97703e-05
3.58098e-08
1.97412e-05
2.76744e-08
1.97195e-05
2.0723e-08
1.97026e-05
1.56962e-08
1.96906e-05
9.27988e-09
1.96814e-05
6.74987e-09
1.96744e-05
4.62381e-09
1.96689e-05
3.34767e-09
1.96648e-05
2.0803e-09
1.96617e-05
1.472e-09
1.96595e-05
5.37679e-10
1.96578e-05
3.48563e-10
1.96565e-05
3.50508e-10
1.96558e-05
-2.88569e-10
1.96553e-05
-4.18506e-10
1.9655e-05
-8.95406e-11
1.96551e-05
-6.93323e-10
1.96551e-05
-4.46311e-10
1.96551e-05
-1.50077e-10
1.96554e-05
-6.05971e-10
1.96557e-05
-5.35244e-10
1.96558e-05
-1.00301e-10
1.96561e-05
-5.07252e-10
1.96561e-05
1.69468e-10
1.96564e-05
-5.16711e-10
1.96567e-05
-2.97837e-10
1.96568e-05
4.0328e-11
1.9657e-05
-3.68874e-10
1.96572e-05
-3.347e-10
1.96572e-05
1.84286e-10
1.96574e-05
-3.29256e-10
1.96573e-05
3.61326e-10
1.96575e-05
-2.99971e-10
1.96576e-05
-2.04458e-10
1.96576e-05
2.00639e-10
1.96577e-05
-2.39122e-10
1.96576e-05
3.75131e-10
1.96576e-05
-2.18992e-10
1.96577e-05
-2.15626e-10
1.96577e-05
2.69362e-10
1.96578e-05
-2.51205e-10
1.96576e-05
4.39115e-10
1.96577e-05
-2.40904e-10
1.96578e-05
-1.72339e-10
1.96577e-05
2.58485e-10
1.96578e-05
-2.18012e-10
1.96576e-05
4.3402e-10
1.96576e-05
-2.15376e-10
1.96577e-05
-1.69288e-10
1.96576e-05
2.53743e-10
1.96577e-05
-2.75796e-10
1.96575e-05
5.38872e-10
1.96576e-05
-3.53888e-10
1.96576e-05
8.6456e-12
1.96576e-05
5.19438e-12
1.96576e-05
5.1328e-11
1.96575e-05
2.01969e-10
1.96575e-05
-5.16797e-12
1.96576e-05
-2.99632e-10
1.96576e-05
1.7853e-10
1.96575e-05
8.01715e-11
1.96576e-05
-6.03576e-11
1.96574e-05
4.44725e-10
1.96578e-05
-1.08765e-09
1.96572e-05
1.46378e-09
1.96579e-05
-1.58249e-09
1.9657e-05
2.08926e-09
1.96579e-05
-2.19206e-09
1.9657e-05
2.15284e-09
1.9658e-05
-2.41244e-09
1.96569e-05
2.75149e-09
1.96584e-05
-3.67321e-09
1.96568e-05
4.14006e-09
1.96587e-05
-4.71958e-09
1.96565e-05
5.51043e-09
1.9659e-05
-6.06544e-09
1.96563e-05
6.35657e-09
1.96593e-05
-7.04662e-09
1.96561e-05
7.8329e-09
1.96596e-05
-8.45886e-09
1.96557e-05
9.45806e-09
1.96601e-05
-1.08538e-08
1.96553e-05
1.19121e-08
1.96607e-05
-1.30453e-08
1.96548e-05
1.43698e-08
1.96612e-05
-1.55243e-08
1.96545e-05
1.6338e-08
1.96618e-05
-1.75833e-08
1.96541e-05
1.8791e-08
1.96627e-05
-2.07316e-08
1.96537e-05
2.2054e-08
1.96634e-05
-2.36442e-08
1.96531e-05
2.5243e-08
1.96642e-05
-2.67904e-08
1.96527e-05
2.78155e-08
1.9665e-05
-2.94055e-08
1.96522e-05
3.0862e-08
1.96656e-05
-3.22895e-08
1.96517e-05
3.38182e-08
1.96665e-05
-3.58733e-08
1.96511e-05
3.73658e-08
1.96674e-05
-3.90444e-08
1.96508e-05
3.99115e-08
1.96681e-05
-4.14076e-08
1.96505e-05
4.2532e-08
1.9669e-05
-4.44236e-08
1.96502e-05
4.54707e-08
1.96697e-05
-4.68163e-08
1.96498e-05
4.79452e-08
1.96703e-05
-4.89458e-08
1.96497e-05
4.9299e-08
1.96707e-05
-5.00713e-08
1.96495e-05
5.06922e-08
1.96713e-05
-5.18771e-08
1.96494e-05
5.23551e-08
1.96716e-05
-5.29201e-08
1.96492e-05
5.34435e-08
1.96717e-05
-5.36718e-08
1.96493e-05
5.34376e-08
1.96718e-05
-5.34747e-08
1.96493e-05
5.35066e-08
1.9672e-05
-5.39349e-08
1.96494e-05
5.38363e-08
1.96719e-05
-5.36071e-08
1.96497e-05
5.28522e-08
1.96717e-05
-5.2378e-08
1.965e-05
5.19113e-08
1.96717e-05
-5.17577e-08
1.96502e-05
5.1121e-08
1.96714e-05
-5.03538e-08
1.96505e-05
4.97629e-08
1.96709e-05
-4.87516e-08
1.9651e-05
4.74424e-08
1.96704e-05
-4.63153e-08
1.96514e-05
4.52459e-08
1.96701e-05
-4.46537e-08
1.96518e-05
4.35181e-08
1.96696e-05
-4.22981e-08
1.96524e-05
4.07825e-08
1.9669e-05
-3.92244e-08
1.96529e-05
3.81188e-08
1.96685e-05
-3.72291e-08
1.96534e-05
3.57781e-08
1.96679e-05
-3.47261e-08
1.9654e-05
3.28003e-08
1.96672e-05
-3.13019e-08
1.96545e-05
3.04491e-08
1.96667e-05
-2.88985e-08
1.96549e-05
2.81033e-08
1.96661e-05
-2.66695e-08
1.96555e-05
2.45643e-08
1.96654e-05
-2.38813e-08
1.96558e-05
2.23171e-08
1.96649e-05
-2.13175e-08
1.96561e-05
2.11064e-08
1.96642e-05
-1.86749e-08
1.96567e-05
1.80279e-08
1.96637e-05
-1.67263e-08
1.96569e-05
1.49817e-08
1.96632e-05
-1.55279e-08
1.96571e-05
1.40746e-08
1.96626e-05
-1.28095e-08
1.96574e-05
1.29402e-08
1.9662e-05
-1.00084e-08
1.96576e-05
1.04965e-08
1.96617e-05
-9.96119e-09
1.96577e-05
8.16068e-09
1.96612e-05
-9.00905e-09
1.9658e-05
6.83492e-09
1.96605e-05
-5.58722e-09
1.96578e-05
7.12262e-09
1.96603e-05
-4.3788e-09
1.96581e-05
5.51516e-09
1.96599e-05
-4.76835e-09
1.96584e-05
2.36929e-09
1.96597e-05
-4.78364e-09
1.96583e-05
3.04078e-09
1.96593e-05
-2.19855e-09
1.96583e-05
3.89591e-09
1.96591e-05
-4.08292e-10
1.96583e-05
2.20481e-09
1.96591e-05
-2.3082e-09
1.96584e-05
1.21364e-10
1.96588e-05
-2.73498e-09
1.96583e-05
7.16365e-10
1.96584e-05
1.59643e-10
1.96579e-05
2.56807e-09
1.96583e-05
8.92729e-10
1.96582e-05
8.17968e-10
1.96584e-05
-9.05712e-10
1.96584e-05
-1.65131e-09
1.96585e-05
-2.0713e-09
1.9658e-05
2.56803e-10
1.9658e-05
5.44054e-10
1.96577e-05
2.32278e-09
1.96578e-05
1.90573e-09
1.96579e-05
5.12161e-10
1.96582e-05
-1.13916e-09
1.96583e-05
-2.22415e-09
1.96582e-05
-1.68178e-09
1.96579e-05
-3.47251e-10
1.96577e-05
8.23361e-10
1.96573e-05
2.89632e-09
1.96575e-05
1.65252e-09
1.96578e-05
4.34122e-10
1.96582e-05
-1.48157e-09
1.96583e-05
-1.99301e-09
1.96583e-05
-2.34937e-09
1.96579e-05
-1.69739e-10
1.96577e-05
7.68048e-10
1.96572e-05
3.16876e-09
1.96575e-05
1.81489e-09
1.96578e-05
4.36745e-10
1.96583e-05
-1.46728e-09
1.96586e-05
-2.44805e-09
1.96584e-05
-2.89906e-09
1.96577e-05
8.85384e-10
1.96569e-05
2.96977e-09
1.96616e-05
-1.13529e-08
1.96561e-05
1.33456e-08
1.96554e-05
1.01123e-09
1.96564e-05
-2.17191e-09
1.96568e-05
-1.42289e-09
1.96576e-05
4.83053e-10
1.96616e-05
-7.74696e-09
1.96697e-05
-2.97405e-08
1.96201e-05
1.46496e-07
1.99106e-05
-7.10632e-07
1.90593e-05
1.73997e-06
1.69874e-05
4.49916e-06
1.7298e-05
-1.18274e-06
1.75e-05
-6.69195e-07
-1.69591e-07
2.26921e-05
4.96381e-06
2.29813e-05
3.76519e-06
2.28167e-05
3.12121e-06
2.23685e-05
2.18604e-06
2.18555e-05
1.42264e-06
2.14056e-05
9.39361e-07
2.10587e-05
6.11415e-07
2.07922e-05
4.09769e-07
2.05857e-05
2.82737e-07
2.04396e-05
1.70587e-07
2.03397e-05
9.09872e-08
2.02716e-05
4.18389e-08
2.02314e-05
-4.46097e-09
2.02158e-05
-3.85592e-08
2.02188e-05
-6.44103e-08
2.0236e-05
-9.25747e-08
2.02663e-05
-1.12977e-07
2.03079e-05
-1.31137e-07
2.03574e-05
-1.44641e-07
2.04131e-05
-1.54552e-07
2.04728e-05
-1.61374e-07
2.05337e-05
-1.67148e-07
2.05948e-05
-1.72527e-07
2.06545e-05
-1.70976e-07
2.07102e-05
-1.59525e-07
2.07613e-05
-1.45751e-07
2.08073e-05
-1.30786e-07
2.08483e-05
-1.15788e-07
2.08844e-05
-1.01304e-07
2.09162e-05
-8.84585e-08
2.09442e-05
-7.73296e-08
2.09685e-05
-6.6395e-08
2.09891e-05
-5.57011e-08
2.10062e-05
-4.58313e-08
2.10206e-05
-3.81257e-08
2.10328e-05
-3.23937e-08
2.10433e-05
-2.76228e-08
2.10523e-05
-2.36005e-08
2.10601e-05
-2.01896e-08
2.10667e-05
-1.72589e-08
2.10724e-05
-1.47777e-08
2.10772e-05
-1.2595e-08
2.10814e-05
-1.08073e-08
2.10849e-05
-9.17398e-09
2.1088e-05
-7.88241e-09
2.10906e-05
-6.71559e-09
2.10928e-05
-5.71777e-09
2.10947e-05
-5.0698e-09
2.10964e-05
-4.35933e-09
2.10979e-05
-3.7803e-09
2.1099e-05
-3.02973e-09
2.10999e-05
-2.35772e-09
2.11007e-05
-2.06471e-09
2.11014e-05
-1.67966e-09
2.11019e-05
-1.09125e-09
2.11009e-05
4.39122e-09
2.10928e-05
3.49605e-08
2.0989e-05
4.65685e-07
2.11822e-05
-7.65646e-07
2.28208e-05
-6.53684e-06
2.37804e-05
-2.51705e-06
2.33015e-05
3.50806e-06
2.3171e-05
3.05063e-07
2.30682e-05
2.56643e-07
2.30172e-05
8.26884e-08
2.29555e-05
1.35295e-07
2.29099e-05
8.93211e-08
2.2871e-05
7.47171e-08
2.28393e-05
5.93795e-08
2.28152e-05
4.48094e-08
2.27959e-05
3.49604e-08
2.27813e-05
2.38847e-08
2.27699e-05
1.82056e-08
2.27608e-05
1.36707e-08
2.27536e-05
1.05614e-08
2.27479e-05
7.75178e-09
2.27434e-05
5.9682e-09
2.274e-05
3.9621e-09
2.27374e-05
2.97571e-09
2.27353e-05
2.43721e-09
2.27338e-05
1.1734e-09
2.27328e-05
5.64172e-10
2.27321e-05
6.89002e-10
2.27317e-05
-3.06143e-10
2.27315e-05
-2.31069e-10
2.27313e-05
8.54624e-13
2.27314e-05
-6.4641e-10
2.27315e-05
-6.96747e-10
2.27316e-05
-2.09614e-10
2.27318e-05
-7.00455e-10
2.27319e-05
8.36625e-11
2.27321e-05
-7.45052e-10
2.27323e-05
-4.90427e-10
2.27325e-05
-9.98347e-11
2.27327e-05
-5.69774e-10
2.27329e-05
-5.21838e-10
2.27329e-05
9.875e-11
2.27331e-05
-5.06282e-10
2.27331e-05
3.7366e-10
2.27332e-05
-4.12266e-10
2.27333e-05
-3.11225e-10
2.27333e-05
1.77891e-10
2.27334e-05
-3.30269e-10
2.27334e-05
4.39535e-10
2.27334e-05
-2.73289e-10
2.27335e-05
-2.97542e-10
2.27335e-05
2.95041e-10
2.27335e-05
-3.09985e-10
2.27334e-05
5.40201e-10
2.27335e-05
-2.81171e-10
2.27335e-05
-2.33132e-10
2.27335e-05
2.92232e-10
2.27335e-05
-2.49985e-10
2.27334e-05
5.51314e-10
2.27334e-05
-2.41368e-10
2.27335e-05
-2.33114e-10
2.27335e-05
2.84856e-10
2.27335e-05
-3.06584e-10
2.27334e-05
6.77217e-10
2.27334e-05
-4.28164e-10
2.27334e-05
4.70928e-12
2.27334e-05
7.23726e-12
2.27334e-05
6.79581e-11
2.27334e-05
2.59837e-10
2.27334e-05
1.15112e-11
2.27334e-05
-3.69567e-10
2.27334e-05
1.94549e-10
2.27333e-05
1.68944e-10
2.27334e-05
-1.55615e-10
2.27333e-05
6.02747e-10
2.27335e-05
-1.31582e-09
2.27332e-05
1.7503e-09
2.27335e-05
-1.91746e-09
2.27331e-05
2.54867e-09
2.27336e-05
-2.68809e-09
2.27331e-05
2.66696e-09
2.27337e-05
-3.01336e-09
2.27331e-05
3.35397e-09
2.27339e-05
-4.51122e-09
2.27331e-05
4.98254e-09
2.27341e-05
-5.76537e-09
2.27329e-05
6.68157e-09
2.27343e-05
-7.41413e-09
2.27329e-05
7.74296e-09
2.27345e-05
-8.67081e-09
2.27328e-05
9.55387e-09
2.27347e-05
-1.03547e-08
2.27326e-05
1.1509e-08
2.2735e-05
-1.32471e-08
2.27325e-05
1.44213e-08
2.27354e-05
-1.59091e-08
2.27323e-05
1.74358e-08
2.27357e-05
-1.89487e-08
2.27322e-05
1.9861e-08
2.27362e-05
-2.15104e-08
2.27321e-05
2.2808e-08
2.27367e-05
-2.53064e-08
2.27321e-05
2.6705e-08
2.27372e-05
-2.88328e-08
2.27319e-05
3.06175e-08
2.27378e-05
-3.26667e-08
2.27318e-05
3.37747e-08
2.27383e-05
-3.59099e-08
2.27317e-05
3.74923e-08
2.27388e-05
-3.93752e-08
2.27315e-05
4.10758e-08
2.27393e-05
-4.37077e-08
2.27314e-05
4.5329e-08
2.27399e-05
-4.76063e-08
2.27314e-05
4.84751e-08
2.27405e-05
-5.05338e-08
2.27314e-05
5.16612e-08
2.27411e-05
-5.41635e-08
2.27314e-05
5.5191e-08
2.27416e-05
-5.70602e-08
2.27313e-05
5.8267e-08
2.2742e-05
-5.96643e-08
2.27313e-05
5.99892e-08
2.27424e-05
-6.11016e-08
2.27314e-05
6.17004e-08
2.27428e-05
-6.32749e-08
2.27314e-05
6.37e-08
2.27431e-05
-6.45681e-08
2.27314e-05
6.51411e-08
2.27432e-05
-6.55336e-08
2.27314e-05
6.52397e-08
2.27433e-05
-6.53815e-08
2.27315e-05
6.5355e-08
2.27435e-05
-6.59308e-08
2.27316e-05
6.57602e-08
2.27435e-05
-6.55938e-08
2.27317e-05
6.46799e-08
2.27435e-05
-6.41756e-08
2.27318e-05
6.35892e-08
2.27435e-05
-6.34078e-08
2.2732e-05
6.26252e-08
2.27434e-05
-6.17335e-08
2.2732e-05
6.10897e-08
2.27431e-05
-5.98244e-08
2.27322e-05
5.83362e-08
2.27428e-05
-5.69328e-08
2.27324e-05
5.57057e-08
2.27426e-05
-5.4888e-08
2.27326e-05
5.35781e-08
2.27423e-05
-5.20589e-08
2.27328e-05
5.0279e-08
2.2742e-05
-4.8389e-08
2.2733e-05
4.70778e-08
2.27417e-05
-4.588e-08
2.27332e-05
4.42459e-08
2.27413e-05
-4.27865e-08
2.27334e-05
4.06295e-08
2.27408e-05
-3.87034e-08
2.27336e-05
3.76844e-08
2.27405e-05
-3.57997e-08
2.27338e-05
3.48008e-08
2.274e-05
-3.29393e-08
2.2734e-05
3.06218e-08
2.27396e-05
-2.94542e-08
2.27341e-05
2.78584e-08
2.27392e-05
-2.64315e-08
2.27342e-05
2.60961e-08
2.27387e-05
-2.3225e-08
2.27344e-05
2.23311e-08
2.27383e-05
-2.06683e-08
2.27345e-05
1.88592e-08
2.27378e-05
-1.88498e-08
2.27347e-05
1.72644e-08
2.27371e-05
-1.53089e-08
2.27347e-05
1.53763e-08
2.27369e-05
-1.22518e-08
2.27346e-05
1.27143e-08
2.27366e-05
-1.19313e-08
2.27347e-05
1.01057e-08
2.27362e-05
-1.04798e-08
2.27347e-05
8.43387e-09
2.27357e-05
-6.69161e-09
2.27344e-05
8.43159e-09
2.27355e-05
-5.54573e-09
2.27344e-05
6.56655e-09
2.27354e-05
-5.73974e-09
2.27346e-05
3.19816e-09
2.27353e-05
-5.40836e-09
2.27344e-05
3.96815e-09
2.27348e-05
-2.63436e-09
2.27342e-05
4.50317e-09
2.27346e-05
-8.91571e-10
2.27343e-05
2.46562e-09
2.27348e-05
-2.7951e-09
2.27345e-05
4.60434e-10
2.27347e-05
-2.78944e-09
2.27342e-05
1.19014e-09
2.27341e-05
3.09534e-10
2.27336e-05
2.91769e-09
2.27339e-05
5.53734e-10
2.2734e-05
6.57222e-10
2.27343e-05
-1.20953e-09
2.27345e-05
-1.73413e-09
2.27344e-05
-1.90477e-09
2.2734e-05
7.41937e-10
2.27336e-05
8.55746e-10
2.27333e-05
2.60654e-09
2.27333e-05
1.7143e-09
2.27336e-05
2.0367e-10
2.27341e-05
-1.63807e-09
2.27346e-05
-2.53918e-09
2.27343e-05
-1.35499e-09
2.27339e-05
1.35221e-10
2.27333e-05
1.36319e-09
2.27327e-05
3.4031e-09
2.2733e-05
1.28488e-09
2.27335e-05
-9.04668e-11
2.27343e-05
-2.28704e-09
2.27348e-05
-2.42695e-09
2.27346e-05
-2.03922e-09
2.2734e-05
5.3364e-10
2.27332e-05
1.56088e-09
2.27322e-05
3.9543e-09
2.27326e-05
1.31355e-09
2.27334e-05
-3.63287e-10
2.27346e-05
-2.62892e-09
2.27355e-05
-3.23411e-09
2.2735e-05
-2.31349e-09
2.27343e-05
1.68581e-09
2.27334e-05
3.80034e-09
2.27357e-05
-1.36264e-08
2.27328e-05
1.62388e-08
2.2732e-05
1.74951e-09
2.27325e-05
-2.62419e-09
2.27329e-05
-1.8148e-09
2.27346e-05
-1.2052e-09
2.27362e-05
-9.41783e-09
2.27385e-05
-3.20439e-08
2.27115e-05
1.73585e-07
2.28043e-05
-8.03478e-07
2.2324e-05
2.22024e-06
2.09447e-05
5.87845e-06
2.08042e-05
-1.04223e-06
2.08385e-05
-7.0343e-07
-1.89271e-07
2.29204e-05
3.98093e-06
2.35921e-05
3.09351e-06
2.40631e-05
2.65015e-06
2.42235e-05
2.02565e-06
2.41512e-05
1.49492e-06
2.39395e-05
1.15106e-06
2.36614e-05
8.89565e-07
2.33847e-05
6.86483e-07
2.31479e-05
5.19483e-07
2.29551e-05
3.63419e-07
2.27993e-05
2.46757e-07
2.26769e-05
1.64304e-07
2.25892e-05
8.31681e-08
2.25332e-05
1.74668e-08
2.25023e-05
-3.34653e-08
2.24939e-05
-8.42364e-08
2.25022e-05
-1.21242e-07
2.25246e-05
-1.53585e-07
2.25594e-05
-1.79427e-07
2.26026e-05
-1.97757e-07
2.26512e-05
-2.09945e-07
2.27e-05
-2.15935e-07
2.27467e-05
-2.19299e-07
2.27913e-05
-2.15478e-07
2.28322e-05
-2.00445e-07
2.28692e-05
-1.82798e-07
2.29023e-05
-1.63873e-07
2.29315e-05
-1.44997e-07
2.2957e-05
-1.26829e-07
2.29794e-05
-1.10793e-07
2.2999e-05
-9.6925e-08
2.30158e-05
-8.32587e-08
2.303e-05
-6.98494e-08
2.30416e-05
-5.74845e-08
2.30514e-05
-4.78954e-08
2.30598e-05
-4.07758e-08
2.3067e-05
-3.4834e-08
2.30732e-05
-2.97834e-08
2.30785e-05
-2.54911e-08
2.3083e-05
-2.17873e-08
2.30869e-05
-1.86522e-08
2.30902e-05
-1.59003e-08
2.3093e-05
-1.3633e-08
2.30954e-05
-1.15834e-08
2.30975e-05
-9.94413e-09
2.30992e-05
-8.46961e-09
2.31007e-05
-7.21303e-09
2.31021e-05
-6.39045e-09
2.31032e-05
-5.47451e-09
2.31042e-05
-4.76637e-09
2.3105e-05
-3.82291e-09
2.31056e-05
-2.97446e-09
2.31061e-05
-2.64644e-09
2.31066e-05
-2.09454e-09
2.31071e-05
-1.60258e-09
2.31067e-05
4.71634e-09
2.31075e-05
3.4165e-08
2.31124e-05
4.60825e-07
2.32176e-05
-8.70879e-07
2.39574e-05
-7.27658e-06
2.45392e-05
-3.09883e-06
2.45351e-05
3.51217e-06
2.44831e-05
3.57006e-07
2.44409e-05
2.98816e-07
2.44126e-05
1.10977e-07
2.43806e-05
1.67359e-07
2.43534e-05
1.16512e-07
2.43271e-05
1.00974e-07
2.43055e-05
8.10408e-08
2.42885e-05
6.18213e-08
2.42742e-05
4.91884e-08
2.42627e-05
3.54137e-08
2.42533e-05
2.76265e-08
2.42455e-05
2.14449e-08
2.42391e-05
1.69932e-08
2.42338e-05
1.30418e-08
2.42294e-05
1.03108e-08
2.42259e-05
7.47601e-09
2.42231e-05
5.76235e-09
2.42209e-05
4.7104e-09
2.42191e-05
2.94326e-09
2.42178e-05
1.86435e-09
2.42168e-05
1.73756e-09
2.4216e-05
4.34428e-10
2.42155e-05
2.43571e-10
2.42152e-05
3.77996e-10
2.4215e-05
-4.3315e-10
2.42149e-05
-6.33359e-10
2.42148e-05
-1.39216e-10
2.42148e-05
-7.21118e-10
2.42149e-05
6.05669e-11
2.42149e-05
-8.2469e-10
2.4215e-05
-5.78064e-10
2.42151e-05
-1.96991e-10
2.42152e-05
-6.68614e-10
2.42153e-05
-6.17579e-10
2.42154e-05
1.80042e-11
2.42155e-05
-6.08032e-10
2.42155e-05
3.3967e-10
2.42156e-05
-4.70319e-10
2.42157e-05
-3.79481e-10
2.42157e-05
1.38766e-10
2.42157e-05
-3.77e-10
2.42157e-05
4.44867e-10
2.42158e-05
-2.95839e-10
2.42158e-05
-3.44771e-10
2.42158e-05
2.8718e-10
2.42158e-05
-3.26256e-10
2.42158e-05
5.65815e-10
2.42158e-05
-2.88163e-10
2.42158e-05
-2.64674e-10
2.42158e-05
2.95497e-10
2.42158e-05
-2.51161e-10
2.42158e-05
5.87539e-10
2.42158e-05
-2.36453e-10
2.42158e-05
-2.64928e-10
2.42158e-05
2.91919e-10
2.42158e-05
-3.03319e-10
2.42158e-05
7.18038e-10
2.42158e-05
-4.42782e-10
2.42158e-05
8.37088e-13
2.42158e-05
1.07087e-11
2.42158e-05
7.45585e-11
2.42158e-05
2.8245e-10
2.42158e-05
2.77588e-11
2.42158e-05
-3.91102e-10
2.42158e-05
1.93155e-10
2.42157e-05
2.19781e-10
2.42158e-05
-2.12218e-10
2.42157e-05
6.79942e-10
2.42158e-05
-1.39289e-09
2.42157e-05
1.82591e-09
2.42158e-05
-2.00296e-09
2.42157e-05
2.65598e-09
2.42158e-05
-2.80858e-09
2.42157e-05
2.79107e-09
2.42159e-05
-3.18791e-09
2.42157e-05
3.49724e-09
2.42159e-05
-4.74251e-09
2.42158e-05
5.16744e-09
2.4216e-05
-6.03265e-09
2.42158e-05
6.92932e-09
2.42161e-05
-7.74131e-09
2.42158e-05
8.04383e-09
2.42162e-05
-9.08893e-09
2.42158e-05
9.94277e-09
2.42163e-05
-1.0819e-08
2.42159e-05
1.19598e-08
2.42164e-05
-1.38309e-08
2.42159e-05
1.49579e-08
2.42166e-05
-1.65863e-08
2.42159e-05
1.80767e-08
2.42167e-05
-1.97445e-08
2.4216e-05
2.06005e-08
2.42169e-05
-2.24518e-08
2.42161e-05
2.36563e-08
2.42172e-05
-2.63923e-08
2.42162e-05
2.76601e-08
2.42174e-05
-3.00367e-08
2.42163e-05
3.17246e-08
2.42177e-05
-3.40026e-08
2.42164e-05
3.50035e-08
2.42179e-05
-3.74099e-08
2.42166e-05
3.88757e-08
2.42182e-05
-4.09817e-08
2.42166e-05
4.25989e-08
2.42184e-05
-4.54721e-08
2.42168e-05
4.69489e-08
2.42187e-05
-4.95046e-08
2.42169e-05
5.02129e-08
2.4219e-05
-5.25764e-08
2.42171e-05
5.3532e-08
2.42193e-05
-5.63183e-08
2.42173e-05
5.71416e-08
2.42195e-05
-5.92771e-08
2.42175e-05
6.03393e-08
2.42197e-05
-6.1932e-08
2.42176e-05
6.21318e-08
2.422e-05
-6.34535e-08
2.42177e-05
6.39216e-08
2.42201e-05
-6.56754e-08
2.42179e-05
6.59396e-08
2.42203e-05
-6.69748e-08
2.4218e-05
6.74564e-08
2.42204e-05
-6.79314e-08
2.42181e-05
6.75693e-08
2.42205e-05
-6.78032e-08
2.42181e-05
6.7706e-08
2.42205e-05
-6.83367e-08
2.42182e-05
6.80583e-08
2.42206e-05
-6.79309e-08
2.42183e-05
6.69446e-08
2.42206e-05
-6.64771e-08
2.42184e-05
6.58418e-08
2.42206e-05
-6.5635e-08
2.42184e-05
6.47709e-08
2.42205e-05
-6.38308e-08
2.42185e-05
6.317e-08
2.42204e-05
-6.17732e-08
2.42185e-05
6.02886e-08
2.42203e-05
-5.8801e-08
2.42184e-05
5.75903e-08
2.42202e-05
-5.66269e-08
2.42185e-05
5.52646e-08
2.422e-05
-5.35876e-08
2.42185e-05
5.17954e-08
2.42199e-05
-4.9823e-08
2.42185e-05
4.85351e-08
2.42198e-05
-4.71734e-08
2.42184e-05
4.55713e-08
2.42196e-05
-4.39343e-08
2.42184e-05
4.18435e-08
2.42194e-05
-3.9747e-08
2.42183e-05
3.87747e-08
2.42193e-05
-3.67723e-08
2.42183e-05
3.57985e-08
2.42191e-05
-3.38007e-08
2.42182e-05
3.15771e-08
2.4219e-05
-3.01634e-08
2.42181e-05
2.87386e-08
2.42187e-05
-2.70779e-08
2.42179e-05
2.68447e-08
2.42185e-05
-2.38757e-08
2.42179e-05
2.29839e-08
2.42184e-05
-2.12149e-08
2.42178e-05
1.95196e-08
2.42183e-05
-1.92224e-08
2.42176e-05
1.79057e-08
2.4218e-05
-1.5662e-08
2.42174e-05
1.58853e-08
2.42177e-05
-1.26891e-08
2.42173e-05
1.30912e-08
2.42177e-05
-1.22799e-08
2.42174e-05
1.05157e-08
2.42176e-05
-1.06214e-08
2.42171e-05
8.98267e-09
2.42172e-05
-6.83622e-09
2.42167e-05
8.82057e-09
2.4217e-05
-5.91334e-09
2.42167e-05
6.75776e-09
2.42171e-05
-6.07766e-09
2.4217e-05
3.42449e-09
2.42171e-05
-5.40334e-09
2.42167e-05
4.41139e-09
2.42166e-05
-2.56063e-09
2.42162e-05
4.75259e-09
2.42164e-05
-1.16763e-09
2.42164e-05
2.36785e-09
2.42168e-05
-3.1063e-09
2.42169e-05
4.81209e-10
2.42168e-05
-2.56752e-09
2.42165e-05
1.57537e-09
2.42161e-05
6.57186e-10
2.42157e-05
3.19644e-09
2.42158e-05
2.37673e-10
2.42161e-05
3.27975e-10
2.42166e-05
-1.6425e-09
2.4217e-05
-1.94938e-09
2.42168e-05
-1.57024e-09
2.42163e-05
1.25529e-09
2.42157e-05
1.4041e-09
2.42152e-05
2.96436e-09
2.42154e-05
1.37235e-09
2.42158e-05
-2.9345e-10
2.42166e-05
-2.33215e-09
2.42172e-05
-3.00665e-09
2.42169e-05
-9.05841e-10
2.42163e-05
8.23383e-10
2.42154e-05
2.21952e-09
2.42146e-05
4.02145e-09
2.42149e-05
7.96766e-10
2.42156e-05
-8.80401e-10
2.42168e-05
-3.40495e-09
2.42178e-05
-3.20312e-09
2.42174e-05
-1.47989e-09
2.42165e-05
1.52854e-09
2.42151e-05
2.9092e-09
2.42138e-05
4.99953e-09
2.42143e-05
6.23712e-10
2.42154e-05
-1.56315e-09
2.42172e-05
-4.39109e-09
2.42188e-05
-4.56323e-09
2.42181e-05
-1.41815e-09
2.42171e-05
2.81323e-09
2.42161e-05
4.70662e-09
2.42164e-05
-1.39378e-08
2.42158e-05
1.68543e-08
2.42153e-05
2.22401e-09
2.42154e-05
-2.69123e-09
2.42156e-05
-2.03187e-09
2.42171e-05
-2.68111e-09
2.42173e-05
-9.64997e-09
2.4216e-05
-3.07657e-08
2.42065e-05
1.83125e-07
2.41709e-05
-7.67887e-07
2.40273e-05
2.36381e-06
2.34336e-05
6.47211e-06
2.31248e-05
-7.33339e-07
2.30512e-05
-6.29868e-07