/*--------------------------------*- C++ -*----------------------------------*\
| =========                 |                                                 |
| \\      /  F ield         | foam-extend: Open Source CFD                    |
|  \\    /   O peration     | Version:     3.2                                |
|   \\  /    A nd           | Web:         http://www.foam-extend.org         |
|    \\/     M anipulation  | For copyright notice see file Copyright         |
\*---------------------------------------------------------------------------*/
FoamFile
{
    version     2.0;
    format      ascii;
    class       areaVectorField;
    location    "2000";
    object      PointNormalVector;
}
// * * * * * * * * * * * * * * * * * * * * * * * * * * * * * * * * * * * * * //

dimensions      [0 0 0 0 0 0 0];

internalField   nonuniform List<vector> 
300
(
(5e-06 -0 0.001)
(5e-06 -0 0.001)
(5e-06 -0 0.001)
(5e-06 -0 0.001)
(5e-06 -4.23516e-22 0.001)
(5e-06 -4.23516e-22 0.001)
(5e-06 -4.23516e-22 0.001)
(5e-06 -4.23516e-22 0.001)
(5e-06 -0 0.001)
(5e-06 -4.23516e-22 0.001)
(5e-06 -0 0.001)
(5e-06 4.23516e-22 0.001)
(5e-06 -0 0.001)
(5e-06 4.23516e-22 0.001)
(5e-06 -0 0.001)
(5e-06 -0 0.001)
(5e-06 4.23516e-22 0.001)
(5e-06 -4.23516e-22 0.001)
(5e-06 4.23516e-22 0.001)
(5e-06 -0 0.001)
(5e-06 -0 0.001)
(5e-06 -4.23516e-22 0.001)
(5e-06 -0 0.001)
(5e-06 -0 0.001)
(5e-06 -0 0.001)
(5e-06 -4.23516e-22 0.001)
(5e-06 -0 0.001)
(5e-06 -0 0.001)
(5e-06 -0 0.001)
(5e-06 -4.23516e-22 0.001)
(5e-06 -0 0.001)
(5e-06 -0 0.001)
(5e-06 -0 0.001)
(5e-06 -0 0.001)
(5e-06 -0 0.001)
(5e-06 -0 0.001)
(5e-06 -0 0.001)
(5e-06 -0 0.001)
(5e-06 -0 0.001)
(5e-06 -0 0.001)
(5e-06 -0 0.001)
(5e-06 -4.23516e-22 0.001)
(5e-06 -0 0.001)
(5e-06 -4.23516e-22 0.001)
(5e-06 -0 0.001)
(5e-06 -0 0.001)
(5e-06 -4.23516e-22 0.001)
(5e-06 -0 0.001)
(5e-06 -4.23516e-22 0.001)
(5e-06 -0 0.001)
(5e-06 -0 0.001)
(5e-06 -4.23516e-22 0.001)
(5e-06 -0 0.001)
(5e-06 -4.23516e-22 0.001)
(5e-06 -0 0.001)
(5e-06 -0 0.001)
(5e-06 -4.23516e-22 0.001)
(5e-06 -0 0.001)
(5e-06 -0 0.001)
(-3.88107e-05 -3.38813e-21 0.001)
(-1.94263e-05 -0 0.001)
(2.19697e-05 1.69407e-21 0.001)
(4.04961e-06 -0 0.001)
(5.90906e-06 4.23516e-22 0.001)
(4.81212e-06 -0 0.001)
(5.496e-06 -0 0.001)
(5.3287e-06 -0 0.001)
(5.40033e-06 -4.23516e-22 0.001)
(5.39035e-06 4.23516e-22 0.001)
(5.38241e-06 -0 0.001)
(5.37741e-06 -0 0.001)
(5.33518e-06 -4.23516e-22 0.001)
(5.3113e-06 4.23516e-22 0.001)
(5.28222e-06 4.23516e-22 0.001)
(5.25563e-06 4.23516e-22 0.001)
(5.22534e-06 -0 0.001)
(5.19908e-06 -0 0.001)
(5.16989e-06 -0 0.001)
(5.14542e-06 -4.23516e-22 0.001)
(5.12583e-06 -0 0.001)
(5.10285e-06 -0 0.001)
(5.08311e-06 -0 0.001)
(5.07218e-06 -0 0.001)
(5.05442e-06 -4.23516e-22 0.001)
(5.04325e-06 4.23516e-22 0.001)
(5.03697e-06 4.23516e-22 0.001)
(5.02572e-06 4.23516e-22 0.001)
(5.01794e-06 -4.23516e-22 0.001)
(5.01792e-06 -0 0.001)
(5.00866e-06 4.23516e-22 0.001)
(5.01159e-06 -0 0.001)
(5.00361e-06 -0 0.001)
(5.00208e-06 -0 0.001)
(5.00354e-06 -0 0.001)
(4.99988e-06 -0 0.001)
(4.9979e-06 4.23516e-22 0.001)
(5.00167e-06 4.23516e-22 0.001)
(4.99689e-06 -4.23516e-22 0.001)
(5.00294e-06 -0 0.001)
(4.99755e-06 4.23516e-22 0.001)
(4.99738e-06 -4.23516e-22 0.001)
(5.00105e-06 -4.23516e-22 0.001)
(4.99724e-06 4.23516e-22 0.001)
(5.00283e-06 -0 0.001)
(4.99831e-06 -4.23516e-22 0.001)
(4.99733e-06 -0 0.001)
(5.00187e-06 -4.23516e-22 0.001)
(4.99747e-06 -4.23516e-22 0.001)
(5.00365e-06 -0 0.001)
(4.99838e-06 -0 0.001)
(4.99799e-06 -0 0.001)
(5.00201e-06 -0 0.001)
(4.99801e-06 -0 0.001)
(5.00384e-06 -0 0.001)
(4.99886e-06 -0 0.001)
(4.99795e-06 -0 0.001)
(5.00228e-06 -4.23516e-22 0.001)
(4.99772e-06 -0 0.001)
(5.00463e-06 -0 0.001)
(4.99722e-06 -0 0.001)
(5.00026e-06 -0 0.001)
(5.00014e-06 -0 0.001)
(5.0003e-06 -4.23516e-22 0.001)
(5.00158e-06 4.23516e-22 0.001)
(5.00068e-06 -0 0.001)
(4.99762e-06 -0 0.001)
(5.00096e-06 -0 0.001)
(5.00228e-06 -0 0.001)
(4.99691e-06 -0 0.001)
(5.00663e-06 -4.23516e-22 0.001)
(4.98922e-06 -4.23516e-22 0.001)
(5.01366e-06 -0 0.001)
(4.98461e-06 -0 0.001)
(5.01926e-06 4.23516e-22 0.001)
(4.97914e-06 4.23516e-22 0.001)
(5.02115e-06 -0 0.001)
(4.97547e-06 -4.23516e-22 0.001)
(5.02691e-06 -0 0.001)
(4.96446e-06 -0 0.001)
(5.03845e-06 -0 0.001)
(4.95455e-06 -0 0.001)
(5.05053e-06 -4.23516e-22 0.001)
(4.94256e-06 -0 0.001)
(5.05936e-06 4.23516e-22 0.001)
(4.93221e-06 -4.23516e-22 0.001)
(5.07295e-06 -0 0.001)
(4.91877e-06 -0 0.001)
(5.08828e-06 -0 0.001)
(4.89755e-06 4.23516e-22 0.001)
(5.1094e-06 -0 0.001)
(4.8773e-06 -0 0.001)
(5.13119e-06 4.23516e-22 0.001)
(4.85499e-06 -0 0.001)
(5.14993e-06 4.23516e-22 0.001)
(4.83463e-06 -0 0.001)
(5.17229e-06 4.23516e-22 0.001)
(4.80672e-06 4.23516e-22 0.001)
(5.20033e-06 4.23516e-22 0.001)
(4.7802e-06 -4.23516e-22 0.001)
(5.2285e-06 -0 0.001)
(4.75238e-06 -0 0.001)
(5.25241e-06 -4.23516e-22 0.001)
(4.7277e-06 -0 0.001)
(5.27962e-06 -0 0.001)
(4.70163e-06 -0 0.001)
(5.30649e-06 -0 0.001)
(4.67049e-06 -0 0.001)
(5.33643e-06 -0 0.001)
(4.64246e-06 -0 0.001)
(5.35972e-06 -0 0.001)
(4.62017e-06 -0 0.001)
(5.38315e-06 -0 0.001)
(4.59447e-06 -0 0.001)
(5.40787e-06 4.23516e-22 0.001)
(4.57394e-06 -0 0.001)
(5.429e-06 -0 0.001)
(4.55629e-06 -0 0.001)
(5.44204e-06 4.23516e-22 0.001)
(4.54519e-06 -0 0.001)
(5.45445e-06 -0 0.001)
(4.531e-06 -4.23516e-22 0.001)
(5.4678e-06 -0 0.001)
(4.52218e-06 -0 0.001)
(5.47761e-06 4.23516e-22 0.001)
(4.51619e-06 -0 0.001)
(5.47928e-06 -0 0.001)
(4.51689e-06 -0 0.001)
(5.47992e-06 -0 0.001)
(4.51485e-06 -4.23516e-22 0.001)
(5.48119e-06 -0 0.001)
(4.51819e-06 -0 0.001)
(5.47406e-06 -0 0.001)
(4.52818e-06 -0 0.001)
(5.46586e-06 4.23516e-22 0.001)
(4.5357e-06 4.23516e-22 0.001)
(5.45757e-06 -0 0.001)
(4.54871e-06 4.23516e-22 0.001)
(5.44554e-06 -0 0.001)
(4.56388e-06 4.23516e-22 0.001)
(5.42634e-06 -0 0.001)
(4.58472e-06 -4.23516e-22 0.001)
(5.40737e-06 4.23516e-22 0.001)
(4.60179e-06 -4.23516e-22 0.001)
(5.38991e-06 4.23516e-22 0.001)
(4.6228e-06 4.23516e-22 0.001)
(5.36577e-06 -0 0.001)
(4.64849e-06 -4.23516e-22 0.001)
(5.34283e-06 -0 0.001)
(4.66954e-06 -4.23516e-22 0.001)
(5.32254e-06 -0 0.001)
(4.69298e-06 -0 0.001)
(5.29643e-06 -0 0.001)
(4.72007e-06 -0 0.001)
(5.2722e-06 -4.23516e-22 0.001)
(4.74161e-06 -0 0.001)
(5.25184e-06 -0 0.001)
(4.76516e-06 -4.23516e-22 0.001)
(5.22665e-06 -0 0.001)
(4.7911e-06 4.23516e-22 0.001)
(5.20386e-06 -0 0.001)
(4.81018e-06 -4.23516e-22 0.001)
(5.18513e-06 -0 0.001)
(4.83115e-06 -0 0.001)
(5.16268e-06 -0 0.001)
(4.85435e-06 -0 0.001)
(5.14374e-06 -0 0.001)
(4.87046e-06 -4.23516e-22 0.001)
(5.1276e-06 -0 0.001)
(4.88753e-06 -0 0.001)
(5.10809e-06 -0 0.001)
(4.9062e-06 4.23516e-22 0.001)
(5.09353e-06 -0 0.001)
(4.91865e-06 -4.23516e-22 0.001)
(5.08329e-06 -0 0.001)
(4.93095e-06 -0 0.001)
(5.0674e-06 -0 0.001)
(4.94493e-06 4.23516e-22 0.001)
(5.05622e-06 -0 0.001)
(4.95224e-06 4.23516e-22 0.001)
(5.04988e-06 -0 0.001)
(4.96236e-06 -0 0.001)
(5.03881e-06 -0 0.001)
(4.96762e-06 4.23516e-22 0.001)
(5.03342e-06 -0 0.001)
(4.97445e-06 -0 0.001)
(5.02283e-06 -4.23516e-22 0.001)
(4.98438e-06 4.23516e-22 0.001)
(5.01869e-06 4.23516e-22 0.001)
(4.98642e-06 4.23516e-22 0.001)
(5.01869e-06 -0 0.001)
(4.98961e-06 -4.23516e-22 0.001)
(5.01104e-06 -4.23516e-22 0.001)
(4.99458e-06 -0 0.001)
(5.00757e-06 4.23516e-22 0.001)
(4.99451e-06 -0 0.001)
(5.00473e-06 -0 0.001)
(4.99963e-06 -4.23516e-22 0.001)
(5.00515e-06 -0 0.001)
(4.99687e-06 -0 0.001)
(5.00611e-06 4.23516e-22 0.001)
(4.99689e-06 -0 0.001)
(5.00109e-06 -4.23516e-22 0.001)
(5.00152e-06 -0 0.001)
(5.00202e-06 4.23516e-22 0.001)
(4.99969e-06 -4.23516e-22 0.001)
(5.00151e-06 -4.23516e-22 0.001)
(5.00129e-06 -0 0.001)
(5.00112e-06 -0 0.001)
(4.99713e-06 4.23516e-22 0.001)
(5.00285e-06 -4.23516e-22 0.001)
(4.99798e-06 -0 0.001)
(5.00165e-06 -0 0.001)
(4.99764e-06 4.23516e-22 0.001)
(5.00569e-06 -0 0.001)
(4.99666e-06 -0 0.001)
(5.0019e-06 -0 0.001)
(4.99461e-06 -0 0.001)
(5.00267e-06 -4.23516e-22 0.001)
(4.9976e-06 -4.23516e-22 0.001)
(5.00141e-06 4.23516e-22 0.001)
(4.99962e-06 -4.23516e-22 0.001)
(5.00681e-06 4.23516e-22 0.001)
(4.99703e-06 -0 0.001)
(4.99276e-06 4.23516e-22 0.001)
(5.02971e-06 -0 0.001)
(4.90147e-06 4.23516e-22 0.001)
(5.10425e-06 4.23516e-22 0.001)
(5.0135e-06 -0 0.001)
(4.98524e-06 -0 0.001)
(4.99495e-06 -0 0.001)
(4.94719e-06 -0 0.001)
(5.03875e-06 -0 0.001)
(4.60132e-06 -4.23516e-22 0.001)
(6.77858e-06 -0 0.001)
(1.88007e-06 -0 0.001)
(1.25394e-05 -1.69407e-21 0.001)
(4.57931e-05 -0 0.001)
(5e-06 -0 0.001)
(5e-06 -0 0.001)
(5e-06 -0 0.001)
)
;

boundaryField
{
    inlet
    {
        type            calculated;
        value           uniform (0 0 0);
    }
    outlet
    {
        type            calculated;
        value           uniform (0 0 0);
    }
    sideWall
    {
        type            empty;
    }
}


// ************************************************************************* //
