/*--------------------------------*- C++ -*----------------------------------*\
| =========                 |                                                 |
| \\      /  F ield         | foam-extend: Open Source CFD                    |
|  \\    /   O peration     | Version:     3.2                                |
|   \\  /    A nd           | Web:         http://www.foam-extend.org         |
|    \\/     M anipulation  | For copyright notice see file Copyright         |
\*---------------------------------------------------------------------------*/
FoamFile
{
    version     2.0;
    format      ascii;
    class       areaVectorField;
    location    "2000";
    object      q_bed;
}
// * * * * * * * * * * * * * * * * * * * * * * * * * * * * * * * * * * * * * //

dimensions      [0 2 -1 0 0 0 0];

internalField   nonuniform List<vector> 
300
(
(3.81838e-05 0 -1.90919e-07)
(5.67104e-05 0 -2.83552e-07)
(4.09147e-05 0 -2.04574e-07)
(2.8923e-05 0 -1.44615e-07)
(2.27385e-05 3.65497e-27 -1.13693e-07)
(2.03549e-05 -1.2703e-27 -1.01775e-07)
(1.94538e-05 -2.68973e-27 -9.72689e-08)
(1.93437e-05 -2.662e-27 -9.67185e-08)
(1.94912e-05 7.87942e-31 -9.74561e-08)
(1.97955e-05 -2.43777e-27 -9.89777e-08)
(2.01637e-05 3.90576e-31 -1.00819e-07)
(2.05417e-05 1.85116e-27 -1.02708e-07)
(2.09105e-05 0 -1.04552e-07)
(2.13025e-05 1.7193e-27 -1.06512e-07)
(2.16807e-05 1.56971e-31 -1.08403e-07)
(2.20677e-05 -9.14678e-33 -1.10338e-07)
(2.24803e-05 1.67132e-27 -1.12402e-07)
(2.28943e-05 -1.64067e-27 -1.14471e-07)
(2.3321e-05 1.63316e-27 -1.16605e-07)
(2.37533e-05 0 -1.18766e-07)
(2.41893e-05 0 -1.20946e-07)
(2.46293e-05 -1.72491e-27 -1.23147e-07)
(2.5085e-05 2.11896e-31 -1.25425e-07)
(2.55555e-05 0 -1.27777e-07)
(2.6013e-05 0 -1.30065e-07)
(2.64365e-05 -1.64152e-27 -1.32182e-07)
(2.68205e-05 0 -1.34102e-07)
(2.716e-05 0 -1.358e-07)
(2.7456e-05 0 -1.3728e-07)
(2.77106e-05 -9.38274e-28 -1.38553e-07)
(2.79295e-05 0 -1.39648e-07)
(2.8117e-05 0 -1.40585e-07)
(2.82736e-05 -1.13067e-31 -1.41368e-07)
(2.84022e-05 0 -1.42011e-07)
(2.85054e-05 0 -1.42527e-07)
(2.8591e-05 0 -1.42955e-07)
(2.8662e-05 -6.12225e-32 -1.4331e-07)
(2.87222e-05 0 -1.43611e-07)
(2.87724e-05 0 -1.43862e-07)
(2.88159e-05 0 -1.4408e-07)
(2.88519e-05 -3.40541e-32 -1.44259e-07)
(2.88838e-05 -1.05592e-28 -1.44419e-07)
(2.89094e-05 0 -1.44547e-07)
(2.89331e-05 -7.67323e-29 -1.44666e-07)
(2.8951e-05 -1.84748e-32 -1.44755e-07)
(2.8969e-05 0 -1.44845e-07)
(2.89814e-05 -4.5699e-29 -1.44907e-07)
(2.89954e-05 0 -1.44977e-07)
(2.90033e-05 -3.38456e-29 -1.45017e-07)
(2.90165e-05 0 -1.45083e-07)
(2.90152e-05 0 -1.45076e-07)
(2.90397e-05 -2.62657e-29 -1.45199e-07)
(2.90078e-05 0 -1.45039e-07)
(2.90896e-05 -4.2388e-29 -1.45448e-07)
(2.89307e-05 0 -1.44654e-07)
(2.92741e-05 0 -1.4637e-07)
(2.85431e-05 7.79955e-28 -1.42716e-07)
(2.99343e-05 0 -1.49672e-07)
(2.50352e-05 0 -1.25176e-07)
(3.33618e-05 -1.20487e-24 1.2948e-06)
(6.32835e-05 6.49326e-29 1.22937e-06)
(5.78456e-05 -7.18359e-25 -1.27085e-06)
(4.46752e-05 0 -1.80917e-07)
(4.51911e-05 2.63525e-27 -2.67037e-07)
(4.40897e-05 -3.37082e-31 -2.12165e-07)
(4.43268e-05 0 -2.4362e-07)
(4.41936e-05 0 -2.35495e-07)
(4.42577e-05 -6.29851e-28 -2.39006e-07)
(4.42864e-05 6.12368e-28 -2.38719e-07)
(4.43258e-05 -3.2156e-31 -2.3858e-07)
(4.43417e-05 0 -2.38444e-07)
(4.43643e-05 -4.29466e-28 -2.36691e-07)
(4.43913e-05 3.47242e-28 -2.35775e-07)
(4.44112e-05 3.08237e-28 -2.3459e-07)
(4.44283e-05 2.58007e-28 -2.33499e-07)
(4.44404e-05 0 -2.32216e-07)
(4.4451e-05 0 -2.31104e-07)
(4.44566e-05 -1.23955e-32 -2.29835e-07)
(4.44625e-05 -1.36003e-28 -2.28778e-07)
(4.4464e-05 -7.57276e-34 -2.27915e-07)
(4.4462e-05 0 -2.26883e-07)
(4.44638e-05 0 -2.26014e-07)
(4.44618e-05 0 -2.25518e-07)
(4.44589e-05 -4.15498e-29 -2.24714e-07)
(4.4459e-05 3.84356e-29 -2.24218e-07)
(4.44566e-05 1.55551e-29 -2.23926e-07)
(4.44532e-05 1.34373e-29 -2.23409e-07)
(4.4454e-05 -1.57534e-29 -2.23067e-07)
(4.44508e-05 0 -2.2305e-07)
(4.44496e-05 1.49171e-29 -2.22633e-07)
(4.4447e-05 0 -2.2275e-07)
(4.44438e-05 9.91227e-33 -2.2238e-07)
(4.44449e-05 -4.75445e-33 -2.22317e-07)
(4.44437e-05 0 -2.22375e-07)
(4.44414e-05 0 -2.22202e-07)
(4.44439e-05 4.3522e-30 -2.22126e-07)
(4.44422e-05 -1.68942e-29 -2.22285e-07)
(4.44422e-05 -4.51954e-30 -2.22073e-07)
(4.44415e-05 3.61762e-33 -2.22338e-07)
(4.44392e-05 1.40695e-29 -2.22087e-07)
(4.44418e-05 -2.7191e-30 -2.22093e-07)
(4.44402e-05 1.35006e-29 -2.22248e-07)
(4.44404e-05 9.92146e-30 -2.2208e-07)
(4.44402e-05 2.92739e-33 -2.22327e-07)
(4.44382e-05 -1.17601e-29 -2.22116e-07)
(4.44409e-05 1.30031e-33 -2.22086e-07)
(4.44398e-05 1.44105e-29 -2.22282e-07)
(4.44401e-05 -1.31775e-29 -2.22088e-07)
(4.444e-05 0 -2.22362e-07)
(4.44379e-05 0 -2.22117e-07)
(4.44405e-05 0 -2.22114e-07)
(4.44392e-05 1.06641e-33 -2.22285e-07)
(4.44396e-05 0 -2.2211e-07)
(4.44395e-05 0 -2.22368e-07)
(4.44374e-05 0 -2.22136e-07)
(4.44405e-05 0 -2.22111e-07)
(4.44384e-05 1.36103e-29 -2.22294e-07)
(4.44398e-05 -2.95593e-34 -2.22098e-07)
(4.44384e-05 0 -2.22398e-07)
(4.44374e-05 0 -2.22063e-07)
(4.44393e-05 2.4428e-33 -2.22208e-07)
(4.44385e-05 -1.11718e-34 -2.22199e-07)
(4.4439e-05 2.03704e-30 -2.22208e-07)
(4.44371e-05 -7.82287e-30 -2.22256e-07)
(4.44374e-05 0 -2.22217e-07)
(4.44379e-05 0 -2.22083e-07)
(4.44401e-05 1.65078e-33 -2.22243e-07)
(4.44358e-05 0 -2.22281e-07)
(4.44403e-05 0 -2.22064e-07)
(4.443e-05 1.17857e-29 -2.22445e-07)
(4.44453e-05 -4.53828e-29 -2.21747e-07)
(4.44307e-05 0 -2.2276e-07)
(4.44451e-05 7.67379e-33 -2.21541e-07)
(4.44271e-05 -9.47587e-29 -2.22991e-07)
(4.44446e-05 9.87488e-29 -2.21296e-07)
(4.44259e-05 0 -2.23069e-07)
(4.44495e-05 -1.0031e-28 -2.21157e-07)
(4.44208e-05 1.53081e-32 -2.233e-07)
(4.44539e-05 0 -2.2069e-07)
(4.44194e-05 0 -2.23805e-07)
(4.44562e-05 2.3124e-32 -2.20261e-07)
(4.4416e-05 2.58992e-28 -2.24325e-07)
(4.44571e-05 3.06836e-32 -2.19732e-07)
(4.44124e-05 -2.98511e-28 -2.24698e-07)
(4.44628e-05 -3.23608e-28 -2.193e-07)
(4.44063e-05 0 -2.25271e-07)
(4.44677e-05 0 -2.18726e-07)
(4.43981e-05 4.55375e-32 -2.2591e-07)
(4.44729e-05 5.10305e-28 -2.17809e-07)
(4.4394e-05 0 -2.26827e-07)
(4.44764e-05 0 -2.16925e-07)
(4.43883e-05 -6.9544e-28 -2.27765e-07)
(4.44788e-05 0 -2.15944e-07)
(4.43824e-05 -7.92517e-28 -2.28566e-07)
(4.4486e-05 0 -2.15073e-07)
(4.4374e-05 -9.14907e-28 -2.29515e-07)
(4.44925e-05 1.00394e-27 -2.13863e-07)
(4.43696e-05 -1.08734e-27 -2.30737e-07)
(4.44964e-05 -1.16009e-27 -2.12702e-07)
(4.4364e-05 0 -2.31957e-07)
(4.44983e-05 -1.1624e-31 -2.11473e-07)
(4.4359e-05 1.38554e-27 -2.32992e-07)
(4.45044e-05 -1.27032e-31 -2.10403e-07)
(4.43523e-05 0 -2.34163e-07)
(4.45086e-05 0 -2.09263e-07)
(4.43448e-05 0 -2.35315e-07)
(4.45123e-05 1.48529e-31 -2.07894e-07)
(4.43427e-05 0 -2.36632e-07)
(4.45129e-05 0 -2.06649e-07)
(4.43403e-05 -1.61273e-31 -2.37652e-07)
(4.45172e-05 1.69523e-31 -2.05677e-07)
(4.43361e-05 0 -2.38668e-07)
(4.45197e-05 0 -2.04544e-07)
(4.43366e-05 -2.33183e-27 -2.39767e-07)
(4.45191e-05 0 -2.03628e-07)
(4.43366e-05 0 -2.40703e-07)
(4.45163e-05 -1.91695e-31 -2.02829e-07)
(4.43374e-05 -2.53e-27 -2.41286e-07)
(4.45176e-05 0 -2.02341e-07)
(4.43364e-05 0 -2.41831e-07)
(4.45173e-05 -2.64731e-27 -2.01708e-07)
(4.43402e-05 -2.10313e-31 -2.42443e-07)
(4.4514e-05 -2.14957e-31 -2.01301e-07)
(4.43433e-05 -2.72749e-27 -2.42895e-07)
(4.45087e-05 0 -2.01009e-07)
(4.43471e-05 0 -2.4299e-07)
(4.45073e-05 -2.25983e-31 -2.01035e-07)
(4.4349e-05 0 -2.43029e-07)
(4.45046e-05 -2.74063e-27 -2.00932e-07)
(4.43557e-05 0 -2.43122e-07)
(4.44987e-05 0 -2.01053e-07)
(4.43617e-05 2.34096e-31 -2.42838e-07)
(4.44964e-05 0 -2.01488e-07)
(4.43655e-05 -2.63535e-27 -2.42495e-07)
(4.44926e-05 2.62165e-27 -2.01805e-07)
(4.43731e-05 -2.31457e-31 -2.42169e-07)
(4.44849e-05 2.54813e-27 -2.02349e-07)
(4.43785e-05 -2.2996e-31 -2.41665e-07)
(4.44806e-05 2.46591e-27 -2.03004e-07)
(4.43864e-05 0 -2.40856e-07)
(4.44783e-05 -2.34029e-27 -2.03921e-07)
(4.43908e-05 -2.28507e-27 -2.40038e-07)
(4.44556e-05 -2.24756e-27 -2.04575e-07)
(4.43824e-05 -2.19205e-27 -2.39217e-07)
(4.44405e-05 2.13156e-27 -2.0544e-07)
(4.43801e-05 -2.03313e-31 -2.38133e-07)
(4.44683e-05 -1.9808e-27 -2.0671e-07)
(4.44107e-05 0 -2.37279e-07)
(4.44662e-05 -1.86741e-27 -2.07637e-07)
(4.44184e-05 1.82663e-31 -2.36419e-07)
(4.43915e-05 0 -2.08328e-07)
(4.43547e-05 0 -2.34921e-07)
(4.43737e-05 0 -2.09447e-07)
(4.43398e-05 1.50377e-27 -2.33768e-07)
(4.44595e-05 0 -2.1081e-07)
(4.44343e-05 1.46865e-31 -2.33362e-07)
(4.44557e-05 -1.32901e-27 -2.11838e-07)
(4.44391e-05 0 -2.32268e-07)
(4.43061e-05 1.17383e-27 -2.12275e-07)
(4.42844e-05 0 -2.3045e-07)
(4.42823e-05 -1.07519e-27 -2.13006e-07)
(4.42654e-05 1.08565e-31 -2.29522e-07)
(4.44518e-05 0 -2.14753e-07)
(4.44488e-05 0 -2.29475e-07)
(4.44523e-05 0 -2.15787e-07)
(4.44488e-05 0 -2.28633e-07)
(4.42027e-05 -7.50885e-28 -2.15288e-07)
(4.41884e-05 0 -2.26581e-07)
(4.41744e-05 -5.20317e-32 -2.15904e-07)
(4.4164e-05 -4.7557e-32 -2.25594e-07)
(4.44498e-05 5.61015e-28 -2.1808e-07)
(4.44521e-05 0 -2.26418e-07)
(4.44501e-05 -4.93194e-28 -2.18635e-07)
(4.44536e-05 0 -2.25971e-07)
(4.40919e-05 0 -2.17415e-07)
(4.40767e-05 0 -2.23354e-07)
(4.40674e-05 4.18873e-28 -2.1791e-07)
(4.40495e-05 0 -2.22724e-07)
(4.44485e-05 3.91734e-28 -2.2012e-07)
(4.44523e-05 5.96402e-32 -2.24479e-07)
(4.44468e-05 -8.15153e-32 -2.20561e-07)
(4.44514e-05 7.90672e-32 -2.23982e-07)
(4.39891e-05 2.02651e-28 -2.18521e-07)
(4.39652e-05 0 -2.21296e-07)
(4.39641e-05 0 -2.18697e-07)
(4.39429e-05 1.22363e-28 -2.20717e-07)
(4.44478e-05 1.23967e-28 -2.21545e-07)
(4.44491e-05 -1.10306e-28 -2.23076e-07)
(4.44475e-05 9.39149e-29 -2.21634e-07)
(4.44489e-05 0 -2.23076e-07)
(4.38932e-05 -7.02056e-29 -2.1901e-07)
(4.38631e-05 6.07797e-29 -2.198e-07)
(4.3875e-05 0 -2.19137e-07)
(4.38432e-05 -2.56812e-29 -2.19548e-07)
(4.44441e-05 0 -2.21977e-07)
(4.44456e-05 4.62896e-33 -2.22438e-07)
(4.44446e-05 8.87175e-31 -2.22206e-07)
(4.44434e-05 0 -2.22446e-07)
(4.38168e-05 0 -2.18947e-07)
(4.37776e-05 -3.0149e-29 -2.19155e-07)
(4.37983e-05 0 -2.18855e-07)
(4.37639e-05 -2.62712e-30 -2.18867e-07)
(4.44417e-05 0 -2.22276e-07)
(4.44406e-05 -2.63247e-30 -2.22293e-07)
(4.44405e-05 3.69308e-30 -2.22189e-07)
(4.44415e-05 1.74664e-29 -2.22275e-07)
(4.37498e-05 0 -2.18805e-07)
(4.37028e-05 0 -2.18563e-07)
(4.37363e-05 2.50382e-29 -2.18556e-07)
(4.36929e-05 8.76803e-30 -2.18589e-07)
(4.44392e-05 0 -2.22106e-07)
(4.44384e-05 4.9237e-33 -2.22265e-07)
(4.44407e-05 -1.15004e-30 -2.22099e-07)
(4.44396e-05 -7.78031e-33 -2.22451e-07)
(4.36869e-05 0 -2.18289e-07)
(4.36373e-05 0 -2.18269e-07)
(4.36755e-05 0 -2.18142e-07)
(4.36293e-05 8.78622e-30 -2.18263e-07)
(4.44393e-05 -1.67046e-29 -2.2209e-07)
(4.44404e-05 -6.94961e-30 -2.22265e-07)
(4.44388e-05 9.94289e-30 -2.22177e-07)
(4.4442e-05 -3.83419e-29 -2.22513e-07)
(4.36128e-05 0 -2.17934e-07)
(4.35884e-05 -6.33691e-29 -2.17626e-07)
(4.35667e-05 -2.56758e-32 -2.19128e-07)
(4.36576e-05 5.10929e-28 -2.13986e-07)
(4.37565e-05 -6.03957e-28 -2.23344e-07)
(4.43999e-05 -6.35362e-32 -2.22599e-07)
(4.35678e-05 0 -2.17196e-07)
(4.34414e-05 0 -2.16988e-07)
(4.37212e-05 0 -2.16297e-07)
(4.3291e-05 -5.76588e-32 -2.18132e-07)
(4.36008e-05 -1.57227e-27 -2.00621e-07)
(4.23923e-05 0 -2.8736e-07)
(4.28845e-05 -1.98722e-30 -8.06257e-08)
(5.20407e-05 2.8058e-25 -6.52561e-07)
(3.08554e-05 0 -1.41296e-06)
(2.10525e-05 -1.34718e-29 -1.05263e-07)
(2.58083e-05 0 -1.29041e-07)
(2.68557e-05 0 -1.34278e-07)
)
;

boundaryField
{
    inlet
    {
        type            zeroGradient;
    }
    outlet
    {
        type            zeroGradient;
    }
    sideWall
    {
        type            empty;
    }
}


// ************************************************************************* //
