/*--------------------------------*- C++ -*----------------------------------*\
| =========                 |                                                 |
| \\      /  F ield         | foam-extend: Open Source CFD                    |
|  \\    /   O peration     | Version:     3.2                                |
|   \\  /    A nd           | Web:         http://www.foam-extend.org         |
|    \\/     M anipulation  | For copyright notice see file Copyright         |
\*---------------------------------------------------------------------------*/
FoamFile
{
    version     2.0;
    format      ascii;
    class       edgeScalarField;
    location    "2000";
    object      q_f;
}
// * * * * * * * * * * * * * * * * * * * * * * * * * * * * * * * * * * * * * //

dimensions      [0 3 -1 0 0 0 0];

internalField   nonuniform List<scalar> 
299
(
9.48954e-07
9.76264e-07
6.98386e-07
5.16622e-07
4.3094e-07
3.98092e-07
3.8798e-07
3.88354e-07
3.92873e-07
3.99598e-07
4.07059e-07
4.14526e-07
4.22135e-07
4.29837e-07
4.37489e-07
4.45485e-07
4.53751e-07
4.62158e-07
4.70749e-07
4.79431e-07
4.88192e-07
4.9715e-07
5.06411e-07
5.15692e-07
5.24501e-07
5.32576e-07
5.39811e-07
5.46167e-07
5.51673e-07
5.56408e-07
5.60472e-07
5.63913e-07
5.66765e-07
5.69083e-07
5.70972e-07
5.72537e-07
5.73849e-07
5.74954e-07
5.75891e-07
5.76685e-07
5.77364e-07
5.77939e-07
5.78432e-07
5.78849e-07
5.79208e-07
5.79511e-07
5.79775e-07
5.79994e-07
5.80206e-07
5.80325e-07
5.80557e-07
5.80482e-07
5.80981e-07
5.8021e-07
5.82055e-07
5.78179e-07
5.84782e-07
5.49702e-07
5.84193e-07
9.66908e-07
1.21155e-06
1.02534e-06
8.98675e-07
8.92821e-07
8.84176e-07
8.85217e-07
8.84526e-07
8.85453e-07
8.86135e-07
8.86689e-07
8.87073e-07
8.87568e-07
8.88037e-07
8.88407e-07
8.88698e-07
8.88926e-07
8.89088e-07
8.89203e-07
8.89277e-07
8.89271e-07
8.8927e-07
8.89268e-07
8.89218e-07
8.8919e-07
8.89168e-07
8.89109e-07
8.89083e-07
8.89059e-07
8.89015e-07
8.88977e-07
8.88919e-07
8.88898e-07
8.88897e-07
8.88861e-07
8.88864e-07
8.88872e-07
8.88855e-07
8.88848e-07
8.88818e-07
8.88821e-07
8.88831e-07
8.88817e-07
8.88817e-07
8.88795e-07
8.88802e-07
8.88818e-07
8.8881e-07
8.88812e-07
8.88789e-07
8.88795e-07
8.88808e-07
8.88799e-07
8.88803e-07
8.8878e-07
8.88789e-07
8.888e-07
8.88793e-07
8.88793e-07
8.88769e-07
8.88778e-07
8.88789e-07
8.88786e-07
8.88772e-07
8.88756e-07
8.88764e-07
8.88791e-07
8.88771e-07
8.88772e-07
8.88714e-07
8.88764e-07
8.88771e-07
8.88769e-07
8.88734e-07
8.88728e-07
8.88716e-07
8.88765e-07
8.88714e-07
8.88758e-07
8.88743e-07
8.88766e-07
8.88733e-07
8.88742e-07
8.88706e-07
8.88763e-07
8.88701e-07
8.88751e-07
8.88669e-07
8.88722e-07
8.88681e-07
8.88716e-07
8.88659e-07
8.88682e-07
8.88624e-07
8.88696e-07
8.88611e-07
8.88676e-07
8.88632e-07
8.88671e-07
8.88615e-07
8.88635e-07
8.88585e-07
8.88645e-07
8.88578e-07
8.8862e-07
8.88546e-07
8.88583e-07
8.88561e-07
8.88566e-07
8.88543e-07
8.88586e-07
8.88544e-07
8.88569e-07
8.88574e-07
8.88568e-07
8.88568e-07
8.8854e-07
8.88548e-07
8.88561e-07
8.88551e-07
8.88548e-07
8.88586e-07
8.88553e-07
8.88584e-07
8.88531e-07
8.88569e-07
8.88555e-07
8.88575e-07
8.88547e-07
8.88614e-07
8.88555e-07
8.88615e-07
8.88593e-07
8.8863e-07
8.88591e-07
8.88668e-07
8.88591e-07
8.88645e-07
8.88602e-07
8.88681e-07
8.88658e-07
8.88703e-07
8.88475e-07
8.88391e-07
8.8824e-07
8.88217e-07
8.88495e-07
8.88801e-07
8.8878e-07
8.88857e-07
8.8811e-07
8.87473e-07
8.87295e-07
8.87146e-07
8.88005e-07
8.8895e-07
8.88911e-07
8.88959e-07
8.87463e-07
8.85916e-07
8.85678e-07
8.85489e-07
8.87184e-07
8.89018e-07
8.89023e-07
8.89022e-07
8.86526e-07
8.83922e-07
8.83639e-07
8.83396e-07
8.8615e-07
8.89031e-07
8.89034e-07
8.89049e-07
8.85467e-07
8.81698e-07
8.81452e-07
8.8118e-07
8.84991e-07
8.89019e-07
8.89002e-07
8.88993e-07
8.84416e-07
8.79554e-07
8.79304e-07
8.79081e-07
8.83918e-07
8.8898e-07
8.88977e-07
8.88976e-07
8.83433e-07
8.77574e-07
8.77392e-07
8.77193e-07
8.82884e-07
8.88908e-07
8.88913e-07
8.88891e-07
8.82613e-07
8.75954e-07
8.7577e-07
8.75633e-07
8.82067e-07
8.88834e-07
8.88822e-07
8.88831e-07
8.81924e-07
8.74537e-07
8.74402e-07
8.74302e-07
8.81332e-07
8.88787e-07
8.88802e-07
8.88814e-07
8.81276e-07
8.73253e-07
8.73139e-07
8.7306e-07
8.80698e-07
8.88808e-07
8.88803e-07
8.88819e-07
8.80559e-07
8.72022e-07
8.71562e-07
8.72254e-07
8.74152e-07
8.81576e-07
8.79688e-07
8.70102e-07
8.71637e-07
8.70132e-07
8.68928e-07
8.59945e-07
8.52778e-07
9.4929e-07
8.29427e-07
5.19354e-07
4.68614e-07
5.26646e-07
)
;

boundaryField
{
    inlet
    {
        type            calculated;
        value           uniform 0;
    }
    outlet
    {
        type            calculated;
        value           uniform 0;
    }
    sideWall
    {
        type            empty;
    }
}


// ************************************************************************* //
