/*--------------------------------*- C++ -*----------------------------------*\
| =========                 |                                                 |
| \\      /  F ield         | foam-extend: Open Source CFD                    |
|  \\    /   O peration     | Version:     3.2                                |
|   \\  /    A nd           | Web:         http://www.foam-extend.org         |
|    \\/     M anipulation  | For copyright notice see file Copyright         |
\*---------------------------------------------------------------------------*/
FoamFile
{
    version     2.0;
    format      ascii;
    class       areaScalarField;
    location    "2000";
    object      SSe1;
}
// * * * * * * * * * * * * * * * * * * * * * * * * * * * * * * * * * * * * * //

dimensions      [0 1 -2 -1 0 0 0];

internalField   nonuniform List<scalar> 
300
(
0.000127243
0.000173187
0.000134092
0.000103535
8.7207e-05
8.07577e-05
7.82914e-05
7.79889e-05
7.83942e-05
7.92286e-05
8.02358e-05
8.12667e-05
8.22701e-05
8.33337e-05
8.43574e-05
8.54021e-05
8.65131e-05
8.76249e-05
8.87681e-05
8.99231e-05
9.10852e-05
9.22552e-05
9.34638e-05
9.47086e-05
9.59162e-05
9.70313e-05
9.80407e-05
9.89315e-05
9.97071e-05
0.000100373
0.000100945
0.000101435
0.000101844
0.000102179
0.000102448
0.000102671
0.000102856
0.000103013
0.000103143
0.000103257
0.00010335
0.000103433
0.0001035
0.000103561
0.000103608
0.000103655
0.000103687
0.000103723
0.000103744
0.000103778
0.000103775
0.000103839
0.000103756
0.000103968
0.000103555
0.000104448
0.000102546
0.000106158
9.33603e-05
6.69896e-05
0.000125003
0.000125004
0.000125003
0.000125004
0.000125003
0.000125004
0.000125002
0.000125004
0.000125002
0.000125004
0.000124911
0.000124889
0.000124892
0.000124915
0.000124931
0.000124949
0.000124963
0.000124973
0.000124981
0.000124999
0.000124998
0.000125001
0.000125011
0.000125008
0.000125006
0.000125016
0.000125008
0.000125007
0.000125011
0.00012501
0.000125013
0.000125007
0.000125002
0.000125011
0.000125001
0.000125001
0.000125006
0.000125004
0.000125008
0.000125002
0.000124999
0.000125005
0.000125001
0.000125007
0.000125
0.000124999
0.000125004
0.000125001
0.000125007
0.000125
0.000124998
0.000125004
0.000125001
0.000125007
0.000125
0.000124999
0.000125003
0.000125003
0.000125005
0.000125003
0.000124995
0.000125007
0.000124999
0.000125009
0.000125
0.000124996
0.00012501
0.000124991
0.000125025
0.000124979
0.000125024
0.000124974
0.000125036
0.000124967
0.000125046
0.000124942
0.000125067
0.000124929
0.000125075
0.000124915
0.000125098
0.000124897
0.000125121
0.000124861
0.000125152
0.000124835
0.000125185
0.000124802
0.000125209
0.000124771
0.000125248
0.000124735
0.000125288
0.000124682
0.000125336
0.000124639
0.000125371
0.000124598
0.00012542
0.000124555
0.000125467
0.000124497
0.000125518
0.000124452
0.000125568
0.000124406
0.000125602
0.000124368
0.000125646
0.000124318
0.00012569
0.000124284
0.000125715
0.000124258
0.000125746
0.000124236
0.00012577
0.000124206
0.000125793
0.000124194
0.000125797
0.00012419
0.000125807
0.000124191
0.000125809
0.000124182
0.000125811
0.000124192
0.000125794
0.00012421
0.000125783
0.000124219
0.00012577
0.000124243
0.000125739
0.000124277
0.000125715
0.000124312
0.000125685
0.000124338
0.000125659
0.000124379
0.000125616
0.000124426
0.000125582
0.000124459
0.000125551
0.000124505
0.000125506
0.000124555
0.000125471
0.00012459
0.00012544
0.000124635
0.000125395
0.000124682
0.000125363
0.000124713
0.000125335
0.000124753
0.000125296
0.000124795
0.000125268
0.000124818
0.000125245
0.00012485
0.000125212
0.000124885
0.000125189
0.000124903
0.000125173
0.000124925
0.000125145
0.000124949
0.000125132
0.000124959
0.000125121
0.000124978
0.0001251
0.000124993
0.00012509
0.000124994
0.000125075
0.000125011
0.000125071
0.000125012
0.000125067
0.000125019
0.000125052
0.000125026
0.000125051
0.000125023
0.000125051
0.00012503
0.000125038
0.000125023
0.00012504
0.000125026
0.000125033
0.000125033
0.000125035
0.000125028
0.000125036
0.000125029
0.000125025
0.000125022
0.000125033
0.000125027
0.000125029
0.000125033
0.00012503
0.000125022
0.000125023
0.000125028
0.000125029
0.000125023
0.000125025
0.000125033
0.000125029
0.000125024
0.000125026
0.000125048
0.000124988
0.000125093
0.000124943
0.000125128
0.00012501
0.000125009
0.000125009
0.000125009
0.000125009
0.000125008
0.000125008
0.000125008
0.000125008
0.000125008
8.10676e-05
8.23362e-05
9.54056e-05
9.81307e-05
)
;

boundaryField
{
    inlet
    {
        type            calculated;
        value           uniform 0;
    }
    outlet
    {
        type            calculated;
        value           uniform 0;
    }
    sideWall
    {
        type            empty;
    }
}


// ************************************************************************* //
