/*--------------------------------*- C++ -*----------------------------------*\
| =========                 |                                                 |
| \\      /  F ield         | foam-extend: Open Source CFD                    |
|  \\    /   O peration     | Version:     3.2                                |
|   \\  /    A nd           | Web:         http://www.foam-extend.org         |
|    \\/     M anipulation  | For copyright notice see file Copyright         |
\*---------------------------------------------------------------------------*/
FoamFile
{
    version     2.0;
    format      ascii;
    class       areaScalarField;
    location    "2000";
    object      tau;
}
// * * * * * * * * * * * * * * * * * * * * * * * * * * * * * * * * * * * * * //

dimensions      [1 1 2 0 0 0 0];

internalField   nonuniform List<scalar> 
300
(
1.06337
1.30196
1.10056
0.92906
0.830518
0.789928
0.774123
0.772173
0.774785
0.780149
0.786597
0.79317
0.799541
0.806266
0.812711
0.819262
0.8262
0.833113
0.84019
0.84731
0.854443
0.861594
0.86895
0.876492
0.883777
0.890478
0.896521
0.901837
0.906452
0.910406
0.913796
0.916691
0.919105
0.921082
0.922667
0.923981
0.925068
0.92599
0.926758
0.927423
0.927973
0.92846
0.928851
0.929214
0.929487
0.929762
0.92995
0.930163
0.930284
0.930486
0.930466
0.930839
0.930352
0.931599
0.929177
0.934406
0.923246
0.944401
0.868148
1.01391
1.39201
1.30832
1.15106
1.15696
1.143
1.1458
1.14412
1.14492
1.14528
1.14578
1.14601
1.14632
1.14669
1.14696
1.14719
1.14737
1.1475
1.14759
1.14768
1.1477
1.1477
1.14773
1.14771
1.14768
1.14768
1.14765
1.14761
1.14762
1.14758
1.14757
1.14754
1.1475
1.14751
1.1475
1.14747
1.1475
1.14747
1.14748
1.14746
1.14744
1.14747
1.14745
1.14745
1.14745
1.14742
1.14746
1.14744
1.14745
1.14744
1.14742
1.14745
1.14744
1.14744
1.14744
1.14741
1.14745
1.14742
1.14744
1.14743
1.14741
1.14744
1.14743
1.14743
1.14742
1.14741
1.14742
1.14745
1.14739
1.14748
1.14732
1.14752
1.14732
1.14752
1.14729
1.14751
1.14725
1.14758
1.14718
1.14764
1.14716
1.14768
1.14711
1.14769
1.14706
1.14777
1.14697
1.14784
1.14686
1.14792
1.14679
1.14798
1.14671
1.14802
1.14662
1.14812
1.1465
1.14822
1.14643
1.14828
1.14635
1.14832
1.14627
1.14841
1.14617
1.14848
1.14606
1.14854
1.14602
1.14856
1.14598
1.14862
1.14591
1.14867
1.14591
1.14867
1.1459
1.14864
1.1459
1.14866
1.14589
1.14866
1.14593
1.14863
1.14597
1.14856
1.14602
1.14854
1.14604
1.1485
1.14613
1.14843
1.14621
1.14839
1.14626
1.14834
1.14637
1.14826
1.14646
1.14817
1.14655
1.14813
1.14662
1.14808
1.14674
1.148
1.14684
1.14797
1.14691
1.14793
1.14702
1.14786
1.14711
1.14784
1.14717
1.14781
1.14726
1.14775
1.14733
1.14774
1.14737
1.14773
1.14744
1.14767
1.14749
1.14767
1.1475
1.14767
1.14754
1.14762
1.14758
1.14761
1.14756
1.14761
1.14759
1.14758
1.1476
1.14758
1.14759
1.14758
1.14758
1.14755
1.14758
1.14757
1.14759
1.14755
1.14759
1.14755
1.14756
1.14755
1.14755
1.14752
1.14755
1.14752
1.14751
1.1475
1.14752
1.1475
1.14749
1.14751
1.14749
1.14748
1.14749
1.14747
1.14745
1.14745
1.14746
1.14747
1.14744
1.14747
1.14744
1.14743
1.14742
1.14745
1.14744
1.14744
1.14744
1.14746
1.14746
1.14744
1.14745
1.14743
1.14747
1.14734
1.14771
1.147
1.14767
1.1478
1.14691
1.14726
1.14683
1.14802
1.14577
1.15018
1.14842
1.12828
1.24117
0.941188
0.80199
0.880524
0.897073
)
;

boundaryField
{
    inlet
    {
        type            calculated;
        value           uniform 0;
    }
    outlet
    {
        type            calculated;
        value           uniform 0;
    }
    sideWall
    {
        type            empty;
    }
}


// ************************************************************************* //
