/*--------------------------------*- C++ -*----------------------------------*\
| =========                 |                                                 |
| \\      /  F ield         | foam-extend: Open Source CFD                    |
|  \\    /   O peration     | Version:     3.2                                |
|   \\  /    A nd           | Web:         http://www.foam-extend.org         |
|    \\/     M anipulation  | For copyright notice see file Copyright         |
\*---------------------------------------------------------------------------*/
FoamFile
{
    version     2.0;
    format      ascii;
    class       areaScalarField;
    location    "2000";
    object      tauCSS2;
}
// * * * * * * * * * * * * * * * * * * * * * * * * * * * * * * * * * * * * * //

dimensions      [1 1 2 0 0 0 0];

internalField   nonuniform List<scalar> 
300
(
0.0552126
0.0552126
0.0552126
0.0552126
0.0552126
0.0552126
0.0552126
0.0552126
0.0552126
0.0552126
0.0552126
0.0552126
0.0552126
0.0552126
0.0552126
0.0552126
0.0552126
0.0552126
0.0552126
0.0552126
0.0552126
0.0552126
0.0552126
0.0552126
0.0552126
0.0552126
0.0552126
0.0552126
0.0552126
0.0552126
0.0552126
0.0552126
0.0552126
0.0552126
0.0552126
0.0552126
0.0552126
0.0552126
0.0552126
0.0552126
0.0552126
0.0552126
0.0552126
0.0552126
0.0552126
0.0552126
0.0552126
0.0552126
0.0552126
0.0552126
0.0552126
0.0552126
0.0552126
0.0552126
0.0552126
0.0552126
0.0552126
0.0552126
0.0552126
0.063666
0.0657506
0.0607245
0.0609144
0.0603816
0.0601735
0.0599909
0.0599813
0.0599883
0.060012
0.0600412
0.0600847
0.0601285
0.0601579
0.060179
0.060199
0.0602169
0.0602325
0.0602481
0.060262
0.0602674
0.0602788
0.060289
0.06029
0.0602981
0.0603047
0.0603028
0.0603084
0.0603132
0.0603099
0.0603142
0.0603101
0.060314
0.0603171
0.0603128
0.0603161
0.0603188
0.0603139
0.0603171
0.0603121
0.0603154
0.0603182
0.0603134
0.0603166
0.0603116
0.0603148
0.0603177
0.0603129
0.0603161
0.0603111
0.0603144
0.0603172
0.0603125
0.0603156
0.0603107
0.0603139
0.0603168
0.0603121
0.0603153
0.0603103
0.0603138
0.0603162
0.060312
0.0603147
0.0603103
0.060313
0.0603161
0.0603115
0.0603141
0.0603104
0.0603121
0.0603166
0.0603099
0.0603152
0.0603078
0.0603143
0.060313
0.060313
0.0603108
0.0603193
0.0603082
0.0603186
0.0603055
0.0603182
0.0603098
0.0603176
0.060307
0.0603172
0.0603038
0.0603243
0.0603002
0.0603246
0.0602966
0.060325
0.0602998
0.0603253
0.0602961
0.060333
0.0602917
0.0603337
0.0602874
0.0603346
0.0602903
0.0603351
0.0602859
0.0603359
0.0602817
0.0603437
0.0602771
0.0603446
0.0602798
0.060345
0.0602757
0.0603521
0.0602716
0.0603523
0.0602679
0.060352
0.0602715
0.0603513
0.0602683
0.0603573
0.0602653
0.0603563
0.0602624
0.060355
0.0602669
0.060353
0.060265
0.0603578
0.0602629
0.0603555
0.060268
0.0603526
0.0602669
0.0603563
0.0602658
0.0603532
0.0602651
0.0603501
0.0602714
0.0603462
0.0602711
0.060349
0.0602708
0.0603449
0.0602774
0.0603404
0.0602774
0.0603426
0.0602773
0.0603384
0.0602839
0.0603338
0.060284
0.0603359
0.0602838
0.0603315
0.0602902
0.0603268
0.0602902
0.0603292
0.0602898
0.060325
0.0602959
0.0603206
0.0602954
0.0603231
0.0602947
0.0603193
0.0603004
0.0603153
0.0602995
0.0603178
0.0602983
0.0603144
0.0603036
0.0603108
0.0603022
0.0603139
0.0603005
0.0603106
0.0603052
0.0603138
0.0603033
0.0603107
0.060308
0.0603074
0.060306
0.0603109
0.0603035
0.0603081
0.0603077
0.0603052
0.0603056
0.0603087
0.0603093
0.0603057
0.0603068
0.0603095
0.0603042
0.0603071
0.060308
0.0603041
0.0603052
0.0603077
0.0603086
0.060305
0.0603059
0.0603088
0.0603031
0.0603062
0.0603063
0.0603097
0.0603032
0.0603072
0.0603066
0.0603106
0.0603042
0.0603067
0.0603071
0.0603063
0.0602977
0.0603151
0.0603031
0.060295
0.0603347
0.0602801
0.0602772
0.0603099
0.0602828
0.0603687
0.0602057
0.060653
0.0595073
0.0608535
0.0615192
0.0501925
0.0552126
0.0552126
0.0552126
)
;

boundaryField
{
    inlet
    {
        type            calculated;
        value           uniform 0;
    }
    outlet
    {
        type            calculated;
        value           uniform 0;
    }
    sideWall
    {
        type            empty;
    }
}


// ************************************************************************* //
