/*--------------------------------*- C++ -*----------------------------------*\
| =========                 |                                                 |
| \\      /  F ield         | foam-extend: Open Source CFD                    |
|  \\    /   O peration     | Version:     3.2                                |
|   \\  /    A nd           | Web:         http://www.foam-extend.org         |
|    \\/     M anipulation  | For copyright notice see file Copyright         |
\*---------------------------------------------------------------------------*/
FoamFile
{
    version     2.0;
    format      ascii;
    class       areaScalarField;
    location    "2000";
    object      tauCSS1;
}
// * * * * * * * * * * * * * * * * * * * * * * * * * * * * * * * * * * * * * //

dimensions      [1 1 2 0 0 0 0];

internalField   nonuniform List<scalar> 
300
(
0.0176069
0.0176069
0.0176069
0.0176069
0.0176069
0.0176069
0.0176069
0.0176069
0.0176069
0.0176069
0.0176069
0.0176069
0.0176069
0.0176069
0.0176069
0.0176069
0.0176069
0.0176069
0.0176069
0.0176069
0.0176069
0.0176069
0.0176069
0.0176069
0.0176069
0.0176069
0.0176069
0.0176069
0.0176069
0.0176069
0.0176069
0.0176069
0.0176069
0.0176069
0.0176069
0.0176069
0.0176069
0.0176069
0.0176069
0.0176069
0.0176069
0.0176069
0.0176069
0.0176069
0.0176069
0.0176069
0.0176069
0.0176069
0.0176069
0.0176069
0.0176069
0.0176069
0.0176069
0.0176069
0.0176069
0.0176069
0.0176069
0.0176069
0.0176069
0.0203026
0.0209674
0.0193646
0.0194251
0.0192552
0.0191889
0.0191306
0.0191276
0.0191298
0.0191374
0.0191467
0.0191605
0.0191745
0.0191839
0.0191906
0.019197
0.0192027
0.0192077
0.0192127
0.0192171
0.0192188
0.0192224
0.0192257
0.019226
0.0192286
0.0192307
0.0192301
0.0192319
0.0192334
0.0192324
0.0192338
0.0192324
0.0192337
0.0192347
0.0192333
0.0192343
0.0192352
0.0192336
0.0192346
0.0192331
0.0192341
0.019235
0.0192335
0.0192345
0.0192329
0.0192339
0.0192348
0.0192333
0.0192343
0.0192328
0.0192338
0.0192347
0.0192332
0.0192342
0.0192326
0.0192337
0.0192346
0.0192331
0.0192341
0.0192325
0.0192336
0.0192344
0.019233
0.0192339
0.0192325
0.0192334
0.0192343
0.0192329
0.0192337
0.0192325
0.0192331
0.0192345
0.0192324
0.019234
0.0192317
0.0192338
0.0192333
0.0192334
0.0192327
0.0192354
0.0192318
0.0192352
0.019231
0.019235
0.0192323
0.0192348
0.0192314
0.0192347
0.0192304
0.019237
0.0192293
0.019237
0.0192281
0.0192372
0.0192292
0.0192373
0.019228
0.0192397
0.0192266
0.0192399
0.0192252
0.0192402
0.0192261
0.0192404
0.0192247
0.0192406
0.0192234
0.0192431
0.0192219
0.0192434
0.0192228
0.0192436
0.0192214
0.0192458
0.0192201
0.0192459
0.019219
0.0192458
0.0192201
0.0192456
0.0192191
0.0192475
0.0192181
0.0192472
0.0192172
0.0192467
0.0192187
0.0192461
0.019218
0.0192476
0.0192174
0.0192469
0.019219
0.019246
0.0192187
0.0192472
0.0192183
0.0192462
0.0192181
0.0192452
0.0192201
0.0192439
0.01922
0.0192448
0.0192199
0.0192435
0.019222
0.0192421
0.019222
0.0192428
0.019222
0.0192415
0.0192241
0.01924
0.0192241
0.0192406
0.019224
0.0192392
0.0192261
0.0192378
0.0192261
0.0192385
0.0192259
0.0192372
0.0192279
0.0192358
0.0192277
0.0192366
0.0192275
0.0192353
0.0192293
0.0192341
0.019229
0.0192349
0.0192287
0.0192338
0.0192303
0.0192327
0.0192299
0.0192336
0.0192294
0.0192326
0.0192309
0.0192336
0.0192303
0.0192326
0.0192318
0.0192316
0.0192311
0.0192327
0.0192303
0.0192318
0.0192317
0.0192309
0.019231
0.019232
0.0192322
0.019231
0.0192314
0.0192322
0.0192305
0.0192315
0.0192317
0.0192305
0.0192309
0.0192317
0.0192319
0.0192308
0.0192311
0.019232
0.0192302
0.0192312
0.0192312
0.0192323
0.0192302
0.0192315
0.0192313
0.0192326
0.0192306
0.0192314
0.0192315
0.0192312
0.0192285
0.019234
0.0192302
0.0192276
0.0192403
0.0192229
0.019222
0.0192324
0.0192237
0.0192511
0.0191991
0.0193418
0.0189764
0.0194057
0.019618
0.016006
0.0176069
0.0176069
0.0176069
)
;

boundaryField
{
    inlet
    {
        type            calculated;
        value           uniform 0;
    }
    outlet
    {
        type            calculated;
        value           uniform 0;
    }
    sideWall
    {
        type            empty;
    }
}


// ************************************************************************* //
