/*--------------------------------*- C++ -*----------------------------------*\
| =========                 |                                                 |
| \\      /  F ield         | foam-extend: Open Source CFD                    |
|  \\    /   O peration     | Version:     3.2                                |
|   \\  /    A nd           | Web:         http://www.foam-extend.org         |
|    \\/     M anipulation  | For copyright notice see file Copyright         |
\*---------------------------------------------------------------------------*/
FoamFile
{
    version     2.0;
    format      ascii;
    class       areaScalarField;
    location    "2000";
    object      tauCB;
}
// * * * * * * * * * * * * * * * * * * * * * * * * * * * * * * * * * * * * * //

dimensions      [1 1 2 0 0 0 0];

internalField   nonuniform List<scalar> 
300
(
0.112594
0.112594
0.112594
0.112594
0.112594
0.112594
0.112594
0.112594
0.112594
0.112594
0.112594
0.112594
0.112594
0.112594
0.112594
0.112594
0.112594
0.112594
0.112594
0.112594
0.112594
0.112594
0.112594
0.112594
0.112594
0.112594
0.112594
0.112594
0.112594
0.112594
0.112594
0.112594
0.112594
0.112594
0.112594
0.112594
0.112594
0.112594
0.112594
0.112594
0.112594
0.112594
0.112594
0.112594
0.112594
0.112594
0.112594
0.112594
0.112594
0.112594
0.112594
0.112594
0.112594
0.112594
0.112594
0.112594
0.112594
0.112594
0.112594
0.120231
0.116976
0.109729
0.112805
0.112471
0.112657
0.112531
0.112557
0.11254
0.112535
0.112527
0.112535
0.112543
0.112546
0.112551
0.112555
0.11256
0.112559
0.112564
0.112568
0.112572
0.11258
0.112583
0.112585
0.112588
0.112589
0.11259
0.112589
0.112591
0.112591
0.112592
0.112594
0.112596
0.112596
0.112595
0.112596
0.112596
0.112593
0.112594
0.112593
0.112594
0.112594
0.112595
0.112595
0.112594
0.112595
0.112595
0.112593
0.112594
0.112593
0.112594
0.112595
0.112594
0.112594
0.112593
0.112594
0.112594
0.112593
0.112594
0.112595
0.112594
0.112594
0.112595
0.112594
0.1126
0.112594
0.112594
0.112594
0.112593
0.112605
0.112597
0.112596
0.112591
0.112596
0.112598
0.112597
0.11259
0.112598
0.112589
0.1126
0.112587
0.112602
0.112585
0.112604
0.112583
0.112606
0.112581
0.112608
0.112578
0.112612
0.112575
0.112615
0.112571
0.112619
0.112567
0.112623
0.112563
0.112628
0.112559
0.112632
0.112554
0.112637
0.112549
0.112641
0.112545
0.112646
0.11254
0.112651
0.112535
0.112656
0.112531
0.11266
0.112527
0.112665
0.112522
0.112668
0.112519
0.112671
0.112516
0.112673
0.112514
0.112676
0.112512
0.112677
0.11251
0.112678
0.11251
0.112678
0.11251
0.112679
0.112509
0.112678
0.112511
0.112676
0.112512
0.112677
0.112514
0.112686
0.112521
0.11267
0.112519
0.112666
0.112522
0.112766
0.112613
0.112812
0.112667
0.112655
0.112534
0.112652
0.112537
0.113013
0.112907
0.113098
0.113005
0.112639
0.11255
0.112635
0.112554
0.113411
0.113374
0.113529
0.113501
0.112623
0.112565
0.112619
0.112568
0.113921
0.113946
0.114051
0.114089
0.11261
0.112577
0.112608
0.112579
0.114469
0.114557
0.114595
0.114693
0.112602
0.112585
0.1126
0.112587
0.115003
0.115139
0.115128
0.115256
0.112596
0.11259
0.112596
0.11259
0.11549
0.115659
0.115583
0.11575
0.112595
0.112593
0.112594
0.112593
0.115887
0.116089
0.115973
0.116158
0.112593
0.112593
0.112594
0.112593
0.116225
0.116463
0.116298
0.116516
0.112594
0.112593
0.112594
0.112593
0.116547
0.116809
0.116616
0.11686
0.112594
0.112593
0.112594
0.112592
0.116902
0.117177
0.117008
0.116795
0.116324
0.112591
0.117108
0.117608
0.116599
0.117981
0.118105
0.123897
0.11314
0.11127
0.105364
0.112594
0.112594
0.112594
)
;

boundaryField
{
    inlet
    {
        type            calculated;
        value           uniform 0;
    }
    outlet
    {
        type            calculated;
        value           uniform 0;
    }
    sideWall
    {
        type            empty;
    }
}


// ************************************************************************* //
