/*--------------------------------*- C++ -*----------------------------------*\
| =========                 |                                                 |
| \\      /  F ield         | foam-extend: Open Source CFD                    |
|  \\    /   O peration     | Version:     3.2                                |
|   \\  /    A nd           | Web:         http://www.foam-extend.org         |
|    \\/     M anipulation  | For copyright notice see file Copyright         |
\*---------------------------------------------------------------------------*/
FoamFile
{
    version     2.0;
    format      ascii;
    class       volScalarField;
    location    "2000";
    object      testS;
}
// * * * * * * * * * * * * * * * * * * * * * * * * * * * * * * * * * * * * * //

dimensions      [0 0 0 0 0 0 0];

internalField   uniform 0;

boundaryField
{
    inlet
    {
        type            calculated;
        value           uniform 0;
    }
    outlet
    {
        type            calculated;
        value           uniform 0;
    }
    sideWall
    {
        type            empty;
    }
    bed
    {
        type            calculated;
        value           nonuniform List<scalar> 
300
(
0.27209
0.370335
0.286736
0.221395
0.186479
0.172688
0.167414
0.166767
0.167634
0.169418
0.171572
0.173776
0.175922
0.178197
0.180385
0.182619
0.184995
0.187372
0.189817
0.192287
0.194772
0.197274
0.199858
0.20252
0.205102
0.207487
0.209645
0.21155
0.213209
0.214633
0.215856
0.216903
0.217777
0.218494
0.219069
0.219546
0.219941
0.220277
0.220556
0.220798
0.220998
0.221176
0.221318
0.221451
0.22155
0.22165
0.221719
0.221797
0.221841
0.221914
0.221907
0.222043
0.221866
0.22232
0.221437
0.223345
0.21928
0.227002
0.199637
0.143247
0.267301
0.267301
0.267299
0.267301
0.267299
0.267301
0.267299
0.267301
0.267299
0.267301
0.267103
0.267055
0.267063
0.267112
0.267146
0.267185
0.267214
0.267235
0.267254
0.267292
0.267288
0.267296
0.267318
0.26731
0.267306
0.267329
0.267311
0.267309
0.267317
0.267314
0.267322
0.267309
0.267298
0.267316
0.267296
0.267296
0.267306
0.267302
0.267311
0.267297
0.267291
0.267304
0.267297
0.267309
0.267294
0.267291
0.267301
0.267297
0.267308
0.267294
0.26729
0.267302
0.267296
0.267308
0.267293
0.267292
0.267299
0.267299
0.267304
0.2673
0.267282
0.267309
0.267292
0.267314
0.267293
0.267286
0.267316
0.267273
0.267347
0.267248
0.267346
0.267239
0.26737
0.267224
0.267393
0.26717
0.267437
0.267141
0.267453
0.267112
0.267502
0.267073
0.267551
0.266997
0.267618
0.26694
0.26769
0.266871
0.26774
0.266803
0.267824
0.266726
0.267909
0.266613
0.268012
0.266522
0.268087
0.266435
0.268192
0.266341
0.268291
0.266217
0.268402
0.266122
0.268508
0.266024
0.26858
0.265942
0.268674
0.265834
0.268769
0.265762
0.268822
0.265708
0.26889
0.265661
0.26894
0.265596
0.268989
0.26557
0.268997
0.265562
0.269019
0.265563
0.269024
0.265545
0.269029
0.265565
0.26899
0.265605
0.268967
0.265623
0.268941
0.265676
0.268873
0.265747
0.268823
0.265822
0.268759
0.265878
0.268702
0.265965
0.26861
0.266065
0.268538
0.266138
0.268473
0.266235
0.268375
0.266342
0.2683
0.266416
0.268235
0.266513
0.268139
0.266614
0.268069
0.266679
0.268011
0.266765
0.267926
0.266854
0.267866
0.266905
0.267817
0.266974
0.267746
0.267047
0.267699
0.267085
0.267663
0.267134
0.267604
0.267185
0.267575
0.267207
0.267551
0.267247
0.267507
0.267278
0.267486
0.267281
0.267453
0.267317
0.267445
0.267319
0.267436
0.267333
0.267404
0.26735
0.267402
0.267343
0.267403
0.267357
0.267375
0.267343
0.26738
0.267348
0.267364
0.267365
0.267369
0.267353
0.267371
0.267356
0.267347
0.26734
0.267365
0.26735
0.267355
0.267364
0.267358
0.26734
0.267342
0.267353
0.267355
0.267342
0.267348
0.267364
0.267356
0.267345
0.267349
0.267397
0.267267
0.267492
0.267172
0.267568
0.267314
0.267314
0.267313
0.267312
0.267312
0.267311
0.267311
0.267311
0.267311
0.267311
0.173351
0.176064
0.20401
0.209838
)
;
    }
    topWall
    {
        type            calculated;
        value           uniform 0;
    }
}


// ************************************************************************* //
