/*--------------------------------*- C++ -*----------------------------------*\
| =========                 |                                                 |
| \\      /  F ield         | foam-extend: Open Source CFD                    |
|  \\    /   O peration     | Version:     3.2                                |
|   \\  /    A nd           | Web:         http://www.foam-extend.org         |
|    \\/     M anipulation  | For copyright notice see file Copyright         |
\*---------------------------------------------------------------------------*/
FoamFile
{
    version     2.0;
    format      ascii;
    class       areaScalarField;
    location    "2000";
    object      thetaSS2;
}
// * * * * * * * * * * * * * * * * * * * * * * * * * * * * * * * * * * * * * //

dimensions      [0 0 0 0 0 0 0];

internalField   nonuniform List<scalar> 
300
(
1.79762
2.20096
1.8605
1.57057
1.40399
1.33537
1.30865
1.30535
1.30977
1.31884
1.32974
1.34085
1.35162
1.36299
1.37388
1.38496
1.39669
1.40837
1.42034
1.43237
1.44443
1.45652
1.46895
1.4817
1.49402
1.50535
1.51556
1.52455
1.53235
1.53904
1.54477
1.54966
1.55374
1.55708
1.55976
1.56198
1.56382
1.56538
1.56668
1.5678
1.56873
1.56956
1.57022
1.57083
1.57129
1.57176
1.57207
1.57244
1.57264
1.57298
1.57295
1.57358
1.57276
1.57486
1.57077
1.57961
1.56074
1.5965
1.4676
1.71401
2.35318
2.21171
1.94586
1.95584
1.93224
1.93697
1.93413
1.93547
1.93609
1.93693
1.93732
1.93785
1.93847
1.93893
1.93933
1.93961
1.93985
1.93999
1.94014
1.94019
1.94018
1.94023
1.94019
1.94014
1.94015
1.9401
1.94002
1.94005
1.93998
1.93996
1.93991
1.93984
1.93987
1.93984
1.93979
1.93984
1.9398
1.9398
1.93978
1.93973
1.93979
1.93976
1.93977
1.93976
1.93971
1.93977
1.93974
1.93975
1.93975
1.9397
1.93977
1.93973
1.93974
1.93974
1.93969
1.93976
1.93971
1.93975
1.93972
1.93969
1.93973
1.93972
1.93973
1.93971
1.93969
1.9397
1.93975
1.93965
1.9398
1.93954
1.93987
1.93953
1.93987
1.93948
1.93987
1.93942
1.93998
1.9393
1.94008
1.93926
1.94014
1.93918
1.94017
1.93909
1.9403
1.93895
1.94042
1.93876
1.94056
1.93865
1.94065
1.93851
1.94072
1.93836
1.94089
1.93816
1.94106
1.93804
1.94116
1.93789
1.94123
1.93777
1.94138
1.9376
1.94149
1.93741
1.9416
1.93734
1.94163
1.93727
1.94174
1.93716
1.94182
1.93715
1.94182
1.93714
1.94177
1.93715
1.94181
1.93712
1.94181
1.93719
1.94174
1.93725
1.94163
1.93733
1.9416
1.93738
1.94154
1.93752
1.94141
1.93766
1.94135
1.93775
1.94127
1.93793
1.94113
1.93808
1.94097
1.93824
1.94091
1.93836
1.94083
1.93855
1.94069
1.93873
1.94064
1.93885
1.94057
1.93903
1.94046
1.93919
1.94042
1.93928
1.94037
1.93944
1.94027
1.93956
1.94025
1.93962
1.94023
1.93973
1.94014
1.93982
1.94013
1.93984
1.94012
1.93991
1.94004
1.93997
1.94004
1.93995
1.94003
1.93999
1.93998
1.94002
1.93997
1.93999
1.93997
1.93998
1.93993
1.93997
1.93996
1.94
1.93993
1.93999
1.93993
1.93994
1.93993
1.93993
1.93988
1.93992
1.93987
1.93986
1.93984
1.93987
1.93985
1.93982
1.93985
1.93983
1.9398
1.93982
1.93978
1.93976
1.93976
1.93978
1.93978
1.93974
1.93979
1.93974
1.93973
1.93971
1.93977
1.93974
1.93974
1.93974
1.93978
1.93977
1.93973
1.93976
1.93972
1.93979
1.93958
1.94019
1.93899
1.94013
1.94035
1.93885
1.93944
1.93872
1.94072
1.93691
1.94438
1.9414
1.90735
2.09818
1.59107
1.35576
1.48852
1.5165
)
;

boundaryField
{
    inlet
    {
        type            calculated;
        value           uniform 0;
    }
    outlet
    {
        type            calculated;
        value           uniform 0;
    }
    sideWall
    {
        type            empty;
    }
}


// ************************************************************************* //
