/*--------------------------------*- C++ -*----------------------------------*\
| =========                 |                                                 |
| \\      /  F ield         | foam-extend: Open Source CFD                    |
|  \\    /   O peration     | Version:     3.2                                |
|   \\  /    A nd           | Web:         http://www.foam-extend.org         |
|    \\/     M anipulation  | For copyright notice see file Copyright         |
\*---------------------------------------------------------------------------*/
FoamFile
{
    version     2.0;
    format      ascii;
    class       areaScalarField;
    location    "2000";
    object      thetaSS1;
}
// * * * * * * * * * * * * * * * * * * * * * * * * * * * * * * * * * * * * * //

dimensions      [0 0 0 0 0 0 0];

internalField   nonuniform List<scalar> 
300
(
7.08472
8.67439
7.33255
6.1899
5.53336
5.26292
5.15762
5.14463
5.16203
5.19777
5.24073
5.28452
5.32697
5.37178
5.41472
5.45836
5.50459
5.55064
5.5978
5.64523
5.69276
5.7404
5.78941
5.83966
5.8882
5.93284
5.9731
6.00852
6.03927
6.06561
6.0882
6.10749
6.12357
6.13674
6.1473
6.15605
6.1633
6.16944
6.17456
6.17899
6.18265
6.1859
6.1885
6.19092
6.19274
6.19457
6.19582
6.19725
6.19805
6.19939
6.19926
6.20175
6.19851
6.20681
6.19067
6.22552
6.15116
6.29211
5.78406
6.75522
9.27429
8.71674
7.66897
7.7083
7.61529
7.63396
7.62274
7.62805
7.63049
7.6338
7.63533
7.63743
7.63985
7.64166
7.64323
7.64436
7.64527
7.64585
7.64644
7.64662
7.64659
7.6468
7.64665
7.64644
7.64649
7.64629
7.64597
7.64607
7.64578
7.64571
7.64552
7.64526
7.64535
7.64524
7.64504
7.64527
7.64508
7.64509
7.64501
7.64483
7.64506
7.64493
7.64496
7.64492
7.64475
7.64499
7.64487
7.64491
7.64488
7.64471
7.64496
7.64483
7.64487
7.64485
7.64467
7.64494
7.64475
7.64488
7.64477
7.64468
7.64483
7.64479
7.64482
7.64476
7.64466
7.64471
7.6449
7.64452
7.6451
7.64407
7.64539
7.64404
7.64539
7.64384
7.64535
7.6436
7.64579
7.64314
7.64621
7.64298
7.64644
7.64265
7.64655
7.64231
7.64708
7.64173
7.64755
7.64098
7.64807
7.64055
7.64844
7.63999
7.64871
7.63943
7.6494
7.63862
7.65005
7.63816
7.65046
7.63759
7.65071
7.63708
7.65131
7.63641
7.65176
7.63568
7.65217
7.6354
7.6523
7.63513
7.65275
7.63469
7.65304
7.63466
7.65305
7.6346
7.65285
7.63463
7.653
7.63451
7.65302
7.6348
7.65276
7.63504
7.6523
7.63537
7.65219
7.63554
7.65195
7.63612
7.65143
7.63667
7.6512
7.63702
7.65088
7.63771
7.65035
7.6383
7.64971
7.63896
7.64945
7.63941
7.64914
7.64019
7.6486
7.64089
7.64839
7.64133
7.64814
7.64207
7.64768
7.64269
7.64755
7.64304
7.64736
7.64366
7.64695
7.64416
7.64688
7.64437
7.64677
7.64483
7.64642
7.64519
7.6464
7.64524
7.64636
7.64554
7.64605
7.64578
7.64603
7.64568
7.64602
7.64584
7.64581
7.64595
7.64577
7.64584
7.64577
7.64582
7.6456
7.64578
7.64571
7.64588
7.64559
7.64586
7.64562
7.64563
7.64559
7.64562
7.6454
7.64557
7.64536
7.64533
7.64526
7.64537
7.64529
7.64518
7.6453
7.64522
7.6451
7.64516
7.64503
7.64493
7.64494
7.64502
7.64503
7.64486
7.64507
7.64486
7.64482
7.64475
7.64496
7.64484
7.64485
7.64485
7.645
7.64498
7.64484
7.64492
7.64478
7.64505
7.64422
7.64664
7.64192
7.64638
7.64727
7.64135
7.64367
7.64082
7.64874
7.63372
7.66314
7.65142
7.5172
8.26931
6.2707
5.34329
5.86652
5.97678
)
;

boundaryField
{
    inlet
    {
        type            calculated;
        value           uniform 0;
    }
    outlet
    {
        type            calculated;
        value           uniform 0;
    }
    sideWall
    {
        type            empty;
    }
}


// ************************************************************************* //
