/*--------------------------------*- C++ -*----------------------------------*\
| =========                 |                                                 |
| \\      /  F ield         | foam-extend: Open Source CFD                    |
|  \\    /   O peration     | Version:     3.2                                |
|   \\  /    A nd           | Web:         http://www.foam-extend.org         |
|    \\/     M anipulation  | For copyright notice see file Copyright         |
\*---------------------------------------------------------------------------*/
FoamFile
{
    version     2.0;
    format      ascii;
    class       areaScalarField;
    location    "2000";
    object      thetaHMaxSS2;
}
// * * * * * * * * * * * * * * * * * * * * * * * * * * * * * * * * * * * * * //

dimensions      [0 0 0 0 0 0 0];

internalField   nonuniform List<scalar> 
300
(
0
0
0
0
0
0
0
0
0
0
0
0
0
0
0
0
0
0
0
0
0
0
0
0
0
0
0
0
0
0
0
0
0
0
0
0
0
0
0
0
0
0
0
0
0
0
0
0
0
0
0
0
0
0
0
0
0
0
0
1.70075
1.80632
1.77834
1.73403
1.72388
1.71503
1.71166
1.71096
1.71137
1.71203
1.71285
1.71409
1.71523
1.71601
1.71654
1.71705
1.71748
1.71786
1.71823
1.71857
1.71867
1.71894
1.71918
1.71917
1.71936
1.71952
1.71945
1.71958
1.7197
1.7196
1.7197
1.71959
1.71968
1.71977
1.71965
1.71973
1.71981
1.71968
1.71976
1.71963
1.71971
1.71979
1.71966
1.71974
1.71962
1.7197
1.71977
1.71965
1.71973
1.7196
1.71968
1.71976
1.71964
1.71972
1.71959
1.71967
1.71975
1.71963
1.71971
1.71958
1.71966
1.71974
1.71962
1.7197
1.71958
1.71965
1.71973
1.71961
1.71968
1.71957
1.71964
1.71972
1.71959
1.71967
1.71955
1.71963
1.7197
1.71958
1.71966
1.71973
1.71961
1.71969
1.71957
1.71964
1.71971
1.7196
1.71967
1.71955
1.71962
1.7197
1.71958
1.71965
1.71953
1.7196
1.71967
1.71956
1.71963
1.7197
1.71958
1.71965
1.71953
1.7196
1.71967
1.71955
1.71962
1.7195
1.71957
1.71964
1.71952
1.71959
1.71966
1.71955
1.71961
1.71968
1.71956
1.71963
1.71951
1.71957
1.71965
1.71953
1.71959
1.71966
1.71954
1.71961
1.71948
1.71955
1.71962
1.7195
1.71956
1.71963
1.71951
1.71957
1.71963
1.71952
1.71958
1.71964
1.71953
1.71959
1.71947
1.71953
1.7196
1.71948
1.71954
1.7196
1.71948
1.71954
1.7196
1.71948
1.71954
1.7196
1.71949
1.71955
1.71961
1.71949
1.71954
1.7196
1.71948
1.71954
1.7196
1.71948
1.71954
1.7196
1.71948
1.71953
1.71959
1.71947
1.71953
1.71958
1.71946
1.71952
1.71957
1.71946
1.71951
1.71956
1.71945
1.7195
1.71955
1.71943
1.71948
1.71954
1.71942
1.71947
1.71952
1.71958
1.71946
1.71951
1.71956
1.71944
1.71949
1.71955
1.71942
1.71948
1.71952
1.71941
1.71945
1.71951
1.71955
1.71943
1.71948
1.71953
1.71941
1.71947
1.7195
1.71939
1.71943
1.71949
1.71952
1.71942
1.71944
1.71952
1.71937
1.71944
1.71946
1.71954
1.71938
1.71947
1.71946
1.71956
1.7194
1.71946
1.71948
1.71945
1.71923
1.71969
1.71934
1.71921
1.72
1.71898
1.71866
1.71951
1.71877
1.72109
1.71669
1.72827
1.70138
1.72668
1.7749
1.52929
0
0
0
)
;

boundaryField
{
    inlet
    {
        type            calculated;
        value           uniform 0;
    }
    outlet
    {
        type            calculated;
        value           uniform 0;
    }
    sideWall
    {
        type            empty;
    }
}


// ************************************************************************* //
