/*--------------------------------*- C++ -*----------------------------------*\
| =========                 |                                                 |
| \\      /  F ield         | foam-extend: Open Source CFD                    |
|  \\    /   O peration     | Version:     3.2                                |
|   \\  /    A nd           | Web:         http://www.foam-extend.org         |
|    \\/     M anipulation  | For copyright notice see file Copyright         |
\*---------------------------------------------------------------------------*/
FoamFile
{
    version     2.0;
    format      ascii;
    class       areaScalarField;
    location    "2000";
    object      thetaBinit;
}
// * * * * * * * * * * * * * * * * * * * * * * * * * * * * * * * * * * * * * //

dimensions      [0 0 0 0 0 0 0];

internalField   nonuniform List<scalar> 
300
(
0.134659
0.165003
0.140084
0.117495
0.105407
0.100019
0.0981024
0.0978517
0.0981926
0.0988726
0.0997095
0.100538
0.101358
0.102206
0.10303
0.103866
0.104744
0.105625
0.10652
0.107425
0.108328
0.109235
0.110169
0.111127
0.112051
0.112901
0.113667
0.114341
0.114926
0.115428
0.115858
0.116225
0.116531
0.116781
0.116983
0.117149
0.117287
0.117403
0.117501
0.117585
0.117656
0.117716
0.117767
0.117811
0.117848
0.11788
0.117907
0.117931
0.11795
0.117967
0.117981
0.117994
0.118004
0.118013
0.118021
0.118028
0.118033
0.118038
0.118042
0.118046
0.118049
0.118051
0.118053
0.118056
0.118057
0.118059
0.11806
0.118061
0.118062
0.118062
0.118063
0.118064
0.118064
0.118064
0.118065
0.118065
0.118065
0.118065
0.118066
0.118066
0.118066
0.118066
0.118066
0.118066
0.118067
0.118067
0.118067
0.118067
0.118067
0.118067
0.118067
0.118067
0.118067
0.118067
0.118067
0.118067
0.118067
0.118067
0.118067
0.118067
0.118067
0.118067
0.118067
0.118067
0.118067
0.118067
0.118067
0.118067
0.118067
0.118067
0.118067
0.118067
0.118067
0.118067
0.118067
0.118067
0.118067
0.118067
0.118067
0.118067
0.118067
0.118067
0.118067
0.118067
0.118067
0.118067
0.118067
0.118067
0.118067
0.118067
0.118067
0.118067
0.118067
0.118067
0.118067
0.118067
0.118067
0.118067
0.118067
0.118067
0.118067
0.118067
0.118067
0.118067
0.118067
0.118067
0.118067
0.118067
0.118067
0.118067
0.118067
0.118067
0.118067
0.118067
0.118067
0.118067
0.118067
0.118067
0.118067
0.118067
0.118067
0.118067
0.118067
0.118067
0.118067
0.118067
0.118067
0.118067
0.118067
0.118067
0.118067
0.118067
0.118067
0.118067
0.118067
0.118067
0.118067
0.118067
0.118067
0.118067
0.118067
0.118067
0.118067
0.118067
0.118067
0.118067
0.118067
0.118067
0.118067
0.118067
0.118067
0.118067
0.118067
0.118067
0.118067
0.118067
0.118067
0.118067
0.118067
0.118067
0.118067
0.118067
0.118067
0.118067
0.118067
0.118067
0.118067
0.118067
0.118067
0.118067
0.118067
0.118067
0.118067
0.118067
0.118067
0.118067
0.118067
0.118067
0.118067
0.118067
0.118067
0.118067
0.118067
0.118067
0.118067
0.118067
0.118067
0.118067
0.118067
0.118067
0.118067
0.118067
0.118067
0.118067
0.118067
0.118067
0.118067
0.118067
0.118067
0.118067
0.118067
0.118067
0.118067
0.118067
0.118067
0.118067
0.118067
0.118067
0.118067
0.118067
0.118067
0.118067
0.118067
0.118067
0.118067
0.118067
0.118067
0.118067
0.118067
0.118067
0.118067
0.118067
0.118067
0.118067
0.118067
0.118067
0.118067
0.118067
0.118067
0.118067
0.118067
0.118067
0.118067
0.118067
0.118067
0.118067
0.118067
0.118067
0.118067
0.118067
0.118067
0.118067
0.118067
0.118067
0.118067
0.118067
0.118067
0.118067
0.118067
0.118067
0.118067
0.118067
0.118067
0.118067
0.118067
0.118067
0.118067
0.118067
0.118076
0.118065
)
;

boundaryField
{
    inlet
    {
        type            calculated;
        value           uniform 0;
    }
    outlet
    {
        type            calculated;
        value           uniform 0;
    }
    sideWall
    {
        type            empty;
    }
}


// ************************************************************************* //
