/*--------------------------------*- C++ -*----------------------------------*\
| =========                 |                                                 |
| \\      /  F ield         | foam-extend: Open Source CFD                    |
|  \\    /   O peration     | Version:     3.2                                |
|   \\  /    A nd           | Web:         http://www.foam-extend.org         |
|    \\/     M anipulation  | For copyright notice see file Copyright         |
\*---------------------------------------------------------------------------*/
FoamFile
{
    version     2.0;
    format      ascii;
    class       areaScalarField;
    location    "2000";
    object      thetaCSS2;
}
// * * * * * * * * * * * * * * * * * * * * * * * * * * * * * * * * * * * * * //

dimensions      [0 0 0 0 0 0 0];

internalField   nonuniform List<scalar> 
300
(
0.0933366
0.0933366
0.0933366
0.0933366
0.0933366
0.0933366
0.0933366
0.0933366
0.0933366
0.0933366
0.0933366
0.0933366
0.0933366
0.0933366
0.0933366
0.0933366
0.0933366
0.0933366
0.0933366
0.0933366
0.0933366
0.0933366
0.0933366
0.0933366
0.0933366
0.0933366
0.0933366
0.0933366
0.0933366
0.0933366
0.0933366
0.0933366
0.0933366
0.0933366
0.0933366
0.0933366
0.0933366
0.0933366
0.0933366
0.0933366
0.0933366
0.0933366
0.0933366
0.0933366
0.0933366
0.0933366
0.0933366
0.0933366
0.0933366
0.0933366
0.0933366
0.0933366
0.0933366
0.0933366
0.0933366
0.0933366
0.0933366
0.0933366
0.0933366
0.107627
0.111151
0.102654
0.102975
0.102075
0.101723
0.101414
0.101398
0.10141
0.10145
0.101499
0.101573
0.101647
0.101697
0.101732
0.101766
0.101796
0.101823
0.101849
0.101873
0.101882
0.101901
0.101918
0.10192
0.101934
0.101945
0.101941
0.101951
0.101959
0.101953
0.101961
0.101954
0.10196
0.101966
0.101958
0.101964
0.101969
0.10196
0.101966
0.101957
0.101963
0.101968
0.101959
0.101965
0.101956
0.101962
0.101967
0.101959
0.101964
0.101956
0.101961
0.101966
0.101958
0.101963
0.101955
0.10196
0.101965
0.101957
0.101963
0.101954
0.10196
0.101964
0.101957
0.101962
0.101954
0.101959
0.101964
0.101956
0.101961
0.101954
0.101957
0.101965
0.101953
0.101962
0.10195
0.101961
0.101959
0.101959
0.101955
0.101969
0.101951
0.101968
0.101946
0.101967
0.101953
0.101966
0.101949
0.101966
0.101943
0.101978
0.101937
0.101978
0.101931
0.101979
0.101936
0.10198
0.10193
0.101993
0.101923
0.101994
0.101916
0.101995
0.10192
0.101996
0.101913
0.101997
0.101906
0.102011
0.101898
0.102012
0.101903
0.102013
0.101896
0.102025
0.101889
0.102025
0.101882
0.102025
0.101889
0.102024
0.101883
0.102034
0.101878
0.102032
0.101873
0.10203
0.101881
0.102026
0.101878
0.102034
0.101874
0.102031
0.101883
0.102026
0.101881
0.102032
0.101879
0.102027
0.101878
0.102022
0.101888
0.102015
0.101888
0.10202
0.101887
0.102013
0.101899
0.102005
0.101899
0.102009
0.101898
0.102002
0.10191
0.101994
0.10191
0.101997
0.101909
0.10199
0.10192
0.101982
0.10192
0.101986
0.10192
0.101979
0.10193
0.101972
0.101929
0.101976
0.101928
0.101969
0.101938
0.101963
0.101936
0.101967
0.101934
0.101961
0.101943
0.101955
0.101941
0.10196
0.101938
0.101955
0.101946
0.10196
0.101942
0.101955
0.10195
0.101949
0.101947
0.101955
0.101943
0.101951
0.10195
0.101946
0.101946
0.101952
0.101952
0.101947
0.101948
0.101953
0.101944
0.101949
0.10195
0.101944
0.101946
0.10195
0.101951
0.101945
0.101947
0.101952
0.101942
0.101947
0.101948
0.101953
0.101942
0.101949
0.101948
0.101955
0.101944
0.101948
0.101949
0.101948
0.101933
0.101962
0.101942
0.101928
0.101995
0.101903
0.101898
0.101954
0.101908
0.102053
0.101777
0.102534
0.100597
0.102872
0.103998
0.0848501
0.0933366
0.0933366
0.0933366
)
;

boundaryField
{
    inlet
    {
        type            calculated;
        value           uniform 0;
    }
    outlet
    {
        type            calculated;
        value           uniform 0;
    }
    sideWall
    {
        type            empty;
    }
}


// ************************************************************************* //
