/*--------------------------------*- C++ -*----------------------------------*\
| =========                 |                                                 |
| \\      /  F ield         | foam-extend: Open Source CFD                    |
|  \\    /   O peration     | Version:     3.2                                |
|   \\  /    A nd           | Web:         http://www.foam-extend.org         |
|    \\/     M anipulation  | For copyright notice see file Copyright         |
\*---------------------------------------------------------------------------*/
FoamFile
{
    version     2.0;
    format      ascii;
    class       areaScalarField;
    location    "2000";
    object      thetaCSS1;
}
// * * * * * * * * * * * * * * * * * * * * * * * * * * * * * * * * * * * * * //

dimensions      [0 0 0 0 0 0 0];

internalField   nonuniform List<scalar> 
300
(
0.117306
0.117306
0.117306
0.117306
0.117306
0.117306
0.117306
0.117306
0.117306
0.117306
0.117306
0.117306
0.117306
0.117306
0.117306
0.117306
0.117306
0.117306
0.117306
0.117306
0.117306
0.117306
0.117306
0.117306
0.117306
0.117306
0.117306
0.117306
0.117306
0.117306
0.117306
0.117306
0.117306
0.117306
0.117306
0.117306
0.117306
0.117306
0.117306
0.117306
0.117306
0.117306
0.117306
0.117306
0.117306
0.117306
0.117306
0.117306
0.117306
0.117306
0.117306
0.117306
0.117306
0.117306
0.117306
0.117306
0.117306
0.117306
0.117306
0.135267
0.139696
0.129017
0.129421
0.128289
0.127846
0.127459
0.127438
0.127453
0.127503
0.127566
0.127658
0.127751
0.127813
0.127858
0.127901
0.127939
0.127972
0.128005
0.128035
0.128046
0.12807
0.128092
0.128094
0.128111
0.128125
0.128121
0.128133
0.128143
0.128136
0.128146
0.128137
0.128145
0.128152
0.128142
0.128149
0.128155
0.128145
0.128152
0.128141
0.128148
0.128154
0.128144
0.12815
0.12814
0.128147
0.128153
0.128143
0.128149
0.128139
0.128146
0.128152
0.128142
0.128148
0.128138
0.128145
0.128151
0.128141
0.128148
0.128137
0.128145
0.12815
0.128141
0.128146
0.128137
0.128143
0.128149
0.12814
0.128145
0.128137
0.128141
0.12815
0.128136
0.128148
0.128132
0.128146
0.128143
0.128143
0.128138
0.128156
0.128133
0.128155
0.128127
0.128154
0.128136
0.128153
0.12813
0.128152
0.128123
0.128167
0.128116
0.128167
0.128108
0.128168
0.128115
0.128169
0.128107
0.128185
0.128098
0.128187
0.128089
0.128189
0.128095
0.12819
0.128085
0.128191
0.128076
0.128208
0.128067
0.12821
0.128072
0.128211
0.128064
0.128226
0.128055
0.128226
0.128047
0.128226
0.128055
0.128224
0.128048
0.128237
0.128042
0.128235
0.128035
0.128232
0.128045
0.128228
0.128041
0.128238
0.128037
0.128233
0.128047
0.128227
0.128045
0.128235
0.128043
0.128228
0.128041
0.128222
0.128055
0.128213
0.128054
0.128219
0.128053
0.128211
0.128067
0.128201
0.128067
0.128206
0.128067
0.128197
0.128081
0.128187
0.128081
0.128191
0.128081
0.128182
0.128095
0.128172
0.128095
0.128177
0.128094
0.128168
0.128107
0.128159
0.128106
0.128164
0.128104
0.128156
0.128116
0.128148
0.128114
0.128153
0.128112
0.128146
0.128123
0.128138
0.12812
0.128145
0.128116
0.128138
0.128126
0.128145
0.128122
0.128138
0.128132
0.128131
0.128128
0.128138
0.128123
0.128133
0.128132
0.128126
0.128127
0.128134
0.128135
0.128128
0.12813
0.128135
0.128124
0.12813
0.128132
0.128124
0.128126
0.128132
0.128134
0.128126
0.128128
0.128134
0.128122
0.128128
0.128129
0.128136
0.128122
0.128131
0.128129
0.128138
0.128124
0.12813
0.12813
0.128129
0.12811
0.128147
0.128122
0.128105
0.128189
0.128073
0.128067
0.128136
0.128079
0.128261
0.127915
0.128865
0.126431
0.129291
0.130706
0.106641
0.117306
0.117306
0.117306
)
;

boundaryField
{
    inlet
    {
        type            calculated;
        value           uniform 0;
    }
    outlet
    {
        type            calculated;
        value           uniform 0;
    }
    sideWall
    {
        type            empty;
    }
}


// ************************************************************************* //
