/*--------------------------------*- C++ -*----------------------------------*\
| =========                 |                                                 |
| \\      /  F ield         | foam-extend: Open Source CFD                    |
|  \\    /   O peration     | Version:     3.2                                |
|   \\  /    A nd           | Web:         http://www.foam-extend.org         |
|    \\/     M anipulation  | For copyright notice see file Copyright         |
\*---------------------------------------------------------------------------*/
FoamFile
{
    version     2.0;
    format      ascii;
    class       areaScalarField;
    location    "2000";
    object      thetaSS1init;
}
// * * * * * * * * * * * * * * * * * * * * * * * * * * * * * * * * * * * * * //

dimensions      [0 0 0 0 0 0 0];

internalField   nonuniform List<scalar> 
300
(
7.07622
8.67074
7.36129
6.17426
5.53905
5.25588
5.15519
5.14201
5.15993
5.19566
5.23964
5.28319
5.32625
5.37083
5.41415
5.45808
5.50417
5.55049
5.59754
5.64506
5.69251
5.74019
5.78927
5.83959
5.88817
5.93282
5.97307
6.00851
6.03927
6.06562
6.08822
6.10749
6.1236
6.13673
6.14733
6.15604
6.16331
6.16942
6.17458
6.17896
6.18268
6.18587
6.18855
6.19086
6.19281
6.19449
6.19592
6.19713
6.19817
6.19905
6.1998
6.20046
6.201
6.20147
6.20187
6.20223
6.20253
6.20277
6.20299
6.20319
6.20335
6.20348
6.20358
6.2037
6.20378
6.20386
6.20392
6.20398
6.20402
6.20406
6.2041
6.20412
6.20414
6.20416
6.20418
6.2042
6.20422
6.20422
6.20424
6.20424
6.20426
6.20426
6.20426
6.20426
6.20428
6.20428
6.20428
6.20428
6.20428
6.20428
6.20428
6.20428
6.20428
6.20428
6.20428
6.2043
6.2043
6.2043
6.2043
6.2043
6.2043
6.2043
6.2043
6.2043
6.2043
6.2043
6.2043
6.2043
6.2043
6.2043
6.2043
6.2043
6.2043
6.2043
6.2043
6.2043
6.2043
6.2043
6.2043
6.2043
6.2043
6.2043
6.2043
6.2043
6.2043
6.2043
6.2043
6.2043
6.2043
6.2043
6.2043
6.2043
6.2043
6.2043
6.2043
6.2043
6.2043
6.2043
6.2043
6.2043
6.2043
6.2043
6.2043
6.2043
6.2043
6.2043
6.2043
6.2043
6.2043
6.2043
6.2043
6.2043
6.2043
6.2043
6.2043
6.2043
6.2043
6.2043
6.2043
6.2043
6.2043
6.2043
6.2043
6.2043
6.2043
6.2043
6.2043
6.2043
6.2043
6.2043
6.2043
6.2043
6.2043
6.2043
6.2043
6.2043
6.2043
6.2043
6.2043
6.2043
6.2043
6.2043
6.2043
6.2043
6.2043
6.2043
6.2043
6.2043
6.2043
6.2043
6.2043
6.2043
6.2043
6.2043
6.2043
6.2043
6.2043
6.20428
6.20428
6.20428
6.20428
6.20428
6.20428
6.20428
6.20428
6.20428
6.20428
6.20428
6.20428
6.20428
6.20428
6.20428
6.20428
6.20428
6.20428
6.20428
6.20428
6.20428
6.20428
6.20428
6.20428
6.20428
6.20428
6.20428
6.20428
6.20428
6.20428
6.20428
6.20428
6.20428
6.20428
6.20428
6.20428
6.20428
6.20428
6.20428
6.20428
6.20428
6.20428
6.20428
6.20428
6.20428
6.20428
6.20428
6.20428
6.20428
6.20428
6.20428
6.20428
6.20428
6.20428
6.20428
6.20428
6.20428
6.20428
6.20428
6.20428
6.20428
6.20428
6.20428
6.20428
6.20428
6.20428
6.20428
6.20428
6.20428
6.20428
6.20428
6.20428
6.20428
6.20428
6.20428
6.20428
6.20428
6.20428
6.20428
6.20428
6.20428
6.20428
6.20428
6.20428
6.20428
6.20428
6.20428
6.20428
6.20428
6.20428
6.20428
6.20428
6.20428
6.20428
6.20428
6.20428
6.20428
6.20428
6.20428
6.20428
6.2043
6.20476
6.2042
)
;

boundaryField
{
    inlet
    {
        type            calculated;
        value           uniform 0;
    }
    outlet
    {
        type            calculated;
        value           uniform 0;
    }
    sideWall
    {
        type            empty;
    }
}


// ************************************************************************* //
