/*--------------------------------*- C++ -*----------------------------------*\
| =========                 |                                                 |
| \\      /  F ield         | foam-extend: Open Source CFD                    |
|  \\    /   O peration     | Version:     3.2                                |
|   \\  /    A nd           | Web:         http://www.foam-extend.org         |
|    \\/     M anipulation  | For copyright notice see file Copyright         |
\*---------------------------------------------------------------------------*/
FoamFile
{
    version     2.0;
    format      ascii;
    class       areaScalarField;
    location    "2000";
    object      thetaC2SS1;
}
// * * * * * * * * * * * * * * * * * * * * * * * * * * * * * * * * * * * * * //

dimensions      [0 0 0 0 0 0 0];

internalField   nonuniform List<scalar> 
300
(
0.118217
0.118217
0.118217
0.118217
0.118217
0.118217
0.118217
0.118217
0.118217
0.118217
0.118217
0.118217
0.118217
0.118217
0.118217
0.118217
0.118217
0.118217
0.118217
0.118217
0.118217
0.118217
0.118217
0.118217
0.118217
0.118217
0.118217
0.118217
0.118217
0.118217
0.118217
0.118217
0.118217
0.118217
0.118217
0.118217
0.118217
0.118217
0.118217
0.118217
0.118217
0.118217
0.118217
0.118217
0.118217
0.118217
0.118217
0.118217
0.118217
0.118217
0.118217
0.118217
0.118217
0.118217
0.118217
0.118217
0.118217
0.118217
0.118217
0.127741
0.135668
0.133563
0.130233
0.129468
0.128802
0.128547
0.128493
0.128523
0.128572
0.128633
0.128725
0.12881
0.128868
0.128908
0.128945
0.128977
0.129005
0.129033
0.129058
0.129065
0.129085
0.129103
0.129103
0.129117
0.129129
0.129123
0.129133
0.129142
0.129135
0.129142
0.129134
0.129141
0.129147
0.129138
0.129144
0.12915
0.12914
0.129146
0.129136
0.129142
0.129148
0.129139
0.129145
0.129136
0.129141
0.129147
0.129138
0.129144
0.129135
0.129141
0.129147
0.129137
0.129143
0.129134
0.12914
0.129146
0.129136
0.129142
0.129133
0.129139
0.129145
0.129136
0.129142
0.129132
0.129138
0.129144
0.129135
0.129141
0.129132
0.129137
0.129143
0.129134
0.129139
0.129131
0.129136
0.129142
0.129133
0.129139
0.129144
0.129135
0.129141
0.129132
0.129137
0.129143
0.129134
0.12914
0.129131
0.129136
0.129141
0.129132
0.129138
0.129129
0.129135
0.12914
0.129131
0.129136
0.129142
0.129133
0.129138
0.129129
0.129134
0.12914
0.129131
0.129136
0.129127
0.129132
0.129137
0.129129
0.129134
0.129139
0.12913
0.129135
0.12914
0.129131
0.129136
0.129127
0.129132
0.129138
0.129129
0.129134
0.129139
0.12913
0.129135
0.129126
0.129131
0.129135
0.129126
0.129131
0.129136
0.129127
0.129132
0.129137
0.129128
0.129133
0.129137
0.129129
0.129133
0.129125
0.12913
0.129134
0.129126
0.12913
0.129135
0.129126
0.12913
0.129135
0.129126
0.129131
0.129135
0.129126
0.129131
0.129135
0.129126
0.12913
0.129135
0.129126
0.12913
0.129135
0.129126
0.12913
0.129134
0.129125
0.12913
0.129134
0.129125
0.129129
0.129133
0.129124
0.129129
0.129133
0.129124
0.129128
0.129132
0.129123
0.129127
0.129131
0.129122
0.129126
0.12913
0.129121
0.129125
0.129129
0.129133
0.129124
0.129128
0.129132
0.129123
0.129127
0.129131
0.129121
0.129125
0.129129
0.12912
0.129123
0.129128
0.129131
0.129122
0.129126
0.12913
0.12912
0.129125
0.129127
0.129119
0.129122
0.129126
0.129129
0.129121
0.129123
0.129128
0.129117
0.129123
0.129124
0.12913
0.129118
0.129125
0.129125
0.129132
0.12912
0.129124
0.129126
0.129124
0.129107
0.129142
0.129115
0.129105
0.129164
0.129088
0.129064
0.129128
0.129072
0.129247
0.128916
0.129785
0.127766
0.129666
0.133287
0.114843
0.118217
0.118217
0.118217
)
;

boundaryField
{
    inlet
    {
        type            calculated;
        value           uniform 0;
    }
    outlet
    {
        type            calculated;
        value           uniform 0;
    }
    sideWall
    {
        type            empty;
    }
}


// ************************************************************************* //
