/*--------------------------------*- C++ -*----------------------------------*\
| =========                 |                                                 |
| \\      /  F ield         | foam-extend: Open Source CFD                    |
|  \\    /   O peration     | Version:     3.2                                |
|   \\  /    A nd           | Web:         http://www.foam-extend.org         |
|    \\/     M anipulation  | For copyright notice see file Copyright         |
\*---------------------------------------------------------------------------*/
FoamFile
{
    version     2.0;
    format      ascii;
    class       areaScalarField;
    location    "2000";
    object      thetaC2SS2;
}
// * * * * * * * * * * * * * * * * * * * * * * * * * * * * * * * * * * * * * //

dimensions      [0 0 0 0 0 0 0];

internalField   nonuniform List<scalar> 
300
(
0.0940613
0.0940613
0.0940613
0.0940613
0.0940613
0.0940613
0.0940613
0.0940613
0.0940613
0.0940613
0.0940613
0.0940613
0.0940613
0.0940613
0.0940613
0.0940613
0.0940613
0.0940613
0.0940613
0.0940613
0.0940613
0.0940613
0.0940613
0.0940613
0.0940613
0.0940613
0.0940613
0.0940613
0.0940613
0.0940613
0.0940613
0.0940613
0.0940613
0.0940613
0.0940613
0.0940613
0.0940613
0.0940613
0.0940613
0.0940613
0.0940613
0.0940613
0.0940613
0.0940613
0.0940613
0.0940613
0.0940613
0.0940613
0.0940613
0.0940613
0.0940613
0.0940613
0.0940613
0.0940613
0.0940613
0.0940613
0.0940613
0.0940613
0.0940613
0.101639
0.107946
0.106271
0.103622
0.103013
0.102483
0.102281
0.102238
0.102261
0.1023
0.102348
0.102422
0.10249
0.102536
0.102567
0.102597
0.102623
0.102645
0.102667
0.102687
0.102693
0.102709
0.102723
0.102723
0.102734
0.102743
0.102739
0.102747
0.102754
0.102748
0.102754
0.102747
0.102753
0.102758
0.102751
0.102756
0.10276
0.102752
0.102757
0.102749
0.102754
0.102759
0.102751
0.102756
0.102749
0.102753
0.102758
0.102751
0.102755
0.102748
0.102753
0.102757
0.10275
0.102755
0.102747
0.102752
0.102757
0.102749
0.102754
0.102747
0.102751
0.102756
0.102749
0.102753
0.102746
0.102751
0.102755
0.102748
0.102753
0.102746
0.10275
0.102755
0.102747
0.102752
0.102745
0.102749
0.102754
0.102747
0.102751
0.102755
0.102748
0.102753
0.102746
0.10275
0.102754
0.102747
0.102752
0.102745
0.102749
0.102753
0.102746
0.102751
0.102743
0.102748
0.102752
0.102745
0.102749
0.102754
0.102746
0.102751
0.102743
0.102748
0.102752
0.102745
0.102749
0.102742
0.102746
0.10275
0.102743
0.102747
0.102751
0.102744
0.102748
0.102752
0.102745
0.102749
0.102742
0.102746
0.10275
0.102743
0.102747
0.102751
0.102744
0.102748
0.102741
0.102745
0.102749
0.102741
0.102745
0.102749
0.102742
0.102746
0.10275
0.102743
0.102746
0.10275
0.102743
0.102747
0.10274
0.102744
0.102748
0.102741
0.102744
0.102748
0.102741
0.102745
0.102748
0.102741
0.102745
0.102748
0.102741
0.102745
0.102748
0.102741
0.102745
0.102748
0.102741
0.102744
0.102748
0.102741
0.102744
0.102748
0.10274
0.102744
0.102747
0.10274
0.102743
0.102747
0.10274
0.102743
0.102746
0.102739
0.102742
0.102746
0.102739
0.102742
0.102745
0.102738
0.102741
0.102744
0.102737
0.10274
0.102743
0.102747
0.102739
0.102742
0.102746
0.102738
0.102742
0.102745
0.102737
0.10274
0.102743
0.102736
0.102739
0.102742
0.102745
0.102738
0.102741
0.102744
0.102736
0.10274
0.102742
0.102736
0.102738
0.102741
0.102743
0.102737
0.102739
0.102743
0.102734
0.102738
0.102739
0.102744
0.102735
0.10274
0.10274
0.102745
0.102736
0.102739
0.102741
0.102739
0.102725
0.102753
0.102732
0.102725
0.102772
0.102711
0.102692
0.102743
0.102698
0.102837
0.102574
0.103266
0.101659
0.103171
0.106052
0.0913766
0.0940613
0.0940613
0.0940613
)
;

boundaryField
{
    inlet
    {
        type            calculated;
        value           uniform 0;
    }
    outlet
    {
        type            calculated;
        value           uniform 0;
    }
    sideWall
    {
        type            empty;
    }
}


// ************************************************************************* //
