/*--------------------------------*- C++ -*----------------------------------*\
| =========                 |                                                 |
| \\      /  F ield         | foam-extend: Open Source CFD                    |
|  \\    /   O peration     | Version:     3.2                                |
|   \\  /    A nd           | Web:         http://www.foam-extend.org         |
|    \\/     M anipulation  | For copyright notice see file Copyright         |
\*---------------------------------------------------------------------------*/
FoamFile
{
    version     2.0;
    format      ascii;
    class       areaScalarField;
    location    "2000";
    object      thetaB;
}
// * * * * * * * * * * * * * * * * * * * * * * * * * * * * * * * * * * * * * //

dimensions      [0 0 0 0 0 0 0];

internalField   nonuniform List<scalar> 
300
(
0.134821
0.165072
0.139537
0.117793
0.105299
0.100153
0.0981487
0.0979016
0.0982327
0.0989127
0.0997304
0.100564
0.101371
0.102224
0.103041
0.103872
0.104751
0.105628
0.106525
0.107428
0.108332
0.109239
0.110172
0.111128
0.112052
0.112901
0.113667
0.114341
0.114926
0.115428
0.115858
0.116225
0.116531
0.116781
0.116982
0.117149
0.117287
0.117404
0.117501
0.117585
0.117655
0.117717
0.117766
0.117812
0.117847
0.117882
0.117906
0.117933
0.117948
0.117974
0.117971
0.118018
0.117957
0.118115
0.117808
0.118471
0.117056
0.119738
0.11007
0.128551
0.176488
0.165878
0.145939
0.146688
0.144918
0.145273
0.14506
0.145161
0.145207
0.14527
0.145299
0.145339
0.145385
0.14542
0.145449
0.145471
0.145488
0.145499
0.145511
0.145514
0.145513
0.145518
0.145515
0.145511
0.145511
0.145508
0.145502
0.145503
0.145498
0.145497
0.145493
0.145488
0.14549
0.145488
0.145484
0.145488
0.145485
0.145485
0.145483
0.14548
0.145484
0.145482
0.145482
0.145482
0.145478
0.145483
0.145481
0.145482
0.145481
0.145478
0.145482
0.14548
0.145481
0.14548
0.145477
0.145482
0.145478
0.145481
0.145479
0.145477
0.14548
0.145479
0.14548
0.145479
0.145477
0.145478
0.145481
0.145474
0.145485
0.145466
0.145491
0.145465
0.145491
0.145461
0.14549
0.145457
0.145498
0.145448
0.145506
0.145445
0.145511
0.145439
0.145513
0.145432
0.145523
0.145421
0.145532
0.145407
0.145542
0.145399
0.145549
0.145388
0.145554
0.145377
0.145567
0.145362
0.145579
0.145353
0.145587
0.145342
0.145592
0.145332
0.145603
0.14532
0.145612
0.145306
0.14562
0.145301
0.145622
0.145295
0.145631
0.145287
0.145636
0.145286
0.145636
0.145285
0.145633
0.145286
0.145635
0.145284
0.145636
0.145289
0.145631
0.145294
0.145622
0.1453
0.14562
0.145303
0.145616
0.145314
0.145606
0.145325
0.145601
0.145331
0.145595
0.145344
0.145585
0.145356
0.145573
0.145368
0.145568
0.145377
0.145562
0.145392
0.145552
0.145405
0.145548
0.145413
0.145543
0.145427
0.145534
0.145439
0.145532
0.145446
0.145528
0.145458
0.14552
0.145467
0.145519
0.145471
0.145517
0.14548
0.14551
0.145487
0.14551
0.145488
0.145509
0.145493
0.145503
0.145498
0.145503
0.145496
0.145503
0.145499
0.145499
0.145501
0.145498
0.145499
0.145498
0.145499
0.145495
0.145498
0.145497
0.1455
0.145494
0.1455
0.145495
0.145495
0.145494
0.145495
0.145491
0.145494
0.14549
0.14549
0.145488
0.14549
0.145489
0.145487
0.145489
0.145487
0.145485
0.145486
0.145484
0.145482
0.145482
0.145484
0.145484
0.145481
0.145484
0.145481
0.14548
0.145478
0.145482
0.14548
0.14548
0.14548
0.145483
0.145483
0.14548
0.145482
0.145479
0.145484
0.145468
0.145514
0.145425
0.14551
0.145526
0.145414
0.145458
0.145404
0.145554
0.145268
0.145828
0.145605
0.143051
0.157364
0.11933
0.101682
0.111639
0.113737
)
;

boundaryField
{
    inlet
    {
        type            calculated;
        value           uniform 0;
    }
    outlet
    {
        type            calculated;
        value           uniform 0;
    }
    sideWall
    {
        type            empty;
    }
}


// ************************************************************************* //
