/*--------------------------------*- C++ -*----------------------------------*\
| =========                 |                                                 |
| \\      /  F ield         | foam-extend: Open Source CFD                    |
|  \\    /   O peration     | Version:     3.2                                |
|   \\  /    A nd           | Web:         http://www.foam-extend.org         |
|    \\/     M anipulation  | For copyright notice see file Copyright         |
\*---------------------------------------------------------------------------*/
FoamFile
{
    version     2.0;
    format      ascii;
    class       areaScalarField;
    location    "2000";
    object      thetaC2B;
}
// * * * * * * * * * * * * * * * * * * * * * * * * * * * * * * * * * * * * * //

dimensions      [0 0 0 0 0 0 0];

internalField   nonuniform List<scalar> 
300
(
0.0301212
0.0301212
0.0301212
0.0301212
0.0301212
0.0301212
0.0301212
0.0301212
0.0301212
0.0301212
0.0301212
0.0301212
0.0301212
0.0301212
0.0301212
0.0301212
0.0301212
0.0301212
0.0301212
0.0301212
0.0301212
0.0301212
0.0301212
0.0301212
0.0301212
0.0301212
0.0301212
0.0301212
0.0301212
0.0301212
0.0301212
0.0301212
0.0301212
0.0301212
0.0301212
0.0301212
0.0301212
0.0301212
0.0301212
0.0301212
0.0301212
0.0301212
0.0301212
0.0301212
0.0301212
0.0301212
0.0301212
0.0301212
0.0301212
0.0301212
0.0301212
0.0301212
0.0301212
0.0301212
0.0301212
0.0301212
0.0301212
0.0301212
0.0301212
0.0301408
0.0301571
0.030155
0.0301332
0.0301309
0.0301293
0.0301278
0.0301269
0.0301255
0.0301239
0.0301212
0.0301233
0.0301233
0.0301231
0.030123
0.0301229
0.0301228
0.0301212
0.0301212
0.0301212
0.0301212
0.0301224
0.0301223
0.0301222
0.0301222
0.0301221
0.0301221
0.0301212
0.0301212
0.0301212
0.0301212
0.0301219
0.030122
0.0301218
0.0301218
0.0301218
0.0301217
0.0301212
0.0301212
0.0301212
0.0301212
0.0301212
0.0301215
0.0301215
0.0301215
0.0301214
0.0301215
0.0301212
0.0301212
0.0301212
0.0301212
0.0301214
0.0301215
0.0301213
0.0301213
0.0301212
0.0301212
0.0301212
0.0301212
0.0301217
0.0301212
0.0301212
0.0301217
0.0301214
0.0301231
0.0301212
0.0301212
0.0301212
0.0301212
0.0301241
0.0301223
0.0301212
0.0301212
0.0301213
0.0301232
0.0301212
0.0301212
0.0301212
0.0301212
0.0301212
0.0301212
0.0301212
0.0301212
0.0301212
0.0301212
0.0301212
0.0301212
0.0301212
0.0301212
0.0301212
0.0301212
0.0301212
0.0301212
0.0301212
0.0301212
0.0301212
0.0301212
0.0301212
0.0301212
0.0301212
0.0301212
0.0301212
0.0301212
0.0301212
0.0301212
0.0301212
0.0301212
0.0301212
0.0301212
0.0301212
0.0301212
0.0301212
0.0301212
0.0301212
0.0301212
0.0301212
0.0301212
0.0301212
0.0301212
0.0301212
0.0301212
0.0301212
0.0301212
0.0301212
0.0301212
0.0301212
0.0301212
0.0301212
0.0301212
0.0301212
0.0301212
0.0301212
0.0301212
0.0301212
0.0301212
0.0301218
0.0301213
0.0301247
0.0301227
0.0301212
0.0301212
0.0301212
0.0301212
0.0301487
0.0301447
0.030162
0.0301581
0.0301212
0.0301212
0.0301212
0.0301212
0.030219
0.030219
0.030243
0.0302442
0.0301212
0.0301212
0.0301212
0.0301212
0.0303302
0.0303396
0.0303625
0.0303728
0.0301212
0.0301212
0.0301212
0.0301212
0.0304701
0.0304892
0.0305056
0.0305264
0.0301212
0.0301212
0.0301212
0.0301212
0.0306196
0.0306496
0.0306541
0.0306856
0.0301212
0.0301212
0.0301212
0.0301212
0.0307643
0.0308037
0.030798
0.0308345
0.0301212
0.0301212
0.0301212
0.0301212
0.0308954
0.0309417
0.0309208
0.0309659
0.0301212
0.0301212
0.0301212
0.0301212
0.0310022
0.0310566
0.031025
0.0310749
0.0301212
0.0301212
0.0301212
0.0301212
0.0310927
0.0311564
0.0311122
0.0311707
0.0301212
0.0301212
0.0301212
0.0301212
0.0311786
0.0312491
0.031197
0.0312626
0.0301212
0.0301212
0.0301212
0.0301212
0.0312736
0.031347
0.0313035
0.0312403
0.0311243
0.0301212
0.0313282
0.0314623
0.0311902
0.0315643
0.0315761
0.0332372
0.0301212
0.0301212
0.0301212
0.0301212
0.0301212
0.0301212
)
;

boundaryField
{
    inlet
    {
        type            calculated;
        value           uniform 0;
    }
    outlet
    {
        type            calculated;
        value           uniform 0;
    }
    sideWall
    {
        type            empty;
    }
}


// ************************************************************************* //
