/*--------------------------------*- C++ -*----------------------------------*\
| =========                 |                                                 |
| \\      /  F ield         | foam-extend: Open Source CFD                    |
|  \\    /   O peration     | Version:     3.2                                |
|   \\  /    A nd           | Web:         http://www.foam-extend.org         |
|    \\/     M anipulation  | For copyright notice see file Copyright         |
\*---------------------------------------------------------------------------*/
FoamFile
{
    version     2.0;
    format      ascii;
    class       areaScalarField;
    location    "2000";
    object      thetaSS2init;
}
// * * * * * * * * * * * * * * * * * * * * * * * * * * * * * * * * * * * * * //

dimensions      [0 0 0 0 0 0 0];

internalField   nonuniform List<scalar> 
300
(
1.79546
2.20004
1.86779
1.5666
1.40543
1.33358
1.30803
1.30469
1.30923
1.3183
1.32946
1.34051
1.35144
1.36275
1.37374
1.38489
1.39658
1.40833
1.42027
1.43233
1.44437
1.45647
1.46892
1.48169
1.49401
1.50534
1.51556
1.52455
1.53235
1.53904
1.54477
1.54966
1.55375
1.55708
1.55977
1.56198
1.56383
1.56538
1.56668
1.5678
1.56874
1.56955
1.57023
1.57082
1.57131
1.57174
1.5721
1.57241
1.57267
1.57289
1.57308
1.57325
1.57339
1.57351
1.57361
1.5737
1.57378
1.57384
1.57389
1.57394
1.57398
1.57402
1.57404
1.57407
1.57409
1.57411
1.57413
1.57414
1.57415
1.57417
1.57418
1.57418
1.57419
1.57419
1.5742
1.5742
1.57421
1.57421
1.57421
1.57421
1.57422
1.57422
1.57422
1.57422
1.57422
1.57422
1.57422
1.57422
1.57422
1.57422
1.57422
1.57422
1.57422
1.57422
1.57422
1.57423
1.57423
1.57423
1.57423
1.57423
1.57423
1.57423
1.57423
1.57423
1.57423
1.57423
1.57423
1.57423
1.57423
1.57423
1.57423
1.57423
1.57423
1.57423
1.57423
1.57423
1.57423
1.57423
1.57423
1.57423
1.57423
1.57423
1.57423
1.57423
1.57423
1.57423
1.57423
1.57423
1.57423
1.57423
1.57423
1.57423
1.57423
1.57423
1.57423
1.57423
1.57423
1.57423
1.57423
1.57423
1.57423
1.57423
1.57423
1.57423
1.57423
1.57423
1.57423
1.57423
1.57423
1.57423
1.57423
1.57423
1.57423
1.57423
1.57423
1.57423
1.57423
1.57423
1.57423
1.57423
1.57423
1.57423
1.57423
1.57423
1.57423
1.57423
1.57423
1.57423
1.57423
1.57423
1.57423
1.57423
1.57423
1.57423
1.57423
1.57423
1.57423
1.57423
1.57423
1.57423
1.57423
1.57423
1.57423
1.57423
1.57423
1.57423
1.57423
1.57423
1.57423
1.57423
1.57423
1.57423
1.57423
1.57423
1.57423
1.57423
1.57423
1.57422
1.57422
1.57422
1.57422
1.57422
1.57422
1.57422
1.57422
1.57422
1.57422
1.57422
1.57422
1.57422
1.57422
1.57422
1.57422
1.57422
1.57422
1.57422
1.57422
1.57422
1.57422
1.57422
1.57422
1.57422
1.57422
1.57422
1.57422
1.57422
1.57422
1.57422
1.57422
1.57422
1.57422
1.57422
1.57422
1.57422
1.57422
1.57422
1.57422
1.57422
1.57422
1.57422
1.57422
1.57422
1.57422
1.57422
1.57422
1.57422
1.57422
1.57422
1.57422
1.57422
1.57422
1.57422
1.57422
1.57422
1.57422
1.57422
1.57422
1.57422
1.57422
1.57422
1.57422
1.57422
1.57422
1.57422
1.57422
1.57422
1.57422
1.57422
1.57422
1.57422
1.57422
1.57422
1.57422
1.57422
1.57422
1.57422
1.57422
1.57422
1.57422
1.57422
1.57422
1.57422
1.57422
1.57422
1.57422
1.57422
1.57422
1.57422
1.57422
1.57422
1.57422
1.57422
1.57422
1.57422
1.57422
1.57422
1.57422
1.57423
1.57434
1.5742
)
;

boundaryField
{
    inlet
    {
        type            calculated;
        value           uniform 0;
    }
    outlet
    {
        type            calculated;
        value           uniform 0;
    }
    sideWall
    {
        type            empty;
    }
}


// ************************************************************************* //
