/*--------------------------------*- C++ -*----------------------------------*\
| =========                 |                                                 |
| \\      /  F ield         | foam-extend: Open Source CFD                    |
|  \\    /   O peration     | Version:     3.2                                |
|   \\  /    A nd           | Web:         http://www.foam-extend.org         |
|    \\/     M anipulation  | For copyright notice see file Copyright         |
\*---------------------------------------------------------------------------*/
FoamFile
{
    version     2.0;
    format      ascii;
    class       areaScalarField;
    location    "2000";
    object      thetaHMaxSS1;
}
// * * * * * * * * * * * * * * * * * * * * * * * * * * * * * * * * * * * * * //

dimensions      [0 0 0 0 0 0 0];

internalField   nonuniform List<scalar> 
300
(
0
0
0
0
0
0
0
0
0
0
0
0
0
0
0
0
0
0
0
0
0
0
0
0
0
0
0
0
0
0
0
0
0
0
0
0
0
0
0
0
0
0
0
0
0
0
0
0
0
0
0
0
0
0
0
0
0
0
0
6.70294
7.11903
7.00874
6.83412
6.7941
6.75922
6.74597
6.7432
6.7448
6.74741
6.75065
6.75553
6.76003
6.76311
6.76519
6.76719
6.7689
6.7704
6.77185
6.77317
6.77357
6.77463
6.77557
6.77557
6.7763
6.77693
6.77666
6.77717
6.77763
6.77725
6.77765
6.77721
6.77756
6.7779
6.77743
6.77776
6.77807
6.77755
6.77786
6.77736
6.77768
6.77799
6.7775
6.77781
6.77731
6.77763
6.77793
6.77745
6.77775
6.77726
6.77758
6.77789
6.7774
6.7777
6.77722
6.77753
6.77784
6.77736
6.77767
6.77719
6.7775
6.7778
6.77733
6.77763
6.77715
6.77744
6.77776
6.77727
6.77758
6.77711
6.77741
6.77772
6.77723
6.77752
6.77705
6.77736
6.77766
6.77718
6.77747
6.77777
6.7773
6.77759
6.77713
6.77741
6.7777
6.77724
6.77753
6.77705
6.77734
6.77762
6.77715
6.77744
6.77698
6.77726
6.77754
6.77708
6.77735
6.77764
6.77716
6.77744
6.77697
6.77726
6.77754
6.77705
6.77734
6.77686
6.77715
6.77741
6.77695
6.77722
6.77749
6.77703
6.77728
6.77756
6.77708
6.77736
6.77689
6.77714
6.77743
6.77695
6.77721
6.77747
6.777
6.77727
6.77679
6.77706
6.77731
6.77684
6.7771
6.77736
6.77688
6.77713
6.77738
6.77692
6.77717
6.77741
6.77696
6.77719
6.77673
6.77699
6.77723
6.77677
6.777
6.77726
6.77678
6.77702
6.77727
6.77679
6.77703
6.77725
6.7768
6.77703
6.77727
6.7768
6.77703
6.77726
6.77679
6.77701
6.77724
6.77677
6.777
6.77723
6.77676
6.77698
6.77721
6.77674
6.77695
6.77718
6.7767
6.77693
6.77714
6.77668
6.77688
6.7771
6.77664
6.77684
6.77706
6.77659
6.77679
6.77701
6.77653
6.77675
6.77695
6.77716
6.77668
6.77689
6.77709
6.77662
6.77683
6.77704
6.77654
6.77676
6.77694
6.77648
6.77666
6.77688
6.77705
6.7766
6.77677
6.77699
6.77649
6.77672
6.77686
6.77643
6.77656
6.77682
6.77693
6.77653
6.77663
6.77691
6.77633
6.77662
6.77668
6.77701
6.77637
6.77673
6.77671
6.77709
6.77645
6.77668
6.77677
6.77666
6.77577
6.77762
6.77623
6.77571
6.77881
6.77481
6.77354
6.77691
6.77397
6.78312
6.76576
6.8114
6.70544
6.80515
6.99518
6.02719
0
0
0
)
;

boundaryField
{
    inlet
    {
        type            calculated;
        value           uniform 0;
    }
    outlet
    {
        type            calculated;
        value           uniform 0;
    }
    sideWall
    {
        type            empty;
    }
}


// ************************************************************************* //
