/*--------------------------------*- C++ -*----------------------------------*\
| =========                 |                                                 |
| \\      /  F ield         | foam-extend: Open Source CFD                    |
|  \\    /   O peration     | Version:     3.2                                |
|   \\  /    A nd           | Web:         http://www.foam-extend.org         |
|    \\/     M anipulation  | For copyright notice see file Copyright         |
\*---------------------------------------------------------------------------*/
FoamFile
{
    version     2.0;
    format      ascii;
    class       areaScalarField;
    location    "2000";
    object      totH;
}
// * * * * * * * * * * * * * * * * * * * * * * * * * * * * * * * * * * * * * //

dimensions      [0 0 0 0 0 0 0];

internalField   nonuniform List<scalar> 
300
(
0
0
0
0
0
0
0
0
0
0
0
0
0
0
0
0
0
0
0
0
0
0
0
0
0
0
0
0
0
0
0
0
0
0
0
0
0
0
0
0
0
0
0
0
0
0
0
0
0
0
0
0
0
0
0
0
0
0
0
0.00109527
0.0028012
0.00298761
0.00258713
0.00258816
0.00257013
0.00256243
0.00254181
0.00252359
0.00250382
0.0024845
0.0024655
0.00244769
0.00243153
0.00241669
0.00240324
0.00239122
0.00238061
0.00237139
0.0023635
0.00235672
0.002351
0.00234636
0.00234247
0.00233931
0.00233687
0.00233486
0.00233329
0.0023322
0.00233131
0.00233064
0.00233014
0.00232976
0.00232961
0.00232947
0.00232939
0.00232944
0.00232945
0.00232949
0.00232949
0.00232948
0.00232961
0.00232965
0.00232969
0.00232969
0.00232966
0.00232977
0.00232979
0.00232981
0.00232978
0.00232973
0.00232982
0.00232982
0.00232982
0.00232977
0.0023297
0.00232978
0.00232978
0.00232978
0.00232972
0.00232967
0.00232973
0.00232972
0.00232971
0.00232967
0.00232961
0.00232965
0.00232969
0.00232961
0.00232963
0.00232954
0.00232964
0.00232957
0.00232961
0.00232952
0.00232956
0.00232955
0.00232963
0.00232957
0.00232979
0.00232972
0.00232989
0.00232976
0.00232994
0.00232989
0.0023301
0.00232997
0.00233018
0.00233
0.00233036
0.00233018
0.00233051
0.0023303
0.00233065
0.00233053
0.00233091
0.00233074
0.00233126
0.00233109
0.00233157
0.00233136
0.00233183
0.00233171
0.00233221
0.00233203
0.0023325
0.00233229
0.00233287
0.0023327
0.00233322
0.00233317
0.00233367
0.00233359
0.00233415
0.00233409
0.00233454
0.00233447
0.00233484
0.00233488
0.0023352
0.00233521
0.00233557
0.0023356
0.00233585
0.00233586
0.00233601
0.00233613
0.00233622
0.0023363
0.00233643
0.00233653
0.00233655
0.00233674
0.00233669
0.00233683
0.0023368
0.00233696
0.00233681
0.00233695
0.00233672
0.00233696
0.00233668
0.00233688
0.00233665
0.00233686
0.00233654
0.00233683
0.00233647
0.00233669
0.00233638
0.00233658
0.00233619
0.00233645
0.00233604
0.00233623
0.00233589
0.00233605
0.00233563
0.00233583
0.00233539
0.00233552
0.00233516
0.00233528
0.00233487
0.00233503
0.0023346
0.00233465
0.0023343
0.00233434
0.00233397
0.00233408
0.00233372
0.00233373
0.00233342
0.00233337
0.00233302
0.00233306
0.00233275
0.00233272
0.00233251
0.00233246
0.00233215
0.00233212
0.00233196
0.00233193
0.00233174
0.00233181
0.00233162
0.00233155
0.00233142
0.00233129
0.00233108
0.00233107
0.00233093
0.00233087
0.00233082
0.00233084
0.00233073
0.00233061
0.00233056
0.00233049
0.00233041
0.00233046
0.0023304
0.00233031
0.00233027
0.00233024
0.00233017
0.00233011
0.00233015
0.00233015
0.00233013
0.00233014
0.00233016
0.00233007
0.00233001
0.00233005
0.00233014
0.00233021
0.0023302
0.00233022
0.0023302
0.00233004
0.00232994
0.0023302
0.00232963
0.00233136
0.00233121
0.00232827
0.0023283
0.00232879
0.00233024
0.00233059
0.00233959
0.00230509
0.00233863
0.00222814
0.00101983
0
0
0
)
;

boundaryField
{
    inlet
    {
        type            calculated;
        value           uniform 0;
    }
    outlet
    {
        type            calculated;
        value           uniform 0;
    }
    sideWall
    {
        type            empty;
    }
}


// ************************************************************************* //
