/*--------------------------------*- C++ -*----------------------------------*\
| =========                 |                                                 |
| \\      /  F ield         | foam-extend: Open Source CFD                    |
|  \\    /   O peration     | Version:     3.2                                |
|   \\  /    A nd           | Web:         http://www.foam-extend.org         |
|    \\/     M anipulation  | For copyright notice see file Copyright         |
\*---------------------------------------------------------------------------*/
FoamFile
{
    version     2.0;
    format      ascii;
    class       volVectorField;
    location    "2000";
    object      U;
}
// * * * * * * * * * * * * * * * * * * * * * * * * * * * * * * * * * * * * * //

dimensions      [0 1 -1 0 0 0 0];

internalField   nonuniform List<vector> 
2400
(
(0.243058 0 0.00347263)
(0.200866 0 0.00151021)
(0.164857 0 0.000157666)
(0.149553 0 -0.00047981)
(0.142147 -1.22271e-26 -0.000656755)
(0.139881 -1.28603e-42 -0.000720015)
(0.13887 -7.61979e-27 -0.000739669)
(0.138986 2.16906e-43 -0.000740093)
(0.13927 5.63005e-27 -0.000739996)
(0.139809 1.53203e-42 -0.000739697)
(0.140402 2.71963e-27 -0.00073773)
(0.140974 1.81256e-27 -0.000734863)
(0.141507 0 -0.000736218)
(0.142101 8.04459e-28 -0.000737586)
(0.142619 1.03258e-27 -0.00073813)
(0.143167 -5.93411e-29 -0.000742104)
(0.143764 -2.64541e-28 -0.00074406)
(0.144333 5.54692e-28 -0.000746087)
(0.144919 -7.88507e-28 -0.000748562)
(0.145502 0 -0.000750873)
(0.146081 0 -0.000753388)
(0.146668 1.17191e-27 -0.000757598)
(0.147302 1.24428e-27 -0.000762702)
(0.147974 0 -0.000766238)
(0.148618 0 -0.000767367)
(0.149202 1.21394e-27 -0.00076789)
(0.14973 0 -0.000767882)
(0.150191 0 -0.000767587)
(0.150592 0 -0.000767126)
(0.150934 8.56257e-28 -0.000766742)
(0.15123 0 -0.00076643)
(0.151483 0 -0.000765929)
(0.151692 -6.06618e-28 -0.000765293)
(0.151861 0 -0.000764687)
(0.151995 0 -0.000764322)
(0.152108 0 -0.000764179)
(0.152202 -3.25106e-28 -0.000764039)
(0.152283 0 -0.000763964)
(0.152349 0 -0.000763891)
(0.152408 0 -0.000763864)
(0.152455 -1.79944e-28 -0.000763821)
(0.152499 -2.40542e-43 -0.00076381)
(0.152532 0 -0.000763776)
(0.152565 0 -0.00076378)
(0.152587 -9.73719e-29 -0.000763734)
(0.152613 0 -0.00076378)
(0.152627 -2.40581e-43 -0.000763706)
(0.152649 0 -0.000763787)
(0.152656 0 -0.000763703)
(0.152679 0 -0.000763705)
(0.152667 0 -0.000763674)
(0.152722 9.34981e-29 -0.000763934)
(0.152634 0 -0.000763193)
(0.152836 -2.73297e-34 -0.000764706)
(0.152428 0 -0.000761427)
(0.153294 0 -0.000767151)
(0.151434 -2.44585e-27 -0.000747397)
(0.155014 0 -0.000674999)
(0.142616 0 -0.000924526)
(0.168863 9.85095e-25 0.00475148)
(0.207231 2.14307e-25 0.00438274)
(0.181686 6.16688e-25 -0.00265891)
(0.164618 0 -0.000894518)
(0.171007 -1.83107e-29 -0.00103401)
(0.168807 0 -0.000854466)
(0.169579 -4.91692e-27 -0.000928374)
(0.169171 1.73644e-27 -0.000908677)
(0.169282 0 -0.000919858)
(0.169269 -1.63939e-27 -0.000917938)
(0.169297 0 -0.000915223)
(0.169297 9.37466e-28 -0.000913928)
(0.169326 0 -0.000907255)
(0.169364 0 -0.000902668)
(0.169392 3.7474e-28 -0.000897544)
(0.169423 -2.64836e-28 -0.000892745)
(0.169448 3.44564e-28 -0.000887505)
(0.169473 -1.06518e-28 -0.0008828)
(0.169493 0 -0.000877828)
(0.169515 -8.48569e-32 -0.000873449)
(0.169528 2.82413e-30 -0.00086992)
(0.169539 0 -0.000866029)
(0.169554 0 -0.000862596)
(0.16956 3.75346e-29 -0.000860473)
(0.169566 -8.43975e-29 -0.000857432)
(0.169576 0 -0.000855559)
(0.169578 0 -0.000854299)
(0.169579 -7.80487e-29 -0.000852376)
(0.169587 0 -0.000851118)
(0.169585 -3.55307e-29 -0.000850905)
(0.169588 7.27789e-29 -0.000849543)
(0.169587 1.7124e-29 -0.000849651)
(0.169585 0 -0.000848734)
(0.16959 1.8151e-29 -0.000848334)
(0.169588 0 -0.000848396)
(0.169586 0 -0.000848018)
(0.169593 0 -0.000847646)
(0.169588 0 -0.000848071)
(0.16959 0 -0.000847462)
(0.169588 0 -0.000848258)
(0.169585 2.01155e-29 -0.000847637)
(0.169591 0 -0.000847535)
(0.169587 6.81827e-31 -0.000847991)
(0.169588 -1.14153e-30 -0.000847564)
(0.169587 -1.11403e-29 -0.000848239)
(0.169584 1.44133e-29 -0.00084774)
(0.16959 4.93812e-30 -0.000847542)
(0.169586 0 -0.000848119)
(0.169588 0 -0.000847628)
(0.169587 0 -0.000848363)
(0.169584 1.25625e-32 -0.000847774)
(0.16959 -2.54463e-30 -0.000847641)
(0.169586 4.07683e-30 -0.000848146)
(0.169587 -1.8877e-30 -0.000847709)
(0.169586 0 -0.000848407)
(0.169583 -1.37424e-29 -0.00084785)
(0.16959 0 -0.000847632)
(0.169584 0 -0.000848185)
(0.169588 0 -0.000847693)
(0.169585 1.90851e-29 -0.000848487)
(0.169584 2.61744e-29 -0.00084763)
(0.169587 -1.86603e-29 -0.000847956)
(0.169586 -9.38244e-31 -0.000847948)
(0.169586 2.38909e-33 -0.000847964)
(0.169585 0 -0.000848123)
(0.169584 7.47267e-30 -0.00084805)
(0.169585 -1.58432e-32 -0.000847648)
(0.169589 -6.25054e-30 -0.000848002)
(0.16958 -1.47786e-29 -0.000848317)
(0.169594 0 -0.000847407)
(0.169569 0 -0.000848865)
(0.169603 -2.07973e-29 -0.000846594)
(0.169567 1.50661e-31 -0.000849547)
(0.169603 2.90966e-29 -0.000846064)
(0.169563 -3.57992e-29 -0.00085023)
(0.169604 0 -0.000845373)
(0.169559 0 -0.000850541)
(0.169615 -6.28805e-29 -0.000844818)
(0.169547 0 -0.000851207)
(0.169627 -7.20054e-29 -0.000843566)
(0.169541 0 -0.000852482)
(0.169633 8.82638e-29 -0.000842422)
(0.169533 1.92879e-28 -0.0008539)
(0.169637 0 -0.000840994)
(0.169526 -2.46511e-28 -0.000855004)
(0.16965 0 -0.000839666)
(0.169511 -1.52606e-28 -0.000856645)
(0.169664 1.69425e-28 -0.000838069)
(0.169493 0 -0.000858429)
(0.16968 1.96979e-28 -0.000835611)
(0.169482 0 -0.000860793)
(0.169691 0 -0.000833258)
(0.169468 2.41598e-28 -0.000863309)
(0.1697 2.76248e-28 -0.000830627)
(0.169456 0 -0.000865542)
(0.169719 3.16686e-28 -0.000828125)
(0.169435 -3.21328e-28 -0.000868124)
(0.169737 3.55201e-28 -0.000824921)
(0.169422 0 -0.000871251)
(0.169749 7.86038e-28 -0.000821884)
(0.169409 0 -0.000874472)
(0.169759 0 -0.000818676)
(0.169397 -4.49953e-28 -0.000877252)
(0.169775 0 -0.000815734)
(0.16938 -9.96882e-28 -0.000880399)
(0.169788 0 -0.000812736)
(0.169363 0 -0.000883453)
(0.169802 5.66641e-28 -0.000809221)
(0.169355 0 -0.000886716)
(0.169807 6.05635e-28 -0.000806032)
(0.169349 0 -0.000889395)
(0.169818 0 -0.000803404)
(0.169338 0 -0.000892047)
(0.169827 0 -0.00080057)
(0.169336 -1.34732e-27 -0.000894718)
(0.169828 0 -0.000798344)
(0.169335 0 -0.000897122)
(0.169824 -7.31343e-28 -0.000796341)
(0.169336 0 -0.000898718)
(0.169827 -7.54831e-28 -0.000794961)
(0.169333 0 -0.000900175)
(0.169828 -7.82414e-28 -0.000793338)
(0.169339 -7.9791e-28 -0.000901735)
(0.169821 0 -0.000792266)
(0.169345 0 -0.000903007)
(0.16981 0 -0.000791526)
(0.169354 0 -0.000903344)
(0.169805 0 -0.000791529)
(0.169358 0 -0.000903473)
(0.169799 -8.71594e-28 -0.000791308)
(0.169371 0 -0.00090366)
(0.169784 0 -0.000791634)
(0.169385 0 -0.000902985)
(0.169776 8.83646e-28 -0.000792727)
(0.169393 -8.76013e-28 -0.000902114)
(0.169766 -8.71423e-28 -0.000793633)
(0.169408 -8.83594e-28 -0.000901194)
(0.169751 0 -0.000795111)
(0.169423 8.77916e-28 -0.000899936)
(0.169733 0 -0.000796866)
(0.16944 0 -0.000897828)
(0.169723 -8.34967e-28 -0.000799223)
(0.16945 -8.19625e-28 -0.000895676)
(0.169713 0 -0.000801252)
(0.169467 8.02118e-28 -0.000893643)
(0.169697 7.86504e-28 -0.000803697)
(0.169484 0 -0.000890945)
(0.169687 0 -0.000806639)
(0.169493 0 -0.000888327)
(0.169679 0 -0.00080915)
(0.169509 0 -0.000885954)
(0.169664 6.65177e-28 -0.000811878)
(0.169524 -6.59822e-28 -0.000883011)
(0.169656 -6.15578e-28 -0.000815026)
(0.169531 6.03111e-28 -0.000880226)
(0.169649 5.72895e-28 -0.000817585)
(0.169545 -5.58399e-28 -0.000877819)
(0.169637 -5.38321e-28 -0.000820319)
(0.169557 5.18539e-28 -0.000874934)
(0.169632 4.79394e-28 -0.00082335)
(0.16956 -4.7155e-28 -0.000872312)
(0.169627 2.16902e-30 -0.00082567)
(0.16957 4.23953e-28 -0.000870071)
(0.169616 0 -0.000828136)
(0.169579 0 -0.000867442)
(0.169614 -3.47233e-28 -0.000830795)
(0.169581 -3.13554e-28 -0.000865165)
(0.169613 2.66619e-28 -0.000832922)
(0.169585 -2.37274e-28 -0.000862994)
(0.169603 3.67703e-28 -0.000835191)
(0.169592 0 -0.000860773)
(0.169601 1.95472e-28 -0.000837126)
(0.169591 1.70548e-28 -0.000859116)
(0.169603 0 -0.000838653)
(0.169596 -1.45132e-28 -0.00085775)
(0.169597 1.95444e-28 -0.000841089)
(0.169597 4.07214e-28 -0.000855294)
(0.169594 0 -0.000842448)
(0.169595 0 -0.000853429)
(0.169595 -2.12766e-28 -0.000843435)
(0.169597 2.75104e-28 -0.000853634)
(0.169594 -3.44931e-28 -0.000843673)
(0.169598 0 -0.000852475)
(0.169596 -2.45361e-28 -0.000844381)
(0.169597 0 -0.000851958)
(0.169591 0 -0.000845215)
(0.169597 1.97074e-28 -0.000850775)
(0.169592 0 -0.000846402)
(0.169595 0 -0.000850076)
(0.169596 8.44873e-29 -0.000846469)
(0.169596 0 -0.000850095)
(0.169591 -8.01812e-29 -0.000846896)
(0.169594 0 -0.000849335)
(0.169588 0 -0.000847554)
(0.169589 -5.26206e-29 -0.000849048)
(0.169589 0 -0.000847292)
(0.169594 0 -0.000848483)
(0.169593 -2.2414e-29 -0.000847872)
(0.169591 0 -0.00084853)
(0.169593 0 -0.000847646)
(0.169589 4.7374e-29 -0.000848756)
(0.169586 0 -0.000847732)
(0.169588 0 -0.00084819)
(0.169586 -2.55561e-29 -0.000848125)
(0.169588 0 -0.0008482)
(0.16959 -2.14782e-29 -0.000847843)
(0.169591 -3.06309e-29 -0.000848016)
(0.16959 0 -0.000848139)
(0.169584 0 -0.000848166)
(0.169588 9.90445e-30 -0.000847698)
(0.169583 -2.80396e-29 -0.000848361)
(0.169585 0 -0.000847684)
(0.169586 -2.44467e-29 -0.000848125)
(0.169592 1.35284e-29 -0.000847536)
(0.169588 0 -0.000848455)
(0.169588 -1.84471e-29 -0.000847607)
(0.169585 -2.97754e-29 -0.000848212)
(0.169587 0 -0.000847413)
(0.169586 4.86123e-29 -0.000848337)
(0.169584 -5.52291e-29 -0.000847586)
(0.169589 -1.58192e-29 -0.000848053)
(0.169588 -4.63821e-29 -0.00084776)
(0.169594 1.40111e-31 -0.000848725)
(0.169575 -3.71718e-29 -0.000847918)
(0.169625 0 -0.000846404)
(0.169514 -7.84917e-29 -0.000851427)
(0.169636 -4.95878e-29 -0.000836115)
(0.169626 -4.94865e-28 -0.000860281)
(0.169505 2.39858e-28 -0.000850217)
(0.169585 1.44168e-28 -0.000846465)
(0.169515 -6.54321e-29 -0.000847358)
(0.169689 0 -0.00083876)
(0.169336 0 -0.000855647)
(0.170027 -3.00909e-27 -0.000796818)
(0.16964 -8.2839e-27 -0.00107578)
(0.167228 7.74919e-27 -0.000571564)
(0.183031 -2.76063e-28 -0.00171216)
(0.137024 -9.21763e-25 -0.00477179)
(0.129281 0 -0.00142524)
(0.148589 -1.01125e-26 -0.00107423)
(0.148581 -2.36917e-27 -0.000723222)
(0.288121 0 0.00418184)
(0.281486 0 0.00243466)
(0.264008 0 0.00142446)
(0.251405 0 0.00017993)
(0.241591 0 -0.000559474)
(0.236196 4.89487e-26 -0.000892995)
(0.232112 1.7267e-26 -0.00104353)
(0.229806 1.42871e-26 -0.00111604)
(0.228015 1.17792e-26 -0.00114992)
(0.226878 1.76043e-26 -0.00117021)
(0.226263 6.22228e-27 -0.00118036)
(0.225923 -4.6615e-27 -0.00118025)
(0.225882 3.25216e-27 -0.00118584)
(0.225976 -2.15122e-27 -0.00118634)
(0.226208 2.94519e-27 -0.00118534)
(0.226564 -1.18197e-27 -0.00119562)
(0.227054 -4.05363e-28 -0.00119964)
(0.227617 0 -0.0012039)
(0.22828 5.35124e-28 -0.00120893)
(0.228989 0 -0.00121329)
(0.22975 0 -0.00121791)
(0.23054 0 -0.00122529)
(0.231361 2.59048e-27 -0.00123391)
(0.232203 0 -0.00123851)
(0.233008 0 -0.00123733)
(0.233747 0 -0.00123458)
(0.23442 1.58617e-27 -0.00123079)
(0.23502 0 -0.00122661)
(0.235551 1.37435e-27 -0.00122238)
(0.236015 2.49066e-27 -0.00121866)
(0.236423 -1.13728e-27 -0.0012155)
(0.236781 1.03295e-27 -0.00121219)
(0.237085 -9.13467e-28 -0.00120878)
(0.23734 0 -0.00120563)
(0.237548 0 -0.0012033)
(0.237727 0 -0.00120176)
(0.237877 -4.75519e-28 -0.00120047)
(0.23801 4.09103e-28 -0.00119946)
(0.238118 0 -0.0011986)
(0.238217 0 -0.00119791)
(0.238295 -2.60078e-28 -0.0011973)
(0.238369 -4.44069e-28 -0.00119681)
(0.238425 0 -0.00119637)
(0.238481 -3.25523e-28 -0.00119601)
(0.238519 -1.39976e-28 -0.00119567)
(0.238564 0 -0.00119548)
(0.238587 -2.02673e-28 -0.00119516)
(0.238624 0 -0.00119512)
(0.238637 -8.82186e-42 -0.00119489)
(0.238673 0 -0.00119472)
(0.23867 0 -0.00119465)
(0.238721 1.11506e-28 -0.00119448)
(0.238654 -3.24495e-30 -0.00119421)
(0.238828 5.27858e-34 -0.00119449)
(0.238491 0 -0.00119341)
(0.239218 3.31642e-28 -0.00119237)
(0.237648 -2.88667e-28 -0.00117064)
(0.24048 6.48474e-27 -0.00092943)
(0.229621 0 -0.00151295)
(0.251197 0 0.00577381)
(0.292852 0 0.00441014)
(0.28187 0 -0.00316501)
(0.26766 7.89194e-26 -0.00100272)
(0.270633 -2.29079e-26 -0.0014796)
(0.268182 0 -0.00128832)
(0.267907 7.68614e-27 -0.0014355)
(0.267009 -7.59595e-31 -0.00140694)
(0.26654 3.72679e-27 -0.00142784)
(0.266022 0 -0.00142566)
(0.265691 0 -0.0014238)
(0.265399 2.925e-27 -0.00142269)
(0.265188 9.74931e-28 -0.00141402)
(0.265033 0 -0.00140745)
(0.264906 0 -0.00139979)
(0.264809 0 -0.00139243)
(0.26473 1.84265e-28 -0.00138438)
(0.264671 -8.4448e-29 -0.00137705)
(0.264623 0 -0.0013694)
(0.26459 7.70622e-31 -0.00136252)
(0.264561 -1.0416e-28 -0.00135677)
(0.26454 0 -0.00135095)
(0.26453 0 -0.00134554)
(0.264519 7.68172e-29 -0.00134201)
(0.264514 -3.30876e-28 -0.00133803)
(0.264512 0 -0.00133452)
(0.264511 7.50942e-29 -0.00133249)
(0.264508 -1.3076e-28 -0.00133008)
(0.264515 0 -0.00132773)
(0.264513 -1.20285e-31 -0.00132732)
(0.264518 5.93364e-33 -0.00132525)
(0.264519 -3.29885e-29 -0.0013255)
(0.264519 0 -0.00132388)
(0.264525 3.09202e-33 -0.00132334)
(0.264526 0 -0.00132345)
(0.264526 0 -0.00132284)
(0.264533 0 -0.00132236)
(0.264532 0 -0.00132284)
(0.264535 0 -0.00132213)
(0.264535 0 -0.00132305)
(0.264534 -2.70244e-32 -0.00132227)
(0.264539 0 -0.00132216)
(0.264537 0 -0.00132272)
(0.264539 0 -0.00132214)
(0.264539 0 -0.00132311)
(0.264537 -2.5731e-29 -0.00132244)
(0.264541 0 -0.0013222)
(0.264539 1.50588e-29 -0.00132291)
(0.264541 6.61771e-31 -0.00132224)
(0.26454 0 -0.00132328)
(0.264537 2.90505e-29 -0.00132249)
(0.264541 -8.12509e-30 -0.00132234)
(0.264539 1.50733e-29 -0.00132297)
(0.264541 -3.27766e-30 -0.00132238)
(0.264539 0 -0.00132333)
(0.264537 -2.60676e-29 -0.00132259)
(0.264541 0 -0.00132232)
(0.264538 -1.79312e-29 -0.00132303)
(0.264541 0 -0.00132236)
(0.264538 2.99941e-29 -0.00132344)
(0.264537 4.54308e-29 -0.00132228)
(0.26454 -1.67903e-29 -0.00132274)
(0.264539 -4.41586e-31 -0.00132273)
(0.264539 -4.55763e-30 -0.00132273)
(0.264538 0 -0.00132295)
(0.264536 -1.01946e-29 -0.00132288)
(0.264538 -1.52941e-29 -0.00132232)
(0.26454 1.39322e-29 -0.00132277)
(0.264535 0 -0.00132322)
(0.264541 0 -0.00132195)
(0.26453 0 -0.00132399)
(0.264546 -6.70668e-29 -0.00132092)
(0.264528 -2.45571e-31 -0.00132486)
(0.264548 -7.69684e-29 -0.00132014)
(0.264524 8.64632e-29 -0.00132583)
(0.264549 -1.07301e-28 -0.00131918)
(0.264522 1.11186e-28 -0.00132628)
(0.264554 -2.81675e-28 -0.00131847)
(0.264516 0 -0.00132713)
(0.264562 -1.80332e-28 -0.00131676)
(0.264513 -1.94605e-28 -0.0013289)
(0.26457 4.17044e-28 -0.00131512)
(0.264506 4.50219e-28 -0.00133091)
(0.264575 2.58373e-28 -0.0013131)
(0.264501 -2.68465e-28 -0.0013325)
(0.264584 -3.04438e-28 -0.00131127)
(0.264494 -3.38579e-28 -0.00133472)
(0.264593 3.77143e-28 -0.00130909)
(0.264482 0 -0.00133719)
(0.264607 0 -0.00130567)
(0.264472 0 -0.00134055)
(0.26462 0 -0.00130228)
(0.26446 -5.2667e-28 -0.00134418)
(0.264631 5.789e-28 -0.00129851)
(0.264451 0 -0.0013474)
(0.264646 0 -0.00129501)
(0.264438 -6.79543e-28 -0.00135101)
(0.264665 1.49888e-27 -0.0012905)
(0.264426 0 -0.00135552)
(0.264683 8.07991e-28 -0.00128606)
(0.264413 0 -0.00136023)
(0.264697 -8.85479e-28 -0.00128139)
(0.264403 0 -0.00136434)
(0.264715 0 -0.00127716)
(0.26439 5.38619e-30 -0.00136884)
(0.264731 1.03812e-27 -0.00127287)
(0.264375 0 -0.00137329)
(0.26475 1.09871e-27 -0.00126778)
(0.264363 0 -0.00137817)
(0.264765 0 -0.00126298)
(0.264356 0 -0.00138224)
(0.264782 0 -0.00125912)
(0.264346 1.19318e-27 -0.00138613)
(0.264799 0 -0.00125495)
(0.264339 -2.43584e-27 -0.0013902)
(0.264812 0 -0.00125146)
(0.264334 0 -0.00139383)
(0.264818 -1.23531e-27 -0.00124855)
(0.264334 0 -0.00139614)
(0.264824 0 -0.00124667)
(0.264331 0 -0.00139815)
(0.26483 0 -0.00124457)
(0.264335 1.31446e-27 -0.00140014)
(0.26483 0 -0.00124331)
(0.26434 0 -0.00140169)
(0.264825 0 -0.0012425)
(0.264346 0 -0.00140205)
(0.264824 0 -0.0012426)
(0.264349 0 -0.00140211)
(0.264821 -1.32299e-27 -0.00124254)
(0.264359 0 -0.00140207)
(0.264811 0 -0.00124327)
(0.264371 1.31419e-27 -0.00140096)
(0.264805 1.28213e-27 -0.00124492)
(0.264378 -1.28201e-27 -0.00139959)
(0.264798 0 -0.00124643)
(0.26439 -1.24336e-27 -0.00139802)
(0.264785 1.2114e-27 -0.00124879)
(0.264403 1.19746e-27 -0.00139598)
(0.26477 -1.16846e-27 -0.00125149)
(0.264416 0 -0.00139286)
(0.264759 8.0631e-30 -0.00125487)
(0.264426 0 -0.00138973)
(0.264748 0 -0.00125791)
(0.264441 0 -0.00138661)
(0.264731 -7.31375e-30 -0.00126156)
(0.264455 9.65918e-28 -0.00138271)
(0.26472 9.14769e-28 -0.00126571)
(0.264465 0 -0.00137899)
(0.264709 8.50007e-28 -0.00126934)
(0.264479 0 -0.00137549)
(0.264692 0 -0.00127327)
(0.264492 -7.67531e-28 -0.00137131)
(0.264682 0 -0.00127768)
(0.264499 0 -0.0013674)
(0.264671 6.5938e-28 -0.00128127)
(0.264512 6.46616e-28 -0.00136396)
(0.264655 -6.0313e-28 -0.00128511)
(0.264523 5.74781e-28 -0.00135991)
(0.264646 5.13837e-28 -0.00128933)
(0.264527 -5.20952e-28 -0.00135629)
(0.264636 -3.71911e-30 -0.00129247)
(0.264537 0 -0.0013533)
(0.264621 0 -0.00129573)
(0.264545 0 -0.00134969)
(0.264614 2.8668e-30 -0.00129937)
(0.264548 -3.84953e-28 -0.00134675)
(0.264605 3.73965e-28 -0.00130178)
(0.264555 -9.4888e-28 -0.00134473)
(0.264593 -2.23612e-30 -0.00130404)
(0.264559 0 -0.00134159)
(0.264588 0 -0.00130733)
(0.264557 3.08966e-28 -0.00133884)
(0.264584 0 -0.00130925)
(0.26456 -2.7164e-28 -0.00133718)
(0.264574 7.29073e-28 -0.00131044)
(0.264564 0 -0.00133489)
(0.264569 5.80833e-28 -0.00131337)
(0.264558 3.5342e-28 -0.00133411)
(0.264567 -3.63553e-28 -0.0013139)
(0.26456 4.89475e-28 -0.00133158)
(0.264561 0 -0.00131693)
(0.26456 0 -0.00132927)
(0.264561 0 -0.00131776)
(0.264559 0 -0.0013285)
(0.264556 0 -0.00131891)
(0.264558 -3.50498e-28 -0.00132679)
(0.264556 0 -0.0013201)
(0.264555 0 -0.00132613)
(0.264557 1.6127e-28 -0.00132045)
(0.264555 0 -0.00132595)
(0.264552 0 -0.00132135)
(0.264553 0 -0.00132476)
(0.264549 0 -0.00132205)
(0.264548 0 -0.00132434)
(0.264548 0 -0.0013219)
(0.26455 2.65649e-29 -0.00132349)
(0.26455 -4.24456e-29 -0.00132259)
(0.264547 0 -0.00132356)
(0.26455 0 -0.00132238)
(0.264546 8.04998e-29 -0.00132389)
(0.264544 -3.1104e-29 -0.00132245)
(0.264545 0 -0.00132308)
(0.264544 0 -0.00132293)
(0.264543 -3.9392e-29 -0.00132305)
(0.264544 -4.09748e-29 -0.0013226)
(0.264546 -3.08293e-29 -0.00132282)
(0.264545 -5.44749e-29 -0.00132302)
(0.264541 4.44674e-29 -0.0013231)
(0.264544 0 -0.00132241)
(0.264539 -1.51472e-31 -0.00132329)
(0.264541 0 -0.0013223)
(0.26454 -4.29027e-29 -0.00132295)
(0.264546 0 -0.00132216)
(0.264543 0 -0.00132344)
(0.264544 -2.06819e-29 -0.00132228)
(0.264542 -1.95545e-31 -0.00132318)
(0.264544 0 -0.00132197)
(0.264541 0 -0.00132329)
(0.26454 0 -0.00132219)
(0.264544 -2.4819e-29 -0.00132281)
(0.264543 -4.5556e-29 -0.00132247)
(0.264548 -4.63934e-31 -0.00132379)
(0.264533 -1.55893e-31 -0.00132286)
(0.264563 -6.02185e-29 -0.0013202)
(0.264493 -1.24982e-30 -0.00132786)
(0.264589 1.64392e-30 -0.00130726)
(0.264578 0 -0.00133883)
(0.264477 0 -0.00132563)
(0.264534 0 -0.00132063)
(0.264489 -8.38353e-29 -0.00132214)
(0.264604 0 -0.00130856)
(0.264403 0 -0.00133677)
(0.264881 0 -0.00124707)
(0.264563 -1.96638e-26 -0.00164662)
(0.26281 1.19852e-26 -0.00115873)
(0.275219 4.3362e-25 -0.00206878)
(0.234284 -1.62881e-24 -0.00690812)
(0.222703 0 -0.00242064)
(0.234416 -3.9723e-26 -0.00178364)
(0.233808 8.82354e-27 -0.00135929)
(0.295398 0 0.00417411)
(0.307788 0 0.00257162)
(0.305895 5.52365e-26 0.00173335)
(0.302204 0 0.000658751)
(0.294526 4.09661e-26 -0.000257183)
(0.288223 5.41918e-26 -0.000731294)
(0.282672 4.0452e-26 -0.00100003)
(0.278859 0 -0.00113881)
(0.275627 1.2029e-26 -0.00121283)
(0.273315 1.05511e-26 -0.00128175)
(0.271748 0 -0.0013291)
(0.270637 -1.52696e-26 -0.00135671)
(0.269943 6.49871e-27 -0.0013845)
(0.269559 -9.96122e-27 -0.00140237)
(0.269528 0 -0.00141898)
(0.269646 2.96121e-27 -0.00143623)
(0.269977 -5.19483e-27 -0.00145214)
(0.270459 0 -0.00146714)
(0.271082 -2.81064e-27 -0.00147844)
(0.271782 9.47283e-28 -0.0014881)
(0.272567 0 -0.00149634)
(0.273377 0 -0.00150558)
(0.27419 -2.36159e-28 -0.00151561)
(0.275005 -1.56592e-28 -0.00151924)
(0.275781 0 -0.00151365)
(0.276492 0 -0.00150561)
(0.27714 6.92703e-28 -0.00149615)
(0.27772 -7.14502e-28 -0.00148631)
(0.278233 6.89525e-28 -0.00147657)
(0.278685 1.26933e-27 -0.00146791)
(0.279081 -5.98183e-28 -0.00146044)
(0.279431 5.76339e-28 -0.00145291)
(0.279729 0 -0.00144535)
(0.27998 0 -0.00143828)
(0.280185 0 -0.0014328)
(0.280363 0 -0.00142886)
(0.280512 0 -0.00142558)
(0.280644 4.32511e-28 -0.00142287)
(0.280752 0 -0.00142056)
(0.28085 0 -0.00141862)
(0.280928 1.35997e-28 -0.00141694)
(0.281002 -9.9041e-43 -0.00141549)
(0.281057 0 -0.00141428)
(0.281114 -9.92074e-43 -0.0014132)
(0.281151 -7.32566e-29 -0.00141231)
(0.281195 1.24941e-28 -0.00141157)
(0.281219 -1.01021e-28 -0.00141085)
(0.281256 0 -0.0014105)
(0.281269 5.22068e-39 -0.00140997)
(0.281304 0 -0.00140965)
(0.281302 0 -0.00140905)
(0.28135 5.08717e-29 -0.00140872)
(0.281289 -2.32157e-29 -0.00140814)
(0.28145 -5.43136e-34 -0.00140868)
(0.281142 5.89073e-29 -0.00140647)
(0.28181 1.22087e-28 -0.00140533)
(0.280387 -1.5851e-27 -0.00136675)
(0.283135 1.62979e-26 -0.00100453)
(0.274728 0 -0.00180241)
(0.29047 0 0.00463841)
(0.331794 0 0.00397847)
(0.327254 0 -0.00323997)
(0.315556 7.02928e-26 -0.00122865)
(0.318061 0 -0.00162594)
(0.315816 0 -0.00147799)
(0.315434 -9.79727e-30 -0.00161145)
(0.314427 -4.49982e-27 -0.00160422)
(0.313869 2.49681e-27 -0.00163249)
(0.313256 1.80978e-27 -0.00163938)
(0.312831 0 -0.00164601)
(0.312452 -4.98697e-30 -0.00165009)
(0.312154 1.51012e-27 -0.00164527)
(0.311921 5.77645e-28 -0.00164092)
(0.311722 0 -0.00163463)
(0.311562 -2.59451e-28 -0.00162799)
(0.311428 0 -0.00162031)
(0.311319 -6.08038e-29 -0.00161299)
(0.311229 0 -0.00160528)
(0.31116 -3.67009e-29 -0.00159812)
(0.311102 -5.57804e-29 -0.00159217)
(0.311054 -9.90776e-29 -0.00158598)
(0.311023 -8.5759e-29 -0.00158027)
(0.310996 9.67001e-31 -0.00157654)
(0.310975 -1.2808e-28 -0.00157182)
(0.310963 0 -0.00156831)
(0.310954 6.80924e-29 -0.00156602)
(0.310945 -8.20357e-29 -0.00156306)
(0.310946 0 -0.00156089)
(0.310942 2.38642e-31 -0.00156023)
(0.310943 -5.58143e-29 -0.00155809)
(0.310943 -1.02599e-29 -0.00155795)
(0.310942 5.43665e-29 -0.00155656)
(0.310946 -3.26382e-29 -0.0015558)
(0.310948 0 -0.00155582)
(0.310948 0 -0.0015552)
(0.310954 0 -0.00155462)
(0.310953 1.84446e-30 -0.00155506)
(0.310957 0 -0.00155436)
(0.310958 0 -0.00155521)
(0.310957 -3.13506e-29 -0.00155445)
(0.310961 0 -0.0015543)
(0.31096 0 -0.00155487)
(0.310962 1.28311e-29 -0.00155437)
(0.310963 0 -0.00155516)
(0.310961 -2.28539e-29 -0.00155457)
(0.310964 -1.40778e-29 -0.00155431)
(0.310963 4.25197e-29 -0.00155503)
(0.310964 1.1503e-29 -0.00155444)
(0.310964 0 -0.00155532)
(0.310962 -2.60352e-29 -0.00155462)
(0.310965 -9.70692e-30 -0.00155445)
(0.310964 0 -0.00155507)
(0.310965 -5.49711e-30 -0.00155453)
(0.310964 2.25314e-29 -0.00155541)
(0.310961 0 -0.00155473)
(0.310965 0 -0.00155444)
(0.310963 -2.67875e-29 -0.00155516)
(0.310965 0 -0.00155453)
(0.310962 2.51713e-29 -0.00155548)
(0.310961 0 -0.00155445)
(0.310964 -1.51481e-29 -0.00155486)
(0.310963 0 -0.00155485)
(0.310963 -2.31138e-30 -0.00155485)
(0.310962 5.94992e-30 -0.00155504)
(0.310961 -1.9512e-30 -0.00155498)
(0.310961 0 -0.00155449)
(0.310964 1.48577e-29 -0.00155491)
(0.310959 0 -0.0015553)
(0.310964 0 -0.00155412)
(0.310957 7.45246e-29 -0.00155601)
(0.310966 -1.02738e-28 -0.00155317)
(0.310956 -1.1534e-28 -0.0015568)
(0.310967 -1.25497e-28 -0.00155251)
(0.310954 2.83048e-28 -0.00155757)
(0.310967 4.64039e-31 -0.00155174)
(0.310953 -4.8548e-31 -0.00155794)
(0.31097 5.47696e-31 -0.00155105)
(0.31095 0 -0.00155881)
(0.310976 2.78985e-28 -0.0015495)
(0.310949 -3.09087e-28 -0.00156035)
(0.310981 3.38531e-28 -0.00154805)
(0.310947 7.42682e-28 -0.00156202)
(0.310984 4.1515e-28 -0.00154638)
(0.310945 0 -0.00156335)
(0.31099 -4.8045e-28 -0.0015448)
(0.310942 -1.07705e-27 -0.00156533)
(0.310996 5.95608e-28 -0.00154279)
(0.310936 0 -0.00156756)
(0.311004 0 -0.00153983)
(0.310933 0 -0.00157045)
(0.311012 0 -0.00153693)
(0.310928 -8.92678e-28 -0.00157345)
(0.311019 9.77199e-28 -0.0015338)
(0.310925 0 -0.00157614)
(0.31103 1.10171e-27 -0.00153078)
(0.31092 0 -0.00157931)
(0.311042 2.54145e-27 -0.00152688)
(0.310917 0 -0.00158314)
(0.311054 0 -0.00152316)
(0.310913 -1.46074e-27 -0.00158702)
(0.311064 -1.5435e-27 -0.00151933)
(0.310911 -1.57952e-27 -0.0015904)
(0.311076 0 -0.00151583)
(0.310907 1.73339e-27 -0.00159423)
(0.311087 1.81542e-27 -0.00151216)
(0.310901 0 -0.00159799)
(0.3111 0 -0.00150789)
(0.310899 -2.01577e-27 -0.001602)
(0.31111 0 -0.00150406)
(0.310899 0 -0.00160524)
(0.311123 2.18157e-27 -0.00150092)
(0.310898 2.21261e-27 -0.00160851)
(0.311135 0 -0.00149746)
(0.310899 9.449e-30 -0.00161185)
(0.311145 -2.34774e-27 -0.0014948)
(0.310899 0 -0.0016147)
(0.311151 0 -0.00149245)
(0.310901 0 -0.00161667)
(0.311158 2.42042e-27 -0.0014908)
(0.310902 0 -0.00161844)
(0.311164 0 -0.00148893)
(0.310905 -1.0925e-29 -0.00162039)
(0.311168 0 -0.00148763)
(0.310908 2.46785e-27 -0.00162201)
(0.311168 -2.45551e-27 -0.00148664)
(0.310912 0 -0.0016226)
(0.31117 -2.41092e-27 -0.00148661)
(0.310914 0 -0.00162275)
(0.311171 0 -0.0014864)
(0.31092 0 -0.00162306)
(0.311168 0 -0.00148665)
(0.310926 -1.12233e-29 -0.00162245)
(0.311166 0 -0.00148792)
(0.31093 -4.4234e-27 -0.00162139)
(0.311164 0 -0.00148904)
(0.310936 2.15498e-27 -0.00162039)
(0.311158 -1.06994e-29 -0.00149073)
(0.310942 0 -0.001619)
(0.311149 1.03614e-29 -0.00149265)
(0.310948 0 -0.00161666)
(0.311143 1.8324e-27 -0.00149547)
(0.310951 0 -0.001614)
(0.311137 0 -0.00149793)
(0.310959 -1.7295e-27 -0.00161169)
(0.311127 -1.64109e-27 -0.00150064)
(0.310966 1.58431e-27 -0.00160862)
(0.311121 1.48303e-27 -0.00150418)
(0.31097 -1.45545e-27 -0.00160531)
(0.311113 1.39565e-27 -0.00150729)
(0.310976 0 -0.00160237)
(0.311102 0 -0.00151051)
(0.310982 0 -0.001599)
(0.311095 0 -0.00151427)
(0.310985 0 -0.00159548)
(0.311087 1.02915e-27 -0.00151758)
(0.31099 -6.09796e-30 -0.00159237)
(0.311076 0 -0.00152087)
(0.310995 0 -0.001589)
(0.311069 -7.82561e-28 -0.00152451)
(0.310995 0 -0.00158566)
(0.31106 -7.19727e-28 -0.00152761)
(0.311 0 -0.0015826)
(0.311048 0 -0.00153069)
(0.311003 0 -0.00157942)
(0.311042 5.96809e-28 -0.00153388)
(0.311003 0 -0.00157637)
(0.311032 -6.68219e-28 -0.0015371)
(0.311007 -8.7716e-28 -0.00157267)
(0.311021 -9.07184e-28 -0.00154078)
(0.311007 8.48476e-28 -0.00156999)
(0.311018 0 -0.00154234)
(0.311003 5.84744e-28 -0.00156835)
(0.311013 0 -0.00154451)
(0.311002 5.46471e-28 -0.00156649)
(0.311005 1.21349e-27 -0.00154675)
(0.311001 0 -0.00156486)
(0.311 1.1872e-27 -0.00154765)
(0.310995 5.00872e-28 -0.00156273)
(0.310997 0 -0.00154907)
(0.310994 4.89594e-28 -0.00156226)
(0.310992 0 -0.0015495)
(0.310992 0 -0.00156099)
(0.310991 0 -0.00155035)
(0.31099 0 -0.00156028)
(0.310986 0 -0.00155141)
(0.310988 -3.15823e-28 -0.00155868)
(0.310985 2.34796e-28 -0.00155283)
(0.310984 1.53178e-28 -0.0015577)
(0.310985 -1.79747e-28 -0.00155312)
(0.310984 0 -0.00155765)
(0.31098 0 -0.00155362)
(0.310981 -1.53474e-28 -0.00155678)
(0.310977 0 -0.00155434)
(0.310975 -7.91496e-29 -0.00155636)
(0.310975 0 -0.00155411)
(0.310977 5.21972e-29 -0.00155559)
(0.310977 0 -0.00155475)
(0.310974 0 -0.00155563)
(0.310976 0 -0.00155459)
(0.310973 6.80339e-29 -0.00155593)
(0.310971 3.4133e-31 -0.00155463)
(0.310971 0 -0.0015552)
(0.31097 0 -0.00155505)
(0.310969 -6.29549e-29 -0.00155516)
(0.31097 0 -0.00155477)
(0.310971 0 -0.00155496)
(0.310971 -4.86091e-29 -0.00155515)
(0.310968 4.14599e-29 -0.00155523)
(0.310969 0 -0.00155456)
(0.310965 1.08533e-28 -0.00155533)
(0.310966 0 -0.00155449)
(0.310966 0 -0.00155505)
(0.31097 4.35541e-29 -0.00155441)
(0.310969 1.20374e-30 -0.00155548)
(0.31097 0 -0.00155446)
(0.310968 4.5813e-29 -0.00155528)
(0.310969 -1.69152e-29 -0.00155417)
(0.310966 0 -0.00155531)
(0.310965 0 -0.00155434)
(0.310969 1.76954e-29 -0.00155493)
(0.310969 0 -0.00155462)
(0.310975 8.68233e-31 -0.00155591)
(0.31096 6.16564e-30 -0.00155484)
(0.310985 -8.18043e-29 -0.00155206)
(0.310939 2.26394e-28 -0.0015598)
(0.310999 1.22841e-27 -0.00154184)
(0.311004 0 -0.00156869)
(0.310912 0 -0.00155761)
(0.310959 1.70205e-28 -0.00155318)
(0.310917 -4.34171e-29 -0.00155413)
(0.311021 0 -0.00154092)
(0.31089 0 -0.0015695)
(0.31118 1.82431e-28 -0.00149148)
(0.311089 0 -0.00187168)
(0.309131 8.11429e-27 -0.00148914)
(0.317211 0 -0.00200451)
(0.289401 -1.49974e-24 -0.00710679)
(0.27178 0 -0.00280754)
(0.279324 -2.08285e-26 -0.00209126)
(0.277743 0 -0.00157571)
(0.297415 0 0.00290015)
(0.311986 3.63891e-26 0.00192823)
(0.318014 3.33986e-26 0.00138033)
(0.323322 0 0.000536358)
(0.322863 5.51563e-26 5.5879e-06)
(0.321104 4.03924e-26 -0.000433351)
(0.317362 2.94558e-26 -0.000756719)
(0.313573 0 -0.000996536)
(0.310046 2.31652e-26 -0.00114989)
(0.307223 0 -0.00127595)
(0.304919 0 -0.00136668)
(0.303057 -1.7281e-26 -0.00142089)
(0.301664 0 -0.00147693)
(0.300715 -1.50183e-26 -0.00152278)
(0.300169 0 -0.00155727)
(0.299897 5.27183e-27 -0.00159713)
(0.299938 -9.48716e-27 -0.00162286)
(0.300122 -4.22658e-27 -0.0016467)
(0.300533 -7.84767e-27 -0.00167011)
(0.301052 3.29e-27 -0.00168665)
(0.301684 0 -0.00169987)
(0.30235 0 -0.00170971)
(0.302984 0 -0.00171658)
(0.303596 1.14552e-27 -0.0017165)
(0.30417 0 -0.00170589)
(0.304689 0 -0.00169251)
(0.305156 0 -0.00167759)
(0.305572 1.20142e-28 -0.00166237)
(0.305935 0 -0.00164747)
(0.306253 0 -0.00163423)
(0.30653 -7.52672e-30 -0.00162276)
(0.306775 0 -0.00161134)
(0.30698 0 -0.00159998)
(0.307152 0 -0.00158938)
(0.307291 -4.91561e-29 -0.00158111)
(0.307413 0 -0.00157505)
(0.307514 0 -0.00156999)
(0.307606 1.22163e-29 -0.00156574)
(0.307679 -1.00797e-29 -0.00156212)
(0.307747 0 -0.00155902)
(0.3078 7.51433e-30 -0.00155636)
(0.307851 -9.23192e-43 -0.00155406)
(0.307887 -3.98482e-30 -0.00155215)
(0.307927 -9.24458e-43 -0.00155041)
(0.307951 1.30721e-30 -0.00154904)
(0.307982 1.17127e-29 -0.00154779)