/*--------------------------------*- C++ -*----------------------------------*\
| =========                 |                                                 |
| \\      /  F ield         | foam-extend: Open Source CFD                    |
|  \\    /   O peration     | Version:     3.2                                |
|   \\  /    A nd           | Web:         http://www.foam-extend.org         |
|    \\/     M anipulation  | For copyright notice see file Copyright         |
\*---------------------------------------------------------------------------*/
FoamFile
{
    version     2.0;
    format      ascii;
    class       areaVectorField;
    location    "2000";
    object      Ub2;
}
// * * * * * * * * * * * * * * * * * * * * * * * * * * * * * * * * * * * * * //

dimensions      [0 1 -1 0 0 0 0];

internalField   nonuniform List<vector> 
300
(
(0.219011 0 -0.00109505)
(0.253835 0 -0.00126918)
(0.224713 0 -0.00112357)
(0.19772 0 -0.000988602)
(0.18107 2.9105e-23 -0.000905349)
(0.173925 -1.08542e-23 -0.000869626)
(0.171093 -2.36558e-23 -0.000855467)
(0.170742 -2.34968e-23 -0.000853711)
(0.171213 6.92135e-27 -0.000856064)
(0.172176 -2.12031e-23 -0.000860882)
(0.173331 3.35745e-27 -0.000866654)
(0.174502 1.57257e-23 -0.000872512)
(0.175633 0 -0.000878167)
(0.176823 1.42712e-23 -0.000884113)
(0.177958 1.28843e-27 -0.000889788)
(0.179106 -7.42374e-29 -0.000895532)
(0.180318 1.34059e-23 -0.000901591)
(0.181521 -1.30083e-23 -0.000907603)
(0.182746 1.27976e-23 -0.000913732)
(0.183974 0 -0.000919872)
(0.1852 0 -0.000925998)
(0.186423 -1.30561e-23 -0.000932113)
(0.187675 1.58531e-27 -0.000938377)
(0.188954 0 -0.000944772)
(0.190185 0 -0.000950924)
(0.191312 -1.18792e-23 -0.00095656)
(0.192325 0 -0.000961623)
(0.193213 0 -0.000966064)
(0.193982 0 -0.000969909)
(0.194639 -6.59044e-24 -0.000973196)
(0.195201 0 -0.000976007)
(0.195681 0 -0.000978405)
(0.19608 -7.84128e-28 -0.0009804)
(0.196407 0 -0.000982033)
(0.196668 0 -0.000983341)
(0.196885 0 -0.000984424)
(0.197064 -4.20932e-28 -0.000985319)
(0.197216 0 -0.000986079)
(0.197342 0 -0.000986711)
(0.197452 0 -0.000987258)
(0.197542 -2.3316e-28 -0.00098771)
(0.197622 -7.2246e-25 -0.000988111)
(0.197686 0 -0.000988432)
(0.197746 -5.24434e-25 -0.00098873)
(0.197791 -1.26218e-28 -0.000988955)
(0.197836 0 -0.00098918)
(0.197867 -3.12005e-25 -0.000989335)
(0.197902 0 -0.00098951)
(0.197922 -2.30967e-25 -0.00098961)
(0.197955 0 -0.000989775)
(0.197952 0 -0.000989759)
(0.198013 -1.79098e-25 -0.000990065)
(0.197933 0 -0.000989666)
(0.198138 -2.88718e-25 -0.000990689)
(0.19774 0 -0.0009887)
(0.198598 0 -0.000992991)
(0.196764 5.37667e-24 -0.000983818)
(0.200232 0 -0.00100116)
(0.187539 0 -0.000937694)
(0.207605 -7.49768e-21 0.0080573)
(0.264025 2.70906e-25 0.00512904)
(0.25605 -3.17977e-21 -0.00562534)
(0.232157 0 -0.000940146)
(0.233186 1.35978e-23 -0.00137791)
(0.231035 -1.76635e-27 -0.00111177)
(0.23151 0 -0.00127238)
(0.231248 0 -0.00123225)
(0.231374 -3.29279e-24 -0.0012495)
(0.231431 3.2001e-24 -0.00124749)
(0.231508 -1.67947e-27 -0.00124607)
(0.231538 0 -0.00124508)
(0.231581 -2.24181e-24 -0.00123553)
(0.231633 1.81191e-24 -0.00123027)
(0.231671 1.60792e-24 -0.00122374)
(0.231704 1.34557e-24 -0.00121775)
(0.231727 0 -0.00121085)
(0.231748 0 -0.00120488)
(0.231758 -6.46197e-29 -0.00119816)
(0.231769 -7.08943e-25 -0.00119255)
(0.231772 -3.94736e-30 -0.00118802)
(0.231767 0 -0.00118267)
(0.23177 0 -0.00117811)
(0.231766 0 -0.00117556)
(0.23176 -2.16596e-25 -0.00117141)
(0.23176 2.00361e-25 -0.00116883)
(0.231756 8.10897e-26 -0.00116735)
(0.231749 7.00532e-26 -0.00116471)
(0.231751 -8.21266e-26 -0.00116291)
(0.231744 0 -0.00116287)
(0.231742 7.77714e-26 -0.00116072)
(0.231737 0 -0.00116137)
(0.23173 5.16827e-29 -0.00115949)
(0.231732 -2.47893e-29 -0.00115914)
(0.23173 0 -0.00115947)
(0.231726 0 -0.0011586)
(0.231731 2.26923e-26 -0.00115817)
(0.231727 -8.80887e-26 -0.00115902)
(0.231727 -2.35655e-26 -0.00115792)
(0.231726 1.88629e-29 -0.00115931)
(0.231722 7.3363e-26 -0.00115804)
(0.231727 -1.41778e-26 -0.00115803)
(0.231723 7.03958e-26 -0.00115886)
(0.231724 5.1733e-26 -0.00115798)
(0.231723 1.52642e-29 -0.00115927)
(0.231719 -6.1322e-26 -0.0011582)
(0.231725 6.78013e-30 -0.001158)
(0.231723 7.51407e-26 -0.00115905)
(0.231723 -6.87112e-26 -0.00115803)
(0.231723 0 -0.00115946)
(0.231719 0 -0.00115822)
(0.231724 0 -0.00115816)
(0.231721 5.56062e-30 -0.00115907)
(0.231722 0 -0.00115815)
(0.231722 0 -0.0011595)
(0.231718 0 -0.00115833)
(0.231724 0 -0.00115814)
(0.23172 7.09697e-26 -0.00115913)
(0.231723 -1.54131e-30 -0.00115809)
(0.23172 0 -0.00115967)
(0.231718 0 -0.00115795)
(0.231722 1.27376e-29 -0.00115867)
(0.23172 -5.82544e-31 -0.00115863)
(0.231721 1.06219e-26 -0.00115868)
(0.231717 -4.07922e-26 -0.00115895)
(0.231718 0 -0.00115875)
(0.231719 0 -0.00115804)
(0.231723 8.60764e-30 -0.00115884)
(0.231715 0 -0.0011591)
(0.231722 0 -0.0011579)
(0.231703 6.14627e-26 -0.00116005)
(0.231733 -2.36622e-25 -0.00115617)
(0.231705 0 -0.00116169)
(0.231733 4.00104e-29 -0.0011551)
(0.231698 -4.94189e-25 -0.00116295)
(0.231732 5.14871e-25 -0.00115382)
(0.231696 0 -0.00116338)
(0.231741 -5.22972e-25 -0.00115302)
(0.231686 7.98427e-29 -0.00116467)
(0.231749 0 -0.00115051)
(0.231684 0 -0.00116733)
(0.231754 1.20547e-28 -0.00114824)
(0.231678 1.35092e-24 -0.00117009)
(0.231755 1.59954e-28 -0.00114546)
(0.231671 -1.55714e-24 -0.00117211)
(0.231766 -1.68684e-24 -0.00114312)
(0.231659 0 -0.00117519)
(0.231775 0 -0.00114005)
(0.231643 2.37588e-28 -0.00117867)
(0.231785 2.65962e-24 -0.00113518)
(0.231636 0 -0.00118352)
(0.231792 0 -0.00113052)
(0.231625 -3.62892e-24 -0.00118851)
(0.231796 0 -0.00112537)
(0.231614 -4.13582e-24 -0.0011928)
(0.231809 0 -0.00112071)
(0.231598 -4.77511e-24 -0.00119789)
(0.231822 5.23087e-24 -0.0011143)
(0.23159 -5.67546e-24 -0.00120434)
(0.231829 -6.04413e-24 -0.00110819)
(0.23158 0 -0.00121081)
(0.231832 -6.056e-28 -0.00110175)
(0.23157 7.23302e-24 -0.0012163)
(0.231843 -6.61764e-28 -0.00109609)
(0.231558 0 -0.00122254)
(0.231851 0 -0.00109008)
(0.231544 0 -0.00122868)
(0.231857 7.73662e-28 -0.00108289)
(0.23154 0 -0.0012356)
(0.231858 0 -0.00107639)
(0.231536 -8.42137e-28 -0.00124097)
(0.231866 8.82955e-28 -0.00107126)
(0.231528 0 -0.00124635)
(0.231871 0 -0.00106532)
(0.23153 -1.2177e-23 -0.00125208)
(0.231869 0 -0.00106055)
(0.23153 0 -0.00125698)
(0.231863 -9.98446e-28 -0.00105644)
(0.231532 -1.32118e-23 -0.00126)
(0.231865 0 -0.00105387)
(0.23153 0 -0.00126287)
(0.231865 -1.37883e-23 -0.00105058)
(0.231538 -1.09822e-27 -0.001266)
(0.231858 -1.11964e-27 -0.00104851)
(0.231544 -1.42419e-23 -0.00126831)
(0.231848 0 -0.00104707)
(0.231551 0 -0.00126873)
(0.231845 -1.17718e-27 -0.00104722)
(0.231555 0 -0.0012689)
(0.23184 -1.42769e-23 -0.00104672)
(0.231568 0 -0.00126927)
(0.231828 0 -0.00104744)
(0.23158 1.22204e-27 -0.00126768)
(0.231824 0 -0.00104974)
(0.231587 -1.37565e-23 -0.00126582)
(0.231817 1.36594e-23 -0.00105145)
(0.231601 -1.20807e-27 -0.00126398)
(0.231801 1.32778e-23 -0.00105439)
(0.231611 -1.20016e-27 -0.00126125)
(0.231794 1.28502e-23 -0.00105788)
(0.231627 0 -0.00125689)
(0.23179 -1.21959e-23 -0.00106269)
(0.231635 -1.19237e-23 -0.00125254)
(0.231735 -1.1716e-23 -0.0010664)
(0.231609 -1.14392e-23 -0.00124835)
(0.231701 1.11134e-23 -0.00107111)
(0.231599 -1.061e-27 -0.0012427)
(0.231772 -1.03241e-23 -0.00107739)
(0.231672 0 -0.00123779)
(0.231768 -9.73338e-24 -0.00108225)
(0.231687 9.52774e-28 -0.00123316)
(0.231585 0 -0.00108682)
(0.231524 0 -0.00122625)
(0.231541 0 -0.00109289)
(0.231485 7.85075e-24 -0.00122043)
(0.231756 0 -0.0010989)
(0.231717 7.65872e-28 -0.00121694)
(0.231749 -6.92818e-24 -0.00110432)
(0.231725 0 -0.00121115)
(0.231377 6.13005e-24 -0.00110855)
(0.231339 0 -0.00120385)
(0.231319 -5.6165e-24 -0.00111268)
(0.231288 5.67257e-28 -0.00119926)
(0.231743 0 -0.00111958)
(0.231743 0 -0.00119642)
(0.231744 0 -0.00112497)
(0.231743 0 -0.00119202)
(0.231123 -3.92615e-24 -0.00112568)
(0.231092 0 -0.00118495)
(0.231054 -2.72152e-28 -0.00112928)
(0.23103 -2.48779e-28 -0.00118012)
(0.231741 2.92487e-24 -0.00113697)
(0.231748 0 -0.00118042)
(0.231741 -2.57127e-24 -0.00113985)
(0.231751 0 -0.00117806)
(0.23085 0 -0.00113831)
(0.230812 0 -0.00116961)
(0.23079 2.19372e-24 -0.00114124)
(0.230745 0 -0.00116669)
(0.231739 2.04236e-24 -0.00114763)
(0.231748 3.10929e-28 -0.0011703)
(0.231736 -4.25002e-28 -0.00114996)
(0.231746 4.12214e-28 -0.00116772)
(0.230595 1.06232e-24 -0.00114551)
(0.230534 0 -0.00116038)
(0.230533 0 -0.00114678)
(0.230479 6.41791e-25 -0.00115766)
(0.231738 6.4633e-25 -0.00115507)
(0.231741 -5.75097e-25 -0.00116304)
(0.231737 4.89647e-25 -0.00115554)
(0.231741 0 -0.00116304)
(0.230358 -3.68449e-25 -0.0011494)
(0.230282 3.19094e-25 -0.00115395)
(0.230313 0 -0.00115032)
(0.230234 -1.3486e-25 -0.00115291)
(0.231731 0 -0.00115738)
(0.231734 2.41348e-29 -0.00115977)
(0.231732 4.62569e-27 -0.00115857)
(0.23173 0 -0.00115984)
(0.230168 0 -0.00115012)
(0.230071 -1.58447e-25 -0.00115176)
(0.230124 0 -0.0011499)
(0.230038 -1.3809e-26 -0.00115044)
(0.231727 0 -0.00115899)
(0.231724 -1.37264e-26 -0.00115909)
(0.231724 1.92567e-26 -0.00115855)
(0.231726 9.10731e-26 -0.00115898)
(0.230003 0 -0.00115031)
(0.229887 0 -0.00114969)
(0.229969 1.31653e-25 -0.00114919)
(0.229863 4.61275e-26 -0.00114997)
(0.231722 0 -0.00115814)
(0.23172 2.56742e-29 -0.00115898)
(0.231724 -5.99659e-27 -0.00115808)
(0.231722 -4.0569e-29 -0.00115993)
(0.229848 0 -0.00114847)
(0.229724 0 -0.00114906)
(0.229819 0 -0.00114785)
(0.229704 4.62585e-26 -0.00114913)
(0.231722 -8.71037e-26 -0.00115805)
(0.231724 -3.62371e-26 -0.00115895)
(0.231721 5.18461e-26 -0.00115852)
(0.231727 -1.9992e-25 -0.00116021)
(0.229667 0 -0.00114765)
(0.229592 -3.33782e-25 -0.0011463)
(0.229566 -1.35294e-28 -0.00115465)
(0.229766 2.68897e-24 -0.00112619)
(0.230006 -3.17471e-24 -0.00117401)
(0.231646 -3.31484e-28 -0.00116136)
(0.229558 0 -0.0011444)
(0.229261 0 -0.00114515)
(0.22991 0 -0.00113741)
(0.228929 -3.04908e-28 -0.00115351)
(0.229524 -8.27676e-24 -0.00105611)
(0.226589 0 -0.00153595)
(0.228618 -1.05939e-26 -0.000429817)
(0.24593 1.32594e-21 -0.00308382)
(0.203 0 -0.00929601)
(0.176064 -1.12666e-25 -0.000880319)
(0.189636 0 -0.000948178)
(0.192417 0 -0.000962085)
)
;

boundaryField
{
    inlet
    {
        type            calculated;
        value           uniform (0 0 0);
    }
    outlet
    {
        type            calculated;
        value           uniform (0 0 0);
    }
    sideWall
    {
        type            empty;
    }
}


// ************************************************************************* //
