/*--------------------------------*- C++ -*----------------------------------*\
| =========                 |                                                 |
| \\      /  F ield         | foam-extend: Open Source CFD                    |
|  \\    /   O peration     | Version:     3.2                                |
|   \\  /    A nd           | Web:         http://www.foam-extend.org         |
|    \\/     M anipulation  | For copyright notice see file Copyright         |
\*---------------------------------------------------------------------------*/
FoamFile
{
    version     2.0;
    format      ascii;
    class       areaScalarField;
    location    "2000";
    object      Uf;
}
// * * * * * * * * * * * * * * * * * * * * * * * * * * * * * * * * * * * * * //

dimensions      [0 1 -1 0 0 0 0];

internalField   nonuniform List<scalar> 
300
(
0.0326747
0.0361551
0.0332413
0.0305416
0.0288765
0.028162
0.0278789
0.0278437
0.0278908
0.0279872
0.0281026
0.0282198
0.0283329
0.0284518
0.0285653
0.0286802
0.0288014
0.0289216
0.0290442
0.029167
0.0292895
0.0294118
0.0295371
0.029665
0.029788
0.0299007
0.030002
0.0300908
0.0301677
0.0302335
0.0302897
0.0303376
0.0303776
0.0304102
0.0304364
0.030458
0.0304759
0.0304911
0.0305038
0.0305147
0.0305238
0.0305318
0.0305382
0.0305442
0.0305486
0.0305532
0.0305562
0.0305598
0.0305617
0.0305651
0.0305647
0.0305709
0.0305629
0.0305833
0.0305435
0.0306294
0.0304459
0.0307928
0.0295234
0.0319058
0.0373844
0.0362433
0.0339953
0.0340824
0.0338761
0.0339176
0.0338927
0.0339045
0.0339099
0.0339173
0.0339207
0.0339253
0.0339307
0.0339347
0.0339382
0.0339407
0.0339428
0.033944
0.0339453
0.0339457
0.0339457
0.0339461
0.0339458
0.0339453
0.0339454
0.033945
0.0339443
0.0339445
0.0339439
0.0339437
0.0339433
0.0339427
0.0339429
0.0339427
0.0339422
0.0339427
0.0339423
0.0339424
0.0339422
0.0339418
0.0339423
0.033942
0.0339421
0.033942
0.0339416
0.0339421
0.0339419
0.0339419
0.0339419
0.0339415
0.0339421
0.0339418
0.0339419
0.0339418
0.0339414
0.033942
0.0339416
0.0339419
0.0339416
0.0339414
0.0339418
0.0339417
0.0339417
0.0339416
0.0339414
0.0339415
0.0339419
0.0339411
0.0339424
0.0339401
0.033943
0.03394
0.033943
0.0339396
0.0339429
0.033939
0.0339439
0.033938
0.0339448
0.0339377
0.0339453
0.0339369
0.0339456
0.0339362
0.0339468
0.0339349
0.0339478
0.0339332
0.033949
0.0339323
0.0339498
0.033931
0.0339504
0.0339298
0.0339519
0.033928
0.0339533
0.0339269
0.0339543
0.0339257
0.0339548
0.0339246
0.0339562
0.0339231
0.0339571
0.0339214
0.0339581
0.0339208
0.0339584
0.0339202
0.0339593
0.0339193
0.03396
0.0339192
0.03396
0.0339191
0.0339596
0.0339191
0.0339599
0.0339189
0.0339599
0.0339195
0.0339594
0.03392
0.0339584
0.0339208
0.0339581
0.0339211
0.0339576
0.0339224
0.0339564
0.0339236
0.0339559
0.0339244
0.0339552
0.033926
0.033954
0.0339273
0.0339526
0.0339287
0.033952
0.0339297
0.0339513
0.0339315
0.0339501
0.033933
0.0339497
0.033934
0.0339491
0.0339356
0.0339481
0.033937
0.0339478
0.0339378
0.0339474
0.0339392
0.0339465
0.0339403
0.0339463
0.0339407
0.0339461
0.0339418
0.0339453
0.0339426
0.0339453
0.0339427
0.0339452
0.0339433
0.0339445
0.0339439
0.0339444
0.0339437
0.0339444
0.033944
0.0339439
0.0339442
0.0339438
0.033944
0.0339439
0.033944
0.0339435
0.0339439
0.0339437
0.0339441
0.0339434
0.0339441
0.0339435
0.0339436
0.0339435
0.0339435
0.033943
0.0339434
0.0339429
0.0339429
0.0339428
0.033943
0.0339428
0.0339425
0.0339428
0.0339426
0.0339423
0.0339425
0.0339423
0.033942
0.033942
0.0339422
0.0339422
0.0339418
0.0339423
0.0339419
0.0339418
0.0339416
0.0339421
0.0339418
0.0339418
0.0339418
0.0339421
0.0339421
0.0339418
0.033942
0.0339417
0.0339422
0.0339404
0.0339457
0.0339353
0.0339452
0.0339472
0.033934
0.0339392
0.0339329
0.0339504
0.0339171
0.0339824
0.0339564
0.0336572
0.0353009
0.0307403
0.0283762
0.0297332
0.0300113
)
;

boundaryField
{
    inlet
    {
        type            calculated;
        value           uniform 0;
    }
    outlet
    {
        type            calculated;
        value           uniform 0;
    }
    sideWall
    {
        type            empty;
    }
}


// ************************************************************************* //
