/*--------------------------------*- C++ -*----------------------------------*\
| =========                 |                                                 |
| \\      /  F ield         | foam-extend: Open Source CFD                    |
|  \\    /   O peration     | Version:     3.2                                |
|   \\  /    A nd           | Web:         http://www.foam-extend.org         |
|    \\/     M anipulation  | For copyright notice see file Copyright         |
\*---------------------------------------------------------------------------*/
FoamFile
{
    version     2.0;
    format      ascii;
    class       areaScalarField;
    location    "2000";
    object      Uf2;
}
// * * * * * * * * * * * * * * * * * * * * * * * * * * * * * * * * * * * * * //

dimensions      [0 1 -1 0 0 0 0];

internalField   nonuniform List<scalar> 
300
(
0.0243083
0.0200872
0.0164857
0.0149553
0.0142148
0.0139882
0.0138872
0.0138988
0.0139272
0.0139811
0.0140404
0.0140976
0.0141509
0.0142103
0.0142621
0.0143169
0.0143766
0.0144334
0.0144921
0.0145503
0.0146083
0.014667
0.0147304
0.0147976
0.014862
0.0149204
0.0149732
0.0150193
0.0150594
0.0150936
0.0151232
0.0151485
0.0151694
0.0151863
0.0151997
0.015211
0.0152204
0.0152285
0.0152351
0.015241
0.0152457
0.0152501
0.0152534
0.0152567
0.0152589
0.0152615
0.0152629
0.0152651
0.0152658
0.0152681
0.0152669
0.0152723
0.0152636
0.0152838
0.015243
0.0153296
0.0151435
0.0155015
0.0142619
0.016893
0.0207277
0.0181705
0.016462
0.017101
0.0168809
0.0169582
0.0169174
0.0169285
0.0169271
0.01693
0.0169299
0.0169329
0.0169366
0.0169395
0.0169425
0.0169451
0.0169475
0.0169495
0.0169517
0.016953
0.0169541
0.0169557
0.0169562
0.0169568
0.0169578
0.016958
0.0169581
0.0169589
0.0169587
0.016959
0.0169589
0.0169587
0.0169592
0.0169591
0.0169588
0.0169595
0.016959
0.0169592
0.016959
0.0169587
0.0169593
0.0169589
0.0169591
0.016959
0.0169586
0.0169592
0.0169588
0.016959
0.0169589
0.0169586
0.0169592
0.0169588
0.0169589
0.0169588
0.0169585
0.0169592
0.0169586
0.016959
0.0169587
0.0169586
0.0169589
0.0169588
0.0169588
0.0169587
0.0169586
0.0169587
0.0169591
0.0169582
0.0169596
0.0169571
0.0169605
0.0169569
0.0169606
0.0169566
0.0169606
0.0169561
0.0169617
0.0169549
0.0169629
0.0169543
0.0169635
0.0169536
0.0169639
0.0169528
0.0169653
0.0169513
0.0169666
0.0169495
0.0169682
0.0169484
0.0169693
0.0169471
0.0169702
0.0169458
0.0169721
0.0169437
0.0169739
0.0169425
0.0169751
0.0169411
0.0169761
0.0169399
0.0169777
0.0169382
0.016979
0.0169365
0.0169804
0.0169358
0.0169809
0.0169352
0.016982
0.016934
0.0169829
0.0169338
0.016983
0.0169337
0.0169826
0.0169339
0.0169829
0.0169335
0.016983
0.0169341
0.0169823
0.0169347
0.0169812
0.0169357
0.0169807
0.016936
0.0169801
0.0169373
0.0169786
0.0169387
0.0169778
0.0169395
0.0169768
0.0169411
0.0169752
0.0169426
0.0169735
0.0169442
0.0169725
0.0169452
0.0169715
0.0169469
0.0169699
0.0169486
0.0169689
0.0169496
0.0169681
0.0169511
0.0169665
0.0169526
0.0169658
0.0169534
0.0169652
0.0169547
0.0169639
0.0169558
0.0169633
0.0169562
0.0169629
0.0169573
0.0169619
0.0169582
0.0169616
0.0169582
0.0169614
0.0169587
0.0169606
0.0169595
0.0169605
0.0169594
0.0169605
0.0169596
0.0169598
0.0169599
0.0169596
0.0169599
0.0169599
0.01696
0.0169595
0.0169598
0.0169596
0.0169599
0.0169593
0.0169601
0.0169597
0.0169598
0.0169597
0.0169596
0.0169591
0.0169595
0.0169591
0.0169594
0.0169594
0.0169597
0.0169594
0.016959
0.0169592
0.016959
0.0169589
0.0169593
0.0169592
0.0169591
0.0169591
0.016959
0.0169589
0.0169585
0.0169591
0.0169588
0.016959
0.0169589
0.0169593
0.0169587
0.0169586
0.0169586
0.016959
0.0169591
0.016959
0.0169593
0.0169589
0.0169592
0.0169573
0.0169626
0.0169517
0.0169639
0.0169629
0.0169507
0.0169587
0.0169517
0.0169691
0.0169338
0.0170029
0.0169644
0.0167229
0.0183039
0.0137107
0.0129289
0.0148593
0.0148582
)
;

boundaryField
{
    inlet
    {
        type            calculated;
        value           uniform 0;
    }
    outlet
    {
        type            calculated;
        value           uniform 0;
    }
    sideWall
    {
        type            empty;
    }
}


// ************************************************************************* //
