/*--------------------------------*- C++ -*----------------------------------*\
| =========                 |                                                 |
| \\      /  F ield         | foam-extend: Open Source CFD                    |
|  \\    /   O peration     | Version:     3.2                                |
|   \\  /    A nd           | Web:         http://www.foam-extend.org         |
|    \\/     M anipulation  | For copyright notice see file Copyright         |
\*---------------------------------------------------------------------------*/
FoamFile
{
    version     2.0;
    format      ascii;
    class       areaVectorField;
    location    "2000";
    object      Wt;
}
// * * * * * * * * * * * * * * * * * * * * * * * * * * * * * * * * * * * * * //

dimensions      [1 1 -2 0 0 0 0];

internalField   nonuniform List<vector> 
300
(
(2.06482e-08 0 -1.03241e-10)
(2.06482e-08 0 -1.03241e-10)
(2.06482e-08 0 -1.03241e-10)
(2.06482e-08 0 -1.03241e-10)
(2.06482e-08 -1.74897e-24 -1.03241e-10)
(2.06482e-08 -1.74897e-24 -1.03241e-10)
(2.06482e-08 -1.74897e-24 -1.03241e-10)
(2.06482e-08 -1.74897e-24 -1.03241e-10)
(2.06482e-08 0 -1.03241e-10)
(2.06482e-08 -1.74897e-24 -1.03241e-10)
(2.06482e-08 0 -1.03241e-10)
(2.06482e-08 1.74897e-24 -1.03241e-10)
(2.06482e-08 0 -1.03241e-10)
(2.06482e-08 1.74897e-24 -1.03241e-10)
(2.06482e-08 0 -1.03241e-10)
(2.06482e-08 0 -1.03241e-10)
(2.06482e-08 1.74897e-24 -1.03241e-10)
(2.06482e-08 -1.74897e-24 -1.03241e-10)
(2.06482e-08 1.74897e-24 -1.03241e-10)
(2.06482e-08 0 -1.03241e-10)
(2.06482e-08 0 -1.03241e-10)
(2.06482e-08 -1.74897e-24 -1.03241e-10)
(2.06482e-08 0 -1.03241e-10)
(2.06482e-08 0 -1.03241e-10)
(2.06482e-08 0 -1.03241e-10)
(2.06482e-08 -1.74897e-24 -1.03241e-10)
(2.06482e-08 0 -1.03241e-10)
(2.06482e-08 0 -1.03241e-10)
(2.06482e-08 0 -1.03241e-10)
(2.06482e-08 -1.74897e-24 -1.03241e-10)
(2.06482e-08 0 -1.03241e-10)
(2.06482e-08 0 -1.03241e-10)
(2.06482e-08 0 -1.03241e-10)
(2.06482e-08 0 -1.03241e-10)
(2.06482e-08 0 -1.03241e-10)
(2.06482e-08 0 -1.03241e-10)
(2.06482e-08 0 -1.03241e-10)
(2.06482e-08 0 -1.03241e-10)
(2.06482e-08 0 -1.03241e-10)
(2.06482e-08 0 -1.03241e-10)
(2.06482e-08 0 -1.03241e-10)
(2.06482e-08 -1.74897e-24 -1.03241e-10)
(2.06482e-08 0 -1.03241e-10)
(2.06482e-08 -1.74897e-24 -1.03241e-10)
(2.06482e-08 0 -1.03241e-10)
(2.06482e-08 0 -1.03241e-10)
(2.06482e-08 -1.74897e-24 -1.03241e-10)
(2.06482e-08 0 -1.03241e-10)
(2.06482e-08 -1.74897e-24 -1.03241e-10)
(2.06482e-08 0 -1.03241e-10)
(2.06482e-08 0 -1.03241e-10)
(2.06482e-08 -1.74897e-24 -1.03241e-10)
(2.06482e-08 0 -1.03241e-10)
(2.06482e-08 -1.74897e-24 -1.03241e-10)
(2.06482e-08 0 -1.03241e-10)
(2.06482e-08 0 -1.03241e-10)
(2.06482e-08 -1.74897e-24 -1.03241e-10)
(2.06482e-08 0 -1.03241e-10)
(2.06482e-08 0 -1.03241e-10)
(-1.60038e-07 -1.39711e-23 -6.21118e-09)
(-8.01956e-08 0 -1.55791e-09)
(9.06855e-08 6.99269e-24 -1.99233e-09)
(1.67236e-08 0 -6.77242e-11)
(2.44021e-08 1.74896e-24 -1.44194e-10)
(1.98724e-08 0 -9.56283e-11)
(2.26964e-08 0 -1.2474e-10)
(2.20056e-08 0 -1.17261e-10)
(2.23014e-08 -1.74897e-24 -1.20435e-10)
(2.22602e-08 1.74897e-24 -1.1999e-10)
(2.22274e-08 0 -1.19637e-10)
(2.22067e-08 0 -1.19414e-10)
(2.20323e-08 -1.74897e-24 -1.17546e-10)
(2.19337e-08 1.74897e-24 -1.16496e-10)
(2.18137e-08 1.74897e-24 -1.15225e-10)
(2.17038e-08 1.74897e-24 -1.14067e-10)
(2.15787e-08 0 -1.12756e-10)
(2.14703e-08 0 -1.11626e-10)
(2.13498e-08 0 -1.10376e-10)
(2.12487e-08 -1.74897e-24 -1.09334e-10)
(2.11678e-08 0 -1.08503e-10)
(2.10729e-08 0 -1.07532e-10)
(2.09914e-08 0 -1.06702e-10)
(2.09463e-08 0 -1.06243e-10)
(2.0873e-08 -1.74897e-24 -1.05501e-10)
(2.08268e-08 1.74897e-24 -1.05035e-10)
(2.08009e-08 1.74897e-24 -1.04773e-10)
(2.07545e-08 1.74897e-24 -1.04306e-10)
(2.07223e-08 -1.74897e-24 -1.03983e-10)
(2.07222e-08 0 -1.03982e-10)
(2.0684e-08 1.74897e-24 -1.03599e-10)
(2.06961e-08 0 -1.0372e-10)
(2.06632e-08 0 -1.0339e-10)
(2.06568e-08 0 -1.03327e-10)
(2.06628e-08 0 -1.03387e-10)
(2.06477e-08 0 -1.03236e-10)
(2.06396e-08 1.74897e-24 -1.03154e-10)
(2.06551e-08 1.74897e-24 -1.0331e-10)
(2.06354e-08 -1.74897e-24 -1.03113e-10)
(2.06604e-08 0 -1.03362e-10)
(2.06381e-08 1.74897e-24 -1.0314e-10)
(2.06374e-08 -1.74897e-24 -1.03133e-10)
(2.06526e-08 -1.74897e-24 -1.03284e-10)
(2.06369e-08 1.74897e-24 -1.03127e-10)
(2.06599e-08 0 -1.03358e-10)
(2.06412e-08 -1.74897e-24 -1.03171e-10)
(2.06372e-08 0 -1.03131e-10)
(2.0656e-08 -1.74897e-24 -1.03319e-10)
(2.06378e-08 -1.74897e-24 -1.03137e-10)
(2.06633e-08 0 -1.03392e-10)
(2.06415e-08 0 -1.03174e-10)
(2.06399e-08 0 -1.03158e-10)
(2.06565e-08 0 -1.03324e-10)
(2.064e-08 0 -1.03159e-10)
(2.06641e-08 0 -1.034e-10)
(2.06435e-08 0 -1.03194e-10)
(2.06398e-08 0 -1.03157e-10)
(2.06577e-08 -1.74897e-24 -1.03336e-10)
(2.06388e-08 0 -1.03147e-10)
(2.06674e-08 0 -1.03433e-10)
(2.06367e-08 0 -1.03126e-10)
(2.06493e-08 0 -1.03252e-10)
(2.06488e-08 0 -1.03247e-10)
(2.06495e-08 -1.74897e-24 -1.03254e-10)
(2.06548e-08 1.74897e-24 -1.03307e-10)
(2.0651e-08 0 -1.03269e-10)
(2.06384e-08 0 -1.03143e-10)
(2.06522e-08 0 -1.03281e-10)
(2.06577e-08 0 -1.03336e-10)
(2.06355e-08 0 -1.03114e-10)
(2.06756e-08 -1.74897e-24 -1.03515e-10)
(2.06037e-08 -1.74897e-24 -1.02797e-10)
(2.07046e-08 0 -1.03806e-10)
(2.05847e-08 0 -1.02607e-10)
(2.07278e-08 1.74897e-24 -1.04038e-10)
(2.05621e-08 1.74897e-24 -1.02381e-10)
(2.07356e-08 0 -1.04116e-10)
(2.05469e-08 -1.74897e-24 -1.02231e-10)
(2.07594e-08 0 -1.04356e-10)
(2.05015e-08 0 -1.01779e-10)
(2.0807e-08 0 -1.04835e-10)
(2.04606e-08 0 -1.01373e-10)
(2.08569e-08 -1.74897e-24 -1.05338e-10)
(2.0411e-08 0 -1.00883e-10)
(2.08934e-08 1.74897e-24 -1.05707e-10)
(2.03683e-08 -1.74897e-24 -1.00461e-10)
(2.09495e-08 0 -1.06275e-10)
(2.03128e-08 0 -9.99139e-11)
(2.10128e-08 0 -1.06919e-10)
(2.02252e-08 1.74897e-24 -9.9054e-11)
(2.11e-08 0 -1.07808e-10)
(2.01415e-08 0 -9.82363e-11)
(2.119e-08 1.74897e-24 -1.0873e-10)
(2.00494e-08 0 -9.73397e-11)
(2.12673e-08 1.74897e-24 -1.09525e-10)
(1.99653e-08 0 -9.6525e-11)
(2.13597e-08 1.74897e-24 -1.10479e-10)
(1.98501e-08 1.74898e-24 -9.5414e-11)
(2.14755e-08 1.74897e-24 -1.1168e-10)
(1.97406e-08 -1.74898e-24 -9.4364e-11)
(2.15918e-08 0 -1.12893e-10)
(1.96257e-08 0 -9.32689e-11)
(2.16906e-08 -1.74897e-24 -1.13928e-10)
(1.95238e-08 0 -9.23027e-11)
(2.18029e-08 0 -1.15111e-10)
(1.94161e-08 0 -9.12874e-11)
(2.19138e-08 0 -1.16286e-10)
(1.92875e-08 0 -9.0082e-11)
(2.20375e-08 0 -1.17602e-10)
(1.91718e-08 0 -8.90044e-11)
(2.21337e-08 0 -1.1863e-10)
(1.90797e-08 0 -8.81516e-11)
(2.22304e-08 0 -1.1967e-10)
(1.89736e-08 0 -8.71736e-11)
(2.23325e-08 1.74897e-24 -1.20771e-10)
(1.88888e-08 0 -8.63963e-11)
(2.24197e-08 0 -1.21717e-10)
(1.88159e-08 0 -8.57309e-11)
(2.24736e-08 1.74897e-24 -1.22302e-10)
(1.87701e-08 0 -8.53136e-11)
(2.25248e-08 0 -1.2286e-10)
(1.87115e-08 -1.74898e-24 -8.47819e-11)
(2.258e-08 0 -1.23463e-10)
(1.86751e-08 0 -8.44523e-11)
(2.26205e-08 1.74896e-24 -1.23906e-10)
(1.86503e-08 0 -8.42285e-11)
(2.26274e-08 0 -1.23982e-10)
(1.86532e-08 0 -8.42546e-11)
(2.263e-08 0 -1.2401e-10)
(1.86448e-08 -1.74898e-24 -8.41787e-11)
(2.26353e-08 0 -1.24068e-10)
(1.86586e-08 0 -8.4303e-11)
(2.26058e-08 0 -1.23745e-10)
(1.86999e-08 0 -8.46762e-11)
(2.2572e-08 1.74896e-24 -1.23375e-10)
(1.87309e-08 1.74898e-24 -8.49578e-11)
(2.25377e-08 0 -1.23001e-10)
(1.87846e-08 1.74898e-24 -8.5446e-11)
(2.24881e-08 0 -1.2246e-10)
(1.88473e-08 1.74898e-24 -8.60169e-11)
(2.24088e-08 0 -1.21598e-10)
(1.89334e-08 -1.74898e-24 -8.68042e-11)
(2.23304e-08 1.74897e-24 -1.20749e-10)
(1.90038e-08 -1.74898e-24 -8.74515e-11)
(2.22583e-08 1.74897e-24 -1.1997e-10)
(1.90906e-08 1.74898e-24 -8.82519e-11)
(2.21586e-08 0 -1.18898e-10)
(1.91967e-08 -1.74898e-24 -8.92355e-11)
(2.20639e-08 0 -1.17884e-10)
(1.92836e-08 -1.74898e-24 -9.00457e-11)
(2.19801e-08 0 -1.1699e-10)
(1.93804e-08 0 -9.09517e-11)
(2.18723e-08 0 -1.15845e-10)
(1.94923e-08 0 -9.20049e-11)
(2.17722e-08 -1.74897e-24 -1.14788e-10)
(1.95812e-08 0 -9.28466e-11)
(2.16882e-08 0 -1.13903e-10)
(1.96785e-08 -1.74898e-24 -9.37709e-11)
(2.15842e-08 0 -1.12813e-10)
(1.97856e-08 1.74898e-24 -9.47946e-11)
(2.149e-08 0 -1.11831e-10)
(1.98644e-08 -1.74898e-24 -9.55511e-11)
(2.14127e-08 0 -1.11028e-10)
(1.9951e-08 0 -9.6386e-11)
(2.132e-08 0 -1.10068e-10)
(2.00468e-08 0 -9.73139e-11)
(2.12418e-08 0 -1.09262e-10)
(2.01133e-08 -1.74898e-24 -9.79612e-11)
(2.11752e-08 0 -1.08578e-10)
(2.01838e-08 0 -9.86488e-11)
(2.10946e-08 0 -1.07753e-10)
(2.02609e-08 1.74897e-24 -9.94039e-11)
(2.10344e-08 0 -1.07139e-10)
(2.03123e-08 -1.74897e-24 -9.99091e-11)
(2.09922e-08 0 -1.06709e-10)
(2.03631e-08 0 -1.00409e-10)
(2.09265e-08 0 -1.06043e-10)
(2.04208e-08 1.74897e-24 -1.0098e-10)
(2.08804e-08 0 -1.05576e-10)
(2.0451e-08 1.74897e-24 -1.01278e-10)
(2.08542e-08 0 -1.05311e-10)
(2.04928e-08 0 -1.01693e-10)
(2.08085e-08 0 -1.0485e-10)
(2.05145e-08 1.74897e-24 -1.01909e-10)
(2.07862e-08 0 -1.04626e-10)
(2.05427e-08 0 -1.02189e-10)
(2.07425e-08 -1.74897e-24 -1.04186e-10)
(2.05837e-08 1.74897e-24 -1.02597e-10)
(2.07254e-08 1.74897e-24 -1.04014e-10)
(2.05922e-08 1.74897e-24 -1.02681e-10)
(2.07254e-08 0 -1.04015e-10)
(2.06053e-08 -1.74897e-24 -1.02812e-10)
(2.06938e-08 -1.74897e-24 -1.03697e-10)
(2.06259e-08 0 -1.03018e-10)
(2.06795e-08 1.74897e-24 -1.03554e-10)
(2.06256e-08 0 -1.03015e-10)
(2.06678e-08 0 -1.03437e-10)
(2.06467e-08 -1.74897e-24 -1.03226e-10)
(2.06695e-08 0 -1.03454e-10)
(2.06353e-08 0 -1.03112e-10)
(2.06735e-08 1.74897e-24 -1.03494e-10)
(2.06354e-08 0 -1.03113e-10)
(2.06527e-08 -1.74897e-24 -1.03286e-10)
(2.06545e-08 0 -1.03304e-10)
(2.06566e-08 1.74897e-24 -1.03325e-10)
(2.06469e-08 -1.74897e-24 -1.03228e-10)
(2.06545e-08 -1.74897e-24 -1.03304e-10)
(2.06536e-08 0 -1.03295e-10)
(2.06529e-08 0 -1.03287e-10)
(2.06364e-08 1.74897e-24 -1.03123e-10)
(2.066e-08 -1.74897e-24 -1.03359e-10)
(2.06399e-08 0 -1.03158e-10)
(2.0655e-08 0 -1.03309e-10)
(2.06385e-08 1.74897e-24 -1.03144e-10)
(2.06717e-08 0 -1.03476e-10)
(2.06344e-08 0 -1.03103e-10)
(2.06561e-08 0 -1.03319e-10)
(2.0626e-08 0 -1.03019e-10)
(2.06592e-08 -1.74897e-24 -1.03351e-10)
(2.06383e-08 -1.74897e-24 -1.03142e-10)
(2.06541e-08 1.74897e-24 -1.03299e-10)
(2.06467e-08 -1.74897e-24 -1.03226e-10)
(2.06763e-08 1.74897e-24 -1.03523e-10)
(2.0636e-08 0 -1.03119e-10)
(2.06183e-08 1.74897e-24 -1.02942e-10)
(2.07709e-08 0 -1.04472e-10)
(2.02414e-08 1.74897e-24 -9.92124e-11)
(2.10787e-08 1.74897e-24 -1.07591e-10)
(2.0704e-08 0 -1.03799e-10)
(2.05873e-08 0 -1.02633e-10)
(2.06274e-08 0 -1.03033e-10)
(2.04301e-08 0 -1.01072e-10)
(2.08083e-08 0 -1.04848e-10)
(1.90019e-08 -1.74898e-24 -8.74339e-11)
(2.79925e-08 0 -1.8975e-10)
(7.76418e-09 0 -1.45972e-11)
(5.17766e-08 -6.99497e-24 -6.49249e-10)
(1.88718e-07 0 -8.64199e-09)
(2.06482e-08 0 -1.03241e-10)
(2.06482e-08 0 -1.03241e-10)
(2.06482e-08 0 -1.03241e-10)
)
;

boundaryField
{
    inlet
    {
        type            calculated;
        value           uniform (0 0 0);
    }
    outlet
    {
        type            calculated;
        value           uniform (0 0 0);
    }
    sideWall
    {
        type            empty;
    }
}


// ************************************************************************* //
