/*--------------------------------*- C++ -*----------------------------------*\
| =========                 |                                                 |
| \\      /  F ield         | foam-extend: Open Source CFD                    |
|  \\    /   O peration     | Version:     3.2                                |
|   \\  /    A nd           | Web:         http://www.foam-extend.org         |
|    \\/     M anipulation  | For copyright notice see file Copyright         |
\*---------------------------------------------------------------------------*/
FoamFile
{
    version     2.0;
    format      ascii;
    class       areaScalarField;
    location    "2000";
    object      zCo;
}
// * * * * * * * * * * * * * * * * * * * * * * * * * * * * * * * * * * * * * //

dimensions      [0 1 0 0 0 0 0];

internalField   nonuniform List<scalar> 
300
(
-0.000125
-0.000375
-0.000625
-0.000875
-0.001125
-0.001375
-0.001625
-0.001875
-0.002125
-0.002375
-0.002625
-0.002875
-0.003125
-0.003375
-0.003625
-0.003875
-0.004125
-0.004375
-0.004625
-0.004875
-0.005125
-0.005375
-0.005625
-0.005875
-0.006125
-0.006375
-0.006625
-0.006875
-0.007125
-0.007375
-0.007625
-0.007875
-0.008125
-0.008375
-0.008625
-0.008875
-0.009125
-0.009375
-0.009625
-0.009875
-0.010125
-0.010375
-0.010625
-0.010875
-0.011125
-0.011375
-0.011625
-0.011875
-0.012125
-0.012375
-0.012625
-0.012875
-0.013125
-0.013375
-0.013625
-0.013875
-0.014125
-0.014375
-0.014625
-0.0137797
-0.0123238
-0.0123874
-0.0130379
-0.0132868
-0.0135549
-0.0138126
-0.0140832
-0.0143514
-0.0146212
-0.0148905
-0.0151595
-0.0154273
-0.0156935
-0.0159583
-0.0162218
-0.0164838
-0.0167444
-0.0170036
-0.0172615
-0.0175183
-0.017774
-0.0180286
-0.0182825
-0.0185357
-0.0187881
-0.0190401
-0.0192917
-0.0195428
-0.0197937
-0.0200444
-0.0202949
-0.0205452
-0.0207954
-0.0210455
-0.0212956
-0.0215456
-0.0217955
-0.0220455
-0.0222955
-0.0225455
-0.0227954
-0.0230454
-0.0232953
-0.0235453
-0.0237953
-0.0240452
-0.0242952
-0.0245452
-0.0247952
-0.0250453
-0.0252952
-0.0255452
-0.0257952
-0.0260452
-0.0262953
-0.0265452
-0.0267952
-0.0270452
-0.0272953
-0.0275453
-0.0277953
-0.0280453
-0.0282953
-0.0285453
-0.0287954
-0.0290453
-0.0292953
-0.0295454
-0.0297954
-0.0300455
-0.0302954
-0.0305454
-0.0307954
-0.0310455
-0.0312954
-0.0315455
-0.0317954
-0.0320454
-0.0322952
-0.0325453
-0.0327951
-0.0330452
-0.0332951
-0.0335451
-0.0337949
-0.034045
-0.0342948
-0.034545
-0.0347946
-0.0350448
-0.0352945
-0.0355447
-0.0357944
-0.0360445
-0.0362941
-0.0365443
-0.0367937
-0.0370439
-0.0372934
-0.0375436
-0.0377932
-0.0380433
-0.0382928
-0.038543
-0.0387925
-0.0390427
-0.0392921
-0.0395423
-0.0397918
-0.0400418
-0.0402913
-0.0405414
-0.0407909
-0.0410409
-0.0412905
-0.0415405
-0.0417902
-0.0420401
-0.0422898
-0.0425398
-0.0427894
-0.0430394
-0.0432891
-0.0435391
-0.043789
-0.0440389
-0.0442888
-0.0445387
-0.0447886
-0.0450385
-0.0452885
-0.0455383
-0.0457883
-0.0460382
-0.0462882
-0.046538
-0.0467882
-0.047038
-0.0472883
-0.047538
-0.0477883
-0.0480381
-0.0482883
-0.0485381
-0.0487885
-0.0490382
-0.0492885
-0.0495383
-0.0497886
-0.0500384
-0.0502888
-0.0505385
-0.050789
-0.0510388
-0.0512891
-0.0515389
-0.0517894
-0.0520392
-0.0522896
-0.0525395
-0.0527898
-0.0530397
-0.0532901
-0.05354
-0.0537904
-0.0540403
-0.0542907
-0.0545407
-0.054791
-0.0550409
-0.0552913
-0.0555413
-0.0557916
-0.0560416
-0.056292
-0.0565419
-0.0567923
-0.0570423
-0.0572925
-0.0575425
-0.0577928
-0.0580429
-0.058293
-0.0585431
-0.0587933
-0.0590432
-0.0592934
-0.0595435
-0.0597936
-0.0600437
-0.0602939
-0.0605439
-0.0607941
-0.0610441
-0.0612942
-0.0615442
-0.0617943
-0.0620444
-0.0622944
-0.0625445
-0.0627946
-0.0630445
-0.0632946
-0.0635447
-0.0637947
-0.0640448
-0.0642948
-0.0645449
-0.0647949
-0.0650448
-0.0652949
-0.0655449
-0.0657948
-0.0660449
-0.066295
-0.0665449
-0.0667949
-0.0670448
-0.0672948
-0.0675448
-0.0677948
-0.068045
-0.0682951
-0.0685448
-0.0687954
-0.0690436
-0.0692938
-0.0695467
-0.0697967
-0.0700462
-0.0702948
-0.0705444
-0.0707854
-0.0710699
-0.0712864
-0.0716469
-0.0731052
-0.074375
-0.074625
-0.074875
)
;

boundaryField
{
    inlet
    {
        type            calculated;
        value           uniform 0;
    }
    outlet
    {
        type            calculated;
        value           uniform 0;
    }
    sideWall
    {
        type            empty;
    }
}


// ************************************************************************* //
