/*--------------------------------*- C++ -*----------------------------------*\
| =========                 |                                                 |
| \\      /  F ield         | foam-extend: Open Source CFD                    |
|  \\    /   O peration     | Version:     3.2                                |
|   \\  /    A nd           | Web:         http://www.foam-extend.org         |
|    \\/     M anipulation  | For copyright notice see file Copyright         |
\*---------------------------------------------------------------------------*/
FoamFile
{
    version     2.0;
    format      ascii;
    class       areaScalarField;
    location    "2000";
    object      zDimA;
}
// * * * * * * * * * * * * * * * * * * * * * * * * * * * * * * * * * * * * * //

dimensions      [0 1 0 0 0 0 0];

internalField   nonuniform List<scalar> 
300
(
0.004
0.004
0.004
0.004
0.004
0.004
0.004
0.004
0.004
0.004
0.004
0.004
0.004
0.004
0.004
0.004
0.004
0.004
0.004
0.004
0.004
0.004
0.004
0.004
0.004
0.004
0.004
0.004
0.004
0.004
0.004
0.004
0.004
0.004
0.004
0.004
0.004
0.004
0.004
0.004
0.004
0.004
0.004
0.004
0.004
0.004
0.004
0.004
0.004
0.004
0.004
0.004
0.004
0.004
0.004
0.004
0.00399999
0.0040001
0.00399878
0.00568274
0.00470336
0.00483052
0.00395516
0.0040399
0.00398675
0.00402022
0.00401224
0.00401575
0.00401532
0.00401496
0.00401474
0.00401268
0.00401151
0.00401008
0.00400878
0.00400729
0.004006
0.00400455
0.00400335
0.00400238
0.00400124
0.00400026
0.00399972
0.00399884
0.00399829
0.00399797
0.00399742
0.00399703
0.00399703
0.00399657
0.00399671
0.00399632
0.00399624
0.00399631
0.00399613
0.00399603
0.00399622
0.00399598
0.00399628
0.00399601
0.003996
0.00399619
0.003996
0.00399627
0.00399605
0.003996
0.00399623
0.00399601
0.00399632
0.00399606
0.00399603
0.00399623
0.00399604
0.00399632
0.00399608
0.00399603
0.00399625
0.00399602
0.00399636
0.003996
0.00399615
0.00399614
0.00399615
0.00399621
0.00399617
0.00399602
0.00399618
0.00399625
0.00399598
0.00399646
0.0039956
0.00399681
0.00399538
0.00399709
0.00399511
0.00399718
0.00399493
0.00399746
0.00399438
0.00399803
0.0039939
0.00399862
0.0039933
0.00399906
0.00399279
0.00399973
0.00399213
0.00400048
0.00399109
0.00400152
0.00399009
0.0040026
0.00398899
0.00400352
0.00398799
0.00400462
0.00398661
0.004006
0.0039853
0.00400738
0.00398393
0.00400856
0.00398272
0.0040099
0.00398143
0.00401122
0.0039799
0.00401269
0.00397852
0.00401384
0.00397742
0.00401499
0.00397615
0.00401621
0.00397514
0.00401725
0.00397428
0.00401789
0.00397373
0.0040185
0.00397303
0.00401915
0.0039726
0.00401964
0.0039723
0.00401972
0.00397234
0.00401975
0.00397224
0.00401981
0.0039724
0.00401946
0.0039729
0.00401905
0.00397327
0.00401865
0.00397391
0.00401805
0.00397466
0.00401711
0.00397568
0.00401617
0.00397652
0.00401531
0.00397756
0.00401412
0.00397882
0.004013
0.00397986
0.004012
0.00398101
0.00401071
0.00398235
0.00400952
0.00398341
0.00400852
0.00398457
0.00400728
0.00398585
0.00400616
0.00398679
0.00400524
0.00398782
0.00400413
0.00398896
0.0040032
0.00398976
0.00400241
0.0039906
0.00400145
0.00399151
0.00400073
0.00399213
0.00400023
0.00399274
0.00399945
0.00399342
0.0039989
0.00399378
0.00399859
0.00399428
0.00399804
0.00399454
0.00399778
0.00399488
0.00399725
0.00399536
0.00399705
0.00399546
0.00399706
0.00399563
0.00399668
0.00399587
0.00399651
0.00399586
0.00399636
0.00399612
0.00399639
0.00399598
0.00399644
0.00399598
0.00399618
0.00399621
0.00399623
0.00399612
0.00399621
0.0039962
0.00399619
0.00399599
0.00399627
0.00399603
0.00399621
0.00399602
0.00399642
0.00399598
0.00399623
0.00399587
0.00399626
0.00399601
0.0039962
0.00399611
0.00399648
0.003996
0.00399578
0.00399761
0.00399126
0.00400127
0.00399685
0.00399541
0.00399588
0.00399351
0.00399802
0.0039764
0.00408422
0.00384203
0.00437035
0.00602754
0.00401558
0.00399877
0.0040001
)
;

boundaryField
{
    inlet
    {
        type            calculated;
        value           uniform 0;
    }
    outlet
    {
        type            calculated;
        value           uniform 0;
    }
    sideWall
    {
        type            empty;
    }
}


// ************************************************************************* //
