/*--------------------------------*- C++ -*----------------------------------*\
| =========                 |                                                 |
| \\      /  F ield         | foam-extend: Open Source CFD                    |
|  \\    /   O peration     | Version:     3.2                                |
|   \\  /    A nd           | Web:         http://www.foam-extend.org         |
|    \\/     M anipulation  | For copyright notice see file Copyright         |
\*---------------------------------------------------------------------------*/
FoamFile
{
    version     2.0;
    format      ascii;
    class       areaScalarField;
    location    "910";
    object      a;
}
// * * * * * * * * * * * * * * * * * * * * * * * * * * * * * * * * * * * * * //

dimensions      [1 -1 0 0 0 0 0];

internalField   nonuniform List<scalar> 
550
(
1.05176e-05
1.05088e-05
1.05176e-05
1.05176e-05
1.05176e-05
1.05176e-05
1.04518e-05
1.05176e-05
1.05176e-05
1.04243e-05
1.05176e-05
1.04144e-05
1.05176e-05
1.05176e-05
1.04083e-05
1.05176e-05
1.05176e-05
1.04081e-05
1.04086e-05
1.04095e-05
1.04105e-05
1.05176e-05
1.04128e-05
1.05176e-05
1.05176e-05
1.05176e-05
1.05176e-05
1.04179e-05
1.05176e-05
1.05176e-05
1.05176e-05
1.05176e-05
1.04248e-05
1.04263e-05
1.04275e-05
1.04284e-05
1.05176e-05
1.04296e-05
1.04301e-05
1.05176e-05
1.04313e-05
1.0432e-05
1.05176e-05
1.04334e-05
1.04339e-05
1.04342e-05
1.04342e-05
1.04338e-05
1.04332e-05
1.04323e-05
1.05176e-05
1.05176e-05
1.04299e-05
1.05176e-05
1.04295e-05
1.05176e-05
1.04307e-05
1.05176e-05
1.05176e-05
1.04343e-05
1.04355e-05
1.05176e-05
1.05176e-05
1.05176e-05
1.05176e-05
1.04393e-05
1.05176e-05
1.04397e-05
1.05176e-05
1.04396e-05
1.04392e-05
1.05176e-05
1.05176e-05
1.04374e-05
1.04368e-05
1.05176e-05
1.05176e-05
1.05176e-05
1.04352e-05
1.05176e-05
1.04365e-05
1.04379e-05
1.05176e-05
1.05176e-05
1.05176e-05
1.05176e-05
1.05176e-05
1.04506e-05
1.04524e-05
1.04536e-05
1.04546e-05
1.05176e-05
1.04549e-05
1.04546e-05
1.05176e-05
1.05176e-05
1.04523e-05
1.05176e-05
1.04507e-05
1.04502e-05
1.04497e-05
1.05176e-05
1.05176e-05
1.04494e-05
1.05176e-05
1.05176e-05
1.05176e-05
1.05176e-05
1.05176e-05
1.05176e-05
1.05176e-05
9.55266e-06
1.04568e-05
1.04577e-05
8.45864e-06
8.70148e-06
1.04597e-05
7.94299e-06
8.47018e-06
1.04639e-05
1.0466e-05
7.31655e-06
1.04684e-05
1.04688e-05
1.05176e-05
6.39931e-06
1.04726e-05
1.04704e-05
1.04691e-05
1.04719e-05
1.05176e-05
6.24024e-06
1.04715e-05
1.04724e-05
1.04719e-05
1.04717e-05
1.04727e-05
1.04738e-05
4.53312e-06
1.04753e-05
1.0473e-05
1.0471e-05
1.0472e-05
1.04724e-05
1.04743e-05
1.04748e-05
4.47829e-06
1.04755e-05
1.04752e-05
1.04756e-05
1.04762e-05
1.05176e-05
1.0478e-05
1.0476e-05
1.04773e-05
1.05176e-05
1.04782e-05
1.0478e-05
1.04801e-05
3.84677e-06
1.04816e-05
1.04814e-05
1.04811e-05
1.04819e-05
1.04833e-05
1.04829e-05
1.04848e-05
1.05176e-05
1.04873e-05
1.04869e-05
1.049e-05
1.0492e-05
1.04921e-05
1.0494e-05
1.04952e-05
1.04953e-05
1.04948e-05
1.0496e-05
2.34852e-06
1.0499e-05
1.05006e-05
1.05016e-05
1.05012e-05
1.05018e-05
1.05042e-05
1.05076e-05
1.05078e-05
1.05076e-05
1.05107e-05
1.05137e-05
1.05149e-05
1.05174e-05
2.09464e-06
1.05157e-05
1.05163e-05
1.05175e-05
1.05162e-05
1.05173e-05
1.0517e-05
1.05161e-05
1.05171e-05
1.05144e-05
1.0512e-05
1.05106e-05
1.05067e-05
1.0503e-05
1.04976e-05
1.0497e-05
1.04964e-05
1.0495e-05
1.04974e-05
1.04977e-05
1.04995e-05
1.05024e-05
1.0515e-05
1.05176e-05
1.05e-05
1.04779e-05
1.0453e-05
1.04264e-05
1.04007e-05
1.03751e-05
1.03509e-05
1.03266e-05
1.03033e-05
1.02796e-05
1.02565e-05
1.02334e-05
1.0211e-05
1.01893e-05
1.01685e-05
1.01488e-05
1.01306e-05
1.01134e-05
1.00985e-05
1.00837e-05
1.00724e-05
1.00633e-05
1.00497e-05
1.0041e-05
1.00503e-05
1.00493e-05
1.0019e-05
1.00686e-05
1.00649e-05
1.00988e-05
1.00884e-05
1.00503e-05
1.00883e-05
1.00947e-05
1.00934e-05
1.01077e-05
1.00964e-05
1.01219e-05
1.01408e-05
1.01383e-05
1.0129e-05
1.01258e-05
1.01236e-05
1.01386e-05
1.01328e-05
1.01264e-05
1.0138e-05
1.01556e-05
1.0178e-05
1.01907e-05
1.02069e-05
1.02191e-05
1.02255e-05
1.02396e-05
1.02526e-05
1.02574e-05
1.02666e-05
1.02712e-05
1.0271e-05
1.02716e-05
1.02745e-05
1.0273e-05
1.02669e-05
1.02648e-05
1.02652e-05
1.0264e-05
1.02594e-05
1.02525e-05
1.02459e-05
1.02411e-05
1.02368e-05
1.02308e-05
1.02248e-05
1.02202e-05
1.02171e-05
1.02145e-05
1.02109e-05
1.02071e-05
1.02046e-05
1.02032e-05
1.02027e-05
1.02024e-05
1.02011e-05
1.01993e-05
1.01972e-05
1.01949e-05
1.01931e-05
1.01921e-05
1.01915e-05
1.01911e-05
1.0191e-05
1.01911e-05
1.01914e-05
1.01919e-05
1.01926e-05
1.01933e-05
1.01942e-05
1.01952e-05
1.01963e-05
1.01976e-05
1.01989e-05
1.02003e-05
1.02016e-05
1.02027e-05
1.02035e-05
1.0204e-05
1.02043e-05
1.02042e-05
1.0204e-05
1.02035e-05
1.02027e-05
1.02018e-05
1.02007e-05
1.01994e-05
1.0198e-05
1.01965e-05
1.01949e-05
1.01932e-05
1.01913e-05
1.01893e-05
1.01872e-05
1.01849e-05
1.01825e-05
1.01799e-05
1.01772e-05
1.01742e-05
1.01708e-05
1.01672e-05
1.01634e-05
1.01591e-05
1.01546e-05
1.01499e-05
1.01449e-05
1.01397e-05
1.01348e-05
1.01303e-05
1.01266e-05
1.01242e-05
1.01232e-05
1.01235e-05
1.01255e-05
1.01288e-05
1.01328e-05
1.0138e-05
1.0144e-05
1.015e-05
1.01568e-05
1.01651e-05
1.01731e-05
1.01814e-05
1.01905e-05
1.01983e-05
1.02035e-05
1.02064e-05
1.02086e-05
1.02114e-05
1.02148e-05
1.02187e-05
1.02227e-05
1.02267e-05
1.02309e-05
1.02348e-05
1.02386e-05
1.02419e-05
1.0245e-05
1.02471e-05
1.02482e-05
1.02486e-05
1.02477e-05
1.02464e-05
1.02447e-05
1.0243e-05
1.02414e-05
1.024e-05
1.02391e-05
1.02386e-05
1.02384e-05
1.02385e-05
1.02392e-05
1.024e-05
1.02413e-05
1.02427e-05
1.02442e-05
1.02459e-05
1.02475e-05
1.0249e-05
1.02506e-05
1.02521e-05
1.02536e-05
1.02549e-05
1.02563e-05
1.02575e-05
1.02589e-05
1.02601e-05
1.02615e-05
1.02628e-05
1.02644e-05
1.02658e-05
1.02673e-05
1.0269e-05
1.02706e-05
1.02724e-05
1.02741e-05
1.02759e-05
1.02778e-05
1.02797e-05
1.02816e-05
1.02834e-05
1.02853e-05
1.02871e-05
1.02889e-05
1.02906e-05
1.02923e-05
1.02938e-05
1.02954e-05
1.02969e-05
1.02984e-05
1.02997e-05
1.0301e-05
1.03022e-05
1.03035e-05
1.03046e-05
1.03056e-05
1.03065e-05
1.03075e-05
1.03083e-05
1.03091e-05
1.031e-05
1.03105e-05
1.03112e-05
1.03118e-05
1.03122e-05
1.03125e-05
1.03127e-05
1.03127e-05
1.03127e-05
1.03124e-05
1.03122e-05
1.03116e-05
1.03109e-05
1.03102e-05
1.03095e-05
1.03086e-05
1.03075e-05
1.03065e-05
1.03054e-05
1.03043e-05
1.03031e-05
1.0302e-05
1.03007e-05
1.02994e-05
1.02982e-05
1.02968e-05
1.02954e-05
1.0294e-05
1.02921e-05
1.02903e-05
1.02882e-05
1.0286e-05
1.02833e-05
1.02805e-05
1.02774e-05
1.02741e-05
1.02702e-05
1.02663e-05
1.02619e-05
1.02573e-05
1.02524e-05
1.02472e-05
1.02416e-05
1.02358e-05
1.02297e-05
1.02236e-05
1.02173e-05
1.02109e-05
1.02044e-05
1.01979e-05
1.01914e-05
1.01848e-05
1.01783e-05
1.01717e-05
1.0165e-05
1.01584e-05
1.01519e-05
1.01453e-05
1.01389e-05
1.01325e-05
1.01261e-05
1.01199e-05
1.01137e-05
1.01078e-05
1.01019e-05
1.00961e-05
1.00906e-05
1.00851e-05
1.008e-05
1.00747e-05
1.00699e-05
1.00651e-05
1.00603e-05
1.00557e-05
1.00513e-05
1.00467e-05
1.00423e-05
1.00377e-05
1.00335e-05
1.00292e-05
1.0025e-05
1.0021e-05
1.00168e-05
1.0013e-05
1.00088e-05
1.00055e-05
1.00006e-05
9.99747e-06
9.98909e-06
9.98296e-06
9.9619e-06
9.94721e-06
9.90043e-06
9.84976e-06
9.75994e-06
9.57817e-06
9.93304e-06
1.05176e-05
1.05176e-05
1.05176e-05
1.05176e-05
1.05176e-05
1.05176e-05
1.05176e-05
1.05176e-05
7.05269e-06
7.60473e-06
)
;

boundaryField
{
    inlet
    {
        type            calculated;
        value           uniform 0;
    }
    endWall
    {
        type            calculated;
        value           uniform 0;
    }
    sideWall
    {
        type            empty;
    }
}


// ************************************************************************* //
