/*--------------------------------*- C++ -*----------------------------------*\
| =========                 |                                                 |
| \\      /  F ield         | foam-extend: Open Source CFD                    |
|  \\    /   O peration     | Version:     3.2                                |
|   \\  /    A nd           | Web:         http://www.foam-extend.org         |
|    \\/     M anipulation  | For copyright notice see file Copyright         |
\*---------------------------------------------------------------------------*/
FoamFile
{
    version     2.0;
    format      ascii;
    class       areaScalarField;
    location    "910";
    object      Hdep;
}
// * * * * * * * * * * * * * * * * * * * * * * * * * * * * * * * * * * * * * //

dimensions      [0 0 0 0 0 0 0];

internalField   nonuniform List<scalar> 
550
(
0
0
0
0
0
0
0
0
0
0
0
0
0
0
0
0
0
0
0
0
0
0
0
0
0
0
0
0
0
0
0
0
0
0
0
0
0
0
0
0
0
0
0
0
0
0
0
0
0
0
0
0
0
0
0
0
0
0
0
0
0
0
0
0
0
0
0
0
0
0
0
0
0
0
0
0
0
0
0
0
0
0
0
0
0
0
0
0
0
0
0
0
0
0
0
0
0
0
0
0
0
0
0
0
0
0
0
0
0
0
0
0
2.14991e-06
2.02611e-06
0
0
5.89662e-06
0
0
8.65668e-06
4.82274e-06
0
6.24598e-06
8.93637e-06
0
0
1.15846e-05
1.55024e-05
1.40204e-05
7.66228e-06
0
0
1.20425e-05
7.60668e-06
7.65149e-06
9.44982e-06
9.47287e-06
1.77307e-06
0
5.1951e-06
2.58861e-05
1.98991e-05
7.31318e-06
1.24415e-05
1.23092e-05
0
0
7.24425e-06
7.28843e-06
7.17928e-06
7.22288e-06
0
7.15657e-06
2.14662e-05
9.05476e-06
0
1.29356e-05
1.42041e-05
2.03791e-06
0
1.61959e-05
9.17483e-06
1.40672e-05
9.17452e-06
2.17948e-06
1.78744e-05
9.19928e-06
0
1.61381e-05
1.61558e-05
9.23386e-06
2.33155e-06
1.61467e-05
9.25408e-06
1.21621e-05
1.11973e-05
1.36879e-05
2.43522e-06
0
2.28667e-05
1.10692e-05
1.35632e-05
1.88231e-05
1.0985e-05
6.7403e-06
2.51481e-06
1.19896e-05
2.0292e-05
1.08268e-05
0
2.40682e-05
1.1712e-05
2.2564e-05
3.68378e-05
0.000100794
0.000240857
0.000295436
0.00027918
0.00028102
0.000272496
0.000277596
0.00027044
0.000294831
0.0002723
0.00137856
0.00127785
0.0011959
0.00119699
0.00138089
0.00302531
0.00287133
0.0156834
0.0176261
0.0197144
0.0130028
0.0102911
0.0114317
0.00938377
0.00719856
0.00571243
0.00454666
0.00387423
0.00359858
0.00314272
0.00276578
0.00254763
0.002402
0.00220705
0.00207806
0.00201435
0.00199876
0.00203297
0.00205045
0.00211245
0.00215157
0.00221471
0.00230428
0.00251737
0.00270869
0.00285193
0.00300596
0.00305256
0.00302714
0.00297559
0.00295537
0.00294427
0.00296638
0.00298072
0.00298094
0.00299036
0.0029998
0.00301106
0.0030204
0.00302153
0.00303882
0.00306698
0.003095
0.0031173
0.00313135
0.00314436
0.00316242
0.00317226
0.00317137
0.00316683
0.00316479
0.00316676
0.00316931
0.00317497
0.00317936
0.0031817
0.00318847
0.00319848
0.0032104
0.00322777
0.00324774
0.00326775
0.00329057
0.003318
0.00334671
0.00337439
0.00340475
0.00343979
0.0034765
0.00351279
0.0035484
0.00358254
0.00361684
0.00365307
0.00368966
0.00372567
0.00376091
0.00379513
0.00382888
0.00386293
0.00389656
0.00392869
0.00395989
0.0039913
0.00402306
0.00405474
0.00408587
0.00411653
0.00414681
0.00417581
0.00420342
0.0042302
0.00425626
0.00428159
0.00430639
0.00433074
0.00435487
0.00437856
0.00440157
0.0044243
0.00444694
0.00446933
0.00449179
0.00451435
0.00453725
0.00456115
0.0045856
0.00461071
0.00463639
0.00466258
0.00468935
0.00471667
0.00474437
0.00477271
0.0048016
0.00483086
0.00486069
0.00489114
0.00492222
0.00495372
0.00498583
0.00501872
0.00505253
0.00508749
0.00512387
0.00516122
0.00519923
0.00523795
0.00527703
0.00531658
0.0053565
0.00539653
0.00543652
0.00547622
0.00551524
0.00555303
0.00558946
0.00562456
0.00565807
0.00569024
0.00572063
0.00574733
0.0057701
0.00579054
0.00580937
0.00582636
0.00584186
0.00585597
0.00586832
0.00587939
0.00588993
0.00590019
0.00591122
0.00592418
0.00593917
0.00595491
0.00596999
0.00598437
0.00599849
0.00601244
0.00602645
0.0060403
0.0060543
0.00606867
0.00608353
0.00609911
0.00611567
0.00613338
0.00615251
0.00617318
0.00619512
0.00621766
0.00624019
0.00626277
0.00628532
0.00630763
0.00633004
0.00635235
0.00637403
0.00639514
0.00641569
0.00643581
0.00645571
0.00647532
0.00649492
0.00651461
0.00653445
0.00655458
0.00657479
0.00659515
0.0066159
0.00663678
0.00665757
0.00667838
0.00669879
0.00671911
0.00673903
0.0067585
0.0067778
0.00679675
0.00681522
0.00683352
0.00685161
0.00686957
0.00688789
0.00690624
0.00692493
0.00694384
0.00696292
0.00698249
0.00700236
0.00702239
0.00704274
0.0070633
0.00708417
0.00710535
0.0071264
0.00714763
0.00716901
0.0071904
0.00721194
0.00723355
0.00725515
0.00727718
0.00729987
0.00732287
0.00734631
0.00736975
0.00739324
0.00741719
0.00744151
0.00746642
0.00749196
0.00751792
0.0075442
0.00757081
0.0075977
0.00762488
0.00765208
0.00767933
0.00770653
0.00773349
0.00776033
0.0077872
0.00781405
0.00784088
0.00786759
0.00789436
0.00792122
0.00794781
0.00797426
0.00800073
0.0080271
0.00805348
0.00807984
0.00810601
0.00813252
0.00815925
0.00818647
0.00821408
0.00824217
0.00827051
0.0082984
0.0083283
0.00836118
0.00839687
0.00843514
0.00847544
0.00851765
0.00856112
0.00860555
0.00865071
0.0086968
0.00874378
0.00879139
0.00883968
0.00888885
0.00893855
0.00898874
0.00903912
0.00909018
0.00914215
0.0091946
0.00924733
0.00930019
0.00935243
0.00940421
0.00945646
0.00950902
0.00956251
0.00961641
0.00966999
0.00972294
0.00977522
0.00982678
0.00987753
0.00992755
0.00997662
0.0100248
0.010074
0.0101229
0.010171
0.0102196
0.0102701
0.0103199
0.0103739
0.0104246
0.0104848
0.0105354
0.0105974
0.0106428
0.0107011
0.0107349
0.0107743
0.0107815
0.0107743
0.0107464
0.0106755
0.0105826
0.0103964
0.0101775
0.00975827
0.00915537
0.00808706
0.00617476
0
0
0
0
0
0
0
0
0
0
0
)
;

boundaryField
{
    inlet
    {
        type            calculated;
        value           uniform 0;
    }
    endWall
    {
        type            calculated;
        value           uniform 0;
    }
    sideWall
    {
        type            empty;
    }
}


// ************************************************************************* //
