/*--------------------------------*- C++ -*----------------------------------*\
| =========                 |                                                 |
| \\      /  F ield         | foam-extend: Open Source CFD                    |
|  \\    /   O peration     | Version:     3.2                                |
|   \\  /    A nd           | Web:         http://www.foam-extend.org         |
|    \\/     M anipulation  | For copyright notice see file Copyright         |
\*---------------------------------------------------------------------------*/
FoamFile
{
    version     2.0;
    format      ascii;
    class       volScalarField;
    location    "910";
    object      omega;
}
// * * * * * * * * * * * * * * * * * * * * * * * * * * * * * * * * * * * * * //

dimensions      [0 0 -1 0 0 0 0];

internalField   nonuniform List<scalar> 
33000
(
26.127
29.6689
33.4734
37.432
41.4193
45.3091
48.9943
52.3811
55.4102
58.0377
60.2534
62.0599
63.4822
64.5498
65.3017
65.776
66.0142
66.055
65.9364
65.7006
65.3717
64.9704
64.514
64.0183
63.4969
62.9618
62.4229
61.8897
61.3696
60.8634
60.3723
59.8985
59.4441
59.0102
58.5977
58.2068
57.8371
57.488
57.1587
56.8485
56.5563
56.2815
56.0233
55.7809
55.5539
55.3414
55.1431
54.9582
54.7858
54.625
54.4749
54.3342
54.2021
54.0774
53.9594
53.8473
53.7406
53.6388
53.5419
53.4497
53.362
53.2785
53.1991
53.1234
53.0513
52.9824
52.9166
52.8535
52.793
52.735
52.6793
52.6257
52.5739
52.5237
52.4747
52.4266
52.3792
52.332
52.2848
52.2374
52.1896
52.1415
52.0932
52.0448
51.9964
51.9484
51.901
51.8545
51.8092
51.7653
51.7228
51.6817
51.642
51.6034
51.5655
51.5282
51.4913
51.4545
51.4177
51.3808
51.3438
51.3066
51.2692
51.2314
51.1932
51.1544
51.1149
51.0749
51.0342
50.9925
50.9504
50.9059
50.8642
50.8294
50.7854
50.7351
50.7101
50.6646
50.6192
50.5871
50.5442
50.4972
50.4545
50.4332
50.3907
50.3394
50.3091
50.2998
50.2733
50.2287
50.1991
50.1641
50.1408
50.1075
50.0717
50.0445
50.014
49.9818
49.932
49.8767
49.865
49.816
49.7446
49.7158
49.6702
49.6248
49.5718
49.5205
49.4916
49.4485
49.4024
49.3415
49.2884
49.2671
49.212
49.1413
49.1036
49.0624
49.0055
48.9517
48.9052
48.8646
48.8231
48.7672
48.7104
48.6779
48.6274
48.5594
48.5225
48.4947
48.4388
48.3833
48.3423
48.2964
48.2553
48.2167
48.1821
48.1409
48.0949
48.0579
48.0177
47.9848
47.9513
47.9123
47.8803
47.8323
47.799
47.7848
47.7392
47.6928
47.6709
47.638
47.6056
47.5899
47.5679
47.5309
47.5004
47.4711
47.4567
47.4422
47.399
47.3813
47.3727
47.3505
47.3398
47.3265
47.3196
47.2935
47.2759
47.2635
47.2336
47.2178
47.1952
47.167
47.0928
47.0621
47.1195
47.1464
47.1728
47.2143
47.2501
47.2909
47.3265
47.3645
47.399
47.4362
47.4712
47.5066
47.5405
47.5726
47.6033
47.6309
47.6558
47.6782
47.6948
47.7132
47.7193
47.7378
47.7429
47.7417
47.73
47.7542
47.7471
47.7056
47.704
47.6735
47.7058
47.7012
47.659
47.6613
47.648
47.6368
47.6283
47.5921
47.5783
47.5784
47.5755
47.5689
47.5544
47.5397
47.5442
47.5354
47.5121
47.4855
47.461
47.4399
47.4141
47.3952
47.3742
47.3478
47.3286
47.3114
47.2915
47.2791
47.2688
47.2566
47.2457
47.242
47.239
47.2322
47.2259
47.2236
47.2253
47.228
47.2298
47.2307
47.2336
47.238
47.2419
47.2442
47.2461
47.2486
47.2514
47.2538
47.2547
47.2546
47.2539
47.2536
47.2542
47.2547
47.2549
47.2554
47.2553
47.2543
47.2533
47.252
47.2502
47.2477
47.245
47.2423
47.2394
47.2364
47.2329
47.2289
47.2247
47.2205
47.2158
47.2117
47.2077
47.2033
47.1993
47.196
47.1928
47.19
47.1876
47.1852
47.1832
47.1816
47.1803
47.1795
47.179
47.1787
47.1787
47.1795
47.1812
47.1832
47.1857
47.1891
47.1933
47.1978
47.2022
47.207
47.2125
47.2182
47.2241
47.2305
47.2367
47.2428
47.2485
47.2537
47.2582
47.2625
47.2663
47.2683
47.2691
47.2688
47.2666
47.2623
47.2567
47.2494
47.2408
47.2314
47.2203
47.2081
47.1954
47.1811
47.1669
47.1546
47.1438
47.1341
47.1248
47.1149
47.1043
47.094
47.084
47.0738
47.0634
47.0531
47.0432
47.0338
47.0252
47.0176
47.0108
47.0051
47.001
46.9976
46.9947
46.9921
46.9897
46.987
46.9843
46.9814
46.9782
46.9751
46.9715
46.9674
46.9628
46.9585
46.954
46.9493
46.9446
46.9395
46.9348
46.93
46.9249
46.9202
46.9156
46.9107
46.9058
46.9013
46.8968
46.8919
46.8868
46.8818
46.8766
46.8712
46.8657
46.8601
46.8544
46.8484
46.8423
46.8359
46.8295
46.823
46.8164
46.8096
46.8028
46.7961
46.7893
46.7825
46.7757
46.7691
46.7626
46.7561
46.7499
46.7438
46.7378
46.732
46.7264
46.7209
46.7155
46.7104
46.7052
46.7002
46.6956
46.6909
46.6865
46.6825
46.6785
46.6747
46.6712
46.6678
46.6646
46.6614
46.6585
46.6556
46.6527
46.6498
46.647
46.6441
46.6411
46.6381
46.635
46.6318
46.6286
46.6254
46.6221
46.619
46.616
46.6131
46.6107
46.6088
46.6072
46.6061
46.606
46.6064
46.6083
46.612
46.6175
46.6243
46.6321
46.641
46.6505
46.6609
46.672
46.6836
46.6957
46.7081
46.7206
46.7333
46.7458
46.7583
46.7706
46.7826
46.7943
46.8057
46.8169
46.8277
46.838
46.8481
46.8579
46.8674
46.8768
46.8862
46.8954
46.9047
46.914
46.9234
46.9329
46.9424
46.9521
46.9621
46.9723
46.9827
46.9928
47.0051
47.0133
47.0294
47.034
47.0588
47.0527
47.0952
47.0737
47.1403
47.1064
47.1923
47.1489
47.241
47.1971
47.2682
47.2412
47.251
47.2671
47.1921
47.2581
47.149
47.2311
47.0052
46.8474
42.7146
37.8115
37.5712
35.4302
33.2787
30.1397
25.8467
21.4264
20.8946
24.6131
7.44009
2.16941
3.73532
5.48299
7.33414
9.33338
11.3556
13.3629
15.3103
17.1819
18.9259
20.5286
21.9512
23.1953
24.2566
25.1523
25.9023
26.5256
27.0513
27.496
27.8702
28.1834
28.4279
28.5485
28.565
28.4938
28.3531
28.1679
27.9739
27.807
27.6902
27.6268
27.6006
27.5985
27.6101
27.6276
27.6451
27.6588
27.6658
27.6648
27.6546
27.6346
27.6045
27.5643
27.5138
27.4538
27.3847
27.3088
27.227
27.1403
27.0495
26.9554
26.8585
26.7588
26.6564
26.5513
26.4432
26.3316
26.2168
26.0999
25.981
25.8612
25.7404
25.6193
25.4982
25.3777
25.258
25.1393
25.0219
24.9058
24.7912
24.6783
24.5674
24.4587
24.3528
24.2498
24.1501
24.0538
23.961
23.8716
23.785
23.7009
23.6189
23.5387
23.4596
23.3814
23.3036
23.2262
23.1487
23.0714
22.9941
22.9174
22.8414
22.7667
22.6935
22.6214
22.5505
22.4811
22.4128
22.3459
22.2796
22.2142
22.1495
22.086
22.0235
21.9621
21.9017
21.8424
21.7833
21.727
21.6693
21.6115
21.5567
21.5011
21.4462
21.3944
21.3443
21.3011
21.2497
21.2079
21.1664
21.123
21.0766
21.0352
20.9964
20.955
20.9213
20.8844
20.8516
20.8129
20.7818
20.7538
20.718
20.6885
20.649
20.6187
20.5849
20.5567
20.5302
20.5033
20.469
20.4394
20.3951
20.3575
20.3332
20.3061
20.2714
20.2409
20.2182
20.1904
20.1551
20.1307
20.0991
20.0723
20.0457
20.0086
19.9743
19.9531
19.9289
19.8951
19.8681
19.8458
19.8124
19.7804
19.7527
19.7234
19.6987
19.6683
19.6342
19.6119
19.5902
19.5543
19.5282
19.5097
19.4856
19.4569
19.4283
19.4062
19.3773
19.3526
19.3372
19.314
19.2903
19.2603
19.2366
19.2216
19.1991
19.175
19.1584
19.1392
19.116
19.0955
19.0685
19.0422
19.0271
19.0134
18.9874
18.9701
18.9486
18.93
18.9176
18.8914
18.8597
18.8387
18.8216
18.8016
18.7823
18.7732
18.7617
18.7518
18.7413
18.7367
18.7261
18.7197
18.734
18.7202
18.6845
18.6318
18.5921
18.5622
18.5364
18.516
18.5012
18.4879
18.4791
18.4681
18.4615
18.4525
18.4491
18.4431
18.4425
18.439
18.4405
18.44
18.4435
18.4455
18.4514
18.4531
18.4593
18.4644
18.4803
18.4759
18.4815
18.4969
18.5187
18.5108
18.5034
18.4877
18.498
18.5088
18.4994
18.4926
18.492
18.4976
18.4974
18.4827
18.4665
18.4571
18.4569
18.4574
18.4451
18.4362
18.4428
18.4563
18.4578
18.4568
18.4511
18.444
18.4354
18.4303
18.4198
18.4104
18.3978
18.3853
18.3702
18.3577
18.3457
18.3336
18.3209
18.3096
18.3
18.2915
18.2805
18.2694
18.2589
18.2503
18.2425
18.2347
18.2271
18.221
18.2159
18.2113
18.2062
18.2017
18.198
18.1953
18.1927
18.1906
18.1879
18.1851
18.182
18.1792
18.1766
18.1752
18.1737
18.1727
18.1716
18.1706
18.1695
18.1688
18.1678
18.1671
18.1661
18.1652
18.164
18.1632
18.1619
18.1604
18.1591
18.1573
18.1549
18.1527
18.1504
18.1476
18.1453
18.1424
18.1396
18.1368
18.1341
18.1315
18.1289
18.1266
18.1242
18.122
18.1195
18.1168
18.1138
18.1111
18.1086
18.1065
18.1045
18.1025
18.1008
18.0992
18.0977
18.0966
18.0957
18.0952
18.0949
18.0952
18.096
18.0968
18.0979
18.0998
18.1026
18.1056
18.1101
18.1146
18.119
18.1242
18.1284
18.1323
18.1366
18.1405
18.1435
18.1457
18.1465
18.1456
18.1422
18.1374
18.1337
18.1312
18.129
18.1269
18.1248
18.1226
18.1202
18.1173
18.1139
18.1101
18.1059
18.1006
18.0952
18.089
18.0832
18.0778
18.0726
18.0677
18.0631
18.059
18.0552
18.0517
18.0485
18.0459
18.0438
18.0415
18.0393
18.0371
18.0353
18.0331
18.0311
18.0287
18.0264
18.0243
18.0218
18.0194
18.0173
18.0148
18.0124
18.0101
18.0082
18.0061
18.004
18.002
18.0003
17.9985
17.9966
17.9947
17.9928
17.991
17.9891
17.9874
17.9854
17.9836
17.9815
17.9796
17.9775
17.9753
17.973
17.9707
17.9684
17.966
17.9635
17.961
17.9585
17.9559
17.9533
17.9506
17.9479
17.9454
17.9429
17.9406
17.9383
17.9358
17.9333
17.9308
17.9281
17.9255
17.9229
17.9202
17.9177
17.9151
17.9124
17.9097
17.907
17.9044
17.902
17.8997
17.8973
17.895
17.8927
17.8907
17.8887
17.8868
17.8851
17.8832
17.8814
17.8796
17.8777
17.8758
17.8739
17.8719
17.87
17.8681
17.866
17.8638
17.8615
17.8586
17.8553
17.8517
17.8484
17.8452
17.8423
17.8398
17.8377
17.8358
17.8344
17.8333
17.8328
17.8325
17.8327
17.8331
17.834
17.835
17.8365
17.8382
17.8404
17.8426
17.8452
17.8479
17.8507
17.8534
17.8563
17.8589
17.8618
17.8645
17.8673
17.8699
17.8727
17.8752
17.878
17.8804
17.8831
17.8854
17.8885
17.8908
17.8942
17.897
17.9001
17.9012
17.906
17.9033
17.9127
17.903
17.9203
17.9005
17.9359
17.9042
17.9654
17.9215
18.0122
17.9582
18.0737
18.0137
18.1411
18.0896
18.273
18.3992
19.2003
21.6855
23.9565
24.0572
22.9818
23.2801
23.7867
24.6823
25.7004
22.4138
15.8738
12.0461
8.05445
0.744528
0.981024
1.30053
1.68468
2.12274
2.63637
3.25246
3.92369
4.63148
5.33971
6.05415
6.75478
7.43476
8.08351
8.69873
9.27556
9.8164
10.3196
10.7859
11.2161
11.6138
11.9829
12.3217
12.6312
12.9128
13.17
13.4085
13.6351
13.858
14.0867
14.327
14.5806
14.848
15.1046
15.3435
15.5649
15.7684
15.9538
16.1209
16.2692
16.3983
16.5071
16.5953
16.6622
16.7075
16.7309
16.7331
16.7165
16.6836
16.6375
16.5815
16.5193
16.4544
16.3899
16.3281
16.2709
16.2194
16.1717
16.1263
16.0818
16.0372
15.9925
15.9471
15.9008
15.8535
15.8052
15.756
15.7061
15.6554
15.6039
15.5514
15.4977
15.4426
15.3859
15.3275
15.2675
15.2062
15.1436
15.0801
15.0159
14.9511
14.886
14.8207
14.7553
14.69
14.6248
14.5595
14.4939
14.4278
14.3609
14.2928
14.2236
14.1531
14.0819
14.0102
13.9382
13.8662
13.7945
13.7233
13.653
13.5831
13.5142
13.4462
13.3791
13.3131
13.2484
13.1846
13.1225
13.0618
13.0024
12.9443
12.8883
12.8319
12.7771
12.7212
12.6658
12.6176
12.5663
12.5185
12.4736
12.4279
12.3814
12.3382
12.2971
12.2555
12.2153
12.177
12.1434
12.1069
12.0743
12.0421
12.0087
11.9798
11.9459
11.914
11.8838
11.8572
11.8335
11.806
11.7776
11.7535
11.721
11.6909
11.6701
11.6471
11.6215
11.5966
11.5758
11.5546
11.5298
11.5096
11.4858
11.4647
11.4463
11.4217
11.3975
11.3801
11.3644
11.343
11.3224
11.3052
11.2872
11.2682
11.2496
11.2307
11.214
11.1962
11.1738
11.1584
11.1445
11.1241
11.1077
11.0954
11.0819
11.0662
11.0494
11.0347
11.0163
10.999
10.9876
10.9774
10.9645
10.9472
10.9334
10.9227
10.9086
10.8958
10.8861
10.8748
10.8625
10.8497
10.8347
10.8205
10.8115
10.8055
10.7928
10.7811
10.7679
10.7557
10.7482
10.7369
10.7197
10.7039
10.6913
10.677
10.6619
10.6544
10.645
10.6393
10.6312
10.6273
10.6218
10.618
10.6239
10.6173
10.6026
10.5753
10.5484
10.5264
10.5033
10.4835
10.4653
10.4496
10.4363
10.4229
10.4115
10.3988
10.3883
10.3772
10.369
10.3605
10.3547
10.3486
10.345
10.3409
10.3403
10.3374
10.3392
10.338
10.3456
10.343
10.3486
10.3516
10.3659
10.3635
10.3615
10.3548
10.3567
10.3639
10.3632
10.3609
10.3631
10.3655
10.3674
10.3641
10.3572
10.3529
10.3509
10.3508
10.3475
10.3451
10.3454
10.3536
10.3567
10.3603
10.3602
10.36
10.3583
10.3578
10.3559
10.3532
10.3486
10.3434
10.3367
10.3306
10.3245
10.3174
10.3101
10.3035
10.2972
10.2913
10.2844
10.2772
10.2699
10.2632
10.2566
10.2505
10.2441
10.2386
10.2333
10.2287
10.2241
10.2197
10.2157
10.2124
10.2093
10.2067
10.2039
10.2011
10.1982
10.1955
10.1929
10.191
10.1891
10.1877
10.1861
10.1848
10.1835
10.1825
10.1814
10.1806
10.1796
10.1789
10.178
10.1774
10.1766
10.1758
10.175
10.174
10.1728
10.1716
10.1702
10.1687
10.1671
10.1654
10.1636
10.1618
10.1599
10.158
10.156
10.1541
10.1522
10.1502
10.1481
10.1458
10.1435
10.1411
10.1388
10.1365
10.1343
10.1321
10.1299
10.1277
10.1256
10.1236
10.1218
10.1201
10.1187
10.1175
10.1166
10.116
10.1156
10.1156
10.1163
10.1174
10.1193
10.1217
10.1245
10.1277
10.1311
10.1345
10.1382
10.1419
10.1456
10.149
10.1518
10.1538
10.1546
10.1544
10.1541
10.1541
10.1543
10.1545
10.1547
10.1549
10.1549
10.1547
10.1543
10.1534
10.1523
10.1506
10.1485
10.1459
10.1432
10.1403
10.1375
10.1347
10.1319
10.1292
10.1268
10.1247
10.1228
10.1211
10.1196
10.118
10.1166
10.1153
10.1141
10.1129
10.1117
10.1104
10.1091
10.1079
10.1066
10.1052
10.104
10.1027
10.1013
10.1
10.0987
10.0974
10.0962
10.0951
10.094
10.093
10.0919
10.0908
10.0897
10.0887
10.0878
10.0869
10.086
10.085
10.0841
10.0831
10.082
10.081
10.0799
10.0789
10.0778
10.0767
10.0754
10.0742
10.0729
10.0716
10.0702
10.0688
10.0675
10.0662
10.0649
10.0635
10.0623
10.0609
10.0596
10.0583
10.0568
10.0553
10.0537
10.0522
10.0506
10.049
10.0473
10.0456
10.0438
10.0421
10.0404
10.0387
10.0371
10.0355
10.034
10.0325
10.0311
10.0298
10.0285
10.0272
10.026
10.0247
10.0235
10.0221
10.0208
10.0195
10.0181
10.0167
10.0152
10.0134
10.0115
10.0092
10.0066
10.0038
10.0008
9.99768
9.99452
9.99143
9.98833
9.98531
9.98235
9.97955
9.97693
9.9745
9.97222
9.97016
9.96826
9.96655
9.96505
9.96384
9.9629
9.96222
9.96176
9.96156
9.96147
9.96152
9.96162
9.96181
9.96202
9.96237
9.96273
9.9632
9.96363
9.9641
9.96452
9.96494
9.96529
9.96559
9.96589
9.96612
9.96667
9.96699
9.96762
9.96717
9.9685
9.96578
9.97014
9.9634
9.9735
9.96031
9.98229
9.96096
10.0005
9.97084
10.0314
9.99523
10.0742
10.0354
10.1258
10.0993
10.2477
10.3718
10.9767
12.6397
14.9405
15.7843
15.7489
16.4292
17.4522
19.1141
21.1964
22.0788
18.3539
11.52
8.71799
0.60646
0.649346
0.714032
0.80443
0.920038
1.06474
1.24544
1.43765
1.63495
1.83602
2.04303
2.25267
2.46531
2.67742
2.88804
3.09436
3.29977
3.50486
3.71261
3.92464
4.14212
4.3646
4.58962
4.81439
5.03718
5.25682
5.47324
5.68776
5.90114
6.11524
6.33168
6.55203
6.77797
7.00793
7.24006
7.47341
7.70681
7.93813
8.16134
8.37366
8.57943
8.78279
8.98541
9.18794
9.38948
9.58921
9.78137
9.95785
10.1185
10.2639
10.395
10.513
10.6194
10.7154
10.8025
10.8817
10.9538
11.0187
11.076
11.1249
11.1652
11.1966
11.2192
11.2329
11.2377
11.234
11.2221
11.2022
11.1753
11.142
11.103
11.0592
11.0111
10.9599
10.9059
10.85
10.7929
10.7353
10.6777
10.6205
10.5642
10.5087
10.4545
10.4013
10.3492
10.2978
10.2467
10.1956
10.1438
10.0906
10.0356
9.9785
9.91885
9.85707
9.79338
9.72849
9.66265
9.59638
9.5302
9.46441
9.399
9.33427
9.2704
9.20726
9.14543
9.08469
9.02551
8.96798
8.9122
8.85822
8.80628
8.75571
8.70653
8.65922
8.61111
8.56416
8.52223
8.47781
8.43645
8.39605
8.35708
8.31734
8.27934
8.24318
8.20663
8.17171
8.13857
8.10835
8.07662
8.04889
8.02062
7.99233
7.96649
7.93791
7.91081
7.88487
7.86294
7.84368
7.82239
7.80074
7.78134
7.75735
7.73452
7.71695
7.69987
7.68207
7.66356
7.64848
7.63341
7.61597
7.60044
7.58354
7.56808
7.55457
7.53811
7.52152
7.5091
7.49818
7.48515
7.47185
7.46089
7.44958
7.4378
7.4264
7.41499
7.40502
7.39341
7.37916
7.36924
7.3608
7.34918
7.33984
7.33248
7.32542
7.31645
7.30631
7.29719
7.28654
7.27689
7.27028
7.26485
7.25791
7.24838
7.24101
7.23436
7.2266
7.22097
7.21561
7.20944
7.20389
7.19702
7.18949
7.18347
7.17895
7.17651
7.17076
7.16406
7.15724
7.15188
7.14778
7.14311
7.13586
7.12722
7.11957
7.11127
7.10241
7.09774
7.09239
7.08988
7.08533
7.08381
7.08164
7.08025
7.08353
7.0807
7.07416
7.05922
7.04351
7.03025
7.01588
7.00304
6.9907
6.97955
6.96993
6.95994
6.951
6.9414
6.93286
6.92418
6.91675
6.90965
6.90387
6.89837
6.89414
6.88999
6.88773
6.88461
6.88462
6.88279
6.886
6.88438
6.88853
6.88905
6.89729
6.89651
6.89583
6.89428
6.89504
6.89951
6.90058
6.9001
6.90258
6.90447
6.90642
6.90583
6.90279
6.90179
6.9012
6.90183
6.90163
6.90181
6.90246
6.90782
6.91047
6.91445
6.91584
6.91765
6.91836
6.91966
6.92022
6.92048
6.9195
6.91821
6.91592
6.91365
6.91112
6.90818
6.90474
6.90168
6.89872
6.89559
6.89202
6.88823
6.88425
6.88042
6.87655
6.8729
6.86916
6.86565
6.86226
6.85921
6.85619
6.85334
6.85062
6.84827
6.84608
6.84414
6.84209
6.84009
6.83808
6.83617
6.83437
6.83296
6.83156
6.83043
6.82924
6.82829
6.8273
6.82651
6.82567
6.82501
6.82431
6.82374
6.82315
6.82268
6.82215
6.82165
6.82111
6.82055
6.81985
6.81914
6.81832
6.81745
6.81651
6.81552
6.81446
6.81338
6.81224
6.81109
6.80987
6.80862
6.80734
6.80601
6.80458
6.80304
6.80145
6.79985
6.79827
6.79669
6.79512
6.79352
6.79191
6.7903
6.78869
6.78714
6.78566
6.78428
6.78301
6.78189
6.78092
6.78012
6.77945
6.77907
6.77907
6.77942
6.78025
6.7814
6.78293
6.78478
6.78684
6.78906
6.79147
6.79402
6.79667
6.79926
6.80163
6.80368
6.80509
6.80599
6.80672
6.80751
6.80838
6.80928
6.81016
6.81101
6.81174
6.81237
6.81281
6.81305
6.81304
6.81276
6.8122
6.81133
6.8103
6.80906
6.80774
6.80637
6.80499
6.80371
6.80252
6.80149
6.80052
6.79964
6.79878
6.79795
6.79714
6.7964
6.79573
6.79505
6.7944
6.79371
6.79301
6.79234
6.79161
6.79088
6.79016
6.7894
6.78863
6.78785
6.78708
6.78631
6.78556
6.78485
6.78418
6.78353
6.7829
6.78225
6.7816
6.781
6.78045
6.7799
6.77935
6.77881
6.77824
6.77768
6.77708
6.7765
6.77591
6.77533
6.77473
6.77411
6.77341
6.77273
6.772
6.77127
6.77052
6.76977
6.769
6.76825
6.76752
6.76676
6.76604
6.76528
6.76456
6.76379
6.76298
6.76211
6.7612
6.76032
6.75939
6.7584
6.7574
6.75638
6.75527
6.75421
6.7531
6.75203
6.75096
6.74993
6.74892
6.74798
6.74705
6.74618
6.74529
6.7444
6.74356
6.74265
6.74178
6.74086
6.73997
6.73907
6.73817
6.73721
6.73616
6.73495
6.73357
6.73198
6.73016
6.72819
6.72609
6.72392
6.72165
6.71937
6.71701
6.71463
6.71223
6.70988
6.70758
6.70538
6.70323
6.70118
6.69918
6.69728
6.69548
6.69385
6.69238
6.69109
6.68995
6.68902
6.68817
6.68744
6.68675
6.68616
6.68559
6.68517
6.68476
6.68448
6.68418
6.68396
6.68369
6.68344
6.68312
6.68278
6.68241
6.68203
6.6818
6.68147
6.68136
6.68066
6.6809
6.67889
6.68113
6.67643
6.6824
6.67384
6.68701
6.6742
6.69778
6.68045
6.71669
6.69683
6.74463
6.72684
6.78474
6.77632
6.87843
6.9844
7.36651
8.39277
9.88116
10.8705
11.198
11.9506
13.0884
14.8862
17.1817
19.5041
18.797
13.5235
9.41279
0.588256
0.596551
0.612938
0.637083
0.670652
0.714619
0.772649
0.838783
0.913178
0.989494
1.06535
1.14102
1.21872
1.29759
1.37715
1.45665
1.53681
1.61791
1.7007
1.78584
1.87366
1.96391
2.05592
2.14892
2.24245
2.33591
2.42889
2.52153
2.61374
2.70572
2.79752
2.88913
2.9809
3.07284
3.16486
3.25705
3.3494
3.4433
3.54762
3.66801
3.80193
3.94501
4.09418
4.24795
4.4052
4.56522
4.7271
4.88916
5.04995
5.20899
5.36551
5.51962
5.67128
5.8203
5.96683
6.11066
6.25153
6.3893
6.5234
6.6533
6.77852
6.89747
7.00953
7.1141
7.21036
7.29818
7.37706
7.44606
7.50333
7.54925
7.58425
7.60904
7.6241
7.63018
7.62791
7.61793
7.60108
7.57804
7.54943
7.51593
7.47807
7.43632
7.39146
7.34392
7.29441
7.2435
7.19179
7.14006
7.08877
7.03813
6.98848
6.94002
6.89273
6.84669
6.80172
6.75789
6.71499
6.67293
6.63173
6.59137
6.5515
6.51209
6.47332
6.43513
6.39795
6.36151
6.32632
6.29205
6.25919
6.22728
6.19671
6.16679
6.13792
6.10985
6.08158
6.05371
6.0292
6.00146
5.97709
5.9524
5.92834
5.90353
5.87911
5.85538
5.83001
5.80672
5.78532
5.76524
5.74377
5.72535
5.70704
5.68787
5.66919
5.64971
5.63147
5.61408
5.60016
5.58794
5.57558
5.56183
5.55019
5.53505
5.52053
5.50777
5.49678
5.48594
5.47486
5.4655
5.45628
5.44544
5.43586
5.42503
5.41543
5.40666
5.39733
5.38745
5.37973
5.37385
5.36771
5.36011
5.35393
5.34794
5.34205
5.33674
5.33152
5.32642
5.32005
5.31193
5.30605
5.30195
5.29636
5.29183
5.289
5.28679
5.28298
5.27789
5.27299
5.26743
5.26317
5.26049
5.25865
5.25616
5.252
5.24873
5.24569
5.24259
5.24148
5.24003
5.2382
5.23708
5.23469
5.23202
5.23084
5.23014
5.23063
5.22945
5.2271
5.22475
5.22365
5.2228
5.22229
5.22065
5.21716
5.21415
5.21064
5.20695
5.20552
5.20332
5.20377
5.20288
5.20367
5.20448
5.2056
5.20868
5.20822
5.2056
5.19813
5.18966
5.1825
5.17464
5.16758
5.16087
5.15468
5.14918
5.1435
5.13831
5.13276
5.12782
5.12273
5.11826
5.11388
5.11032
5.10694
5.10435
5.10176
5.10041
5.09855
5.09875
5.09776
5.09983
5.09915
5.10241
5.1031
5.10842
5.10874
5.10932
5.1096
5.11035
5.11365
5.11544
5.11615
5.11868
5.12056
5.12245
5.1233
5.12258
5.12297
5.12346
5.12473
5.12559
5.12696
5.12807
5.13204
5.13459
5.13806
5.14001
5.14228
5.14388
5.14582
5.14722
5.14863
5.14908
5.14948
5.14918
5.14891
5.14828
5.14748
5.14636
5.14533
5.14427
5.14303
5.14151
5.13985
5.138
5.1362
5.13431
5.13248
5.13057
5.12874
5.12696
5.12533
5.1237
5.12214
5.12065
5.11934
5.11808
5.11697
5.1158
5.11466
5.11352
5.11249
5.11149
5.1107
5.10991
5.1093
5.10866
5.10817
5.10764
5.10723
5.10679
5.10643
5.10606
5.10577
5.10547
5.10525
5.105
5.10477
5.10451
5.10424
5.1039
5.10355
5.10313
5.10269
5.1022
5.10169
5.10113
5.10056
5.09995
5.09933
5.09866
5.09795
5.0972
5.09641
5.09555
5.09463
5.09368
5.09271
5.09176
5.09079
5.08983
5.08883
5.08783
5.08683
5.08581
5.08481
5.08386
5.08296
5.08214
5.0814
5.08074
5.08017
5.0797
5.0794
5.07933
5.07949
5.07994
5.08061
5.08157
5.08272
5.08405
5.08553
5.08714
5.08886
5.09068
5.09251
5.09425
5.09582
5.09709
5.09809
5.09898
5.09988
5.10081
5.10176
5.10269
5.1036
5.10444
5.10521
5.10586
5.10639
5.10676
5.10695
5.10696
5.10678
5.10647
5.10602
5.1055
5.10493
5.10434
5.10378
5.10326
5.10281
5.10239
5.102
5.1016
5.10121
5.10082
5.10047
5.10015
5.09981
5.09949
5.09915
5.0988
5.09846
5.09808
5.09769
5.0973
5.0969
5.09648
5.09605
5.09561
5.09517
5.09473
5.09432
5.09393
5.09356
5.0932
5.09283
5.09247
5.09213
5.09181
5.0915
5.09118
5.09088
5.09055
5.09022
5.08987
5.08953
5.08919
5.08886
5.08851
5.08816
5.08776
5.08736
5.08695
5.08653
5.08612
5.08569
5.08527
5.08485
5.08443
5.08401
5.08362
5.0832
5.08281
5.08239
5.08196
5.08148
5.08098
5.08048
5.07996
5.0794
5.07883
5.07824
5.07761
5.07698
5.07632
5.07568
5.07504
5.07441
5.07379
5.07321
5.07264
5.07209
5.07153
5.07095
5.07038
5.06977
5.06918
5.06856
5.06797
5.06736
5.06675
5.06611
5.0654
5.06458
5.06364
5.06257
5.06136
5.06006
5.05866
5.05724
5.05575
5.05423
5.05266
5.05106
5.04944
5.04783
5.04625
5.04472
5.04321
5.04175
5.0403
5.03889
5.03753
5.03626
5.03507
5.034
5.03302
5.03216
5.03136
5.03064
5.02994
5.02931
5.0287
5.0282
5.02772
5.02734
5.02695
5.02662
5.02625
5.0259
5.02549
5.02509
5.02466
5.02424
5.0239
5.02353
5.02329
5.02277
5.02267
5.02144
5.02231
5.01971
5.02259
5.01807
5.02496
5.018
5.03094
5.02162
5.0421
5.03144
5.05945
5.05035
5.08782
5.08872
5.15996
5.2423
5.49762
6.12861
7.07815
7.87263
8.26856
8.94656
9.99557
11.6931
13.9183
16.6878
17.8414
14.808
10.2122
0.585711
0.588186
0.596328
0.606914
0.619714
0.635043
0.653943
0.677267
0.70638
0.738892
0.773817
0.810343
0.846822
0.883369
0.919772
0.956492
0.993902
1.03191
1.07054
1.10987
1.15
1.191
1.23281
1.27542
1.31886
1.36305
1.40789
1.45341
1.49955
1.5463
1.5936
1.64139
1.68973
1.73861
1.78808
1.83816
1.88881
1.94046
1.99579
2.05642
2.12171
2.19052
2.26196
2.33557
2.41091
2.48762
2.56548
2.64422
2.72349
2.80325
2.88328
2.96366
3.04437
3.12546
3.20711
3.28926
3.37177
3.45464
3.53753
3.62009
3.70213
3.78314
3.86288
3.94102
4.01715
4.09128
4.16315
4.23252
4.29916
4.36266
4.42263
4.47897
4.53129
4.57955
4.6236
4.66323
4.69857
4.72961
4.75636
4.77891
4.79719
4.81122
4.82131
4.82753
4.83026
4.82976
4.82637
4.82061
4.81283
4.80348
4.79302
4.78173
4.77006
4.75855
4.7471
4.73584
4.7248
4.71388
4.70323
4.69267
4.68218
4.67209
4.66215
4.65216
4.64222
4.63212
4.62218
4.61176
4.60101
4.58981
4.57857
4.56695
4.55536
4.54357
4.53107
4.51824
4.50689
4.49355
4.4824
4.47005
4.45779
4.44463
4.43116
4.4179
4.40263
4.3884
4.37604
4.36477
4.35238
4.34127
4.33072
4.31955
4.30788
4.29486
4.28395
4.27443
4.26697
4.26024
4.25478
4.24788
4.24106
4.23167
4.22357
4.21614
4.20934
4.20283
4.19728
4.19259
4.18742
4.18134
4.1761
4.16955
4.1639
4.15897
4.15451
4.14974
4.14589
4.14303
4.1406
4.13766
4.13505
4.13208
4.13004
4.12927
4.12792
4.1259
4.12299
4.11909
4.11679
4.11559
4.11349
4.11228
4.11194
4.11242
4.1122
4.1107
4.10902
4.10712
4.10617
4.10626
4.1065
4.10641
4.10589
4.10573
4.1052
4.10502
4.10664
4.10774
4.10849
4.10978
4.11059
4.11131
4.11273
4.11442
4.11684
4.11828
4.11866
4.11899
4.12027
4.12186
4.12381
4.12497
4.12473
4.12471
4.12437
4.12407
4.12478
4.12477
4.12684
4.12844
4.13102
4.13345
4.13585
4.13911
4.14047
4.14027
4.13686
4.13259
4.12904
4.12532
4.12208
4.11905
4.11625
4.11373
4.11108
4.10881
4.10626
4.10399
4.1016
4.09952
4.09746
4.09588
4.0944
4.09336
4.09238
4.09206
4.0915
4.09218
4.09218
4.09392
4.09425
4.09695
4.09805
4.10184
4.10287
4.10415
4.10528
4.10636
4.109
4.11096
4.11225
4.11462
4.11651
4.11836
4.11982
4.12028
4.12133
4.1224
4.12398
4.12532
4.12709
4.12857
4.13168
4.13402
4.137
4.13904
4.14131
4.14314
4.14516
4.14682
4.14852
4.14958
4.15062
4.15121
4.15179
4.1521
4.15234
4.15235
4.15234
4.15226
4.15209
4.1517
4.1512
4.15055
4.14989
4.14918
4.14845
4.14766
4.14691
4.14615
4.14546
4.14473
4.14404
4.14336
4.14277
4.14221
4.14173
4.1412
4.14072
4.1402
4.13976
4.13934
4.13903
4.13872
4.13852
4.1383
4.13817
4.138
4.13791
4.13777
4.13769
4.1376
4.13755
4.13749
4.13749
4.13745
4.13744
4.1374
4.13735
4.13727
4.13718
4.13705
4.13689
4.13671
4.13651
4.13628
4.13605
4.13579
4.13552
4.13522
4.13489
4.13452
4.13412
4.13367
4.13318
4.13268
4.13216
4.13165
4.13113
4.13062
4.13007
4.12953
4.12899
4.12843
4.12789
4.12739
4.12691
4.12648
4.12609
4.12575
4.12548
4.12526
4.12514
4.12517
4.12534
4.12568
4.1262
4.12688
4.1277
4.12863
4.12969
4.13082
4.13204
4.13334
4.13465
4.13591
4.13709
4.13812
4.13898
4.13977
4.14057
4.14137
4.1422
4.143
4.14378
4.14454
4.14524
4.14585
4.1464
4.14684
4.14716
4.14737
4.14744
4.14742
4.14732
4.14715
4.14695
4.14673
4.14652
4.14633
4.14617
4.14601
4.14588
4.14573
4.14558
4.14542
4.14528
4.14515
4.14501
4.14488
4.14474
4.14457
4.14442
4.14424
4.14405
4.14386
4.14367
4.14345
4.14325
4.14302
4.14279
4.14256
4.14235
4.14215
4.14196
4.14178
4.1416
4.14142
4.14126
4.1411
4.14095
4.14079
4.14064
4.14047
4.1403
4.14011
4.13993
4.13974
4.13956
4.13938
4.13919
4.13899
4.13878
4.13856
4.13834
4.13812
4.13791
4.1377
4.13749
4.13729
4.13709
4.1369
4.13671
4.13653
4.13633
4.13613
4.13591
4.13567
4.13542
4.13517
4.1349
4.13461
4.13431
4.13398
4.13365
4.1333
4.13296
4.13261
4.13227
4.13193
4.13161
4.13129
4.13098
4.13065
4.1303
4.12995
4.12956
4.12918
4.12879
4.12841
4.12801
4.12762
4.1272
4.12674
4.1262
4.12558
4.12489
4.1241
4.12327
4.12239
4.12151
4.12058
4.11965
4.11868
4.1177
4.11672
4.11576
4.11481
4.11392
4.11303
4.11217
4.11131
4.11047
4.10964
4.10886
4.10813
4.10746
4.10685
4.1063
4.10579
4.10531
4.10484
4.10442
4.10401
4.10366
4.10335
4.10309
4.10283
4.10261
4.10234
4.10209
4.10178
4.10149
4.10118
4.10088
4.10063
4.10039
4.10021
4.09991
4.09978
4.0991
4.0994
4.09797
4.0994
4.09704
4.10073
4.09711
4.10429
4.09945
4.11119
4.10578
4.12268
4.11901
4.1432
4.1491
4.19765
4.2607
4.43188
4.82245
5.40734
6.01434
6.38506
6.95165
7.83233
9.31825
11.3343
14.0999
16.3501
15.1833
11.0076
0.585605
0.587677
0.594986
0.603849
0.612685
0.621775
0.630426
0.639991
0.650892
0.663751
0.678851
0.696113
0.714499
0.733861
0.754077
0.774646
0.795439
0.816616
0.838308
0.860695
0.884019
0.908696
0.934857
0.962904
0.992999
1.02508
1.05896
1.09452
1.13159
1.17007
1.20984
1.25104
1.29452
1.34086
1.38999
1.44157
1.49523
1.55067
1.60787
1.66688
1.72774
1.79035
1.85458
1.92031
1.98735
2.05551
2.12458
2.19433
2.26454
2.33501
2.40548
2.47572
2.54551
2.6145
2.68239
2.74885
2.81359
2.87638
2.93683
2.99461
3.04934
3.10069
3.14849
3.19298
3.23476
3.2748
3.3137
3.35162
3.38866
3.42477
3.4599
3.49402
3.52697
3.55865
3.5889
3.6175
3.64442
3.66957
3.69304
3.71484
3.73489
3.75319
3.76957
3.78398
3.79637
3.80657
3.81464
3.82076
3.82504
3.82758
3.82856
3.82812
3.82639
3.82363
3.81997
3.81563
3.81072
3.80531
3.79954
3.79345
3.78707
3.78051
3.77376
3.76682
3.75977
3.75259
3.7454
3.73812
3.73087
3.72353
3.71618
3.70865
3.70109
3.69326
3.68487
3.67608
3.66782
3.65872
3.65099
3.64286
3.63469
3.6261
3.61714
3.60805
3.59744
3.58754
3.57916
3.57187
3.5641
3.55677
3.54912
3.54132
3.53332
3.52434
3.51697
3.51079
3.50653
3.50327
3.50108
3.49752
3.49327
3.48686
3.48126
3.47642
3.47241
3.46908
3.46641
3.46401
3.461
3.45726
3.45429
3.45058
3.44746
3.44496
3.4428
3.44048
3.43925
3.43877
3.43825
3.43728
3.43638
3.43562
3.436
3.43742
3.43813
3.43796
3.43711
3.43564
3.43517
3.4355
3.43548
3.43631
3.43775
3.43967
3.44122
3.44189
3.44244
3.44277
3.44344
3.44467
3.44635
3.44812
3.44951
3.45085
3.45187
3.45336
3.45613
3.45875
3.46106
3.46352
3.4658
3.4682
3.47107
3.47397
3.47725
3.47971
3.48138
3.48314
3.48551
3.4881
3.49102
3.49346
3.49492
3.49648
3.49781
3.49896
3.50049
3.50177
3.50442
3.50696
3.5101
3.51302
3.51586
3.51899
3.52105
3.52186
3.5208
3.51899
3.5175
3.516
3.51484
3.51381
3.5129
3.51213
3.51123
3.51053
3.50972
3.50903
3.50823
3.50762
3.50699
3.50665
3.50636
3.5063
3.5063
3.5067
3.50693
3.50793
3.50856
3.51017
3.51108
3.5133
3.51464
3.51748
3.51883
3.52036
3.52178
3.5231
3.52532
3.52721
3.52873
3.53087
3.53268
3.53448
3.53611
3.53714
3.53847
3.53977
3.5414
3.54291
3.5447
3.5463
3.54881
3.55091
3.55339
3.55532
3.55739
3.55916
3.56105
3.56268
3.56434
3.56559
3.56681
3.56775
3.56865
3.56937
3.57004
3.57054
3.57101
3.5714
3.57173
3.5719
3.57198
3.57196
3.57191
3.57182
3.57169
3.57152
3.57135
3.57117
3.571
3.5708
3.57062
3.57042
3.57027
3.57013
3.57004
3.56991
3.56981
3.56968
3.56961
3.56953
3.56952
3.56952
3.56957
3.56962
3.5697
3.56978
3.56989
3.56996
3.57007
3.57016
3.57029
3.5704
3.57054
3.57065
3.57078
3.57089
3.571
3.57109
3.57118
3.57123
3.57127
3.57129
3.5713
3.5713
3.57128
3.57126
3.57122
3.57116
3.57109
3.57098
3.57083
3.57067
3.57048
3.57028
3.57007
3.56987
3.56967
3.56947
3.56926
3.56905
3.56884
3.56863
3.56844
3.56826
3.5681
3.56797
3.56786
3.56779
3.56775
3.56774
3.5678
3.56794
3.56817
3.5685
3.56894
3.56949
3.57012
3.57084
3.57163
3.57247
3.57337
3.57431
3.57525
3.57619
3.57707
3.57786
3.57856
3.57921
3.57986
3.58051
3.58115
3.58179
3.58243
3.58302
3.58359
3.58411
3.58457
3.58497
3.58529
3.58552
3.58566
3.58576
3.58578
3.58576
3.58572
3.58567