/*--------------------------------*- C++ -*----------------------------------*\
| =========                 |                                                 |
| \\      /  F ield         | foam-extend: Open Source CFD                    |
|  \\    /   O peration     | Version:     3.2                                |
|   \\  /    A nd           | Web:         http://www.foam-extend.org         |
|    \\/     M anipulation  | For copyright notice see file Copyright         |
\*---------------------------------------------------------------------------*/
FoamFile
{
    version     2.0;
    format      ascii;
    class       volScalarField;
    location    "910";
    object      p;
}
// * * * * * * * * * * * * * * * * * * * * * * * * * * * * * * * * * * * * * //

dimensions      [1 -1 -2 0 0 0 0];

internalField   nonuniform List<scalar> 
33000
(
1177.79
1178.89
1179.99
1182.45
1183.7
1185.92
1186.99
1188.65
1189.5
1190.68
1191.41
1192.29
1192.9
1193.58
1194.11
1194.68
1195.19
1195.69
1196.15
1196.61
1197.05
1197.48
1197.9
1198.32
1198.73
1199.14
1199.54
1199.95
1200.34
1200.74
1201.13
1201.51
1201.9
1202.28
1202.66
1203.04
1203.42
1203.79
1204.17
1204.54
1204.91
1205.28
1205.64
1206.01
1206.38
1206.75
1207.12
1207.49
1207.86
1208.23
1208.6
1208.98
1209.36
1209.74
1210.12
1210.5
1210.88
1211.27
1211.65
1212.03
1212.42
1212.8
1213.19
1213.57
1213.95
1214.33
1214.71
1215.09
1215.46
1215.83
1216.21
1216.58
1216.95
1217.31
1217.68
1218.05
1218.41
1218.78
1219.14
1219.51
1219.87
1220.23
1220.59
1220.95
1221.31
1221.67
1222.03
1222.39
1222.74
1223.1
1223.46
1223.82
1224.18
1224.55
1224.92
1225.29
1225.68
1226.08
1226.49
1226.92
1227.37
1227.85
1228.37
1228.93
1229.55
1230.24
1231
1231.87
1232.81
1233.94
1235.62
1237.7
1240.89
1246.35
1252.18
1255.15
1254.95
1252.3
1246.68
1243.09
1243.47
1238.6
1230.8
1232.27
1240.94
1240.94
1232.72
1227.87
1225.18
1229.55
1242.58
1245.25
1237.06
1233.22
1231.51
1227.88
1232.58
1244.63
1242.89
1230.09
1224.06
1219.84
1212.22
1207.12
1215.88
1233.85
1237.41
1227.95
1222.81
1220.54
1221.38
1230.49
1238.38
1235.94
1234.56
1244.72
1256.82
1263.73
1264.81
1253.96
1240.94
1239.2
1240.8
1239.68
1236.97
1231.56
1229.6
1237.23
1244.42
1241.98
1239
1245.67
1255.71
1259.51
1259.58
1261.15
1266.21
1269.5
1260.73
1249.07
1247.37
1248
1244.63
1240.86
1241.6
1249.67
1258.87
1261.77
1261.65
1262.99
1267.24
1269.5
1258.51
1242.23
1238.96
1249.49
1260.64
1263.13
1261.5
1260.8
1261.01
1261.42
1261.43
1261.57
1261.73
1261.88
1262.1
1262.32
1262.69
1262.81
1263.2
1263.4
1263.67
1263.97
1264.19
1264.19
1263.25
1262.55
1262
1261.34
1260.77
1260.14
1259.54
1258.94
1258.33
1257.79
1257.19
1256.73
1256.17
1255.78
1255.29
1254.98
1254.58
1254.36
1254.05
1253.94
1253.67
1253.71
1253.43
1253.71
1253.49
1253.8
1253.5
1254.27
1254.11
1254.41
1254.3
1254.26
1254.77
1254.9
1255.04
1255.32
1255.47
1255.85
1256.07
1256.11
1256.23
1256.38
1256.65
1256.9
1257.14
1257.37
1257.88
1258.32
1258.82
1259.18
1259.62
1259.97
1260.36
1260.74
1261.1
1261.37
1261.68
1261.89
1262.09
1262.27
1262.45
1262.55
1262.65
1262.76
1262.86
1262.9
1262.92
1262.91
1262.91
1262.9
1262.89
1262.85
1262.83
1262.81
1262.81
1262.8
1262.79
1262.77
1262.79
1262.8
1262.82
1262.83
1262.85
1262.85
1262.87
1262.88
1262.91
1262.95
1262.99
1263.04
1263.1
1263.16
1263.23
1263.29
1263.37
1263.44
1263.52
1263.6
1263.68
1263.76
1263.84
1263.92
1263.99
1264.05
1264.11
1264.16
1264.21
1264.25
1264.28
1264.3
1264.32
1264.32
1264.33
1264.32
1264.3
1264.28
1264.25
1264.2
1264.14
1264.07
1263.99
1263.91
1263.81
1263.71
1263.61
1263.49
1263.38
1263.27
1263.15
1263.04
1262.94
1262.85
1262.77
1262.71
1262.67
1262.64
1262.64
1262.66
1262.71
1262.8
1262.91
1263.04
1263.2
1263.38
1263.59
1263.8
1264.05
1264.3
1264.56
1264.83
1265.09
1265.33
1265.55
1265.75
1265.97
1266.19
1266.42
1266.65
1266.88
1267.11
1267.34
1267.55
1267.76
1267.96
1268.14
1268.3
1268.45
1268.58
1268.7
1268.81
1268.92
1269.02
1269.13
1269.23
1269.34
1269.46
1269.58
1269.7
1269.83
1269.96
1270.09
1270.22
1270.36
1270.49
1270.63
1270.76
1270.89
1271.02
1271.15
1271.27
1271.4
1271.52
1271.65
1271.77
1271.9
1272.02
1272.15
1272.28
1272.4
1272.53
1272.66
1272.79
1272.92
1273.05
1273.18
1273.31
1273.44
1273.56
1273.69
1273.82
1273.95
1274.08
1274.21
1274.33
1274.46
1274.59
1274.72
1274.84
1274.97
1275.1
1275.22
1275.35
1275.48
1275.6
1275.73
1275.86
1275.99
1276.12
1276.24
1276.37
1276.49
1276.62
1276.74
1276.86
1276.97
1277.09
1277.2
1277.31
1277.41
1277.51
1277.62
1277.72
1277.81
1277.91
1278
1278.09
1278.19
1278.27
1278.36
1278.45
1278.53
1278.61
1278.69
1278.76
1278.82
1278.88
1278.92
1278.96
1278.98
1278.99
1278.98
1278.95
1278.89
1278.82
1278.73
1278.63
1278.51
1278.39
1278.25
1278.11
1277.96
1277.81
1277.66
1277.5
1277.33
1277.17
1277.01
1276.84
1276.68
1276.51
1276.35
1276.18
1276.02
1275.86
1275.71
1275.55
1275.4
1275.25
1275.1
1274.96
1274.82
1274.68
1274.54
1274.4
1274.26
1274.12
1273.98
1273.84
1273.7
1273.57
1273.39
1273.3
1273.02
1273.04
1272.56
1272.82
1271.91
1272.69
1271.05
1272.72
1270.18
1273.12
1269.67
1274.13
1270.12
1276.13
1272.39
1279.62
1277.66
1286.06
1288.96
1301.88
1320.34
1354.36
1386.83
1381.74
1385.69
1386.63
1387.96
1390.12
1389.68
1391.39
1389.93
1391.62
1128.82
1130.05
1131.12
1133.61
1134.84
1137.09
1138.15
1139.82
1140.65
1141.84
1142.57
1143.46
1144.07
1144.74
1145.28
1145.85
1146.35
1146.85
1147.3
1147.76
1148.2
1148.63
1149.05
1149.47
1149.88
1150.29
1150.69
1151.1
1151.49
1151.89
1152.28
1152.66
1153.05
1153.43
1153.81
1154.19
1154.57
1154.94
1155.32
1155.69
1156.06
1156.43
1156.79
1157.16
1157.53
1157.9
1158.27
1158.64
1159.01
1159.38
1159.75
1160.13
1160.51
1160.89
1161.27
1161.65
1162.03
1162.42
1162.8
1163.18
1163.57
1163.95
1164.34
1164.72
1165.1
1165.48
1165.86
1166.24
1166.61
1166.98
1167.36
1167.73
1168.1
1168.46
1168.83
1169.2
1169.56
1169.93
1170.29
1170.65
1171.02
1171.38
1171.74
1172.1
1172.46
1172.82
1173.18
1173.53
1173.89
1174.25
1174.61
1174.97
1175.33
1175.69
1176.06
1176.44
1176.83
1177.22
1177.64
1178.07
1178.52
1179
1179.52
1180.08
1180.69
1181.38
1182.14
1183.01
1183.96
1185.12
1186.79
1188.95
1192.06
1196.82
1201.79
1204.52
1204.47
1202.1
1197.58
1194.43
1193.76
1189.54
1183.68
1184.52
1190.48
1190.59
1184.73
1180.46
1178.29
1182.01
1191.74
1194.25
1188.84
1185.43
1183.37
1180.79
1184.54
1193.12
1191.95
1182.6
1176.85
1172.19
1165.62
1161.81
1168.88
1182.8
1186.63
1180.5
1175.95
1173.74
1174.88
1182.2
1188.67
1187.91
1187.94
1196.34
1206.55
1212.59
1212.99
1204.31
1194.17
1191.89
1192.5
1191.34
1188.73
1184.37
1183.09
1189.01
1194.66
1193.56
1192.13
1197.67
1205.92
1209.83
1210.61
1212.2
1216.02
1217.86
1211
1201.95
1199.8
1199.64
1196.83
1193.87
1194.76
1201.37
1208.99
1212.14
1212.67
1213.99
1217.08
1217.94
1209.05
1196.51
1193.73
1201.67
1210.63
1213.34
1212.5
1211.98
1212.21
1212.56
1212.6
1212.75
1212.91
1213.07
1213.29
1213.51
1213.85
1214
1214.36
1214.57
1214.84
1215.13
1215.32
1215.26
1214.4
1213.73
1213.14
1212.5
1211.92
1211.29
1210.69
1210.09
1209.48
1208.94
1208.35
1207.87
1207.33
1206.92
1206.45
1206.13
1205.74
1205.51
1205.21
1205.09
1204.84
1204.85
1204.61
1204.85
1204.65
1204.94
1204.71
1205.37
1205.27
1205.53
1205.45
1205.46
1205.89
1206.04
1206.2
1206.46
1206.64
1206.99
1207.19
1207.26
1207.39
1207.54
1207.8
1208.05
1208.29
1208.54
1209.04
1209.47
1209.95
1210.33
1210.77
1211.12
1211.51
1211.88
1212.24
1212.52
1212.81
1213.03
1213.24
1213.42
1213.59
1213.7
1213.8
1213.9
1214
1214.05
1214.06
1214.05
1214.05
1214.04
1214.03
1214
1213.98
1213.96
1213.96
1213.94
1213.94
1213.92
1213.93
1213.95
1213.97
1213.98
1213.99
1214
1214.01
1214.03
1214.06
1214.1
1214.14
1214.19
1214.25
1214.31
1214.37
1214.44
1214.52
1214.59
1214.67
1214.75
1214.83
1214.91
1214.99
1215.06
1215.14
1215.2
1215.26
1215.31
1215.36
1215.39
1215.43
1215.45
1215.46
1215.47
1215.47
1215.46
1215.45
1215.43
1215.39
1215.35
1215.29
1215.22
1215.14
1215.05
1214.96
1214.86
1214.75
1214.64
1214.53
1214.41
1214.3
1214.19
1214.09
1214
1213.92
1213.86
1213.82
1213.79
1213.79
1213.81
1213.87
1213.95
1214.06
1214.19
1214.35
1214.54
1214.74
1214.96
1215.2
1215.45
1215.71
1215.98
1216.23
1216.47
1216.69
1216.9
1217.11
1217.34
1217.57
1217.8
1218.03
1218.26
1218.48
1218.7
1218.91
1219.1
1219.29
1219.45
1219.6
1219.73
1219.85
1219.96
1220.06
1220.17
1220.27
1220.38
1220.49
1220.61
1220.72
1220.85
1220.97
1221.1
1221.24
1221.37
1221.51
1221.64
1221.77
1221.9
1222.04
1222.17
1222.29
1222.42
1222.55
1222.67
1222.8
1222.92
1223.05
1223.17
1223.3
1223.42
1223.55
1223.68
1223.81
1223.93
1224.06
1224.19
1224.32
1224.45
1224.58
1224.71
1224.84
1224.97
1225.1
1225.23
1225.35
1225.48
1225.61
1225.74
1225.86
1225.99
1226.12
1226.24
1226.37
1226.5
1226.62
1226.75
1226.88
1227.01
1227.14
1227.26
1227.39
1227.52
1227.64
1227.76
1227.88
1228
1228.12
1228.23
1228.34
1228.45
1228.56
1228.66
1228.76
1228.86
1228.96
1229.05
1229.15
1229.24
1229.33
1229.42
1229.51
1229.59
1229.68
1229.76
1229.83
1229.9
1229.97
1230.02
1230.07
1230.11
1230.13
1230.14
1230.12
1230.09
1230.03
1229.96
1229.87
1229.77
1229.66
1229.53
1229.4
1229.26
1229.11
1228.96
1228.8
1228.64
1228.48
1228.32
1228.15
1227.99
1227.82
1227.66
1227.5
1227.33
1227.17
1227.01
1226.85
1226.7
1226.55
1226.4
1226.25
1226.11
1225.96
1225.82
1225.68
1225.55
1225.41
1225.27
1225.13
1224.99
1224.84
1224.71
1224.54
1224.44
1224.17
1224.18
1223.72
1223.94
1223.09
1223.77
1222.29
1223.75
1221.51
1224.08
1221.11
1225.02
1221.68
1226.98
1224.04
1230.51
1229.38
1237.19
1241
1253.87
1272.65
1304.51
1334.66
1332.75
1336.68
1337.75
1339.1
1341.29
1340.87
1342.56
1340.92
1342.56
1079.81
1081.12
1082.23
1084.75
1086.01
1088.24
1089.3
1090.96
1091.8
1093
1093.71
1094.6
1095.2
1095.88
1096.41
1096.98
1097.48
1097.98
1098.44
1098.9
1099.34
1099.78
1100.2
1100.62
1101.03
1101.44
1101.85
1102.25
1102.65
1103.04
1103.43
1103.82
1104.2
1104.58
1104.96
1105.34
1105.72
1106.09
1106.47
1106.84
1107.21
1107.58
1107.94
1108.31
1108.68
1109.05
1109.41
1109.78
1110.16
1110.53
1110.9
1111.28
1111.66
1112.03
1112.42
1112.8
1113.18
1113.56
1113.95
1114.33
1114.72
1115.1
1115.48
1115.87
1116.25
1116.63
1117.01
1117.38
1117.76
1118.13
1118.5
1118.87
1119.24
1119.61
1119.98
1120.34
1120.71
1121.07
1121.44
1121.8
1122.16
1122.53
1122.89
1123.25
1123.61
1123.97
1124.32
1124.68
1125.04
1125.4
1125.75
1126.11
1126.47
1126.84
1127.21
1127.59
1127.97
1128.37
1128.78
1129.21
1129.66
1130.14
1130.66
1131.22
1131.83
1132.51
1133.27
1134.14
1135.1
1136.31
1137.99
1140.08
1143.02
1147.29
1151.52
1153.81
1153.89
1151.97
1148.35
1145.43
1144.15
1140.53
1136.19
1136.74
1140.62
1140.42
1136.13
1132.58
1131.14
1134.65
1141.68
1143.37
1139.8
1137.05
1135.02
1133.5
1136.76
1142.51
1141.13
1134.23
1129.01
1124.26
1119.09
1116.9
1122.7
1132.76
1135.9
1132.06
1128.53
1126.96
1128.56
1134.12
1139.02
1139.65
1141.08
1147.94
1156.03
1161.22
1161.55
1154.8
1146.71
1144.08
1143.94
1142.73
1140.44
1137.24
1136.64
1141
1145.06
1145.05
1145.16
1149.7
1156.08
1159.93
1161.36
1162.96
1165.83
1166.77
1161.4
1154.26
1151.85
1151.1
1148.69
1146.7
1148.01
1153.23
1159.16
1162.33
1163.44
1164.75
1166.98
1166.98
1159.8
1150.23
1148.1
1153.86
1160.69
1163.5
1163.42
1163.09
1163.31
1163.68
1163.76
1163.9
1164.06
1164.22
1164.44
1164.65
1164.99
1165.16
1165.51
1165.74
1166.01
1166.29
1166.44
1166.35
1165.58
1164.89
1164.3
1163.65
1163.07
1162.44
1161.83
1161.24
1160.63
1160.09
1159.5
1159.03
1158.48
1158.08
1157.61
1157.28
1156.9
1156.67
1156.37
1156.25
1155.99
1156.01
1155.77
1155.99
1155.81
1156.09
1155.89
1156.49
1156.42
1156.66
1156.62
1156.64
1157.03
1157.19
1157.35
1157.61
1157.8
1158.12
1158.33
1158.41
1158.54
1158.7
1158.95
1159.2
1159.45
1159.71
1160.19
1160.62
1161.1
1161.48
1161.91
1162.27
1162.66
1163.03
1163.38
1163.66
1163.95
1164.17
1164.38
1164.56
1164.73
1164.84
1164.95
1165.05
1165.14
1165.19
1165.21
1165.2
1165.2
1165.19
1165.18
1165.14
1165.13
1165.11
1165.11
1165.09
1165.08
1165.07
1165.08
1165.09
1165.12
1165.13
1165.14
1165.15
1165.16
1165.18
1165.21
1165.24
1165.29
1165.34
1165.4
1165.46
1165.52
1165.59
1165.67
1165.74
1165.82
1165.9
1165.98
1166.06
1166.14
1166.21
1166.28
1166.35
1166.41
1166.46
1166.5
1166.54
1166.57
1166.59
1166.61
1166.62
1166.62
1166.61
1166.6
1166.57
1166.54
1166.49
1166.44
1166.37
1166.29
1166.2
1166.11
1166.01
1165.9
1165.79
1165.68
1165.56
1165.45
1165.34
1165.24
1165.15
1165.07
1165.01
1164.97
1164.94
1164.94
1164.97
1165.02
1165.1
1165.21
1165.35
1165.51
1165.69
1165.89
1166.11
1166.35
1166.6
1166.86
1167.12
1167.38
1167.62
1167.84
1168.05
1168.27
1168.49
1168.72
1168.95
1169.18
1169.41
1169.63
1169.85
1170.05
1170.25
1170.43
1170.6
1170.74
1170.88
1171
1171.11
1171.21
1171.32
1171.42
1171.53
1171.64
1171.76
1171.87
1172
1172.12
1172.25
1172.39
1172.52
1172.66
1172.79
1172.92
1173.05
1173.19
1173.32
1173.44
1173.57
1173.7
1173.82
1173.95
1174.07
1174.2
1174.32
1174.45
1174.57
1174.7
1174.83
1174.96
1175.09
1175.21
1175.34
1175.47
1175.6
1175.73
1175.86
1175.99
1176.12
1176.25
1176.38
1176.5
1176.63
1176.76
1176.89
1177.01
1177.14
1177.27
1177.39
1177.52
1177.65
1177.77
1177.9
1178.03
1178.16
1178.29
1178.41
1178.54
1178.67
1178.79
1178.91
1179.03
1179.15
1179.27
1179.38
1179.49
1179.6
1179.71
1179.81
1179.91
1180.01
1180.11
1180.2
1180.3
1180.39
1180.48
1180.57
1180.66
1180.74
1180.83
1180.91
1180.98
1181.05
1181.12
1181.17
1181.22
1181.26
1181.28
1181.28
1181.27
1181.24
1181.18
1181.11
1181.02
1180.92
1180.81
1180.68
1180.55
1180.41
1180.26
1180.11
1179.95
1179.79
1179.63
1179.47
1179.31
1179.14
1178.98
1178.81
1178.65
1178.48
1178.32
1178.16
1178.01
1177.85
1177.7
1177.55
1177.4
1177.26
1177.12
1176.98
1176.84
1176.7
1176.56
1176.42
1176.28
1176.14
1176
1175.86
1175.69
1175.59
1175.33
1175.32
1174.87
1175.08
1174.26
1174.9
1173.5
1174.86
1172.77
1175.16
1172.44
1176.08
1173.08
1178.03
1175.52
1181.63
1180.97
1188.56
1192.87
1205.79
1224.63
1253.66
1282.7
1283.26
1287.39
1288.64
1289.92
1292.24
1291.86
1293.67
1291.94
1293.76
1030.71
1032.18
1033.29
1035.89
1037.17
1039.43
1040.5
1042.17
1043
1044.18
1044.89
1045.77
1046.37
1047.05
1047.58
1048.15
1048.65
1049.15
1049.6
1050.06
1050.5
1050.93
1051.35
1051.77
1052.18
1052.59
1052.99
1053.39
1053.79
1054.18
1054.57
1054.96
1055.35
1055.73
1056.11
1056.49
1056.87
1057.24
1057.61
1057.99
1058.36
1058.73
1059.09
1059.46
1059.83
1060.19
1060.56
1060.93
1061.3
1061.68
1062.05
1062.43
1062.81
1063.18
1063.57
1063.95
1064.33
1064.71
1065.1
1065.48
1065.86
1066.25
1066.63
1067.02
1067.4
1067.78
1068.16
1068.53
1068.91
1069.28
1069.65
1070.02
1070.39
1070.76
1071.13
1071.49
1071.86
1072.22
1072.59
1072.95
1073.31
1073.67
1074.04
1074.4
1074.76
1075.11
1075.47
1075.83
1076.19
1076.54
1076.9
1077.26
1077.62
1077.99
1078.36
1078.73
1079.12
1079.51
1079.92
1080.35
1080.8
1081.28
1081.79
1082.35
1082.96
1083.64
1084.39
1085.26
1086.23
1087.47
1089.14
1091.17
1093.91
1097.72
1101.39
1103.39
1103.51
1101.93
1098.97
1096.26
1094.64
1091.61
1088.36
1088.61
1091.03
1090.67
1087.43
1084.46
1083.48
1086.65
1091.92
1093.13
1090.67
1088.38
1086.48
1085.56
1088.37
1092.31
1090.92
1085.58
1080.86
1076.27
1072.15
1071.06
1075.87
1083.23
1085.77
1083.37
1080.67
1079.66
1081.51
1085.95
1089.76
1091.13
1093.41
1099.24
1105.78
1110.14
1110.43
1105.17
1098.69
1095.96
1095.28
1094.01
1092.01
1089.65
1089.51
1092.86
1095.88
1096.48
1097.49
1101.36
1106.49
1110.12
1111.92
1113.51
1115.69
1116.06
1111.77
1106.07
1103.61
1102.43
1100.28
1098.95
1100.56
1104.89
1109.64
1112.63
1114.05
1115.33
1116.93
1116.42
1110.54
1103.12
1101.48
1105.82
1111.22
1113.89
1114.25
1114.12
1114.35
1114.71
1114.83
1114.98
1115.16
1115.32
1115.54
1115.76
1116.08
1116.28
1116.63
1116.87
1117.16
1117.43
1117.56
1117.43
1116.73
1116.07
1115.46
1114.81
1114.21
1113.59
1112.98
1112.39
1111.79
1111.24
1110.66
1110.18
1109.65
1109.23
1108.77
1108.44
1108.07
1107.82
1107.54
1107.4
1107.16
1107.16
1106.95
1107.14
1106.98
1107.24
1107.09
1107.61
1107.57
1107.78
1107.78
1107.83
1108.17
1108.33
1108.51
1108.76
1108.96
1109.26
1109.46
1109.56
1109.7
1109.86
1110.11
1110.35
1110.61
1110.89
1111.35
1111.77
1112.24
1112.63
1113.05
1113.42
1113.8
1114.17
1114.52
1114.8
1115.09
1115.31
1115.52
1115.7
1115.87
1115.98
1116.09
1116.19
1116.28
1116.33
1116.35
1116.35
1116.35
1116.34
1116.33
1116.29
1116.28
1116.26
1116.26
1116.24
1116.23
1116.22
1116.23
1116.25
1116.27
1116.28
1116.29
1116.3
1116.31
1116.33
1116.36
1116.4
1116.44
1116.49
1116.55
1116.61
1116.68
1116.74
1116.82
1116.89
1116.97
1117.05
1117.13
1117.21
1117.29
1117.36
1117.43
1117.5
1117.56
1117.61
1117.65
1117.69
1117.72
1117.74
1117.76
1117.77
1117.77
1117.76
1117.75
1117.72
1117.69
1117.64
1117.58
1117.52
1117.44
1117.35
1117.26
1117.16
1117.05
1116.94
1116.83
1116.71
1116.6
1116.5
1116.4
1116.31
1116.23
1116.17
1116.13
1116.1
1116.1
1116.13
1116.18
1116.26
1116.37
1116.51
1116.66
1116.85
1117.05
1117.27
1117.51
1117.76
1118.01
1118.28
1118.53
1118.77
1118.99
1119.2
1119.42
1119.64
1119.87
1120.1
1120.33
1120.56
1120.78
1121
1121.2
1121.4
1121.58
1121.75
1121.89
1122.03
1122.15
1122.26
1122.37
1122.47
1122.58
1122.69
1122.8
1122.91
1123.03
1123.15
1123.28
1123.41
1123.54
1123.67
1123.81
1123.94
1124.08
1124.21
1124.34
1124.47
1124.6
1124.73
1124.85
1124.98
1125.1
1125.23
1125.35
1125.48
1125.6
1125.73
1125.86
1125.98
1126.11
1126.24
1126.37
1126.5
1126.63
1126.76
1126.89
1127.02
1127.15
1127.28
1127.4
1127.53
1127.66
1127.79
1127.91
1128.04
1128.17
1128.29
1128.42
1128.55
1128.67
1128.8
1128.93
1129.06
1129.18
1129.31
1129.44
1129.57
1129.69
1129.82
1129.94
1130.07
1130.19
1130.31
1130.42
1130.54
1130.65
1130.76
1130.86
1130.97
1131.07
1131.17
1131.26
1131.36
1131.45
1131.55
1131.64
1131.73
1131.81
1131.9
1131.98
1132.06
1132.14
1132.21
1132.27
1132.33
1132.37
1132.41
1132.43
1132.44
1132.42
1132.39
1132.33
1132.26
1132.17
1132.07
1131.96
1131.84
1131.7
1131.56
1131.42
1131.26
1131.11
1130.95
1130.79
1130.63
1130.46
1130.3
1130.13
1129.97
1129.8
1129.64
1129.48
1129.32
1129.16
1129.01
1128.86
1128.71
1128.56
1128.42
1128.27
1128.13
1127.99
1127.86
1127.72
1127.58
1127.44
1127.3
1127.15
1127.02
1126.84
1126.74
1126.49
1126.47
1126.04
1126.22
1125.46
1126.01
1124.75
1125.94
1124.1
1126.2
1123.87
1127.1
1124.62
1129.06
1127.17
1132.76
1132.79
1140.04
1145.12
1158.09
1176.83
1203.43
1230.45
1233.45
1237.85
1239.4
1240.64
1243.05
1242.81
1244.7
1243.06
1244.82
981.524
983.178
984.32
987.021
988.326
990.615
991.674
993.347
994.177
995.365
996.059
996.935
997.529
998.203
998.729
999.295
999.788
1000.29
1000.74
1001.21
1001.64
1002.08
1002.5
1002.92
1003.33
1003.74
1004.15
1004.55
1004.94
1005.34
1005.73
1006.11
1006.5
1006.88
1007.26
1007.64
1008.02
1008.39
1008.76
1009.14
1009.5
1009.87
1010.24
1010.61
1010.97
1011.34
1011.71
1012.08
1012.45
1012.82
1013.2
1013.57
1013.95
1014.33
1014.71
1015.09
1015.47
1015.86
1016.24
1016.63
1017.01
1017.4
1017.78
1018.16
1018.54
1018.92
1019.3
1019.68
1020.05
1020.43
1020.8
1021.17
1021.54
1021.91
1022.27
1022.64
1023
1023.37
1023.73
1024.1
1024.46
1024.82
1025.18
1025.54
1025.9
1026.26
1026.62
1026.98
1027.33
1027.69
1028.05
1028.41
1028.77
1029.13
1029.5
1029.88
1030.26
1030.66
1031.07
1031.49
1031.94
1032.42
1032.93
1033.48
1034.09
1034.76
1035.51
1036.37
1037.35
1038.6
1040.23
1042.2
1044.77
1048.17
1051.37
1053.12
1053.29
1051.97
1049.5
1047.02
1045.29
1042.71
1040.2
1040.22
1041.61
1041.1
1038.58
1036.18
1035.55
1038.24
1042.2
1043.14
1041.41
1039.48
1037.78
1037.23
1039.53
1042.23
1040.95
1036.73
1032.53
1028.29
1024.98
1024.47
1028.41
1033.94
1036.04
1034.58
1032.6
1032.02
1033.91
1037.51
1040.65
1042.46
1045.15
1050.19
1055.61
1059.27
1059.53
1055.4
1050.18
1047.53
1046.54
1045.25
1043.52
1041.79
1041.89
1044.48
1046.85
1047.85
1049.34
1052.7
1056.94
1060.31
1062.3
1063.87
1065.54
1065.56
1062.1
1057.5
1055.09
1053.69
1051.82
1050.98
1052.62
1056.26
1060.18
1062.96
1064.52
1065.75
1066.91
1066.14
1061.33
1055.56
1054.28
1057.6
1061.91
1064.38
1065
1065.04
1065.31
1065.68
1065.84
1066.01
1066.19
1066.36
1066.59
1066.81
1067.13
1067.36
1067.72
1068
1068.29
1068.57
1068.68
1068.54
1067.91
1067.25
1066.63
1065.97
1065.37
1064.74
1064.13
1063.54
1062.94
1062.4
1061.82
1061.34
1060.81
1060.39
1059.94
1059.6
1059.23
1058.98
1058.7
1058.56
1058.33
1058.32
1058.13
1058.29
1058.15
1058.39
1058.28
1058.74
1058.72
1058.92
1058.94
1059.01
1059.31
1059.48
1059.67
1059.91
1060.12
1060.4
1060.6
1060.72
1060.86
1061.03
1061.27
1061.51
1061.77
1062.06
1062.51
1062.92
1063.39
1063.78
1064.2
1064.56
1064.95
1065.31
1065.66
1065.95
1066.23
1066.46
1066.67
1066.85
1067.01
1067.13
1067.24
1067.34
1067.43
1067.47
1067.5
1067.5
1067.5
1067.49
1067.48
1067.45
1067.43
1067.41
1067.41
1067.39
1067.39
1067.38
1067.39
1067.4
1067.42
1067.43
1067.44
1067.45
1067.47
1067.49
1067.52
1067.55
1067.6
1067.65
1067.71
1067.76
1067.83
1067.9
1067.97
1068.05
1068.13
1068.2
1068.28
1068.36
1068.44
1068.52
1068.59
1068.65
1068.71
1068.76
1068.81
1068.84
1068.88
1068.9
1068.91
1068.92
1068.92
1068.91
1068.9
1068.88
1068.84
1068.8
1068.74
1068.67
1068.59
1068.5
1068.41
1068.31
1068.21
1068.09
1067.98
1067.87
1067.76
1067.65
1067.56
1067.47
1067.39
1067.33
1067.29
1067.26
1067.26
1067.29
1067.34
1067.43
1067.54
1067.67
1067.83
1068.01
1068.21
1068.43
1068.67
1068.92
1069.17
1069.43
1069.69
1069.92
1070.15
1070.36
1070.58
1070.8
1071.03
1071.26
1071.49
1071.71
1071.94
1072.15
1072.36
1072.55
1072.74
1072.9
1073.05
1073.18
1073.3
1073.42
1073.52
1073.63
1073.74
1073.84
1073.96
1074.07
1074.19
1074.31
1074.44
1074.57
1074.7
1074.83
1074.97
1075.1
1075.24
1075.37
1075.5
1075.63
1075.76
1075.88
1076.01
1076.14
1076.26
1076.39
1076.51
1076.64
1076.76
1076.89
1077.02
1077.14
1077.27
1077.4
1077.53
1077.66
1077.79
1077.92
1078.05
1078.18
1078.31
1078.44
1078.56
1078.69
1078.82
1078.95
1079.07
1079.2
1079.33
1079.45
1079.58
1079.71
1079.83
1079.96
1080.09
1080.22
1080.34
1080.47
1080.6
1080.73
1080.85
1080.98
1081.1
1081.23
1081.35
1081.47
1081.58
1081.7
1081.81
1081.92
1082.02
1082.13
1082.23
1082.33
1082.42
1082.52
1082.61
1082.71
1082.8
1082.89
1082.97
1083.06
1083.14
1083.22
1083.3
1083.37
1083.43
1083.49
1083.53
1083.57
1083.59
1083.59
1083.58
1083.55
1083.49
1083.42
1083.33
1083.23
1083.12
1083
1082.86
1082.72
1082.58
1082.43
1082.27
1082.11
1081.95
1081.79
1081.63
1081.46
1081.3
1081.13
1080.97
1080.81
1080.65
1080.49
1080.33
1080.18
1080.02
1079.87
1079.73
1079.58
1079.44
1079.3
1079.16
1079.02
1078.88
1078.75
1078.61
1078.47
1078.32
1078.18
1078.01
1077.91
1077.66
1077.63
1077.22
1077.37
1076.66
1077.14
1075.99
1077.06
1075.41
1077.31
1075.26
1078.21
1076.12
1080.2
1078.78
1084.03
1084.59
1091.66
1097.31
1110.25
1128.63
1153
1178.31
1183.3
1188.01
1189.93
1191.06
1193.63
1193.44
1195.63
1194.12
1196.24
932.244
934.139
935.312
938.145
939.477
941.804
942.865
944.545
945.372
946.556
947.245
948.114
948.702
949.375
949.899
950.465
950.954
951.452
951.906
952.366
952.799
953.231
953.651
954.07
954.481
954.89
955.294
955.695
956.091
956.483
956.874
957.261
957.645
958.028
958.408
958.787
959.164
959.539
959.912
960.283
960.652
961.021
961.388
961.754
962.121
962.489
962.857
963.227
963.599
963.971
964.346
964.721
965.099
965.478
965.859
966.24
966.623
967.006
967.39
967.775
968.159
968.544
968.927
969.311
969.692
970.073
970.452
970.829
971.204
971.578
971.949
972.319
972.688
973.055
973.422
973.788
974.153
974.518
974.882
975.246
975.609
975.972
976.333
976.694
977.053
977.412
977.77
978.126
978.484
978.84
979.198
979.556
979.916
980.279
980.648
981.022
981.407
981.8
982.208
982.633
983.08
983.553
984.059
984.609
985.21
985.879
986.622
987.477
988.458
989.702
991.298
993.192
995.596
998.642
1001.44
1002.99
1003.18
1002.08
999.991
997.758
996.036
993.812
991.803
991.616
992.302
991.649
989.598
987.665
987.304
989.547
992.527
993.235
991.979
990.338
988.85
988.538
990.362
992.205
991.079
987.715
983.992
980.15
977.48
977.3
980.507
984.721
986.487
985.675
984.324
984.094
985.884
988.865
991.55
993.589
996.424
1000.84
1005.4
1008.5
1008.75
1005.53
1001.3
998.785
997.619
996.39
994.934
993.683
993.895
995.908
997.846
999.064
1000.8
1003.79
1007.39
1010.49
1012.53
1014.06
1015.36
1015.19
1012.38
1008.62
1006.32
1004.82
1003.23
1002.74
1004.32
1007.41
1010.72
1013.27
1014.87
1016.04
1016.87
1016.01
1012.09
1007.62
1006.62
1009.17
1012.65
1014.9
1015.68
1015.88
1016.19
1016.58
1016.78
1016.97
1017.17
1017.35
1017.59
1017.81
1018.13
1018.4
1018.79
1019.1
1019.42
1019.69
1019.82
1019.66
1019.08
1018.45
1017.8
1017.14
1016.52
1015.89
1015.28
1014.69
1014.1
1013.55
1012.99
1012.5
1011.98
1011.55
1011.11
1010.76
1010.4
1010.15
1009.88
1009.73
1009.51
1009.48
1009.31
1009.45
1009.32
1009.55
1009.47
1009.87
1009.88
1010.07
1010.1
1010.19
1010.46
1010.64
1010.83
1011.07
1011.28
1011.55
1011.74
1011.87
1012.02
1012.2
1012.43
1012.67
1012.94
1013.24
1013.67
1014.08
1014.54
1014.93
1015.35
1015.71
1016.1
1016.45
1016.8
1017.09
1017.37
1017.6
1017.81
1017.99
1018.15
1018.28
1018.39
1018.48
1018.57
1018.62
1018.65
1018.65
1018.65
1018.64
1018.63
1018.6
1018.59
1018.57
1018.56
1018.55
1018.54
1018.54
1018.55
1018.56
1018.57
1018.59
1018.6
1018.61
1018.63
1018.65
1018.68
1018.71
1018.76
1018.81
1018.87
1018.92
1018.99
1019.06
1019.13
1019.21
1019.29
1019.36
1019.44
1019.52
1019.6
1019.67
1019.75
1019.81
1019.87
1019.92
1019.97
1020
1020.03
1020.06
1020.07
1020.08
1020.08
1020.07
1020.06
1020.03
1020
1019.95
1019.89
1019.83
1019.75
1019.66
1019.57
1019.47
1019.37
1019.26
1019.15
1019.03
1018.92
1018.82
1018.72
1018.63
1018.56
1018.5
1018.46
1018.43
1018.44
1018.46
1018.52
1018.6
1018.71
1018.84
1019
1019.18
1019.38
1019.6
1019.83
1020.08
1020.34
1020.59
1020.85
1021.08
1021.31
1021.52
1021.74
1021.97
1022.19
1022.42
1022.65
1022.88
1023.1
1023.31
1023.52
1023.71
1023.9
1024.06
1024.21
1024.34
1024.46
1024.58
1024.69
1024.79
1024.9
1025.01
1025.12
1025.24
1025.36
1025.48
1025.61
1025.74
1025.87
1026
1026.14
1026.27
1026.4
1026.53
1026.67
1026.8
1026.93
1027.05
1027.18
1027.3
1027.43
1027.55
1027.68
1027.81
1027.93
1028.06
1028.19
1028.31
1028.44
1028.57
1028.7
1028.83
1028.96
1029.09
1029.22
1029.35
1029.48
1029.6
1029.73
1029.86
1029.99
1030.12
1030.24
1030.37
1030.5
1030.62
1030.75
1030.88
1031
1031.13
1031.26
1031.38
1031.51
1031.64
1031.77
1031.9
1032.02
1032.15
1032.27
1032.4
1032.52
1032.64
1032.75
1032.87
1032.98
1033.09
1033.19
1033.3
1033.4
1033.5
1033.59
1033.69
1033.78
1033.88
1033.97
1034.06
1034.14
1034.23
1034.31
1034.39
1034.47
1034.54
1034.6
1034.65
1034.7
1034.73
1034.75
1034.76
1034.74
1034.71
1034.66
1034.59
1034.5
1034.4
1034.29
1034.17
1034.04
1033.9
1033.75
1033.6
1033.45
1033.29
1033.13
1032.96
1032.8
1032.64
1032.47
1032.31
1032.15
1031.98
1031.82
1031.67
1031.51
1031.35
1031.2
1031.05
1030.91
1030.76
1030.62
1030.48
1030.34
1030.2
1030.06
1029.92
1029.78
1029.64
1029.5
1029.36
1029.19
1029.08
1028.84
1028.8
1028.41
1028.53
1027.87
1028.29
1027.26
1028.19
1026.75
1028.44
1026.7
1029.34
1027.67
1031.4
1030.47
1035.39
1036.51
1043.42
1049.67
1062.53
1080.46
1102.85
1126.46
1132.93
1137.96
1140.31
1141.38
1144.03
1143.99
1146.35
1145.29
1147.56
882.868
885.083
886.312
889.303
890.665
893.026
894.076
895.754
896.566
897.742
898.42
899.284
899.868
900.536
901.057
901.619
902.105
902.601
903.055
903.514
903.948
904.381
904.802
905.221
905.632
906.042
906.446
906.846
907.243
907.635
908.025
908.413
908.797
909.18
909.56
909.939
910.316
910.69
911.062
911.433
911.802
912.17
912.536
912.902
913.269
913.636
914.004
914.374
914.745
915.117
915.491
915.866
916.245
916.623
917.004
917.386
917.768
918.152
918.537
918.922
919.306
919.691
920.075
920.459
920.841
921.221
921.601
921.978
922.353
922.727
923.099
923.468
923.837
924.204
924.571
924.937
925.303
925.666
926.03
926.394
926.758
927.121
927.481
927.842
928.201
928.561
928.918
929.275
929.632
929.989
930.346
930.703
931.064
931.426
931.795
932.167
932.55
932.942
933.348
933.77
934.214
934.684
935.187
935.732
936.328
936.989
937.724
938.572
939.55
940.78
942.326
944.144
946.392
949.128
951.595
952.965
953.186
952.259
950.479
948.485
946.845
944.915
943.249
942.884
943.053
942.277
940.554
938.992
938.78
940.624
942.89
943.405
942.412
940.987
939.705
939.494
940.896
942.173
941.255
938.561
935.315
931.902
929.686
929.626
932.196
935.491
937.034
936.67
935.817
935.855
937.515
940.036
942.41
944.531
947.347
951.227
955.104
957.767
958.071
955.557
952.09
949.752
948.52
947.393
946.214
945.33
945.599
947.192
948.806
950.106
951.917
954.627
957.786
960.644
962.674
964.129
965.16
964.879
962.574
959.465
957.32
955.83
954.484
954.23
955.693
958.333
961.18
963.52
965.111
966.218
966.836
965.96
962.796
959.342
958.578
960.564
963.396
965.415
966.297
966.615
966.98
967.391
967.653
967.877
968.097
968.295
968.527
968.746
969.084
969.395
969.82
970.178
970.528
970.827
970.96
970.813
970.283
969.647
968.983
968.306
967.677
967.043
966.433
965.844
965.252
964.712
964.158
963.667
963.153
962.721
962.277
961.927
961.578
961.322
961.052
960.898
960.685
960.654
960.496
960.608
960.504
960.716
960.661
961.012
961.036
961.216
961.271
961.371
961.622
961.8
961.998
962.229
962.438
962.694
962.89
963.033
963.192
963.367
963.6
963.841
964.117
964.422
964.844
965.242
965.696
966.083
966.502
966.868
967.252
967.603
967.948
968.236
968.519
968.745
968.96
969.137
969.301
969.425
969.54
969.635
969.719
969.768
969.799
969.803
969.806
969.795
969.785
969.762
969.749
969.73
969.724
969.71
969.706
969.699
969.708
969.717
969.735
969.747
969.762
969.772
969.79
969.81
969.841
969.877
969.924
969.972
970.03
970.09
970.157
970.225
970.299
970.373
970.452
970.528
970.609
970.686
970.766
970.839
970.91
970.973
971.033
971.084
971.129
971.166
971.198
971.22
971.236
971.243
971.244
971.237
971.221
971.197
971.162
971.116
971.058
970.99
970.913
970.828
970.735
970.636
970.532
970.423
970.313
970.201
970.093
969.989
969.893
969.805
969.732
969.672
969.633
969.612
969.615
969.642
969.697
969.778
969.887
970.021
970.179
970.359
970.558
970.775
971.01
971.257
971.511
971.765
972.016
972.253
972.479
972.696
972.916
973.138
973.366
973.593
973.823
974.048
974.27
974.484
974.689
974.882
975.063
975.227
975.376
975.511
975.635
975.75
975.86
975.968
976.076
976.185
976.297
976.412
976.532
976.655
976.781
976.911
977.043
977.176
977.31
977.444
977.578
977.71