/*--------------------------------*- C++ -*----------------------------------*\
| =========                 |                                                 |
| \\      /  F ield         | foam-extend: Open Source CFD                    |
|  \\    /   O peration     | Version:     3.2                                |
|   \\  /    A nd           | Web:         http://www.foam-extend.org         |
|    \\/     M anipulation  | For copyright notice see file Copyright         |
\*---------------------------------------------------------------------------*/
FoamFile
{
    version     2.0;
    format      ascii;
    class       areaScalarField;
    location    "910";
    object      Pef;
}
// * * * * * * * * * * * * * * * * * * * * * * * * * * * * * * * * * * * * * //

dimensions      [0 0 0 0 0 0 0];

internalField   nonuniform List<scalar> 
550
(
0
0
0
0.0209777
0.0639221
0.109998
0.156515
0.20428
0.248729
0.287863
0.324577
0.352818
0.378099
0.396246
0.407646
0.417329
0.421451
0.420661
0.418613
0.414545
0.408882
0.40345
0.394192
0.387187
0.37835
0.369332
0.360306
0.350043
0.342836
0.334523
0.326511
0.318834
0.310213
0.303292
0.296751
0.290584
0.28603
0.279335
0.274224
0.270659
0.264944
0.260744
0.258013
0.253143
0.249714
0.246517
0.243537
0.240763
0.238181
0.235776
0.234752
0.23267
0.229476
0.22888
0.225897
0.225498
0.222705
0.222446
0.221033
0.218511
0.217251
0.217201
0.216049
0.214953
0.213911
0.211808
0.211966
0.209955
0.210186
0.208249
0.207443
0.207783
0.207041
0.205187
0.204476
0.204934
0.204256
0.203582
0.201741
0.202231
0.200403
0.199739
0.20018
0.199492
0.198806
0.198125
0.197454
0.195849
0.195234
0.194632
0.194046
0.194359
0.192914
0.192364
0.192724
0.192199
0.190756
0.191164
0.189701
0.189176
0.188651
0.189091
0.188567
0.187074
0.187505
0.186963
0.186412
0.185854
0.185286
0.18471
0.184121
0.168565
0.182033
0.181491
0.145795
0.150193
0.179641
0.132117
0.143318
0.177923
0.177305
0.112598
0.175928
0.175378
0.175552
0.0793563
0.173298
0.172763
0.172427
0.171751
0.171565
0.0693368
0.169569
0.169096
0.168332
0.16773
0.167166
0.166581
0.165788
0.164963
0.164226
0.16421
0.163218
0.162597
0.162082
0.161375
0.160673
0.159968
0.159395
0.158867
0.15821
0.158247
0.156734
0.156263
0.156033
0.155712
0.154391
0.154085
0.153495
0.152729
0.152153
0.151683
0.151149
0.150768
0.150022
0.149425
0.149192
0.14893
0.147763
0.147427
0.147114
0.146446
0.145958
0.145472
0.144976
0.14456
0.144201
0.143858
0.143137
0.142726
0.14241
0.141898
0.141718
0.14129
0.140882
0.140547
0.139881
0.139645
0.139535
0.138936
0.13857
0.138296
0.137711
0.137521
0.137495
0.137226
0.136818
0.136474
0.135995
0.135992
0.135771
0.135162
0.134996
0.134746
0.134547
0.134428
0.134255
0.134227
0.133761
0.133781
0.133422
0.133195
0.133006
0.132789
0.132356
0.131043
0.130917
0.131333
0.131319
0.131539
0.131651
0.131782
0.131943
0.132035
0.132236
0.132308
0.132535
0.132597
0.132826
0.132884
0.13309
0.13314
0.133304
0.13333
0.133453
0.13342
0.13354
0.133416
0.133663
0.133375
0.133664
0.133339
0.133746
0.133605
0.133644
0.133578
0.133371
0.133436
0.133513
0.133348
0.133357
0.133263
0.133173
0.13323
0.133024
0.132926
0.132745
0.132728
0.132609
0.132655
0.132452
0.132536
0.132458
0.132526
0.132406
0.132359
0.132221
0.132119
0.131953
0.131876
0.131681
0.131549
0.131374
0.131214
0.131035
0.130904
0.13075
0.130608
0.130467
0.130378
0.130264
0.130173
0.13006
0.129983
0.129902
0.129854
0.129792
0.129757
0.12971
0.129699
0.12967
0.129663
0.129631
0.129627
0.129608
0.129609
0.129587
0.129576
0.129544
0.129527
0.129495
0.129482
0.129457
0.129447
0.129426
0.129414
0.129391
0.129376
0.12935
0.129332
0.129303
0.129281
0.129249
0.129222
0.129188
0.129158
0.12912
0.129085
0.129043
0.129003
0.128957
0.128915
0.128868
0.128825
0.12878
0.128736
0.128693
0.128652
0.128612
0.128574
0.128536
0.128502
0.128465
0.128432
0.128411
0.128398
0.128393
0.128392
0.128396
0.128403
0.128413
0.128427
0.128442
0.128461
0.128479
0.128498
0.128514
0.12853
0.128542
0.128552
0.128553
0.128559
0.128578
0.128601
0.128632
0.128664
0.128698
0.128724
0.128743
0.128755
0.128756
0.12875
0.128738
0.128717
0.128681
0.12864
0.128582
0.128508
0.12842
0.128332
0.12825
0.128175
0.1281
0.128029
0.127954
0.12788
0.127803
0.127724
0.127642
0.127558
0.127472
0.127383
0.127295
0.127207
0.127124
0.127048
0.126978
0.126917
0.126861
0.126813
0.126768
0.126728
0.126691
0.126656
0.126624
0.12659
0.126558
0.126524
0.126489
0.126452
0.126413
0.126374
0.126334
0.126294
0.126253
0.126211
0.126171
0.126129
0.126088
0.126048
0.126008
0.125968
0.125929
0.125886
0.125846
0.125804
0.125761
0.125717
0.125671
0.125624
0.125574
0.125523
0.12547
0.125414
0.125357
0.125299
0.125238
0.125177
0.125114
0.125052
0.124989
0.124925
0.124863
0.1248
0.12474
0.124678
0.12462
0.12456
0.124503
0.124445
0.12439
0.124333
0.124279
0.124225
0.124172
0.124121
0.12407
0.12402
0.123971
0.123922
0.123873
0.123825
0.123776
0.123729
0.123678
0.12363
0.123579
0.123528
0.123475
0.123421
0.123365
0.123309
0.12325
0.123189
0.123129
0.123065
0.123003
0.122939
0.122876
0.122813
0.122752
0.12269
0.122634
0.122576
0.122527
0.122475
0.122431
0.122405
0.1224
0.12241
0.122431
0.122464
0.122502
0.122549
0.1226
0.122657
0.122717
0.12278
0.122842
0.122906
0.122968
0.123029
0.123087
0.123143
0.123193
0.123242
0.123285
0.123325
0.123359
0.123393
0.123421
0.123449
0.123475
0.123503
0.123529
0.123559
0.123588
0.123622
0.123655
0.123696
0.123734
0.123785
0.123829
0.123893
0.123938
0.124017
0.124062
0.12415
0.124219
0.124273
0.124455
0.12431
0.124907
0.124233
0.125743
0.124165
0.126986
0.124119
0.128548
0.124131
0.13016
0.124282
0.131253
0.124738
0.131633
0.125899
0.133438
0.128813
0.138183
0.13488
0.041532
0.0222856
0.00115336
1.12931e-07
0.00143587
0
0
0
0
0
)
;

boundaryField
{
    inlet
    {
        type            calculated;
        value           uniform 0;
    }
    endWall
    {
        type            calculated;
        value           uniform 0;
    }
    sideWall
    {
        type            empty;
    }
}


// ************************************************************************* //
