/*--------------------------------*- C++ -*----------------------------------*\
| =========                 |                                                 |
| \\      /  F ield         | foam-extend: Open Source CFD                    |
|  \\    /   O peration     | Version:     3.2                                |
|   \\  /    A nd           | Web:         http://www.foam-extend.org         |
|    \\/     M anipulation  | For copyright notice see file Copyright         |
\*---------------------------------------------------------------------------*/
FoamFile
{
    version     2.0;
    format      ascii;
    class       areaScalarField;
    location    "910";
    object      SSe1;
}
// * * * * * * * * * * * * * * * * * * * * * * * * * * * * * * * * * * * * * //

dimensions      [0 1 -2 -1 0 0 0];

internalField   nonuniform List<scalar> 
550
(
6.89618e-07
1.27253e-06
2.13021e-06
3.29997e-06
4.79831e-06
6.60139e-06
8.56308e-06
1.08456e-05
1.30828e-05
1.50331e-05
1.72329e-05
1.86831e-05
2.04171e-05
2.15473e-05
2.20079e-05
2.2894e-05
2.31617e-05
2.28348e-05
2.27049e-05
2.24476e-05
2.20912e-05
2.20033e-05
2.11775e-05
2.09798e-05
2.04326e-05
1.98806e-05
1.93344e-05
1.8527e-05
1.82948e-05
1.78083e-05
1.73442e-05
1.69039e-05
1.62621e-05
1.58802e-05
1.5522e-05
1.51868e-05
1.50715e-05
1.45815e-05
1.43093e-05
1.42398e-05
1.38201e-05
1.36008e-05
1.35684e-05
1.32074e-05
1.30312e-05
1.28673e-05
1.27148e-05
1.25731e-05
1.24413e-05
1.23187e-05
1.23637e-05
1.22578e-05
1.19995e-05
1.20658e-05
1.18206e-05
1.18954e-05
1.16635e-05
1.17424e-05
1.16717e-05
1.14602e-05
1.13995e-05
1.14809e-05
1.14238e-05
1.13695e-05
1.1318e-05
1.11369e-05
1.12221e-05
1.1047e-05
1.11345e-05
1.09639e-05
1.09245e-05
1.10167e-05
1.09804e-05
1.08138e-05
1.07788e-05
1.08775e-05
1.08445e-05
1.08117e-05
1.06459e-05
1.07461e-05
1.05829e-05
1.05523e-05
1.06467e-05
1.06134e-05
1.05803e-05
1.05474e-05
1.05151e-05
1.03781e-05
1.03503e-05
1.03228e-05
1.02956e-05
1.03664e-05
1.02422e-05
1.02158e-05
1.0288e-05
1.0263e-05
1.01377e-05
1.02136e-05
1.00866e-05
1.00613e-05
1.00362e-05
1.01148e-05
1.009e-05
9.96166e-06
1.00396e-05
1.00139e-05
9.98779e-06
9.96138e-06
9.93453e-06
9.9065e-06
9.87848e-06
8.45535e-06
9.73488e-06
9.70748e-06
6.89895e-06
7.1999e-06
9.63222e-06
6.17869e-06
6.83778e-06
9.54987e-06
9.52038e-06
5.34522e-06
9.4715e-06
9.4432e-06
9.47488e-06
4.2404e-06
9.36932e-06
9.34114e-06
9.30532e-06
9.27529e-06
9.31618e-06
3.99701e-06
9.20907e-06
9.17676e-06
9.15112e-06
9.1253e-06
9.09406e-06
9.06337e-06
2.28053e-06
9.02108e-06
8.99878e-06
8.94952e-06
8.92608e-06
8.89973e-06
8.86702e-06
8.83918e-06
2.17181e-06
8.78976e-06
8.76148e-06
8.73101e-06
8.70326e-06
8.72371e-06
8.65544e-06
8.62768e-06
8.58641e-06
8.61389e-06
8.54667e-06
8.51252e-06
8.48297e-06
1.58827e-06
8.44023e-06
8.41226e-06
8.38586e-06
8.35532e-06
8.3359e-06
8.31605e-06
8.28209e-06
8.29704e-06
8.24647e-06
8.22135e-06
8.19078e-06
8.17188e-06
8.15209e-06
8.13085e-06
8.11084e-06
8.08994e-06
8.06733e-06
8.04401e-06
5.82915e-07
8.01635e-06
7.99387e-06
7.97769e-06
7.95462e-06
7.93706e-06
7.92077e-06
7.90205e-06
7.89484e-06
7.87824e-06
7.85338e-06
7.8429e-06
7.83073e-06
7.81424e-06
4.3929e-07
7.79344e-06
7.77025e-06
7.75355e-06
7.7444e-06
7.7341e-06
7.72851e-06
7.71033e-06
7.69448e-06
7.69412e-06
7.68401e-06
7.67254e-06
7.6618e-06
7.64909e-06
7.63806e-06
7.62192e-06
7.61774e-06
7.6033e-06
7.5952e-06
7.58712e-06
7.5764e-06
7.56607e-06
7.55904e-06
7.40705e-06
7.36663e-06
7.41882e-06
7.38531e-06
7.39068e-06
7.37776e-06
7.36826e-06
7.36715e-06
7.35347e-06
7.3609e-06
7.34504e-06
7.35783e-06
7.34206e-06
7.35714e-06
7.34412e-06
7.35905e-06
7.3497e-06
7.36365e-06
7.35608e-06
7.37052e-06
7.35851e-06
7.37993e-06
7.35152e-06
7.37018e-06
7.36254e-06
7.36677e-06
7.3476e-06
7.31997e-06
7.3751e-06
7.36441e-06
7.40011e-06
7.37926e-06
7.33385e-06
7.36875e-06
7.37703e-06
7.36438e-06
7.37734e-06
7.35262e-06
7.36965e-06
7.39138e-06
7.38508e-06
7.37048e-06
7.35915e-06
7.34862e-06
7.36027e-06
7.35296e-06
7.33235e-06
7.33438e-06
7.33986e-06
7.35669e-06
7.3582e-06
7.36579e-06
7.36925e-06
7.36478e-06
7.36865e-06
7.3764e-06
7.37214e-06
7.37521e-06
7.37505e-06
7.36968e-06
7.36464e-06
7.36494e-06
7.36162e-06
7.35246e-06
7.34704e-06
7.34645e-06
7.34534e-06
7.34199e-06
7.33511e-06
7.3289e-06
7.32416e-06
7.32054e-06
7.31653e-06
7.31142e-06
7.30698e-06
7.3049e-06
7.30317e-06
7.30062e-06
7.29658e-06
7.29409e-06
7.29227e-06
7.29167e-06
7.29129e-06
7.29024e-06
7.2882e-06
7.28588e-06
7.2829e-06
7.28048e-06
7.2784e-06
7.27694e-06
7.27547e-06
7.27428e-06
7.27294e-06
7.27178e-06
7.27062e-06
7.26963e-06
7.26861e-06
7.26768e-06
7.2666e-06
7.26561e-06
7.26481e-06
7.26411e-06
7.26345e-06
7.26298e-06
7.26221e-06
7.26131e-06
7.26025e-06
7.25916e-06
7.25774e-06
7.25648e-06
7.25497e-06
7.2534e-06
7.25173e-06
7.25013e-06
7.24851e-06
7.24692e-06
7.24542e-06
7.24408e-06
7.24071e-06
7.23714e-06
7.23366e-06
7.23092e-06
7.22837e-06
7.22623e-06
7.2241e-06
7.22204e-06
7.2204e-06
7.21897e-06
7.21785e-06
7.21675e-06
7.21631e-06
7.21582e-06
7.21578e-06
7.21591e-06
7.21699e-06
7.21691e-06
7.21357e-06
7.21002e-06
7.20731e-06
7.20555e-06
7.20439e-06
7.20427e-06
7.20507e-06
7.20552e-06
7.20687e-06
7.20855e-06
7.20945e-06
7.21073e-06
7.21348e-06
7.21572e-06
7.21796e-06
7.2217e-06
7.22482e-06
7.22559e-06
7.22352e-06
7.2205e-06
7.21821e-06
7.21651e-06
7.21538e-06
7.21461e-06
7.21379e-06
7.21335e-06
7.21285e-06
7.21233e-06
7.21168e-06
7.21134e-06
7.2103e-06
7.20875e-06
7.20675e-06
7.20389e-06
7.2007e-06
7.19728e-06
7.19389e-06
7.19065e-06
7.1876e-06
7.18507e-06
7.18276e-06
7.18076e-06
7.17889e-06
7.17765e-06
7.1764e-06
7.17542e-06
7.17464e-06
7.17386e-06
7.17321e-06
7.17251e-06
7.17164e-06
7.17081e-06
7.16995e-06
7.16907e-06
7.16797e-06
7.16705e-06
7.16594e-06
7.16478e-06
7.16361e-06
7.16264e-06
7.16141e-06
7.1605e-06
7.15937e-06
7.15821e-06
7.15723e-06
7.1561e-06
7.15508e-06
7.15387e-06
7.15265e-06
7.15157e-06
7.1503e-06
7.14904e-06
7.14759e-06
7.14602e-06
7.14448e-06
7.14299e-06
7.14121e-06
7.13953e-06
7.13758e-06
7.13589e-06
7.13401e-06
7.13225e-06
7.13031e-06
7.12853e-06
7.12669e-06
7.12498e-06
7.1232e-06
7.12144e-06
7.11951e-06
7.11783e-06
7.11607e-06
7.11426e-06
7.11282e-06
7.11103e-06
7.10944e-06
7.10793e-06
7.10629e-06
7.10471e-06
7.10302e-06
7.1014e-06
7.09973e-06
7.09779e-06
7.09603e-06
7.09411e-06
7.09177e-06
7.08965e-06
7.08742e-06
7.08497e-06
7.08244e-06
7.07977e-06
7.07709e-06
7.07438e-06
7.07137e-06
7.06858e-06
7.06559e-06
7.06252e-06
7.05982e-06
7.05691e-06
7.0542e-06
7.0517e-06
7.04909e-06
7.04666e-06
7.04445e-06
7.04254e-06
7.04068e-06
7.03763e-06
7.03133e-06
7.02616e-06
7.02216e-06
7.01845e-06
7.01575e-06
7.01302e-06
7.01099e-06
7.00905e-06
7.00773e-06
7.00633e-06
7.00536e-06
7.00433e-06
7.0035e-06
7.00261e-06
7.00182e-06
7.00084e-06
6.99998e-06
6.9989e-06
6.99777e-06
6.99649e-06
6.99534e-06
6.99382e-06
6.99237e-06
6.99081e-06
6.98924e-06
6.9875e-06
6.98613e-06
6.98439e-06
6.98311e-06
6.98146e-06
6.98042e-06
6.9789e-06
6.97817e-06
6.97659e-06
6.97624e-06
6.97455e-06
6.97509e-06
6.97304e-06
6.97353e-06
6.97276e-06
6.96998e-06
6.97544e-06
6.95937e-06
6.9896e-06
6.92773e-06
7.00684e-06
6.86912e-06
7.0052e-06
6.80524e-06
7.00037e-06
6.75273e-06
6.98902e-06
6.74002e-06
6.9648e-06
6.81478e-06
6.91546e-06
6.92211e-06
6.80564e-06
6.69448e-06
6.53636e-06
6.21177e-06
5.94948e-06
5.94284e-06
3.71488e-06
3.34589e-06
2.67285e-06
2.08087e-06
1.36728e-06
6.51459e-07
1.92913e-07
1.52578e-07
1.91682e-07
6.84865e-07
)
;

boundaryField
{
    inlet
    {
        type            calculated;
        value           uniform 0;
    }
    endWall
    {
        type            calculated;
        value           uniform 0;
    }
    sideWall
    {
        type            empty;
    }
}


// ************************************************************************* //
