/*--------------------------------*- C++ -*----------------------------------*\
| =========                 |                                                 |
| \\      /  F ield         | foam-extend: Open Source CFD                    |
|  \\    /   O peration     | Version:     3.2                                |
|   \\  /    A nd           | Web:         http://www.foam-extend.org         |
|    \\/     M anipulation  | For copyright notice see file Copyright         |
\*---------------------------------------------------------------------------*/
FoamFile
{
    version     2.0;
    format      ascii;
    class       areaScalarField;
    location    "910";
    object      Uf2;
}
// * * * * * * * * * * * * * * * * * * * * * * * * * * * * * * * * * * * * * //

dimensions      [0 1 -1 0 0 0 0];

internalField   nonuniform List<scalar> 
550
(
0.0377007
0.0372797
0.0366408
0.0359413
0.0352366
0.0345214
0.0338563
0.0331978
0.0325883
0.0319829
0.031415
0.0308609
0.0303397
0.0298351
0.0293547
0.0288887
0.0284459
0.0280229
0.0276196
0.0272303
0.0268573
0.0264993
0.0261568
0.0258298
0.0255194
0.0252256
0.0249489
0.0246881
0.0244408
0.0242063
0.0239837
0.0237726
0.0235731
0.0233848
0.0232072
0.0230399
0.0228824
0.0227342
0.0225946
0.022463
0.0223389
0.0222217
0.0221111
0.0220066
0.0219081
0.0218152
0.021728
0.0216462
0.0215694
0.0214975
0.0214298
0.0213661
0.0213058
0.0212485
0.0211937
0.021141
0.0210903
0.0210415
0.0209946
0.0209498
0.020907
0.0208662
0.0208275
0.0207908
0.0207561
0.0207231
0.020692
0.0206623
0.0206343
0.0206076
0.0205823
0.0205582
0.0205351
0.020513
0.0204916
0.0204709
0.0204508
0.0204311
0.0204113
0.0203917
0.0203721
0.0203525
0.0203329
0.0203133
0.0202939
0.0202746
0.0202558
0.0202373
0.0202194
0.0202023
0.0201861
0.0201706
0.020156
0.0201421
0.0201287
0.020116
0.0201037
0.0200917
0.0200798
0.0200679
0.0200561
0.0200445
0.0200325
0.0200205
0.0200081
0.0199957
0.0199823
0.0199699
0.0199541
0.0199422
0.0199451
0.0199296
0.0198953
0.0199056
0.0199216
0.0198599
0.0198129
0.0197919
0.0197968
0.0197762
0.0197598
0.0197299
0.0196955
0.0197569
0.0197983
0.0197229
0.0196213
0.0195718
0.0195862
0.0197006
0.0197608
0.0196393
0.0195284
0.0194839
0.0194439
0.0194584
0.0195822
0.0196375
0.0195086
0.0193786
0.0193704
0.0193111
0.0192693
0.0193869
0.0195386
0.019579
0.0194371
0.0192854
0.0192288
0.019242
0.0193516
0.0193775
0.0192327
0.0191629
0.0192628
0.0193174
0.0192311
0.0191258
0.0190927
0.0190824
0.019077
0.0190638
0.0190403
0.0190059
0.0189417
0.0189446
0.0190473
0.0190843
0.0189707
0.0188827
0.0189552
0.0190336
0.0189619
0.018856
0.0188364
0.0188396
0.0188297
0.0188023
0.0187824
0.0187846
0.0187645
0.0187224
0.0186897
0.0187026
0.018791
0.0188238
0.0187536
0.018677
0.0186424
0.0186338
0.0186306
0.0186036
0.0185632
0.0185716
0.0186879
0.018754
0.0186604
0.0185475
0.0185499
0.0185627
0.0185361
0.0185432
0.0185461
0.0185399
0.0185439
0.0185367
0.0185427
0.0185174
0.0185126
0.0185102
0.0184842
0.0184831
0.0184656
0.0184523
0.018393
0.0184129
0.0185164
0.018539
0.0185693
0.0185999
0.0186232
0.0186512
0.0186705
0.0186943
0.0187099
0.0187316
0.0187468
0.0187642
0.0187783
0.0187917
0.0188036
0.0188126
0.0188191
0.018826
0.0188241
0.018833
0.0188212
0.0188352
0.0188232
0.0188171
0.0187919
0.0188195
0.0188002
0.0187391
0.0187595
0.0187186
0.0187762
0.0187584
0.0187048
0.0187214
0.0187052
0.0186987
0.0186908
0.018654
0.0186558
0.0186663
0.0186697
0.0186596
0.0186454
0.0186345
0.0186484
0.0186312
0.0186045
0.0185794
0.0185657
0.0185522
0.0185377
0.0185306
0.0185184
0.0185033
0.0184977
0.0184913
0.0184834
0.0184838
0.0184832
0.0184799
0.0184784
0.0184841
0.0184868
0.0184848
0.0184835
0.0184883
0.0184969
0.0185029
0.0185077
0.0185104
0.0185163
0.0185221
0.0185263
0.0185285
0.0185311
0.0185342
0.0185377
0.01854
0.0185406
0.0185408
0.0185403
0.0185407
0.0185422
0.0185435
0.0185446
0.0185453
0.0185447
0.0185434
0.0185424
0.0185408
0.0185394
0.0185374
0.0185356
0.0185332
0.018531
0.0185286
0.0185262
0.0185237
0.018521
0.0185182
0.0185156
0.0185132
0.018511
0.0185092
0.0185077
0.0185064
0.0185054
0.0185047
0.0185041
0.0185038
0.0185037
0.0185038
0.0185039
0.0185042
0.0185045
0.018505
0.0185053
0.0185066
0.0185086
0.018511
0.0185133
0.0185157
0.0185181
0.0185204
0.0185228
0.0185253
0.0185279
0.0185304
0.0185331
0.0185356
0.0185378
0.0185399
0.0185416
0.0185421
0.0185425
0.0185428
0.0185427
0.0185405
0.0185383
0.0185344
0.0185292
0.0185238
0.0185172
0.0185098
0.0185027
0.0184946
0.0184854
0.0184763
0.0184675
0.0184582
0.0184501
0.0184447
0.0184413
0.0184379
0.0184333
0.0184278
0.0184221
0.0184166
0.0184112
0.0184058
0.0184007
0.0183961
0.018392
0.0183884
0.0183859
0.0183845
0.0183838
0.018384
0.0183847
0.0183858
0.0183868
0.0183877
0.0183885
0.0183889
0.0183891
0.0183891
0.0183888
0.0183881
0.0183872
0.0183863
0.0183854
0.0183844
0.0183833
0.0183822
0.0183812
0.01838
0.0183789
0.0183776
0.0183764
0.018375
0.0183736
0.0183722
0.0183705
0.0183688
0.0183668
0.0183647
0.0183625
0.0183603
0.0183577
0.0183549
0.0183521
0.0183491
0.018346
0.0183427
0.0183394
0.0183359
0.0183324
0.0183288
0.0183251
0.0183212
0.0183175
0.0183137
0.01831
0.0183061
0.0183023
0.0182986
0.0182949
0.0182912
0.0182875
0.0182838
0.0182802
0.0182768
0.0182735
0.0182701
0.0182668
0.0182635
0.0182602
0.0182571
0.0182541
0.0182511
0.0182485
0.0182461
0.0182438
0.0182417
0.0182398
0.0182382
0.0182366
0.0182352
0.0182342
0.018233
0.0182319
0.0182311
0.0182303
0.0182296
0.0182289
0.0182283
0.0182277
0.0182271
0.0182265
0.0182261
0.0182255
0.0182251
0.0182249
0.0182249
0.0182252
0.0182259
0.0182268
0.0182279
0.0182297
0.0182314
0.0182352
0.0182402
0.0182463
0.0182525
0.0182592
0.018266
0.0182728
0.0182796
0.0182866
0.0182935
0.0183005
0.0183074
0.018314
0.0183206
0.0183268
0.0183328
0.0183385
0.0183439
0.018349
0.0183541
0.0183588
0.0183632
0.0183672
0.018371
0.0183744
0.0183777
0.0183808
0.0183838
0.0183867
0.0183898
0.0183928
0.018396
0.0183992
0.0184024
0.0184057
0.0184092
0.0184126
0.0184163
0.0184186
0.0184269
0.0184226
0.0184408
0.0184259
0.0184631
0.0184239
0.0184965
0.0184221
0.0185401
0.0184317
0.0185824
0.0184492
0.018606
0.018472
0.0185873
0.0184962
0.0185038
0.0185111
0.0183684
0.0184862
0.0181981
0.0183039
0.0175968
0.0166848
0.0115422
0.00899231
0.0105622
0.00881072
0.00778142
0.00511311
0.00193852
4.47098e-05
0.00128926
0.00305013
0.00402296
)
;

boundaryField
{
    inlet
    {
        type            calculated;
        value           uniform 0;
    }
    endWall
    {
        type            calculated;
        value           uniform 0;
    }
    sideWall
    {
        type            empty;
    }
}


// ************************************************************************* //
