/*--------------------------------*- C++ -*----------------------------------*\
| =========                 |                                                 |
| \\      /  F ield         | foam-extend: Open Source CFD                    |
|  \\    /   O peration     | Version:     3.2                                |
|   \\  /    A nd           | Web:         http://www.foam-extend.org         |
|    \\/     M anipulation  | For copyright notice see file Copyright         |
\*---------------------------------------------------------------------------*/
FoamFile
{
    version     2.0;
    format      ascii;
    class       areaVectorField;
    location    "910";
    object      Wt;
}
// * * * * * * * * * * * * * * * * * * * * * * * * * * * * * * * * * * * * * //

dimensions      [1 1 -2 0 0 0 0];

internalField   nonuniform List<vector> 
550
(
(1.80184e-10 0 -3.60368e-13)
(1.80185e-10 0 -3.6037e-13)
(1.80184e-10 6.55795e-27 -3.60366e-13)
(1.80186e-10 -6.55798e-27 -3.60376e-13)
(1.80181e-10 -6.55798e-27 -3.60357e-13)
(1.80185e-10 0 -3.60372e-13)
(1.80179e-10 6.55791e-27 -3.60349e-13)
(1.80184e-10 6.55791e-27 -3.60368e-13)
(1.80194e-10 0 -3.60408e-13)
(1.80179e-10 0 -3.60349e-13)
(1.80184e-10 6.55791e-27 -3.60368e-13)
(1.80184e-10 0 -3.60368e-13)
(1.80179e-10 6.55791e-27 -3.60349e-13)
(1.80194e-10 0 -3.60408e-13)
(1.80184e-10 6.55791e-27 -3.60368e-13)
(1.80179e-10 0 -3.60349e-13)
(1.80184e-10 6.55791e-27 -3.60368e-13)
(1.80179e-10 0 -3.60349e-13)
(1.80184e-10 6.55791e-27 -3.60368e-13)
(1.80194e-10 6.55827e-27 -3.60408e-13)
(1.80179e-10 0 -3.60349e-13)
(1.80184e-10 6.55791e-27 -3.60368e-13)
(1.80184e-10 6.55791e-27 -3.60368e-13)
(1.80179e-10 0 -3.60349e-13)
(1.80194e-10 6.55827e-27 -3.60408e-13)
(1.80184e-10 6.55791e-27 -3.60368e-13)
(1.80179e-10 0 -3.60349e-13)
(1.80174e-10 6.55791e-27 -3.60329e-13)
(1.80214e-10 0 -3.60487e-13)
(1.80164e-10 0 -3.60289e-13)
(1.80174e-10 0 -3.60329e-13)
(1.80214e-10 0 -3.60487e-13)
(1.80164e-10 0 -3.60289e-13)
(1.80164e-10 0 -3.60289e-13)
(1.80214e-10 0 -3.60487e-13)
(1.80174e-10 0 -3.60329e-13)
(1.80164e-10 0 -3.60289e-13)
(1.80214e-10 0 -3.60487e-13)
(1.80164e-10 0 -3.60289e-13)
(1.80214e-10 0 -3.60487e-13)
(1.80164e-10 0 -3.60289e-13)
(1.80174e-10 0 -3.60329e-13)
(1.80214e-10 0 -3.60487e-13)
(1.80164e-10 0 -3.60289e-13)
(1.80164e-10 0 -3.60289e-13)
(1.80214e-10 0 -3.60487e-13)
(1.80174e-10 0 -3.60329e-13)
(1.80164e-10 0 -3.60289e-13)
(1.80214e-10 0 -3.60487e-13)
(1.80164e-10 0 -3.60289e-13)
(1.80214e-10 0 -3.60487e-13)
(1.80164e-10 0 -3.60289e-13)
(1.80174e-10 0 -3.60329e-13)
(1.80214e-10 0 -3.60487e-13)
(1.80164e-10 0 -3.60289e-13)
(1.80184e-10 0 -3.60368e-13)
(1.80234e-10 0 -3.60567e-13)
(1.80085e-10 0 -3.59972e-13)
(1.80184e-10 0 -3.60368e-13)
(1.80234e-10 0 -3.60567e-13)
(1.80184e-10 0 -3.60368e-13)
(1.80234e-10 0 -3.60567e-13)
(1.80184e-10 0 -3.60368e-13)
(1.80085e-10 0 -3.59972e-13)
(1.80234e-10 0 -3.60567e-13)
(1.80184e-10 0 -3.60368e-13)
(1.80184e-10 0 -3.60368e-13)
(1.80234e-10 0 -3.60567e-13)
(1.80085e-10 0 -3.59972e-13)
(1.80184e-10 0 -3.60368e-13)
(1.80234e-10 0 -3.60567e-13)
(1.80184e-10 0 -3.60368e-13)
(1.80234e-10 0 -3.60567e-13)
(1.80184e-10 0 -3.60368e-13)
(1.80085e-10 0 -3.59972e-13)
(1.80234e-10 0 -3.60567e-13)
(1.80184e-10 0 -3.60368e-13)
(1.80184e-10 0 -3.60368e-13)
(1.80234e-10 0 -3.60567e-13)
(1.80085e-10 0 -3.59972e-13)
(1.80184e-10 0 -3.60368e-13)
(1.80234e-10 0 -3.60567e-13)
(1.80184e-10 0 -3.60368e-13)
(1.80234e-10 0 -3.60567e-13)
(1.80184e-10 0 -3.60368e-13)
(1.80085e-10 0 -3.59972e-13)
(1.80234e-10 0 -3.60567e-13)
(1.80184e-10 0 -3.60368e-13)
(1.80184e-10 0 -3.60368e-13)
(1.80234e-10 0 -3.60567e-13)
(1.80085e-10 0 -3.59972e-13)
(1.80184e-10 6.55863e-27 -3.60368e-13)
(1.80234e-10 0 -3.60567e-13)
(1.80184e-10 0 -3.60368e-13)
(1.80234e-10 0 -3.60567e-13)
(1.80184e-10 0 -3.60368e-13)
(1.80085e-10 6.55503e-27 -3.59972e-13)
(1.80234e-10 0 -3.60567e-13)
(1.80184e-10 0 -3.60368e-13)
(1.80184e-10 0 -3.60368e-13)
(1.80234e-10 0 -3.60567e-13)
(1.80085e-10 0 -3.59972e-13)
(1.80184e-10 0 -3.60368e-13)
(1.80234e-10 0 -3.60567e-13)
(1.80184e-10 0 -3.60368e-13)
(1.80234e-10 0 -3.60567e-13)
(1.80184e-10 0 -3.60368e-13)
(1.80085e-10 0 -3.59972e-13)
(1.80234e-10 0 -3.60567e-13)
(1.84029e-10 0 -3.7591e-13)
(1.84714e-10 0 -3.78714e-13)
(1.74979e-10 0 -3.39847e-13)
(1.67425e-10 0 -3.1114e-13)
(1.82822e-10 0 -3.70995e-13)
(2.04918e-10 0 -4.66094e-13)
(1.70523e-10 0 -3.22761e-13)
(1.47019e-10 0 -2.39917e-13)
(2.35816e-10 -6.55861e-27 -6.1725e-13)
(1.22532e-10 -3.27752e-27 -1.66653e-13)
(1.94087e-10 0 -4.18127e-13)
(2.00242e-10 0 -4.45065e-13)
(1.77776e-10 6.55863e-27 -3.50799e-13)
(1.50099e-10 0 -2.50074e-13)
(1.75837e-10 0 -3.43189e-13)
(2.47674e-10 0 -6.8089e-13)
(1.46811e-10 6.55864e-27 -2.39239e-13)
(1.13939e-10 0 -1.44099e-13)
(1.35141e-10 0 -2.02714e-13)
(2.41908e-10 0 -6.49556e-13)
(2.42783e-10 6.555e-27 -6.5426e-13)
(1.91187e-10 0 -4.05724e-13)
(1.45025e-10 0 -2.33451e-13)
(1.34914e-10 0 -2.02035e-13)
(2.06574e-10 0 -4.73657e-13)
(1.55863e-10 0 -2.69647e-13)
(1.69838e-10 0 -3.20171e-13)
(2.07439e-10 0 -4.77634e-13)
(2.37085e-10 0 -6.23911e-13)
(1.87794e-10 0 -3.9145e-13)
(1.15689e-10 0 -1.48557e-13)
(6.33224e-11 0 -4.45068e-14)
(2.95826e-10 1.31172e-26 -9.71378e-13)
(1.62876e-10 0 -2.94462e-13)
(1.70694e-10 0 -3.23408e-13)
(2.28806e-10 -6.55862e-27 -5.81095e-13)
(2.02122e-10 6.55502e-27 -4.53464e-13)
(1.76397e-10 0 -3.45377e-13)
(1.45506e-10 0 -2.35002e-13)
(1.62435e-10 0 -2.92868e-13)
(2.00076e-10 0 -4.44328e-13)
(1.86885e-10 0 -3.87669e-13)
(2.35858e-10 0 -6.17472e-13)
(9.51893e-11 -3.27933e-27 -1.00575e-13)
(1.33848e-10 0 -1.98856e-13)
(2.85561e-10 0 -9.05135e-13)
(1.91879e-10 0 -4.08667e-13)
(1.06821e-10 0 -1.26655e-13)
(2.12291e-10 -6.55862e-27 -5.0024e-13)
(2.1751e-10 6.55862e-27 -5.25136e-13)
(1.47037e-10 0 -2.39974e-13)
(1.40853e-10 -6.55864e-27 -2.20215e-13)
(1.71363e-10 0 -3.25949e-13)
(1.74567e-10 0 -3.38251e-13)
(2.40058e-10 -6.55861e-27 -6.39659e-13)
(1.63701e-10 0 -2.9745e-13)
(1.32066e-10 6.55864e-27 -1.93595e-13)
(2.53963e-10 0 -7.15908e-13)
(2.03209e-10 -6.55502e-27 -4.58353e-13)
(1.01886e-10 0 -1.15223e-13)
(1.60679e-10 0 -2.8657e-13)
(2.4455e-10 0 -6.63819e-13)
(1.80205e-10 0 -3.6045e-13)
(1.72468e-10 0 -3.30165e-13)
(1.72166e-10 -6.55503e-27 -3.2901e-13)
(1.61317e-10 0 -2.8885e-13)
(1.72703e-10 6.55863e-27 -3.31063e-13)
(2.00191e-10 -6.55863e-27 -4.44838e-13)
(2.39587e-10 0 -6.37147e-13)
(1.29857e-10 0 -1.87173e-13)
(1.36609e-10 0 -2.07145e-13)
(1.79503e-10 0 -3.5765e-13)
(1.38855e-10 0 -2.14011e-13)
(2.18351e-10 0 -5.29208e-13)
(2.02333e-10 0 -4.54409e-13)
(2.00134e-10 -6.55502e-27 -4.44584e-13)
(2.29069e-10 0 -5.82433e-13)
(1.07927e-10 0 -1.29292e-13)
(1.50859e-10 0 -2.52614e-13)
(2.57484e-10 0 -7.35892e-13)
(1.68129e-10 0 -3.1376e-13)
(1.58813e-10 0 -2.79951e-13)
(1.88956e-10 0 -3.96311e-13)
(7.98999e-11 0 -7.08604e-14)
(1.18461e-10 0 -1.55763e-13)
(2.29097e-10 0 -5.82577e-13)
(2.44551e-10 0 -6.63825e-13)
(1.90351e-10 0 -4.02182e-13)
(1.7126e-10 0 -3.25556e-13)
(8.97726e-11 0 -8.9454e-14)
(1.90258e-10 -6.55863e-27 -4.01792e-13)
(2.12948e-10 0 -5.03339e-13)
(6.12111e-11 0 -4.15884e-14)
(8.38591e-11 0 -7.80572e-14)
(7.6295e-11 0 -6.46106e-14)
(7.44916e-11 0 -6.15923e-14)
(1.02839e-10 -3.27932e-27 -1.17389e-13)
(9.98467e-11 0 -1.10657e-13)
(1.76238e-10 0 -3.44756e-13)
(7.79385e-11 0 -6.74242e-14)
(1.65413e-10 0 -3.03706e-13)
(1.21256e-10 3.27932e-27 -1.632e-13)
(1.16793e-10 0 -1.51408e-13)
(1.33133e-10 6.55864e-27 -1.96735e-13)
(1.42406e-10 0 -2.25096e-13)
(1.13018e-10 0 -1.41777e-13)
(-2.99076e-10 -1.31172e-26 -9.92842e-13)
(-3.74395e-10 0 -1.55589e-12)
(-2.43638e-10 0 -6.5888e-13)
(-2.97654e-10 1.31172e-26 -9.83423e-13)
(-2.68741e-10 0 -8.01646e-13)
(-2.79056e-10 0 -8.64366e-13)
(-2.83207e-10 1.31172e-26 -8.90274e-13)
(-2.68571e-10 1.311e-26 -8.00634e-13)
(-2.82693e-10 0 -8.87043e-13)
(-2.50177e-10 -6.55861e-27 -6.94722e-13)
(-2.69575e-10 1.31172e-26 -8.06629e-13)
(-2.25576e-10 0 -5.64809e-13)
(-2.44677e-10 0 -6.64509e-13)
(-1.95651e-10 -6.55502e-27 -4.24889e-13)
(-2.08764e-10 6.55862e-27 -4.83752e-13)
(-1.60312e-10 0 -2.85264e-13)
(-1.65173e-10 -6.55864e-27 -3.02823e-13)
(-1.18796e-10 0 -1.56645e-13)
(-1.19767e-10 -3.27752e-27 -1.59216e-13)
(-7.19023e-11 3.27933e-27 -5.73849e-14)
(-8.26894e-11 0 -7.58947e-14)
(-1.80831e-11 0 -3.6296e-15)
(-7.5807e-11 3.27933e-27 -6.37867e-14)
(6.67124e-11 0 -4.93998e-14)
(-4.77236e-12 -2.04845e-28 -2.52801e-16)
(8.00802e-11 0 -7.11807e-14)
(-6.87481e-11 0 -5.24606e-14)
(2.70019e-10 -1.31172e-26 -8.09291e-13)
(4.42265e-11 0 -2.17109e-14)
(1.26762e-10 0 -1.78357e-13)
(7.89965e-12 0 -6.92672e-16)
(-4.04771e-11 0 -1.81857e-14)
(2.13444e-10 0 -5.05688e-13)
(1.2388e-10 -3.27932e-27 -1.7034e-13)
(7.03661e-11 0 -5.4959e-14)
(1.43836e-10 0 -2.29641e-13)
(8.55259e-11 3.27933e-27 -8.11908e-14)
(1.74468e-10 -6.55863e-27 -3.37865e-13)
(1.59601e-10 0 -2.82739e-13)
(5.17735e-11 1.63966e-27 -2.97527e-14)
(6.83877e-11 0 -5.19119e-14)
(7.78231e-11 0 -6.72246e-14)
(1.25756e-10 0 -1.75536e-13)
(1.4487e-10 0 -2.32955e-13)
(1.3409e-10 6.55864e-27 -1.99574e-13)
(1.11783e-10 0 -1.38695e-13)
(2.28536e-10 6.55501e-27 -5.79727e-13)
(2.20805e-10 0 -5.41167e-13)
(2.59812e-10 0 -7.4926e-13)
(2.01166e-10 0 -4.49184e-13)
(2.26195e-10 0 -5.67911e-13)
(1.97892e-10 6.55502e-27 -4.34679e-13)
(1.94595e-10 0 -4.20316e-13)
(2.00705e-10 0 -4.47128e-13)
(2.02665e-10 0 -4.55901e-13)
(1.53346e-10 6.55864e-27 -2.61009e-13)
(1.66224e-10 6.55864e-27 -3.0669e-13)
(1.34651e-10 0 -2.01248e-13)
(1.1587e-10 0 -1.49024e-13)
(1.06074e-10 0 -1.24892e-13)
(1.06294e-10 0 -1.2541e-13)
(7.80378e-11 0 -6.75962e-14)
(6.19733e-11 0 -4.26306e-14)
(6.43995e-11 0 -4.60338e-14)
(6.74358e-11 0 -5.04769e-14)
(4.53888e-11 1.63966e-27 -2.2867e-14)
(2.96956e-11 -8.19832e-28 -9.78801e-15)
(1.06838e-11 0 -1.26696e-15)
(1.27086e-11 -4.09691e-28 -1.79269e-15)
(9.50093e-12 4.09916e-28 -1.00194e-15)
(1.042e-11 0 -1.20516e-15)
(-2.4215e-12 0 -6.50849e-17)
(1.639e-12 0 -2.98174e-17)
(1.59427e-12 0 -2.8212e-17)
(1.00977e-11 4.09916e-28 -1.13176e-15)
(5.10298e-12 0 -2.89041e-16)
(6.24182e-12 0 -4.32448e-16)
(2.68477e-12 -1.02479e-28 -8.00064e-17)
(1.27572e-11 0 -1.80644e-15)
(1.40397e-11 0 -2.1879e-15)
(1.98186e-11 8.19832e-28 -4.35973e-15)
(1.57333e-11 -4.09916e-28 -2.7476e-15)
(1.52967e-11 0 -2.59719e-15)
(1.00166e-11 4.09916e-28 -1.11366e-15)
(1.33351e-11 -4.09691e-28 -1.97382e-15)
(1.20581e-11 -4.09916e-28 -1.61388e-15)
(1.87482e-11 0 -3.90149e-15)
(2.08956e-11 0 -4.84641e-15)
(2.67411e-11 0 -7.93726e-15)
(2.71275e-11 0 -8.16826e-15)
(3.19785e-11 0 -1.13508e-14)
(3.24261e-11 -8.19832e-28 -1.16708e-14)
(3.6751e-11 0 -1.49917e-14)
(3.71226e-11 0 -1.52964e-14)
(4.107e-11 0 -1.87224e-14)
(4.12249e-11 0 -1.88638e-14)
(4.43624e-11 0 -2.18445e-14)
(4.44173e-11 0 -2.18985e-14)
(4.70815e-11 0 -2.46044e-14)
(4.69821e-11 -1.63966e-27 -2.45006e-14)
(4.87608e-11 1.63966e-27 -2.63908e-14)
(4.72484e-11 0 -2.47791e-14)
(4.7257e-11 -1.63966e-27 -2.47881e-14)
(4.44639e-11 -1.63966e-27 -2.19445e-14)
(4.29224e-11 0 -2.04493e-14)
(3.95815e-11 0 -1.73898e-14)
(3.77943e-11 0 -1.58549e-14)
(3.4437e-11 0 -1.31632e-14)
(3.2186e-11 0 -1.14986e-14)
(2.90524e-11 8.19832e-28 -9.3686e-15)
(2.61767e-11 8.19832e-28 -7.60575e-15)
(2.31299e-11 0 -5.93824e-15)
(2.02639e-11 8.19381e-28 -4.55782e-15)
(1.70485e-11 0 -3.22614e-15)
(1.40944e-11 0 -2.20498e-15)
(1.05554e-11 0 -1.2367e-15)
(7.18019e-12 0 -5.72247e-16)
(2.06326e-12 0 -4.72519e-17)
(-4.18975e-12 0 -1.94844e-16)
(-8.72773e-12 -4.09916e-28 -8.45502e-16)
(-1.34845e-11 0 -2.01829e-15)
(-1.70964e-11 -8.19832e-28 -3.2443e-15)
(-2.06408e-11 8.19832e-28 -4.72893e-15)
(-2.36847e-11 0 -6.22657e-15)
(-2.64705e-11 -8.19832e-28 -7.7774e-15)
(-2.92933e-11 -8.19832e-28 -9.52466e-15)
(-3.10057e-11 0 -1.06707e-14)
(-3.20851e-11 8.19832e-28 -1.14267e-14)
(-3.19725e-11 0 -1.13466e-14)
(-3.16844e-11 0 -1.1143e-14)
(-2.9303e-11 0 -9.53091e-15)
(-2.62509e-11 8.19832e-28 -7.6489e-15)
(-2.17545e-11 8.19832e-28 -5.25302e-15)
(-1.59353e-11 0 -2.8186e-15)
(-7.02729e-12 0 -5.48134e-16)
(-7.15884e-13 -2.56198e-29 -5.68849e-18)
(7.44883e-12 0 -6.15869e-16)
(1.96657e-11 8.19832e-28 -4.2927e-15)
(3.1938e-11 0 -1.13221e-14)
(4.41944e-11 0 -2.16793e-14)
(5.7221e-11 1.63966e-27 -3.63432e-14)
(7.03499e-11 0 -5.49336e-14)
(7.99129e-11 0 -7.08837e-14)
(9.16293e-11 0 -9.31925e-14)
(1.01586e-10 0 -1.14546e-13)
(1.08106e-10 0 -1.29722e-13)
(1.17921e-10 0 -1.54346e-13)
(1.27079e-10 0 -1.7925e-13)
(1.29967e-10 0 -1.87489e-13)
(1.32043e-10 -6.55864e-27 -1.93529e-13)
(1.33838e-10 0 -1.98826e-13)
(1.25896e-10 3.27932e-27 -1.75928e-13)
(1.15032e-10 -3.27932e-27 -1.46876e-13)
(1.07242e-10 0 -1.27655e-13)
(1.07274e-10 3.27932e-27 -1.27734e-13)
(1.1158e-10 0 -1.38193e-13)
(1.15204e-10 -3.27752e-27 -1.47315e-13)
(1.16672e-10 3.27932e-27 -1.51092e-13)
(1.17062e-10 0 -1.52105e-13)
(1.15957e-10 0 -1.49246e-13)
(1.15205e-10 0 -1.47318e-13)
(1.1213e-10 0 -1.39559e-13)
(1.08361e-10 -3.27932e-27 -1.30334e-13)
(1.0343e-10 0 -1.18743e-13)
(9.78976e-11 3.27932e-27 -1.06379e-13)
(8.97369e-11 0 -8.93829e-14)
(8.15608e-11 3.27933e-27 -7.38371e-14)
(7.45487e-11 -3.27752e-27 -6.16868e-14)
(6.67673e-11 0 -4.94811e-14)
(6.24869e-11 1.63966e-27 -4.334e-14)
(5.95142e-11 1.63966e-27 -3.93144e-14)
(5.79667e-11 -1.63966e-27 -3.72965e-14)
(5.78358e-11 -1.63876e-27 -3.71284e-14)
(5.84993e-11 0 -3.7985e-14)
(6.04374e-11 0 -4.05437e-14)
(6.149e-11 0 -4.19682e-14)
(6.3361e-11 0 -4.45611e-14)
(6.5199e-11 0 -4.71839e-14)
(6.75803e-11 0 -5.06934e-14)
(6.90453e-11 -3.27933e-27 -5.29152e-14)
(7.06039e-11 0 -5.5331e-14)
(7.17044e-11 0 -5.70695e-14)
(7.20275e-11 0 -5.75849e-14)
(7.26742e-11 0 -5.86235e-14)
(7.25216e-11 0 -5.83777e-14)
(7.23325e-11 0 -5.80736e-14)
(7.24691e-11 -3.27933e-27 -5.82932e-14)
(7.21363e-11 0 -5.7759e-14)
(7.2201e-11 -3.27933e-27 -5.78627e-14)
(7.17337e-11 0 -5.7116e-14)
(7.18291e-11 0 -5.7268e-14)
(7.17518e-11 0 -5.71449e-14)
(7.20349e-11 0 -5.75967e-14)
(7.23067e-11 0 -5.80322e-14)
(7.30914e-11 0 -5.92986e-14)
(7.37069e-11 0 -6.03015e-14)
(7.46593e-11 -3.27933e-27 -6.18699e-14)
(7.50198e-11 -3.27933e-27 -6.24688e-14)
(7.55021e-11 0 -6.32746e-14)
(7.69283e-11 -3.27933e-27 -6.56877e-14)
(7.70748e-11 0 -6.59381e-14)
(7.81564e-11 0 -6.78018e-14)
(7.8573e-11 3.27933e-27 -6.85265e-14)
(7.94534e-11 0 -7.00707e-14)
(8.03959e-11 0 -7.1743e-14)
(8.05464e-11 0 -7.20119e-14)
(8.11476e-11 3.27933e-27 -7.30908e-14)
(8.10599e-11 0 -7.29329e-14)
(8.16287e-11 -3.27933e-27 -7.39601e-14)
(8.1811e-11 -3.27933e-27 -7.42908e-14)
(8.22872e-11 0 -7.51583e-14)
(8.17391e-11 3.27752e-27 -7.41603e-14)
(8.21561e-11 -3.27933e-27 -7.49188e-14)
(8.19416e-11 0 -7.45282e-14)
(8.24819e-11 0 -7.55144e-14)
(8.21379e-11 0 -7.48858e-14)
(8.18176e-11 0 -7.43029e-14)
(8.1617e-11 0 -7.39389e-14)
(8.15692e-11 0 -7.38523e-14)
(8.11875e-11 0 -7.31628e-14)
(8.09214e-11 3.27933e-27 -7.2684e-14)
(8.03477e-11 0 -7.1657e-14)
(7.95664e-11 -3.27752e-27 -7.02702e-14)
(7.91279e-11 0 -6.94979e-14)
(7.88102e-11 0 -6.89408e-14)
(7.83528e-11 -3.27933e-27 -6.8143e-14)
(7.74289e-11 0 -6.65454e-14)
(7.74659e-11 0 -6.6609e-14)
(7.55411e-11 0 -6.334e-14)
(7.50545e-11 0 -6.25267e-14)
(7.4107e-11 0 -6.09579e-14)
(7.20912e-11 0 -5.76868e-14)
(7.11172e-11 0 -5.61385e-14)
(6.95728e-11 -3.27752e-27 -5.37268e-14)
(6.81941e-11 0 -5.16184e-14)
(6.6571e-11 -3.27933e-27 -4.91906e-14)
(6.48341e-11 0 -4.66573e-14)
(6.35067e-11 1.63966e-27 -4.47663e-14)
(6.20244e-11 0 -4.27008e-14)
(5.98771e-11 0 -3.97955e-14)
(5.95561e-11 -1.63966e-27 -3.93699e-14)
(5.81526e-11 -1.63966e-27 -3.75362e-14)
(5.66803e-11 -1.63966e-27 -3.56596e-14)
(5.55822e-11 0 -3.42913e-14)
(5.48917e-11 0 -3.34445e-14)
(5.37886e-11 0 -3.21139e-14)
(5.31148e-11 1.63966e-27 -3.13143e-14)
(5.17539e-11 0 -2.97302e-14)
(5.12114e-11 1.63966e-27 -2.91102e-14)
(4.98608e-11 1.63876e-27 -2.75949e-14)
(4.8222e-11 -1.63966e-27 -2.58108e-14)
(4.76223e-11 -1.63966e-27 -2.51729e-14)
(4.48326e-11 0 -2.231e-14)
(4.32276e-11 1.63966e-27 -2.07412e-14)
(3.98727e-11 0 -1.76467e-14)
(3.63461e-11 -1.63876e-27 -1.46631e-14)
(3.19313e-11 0 -1.13174e-14)
(2.80344e-11 -8.19832e-28 -8.72355e-15)
(2.16494e-11 -8.19832e-28 -5.20238e-15)
(1.54494e-11 0 -2.64931e-15)
(7.36483e-12 0 -6.02055e-16)
(-3.55512e-12 0 -1.40288e-16)
(-1.35271e-11 4.09916e-28 -2.03104e-15)
(-2.265e-11 8.19832e-28 -5.69438e-15)
(-2.94717e-11 -8.19832e-28 -9.64098e-15)
(-3.66983e-11 0 -1.49487e-14)
(-4.20333e-11 0 -1.96109e-14)
(-4.73696e-11 0 -2.49064e-14)
(-5.18642e-11 0 -2.9857e-14)
(-5.5821e-11 0 -3.45865e-14)
(-5.84765e-11 -1.63966e-27 -3.79555e-14)
(-6.11281e-11 0 -4.14756e-14)
(-6.27272e-11 0 -4.3674e-14)
(-6.43275e-11 0 -4.5931e-14)
(-6.526e-11 0 -4.72721e-14)
(-6.60374e-11 3.27933e-27 -4.84052e-14)
(-6.63979e-11 3.27933e-27 -4.89351e-14)
(-6.67135e-11 0 -4.94014e-14)
(-6.63973e-11 0 -4.89342e-14)
(-6.62204e-11 -3.27933e-27 -4.86738e-14)
(-6.60692e-11 0 -4.84517e-14)
(-6.54497e-11 0 -4.75474e-14)
(-6.41706e-11 0 -4.57071e-14)
(-6.31653e-11 0 -4.42862e-14)
(-6.20758e-11 -1.63966e-27 -4.27716e-14)
(-6.05703e-11 0 -4.07222e-14)
(-5.93408e-11 0 -3.90858e-14)
(-5.84563e-11 1.63966e-27 -3.79293e-14)
(-5.65404e-11 0 -3.54838e-14)
(-5.60154e-11 -1.63966e-27 -3.48278e-14)
(-5.42106e-11 0 -3.26198e-14)
(-5.41814e-11 0 -3.25846e-14)
(-5.27409e-11 1.63966e-27 -3.08749e-14)
(-5.27311e-11 0 -3.08636e-14)
(-5.15796e-11 -1.63966e-27 -2.95303e-14)
(-5.30501e-11 -1.63966e-27 -3.12381e-14)
(-5.23682e-11 0 -3.04402e-14)
(-5.49141e-11 -1.63966e-27 -3.34718e-14)
(-5.37424e-11 0 -3.20587e-14)
(-5.78544e-11 0 -3.71522e-14)
(-5.88572e-11 -1.63966e-27 -3.84513e-14)
(-5.88423e-11 0 -3.84319e-14)
(-7.19697e-11 -3.27933e-27 -5.74924e-14)
(-5.46397e-11 0 -3.31382e-14)
(-1.05592e-10 -3.27752e-27 -1.23759e-13)
(-2.3203e-11 0 -5.97583e-15)
(-1.94929e-10 0 -4.21762e-13)
(6.99765e-11 0 -5.43521e-14)
(-3.57209e-10 1.31171e-26 -1.41632e-12)
(2.64742e-10 0 -7.77965e-13)
(-5.45448e-10 -2.62192e-26 -3.30244e-12)
(5.78782e-10 2.62335e-26 -3.71843e-12)
(-7.12242e-10 0 -5.6311e-12)
(1.01491e-09 0 -1.14347e-11)
(-7.69092e-10 0 -6.56597e-12)
(1.54217e-09 0 -2.64059e-11)
(-5.72715e-10 0 -3.64088e-12)
(2.07421e-09 0 -4.778e-11)
(6.7292e-11 0 -5.02618e-14)
(2.73058e-09 0 -8.28365e-11)
(1.48344e-09 0 -2.44327e-11)
(4.819e-09 0 -2.58507e-10)
(5.33408e-09 -2.09139e-25 -3.16929e-10)
(1.23436e-08 0 -1.7242e-09)
(2.09047e-08 0 -5.14441e-09)
(1.79887e-10 0 -3.5918e-13)
(1.80283e-10 6.55503e-27 -3.60765e-13)
(1.80382e-10 0 -3.61162e-13)
(1.79887e-10 -6.55863e-27 -3.5918e-13)
(1.80382e-10 0 -3.61162e-13)
(1.79887e-10 -6.55863e-27 -3.5918e-13)
(1.80382e-10 -6.55863e-27 -3.61162e-13)
(1.80283e-10 0 -3.60765e-13)
(1.79887e-10 0 -3.5918e-13)
(1.80382e-10 -6.55863e-27 -3.61162e-13)
)
;

boundaryField
{
    inlet
    {
        type            calculated;
        value           uniform (0 0 0);
    }
    endWall
    {
        type            calculated;
        value           uniform (0 0 0);
    }
    sideWall
    {
        type            empty;
    }
}


// ************************************************************************* //
