/*--------------------------------*- C++ -*----------------------------------*\
| =========                 |                                                 |
| \\      /  F ield         | foam-extend: Open Source CFD                    |
|  \\    /   O peration     | Version:     3.2                                |
|   \\  /    A nd           | Web:         http://www.foam-extend.org         |
|    \\/     M anipulation  | For copyright notice see file Copyright         |
\*---------------------------------------------------------------------------*/
FoamFile
{
    version     2.0;
    format      ascii;
    class       surfaceScalarField;
    location    "37";
    object      AdSS2;
}
// * * * * * * * * * * * * * * * * * * * * * * * * * * * * * * * * * * * * * //

dimensions      [0 3 -1 0 0 0 0];

internalField   nonuniform List<scalar> 
191380
(
6.20161e-05
-1.62919e-06
4.34317e-05
-2.22786e-05
3.68831e-05
-3.43144e-05
3.4861e-05
-3.8841e-05
3.39661e-05
-3.99682e-05
3.33299e-05
-4.02268e-05
3.27754e-05
-4.03086e-05
3.22528e-05
-4.03404e-05
3.17611e-05
-4.03713e-05
3.13152e-05
-4.04172e-05
3.09158e-05
-4.04637e-05
3.05513e-05
-4.04985e-05
3.0221e-05
-4.05328e-05
2.99227e-05
-4.05648e-05
2.96509e-05
-4.05912e-05
2.94013e-05
-4.06135e-05
2.91694e-05
-4.06311e-05
2.89547e-05
-4.06483e-05
2.87583e-05
-4.06667e-05
2.85779e-05
-4.06826e-05
2.84077e-05
-4.06928e-05
2.82465e-05
-4.07019e-05
2.8094e-05
-4.07106e-05
2.79505e-05
-4.07195e-05
2.78145e-05
-4.0727e-05
2.76852e-05
-4.07337e-05
2.75619e-05
-4.07398e-05
2.74441e-05
-4.07453e-05
2.73324e-05
-4.07513e-05
2.72255e-05
-4.07561e-05
2.71233e-05
-4.07608e-05
2.70249e-05
-4.07647e-05
2.69305e-05
-4.07687e-05
2.68399e-05
-4.07724e-05
2.67529e-05
-4.07761e-05
2.66691e-05
-4.07793e-05
2.65882e-05
-4.07821e-05
2.65102e-05
-4.0785e-05
2.64345e-05
-4.07874e-05
2.63618e-05
-4.07903e-05
2.62913e-05
-4.07925e-05
2.62231e-05
-4.07949e-05
2.61569e-05
-4.07969e-05
2.60926e-05
-4.07988e-05
2.60303e-05
-4.08008e-05
2.59698e-05
-4.08026e-05
2.59113e-05
-4.08045e-05
2.58541e-05
-4.08059e-05
2.57986e-05
-4.08075e-05
2.57444e-05
-4.08089e-05
2.56917e-05
-4.08103e-05
2.56405e-05
-4.08118e-05
2.55905e-05
-4.08131e-05
2.55418e-05
-4.08144e-05
2.54942e-05
-4.08154e-05
2.54477e-05
-4.08166e-05
2.54023e-05
-4.08176e-05
2.53575e-05
-4.08183e-05
2.53137e-05
-4.08192e-05
2.52708e-05
-4.08202e-05
2.5229e-05
-4.08212e-05
2.51881e-05
-4.08222e-05
2.5148e-05
-4.0823e-05
2.51089e-05
-4.08239e-05
2.50706e-05
-4.08248e-05
2.50331e-05
-4.08256e-05
2.49963e-05
-4.08263e-05
2.49603e-05
-4.0827e-05
2.4925e-05
-4.08277e-05
2.48904e-05
-4.08284e-05
2.48565e-05
-4.08291e-05
2.48232e-05
-4.08298e-05
2.47905e-05
-4.08304e-05
2.47585e-05
-4.0831e-05
2.4727e-05
-4.08316e-05
2.46961e-05
-4.08321e-05
2.46657e-05
-4.08327e-05
2.4636e-05
-4.08333e-05
2.46067e-05
-4.08338e-05
2.45779e-05
-4.08343e-05
2.45496e-05
-4.08348e-05
2.45218e-05
-4.08352e-05
2.44945e-05
-4.08357e-05
2.44675e-05
-4.08361e-05
2.44411e-05
-4.08366e-05
2.44151e-05
-4.08371e-05
2.43895e-05
-4.08374e-05
2.43643e-05
-4.08379e-05
2.43395e-05
-4.08382e-05
2.4315e-05
-4.08386e-05
2.4291e-05
-4.0839e-05
2.42673e-05
-4.08394e-05
2.4244e-05
-4.08397e-05
2.4221e-05
-4.08401e-05
2.41984e-05
-4.08404e-05
2.41761e-05
-4.08408e-05
2.41541e-05
-4.08411e-05
2.41325e-05
-4.08414e-05
2.41111e-05
-4.08417e-05
2.40901e-05
-4.0842e-05
2.40693e-05
-4.08423e-05
2.40489e-05
-4.08426e-05
2.40287e-05
-4.08429e-05
2.40088e-05
-4.08432e-05
2.39892e-05
-4.08434e-05
2.39698e-05
-4.08437e-05
2.39507e-05
-4.0844e-05
2.39319e-05
-4.08442e-05
2.39133e-05
-4.08444e-05
2.38949e-05
-4.08447e-05
2.38768e-05
-4.08449e-05
2.38589e-05
-4.08452e-05
2.38413e-05
-4.08454e-05
2.38238e-05
-4.08456e-05
2.38066e-05
-4.08459e-05
2.37897e-05
-4.08461e-05
2.37729e-05
-4.08463e-05
2.37563e-05
-4.08465e-05
2.374e-05
-4.08467e-05
2.37238e-05
-4.08469e-05
2.37079e-05
-4.08471e-05
2.36921e-05
-4.08473e-05
2.36765e-05
-4.08475e-05
2.36612e-05
-4.08477e-05
2.3646e-05
-4.08479e-05
2.3631e-05
-4.08481e-05
2.36162e-05
-4.08483e-05
2.36016e-05
-4.08484e-05
2.35871e-05
-4.08486e-05
2.35728e-05
-4.08487e-05
2.35586e-05
-4.08488e-05
2.35445e-05
-4.08489e-05
2.35305e-05
-4.0849e-05
2.35165e-05
-4.08491e-05
2.35028e-05
-4.08493e-05
2.34891e-05
-4.08494e-05
2.34756e-05
-4.08496e-05
2.34623e-05
-4.08497e-05
2.34492e-05
-4.08499e-05
2.34362e-05
-4.08501e-05
2.34235e-05
-4.08503e-05
2.34109e-05
-4.08505e-05
2.33986e-05
-4.08507e-05
2.33864e-05
-4.08509e-05
2.33744e-05
-4.08511e-05
2.33626e-05
-4.08512e-05
2.33509e-05
-4.08513e-05
2.33393e-05
-4.08514e-05
2.33277e-05
-4.08515e-05
2.33163e-05
-4.08516e-05
2.3305e-05
-4.08517e-05
2.32937e-05
-4.08518e-05
2.32826e-05
-4.08519e-05
2.32714e-05
-4.08519e-05
2.32604e-05
-4.0852e-05
2.32495e-05
-4.08521e-05
2.32386e-05
-4.08522e-05
2.32279e-05
-4.08523e-05
2.32172e-05
-4.08524e-05
2.32067e-05
-4.08525e-05
2.31963e-05
-4.08526e-05
2.3186e-05
-4.08528e-05
2.31758e-05
-4.08529e-05
2.31658e-05
-4.0853e-05
2.31558e-05
-4.08531e-05
2.3146e-05
-4.08532e-05
2.31362e-05
-4.08533e-05
2.31266e-05
-4.08534e-05
2.3117e-05
-4.08535e-05
2.31075e-05
-4.08536e-05
2.30981e-05
-4.08537e-05
2.30888e-05
-4.08538e-05
2.30796e-05
-4.08538e-05
2.30705e-05
-4.08539e-05
2.30615e-05
-4.0854e-05
2.30525e-05
-4.08541e-05
2.30436e-05
-4.08542e-05
2.30348e-05
-4.08542e-05
2.30261e-05
-4.08543e-05
2.30174e-05
-4.08544e-05
2.30088e-05
-4.08545e-05
2.30004e-05
-4.08546e-05
2.29919e-05
-4.08546e-05
2.29836e-05
-4.08547e-05
2.29753e-05
-4.08548e-05
2.29672e-05
-4.08549e-05
2.2959e-05
-4.08549e-05
2.2951e-05
-4.0855e-05
2.2943e-05
-4.08551e-05
2.29351e-05
-4.08552e-05
2.29273e-05
-4.08552e-05
2.29195e-05
-4.08553e-05
2.29118e-05
-4.08554e-05
2.29042e-05
-4.08554e-05
2.28967e-05
-4.08555e-05
2.28892e-05
-4.08556e-05
2.28817e-05
-4.08556e-05
2.28744e-05
-4.08557e-05
2.28671e-05
-4.08557e-05
2.28598e-05
-4.08558e-05
2.28526e-05
-4.08559e-05
2.28455e-05
-4.08559e-05
2.28385e-05
-4.0856e-05
2.28315e-05
-4.08561e-05
2.28245e-05
-4.08561e-05
2.28177e-05
-4.08562e-05
2.28108e-05
-4.08562e-05
2.28041e-05
-4.08563e-05
2.27973e-05
-4.08563e-05
2.27907e-05
-4.08564e-05
2.27841e-05
-4.08564e-05
2.27775e-05
-4.08565e-05
2.27711e-05
-4.08566e-05
2.27646e-05
-4.08566e-05
2.27582e-05
-4.08567e-05
2.27519e-05
-4.08567e-05
2.27456e-05
-4.08568e-05
2.27394e-05
-4.08568e-05
2.27332e-05
-4.08569e-05
2.27271e-05
-4.08569e-05
2.2721e-05
-4.0857e-05
2.2715e-05
-4.0857e-05
2.2709e-05
-4.08571e-05
2.27031e-05
-4.08571e-05
2.26972e-05
-4.08572e-05
2.26913e-05
-4.08572e-05
2.26855e-05
-4.08573e-05
2.26798e-05
-4.08573e-05
2.26741e-05
-4.08573e-05
2.26684e-05
-4.08574e-05
2.26628e-05
-4.08574e-05
2.26573e-05
-4.08575e-05
2.26518e-05
-4.08575e-05
2.26463e-05
-4.08576e-05
2.26408e-05
-4.08576e-05
2.26355e-05
-4.08577e-05
2.26301e-05
-4.08577e-05
2.26248e-05
-4.08578e-05
2.26195e-05
-4.08578e-05
2.26143e-05
-4.08578e-05
2.26091e-05
-4.08579e-05
2.2604e-05
-4.08579e-05
2.25989e-05
-4.08579e-05
2.25938e-05
-4.0858e-05
2.25888e-05
-4.0858e-05
2.25838e-05
-4.08581e-05
2.25789e-05
-4.08581e-05
2.2574e-05
-4.08582e-05
2.25691e-05
-4.08582e-05
2.25643e-05
-4.08582e-05
2.25595e-05
-4.08582e-05
2.25547e-05
-4.08583e-05
2.255e-05
-4.08583e-05
2.25453e-05
-4.08584e-05
2.25407e-05
-4.08584e-05
2.25361e-05
-4.08585e-05
2.25315e-05
-4.08585e-05
2.2527e-05
-4.08585e-05
2.25224e-05
-4.08585e-05
2.2518e-05
-4.08586e-05
2.25135e-05
-4.08586e-05
2.25091e-05
-4.08587e-05
2.25047e-05
-4.08586e-05
2.25004e-05
-4.08587e-05
2.24961e-05
-4.08587e-05
2.24918e-05
-4.08588e-05
2.24876e-05
-4.08588e-05
2.24834e-05
-4.08589e-05
2.24792e-05
-4.08588e-05
2.24751e-05
-4.08589e-05
2.24709e-05
-4.08589e-05
2.24669e-05
-4.0859e-05
2.24628e-05
-4.08589e-05
2.24588e-05
-4.08591e-05
2.24547e-05
-4.0859e-05
2.24508e-05
-4.08591e-05
2.24468e-05
-4.08591e-05
2.2443e-05
-4.08592e-05
2.2439e-05
-4.08591e-05
2.24352e-05
-4.08592e-05
2.24313e-05
-4.08592e-05
2.24276e-05
-4.08593e-05
2.24237e-05
-4.08592e-05
2.242e-05
-4.08593e-05
2.24162e-05
-4.08593e-05
2.24125e-05
-4.08593e-05
2.24088e-05
-4.08593e-05
2.24051e-05
-4.08593e-05
2.24014e-05
-4.08594e-05
2.23976e-05
-4.08593e-05
2.2394e-05
-4.08594e-05
2.23903e-05
-4.08593e-05
2.23865e-05
-4.08593e-05
2.23831e-05
-4.08596e-05
2.23794e-05
-4.08593e-05
2.23764e-05
-4.08601e-05
2.23738e-05
-4.08604e-05
2.23689e-05
-4.08581e-05
2.23675e-05
-4.08617e-05
-4.08421e-05
8.94816e-05
1.01392e-05
7.65994e-05
-9.39642e-06
6.80419e-05
-2.57569e-05
6.32813e-05
-3.40803e-05
6.03139e-05
-3.70008e-05
5.82032e-05
-3.81161e-05
5.65594e-05
-3.86648e-05
5.5187e-05
-3.8968e-05
5.40281e-05
-3.92125e-05
5.30422e-05
-3.94313e-05
5.21841e-05
-3.96056e-05
5.14251e-05
-3.97395e-05
5.07532e-05
-3.98609e-05
5.01583e-05
-3.99699e-05
4.96219e-05
-4.00547e-05
4.91338e-05
-4.01255e-05
4.86864e-05
-4.01836e-05
4.82767e-05
-4.02387e-05
4.78994e-05
-4.02893e-05
4.75473e-05
-4.03305e-05
4.72174e-05
-4.03629e-05
4.69082e-05
-4.03928e-05
4.66185e-05
-4.04208e-05
4.63469e-05
-4.04479e-05
4.60908e-05
-4.04709e-05
4.58484e-05
-4.04914e-05
4.56188e-05
-4.05102e-05
4.54008e-05
-4.05272e-05
4.51943e-05
-4.05449e-05
4.49975e-05
-4.05593e-05
4.48098e-05
-4.05731e-05
4.46302e-05
-4.05851e-05
4.44583e-05
-4.05968e-05
4.42938e-05
-4.06079e-05
4.41362e-05
-4.06186e-05
4.39848e-05
-4.06279e-05
4.3839e-05
-4.06363e-05
4.36987e-05
-4.06448e-05
4.35632e-05
-4.06519e-05
4.3433e-05
-4.066e-05
4.33071e-05
-4.06666e-05
4.31855e-05
-4.06732e-05
4.30678e-05
-4.06792e-05
4.29537e-05
-4.06847e-05
4.28433e-05
-4.06904e-05
4.27363e-05
-4.06956e-05
4.26327e-05
-4.07009e-05
4.25319e-05
-4.07051e-05
4.2434e-05
-4.07097e-05
4.23389e-05
-4.07137e-05
4.22463e-05
-4.07177e-05
4.21563e-05
-4.07219e-05
4.20687e-05
-4.07255e-05
4.19834e-05
-4.07291e-05
4.19002e-05
-4.07323e-05
4.18191e-05
-4.07354e-05
4.17399e-05
-4.07384e-05
4.16628e-05
-4.07412e-05
4.15878e-05
-4.07442e-05
4.15145e-05
-4.07469e-05
4.1443e-05
-4.07497e-05
4.13731e-05
-4.07523e-05
4.13048e-05
-4.07547e-05
4.1238e-05
-4.07571e-05
4.11727e-05
-4.07595e-05
4.11089e-05
-4.07617e-05
4.10463e-05
-4.07638e-05
4.09851e-05
-4.07658e-05
4.0925e-05
-4.07677e-05
4.08662e-05
-4.07696e-05
4.08086e-05
-4.07715e-05
4.07521e-05
-4.07733e-05
4.06967e-05
-4.0775e-05
4.06423e-05
-4.07766e-05
4.05889e-05
-4.07783e-05
4.05366e-05
-4.07798e-05
4.04852e-05
-4.07813e-05
4.04347e-05
-4.07828e-05
4.03851e-05
-4.07842e-05
4.03365e-05
-4.07856e-05
4.02886e-05
-4.07869e-05
4.02416e-05
-4.07882e-05
4.01954e-05
-4.07895e-05
4.01499e-05
-4.07907e-05
4.01052e-05
-4.07919e-05
4.00613e-05
-4.07932e-05
4.00181e-05
-4.07942e-05
3.99756e-05
-4.07953e-05
3.99337e-05
-4.07964e-05
3.98925e-05
-4.07974e-05
3.9852e-05
-4.07985e-05
3.98121e-05
-4.07994e-05
3.97728e-05
-4.08005e-05
3.97341e-05
-4.08014e-05
3.9696e-05
-4.08022e-05
3.96584e-05
-4.08032e-05
3.96214e-05
-4.08041e-05
3.9585e-05
-4.08049e-05
3.95491e-05
-4.08058e-05
3.95137e-05
-4.08066e-05
3.94788e-05
-4.08074e-05
3.94444e-05
-4.08082e-05
3.94105e-05
-4.08089e-05
3.9377e-05
-4.08097e-05
3.93441e-05
-4.08104e-05
3.93115e-05
-4.08111e-05
3.92795e-05
-4.08119e-05
3.92478e-05
-4.08125e-05
3.92166e-05
-4.08132e-05
3.91858e-05
-4.08139e-05
3.91554e-05
-4.08145e-05
3.91254e-05
-4.08152e-05
3.90958e-05
-4.08158e-05
3.90665e-05
-4.08164e-05
3.90377e-05
-4.0817e-05
3.90092e-05
-4.08176e-05
3.89811e-05
-4.08182e-05
3.89534e-05
-4.08188e-05
3.8926e-05
-4.08193e-05
3.88989e-05
-4.08198e-05
3.88722e-05
-4.08204e-05
3.88458e-05
-4.08209e-05
3.88198e-05
-4.08214e-05
3.8794e-05
-4.0822e-05
3.87687e-05
-4.08225e-05
3.87436e-05
-4.0823e-05
3.87189e-05
-4.08235e-05
3.86944e-05
-4.0824e-05
3.86702e-05
-4.08244e-05
3.86462e-05
-4.08247e-05
3.86224e-05
-4.0825e-05
3.85987e-05
-4.08253e-05
3.85752e-05
-4.08256e-05
3.85519e-05
-4.08258e-05
3.85288e-05
-4.08262e-05
3.85059e-05
-4.08265e-05
3.84833e-05
-4.08269e-05
3.8461e-05
-4.08274e-05
3.8439e-05
-4.08279e-05
3.84173e-05
-4.08284e-05
3.8396e-05
-4.0829e-05
3.8375e-05
-4.08296e-05
3.83544e-05
-4.08301e-05
3.83342e-05
-4.08306e-05
3.83142e-05
-4.08311e-05
3.82944e-05
-4.08315e-05
3.82749e-05
-4.08318e-05
3.82556e-05
-4.08321e-05
3.82365e-05
-4.08324e-05
3.82175e-05
-4.08326e-05
3.81986e-05
-4.08328e-05
3.81798e-05
-4.0833e-05
3.81611e-05
-4.08332e-05
3.81426e-05
-4.08334e-05
3.81241e-05
-4.08336e-05
3.81058e-05
-4.08338e-05
3.80877e-05
-4.08341e-05
3.80698e-05
-4.08344e-05
3.8052e-05
-4.08347e-05
3.80344e-05
-4.0835e-05
3.80171e-05
-4.08353e-05
3.79999e-05
-4.08356e-05
3.79829e-05
-4.08359e-05
3.79661e-05
-4.08362e-05
3.79495e-05
-4.08365e-05
3.79331e-05
-4.08368e-05
3.79168e-05
-4.0837e-05
3.79007e-05
-4.08373e-05
3.78848e-05
-4.08376e-05
3.7869e-05
-4.08378e-05
3.78534e-05
-4.0838e-05
3.78379e-05
-4.08383e-05
3.78225e-05
-4.08385e-05
3.78073e-05
-4.08387e-05
3.77922e-05
-4.08389e-05
3.77772e-05
-4.08391e-05
3.77624e-05
-4.08394e-05
3.77478e-05
-4.08396e-05
3.77332e-05
-4.08398e-05
3.77188e-05
-4.084e-05
3.77045e-05
-4.08402e-05
3.76904e-05
-4.08404e-05
3.76764e-05
-4.08406e-05
3.76625e-05
-4.08408e-05
3.76487e-05
-4.0841e-05
3.76351e-05
-4.08412e-05
3.76216e-05
-4.08414e-05
3.76082e-05
-4.08416e-05
3.75949e-05
-4.08418e-05
3.75817e-05
-4.0842e-05
3.75687e-05
-4.08422e-05
3.75558e-05
-4.08424e-05
3.7543e-05
-4.08425e-05
3.75303e-05
-4.08427e-05
3.75177e-05
-4.08429e-05
3.75052e-05
-4.08431e-05
3.74928e-05
-4.08432e-05
3.74806e-05
-4.08434e-05
3.74684e-05
-4.08436e-05
3.74564e-05
-4.08438e-05
3.74444e-05
-4.08439e-05
3.74326e-05
-4.08441e-05
3.74208e-05
-4.08442e-05
3.74092e-05
-4.08444e-05
3.73976e-05
-4.08446e-05
3.73862e-05
-4.08447e-05
3.73748e-05
-4.08449e-05
3.73636e-05
-4.0845e-05
3.73524e-05
-4.08452e-05
3.73413e-05
-4.08453e-05
3.73303e-05
-4.08455e-05
3.73194e-05
-4.08456e-05
3.73086e-05
-4.08458e-05
3.72979e-05
-4.08459e-05
3.72873e-05
-4.0846e-05
3.72768e-05
-4.08462e-05
3.72663e-05
-4.08463e-05
3.7256e-05
-4.08465e-05
3.72457e-05
-4.08466e-05
3.72355e-05
-4.08467e-05
3.72254e-05
-4.08469e-05
3.72153e-05
-4.0847e-05
3.72054e-05
-4.08471e-05
3.71955e-05
-4.08473e-05
3.71857e-05
-4.08474e-05
3.7176e-05
-4.08475e-05
3.71664e-05
-4.08476e-05
3.71568e-05
-4.08478e-05
3.71474e-05
-4.08479e-05
3.7138e-05
-4.0848e-05
3.71286e-05
-4.08481e-05
3.71194e-05
-4.08482e-05
3.71102e-05
-4.08483e-05
3.71011e-05
-4.08485e-05
3.70921e-05
-4.08486e-05
3.70831e-05
-4.08487e-05
3.70742e-05
-4.08488e-05
3.70654e-05
-4.08489e-05
3.70566e-05
-4.0849e-05
3.7048e-05
-4.08492e-05
3.70393e-05
-4.08492e-05
3.70308e-05
-4.08494e-05
3.70223e-05
-4.08495e-05
3.70139e-05
-4.08496e-05
3.70056e-05
-4.08497e-05
3.69973e-05
-4.08498e-05
3.69891e-05
-4.08499e-05
3.69809e-05
-4.085e-05
3.69728e-05
-4.08501e-05
3.69648e-05
-4.08502e-05
3.69568e-05
-4.08503e-05
3.69489e-05
-4.08504e-05
3.69411e-05
-4.08505e-05
3.69333e-05
-4.08506e-05
3.69255e-05
-4.08506e-05
3.69179e-05
-4.08508e-05
3.69103e-05
-4.08508e-05
3.69027e-05
-4.0851e-05
3.68952e-05
-4.0851e-05
3.68878e-05
-4.08512e-05
3.68804e-05
-4.08512e-05
3.68731e-05
-4.08514e-05
3.68658e-05
-4.08513e-05
3.68586e-05
-4.08516e-05
3.68514e-05
-4.08515e-05
3.68444e-05
-4.08517e-05
3.68373e-05
-4.08517e-05
3.68303e-05
-4.08519e-05
3.68233e-05
-4.08518e-05
3.68165e-05
-4.08521e-05
3.68096e-05
-4.0852e-05
3.68029e-05
-4.08523e-05
3.67961e-05
-4.08521e-05
3.67894e-05
-4.08524e-05
3.67827e-05
-4.08523e-05
3.67762e-05
-4.08526e-05
3.67696e-05
-4.08524e-05
3.67631e-05
-4.08527e-05
3.67566e-05
-4.08526e-05
3.67503e-05
-4.08529e-05
3.67438e-05
-4.08527e-05
3.67375e-05
-4.0853e-05
3.67312e-05
-4.08529e-05
3.6725e-05
-4.08531e-05
3.67187e-05
-4.0853e-05
3.67126e-05
-4.08532e-05
3.67064e-05
-4.08531e-05
3.67002e-05
-4.08532e-05
3.66941e-05
-4.08533e-05
3.6688e-05
-4.08532e-05
3.66819e-05
-4.08533e-05
3.66758e-05
-4.08532e-05
3.66695e-05
-4.08531e-05
3.66636e-05
-4.08537e-05
3.66573e-05
-4.0853e-05
3.66518e-05
-4.08546e-05
3.66471e-05
-4.08557e-05
3.66403e-05
-4.08514e-05
3.6636e-05
-4.08574e-05
-4.08223e-05
9.94287e-05
1.19605e-05
9.34365e-05
-3.40428e-06
8.60996e-05
-1.842e-05
8.00867e-05
-2.80674e-05
7.57094e-05
-3.26236e-05
7.24369e-05
-3.48436e-05
6.99182e-05
-3.61461e-05
6.79141e-05
-3.69639e-05
6.62808e-05
-3.75791e-05
6.49103e-05
-3.80607e-05
6.37256e-05
-3.84209e-05
6.2691e-05
-3.87049e-05
6.17843e-05
-3.89542e-05
6.0986e-05
-3.91715e-05
6.02684e-05
-3.93372e-05
5.96186e-05
-3.94756e-05
5.9027e-05
-3.9592e-05
5.84879e-05
-3.96996e-05
5.79937e-05
-3.97952e-05
5.7535e-05
-3.98718e-05
5.71074e-05
-3.99354e-05
5.67087e-05
-3.9994e-05
5.63362e-05
-4.00484e-05
5.59876e-05
-4.00993e-05
5.56594e-05
-4.01427e-05
5.53495e-05
-4.01815e-05
5.50566e-05
-4.02174e-05
5.47792e-05
-4.02497e-05
5.45167e-05
-4.02824e-05
5.42669e-05
-4.03095e-05
5.40289e-05
-4.03351e-05
5.38016e-05
-4.03578e-05
5.35845e-05
-4.03796e-05
5.33769e-05
-4.04004e-05
5.31783e-05
-4.04199e-05
5.29876e-05
-4.04372e-05
5.28042e-05
-4.04528e-05
5.2628e-05
-4.04686e-05
5.24581e-05
-4.0482e-05
5.22948e-05
-4.04967e-05
5.21371e-05
-4.0509e-05
5.19849e-05
-4.0521e-05
5.18377e-05
-4.0532e-05
5.16952e-05
-4.05422e-05
5.15575e-05
-4.05526e-05
5.14241e-05
-4.05621e-05
5.12949e-05
-4.05717e-05
5.11694e-05
-4.05796e-05
5.10476e-05
-4.05879e-05
5.09293e-05
-4.05954e-05
5.08142e-05
-4.06026e-05
5.07025e-05
-4.06101e-05
5.05938e-05
-4.06167e-05
5.04879e-05
-4.06232e-05
5.03848e-05
-4.06291e-05
5.02842e-05
-4.06349e-05
5.01863e-05
-4.06405e-05
5.00908e-05
-4.06457e-05
4.99979e-05
-4.06513e-05
4.99073e-05
-4.06563e-05
4.98188e-05
-4.06612e-05
4.97324e-05
-4.06659e-05
4.9648e-05
-4.06703e-05
4.95655e-05
-4.06746e-05
4.94849e-05
-4.06789e-05
4.9406e-05
-4.06828e-05
4.93288e-05
-4.06866e-05
4.92533e-05
-4.06902e-05
4.91792e-05
-4.06937e-05
4.91068e-05
-4.06971e-05
4.90357e-05
-4.07005e-05
4.89662e-05
-4.07037e-05
4.8898e-05
-4.07068e-05
4.8831e-05
-4.07096e-05
4.87654e-05
-4.07126e-05
4.8701e-05
-4.07154e-05
4.86378e-05
-4.07181e-05
4.85757e-05
-4.07208e-05
4.85148e-05
-4.07232e-05
4.8455e-05
-4.07258e-05
4.83963e-05
-4.07282e-05
4.83385e-05
-4.07304e-05
4.82818e-05
-4.07328e-05
4.8226e-05
-4.07349e-05
4.81712e-05
-4.07371e-05
4.81173e-05
-4.07393e-05
4.80643e-05
-4.07411e-05
4.80121e-05
-4.07432e-05
4.79609e-05
-4.07451e-05
4.79104e-05
-4.07469e-05
4.78607e-05
-4.07489e-05
4.78118e-05
-4.07505e-05
4.77637e-05
-4.07523e-05
4.77163e-05
-4.07541e-05
4.76696e-05
-4.07556e-05
4.76237e-05
-4.07573e-05
4.75784e-05
-4.07588e-05
4.75338e-05
-4.07603e-05
4.74899e-05
-4.07619e-05
4.74466e-05
-4.07633e-05
4.74039e-05
-4.07648e-05
4.73619e-05
-4.07662e-05
4.73204e-05
-4.07675e-05
4.72796e-05
-4.07689e-05
4.72393e-05
-4.07702e-05
4.71995e-05
-4.07714e-05
4.71603e-05
-4.07727e-05
4.71217e-05
-4.07739e-05
4.70835e-05
-4.07751e-05
4.70459e-05
-4.07763e-05
4.70088e-05
-4.07774e-05
4.69722e-05
-4.07785e-05
4.6936e-05
-4.07797e-05
4.69004e-05
-4.07807e-05
4.68652e-05
-4.07818e-05
4.68304e-05
-4.07829e-05
4.67961e-05
-4.07839e-05
4.67623e-05
-4.07849e-05
4.67289e-05
-4.07859e-05
4.66959e-05
-4.07868e-05
4.66633e-05
-4.07878e-05
4.66311e-05
-4.07887e-05
4.65994e-05
-4.07896e-05
4.6568e-05
-4.07906e-05
4.65371e-05
-4.07915e-05
4.65065e-05
-4.07925e-05
4.64763e-05
-4.07934e-05
4.64465e-05
-4.07941e-05
4.6417e-05
-4.07948e-05
4.63877e-05
-4.07955e-05
4.63586e-05
-4.07959e-05
4.63298e-05
-4.07964e-05
4.63012e-05
-4.07969e-05
4.62727e-05
-4.07974e-05
4.62446e-05
-4.0798e-05
4.62167e-05
-4.07987e-05
4.61892e-05
-4.07994e-05
4.6162e-05
-4.08002e-05
4.61353e-05
-4.08011e-05
4.61089e-05
-4.08021e-05
4.6083e-05
-4.08031e-05
4.60576e-05
-4.08041e-05
4.60325e-05
-4.0805e-05
4.60079e-05
-4.0806e-05
4.59836e-05
-4.08068e-05
4.59596e-05
-4.08075e-05
4.59359e-05
-4.08081e-05
4.59124e-05
-4.08086e-05
4.58891e-05
-4.08091e-05
4.58659e-05
-4.08095e-05
4.58429e-05
-4.08098e-05
4.58201e-05
-4.08101e-05
4.57973e-05
-4.08105e-05
4.57748e-05
-4.08108e-05
4.57524e-05
-4.08112e-05
4.57301e-05
-4.08116e-05
4.57081e-05
-4.0812e-05
4.56863e-05
-4.08125e-05
4.56647e-05
-4.08131e-05
4.56433e-05
-4.08136e-05
4.56222e-05
-4.08141e-05
4.56014e-05
-4.08147e-05
4.55807e-05
-4.08153e-05
4.55603e-05
-4.08158e-05
4.55401e-05
-4.08163e-05
4.55202e-05
-4.08168e-05
4.55004e-05
-4.08173e-05
4.54809e-05
-4.08178e-05
4.54615e-05
-4.08182e-05
4.54423e-05
-4.08186e-05
4.54233e-05
-4.0819e-05
4.54045e-05
-4.08194e-05
4.53858e-05
-4.08198e-05
4.53673e-05
-4.08202e-05
4.5349e-05
-4.08206e-05
4.53309e-05
-4.0821e-05
4.53129e-05
-4.08214e-05
4.5295e-05
-4.08217e-05
4.52774e-05
-4.08221e-05
4.52599e-05
-4.08225e-05
4.52426e-05
-4.08229e-05
4.52254e-05
-4.08232e-05
4.52084e-05
-4.08236e-05
4.51915e-05
-4.0824e-05
4.51748e-05
-4.08243e-05
4.51582e-05
-4.08247e-05
4.51418e-05
-4.0825e-05
4.51256e-05
-4.08254e-05
4.51095e-05
-4.08257e-05
4.50935e-05
-4.0826e-05
4.50777e-05
-4.08263e-05
4.5062e-05
-4.08267e-05
4.50464e-05
-4.0827e-05
4.5031e-05
-4.08273e-05
4.50157e-05
-4.08276e-05
4.50006e-05
-4.08279e-05
4.49856e-05
-4.08282e-05
4.49707e-05
-4.08285e-05
4.4956e-05
-4.08288e-05
4.49413e-05
-4.08291e-05
4.49268e-05
-4.08294e-05
4.49125e-05
-4.08297e-05
4.48982e-05
-4.083e-05
4.48841e-05
-4.08303e-05
4.48701e-05
-4.08305e-05
4.48562e-05
-4.08308e-05
4.48424e-05
-4.08311e-05
4.48287e-05
-4.08314e-05
4.48152e-05
-4.08316e-05
4.48018e-05
-4.08319e-05
4.47884e-05
-4.08321e-05
4.47752e-05
-4.08324e-05
4.47621e-05
-4.08327e-05
4.47491e-05
-4.08329e-05
4.47362e-05
-4.08332e-05
4.47235e-05
-4.08334e-05
4.47108e-05
-4.08336e-05
4.46982e-05
-4.08339e-05
4.46858e-05
-4.08341e-05
4.46734e-05
-4.08344e-05
4.46611e-05
-4.08346e-05
4.4649e-05
-4.08348e-05
4.46369e-05
-4.0835e-05
4.46249e-05
-4.08353e-05
4.46131e-05
-4.08355e-05
4.46013e-05
-4.08357e-05
4.45896e-05
-4.08359e-05
4.4578e-05
-4.08362e-05
4.45665e-05
-4.08364e-05
4.45551e-05
-4.08366e-05
4.45438e-05
-4.08368e-05
4.45326e-05
-4.0837e-05
4.45215e-05
-4.08372e-05
4.45105e-05
-4.08374e-05
4.44995e-05
-4.08376e-05
4.44886e-05
-4.08378e-05
4.44779e-05
-4.0838e-05
4.44672e-05
-4.08383e-05
4.44566e-05
-4.08384e-05
4.4446e-05
-4.08386e-05
4.44356e-05
-4.08388e-05
4.44252e-05
-4.0839e-05
4.4415e-05
-4.08392e-05
4.44048e-05
-4.08394e-05
4.43946e-05
-4.08395e-05
4.43846e-05
-4.08398e-05
4.43746e-05
-4.08399e-05
4.43648e-05
-4.08401e-05
4.43549e-05
-4.08402e-05
4.43452e-05
-4.08405e-05
4.43356e-05
-4.08406e-05
4.4326e-05
-4.08408e-05
4.43165e-05
-4.08409e-05
4.4307e-05
-4.08412e-05
4.42977e-05
-4.08413e-05
4.42884e-05
-4.08415e-05
4.42791e-05
-4.08416e-05
4.427e-05
-4.08419e-05
4.42609e-05
-4.08419e-05
4.42519e-05
-4.08422e-05
4.4243e-05
-4.08422e-05
4.42341e-05
-4.08425e-05
4.42253e-05
-4.08425e-05
4.42166e-05
-4.08429e-05
4.42078e-05
-4.08428e-05
4.41993e-05
-4.08432e-05
4.41907e-05
-4.08431e-05
4.41823e-05
-4.08435e-05
4.41738e-05
-4.08434e-05
4.41655e-05
-4.08438e-05
4.41571e-05
-4.08437e-05
4.4149e-05
-4.08441e-05
4.41407e-05
-4.08439e-05
4.41327e-05
-4.08444e-05
4.41246e-05
-4.08442e-05
4.41167e-05
-4.08447e-05
4.41086e-05
-4.08444e-05
4.41008e-05
-4.08449e-05
4.40929e-05
-4.08447e-05
4.40852e-05
-4.08452e-05
4.40775e-05
-4.08449e-05
4.40699e-05
-4.08454e-05
4.40622e-05
-4.08452e-05
4.40547e-05
-4.08456e-05
4.40471e-05
-4.08454e-05
4.40396e-05
-4.08457e-05
4.40321e-05
-4.08457e-05
4.40247e-05
-4.08458e-05
4.40173e-05
-4.08458e-05
4.40099e-05
-4.08458e-05
4.40025e-05
-4.0846e-05
4.39951e-05
-4.08458e-05
4.39876e-05
-4.08456e-05
4.39804e-05
-4.08465e-05
4.39727e-05
-4.08453e-05
4.39658e-05
-4.08476e-05
4.39597e-05
-4.08496e-05
4.3952e-05
-4.08437e-05
4.39464e-05
-4.08518e-05
-4.08039e-05
0.000102569
1.06419e-05
0.00010099
-1.82525e-06
9.72211e-05
-1.46515e-05
9.20747e-05
-2.2921e-05
8.73721e-05
-2.7921e-05
8.34179e-05
-3.08894e-05
8.01889e-05
-3.29171e-05
7.75791e-05
-3.43541e-05
7.54535e-05
-3.54536e-05
7.36819e-05
-3.62891e-05
7.2183e-05
-3.6922e-05
7.08943e-05
-3.74162e-05
6.97719e-05
-3.78317e-05
6.87849e-05
-3.81846e-05
6.78983e-05
-3.84506e-05
6.70986e-05
-3.86759e-05
6.63751e-05
-3.88685e-05
6.57183e-05
-3.90429e-05
6.51175e-05
-3.91943e-05
6.45613e-05
-3.93156e-05
6.40454e-05
-3.94196e-05
6.35664e-05
-3.9515e-05
6.31205e-05
-3.96025e-05
6.27036e-05
-3.96824e-05
6.23116e-05
-3.97507e-05
6.19425e-05
-3.98123e-05
6.15945e-05
-3.98694e-05
6.12656e-05
-3.99209e-05
6.09548e-05
-3.99716e-05
6.06593e-05
-4.0014e-05
6.03783e-05
-4.00541e-05
6.01104e-05
-4.00899e-05
5.98549e-05
-4.01241e-05
5.96111e-05
-4.01565e-05
5.93778e-05
-4.01866e-05
5.91541e-05
-4.02136e-05
5.89393e-05
-4.0238e-05
5.87332e-05
-4.02625e-05
5.85348e-05
-4.02836e-05
5.83441e-05
-4.03061e-05
5.81603e-05
-4.03251e-05
5.79829e-05
-4.03436e-05
5.78116e-05
-4.03608e-05
5.7646e-05
-4.03765e-05
5.7486e-05
-4.03927e-05
5.73311e-05
-4.04073e-05
5.71812e-05
-4.04219e-05
5.70358e-05
-4.04341e-05
5.68947e-05
-4.04469e-05
5.67578e-05
-4.04585e-05
5.66248e-05
-4.04696e-05
5.64956e-05
-4.0481e-05
5.637e-05
-4.04911e-05
5.62479e-05
-4.05011e-05
5.61289e-05
-4.05101e-05
5.6013e-05
-4.0519e-05
5.59001e-05
-4.05276e-05
5.57901e-05
-4.05357e-05
5.5683e-05
-4.05442e-05
5.55786e-05
-4.05518e-05
5.54766e-05
-4.05592e-05
5.53772e-05
-4.05664e-05
5.528e-05
-4.05731e-05
5.51851e-05
-4.05797e-05
5.50924e-05
-4.05862e-05
5.50018e-05
-4.05922e-05
5.49131e-05
-4.05979e-05
5.48263e-05
-4.06034e-05
5.47414e-05
-4.06087e-05
5.46582e-05
-4.0614e-05
5.45768e-05
-4.0619e-05
5.4497e-05
-4.0624e-05
5.44189e-05
-4.06286e-05
5.43422e-05
-4.06329e-05
5.4267e-05
-4.06374e-05
5.41933e-05
-4.06417e-05
5.4121e-05
-4.06457e-05
5.405e-05
-4.06499e-05
5.39804e-05
-4.06536e-05
5.3912e-05
-4.06574e-05
5.38449e-05
-4.0661e-05
5.37789e-05
-4.06644e-05
5.37141e-05
-4.0668e-05
5.36504e-05
-4.06712e-05
5.35879e-05
-4.06745e-05
5.35264e-05
-4.06778e-05
5.34659e-05
-4.06806e-05
5.34065e-05
-4.06838e-05
5.3348e-05
-4.06866e-05
5.32904e-05
-4.06894e-05
5.32339e-05
-4.06923e-05
5.31782e-05
-4.06948e-05
5.31233e-05
-4.06975e-05
5.30694e-05
-4.07001e-05
5.30163e-05
-4.07024e-05
5.2964e-05
-4.0705e-05
5.29125e-05
-4.07073e-05
5.28617e-05
-4.07096e-05
5.28118e-05
-4.0712e-05
5.27625e-05
-4.07141e-05
5.2714e-05
-4.07162e-05
5.26662e-05
-4.07184e-05
5.26191e-05
-4.07203e-05
5.25727e-05
-4.07224e-05
5.25269e-05
-4.07244e-05
5.24817e-05
-4.07262e-05
5.24372e-05
-4.07282e-05
5.23934e-05
-4.073e-05
5.23501e-05
-4.07318e-05
5.23074e-05
-4.07336e-05
5.22652e-05
-4.07353e-05
5.22237e-05
-4.0737e-05
5.21827e-05
-4.07387e-05
5.21422e-05
-4.07403e-05
5.21023e-05
-4.07419e-05
5.20629e-05
-4.07435e-05
5.20241e-05
-4.0745e-05
5.19857e-05
-4.07465e-05
5.19478e-05
-4.0748e-05
5.19104e-05
-4.07494e-05
5.18735e-05
-4.07509e-05
5.18371e-05
-4.07523e-05
5.18011e-05
-4.07537e-05
5.17656e-05
-4.07551e-05
5.17305e-05
-4.07565e-05
5.16959e-05
-4.07578e-05
5.16617e-05
-4.07592e-05
5.16279e-05
-4.07603e-05
5.15944e-05
-4.07613e-05
5.15612e-05
-4.07623e-05
5.15283e-05
-4.0763e-05
5.14956e-05
-4.07638e-05
5.14632e-05
-4.07645e-05
5.1431e-05
-4.07653e-05
5.13992e-05
-4.07661e-05
5.13677e-05
-4.07672e-05
5.13366e-05
-4.07683e-05
5.13059e-05
-4.07696e-05
5.12757e-05
-4.0771e-05
5.1246e-05
-4.07724e-05
5.12168e-05
-4.07739e-05
5.1188e-05
-4.07754e-05
5.11598e-05
-4.07768e-05
5.11319e-05
-4.07781e-05
5.11045e-05
-4.07793e-05
5.10774e-05
-4.07804e-05
5.10505e-05
-4.07813e-05
5.1024e-05
-4.07821e-05
5.09976e-05
-4.07827e-05
5.09714e-05
-4.07833e-05
5.09454e-05
-4.07838e-05
5.09196e-05
-4.07843e-05
5.08939e-05
-4.07848e-05
5.08684e-05
-4.07853e-05
5.08431e-05
-4.07859e-05
5.0818e-05
-4.07865e-05
5.07931e-05
-4.07872e-05
5.07685e-05
-4.07879e-05
5.07441e-05
-4.07887e-05
5.072e-05
-4.07895e-05
5.06962e-05
-4.07903e-05
5.06727e-05
-4.07912e-05
5.06494e-05
-4.0792e-05
5.06264e-05
-4.07928e-05
5.06036e-05
-4.07936e-05
5.05811e-05
-4.07943e-05
5.05588e-05
-4.0795e-05
5.05367e-05
-4.07957e-05
5.05149e-05
-4.07963e-05
5.04932e-05
-4.0797e-05
5.04718e-05
-4.07976e-05
5.04506e-05
-4.07982e-05
5.04295e-05
-4.07988e-05
5.04087e-05
-4.07994e-05
5.0388e-05
-4.07999e-05
5.03675e-05
-4.08005e-05
5.03472e-05
-4.08011e-05
5.03271e-05
-4.08016e-05
5.03072e-05
-4.08022e-05
5.02875e-05
-4.08028e-05
5.02679e-05
-4.08033e-05
5.02486e-05
-4.08039e-05
5.02294e-05
-4.08044e-05
5.02104e-05
-4.0805e-05
5.01916e-05
-4.08055e-05
5.01729e-05
-4.0806e-05
5.01544e-05
-4.08065e-05
5.01361e-05
-4.0807e-05
5.01179e-05
-4.08075e-05
5.00999e-05
-4.0808e-05
5.00821e-05
-4.08085e-05
5.00644e-05
-4.0809e-05
5.00469e-05
-4.08095e-05
5.00295e-05
-4.081e-05
5.00123e-05
-4.08104e-05
4.99953e-05
-4.08109e-05
4.99784e-05
-4.08113e-05
4.99616e-05
-4.08118e-05
4.9945e-05
-4.08122e-05
4.99285e-05
-4.08127e-05
4.99122e-05
-4.08131e-05
4.9896e-05
-4.08135e-05
4.98799e-05
-4.08139e-05
4.9864e-05
-4.08144e-05
4.98482e-05
-4.08148e-05
4.98326e-05
-4.08152e-05
4.98171e-05
-4.08156e-05
4.98017e-05
-4.0816e-05
4.97864e-05
-4.08164e-05
4.97713e-05
-4.08168e-05
4.97563e-05
-4.08171e-05
4.97414e-05
-4.08175e-05
4.97267e-05
-4.08179e-05
4.97121e-05
-4.08183e-05
4.96976e-05
-4.08186e-05
4.96832e-05
-4.0819e-05
4.96689e-05
-4.08194e-05
4.96548e-05
-4.08197e-05
4.96407e-05
-4.08201e-05
4.96268e-05
-4.08205e-05
4.9613e-05
-4.08208e-05
4.95993e-05
-4.08211e-05
4.95858e-05
-4.08215e-05
4.95723e-05
-4.08218e-05
4.95589e-05
-4.08221e-05
4.95457e-05
-4.08225e-05
4.95325e-05
-4.08228e-05
4.95195e-05
-4.08231e-05
4.95066e-05
-4.08234e-05
4.94937e-05
-4.08238e-05
4.9481e-05
-4.08241e-05
4.94684e-05
-4.08244e-05
4.94559e-05
-4.08247e-05
4.94435e-05
-4.0825e-05
4.94311e-05
-4.08253e-05
4.94189e-05
-4.08256e-05
4.94068e-05
-4.08259e-05
4.93948e-05
-4.08262e-05
4.93828e-05
-4.08265e-05
4.9371e-05
-4.08268e-05
4.93592e-05
-4.08271e-05
4.93476e-05
-4.08274e-05
4.9336e-05
-4.08276e-05
4.93245e-05
-4.08279e-05
4.93132e-05
-4.08282e-05
4.93019e-05
-4.08285e-05
4.92907e-05
-4.08287e-05
4.92795e-05
-4.0829e-05
4.92685e-05
-4.08292e-05
4.92576e-05
-4.08296e-05
4.92467e-05
-4.08297e-05
4.92359e-05
-4.08301e-05
4.92252e-05
-4.08302e-05
4.92146e-05
-4.08306e-05
4.92041e-05
-4.08307e-05
4.91936e-05
-4.08311e-05
4.91832e-05
-4.08312e-05
4.9173e-05
-4.08316e-05
4.91627e-05
-4.08317e-05
4.91526e-05
-4.08321e-05
4.91425e-05
-4.08321e-05
4.91326e-05
-4.08326e-05
4.91226e-05
-4.08326e-05
4.91128e-05
-4.08331e-05
4.91031e-05
-4.0833e-05
4.90934e-05
-4.08335e-05
4.90838e-05
-4.08334e-05
4.90743e-05
-4.0834e-05
4.90648e-05
-4.08339e-05
4.90554e-05
-4.08345e-05
4.9046e-05
-4.08343e-05
4.90368e-05
-4.08349e-05
4.90276e-05
-4.08347e-05
4.90185e-05
-4.08353e-05
4.90094e-05
-4.08351e-05
4.90005e-05
-4.08358e-05
4.89915e-05