/*--------------------------------*- C++ -*----------------------------------*\
| =========                 |                                                 |
| \\      /  F ield         | foam-extend: Open Source CFD                    |
|  \\    /   O peration     | Version:     3.2                                |
|   \\  /    A nd           | Web:         http://www.foam-extend.org         |
|    \\/     M anipulation  | For copyright notice see file Copyright         |
\*---------------------------------------------------------------------------*/
FoamFile
{
    version     2.0;
    format      ascii;
    class       volScalarField;
    location    "37";
    object      omega;
}
// * * * * * * * * * * * * * * * * * * * * * * * * * * * * * * * * * * * * * //

dimensions      [0 0 -1 0 0 0 0];

internalField   nonuniform List<scalar> 
96000
(
1337.8
1193.99
994.733
901.562
863.835
843.375
828.244
814.772
802.17
790.561
780.053
770.539
761.828
753.972
746.831
740.28
734.237
728.615
723.428
718.665
714.215
710.008
706.034
702.283
698.747
695.383
692.19
689.139
686.237
683.474
680.828
678.295
675.858
673.523
671.278
669.125
667.044
665.039
663.101
661.228
659.424
657.672
655.981
654.335
652.742
651.194
649.695
648.238
646.818
645.44
644.094
642.786
641.512
640.27
639.059
637.875
636.721
635.589
634.477
633.39
632.327
631.288
630.273
629.279
628.307
627.356
626.425
625.512
624.617
623.74
622.88
622.037
621.211
620.399
619.602
618.821
618.052
617.298
616.558
615.83
615.115
614.411
613.72
613.041
612.371
611.715
611.068
610.43
609.804
609.187
608.58
607.982
607.393
606.814
606.242
605.679
605.125
604.578
604.04
603.509
602.986
602.47
601.961
601.459
600.965
600.476
599.995
599.52
599.051
598.588
598.132
597.681
597.237
596.798
596.364
595.937
595.514
595.097
594.685
594.278
593.876
593.479
593.086
592.699
592.316
591.937
591.562
591.192
590.825
590.462
590.103
589.747
589.395
589.047
588.703
588.363
588.028
587.697
587.37
587.048
586.73
586.416
586.105
585.799
585.495
585.195
584.897
584.602
584.31
584.02
583.732
583.447
583.165
582.885
582.607
582.333
582.061
581.792
581.526
581.263
581.002
580.744
580.489
580.237
579.987
579.739
579.494
579.251
579.011
578.773
578.537
578.303
578.071
577.842
577.614
577.389
577.166
576.944
576.725
576.508
576.293
576.08
575.868
575.659
575.452
575.246
575.042
574.84
574.64
574.442
574.245
574.05
573.857
573.666
573.476
573.288
573.101
572.916
572.733
572.551
572.371
572.192
572.015
571.839
571.665
571.492
571.321
571.151
570.983
570.816
570.65
570.486
570.323
570.161
570.001
569.842
569.685
569.528
569.373
569.22
569.067
568.916
568.766
568.617
568.469
568.323
568.177
568.034
567.89
567.749
567.608
567.469
567.33
567.193
567.056
566.921
566.787
566.654
566.522
566.391
566.261
566.133
566.004
565.878
565.751
565.627
565.502
565.38
565.257
565.137
565.016
564.897
564.778
564.661
564.544
564.429
564.314
564.201
564.087
563.975
563.864
563.753
563.644
563.535
563.427
563.32
563.214
563.108
563.004
562.899
562.798
562.693
562.594
562.49
562.394
562.29
562.196
562.092
562.002
561.898
561.81
561.705
561.621
561.516
561.434
561.328
561.249
561.143
561.066
560.959
560.883
560.776
560.7
560.59
560.528
560.399
560.387
560.203
560.27
559.911
497.193
517.199
492.029
452.319
418.384
393.181
374.395
360.151
348.938
339.83
332.099
325.488
319.734
314.713
310.279
306.293
302.712
299.455
296.5
293.794
291.306
288.998
286.856
284.856
282.986
281.228
279.574
278.013
276.537
275.141
273.813
272.553
271.349
270.202
269.105
268.057
267.052
266.086
265.161
264.268
263.412
262.584
261.787
261.017
260.272
259.553
258.856
258.182
257.528
256.894
256.278
255.679
255.098
254.533
253.984
253.449
252.928
252.42
251.924
251.44
250.968
250.507
250.058
249.619
249.19
248.771
248.361
247.961
247.569
247.185
246.809
246.441
246.08
245.727
245.381
245.041
244.708
244.382
244.061
243.746
243.438
243.134
242.836
242.544
242.256
241.973
241.696
241.423
241.154
240.89
240.63
240.375
240.123
239.876
239.632
239.392
239.156
238.923
238.694
238.469
238.246
238.027
237.812
237.599
237.389
237.183
236.979
236.778
236.58
236.384
236.192
236.002
235.814
235.629
235.446
235.266
235.088
234.913
234.74
234.569
234.4
234.233
234.069
233.906
233.746
233.587
233.43
233.276
233.122
232.971
232.82
232.671
232.524
232.378
232.233
232.09
231.949
231.81
231.673
231.538
231.404
231.273
231.144
231.017
230.891
230.766
230.643
230.521
230.401
230.281
230.162
230.044
229.927
229.811
229.696
229.581
229.468
229.356
229.246
229.136
229.028
228.921
228.815
228.71
228.606
228.503
228.402
228.301
228.202
228.103
228.005
227.909
227.813
227.718
227.624
227.531
227.438
227.347
227.256
227.166
227.077
226.989
226.902
226.815
226.73
226.645
226.561
226.477
226.395
226.313
226.232
226.151
226.072
225.993
225.914
225.837
225.76
225.683
225.608
225.533
225.459
225.385
225.312
225.24
225.168
225.097
225.026
224.956
224.887
224.818
224.75
224.682
224.615
224.549
224.483
224.417
224.353
224.288
224.224
224.161
224.098
224.036
223.975
223.913
223.853
223.793
223.733
223.674
223.615
223.557
223.499
223.441
223.384
223.328
223.272
223.217
223.161
223.107
223.052
222.999
222.945
222.892
222.84
222.788
222.736
222.685
222.634
222.583
222.533
222.484
222.434
222.385
222.337
222.288
222.241
222.193
222.146
222.099
222.053
222.007
221.961
221.916
221.871
221.826
221.782
221.738
221.695
221.651
221.609
221.565
221.524
221.481
221.44
221.397
221.358
221.315
221.277
221.234
221.197
221.155
221.118
221.076
221.041
220.998
220.964
220.922
220.889
220.846
220.814
220.771
220.739
220.697
220.665
220.621
220.591
220.543
220.516
220.475
220.448
220.43
210.519
283.144
296.912
287.41
274.512
260.432
247.127
235.674
226.195
218.23
211.54
205.916
201.083
196.884
193.188
189.897
186.969
184.338
181.963
179.803
177.833
176.026
174.363
172.824
171.391
170.053
168.801
167.628
166.525
165.487
164.504
163.574
162.692
161.856
161.059
160.3
159.576
158.882
158.22
157.585
156.976
156.391
155.828
155.287
154.765
154.262
153.776
153.308
152.855
152.416
151.992
151.58
151.182
150.795
150.42
150.055
149.701
149.356
149.019
148.691
148.372
148.06
147.757
147.461
147.172
146.891
146.616
146.348
146.086
145.829
145.579
145.334
145.095
144.86
144.631
144.406
144.186
143.971
143.759
143.552
143.349
143.15
142.955
142.763
142.575
142.39
142.209
142.03
141.856
141.684
141.515
141.349
141.185
141.025
140.867
140.712
140.559
140.409
140.261
140.115
139.972
139.831
139.692
139.555
139.42
139.288
139.157
139.028
138.901
138.776
138.653
138.531
138.411
138.293
138.177
138.062
137.948
137.837
137.726
137.617
137.51
137.404
137.299
137.196
137.094
136.993
136.893
136.795
136.698
136.601
136.506
136.412
136.319
136.226
136.135
136.045
135.956
135.869
135.782
135.697
135.614
135.531
135.45
135.369
135.29
135.212
135.134
135.058
134.982
134.906
134.831
134.757
134.684
134.611
134.539
134.467
134.397
134.327
134.257
134.189
134.121
134.054
133.987
133.922
133.857
133.793
133.729
133.667
133.604
133.543
133.482
133.421
133.361
133.302
133.244
133.185
133.128
133.071
133.014
132.958
132.903
132.848
132.794
132.74
132.686
132.634
132.581
132.529
132.478
132.427
132.377
132.327
132.277
132.228
132.179
132.131
132.083
132.036
131.989
131.943
131.897
131.851
131.806
131.761
131.716
131.672
131.628
131.585
131.542
131.499
131.457
131.415
131.374
131.333
131.292
131.251
131.211
131.171
131.132
131.093
131.054
131.015
130.977
130.939
130.902
130.865
130.828
130.791
130.755
130.719
130.683
130.647
130.612
130.577
130.543
130.509
130.475
130.441
130.407
130.374
130.341
130.308
130.276
130.244
130.212
130.18
130.149
130.118
130.087
130.056
130.026
129.995
129.965
129.936
129.906
129.877
129.848
129.819
129.79
129.762
129.734
129.706
129.678
129.651
129.623
129.596
129.57
129.543
129.516
129.49
129.464
129.438
129.413
129.386
129.362
129.336
129.312
129.286
129.263
129.237
129.214
129.189
129.166
129.141
129.119
129.094
129.073
129.048
129.027
129.002
128.981
128.956
128.937
128.911
128.891
128.864
128.842
128.821
128.794
128.805
92.5558
155.066
187.413
200.034
199.201
194.735
189.413
182.689
175.77
169.119
163.149
157.917
153.322
149.274
145.705
142.562
139.776
137.281
135.03
132.987
131.132
129.442
127.896
126.471
125.15
123.923
122.78
121.716
120.72
119.785
118.903
118.073
117.289
116.549
115.846
115.178
114.543
113.938
113.362
112.811
112.285
111.78
111.296
110.832
110.387
109.959
109.546
109.149
108.765
108.396
108.039
107.694
107.36
107.037
106.724
106.421
106.127
105.842
105.564
105.294
105.031
104.775
104.526
104.284
104.048
103.819
103.595
103.376
103.163
102.956
102.753
102.555
102.361
102.173
101.988
101.807
101.631
101.458
101.289
101.123
100.961
100.802
100.646
100.494
100.344
100.197
100.054
99.9125
99.774
99.6381
99.5047
99.3737
99.2451
99.1187
98.9946
98.8725
98.7526
98.6348
98.5188
98.4049
98.2928
98.1826
98.0741
97.9674
97.8623
97.759
97.6572
97.557
97.4584
97.3612
97.2655
97.1712
97.0783
96.9868
96.8966
96.8077
96.7201
96.6337
96.5485
96.4645
96.3816
96.2998
96.2191
96.1395
96.0609
95.9832
95.9065
95.8307
95.7558
95.6818
95.6088
95.5365
95.4652
95.3948
95.3253
95.2567
95.1892
95.1225
95.0569
94.9922
94.9285
94.8656
94.8035
94.7423
94.6818
94.6219
94.5628
94.5042
94.4462
94.3887
94.3318
94.2755
94.2197
94.1644
94.1097
94.0555
94.002
93.949
93.8965
93.8447
93.7934
93.7428
93.6926
93.6431
93.594
93.5455
93.4975
93.45
93.403
93.3565
93.3104
93.2648
93.2197
93.175
93.1307
93.0869
93.0435
93.0006
92.9581
92.9159
92.8742
92.8329
92.792
92.7515
92.7114
92.6717
92.6324
92.5934
92.5548
92.5166
92.4787
92.4412
92.404
92.3672
92.3307
92.2945
92.2587
92.2232
92.188
92.1532
92.1186
92.0844
92.0505
92.0168
91.9835
91.9505
91.9178
91.8853
91.8531
91.8213
91.7897
91.7583
91.7273
91.6965
91.666
91.6357
91.6057
91.576
91.5465
91.5173
91.4883
91.4596
91.4311
91.4028
91.3748
91.347
91.3194
91.2921
91.265
91.2382
91.2115
91.1851
91.1589
91.1329
91.1071
91.0815
91.0562
91.031
91.0061
90.9813
90.9568
90.9324
90.9083
90.8843
90.8606
90.837
90.8136
90.7904
90.7674
90.7445
90.7219
90.6994
90.6771
90.655
90.6331
90.6113
90.5897
90.5682
90.547
90.5258
90.505
90.4841
90.4636
90.443
90.4228
90.4026
90.3827
90.3627
90.3433
90.3235
90.3044
90.2849
90.2661
90.2468
90.2284
90.2093
90.1913
90.1724
90.1547
90.136
90.1187
90.1002
90.0832
90.0649
90.0483
90.0301
90.0138
89.9958
89.9798
89.9619
89.9463
89.9285
89.9133
89.8952
89.88
89.8614
89.8436
89.8281
89.8069
89.8159
40.7171
81.6928
111.692
133.589
145.942
150.942
150.632
148.6
145.712
141.813
137.459
133.086
128.946
125.123
121.641
118.525
115.727
113.205
110.919
108.863
107.003
105.311
103.765
102.342
101.028
99.8131
98.6869
97.6411
96.6648
95.75
94.8915
94.0855
93.3271
92.6128
91.9368
91.2958
90.6881
90.1107
89.5627
89.0404
88.5421
88.0658
87.6103
87.1745
86.7572
86.357
85.9723
85.6025
85.2467
84.9041
84.5744
84.2562
83.949
83.6521
83.3652
83.0877
82.8192
82.5592
82.3068
82.0616
81.8234
81.592
81.3672
81.1488
80.9364
80.7298
80.5286
80.3328
80.1422
79.9564
79.7753
79.5988
79.4265
79.2585
79.0943
78.9341
78.7776
78.6246
78.4751
78.3289
78.1859
78.046
77.909
77.7749
77.6437
77.515
77.3891
77.2656
77.1445
77.0259
76.9095
76.7953
76.6833
76.5734
76.4655
76.3596
76.2555
76.1534
76.053
75.9544
75.8576
75.7623
75.6687
75.5767
75.4862
75.3972
75.3096
75.2235
75.1387
75.0553
74.9732
74.8924
74.8128
74.7344
74.6573
74.5812
74.5063
74.4325
74.3598
74.2881
74.2174
74.1476
74.0789
74.011
73.9441
73.8779
73.8127
73.7482
73.6846
73.6218
73.5599
73.4988
73.4385
73.3791
73.3206
73.2629
73.2061
73.15
73.0948
73.0404
72.9867
72.9337
72.8813
72.8296
72.7785
72.728
72.6781
72.6287
72.5798
72.5314
72.4835
72.4362
72.3894
72.343
72.2972
72.2519
72.2071
72.1628
72.119
72.0756
72.0328
71.9905
71.9486
71.9072
71.8662
71.8257
71.7856
71.7459
71.7067
71.6679
71.6295
71.5914
71.5538
71.5166
71.4797
71.4432
71.4071
71.3714
71.336
71.301
71.2663
71.232
71.198
71.1643
71.131
71.098
71.0653
71.033
71.001
70.9692
70.9378
70.9067
70.8759
70.8453
70.8151
70.7851
70.7555
70.7261
70.697
70.6681
70.6395
70.6112
70.5831
70.5553
70.5277
70.5004
70.4734
70.4466
70.42
70.3937
70.3676
70.3417
70.316
70.2906
70.2654
70.2405
70.2157
70.1912
70.1669
70.1428
70.1189
70.0952
70.0717
70.0484
70.0253
70.0024
69.9797
69.9572
69.9349
69.9128
69.8908
69.8691
69.8475
69.8261
69.8049
69.7838
69.763
69.7423
69.7218
69.7014
69.6812
69.6612
69.6414
69.6217
69.6021
69.5827
69.5635
69.5445
69.5256
69.5068
69.4882
69.4697
69.4514
69.4332
69.4152
69.3973
69.3796
69.362
69.3446
69.3272
69.3101
69.293
69.2761
69.2593
69.2427
69.2261
69.2098
69.1934
69.1774
69.1612
69.1455
69.1296
69.1141
69.0984
69.0832
69.0677
69.0527
69.0374
69.0228
69.0076
68.9933
68.9783
68.9642
68.9494
68.9356
68.921
68.9074
68.8929
68.8796
68.8653
68.8523
68.838
68.8254
68.8111
68.7985
68.7839
68.7693
68.7564
68.7392
68.744
17.545
41.142
62.5705
81.8591
98.7996
111.78
118.894
121.865
121.903
120.719
118.878
116.384
113.454
110.385
107.334
104.437
101.727
99.2259
96.9209
94.8226
92.9114
91.1664
89.5649
88.0927
86.7432
85.4997
84.3488
83.281
82.2854
81.3552
80.4855
79.671
78.9064
78.1873
77.5081
76.8658
76.2584
75.6828
75.1375
74.6188
74.1248
73.6537
73.2042
72.7751
72.365
71.9724
71.5957
71.2342
70.8871
70.5535
70.233
69.9243
69.6268
69.3396
69.0626
68.7951
68.5368
68.2871
68.045
67.8104
67.5829
67.3621
67.148
66.9403
66.7385
66.5424
66.3517
66.1664
65.9861
65.8107
65.6399
65.4736
65.3115
65.1535
64.9994
64.8492
64.7026
64.5595
64.4198
64.2832
64.1498
64.0194
63.892
63.7673
63.6454
63.526
63.4093
63.2949
63.1829
63.0732
62.9656
62.8603
62.757
62.6557
62.5565
62.459
62.3634
62.2696
62.1776
62.0872
61.9984
61.9113
61.8257
61.7415
61.6589
61.5777
61.4978
61.4193
61.3421
61.2662
61.1915
61.1181
61.0458
60.9746
60.9046
60.8357
60.7678
60.7009
60.6351
60.5702
60.5062
60.4432
60.381
60.3197
60.2593
60.1996
60.1407
60.0826
60.0254
59.9689
59.9133
59.8585
59.8045
59.7513
59.699
59.6474
59.5966
59.5466
59.4972
59.4486
59.4005
59.3531
59.3062
59.2599
59.2142
59.169
59.1242
59.08
59.0363
58.9932
58.9505
58.9083
58.8666
58.8254
58.7847
58.7444
58.7046
58.6653
58.6265
58.588
58.5501
58.5125
58.4754
58.4386
58.4023
58.3664
58.3309
58.2958
58.261
58.2266
58.1926
58.159
58.1257
58.0928
58.0602
58.0279
57.996
57.9645
57.9332
57.9023
57.8717
57.8414
57.8115
57.7818
57.7524
57.7234
57.6946
57.6661
57.6379
57.6099
57.5823
57.5549
57.5278
57.5009
57.4743
57.448
57.4219
57.396
57.3705
57.3451
57.32
57.2951
57.2705
57.2461
57.2219
57.1979
57.1742
57.1507
57.1274
57.1043
57.0814
57.0587
57.0362
57.014
56.9919
56.9701
56.9484
56.9269
56.9056
56.8845
56.8636
56.8429
56.8223
56.802
56.7818
56.7617
56.7419
56.7222
56.7027
56.6834
56.6642
56.6452
56.6264
56.6077
56.5892
56.5708
56.5526
56.5345
56.5166
56.4988
56.4812
56.4638
56.4464
56.4293
56.4122
56.3953
56.3786
56.3619
56.3455
56.3291
56.3129
56.2968
56.2808
56.265
56.2493
56.2337
56.2183
56.2029
56.1877
56.1726
56.1577
56.1428
56.1281
56.1135
56.099
56.0846
56.0704
56.0562
56.0422
56.0282
56.0144
56.0006
55.9871
55.9735
55.9602
55.9468
55.9337
55.9205
55.9077
55.8946
55.882
55.8691
55.8567
55.844
55.8319
55.8193
55.8074
55.795
55.7833
55.771
55.7596
55.7474
55.7364
55.7242
55.7132
55.7009
55.6885
55.6772
55.6628
55.6642
7.3657
19.6851
32.9474
46.5201
60.67
74.7714
87.0838
95.8235
100.422
102.355
102.539
101.754
100.51
98.8749
96.8218
94.5898
92.3021
90.063
87.9106
85.8714
83.9681
82.2017
80.5614
79.0422
77.6426
76.3489
75.1499
74.0357
72.9978
72.0339
71.1352
70.2946
69.5062
68.765
68.0664
67.4078
66.7863
66.1985
65.6422
65.1138
64.6114
64.1333
63.678
63.2441
62.8301
62.4341
62.0548
61.6915
61.3433
61.0091
60.6886
60.3802
60.0833
59.7974
59.5218
59.2562
59
58.7526
58.5133
58.2816
58.0573
57.84
57.6295
57.4255
57.2275
57.0353
56.8487
56.6675
56.4914
56.3203
56.1539
55.9919
55.8343
55.6808
55.5312
55.3855
55.2435
55.105
54.9699
54.838
54.7092
54.5835
54.4607
54.3408
54.2235
54.1088
53.9967
53.887
53.7796
53.6746
53.5717
53.471
53.3724
53.2757
53.181
53.0881
52.997
52.9078
52.8202
52.7344
52.6501
52.5673
52.4862
52.4064
52.3281
52.2513
52.1757
52.1015
52.0286
51.9569
51.8865
51.8172
51.7491
51.6821
51.6161
51.5513
51.4874
51.4246
51.3627
51.3017
51.2417
51.1826
51.1243
51.0668
51.0102
50.9543
50.8992
50.8449
50.7914
50.7387
50.6869
50.6358
50.5856
50.5361
50.4875
50.4396
50.3924
50.3459
50.3001
50.2549
50.2102
50.1661
50.1226
50.0795
50.037
49.9949
49.9534
49.9123
49.8718
49.8318
49.7923
49.7532
49.7147
49.6766
49.639
49.6019
49.5652
49.5289
49.4931
49.4577
49.4227
49.388
49.3538
49.32
49.2865
49.2535
49.2208
49.1884
49.1564
49.1248
49.0936
49.0626
49.032
49.0018
48.9719
48.9423
48.913
48.884
48.8554
48.827
48.7989
48.7712
48.7437
48.7165
48.6896
48.663
48.6366
48.6105
48.5847
48.5591
48.5338
48.5088
48.484
48.4594
48.4351
48.4111
48.3872
48.3636
48.3402
48.3171
48.2942
48.2715
48.249
48.2267
48.2047
48.1828
48.1612
48.1397
48.1185
48.0974
48.0766
48.0559
48.0355
48.0152
47.9951
47.9752
47.9555
47.9359
47.9166
47.8974
47.8784
47.8595
47.8408
47.8223
47.8039
47.7857
47.7677
47.7498
47.7321
47.7146
47.6971
47.6799
47.6628
47.6458
47.629
47.6123
47.5958
47.5794
47.5632
47.547
47.5311
47.5152
47.4995
47.4839
47.4685
47.4532
47.438
47.4229
47.408
47.3931
47.3785
47.3639
47.3494
47.3351
47.3209
47.3068
47.2928
47.2789
47.2651
47.2515
47.2379
47.2245
47.2112
47.1979
47.1848
47.1718
47.1589
47.1461
47.1334
47.1208
47.1083
47.0959
47.0836
47.0713
47.0593
47.0472
47.0353
47.0234
47.0118
47
46.9886
46.977
46.9658
46.9543
46.9433
46.932
46.9212
46.9101
46.8994
46.8885
46.8781
46.8672
46.8572
46.8463
46.8364
46.8255
46.8145
46.8044
46.7919
46.791
3.17541
9.03273
16.3301
24.6164
34.1849
45.1597
56.9716
68.3139
77.3733
83.5054
86.8035
88.1669
88.3918
87.8905
87.0461
85.8887
84.457
82.8318
81.117
79.3706
77.652
75.992
74.4083
72.9097
71.4999
70.1794
68.9457
67.7921
66.7126
65.7072
64.7688
63.8896
63.0651
62.2891
61.5618
60.878
60.2335
59.6244
59.0481
58.5015
57.9828
57.4903
57.022
56.5763
56.1514
55.7454
55.3571
54.9859
54.6305
54.29
53.9637
53.6501
53.3486
53.0585
52.7795
52.5107
52.2519
52.0021
51.7608
51.5276
51.3021
51.0839
50.8729
50.6685
50.4703
50.2782
50.0918
49.9109
49.7354
49.5649
49.3993
49.2383
49.0817
48.9293
48.781
48.6367
48.4961
48.3591
48.2256
48.0954
47.9684
47.8444
47.7235
47.6054
47.4901
47.3774
47.2673
47.1597
47.0544
46.9515
46.8508
46.7523
46.6559
46.5614
46.4689
46.3783
46.2896
46.2026
46.1174
46.0338
45.9518
45.8714
45.7926
45.7152
45.6392
45.5647
45.4915
45.4197
45.3491
45.2797
45.2116
45.1447
45.0789
45.0142
44.9506
44.888
44.8265
44.7659
44.7063
44.6477
44.5899
44.5331
44.4771
44.4218
44.3674
44.3138
44.261
44.209
44.1578
44.1073
44.0578
44.009
43.961
43.9139
43.8675
43.8218
43.7768
43.7325
43.6887
43.6456
43.603
43.5609
43.5194
43.4783
43.4377
43.3977
43.3581
43.3191
43.2805
43.2425
43.2049
43.1679
43.1313
43.0952
43.0596
43.0244
42.9896
42.9553
42.9214
42.8879
42.8548
42.822
42.7896
42.7577
42.726
42.6948
42.6639
42.6333
42.6031
42.5733
42.5437
42.5146
42.4857
42.4572
42.429
42.4011
42.3735
42.3462
42.3192
42.2925
42.2661
42.2399
42.2141
42.1885
42.1632
42.1381
42.1134
42.0888
42.0646
42.0406
42.0168
41.9933
41.97
41.9469
41.9241
41.9015
41.8792
41.857
41.8351
41.8134
41.7919
41.7706
41.7496
41.7287
41.708
41.6876
41.6673
41.6472
41.6274
41.6077
41.5882
41.5688
41.5497
41.5307
41.512
41.4934
41.4749
41.4566
41.4385
41.4206
41.4028
41.3852
41.3678
41.3505
41.3334
41.3164
41.2995
41.2829
41.2663
41.2499
41.2337
41.2176
41.2017
41.1858
41.1702
41.1546
41.1392
41.1239
41.1088
41.0938
41.0789
41.0641
41.0495
41.035
41.0206
41.0064
40.9922
40.9782
40.9643
40.9505
40.9368
40.9232
40.9098
40.8965
40.8832
40.8701
40.8571
40.8442
40.8314
40.8187
40.8061
40.7936
40.7812
40.7689
40.7568
40.7446
40.7327
40.7207
40.709
40.6972
40.6856
40.6741
40.6627
40.6513
40.6401
40.6289
40.6179
40.6068
40.596
40.5851
40.5745
40.5638
40.5533
40.5427
40.5324
40.522
40.5119
40.5017
40.4917
40.4816
40.4719
40.4619
40.4526
40.4426
40.4334
40.4234
40.4134
40.4041
40.393
40.3906
1.45757
4.18867
7.78892
12.273
17.8525
24.8508
33.431
43.2604
53.2512
62.2672
69.1875
73.7079
76.2153
77.2705
77.541
77.271
76.6768
75.8548
74.8654
73.6726
72.3683
71.012
69.646
68.2961
66.9788
65.7114
64.5026
63.3545
62.2665
61.2397
60.2731
59.3623
58.5053
57.6963
56.9362
56.2212
55.5467
54.9093
54.3056
53.7347
53.1948
52.6829
52.1965
51.7338
51.2928
50.8721
50.4707
50.0873
49.7208
49.37
49.034
48.7113
48.4016
48.1041
47.8181
47.543
47.2783
47.023
46.7767
46.5389
46.3094
46.0875
45.8731
45.6655
45.4646
45.2698
45.0811
44.8982
44.7208
44.5488
44.3817
44.2193
44.0615
43.9082
43.759
43.614
43.4729
43.3354
43.2015
43.0711
42.9439
42.8199
42.699
42.5811
42.4659
42.3535
42.2437
42.1365
42.0317
41.9293
41.8292
41.7313
41.6355
41.5418
41.45
41.3602
41.2723
41.1862
41.1019
41.0192
40.9382
40.8588
40.7809
40.7046
40.6297
40.5563
40.4842
40.4134
40.344
40.2757
40.2088
40.143
40.0784
40.0149
39.9525
39.8911
39.8308
39.7714
39.713
39.6556
39.5991
39.5435
39.4887
39.4347
39.3816
39.3293
39.2777
39.227
39.1771
39.128
39.0798
39.0324
38.9858
38.9399
38.8948
38.8505
38.8068
38.7637
38.7212
38.6793
38.6379
38.5971
38.5567
38.5168
38.4775
38.4386
38.4003
38.3624
38.3251
38.2883
38.252
38.2162
38.1809
38.146
38.1116
38.0777
38.0442
38.0111
37.9783
37.946
37.9141
37.8825
37.8514
37.8205
37.7901
37.76
37.7302
37.7009
37.6718
37.6431
37.6147
37.5867
37.5589
37.5315
37.5044
37.4776
37.4511
37.4249
37.399
37.3734
37.3481
37.323
37.2982
37.2737
37.2494
37.2254
37.2017
37.1782
37.155
37.132
37.1092
37.0867
37.0644
37.0424
37.0206
36.999
36.9776
36.9564
36.9355
36.9147
36.8942
36.8739
36.8538
36.8338
36.8141
36.7946
36.7752
36.7561
36.7371
36.7183
36.6997
36.6813
36.6631
36.645
36.6271
36.6094
36.5918
36.5744
36.5572
36.5401
36.5232
36.5064
36.4898
36.4733
36.457
36.4409
36.4248
36.409
36.3933
36.3777
36.3622
36.3469
36.3318
36.3167
36.3018
36.2871
36.2724
36.2579
36.2435
36.2293
36.2151
36.2011
36.1872
36.1734
36.1598
36.1462
36.1328
36.1195
36.1063
36.0932
36.0803
36.0674
36.0546
36.042
36.0294
36.017
36.0047
35.9924
35.9803
35.9683
35.9563
35.9445
35.9328
35.9211
35.9096
35.8981
35.8867
35.8754
35.8643
35.8532
35.8422
35.8313
35.8205
35.8097
35.7991
35.7885
35.778
35.7676
35.7573
35.747
35.7369
35.7268
35.7169
35.7069
35.6971
35.6873
35.6777
35.6681
35.6587
35.6491
35.6399
35.6305
35.6216
35.6123
35.6036
35.5942
35.5849
35.5761
35.5661
35.5626
0.724565
2.00411
3.78194
5.97786
8.86972
12.7118
17.8198
24.4364
32.3843
41.0586
49.5112
56.7614
62.222
65.7149
67.7272
68.6821
68.9584
68.829
68.424
67.8508
67.1199
66.2651
65.2867
64.2377
63.1544
62.0602
60.9735
59.9094
58.8776
57.8823
56.9285
56.0182
55.1532
54.3307
53.5498
52.8107
52.1105
51.4472
50.8177
50.2215
49.6568
49.1215
48.6125
48.1287
47.667
47.2284
46.8107
46.4122
46.0314
45.6672
45.3183
44.9839
44.6633
44.3558
44.0604
43.7766
43.5035
43.2404
42.9869
42.7425
42.5067
42.2791
42.0593
41.8467
41.641
41.4419
41.2491
41.0624
40.8815
40.7061
40.5359
40.3707
40.2102
40.0544
39.9029
39.7557
39.6126
39.4733
39.3377
39.2056
39.077
38.9517
38.8296
38.7105
38.5944
38.481
38.3704
38.2624
38.157
38.054
37.9534
37.855
37.7588
37.6648
37.5728
37.4828
37.3947
37.3085
37.2241
37.1414
37.0605
36.9811
36.9034
36.8272
36.7524
36.6792
36.6073
36.5368
36.4677
36.3998
36.3332
36.2678
36.2035
36.1404
36.0784
36.0175
35.9576
35.8988
35.8409
35.784
35.728
35.6729
35.6187
35.5653
35.5128
35.4611
35.4102
35.3601
35.3109
35.2625
35.215
35.1683
35.1224
35.0772
35.0328
34.9892
34.9461
34.9037
34.8619
34.8207
34.7799
34.7397
34.7
34.6608
34.6222
34.584
34.5464
34.5092
34.4726
34.4366
34.401
34.3659
34.3314
34.2973
34.2636
34.2304
34.1976
34.1653
34.1333
34.1017
34.0705
34.0397
34.0092
33.9792
33.9494
33.9201
33.891
33.8624
33.834
33.8061
33.7784
33.7511
33.724
33.6974
33.671
33.6449
33.6191
33.5936
33.5684
33.5435
33.5188
33.4945
33.4704
33.4465
33.423
33.3996
33.3766
33.3538
33.3312
33.3089
33.2868
33.265
33.2433
33.222
33.2008
33.1798
33.1591
33.1386
33.1183
33.0982
33.0783
33.0586
33.0392
33.0199
33.0008
32.9819
32.9631
32.9446
32.9263
32.9081
32.8901
32.8723
32.8546
32.8372
32.8199
32.8027
32.7858
32.7689
32.7523
32.7358
32.7195
32.7033
32.6872
32.6713
32.6556
32.64
32.6246
32.6092
32.5941
32.579
32.5642
32.5494
32.5348
32.5203
32.5059
32.4917
32.4776
32.4636
32.4497
32.436
32.4224
32.4089
32.3955
32.3822
32.3691
32.356
32.3431
32.3303
32.3176
32.305
32.2925
32.2801
32.2679
32.2557
32.2436
32.2316
32.2198
32.208
32.1963
32.1848
32.1733
32.1619
32.1506
32.1394
32.1283
32.1173
32.1064
32.0956
32.0848
32.0742
32.0636
32.0531
32.0427
32.0324
32.0222
32.012
32.002
31.992
31.9821
31.9722
31.9625
31.9528
31.9432
31.9337
31.9243
31.9149
31.9057
31.8964
31.8874
31.8782
31.8694
31.8604
31.8518
31.8429
31.8345
31.8256
31.8168
31.8084
31.7991
31.7949
0.395629
0.978304
1.89152
3.02524
4.41866
6.32123
8.95207
12.6109
17.538
23.7837
31.0539
38.6642
45.8648
51.8053
56.239
59.1128
60.8136
61.6824
61.9659
61.9336
61.6861
61.2782
60.7502
60.1218
59.403
58.5972
57.7412
56.861
55.9713
55.0826
54.2059
53.3498
52.5198
51.7193
50.9482
50.2092
49.5026
48.8285
48.1855
47.5724
46.9883
46.4327
45.9032
45.3992
44.9176
44.4595
44.023
43.6067
43.2087
42.8282
42.4636
42.1154
41.782
41.4624
41.1557
40.861
40.5776
40.3049
40.0425
39.7898
39.5462
39.3113
39.0845
38.8653
38.6534
38.4485
38.2503
38.0585
37.8728
37.6928
37.5183
37.3489
37.1846
37.0252
36.8703
36.72
36.5738
36.4316
36.2932
36.1586
36.0276
35.9
35.7758
35.6547
35.5366
35.4215
35.3092
35.1996
35.0927
34.9883
34.8864
34.7868
34.6894
34.5943
34.5013
34.4104
34.3214
34.2344
34.1493
34.0659
33.9843
33.9043
33.826
33.7493
33.6742
33.6005
33.5283
33.4574
33.388
33.3198
33.2529
33.1873
33.1229
33.0597
32.9976
32.9366
32.8766
32.8177
32.7598
32.7029
32.647
32.5919
32.5378
32.4845
32.4321
32.3805
32.3298
32.28
32.231
32.1828
32.1355
32.0891
32.0434
31.9985
31.9544
31.911
31.8682
31.826
31.7845
31.7435
31.703
31.6631
31.6237
31.5848
31.5464
31.5086
31.4713
31.4345
31.3983
31.3626
31.3274
31.2927
31.2585
31.2248
31.1916
31.1588
31.1264
31.0944
31.0629
31.0317
31.0009
30.9705
30.9404
30.9108
30.8815
30.8525
30.8239
30.7957
30.7678
30.7402
30.713
30.6861
30.6595
30.6332
30.6073
30.5816
30.5563
30.5312
30.5064
30.4819
30.4577
30.4338
30.4101
30.3867
30.3636
30.3407
30.318
30.2957
30.2735
30.2516
30.23
30.2086
30.1874
30.1664
30.1457
30.1251
30.1048
30.0847
30.0648
30.0452
30.0257
30.0064
29.9874
29.9685
29.9498
29.9313
29.913
29.8949
29.8769
29.8592
29.8416
29.8242
29.8069
29.7899
29.7729
29.7562
29.7396
29.7232
29.7069
29.6908
29.6749
29.6591
29.6434
29.6279
29.6126
29.5974
29.5823
29.5674
29.5526
29.5379
29.5234
29.509
29.4948
29.4806
29.4666
29.4528
29.439
29.4254
29.4119
29.3985
29.3852
29.3721
29.3591
29.3461
29.3334
29.3207
29.3081
29.2956
29.2833
29.271
29.2589
29.2468
29.2349
29.223
29.2113
29.1996
29.1881
29.1767
29.1653
29.1541
29.1429
29.1319
29.1209
29.11
29.0992
29.0885
29.0779
29.0674
29.0569
29.0466
29.0363
29.0261
29.016
29.006
28.9961
28.9862
28.9765
28.9668
28.9572
28.9476
28.9381
28.9288
28.9195
28.9102
28.9011
28.892
28.883
28.874
28.8652
28.8564
28.8478
28.8391
28.8307
28.8221
28.814
28.8053
28.7969
28.7888
28.78
28.7753
0.270364
0.517579
0.964902
1.58993
2.35524
3.282
4.53323
6.31031
8.84055
12.3724
17.0868
22.9149
29.5112
36.1921
42.3563
47.3745
51.0942
53.5573
55.0432
55.8404
56.1887
56.2134
56.0668
55.7846
55.4081
54.9413
54.408
53.8006
53.132
52.4284
51.7029
50.9663
50.2288
49.4999
48.7824
48.0813
47.3999
46.7411
46.1062
45.4948
44.907
44.3437
43.8038
43.2876
42.7931
42.3198
41.8672
41.4346
41.0204
40.6242
40.2441
39.8808
39.5329
39.1995
38.8793
38.572
38.2762
37.9926
37.7199
37.4576
37.2048
36.9611
36.7259
36.4988
36.2796
36.0678
35.8631
35.6651
35.4735
35.2879
35.108
34.9336
34.7646
34.6006
34.4415
34.287
34.1369
33.991
33.8492
33.7112
33.577
33.4465
33.3194
33.1955
33.0749
32.9573
32.8426
32.7308
32.6218
32.5154
32.4115
32.3101
32.211
32.1143
32.0197
31.9273
31.8369
31.7486
31.6621
31.5775
31.4948
31.4137
31.3344
31.2567
31.1806
31.1061
31.033
30.9614
30.8911
30.8223
30.7548
30.6885
30.6235
30.5597
30.4971
30.4356
30.3752
30.3158
30.2576
30.2003
30.144
30.0886
30.0342
29.9806
29.928
29.8762
29.8253
29.7753
29.7262
29.678
29.6306
29.584
29.5383
29.4934
29.4492
29.4056
29.3628
29.3206
29.279
29.2379
29.1974
29.1575
29.1181
29.0792
29.0409
29.0031
28.9659
28.9292
28.8931
28.8575
28.8224
28.7879
28.7538
28.7203
28.6872
28.6545
28.6223
28.5904
28.559
28.528
28.4974
28.4672
28.4373
28.4078
28.3787
28.35
28.3216
28.2935
28.2658
28.2385
28.2115
28.1848
28.1584
28.1324
28.1066
28.0812
28.0561
28.0312
28.0067
27.9824
27.9585
27.9348
27.9113
27.8882
27.8652
27.8426
27.8202
27.7981
27.7762
27.7545
27.7331
27.7119
27.691
27.6703
27.6498
27.6295
27.6095
27.5896
27.57
27.5506
27.5314
27.5123
27.4935
27.4749
27.4565
27.4382
27.4202
27.4023
27.3846
27.3671
27.3498
27.3326
27.3156
27.2988
27.2821
27.2657
27.2493
27.2332
27.2172
27.2013
27.1856
27.17
27.1546
27.1394
27.1243
27.1093
27.0945
27.0798
27.0653
27.0509
27.0366
27.0224
27.0084
26.9945
26.9808
26.9672
26.9537
26.9403
26.927
26.9139
26.9008
26.8879
26.8751
26.8625
26.8499
26.8374
26.8251
26.8128
26.8007
26.7887
26.7768
26.765
26.7533
26.7416
26.7301
26.7187
26.7074
26.6962
26.6851
26.674
26.6631
26.6522
26.6415
26.6308
26.6203
26.6098
26.5994
26.5891
26.5788
26.5687
26.5586
26.5486
26.5388
26.5289
26.5192
26.5096
26.5
26.4905
26.4811
26.4717
26.4625
26.4533
26.4442
26.4351
26.4262
26.4173
26.4085
26.3997
26.3911
26.3825
26.374
26.3655
26.3573
26.3489
26.341
26.3325
26.3243
26.3164
26.3079
26.3029
0.227938
0.324153
0.527217
0.855221
1.30236
1.83275
2.48418
3.31425
4.49821
6.19854
8.63919
12.0288
16.4853
21.8694
27.8148
33.7232
39.0742
43.4185
46.6312
48.8103
50.1636
50.9253
51.2983
51.3934
51.3058
51.1213
50.8491
50.5093
50.1038
49.6541
49.1418
48.5822
47.9961
47.3932
46.7783
46.1601
45.5448
44.9369
44.3403
43.7574
43.1895
42.6385
42.1053
41.5909
41.0953
40.6175
40.1577
39.716
39.2917
38.8845
38.4931
38.1172
37.7563
37.4099
37.0771
36.7573
36.4494
36.1539
35.8698
35.5965
35.3331
35.0794
34.8343
34.5984
34.3709
34.1513
33.9391
33.7339
33.5354
33.3432
33.1571
32.977
32.8024
32.6332
32.469
32.3097
32.1549
32.0046
31.8586
31.7167
31.5788
31.4446
31.314
31.1869
31.063
30.9424
30.8249
30.7103
30.5987
30.4898
30.3835
30.2798