/*--------------------------------*- C++ -*----------------------------------*\
| =========                 |                                                 |
| \\      /  F ield         | foam-extend: Open Source CFD                    |
|  \\    /   O peration     | Version:     3.2                                |
|   \\  /    A nd           | Web:         http://www.foam-extend.org         |
|    \\/     M anipulation  | For copyright notice see file Copyright         |
\*---------------------------------------------------------------------------*/
FoamFile
{
    version     2.0;
    format      ascii;
    class       areaScalarField;
    location    "1790";
    object      a;
}
// * * * * * * * * * * * * * * * * * * * * * * * * * * * * * * * * * * * * * //

dimensions      [1 -1 0 0 0 0 0];

internalField   nonuniform List<scalar> 
550
(
1.05176e-05
1.05176e-05
1.05176e-05
1.05176e-05
1.05176e-05
1.05176e-05
1.05176e-05
1.05176e-05
1.05176e-05
1.05176e-05
1.05176e-05
1.05176e-05
1.05176e-05
1.05176e-05
1.05176e-05
1.05176e-05
1.05176e-05
1.05176e-05
1.05176e-05
1.05176e-05
1.05176e-05
1.05176e-05
1.05176e-05
1.05176e-05
1.05176e-05
1.05176e-05
1.05176e-05
1.05176e-05
1.05176e-05
1.05176e-05
1.05176e-05
1.05176e-05
1.05176e-05
1.05176e-05
1.05176e-05
1.05176e-05
1.05176e-05
1.05176e-05
1.05176e-05
1.05176e-05
1.05176e-05
1.05176e-05
1.05176e-05
1.05176e-05
1.05176e-05
1.05176e-05
1.05176e-05
1.05176e-05
1.05176e-05
1.05176e-05
1.05176e-05
1.05176e-05
1.05176e-05
1.05176e-05
1.05176e-05
1.05176e-05
1.05176e-05
1.05176e-05
1.05176e-05
1.05176e-05
1.05176e-05
1.05176e-05
1.05176e-05
1.05176e-05
1.05176e-05
1.05176e-05
1.05176e-05
1.05176e-05
1.05176e-05
1.05176e-05
1.05176e-05
1.05176e-05
1.05176e-05
1.05176e-05
1.05176e-05
1.05176e-05
1.05176e-05
1.05176e-05
1.05176e-05
1.05176e-05
1.05176e-05
1.05176e-05
1.05176e-05
1.05176e-05
1.05176e-05
1.05176e-05
1.05176e-05
1.05176e-05
1.05176e-05
1.05176e-05
1.05176e-05
1.05176e-05
1.05176e-05
1.05176e-05
1.05176e-05
1.05176e-05
1.05176e-05
1.05176e-05
1.05176e-05
1.05176e-05
1.05176e-05
1.05176e-05
1.05176e-05
1.05176e-05
1.05176e-05
1.05176e-05
1.05176e-05
1.05176e-05
1.05176e-05
1.05299e-05
1.04461e-05
1.04483e-05
1.04493e-05
1.0445e-05
1.04488e-05
1.04517e-05
1.04523e-05
1.04527e-05
1.05176e-05
2.71891e-06
1.04611e-05
1.04592e-05
1.04628e-05
1.04596e-05
1.04695e-05
1.04643e-05
1.0465e-05
1.04616e-05
1.05176e-05
2.47732e-06
1.04706e-05
1.047e-05
1.04709e-05
2.5662e-06
1.04744e-05
1.04719e-05
1.04742e-05
1.05176e-05
1.04728e-05
1.04709e-05
1.04736e-05
1.05176e-05
2.79295e-06
1.04744e-05
1.04746e-05
1.04735e-05
1.04732e-05
1.0472e-05
1.0474e-05
1.04758e-05
1.04759e-05
1.04747e-05
2.31237e-06
1.04782e-05
1.04795e-05
1.04799e-05
1.04811e-05
1.04807e-05
1.04795e-05
1.04807e-05
1.04822e-05
1.04845e-05
2.1773e-06
1.04869e-05
1.04871e-05
1.04876e-05
1.04895e-05
1.04901e-05
1.04908e-05
1.04901e-05
1.04904e-05
1.04912e-05
2.02262e-06
1.04938e-05
1.04955e-05
1.04951e-05
1.04927e-05
1.04989e-05
1.05004e-05
1.04984e-05
1.05041e-05
1.05058e-05
1.05048e-05
1.05089e-05
1.05108e-05
1.05e-05
1.04941e-05
1.0497e-05
1.04967e-05
1.05015e-05
1.05031e-05
1.05013e-05
1.05059e-05
1.0502e-05
1.05001e-05
1.05094e-05
1.05082e-05
1.05045e-05
1.05111e-05
1.05136e-05
1.05038e-05
1.04939e-05
1.04886e-05
1.0487e-05
1.04877e-05
1.04896e-05
1.04888e-05
1.04886e-05
1.04876e-05
1.04843e-05
1.04843e-05
1.04823e-05
1.0484e-05
1.04879e-05
1.04938e-05
1.05043e-05
1.05027e-05
1.04962e-05
1.04824e-05
1.04639e-05
1.04431e-05
1.04194e-05
1.03921e-05
1.03197e-05
1.03558e-05
1.03324e-05
1.03038e-05
1.02635e-05
1.02641e-05
1.02264e-05
1.02e-05
1.02764e-05
1.03769e-05
1.02054e-05
1.01192e-05
1.00749e-05
1.00508e-05
1.01216e-05
1.00672e-05
1.00155e-05
1.00001e-05
9.98514e-06
9.97359e-06
9.96289e-06
9.95296e-06
9.94173e-06
9.93077e-06
9.9214e-06
9.91333e-06
9.90469e-06
9.89669e-06
9.88937e-06
9.88226e-06
9.87638e-06
9.86953e-06
9.86225e-06
9.85478e-06
9.84821e-06
9.84164e-06
9.83537e-06
9.82897e-06
9.82322e-06
9.81939e-06
9.81574e-06
9.81353e-06
9.81065e-06
9.80939e-06
9.80675e-06
9.80773e-06
9.81114e-06
9.83235e-06
9.85566e-06
9.81434e-06
9.77795e-06
9.77252e-06
9.76591e-06
9.76408e-06
9.76036e-06
9.7581e-06
9.75441e-06
9.75093e-06
9.74626e-06
9.74104e-06
9.73524e-06
9.72926e-06
9.723e-06
9.71655e-06
9.70996e-06
9.70352e-06
9.69712e-06
9.69092e-06
9.68478e-06
9.67891e-06
9.67318e-06
9.66786e-06
9.66268e-06
9.65777e-06
9.65291e-06
9.64817e-06
9.6435e-06
9.6389e-06
9.63448e-06
9.63019e-06
9.62596e-06
9.622e-06
9.618e-06
9.61424e-06
9.61041e-06
9.60678e-06
9.60309e-06
9.59955e-06
9.59594e-06
9.59245e-06
9.58889e-06
9.58537e-06
9.58181e-06
9.57808e-06
9.57452e-06
9.57015e-06
9.56639e-06
9.56092e-06
9.55719e-06
9.55027e-06
9.54648e-06
9.53832e-06
9.53345e-06
9.52604e-06
9.51822e-06
9.5181e-06
9.50434e-06
9.54286e-06
9.52547e-06
9.4716e-06
9.46712e-06
9.45574e-06
9.45005e-06
9.44201e-06
9.43465e-06
9.42611e-06
9.41897e-06
9.42527e-06
9.78343e-06
9.38569e-06
9.37486e-06
9.36343e-06
9.35219e-06
9.34034e-06
9.32883e-06
9.31679e-06
9.30521e-06
9.29327e-06
9.28172e-06
9.27013e-06
9.25889e-06
9.24786e-06
9.23717e-06
9.22687e-06
9.21679e-06
9.20717e-06
9.19763e-06
9.1885e-06
9.17931e-06
9.17054e-06
9.16156e-06
9.15288e-06
9.14385e-06
9.13496e-06
9.1255e-06
9.11609e-06
9.10623e-06
9.09653e-06
9.08658e-06
9.07668e-06
9.06667e-06
9.05664e-06
9.0465e-06
9.03638e-06
9.02605e-06
9.01571e-06
9.0051e-06
8.99447e-06
8.98352e-06
8.97257e-06
8.96138e-06
8.95026e-06
8.93898e-06
8.92791e-06
8.91679e-06
8.90595e-06
8.89514e-06
8.88466e-06
8.87424e-06
8.86415e-06
8.85408e-06
8.84433e-06
8.83458e-06
8.82506e-06
8.81553e-06
8.80617e-06
8.79676e-06
8.78748e-06
8.77814e-06
8.76894e-06
8.75971e-06
8.75052e-06
8.74229e-06
8.76638e-06
9.43358e-06
8.71288e-06
8.70377e-06
8.69475e-06
8.68581e-06
8.67695e-06
8.66821e-06
8.65956e-06
8.65096e-06
8.64243e-06
8.63394e-06
8.62555e-06
8.61722e-06
8.60901e-06
8.60102e-06
8.59335e-06
8.58609e-06
8.57937e-06
8.4863e-06
8.48695e-06
8.48767e-06
8.48863e-06
8.4898e-06
8.4912e-06
8.49276e-06
8.49445e-06
8.49621e-06
8.49803e-06
8.49989e-06
8.50178e-06
8.5037e-06
8.50562e-06
8.50752e-06
8.5094e-06
8.5112e-06
8.51296e-06
8.51466e-06
8.51626e-06
8.51776e-06
8.51917e-06
8.52041e-06
8.5215e-06
8.52245e-06
8.52318e-06
8.52373e-06
8.52409e-06
8.52428e-06
8.52429e-06
8.52413e-06
8.52379e-06
8.52337e-06
8.52281e-06
8.52215e-06
8.52137e-06
8.52051e-06
8.51952e-06
8.51846e-06
8.51732e-06
8.5161e-06
8.51474e-06
8.51338e-06
8.51192e-06
8.51043e-06
8.50885e-06
8.50715e-06
8.50538e-06
8.50361e-06
8.50156e-06
8.49993e-06
8.49723e-06
8.49627e-06
8.49269e-06
8.49334e-06
8.48807e-06
8.49089e-06
8.48378e-06
8.48811e-06
8.48451e-06
8.48469e-06
8.50112e-06
8.45445e-06
8.56651e-06
8.54545e-06
8.42675e-06
8.48707e-06
8.48655e-06
8.49184e-06
8.49922e-06
8.49526e-06
8.49984e-06
8.49437e-06
8.49565e-06
8.48958e-06
8.49094e-06
8.48316e-06
8.48723e-06
8.47882e-06
8.81109e-06
8.79886e-06
8.46075e-06
8.5705e-06
8.54627e-06
8.41987e-06
8.47094e-06
8.72378e-06
8.7112e-06
8.69854e-06
8.68599e-06
8.67275e-06
8.66072e-06
8.64644e-06
8.63515e-06
8.61881e-06
8.60934e-06
8.58939e-06
8.58206e-06
8.55736e-06
8.55106e-06
8.52264e-06
8.51674e-06
8.48795e-06
8.48128e-06
8.45764e-06
8.44764e-06
8.43573e-06
8.41834e-06
8.41979e-06
8.30892e-06
8.25936e-06
8.18015e-06
8.28685e-06
8.58176e-06
9.79511e-06
1.05176e-05
1.05176e-05
1.05176e-05
1.05176e-05
1.05176e-05
1.05176e-05
1.05176e-05
1.05176e-05
1.05176e-05
1.05176e-05
)
;

boundaryField
{
    inlet
    {
        type            calculated;
        value           uniform 0;
    }
    endWall
    {
        type            calculated;
        value           uniform 0;
    }
    sideWall
    {
        type            empty;
    }
}


// ************************************************************************* //
