/*--------------------------------*- C++ -*----------------------------------*\
| =========                 |                                                 |
| \\      /  F ield         | foam-extend: Open Source CFD                    |
|  \\    /   O peration     | Version:     3.2                                |
|   \\  /    A nd           | Web:         http://www.foam-extend.org         |
|    \\/     M anipulation  | For copyright notice see file Copyright         |
\*---------------------------------------------------------------------------*/
FoamFile
{
    version     2.0;
    format      ascii;
    class       areaVectorField;
    location    "1790";
    object      aUf;
}
// * * * * * * * * * * * * * * * * * * * * * * * * * * * * * * * * * * * * * //

dimensions      [0 1 -1 0 0 0 0];

internalField   nonuniform List<vector> 
550
(
(0.0700383 0 7.6724e-05)
(0.0823046 1.32162e-29 9.20637e-05)
(0.0951088 -2.26586e-29 0.000147098)
(0.108167 -1.43961e-29 0.000180496)
(0.121134 -4.469e-30 0.000228975)
(0.133655 0 0.000244819)
(0.145429 3.83959e-29 0.000270066)
(0.156189 1.37048e-28 0.000268464)
(0.165772 0 0.000292565)
(0.174055 -4.05458e-29 0.000312161)
(0.181019 1.01104e-28 0.000320125)
(0.186683 0 0.000308853)
(0.191129 -2.22859e-34 0.00029695)
(0.194457 6.49607e-29 0.000276967)
(0.196794 7.00958e-29 0.000247804)
(0.198262 0 0.000212208)
(0.198991 7.84555e-29 0.000165151)
(0.199105 0 0.000120591)
(0.198722 4.17932e-29 8.42523e-05)
(0.197975 2.21561e-29 5.00539e-05)
(0.196937 0 2.17504e-05)
(0.195672 1.32889e-29 -3.16872e-06)
(0.194235 1.1993e-29 -2.49106e-05)
(0.192675 0 -4.68186e-05)
(0.191035 1.63396e-29 -6.8613e-05)
(0.189353 1.87298e-29 -9.03763e-05)
(0.187661 0 -0.000110935)
(0.185991 1.43578e-29 -0.000123716)
(0.184364 0 -0.000130479)
(0.182781 0 -0.000137579)
(0.181245 -1.12857e-29 -0.000144763)
(0.179763 0 -0.000150877)
(0.178339 0 -0.000156721)
(0.176976 0 -0.000162912)
(0.175677 0 -0.000169156)
(0.174443 0 -0.000175429)
(0.173276 0 -0.000181978)
(0.172176 0 -0.000188652)
(0.171141 0 -0.000195395)
(0.17017 0 -0.000202128)
(0.169259 1.43703e-29 -0.000209039)
(0.168407 -1.57362e-29 -0.000216521)
(0.167609 1.5505e-29 -0.000222761)
(0.166861 -1.57706e-29 -0.000228607)
(0.16616 -1.57437e-29 -0.000234012)
(0.165503 0 -0.000240424)
(0.164885 -1.81096e-29 -0.00024779)
(0.164306 0 -0.000255395)
(0.163762 -1.96744e-29 -0.000262388)
(0.163252 0 -0.000268785)
(0.162775 2.05133e-29 -0.000274332)
(0.162328 0 -0.000278987)
(0.161909 -2.03393e-29 -0.000282966)
(0.161515 -1.994e-29 -0.000286251)
(0.161144 0 -0.000289002)
(0.160793 0 -0.000291842)
(0.160457 1.86554e-29 -0.000294662)
(0.160137 0 -0.000296849)
(0.159831 0 -0.000298859)
(0.159537 1.79269e-29 -0.000300445)
(0.159257 0 -0.000301006)
(0.158989 0 -0.000300631)
(0.158735 -1.65927e-29 -0.000299627)
(0.158492 1.58541e-29 -0.000298431)
(0.158261 -1.53649e-29 -0.000297699)
(0.15804 1.45781e-29 -0.000297051)
(0.157827 0 -0.000296884)
(0.157621 0 -0.00029709)
(0.15742 0 -0.000297406)
(0.157224 -1.45538e-29 -0.000298214)
(0.157031 -1.4959e-29 -0.000299159)
(0.156843 -1.52454e-29 -0.000299961)
(0.156661 1.58459e-29 -0.000300903)
(0.156485 0 -0.000301401)
(0.156317 -1.60644e-29 -0.000301729)
(0.156158 0 -0.000302344)
(0.156008 -1.51423e-29 -0.000302683)
(0.155866 -1.44838e-29 -0.000303116)
(0.155732 1.34812e-29 -0.000303382)
(0.155602 0 -0.000302795)
(0.155475 0 -0.000302094)
(0.155348 0 -0.000301576)
(0.155218 0 -0.00030098)
(0.155081 0 -0.000300637)
(0.154938 0 -0.000300238)
(0.154788 -8.02652e-30 -0.000299776)
(0.154631 0 -0.000299582)
(0.154471 0 -0.000299211)
(0.15431 0 -0.000299009)
(0.154151 -1.011e-29 -0.000299033)
(0.153999 0 -0.000299351)
(0.153855 1.04442e-29 -0.000300131)
(0.153722 -9.66852e-30 -0.000300352)
(0.1536 0 -0.000300147)
(0.153486 0 -0.000299955)
(0.153382 0 -0.000299405)
(0.153283 1.48638e-29 -0.000298908)
(0.153189 7.70378e-30 -0.000299159)
(0.153095 0 -0.000299188)
(0.153 0 -0.0002993)
(0.152901 0 -0.000299038)
(0.152797 1.14955e-29 -0.000299538)
(0.152687 0 -0.000298947)
(0.152573 0 -0.000299172)
(0.152453 0 -0.000298087)
(0.152329 0 -0.000299083)
(0.152203 2.1844e-29 -0.000297088)
(0.152075 0 -0.000299094)
(0.15194 0 -0.000312722)
(0.151831 1.94381e-28 -0.000238465)
(0.151696 -1.19823e-27 -0.00047093)
(0.151563 0 -0.000404826)
(0.15142 0 -0.000465733)
(0.151295 8.23805e-28 -0.000418479)
(0.151142 0 -0.000494565)
(0.151016 0 -0.000155598)
(0.15088 -4.2882e-27 2.05617e-05)
(0.15073 0 0.000200732)
(0.150576 0 -0.000464432)
(0.150426 0 -0.000994764)
(0.150268 0 -0.000704477)
(0.150147 1.25378e-26 -0.00026279)
(0.14998 0 -0.000515117)
(0.149832 0 -0.000443413)
(0.149689 -4.23269e-27 -0.000557589)
(0.149537 0 -0.000261632)
(0.14939 0 7.48487e-05)
(0.149253 -1.21282e-26 0.000251302)
(0.149078 0 -0.000433698)
(0.14892 -2.40607e-27 -0.000820407)
(0.148762 -1.32154e-26 -0.00074995)
(0.148622 0 -0.000379447)
(0.148465 0 -0.00041051)
(0.148298 0 -0.000411066)
(0.148137 -1.60717e-27 -0.00033436)
(0.148006 -1.16813e-27 0.000158546)
(0.14785 0 0.000144564)
(0.147685 0 -0.000266785)
(0.147542 0 -0.00069164)
(0.147409 9.49412e-27 -0.000151428)
(0.147252 -2.04967e-26 0.000127377)
(0.14709 0 -0.000326775)
(0.146931 0 -0.000885462)
(0.146785 0 -0.000620665)
(0.146637 -1.18784e-27 -0.000435199)
(0.146495 1.08457e-31 -0.000337023)
(0.146349 0 -0.000369994)
(0.146209 0 -0.000217346)
(0.146048 0 -0.0002981)
(0.14589 -2.70345e-27 -0.000324771)
(0.145742 5.62513e-27 -0.000475497)
(0.145605 -7.09975e-27 -0.000409765)
(0.14544 1.19629e-27 -0.000461353)
(0.145294 5.05164e-28 -0.000319748)
(0.145143 2.80093e-28 -0.000444638)
(0.144999 0 -0.000309686)
(0.144851 -6.12869e-31 -0.000381435)
(0.144715 -5.13126e-28 -0.000211854)
(0.144584 0 -0.000243342)
(0.144441 0 0.000108541)
(0.144306 0 0.000213563)
(0.144157 0 -0.000295702)
(0.144007 0 -0.0007383)
(0.143873 0 -0.000529518)
(0.143746 -6.10355e-27 -0.000311774)
(0.143616 9.75137e-27 -0.000214732)
(0.143479 -4.27319e-27 -0.000315251)
(0.143353 0 -0.000435078)
(0.143227 0 -0.000380864)
(0.143113 1.05261e-27 -0.000234549)
(0.142994 0 -0.000256605)
(0.142874 0 -0.000174457)
(0.142744 4.66844e-30 -0.000379526)
(0.142631 0 -0.000377775)
(0.142509 0 -0.000450407)
(0.142405 8.36947e-28 -0.000188832)
(0.142316 0 -0.000350562)
(0.142169 0 -0.0004574)
(0.142057 0 -0.000192944)
(0.141971 6.36892e-29 -0.000318925)
(0.141833 2.22048e-28 -0.000447185)
(0.141726 6.6706e-29 -0.000195338)
(0.141638 0 -0.000333215)
(0.141517 2.03475e-28 -0.000418371)
(0.141414 2.82493e-29 -0.000131059)
(0.141398 -6.52052e-29 4.10255e-05)
(0.141351 0 -0.000268132)
(0.141247 2.90195e-29 -0.000201143)
(0.141165 1.53681e-29 -0.000230785)
(0.141051 0 -0.000317551)
(0.14096 0 -0.000162297)
(0.140894 6.33204e-29 -0.000263369)
(0.140786 0 -0.00026146)
(0.140737 0 -0.000106102)
(0.140676 0 -0.000356362)
(0.140542 -4.45038e-29 -0.000290025)
(0.140479 0 -0.000108576)
(0.140434 9.55398e-29 -0.000261688)
(0.140321 2.66565e-29 -0.000297693)
(0.140238 4.08588e-30 -7.6028e-05)
(0.140237 7.01891e-31 -6.3576e-05)
(0.140239 0 -0.000198416)
(0.140212 -1.77708e-29 -0.00022468)
(0.140161 0 -0.000243122)
(0.140096 -1.06816e-29 -0.000222079)
(0.140024 1.04341e-29 -0.000229864)
(0.139972 -2.89615e-29 -0.000141072)
(0.139916 0 -0.000211495)
(0.139867 0 -0.000109453)
(0.139835 0 -0.000180905)
(0.139781 -8.02516e-34 -0.000192192)
(0.139742 0 -0.000156545)
(0.139679 -4.29006e-33 -0.000229019)
(0.139602 -2.25752e-29 -0.000165405)
(0.139514 -2.36179e-30 -0.000158272)
(0.139395 0 -4.02078e-05)
(0.139357 9.94503e-29 0.000230838)
(0.139353 0 0.000251504)
(0.139398 1.84993e-32 0.000386048)
(0.139474 0 0.000388514)
(0.139567 -4.51819e-29 0.000419973)
(0.13968 -6.01488e-29 0.000459897)
(0.139818 -4.14678e-32 0.000424006)
(0.139911 -1.26011e-28 0.000240221)
(0.139973 -1.99211e-28 0.000395476)
(0.140086 0 0.000470696)
(0.140207 0 0.000428226)
(0.140303 2.59586e-29 0.000369927)
(0.1404 -1.15707e-28 0.000427189)
(0.140521 1.80468e-29 0.000398466)
(0.140559 6.15082e-29 0.000220448)
(0.140519 0 0.000707312)
(0.140753 -1.54517e-27 0.00134682)
(0.141107 0 0.000736929)
(0.141303 1.06847e-32 0.000484044)
(0.141468 1.20335e-28 0.000324952)
(0.141499 4.7418e-32 0.000186146)
(0.141584 -4.78338e-28 0.000677818)
(0.141771 2.93397e-28 0.00048617)
(0.141901 8.74657e-29 0.000360745)
(0.141998 0 0.00029889)
(0.142081 6.41133e-30 0.000304788)
(0.142152 -2.2963e-29 0.000260449)
(0.142217 1.43395e-29 0.000285398)
(0.142276 0 0.000246673)
(0.142329 -4.93246e-33 0.000263502)
(0.142376 5.87583e-29 0.000216923)
(0.142416 -1.22114e-29 0.000233341)
(0.142453 -9.78178e-30 0.000200457)
(0.142487 0 0.000214152)
(0.14252 0 0.000182304)
(0.14255 0 0.000196114)
(0.142579 0 0.000168222)
(0.142607 -1.33281e-33 0.000185375)
(0.142637 7.26104e-30 0.000159391)
(0.142668 2.36375e-30 0.000167059)
(0.142697 -8.67158e-30 0.000138276)
(0.142725 2.14417e-30 0.000144971)
(0.142751 -8.33872e-30 0.000118664)
(0.142775 -3.27148e-30 0.000122992)
(0.142796 0 9.45957e-05)
(0.142813 3.50904e-31 9.6385e-05)
(0.142827 0 7.56424e-05)
(0.142837 0 8.3605e-05)
(0.142845 -4.83099e-30 6.85071e-05)
(0.142851 9.50348e-31 7.83044e-05)
(0.142855 0 6.82445e-05)
(0.142854 0 6.68424e-05)
(0.142849 -7.30043e-33 6.92082e-05)
(0.142837 -2.00995e-30 8.95952e-05)
(0.142818 8.39666e-29 0.000201403)
(0.142876 0 0.000398881)
(0.142979 -2.67868e-28 0.000257795)
(0.143033 1.49753e-29 0.000122369)
(0.143062 0 0.000101057)
(0.143083 0 9.65806e-05)
(0.1431 -1.08483e-34 9.43302e-05)
(0.143116 4.24662e-34 0.000105962)
(0.143132 4.69077e-31 0.000102936)
(0.143151 0 0.000115805)
(0.143172 -1.29418e-30 0.000110547)
(0.143196 3.1406e-30 0.000121336)
(0.143221 0 0.000109719)
(0.143247 2.31895e-30 0.000117243)
(0.143273 -2.29666e-30 0.000102203)
(0.1433 0 0.000108407)
(0.143326 2.77282e-30 9.12416e-05)
(0.143351 6.11855e-31 9.5526e-05)
(0.143375 3.13113e-30 7.6773e-05)
(0.143399 -1.49292e-30 8.12775e-05)
(0.143421 -3.4647e-30 6.10874e-05)
(0.143442 0 6.6871e-05)
(0.14346 2.49973e-34 4.47513e-05)
(0.143478 -1.03956e-30 5.39228e-05)
(0.143493 0 2.91879e-05)
(0.143509 -3.59763e-34 4.48001e-05)
(0.143521 0 1.43849e-05)
(0.143538 0 4.21031e-05)
(0.143549 -4.30005e-31 -2.60574e-06)
(0.143566 3.54306e-30 4.16797e-05)
(0.143579 -7.61696e-30 -2.17573e-05)
(0.143596 -1.13691e-33 3.75666e-05)
(0.143611 6.11588e-30 -3.91294e-05)
(0.143626 0 2.9232e-05)
(0.143643 0 -5.24619e-05)
(0.143657 -1.40234e-30 1.76178e-05)
(0.143675 -1.21981e-29 -5.90624e-05)
(0.143689 -1.26616e-30 3.85011e-06)
(0.143708 1.53513e-33 -5.82322e-05)
(0.143722 0 -9.2743e-06)
(0.143743 7.12471e-30 -5.44219e-05)
(0.143759 -2.98179e-30 -1.90317e-05)
(0.143781 -2.46288e-30 -5.04706e-05)
(0.1438 1.12053e-30 -2.46954e-05)
(0.143822 1.54922e-30 -4.48617e-05)
(0.143844 -8.68586e-31 -2.54374e-05)
(0.143868 -7.66607e-31 -3.59038e-05)
(0.143891 0 -1.87847e-05)
(0.143917 0 -2.41447e-05)
(0.143946 -1.90211e-32 -5.54978e-06)
(0.143977 0 -1.40007e-06)
(0.144014 0 1.89108e-05)
(0.144051 6.6284e-32 1.4134e-05)
(0.144093 -3.98782e-30 4.17479e-05)
(0.144135 0 2.28263e-05)
(0.14418 4.09102e-30 5.37687e-05)
(0.14423 1.03892e-30 3.98659e-05)
(0.144267 -1.28776e-30 4.94664e-05)
(0.144322 -5.79321e-30 8.38124e-05)
(0.144339 -3.56119e-30 1.42548e-05)
(0.144388 0 0.000316245)
(0.144515 0 0.000273073)
(0.144623 -4.75353e-29 0.000125735)
(0.144671 5.94184e-30 5.17126e-05)
(0.144754 -4.23583e-29 0.000177843)
(0.144795 1.53541e-29 -2.60559e-05)
(0.144869 -1.93239e-28 0.000281635)
(0.144935 -1.32651e-28 -0.000129748)
(0.144945 1.12867e-31 0.000291423)
(0.145062 0 -0.000190379)
(0.144734 0 -9.58912e-05)
(0.144897 1.07093e-26 0.00198194)
(0.145392 -3.02997e-28 8.10652e-05)
(0.14544 0 0.000154488)
(0.145557 0 0.0001556)
(0.145618 0 0.000169352)
(0.145695 0 0.000173391)
(0.145764 0 0.000181026)
(0.145837 0 0.000184094)
(0.145908 0 0.000186897)
(0.145979 0 0.000184362)
(0.146048 -1.03434e-34 0.000182139)
(0.146117 -6.99403e-31 0.00017798)
(0.146184 -6.25046e-32 0.0001751)
(0.14625 -3.28996e-31 0.000171608)
(0.146314 0 0.000169257)
(0.146377 2.89018e-31 0.000167843)
(0.146439 0 0.00016721)
(0.1465 7.79447e-31 0.000167506)
(0.14656 1.04883e-30 0.000168734)
(0.146619 0 0.000170917)
(0.146677 0 0.000173247)
(0.146736 0 0.000176872)
(0.146794 2.14826e-30 0.000181102)
(0.146853 0 0.00018537)
(0.146912 2.92339e-30 0.000190923)
(0.146974 0 0.000196578)
(0.147032 0 0.000194468)
(0.1471 -5.07006e-30 0.000207178)
(0.147153 0 0.000182838)
(0.147228 1.33784e-32 0.000218036)
(0.147273 0 0.000154628)
(0.147361 7.13947e-29 0.000258776)
(0.147391 -5.89789e-29 8.07742e-05)
(0.147497 1.84607e-28 0.000357344)
(0.147515 0 -7.4483e-05)
(0.147636 -7.69465e-28 0.000507029)
(0.14766 0 -0.000329569)
(0.147764 0 0.000590421)
(0.147806 3.31744e-27 -0.000669884)
(0.147809 -1.48223e-27 0.00045444)
(0.147854 0 -0.000807052)
(0.147721 6.15009e-28 0.000134342)
(0.147759 0 -0.000468075)
(0.14764 1.69825e-28 -0.000217058)
(0.147608 -1.41604e-32 -0.000292956)
(0.147531 -1.51689e-33 -0.000267934)
(0.147472 -8.19373e-30 -0.000283421)
(0.147406 -5.85459e-32 -0.000277406)
(0.147344 -1.39505e-29 -0.000282961)
(0.147284 0 -0.000283839)
(0.147226 0 -0.000284334)
(0.14717 -4.40812e-30 -0.00028518)
(0.147116 6.79052e-30 -0.000285557)
(0.147065 -4.3436e-35 -0.000285208)
(0.147012 0 -0.000290981)
(0.146969 4.38973e-30 -0.000278803)
(0.146911 1.13188e-33 -0.000301609)
(0.146878 6.0835e-29 -0.000259194)
(0.146809 1.07726e-28 -0.000338255)
(0.146788 -9.77116e-29 -0.000199077)
(0.146707 0 -0.000439902)
(0.146701 1.46676e-29 -5.01216e-05)
(0.146613 0 -0.000643273)
(0.146587 0 0.000289189)
(0.146719 0 -0.00106446)
(0.146108 0 -0.000928856)
(0.146158 -2.71453e-26 0.00171769)
(0.146554 6.71983e-27 -0.000929452)
(0.146255 -6.20005e-28 -0.000692234)
(0.1462 -6.52078e-30 -3.71589e-05)
(0.146144 -1.15987e-27 -0.00048134)
(0.146051 0 -0.000195024)
(0.146015 -8.41699e-29 -0.000322498)
(0.145951 -3.58682e-29 -0.000265974)
(0.145907 0 -0.00028886)
(0.145855 1.75796e-30 -0.000282395)
(0.145808 0 -0.000284814)
(0.145761 -5.24862e-30 -0.000290506)
(0.145717 0 -0.000288054)
(0.145671 0 -0.000291678)
(0.145625 -1.37123e-31 -0.000287864)
(0.145577 0 -0.000291797)
(0.145526 0 -0.000295894)
(0.145475 5.42358e-30 -0.000281618)
(0.145425 0 -0.000288443)
(0.145373 0 -0.000285018)
(0.145321 3.13148e-30 -0.000284925)
(0.145267 0 -0.00028514)
(0.145211 0 -0.000285045)
(0.145154 7.21515e-30 -0.000284251)
(0.145096 -4.38264e-30 -0.0002844)
(0.145037 4.15174e-30 -0.000283775)
(0.144977 0 -0.000283561)
(0.144918 4.35473e-30 -0.000283165)
(0.144857 -4.67267e-30 -0.000283392)
(0.144797 4.0959e-30 -0.000282509)
(0.144737 -4.82386e-30 -0.000282773)
(0.144677 0 -0.000281934)
(0.144617 4.67208e-30 -0.000282053)
(0.144557 -4.15235e-30 -0.000281682)
(0.144498 -3.53677e-30 -0.00028056)
(0.144439 0 -0.000281172)
(0.144381 3.62722e-30 -0.000281177)
(0.144324 0 -0.000280145)
(0.144268 0 -0.000280531)
(0.144212 0 -0.000280408)
(0.144157 2.41918e-30 -0.000279626)
(0.144104 0 -0.00028046)
(0.144051 0 -0.000280311)
(0.143999 2.11342e-30 -0.000279989)
(0.143949 0 -0.000279631)
(0.1439 -2.10628e-30 -0.000279736)
(0.143852 0 -0.00028074)
(0.143805 0 -0.000280351)
(0.143759 9.87012e-31 -0.000279902)
(0.143714 3.25882e-30 -0.00028046)
(0.14367 0 -0.00028102)
(0.143626 -9.31598e-31 -0.000280359)
(0.143583 -1.44598e-30 -0.000280499)
(0.143541 3.252e-30 -0.000280831)
(0.143499 3.30384e-30 -0.000281063)
(0.143458 1.54581e-30 -0.000281046)
(0.143418 0 -0.000280714)
(0.143378 0 -0.000281736)
(0.143339 0 -0.000280272)
(0.143301 0 -0.000280003)
(0.143263 0 -0.000280499)
(0.143226 -3.34554e-37 -0.000280589)
(0.143188 0 -0.000279824)
(0.143152 1.89476e-30 -0.000279542)
(0.143115 0 -0.000276481)
(0.143079 0 -0.000279609)
(0.143043 1.0371e-30 -0.00027784)
(0.143008 8.38156e-37 -0.000278013)
(0.142969 -3.57019e-30 -0.00028136)
(0.142938 7.32468e-30 -0.00027124)
(0.142892 0 -0.000289377)
(0.142867 0 -0.000255422)
(0.142806 -4.36782e-29 -0.000321885)
(0.142795 4.32772e-29 -0.000196433)
(0.142714 1.43352e-28 -0.000418798)
(0.142718 0 -4.36036e-05)
(0.142623 -7.03071e-28 -0.000612658)
(0.142596 2.53345e-28 0.000192939)
(0.142534 -2.66825e-27 -0.000852307)
(0.14234 -1.84267e-27 0.000576592)
(0.142705 4.44992e-28 -0.000169715)
(0.142191 0 -0.00146639)
(0.142242 0 0.00212788)
(0.142721 -1.86674e-26 -0.00165517)
(0.14216 0 -0.000917933)
(0.142107 0 0.000148158)
(0.142002 2.17656e-27 -0.000713302)
(0.141881 0 -1.91023e-06)
(0.141853 6.16476e-28 -0.000495808)
(0.141754 0 -0.000155654)
(0.141737 -1.24305e-28 -0.000353893)
(0.141664 7.2967e-29 -0.000247087)
(0.141651 -1.35172e-33 -0.000283917)
(0.141576 2.42245e-29 -0.000319607)
(0.141576 0 -0.000185626)
(0.141476 7.34811e-28 -0.000470455)
(0.14148 -1.67046e-28 6.73073e-05)
(0.141361 0 -0.000776364)
(0.141251 -3.8337e-27 0.000730035)
(0.141583 1.43443e-27 -0.000470237)
(0.141056 -3.21933e-29 -0.00124403)
(0.14111 1.55951e-26 0.00188475)
(0.141557 0 -0.00138962)
(0.141064 -8.73987e-28 -0.00103849)
(0.140946 6.94949e-28 0.000104965)
(0.140856 -9.28421e-28 -0.00062893)
(0.140708 0 -0.000119778)
(0.140661 0 -0.000350106)
(0.140576 0 -0.000232683)
(0.140521 0 -0.000296723)
(0.140466 0 -0.000250549)
(0.1404 0 -0.000311545)
(0.140371 -6.1979e-29 -0.000219699)
(0.140284 9.70842e-29 -0.000367152)
(0.140279 3.89767e-29 -0.000119566)
(0.140165 0 -0.000500657)
(0.140182 0 6.80905e-05)
(0.140043 0 -0.000726533)
(0.140072 -1.29505e-27 0.000327254)
(0.139911 -3.41483e-27 -0.00102938)
(0.139928 6.15293e-27 0.000636326)
(0.13976 0 -0.00134604)
(0.13975 0 0.00101759)
(0.139667 0 -0.00157501)
(0.139637 0 0.00119624)
(0.139753 0 -0.00165464)
(0.139842 -6.55479e-27 0.000893738)
(0.140441 0 -0.00236794)
(0.140711 0 -0.002246)
(0.140279 0 -0.0084425)
(0.138648 0 -0.0101104)
(0.134764 -1.78854e-25 -0.0158503)
(0.123955 0 -0.0217911)
(0.114586 0 -6.8873e-05)
(0.108641 3.85918e-29 -0.000126846)
(0.101943 -7.53077e-28 0.00206151)
(0.094895 7.75291e-32 0.00316163)
(0.0844736 0 0.00675139)
(0.0694143 -5.64324e-28 0.00702612)
(0.0428269 -3.18448e-26 0.0316971)
(-0.0498407 0 0.0105303)
(-0.0646727 0 0.00387117)
(-0.0817105 2.75363e-27 -0.0126471)
)
;

boundaryField
{
    inlet
    {
        type            calculated;
        value           uniform (0 0 0);
    }
    endWall
    {
        type            calculated;
        value           uniform (0 0 0);
    }
    sideWall
    {
        type            empty;
    }
}


// ************************************************************************* //
