/*--------------------------------*- C++ -*----------------------------------*\
| =========                 |                                                 |
| \\      /  F ield         | foam-extend: Open Source CFD                    |
|  \\    /   O peration     | Version:     3.2                                |
|   \\  /    A nd           | Web:         http://www.foam-extend.org         |
|    \\/     M anipulation  | For copyright notice see file Copyright         |
\*---------------------------------------------------------------------------*/
FoamFile
{
    version     2.0;
    format      ascii;
    class       areaScalarField;
    location    "1790";
    object      deltaHb;
}
// * * * * * * * * * * * * * * * * * * * * * * * * * * * * * * * * * * * * * //

dimensions      [0 1 -1 0 0 0 0];

internalField   nonuniform List<scalar> 
550
(
0
0
-8.84488e-09
-3.63114e-08
-6.91977e-08
-9.63314e-08
-1.18871e-07
-1.34009e-07
-1.40101e-07
-1.37063e-07
-1.26158e-07
-1.09471e-07
-8.93784e-08
-6.79907e-08
-4.70104e-08
-2.76467e-08
-1.07165e-08
3.42058e-09
1.43359e-08
2.24581e-08
2.86176e-08
3.30769e-08
3.60674e-08
3.77786e-08
3.84055e-08
3.81635e-08
3.71978e-08
3.56761e-08
3.39564e-08
3.22605e-08
3.05432e-08
2.87907e-08
2.70319e-08
2.52909e-08
2.35865e-08
2.19315e-08
2.03389e-08
1.88215e-08
1.73896e-08
1.60519e-08
1.48128e-08
1.36739e-08
1.26353e-08
1.16916e-08
1.08353e-08
1.0055e-08
9.3378e-09
8.6738e-09
8.05622e-09
7.48072e-09
6.94604e-09
6.45441e-09
6.01031e-09
5.61807e-09
5.27574e-09
4.97962e-09
4.72301e-09
4.49028e-09
4.27341e-09
4.06673e-09
3.86204e-09
3.66041e-09
3.4673e-09
3.28601e-09
3.12508e-09
2.98878e-09
2.87474e-09
2.78316e-09
2.70599e-09
2.63717e-09
2.5698e-09
2.49342e-09
2.40263e-09
2.29687e-09
2.1767e-09
2.05167e-09
1.93181e-09
1.82482e-09
1.74116e-09
1.68595e-09
1.66685e-09
1.68853e-09
1.74378e-09
1.82212e-09
1.90963e-09
1.98809e-09
2.04456e-09
2.06834e-09
2.04949e-09
1.987e-09
1.88327e-09
1.75377e-09
1.61667e-09
1.48474e-09
1.36781e-09
1.27511e-09
1.21001e-09
1.17926e-09
1.1825e-09
1.21378e-09
1.26604e-09
1.32714e-09
1.39145e-09
1.45139e-09
1.50355e-09
1.5388e-09
1.56288e-09
1.61453e-09
1.47343e-09
2.71349e-09
3.11583e-09
1.73177e-09
1.6926e-09
1.55186e-09
1.74506e-09
1.45037e-09
1.37795e-09
6.21861e-10
1.61213e-07
3.18151e-09
-1.57864e-07
1.12343e-09
2.19353e-09
1.79566e-09
1.22734e-09
1.9498e-09
1.52221e-09
5.63362e-10
1.52878e-07
2.9195e-09
-1.49171e-07
1.52463e-09
1.49212e-07
2.19396e-09
-1.4563e-07
9.42844e-10
8.73507e-10
2.49925e-09
2.19602e-09
9.79843e-10
9.75469e-10
1.42085e-07
2.59494e-09
-1.38421e-07
1.51308e-09
1.55307e-09
1.59176e-09
1.42081e-09
1.66986e-09
1.9941e-09
1.36366e-09
1.33416e-07
1.9267e-09
-1.30588e-07
1.30151e-09
1.56375e-09
1.64967e-09
1.3507e-09
1.08322e-09
1.40425e-09
1.41577e-09
1.26235e-07
1.66428e-09
-1.23351e-07
9.87842e-10
1.28696e-09
1.53221e-09
1.41873e-09
1.24987e-09
9.16781e-10
8.91229e-10
1.19762e-07
1.58731e-09
-1.17337e-07
1.19961e-09
9.61433e-10
3.33048e-10
1.69367e-09
1.45291e-09
2.96456e-10
1.33808e-09
1.20923e-09
3.41549e-10
1.53858e-09
1.89775e-09
1.10224e-10
1.3589e-10
9.86925e-10
5.92658e-10
1.0646e-09
8.52318e-10
5.47119e-10
1.16045e-09
3.01833e-10
3.42768e-10
1.49562e-09
6.07955e-10
1.6307e-10
1.27142e-09
1.08485e-09
-2.62783e-11
-2.46559e-11
3.6743e-10
5.67026e-10
6.63741e-10
7.48496e-10
5.26384e-10
5.77971e-10
5.05443e-10
2.4233e-10
5.2019e-10
3.48004e-10
5.00898e-10
7.20291e-10
9.9203e-10
1.48974e-09
8.82666e-10
4.19157e-10
2.04447e-10
-1.28731e-10
-6.03314e-11
-3.70287e-10
-1.68513e-11
-1.28877e-10
-4.03225e-10
-2.13063e-10
-1.53944e-10
-1.83236e-10
-3.60471e-10
-3.18937e-10
-1.75216e-11
-1.0054e-09
-1.69105e-09
-5.72747e-10
-3.71693e-10
-1.46832e-10
-2.89005e-10
-8.89483e-10
-5.49613e-10
-3.21125e-10
-3.35417e-10
-3.01999e-10
-2.76751e-10
-2.36008e-10
-1.99677e-10
-1.44377e-10
-1.07742e-10
-7.85259e-11
-7.25366e-11
-5.06138e-11
-5.21774e-11
-4.36057e-11
-5.34565e-11
-5.69153e-11
-6.59908e-11
-5.9698e-11
-5.79842e-11
-5.20744e-11
-4.51975e-11
-3.41385e-11
-1.86191e-11
-7.52879e-12
1.20407e-12
1.00972e-11
1.47112e-11
2.52486e-11
2.77004e-11
5.53256e-11
3.36438e-11
4.20473e-11
-1.91466e-10
-4.05532e-10
-1.21647e-10
4.53484e-11
4.55797e-12
-3.46568e-12
-2.09179e-11
-2.19187e-11
-3.26302e-11
-3.89174e-11
-4.95213e-11
-5.27306e-11
-5.09441e-11
-4.74471e-11
-4.11226e-11
-3.71733e-11
-2.90674e-11
-2.38129e-11
-1.56273e-11
-1.14504e-11
-1.33154e-12
3.8496e-12
1.55909e-11
1.95367e-11
3.37345e-11
2.47627e-11
4.86853e-11
1.18856e-11
4.83955e-11
-1.09042e-11
2.53668e-11
-2.20605e-11
2.86294e-12
-2.4503e-11
-1.77003e-11
-1.72069e-11
-3.40105e-11
-6.58206e-12
-4.93117e-11
-1.41786e-11
-6.08114e-11
-3.30684e-11
-6.9399e-11
-4.73521e-11
-7.51158e-11
-5.44558e-11
-7.4392e-11
-5.24125e-11
-7.25239e-11
-5.99716e-11
-9.07962e-11
-1.17752e-10
-1.24869e-10
-1.56286e-10
-1.3278e-10
-1.93399e-10
-1.38644e-10
-1.96e-10
-1.82907e-10
-1.4221e-10
-6.07288e-10
-3.96771e-10
-2.06556e-10
-8.90322e-11
-4.16411e-10
9.07927e-12
-6.77275e-10
2.25127e-11
-7.57995e-10
-1.23726e-11
-3.46729e-10
-2.29172e-09
2.83633e-10
1.40867e-10
-1.08103e-10
-1.39354e-10
-1.8583e-10
-1.95271e-10
-2.08284e-10
-2.16278e-10
-2.16828e-10
-2.14513e-10
-2.0984e-10
-2.05575e-10
-2.01194e-10
-1.97206e-10
-1.94493e-10
-1.9282e-10
-1.88816e-10
-1.86221e-10
-1.83758e-10
-1.82226e-10
-1.81543e-10
-1.85295e-10
-1.8591e-10
-1.96066e-10
-1.96299e-10
-2.01299e-10
-2.13992e-10
-1.82647e-10
-2.42598e-10
-1.32128e-10
-3.3294e-10
1.44206e-11
-5.68257e-10
1.7301e-10
-9.47691e-10
9.65627e-11
-1.19262e-09
-2.10789e-11
-1.11858e-10
1.46938e-10
2.01712e-09
-5.76694e-11
1.77505e-09
9.13271e-10
1.18388e-09
1.10632e-09
1.11846e-09
1.07831e-09
1.05347e-09
1.01673e-09
9.89193e-10
9.58962e-10
9.41684e-10
9.13234e-10
8.9241e-10
9.1502e-10
8.2826e-10
1.01056e-09
6.54753e-10
1.19426e-09
3.1672e-10
2.10008e-09
-1.75989e-09
-1.4629e-09
-3.92245e-09
-1.3827e-09
8.26785e-09
5.06955e-09
1.69835e-09
5.22256e-10
1.45254e-09
6.43583e-10
9.7133e-10
7.82178e-10
8.48364e-10
8.02854e-10
7.92856e-10
7.89002e-10
7.87511e-10
7.82499e-10
7.67053e-10
8.09803e-10
2.72817e-09
2.53626e-09
4.50133e-10
4.40139e-10
4.4471e-10
4.5135e-10
4.53505e-10
4.5493e-10
4.57137e-10
4.5621e-10
4.54948e-10
4.5573e-10
4.54566e-10
4.52565e-10
4.51139e-10
4.4785e-10
4.48524e-10
4.42718e-10
4.37263e-10
4.39436e-10
4.34692e-10
4.29119e-10
4.29912e-10
4.24296e-10
4.20278e-10
4.21815e-10
4.19687e-10
4.1537e-10
4.10023e-10
4.10439e-10
4.12375e-10
4.06916e-10
4.03111e-10
4.05435e-10
4.04757e-10
4.00121e-10
3.98764e-10
3.9804e-10
3.96591e-10
3.91074e-10
3.91758e-10
3.91862e-10
3.83174e-10
3.81484e-10
3.85107e-10
3.85832e-10
3.90796e-10
3.82387e-10
3.84553e-10
3.91249e-10
3.89938e-10
3.99812e-10
3.8455e-10
4.3146e-10
3.51834e-10
5.49612e-10
2.12537e-10
7.7202e-10
-7.03403e-11
1.09896e-09
-3.23471e-10
1.97932e-09
1.42828e-09
-6.34866e-09
6.39911e-09
-1.35393e-10
-6.46248e-09
6.75651e-09
1.22268e-09
2.09728e-11
1.11554e-09
1.00162e-10
8.51819e-10
2.28597e-10
6.10944e-10
2.8855e-10
6.66801e-10
1.24335e-10
1.06106e-09
-7.03514e-09
-3.65056e-09
6.7125e-09
1.62509e-10
6.65052e-09
3.62393e-10
-5.95592e-09
7.72106e-10
-2.82518e-09
6.60601e-10
2.01171e-09
7.377e-10
1.1863e-09
9.1504e-10
9.71628e-10
1.00415e-09
8.43671e-10
1.1826e-09
7.01038e-10
1.45619e-09
5.51752e-10
1.73605e-09
4.5672e-10
1.97511e-09
5.07296e-10
2.21555e-09
4.68436e-10
1.38516e-09
2.34617e-10
-5.66806e-10
-1.35886e-09
-8.60645e-09
-1.23006e-08
-1.34326e-08
-1.3987e-08
-1.30031e-08
7.58755e-08
8.79956e-08
1.9806e-08
9.58978e-09
7.58179e-10
0
0
0
0
0
0
)
;

boundaryField
{
    inlet
    {
        type            zeroGradient;
    }
    endWall
    {
        type            zeroGradient;
    }
    sideWall
    {
        type            empty;
    }
}


// ************************************************************************* //
