/*--------------------------------*- C++ -*----------------------------------*\
| =========                 |                                                 |
| \\      /  F ield         | foam-extend: Open Source CFD                    |
|  \\    /   O peration     | Version:     3.2                                |
|   \\  /    A nd           | Web:         http://www.foam-extend.org         |
|    \\/     M anipulation  | For copyright notice see file Copyright         |
\*---------------------------------------------------------------------------*/
FoamFile
{
    version     2.0;
    format      ascii;
    class       areaScalarField;
    location    "1790";
    object      He;
}
// * * * * * * * * * * * * * * * * * * * * * * * * * * * * * * * * * * * * * //

dimensions      [0 0 0 0 0 0 0];

internalField   nonuniform List<scalar> 
550
(
0
0
0
0
0
0
0
0
0
0
0
0
0
0
0
0
0
0
0
0
0
0
0
0
0
0
0
0
0
0
0
0
0
0
0
0
0
0
0
0
0
0
0
0
0
0
0
0
0
0
0
0
0
0
0
0
0
0
0
0
0
0
0
0
0
0
0
0
0
0
0
0
0
0
0
0
0
0
0
0
0
0
0
0
0
0
0
0
0
0
0
0
0
0
0
0
0
0
0
0
0
0
0
0
0
0
0
0
0
1.99197e-06
5.17319e-06
5.68829e-06
5.82583e-06
5.80531e-06
2.87171e-06
1.46401e-06
0
0
0
2.27037e-05
5.3486e-06
1.32348e-06
1.28007e-06
1.27763e-05
9.11556e-06
1.27122e-06
0
0
0
1.94434e-05
8.36007e-06
2.23809e-06
2.17576e-06
2.10525e-06
1.0544e-06
0
0
0
1.20947e-05
1.07207e-06
0
0
2.15572e-05
7.87152e-06
3.39665e-06
2.49522e-06
1.64296e-06
7.88086e-07
7.51632e-07
7.28501e-07
1.08439e-05
5.51478e-06
1.99593e-06
2.04333e-05
1.12224e-05
4.38426e-06
3.6561e-06
2.46586e-06
5.99589e-07
0
0
0
1.57501e-05
5.1424e-06
4.88293e-07
4.57065e-07
4.27341e-07
1.51706e-05
6.04758e-06
8.48911e-07
4.17918e-07
3.07853e-07
1.78072e-07
1.459e-05
6.64688e-06
1.70963e-06
1.6532e-06
1.35847e-06
1.84557e-05
1.22618e-05
3.07341e-06
2.24276e-06
2.28155e-06
1.74528e-06
8.4111e-05
5.49158e-05
3.75848e-05
3.20039e-05
3.02785e-05
2.77316e-05
3.23042e-05
3.05504e-05
2.13921e-05
1.76331e-05
1.55832e-05
1.12295e-05
2.41906e-05
2.21614e-05
1.08773e-05
0.000260431
0.000199007
0.000141754
8.94601e-05
4.75061e-05
4.63956e-05
7.07988e-05
8.31545e-05
7.2505e-05
8.96836e-05
9.79994e-05
6.97339e-05
7.41893e-05
7.6557e-05
1.85193e-05
0
0
0
0
0
0
0
0
0
0
0
0
0
0
0
0
0
0
0
0
0
0
0
0
0
0
0
0
0
0
0
0
0
0
0
0
0
0
0
0
0
0
0
0
0
0
2.75374e-06
2.48011e-06
2.19039e-06
8.54024e-08
7.37025e-08
6.38629e-08
5.74343e-08
5.39575e-08
4.96365e-08
4.15721e-08
3.08874e-08
2.20689e-08
1.86039e-08
1.71273e-08
1.27463e-08
5.68128e-09
4.84255e-10
0
0
0
0
0
0
0
0
0
0
0
0
0
0
0
0
0
0
0
0
0
0
0
0
0
0
0
0
0
0
0
0
0
0
0
0
0
0
0
0
0
5.39381e-07
6.70618e-07
2.61568e-06
2.866e-06
5.0124e-06
5.2328e-06
5.47917e-06
5.71842e-06
5.88461e-06
5.98052e-06
6.05751e-06
6.12277e-06
6.10746e-06
6.00839e-06
5.93084e-06
5.86259e-06
5.82488e-06
5.71634e-06
5.51564e-06
5.29303e-06
4.97065e-06
4.65928e-06
4.10053e-06
3.86214e-06
3.64868e-06
3.36887e-06
3.10851e-06
2.88563e-06
2.68246e-06
2.47328e-06
2.23334e-06
2.01206e-06
1.82802e-06
1.67042e-06
1.52656e-06
1.38938e-06
1.2557e-06
1.12423e-06
9.95657e-07
8.72968e-07
7.62196e-07
6.71092e-07
6.04843e-07
5.64982e-07
5.48342e-07
5.50896e-07
5.70247e-07
5.96312e-07
6.20269e-07
6.34825e-07
6.49946e-07
7.01855e-07
7.93034e-07
8.91929e-07
9.8685e-07
1.07525e-06
1.14649e-06
1.21794e-06
1.27476e-06
1.31542e-06
1.34636e-06
1.0052e-06
3.29124e-07
0
0
0
0
0
0
0
0
0
0
0
0
0
0
0
0
0
0
0
0
0
0
0
0
1.19691e-06
2.39385e-06
1.19694e-06
0
0
0
0
0
0
0
0
0
0
0
0
0
0
0
0
0
0
0
0
0
0
0
0
0
0
0
0
0
0
0
0
0
0
0
0
0
0
0
0
0
0
0
0
0
0
0
0
0
0
0
0
0
0
0
0
0
0
0
0
0
0
0
0
0
0
0
0
0
0
0
0
0
0
0
0
0
0
0
0
0
0
0
0
0
0
0
0
0
0
0
0
0
0
0
0
0
0
0
0
0
0
0
0
0
0
0
0
0
0
0
0
0
0
0
0
0
0
0
0
0
0
0
0
0
0
2.77485e-07
1.09689e-06
1.00218e-05
3.7507e-06
1.35301e-06
4.93694e-07
0
0
0
0
0
0
0
0
0
0
)
;

boundaryField
{
    inlet
    {
        type            calculated;
        value           uniform 0;
    }
    endWall
    {
        type            calculated;
        value           uniform 0;
    }
    sideWall
    {
        type            empty;
    }
}


// ************************************************************************* //
