/*--------------------------------*- C++ -*----------------------------------*\
| =========                 |                                                 |
| \\      /  F ield         | foam-extend: Open Source CFD                    |
|  \\    /   O peration     | Version:     3.2                                |
|   \\  /    A nd           | Web:         http://www.foam-extend.org         |
|    \\/     M anipulation  | For copyright notice see file Copyright         |
\*---------------------------------------------------------------------------*/
FoamFile
{
    version     2.0;
    format      ascii;
    class       volScalarField;
    location    "1790";
    object      k;
}
// * * * * * * * * * * * * * * * * * * * * * * * * * * * * * * * * * * * * * //

dimensions      [0 2 -2 0 0 0 0];

internalField   nonuniform List<scalar> 
33000
(
0.000163512
0.000225802
0.000301524
0.000390007
0.000489116
0.000595456
0.000704988
0.000813176
0.000916018
0.00100985
0.00109228
0.00116169
0.0012177
0.00126048
0.00129095
0.00131027
0.00131993
0.00132144
0.00131637
0.00130648
0.00129282
0.00127627
0.00125759
0.00123747
0.00121649
0.00119517
0.00117391
0.00115311
0.00113302
0.00111365
0.00109502
0.00107719
0.00106018
0.00104404
0.00102877
0.00101438
0.00100085
0.000988179
0.000976333
0.000965281
0.00095498
0.000945386
0.000936445
0.000928109
0.000920327
0.000913054
0.000906253
0.000899892
0.000893945
0.000888388
0.000883197
0.000878353
0.000873824
0.000869581
0.000865588
0.000861814
0.000858227
0.000854805
0.000851536
0.000848412
0.00084543
0.000842592
0.000839895
0.000837332
0.000834892
0.000832561
0.000830319
0.00082815
0.000826039
0.000823979
0.000821963
0.000819997
0.000818089
0.000816254
0.000814501
0.000812843
0.000811278
0.000809805
0.000808404
0.00080706
0.000805745
0.00080443
0.000803081
0.000801677
0.0008002
0.000798652
0.000797041
0.000795394
0.000793735
0.000792105
0.000790536
0.000789062
0.000787692
0.000786434
0.000785273
0.000784203
0.000783192
0.000782226
0.000781265
0.000780295
0.000779283
0.000778227
0.000777113
0.000775948
0.000774732
0.000773477
0.000772198
0.000770899
0.000769534
0.000768428
0.000767062
0.000765711
0.000764269
0.000763003
0.000761453
0.000760172
0.000758769
0.000757285
0.000755864
0.000754369
0.00075265
0.000751443
0.000749809
0.000748304
0.000746881
0.000745349
0.000743853
0.000742509
0.000740882
0.00073931
0.00073761
0.000736226
0.0007348
0.000733132
0.000731443
0.000730152
0.000728648
0.000727016
0.000725617
0.000724262
0.000722737
0.000721256
0.000719709
0.000718172
0.000716729
0.000715363
0.000713919
0.000712554
0.000710992
0.000709427
0.000708001
0.00070675
0.000705152
0.000703656
0.000702199
0.000700826
0.000699384
0.000698074
0.000696801
0.000695396
0.000694109
0.00069277
0.000691339
0.000689961
0.000688746
0.000687523
0.000686203
0.000684996
0.000683793
0.000682685
0.000681557
0.000680484
0.000679254
0.000678109
0.00067696
0.000675985
0.000675134
0.000673747
0.000672678
0.000671867
0.000670571
0.000669543
0.000668723
0.000667576
0.000666593
0.000666447
0.000666016
0.000665029
0.000664261
0.000663189
0.000662331
0.00066171
0.000660701
0.000660237
0.000659668
0.000658408
0.000657815
0.000657394
0.000656345
0.000655561
0.000655551
0.000655563
0.000655312
0.000654837
0.000654233
0.000653562
0.000653073
0.000652556
0.000652099
0.000651795
0.000651298
0.000650929
0.000650348
0.000649631
0.000648807
0.000647702
0.000647355
0.000647312
0.000647731
0.000648441
0.000649306
0.000650357
0.000651642
0.000652505
0.000653089
0.000654149
0.00065527
0.000656166
0.000657081
0.000658213
0.000658564
0.000658199
0.000660442
0.000663719
0.000665553
0.000667105
0.000667394
0.000668211
0.00066997
0.000671195
0.000672108
0.000672895
0.000673575
0.000674189
0.000674745
0.000675256
0.000675697
0.00067608
0.000676431
0.000676757
0.000677062
0.000677347
0.000677622
0.000677894
0.00067818
0.00067847
0.000678749
0.000679011
0.000679259
0.000679486
0.000679691
0.000679855
0.000679985
0.000680083
0.000680161
0.000680217
0.000680253
0.000680244
0.000680194
0.00068008
0.000679901
0.000680462
0.000681438
0.000681945
0.000682225
0.000682427
0.000682585
0.000682741
0.000682895
0.000683076
0.000683274
0.000683504
0.000683743
0.000683995
0.000684244
0.000684498
0.000684745
0.000684988
0.000685218
0.000685443
0.00068565
0.00068585
0.000686027
0.000686202
0.000686341
0.000686498
0.000686612
0.000686769
0.000686878
0.000687042
0.000687165
0.000687325
0.000687464
0.000687615
0.00068777
0.00068791
0.000688079
0.00068821
0.000688393
0.000688532
0.000688727
0.000688886
0.000689092
0.000689273
0.000689491
0.000689693
0.000689924
0.00069015
0.000690399
0.000690675
0.000690975
0.000691327
0.000691683
0.000692092
0.000692494
0.000692924
0.000693409
0.000693757
0.000694289
0.000694456
0.000694926
0.000696152
0.000697191
0.000697658
0.000698458
0.000698853
0.000699568
0.000700203
0.000700308
0.000701431
0.000698261
0.000699969
0.000704633
0.000705094
0.000706234
0.000706823
0.000707572
0.000708246
0.000708951
0.000709642
0.000710333
0.000711009
0.000711679
0.000712332
0.000712976
0.000713602
0.00071422
0.000714824
0.000715419
0.000716003
0.000716582
0.000717151
0.000717721
0.00071829
0.000718865
0.000719446
0.00072005
0.000720624
0.000721284
0.000721807
0.000722537
0.000722985
0.000723843
0.00072414
0.000725187
0.000725353
0.000726553
0.000726784
0.000727817
0.000728232
0.000728253
0.000728712
0.000727387
0.000727767
0.000726591
0.000726276
0.000725516
0.000724932
0.000724286
0.000723679
0.000723082
0.000722515
0.000721968
0.00072144
0.000720939
0.000720418
0.000719997
0.000719432
0.000719099
0.000718425
0.000718225
0.000717436
0.000717369
0.000716521
0.000716251
0.000717579
0.000711606
0.000712166
0.000715964
0.000713032
0.000712482
0.00071194
0.000711031
0.000710681
0.000710052
0.000709625
0.000709125
0.000708664
0.000708215
0.00070778
0.000707336
0.000706888
0.000706425
0.00070593
0.000705441
0.00070495
0.000704447
0.000703942
0.00070342
0.000702885
0.000702333
0.00070177
0.000701198
0.000700623
0.000700044
0.000699464
0.000698882
0.0006983
0.000697719
0.000697141
0.000696565
0.000695996
0.000695432
0.000694873
0.000694322
0.000693779
0.000693243
0.000692718
0.000692202
0.000691695
0.0006912
0.000690717
0.000690246
0.000689783
0.000689331
0.000688891
0.00068846
0.000688034
0.000687616
0.000687203
0.000686798
0.000686398
0.000686006
0.00068562
0.000685241
0.000684868
0.000684505
0.000684144
0.000683787
0.000683431
0.00068308
0.000682734
0.000682389
0.000682039
0.000681706
0.000681332
0.000681038
0.000680599
0.000680365
0.000679785
0.000679674
0.000678911
0.000678939
0.000678047
0.000677786
0.000677219
0.000675356
0.000678816
0.000674002
0.000674566
0.000679059
0.000673669
0.000673145
0.000672159
0.000671007
0.000670746
0.000669805
0.000669652
0.000668959
0.00066884
0.000668128
0.000668129
0.000667191
0.000667228
0.000666126
0.000665091
0.000668206
0.000663295
0.000663867
0.00066803
0.000663355
0.000662209
0.000661376
0.000659978
0.000659542
0.000658736
0.000658222
0.000657713
0.000657089
0.00065682
0.000656012
0.000655953
0.0006549
0.000655051
0.000653768
0.000654017
0.000652548
0.000652682
0.000651164
0.000651046
0.000650318
0.000650004
0.000651128
0.000651884
0.00065764
0.000660159
0.000658315
0.000644181
0.000613753
0.000527986
0.00043766
0.000393431
0.000346555
0.000300501
0.000239378
0.000162257
9.46263e-05
8.65007e-05
0.000139917
0.000227884
0.000113262
0.000116867
0.000122871
0.000130604
0.000141036
0.000153257
0.000166815
0.000181367
0.000196978
0.000213062
0.00022966
0.000245899
0.000261698
0.000276674
0.000290945
0.000304752
0.000318362
0.000332426
0.000347302
0.000363129
0.00038038
0.000398997
0.000417182
0.000435424
0.000454168
0.000473827
0.000494734
0.000516317
0.000537314
0.000557717
0.000577431
0.000596375
0.000614472
0.000631663
0.000647888
0.000663126
0.000677368
0.000690635
0.000702949
0.000714362
0.000724922
0.000734697
0.000743739
0.000752108
0.000759837
0.00076698
0.000773605
0.000779748
0.000785407
0.000790633
0.000795434
0.000799872
0.000803946
0.000807708
0.00081114
0.000814269
0.000817056
0.000819527
0.000821653
0.000823471
0.000824978
0.000826239
0.000827259
0.000828113
0.000828799
0.00082938
0.000829819
0.000830155
0.000830311
0.00083031
0.000830073
0.000829649
0.000828984
0.00082818
0.000827218
0.000826244
0.000825254
0.000824393
0.000823622
0.000823044
0.000822558
0.000822206
0.000821814
0.000821399
0.000820779
0.000820005
0.00081893
0.000817672
0.000816117
0.000814446
0.000812582
0.000810747
0.00080885
0.000807092
0.00080534
0.000803773
0.000802194
0.000800761
0.000799247
0.000797791
0.000796201
0.000794619
0.00079288
0.000791174
0.000789302
0.000787522
0.000785553
0.000783715
0.000781702
0.000779437
0.000777314
0.000774999
0.000772627
0.000770276
0.000768059
0.000765925
0.000763663
0.000761568
0.000759242
0.000757033
0.000755064
0.000753018
0.000750752
0.000748689
0.000746681
0.000744748
0.000742703
0.000740683
0.000738529
0.000736705
0.000734854
0.000733067
0.000730928
0.000728871
0.00072706
0.00072547
0.000723604
0.000721835
0.000720368
0.000718985
0.000717096
0.000715551
0.000713916
0.000712579
0.000711084
0.000709716
0.000708158
0.00070673
0.000705336
0.000703932
0.000702679
0.00070129
0.0006997
0.000698317
0.000697187
0.000695775
0.000694369
0.000693014
0.000691738
0.000690467
0.000689183
0.000687991
0.000686884
0.000685863
0.000684831
0.000683679
0.000682585
0.000681647
0.000680676
0.000679661
0.000678719
0.000677678
0.000676589
0.000675777
0.000675055
0.000674107
0.000673174
0.000672476
0.000671529
0.000670854
0.000670344
0.000669488
0.000668886
0.000668412
0.000667672
0.000666736
0.000666263
0.000665965
0.000665448
0.000665187
0.000664783
0.000664276
0.000663971
0.000663366
0.000662826
0.000662796
0.000662185
0.000661382
0.000661181
0.000661151
0.000660718
0.000660374
0.00066012
0.000659982
0.000659967
0.000659962
0.000659858
0.000659799
0.000659728
0.000659585
0.000659595
0.000659452
0.000659455
0.000659478
0.000659581
0.000660141
0.000660014
0.000660105
0.000659888
0.000659783
0.000659765
0.000659675
0.000659609
0.000659872
0.000660424
0.000660527
0.000660709
0.000661163
0.000661569
0.000661566
0.000662397
0.000664169
0.000663444
0.000661602
0.000661867
0.000662016
0.000663517
0.00066436
0.000663957
0.000664203
0.000664803
0.000665486
0.000666172
0.0006669
0.000667564
0.000668276
0.000668944
0.00066961
0.000670218
0.000670795
0.000671351
0.000671897
0.000672432
0.000672955
0.000673442
0.000673904
0.000674364
0.000674814
0.000675254
0.000675678
0.000676089
0.000676498
0.000676913
0.000677324
0.000677735
0.000678136
0.000678528
0.000678963
0.000679378
0.000679977
0.000680961
0.000680819
0.00068026
0.000680503
0.000680878
0.000681297
0.000681732
0.000682171
0.000682643
0.000683102
0.000683553
0.000683983
0.000684407
0.000684847
0.000685302
0.00068577
0.00068625
0.000686732
0.00068723
0.00068772
0.000688221
0.000688702
0.0006892
0.000689667
0.000690177
0.000690641
0.000691177
0.00069165
0.000692195
0.000692671
0.000693209
0.000693697
0.000694243
0.000694761
0.000695316
0.000695867
0.000696427
0.000697008
0.000697573
0.000698172
0.00069875
0.000699361
0.000699947
0.000700564
0.000701155
0.000701775
0.000702377
0.000702998
0.000703625
0.000704198
0.000704791
0.000705323
0.000705941
0.000706457
0.000707094
0.000707603
0.000708105
0.000708743
0.00070908
0.000709954
0.000710539
0.000710251
0.000710333
0.000711185
0.000711576
0.000712403
0.000712706
0.000713221
0.000713855
0.000712577
0.000716462
0.000716634
0.000714243
0.000715376
0.00071572
0.000716458
0.000717105
0.000717735
0.000718386
0.000718994
0.000719653
0.000720278
0.000720941
0.00072157
0.000722236
0.000722863
0.000723529
0.000724147
0.000724799
0.000725381
0.000725989
0.000726525
0.000727092
0.000727585
0.000728124
0.000728595
0.000729113
0.000729624
0.000730133
0.000730752
0.000731161
0.000731844
0.000732079
0.000732869
0.000732846
0.000733788
0.000733515
0.000734388
0.000734003
0.00073444
0.000734499
0.000734305
0.000735282
0.000734833
0.000735471
0.000735433
0.000735688
0.00073582
0.000735987
0.000736168
0.00073632
0.000736415
0.000736523
0.000736517
0.000736536
0.000736463
0.0007363
0.000736246
0.000735891
0.000735963
0.000735399
0.000735618
0.000734737
0.000735278
0.000734723
0.000731191
0.000735928
0.000734931
0.000730818
0.000733472
0.000732836
0.00073231
0.000732361
0.000731965
0.000731908
0.000731683
0.000731573
0.000731482
0.000731309
0.000731069
0.000730765
0.000730401
0.000730017
0.000729623
0.000729166
0.000728716
0.000728223
0.000727731
0.0007272
0.00072666
0.000726079
0.000725495
0.000724897
0.000724305
0.000723713
0.000723128
0.000722542
0.00072196
0.000721378
0.000720806
0.000720242
0.000719688
0.000719144
0.000718611
0.000718082
0.000717564
0.000717058
0.000716558
0.00071608
0.000715608
0.000715161
0.000714718
0.000714304
0.000713891
0.000713509
0.00071311
0.00071274
0.000712356
0.000712004
0.000711633
0.000711298
0.000710946
0.000710632
0.000710299
0.000710011
0.0007097
0.000709424
0.000709129
0.000708867
0.000708584
0.000708336
0.000708034
0.000707791
0.000707474
0.000707175
0.000706853
0.000706454
0.000706206
0.00070565
0.000705485
0.000704631
0.000704592
0.000703442
0.000703638
0.000702561
0.000702615
0.000703941
0.000696895
0.000701408
0.000700912
0.000695757
0.000700357
0.000699186
0.000698758
0.000698748
0.000698169
0.000698225
0.000697623
0.000697574
0.000696786
0.000696674
0.000695561
0.000695629
0.000694082
0.000694526
0.000694764
0.000687819
0.000691846
0.000690935
0.000685645
0.00068927
0.000688252
0.00068722
0.000687024
0.000686172
0.000685775
0.000685136
0.000684522
0.000684009
0.000683017
0.000682678
0.000681447
0.00068133
0.000679723
0.000679844
0.000677926
0.000678278
0.000676251
0.00067686
0.000675216
0.000675604
0.000674857
0.000674522
0.000673666
0.000667104
0.000654231
0.000644885
0.000625506
0.000612367
0.000610509
0.000618319
0.000615179
0.00060475
0.000586004
0.000542842
0.000513135
0.00043737
0.000250586
0.000191897
0.000267534
0.000111177
0.000111671
0.00011283
0.00011419
0.000115731
0.000117352
0.000119082
0.000120841
0.000122737
0.000124579
0.00012652
0.000128443
0.000130204
0.000131858
0.000133419
0.000134946
0.000136535
0.000138227
0.000140098
0.00014221
0.000144635
0.000147458
0.000150693
0.000154389
0.000158605
0.000163439
0.00016903
0.000175467
0.000182831
0.000191243
0.000200823
0.000211637
0.000223809
0.000236491
0.000249431
0.000262571
0.000275879
0.000289302
0.000302812
0.000316365
0.000329942
0.000343487
0.000357005
0.000370488
0.000383952
0.000397387
0.000410546
0.000423408
0.000435952
0.000448157
0.000460014
0.000471519
0.00048268
0.000493504
0.000503997
0.000514149
0.000523948
0.000533369
0.000542375
0.000550943
0.000559057
0.000566739
0.000574006
0.000580866
0.000587354
0.000593498
0.000599347
0.000604921
0.000610255
0.000615333
0.000620166
0.000624719
0.000628987
0.000632937
0.000636581
0.000639911
0.00064297
0.000645774
0.000648387
0.000650828
0.000653159
0.000655382
0.000657532
0.000659577
0.000661533
0.000663356
0.000665053
0.000666578
0.00066795
0.000669115
0.000670084
0.000670818
0.000671344
0.000671654
0.000671785
0.000671749
0.000671565
0.000671164
0.000670564
0.000669832
0.000668985
0.000668105
0.000667208
0.000666341
0.000665495
0.000664684
0.000663817
0.000662946
0.000662168
0.000661232
0.000660325
0.000659601
0.000658591
0.000657234
0.000656196
0.000654753
0.000653433
0.00065207
0.000650827
0.000649495
0.000648443
0.000646908
0.000645499
0.000644017
0.000642789
0.000641243
0.000639874
0.000638211
0.000636845
0.000635326
0.000634182
0.000632755
0.000631697
0.000630152
0.000628989
0.000627984
0.000626858
0.000625656
0.000624906
0.000623968
0.000622775
0.000621669
0.000620803
0.000619898
0.0006191
0.00061819
0.000617408
0.000616593
0.000615926
0.000615101
0.000614551
0.000613817
0.000613062
0.000612206
0.000611765
0.000610944
0.00061027
0.000609658
0.000609049
0.000608358
0.000607637
0.000607098
0.000606577
0.00060605
0.000605727
0.000605153
0.000604758
0.0006044
0.000604166
0.000603713
0.00060346
0.000603077
0.000602733
0.000602422
0.000602391
0.000602147
0.000601922
0.000601898
0.000601566
0.000601522
0.000601747
0.00060157
0.000601646
0.000602013
0.000601996
0.000601568
0.000601569
0.000602009
0.000602163
0.000602678
0.000602961
0.000603116
0.000603516
0.000603655
0.000603866
0.000604706
0.000604929
0.000604914
0.000605573
0.000606098
0.000606191
0.000606279
0.000606487
0.000606883
0.000607331
0.000608028
0.000608592
0.00060922
0.000609803
0.000610298
0.000610968
0.000611482
0.000612167
0.000612759
0.000613645
0.000614734
0.000615476
0.000616095
0.00061661
0.000616896
0.000617283
0.000617564
0.000617644
0.000618032
0.000618792
0.000619233
0.000619508
0.000620026
0.000620581
0.000620962
0.00062201
0.000624181
0.000624107
0.000622906
0.000622729
0.000622716
0.000623688
0.000624494
0.000624336
0.000624583
0.000625007
0.000625594
0.000626174
0.000626823
0.00062747
0.000628183
0.000628895
0.000629668
0.000630419
0.000631172
0.000631921
0.000632675
0.000633426
0.00063417
0.000634886
0.000635581
0.000636254
0.00063692
0.000637559
0.000638189
0.000638789
0.000639389
0.000639979
0.000640571
0.000641154
0.000641742
0.000642305
0.0006429
0.000643521
0.000644298
0.00064533
0.00064577
0.000645714
0.000645951
0.000646417
0.000646922
0.000647504
0.000648107
0.000648746
0.000649396
0.000650065
0.000650721
0.00065139
0.000652063
0.000652755
0.000653466
0.000654191
0.000654932
0.000655682
0.000656441
0.000657202
0.000657968
0.000658738
0.00065951
0.000660298
0.000661079
0.00066189
0.000662682
0.00066351
0.000664311
0.000665145
0.000665961
0.000666817
0.000667676
0.000668558
0.000669466
0.000670374
0.000671325
0.000672259
0.000673241
0.000674204
0.000675206
0.000676193
0.000677205
0.000678206
0.000679228
0.000680241
0.00068127
0.000682297
0.000683334
0.000684362
0.000685326
0.000686299
0.00068721
0.000688141
0.000689035
0.000689858
0.000690795
0.000691573
0.000692676
0.000693833
0.000694198
0.000694584
0.000695457
0.000696009
0.000696964
0.000697501
0.000698239
0.000699142
0.00069895
0.000702011
0.000702829
0.000701411
0.000702297
0.000702706
0.00070342
0.000704101
0.00070483
0.000705557
0.000706284
0.000707001
0.00070772
0.000708432
0.000709149
0.00070986
0.000710578
0.000711291
0.000712003
0.0007127
0.000713385
0.000714044
0.000714682
0.000715297
0.000715893
0.00071647
0.000717044
0.00071757
0.000718139
0.00071863
0.000719204
0.000719658
0.000720301
0.000720625
0.000721386
0.000721454
0.000722325
0.000722133
0.000722895
0.000722575
0.000722891
0.000723015
0.000722831
0.000723813
0.000723483
0.000724056
0.000724155
0.000724427
0.000724605
0.000724775
0.000724925
0.000725088
0.000725243
0.000725383
0.000725506
0.000725585
0.000725681
0.000725677
0.000725732
0.000725609
0.000725707
0.000725429
0.00072569
0.000725179
0.00072567
0.000725182
0.000722817
0.000726092
0.000725794
0.000722684
0.000724508
0.000724253
0.000723897
0.000723979
0.000723686
0.000723597
0.000723432
0.000723327
0.000723196
0.000723031
0.000722811
0.000722572
0.000722308
0.000722012
0.000721719
0.000721403
0.000721048
0.000720673
0.000720254
0.000719803
0.000719321
0.000718814
0.000718288
0.000717752
0.00071721
0.000716667
0.000716124
0.000715583
0.000715043
0.000714505
0.000713971
0.000713445
0.000712927
0.000712417
0.000711923
0.000711442
0.000710977
0.000710531
0.000710103
0.000709691
0.000709302
0.000708931
0.00070858
0.000708239
0.00070792
0.000707609
0.000707309
0.000707013
0.00070673
0.000706454
0.000706188
0.000705932
0.000705686
0.000705455
0.000705231
0.000705024
0.000704826
0.000704636
0.000704448
0.000704268
0.000704082
0.000703902
0.000703701
0.000703495
0.000703274
0.000703028
0.000702781
0.000702448
0.00070217
0.000701725
0.000701474
0.000700815
0.000700678
0.000699754
0.000699829
0.000698917
0.000698922
0.000699968
0.000695346
0.000698685
0.000697855
0.000693271
0.000696571
0.000695716
0.00069518
0.000694918
0.000694044
0.000693717
0.000692921
0.000692468
0.000691588
0.000691118
0.000690077
0.000689849
0.000688533
0.000688783
0.000688781
0.00068413
0.000686776
0.000685554
0.000680861
0.000683085
0.000682268
0.00068111
0.000680623
0.0006795
0.000678674
0.000677714
0.00067676
0.00067595
0.000674885
0.000674206
0.000672949
0.000672527
0.000671015
0.000670822
0.000669112
0.000669117
0.000667378
0.000667583
0.000666091
0.000665925
0.000664823
0.000663528
0.000661443
0.000656844
0.000649952
0.000637716
0.000629973
0.000614775
0.000629754
0.00064082
0.00064775
0.000653391
0.000653767
0.000638415
0.000625184
0.000610067
0.000481138
0.000296332
0.000313982
0.00011101
0.000111214
0.000111802
0.000112473
0.00011318
0.000113865
0.00011443
0.000114806
0.000115025
0.000115158
0.000115197
0.000115175
0.000115075
0.000114905
0.000114672
0.000114378
0.000114048
0.000113693
0.000113328
0.000112947
0.000112572
0.000112216
0.000111887
0.000111597
0.000111369
0.00011123
0.000111215
0.000111363
0.000111711
0.000112298
0.000113168
0.000114352
0.000115893
0.000117793
0.000120046
0.000122651
0.000125607
0.000128913
0.000132578
0.000136615
0.000141069
0.000146006
0.00015148
0.00015755
0.000164272
0.000171699
0.000179726
0.000187986
0.000196456
0.00020511
0.000213931
0.000222913
0.000232072
0.000241409
0.000250961
0.000260715
0.000270677
0.000280806
0.000291042
0.000301314
0.000311566
0.000321609
0.000331405
0.000340943
0.000350229
0.000359293
0.000368171
0.000376877
0.000385454
0.000393881
0.000402154
0.00041024
0.000418102
0.00042569
0.000432986
0.000439935
0.000446565
0.000452862
0.000458874
0.00046463
0.000470201
0.000475613
0.000480941
0.000486164
0.000491324
0.000496373
0.000501309
0.000506074
0.000510675
0.000515025
0.000519119
0.000522862
0.00052627
0.000529275
0.000531943
0.000534206
0.000536185
0.000537816
0.000539229
0.000540425
0.000541501
0.000542509
0.000543495
0.000544483
0.000545509
0.000546492
0.000547349
0.000547998
0.000548803
0.000549619
0.00055044
0.000551486
0.000552295
0.00055272
0.000553304
0.000553526
0.000554035
0.000554348
0.000554775
0.000554848
0.000555072
0.000554785
0.000554616
0.000554272
0.000554103
0.000553757
0.000553577
0.000553088
0.000552829
0.000552271
0.000552052
0.000551648
0.000551565
0.0005511
0.00055093
0.000550714
0.000550504
0.000550097
0.000550081
0.000549841
0.000549609
0.000549329
0.000549343
0.000549152
0.000549127
0.000548935
0.000548944
0.000548898
0.000548964
0.000548912
0.000548996
0.000549033
0.000548967
0.000548869
0.000549065
0.000549008
0.000549048
0.000549177
0.000549249
0.000549321
0.000549339
0.000549487
0.000549666
0.00054979
0.000550051
0.000550282
0.000550453
0.000550723
0.000551141
0.000551333
0.000551634
0.000551942
0.000552194
0.000552517
0.000553085
0.000553507
0.000553896
0.000554515
0.000554901
0.000555444
0.000556247
0.000556735
0.000557428
0.000558375
0.000559097
0.00055948
0.000560125
0.000561091
0.000561881
0.000562938
0.000563957
0.000564795
0.000565905
0.000566714
0.000567606
0.000569096
0.000570137
0.000570954
0.000572287
0.000573452
0.000574333
0.000575117
0.000576009
0.00057701
0.000578037
0.000579243
0.000580387
0.000581609
0.000582809
0.000583881
0.000585076
0.000586204
0.000587415
0.000588666
0.000590026
0.000591607
0.000592905
0.000594085
0.000595189
0.000596165
0.00059712
0.00059796
0.000598542
0.00059932
0.000600364
0.00060119
0.000601843
0.00060263
0.000603479
0.00060416
0.000605323
0.000607465
0.000608181
0.000607714
0.00060783
0.000608086
0.000609028
0.000609902
0.000610104
0.000610577
0.000611239
0.000611896
0.000612584
0.000613284
0.000614023
0.000614776
0.000615579
0.000616464
0.00061736
0.000618281
0.000619208
0.000620149
0.000621097
0.000622045
0.000622964
0.000623873
0.000624744
0.000625604
0.000626425
0.000627231
0.000628004
0.00062876
0.000629503
0.000630242
0.00063097
0.000631702
0.000632419
0.000633159
0.000633943
0.00063483
0.000635944
0.0006367
0.000637023
0.000637517
0.000638181
0.000638879
0.000639647
0.000640442
0.000641281
0.00064214
0.000643035
0.000643942
0.00064487
0.000645815
0.000646778
0.000647768
0.00064877
0.0006498
0.000650839
0.000651887
0.000652942
0.000654001
0.000655068
0.000656141
0.000657231
0.00065832
0.000659433
0.000660536
0.000661666
0.000662784
0.000663925
0.000665064
0.000666228
0.000667405
0.000668605
0.000669833
0.000671076
0.000672357
0.000673642
0.000674967
0.00067629
0.000677645
0.000678999
0.000680376
0.000681753
0.000683144
0.000684535
0.000685934
0.000687332
0.000688739
0.000690146
0.000691497
0.000692838
0.00069412
0.00069538
0.000696624
0.000697799
0.000699061
0.000700206
0.000701583
0.000702994
0.000703878
0.000704647
0.000705772
0.000706639
0.000707797
0.000708645
0.000709664
0.000710788
0.000711135
0.00071402
0.000715225
0.000715068
0.000716001
0.000716664
0.000717525
0.000718365
0.000719257
0.000720138
0.000721028
0.000721898
0.000722774
0.000723634
0.000724499
0.000725346
0.0007262
0.000727034
0.000727869
0.000728674
0.000729472
0.000730232
0.000730975
0.000731683
0.000732374
0.000733033
0.000733693
0.000734297
0.000734935
0.000735481
0.000736104
0.000736608
0.000737273
0.00073768
0.000738411
0.000738642
0.000739459
0.000739467
0.000740217
0.000740027
0.000740356
0.000740378
0.000740335
0.000740936
0.000740813
0.000741202
0.000741276
0.000741478
0.000741601
0.000741727
0.000741819
0.000741916
0.000742015
0.000742101
0.000742194
0.00074224
0.000742318
0.00074231
0.00074237
0.000742284
0.000742385
0.00074222
0.000742409
0.000742061
0.000742401
0.000741987
0.000740423
0.000742777
0.000742578
0.000740735
0.000741842
0.000741516
0.000741172
0.000741069
0.000740781
0.000740629
0.000740438
0.000740272
0.000740075
0.000739858
0.000739608
0.000739339
0.000739057
0.000738739
0.000738429
0.000738105
0.000737735
0.000737352
0.000736919
0.000736454
0.000735952
0.000735428
0.000734884
0.000734332
0.000733775
0.000733216
0.000732659
0.000732104
0.000731553
0.00073101
0.000730475
0.000729952
0.000729442
0.000728944
0.00072847
0.000728018
0.000727591
0.00072719
0.000726818
0.000726468
0.00072615
0.00072585
0.000725577
0.000725314
0.000725073
0.000724839
0.000724621
0.000724401
0.000724198
0.000723997
0.000723809
0.000723627
0.000723459
0.000723302
0.000723158
0.000723023
0.000722901
0.000722779
0.000722659
0.000722535
0.000722402
0.000722258
0.000722097
0.00072191
0.000721711
0.00072147
0.000721222
0.000720889
0.000720578
0.00072013
0.000719825
0.000719222
0.000718957
0.000718114
0.000717953
0.000717042
0.000716881
0.000717339
0.00071374
0.000715794
0.000715003
0.000712031
0.000713993
0.000712941
0.000712222
0.000711593
0.000710605
0.000709895
0.0007089
0.000708117
0.000707048
0.000706298
0.00070517
0.000704581
0.000703235
0.000702964
0.000702668
0.000698819
0.000700202
0.000698978
0.000695664
0.000696712
0.000695584
0.000694262
0.000693284
0.000691978
0.000690862
0.000689674
0.000688475
0.00068741
0.000686154
0.000685202
0.000683864
0.000683078
0.000681579
0.00068098
0.000679319
0.000678923
0.000677175
0.00067699
0.000675319
0.000674826
0.000673315
0.000672158
0.000669573
0.000664524
0.000658257
0.000648232
0.000642844
0.000631311
0.000643452
0.000655723
0.000665135
0.000674295
0.000682355
0.000682364
0.000678658
0.000689869
0.000634338
0.000452888
0.000366682
0.000111039
0.000111224
0.000111755
0.000112342
0.000112927
0.000113473
0.000113919
0.000114277
0.000114513
0.000114612
0.000114575
0.000114467
0.000114277
0.00011403
0.000113729
0.000113382
0.00011299
0.000112561
0.000112098
0.000111607
0.000111087
0.000110546
0.000109988
0.000109418
0.000108842
0.000108267
0.000107701
0.000107154
0.000106634
0.000106153
0.000105717
0.000105337
0.000105021
0.000104777
0.000104613
0.000104535
0.000104551
0.000104667
0.000104904
0.000105275
0.000105783
0.000106433
0.000107238
0.000108218
0.000109401
0.000110811
0.000112467
0.000114365
0.000116496
0.00011886
0.000121453
0.000124286
0.000127374
0.000130741
0.000134423
0.000138434
0.000142788
0.000147503
0.000152591
0.000158036
0.000163849
0.000169982
0.000176429
0.000183171
0.000190184
0.000197451
0.000204965
0.000212624
0.000220382
0.000228248
0.000236232
0.000244314
0.000252469
0.00026065
0.000268833
0.000276954
0.000285014
0.000292974
0.000300846
0.000308621
0.000316328
0.000323966
0.000331587
0.000339161
0.000346722
0.000354216
0.000361646
0.00036895
0.000376147
0.000383149
0.000389948
0.000396412
0.000402569
0.000408356
0.00041384
0.000418934
0.000423748
0.000428197
0.000432427
0.000436375
0.000440172
0.000443802
0.000447323
0.000450769
0.000454157
0.000457407
0.000460407
0.000463237
0.000466076
0.000468811
0.000471487
0.000474207
0.000476708
0.000478954
0.000481193
0.000483332
0.000485396
0.000487357
0.000489199
0.000490682
0.000492029
0.000493038
0.000493957
0.000494823
0.00049569
0.00049659
0.000497473
0.000498146
0.000498861
0.000499396
0.000500075
0.000500687
0.000501368
0.000501961
0.000502637
0.00050331
0.000503926
0.000504412
0.000505132
0.000505709
0.000506301
0.000506811
0.000507534
0.000508076
0.000508772
0.000509329
0.000509991
0.000510585
0.000511277
0.000511878
0.000512533
0.000513168
0.000513701
0.000514221
0.000514953
0.000515566
0.000516192
0.000516879
0.00051753
0.000518182
0.00051878
0.000519457
0.000520206
0.000520925
0.000521713
0.000522477
0.000523171
0.000523942
0.00052482
0.000525574
0.000526407
0.000527214
0.000528016
0.000528875
0.000529911
0.000530888
0.000531798
0.000532885
0.000533838
0.000534903
0.000536195
0.0005373
0.0005385
0.000539888
0.000541199
0.000542249
0.000543485
0.000544928
0.000546266
0.000547781
0.000549352
0.000550786
0.000552457
0.000553864
0.000555326
0.000557247
0.000558983
0.000560494
0.000562303
0.000564108
0.000565692
0.000567151
0.000568682
0.000570241
0.00057182
0.00057348
0.000575122
0.000576822
0.000578515
0.000580094
0.000581745
0.000583345
0.000584991
0.000586678
0.000588417
0.000590343
0.000592124
0.000593807
0.000595388
0.000596862
0.000598257
0.00059956
0.00060064
0.000601787
0.000603078
0.000604214
0.000605229
0.000606278
0.000607375
0.000608331
0.000609649
0.000611703
0.000612816
0.000613081
0.00061364
0.000614165
0.000615268
0.000616331
0.000616941
0.000617658
0.000618486
0.000619292
0.000620131
0.000620952
0.000621824
0.000622689
0.000623621
0.000624595
0.000625616
0.000626685
0.000627766
0.000628868