/*--------------------------------*- C++ -*----------------------------------*\
| =========                 |                                                 |
| \\      /  F ield         | foam-extend: Open Source CFD                    |
|  \\    /   O peration     | Version:     3.2                                |
|   \\  /    A nd           | Web:         http://www.foam-extend.org         |
|    \\/     M anipulation  | For copyright notice see file Copyright         |
\*---------------------------------------------------------------------------*/
FoamFile
{
    version     2.0;
    format      ascii;
    class       volScalarField;
    location    "1790";
    object      omega;
}
// * * * * * * * * * * * * * * * * * * * * * * * * * * * * * * * * * * * * * //

dimensions      [0 0 -1 0 0 0 0];

internalField   nonuniform List<scalar> 
33000
(
26.127
29.669
33.4738
37.4329
41.4206
45.3107
48.9956
52.3814
55.4084
58.0327
60.2439
62.0446
63.4603
64.5208
65.2658
65.7337
65.9665
66.0029
65.8808
65.6422
65.3112
64.9079
64.4499
63.9526
63.4301
62.8945
62.3561
61.8246
61.3069
60.8037
60.3156
59.8446
59.3922
58.9594
58.5471
58.1558
57.7857
57.4367
57.1087
56.8009
56.5125
56.2426
55.9899
55.7533
55.5314
55.3233
55.128
54.9447
54.7727
54.6116
54.4607
54.3194
54.187
54.0627
53.9454
53.8343
53.7285
53.6273
53.5305
53.4379
53.3493
53.2649
53.1845
53.108
53.0351
52.9654
52.8982
52.8331
52.7697
52.7077
52.647
52.5878
52.5302
52.4748
52.4218
52.3717
52.3243
52.2797
52.2372
52.1963
52.1563
52.1162
52.0751
52.0322
51.987
51.9396
51.8903
51.8398
51.789
51.739
51.691
51.6458
51.6038
51.5652
51.5296
51.4967
51.4656
51.4359
51.4062
51.3763
51.345
51.3122
51.2776
51.2414
51.2034
51.1637
51.1216
51.0756
51.048
51.084
51.1394
51.2473
51.3447
51.3748
51.3743
51.3881
51.3962
51.4095
51.4279
51.4163
51.4004
51.4059
51.3576
51.3268
51.3053
51.2582
51.2208
51.1754
51.1156
51.0654
51.0156
50.9826
50.9521
50.8791
50.8116
50.7984
50.7387
50.6609
50.6305
50.5782
50.4933
50.4218
50.3486
50.2802
50.228
50.1697
50.1063
50.0558
49.9922
49.9211
49.8742
49.8298
49.7382
49.6706
49.6241
49.5582
49.4859
49.4291
49.3743
49.3036
49.2459
49.1822
49.1104
49.0505
49.006
48.9452
48.8753
48.8218
48.7731
48.7291
48.6776
48.6253
48.5546
48.4995
48.45
48.4085
48.3809
48.2924
48.2475
48.2362
48.1568
48.1107
48.0949
48.0202
47.9626
47.9867
47.9665
47.9055
47.8815
47.8267
47.7922
47.773
47.7152
47.7081
47.6855
47.6086
47.5969
47.5899
47.5257
47.4925
47.508
47.5038
47.4831
47.4579
47.4315
47.4019
47.3845
47.3609
47.3419
47.334
47.3065
47.293
47.2649
47.2292
47.1894
47.1288
47.1155
47.1096
47.1152
47.1386
47.1606
47.1992
47.2544
47.2683
47.2723
47.3222
47.3668
47.388
47.4187
47.4729
47.4498
47.3876
47.5368
47.6972
47.7232
47.7638
47.7381
47.7749
47.8704
47.8993
47.9202
47.9467
47.9687
47.9889
48.0077
48.0251
48.0396
48.0514
48.0631
48.074
48.0839
48.0931
48.102
48.1107
48.1209
48.1307
48.1398
48.1483
48.1566
48.1643
48.1712
48.1761
48.1801
48.183
48.1856
48.1872
48.189
48.1881
48.1856
48.1749
48.1582
48.1946
48.2457
48.2514
48.2527
48.2594
48.2642
48.2697
48.2748
48.2807
48.2873
48.2951
48.3033
48.3118
48.3199
48.3283
48.3365
48.3446
48.3523
48.3596
48.3664
48.3733
48.3788
48.3845
48.3887
48.394
48.397
48.4032
48.4061
48.4127
48.4156
48.4216
48.4258
48.431
48.436
48.4406
48.4465
48.4496
48.4563
48.4599
48.4672
48.472
48.4794
48.4844
48.4918
48.4978
48.5053
48.5125
48.521
48.5293
48.5388
48.5512
48.5624
48.5765
48.5895
48.6034
48.6201
48.6289
48.6507
48.639
48.6546
48.724
48.7564
48.7532
48.7882
48.7903
48.8267
48.8384
48.8532
48.9058
48.6396
48.8346
49.0994
48.9873
49.0302
49.0542
49.0786
49.1011
49.1238
49.1465
49.1689
49.1906
49.2124
49.2333
49.2538
49.2739
49.2941
49.3132
49.3322
49.3511
49.3694
49.3876
49.4061
49.4244
49.4426
49.4611
49.481
49.4995
49.5214
49.5364
49.5624
49.5732
49.6065
49.6062
49.6544
49.6419
49.7042
49.6905
49.7491
49.7489
49.7506
49.7761
49.6938
49.7491
49.6796
49.6839
49.6566
49.6384
49.6174
49.5981
49.5787
49.5604
49.5428
49.5261
49.5103
49.493
49.4801
49.4605
49.453
49.4261
49.4286
49.3898
49.4075
49.3438
49.3917
49.4772
49.03
49.24
49.5017
49.1915
49.2232
49.2337
49.1815
49.1851
49.1582
49.1471
49.1297
49.1152
49.1006
49.0863
49.072
49.0576
49.0431
49.0259
49.0103
48.9951
48.9783
48.9621
48.9452
48.9278
48.9099
48.8916
48.873
48.8543
48.8355
48.8166
48.7977
48.7789
48.76
48.7412
48.7223
48.7038
48.6855
48.6673
48.6494
48.6317
48.6141
48.5971
48.5802
48.5635
48.5475
48.5318
48.5164
48.5013
48.4864
48.472
48.4581
48.444
48.4303
48.4169
48.4036
48.3904
48.3776
48.365
48.3525
48.3402
48.3284
48.3166
48.3048
48.2931
48.2815
48.2703
48.259
48.2474
48.2366
48.224
48.215
48.1993
48.194
48.17
48.1748
48.1363
48.1571
48.1021
48.1245
48.0605
47.9922
48.2692
47.8302
48.021
48.3384
47.8477
47.9408
47.9366
47.8697
47.8846
47.835
47.8439
47.8115
47.8155
47.7823
47.7961
47.7426
47.7783
47.6757
47.675
47.913
47.4703
47.6628
47.9664
47.5246
47.5636
47.5819
47.4988
47.509
47.4715
47.4583
47.4407
47.4177
47.4135
47.3779
47.3889
47.3359
47.3642
47.2938
47.3341
47.2503
47.2901
47.1991
47.2296
47.1806
47.1827
47.2261
47.2648
47.6394
47.8147
47.8902
47.4284
46.7255
42.4857
37.923
37.5874
35.5336
33.4223
30.3852
26.0501
21.542
20.9352
24.6528
7.45831
2.16851
3.7339
5.47938
7.32978
9.32821
11.3499
13.3567
15.3043
17.1768
18.9215
20.5251
21.9477
23.1914
24.2511
25.1437
25.8896
26.5088
27.0311
27.4729
27.8444
28.1549
28.3948
28.5114
28.5242
28.4495
28.3055
28.1174
27.9211
27.7523
27.6346
27.5711
27.5465
27.5475
27.5639
27.5866
27.6095
27.6274
27.6374
27.6369
27.6252
27.6017
27.5676
27.5232
27.4703
27.4095
27.3424
27.2702
27.1937
27.112
27.0257
26.934
26.838
26.7371
26.6331
26.5257
26.4165
26.3045
26.1913
26.0764
25.9605
25.8426
25.7236
25.6028
25.4819
25.3609
25.2419
25.1246
25.011
24.8998
24.7923
24.686
24.5818
24.4767
24.3719
24.2651
24.1587
24.0515
23.9468
23.8436
23.7456
23.6518
23.5656
23.4847
23.4108
23.3402
23.2739
23.2074
23.1423
23.0739
23.0043
22.9298
22.8543
22.7751
22.6971
22.6172
22.5406
22.4636
22.3915
22.3204
22.2543
22.1892
22.128
22.067
22.0092
21.9499
21.8929
21.8311
21.7734
21.7205
21.6951
21.6852
21.7083
21.6753
21.6476
21.6064
21.5671
21.5399
21.5293
21.4983
21.4851
21.4515
21.4205
21.3691
21.3395
21.3014
21.2726
21.2248
21.1865
21.1459
21.1197
21.0848
21.0465
21.011
20.9656
20.9282
20.8988
20.8476
20.8076
20.7716
20.741
20.6805
20.6496
20.6135
20.5852
20.5391
20.5028
20.4596
20.4346
20.4034
20.3701
20.3356
20.3039
20.2554
20.2333
20.2012
20.1614
20.1133
20.0813
20.045
20.0101
19.9706
19.9423
19.9116
19.8831
19.8472
19.81
19.7731
19.7443
19.7121
19.6812
19.6478
19.6215
19.5834
19.5667
19.5294
19.493
19.473
19.4464
19.4111
19.3946
19.3755
19.3412
19.3219
19.2988
19.253
19.2067
19.1882
19.1783
19.1635
19.1424
19.1175
19.0997
19.0717
19.0444
19.0445
19.0335
19.0008
18.9881
18.9769
18.9463
18.9102
18.89
18.8815
18.8702
18.8609
18.8363
18.8167
18.7929
18.7735
18.757
18.7435
18.7361
18.7325
18.7331
18.7353
18.7142
18.6747
18.6357
18.5968
18.5627
18.5353
18.5091
18.4954
18.4914
18.4883
18.4712
18.4625
18.46
18.4567
18.4704
18.5105
18.4887
18.42
18.3722
18.4046
18.4529
18.4699
18.4602
18.4373
18.4473
18.4564
18.4656
18.472
18.481
18.487
18.4965
18.5043
18.5137
18.5203
18.5275
18.5325
18.5383
18.5415
18.5451
18.5465
18.5485
18.5497
18.5518
18.5529
18.555
18.5565
18.5602
18.5628
18.5665
18.5689
18.5726
18.5772
18.5833
18.5906
18.598
18.59
18.5667
18.5502
18.5647
18.5749
18.5792
18.5808
18.5822
18.5826
18.583
18.5826
18.5825
18.582
18.5824
18.5826
18.584
18.585
18.5873
18.5889
18.5916
18.5933
18.5966
18.5984
18.6021
18.6039
18.6072
18.6084
18.6114
18.6113
18.614
18.6132
18.6165
18.6152
18.6185
18.617
18.6205
18.6188
18.6216
18.6199
18.6219
18.6203
18.6215
18.62
18.62
18.6188
18.6188
18.6177
18.6176
18.6164
18.6146
18.6118
18.6091
18.6063
18.6044
18.6028
18.6008
18.6003
18.6007
18.605
18.6017
18.5882
18.5676
18.5705
18.5761
18.5828
18.5809
18.5863
18.5837
18.5984
18.6885
18.6732
18.6048
18.5312
18.6323
18.6282
18.6299
18.6271
18.6259
18.6255
18.6256
18.627
18.629
18.632
18.6351
18.639
18.6428
18.6472
18.6511
18.6559
18.6601
18.6647
18.6687
18.6731
18.6766
18.6806
18.6835
18.6878
18.6906
18.6955
18.6994
18.7048
18.7073
18.7145
18.7132
18.7257
18.7182
18.7366
18.7222
18.7554
18.7405
18.7967
18.7891
18.8405
18.8214
18.8571
18.8486
18.861
18.8609
18.8631
18.863
18.8621
18.8604
18.8583
18.8545
18.8519
18.8441
18.8413
18.8332
18.8322
18.8217
18.8246
18.8096
18.8238
18.7978
18.7858
18.9129
18.9223
18.8385
18.7655
18.9217
18.8777
18.8391
18.8295
18.8021
18.7932
18.7766
18.7681
18.7588
18.7486
18.74
18.7313
18.7237
18.7175
18.7098
18.7025
18.6947
18.6869
18.6792
18.6718
18.6648
18.6579
18.6512
18.6442
18.6371
18.6299
18.6225
18.6152
18.6079
18.6005
18.5932
18.5856
18.5781
18.5707
18.5632
18.5558
18.5484
18.5412
18.5339
18.5267
18.5196
18.5126
18.5054
18.4987
18.4918
18.4848
18.4777
18.4711
18.4645
18.4585
18.4523
18.4465
18.4406
18.4348
18.429
18.4233
18.4173
18.4118
18.4062
18.401
18.3956
18.3901
18.3847
18.3797
18.3737
18.3691
18.3614
18.3579
18.3504
18.3495
18.3398
18.3432
18.329
18.342
18.3226
18.3503
18.3271
18.3142
18.3272
18.3245
18.3036
18.3068
18.5351
18.4705
18.4106
18.3966
18.3539
18.3462
18.3181
18.3071
18.2903
18.2784
18.2772
18.2598
18.2826
18.253
18.2342
18.2538
18.265
18.2249
18.2193
18.4346
18.3737
18.3114
18.2963
18.2539
18.2405
18.214
18.2039
18.1832
18.1762
18.1575
18.1617
18.1386
18.1554
18.1233
18.1592
18.1148
18.1743
18.1118
18.1728
18.0868
18.1253
18.0051
17.9949
17.8377
18.0409
18.5242
19.6173
22.2189
24.1011
24.0186
22.9439
23.1705
23.6804
24.5438
25.6946
22.5775
16.0317
12.1047
8.07103
0.744351
0.980516
1.29991
1.68297
2.1199
2.63278
3.2489
3.92033
4.62899
5.33917
6.05631
6.76018
7.44314
8.0942
8.71052
9.28724
9.82699
10.3284
10.7921
11.2198
11.615
11.982
12.3191
12.627
12.907
13.1624
13.3989
13.6232
13.8441
14.0705
14.309
14.5608
14.8272
15.0832
15.3228
15.5454
15.7506
15.9375
16.1056
16.2541
16.3824
16.4895
16.5753
16.6398
16.6832
16.7056
16.7082
16.693
16.6624
16.619
16.5657
16.5057
16.4421
16.378
16.3156
16.2569
16.2038
16.1549
16.1093
16.0657
16.0231
15.9805
15.9373
15.8924
15.8458
15.7971
15.7471
15.6961
15.6451
15.5943
15.5444
15.4949
15.4458
15.3958
15.3442
15.2899
15.2323
15.1706
15.1049
15.035
14.9622
14.8872
14.8118
14.7366
14.6633
14.5918
14.5232
14.4569
14.3936
14.3318
14.271
14.2095
14.147
14.0825
14.0158
13.9466
13.8754
13.8025
13.7289
13.6551
13.5819
13.5097
13.4391
13.3701
13.3028
13.2356
13.1665
13.0972
13.0339
12.9843
12.9398
12.9243
12.8803
12.8348
12.7931
12.7514
12.7144
12.6884
12.6566
12.6298
12.5924
12.5527
12.5052
12.4703
12.4348
12.4025
12.3625
12.3232
12.284
12.2473
12.2125
12.1775
12.1485
12.1085
12.0752
12.0523
12.0164
11.9819
11.9542
11.929
11.8887
11.8568
11.8273
11.8
11.7686
11.7398
11.7103
11.6908
11.6671
11.6415
11.6171
11.5964
11.566
11.5456
11.5261
11.5031
11.4734
11.4556
11.4311
11.4067
11.3812
11.3611
11.3398
11.3213
11.3011
11.2787
11.2557
11.2343
11.2152
11.1968
11.177
11.1614
11.1392
11.1251
11.104
11.0854
11.072
11.055
11.0356
11.0247
11.0148
10.9987
10.9845
10.9718
10.9468
10.9187
10.8998
10.8931
10.8845
10.8718
10.8604
10.8486
10.8323
10.8216
10.816
10.8104
10.7977
10.7904
10.7833
10.7669
10.7466
10.73
10.7213
10.7119
10.7034
10.6911
10.6809
10.6663
10.6557
10.6451
10.6364
10.6325
10.6282
10.6273
10.6281
10.6165
10.5991
10.5748
10.5526
10.5277
10.5062
10.4849
10.4682
10.4557
10.446
10.4316
10.4184
10.4083
10.3999
10.4011
10.4076
10.3934
10.3581
10.3222
10.3196
10.3303
10.33
10.3249
10.3088
10.3063
10.305
10.3059
10.3053
10.3066
10.3068
10.3093
10.3113
10.3153
10.3182
10.3219
10.3245
10.3278
10.3297
10.3318
10.3327
10.3339
10.3345
10.3356
10.3362
10.3375
10.3383
10.3403
10.3418
10.3442
10.3461
10.3489
10.3518
10.3558
10.3608
10.3652
10.3629
10.3544
10.345
10.3467
10.3507
10.3528
10.3542
10.3553
10.3559
10.3564
10.3564
10.3565
10.3561
10.3561
10.356
10.3564
10.3567
10.3578
10.3585
10.36
10.361
10.3629
10.364
10.3664
10.3677
10.3702
10.3711
10.3736
10.3741
10.3766
10.3765
10.3791
10.3787
10.3814
10.3808
10.3835
10.3828
10.3852
10.3846
10.3864
10.3858
10.3869
10.3863
10.3868
10.3862
10.3862
10.3856
10.3855
10.3847
10.384
10.3824
10.3807
10.3782
10.3763
10.3739
10.3719
10.3699
10.3686
10.369
10.3656
10.3603
10.3481
10.3434
10.3424
10.3435
10.3398
10.3428
10.3385
10.3512
10.3813
10.3718
10.3486
10.3021
10.3361
10.3347
10.3352
10.3329
10.3312
10.3293
10.3276
10.326
10.3248
10.3239
10.3234
10.3231
10.3232
10.3234
10.3238
10.3244
10.3251
10.3259
10.3268
10.3276
10.3284
10.3291
10.3295
10.3301
10.3303
10.3311
10.3314
10.3329
10.3326
10.3354
10.3334
10.3398
10.334
10.3459
10.335
10.3577
10.345
10.382
10.3719
10.4079
10.3999
10.4205
10.4213
10.4306
10.4344
10.4388
10.4419
10.4452
10.4477
10.4501
10.4516
10.4533
10.4531
10.4543
10.4527
10.4546
10.4508
10.4551
10.4492
10.4596
10.4478
10.4546
10.4932
10.4983
10.4789
10.4333
10.4994
10.4952
10.4818
10.4838
10.4728
10.4702
10.4636
10.4597
10.4552
10.4507
10.4468
10.4429
10.4397
10.437
10.434
10.4314
10.428
10.4248
10.4213
10.4179
10.4147
10.4117
10.4087
10.4057
10.4024
10.3991
10.3956
10.3922
10.3887
10.3852
10.3816
10.3778
10.3739
10.37
10.3661
10.3622
10.3583
10.3545
10.3506
10.3469
10.3431
10.3393
10.3355
10.3318
10.3279
10.324
10.3199
10.316
10.3123
10.3088
10.3053
10.302
10.2986
10.2952
10.2919
10.2885
10.2852
10.2818
10.2786
10.2754
10.2723
10.2689
10.2658
10.2626
10.2594
10.2566
10.2527
10.25
10.2455
10.2447
10.2389
10.2415
10.2342
10.243
10.233
10.2525
10.2366
10.2383
10.2419
10.2378
10.2306
10.1903
10.2984
10.2901
10.2732
10.2822
10.2648
10.2668
10.2544
10.2501
10.242
10.2351
10.2352
10.2259
10.2399
10.2249
10.2219
10.2222
10.2228
10.212
10.1751
10.2719
10.2693
10.2484
10.2522
10.2345
10.2295
10.2164
10.2109
10.1996
10.1964
10.1855
10.1877
10.1749
10.1858
10.168
10.1922
10.1672
10.2078
10.1721
10.2193
10.1657
10.2001
10.1183
10.0994
10.0263
10.1585
10.4128
11.1763
12.998
15.0977
15.8162
15.759
16.363
17.3469
18.9757
21.0919
22.0896
18.4812
11.6441
8.73425
0.606418
0.649319
0.713981
0.804119
0.919429
1.06397
1.2443
1.43636
1.63395
1.83598
2.04449
2.25608
2.47084
2.68517
2.89779
3.10552
3.31172
3.51698
3.72428
3.93553
4.15218
4.37403
4.59863
4.8231
5.04549
5.26447
5.47972
5.6925
5.90367
6.11525
6.32923
6.54742
6.77201
7.00178
7.23499
7.47024
7.70599
7.93938
8.16387
8.37687
8.58229
8.78385
8.98341
9.18182
9.37911
9.57485
9.76524
9.94151
10.1034
10.2512
10.3849
10.5053
10.6135
10.7104
10.7975
10.8757
10.9465
11.01
11.0664
11.1152
11.1564
11.1893
11.2138
11.2291
11.2351
11.2319
11.2197
11.199
11.1711
11.1369
11.0979
11.0553
11.0102
10.9634
10.9157
10.8667
10.8171
10.7657
10.7125
10.6563
10.5979
10.5367
10.4744
10.4106
10.3473
10.2844
10.2234
10.1641
10.1079
10.0536
10.0015
9.94977
9.89786
9.8442
9.78873
9.73034
9.66981
9.60629
9.54121
9.47442
9.40703
9.33958
9.27272
9.20671
9.14201
9.07653
9.0066
8.93115
8.86005
8.79973
8.74255
8.7081
8.66277
8.62082
8.58373
8.54875
8.5209
8.50003
8.47801
8.45463
8.42269
8.38827
8.34897
8.31784
8.28757
8.26124
8.23203
8.20224
8.17108
8.13952
8.10754
8.07871
8.05404
8.0249
8.00042
7.9809
7.95556
7.93005
7.9091
7.88809
7.85939
7.83408
7.81115
7.78893
7.76524
7.74425
7.72387
7.70912
7.69228
7.67473
7.65713
7.64221
7.62063
7.60616
7.59273
7.57877
7.56043
7.54967
7.53453
7.51903
7.50294
7.49045
7.47801
7.46704
7.45456
7.44244
7.42745
7.41403
7.40283
7.39204
7.37947
7.37055
7.35755
7.34935
7.33729
7.32773
7.3187
7.30874
7.29951
7.29303
7.28743
7.27975
7.27085
7.26334
7.25037
7.23488
7.22349
7.21944
7.21455
7.20725
7.20236
7.19635
7.18969
7.18499
7.18148
7.18009
7.17511
7.17127
7.16818
7.16032
7.14877
7.13925
7.13447
7.12884
7.12411
7.11741
7.11206
7.1045
7.09961
7.09408
7.09027
7.0895
7.08764
7.08846
7.08868
7.08314
7.07354
7.05948
7.04617
7.03131
7.01809
7.00478
6.99325
6.98394
6.97654
6.96651
6.95666
6.94849
6.94184
6.93917
6.93581
6.92721
6.90874
6.88622
6.87859
6.8797
6.87627
6.87127
6.86038
6.85628
6.85358
6.85168
6.84934
6.84813
6.84653
6.84612
6.84579
6.84698
6.84796
6.84975
6.85114
6.85299
6.85431
6.85585
6.85673
6.85799
6.85875
6.85991
6.86078
6.86213
6.86316
6.86485
6.86624
6.86824
6.86994
6.87222
6.87456
6.87759
6.88106
6.88343
6.8833
6.88064
6.87661
6.87722
6.87978
6.88162
6.88315
6.88441
6.88545
6.88647
6.88716
6.88795
6.88842
6.88916
6.8897
6.89062
6.89142
6.89269
6.89382
6.89539
6.89665
6.89846
6.89987
6.90201
6.90359
6.90591
6.90737
6.90979
6.91108
6.91359
6.91463
6.91728
6.91803
6.92067
6.92129
6.92393
6.92456
6.927
6.92769
6.92982
6.93059
6.93233
6.93308
6.93441
6.93506
6.93609
6.93671
6.93758
6.93802
6.93848
6.93852
6.9384
6.93778
6.93738
6.93648
6.93593
6.93526
6.93498
6.93516
6.93332
6.93106
6.92515
6.92202
6.92095
6.9214
6.91895
6.92123
6.91885
6.9271
6.93826
6.93317
6.92429
6.9004
6.91332
6.91232
6.91228
6.9107
6.90952
6.90806
6.90672
6.90535
6.90423
6.90316
6.90239
6.90174
6.90129
6.90094
6.90071
6.90058
6.9006
6.90068
6.90088
6.90107
6.90127
6.90142
6.9015
6.90163
6.90152
6.90162
6.90145
6.90196
6.90145
6.90261
6.90108
6.90486
6.9012
6.9087
6.9025
6.91643
6.90908
6.93055
6.92531
6.94546
6.94298
6.95444
6.95654
6.9628
6.96625
6.97005
6.97319
6.97644
6.97935
6.98216
6.98455
6.98704
6.98861
6.99077
6.99149
6.99391
6.99326
6.99729
6.99506
7.00228
6.9969
7.00615
7.02126
7.02383
7.01925
6.99716
7.02651
7.02885
7.0231
7.0252
7.02053
7.02027
7.01788
7.01649
7.01482
7.01308
7.01163
7.01021
7.00906
7.00809
7.00704
7.00623
7.00485
7.00359
7.00202
7.00049
6.999
6.99764
6.99625
6.99488
6.99334
6.99169
6.98992
6.98813
6.98628
6.98441
6.98244
6.98032
6.97812
6.97581
6.97351
6.97123
6.96895
6.96666
6.96439
6.96217
6.95995
6.9577
6.95545
6.95319
6.95084
6.94844
6.94598
6.94356
6.94127
6.93906
6.9369
6.93479
6.9327
6.93059
6.92848
6.92631
6.92425
6.92211
6.92007
6.91799
6.91595
6.91378
6.91172
6.90961
6.90757
6.90572
6.90331
6.90151
6.89865
6.89785
6.89447
6.89588
6.89152
6.89677
6.89062
6.90169
6.89192
6.89331
6.89253
6.88619
6.89391
6.87137
6.92059
6.9215
6.91251
6.91843
6.90988
6.91142
6.90522
6.90314
6.89897
6.89507
6.89552
6.89014
6.89789
6.88804
6.88797
6.88361
6.88017
6.88001
6.85984
6.90362
6.90832
6.89818
6.90056
6.89187
6.88946
6.88268
6.87971
6.87367
6.87167
6.865
6.8663
6.85827
6.86487
6.85383
6.86827
6.85329
6.87701
6.85615
6.88415
6.85286
6.87381
6.82914
6.81992
6.78016
6.86179
7.0253
7.49853
8.63307
10.0575
10.9481
11.2458
11.9384
13.0305
14.7855
17.0762
19.4318
18.8285
13.6275
9.43039
0.588244
0.596549
0.612855
0.636912
0.670399
0.714347
0.772302
0.838455
0.913013
0.989656
1.06618
1.14272
1.22143
1.30141
1.38205
1.46243
1.54325
1.62473
1.70763
1.79271
1.88037
1.97048
2.06239
2.15536
2.2488
2.34203
2.43453
2.52641
2.61753
2.70817
2.79843
2.8886
2.97924
3.0705
3.16246
3.25522
3.34868
3.44437
3.55085
3.67239
3.80591
3.9472
4.09342
4.24353
4.39704
4.55395
4.71419
4.87635
5.03897
5.20103
5.36101
5.51818
5.67181
5.82158
5.96786
6.11064
6.25005
6.38637
6.51953
6.64881
6.77388
6.89311
7.00595
7.11169
7.20963
7.29915
7.37965
7.44906
7.50662
7.55312
7.58959
7.61693
7.63589
7.64689
7.65039
7.6462
7.63468
7.61536
7.58835
7.55343
7.51123
7.46228
7.4083
7.35029
7.29038
7.22975
7.17024
7.11279
7.05875
7.0081
6.96114
6.91678
6.87489
6.83444
6.79528
6.75601
6.71696
6.67686
6.63681
6.59584
6.55506
6.51416
6.47365
6.43372
6.39439
6.35307
6.30298
6.24534
6.18799
6.13646
6.08644
6.05565
6.02484
6.00038
5.98234
5.97154
5.96318
5.96217
5.9587
5.94949
5.93045
5.9087
5.88258
5.86357
5.84505
5.83323
5.81782
5.80133
5.78166
5.76133
5.73893
5.71913
5.70174
5.68595
5.67095
5.65902
5.64439
5.63053
5.61845
5.60565
5.58767
5.57095
5.55553
5.53979
5.5245
5.51278
5.50098
5.49193
5.48172
5.47194
5.46098
5.45134
5.43725
5.4275
5.41974
5.4134
5.40257
5.39754
5.39075
5.38263
5.3729
5.36541
5.35966
5.35562
5.34963
5.34358
5.33571
5.32817
5.32168
5.31656
5.31042
5.30632
5.30031
5.29732
5.29114
5.28708
5.28222
5.27716
5.27379
5.27123
5.26928
5.267
5.26279
5.25915
5.25261
5.24561
5.24046
5.23926
5.23773
5.2347
5.2337
5.23186
5.2307
5.23081
5.23039
5.23137
5.23141
5.23069
5.22989
5.22826
5.22401
5.21977
5.21857
5.21689
5.21541
5.21258
5.21078
5.20769
5.20701
5.20602
5.20598
5.2082
5.20946
5.21184
5.21301
5.21073
5.20613
5.19857
5.19135
5.18312
5.17576
5.16856
5.16238
5.15707
5.15284
5.14726
5.14163
5.13674
5.13289
5.1304
5.12731
5.12165
5.11149
5.09875
5.09379
5.09273
5.09003
5.08698
5.0807
5.07769
5.07542
5.07371
5.07184
5.0706
5.06926
5.06861
5.06816
5.06856
5.0691
5.07035
5.07147
5.07298
5.07425
5.07576
5.0769
5.07834
5.07951
5.081
5.08226
5.08389
5.08531
5.08716
5.08878
5.09077
5.09268
5.09488
5.09713
5.09981
5.10264
5.10472
5.10551
5.10523
5.10422
5.10525
5.10754
5.10966
5.11162
5.11343
5.11505
5.11669
5.11816
5.1197
5.12109
5.12263
5.12404
5.12573
5.12731
5.12919
5.13096
5.13303
5.1349
5.13713
5.1391
5.14154
5.14368
5.14624
5.14832
5.15101
5.15301
5.15573
5.15761
5.16043
5.16217
5.165
5.16666
5.16947
5.17114
5.17384
5.17554
5.17808
5.17982
5.18213
5.18385
5.18591
5.18757
5.18945
5.19105
5.19274
5.19419
5.19563
5.19674
5.19787
5.1986
5.19945
5.19993
5.20065
5.20128
5.20206
5.20297
5.20263
5.20246
5.20008
5.19887
5.19879
5.19939
5.19873
5.2007
5.20004
5.20557
5.2101
5.2074
5.20441
5.19191
5.19742
5.19726
5.19788
5.19753
5.19737
5.19698
5.1966
5.19613
5.19579
5.19544
5.19524
5.1951
5.19508
5.19507
5.19515
5.19524
5.19543
5.19567
5.19596
5.19628
5.19661
5.19692
5.19719
5.19747
5.19762
5.19788
5.19798
5.19837
5.19832
5.199
5.19839
5.20037
5.19881
5.203
5.19999
5.20805
5.20457
5.21707
5.21464
5.22663
5.22584
5.23279
5.23485
5.23916
5.24183
5.24477
5.24734
5.24995
5.25233
5.25469
5.25679
5.25897
5.26066
5.26264
5.26383
5.26584
5.26629
5.26918
5.26871
5.27317
5.27105
5.27846
5.28407
5.28605
5.28498
5.27336
5.28787
5.29114
5.28901
5.29103
5.28921
5.28973
5.28884
5.28852
5.28798
5.28742
5.28704
5.2866
5.28627
5.286
5.28567
5.28547
5.28495
5.28442
5.2837
5.28294
5.28222
5.28152
5.2808
5.2801
5.27926
5.27834
5.27734
5.27627
5.27516
5.27403
5.27279
5.27149
5.27007
5.26861
5.26713
5.26564
5.26414
5.26266
5.26119
5.25975
5.25832
5.25687
5.25541
5.25393
5.25242
5.25084
5.24925
5.24767
5.24617
5.24469
5.24324
5.24182
5.24042
5.23895
5.23751
5.23601
5.23456
5.23307
5.23159
5.23009
5.22859
5.22704
5.2255
5.2239
5.22236
5.22094
5.21919
5.21773
5.21572
5.21477
5.21254
5.21281
5.21011
5.21247
5.20881
5.21447
5.20815
5.20928
5.20767
5.20368
5.21148
5.19653
5.21995
5.22222
5.21747
5.22062
5.21553
5.21622
5.21231
5.21078
5.20808
5.20545
5.20521
5.202
5.20541
5.19943
5.19985
5.19538
5.19266
5.19579
5.18208
5.20227
5.20616
5.20064
5.20166
5.19623
5.19446
5.19018
5.18799
5.18408
5.18227
5.17783
5.17785
5.17284
5.17567
5.16909
5.17636
5.16757
5.18022
5.16796
5.1833
5.1648
5.17594
5.14952
5.14734
5.12875
5.18515
5.29839
5.60198
6.30062
7.23095
7.96617
8.33665
8.97837
9.99059
11.6453
13.8409
16.5982
17.8126
14.8564
10.2296
0.585704
0.588176
0.596211
0.606708
0.619452
0.634762
0.653689
0.677091
0.706344
0.739044
0.774274
0.811268
0.848325
0.885504
0.922556
0.959757
0.997557
1.03585
1.07463
1.11401
1.15413
1.19509
1.23689
1.2795
1.32293
1.36705
1.41173
1.45696
1.50264
1.54881
1.59543
1.64253
1.6902
1.73856
1.78774
1.83783
1.88879
1.94105
1.99719
2.05837
2.12379
2.19226
2.26292
2.33539
2.40944
2.485
2.56214
2.64078
2.72066
2.80161
2.88313
2.96499
3.04681
3.12841
3.20987
3.29131
3.37286
3.45481
3.53704
3.61928
3.70138
3.78271
3.86288
3.94139
4.01768
4.09166
4.16312
4.23193
4.2982
4.36185
4.42276
4.48097
4.53602
4.58763
4.63523
4.6782
4.7162
4.74873
4.77545
4.79626
4.81127
4.82103
4.82637
4.82791
4.82648
4.82268
4.81702
4.81005
4.80201
4.79297
4.78338
4.77351
4.76384
4.75441
4.74467
4.73483
4.7245
4.7139
4.70284
4.69177
4.68035
4.66926
4.65827
4.64722
4.63583
4.6213
4.59727
4.56575
4.53078
4.49535
4.46125
4.43616
4.41609
4.40757
4.40619
4.40984
4.41551
4.42779
4.4352
4.43597
4.42664
4.41546
4.40131
4.39194
4.38284
4.37942
4.37415
4.36791
4.3567
4.34465
4.33066
4.31839
4.30746
4.29953
4.29273
4.2877
4.2801
4.27426
4.26968
4.26372
4.2528
4.24261
4.23267
4.22319
4.21382
4.20759
4.20215
4.19842
4.19299
4.18828
4.18245
4.17651
4.16737
4.16183
4.15822
4.15633
4.15133
4.14914
4.14659
4.14429
4.13985
4.13556
4.1333
4.13361
4.13204
4.12932
4.12531
4.12207
4.11961
4.11783
4.11565
4.11476
4.11291
4.11275
4.11079
4.10998
4.10825
4.10659
4.10667
4.107
4.10724
4.10757
4.10681
4.10633
4.10414
4.10185
4.10062
4.10168
4.10214
4.10194
4.1034
4.10443
4.10618
4.10914
4.11093
4.11348
4.11589
4.11727
4.1187
4.12018
4.12006
4.11965
4.1208
4.12146
4.12237
4.12254
4.12309
4.12272
4.1244
4.12635
4.1289
4.13257
4.13553
4.13906
4.14149
4.14142
4.13973
4.13608
4.13249
4.12855
4.12501
4.12168
4.11886
4.11644
4.11466
4.11223
4.10963
4.10732
4.10557
4.10411
4.10237
4.09953
4.09451
4.08744
4.08459
4.08367
4.08234
4.08107
4.07799
4.0765
4.07543
4.07466
4.07381
4.07328
4.07274
4.07261
4.07261
4.0731
4.07376
4.07493
4.07614
4.07768
4.0791
4.08073
4.08221
4.08388
4.08541
4.08717
4.08883
4.09072
4.0925
4.09456
4.09651
4.09869
4.10083
4.10318
4.10557
4.10818
4.11085
4.11312
4.11476
4.1159
4.11652
4.11822
4.12068
4.12317
4.12557
4.12794
4.13021
4.13251
4.13468
4.13693
4.13913
4.14141
4.14364
4.14603
4.14839
4.1509
4.15335
4.156
4.15852
4.16125
4.16384
4.1667
4.16935
4.17226
4.17492
4.17788
4.18045
4.18347
4.18599
4.18905
4.19147
4.19449
4.19684
4.19983
4.20216
4.20508
4.20741
4.2102
4.21254
4.21521
4.21752
4.22004
4.22231
4.22468
4.22688
4.2291
4.23116
4.23319
4.23503
4.23683
4.2384
4.24001
4.24138
4.24287
4.24427
4.24573
4.24721
4.24792
4.2488
4.24839
4.24845
4.24917
4.25024
4.25068
4.25254
4.25301
4.25679
4.25907
4.25832
4.25779
4.25172
4.25438
4.25495
4.25606
4.25656
4.25715
4.25756
4.25795
4.25825
4.2586
4.25892
4.25933
4.25975
4.26021
4.26068
4.26117
4.26166
4.26218
4.26273
4.26331
4.2639
4.26448
4.26504
4.26557
4.26611
4.26653
4.26702
4.26741
4.26792
4.26824
4.26885
4.26882
4.27007
4.26958
4.27206
4.27087
4.27555
4.27413
4.28145
4.28059
4.28777
4.28779
4.29223
4.29397
4.29695
4.29895
4.3011
4.30301
4.30494
4.30669
4.30844
4.31004
4.31166
4.313
4.31451
4.31554
4.31699
4.31764
4.31955
4.31949
4.32231
4.32159
4.32648
4.32895
4.33023
4.33099
4.32462
4.3319
4.33418
4.33325
4.33462
4.33395
4.33454
4.33423
4.33418
4.33403
4.33388
4.3338
4.3337
4.33363
4.33357
4.33346
4.33342
4.33316
4.33287
4.33247
4.33202
4.33157
4.33115
4.33069
4.33022
4.32966
4.32906
4.32836
4.32764
4.32686
4.32606
4.3252
4.32426
4.32326
4.32222
4.32116
4.3201
4.31905
4.318
4.31697
4.31594
4.31494
4.31393
4.3129
4.31188
4.31081
4.30972
4.30859
4.30747
4.30638
4.30527
4.30421
4.30311
4.30202
4.30089
4.29973
4.29851
4.2973
4.29605
4.29479
4.29347
4.29216
4.29077
4.28938
4.28795
4.28651
4.28511
4.28354
4.28211
4.28033
4.27912
4.27726
4.2767
4.27449
4.27518
4.2725
4.2748
4.27047
4.2707
4.26855
4.26539
4.27051
4.2615
4.27296
4.27416
4.2711
4.27219
4.26867
4.2683
4.26539
4.26383
4.26166
4.25949
4.25866
4.25617
4.25709
4.25299
4.25309
4.24874
4.24616
4.24862
4.2401
4.24963
4.25158
4.24789
4.24758
4.24364
4.24199
4.23886
4.23688
4.23392
4.23206
4.22878
4.22792
4.22427
4.2251
4.22066
4.22393
4.21832
4.22449
4.21697
4.22464
4.21348
4.21876
4.20384
4.20457
4.19387
4.23413
4.31513
4.51476
4.94817
5.5281
6.10561
6.45995
7.0045
7.85975
9.31254
11.2924
14.0227
16.291
15.1911
11.0234
0.585596
0.58766
0.594847
0.603612
0.6124
0.621475
0.630162
0.639803
0.650824
0.663846
0.679149
0.696687
0.715398
0.735114
0.755684
0.776636
0.797742
0.819154
0.840999
0.863468
0.886845
0.911571
0.937809
0.96596
0.996132
1.02823
1.06206
1.09748
1.13434
1.17252
1.21194
1.25278
1.2959
1.34188
1.39068
1.44202
1.49552
1.5509
1.60812
1.66721
1.72818
1.79091
1.85527
1.92111
1.98827
2.05657
2.12585
2.19585
2.26634
2.33709
2.40782
2.47826
2.54813
2.61712
2.68501
2.75144
2.81607
2.87864
2.93875
2.99608
3.05034
3.10127
3.14879
3.19318
3.23504
3.27526
3.31438
3.3525
3.38963
3.42574
3.46084
3.49503
3.52821
3.56036
3.59139
3.62106
3.64911
3.67541
3.69979
3.72212
3.74241
3.76045
3.77606
3.78936
3.80047
3.80945
3.81645
3.82169
3.82523
3.82719
3.82778
3.82715
3.8254
3.82274
3.81919
3.81489
3.80987
3.80422
3.79807
3.79151
3.78461
3.77754
3.77022
3.76259
3.7545
3.74393
3.72673
3.70422
3.67977
3.65387
3.62727
3.60599
3.58929
3.58136
3.57975
3.58241
3.58837
3.59929
3.60726
3.60967
3.60367
3.59435
3.58237
3.57397
3.56851
3.56853
3.56816
3.56593
3.55798
3.54841
3.53761
3.52925
3.52227
3.51714
3.51314
3.51084
3.50691
3.50436
3.50294
3.50024
3.49341
3.48629
3.47888
3.47263
3.46691
3.46382
3.46157
3.46045
3.45785
3.4552
3.45184
3.44826
3.44224
3.43887
3.43735
3.437
3.43558
3.43575
3.43524
3.43473
3.43275
3.43107
3.43106
3.43292
3.43348
3.43285
3.43115
3.43001
3.42952
3.42964
3.42961
3.43081
3.43133
3.43254
3.43293
3.43388
3.43403
3.43439
3.43608
3.43797
3.43986
3.44178
3.44271
3.4437
3.44401
3.44456
3.44571
3.44808
3.44983
3.45102
3.45333
3.45592
3.45927
3.46343
3.46655
3.46973
3.47271
3.47514
3.47773
3.4804
3.48219
3.48399
3.48646
3.48837
3.49036
3.49189
3.4936
3.49494
3.49762
3.50065
3.50424
3.50831
3.51189
3.51577
3.5187
3.51978
3.51965
3.51837
3.51697
3.51537
3.51407
3.51289
3.51192
3.51126
3.5109
3.51019
3.50936
3.50868
3.50823
3.50776
3.50713
3.50613
3.50395
3.50056
3.49929
3.49881
3.49852
3.49833
3.4972
3.49684
3.49665
3.49667
3.49666
3.49684
3.49703
3.49743
3.49793
3.49872
3.49965
3.50088
3.50223
3.50383
3.50542
3.5072
3.50894
3.51081
3.51266
3.51465
3.51664
3.51877
3.5209
3.52322
3.52552
3.528
3.53046
3.53307
3.53575
3.53855
3.54138
3.54406
3.5465
3.54868
3.55054
3.55296
3.55577
3.55871
3.56163
3.56458
3.5675
3.57043
3.57332
3.57625
3.57916
3.58213
3.58509
3.58813
3.59117
3.59427
3.59736
3.60054
3.60365
3.60686
3.60998
3.61323
3.61636
3.61962
3.6227
3.62595
3.62895
3.63218
3.63511
3.63832
3.64117
3.64433
3.64709
3.6502
3.6529
3.65593
3.6586
3.66152
3.66415
3.66698
3.66956
3.67226
3.6748
3.67739
3.67986
3.68231
3.68466
3.68698
3.68915
3.69128
3.69328
3.69526
3.6971
3.69898
3.70076
3.70257
3.70431
3.70565
3.70709
3.70775
3.70858
3.70979
3.71113
3.71221
3.7139
3.715
3.71778
3.71917
3.71981
3.72051
3.71811
3.71974
3.72071
3.72208
3.72309
3.72415
3.72508
3.72597
3.7268
3.72763
3.72844
3.72928
3.73011
3.73095
3.73178
3.73261
3.73342
3.73424
3.73505
3.73587
3.73668
3.73748
3.73824
3.73898
3.73969
3.74033
3.74098
3.74158
3.7422
3.74276
3.74338
3.74375
3.74459
3.74475
3.74622
3.74601
3.74874
3.74837
3.75263