/*--------------------------------*- C++ -*----------------------------------*\
| =========                 |                                                 |
| \\      /  F ield         | foam-extend: Open Source CFD                    |
|  \\    /   O peration     | Version:     3.2                                |
|   \\  /    A nd           | Web:         http://www.foam-extend.org         |
|    \\/     M anipulation  | For copyright notice see file Copyright         |
\*---------------------------------------------------------------------------*/
FoamFile
{
    version     2.0;
    format      ascii;
    class       volScalarField;
    location    "1790";
    object      pd;
}
// * * * * * * * * * * * * * * * * * * * * * * * * * * * * * * * * * * * * * //

dimensions      [1 -1 -2 0 0 0 0];

internalField   nonuniform List<scalar> 
33000
(
1206.55
1207.28
1208.03
1210.12
1211
1212.85
1213.56
1214.85
1215.33
1216.15
1216.51
1217.03
1217.28
1217.59
1217.76
1217.96
1218.1
1218.23
1218.31
1218.4
1218.45
1218.5
1218.53
1218.56
1218.57
1218.58
1218.58
1218.57
1218.56
1218.54
1218.52
1218.49
1218.46
1218.44
1218.41
1218.39
1218.37
1218.36
1218.35
1218.34
1218.34
1218.35
1218.36
1218.37
1218.39
1218.42
1218.44
1218.47
1218.5
1218.52
1218.55
1218.58
1218.61
1218.63
1218.65
1218.67
1218.69
1218.71
1218.72
1218.73
1218.74
1218.75
1218.76
1218.78
1218.79
1218.8
1218.81
1218.83
1218.84
1218.85
1218.86
1218.87
1218.87
1218.87
1218.87
1218.86
1218.85
1218.83
1218.81
1218.78
1218.75
1218.72
1218.68
1218.64
1218.6
1218.56
1218.51
1218.46
1218.42
1218.37
1218.33
1218.29
1218.25
1218.21
1218.18
1218.16
1218.13
1218.11
1218.09
1218.08
1218.05
1218.03
1218
1217.97
1217.92
1217.87
1217.81
1217.72
1217.62
1217.45
1217.24
1217.26
1217.08
1217.09
1216.36
1213.69
1210.08
1216.9
1231.78
1231.44
1217.93
1213.14
1216.46
1219.58
1218.94
1216.06
1212.7
1219.08
1234.61
1236.2
1226.49
1229.02
1233.4
1221.31
1203.77
1195.97
1197.83
1209.27
1218.33
1216.78
1219.91
1232.81
1232.5
1221.53
1219
1221.71
1222.74
1223.08
1224.02
1228.41
1236.16
1239.1
1228.27
1215.71
1214.28
1217.05
1217.75
1217.81
1215.85
1212.99
1217.82
1230.38
1231.06
1221.56
1218.41
1219.67
1221.84
1224.89
1226.37
1227.97
1232.29
1235.14
1227.32
1217.31
1215.57
1217.5
1217.91
1218.27
1218.6
1218.38
1218.37
1218.57
1218.36
1218.43
1218.54
1218.45
1218.16
1218.38
1218.26
1218.27
1218.33
1218.19
1218.24
1218.27
1218.05
1218.23
1218.2
1218.05
1218.11
1218.15
1218.02
1217.95
1217.98
1217.95
1217.95
1217.91
1217.92
1217.82
1217.89
1217.75
1217.79
1217.76
1217.72
1217.77
1217.72
1217.77
1217.73
1217.58
1217.58
1217.42
1217.38
1217.27
1217.19
1217.03
1217.16
1217
1216.89
1216.82
1216.79
1216.69
1216.55
1216.77
1216.68
1215.95
1216.08
1216.02
1215.93
1216.21
1215.72
1215.75
1215.66
1215.66
1215.55
1215.54
1215.43
1215.41
1215.31
1215.29
1215.2
1215.18
1215.09
1215.08
1214.99
1214.98
1214.89
1214.87
1214.79
1214.77
1214.7
1214.68
1214.61
1214.59
1214.53
1214.52
1214.46
1214.44
1214.39
1214.37
1214.33
1214.31
1214.29
1214.27
1214.04
1214.04
1214.02
1214
1213.96
1213.93
1213.88
1213.85
1213.79
1213.76
1213.7
1213.67
1213.6
1213.57
1213.51
1213.48
1213.41
1213.38
1213.31
1213.29
1213.21
1213.19
1213.11
1213.1
1213.01
1213.02
1212.9
1212.94
1212.79
1212.86
1212.68
1212.78
1212.59
1212.69
1212.51
1212.6
1212.44
1212.51
1212.38
1212.42
1212.32
1212.34
1212.26
1212.27
1212.21
1212.21
1212.16
1212.15
1212.1
1212.09
1212.04
1212.04
1211.98
1211.98
1211.94
1211.92
1211.94
1211.81
1212.02
1211.71
1211.71
1211.65
1211.82
1211.48
1211.89
1211.33
1211.85
1211.45
1211.39
1212.85
1210.13
1211.6
1211.1
1211.3
1211.17
1211.16
1211.1
1211.06
1211.01
1210.96
1210.91
1210.86
1210.8
1210.75
1210.69
1210.63
1210.57
1210.51
1210.45
1210.38
1210.32
1210.25
1210.18
1210.11
1210.04
1209.96
1209.91
1209.79
1209.82
1209.58
1209.77
1209.31
1209.82
1208.93
1209.97
1208.46
1210.14
1208.04
1210.18
1208.02
1209.92
1208.48
1209.36
1208.88
1209.08
1208.97
1209
1208.96
1208.95
1208.92
1208.91
1208.88
1208.86
1208.84
1208.83
1208.77
1208.84
1208.66
1208.93
1208.48
1209.1
1208.23
1209.33
1208.07
1208.61
1210.39
1207.04
1209.05
1208.92
1208.47
1208.94
1208.62
1208.81
1208.72
1208.78
1208.78
1208.8
1208.81
1208.83
1208.85
1208.86
1208.88
1208.91
1208.92
1208.94
1208.95
1208.97
1208.98
1208.99
1208.99
1208.99
1208.99
1208.98
1208.96
1208.94
1208.91
1208.89
1208.85
1208.81
1208.77
1208.72
1208.67
1208.62
1208.57
1208.52
1208.46
1208.41
1208.36
1208.31
1208.26
1208.21
1208.17
1208.12
1208.09
1208.05
1208.02
1207.99
1207.96
1207.94
1207.92
1207.9
1207.88
1207.86
1207.85
1207.83
1207.81
1207.8
1207.78
1207.77
1207.75
1207.74
1207.72
1207.7
1207.68
1207.68
1207.62
1207.7
1207.52
1207.79
1207.35
1207.98
1207.08
1208.26
1206.88
1208.35
1207.46
1206.47
1209.95
1205.15
1208.34
1208.06
1207.22
1208.28
1207.39
1208.13
1207.68
1207.99
1207.92
1207.89
1208.18
1207.72
1208.54
1207.43
1208.92
1207.58
1207.33
1209.99
1205.95
1208.42
1208.45
1207.54
1208.32
1207.66
1207.98
1207.66
1207.79
1207.52
1207.69
1207.25
1207.7
1206.83
1207.85
1206.25
1208.14
1205.56
1208.52
1204.83
1208.9
1204.17
1208.96
1203.8
1208.41
1203.65
1206.4
1203.86
1206.89
1208.62
1209.53
1218.83
1213.24
1216.37
1217.16
1218.04
1219.84
1219.03
1220.39
1218.56
1219.91
1206.44
1207.29
1208.01
1210.12
1211
1212.88
1213.57
1214.87
1215.34
1216.16
1216.52
1217.05
1217.29
1217.61
1217.78
1217.98
1218.12
1218.24
1218.32
1218.41
1218.46
1218.5
1218.54
1218.56
1218.58
1218.58
1218.58
1218.58
1218.56
1218.54
1218.52
1218.49
1218.47
1218.44
1218.41
1218.39
1218.37
1218.36
1218.35
1218.34
1218.35
1218.35
1218.36
1218.38
1218.4
1218.42
1218.45
1218.47
1218.5
1218.53
1218.56
1218.58
1218.61
1218.64
1218.66
1218.68
1218.7
1218.71
1218.72
1218.74
1218.75
1218.76
1218.77
1218.78
1218.79
1218.8
1218.82
1218.83
1218.84
1218.85
1218.86
1218.87
1218.88
1218.88
1218.87
1218.86
1218.85
1218.83
1218.81
1218.79
1218.76
1218.72
1218.68
1218.65
1218.6
1218.56
1218.51
1218.47
1218.42
1218.37
1218.33
1218.29
1218.25
1218.22
1218.19
1218.16
1218.13
1218.12
1218.09
1218.08
1218.05
1218.03
1218
1217.97
1217.92
1217.88
1217.81
1217.73
1217.63
1217.48
1217.34
1217.35
1217.21
1217.18
1216.52
1214.35
1211.97
1217.52
1228.44
1228.65
1219.29
1215.13
1216.93
1219.22
1218.76
1216.55
1214.45
1219.87
1231.49
1233.46
1227.36
1228.53
1230.24
1220.38
1206.32
1199.29
1200.55
1209.64
1217.12
1217.34
1220.51
1229.85
1229.99
1222.5
1220.19
1221.89
1222.9
1223.44
1224.52
1228.26
1234.11
1235.79
1227.29
1217.54
1215.57
1217.23
1217.83
1217.86
1216.3
1214.49
1218.52
1227.78
1228.75
1222.36
1219.66
1220.3
1222.05
1224.53
1226.08
1227.83
1231.15
1232.7
1226.47
1218.63
1216.56
1217.63
1218
1218.32
1218.54
1218.38
1218.4
1218.55
1218.39
1218.45
1218.49
1218.43
1218.2
1218.37
1218.27
1218.28
1218.31
1218.21
1218.24
1218.25
1218.08
1218.22
1218.18
1218.07
1218.12
1218.12
1218.02
1217.96
1217.98
1217.95
1217.95
1217.92
1217.91
1217.83
1217.87
1217.77
1217.8
1217.76
1217.73
1217.76
1217.72
1217.73
1217.7
1217.57
1217.57
1217.42
1217.38
1217.26
1217.2
1217.06
1217.14
1216.99
1216.89
1216.82
1216.78
1216.69
1216.58
1216.7
1216.6
1216.05
1216.12
1216.03
1215.93
1216.15
1215.75
1215.77
1215.67
1215.65
1215.55
1215.53
1215.43
1215.4
1215.32
1215.29
1215.21
1215.18
1215.1
1215.08
1214.99
1214.97
1214.89
1214.87
1214.79
1214.77
1214.7
1214.68
1214.61
1214.59
1214.53
1214.52
1214.46
1214.44
1214.39
1214.37
1214.33
1214.31
1214.28
1214.24
1214.07
1214.05
1214.02
1214
1213.96
1213.93
1213.88
1213.85
1213.79
1213.76
1213.7
1213.67
1213.6
1213.57
1213.51
1213.48
1213.41
1213.38
1213.31
1213.29
1213.21
1213.19
1213.11
1213.1
1213.01
1213.02
1212.9
1212.93
1212.79
1212.85
1212.69
1212.77
1212.6
1212.68
1212.52
1212.59
1212.45
1212.5
1212.38
1212.42
1212.32
1212.34
1212.27
1212.27
1212.21
1212.2
1212.16
1212.15
1212.1
1212.09
1212.04
1212.03
1211.99
1211.98
1211.94
1211.92
1211.93
1211.82
1211.98
1211.72
1211.74
1211.66
1211.8
1211.51
1211.85
1211.39
1211.79
1211.52
1211.38
1212.55
1210.4
1211.59
1211.1
1211.3
1211.17
1211.16
1211.1
1211.06
1211.01
1210.96
1210.91
1210.86
1210.8
1210.75
1210.69
1210.63
1210.57
1210.51
1210.45
1210.38
1210.32
1210.25
1210.18
1210.11
1210.04
1209.96
1209.91
1209.79
1209.81
1209.59
1209.75
1209.34
1209.78
1208.99
1209.89
1208.58
1210.01
1208.22
1210.02
1208.2
1209.79
1208.57
1209.32
1208.89
1209.08
1208.97
1209
1208.96
1208.95
1208.92
1208.91
1208.88
1208.86
1208.84
1208.83
1208.77
1208.84
1208.67
1208.91
1208.51
1209.05
1208.31
1209.2
1208.26
1208.59
1210.02
1207.41
1209.01
1208.83
1208.54
1208.89
1208.64
1208.8
1208.73
1208.78
1208.78
1208.8
1208.81
1208.83
1208.85
1208.86
1208.89
1208.9
1208.92
1208.94
1208.95
1208.97
1208.98
1208.99
1208.99
1208.99
1208.99
1208.98
1208.96
1208.94
1208.92
1208.89
1208.85
1208.81
1208.77
1208.72
1208.67
1208.62
1208.57
1208.52
1208.46
1208.41
1208.36
1208.31
1208.26
1208.21
1208.17
1208.12
1208.09
1208.05
1208.02
1207.99
1207.96
1207.94
1207.92
1207.9
1207.88
1207.86
1207.85
1207.83
1207.81
1207.8
1207.78
1207.77
1207.75
1207.74
1207.72
1207.71
1207.68
1207.68
1207.63
1207.69
1207.53
1207.77
1207.38
1207.94
1207.16
1208.15
1207.02
1208.15
1207.55
1206.65
1209.46
1205.66
1208.23
1207.92
1207.34
1208.19
1207.45
1208.09
1207.7
1207.98
1207.92
1207.9
1208.16
1207.76
1208.46
1207.55
1208.72
1207.74
1207.45
1209.57
1206.4
1208.37
1208.3
1207.64
1208.25
1207.69
1207.97
1207.67
1207.78
1207.53
1207.68
1207.27
1207.67
1206.88
1207.78
1206.36
1208
1205.74
1208.3
1205.1
1208.58
1204.52
1208.59
1204.18
1208.06
1204.08
1206.6
1204.48
1207.3
1209.08
1210.07
1217.67
1213.25
1216.26
1217.14
1218.03
1219.87
1219.07
1220.41
1218.41
1219.7
1206.28
1207.22
1207.97
1210.12
1211.02
1212.88
1213.58
1214.87
1215.34
1216.18
1216.52
1217.04
1217.28
1217.6
1217.76
1217.97
1218.1
1218.23
1218.32
1218.4
1218.46
1218.51
1218.54
1218.57
1218.58
1218.59
1218.59
1218.58
1218.57
1218.55
1218.53
1218.5
1218.47
1218.44
1218.42
1218.4
1218.38
1218.36
1218.35
1218.35
1218.35
1218.36
1218.37
1218.38
1218.4
1218.42
1218.45
1218.47
1218.5
1218.53
1218.56
1218.59
1218.61
1218.64
1218.66
1218.68
1218.7
1218.71
1218.73
1218.74
1218.75
1218.76
1218.77
1218.78
1218.79
1218.8
1218.82
1218.83
1218.84
1218.85
1218.86
1218.87
1218.88
1218.88
1218.87
1218.87
1218.85
1218.83
1218.81
1218.79
1218.76
1218.72
1218.69
1218.65
1218.6
1218.56
1218.51
1218.47
1218.42
1218.37
1218.33
1218.29
1218.25
1218.22
1218.19
1218.16
1218.13
1218.12
1218.09
1218.08
1218.05
1218.03
1218
1217.97
1217.92
1217.88
1217.81
1217.73
1217.63
1217.48
1217.32
1217.3
1217.16
1217.13
1216.47
1214.77
1213.59
1218.56
1226.29
1226.17
1219.66
1216.35
1217.23
1218.94
1218.57
1216.88
1215.98
1220.91
1229.42
1230.97
1227.16
1227.63
1227.73
1219.64
1208.34
1202.35
1203.42
1210.38
1216.04
1217.5
1221.17
1227.91
1227.82
1222.68
1220.87
1221.96
1222.82
1223.49
1224.7
1227.95
1232.29
1233.11
1226.43
1218.88
1216.62
1217.44
1217.88
1217.85
1216.58
1215.77
1219.48
1226.2
1226.82
1222.48
1220.34
1220.71
1222.18
1224.28
1225.82
1227.43
1229.86
1230.66
1225.78
1219.62
1217.41
1217.83
1218.04
1218.31
1218.54
1218.41
1218.4
1218.53
1218.39
1218.44
1218.48
1218.43
1218.22
1218.36
1218.27
1218.28
1218.3
1218.21
1218.24
1218.25
1218.1
1218.22
1218.17
1218.08
1218.12
1218.11
1218.02
1217.97
1217.98
1217.95
1217.95
1217.92
1217.91
1217.83
1217.87
1217.77
1217.79
1217.76
1217.73
1217.76
1217.71
1217.73
1217.7
1217.57
1217.56
1217.42
1217.37
1217.26
1217.2
1217.07
1217.12
1216.99
1216.89
1216.82
1216.78
1216.69
1216.58
1216.67
1216.59
1216.07
1216.12
1216.04
1215.95
1216.12
1215.76
1215.77
1215.67
1215.65
1215.56
1215.53
1215.44
1215.4
1215.32
1215.29
1215.21
1215.18
1215.1
1215.07
1214.99
1214.97
1214.89
1214.87
1214.79
1214.77
1214.7
1214.68
1214.61
1214.59
1214.54
1214.51
1214.46
1214.44
1214.39
1214.37
1214.33
1214.31
1214.27
1214.24
1214.07
1214.05
1214.02
1214
1213.96
1213.93
1213.88
1213.85
1213.79
1213.76
1213.7
1213.67
1213.61
1213.57
1213.51
1213.48
1213.41
1213.38
1213.31
1213.28
1213.21
1213.19
1213.11
1213.1
1213.01
1213.01
1212.91
1212.93
1212.8
1212.85
1212.7
1212.76
1212.6
1212.67
1212.52
1212.59
1212.45
1212.5
1212.39
1212.41
1212.33
1212.34
1212.27
1212.27
1212.21
1212.2
1212.16
1212.14
1212.1
1212.09
1212.04
1212.03
1211.98
1211.98
1211.94
1211.91
1211.93
1211.82
1211.96
1211.73
1211.73
1211.66
1211.79
1211.52
1211.83
1211.42
1211.76
1211.54
1211.38
1212.44
1210.52
1211.57
1211.11
1211.3
1211.17
1211.16
1211.1
1211.06
1211.01
1210.96
1210.91
1210.86
1210.8
1210.75
1210.69
1210.63
1210.57
1210.51
1210.45
1210.38
1210.32
1210.25
1210.18
1210.11
1210.04
1209.96
1209.91
1209.79
1209.81
1209.6
1209.75
1209.35
1209.76
1209.02
1209.85
1208.64
1209.94
1208.31
1209.94
1208.29
1209.72
1208.62
1209.3
1208.9
1209.07
1208.97
1209
1208.96
1208.95
1208.92
1208.91
1208.88
1208.87
1208.84
1208.83
1208.77
1208.83
1208.67
1208.9
1208.53
1209.02
1208.36
1209.14
1208.33
1208.58
1209.87
1207.58
1208.97
1208.8
1208.57
1208.87
1208.65
1208.8
1208.73
1208.78
1208.78
1208.8
1208.81
1208.83
1208.85
1208.86
1208.88
1208.91
1208.92
1208.94
1208.95
1208.97
1208.98
1208.99
1208.99
1208.99
1208.99
1208.98
1208.96
1208.94
1208.92
1208.89
1208.85
1208.81
1208.77
1208.72
1208.67
1208.62
1208.57
1208.52
1208.46
1208.41
1208.36
1208.31
1208.26
1208.21
1208.17
1208.12
1208.09
1208.05
1208.02
1207.99
1207.96
1207.94
1207.92
1207.9
1207.88
1207.86
1207.84
1207.83
1207.81
1207.8
1207.78
1207.77
1207.75
1207.74
1207.72
1207.71
1207.68
1207.68
1207.63
1207.69
1207.54
1207.76
1207.39
1207.91
1207.2
1208.1
1207.09
1208.07
1207.59
1206.72
1209.26
1205.89
1208.16
1207.88
1207.39
1208.14
1207.49
1208.06
1207.72
1207.97
1207.93
1207.9
1208.15
1207.78
1208.43
1207.6
1208.63
1207.81
1207.49
1209.4
1206.6
1208.32
1208.25
1207.69
1208.22
1207.71
1207.96
1207.68
1207.78
1207.54
1207.67
1207.28
1207.65
1206.91
1207.74
1206.42
1207.93
1205.84
1208.18
1205.24
1208.42
1204.7
1208.4
1204.39
1207.89
1204.32
1206.47
1204.87
1207.35
1209.01
1209.84
1216.97
1213.14
1215.97
1216.94
1217.74
1219.68
1218.92
1220.37
1218.29
1219.75
1206.03
1207.14
1207.89
1210.11
1211.03
1212.93
1213.63
1214.93
1215.4
1216.21
1216.55
1217.07
1217.31
1217.62
1217.79
1217.99
1218.12
1218.25
1218.33
1218.42
1218.47
1218.51
1218.54
1218.57
1218.58
1218.59
1218.59
1218.58
1218.57
1218.55
1218.53
1218.5
1218.47
1218.44
1218.42
1218.39
1218.38
1218.36
1218.35
1218.35
1218.35
1218.36
1218.37
1218.38
1218.4
1218.42
1218.45
1218.48
1218.51
1218.53
1218.56
1218.59
1218.62
1218.64
1218.66
1218.68
1218.7
1218.72
1218.73
1218.74
1218.75
1218.76
1218.77
1218.78
1218.79
1218.81
1218.82
1218.83
1218.84
1218.86
1218.87
1218.88
1218.88
1218.88
1218.88
1218.87
1218.86
1218.84
1218.82
1218.79
1218.76
1218.73
1218.69
1218.65
1218.61
1218.56
1218.51
1218.47
1218.42
1218.37
1218.33
1218.29
1218.25
1218.22
1218.19
1218.16
1218.14
1218.12
1218.09
1218.08
1218.05
1218.04
1218
1217.98
1217.93
1217.88
1217.82
1217.74
1217.64
1217.51
1217.37
1217.33
1217.19
1217.14
1216.48
1215.1
1214.7
1219.11
1224.77
1224.51
1219.76
1217.1
1217.51
1218.88
1218.59
1217.24
1216.99
1221.41
1227.9
1229.22
1226.75
1226.7
1225.81
1219.11
1209.94
1204.83
1205.7
1211.17
1215.54
1217.56
1221.31
1226.44
1226.33
1222.75
1221.34
1222.03
1222.7
1223.35
1224.61
1227.5
1230.84
1231.09
1225.75
1219.8
1217.48
1217.73
1217.98
1217.91
1216.87
1216.63
1219.96
1225.02
1225.49
1222.48
1220.75
1220.9
1222.2
1224.11
1225.59
1226.97
1228.62
1228.92
1225.14
1220.34
1218.15
1218.08
1218.14
1218.36
1218.53
1218.42
1218.42
1218.51
1218.4
1218.44
1218.47
1218.4
1218.25
1218.36
1218.27
1218.28
1218.29
1218.22
1218.24
1218.23
1218.12
1218.21
1218.16
1218.09
1218.11
1218.1
1218.02
1217.98
1217.99
1217.95
1217.95
1217.91
1217.9
1217.84
1217.86
1217.78
1217.79
1217.76
1217.73
1217.75
1217.71
1217.71
1217.67
1217.56
1217.55
1217.41
1217.37
1217.26
1217.2
1217.08
1217.11
1216.98
1216.9
1216.83
1216.77
1216.69
1216.59
1216.62
1216.54
1216.12
1216.15
1216.05
1215.96
1216.08
1215.78
1215.78
1215.67
1215.65
1215.56
1215.53
1215.44
1215.4
1215.32
1215.29
1215.21
1215.18
1215.1
1215.07
1215
1214.97
1214.9
1214.87
1214.8
1214.77
1214.71
1214.68
1214.62
1214.59
1214.54
1214.51
1214.46
1214.44
1214.39
1214.36
1214.33
1214.3
1214.26
1214.23
1214.09
1214.07
1214.03
1214
1213.96
1213.93
1213.88
1213.85
1213.79
1213.76
1213.7
1213.66
1213.61
1213.57
1213.51
1213.48
1213.41
1213.38
1213.32
1213.28
1213.22
1213.19
1213.12
1213.1
1213.02
1213.01
1212.91
1212.93
1212.81
1212.84
1212.71
1212.75
1212.61
1212.67
1212.53
1212.58
1212.46
1212.49
1212.39
1212.41
1212.33
1212.33
1212.27
1212.26
1212.21
1212.2
1212.16
1212.14
1212.1
1212.09
1212.04
1212.03
1211.98
1211.98
1211.94
1211.91
1211.93
1211.83
1211.93
1211.74
1211.74
1211.67
1211.78
1211.55
1211.8
1211.46
1211.72
1211.57
1211.38
1212.24
1210.69
1211.55
1211.12
1211.3
1211.17
1211.16
1211.1
1211.06
1211.01
1210.96
1210.91
1210.86
1210.8
1210.75
1210.69
1210.63
1210.57
1210.51
1210.45
1210.38
1210.32
1210.25
1210.18
1210.11
1210.04
1209.96
1209.91
1209.8
1209.8
1209.61
1209.73
1209.37
1209.73
1209.07
1209.78
1208.73
1209.84
1208.45
1209.82
1208.42
1209.62
1208.68
1209.27
1208.91
1209.07
1208.97
1209
1208.96
1208.95
1208.92
1208.91
1208.88
1208.87
1208.84
1208.83
1208.78
1208.83
1208.68
1208.88
1208.56
1208.98
1208.42
1209.05
1208.45
1208.59
1209.62
1207.81
1208.95
1208.76
1208.6
1208.85
1208.66
1208.79
1208.73
1208.78
1208.78
1208.8
1208.81
1208.83
1208.85
1208.86
1208.88
1208.91
1208.92
1208.94
1208.95
1208.97
1208.98
1208.99
1208.99
1208.99
1208.99
1208.98
1208.96
1208.94
1208.92
1208.89
1208.85
1208.81
1208.77
1208.72
1208.68
1208.62
1208.57
1208.52
1208.46
1208.41
1208.36
1208.31
1208.26
1208.21
1208.17
1208.12
1208.09
1208.05
1208.02
1207.99
1207.96
1207.94
1207.92
1207.9
1207.88
1207.86
1207.85
1207.83
1207.81
1207.8
1207.78
1207.77
1207.75
1207.74
1207.72
1207.71
1207.68
1207.68
1207.63
1207.68
1207.55
1207.74
1207.42
1207.87
1207.26
1208.01
1207.19
1207.95
1207.63
1206.87
1208.92
1206.23
1208.09
1207.8
1207.47
1208.07
1207.54
1208.03
1207.74
1207.96
1207.93
1207.91
1208.13
1207.81
1208.37
1207.69
1208.5
1207.89
1207.58
1209.11
1206.89
1208.29
1208.17
1207.75
1208.17
1207.74
1207.94
1207.69
1207.77
1207.55
1207.66
1207.3
1207.62
1206.95
1207.67
1206.5
1207.81
1205.98
1208.01
1205.44
1208.17
1204.97
1208.12
1204.69
1207.65
1204.67
1206.6
1205.38
1207.59
1209.26
1209.99
1216
1213.05
1215.58
1216.67
1217.37
1219.38
1218.74
1220.26
1218.26
1219.67
1205.7
1206.99
1207.78
1210.1
1211.04
1212.96
1213.66
1214.96
1215.43
1216.25
1216.58
1217.09
1217.32
1217.63
1217.79
1217.99
1218.12
1218.25
1218.33
1218.41
1218.47
1218.52
1218.55
1218.58
1218.59
1218.6
1218.6
1218.59
1218.58
1218.56
1218.53
1218.51
1218.48
1218.45
1218.42
1218.4
1218.38
1218.36
1218.35
1218.35
1218.35
1218.36
1218.37
1218.38
1218.4
1218.42
1218.45
1218.48
1218.5
1218.53
1218.56
1218.59
1218.62
1218.64
1218.66
1218.68
1218.7
1218.72
1218.73
1218.74
1218.75
1218.76
1218.77
1218.78
1218.79
1218.81
1218.82
1218.83
1218.85
1218.86
1218.87
1218.88
1218.88
1218.88
1218.88
1218.87
1218.86
1218.84
1218.82
1218.79
1218.76
1218.73
1218.69
1218.65
1218.61
1218.56
1218.52
1218.47
1218.42
1218.38
1218.33
1218.29
1218.25
1218.22
1218.19
1218.16
1218.14
1218.12
1218.1
1218.08
1218.06
1218.04
1218
1217.98
1217.93
1217.89
1217.83
1217.75
1217.65
1217.54
1217.41
1217.37
1217.24
1217.18
1216.54
1215.53
1215.58
1219.34
1223.51
1223.23
1219.74
1217.62
1217.75
1218.83
1218.61
1217.64
1217.82
1221.63
1226.61
1227.8
1226.2
1225.83
1224.37
1218.72
1211.23
1206.97
1207.58
1211.82
1215.36
1217.67
1221.23
1225.19
1225.16
1222.7
1221.63
1222.09
1222.63
1223.26
1224.47
1226.97
1229.54
1229.49
1225.17
1220.38
1218.12
1218
1218.1
1218.01
1217.22
1217.37
1220.22
1224.05
1224.47
1222.38
1221.01
1221.09
1222.2
1223.89
1225.29
1226.48
1227.6
1227.57
1224.56
1220.77
1218.69
1218.34
1218.25
1218.39
1218.53
1218.43
1218.42
1218.5
1218.41
1218.44
1218.46
1218.4
1218.26
1218.35
1218.28
1218.28
1218.29
1218.23
1218.24
1218.22
1218.13
1218.2
1218.16
1218.1
1218.11
1218.1
1218.03
1217.99
1217.99
1217.95
1217.95
1217.91
1217.9
1217.84
1217.85
1217.78
1217.79
1217.76
1217.73
1217.74
1217.7
1217.7
1217.66
1217.56
1217.54
1217.41
1217.37
1217.26
1217.2
1217.09
1217.1
1216.98
1216.9
1216.83
1216.77
1216.69
1216.6
1216.6
1216.52
1216.16
1216.15
1216.05
1215.97
1216.06
1215.8
1215.78
1215.68
1215.65
1215.56
1215.53
1215.44
1215.4
1215.33
1215.29
1215.22
1215.18
1215.11
1215.07
1215
1214.97
1214.9
1214.87
1214.8
1214.77
1214.71
1214.68
1214.62
1214.59
1214.54
1214.51
1214.46
1214.44
1214.39
1214.36
1214.32
1214.3
1214.25
1214.22
1214.1
1214.07
1214.03
1214
1213.96
1213.92
1213.88
1213.84
1213.79
1213.76
1213.7
1213.66
1213.61
1213.57
1213.51
1213.48
1213.42
1213.38
1213.32
1213.28
1213.22
1213.19
1213.12
1213.1
1213.02
1213.01
1212.92
1212.92
1212.81
1212.84
1212.71
1212.75
1212.62
1212.66
1212.54
1212.57
1212.46
1212.49
1212.4
1212.41
1212.33
1212.33
1212.27
1212.26
1212.21
1212.2
1212.16
1212.14
1212.1
1212.08
1212.04
1212.03
1211.99
1211.97
1211.94
1211.91
1211.92
1211.83
1211.92
1211.75
1211.74
1211.68
1211.77
1211.56
1211.78
1211.48
1211.7
1211.58
1211.39
1212.12
1210.81
1211.53
1211.14
1211.29
1211.17
1211.16
1211.1
1211.06
1211.01
1210.96
1210.91
1210.86
1210.8
1210.75
1210.69
1210.63
1210.57
1210.51
1210.45
1210.38
1210.32
1210.25
1210.18
1210.11
1210.04
1209.96
1209.91
1209.8
1209.8
1209.61
1209.72
1209.39
1209.7
1209.11
1209.73
1208.8
1209.77
1208.54
1209.73
1208.51
1209.55
1208.73
1209.25
1208.93
1209.07
1208.98
1209
1208.96
1208.95
1208.92
1208.91
1208.88
1208.87
1208.84
1208.83
1208.78
1208.82
1208.69
1208.87
1208.58
1208.95
1208.46
1209
1208.51
1208.59
1209.48
1207.96
1208.91
1208.74
1208.63
1208.83
1208.67
1208.78
1208.74
1208.78
1208.78
1208.8
1208.81
1208.83
1208.85
1208.86
1208.88
1208.91
1208.92
1208.94
1208.95
1208.97
1208.98
1208.99
1209
1209
1208.99
1208.98
1208.97
1208.95
1208.92
1208.89
1208.85
1208.82
1208.77
1208.73
1208.68
1208.63
1208.57
1208.52
1208.46
1208.41
1208.36
1208.31
1208.26
1208.21
1208.17
1208.12
1208.08
1208.05
1208.02
1207.99
1207.96
1207.94
1207.92
1207.9
1207.88
1207.86
1207.85
1207.83
1207.81
1207.8
1207.78
1207.77
1207.75
1207.74
1207.72
1207.71
1207.68
1207.68
1207.63
1207.68
1207.55
1207.73
1207.44
1207.84
1207.3
1207.95
1207.25
1207.88
1207.66
1206.95
1208.72
1206.45
1208.02
1207.76
1207.51
1208.02
1207.57
1208
1207.76
1207.95
1207.93
1207.91
1208.12
1207.84
1208.33
1207.75
1208.42
1207.95
1207.63
1208.95
1207.07
1208.25
1208.13
1207.79
1208.14
1207.76
1207.93
1207.7
1207.77
1207.55
1207.65
1207.32
1207.6
1206.99
1207.63
1206.57
1207.73
1206.08
1207.88
1205.59
1208
1205.16
1207.93
1204.92
1207.5
1204.93
1206.56
1205.7
1207.61
1209.16
1209.81
1215.11
1212.9
1215.07
1216.26
1216.76
1218.87
1218.26
1220.07
1218.19
1219.94
1205.28
1206.8
1207.62
1210.08
1211.05
1213.01
1213.7
1215.01
1215.48
1216.29
1216.62
1217.12
1217.34
1217.65
1217.81
1218.02
1218.14
1218.27
1218.35
1218.43
1218.48
1218.53
1218.56
1218.58
1218.6
1218.6
1218.6
1218.59
1218.58
1218.56
1218.53
1218.5
1218.48
1218.45
1218.42
1218.4
1218.38
1218.36
1218.35
1218.35
1218.35
1218.36
1218.37
1218.38
1218.4
1218.43
1218.45
1218.48
1218.51
1218.54
1218.57
1218.59
1218.62
1218.65
1218.67
1218.69
1218.7
1218.72
1218.73
1218.74
1218.75
1218.76
1218.77
1218.79
1218.8
1218.81
1218.82
1218.83
1218.85
1218.86
1218.87
1218.88
1218.89
1218.89
1218.88
1218.88
1218.86
1218.85
1218.82
1218.8
1218.77
1218.74
1218.7
1218.66
1218.61
1218.57
1218.52
1218.47
1218.42
1218.38
1218.33
1218.29
1218.25
1218.22
1218.19
1218.16
1218.14
1218.12
1218.1
1218.08
1218.06
1218.04
1218.01
1217.99
1217.94
1217.9
1217.83
1217.76
1217.66
1217.57
1217.44
1217.4
1217.28
1217.2
1216.62
1215.93
1216.26
1219.41
1222.51
1222.27
1219.67
1218
1217.96
1218.77
1218.61
1217.98
1218.44
1221.69
1225.55
1226.63
1225.57
1224.98
1223.26
1218.47
1212.32
1208.76
1209.15
1212.44
1215.36
1217.75
1221.02
1224.17
1224.25
1222.57
1221.76
1222.1
1222.53
1223.15
1224.29
1226.41
1228.36
1228.15
1224.65
1220.77
1218.63
1218.26
1218.22
1218.1
1217.53
1217.93
1220.35
1223.29
1223.68
1222.22
1221.15
1221.22
1222.19
1223.68
1224.95
1225.95
1226.7
1226.49
1224.07
1221.01
1219.1
1218.57
1218.36
1218.43
1218.53
1218.45
1218.43
1218.49
1218.41
1218.43
1218.44
1218.39
1218.28
1218.35
1218.28
1218.29
1218.29
1218.23
1218.24
1218.22
1218.14
1218.2
1218.15
1218.11
1218.11
1218.09
1218.03
1217.99
1217.99
1217.95
1217.95
1217.91
1217.9
1217.84
1217.85
1217.78
1217.79
1217.76
1217.73
1217.74
1217.7
1217.69
1217.65
1217.56
1217.53
1217.41
1217.36
1217.26
1217.2
1217.1
1217.09
1216.98
1216.9
1216.83
1216.76
1216.68
1216.6
1216.57
1216.49
1216.18
1216.17
1216.06
1215.98
1216.04
1215.81
1215.79
1215.68
1215.65
1215.57
1215.53
1215.45
1215.4
1215.33
1215.29
1215.22
1215.18
1215.11
1215.07
1215
1214.97
1214.9
1214.87
1214.8
1214.77
1214.71
1214.68
1214.62
1214.59
1214.54
1214.51
1214.47
1214.44
1214.39
1214.36
1214.32
1214.29
1214.25
1214.21
1214.1
1214.07
1214.03
1214
1213.96
1213.92
1213.88
1213.84
1213.8
1213.76
1213.7
1213.67
1213.61
1213.57
1213.52
1213.48
1213.42
1213.38
1213.32
1213.28
1213.22
1213.19
1213.12
1213.1
1213.02
1213.01
1212.92
1212.92
1212.82
1212.83
1212.72
1212.74
1212.63
1212.66
1212.54
1212.57
1212.47
1212.48
1212.4
1212.4
1212.33
1212.33
1212.27
1212.26
1212.21
1212.2
1212.16
1212.14
1212.1
1212.08
1212.04
1212.03
1211.99
1211.97
1211.94
1211.91
1211.91
1211.84
1211.9
1211.75
1211.75
1211.68
1211.76
1211.58
1211.75
1211.51
1211.67
1211.59
1211.4
1211.99
1210.92
1211.51
1211.15
1211.29
1211.17
1211.16
1211.1
1211.06
1211.01
1210.96
1210.91
1210.86
1210.81
1210.75
1210.69
1210.63
1210.58
1210.51
1210.45
1210.38
1210.32
1210.25
1210.18
1210.11
1210.04
1209.96
1209.9
1209.8
1209.79
1209.62
1209.71
1209.41
1209.67
1209.15
1209.69
1208.86
1209.7
1208.64
1209.65
1208.61
1209.49
1208.78
1209.22
1208.94
1209.07
1208.98
1209
1208.96
1208.95
1208.92
1208.91
1208.88
1208.87
1208.84
1208.83
1208.78
1208.82
1208.7
1208.85
1208.6
1208.92
1208.51
1208.94
1208.57
1208.6
1209.33
1208.11
1208.89
1208.72
1208.65
1208.81
1208.68
1208.78
1208.74
1208.78
1208.78
1208.8
1208.81
1208.83
1208.85
1208.86
1208.89
1208.91
1208.92
1208.94
1208.96
1208.97
1208.98
1208.99
1209
1209
1208.99
1208.98
1208.97
1208.95
1208.92
1208.89
1208.86
1208.82
1208.77
1208.73
1208.68
1208.63
1208.57
1208.52
1208.46
1208.41
1208.36
1208.31
1208.26
1208.21
1208.16
1208.12
1208.08
1208.05
1208.02
1207.99
1207.96
1207.94
1207.92
1207.9
1207.88
1207.86
1207.85
1207.83
1207.81
1207.8
1207.78
1207.77
1207.75
1207.74
1207.72
1207.71
1207.68
1207.68
1207.64
1207.67
1207.56
1207.71
1207.46
1207.8
1207.34
1207.89
1207.32
1207.8
1207.67
1207.05
1208.51
1206.67
1207.97
1207.72
1207.55
1207.98
1207.61
1207.97
1207.77
1207.94
1207.94
1207.92
1208.1
1207.86
1208.29
1207.81
1208.34
1207.99
1207.7
1208.78
1207.26
1208.22
1208.08
1207.83
1208.1
1207.78
1207.92
1207.71
1207.77
1207.56
1207.64
1207.33
1207.58
1207.02
1207.58
1206.63
1207.64
1206.19
1207.75
1205.75
1207.82
1205.36
1207.73
1205.15
1207.35
1205.2
1206.62
1206.07
1207.7
1209.26
1209.71
1214.36
1212.71
1214.51
1215.79
1216.09
1218.21
1217.72
1219.67
1218.23
1220.12
1204.76
1206.6
1207.48
1210.09
1211.09
1213.08
1213.77
1215.08
1215.52
1216.33
1216.64
1217.14
1217.36
1217.67
1217.83
1218.02
1218.14
1218.27
1218.35
1218.43
1218.49
1218.53
1218.56
1218.59
1218.6
1218.61
1218.61
1218.6
1218.59
1218.56
1218.54
1218.51
1218.48
1218.45
1218.42
1218.4
1218.38
1218.36
1218.35
1218.35
1218.35
1218.36
1218.37
1218.38
1218.4
1218.43
1218.45
1218.48
1218.51
1218.54
1218.57
1218.59
1218.62
1218.65
1218.67
1218.69
1218.71
1218.72
1218.73
1218.74
1218.75
1218.76
1218.77
1218.79
1218.8
1218.81
1218.82
1218.84
1218.85
1218.86
1218.88
1218.88
1218.89
1218.89
1218.89
1218.88
1218.87
1218.85
1218.83
1218.8
1218.77
1218.74
1218.7
1218.66
1218.61
1218.57
1218.52
1218.47
1218.42
1218.38
1218.33
1218.29
1218.25
1218.22
1218.19
1218.17
1218.14
1218.12
1218.1
1218.09
1218.06
1218.05
1218.01
1217.99
1217.94
1217.91
1217.84
1217.78
1217.68
1217.6
1217.48
1217.44
1217.31
1217.24
1216.72
1216.3
1216.79
1219.37
1221.7
1221.52
1219.58
1218.27
1218.14
1218.75
1218.64
1218.29
1218.89
1221.64
1224.67
1225.65
1224.92
1224.2
1222.39
1218.3
1213.24
1210.28
1210.47
1213.04
1215.5
1217.84
1220.76
1223.34
1223.52
1222.4
1221.81
1222.06
1222.41
1223.02
1224.07
1225.87
1227.34
1227.03
1224.18
1221
1219.03
1218.5
1218.35
1218.22
1217.82
1218.35
1220.38
1222.68
1223.06
1222.05
1221.23
1221.31
1222.15
1223.45
1224.59
1225.44
1225.92
1225.61
1223.61
1221.13
1219.39
1218.77
1218.47
1218.48
1218.54
1218.46
1218.44
1218.49
1218.42
1218.43
1218.43
1218.39
1218.29
1218.35
1218.29
1218.29
1218.29
1218.24
1218.24
1218.22
1218.15
1218.19
1218.15
1218.11
1218.1
1218.09
1218.03
1218
1217.99
1217.95
1217.95
1217.91
1217.9
1217.84
1217.85
1217.79
1217.79
1217.76
1217.73
1217.73
1217.69
1217.68
1217.64
1217.56
1217.52
1217.41
1217.36
1217.26
1217.2
1217.11
1217.08
1216.98
1216.9
1216.83
1216.76
1216.68
1216.6
1216.56
1216.47
1216.21
1216.17
1216.07
1215.99
1216.02
1215.82
1215.79
1215.69
1215.65
1215.57
1215.53
1215.45
1215.4
1215.33
1215.29
1215.22
1215.18
1215.11
1215.07
1215.01
1214.97
1214.9
1214.87
1214.81
1214.77
1214.71
1214.68
1214.63
1214.59
1214.54
1214.51
1214.47
1214.44
1214.39
1214.36
1214.32
1214.29
1214.25
1214.21
1214.11
1214.08
1214.03
1214
1213.96
1213.93
1213.88
1213.84
1213.8
1213.76
1213.71
1213.67
1213.61
1213.57
1213.52
1213.48
1213.42
1213.38
1213.32
1213.28
1213.22
1213.19
1213.13
1213.1
1213.03
1213.01
1212.92
1212.92
1212.82
1212.83
1212.72
1212.74
1212.63
1212.65
1212.55
1212.57
1212.47
1212.48
1212.4
1212.4
1212.34
1212.33
1212.27
1212.26
1212.21
1212.2
1212.16
1212.14
1212.1
1212.08
1212.04
1212.02
1211.99
1211.97
1211.94
1211.91
1211.91
1211.84
1211.89
1211.76
1211.75
1211.69
1211.75
1211.59
1211.73
1211.53
1211.65
1211.6
1211.4
1211.91
1211
1211.49
1211.17
1211.29
1211.18
1211.16
1211.11
1211.06
1211.01
1210.96
1210.91
1210.86
1210.81
1210.75
1210.69
1210.63
1210.58
1210.51
1210.45
1210.38
1210.32
1210.25
1210.18
1210.11
1210.04
1209.96
1209.9
1209.8
1209.79
1209.63
1209.7
1209.42
1209.65
1209.18
1209.65
1208.92
1209.64
1208.72
1209.59
1208.68
1209.43
1208.82
1209.2
1208.95
1209.06
1208.98
1209
1208.96
1208.95
1208.92
1208.91
1208.88
1208.87
1208.84
1208.83
1208.79
1208.81