/*--------------------------------*- C++ -*----------------------------------*\
| =========                 |                                                 |
| \\      /  F ield         | foam-extend: Open Source CFD                    |
|  \\    /   O peration     | Version:     3.2                                |
|   \\  /    A nd           | Web:         http://www.foam-extend.org         |
|    \\/     M anipulation  | For copyright notice see file Copyright         |
\*---------------------------------------------------------------------------*/
FoamFile
{
    version     2.0;
    format      ascii;
    class       areaScalarField;
    location    "1790";
    object      Pef;
}
// * * * * * * * * * * * * * * * * * * * * * * * * * * * * * * * * * * * * * //

dimensions      [0 0 0 0 0 0 0];

internalField   nonuniform List<scalar> 
550
(
0
0
0
0.020987
0.063937
0.110017
0.157463
0.204282
0.2487
0.289093
0.324417
0.353997
0.377721
0.395742
0.40852
0.416589
0.420616
0.421246
0.419132
0.415008
0.4093
0.402369
0.39453
0.386059
0.377209
0.368191
0.35918
0.350342
0.341791
0.333533
0.325576
0.317949
0.310669
0.303751
0.2972
0.291021
0.28521
0.279763
0.274668
0.269913
0.265479
0.261348
0.257497
0.253905
0.25055
0.247415
0.244482
0.241738
0.239173
0.236776
0.234536
0.232446
0.230491
0.22866
0.226935
0.225305
0.223755
0.222276
0.220863
0.219514
0.218225
0.217
0.215835
0.214728
0.213674
0.212667
0.211699
0.210762
0.209848
0.208958
0.208086
0.207237
0.206412
0.20562
0.204863
0.204148
0.203473
0.202837
0.202232
0.201651
0.201081
0.200511
0.199925
0.199314
0.198672
0.197998
0.197299
0.196584
0.195865
0.195161
0.194483
0.193847
0.193258
0.192716
0.192217
0.191756
0.191321
0.190905
0.19049
0.19007
0.189631
0.189173
0.18869
0.188185
0.187658
0.187114
0.18656
0.185996
0.185403
0.184939
0.183464
0.182709
0.182212
0.181482
0.181085
0.180216
0.180027
0.179194
0.179552
0.177926
0.177206
0.176705
0.176369
0.175084
0.175041
0.174171
0.173593
0.173025
0.173154
0.1714
0.17098
0.170245
0.169828
0.169059
0.1682
0.167562
0.16747
0.166884
0.165574
0.165213
0.164807
0.164451
0.163186
0.162455
0.16198
0.161277
0.160771
0.160034
0.159659
0.158723
0.158093
0.157649
0.157178
0.156095
0.155825
0.155059
0.15458
0.153741
0.153501
0.152873
0.152366
0.151726
0.151018
0.150384
0.150037
0.149581
0.148989
0.14833
0.147829
0.147305
0.147077
0.146573
0.146427
0.145288
0.145103
0.144292
0.144304
0.144019
0.142891
0.142804
0.142647
0.141683
0.141632
0.1414
0.140333
0.13979
0.140241
0.139678
0.139405
0.139178
0.1385
0.138453
0.138036
0.13746
0.13778
0.137172
0.136495
0.13665
0.13636
0.135554
0.135421
0.135578
0.135444
0.135261
0.134954
0.134687
0.134305
0.134231
0.133803
0.133791
0.133594
0.133338
0.133293
0.132904
0.132666
0.132037
0.131354
0.131256
0.130978
0.131067
0.131084
0.131109
0.1314
0.131111
0.131506
0.13146
0.131682
0.131585
0.131834
0.131893
0.132108
0.131909
0.132989
0.133375
0.133464
0.133682
0.133582
0.13393
0.134351
0.134396
0.13462
0.134681
0.134877
0.134917
0.135077
0.135085
0.135198
0.135175
0.135262
0.135234
0.135303
0.135276
0.135337
0.13532
0.135384
0.135374
0.135432
0.135421
0.135475
0.135458
0.135502
0.135472
0.135507
0.135469
0.135496
0.135455
0.135474
0.135431
0.135425
0.135402
0.13539
0.135568
0.135737
0.135665
0.135691
0.135658
0.135692
0.135674
0.135709
0.1357
0.135741
0.135741
0.135784
0.135782
0.135822
0.135815
0.135851
0.135837
0.135869
0.135848
0.135876
0.135846
0.13587
0.13583
0.135851
0.135798
0.135827
0.135753
0.135815
0.135709
0.135822
0.135684
0.135839
0.13568
0.135859
0.135693
0.135872
0.135721
0.135875
0.135762
0.135886
0.135813
0.135912
0.135872
0.135951
0.135935
0.135996
0.135997
0.136038
0.136057
0.136087
0.136132
0.136185
0.136236
0.136317
0.136347
0.13648
0.136462
0.136646
0.136618
0.136766
0.137138
0.137097
0.137308
0.137166
0.137664
0.137149
0.138246
0.137124
0.138898
0.137151
0.139211
0.139106
0.138927
0.138971
0.139008
0.139083
0.139159
0.139242
0.13933
0.13942
0.139508
0.139597
0.139681
0.139766
0.139846
0.139928
0.140006
0.140086
0.140161
0.140239
0.140312
0.140388
0.14046
0.14054
0.140613
0.140701
0.140774
0.140866
0.14095
0.141015
0.141151
0.141119
0.141431
0.141096
0.141912
0.140935
0.142718
0.140841
0.143731
0.140856
0.143823
0.140734
0.142096
0.140791
0.14057
0.140005
0.13955
0.139049
0.138581
0.138113
0.137664
0.137226
0.1368
0.136386
0.135973
0.135583
0.135188
0.134775
0.134457
0.133878
0.133879
0.13281
0.133604
0.130915
0.135171
0.132294
0.138685
0.133498
0.131302
0.128919
0.129762
0.128454
0.12844
0.12787
0.127553
0.127155
0.126777
0.126419
0.126048
0.125692
0.125321
0.12497
0.124613
0.12422
0.12204
0.121826
0.121624
0.121419
0.121212
0.121001
0.120792
0.120579
0.120368
0.120156
0.119946
0.119732
0.119523
0.119311
0.119102
0.118893
0.118683
0.118479
0.118274
0.118067
0.117867
0.117665
0.117462
0.117265
0.117066
0.116867
0.116669
0.116473
0.11628
0.116083
0.115888
0.115696
0.115503
0.115308
0.115116
0.114925
0.114733
0.114542
0.114352
0.114166
0.113974
0.113787
0.113604
0.113418
0.11323
0.113044
0.112851
0.112672
0.112476
0.112291
0.112096
0.1119
0.111721
0.111476
0.111379
0.110933
0.111179
0.110163
0.111262
0.109064
0.1116
0.107072
0.110134
0.113517
0.103598
0.11358
0.110276
0.106826
0.109057
0.106839
0.107939
0.106754
0.107082
0.106532
0.106464
0.106247
0.105785
0.106133
0.104695
0.113281
0.108498
0.106452
0.108359
0.099515
0.107917
0.10581
0.107213
0.108741
0.106568
0.106709
0.105825
0.105503
0.104891
0.104511
0.103857
0.103646
0.102629
0.102928
0.101102
0.102365
0.099262
0.101902
0.0971494
0.101387
0.09475
0.100905
0.0932325
0.10064
0.0938292
0.101976
0.102988
0.114535
0.116798
0.128188
0.129118
0.0416389
0.0224722
0.00215807
1.12931e-07
0.00143587
0
0
0
0
0
)
;

boundaryField
{
    inlet
    {
        type            calculated;
        value           uniform 0;
    }
    endWall
    {
        type            calculated;
        value           uniform 0;
    }
    sideWall
    {
        type            empty;
    }
}


// ************************************************************************* //
