/*--------------------------------*- C++ -*----------------------------------*\
| =========                 |                                                 |
| \\      /  F ield         | foam-extend: Open Source CFD                    |
|  \\    /   O peration     | Version:     3.2                                |
|   \\  /    A nd           | Web:         http://www.foam-extend.org         |
|    \\/     M anipulation  | For copyright notice see file Copyright         |
\*---------------------------------------------------------------------------*/
FoamFile
{
    version     2.0;
    format      ascii;
    class       volVectorField;
    location    "1790";
    object      q_b_slide;
}
// * * * * * * * * * * * * * * * * * * * * * * * * * * * * * * * * * * * * * //

dimensions      [0 2 -1 0 0 0 0];

internalField   uniform (0 0 0);

boundaryField
{
    inlet
    {
        type            calculated;
        value           uniform (0 0 0);
    }
    outlet
    {
        type            calculated;
        value           uniform (0 0 0);
    }
    sideWall
    {
        type            empty;
    }
    bed
    {
        type            calculated;
        value           nonuniform List<vector> 
550
(
(0 0 0)
(0 0 0)
(0 0 0)
(1.14787e-07 3.06542e-29 -2.29577e-10)
(4.71242e-07 1.33446e-28 -9.42468e-10)
(1.01282e-06 0 -2.02565e-09)
(1.72142e-06 -4.83296e-28 -3.44274e-09)
(2.55552e-06 -6.91775e-28 -5.11103e-09)
(3.46055e-06 0 -6.92148e-09)
(4.37369e-06 -1.01885e-33 -8.74714e-09)
(5.23932e-06 -1.4372e-27 -1.04786e-08)
(6.01095e-06 0 -1.20219e-08)
(6.66002e-06 -1.72276e-27 -1.33197e-08)
(7.17088e-06 2.39553e-33 -1.43426e-08)
(7.54238e-06 -1.78936e-27 -1.50848e-08)
(7.78097e-06 0 -1.55615e-08)
(7.90117e-06 -1.6276e-27 -1.58023e-08)
(7.92005e-06 0 -1.58397e-08)
(7.85678e-06 -1.38628e-27 -1.57136e-08)
(7.734e-06 -1.2684e-27 -1.54689e-08)
(7.56533e-06 0 -1.51302e-08)
(7.36261e-06 -1.06319e-27 -1.47252e-08)
(7.13606e-06 -9.72266e-28 -1.42721e-08)
(6.89453e-06 0 -1.37887e-08)
(6.64578e-06 -7.93856e-28 -1.32923e-08)
(6.39612e-06 -7.08944e-28 -1.27922e-08)
(6.15051e-06 0 -1.23007e-08)
(5.91337e-06 -5.74517e-28 -1.18261e-08)
(5.68751e-06 0 -1.13769e-08)
(5.47269e-06 0 -1.09442e-08)
(5.26884e-06 -3.28079e-34 -1.05371e-08)
(5.07631e-06 0 -1.01543e-08)
(4.8952e-06 0 -9.78932e-09)
(4.7255e-06 0 -9.44995e-09)
(4.56698e-06 0 -9.13546e-09)
(4.4194e-06 0 -8.83831e-09)
(4.28236e-06 0 -8.56378e-09)
(4.15544e-06 0 -8.31226e-09)
(4.0381e-06 0 -8.07531e-09)
(3.92976e-06 0 -7.86082e-09)
(3.82978e-06 3.25153e-34 -7.65871e-09)
(3.73753e-06 -3.4924e-34 -7.47464e-09)
(3.65232e-06 3.37866e-34 -7.30585e-09)
(3.57355e-06 -3.37748e-34 -7.14631e-09)
(3.50059e-06 -3.31681e-34 -7.00042e-09)
(3.43293e-06 0 -6.86699e-09)
(3.3701e-06 -3.70143e-34 -6.73983e-09)
(3.31175e-06 0 -6.62277e-09)
(3.25754e-06 -3.91361e-34 -6.51615e-09)
(3.2072e-06 0 -6.41368e-09)
(3.16045e-06 3.98289e-34 -6.32195e-09)
(3.11705e-06 0 -6.23341e-09)
(3.07669e-06 -3.865e-34 -6.15304e-09)
(3.03905e-06 -3.75189e-34 -6.0791e-09)
(3.00378e-06 0 -6.0069e-09)
(2.97058e-06 0 -5.94117e-09)
(2.93916e-06 3.41718e-34 -5.87993e-09)
(2.90929e-06 0 -5.81538e-09)
(2.88087e-06 0 -5.76175e-09)
(2.85383e-06 3.20679e-34 -5.70922e-09)
(2.8281e-06 0 -5.65621e-09)
(2.80371e-06 0 -5.60896e-09)
(2.7806e-06 -2.9066e-34 -5.56121e-09)
(2.75871e-06 2.75957e-34 -5.51439e-09)
(2.73795e-06 -2.65815e-34 -5.47741e-09)
(2.71815e-06 2.5073e-34 -5.43631e-09)
(2.69917e-06 0 -5.39833e-09)
(2.68085e-06 0 -5.36317e-09)
(2.66305e-06 0 -5.32316e-09)
(2.64573e-06 -2.44908e-34 -5.29145e-09)
(2.62882e-06 -2.50425e-34 -5.25909e-09)
(2.61238e-06 -2.53928e-34 -5.22476e-09)
(2.59646e-06 2.62627e-34 -5.19436e-09)
(2.5812e-06 0 -5.1624e-09)
(2.56666e-06 -2.6377e-34 -5.13049e-09)
(2.55295e-06 0 -5.1073e-09)
(2.54003e-06 -2.46538e-34 -5.08006e-09)
(2.52788e-06 -2.34902e-34 -5.05576e-09)
(2.51635e-06 2.17832e-34 -5.03408e-09)
(2.50528e-06 0 -5.00781e-09)
(2.49446e-06 0 -4.98893e-09)
(2.48365e-06 0 -4.96866e-09)
(2.47255e-06 0 -4.94511e-09)
(2.46102e-06 0 -4.9234e-09)
(2.44891e-06 0 -4.89782e-09)
(2.43624e-06 -1.26331e-34 -4.8698e-09)
(2.4231e-06 0 -4.84754e-09)
(2.4097e-06 0 -4.81941e-09)
(2.39626e-06 0 -4.79253e-09)
(2.38311e-06 -1.56296e-34 -4.76753e-09)
(2.37048e-06 0 -4.73835e-09)
(2.35866e-06 -8.45853e-30 -4.71733e-09)
(2.34771e-06 -1.47662e-34 -4.69672e-09)
(2.33768e-06 0 -4.67537e-09)
(2.32845e-06 0 -4.65818e-09)
(2.31993e-06 0 -4.63987e-09)
(2.3119e-06 -8.21983e-30 -4.62126e-09)
(2.30423e-06 1.15878e-34 -4.60972e-09)
(2.29659e-06 0 -4.59319e-09)
(2.28888e-06 0 -4.57777e-09)
(2.28084e-06 0 -4.56294e-09)
(2.27245e-06 1.70965e-34 -4.54241e-09)
(2.26362e-06 0 -4.52724e-09)
(2.25439e-06 0 -4.51003e-09)
(2.24478e-06 0 -4.48957e-09)
(2.23488e-06 0 -4.471e-09)
(2.22482e-06 3.19303e-34 -4.44963e-09)
(2.2146e-06 0 -4.42677e-09)
(2.20386e-06 0 -4.40893e-09)
(2.19548e-06 2.81077e-33 -2.90229e-09)
(2.16864e-06 -1.713e-32 -5.67892e-09)
(2.15505e-06 0 -3.69413e-09)
(2.14617e-06 0 -4.71344e-09)
(2.13308e-06 1.16147e-32 -3.55652e-09)
(2.12603e-06 0 -5.47019e-09)
(2.11043e-06 0 -1.98342e-09)
(2.10721e-06 -5.98902e-32 -5.74149e-09)
(2.09255e-06 0 -4.43309e-09)
(2.09914e-06 0 -5.36887e-09)
(0 0 0)
(2.05728e-06 0 -2.94457e-09)
(2.04852e-06 1.71058e-31 -3.53453e-09)
(2.04269e-06 0 -6.47662e-09)
(2.02005e-06 0 -1.14089e-09)
(2.01939e-06 -5.71013e-32 -4.88037e-09)
(2.00412e-06 0 -3.51573e-09)
(1.99409e-06 0 -3.9874e-09)
(1.98437e-06 -6.06118e-28 -4.9825e-09)
(1.98678e-06 0 -5.73178e-09)
(0 0 0)
(1.94888e-06 -4.28333e-28 -3.9434e-09)
(1.93625e-06 0 -3.00315e-09)
(1.9291e-06 0 -4.98289e-09)
(0 0 0)
(1.90115e-06 -2.0626e-32 -2.51806e-09)
(1.89028e-06 -1.4919e-32 -2.21704e-09)
(1.8889e-06 0 -7.05013e-09)
(1.87894e-06 0 -2.89301e-09)
(1.85648e-06 0 -1.81305e-09)
(1.85045e-06 1.19181e-31 -3.82981e-09)
(1.84376e-06 -1.11147e-27 -6.0413e-09)
(1.83779e-06 0 -3.62493e-09)
(0 0 0)
(1.80411e-06 0 -2.5502e-09)
(1.79621e-06 -1.11337e-28 -3.80175e-09)
(1.78447e-06 -7.47993e-29 -3.07727e-09)
(1.77605e-06 0 -3.96887e-09)
(1.76382e-06 0 -2.94748e-09)
(1.75761e-06 0 -5.04816e-09)
(1.74215e-06 -7.86427e-29 -2.79843e-09)
(1.73174e-06 6.68388e-32 -2.66534e-09)
(1.72445e-06 7.79588e-29 -3.78037e-09)
(0 0 0)
(1.69897e-06 -8.07059e-29 -1.52154e-09)
(1.69458e-06 3.27015e-33 -4.07441e-09)
(1.68208e-06 0 -2.79326e-09)
(1.67428e-06 5.31713e-29 -3.67809e-09)
(1.66067e-06 -5.88834e-33 -1.71514e-09)
(1.65675e-06 0 -3.98513e-09)
(1.64661e-06 0 -3.64337e-09)
(1.63853e-06 0 -4.14912e-09)
(1.62824e-06 0 -3.73111e-09)
(0 0 0)
(1.60664e-06 0 -2.09609e-09)
(1.60111e-06 -6.79842e-32 -3.3926e-09)
(1.59382e-06 -1.09072e-28 -3.88279e-09)
(1.58441e-06 -4.71879e-32 -3.52529e-09)
(1.57393e-06 0 -2.50552e-09)
(1.56599e-06 0 -2.55062e-09)
(1.55771e-06 2.17584e-29 -2.25422e-09)
(1.55409e-06 0 -4.00579e-09)
(1.54615e-06 0 -3.87214e-09)
(0 0 0)
(1.52597e-06 0 -1.67335e-09)
(1.52304e-06 0 -3.59331e-09)
(1.5104e-06 -3.2619e-29 -1.10644e-09)
(1.51056e-06 0 -3.84301e-09)
(1.50607e-06 0 -5.31817e-09)
(1.48858e-06 0 -7.79983e-10)
(1.48722e-06 -4.54989e-29 -2.71591e-09)
(1.48473e-06 2.32442e-33 -4.80443e-09)
(1.46986e-06 6.91818e-34 -1.25071e-09)
(1.46904e-06 0 -3.31311e-09)
(1.46542e-06 -3.90347e-29 -4.60038e-09)
(1.44907e-06 2.89472e-34 -3.01779e-10)
(1.44079e-06 -6.64417e-34 1.74536e-09)
(1.44764e-06 0 -2.84493e-09)
(1.43903e-06 2.95652e-34 -1.72641e-09)
(1.43483e-06 1.56205e-34 -2.11915e-09)
(1.43133e-06 0 -3.17755e-09)
(1.42102e-06 0 -1.10105e-09)
(1.42027e-06 6.38299e-34 -2.64008e-09)
(1.41391e-06 0 -2.35204e-09)
(1.40522e-06 0 -3.68447e-10)
(1.40999e-06 0 -4.03027e-09)
(1.40076e-06 -4.43565e-34 -2.82046e-09)
(1.39059e-06 0 -3.41354e-10)
(1.39287e-06 9.47598e-34 -2.7052e-09)
(1.38847e-06 -1.38877e-29 -3.13641e-09)
(1.37638e-06 -1.51349e-30 -8.08867e-11)
(1.37439e-06 6.87885e-36 -1.13915e-10)
(1.37672e-06 0 -1.84828e-09)
(1.37471e-06 -1.74234e-34 -2.15701e-09)
(1.37195e-06 0 -2.42831e-09)
(1.36735e-06 4.65342e-30 -2.10359e-09)
(1.36333e-06 1.01591e-34 -2.07791e-09)
(1.35764e-06 8.55429e-30 -1.13317e-09)
(1.3565e-06 0 -2.03717e-09)
(1.35014e-06 0 -7.56019e-10)
(1.34994e-06 0 -1.73781e-09)
(1.34699e-06 -2.93112e-31 -1.844e-09)
(1.34319e-06 0 -1.43599e-09)
(1.34248e-06 2.22687e-29 -2.50702e-09)
(1.33669e-06 -2.16157e-34 -1.71259e-09)
(1.33313e-06 -1.4872e-29 -1.92095e-09)
(1.32382e-06 0 -1.80723e-10)
(1.3138e-06 -4.18729e-29 2.75143e-09)
(1.31236e-06 0 2.67733e-09)
(1.30835e-06 7.90086e-29 4.16601e-09)
(1.30971e-06 0 3.91242e-09)
(1.31002e-06 -4.24093e-34 4.25114e-09)
(1.31049e-06 -5.64321e-34 4.75706e-09)
(1.31483e-06 -7.45504e-30 4.03853e-09)
(1.31071e-06 -1.1805e-33 1.79154e-09)
(1.3165e-06 4.05762e-29 3.99831e-09)
(1.31594e-06 0 4.90995e-09)
(1.31927e-06 0 4.03481e-09)
(1.31794e-06 -5.95587e-30 3.39311e-09)
(1.32164e-06 4.01238e-29 4.29704e-09)
(1.32262e-06 -1.46876e-29 3.54869e-09)
(1.32579e-06 -4.01715e-29 9.7568e-10)
(1.32283e-06 0 7.66777e-09)
(1.33874e-06 -1.46969e-32 1.57687e-08)
(1.34478e-06 0 6.99286e-09)
(1.34627e-06 -7.76281e-29 3.54541e-09)
(1.34962e-06 -6.04492e-29 2.26971e-09)
(1.34818e-06 -1.23487e-29 1.43431e-09)
(1.35335e-06 -4.57228e-33 7.69257e-09)
(1.35971e-06 3.12572e-29 4.87747e-09)
(1.3605e-06 8.38592e-34 3.0673e-09)
(1.36388e-06 0 2.682e-09)
(1.36485e-06 6.15885e-35 2.93594e-09)
(1.3678e-06 -2.20952e-34 2.46849e-09)
(1.36844e-06 1.37978e-34 2.79729e-09)
(1.37087e-06 0 2.36121e-09)
(1.37104e-06 -1.57283e-30 2.55988e-09)
(1.37274e-06 -5.25809e-30 2.01926e-09)
(1.37244e-06 -1.17679e-34 2.24464e-09)
(1.37376e-06 1.76347e-30 1.88467e-09)
(1.37338e-06 0 2.06315e-09)
(1.37442e-06 0 1.69928e-09)
(1.37405e-06 0 1.88667e-09)
(1.37498e-06 0 1.57392e-09)
(1.37475e-06 -7.94138e-31 1.80885e-09)
(1.37572e-06 -3.8004e-31 1.52687e-09)
(1.3756e-06 2.27913e-35 1.63284e-09)
(1.3765e-06 -8.36485e-35 1.30697e-09)
(1.37636e-06 -5.78112e-31 1.4139e-09)
(1.37717e-06 -8.04469e-35 1.11971e-09)
(1.37694e-06 4.28627e-31 1.19793e-09)
(1.37762e-06 0 8.6796e-10)
(1.37719e-06 3.38385e-36 9.13464e-10)
(1.37771e-06 0 6.83121e-10)
(1.37717e-06 0 7.96278e-10)
(1.37758e-06 5.74621e-31 6.29098e-10)
(1.37698e-06 9.16064e-36 7.34812e-10)
(1.37726e-06 0 6.02179e-10)
(1.37662e-06 0 5.79619e-10)
(1.37654e-06 -1.63919e-30 5.76847e-10)
(1.37618e-06 -1.93652e-35 7.39112e-10)
(1.37599e-06 -2.64538e-29 2.30382e-09)
(1.37866e-06 0 4.81299e-09)
(1.38125e-06 1.699e-30 2.46705e-09)
(1.38025e-06 -7.55224e-30 7.65877e-10)
(1.38067e-06 0 7.99159e-10)
(1.38019e-06 0 8.71382e-10)
(1.38071e-06 -3.11083e-31 8.93063e-10)
(1.38046e-06 3.84529e-31 1.03265e-09)
(1.381e-06 4.52584e-36 1.00196e-09)
(1.38088e-06 0 1.15157e-09)
(1.3815e-06 -1.24879e-35 1.08649e-09)
(1.38153e-06 -1.54089e-30 1.21296e-09)
(1.38218e-06 0 1.0717e-09)
(1.38219e-06 2.23755e-35 1.15878e-09)
(1.3828e-06 1.4643e-32 9.87218e-10)
(1.38272e-06 0 1.06482e-09)
(1.38328e-06 2.67613e-35 8.63432e-10)
(1.3831e-06 -1.21241e-32 9.22331e-10)
(1.38359e-06 3.02159e-35 7.05425e-10)
(1.3833e-06 -1.74149e-31 7.74477e-10)
(1.38374e-06 -3.34279e-35 5.42514e-10)
(1.38332e-06 0 6.26222e-10)
(1.38369e-06 5.27882e-31 3.73623e-10)
(1.38312e-06 -2.9065e-31 4.87871e-10)
(1.38344e-06 0 2.14668e-10)
(1.38268e-06 2.47607e-31 4.04428e-10)
(1.38312e-06 0 6.35462e-11)
(1.38205e-06 0 3.99394e-10)
(1.38296e-06 -4.1427e-36 -1.18166e-10)
(1.38142e-06 3.40919e-35 4.28969e-10)
(1.3831e-06 1.10716e-30 -3.31264e-10)
(1.38109e-06 -4.11634e-31 4.06546e-10)
(1.38339e-06 5.89138e-35 -5.17683e-10)
(1.38105e-06 0 3.37806e-10)
(1.38371e-06 0 -6.51679e-10)
(1.38128e-06 2.66365e-31 2.27975e-10)
(1.38393e-06 -1.17496e-34 -7.04604e-10)
(1.38172e-06 1.16995e-31 8.84554e-11)
(1.38402e-06 1.91121e-30 -6.65833e-10)
(1.38236e-06 0 -4.8799e-11)
(1.3842e-06 6.86089e-35 -5.95556e-10)
(1.38315e-06 1.48763e-31 -1.50408e-10)
(1.38463e-06 -2.37179e-35 -5.30883e-10)
(1.38405e-06 1.07849e-35 -2.06998e-10)
(1.38524e-06 1.49215e-35 -4.53666e-10)
(1.38503e-06 -8.36336e-36 -2.13085e-10)
(1.38595e-06 -2.89427e-35 -3.45877e-10)
(1.38599e-06 0 -1.46054e-10)
(1.38663e-06 0 -1.91661e-10)
(1.38693e-06 -1.83271e-37 1.44406e-11)
(1.38741e-06 0 4.96475e-11)
(1.38811e-06 0 2.91296e-10)
(1.38894e-06 6.39109e-37 1.94081e-10)
(1.38973e-06 2.31756e-30 5.29986e-10)
(1.39097e-06 0 2.72803e-10)
(1.39146e-06 3.94817e-35 6.74074e-10)
(1.39348e-06 1.00375e-35 3.93881e-10)
(1.39326e-06 -1.24365e-35 5.79913e-10)
(1.39602e-06 3.32075e-31 8.28963e-10)
(1.39563e-06 -1.63551e-31 6.59552e-11)
(1.39786e-06 0 4.05964e-09)
(1.40351e-06 0 3.28659e-09)
(1.40301e-06 7.24627e-30 8.21378e-10)
(1.40619e-06 5.77541e-35 3.4037e-10)
(1.40417e-06 8.02387e-30 1.9456e-09)
(1.41159e-06 -1.48393e-30 -4.17105e-10)
(1.40405e-06 4.58913e-29 3.35997e-09)
(1.42038e-06 2.3418e-29 -1.91495e-09)
(1.40375e-06 -6.53004e-29 3.71983e-09)
(1.43022e-06 0 -4.14349e-09)
(1.40392e-06 0 -1.40254e-09)
(1.43448e-06 -3.93933e-27 2.63871e-08)
(1.43366e-06 -2.97754e-29 -8.3651e-10)
(1.43104e-06 0 2.06024e-10)
(1.43183e-06 0 1.57429e-09)
(1.43244e-06 0 1.67249e-09)
(1.43364e-06 0 1.87976e-09)
(1.43486e-06 0 1.92858e-09)
(1.43618e-06 0 1.95848e-09)
(1.43756e-06 0 1.97494e-09)
(1.43898e-06 0 1.93541e-09)
(1.44037e-06 -4.16296e-30 1.91068e-09)
(1.44177e-06 -3.77176e-30 1.85979e-09)
(1.4431e-06 -3.60862e-30 1.82769e-09)
(1.44444e-06 -3.24933e-36 1.78672e-09)
(1.44571e-06 0 1.75943e-09)
(1.447e-06 -3.10552e-30 1.74451e-09)
(1.44823e-06 0 1.73477e-09)
(1.4495e-06 7.71197e-36 1.73864e-09)
(1.45068e-06 -2.88207e-30 1.74935e-09)
(1.45191e-06 0 1.77214e-09)
(1.45307e-06 0 1.79345e-09)
(1.45428e-06 0 1.83506e-09)
(1.45542e-06 -2.98027e-30 1.87745e-09)
(1.45668e-06 0 1.92282e-09)
(1.45784e-06 2.90094e-35 1.9822e-09)
(1.45923e-06 0 2.02587e-09)
(1.46038e-06 0 2.01891e-09)
(1.46184e-06 -5.0385e-35 2.11697e-09)
(1.46316e-06 0 1.88082e-09)
(1.46421e-06 7.05942e-30 2.26539e-09)
(1.46631e-06 0 1.54555e-09)
(1.46592e-06 -1.24384e-29 2.74514e-09)
(1.47063e-06 2.23461e-30 6.8313e-10)
(1.46573e-06 -3.18557e-29 3.98867e-09)
(1.478e-06 0 -1.20549e-09)
(1.46348e-06 -7.62755e-33 5.99911e-09)
(1.4903e-06 0 -4.43672e-09)
(1.46223e-06 0 7.3357e-09)
(1.50576e-06 -6.05934e-28 -8.90539e-09)
(1.46251e-06 2.23813e-28 6.03381e-09)
(1.5072e-06 0 -1.05781e-08)
(1.4606e-06 -7.12534e-29 2.3077e-09)
(1.48104e-06 0 -5.47507e-09)
(1.46135e-06 1.68094e-33 -2.24533e-09)
(1.45801e-06 -5.65546e-30 -2.97138e-09)
(1.4495e-06 -1.55882e-29 -2.84659e-09)
(1.44265e-06 9.90512e-30 -2.90872e-09)
(1.43514e-06 1.05609e-29 -2.84589e-09)
(1.42813e-06 9.30528e-30 -2.87042e-09)
(1.42115e-06 0 -2.84076e-09)
(1.41446e-06 0 -2.83973e-09)
(1.40795e-06 6.62201e-30 -2.81923e-09)
(1.40163e-06 -6.72987e-30 -2.81309e-09)
(1.39551e-06 5.9139e-30 -2.78758e-09)
(1.3894e-06 0 -2.81117e-09)
(1.38366e-06 5.93066e-30 -2.70629e-09)
(1.37782e-06 -5.084e-30 -2.89851e-09)
(1.37178e-06 4.01038e-30 -2.47588e-09)
(1.36707e-06 -9.65852e-30 -3.2825e-09)
(1.35867e-06 -9.04414e-34 -1.7426e-09)
(1.35857e-06 0 -4.37882e-09)
(1.34317e-06 -1.43818e-30 -1.42787e-10)
(1.35445e-06 0 -6.79364e-09)
(1.3159e-06 0 4.83412e-09)
(1.37724e-06 0 -1.41977e-08)
(1.33487e-06 0 -1.00209e-08)
(1.42801e-06 -2.65243e-31 2.474e-08)
(1.3528e-06 -1.02242e-27 -1.2091e-08)
(1.32089e-06 -5.89717e-28 -8.27815e-09)
(1.28705e-06 -5.74044e-35 1.05051e-09)
(1.29886e-06 8.59417e-29 -4.86826e-09)
(1.28027e-06 0 -1.41941e-09)
(1.28002e-06 4.73659e-30 -2.8922e-09)
(1.27192e-06 -1.1161e-30 -2.33322e-09)
(1.26741e-06 0 -2.54035e-09)
(1.26176e-06 1.52078e-35 -2.5156e-09)
(1.2564e-06 0 -2.49527e-09)
(1.25135e-06 -4.50588e-35 -2.54259e-09)
(1.24611e-06 0 -2.49556e-09)
(1.24111e-06 0 -2.5278e-09)
(1.23589e-06 2.55425e-30 -2.47813e-09)
(1.23095e-06 0 -2.51805e-09)
(1.22594e-06 0 -2.55532e-09)
(1.22044e-06 4.55002e-35 -2.37536e-09)
(1.19053e-06 0 -2.4132e-09)
(1.18753e-06 0 -2.36448e-09)
(1.18469e-06 -3.08786e-30 -2.3652e-09)
(1.18182e-06 0 -2.36287e-09)
(1.17892e-06 0 -2.35948e-09)
(1.17596e-06 -3.14299e-30 -2.34602e-09)
(1.17303e-06 3.52553e-30 -2.3477e-09)
(1.17006e-06 3.34933e-35 -2.33685e-09)
(1.1671e-06 0 -2.33331e-09)
(1.16414e-06 -3.66495e-30 -2.32504e-09)
(1.1612e-06 3.90514e-30 -2.32536e-09)
(1.15822e-06 -3.7537e-30 -2.31133e-09)
(1.1553e-06 -3.85044e-35 -2.31229e-09)
(1.15235e-06 0 -2.30029e-09)
(1.14944e-06 3.71347e-35 -2.29999e-09)
(1.14654e-06 -3.29339e-35 -2.2931e-09)
(1.14362e-06 -2.79917e-35 -2.27894e-09)
(1.14079e-06 0 -2.28289e-09)
(1.13795e-06 2.85881e-35 -2.27829e-09)
(1.13509e-06 0 -2.26214e-09)
(1.13231e-06 0 -2.26389e-09)
(1.12952e-06 0 -2.25785e-09)
(1.12673e-06 1.89083e-35 -2.2453e-09)
(1.12401e-06 0 -2.24995e-09)
(1.12127e-06 0 -2.24307e-09)
(1.11854e-06 1.64163e-35 -2.23347e-09)
(1.11583e-06 0 -2.22606e-09)
(1.11315e-06 -1.62932e-35 -2.22206e-09)
(1.11051e-06 0 -2.2276e-09)
(1.10782e-06 0 -2.2145e-09)
(1.10515e-06 -3.72695e-30 -2.20295e-09)
(1.10254e-06 -3.7197e-30 -2.20271e-09)
(1.09992e-06 0 -2.20216e-09)
(1.09728e-06 -7.11725e-36 -2.18858e-09)
(1.09467e-06 -1.10241e-35 -2.18503e-09)
(1.09208e-06 -3.37881e-30 -2.18303e-09)
(1.08949e-06 -3.27322e-30 -2.17889e-09)
(1.08692e-06 1.17119e-35 -2.17328e-09)
(1.08435e-06 0 -2.16438e-09)
(1.08184e-06 0 -2.16966e-09)
(1.07926e-06 0 -2.14832e-09)
(1.07676e-06 0 -2.14228e-09)
(1.07429e-06 0 -2.14483e-09)
(1.07181e-06 -3.05883e-30 -2.14177e-09)
(1.06929e-06 0 -2.13064e-09)
(1.0668e-06 -2.93423e-30 -2.12354e-09)
(1.06422e-06 0 -2.09241e-09)
(1.06184e-06 0 -2.12113e-09)
(1.05923e-06 7.67972e-36 -2.09234e-09)
(1.05676e-06 3.14178e-30 -2.09754e-09)
(1.05417e-06 -2.63246e-35 -2.10017e-09)
(1.05157e-06 4.22323e-30 -2.05348e-09)
(1.04918e-06 0 -2.16795e-09)
(1.04597e-06 0 -1.91669e-09)
(1.04461e-06 -3.19502e-34 -2.43039e-09)
(1.03884e-06 -2.08636e-30 -1.37173e-09)
(1.04185e-06 -3.07943e-29 -3.26897e-09)
(1.02882e-06 0 -5.45946e-11)
(1.04275e-06 1.00897e-28 -5.17235e-09)
(1.01456e-06 1.80253e-33 2.15585e-09)
(1.04693e-06 5.14464e-28 -8.02718e-09)
(9.88837e-07 7.73323e-28 6.66285e-09)
(1.02842e-06 3.20691e-33 -2.44792e-09)
(1.07116e-06 0 -1.41847e-08)
(9.45152e-07 0 2.02651e-08)
(1.07288e-06 2.83896e-27 -1.73183e-08)
(1.02921e-06 0 -8.48618e-09)
(9.85319e-07 0 3.03558e-09)
(1.01336e-06 -2.59582e-28 -5.98182e-09)
(9.85059e-07 0 7.14682e-10)
(9.98895e-07 -5.41924e-29 -3.8636e-09)
(9.83759e-07 0 -7.64605e-10)
(9.87846e-07 -8.66347e-34 -2.55613e-09)
(9.80791e-07 5.05177e-34 -1.58178e-09)
(9.79918e-07 -1.29921e-30 -1.98193e-09)
(9.77045e-07 1.67179e-34 -2.19271e-09)
(9.71266e-07 0 -1.17642e-09)
(9.75428e-07 -3.41733e-29 -3.47838e-09)
(9.57493e-07 1.53117e-29 8.76433e-10)
(1.06673e-06 0 -7.2629e-09)
(1.00486e-06 -2.72736e-32 8.21576e-09)
(9.79632e-07 -2.64094e-28 -5.0676e-09)
(1.00272e-06 6.87965e-28 -1.12062e-08)
(8.93133e-07 9.87182e-32 1.73668e-08)
(9.9799e-07 0 -1.36222e-08)
(9.70586e-07 -6.14104e-28 -9.25434e-09)
(9.88059e-07 -1.37093e-28 2.61906e-09)
(1.00728e-06 -6.63928e-33 -5.17325e-09)
(9.7949e-07 0 -3.96537e-10)
(9.81184e-07 0 -2.48775e-09)
(9.69913e-07 0 -1.5429e-09)
(9.65788e-07 0 -2.06173e-09)
(9.58039e-07 0 -1.71635e-09)
(9.53179e-07 0 -2.13758e-09)
(9.45007e-07 -4.17255e-34 -1.45569e-09)
(9.42227e-07 6.52071e-34 -2.59035e-09)
(9.29661e-07 -2.51785e-30 -6.54035e-10)
(9.33127e-07 0 -3.68272e-09)
(9.10764e-07 0 8.46139e-10)
(9.25957e-07 0 -5.56593e-09)
(8.88222e-07 1.16042e-28 2.87268e-09)
(9.2001e-07 3.8829e-28 -8.10247e-09)
(8.62588e-07 -3.67826e-28 5.18597e-09)
(9.13401e-07 0 -1.07322e-08)
(8.33813e-07 0 8.04322e-09)
(9.07319e-07 0 -1.25663e-08)
(8.15814e-07 0 9.5479e-09)
(9.04249e-07 0 -1.25595e-08)
(8.23174e-07 -3.85867e-32 9.23648e-09)
(9.2184e-07 0 -1.56556e-08)
(9.34724e-07 0 -1.91095e-08)
(1.07937e-06 0 -7.2675e-08)
(1.10529e-06 0 -9.70879e-08)
(1.2502e-06 -1.66779e-30 -1.9027e-07)
(1.24643e-06 0 -2.90094e-07)
(2.66922e-07 0 -5.32963e-10)
(1.24473e-07 -7.5489e-30 -2.49083e-10)
(9.83849e-09 -7.26823e-35 -1.96986e-11)
(0 0 0)
(0 0 0)
(0 0 0)
(0 0 0)
(0 0 0)
(0 0 0)
(0 0 0)
)
;
    }
    endWall
    {
        type            calculated;
        value           uniform (0 0 0);
    }
    topWall
    {
        type            calculated;
        value           uniform (0 0 0);
    }
}


// ************************************************************************* //
