/*--------------------------------*- C++ -*----------------------------------*\
| =========                 |                                                 |
| \\      /  F ield         | foam-extend: Open Source CFD                    |
|  \\    /   O peration     | Version:     3.2                                |
|   \\  /    A nd           | Web:         http://www.foam-extend.org         |
|    \\/     M anipulation  | For copyright notice see file Copyright         |
\*---------------------------------------------------------------------------*/
FoamFile
{
    version     2.0;
    format      ascii;
    class       edgeScalarField;
    location    "1790";
    object      q_f;
}
// * * * * * * * * * * * * * * * * * * * * * * * * * * * * * * * * * * * * * //

dimensions      [0 3 -1 0 0 0 0];

internalField   nonuniform List<scalar> 
549
(
0
0
1.14788e-09
5.8603e-09
1.48406e-08
2.73424e-08
4.27694e-08
6.0161e-08
7.83423e-08
9.61303e-08
1.12503e-07
1.2671e-07
1.38309e-07
1.47133e-07
1.53234e-07
1.56822e-07
1.58213e-07
1.57769e-07
1.55908e-07
1.52994e-07
1.4928e-07
1.44987e-07
1.40306e-07
1.35403e-07
1.30419e-07
1.25467e-07
1.20639e-07
1.16009e-07
1.11602e-07
1.07415e-07
1.03452e-07
9.97153e-08
9.62072e-08
9.29249e-08
8.98639e-08
8.70178e-08
8.43782e-08
8.19356e-08
7.96788e-08
7.75956e-08
7.56732e-08
7.38987e-08
7.22589e-08
7.07416e-08
6.93354e-08
6.80304e-08
6.68186e-08
6.5693e-08
6.46474e-08
6.36766e-08
6.27751e-08
6.19375e-08
6.11575e-08
6.04284e-08
5.97437e-08
5.90976e-08
5.84847e-08
5.79017e-08
5.73471e-08
5.68194e-08
5.63183e-08
5.58433e-08
5.53933e-08
5.49667e-08
5.45612e-08
5.41733e-08
5.38003e-08
5.34391e-08
5.30878e-08
5.27456e-08
5.24121e-08
5.20885e-08
5.17768e-08
5.14787e-08
5.11961e-08
5.09299e-08
5.06792e-08
5.04424e-08
5.02164e-08
4.99975e-08
4.97812e-08
4.95621e-08
4.93358e-08
4.90994e-08
4.88516e-08
4.85935e-08
4.83282e-08
4.80598e-08
4.77938e-08
4.7536e-08
4.72914e-08
4.70639e-08
4.68541e-08
4.66614e-08
4.64839e-08
4.63185e-08
4.61614e-08
4.60083e-08
4.58549e-08
4.56974e-08
4.55331e-08
4.53608e-08
4.51802e-08
4.49919e-08
4.47968e-08
4.45971e-08
4.43943e-08
4.41846e-08
4.39934e-08
4.36413e-08
4.3237e-08
4.30123e-08
4.27925e-08
4.25911e-08
4.23647e-08
4.21765e-08
4.19977e-08
4.1917e-08
2.09857e-08
2.05728e-08
4.10581e-08
4.09123e-08
4.06276e-08
4.03945e-08
4.02352e-08
3.99822e-08
3.97847e-08
3.97116e-08
1.98733e-08
1.94942e-08
3.88514e-08
3.86536e-08
1.9291e-08
1.90063e-08
3.79143e-08
3.7792e-08
3.76786e-08
3.73543e-08
3.70693e-08
3.69422e-08
3.68155e-08
1.83779e-08
1.80412e-08
3.60033e-08
3.5807e-08
3.56053e-08
3.53988e-08
3.52144e-08
3.49977e-08
3.4739e-08
3.4562e-08
1.72398e-08
1.69898e-08
3.39356e-08
3.37667e-08
3.35638e-08
3.33496e-08
3.31743e-08
3.30337e-08
3.28515e-08
3.26678e-08
1.62869e-08
1.60708e-08
3.20775e-08
3.19493e-08
3.17823e-08
3.15835e-08
3.13993e-08
3.12371e-08
3.11181e-08
3.10025e-08
1.54615e-08
1.52555e-08
3.04901e-08
3.03344e-08
3.02097e-08
3.01665e-08
2.99467e-08
2.9758e-08
2.97196e-08
2.95459e-08
2.9389e-08
2.93447e-08
2.9145e-08
2.88986e-08
2.88843e-08
2.88667e-08
2.87386e-08
2.86617e-08
2.85235e-08
2.84129e-08
2.83419e-08
2.81913e-08
2.81522e-08
2.81077e-08
2.79135e-08
2.78346e-08
2.78134e-08
2.76485e-08
2.75077e-08
2.75111e-08
2.75143e-08
2.74666e-08
2.7393e-08
2.73069e-08
2.72098e-08
2.71414e-08
2.70664e-08
2.70008e-08
2.69694e-08
2.69019e-08
2.68567e-08
2.67917e-08
2.66982e-08
2.65695e-08
2.63762e-08
2.62617e-08
2.62072e-08
2.61807e-08
2.61974e-08
2.62052e-08
2.62533e-08
2.62555e-08
2.62722e-08
2.63245e-08
2.63522e-08
2.63722e-08
2.63959e-08
2.64427e-08
2.64841e-08
2.64864e-08
2.66169e-08
2.68363e-08
2.69107e-08
2.69589e-08
2.6978e-08
2.70155e-08
2.71309e-08
2.72022e-08
2.72439e-08
2.72874e-08
2.73266e-08
2.73625e-08
2.73932e-08
2.74191e-08
2.74378e-08
2.74518e-08
2.7462e-08
2.74714e-08
2.7478e-08
2.74847e-08
2.74904e-08
2.74973e-08
2.75047e-08
2.75133e-08
2.7521e-08
2.75286e-08
2.75353e-08
2.75412e-08
2.75456e-08
2.7548e-08
2.7549e-08
2.75489e-08
2.75475e-08
2.75456e-08
2.75424e-08
2.75388e-08
2.75316e-08
2.75272e-08
2.75218e-08
2.75466e-08
2.75992e-08
2.7615e-08
2.76091e-08
2.76086e-08
2.7609e-08
2.76117e-08
2.76146e-08
2.76188e-08
2.76238e-08
2.76303e-08
2.76371e-08
2.76437e-08
2.76499e-08
2.76552e-08
2.766e-08
2.76638e-08
2.76669e-08
2.76689e-08
2.76704e-08
2.76706e-08
2.76701e-08
2.76681e-08
2.76655e-08
2.76612e-08
2.76579e-08
2.76516e-08
2.76501e-08
2.76438e-08
2.76452e-08
2.76419e-08
2.76448e-08
2.76444e-08
2.76476e-08
2.76499e-08
2.76521e-08
2.76565e-08
2.76574e-08
2.76638e-08
2.76656e-08
2.76735e-08
2.76778e-08
2.76868e-08
2.7693e-08
2.77027e-08
2.77098e-08
2.77194e-08
2.77262e-08
2.77357e-08
2.77434e-08
2.77552e-08
2.77705e-08
2.77867e-08
2.7807e-08
2.78242e-08
2.78493e-08
2.78673e-08
2.78928e-08
2.79165e-08
2.79349e-08
2.80138e-08
2.80652e-08
2.80921e-08
2.81036e-08
2.81576e-08
2.81565e-08
2.82444e-08
2.82414e-08
2.83398e-08
2.83415e-08
2.83864e-08
2.86839e-08
2.86471e-08
2.86288e-08
2.86428e-08
2.86609e-08
2.8685e-08
2.87104e-08
2.87374e-08
2.87655e-08
2.87936e-08
2.88214e-08
2.88487e-08
2.88753e-08
2.89015e-08
2.89271e-08
2.89523e-08
2.89773e-08
2.90018e-08
2.9026e-08
2.90498e-08
2.90735e-08
2.9097e-08
2.91211e-08
2.91452e-08
2.91707e-08
2.91961e-08
2.92223e-08
2.925e-08
2.92737e-08
2.93052e-08
2.93224e-08
2.93656e-08
2.93637e-08
2.94374e-08
2.9415e-08
2.9538e-08
2.95255e-08
2.96803e-08
2.9683e-08
2.96975e-08
2.96785e-08
2.94166e-08
2.9424e-08
2.91937e-08
2.90752e-08
2.89216e-08
2.87779e-08
2.86328e-08
2.84929e-08
2.83562e-08
2.82242e-08
2.80959e-08
2.79713e-08
2.78492e-08
2.77306e-08
2.76148e-08
2.74961e-08
2.73886e-08
2.72574e-08
2.71725e-08
2.70175e-08
2.69764e-08
2.67039e-08
2.69324e-08
2.71222e-08
2.76312e-08
2.78107e-08
2.67378e-08
2.60795e-08
2.58592e-08
2.57914e-08
2.56029e-08
2.55194e-08
2.53933e-08
2.52918e-08
2.51817e-08
2.50775e-08
2.49746e-08
2.48722e-08
2.477e-08
2.46684e-08
2.45689e-08
2.44638e-08
2.41098e-08
2.37807e-08
2.37222e-08
2.36651e-08
2.36074e-08
2.35489e-08
2.349e-08
2.34309e-08
2.33716e-08
2.33124e-08
2.32534e-08
2.31942e-08
2.31353e-08
2.30765e-08
2.3018e-08
2.29598e-08
2.29016e-08
2.28442e-08
2.27874e-08
2.27304e-08
2.2674e-08
2.26183e-08
2.25625e-08
2.25075e-08
2.24529e-08
2.23981e-08
2.23437e-08
2.22898e-08
2.22366e-08
2.21833e-08
2.21298e-08
2.2077e-08
2.20247e-08
2.19721e-08
2.19195e-08
2.18676e-08
2.18158e-08
2.17642e-08
2.17127e-08
2.1662e-08
2.16111e-08
2.15603e-08
2.15105e-08
2.1461e-08
2.14111e-08
2.1361e-08
2.13103e-08
2.12606e-08
2.12107e-08
2.116e-08
2.11094e-08
2.10574e-08
2.10075e-08
2.09516e-08
2.09059e-08
2.08346e-08
2.0807e-08
2.07068e-08
2.07159e-08
2.05733e-08
2.06153e-08
2.03584e-08
2.0173e-08
2.09968e-08
2.01663e-08
2.01839e-08
2.10226e-08
2.01458e-08
1.99871e-08
1.99844e-08
1.98396e-08
1.98266e-08
1.97161e-08
1.96864e-08
1.96071e-08
1.95697e-08
1.94831e-08
1.9467e-08
1.93293e-08
2.02427e-08
2.07165e-08
1.98454e-08
1.98243e-08
1.89612e-08
1.89142e-08
1.96871e-08
1.95869e-08
1.99535e-08
1.98678e-08
1.96068e-08
1.9511e-08
1.9357e-08
1.92383e-08
1.91122e-08
1.89819e-08
1.88724e-08
1.87189e-08
1.86279e-08
1.8439e-08
1.83674e-08
1.81421e-08
1.80828e-08
1.78265e-08
1.77607e-08
1.74731e-08
1.74124e-08
1.72325e-08
1.7202e-08
1.72756e-08
1.74519e-08
1.85689e-08
2.01654e-08
2.19134e-08
2.37354e-08
2.54422e-08
1.53331e-08
3.91435e-09
1.3428e-09
9.83851e-11
0
0
0
0
0
0
)
;

boundaryField
{
    inlet
    {
        type            calculated;
        value           uniform 0;
    }
    endWall
    {
        type            calculated;
        value           uniform 0;
    }
    sideWall
    {
        type            empty;
    }
}


// ************************************************************************* //
