/*--------------------------------*- C++ -*----------------------------------*\
| =========                 |                                                 |
| \\      /  F ield         | foam-extend: Open Source CFD                    |
|  \\    /   O peration     | Version:     3.2                                |
|   \\  /    A nd           | Web:         http://www.foam-extend.org         |
|    \\/     M anipulation  | For copyright notice see file Copyright         |
\*---------------------------------------------------------------------------*/
FoamFile
{
    version     2.0;
    format      ascii;
    class       areaScalarField;
    location    "1790";
    object      SSd1;
}
// * * * * * * * * * * * * * * * * * * * * * * * * * * * * * * * * * * * * * //

dimensions      [0 1 -2 -1 0 0 0];

internalField   nonuniform List<scalar> 
550
(
7.55581e-06
7.55581e-06
7.55581e-06
7.55581e-06
7.55581e-06
7.55581e-06
7.55581e-06
7.55581e-06
7.55581e-06
7.55581e-06
7.55581e-06
7.55581e-06
7.55581e-06
7.55581e-06
7.55581e-06
7.55581e-06
7.55581e-06
7.55581e-06
7.55581e-06
7.55581e-06
7.55581e-06
7.55581e-06
7.55581e-06
7.55581e-06
7.55581e-06
7.55581e-06
7.55581e-06
7.55581e-06
7.55581e-06
7.55581e-06
7.55581e-06
7.55581e-06
7.55581e-06
7.55581e-06
7.55581e-06
7.55581e-06
7.55581e-06
7.55581e-06
7.55581e-06
7.55581e-06
7.55581e-06
7.55581e-06
7.55581e-06
7.55581e-06
7.55581e-06
7.55581e-06
7.55581e-06
7.55581e-06
7.55581e-06
7.55581e-06
7.55581e-06
7.55581e-06
7.55581e-06
7.55581e-06
7.55581e-06
7.55581e-06
7.55581e-06
7.55581e-06
7.5558e-06
7.5558e-06
7.5558e-06
7.5558e-06
7.5558e-06
7.5558e-06
7.5558e-06
7.5558e-06
7.55579e-06
7.55579e-06
7.55579e-06
7.55579e-06
7.55578e-06
7.55578e-06
7.55577e-06
7.55577e-06
7.55576e-06
7.55575e-06
7.55574e-06
7.55573e-06
7.55572e-06
7.5557e-06
7.55569e-06
7.55567e-06
7.55564e-06
7.55561e-06
7.55558e-06
7.55554e-06
7.55549e-06
7.55544e-06
7.55538e-06
7.55531e-06
7.55524e-06
7.55515e-06
7.55505e-06
7.55494e-06
7.55481e-06
7.55467e-06
7.55452e-06
7.55434e-06
7.55416e-06
7.55395e-06
7.55373e-06
7.55348e-06
7.55322e-06
7.55294e-06
7.55264e-06
7.55232e-06
7.55197e-06
7.5516e-06
7.55111e-06
7.55077e-06
7.56067e-06
7.56853e-06
7.57687e-06
7.58321e-06
7.5866e-06
7.59192e-06
7.59547e-06
7.59869e-06
7.60341e-06
7.60637e-06
7.61253e-06
7.61301e-06
7.60699e-06
7.61231e-06
7.61126e-06
7.61228e-06
7.61423e-06
7.60952e-06
7.60931e-06
7.60843e-06
7.61165e-06
7.60755e-06
7.60682e-06
7.60226e-06
7.601e-06
7.60339e-06
7.59477e-06
7.5928e-06
7.59561e-06
7.59184e-06
7.58368e-06
7.58364e-06
7.58557e-06
7.58311e-06
7.5815e-06
7.57844e-06
7.57898e-06
7.5768e-06
7.57349e-06
7.57044e-06
7.5723e-06
7.5717e-06
7.56509e-06
7.56597e-06
7.56478e-06
7.56276e-06
7.56063e-06
7.56093e-06
7.55999e-06
7.55845e-06
7.55363e-06
7.55267e-06
7.55275e-06
7.55122e-06
7.55067e-06
7.54558e-06
7.54356e-06
7.54416e-06
7.54239e-06
7.53942e-06
7.53632e-06
7.53435e-06
7.52998e-06
7.53084e-06
7.52955e-06
7.52715e-06
7.526e-06
7.52007e-06
7.51878e-06
7.51987e-06
7.51686e-06
7.51301e-06
7.51425e-06
7.50992e-06
7.50836e-06
7.50848e-06
7.50995e-06
7.50995e-06
7.50869e-06
7.50652e-06
7.5038e-06
7.50062e-06
7.49719e-06
7.49345e-06
7.48957e-06
7.48593e-06
7.48209e-06
7.47801e-06
7.4743e-06
7.47111e-06
7.46834e-06
7.46621e-06
7.46483e-06
7.46399e-06
7.46355e-06
7.46325e-06
7.46293e-06
7.4624e-06
7.46162e-06
7.46051e-06
7.45916e-06
7.4576e-06
7.45581e-06
7.45391e-06
7.45191e-06
7.44989e-06
7.44702e-06
7.44404e-06
7.44067e-06
7.43733e-06
7.43389e-06
7.43033e-06
7.42701e-06
7.4237e-06
7.42024e-06
7.41662e-06
7.41322e-06
7.40978e-06
7.40632e-06
7.40301e-06
7.40013e-06
7.39619e-06
7.39184e-06
7.38868e-06
7.38592e-06
7.38334e-06
7.3807e-06
7.37741e-06
7.37462e-06
7.37202e-06
7.36948e-06
7.36686e-06
7.36432e-06
7.36167e-06
7.35907e-06
7.35636e-06
7.35367e-06
7.35085e-06
7.34802e-06
7.34506e-06
7.34211e-06
7.33904e-06
7.33599e-06
7.33285e-06
7.32976e-06
7.32665e-06
7.32362e-06
7.3206e-06
7.31771e-06
7.31487e-06
7.31218e-06
7.30958e-06
7.30715e-06
7.30482e-06
7.30265e-06
7.30059e-06
7.29869e-06
7.29691e-06
7.29527e-06
7.2937e-06
7.29202e-06
7.2902e-06
7.28881e-06
7.28764e-06
7.2865e-06
7.28535e-06
7.28424e-06
7.28312e-06
7.28202e-06
7.28089e-06
7.27978e-06
7.27863e-06
7.27749e-06
7.27631e-06
7.27513e-06
7.2739e-06
7.27267e-06
7.27138e-06
7.2701e-06
7.26875e-06
7.26741e-06
7.266e-06
7.2646e-06
7.26313e-06
7.26167e-06
7.26014e-06
7.25863e-06
7.25701e-06
7.25544e-06
7.25375e-06
7.25211e-06
7.25036e-06
7.24867e-06
7.24689e-06
7.24514e-06
7.24335e-06
7.24156e-06
7.23976e-06
7.23794e-06
7.23612e-06
7.23428e-06
7.23244e-06
7.23058e-06
7.22872e-06
7.22685e-06
7.22499e-06
7.22311e-06
7.22125e-06
7.21937e-06
7.21749e-06
7.2156e-06
7.21366e-06
7.21173e-06
7.20975e-06
7.20781e-06
7.20579e-06
7.20385e-06
7.20183e-06
7.19985e-06
7.19788e-06
7.19546e-06
7.19329e-06
7.19133e-06
7.18946e-06
7.18728e-06
7.18551e-06
7.18308e-06
7.18135e-06
7.17885e-06
7.17721e-06
7.17508e-06
7.17113e-06
7.16982e-06
7.16832e-06
7.16649e-06
7.16462e-06
7.16269e-06
7.16075e-06
7.15879e-06
7.15682e-06
7.15486e-06
7.1529e-06
7.15094e-06
7.14899e-06
7.14704e-06
7.14509e-06
7.14315e-06
7.1412e-06
7.13926e-06
7.13731e-06
7.13537e-06
7.13341e-06
7.13146e-06
7.1295e-06
7.12753e-06
7.12556e-06
7.12358e-06
7.1216e-06
7.11962e-06
7.11767e-06
7.11566e-06
7.11375e-06
7.11166e-06
7.1099e-06
7.10759e-06
7.10598e-06
7.10332e-06
7.10167e-06
7.09884e-06
7.09717e-06
7.09548e-06
7.09373e-06
7.09199e-06
7.09019e-06
7.08842e-06
7.08661e-06
7.0848e-06
7.08298e-06
7.08117e-06
7.07935e-06
7.07754e-06
7.07574e-06
7.07394e-06
7.07214e-06
7.07036e-06
7.06857e-06
7.0668e-06
7.06502e-06
7.06327e-06
7.06151e-06
7.05977e-06
7.05802e-06
7.05631e-06
7.05457e-06
7.05285e-06
7.05126e-06
7.04605e-06
7.04473e-06
7.04333e-06
7.04201e-06
7.04056e-06
7.03912e-06
7.03768e-06
7.03623e-06
7.0348e-06
7.03336e-06
7.03195e-06
7.03054e-06
7.02914e-06
7.02775e-06
7.02638e-06
7.02503e-06
7.02369e-06
7.02236e-06
7.02105e-06
7.01975e-06
7.01846e-06
7.01719e-06
7.01592e-06
7.01466e-06
7.0134e-06
7.01214e-06
7.01089e-06
7.00963e-06
7.00838e-06
7.00712e-06
7.00585e-06
7.00458e-06
7.0033e-06
7.00203e-06
7.00075e-06
6.99947e-06
6.99819e-06
6.99691e-06
6.99563e-06
6.99436e-06
6.9931e-06
6.99185e-06
6.9906e-06
6.98936e-06
6.98813e-06
6.98691e-06
6.98569e-06
6.98448e-06
6.98327e-06
6.98207e-06
6.98086e-06
6.97965e-06
6.97844e-06
6.97722e-06
6.976e-06
6.97476e-06
6.97351e-06
6.97225e-06
6.97098e-06
6.96969e-06
6.96839e-06
6.96708e-06
6.96575e-06
6.96441e-06
6.96306e-06
6.96169e-06
6.96032e-06
6.95895e-06
6.95756e-06
6.95617e-06
6.95478e-06
6.95339e-06
6.95199e-06
6.9506e-06
6.94921e-06
6.94781e-06
6.94643e-06
6.94504e-06
6.94368e-06
6.9423e-06
6.94088e-06
6.93958e-06
6.93823e-06
6.9368e-06
6.9355e-06
6.93427e-06
6.93292e-06
6.93158e-06
6.93028e-06
6.92897e-06
6.92768e-06
6.92639e-06
6.92512e-06
6.92386e-06
6.9226e-06
6.92136e-06
6.92012e-06
6.91892e-06
6.9177e-06
6.91645e-06
6.91531e-06
6.91414e-06
6.91289e-06
6.91176e-06
6.91069e-06
6.90953e-06
6.90838e-06
6.90726e-06
6.90613e-06
6.90502e-06
6.90392e-06
6.90283e-06
6.90173e-06
6.90066e-06
6.89958e-06
6.89853e-06
6.89747e-06
6.89644e-06
6.89538e-06
6.89438e-06
6.89334e-06
6.89236e-06
6.89132e-06
6.89036e-06
6.88932e-06
6.88835e-06
6.88729e-06
6.88628e-06
6.88519e-06
6.87332e-06
6.86318e-06
6.85355e-06
6.84583e-06
6.84756e-06
6.84882e-06
6.85014e-06
6.85111e-06
6.85191e-06
6.8526e-06
6.85363e-06
6.8574e-06
6.86069e-06
6.86021e-06
6.85958e-06
)
;

boundaryField
{
    inlet
    {
        type            calculated;
        value           uniform 0;
    }
    endWall
    {
        type            calculated;
        value           uniform 0;
    }
    sideWall
    {
        type            empty;
    }
}


// ************************************************************************* //
