/*--------------------------------*- C++ -*----------------------------------*\
| =========                 |                                                 |
| \\      /  F ield         | foam-extend: Open Source CFD                    |
|  \\    /   O peration     | Version:     3.2                                |
|   \\  /    A nd           | Web:         http://www.foam-extend.org         |
|    \\/     M anipulation  | For copyright notice see file Copyright         |
\*---------------------------------------------------------------------------*/
FoamFile
{
    version     2.0;
    format      ascii;
    class       areaScalarField;
    location    "1790";
    object      SSe1;
}
// * * * * * * * * * * * * * * * * * * * * * * * * * * * * * * * * * * * * * //

dimensions      [0 1 -2 -1 0 0 0];

internalField   nonuniform List<scalar> 
550
(
6.89617e-07
1.2745e-06
2.13032e-06
3.30027e-06
4.79886e-06
6.60217e-06
8.64986e-06
1.08458e-05
1.30813e-05
1.52393e-05
1.72237e-05
1.89563e-05
2.03939e-05
2.15156e-05
2.23268e-05
2.28461e-05
2.31074e-05
2.31483e-05
2.30109e-05
2.2744e-05
2.23767e-05
2.19346e-05
2.14393e-05
2.09097e-05
2.03625e-05
1.98112e-05
1.92666e-05
1.87386e-05
1.82334e-05
1.77507e-05
1.72904e-05
1.68535e-05
1.64405e-05
1.60517e-05
1.56867e-05
1.53453e-05
1.50267e-05
1.47303e-05
1.44551e-05
1.41999e-05
1.39634e-05
1.37443e-05
1.35412e-05
1.33527e-05
1.31776e-05
1.30146e-05
1.28628e-05
1.27214e-05
1.25896e-05
1.24669e-05
1.23527e-05
1.22464e-05
1.21473e-05
1.20547e-05
1.19677e-05
1.18857e-05
1.18079e-05
1.17338e-05
1.16633e-05
1.1596e-05
1.15319e-05
1.14709e-05
1.14132e-05
1.13584e-05
1.13063e-05
1.12566e-05
1.12089e-05
1.11628e-05
1.11179e-05
1.10742e-05
1.10315e-05
1.09899e-05
1.09496e-05
1.0911e-05
1.0874e-05
1.08392e-05
1.08064e-05
1.07755e-05
1.07461e-05
1.07179e-05
1.06903e-05
1.06627e-05
1.06343e-05
1.06048e-05
1.05738e-05
1.05413e-05
1.05076e-05
1.04732e-05
1.04387e-05
1.04048e-05
1.03723e-05
1.03418e-05
1.03136e-05
1.02877e-05
1.02638e-05
1.02419e-05
1.0221e-05
1.02012e-05
1.01814e-05
1.01614e-05
1.01405e-05
1.01187e-05
1.00958e-05
1.00718e-05
1.00467e-05
1.00209e-05
9.99441e-06
9.96708e-06
9.93762e-06
9.94783e-06
9.79916e-06
9.80218e-06
9.80596e-06
9.79366e-06
9.76905e-06
9.77313e-06
9.7379e-06
9.71845e-06
9.79306e-06
9.85287e-07
9.67715e-06
9.65174e-06
9.61274e-06
9.60239e-06
9.57952e-06
9.54467e-06
9.51794e-06
9.47614e-06
9.51728e-06
7.95035e-07
9.40038e-06
9.37421e-06
9.33575e-06
8.37677e-07
9.28652e-06
9.25926e-06
9.20724e-06
9.24872e-06
9.17086e-06
9.13018e-06
9.08375e-06
9.11875e-06
9.49785e-07
9.00154e-06
8.96596e-06
8.93627e-06
8.90156e-06
8.87478e-06
8.83583e-06
8.81468e-06
8.78781e-06
8.75225e-06
6.28195e-07
8.69987e-06
8.66248e-06
8.63654e-06
8.60385e-06
8.58307e-06
8.54544e-06
8.5154e-06
8.4861e-06
8.4596e-06
5.31246e-07
8.41443e-06
8.38276e-06
8.35294e-06
8.32804e-06
8.30789e-06
8.28468e-06
8.26235e-06
8.23026e-06
8.20478e-06
4.35975e-07
8.16914e-06
8.14e-06
8.12784e-06
8.09582e-06
8.06407e-06
8.06434e-06
8.04054e-06
8.008e-06
8.0033e-06
7.97899e-06
7.95196e-06
7.95387e-06
7.89037e-06
7.9149e-06
7.89752e-06
7.88072e-06
7.85915e-06
7.85251e-06
7.83256e-06
7.81725e-06
7.81288e-06
7.78269e-06
7.76988e-06
7.77054e-06
7.74829e-06
7.7302e-06
7.73283e-06
7.72445e-06
7.70314e-06
7.68731e-06
7.67375e-06
7.66348e-06
7.65321e-06
7.64716e-06
7.63311e-06
7.62814e-06
7.61469e-06
7.60277e-06
7.59493e-06
7.58003e-06
7.57275e-06
7.56293e-06
7.56213e-06
7.45885e-06
7.44921e-06
7.39122e-06
7.39065e-06
7.37082e-06
7.34744e-06
7.3666e-06
7.36962e-06
7.34857e-06
7.31268e-06
7.32971e-06
7.31906e-06
7.30824e-06
7.31299e-06
7.36315e-06
7.2191e-06
7.1365e-06
7.27647e-06
7.31996e-06
7.33764e-06
7.33246e-06
7.23747e-06
7.2956e-06
7.31386e-06
7.32375e-06
7.3126e-06
7.32515e-06
7.31362e-06
7.32497e-06
7.31516e-06
7.32645e-06
7.3155e-06
7.32305e-06
7.31339e-06
7.32024e-06
7.3111e-06
7.31689e-06
7.3077e-06
7.31316e-06
7.30666e-06
7.31261e-06
7.30638e-06
7.31187e-06
7.30636e-06
7.31242e-06
7.30732e-06
7.31194e-06
7.30599e-06
7.30972e-06
7.30413e-06
7.30738e-06
7.30472e-06
7.30496e-06
7.29999e-06
7.27047e-06
7.23407e-06
7.27587e-06
7.29351e-06
7.29078e-06
7.28402e-06
7.28367e-06
7.27769e-06
7.27831e-06
7.2725e-06
7.27355e-06
7.2682e-06
7.2703e-06
7.2652e-06
7.26742e-06
7.26219e-06
7.2647e-06
7.2595e-06
7.26224e-06
7.25656e-06
7.2597e-06
7.25353e-06
7.25698e-06
7.24995e-06
7.25403e-06
7.24506e-06
7.25109e-06
7.23838e-06
7.24653e-06
7.23105e-06
7.23931e-06
7.22593e-06
7.23298e-06
7.22284e-06
7.22752e-06
7.22173e-06
7.22307e-06
7.22154e-06
7.21931e-06
7.2192e-06
7.2164e-06
7.21617e-06
7.21422e-06
7.214e-06
7.21257e-06
7.21258e-06
7.21159e-06
7.21183e-06
7.21086e-06
7.21143e-06
7.20851e-06
7.20272e-06
7.20277e-06
7.19521e-06
7.1993e-06
7.18877e-06
7.1961e-06
7.18641e-06
7.18866e-06
7.19264e-06
7.1286e-06
7.15426e-06
7.18029e-06
7.19496e-06
7.14946e-06
7.20678e-06
7.11087e-06
7.20533e-06
7.09564e-06
7.19678e-06
7.14906e-06
6.87743e-06
7.23124e-06
7.20887e-06
7.17301e-06
7.16567e-06
7.1572e-06
7.15254e-06
7.14826e-06
7.14481e-06
7.14245e-06
7.13995e-06
7.13793e-06
7.13558e-06
7.13346e-06
7.13118e-06
7.12889e-06
7.12624e-06
7.12383e-06
7.12102e-06
7.11818e-06
7.11525e-06
7.11227e-06
7.10888e-06
7.10588e-06
7.10211e-06
7.09956e-06
7.09695e-06
7.09315e-06
7.09536e-06
7.08492e-06
7.0984e-06
7.06821e-06
7.11446e-06
7.03177e-06
7.13211e-06
6.97552e-06
7.11758e-06
6.93749e-06
7.09764e-06
6.95558e-06
7.06996e-06
7.01253e-06
7.04245e-06
7.01412e-06
6.99592e-06
6.96978e-06
6.94668e-06
6.92338e-06
6.90047e-06
6.87828e-06
6.85664e-06
6.83584e-06
6.81528e-06
6.79576e-06
6.77573e-06
6.75795e-06
6.73694e-06
6.72196e-06
6.69736e-06
6.68859e-06
6.65603e-06
6.65869e-06
6.61204e-06
6.50126e-06
6.58449e-06
6.51778e-06
6.72273e-06
6.55331e-06
6.47149e-06
6.47743e-06
6.46366e-06
6.44703e-06
6.42933e-06
6.41031e-06
6.39358e-06
6.37594e-06
6.35926e-06
6.34256e-06
6.32647e-06
6.31024e-06
6.2945e-06
6.27862e-06
6.26271e-06
6.24844e-06
6.13232e-06
6.12606e-06
6.1198e-06
6.11358e-06
6.10739e-06
6.10129e-06
6.09511e-06
6.08908e-06
6.08306e-06
6.077e-06
6.07102e-06
6.06504e-06
6.05906e-06
6.05316e-06
6.0472e-06
6.0413e-06
6.03545e-06
6.02951e-06
6.02364e-06
6.01781e-06
6.01191e-06
6.00596e-06
6.00007e-06
5.99409e-06
5.98804e-06
5.98203e-06
5.97594e-06
5.96972e-06
5.96346e-06
5.95722e-06
5.95088e-06
5.94454e-06
5.93804e-06
5.93162e-06
5.92515e-06
5.91859e-06
5.91207e-06
5.90554e-06
5.89899e-06
5.89238e-06
5.88587e-06
5.87934e-06
5.87278e-06
5.8662e-06
5.85959e-06
5.853e-06
5.84646e-06
5.83958e-06
5.83285e-06
5.82593e-06
5.8189e-06
5.81209e-06
5.80449e-06
5.79824e-06
5.78889e-06
5.78583e-06
5.77093e-06
5.77619e-06
5.74921e-06
5.70564e-06
5.72497e-06
5.53231e-06
5.74439e-06
5.74039e-06
5.14019e-06
5.67781e-06
5.65047e-06
5.61061e-06
5.67256e-06
5.66885e-06
5.66308e-06
5.66338e-06
5.651e-06
5.64499e-06
5.63618e-06
5.62627e-06
5.62252e-06
5.60435e-06
5.59418e-06
5.92679e-06
5.6626e-06
5.59473e-06
5.60144e-06
5.06157e-06
5.52803e-06
5.49159e-06
5.72598e-06
5.76127e-06
5.73976e-06
5.71666e-06
5.6927e-06
5.67142e-06
5.65011e-06
5.62785e-06
5.60953e-06
5.58365e-06
5.56994e-06
5.53543e-06
5.50951e-06
5.48079e-06
5.38978e-06
5.42012e-06
5.25484e-06
5.35733e-06
5.09765e-06
5.30856e-06
5.00389e-06
5.29215e-06
5.02942e-06
5.25403e-06
5.18922e-06
5.03071e-06
4.93653e-06
5.06766e-06
5.58677e-06
3.73575e-06
3.35173e-06
2.70349e-06
2.1176e-06
1.41699e-06
6.79092e-07
2.01587e-07
1.55266e-07
4.94733e-07
1.28157e-06
)
;

boundaryField
{
    inlet
    {
        type            calculated;
        value           uniform 0;
    }
    endWall
    {
        type            calculated;
        value           uniform 0;
    }
    sideWall
    {
        type            empty;
    }
}


// ************************************************************************* //
