/*--------------------------------*- C++ -*----------------------------------*\
| =========                 |                                                 |
| \\      /  F ield         | foam-extend: Open Source CFD                    |
|  \\    /   O peration     | Version:     3.2                                |
|   \\  /    A nd           | Web:         http://www.foam-extend.org         |
|    \\/     M anipulation  | For copyright notice see file Copyright         |
\*---------------------------------------------------------------------------*/
FoamFile
{
    version     2.0;
    format      ascii;
    class       areaScalarField;
    location    "1790";
    object      tauCSS1;
}
// * * * * * * * * * * * * * * * * * * * * * * * * * * * * * * * * * * * * * //

dimensions      [1 1 2 0 0 0 0];

internalField   nonuniform List<scalar> 
550
(
0.0120735
0.0120735
0.0120735
0.0120735
0.0120735
0.0120735
0.0120735
0.0120735
0.0120735
0.0120735
0.0120735
0.0120735
0.0120735
0.0120735
0.0120735
0.0120735
0.0120735
0.0120735
0.0120735
0.0120735
0.0120735
0.0120735
0.0120735
0.0120735
0.0120735
0.0120735
0.0120735
0.0120736
0.0120735
0.0120736
0.0120736
0.0120735
0.0120736
0.0120736
0.0120735
0.0120736
0.0120736
0.0120735
0.0120736
0.0120735
0.0120736
0.0120736
0.0120735
0.0120736
0.0120736
0.0120735
0.0120736
0.0120736
0.0120735
0.0120736
0.0120735
0.0120736
0.0120736
0.0120735
0.0120736
0.0120735
0.0120735
0.0120736
0.0120735
0.0120735
0.0120735
0.0120735
0.0120735
0.0120736
0.0120735
0.0120735
0.0120735
0.0120735
0.0120736
0.0120735
0.0120735
0.0120735
0.0120735
0.0120735
0.0120736
0.0120735
0.0120735
0.0120735
0.0120735
0.0120736
0.0120735
0.0120735
0.0120735
0.0120735
0.0120735
0.0120736
0.0120735
0.0120735
0.0120735
0.0120735
0.0120736
0.0120735
0.0120735
0.0120735
0.0120735
0.0120735
0.0120736
0.0120735
0.0120735
0.0120735
0.0120735
0.0120736
0.0120735
0.0120735
0.0120735
0.0120735
0.0120735
0.0120736
0.0120735
0.0120721
0.0121446
0.012159
0.0121489
0.0121638
0.0121424
0.0121696
0.0121355
0.0121463
0.0120631
0.0467173
0.0121494
0.0121462
0.0121149
0.0121674
0.0121212
0.0121396
0.0121343
0.0121286
0.012057
0.0513299
0.0121273
0.0121369
0.0121165
0.0494724
0.0121361
0.0121418
0.0120912
0.0120821
0.0121444
0.0121261
0.0121003
0.0120741
0.0454681
0.0121344
0.0121209
0.0121296
0.0121204
0.0121323
0.0121075
0.0121292
0.0121304
0.0121194
0.0548334
0.0121397
0.0121099
0.0121234
0.0121119
0.0121342
0.0121098
0.0121121
0.0121044
0.0121062
0.0583408
0.012122
0.0121064
0.0121
0.0121017
0.0121129
0.0121114
0.0121156
0.0120941
0.0120945
0.0627163
0.0121178
0.0120923
0.0121232
0.0120921
0.0120665
0.012121
0.0120989
0.012066
0.0121086
0.0120836
0.0120623
0.0121149
0.0121537
0.0121013
0.0121122
0.0121074
0.012088
0.0121131
0.012095
0.0120934
0.012124
0.0120777
0.0120828
0.0121172
0.0120898
0.0120762
0.0121143
0.0121252
0.0121131
0.0121151
0.0121131
0.0121167
0.0121147
0.0121285
0.0121163
0.012135
0.0121253
0.0121238
0.0121316
0.0121148
0.0121212
0.0121114
0.0121236
0.0121671
0.0121736
0.0122111
0.0122289
0.0122581
0.0122933
0.012315
0.0123691
0.0123575
0.0123987
0.0124203
0.0124598
0.012472
0.0125072
0.0125021
0.0125054
0.0124967
0.012581
0.0126386
0.0126757
0.0126941
0.0126946
0.0127225
0.0127621
0.012776
0.0127989
0.0128069
0.0128254
0.0128318
0.0128492
0.0128556
0.0128709
0.0128762
0.01289
0.0128952
0.0129075
0.0129122
0.0129233
0.0129282
0.0129392
0.0129443
0.0129545
0.0129589
0.0129683
0.0129719
0.0129802
0.0129819
0.0129884
0.0129889
0.0129942
0.012994
0.0129972
0.0129958
0.0129937
0.0129883
0.0129936
0.0130143
0.0130382
0.0130458
0.0130557
0.0130585
0.0130655
0.0130681
0.0130752
0.0130789
0.013087
0.013092
0.0131011
0.0131066
0.0131162
0.0131219
0.0131317
0.0131372
0.0131469
0.0131519
0.0131615
0.0131658
0.0131753
0.0131785
0.0131883
0.0131901
0.0132016
0.0132005
0.0132149
0.0132101
0.013227
0.0132192
0.0132377
0.0132286
0.013247
0.0132385
0.0132554
0.0132493
0.0132635
0.0132603
0.0132719
0.0132711
0.0132808
0.0132821
0.0132905
0.0132937
0.0133016
0.013307
0.0133153
0.0133234
0.0133322
0.0133404
0.0133507
0.0133583
0.013371
0.0133773
0.0133911
0.0133949
0.013403
0.0134075
0.0134204
0.0134605
0.0134597
0.0134996
0.0134729
0.0135401
0.013473
0.0135683
0.0134632
0.0134937
0.0133859
0.0135593
0.0135901
0.0136267
0.0136445
0.0136648
0.0136824
0.0137005
0.0137177
0.0137347
0.0137514
0.0137679
0.0137841
0.0137999
0.0138155
0.0138306
0.0138456
0.0138601
0.0138746
0.0138887
0.0139029
0.0139168
0.0139311
0.0139449
0.0139595
0.0139737
0.0139881
0.0140039
0.0140156
0.0140362
0.0140409
0.0140739
0.014059
0.0141234
0.0140627
0.0141848
0.0140475
0.0142373
0.0140161
0.0142515
0.0140256
0.0142308
0.0141331
0.014198
0.0142049
0.0142242
0.0142408
0.0142589
0.0142756
0.0142927
0.0143093
0.0143256
0.0143419
0.0143579
0.0143731
0.0143901
0.0144024
0.0144244
0.0144265
0.0144667
0.0144387
0.0145236
0.0144289
0.0146387
0.0143384
0.014362
0.0138603
0.0144179
0.0144933
0.0146683
0.0145804
0.014655
0.0146437
0.0146679
0.0146787
0.0146934
0.014708
0.0147213
0.0147362
0.0147494
0.0147638
0.0147761
0.0147877
0.0148025
0.0149629
0.0149626
0.0149612
0.0149594
0.0149573
0.014955
0.0149522
0.0149493
0.0149461
0.014943
0.0149395
0.0149364
0.0149329
0.0149297
0.0149262
0.0149229
0.0149199
0.0149166
0.0149137
0.0149111
0.0149083
0.0149059
0.0149039
0.0149017
0.0149001
0.0148988
0.0148979
0.0148973
0.0148967
0.0148969
0.0148973
0.0148978
0.0148985
0.0148996
0.0149007
0.014902
0.0149034
0.0149052
0.0149071
0.0149089
0.0149114
0.0149138
0.0149161
0.0149185
0.0149213
0.0149241
0.0149277
0.0149301
0.0149337
0.0149371
0.0149398
0.0149454
0.0149444
0.0149562
0.0149436
0.0149761
0.0149291
0.015013
0.0148919
0.015062
0.0148351
0.0151385
0.0150111
0.014565
0.015394
0.0147385
0.0148175
0.0150804
0.0148635
0.0150037
0.0149046
0.0149679
0.0149357
0.014956
0.0149573
0.0149497
0.0149873
0.0149257
0.0150441
0.0143047
0.0146582
0.0149351
0.0146058
0.0153475
0.0148091
0.0148157
0.0146607
0.0145066
0.0146344
0.0146074
0.0146511
0.0146592
0.0146911
0.0147001
0.014744
0.0147326
0.0148136
0.0147521
0.0149064
0.014758
0.0150201
0.014753
0.0151454
0.0147462
0.0152834
0.0147557
0.0153706
0.0148062
0.0153885
0.0149275
0.014934
0.013927
0.0132428
0.0112381
0.00813058
0.0120736
0.0120735
0.0120735
0.0120736
0.0120735
0.0120736
0.0120735
0.0121481
0.012148
0.0121481
)
;

boundaryField
{
    inlet
    {
        type            calculated;
        value           uniform 0;
    }
    endWall
    {
        type            calculated;
        value           uniform 0;
    }
    sideWall
    {
        type            empty;
    }
}


// ************************************************************************* //
