/*--------------------------------*- C++ -*----------------------------------*\
| =========                 |                                                 |
| \\      /  F ield         | foam-extend: Open Source CFD                    |
|  \\    /   O peration     | Version:     3.2                                |
|   \\  /    A nd           | Web:         http://www.foam-extend.org         |
|    \\/     M anipulation  | For copyright notice see file Copyright         |
\*---------------------------------------------------------------------------*/
FoamFile
{
    version     2.0;
    format      ascii;
    class       areaScalarField;
    location    "1790";
    object      thetaCSS2;
}
// * * * * * * * * * * * * * * * * * * * * * * * * * * * * * * * * * * * * * //

dimensions      [0 0 0 0 0 0 0];

internalField   nonuniform List<scalar> 
550
(
0.127208
0.127208
0.127208
0.127208
0.127208
0.127208
0.127208
0.127208
0.127208
0.127208
0.127208
0.127208
0.127208
0.127208
0.127208
0.127208
0.127208
0.127208
0.127208
0.127208
0.127208
0.127208
0.127208
0.127208
0.127208
0.127208
0.127208
0.127208
0.127208
0.127208
0.127208
0.127208
0.127208
0.127208
0.127208
0.127208
0.127208
0.127208
0.127208
0.127208
0.127208
0.127208
0.127208
0.127208
0.127208
0.127208
0.127208
0.127208
0.127208
0.127208
0.127208
0.127208
0.127208
0.127208
0.127208
0.127208
0.127208
0.127208
0.127208
0.127208
0.127208
0.127208
0.127208
0.127208
0.127208
0.127208
0.127208
0.127208
0.127208
0.127208
0.127208
0.127208
0.127208
0.127208
0.127208
0.127208
0.127208
0.127208
0.127208
0.127208
0.127208
0.127208
0.127208
0.127208
0.127208
0.127208
0.127208
0.127208
0.127208
0.127208
0.127208
0.127208
0.127208
0.127208
0.127208
0.127208
0.127208
0.127208
0.127208
0.127208
0.127208
0.127208
0.127208
0.127208
0.127208
0.127208
0.127208
0.127208
0.127208
0.127193
0.127957
0.128109
0.128002
0.128159
0.127933
0.12822
0.12786
0.127974
0.127099
0.492218
0.128008
0.127973
0.127644
0.128197
0.127711
0.127904
0.127848
0.127789
0.127034
0.540817
0.127775
0.127876
0.127661
0.521246
0.127867
0.127927
0.127394
0.127299
0.127954
0.127762
0.12749
0.127214
0.479057
0.127849
0.127707
0.127799
0.127702
0.127827
0.127566
0.127794
0.127807
0.127691
0.57773
0.127905
0.127591
0.127733
0.127612
0.127847
0.127591
0.127614
0.127533
0.127552
0.614685
0.127718
0.127555
0.127487
0.127504
0.127623
0.127607
0.127651
0.127425
0.127429
0.660785
0.127675
0.127406
0.127731
0.127403
0.127134
0.127708
0.127476
0.127128
0.127577
0.127314
0.12709
0.127643
0.128053
0.127501
0.127616
0.127564
0.12736
0.127625
0.127434
0.127417
0.12774
0.127252
0.127306
0.127668
0.127379
0.127236
0.127638
0.127753
0.127625
0.127646
0.127625
0.127662
0.127641
0.127787
0.127658
0.127856
0.127753
0.127737
0.12782
0.127643
0.12771
0.127607
0.127736
0.128194
0.128262
0.128657
0.128845
0.129153
0.129523
0.129752
0.130322
0.1302
0.130634
0.130861
0.131278
0.131406
0.131777
0.131723
0.131759
0.131667
0.132555
0.133162
0.133553
0.133747
0.133751
0.134045
0.134462
0.13461
0.13485
0.134935
0.13513
0.135197
0.13538
0.135448
0.135609
0.135665
0.135811
0.135865
0.135994
0.136044
0.136161
0.136213
0.136329
0.136383
0.13649
0.136536
0.136635
0.136674
0.13676
0.136779
0.136847
0.136852
0.136909
0.136906
0.13694
0.136925
0.136903
0.136846
0.136902
0.13712
0.137371
0.137452
0.137557
0.137585
0.137659
0.137687
0.137761
0.137801
0.137886
0.137938
0.138034
0.138092
0.138193
0.138254
0.138357
0.138415
0.138517
0.13857
0.138671
0.138716
0.138816
0.13885
0.138954
0.138972
0.139093
0.139082
0.139234
0.139182
0.139361
0.139279
0.139474
0.139378
0.139572
0.139482
0.13966
0.139596
0.139745
0.139712
0.139834
0.139826
0.139928
0.139941
0.14003
0.140064
0.140147
0.140204
0.140292
0.140377
0.140469
0.140556
0.140664
0.140744
0.140879
0.140944
0.14109
0.14113
0.141215
0.141263
0.141399
0.141821
0.141813
0.142233
0.141951
0.14266
0.141953
0.142957
0.141849
0.142171
0.141035
0.142862
0.143187
0.143573
0.14376
0.143974
0.144159
0.14435
0.144532
0.144711
0.144887
0.14506
0.145231
0.145397
0.145561
0.145721
0.145879
0.146032
0.146184
0.146333
0.146483
0.146629
0.146779
0.146925
0.147079
0.147228
0.14738
0.147547
0.14767
0.147886
0.147936
0.148284
0.148128
0.148805
0.148166
0.149453
0.148006
0.150005
0.147675
0.150156
0.147775
0.149937
0.148908
0.149592
0.149665
0.149868
0.150043
0.150233
0.150409
0.150589
0.150764
0.150936
0.151107
0.151276
0.151437
0.151616
0.151745
0.151977
0.151999
0.152423
0.152128
0.153022
0.152024
0.154235
0.151071
0.15132
0.146034
0.151908
0.152703
0.154547
0.15362
0.154406
0.154287
0.154543
0.154656
0.154811
0.154965
0.155105
0.155262
0.155401
0.155553
0.155682
0.155804
0.15596
0.157651
0.157647
0.157633
0.157614
0.157592
0.157568
0.157538
0.157507
0.157473
0.157441
0.157405
0.157372
0.157334
0.1573
0.157264
0.15723
0.157198
0.157163
0.157132
0.157104
0.157075
0.15705
0.157029
0.157006
0.156989
0.156976
0.156966
0.15696
0.156953
0.156955
0.15696
0.156964
0.156972
0.156984
0.156995
0.157009
0.157024
0.157043
0.157063
0.157082
0.157109
0.157134
0.157157
0.157183
0.157213
0.157242
0.157279
0.157305
0.157343
0.157379
0.157407
0.157466
0.157456
0.15758
0.157448
0.15779
0.157295
0.158179
0.156902
0.158694
0.156304
0.159501
0.158158
0.153458
0.162193
0.155287
0.156119
0.158888
0.156604
0.15808
0.157036
0.157704
0.157365
0.157578
0.157591
0.157512
0.157908
0.157259
0.158507
0.150716
0.15444
0.157357
0.153889
0.161702
0.156031
0.1561
0.154466
0.152843
0.154189
0.153905
0.154366
0.154451
0.154787
0.154881
0.155344
0.155224
0.156077
0.155429
0.157055
0.155492
0.158253
0.155439
0.159573
0.155368
0.161028
0.155468
0.161946
0.156
0.162135
0.157277
0.157346
0.146736
0.139528
0.118405
0.0856647
0.127209
0.127208
0.127208
0.127209
0.127208
0.127209
0.127208
0.127994
0.127993
0.127994
)
;

boundaryField
{
    inlet
    {
        type            calculated;
        value           uniform 0;
    }
    endWall
    {
        type            calculated;
        value           uniform 0;
    }
    sideWall
    {
        type            empty;
    }
}


// ************************************************************************* //
