/*--------------------------------*- C++ -*----------------------------------*\
| =========                 |                                                 |
| \\      /  F ield         | foam-extend: Open Source CFD                    |
|  \\    /   O peration     | Version:     3.2                                |
|   \\  /    A nd           | Web:         http://www.foam-extend.org         |
|    \\/     M anipulation  | For copyright notice see file Copyright         |
\*---------------------------------------------------------------------------*/
FoamFile
{
    version     2.0;
    format      ascii;
    class       areaScalarField;
    location    "1790";
    object      thetaB;
}
// * * * * * * * * * * * * * * * * * * * * * * * * * * * * * * * * * * * * * //

dimensions      [0 0 0 0 0 0 0];

internalField   nonuniform List<scalar> 
550
(
0.0222616
0.0307422
0.0410514
0.0530981
0.0665913
0.0810689
0.095981
0.11071
0.124711
0.137485
0.148707
0.158157
0.165781
0.171605
0.175755
0.178385
0.1797
0.179906
0.179215
0.177869
0.176008
0.173755
0.171212
0.168472
0.165616
0.162713
0.159819
0.156986
0.154251
0.151614
0.149077
0.146648
0.144333
0.142135
0.140056
0.138096
0.136255
0.13453
0.132918
0.131413
0.130012
0.128706
0.127489
0.126354
0.125295
0.124305
0.12338
0.122514
0.121705
0.120949
0.120242
0.119583
0.118967
0.11839
0.117846
0.117332
0.116844
0.116378
0.115932
0.115507
0.115101
0.114715
0.114348
0.113999
0.113668
0.11335
0.113045
0.11275
0.112463
0.112182
0.111908
0.11164
0.111381
0.111131
0.110893
0.110668
0.110455
0.110255
0.110065
0.109882
0.109702
0.109523
0.109338
0.109146
0.108944
0.108732
0.108512
0.108287
0.10806
0.107839
0.107625
0.107425
0.10724
0.107069
0.106912
0.106767
0.10663
0.106499
0.106369
0.106236
0.106099
0.105954
0.105802
0.105643
0.105478
0.105306
0.105132
0.104955
0.104768
0.104617
0.104432
0.10425
0.104054
0.103882
0.103674
0.103506
0.103315
0.103095
0.102887
0.102702
0.102482
0.102311
0.102085
0.101883
0.101692
0.10149
0.101287
0.101087
0.100851
0.100654
0.100438
0.100244
0.100035
0.0998096
0.0995978
0.0994191
0.0991953
0.0989761
0.098804
0.09862
0.098393
0.0981799
0.0979834
0.0977848
0.0975836
0.0973961
0.0972014
0.0970155
0.0968021
0.0965912
0.0963975
0.096216
0.0959985
0.0958055
0.0956061
0.0954171
0.0952222
0.0950441
0.0948751
0.0946863
0.0944972
0.0943033
0.09412
0.0939419
0.0937729
0.0936048
0.0934252
0.0932613
0.0930981
0.0929494
0.0927952
0.0926383
0.0924697
0.0923239
0.0921675
0.0920315
0.0919155
0.0917274
0.0915827
0.0914706
0.0912942
0.091155
0.0910429
0.0908879
0.0907552
0.0907341
0.090674
0.0905394
0.0904346
0.0902887
0.0901721
0.0900878
0.0899504
0.0898874
0.0898096
0.0896379
0.0895579
0.0895009
0.0893576
0.0892512
0.0892512
0.0892537
0.0892194
0.0891542
0.0890715
0.0889798
0.0889132
0.0888427
0.0887805
0.0887392
0.0886714
0.0886213
0.0885421
0.0884444
0.0883322
0.0881815
0.0881342
0.0881284
0.0881855
0.0882822
0.0884
0.0885432
0.0887183
0.0888359
0.0889155
0.0890598
0.0892125
0.0893345
0.0894593
0.0896136
0.0896615
0.089612
0.0899175
0.0903637
0.0906136
0.090825
0.0908644
0.0909758
0.0912153
0.0913822
0.0915065
0.0916135
0.0917059
0.0917894
0.0918649
0.0919342
0.0919942
0.0920461
0.0920939
0.0921382
0.0921797
0.0922186
0.0922561
0.0922932
0.0923322
0.0923717
0.0924097
0.0924455
0.0924792
0.09251
0.092538
0.0925603
0.0925779
0.0925911
0.0926016
0.0926092
0.092614
0.0926127
0.0926059
0.0925903
0.0925658
0.0926422
0.0927751
0.0928441
0.0928822
0.0929097
0.0929311
0.0929523
0.0929734
0.092998
0.093025
0.0930563
0.0930889
0.0931233
0.0931572
0.0931918
0.0932254
0.0932586
0.09329
0.0933206
0.0933488
0.0933762
0.0934003
0.0934241
0.0934432
0.0934646
0.0934802
0.0935016
0.0935166
0.0935389
0.0935559
0.0935777
0.0935967
0.0936174
0.0936386
0.0936576
0.0936808
0.0936987
0.0937237
0.0937428
0.0937693
0.0937911
0.0938191
0.0938438
0.0938735
0.0939011
0.0939326
0.0939634
0.0939973
0.0940349
0.0940758
0.0941237
0.0941721
0.0942276
0.0942823
0.0943408
0.0944068
0.0944542
0.0945265
0.0945491
0.094613
0.0947798
0.0949211
0.0949846
0.0950934
0.0951472
0.0952443
0.0953305
0.0953447
0.0954975
0.0950658
0.0952982
0.095933
0.0959956
0.0961505
0.0962306
0.0963323
0.0964239
0.0965198
0.0966138
0.0967078
0.0967998
0.0968908
0.0969797
0.0970673
0.0971525
0.0972365
0.0973187
0.0973998
0.0974792
0.097558
0.0976356
0.0977132
0.0977907
0.0978692
0.0979483
0.0980308
0.098109
0.098199
0.0982704
0.0983699
0.0984311
0.0985479
0.0985885
0.0987312
0.0987539
0.0989174
0.098949
0.0990897
0.0991463
0.0991493
0.0992118
0.0990314
0.0990832
0.0989232
0.0988803
0.0987769
0.0986975
0.0986096
0.0985269
0.0984457
0.0983686
0.0982941
0.0982224
0.0981542
0.0980833
0.0980261
0.0979492
0.097904
0.0978123
0.0977851
0.0976778
0.0976687
0.0975533
0.0975166
0.0976974
0.0968841
0.0969603
0.0974774
0.097078
0.0970031
0.0969292
0.0968054
0.0967576
0.096672
0.0966138
0.0965455
0.0964827
0.0964215
0.0963621
0.0963016
0.0962406
0.0961773
0.0961098
0.0960431
0.0959763
0.0959077
0.0958388
0.0957676
0.0956945
0.0956192
0.0955425
0.0954645
0.095386
0.0953072
0.0952281
0.0951489
0.0950695
0.0949904
0.0949116
0.0948333
0.0947558
0.0946791
0.0946031
0.0945282
0.0944543
0.0943814
0.09431
0.0942399
0.0941711
0.0941039
0.0940382
0.0939742
0.0939113
0.09385
0.0937902
0.0937317
0.0936737
0.0936168
0.0935607
0.0935057
0.0934512
0.093398
0.0933454
0.0932939
0.0932431
0.0931938
0.0931446
0.0930961
0.0930476
0.0929999
0.0929527
0.0929059
0.0928583
0.092813
0.0927622
0.0927222
0.0926625
0.0926307
0.0925519
0.0925369
0.0924332
0.092437
0.0923157
0.0922803
0.0922032
0.0919495
0.0924206
0.0917652
0.0918419
0.0924535
0.0917196
0.0916481
0.0915137
0.0913566
0.0913208
0.0911924
0.0911713
0.0910765
0.09106
0.0909627
0.0909625
0.0908343
0.090839
0.0906884
0.0905471
0.0909708
0.0903019
0.0903794
0.0909459
0.0903093
0.090153
0.0900394
0.089849
0.0897895
0.0896798
0.0896099
0.0895407
0.0894557
0.0894193
0.0893092
0.0893014
0.0891584
0.0891792
0.0890047
0.089039
0.0888394
0.0888579
0.0886516
0.0886358
0.0885372
0.0884946
0.088648
0.0887512
0.0895351
0.0898783
0.0896276
0.0877035
0.0835608
0.0718839
0.0595863
0.0535646
0.0471826
0.0409125
0.0325908
0.0220908
0.0128835
0.0117765
0.0190494
0.031026
)
;

boundaryField
{
    inlet
    {
        type            calculated;
        value           uniform 0;
    }
    endWall
    {
        type            calculated;
        value           uniform 0;
    }
    sideWall
    {
        type            empty;
    }
}


// ************************************************************************* //
