/*--------------------------------*- C++ -*----------------------------------*\
| =========                 |                                                 |
| \\      /  F ield         | foam-extend: Open Source CFD                    |
|  \\    /   O peration     | Version:     3.2                                |
|   \\  /    A nd           | Web:         http://www.foam-extend.org         |
|    \\/     M anipulation  | For copyright notice see file Copyright         |
\*---------------------------------------------------------------------------*/
FoamFile
{
    version     2.0;
    format      ascii;
    class       areaVectorField;
    location    "1790";
    object      Ub2;
}
// * * * * * * * * * * * * * * * * * * * * * * * * * * * * * * * * * * * * * //

dimensions      [0 1 -1 0 0 0 0];

internalField   nonuniform List<vector> 
550
(
(0 0 0)
(0 0 0)
(0 0 0)
(0.0373066 9.96284e-24 -7.46141e-05)
(0.050273 1.42363e-23 -0.000100544)
(0.0627937 0 -0.000125588)
(0.0745675 -2.09352e-23 -0.000149131)
(0.085328 -2.30982e-23 -0.000170656)
(0.0949104 0 -0.000189831)
(0.103194 -2.4039e-29 -0.000206382)
(0.110158 -3.02175e-23 -0.000220316)
(0.115821 0 -0.000231642)
(0.120267 -3.11098e-23 -0.000240528)
(0.123596 4.12888e-29 -0.000247205)
(0.125933 -2.98764e-23 -0.000251866)
(0.1274 0 -0.000254793)
(0.128129 -2.6394e-23 -0.000256259)
(0.128244 0 -0.00025648)
(0.127861 -2.25602e-23 -0.000255722)
(0.127113 -2.0847e-23 -0.00025424)
(0.126075 0 -0.000252144)
(0.12481 -1.80231e-23 -0.000249621)
(0.123374 -1.68093e-23 -0.000246747)
(0.121813 0 -0.000243619)
(0.120173 -1.4355e-23 -0.000240359)
(0.118491 -1.31335e-23 -0.000236983)
(0.1168 0 -0.000233593)
(0.11513 -1.11855e-23 -0.000230246)
(0.113502 0 -0.000227042)
(0.111919 0 -0.000223814)
(0.110384 -6.87336e-30 -0.000220756)
(0.108902 0 -0.000217839)
(0.107477 0 -0.00021493)
(0.106114 0 -0.000212205)
(0.104815 0 -0.000209664)
(0.103582 0 -0.000207152)
(0.102415 0 -0.000204807)
(0.101314 0 -0.000202662)
(0.100279 0 -0.000200537)
(0.0993082 0 -0.000198649)
(0.098398 8.35412e-30 -0.000196774)
(0.0975458 -9.11482e-30 -0.000195081)
(0.0967478 8.94986e-30 -0.000193527)
(0.0960002 -9.0733e-30 -0.000191979)
(0.0952993 -9.0296e-30 -0.000190578)
(0.0946417 0 -0.000189315)
(0.0940242 -1.03268e-29 -0.000188038)
(0.0934447 0 -0.000186869)
(0.0929011 -1.11612e-29 -0.000185833)
(0.0923915 0 -0.000184763)
(0.0919141 1.15833e-29 -0.000183859)
(0.0914672 0 -0.000182914)
(0.0910484 -1.14377e-29 -0.000182087)
(0.0906549 -1.11919e-29 -0.00018134)
(0.0902837 0 -0.000180547)
(0.089932 0 -0.000179864)
(0.089597 1.04169e-29 -0.000179243)
(0.0892766 0 -0.000178455)
(0.0889701 0 -0.00017794)
(0.0886767 9.96441e-30 -0.000177402)
(0.0883961 0 -0.000176792)
(0.0881287 0 -0.000176306)
(0.0878741 -9.18559e-30 -0.000175748)
(0.0876318 8.7659e-30 -0.000175167)
(0.087401 -8.48536e-30 -0.00017485)
(0.08718 8.04171e-30 -0.00017436)
(0.0869671 0 -0.000173934)
(0.0867609 0 -0.00017357)
(0.0865598 0 -0.000173024)
(0.0863634 -7.99442e-30 -0.000172727)
(0.086171 -8.20876e-30 -0.000172389)
(0.0859831 -8.35771e-30 -0.000171966)
(0.0858006 8.67856e-30 -0.000171648)
(0.085625 0 -0.00017125)
(0.085457 -8.78225e-30 -0.00017082)
(0.0852982 0 -0.000170643)
(0.0851481 -8.26457e-30 -0.000170296)
(0.0850065 -7.89921e-30 -0.000170013)
(0.0848718 7.34708e-30 -0.00016979)
(0.0847423 0 -0.000169391)
(0.0846153 0 -0.000169231)
(0.0844882 0 -0.000169023)
(0.0843574 0 -0.000168715)
(0.0842211 0 -0.000168489)
(0.0840776 0 -0.000168155)
(0.083927 -4.35203e-30 -0.000167762)
(0.0837704 0 -0.000167587)
(0.0836101 0 -0.00016722)
(0.0834488 0 -0.000166898)
(0.0832904 -5.46261e-30 -0.000166627)
(0.0831377 0 -0.000166184)
(0.0829945 -2.97631e-25 -0.000165989)
(0.0828613 -5.21166e-30 -0.000165768)
(0.082739 0 -0.000165478)
(0.0826261 0 -0.000165298)
(0.0825219 0 -0.000165044)
(0.0824233 -2.93051e-25 -0.000164756)
(0.082329 4.14027e-30 -0.000164703)
(0.082235 0 -0.00016447)
(0.0821399 0 -0.00016428)
(0.0820406 0 -0.000164126)
(0.0819367 6.1644e-30 -0.000163783)
(0.0818271 0 -0.000163654)
(0.0817125 0 -0.00016347)
(0.0815927 0 -0.000163185)
(0.081469 0 -0.000162983)
(0.0813429 1.16742e-29 -0.000162686)
(0.0812146 0 -0.00016234)
(0.0810794 0 -0.000162203)
(0.0809739 1.03667e-28 -0.000107043)
(0.080627 -6.36867e-28 -0.000211134)
(0.0804524 0 -0.00013791)
(0.0803397 0 -0.000176443)
(0.0801707 4.36532e-28 -0.00013367)
(0.0800813 0 -0.000206046)
(0.0798771 0 -7.50698e-05)
(0.0798385 -2.26914e-27 -0.000217535)
(0.0796519 0 -0.000168744)
(0.0797434 0 -0.000203956)
(0.0793517 -2.77836e-27 -0.000131055)
(0.0791877 0 -0.000113341)
(0.0790743 6.60295e-27 -0.000136435)
(0.0789995 0 -0.000250478)
(0.0786973 0 -4.4447e-05)
(0.0786907 -2.2251e-27 -0.000190176)
(0.0784859 0 -0.000137684)
(0.0783532 0 -0.000156675)
(0.0782272 -2.38942e-23 -0.000196419)
(0.0782636 0 -0.000225788)
(0.077843 9.64239e-24 -7.26257e-05)
(0.0777469 -1.70875e-23 -0.000157314)
(0.0775764 0 -0.000120322)
(0.0774797 0 -0.000200132)
(0.0772987 -1.53935e-27 -0.000166235)
(0.0770963 -8.36435e-28 -0.000102114)
(0.0769474 -6.07304e-28 -9.02487e-05)
(0.0769335 0 -0.000287146)
(0.0767969 0 -0.000118244)
(0.076479 0 -7.46899e-05)
(0.076397 4.92048e-27 -0.000158116)
(0.0763085 -4.60007e-23 -0.000250034)
(0.0762259 0 -0.000150351)
(0.0759207 0 -0.000137409)
(0.0757484 0 -0.000107074)
(0.0756381 -4.68835e-24 -0.000160091)
(0.0754712 -3.1635e-24 -0.000130148)
(0.0753516 0 -0.000168385)
(0.0751769 0 -0.000125627)
(0.0750886 0 -0.000215667)
(0.0748666 -3.37957e-24 -0.000120259)
(0.0747163 2.88377e-27 -0.000114996)
(0.0746108 3.373e-24 -0.000163563)
(0.0744994 -9.16928e-28 -0.000221299)
(0.0742407 -3.52663e-24 -6.64872e-05)
(0.0741765 1.43144e-28 -0.000178348)
(0.0739935 0 -0.000122873)
(0.0738788 2.34621e-24 -0.000162298)
(0.0736781 -2.61245e-28 -7.60945e-05)
(0.073619 0 -0.000177082)
(0.0734688 0 -0.00016256)
(0.0733514 0 -0.000185742)
(0.0731983 0 -0.000167734)
(0.0730237 0 -0.000119444)
(0.0728719 0 -9.50719e-05)
(0.072789 -3.09068e-27 -0.000154233)
(0.0726785 -4.97371e-24 -0.000177056)
(0.0725362 -2.16032e-27 -0.000161393)
(0.0723772 0 -0.000115216)
(0.0722559 0 -0.000117687)
(0.0721295 1.00752e-24 -0.000104381)
(0.0720734 0 -0.000185775)
(0.0719514 0 -0.000180194)
(0.0719176 4.59551e-27 -0.000193134)
(0.0716408 0 -7.85601e-05)
(0.0715943 0 -0.000168913)
(0.0713992 -1.54195e-24 -5.23033e-05)
(0.0714007 0 -0.00018165)
(0.0713296 0 -0.000251876)
(0.0710578 0 -3.72327e-05)
(0.0710357 -2.17321e-24 -0.000129723)
(0.0709951 1.11147e-28 -0.000229733)
(0.0707623 3.33057e-29 -6.02122e-05)
(0.0707483 0 -0.000159558)
(0.0706898 -1.88298e-24 -0.000221916)
(0.0704324 1.40698e-29 -1.4668e-05)
(0.0703023 -3.24197e-29 8.51634e-05)
(0.0704092 0 -0.00013837)
(0.0702723 1.44376e-29 -8.43058e-05)
(0.0702048 7.64292e-30 -0.000103688)
(0.0701477 0 -0.000155727)
(0.0699831 0 -5.42251e-05)
(0.06997 3.14459e-29 -0.000130064)
(0.0698673 0 -0.000116224)
(0.0697284 0 -1.82827e-05)
(0.069803 0 -0.000199522)
(0.0696537 -2.20565e-29 -0.000140249)
(0.0694901 0 -1.70581e-05)
(0.0695256 4.72996e-29 -0.000135031)
(0.0694529 -6.94681e-25 -0.000156888)
(0.0692576 -7.6157e-26 -4.07012e-06)
(0.0692256 3.46475e-31 -5.7377e-06)
(0.0692628 0 -9.29872e-05)
(0.06923 -8.77437e-30 -0.000108626)
(0.0691846 0 -0.000122455)
(0.0691094 2.35195e-25 -0.000106321)
(0.0690431 5.14484e-30 -0.000105231)
(0.0689502 4.34445e-25 -5.75499e-05)
(0.0689305 0 -0.000103519)
(0.0688266 0 -3.85399e-05)
(0.0688226 0 -8.85968e-05)
(0.0687736 -1.49655e-26 -9.41491e-05)
(0.0687111 0 -7.34582e-05)
(0.0686979 1.13955e-24 -0.000128291)
(0.0686022 -1.10937e-29 -8.78944e-05)
(0.0685421 -7.64636e-25 -9.87645e-05)
(0.0683875 0 -9.33599e-06)
(0.0682228 -2.17437e-24 0.000142876)
(0.0681992 0 0.000139132)
(0.0681347 4.11451e-24 0.000216952)
(0.0681591 0 0.000203608)
(0.0681669 -2.20676e-29 0.000221207)
(0.0681776 -2.93586e-29 0.000247485)
(0.0682525 -3.86989e-25 0.000209639)
(0.0681885 -6.14142e-29 9.32029e-05)
(0.0682842 2.10461e-24 0.000207384)
(0.0682784 0 0.000254756)
(0.0683361 0 0.000208998)
(0.0683176 -3.08733e-25 0.000175888)
(0.0683804 2.07596e-24 0.000222324)
(0.0683999 -7.59578e-25 0.000183523)
(0.0684524 -2.07411e-24 5.03758e-05)
(0.0684026 0 0.000396496)
(0.0686635 -7.53799e-28 0.000808767)
(0.0687734 0 0.000357622)
(0.0688036 -3.96734e-24 0.000181195)
(0.0688622 -3.08433e-24 0.000115808)
(0.0688403 -6.30547e-25 7.32385e-05)
(0.0689245 -2.32861e-28 0.000391774)
(0.0690317 1.58691e-24 0.000247627)
(0.0690484 4.25605e-29 0.000155672)
(0.069105 0 0.000135891)
(0.0691229 3.11915e-30 0.000148691)
(0.0691718 -1.11739e-29 0.000124835)
(0.069184 6.97569e-30 0.000141422)
(0.069224 0 0.000119233)
(0.0692284 -7.94179e-26 0.000129257)
(0.0692567 -2.65278e-25 0.000101875)
(0.0692532 -5.93809e-30 0.000113265)
(0.0692752 8.89273e-26 9.50393e-05)
(0.0692703 0 0.000104061)
(0.0692877 0 8.56648e-05)
(0.0692829 0 9.51302e-05)
(0.0692985 0 7.93248e-05)
(0.0692957 -4.00294e-26 9.11771e-05)
(0.0693119 -1.91472e-26 7.69271e-05)
(0.0693111 1.14836e-30 8.22718e-05)
(0.069326 -4.21288e-30 6.58244e-05)
(0.0693247 -2.91185e-26 7.12157e-05)
(0.0693383 -4.05037e-30 5.63753e-05)
(0.0693355 2.15833e-26 6.03215e-05)
(0.0693468 0 4.36916e-05)
(0.0693406 1.70375e-31 4.59924e-05)
(0.0693493 0 3.43859e-05)
(0.0693412 0 4.0093e-05)
(0.0693479 2.89266e-26 3.1669e-05)
(0.0693387 4.6129e-31 3.70019e-05)
(0.0693431 0 3.03189e-05)
(0.0693331 0 2.91924e-05)
(0.0693317 -8.25606e-26 2.90539e-05)
(0.0693257 -9.75529e-31 3.7233e-05)
(0.069322 -1.33274e-24 0.000116066)
(0.0693655 0 0.00024216)
(0.0694097 8.53769e-26 0.000123972)
(0.0693958 -3.7971e-25 3.85066e-05)
(0.0694033 0 4.01721e-05)
(0.0693965 0 4.38135e-05)
(0.0694053 -1.56375e-26 4.48923e-05)
(0.0694019 1.9332e-26 5.1916e-05)
(0.0694108 2.27475e-31 5.036e-05)
(0.0694097 0 5.78831e-05)
(0.06942 -6.27511e-31 5.4596e-05)
(0.0694212 -7.74293e-26 6.09508e-05)
(0.0694323 0 5.38353e-05)
(0.0694332 1.12402e-30 5.82104e-05)
(0.0694437 7.35363e-28 4.95776e-05)
(0.0694433 0 5.34776e-05)
(0.069453 1.34365e-30 4.33519e-05)
(0.0694509 -6.08802e-28 4.6314e-05)
(0.0694594 1.5169e-30 3.54139e-05)
(0.0694557 -8.74405e-27 3.88866e-05)
(0.0694633 -1.67807e-30 2.7234e-05)
(0.0694574 0 3.14431e-05)
(0.0694639 2.65007e-26 1.87566e-05)
(0.0694556 -1.45955e-26 2.44993e-05)
(0.0694611 0 1.07783e-05)
(0.0694498 1.24369e-26 2.03138e-05)
(0.069457 0 3.19115e-06)
(0.069441 0 2.00675e-05)
(0.0694556 -2.08056e-31 -5.93456e-06)
(0.0694322 1.71351e-30 2.15606e-05)
(0.0694588 5.56013e-26 -1.66359e-05)
(0.0694281 -2.06931e-26 2.04373e-05)
(0.0694643 2.95825e-30 -2.59945e-05)
(0.0694286 0 1.69823e-05)
(0.0694704 0 -3.27182e-05)
(0.0694332 1.33894e-26 1.14597e-05)
(0.069475 -5.89846e-30 -3.5372e-05)
(0.0694412 5.87983e-27 4.4455e-06)
(0.0694774 9.59427e-26 -3.34247e-05)
(0.0694523 0 -2.45175e-06)
(0.0694815 3.4439e-30 -2.98946e-05)
(0.0694659 7.47131e-27 -7.5539e-06)
(0.0694895 -1.19032e-30 -2.66431e-05)
(0.0694813 5.41416e-31 -1.03916e-05)
(0.0695005 7.48642e-31 -2.27613e-05)
(0.0694979 -4.19657e-31 -1.06922e-05)
(0.0695131 -1.45164e-30 -1.73476e-05)
(0.0695146 0 -7.32534e-06)
(0.0695254 0 -9.60984e-06)
(0.0695311 -9.1879e-33 7.23948e-07)
(0.0695396 0 2.48842e-06)
(0.0695518 0 1.45955e-05)
(0.0695659 3.20102e-32 9.7207e-06)
(0.0695797 1.16033e-25 2.65348e-05)
(0.0696003 0 1.36503e-05)
(0.0696094 1.97512e-30 3.37215e-05)
(0.0696424 5.01649e-31 1.96852e-05)
(0.0696403 -6.21627e-31 2.89863e-05)
(0.0696849 1.65762e-26 4.13792e-05)
(0.0696796 -8.16559e-27 3.29294e-06)
(0.0697154 0 0.000202466)
(0.0698069 0 0.000163467)
(0.0698034 3.6052e-25 4.08656e-05)
(0.0698539 2.86899e-30 1.69082e-05)
(0.0698259 3.99008e-25 9.67497e-05)
(0.0699411 -7.35252e-26 -2.06665e-05)
(0.0698283 2.28234e-24 0.000167103)
(0.0700802 1.15542e-24 -9.44815e-05)
(0.0698266 -3.24823e-24 0.000185035)
(0.0702342 0 -0.000203476)
(0.0698215 0 -6.97527e-05)
(0.0702855 -1.93016e-22 0.00129289)
(0.0702983 -1.46001e-24 -4.10175e-05)
(0.0702604 0 1.01152e-05)
(0.0702766 0 7.72687e-05)
(0.0702881 0 8.20665e-05)
(0.070309 0 9.21877e-05)
(0.0703299 0 9.45298e-05)
(0.0703525 0 9.5938e-05)
(0.070376 0 9.66835e-05)
(0.0704001 0 9.46872e-05)
(0.0704236 -2.03538e-25 9.34183e-05)
(0.0704471 -1.84294e-25 9.08725e-05)
(0.0704696 -1.76217e-25 8.92502e-05)
(0.0704922 -1.58575e-31 8.71966e-05)
(0.0705137 0 8.58153e-05)
(0.0705354 -1.51382e-25 8.50381e-05)
(0.0705562 0 8.45163e-05)
(0.0705775 3.75504e-31 8.46562e-05)
(0.0705974 -1.40256e-25 8.5132e-05)
(0.0706181 0 8.61934e-05)
(0.0706375 0 8.71843e-05)
(0.0706578 0 8.91587e-05)
(0.0706771 -1.44726e-25 9.11714e-05)
(0.0706981 0 9.33214e-05)
(0.0707175 1.4072e-30 9.61538e-05)
(0.0707406 0 9.82102e-05)
(0.07076 0 9.78222e-05)
(0.0707842 -2.43971e-30 0.000102506)
(0.0708059 0 9.10173e-05)
(0.0708243 3.41466e-25 0.000109577)
(0.0708572 0 7.46864e-05)
(0.0708548 -6.01203e-25 0.000132685)
(0.0709257 1.07771e-25 3.29461e-05)
(0.0708572 -1.53998e-24 0.000192822)
(0.0710394 0 -5.79411e-05)
(0.0708292 -3.69157e-28 0.000290344)
(0.0712258 0 -0.000212044)
(0.0708157 0 0.000355268)
(0.0714574 -2.87553e-23 -0.000422616)
(0.0708218 1.08381e-23 0.000292187)
(0.0714799 0 -0.000501676)
(0.0707904 -3.45342e-24 0.000111846)
(0.0710931 0 -0.000262815)
(0.0707982 8.14366e-29 -0.00010878)
(0.0707475 -2.74421e-25 -0.000144181)
(0.0706182 -7.59442e-25 -0.000138683)
(0.070514 4.84144e-25 -0.000142173)
(0.0703996 5.18058e-25 -0.000139603)
(0.0702926 4.58005e-25 -0.000141282)
(0.0701857 0 -0.000140296)
(0.0700833 0 -0.000140702)
(0.0699834 3.29152e-25 -0.000140132)
(0.0698861 -3.35556e-25 -0.000140263)
(0.0697918 2.95765e-25 -0.000139412)
(0.0696976 0 -0.000141019)
(0.069609 2.9836e-25 -0.000136148)
(0.0695183 -2.56514e-25 -0.000146245)
(0.0694255 2.02964e-25 -0.000125304)
(0.0693508 -4.89972e-25 -0.000166519)
(0.0692227 -4.6079e-29 -8.87837e-05)
(0.0692169 0 -0.000223093)
(0.068983 -7.38628e-26 -7.3333e-06)
(0.0691493 0 -0.000346838)
(0.0685607 0 0.000251867)
(0.0694976 0 -0.000716437)
(0.0688242 0 -0.000516666)
(0.0702337 -1.30454e-26 0.00121679)
(0.0691198 -5.22392e-23 -0.000617775)
(0.0686183 -3.06349e-23 -0.000430038)
(0.068096 -3.0372e-30 5.5581e-05)
(0.0682745 4.51752e-24 -0.0002559)
(0.0679827 0 -7.53709e-05)
(0.0679765 2.51541e-25 -0.000153593)
(0.0678474 -5.95355e-26 -0.00012446)
(0.0677749 0 -0.000135845)
(0.0676841 8.15781e-31 -0.000134943)
(0.0675978 0 -0.000134253)
(0.0675162 -2.43115e-30 -0.000137185)
(0.0674319 0 -0.000135044)
(0.0673509 0 -0.000137176)
(0.0672664 1.39021e-25 -0.000134878)
(0.067186 0 -0.000137437)
(0.0671041 0 -0.000139871)
(0.0670146 2.49842e-30 -0.000130431)
(0.0665399 0 -0.000134875)
(0.0664887 0 -0.000132385)
(0.0664402 -1.73174e-25 -0.000132646)
(0.0663909 0 -0.000132739)
(0.066341 0 -0.000132774)
(0.06629 -1.77173e-25 -0.000132247)
(0.0662394 1.99081e-25 -0.000132571)
(0.0661878 1.89465e-30 -0.000132191)
(0.0661365 0 -0.000132223)
(0.0660849 -2.0805e-25 -0.000131986)
(0.0660337 2.22073e-25 -0.000132236)
(0.0659818 -2.13841e-25 -0.000131672)
(0.0659307 -2.19737e-30 -0.000131958)
(0.065879 0 -0.000131506)
(0.0658281 2.12669e-30 -0.000131719)
(0.065777 -1.88942e-30 -0.000131556)
(0.0657259 -1.60873e-30 -0.000130974)
(0.065676 0 -0.000131428)
(0.0656259 1.64869e-30 -0.00013139)
(0.0655756 0 -0.000130687)
(0.0655265 0 -0.000131011)
(0.0654773 0 -0.000130886)
(0.0654281 1.09799e-30 -0.000130383)
(0.0653801 0 -0.000130872)
(0.0653317 0 -0.000130694)
(0.0652834 9.58137e-31 -0.000130356)
(0.0652356 0 -0.000130144)
(0.0651883 -9.54165e-31 -0.000130129)
(0.0651416 0 -0.00013067)
(0.0650942 0 -0.000130121)
(0.0650472 -2.19361e-25 -0.000129662)
(0.0650011 -2.19298e-25 -0.000129863)
(0.0649549 0 -0.000130046)
(0.0649083 -4.21013e-31 -0.000129463)
(0.0648622 -6.53207e-31 -0.000129469)
(0.0648165 -2.00536e-25 -0.000129565)
(0.0647708 -1.94594e-25 -0.000129536)
(0.0647253 6.97436e-31 -0.000129417)
(0.0646799 0 -0.000129103)
(0.0646356 0 -0.000129628)
(0.06459 0 -0.000128569)
(0.0645457 0 -0.000128418)
(0.064502 0 -0.000128779)
(0.064458 -1.83957e-25 -0.000128805)
(0.0644135 0 -0.000128348)
(0.0643693 -1.77048e-25 -0.000128132)
(0.0643237 0 -0.000126469)
(0.0642813 0 -0.000128409)
(0.0642351 4.65722e-31 -0.000126886)
(0.0641913 1.90842e-25 -0.000127412)
(0.064145 -1.60182e-30 -0.000127793)
(0.0640993 2.5743e-25 -0.000125171)
(0.0640557 0 -0.00013236)
(0.0640003 0 -0.000117277)
(0.0639726 -1.95664e-29 -0.000148838)
(0.0638753 -1.28284e-25 -8.43439e-05)
(0.0639188 -1.88926e-24 -0.000200555)
(0.0637012 0 -3.38031e-06)
(0.0639261 6.18552e-24 -0.000317091)
(0.0634511 1.12731e-28 0.000134828)
(0.0639881 3.14438e-23 -0.000490617)
(0.0629928 4.92638e-23 0.00042445)
(0.0636932 1.98613e-28 -0.000151607)
(0.0643635 0 -0.000852321)
(0.0622289 0 0.00133426)
(0.0644304 1.70491e-22 -0.00104003)
(0.0636601 0 -0.000524897)
(0.0629133 0 0.000193824)
(0.06338 -1.62354e-23 -0.000374129)
(0.0628892 0 4.56276e-05)
(0.0631223 -3.42453e-24 -0.000244149)
(0.0628559 0 -4.88534e-05)
(0.0629242 -5.51849e-29 -0.000162821)
(0.0627973 3.23451e-29 -0.000101277)
(0.0627812 -8.32376e-26 -0.000126978)
(0.0627254 1.07327e-29 -0.00014077)
(0.0626263 0 -7.58545e-05)
(0.0626888 -2.19625e-24 -0.000223549)
(0.0623808 9.9756e-25 5.70997e-05)
(0.0642305 0 -0.000437319)
(0.0631724 -1.7146e-27 0.000516499)
(0.06277 -1.69218e-23 -0.000324707)
(0.0631189 4.33056e-23 -0.000705401)
(0.0612168 6.76631e-27 0.00119035)
(0.0630784 0 -0.000860996)
(0.062568 -3.95877e-23 -0.000596572)
(0.0628604 -8.72186e-24 0.000166625)
(0.0631827 -4.16456e-28 -0.000324498)
(0.0626929 0 -2.53806e-05)
(0.0627181 0 -0.000159019)
(0.0625158 0 -9.94476e-05)
(0.0624395 0 -0.000133294)
(0.0623001 0 -0.000111612)
(0.0622096 0 -0.00013951)
(0.0620644 -2.74037e-29 -9.56045e-05)
(0.062008 4.29128e-29 -0.000170471)
(0.0617873 -1.67342e-25 -4.34686e-05)
(0.0618376 0 -0.000244051)
(0.0614456 0 5.70856e-05)
(0.0617 0 -0.000370878)
(0.0610354 7.97396e-24 0.0001974)
(0.0615821 2.59907e-23 -0.000542349)
(0.0605629 -2.58253e-23 0.00036411)
(0.0614501 0 -0.000722022)
(0.0600251 0 0.000579021)
(0.0613325 0 -0.00084945)
(0.0596853 0 0.000698528)
(0.0612861 0 -0.00085123)
(0.0598407 -2.80507e-27 0.000671447)
(0.0616599 0 -0.00104717)
(0.061907 0 -0.00126563)
(0.0642803 0 -0.00432804)
(0.064548 0 -0.00566987)
(0.0665236 -8.87439e-26 -0.0101243)
(0.065845 0 -0.0153248)
(0.0437248 0 -8.73054e-05)
(0.037781 -2.2913e-24 -7.56035e-05)
(0.0310962 -2.29724e-28 -6.22607e-05)
(0.0303572 6e-23 -6.06142e-05)
(0.0308411 0 -6.16822e-05)
(0 0 0)
(0 0 0)
(0 0 0)
(0 0 0)
(0 0 0)
)
;

boundaryField
{
    inlet
    {
        type            calculated;
        value           uniform (0 0 0);
    }
    endWall
    {
        type            calculated;
        value           uniform (0 0 0);
    }
    sideWall
    {
        type            empty;
    }
}


// ************************************************************************* //
