/*--------------------------------*- C++ -*----------------------------------*\
| =========                 |                                                 |
| \\      /  F ield         | foam-extend: Open Source CFD                    |
|  \\    /   O peration     | Version:     3.2                                |
|   \\  /    A nd           | Web:         http://www.foam-extend.org         |
|    \\/     M anipulation  | For copyright notice see file Copyright         |
\*---------------------------------------------------------------------------*/
FoamFile
{
    version     2.0;
    format      ascii;
    class       areaScalarField;
    location    "1790";
    object      Uf;
}
// * * * * * * * * * * * * * * * * * * * * * * * * * * * * * * * * * * * * * //

dimensions      [0 1 -1 0 0 0 0];

internalField   nonuniform List<scalar> 
550
(
0.00700383
0.00823047
0.00951089
0.0108167
0.0121134
0.0133655
0.0145429
0.0156189
0.0165772
0.0174055
0.018102
0.0186683
0.0191129
0.0194458
0.0196795
0.0198262
0.0198991
0.0199105
0.0198722
0.0197975
0.0196937
0.0195672
0.0194235
0.0192675
0.0191035
0.0189353
0.0187661
0.0185991
0.0184364
0.0182781
0.0181245
0.0179763
0.0178339
0.0176976
0.0175677
0.0174443
0.0173276
0.0172176
0.0171141
0.017017
0.0169259
0.0168407
0.0167609
0.0166862
0.0166161
0.0165503
0.0164885
0.0164306
0.0163762
0.0163252
0.0162775
0.0162328
0.0161909
0.0161516
0.0161144
0.0160793
0.0160458
0.0160137
0.0159831
0.0159538
0.0159257
0.015899
0.0158735
0.0158493
0.0158262
0.0158041
0.0157828
0.0157622
0.015742
0.0157224
0.0157032
0.0156844
0.0156661
0.0156485
0.0156318
0.0156159
0.0156008
0.0155867
0.0155732
0.0155602
0.0155476
0.0155348
0.0155218
0.0155082
0.0154938
0.0154788
0.0154632
0.0154471
0.015431
0.0154152
0.0153999
0.0153856
0.0153722
0.01536
0.0153487
0.0153382
0.0153284
0.0153189
0.0153095
0.0153
0.0152901
0.0152797
0.0152688
0.0152573
0.0152453
0.015233
0.0152204
0.0152075
0.015194
0.0151831
0.0151696
0.0151563
0.0151421
0.0151295
0.0151142
0.0151016
0.015088
0.015073
0.0150577
0.015043
0.0150269
0.0150147
0.0149981
0.0149832
0.014969
0.0149537
0.014939
0.0149254
0.0149079
0.0148922
0.0148764
0.0148622
0.0148465
0.0148298
0.0148137
0.0148006
0.014785
0.0147685
0.0147544
0.0147409
0.0147252
0.0147091
0.0146934
0.0146786
0.0146638
0.0146496
0.0146349
0.0146209
0.0146049
0.014589
0.0145743
0.0145605
0.0145441
0.0145295
0.0145143
0.0145
0.0144851
0.0144716
0.0144584
0.0144441
0.0144306
0.0144158
0.0144009
0.0143874
0.0143746
0.0143616
0.0143479
0.0143353
0.0143227
0.0143113
0.0142994
0.0142874
0.0142744
0.0142631
0.014251
0.0142405
0.0142316
0.014217
0.0142057
0.0141971
0.0141834
0.0141726
0.0141639
0.0141518
0.0141414
0.0141398
0.0141352
0.0141247
0.0141165
0.0141051
0.014096
0.0140894
0.0140786
0.0140737
0.0140676
0.0140542
0.0140479
0.0140434
0.0140322
0.0140238
0.0140237
0.0140239
0.0140212
0.0140161
0.0140096
0.0140024
0.0139972
0.0139916
0.0139867
0.0139835
0.0139781
0.0139742
0.013968
0.0139602
0.0139514
0.0139395
0.0139358
0.0139353
0.0139398
0.0139475
0.0139567
0.013968
0.0139818
0.0139911
0.0139974
0.0140087
0.0140207
0.0140303
0.0140401
0.0140522
0.0140559
0.0140521
0.014076
0.0141109
0.0141304
0.0141468
0.0141499
0.0141586
0.0141772
0.0141901
0.0141998
0.0142081
0.0142153
0.0142217
0.0142276
0.014233
0.0142376
0.0142416
0.0142453
0.0142488
0.014252
0.014255
0.0142579
0.0142607
0.0142637
0.0142668
0.0142697
0.0142725
0.0142751
0.0142775
0.0142796
0.0142813
0.0142827
0.0142837
0.0142845
0.0142851
0.0142855
0.0142854
0.0142849
0.0142837
0.0142818
0.0142877
0.0142979
0.0143033
0.0143062
0.0143083
0.01431
0.0143116
0.0143132
0.0143151
0.0143172
0.0143196
0.0143221
0.0143247
0.0143273
0.01433
0.0143326
0.0143351
0.0143376
0.0143399
0.0143421
0.0143442
0.014346
0.0143478
0.0143493
0.0143509
0.0143521
0.0143538
0.0143549
0.0143566
0.0143579
0.0143596
0.0143611
0.0143626
0.0143643
0.0143657
0.0143675
0.0143689
0.0143708
0.0143722
0.0143743
0.0143759
0.0143781
0.01438
0.0143822
0.0143844
0.0143868
0.0143891
0.0143917
0.0143946
0.0143977
0.0144014
0.0144051
0.0144094
0.0144135
0.014418
0.0144231
0.0144267
0.0144322
0.0144339
0.0144388
0.0144515
0.0144623
0.0144671
0.0144754
0.0144795
0.0144869
0.0144935
0.0144946
0.0145062
0.0144734
0.014491
0.0145392
0.014544
0.0145557
0.0145618
0.0145695
0.0145764
0.0145837
0.0145908
0.0145979
0.0146048
0.0146117
0.0146184
0.014625
0.0146314
0.0146377
0.0146439
0.01465
0.014656
0.0146619
0.0146678
0.0146736
0.0146794
0.0146853
0.0146912
0.0146974
0.0147032
0.01471
0.0147153
0.0147228
0.0147273
0.0147361
0.0147391
0.0147498
0.0147515
0.0147637
0.014766
0.0147765
0.0147807
0.0147809
0.0147856
0.0147721
0.014776
0.0147641
0.0147609
0.0147531
0.0147472
0.0147406
0.0147345
0.0147284
0.0147226
0.014717
0.0147117
0.0147065
0.0147012
0.0146969
0.0146912
0.0146878
0.0146809
0.0146789
0.0146708
0.0146701
0.0146614
0.0146587
0.0146723
0.0146111
0.0146168
0.0146557
0.0146257
0.01462
0.0146145
0.0146052
0.0146015
0.0145951
0.0145907
0.0145855
0.0145808
0.0145762
0.0145717
0.0145671
0.0145625
0.0145577
0.0145526
0.0145476
0.0145425
0.0145373
0.0145321
0.0145267
0.0145212
0.0145155
0.0145096
0.0145037
0.0144978
0.0144918
0.0144858
0.0144797
0.0144737
0.0144677
0.0144617
0.0144557
0.0144498
0.014444
0.0144382
0.0144324
0.0144268
0.0144212
0.0144158
0.0144104
0.0144051
0.0144
0.0143949
0.01439
0.0143852
0.0143805
0.0143759
0.0143714
0.014367
0.0143626
0.0143583
0.0143541
0.0143499
0.0143458
0.0143418
0.0143378
0.0143339
0.0143301
0.0143263
0.0143226
0.0143189
0.0143152
0.0143116
0.014308
0.0143043
0.0143008
0.0142969
0.0142938
0.0142892
0.0142867
0.0142807
0.0142795
0.0142715
0.0142718
0.0142624
0.0142597
0.0142537
0.0142341
0.0142705
0.0142198
0.0142258
0.014273
0.0142163
0.0142107
0.0142003
0.0141881
0.0141854
0.0141754
0.0141738
0.0141664
0.0141652
0.0141576
0.0141576
0.0141476
0.014148
0.0141363
0.0141253
0.0141583
0.0141062
0.0141123
0.0141564
0.0141068
0.0140946
0.0140857
0.0140708
0.0140662
0.0140576
0.0140521
0.0140467
0.01404
0.0140371
0.0140285
0.0140279
0.0140166
0.0140182
0.0140045
0.0140072
0.0139915
0.0139929
0.0139767
0.0139754
0.0139676
0.0139642
0.0139763
0.0139844
0.0140461
0.0140729
0.0140533
0.0139016
0.0135693
0.0125856
0.0114586
0.0108641
0.0101964
0.00949477
0.0084743
0.0069769
0.00532808
0.0050941
0.00647884
0.00826835
)
;

boundaryField
{
    inlet
    {
        type            calculated;
        value           uniform 0;
    }
    endWall
    {
        type            calculated;
        value           uniform 0;
    }
    sideWall
    {
        type            empty;
    }
}


// ************************************************************************* //
