/*--------------------------------*- C++ -*----------------------------------*\
| =========                 |                                                 |
| \\      /  F ield         | foam-extend: Open Source CFD                    |
|  \\    /   O peration     | Version:     3.2                                |
|   \\  /    A nd           | Web:         http://www.foam-extend.org         |
|    \\/     M anipulation  | For copyright notice see file Copyright         |
\*---------------------------------------------------------------------------*/
FoamFile
{
    version     2.0;
    format      ascii;
    class       regIOobject;
    location    "1790/uniform";
    object      profilingInfo;
}
// * * * * * * * * * * * * * * * * * * * * * * * * * * * * * * * * * * * * * //

profilingInfo
(

    {
        id              35;
        parentId        31;
        description     "Foam::Time::writeObject - outputTime";
        calls           83;
        totalTime       22.1437;
        childTime       0;
        onStack         1;
    }

    {
        id              31;
        parentId        1;
        description     "Foam::Time::writeObject";
        calls           207500;
        totalTime       22.883;
        childTime       22.1437;
        onStack         1;
    }

    {
        id              1;
        description     "application::main";
        calls           1;
        totalTime       103107;
        childTime       60215;
        onStack         1;
    }

    {
        id              34;
        parentId        32;
        description     "FO::fieldMinMax1::execute";
        calls           207499;
        totalTime       0.38833;
        childTime       0;
        onStack         0;
    }

    {
        id              8;
        parentId        6;
        description     "FO::fieldMinMax1::start";
        calls           1;
        totalTime       3.7e-05;
        childTime       0;
        onStack         0;
    }

    {
        id              33;
        parentId        32;
        description     "FO::probes::execute";
        calls           207499;
        totalTime       0.913232;
        childTime       0;
        onStack         0;
    }

    {
        id              7;
        parentId        6;
        description     "FO::probes::start";
        calls           1;
        totalTime       0.005565;
        childTime       0;
        onStack         0;
    }

    {
        id              16;
        parentId        1;
        description     "MULES::explicitSolve";
        calls           415000;
        totalTime       1300.53;
        childTime       0;
        onStack         0;
    }

    {
        id              6;
        parentId        5;
        description     "functionObjectList::read";
        calls           1;
        totalTime       0.005727;
        childTime       0.005602;
        onStack         0;
    }

    {
        id              32;
        parentId        1;
        description     "functionObjects_.execute()";
        calls           207499;
        totalTime       2.86179;
        childTime       1.30156;
        onStack         0;
    }

    {
        id              5;
        parentId        1;
        description     "functionObjects_.start()";
        calls           1;
        totalTime       0.005734;
        childTime       0.005727;
        onStack         0;
    }

    {
        id              9;
        parentId        1;
        description     "fvMatrix::solve_C1";
        calls           207500;
        totalTime       155.083;
        childTime       137.22;
        onStack         0;
    }

    {
        id              12;
        parentId        1;
        description     "fvMatrix::solve_C2";
        calls           207500;
        totalTime       68.6425;
        childTime       50.9919;
        onStack         0;
    }

    {
        id              17;
        parentId        1;
        description     "fvMatrix::solve_U";
        calls           207500;
        totalTime       707.627;
        childTime       404.108;
        onStack         0;
    }

    {
        id              28;
        parentId        1;
        description     "fvMatrix::solve_k";
        calls           207500;
        totalTime       186.927;
        childTime       170.146;
        onStack         0;
    }

    {
        id              25;
        parentId        1;
        description     "fvMatrix::solve_omega";
        calls           207500;
        totalTime       275.979;
        childTime       217.12;
        onStack         0;
    }

    {
        id              2;
        parentId        1;
        description     "fvMatrix::solve_pcorr";
        calls           2;
        totalTime       2.21274;
        childTime       2.21245;
        onStack         0;
    }

    {
        id              22;
        parentId        1;
        description     "fvMatrix::solve_pd";
        calls           830000;
        totalTime       32827;
        childTime       32702.9;
        onStack         0;
    }

    {
        id              11;
        parentId        10;
        description     "lduMatrix::smoother_C1";
        calls           207500;
        totalTime       83.3748;
        childTime       0;
        onStack         0;
    }

    {
        id              19;
        parentId        18;
        description     "lduMatrix::smoother_Ux";
        calls           207500;
        totalTime       85.9169;
        childTime       0;
        onStack         0;
    }

    {
        id              21;
        parentId        20;
        description     "lduMatrix::smoother_Uz";
        calls           207500;
        totalTime       163.668;
        childTime       0;
        onStack         0;
    }

    {
        id              30;
        parentId        29;
        description     "lduMatrix::smoother_k";
        calls           207500;
        totalTime       123.488;
        childTime       0;
        onStack         0;
    }

    {
        id              27;
        parentId        26;
        description     "lduMatrix::smoother_omega";
        calls           207500;
        totalTime       167.362;
        childTime       0;
        onStack         0;
    }

    {
        id              10;
        parentId        9;
        description     "lduMatrix::solver_C1";
        calls           207500;
        totalTime       137.22;
        childTime       83.3748;
        onStack         0;
    }

    {
        id              13;
        parentId        12;
        description     "lduMatrix::solver_C2";
        calls           207500;
        totalTime       50.9919;
        childTime       0;
        onStack         0;
    }

    {
        id              18;
        parentId        17;
        description     "lduMatrix::solver_Ux";
        calls           207500;
        totalTime       197.903;
        childTime       85.9169;
        onStack         0;
    }

    {
        id              20;
        parentId        17;
        description     "lduMatrix::solver_Uz";
        calls           207500;
        totalTime       206.204;
        childTime       163.668;
        onStack         0;
    }

    {
        id              4;
        parentId        3;
        description     "lduMatrix::solver_coarsestLevelCorr";
        calls           400;
        totalTime       1.69048;
        childTime       0;
        onStack         0;
    }

    {
        id              24;
        parentId        23;
        description     "lduMatrix::solver_coarsestLevelCorr";
        calls           5722851;
        totalTime       24968.7;
        childTime       0;
        onStack         0;
    }

    {
        id              29;
        parentId        28;
        description     "lduMatrix::solver_k";
        calls           207500;
        totalTime       170.146;
        childTime       123.488;
        onStack         0;
    }

    {
        id              14;
        parentId        1;
        description     "lduMatrix::solver_motionUx";
        calls           207501;
        totalTime       1784.71;
        childTime       0;
        onStack         0;
    }

    {
        id              15;
        parentId        1;
        description     "lduMatrix::solver_motionUz";
        calls           207501;
        totalTime       22880.5;
        childTime       0;
        onStack         0;
    }

    {
        id              26;
        parentId        25;
        description     "lduMatrix::solver_omega";
        calls           207500;
        totalTime       217.12;
        childTime       167.362;
        onStack         0;
    }

    {
        id              3;
        parentId        2;
        description     "lduMatrix::solver_pcorr";
        calls           2;
        totalTime       2.21245;
        childTime       1.69048;
        onStack         0;
    }

    {
        id              23;
        parentId        22;
        description     "lduMatrix::solver_pd";
        calls           830000;
        totalTime       32702.9;
        childTime       24968.7;
        onStack         0;
    }
);


// ************************************************************************* //
