/*--------------------------------*- C++ -*----------------------------------*\
| =========                 |                                                 |
| \\      /  F ield         | foam-extend: Open Source CFD                    |
|  \\    /   O peration     | Version:     3.2                                |
|   \\  /    A nd           | Web:         http://www.foam-extend.org         |
|    \\/     M anipulation  | For copyright notice see file Copyright         |
\*---------------------------------------------------------------------------*/
FoamFile
{
    version     2.0;
    format      ascii;
    class       regIOobject;
    location    "2020/uniform";
    object      profilingInfo;
}
// * * * * * * * * * * * * * * * * * * * * * * * * * * * * * * * * * * * * * //

profilingInfo
(

    {
        id              35;
        parentId        31;
        description     "Foam::Time::writeObject - outputTime";
        calls           58;
        totalTime       26.2362;
        childTime       0;
        onStack         1;
    }

    {
        id              31;
        parentId        1;
        description     "Foam::Time::writeObject";
        calls           145000;
        totalTime       26.7422;
        childTime       26.2362;
        onStack         1;
    }

    {
        id              1;
        description     "application::main";
        calls           1;
        totalTime       85860.9;
        childTime       38940.6;
        onStack         1;
    }

    {
        id              34;
        parentId        32;
        description     "FO::fieldMinMax1::execute";
        calls           144999;
        totalTime       0.335119;
        childTime       0;
        onStack         0;
    }

    {
        id              8;
        parentId        6;
        description     "FO::fieldMinMax1::start";
        calls           1;
        totalTime       5.8e-05;
        childTime       0;
        onStack         0;
    }

    {
        id              33;
        parentId        32;
        description     "FO::probes::execute";
        calls           144999;
        totalTime       0.875145;
        childTime       0;
        onStack         0;
    }

    {
        id              7;
        parentId        6;
        description     "FO::probes::start";
        calls           1;
        totalTime       0.008913;
        childTime       0;
        onStack         0;
    }

    {
        id              16;
        parentId        1;
        description     "MULES::explicitSolve";
        calls           290000;
        totalTime       898.455;
        childTime       0;
        onStack         0;
    }

    {
        id              6;
        parentId        5;
        description     "functionObjectList::read";
        calls           1;
        totalTime       0.009252;
        childTime       0.008971;
        onStack         0;
    }

    {
        id              32;
        parentId        1;
        description     "functionObjects_.execute()";
        calls           144999;
        totalTime       1.89621;
        childTime       1.21026;
        onStack         0;
    }

    {
        id              5;
        parentId        1;
        description     "functionObjects_.start()";
        calls           1;
        totalTime       0.00926;
        childTime       0.009252;
        onStack         0;
    }

    {
        id              9;
        parentId        1;
        description     "fvMatrix::solve_C1";
        calls           145000;
        totalTime       94.219;
        childTime       79.5214;
        onStack         0;
    }

    {
        id              12;
        parentId        1;
        description     "fvMatrix::solve_C2";
        calls           145000;
        totalTime       48.3587;
        childTime       34.8477;
        onStack         0;
    }

    {
        id              17;
        parentId        1;
        description     "fvMatrix::solve_U";
        calls           145000;
        totalTime       415.106;
        childTime       289.933;
        onStack         0;
    }

    {
        id              28;
        parentId        1;
        description     "fvMatrix::solve_k";
        calls           145000;
        totalTime       158.967;
        childTime       144.561;
        onStack         0;
    }

    {
        id              25;
        parentId        1;
        description     "fvMatrix::solve_omega";
        calls           145000;
        totalTime       268.911;
        childTime       184.123;
        onStack         0;
    }

    {
        id              2;
        parentId        1;
        description     "fvMatrix::solve_pcorr";
        calls           2;
        totalTime       2.85847;
        childTime       2.85802;
        onStack         0;
    }

    {
        id              22;
        parentId        1;
        description     "fvMatrix::solve_pd";
        calls           580000;
        totalTime       27807.3;
        childTime       27720.4;
        onStack         0;
    }

    {
        id              11;
        parentId        10;
        description     "lduMatrix::smoother_C1";
        calls           145000;
        totalTime       43.897;
        childTime       0;
        onStack         0;
    }

    {
        id              19;
        parentId        18;
        description     "lduMatrix::smoother_Ux";
        calls           145000;
        totalTime       73.3409;
        childTime       0;
        onStack         0;
    }

    {
        id              21;
        parentId        20;
        description     "lduMatrix::smoother_Uz";
        calls           145000;
        totalTime       145.91;
        childTime       0;
        onStack         0;
    }

    {
        id              30;
        parentId        29;
        description     "lduMatrix::smoother_k";
        calls           145000;
        totalTime       109.85;
        childTime       0;
        onStack         0;
    }

    {
        id              27;
        parentId        26;
        description     "lduMatrix::smoother_omega";
        calls           145000;
        totalTime       148.542;
        childTime       0;
        onStack         0;
    }

    {
        id              10;
        parentId        9;
        description     "lduMatrix::solver_C1";
        calls           145000;
        totalTime       79.5214;
        childTime       43.897;
        onStack         0;
    }

    {
        id              13;
        parentId        12;
        description     "lduMatrix::solver_C2";
        calls           145000;
        totalTime       34.8477;
        childTime       0;
        onStack         0;
    }

    {
        id              18;
        parentId        17;
        description     "lduMatrix::solver_Ux";
        calls           145000;
        totalTime       111.786;
        childTime       73.3409;
        onStack         0;
    }

    {
        id              20;
        parentId        17;
        description     "lduMatrix::solver_Uz";
        calls           145000;
        totalTime       178.146;
        childTime       145.91;
        onStack         0;
    }

    {
        id              4;
        parentId        3;
        description     "lduMatrix::solver_coarsestLevelCorr";
        calls           400;
        totalTime       2.21876;
        childTime       0;
        onStack         0;
    }

    {
        id              24;
        parentId        23;
        description     "lduMatrix::solver_coarsestLevelCorr";
        calls           3595758;
        totalTime       21557.9;
        childTime       0;
        onStack         0;
    }

    {
        id              29;
        parentId        28;
        description     "lduMatrix::solver_k";
        calls           145000;
        totalTime       144.561;
        childTime       109.85;
        onStack         0;
    }

    {
        id              14;
        parentId        1;
        description     "lduMatrix::solver_motionUx";
        calls           145001;
        totalTime       855.538;
        childTime       0;
        onStack         0;
    }

    {
        id              15;
        parentId        1;
        description     "lduMatrix::solver_motionUz";
        calls           145001;
        totalTime       8362.23;
        childTime       0;
        onStack         0;
    }

    {
        id              26;
        parentId        25;
        description     "lduMatrix::solver_omega";
        calls           145000;
        totalTime       184.123;
        childTime       148.542;
        onStack         0;
    }

    {
        id              3;
        parentId        2;
        description     "lduMatrix::solver_pcorr";
        calls           2;
        totalTime       2.85802;
        childTime       2.21876;
        onStack         0;
    }

    {
        id              23;
        parentId        22;
        description     "lduMatrix::solver_pd";
        calls           580000;
        totalTime       27720.4;
        childTime       21557.9;
        onStack         0;
    }
);


// ************************************************************************* //
