/*--------------------------------*- C++ -*----------------------------------*\
| =========                 |                                                 |
| \\      /  F ield         | foam-extend: Open Source CFD                    |
|  \\    /   O peration     | Version:     3.2                                |
|   \\  /    A nd           | Web:         http://www.foam-extend.org         |
|    \\/     M anipulation  | For copyright notice see file Copyright         |
\*---------------------------------------------------------------------------*/
FoamFile
{
    version     2.0;
    format      ascii;
    class       areaScalarField;
    location    "2020";
    object      a;
}
// * * * * * * * * * * * * * * * * * * * * * * * * * * * * * * * * * * * * * //

dimensions      [1 -1 0 0 0 0 0];

internalField   nonuniform List<scalar> 
300
(
0.000207762
0.000207762
0.000207762
0.000207762
0.000207762
0.000207762
0.000207762
0.000207762
0.000207762
0.000207762
0.000207762
0.000207762
0.000207762
0.000207762
0.000207762
0.000207762
0.000207762
0.000207762
0.000207762
0.000207762
0.000207762
0.000207762
0.000207762
0.000207762
0.000207762
0.000207762
0.000207762
0.000207762
0.000207762
0.000207762
0.000207762
0.000207762
0.000207762
0.000207762
0.000207762
0.000207762
0.000207762
0.000207762
0.000207762
0.000207762
0.000207762
0.000207762
0.000207762
0.000207762
0.000207762
0.000207762
0.000207762
0.000207762
0.000207762
0.000207762
0.000207762
0.000207762
0.000207762
0.000207762
0.000207762
0.000207762
0.000207762
0.000207762
0.000207762
0.000132317
0.000106231
0.000122968
0.000181674
0.000180571
0.000166183
0.00017201
0.000174884
0.000178648
0.000181239
0.000207762
0.000207762
0.000207762
0.000207762
0.000207762
0.000207762
0.000207762
0.000207762
0.000207762
0.000207762
0.000207762
0.000207762
0.000207762
0.000207762
0.000207762
0.000207762
0.000207762
0.000207762
0.000207762
0.000207762
0.000207762
0.000207762
0.000207762
0.000207762
0.000207762
0.000207762
0.000207762
0.000207762
0.000207762
0.000207762
0.000207762
0.000207762
0.000207762
0.000207762
0.000207762
0.000207762
0.000207762
0.000207762
0.000207762
0.000207762
0.000207762
0.000207762
0.000207762
0.000207762
0.000207762
0.000207762
0.000207762
0.000207762
0.000207519
0.000207609
0.000207574
0.00020768
0.000207762
0.000207762
0.000207695
0.000207733
0.000207741
0.000207752
0.000207754
0.000207756
0.000207756
0.000207757
0.000207758
0.000207759
0.000207759
0.00020776
0.000207761
0.000207761
0.000207761
0.000207762
0.000207762
0.000207762
0.000207762
0.000207762
0.000207762
0.000207762
0.000207762
0.000207762
0.000207762
0.000207762
0.000207762
0.000207762
0.000207762
0.000207762
0.000207762
0.000207762
0.000207762
0.000207762
0.000207762
0.000207762
0.000207762
0.000207762
0.000207762
0.000207762
0.000207762
0.000207762
0.000207762
0.000207762
0.000207762
0.000207762
0.000207762
0.000207762
0.000207762
0.000207762
0.000207762
0.000207762
0.000207762
0.000207762
0.000207762
0.000207762
0.000207762
0.000207667
0.000207677
0.000207619
0.000207762
0.000207762
0.000207762
0.000207499
0.000207503
0.000207417
0.000207422
0.000207762
0.000207762
0.000207762
0.000207762
0.000207113
0.000207106
0.00020701
0.000207008
0.000207762
0.000207762
0.000207762
0.000206739
0.000206643
0.000206596
0.000207762
0.000207762
0.000206348
0.000206299
0.000207762
0.000207762
0.000207762
0.000205982
0.000205906
0.000205872
0.000207762
0.000207762
0.000205728
0.000205659
0.000205593
0.000205506
0.000207762
0.000207762
0.000207762
0.000207762
0.000205227
0.000205109
0.000205073
0.000207762
0.000207762
0.000207762
0.000204808
0.000204702
0.000204715
0.000207762
0.000207762
0.000207762
0.000207762
0.000204295
0.00020436
0.000204264
0.000204277
0.000207762
0.000207762
0.000207762
0.000207762
0.00020399
0.000204044
0.000203908
0.000204022
0.000207762
0.000207762
0.000207762
0.000203789
0.000203602
0.000203727
0.000203559
0.000207762
0.000207762
0.000207762
0.000203329
0.000203486
0.00020331
0.000203445
0.000207762
0.000207762
0.000207762
0.000203267
0.000203009
0.000203226
0.000202983
0.000207762
0.000207762
0.000207762
0.000207762
0.000202978
0.000202631
0.000202812
0.000202476
0.000207762
0.000207762
0.000207762
0.000207762
0.000202269
0.000201944
0.00020225
0.000202104
0.000202372
0.000201255
0.000201845
0.000200822
0.000202257
0.000207762
0.000207762
0.000207762
0.000143532
0.000159598
0.000207762
0.000207762
0.000207762
0.000207762
)
;

boundaryField
{
    inlet
    {
        type            calculated;
        value           uniform 0;
    }
    outlet
    {
        type            calculated;
        value           uniform 0;
    }
    sideWall
    {
        type            empty;
    }
}


// ************************************************************************* //
