/*--------------------------------*- C++ -*----------------------------------*\
| =========                 |                                                 |
| \\      /  F ield         | foam-extend: Open Source CFD                    |
|  \\    /   O peration     | Version:     3.2                                |
|   \\  /    A nd           | Web:         http://www.foam-extend.org         |
|    \\/     M anipulation  | For copyright notice see file Copyright         |
\*---------------------------------------------------------------------------*/
FoamFile
{
    version     2.0;
    format      ascii;
    class       surfaceScalarField;
    location    "2020";
    object      AdSS2;
}
// * * * * * * * * * * * * * * * * * * * * * * * * * * * * * * * * * * * * * //

dimensions      [0 3 -1 0 0 0 0];

internalField   nonuniform List<scalar> 
4492
(
1.54373e-05
2.44302e-06
1.26343e-05
4.33245e-07
1.09142e-05
-6.49566e-07
1.01078e-05
-1.56329e-06
9.78293e-06
-2.0448e-06
9.66398e-06
-2.25074e-06
9.63591e-06
-2.34161e-06
9.64736e-06
-2.38114e-06
9.67709e-06
-2.39942e-06
9.71502e-06
-2.40762e-06
9.75541e-06
-2.41008e-06
9.79306e-06
-2.40734e-06
9.83222e-06
-2.40885e-06
9.87061e-06
-2.40809e-06
9.90739e-06
-2.40648e-06
9.94786e-06
-2.41016e-06
9.98811e-06
-2.40994e-06
1.00282e-05
-2.40976e-06
1.00683e-05
-2.40984e-06
1.01084e-05
-2.40973e-06
1.01484e-05
-2.40977e-06
1.01905e-05
-2.41175e-06
1.02349e-05
-2.41413e-06
1.0279e-05
-2.41376e-06
1.03196e-05
-2.41032e-06
1.03563e-05
-2.40639e-06
1.03888e-05
-2.40219e-06
1.04172e-05
-2.39803e-06
1.04416e-05
-2.39413e-06
1.04628e-05
-2.39089e-06
1.04809e-05
-2.3878e-06
1.04961e-05
-2.38485e-06
1.05084e-05
-2.38199e-06
1.05183e-05
-2.3796e-06
1.05265e-05
-2.37792e-06
1.05334e-05
-2.37661e-06
1.05392e-05
-2.37551e-06
1.05442e-05
-2.37463e-06
1.05484e-05
-2.37388e-06
1.05519e-05
-2.37325e-06
1.0555e-05
-2.37273e-06
1.05575e-05
-2.37227e-06
1.05597e-05
-2.37189e-06
1.05616e-05
-2.37157e-06
1.05632e-05
-2.37126e-06
1.05646e-05
-2.37112e-06
1.05658e-05
-2.37087e-06
1.05668e-05
-2.37068e-06
1.05677e-05
-2.37064e-06
1.05683e-05
-2.37026e-06
1.0569e-05
-2.37037e-06
1.05693e-05
-2.37003e-06
1.057e-05
-2.37044e-06
1.05697e-05
-2.36931e-06
1.0571e-05
-2.37101e-06
1.05638e-05
-2.36253e-06
1.05448e-05
-2.35067e-06
1.01165e-05
-1.9414e-06
1.07291e-05
-2.98233e-06
1.54701e-05
-7.11063e-06
1.5639e-05
-2.53858e-06
1.36831e-05
-4.13854e-07
1.48434e-05
-3.52992e-06
1.31044e-05
-6.30767e-07
1.32959e-05
-2.56119e-06
1.32594e-05
-2.33313e-06
1.3304e-05
-2.41432e-06
1.32886e-05
-2.35433e-06
1.3287e-05
-2.36802e-06
1.32848e-05
-2.36756e-06
1.32785e-05
-2.36334e-06
1.32776e-05
-2.36882e-06
1.32778e-05
-2.36992e-06
1.32805e-05
-2.37238e-06
1.32817e-05
-2.37084e-06
1.3284e-05
-2.372e-06
1.32864e-05
-2.37206e-06
1.32883e-05
-2.37162e-06
1.32897e-05
-2.37108e-06
1.32907e-05
-2.37072e-06
1.32915e-05
-2.37053e-06
1.32931e-05
-2.37131e-06
1.32936e-05
-2.37011e-06
1.32941e-05
-2.37019e-06
1.32942e-05
-2.36979e-06
1.32941e-05
-2.36961e-06
1.32937e-05
-2.36931e-06
1.32936e-05
-2.36958e-06
1.32945e-05
-2.37064e-06
1.32944e-05
-2.36953e-06
1.32944e-05
-2.36975e-06
1.32942e-05
-2.36949e-06
1.3294e-05
-2.36949e-06
1.3294e-05
-2.36963e-06
1.32935e-05
-2.36921e-06
1.32936e-05
-2.36982e-06
1.32942e-05
-2.37033e-06
1.32946e-05
-2.37007e-06
1.32944e-05
-2.36945e-06
1.32946e-05
-2.36992e-06
1.32944e-05
-2.36949e-06
1.3294e-05
-2.36931e-06
1.32942e-05
-2.36988e-06
1.32934e-05
-2.3689e-06
1.32941e-05
-2.37031e-06
1.32928e-05
-2.36842e-06
1.32951e-05
-2.37197e-06
1.32936e-05
-2.3682e-06
1.32953e-05
-2.37143e-06
1.32932e-05
-2.3676e-06
1.32954e-05
-2.37184e-06
1.32926e-05
-2.36697e-06
1.32954e-05
-2.37244e-06
1.32919e-05
-2.36622e-06
1.32954e-05
-2.37316e-06
1.32909e-05
-2.36522e-06
1.32966e-05
-2.37539e-06
1.32914e-05
-2.36444e-06
1.32972e-05
-2.37549e-06
1.32907e-05
-2.36323e-06
1.32976e-05
-2.37658e-06
1.32897e-05
-2.36181e-06
1.32978e-05
-2.37777e-06
1.32887e-05
-2.36066e-06
1.32982e-05
-2.37916e-06
1.32876e-05
-2.35904e-06
1.32999e-05
-2.38206e-06
1.32876e-05
-2.35742e-06
1.33009e-05
-2.38294e-06
1.32866e-05
-2.35544e-06
1.33016e-05
-2.38469e-06
1.32853e-05
-2.3534e-06
1.33023e-05
-2.38669e-06
1.32839e-05
-2.35127e-06
1.3303e-05
-2.38881e-06
1.32824e-05
-2.34908e-06
1.33037e-05
-2.39098e-06
1.32821e-05
-2.34805e-06
1.33058e-05
-2.39346e-06
1.3281e-05
-2.34483e-06
1.33069e-05
-2.39565e-06
1.32796e-05
-2.34235e-06
1.33078e-05
-2.39792e-06
1.32781e-05
-2.33997e-06
1.33086e-05
-2.40018e-06
1.32766e-05
-2.33772e-06
1.33092e-05
-2.40234e-06
1.32763e-05
-2.33678e-06
1.33112e-05
-2.40461e-06
1.32754e-05
-2.33386e-06
1.33121e-05
-2.40639e-06
1.32743e-05
-2.33186e-06
1.33127e-05
-2.4081e-06
1.32732e-05
-2.33016e-06
1.33131e-05
-2.40962e-06
1.32721e-05
-2.32872e-06
1.33133e-05
-2.41091e-06
1.32712e-05
-2.32751e-06
1.33147e-05
-2.4132e-06
1.32717e-05
-2.32669e-06
1.33151e-05
-2.41309e-06
1.32713e-05
-2.32596e-06
1.33151e-05
-2.41341e-06
1.32709e-05
-2.32555e-06
1.33148e-05
-2.41361e-06
1.32705e-05
-2.3254e-06
1.33145e-05
-2.41362e-06
1.32702e-05
-2.32546e-06
1.33152e-05
-2.41464e-06
1.32713e-05
-2.32582e-06
1.33151e-05
-2.41344e-06
1.32715e-05
-2.32613e-06
1.33145e-05
-2.41272e-06
1.32716e-05
-2.32676e-06
1.33138e-05
-2.4119e-06
1.32717e-05
-2.32761e-06
1.3313e-05
-2.41095e-06
1.3272e-05
-2.32869e-06
1.33132e-05
-2.41098e-06
1.32734e-05
-2.32988e-06
1.33127e-05
-2.40895e-06
1.32741e-05
-2.33105e-06
1.33118e-05
-2.40748e-06
1.32746e-05
-2.33243e-06
1.33108e-05
-2.4059e-06
1.32751e-05
-2.33396e-06
1.33097e-05
-2.40431e-06
1.32755e-05
-2.3355e-06
1.33097e-05
-2.40393e-06
1.32772e-05
-2.33718e-06
1.33089e-05
-2.4014e-06
1.3278e-05
-2.33883e-06
1.33078e-05
-2.39942e-06
1.32786e-05
-2.34047e-06
1.33067e-05
-2.39785e-06
1.32791e-05
-2.34209e-06
1.33055e-05
-2.39613e-06
1.32797e-05
-2.34388e-06
1.33055e-05
-2.39544e-06
1.32813e-05
-2.34556e-06
1.33045e-05
-2.39291e-06
1.32821e-05
-2.34723e-06
1.33036e-05
-2.39118e-06
1.32824e-05
-2.34853e-06
1.33024e-05
-2.38965e-06
1.32829e-05
-2.35019e-06
1.33012e-05
-2.38803e-06
1.32843e-05
-2.35283e-06
1.33015e-05
-2.38684e-06
1.32851e-05
-2.3533e-06
1.33004e-05
-2.38499e-06
1.32853e-05
-2.35459e-06
1.32996e-05
-2.38399e-06
1.3286e-05
-2.35605e-06
1.32988e-05
-2.38255e-06
1.32861e-05
-2.357e-06
1.32989e-05
-2.38245e-06
1.32873e-05
-2.35812e-06
1.32982e-05
-2.38054e-06
1.32876e-05
-2.35912e-06
1.32975e-05
-2.37964e-06
1.32877e-05
-2.35989e-06
1.32965e-05
-2.37851e-06
1.3288e-05
-2.36112e-06
1.32959e-05
-2.37766e-06
1.32887e-05
-2.3624e-06
1.32962e-05
-2.37723e-06
1.32892e-05
-2.36274e-06
1.32956e-05
-2.37601e-06
1.32891e-05
-2.36319e-06
1.32947e-05
-2.3753e-06
1.32891e-05
-2.36408e-06
1.32942e-05
-2.3748e-06
1.32887e-05
-2.36421e-06
1.32947e-05
-2.3757e-06
1.32898e-05
-2.3648e-06
1.32939e-05
-2.37377e-06
1.32895e-05
-2.36528e-06
1.32939e-05
-2.3741e-06
1.32897e-05
-2.36547e-06
1.32928e-05
-2.37287e-06
1.32894e-05
-2.36626e-06
1.32936e-05
-2.37384e-06
1.32903e-05
-2.36646e-06
1.32935e-05
-2.37291e-06
1.32904e-05
-2.36656e-06
1.32928e-05
-2.37208e-06
1.32903e-05
-2.36719e-06
1.32927e-05
-2.37209e-06
1.329e-05
-2.36702e-06
1.32928e-05
-2.37244e-06
1.32905e-05
-2.36744e-06
1.32924e-05
-2.37157e-06
1.32904e-05
-2.36773e-06
1.32925e-05
-2.37179e-06
1.32904e-05
-2.36753e-06
1.32916e-05
-2.37088e-06
1.32898e-05
-2.36796e-06
1.32922e-05
-2.37206e-06
1.32906e-05
-2.36813e-06
1.32924e-05
-2.37141e-06
1.32909e-05
-2.36824e-06
1.32919e-05
-2.37063e-06
1.32903e-05
-2.36817e-06
1.32912e-05
-2.37051e-06
1.32898e-05
-2.36833e-06
1.32916e-05
-2.37149e-06
1.32903e-05
-2.36842e-06
1.32916e-05
-2.37097e-06
1.32904e-05
-2.36853e-06
1.32913e-05
-2.3706e-06
1.32903e-05
-2.36868e-06
1.32909e-05
-2.3703e-06
1.32908e-05
-2.3696e-06
1.32916e-05
-2.37048e-06
1.32908e-05
-2.3689e-06
1.32916e-05
-2.37041e-06
1.32912e-05
-2.36932e-06
1.32911e-05
-2.36961e-06
1.32906e-05
-2.36914e-06
1.32925e-05
-2.37161e-06
1.32903e-05
-2.36755e-06
1.32919e-05
-2.37131e-06
1.32906e-05
-2.36834e-06
1.32909e-05
-2.36995e-06
1.32957e-05
-2.37453e-06
1.32881e-05
-2.36214e-06
1.32888e-05
-2.37034e-06
1.32895e-05
-2.37043e-06
1.32896e-05
-2.36978e-06
1.32887e-05
-2.36875e-06
1.32908e-05
-2.37182e-06
1.32013e-05
-2.28015e-06
1.34708e-05
-2.63929e-06
1.46877e-05
-3.58656e-06
1.14327e-05
8.85306e-07
6.69078e-06
2.37224e-06
8.80676e-06
-4.48567e-06
9.7864e-06
-3.34933e-06
-2.56677e-06
1.97835e-05
2.90957e-06
1.88528e-05
1.36387e-06
1.78631e-05
3.40159e-07
1.707e-05
-7.70168e-07
1.65578e-05
-1.53258e-06
1.62275e-05
-1.92046e-06
1.60112e-05
-2.12538e-06
1.58682e-05
-2.23806e-06
1.57687e-05
-2.29992e-06
1.57078e-05
-2.34677e-06
1.56752e-05
-2.37747e-06
1.56619e-05
-2.39406e-06
1.56641e-05
-2.41099e-06
1.56755e-05
-2.41958e-06
1.56961e-05
-2.42704e-06
1.57261e-05
-2.44016e-06
1.57625e-05
-2.44632e-06
1.58049e-05
-2.45221e-06
1.5852e-05
-2.45695e-06
1.59028e-05
-2.46047e-06
1.5956e-05
-2.46299e-06
1.60108e-05
-2.46658e-06
1.60665e-05
-2.46977e-06
1.61211e-05
-2.46833e-06
1.61719e-05
-2.46115e-06
1.62183e-05
-2.45282e-06
1.62601e-05
-2.444e-06
1.62973e-05
-2.43517e-06
1.633e-05
-2.42681e-06
1.63588e-05
-2.41976e-06
1.63841e-05
-2.41306e-06
1.64058e-05
-2.40657e-06
1.6424e-05
-2.40021e-06
1.64391e-05
-2.39469e-06
1.64519e-05
-2.39068e-06
1.64628e-05
-2.38751e-06
1.64721e-05
-2.38486e-06
1.64801e-05
-2.38264e-06
1.6487e-05
-2.38075e-06
1.64929e-05
-2.37913e-06
1.64979e-05
-2.37778e-06
1.65022e-05
-2.37656e-06
1.65059e-05
-2.37559e-06
1.65091e-05
-2.37471e-06
1.65118e-05
-2.37397e-06
1.65141e-05
-2.37343e-06
1.65161e-05
-2.37285e-06
1.65179e-05
-2.37251e-06
1.65194e-05
-2.37212e-06
1.65206e-05
-2.37147e-06
1.65215e-05
-2.37127e-06
1.65224e-05
-2.3709e-06
1.6523e-05
-2.37103e-06
1.65238e-05
-2.37011e-06
1.65232e-05
-2.37049e-06
1.65196e-05
-2.35893e-06
1.64811e-05
-2.31217e-06
1.60644e-05
-1.52471e-06
1.66013e-05
-3.51919e-06
2.08251e-05
-1.13344e-05
2.22471e-05
-3.96059e-06
2.15272e-05
3.06106e-07
2.21887e-05
-4.19152e-06
2.08191e-05
7.3892e-07
2.08337e-05
-2.57584e-06
2.06858e-05
-2.18523e-06
2.06513e-05
-2.37984e-06
2.05828e-05
-2.28582e-06
2.05369e-05
-2.32206e-06
2.04856e-05
-2.31631e-06
2.04363e-05
-2.314e-06
2.03987e-05
-2.3313e-06
2.03688e-05
-2.33998e-06
2.03456e-05
-2.3492e-06
2.03252e-05
-2.35045e-06
2.03086e-05
-2.35538e-06
2.0295e-05
-2.35841e-06
2.02836e-05
-2.36022e-06
2.0274e-05
-2.36153e-06
2.02663e-05
-2.36296e-06
2.02601e-05
-2.36441e-06
2.02561e-05
-2.3673e-06
2.02528e-05
-2.36681e-06
2.02507e-05
-2.36807e-06
2.02491e-05
-2.36817e-06
2.02481e-05
-2.36865e-06
2.02474e-05
-2.36855e-06
2.0247e-05
-2.36922e-06
2.02478e-05
-2.37141e-06
2.02482e-05
-2.36997e-06
2.0249e-05
-2.37048e-06
2.02495e-05
-2.37003e-06
2.02499e-05
-2.36989e-06
2.02505e-05
-2.37024e-06
2.02507e-05
-2.3694e-06
2.02512e-05
-2.37031e-06
2.02521e-05
-2.37128e-06
2.0253e-05
-2.37095e-06
2.02534e-05
-2.36984e-06
2.02538e-05
-2.37031e-06
2.0254e-05
-2.3697e-06
2.02539e-05
-2.36916e-06
2.02542e-05
-2.37021e-06
2.02536e-05
-2.36836e-06
2.02541e-05
-2.37072e-06
2.02534e-05
-2.36773e-06
2.02549e-05
-2.37349e-06
2.0254e-05
-2.36731e-06
2.02555e-05
-2.37293e-06
2.02541e-05
-2.3662e-06
2.02557e-05
-2.37343e-06
2.02538e-05
-2.36505e-06
2.02557e-05
-2.37434e-06
2.02531e-05
-2.36367e-06
2.02553e-05
-2.37539e-06
2.02524e-05
-2.36226e-06
2.02562e-05
-2.37919e-06
2.02527e-05
-2.36097e-06
2.0257e-05
-2.37977e-06
2.02526e-05
-2.35886e-06
2.02575e-05
-2.38141e-06
2.0252e-05
-2.35636e-06
2.02576e-05
-2.38339e-06
2.02512e-05
-2.35426e-06
2.02577e-05
-2.3856e-06
2.02505e-05
-2.35182e-06
2.02589e-05
-2.39053e-06
2.02507e-05
-2.34915e-06
2.02601e-05
-2.39241e-06
2.02504e-05
-2.34572e-06
2.02609e-05
-2.39521e-06
2.02497e-05
-2.34218e-06
2.02615e-05
-2.39847e-06
2.02488e-05
-2.33854e-06
2.0262e-05
-2.402e-06
2.02476e-05
-2.33467e-06
2.02625e-05
-2.40591e-06
2.02474e-05
-2.33295e-06
2.02641e-05
-2.41017e-06
2.02472e-05
-2.3279e-06
2.02654e-05
-2.41387e-06
2.02465e-05
-2.3235e-06
2.02663e-05
-2.41767e-06
2.02457e-05
-2.31933e-06
2.02669e-05
-2.42144e-06
2.02445e-05
-2.31529e-06
2.02675e-05
-2.42535e-06
2.02444e-05
-2.31368e-06
2.02691e-05
-2.4293e-06
2.02443e-05
-2.30908e-06
2.02703e-05
-2.43236e-06
2.02438e-05
-2.30543e-06
2.0271e-05
-2.43523e-06
2.02431e-05
-2.30235e-06
2.02714e-05
-2.43784e-06
2.02424e-05
-2.29971e-06
2.02714e-05
-2.43994e-06
2.02416e-05
-2.29778e-06
2.02724e-05
-2.44397e-06
2.02421e-05
-2.29638e-06
2.02733e-05
-2.44424e-06
2.02422e-05
-2.29492e-06
2.02736e-05
-2.44474e-06
2.0242e-05
-2.29399e-06
2.02734e-05
-2.44502e-06
2.02417e-05
-2.29365e-06
2.0273e-05
-2.44495e-06
2.02413e-05
-2.29377e-06
2.02734e-05
-2.44677e-06
2.02421e-05
-2.29453e-06
2.02736e-05
-2.44491e-06
2.02425e-05
-2.29502e-06
2.02734e-05
-2.44358e-06
2.02426e-05
-2.29597e-06
2.02728e-05
-2.44209e-06
2.02425e-05
-2.29735e-06
2.02719e-05
-2.44036e-06
2.02424e-05
-2.2992e-06
2.0272e-05
-2.44049e-06
2.02435e-05
-2.3014e-06
2.02717e-05
-2.43721e-06
2.02441e-05
-2.30338e-06
2.02712e-05
-2.43459e-06
2.02444e-05
-2.30563e-06
2.02703e-05
-2.43179e-06
2.02445e-05
-2.30818e-06
2.02691e-05
-2.42897e-06
2.02444e-05
-2.31081e-06
2.02689e-05
-2.42838e-06
2.02456e-05
-2.31385e-06
2.02684e-05
-2.42426e-06
2.02462e-05
-2.31664e-06
2.02676e-05
-2.42075e-06
2.02465e-05
-2.31936e-06
2.02665e-05
-2.41795e-06
2.02465e-05
-2.32208e-06
2.02653e-05
-2.41492e-06
2.02466e-05
-2.32512e-06
2.0265e-05
-2.41381e-06
2.02476e-05
-2.32819e-06
2.02643e-05
-2.40967e-06
2.02482e-05
-2.33107e-06
2.02636e-05
-2.40659e-06
2.02482e-05
-2.33319e-06
2.02625e-05
-2.40388e-06
2.02482e-05
-2.33592e-06
2.02612e-05
-2.40104e-06
2.02489e-05
-2.34048e-06
2.02612e-05
-2.39918e-06
2.02494e-05
-2.34152e-06
2.02605e-05
-2.39601e-06
2.02495e-05
-2.34362e-06
2.02596e-05
-2.39415e-06
2.02496e-05
-2.34606e-06
2.02588e-05
-2.39168e-06
2.02495e-05
-2.34775e-06
2.02586e-05
-2.39156e-06
2.02503e-05
-2.3498e-06
2.02582e-05
-2.38843e-06
2.02506e-05
-2.35148e-06
2.02576e-05
-2.38672e-06
2.02504e-05
-2.35265e-06
2.02566e-05
-2.38472e-06
2.02502e-05
-2.35475e-06
2.02559e-05
-2.3833e-06
2.02505e-05
-2.35703e-06
2.02559e-05
-2.38264e-06
2.02509e-05
-2.35772e-06
2.02555e-05
-2.38059e-06
2.02507e-05
-2.35843e-06
2.02547e-05
-2.37927e-06
2.02505e-05
-2.35989e-06
2.0254e-05
-2.37829e-06
2.02499e-05
-2.3601e-06
2.02541e-05
-2.3799e-06
2.02506e-05
-2.36134e-06
2.02537e-05
-2.37679e-06
2.02505e-05
-2.36208e-06
2.02536e-05
-2.37724e-06
2.02505e-05
-2.36236e-06
2.02527e-05
-2.37504e-06
2.025e-05
-2.36359e-06
2.02529e-05
-2.37672e-06
2.02506e-05
-2.36424e-06
2.02531e-05
-2.37537e-06
2.02509e-05
-2.36434e-06
2.02526e-05
-2.37379e-06
2.02507e-05
-2.3653e-06
2.02524e-05
-2.37375e-06
2.02503e-05
-2.365e-06
2.02523e-05
-2.3744e-06
2.02507e-05
-2.3659e-06
2.02521e-05
-2.37291e-06
2.02506e-05
-2.36624e-06
2.02521e-05
-2.37328e-06
2.02505e-05
-2.36596e-06
2.02513e-05
-2.37168e-06
2.02499e-05
-2.36658e-06
2.02516e-05
-2.37371e-06
2.02505e-05
-2.3671e-06
2.02518e-05
-2.37267e-06
2.02507e-05
-2.36712e-06
2.02513e-05
-2.37128e-06
2.02503e-05
-2.3671e-06
2.02509e-05
-2.37115e-06
2.02499e-05
-2.36735e-06
2.02511e-05
-2.37268e-06
2.02501e-05
-2.36739e-06
2.02509e-05
-2.37176e-06
2.02499e-05
-2.3676e-06
2.02506e-05
-2.37124e-06
2.025e-05
-2.36806e-06
2.02506e-05
-2.37091e-06
2.02507e-05
-2.36972e-06
2.02513e-05
-2.37109e-06
2.02506e-05
-2.36817e-06
2.02508e-05
-2.37068e-06
2.02503e-05
-2.36883e-06
2.02505e-05
-2.36974e-06
2.02505e-05
-2.36919e-06
2.02521e-05
-2.37319e-06
2.02509e-05
-2.36635e-06
2.02518e-05
-2.37219e-06
2.02512e-05
-2.36776e-06
2.02512e-05
-2.36993e-06
2.02538e-05
-2.37712e-06
2.02486e-05
-2.35696e-06
2.02488e-05
-2.37053e-06
2.0249e-05
-2.37063e-06
2.02489e-05
-2.36972e-06
2.02486e-05
-2.36845e-06
2.0247e-05
-2.37023e-06
2.01885e-05
-2.2216e-06
2.04785e-05
-2.92929e-06
2.136e-05
-4.46806e-06
1.85953e-05
3.65001e-06
1.42476e-05
6.71987e-06
1.50473e-05
-5.2853e-06
1.55492e-05
-3.85127e-06
-2.71955e-06
2.09432e-05
2.21639e-06
2.12104e-05
1.0967e-06
2.10607e-05
4.89807e-07
2.0649e-05
-3.58508e-07
2.01839e-05
-1.06744e-06
1.97736e-05
-1.51016e-06
1.94575e-05
-1.8093e-06
1.92148e-05
-1.99535e-06
1.90263e-05
-2.11137e-06
1.88929e-05
-2.21336e-06
1.88016e-05
-2.28618e-06
1.87396e-05
-2.33212e-06
1.87029e-05
-2.37427e-06
1.86887e-05
-2.4054e-06
1.86915e-05
-2.42977e-06
1.87075e-05
-2.45621e-06
1.87357e-05
-2.47446e-06
1.87739e-05
-2.49043e-06
1.88193e-05
-2.50242e-06
1.88706e-05
-2.5117e-06
1.89249e-05
-2.5173e-06
1.89793e-05
-2.52103e-06
1.9033e-05
-2.52348e-06
1.90853e-05
-2.52061e-06
1.91341e-05
-2.50991e-06
1.91787e-05
-2.49743e-06
1.92189e-05
-2.48427e-06
1.92548e-05
-2.47103e-06
1.92864e-05
-2.45845e-06
1.93145e-05
-2.44778e-06
1.93391e-05
-2.43766e-06
1.93603e-05
-2.4278e-06
1.93782e-05
-2.41808e-06
1.9393e-05
-2.40954e-06
1.94056e-05
-2.40328e-06
1.94164e-05
-2.3983e-06
1.94257e-05
-2.39413e-06
1.94336e-05
-2.39059e-06
1.94405e-05
-2.38759e-06
1.94463e-05
-2.38498e-06
1.94513e-05
-2.3828e-06
1.94556e-05
-2.38083e-06
1.94593e-05
-2.37927e-06
1.94624e-05
-2.37782e-06
1.94651e-05
-2.37665e-06
1.94674e-05
-2.37572e-06
1.94694e-05
-2.37483e-06
1.94712e-05
-2.37432e-06
1.94726e-05
-2.37358e-06
1.94738e-05
-2.37268e-06
1.94748e-05
-2.3722e-06
1.94756e-05
-2.37171e-06
1.94763e-05
-2.37175e-06
1.94769e-05
-2.37069e-06
1.94771e-05
-2.37073e-06
1.94741e-05
-2.35593e-06
1.94546e-05
-2.29266e-06
1.92391e-05
-1.30921e-06
1.9589e-05
-3.86904e-06
2.25074e-05
-1.42528e-05
2.39833e-05
-5.43659e-06
2.38621e-05
4.27314e-07
2.41604e-05
-4.48981e-06
2.35107e-05
1.38868e-06
2.34212e-05
-2.48635e-06
2.3285e-05
-2.04909e-06
2.32326e-05
-2.32739e-06
2.3163e-05
-2.21621e-06
2.31147e-05
-2.27373e-06
2.30649e-05
-2.26655e-06
2.30175e-05
-2.26656e-06
2.29801e-05
-2.29393e-06
2.29499e-05
-2.30985e-06
2.29254e-05
-2.32467e-06
2.29039e-05
-2.3289e-06
2.28854e-05
-2.33694e-06
2.28698e-05
-2.34277e-06
2.28564e-05
-2.34689e-06
2.28451e-05
-2.35022e-06
2.28358e-05
-2.35362e-06
2.28282e-05
-2.3568e-06
2.28227e-05
-2.36185e-06
2.28183e-05
-2.3624e-06
2.28152e-05
-2.36499e-06
2.2813e-05
-2.36591e-06
2.28113e-05
-2.36701e-06
2.28101e-05
-2.3673e-06
2.28092e-05
-2.36833e-06
2.28094e-05
-2.37162e-06
2.28098e-05
-2.37035e-06
2.28103e-05
-2.37102e-06
2.28108e-05
-2.37047e-06
2.28112e-05
-2.37031e-06
2.28117e-05
-2.37076e-06
2.2812e-05
-2.36969e-06
2.28124e-05
-2.37072e-06
2.28131e-05
-2.37199e-06
2.28139e-05
-2.37171e-06
2.28143e-05
-2.37029e-06
2.28147e-05
-2.37069e-06
2.2815e-05
-2.36999e-06
2.28149e-05
-2.3691e-06
2.28152e-05
-2.37047e-06
2.28149e-05
-2.3681e-06
2.28152e-05
-2.37096e-06
2.28149e-05
-2.36741e-06
2.28156e-05
-2.37427e-06
2.28153e-05
-2.36696e-06
2.28161e-05
-2.37379e-06
2.28155e-05
-2.36558e-06
2.28164e-05
-2.37428e-06
2.28154e-05
-2.36407e-06
2.28163e-05
-2.37528e-06
2.2815e-05
-2.36234e-06
2.28161e-05
-2.37647e-06
2.28146e-05
-2.36074e-06
2.28164e-05
-2.38107e-06
2.28148e-05
-2.35934e-06
2.28171e-05
-2.38203e-06
2.2815e-05
-2.35676e-06
2.28174e-05
-2.38386e-06
2.28147e-05
-2.35366e-06
2.28175e-05
-2.38618e-06
2.28143e-05
-2.35104e-06
2.28175e-05
-2.3888e-06
2.28139e-05
-2.34821e-06
2.28181e-05
-2.39475e-06
2.28141e-05
-2.34519e-06
2.2819e-05
-2.39726e-06
2.28143e-05
-2.34103e-06
2.28196e-05
-2.40051e-06
2.28141e-05
-2.33668e-06
2.282e-05
-2.40433e-06
2.28137e-05
-2.33226e-06
2.28202e-05
-2.4085e-06
2.28131e-05
-2.32755e-06
2.28204e-05
-2.41326e-06
2.2813e-05
-2.32552e-06
2.28214e-05
-2.41856e-06
2.28132e-05
-2.31973e-06
2.28223e-05
-2.42299e-06
2.28132e-05
-2.31432e-06
2.28229e-05
-2.42746e-06
2.28128e-05
-2.30923e-06
2.28233e-05
-2.43191e-06
2.28123e-05
-2.30428e-06
2.28236e-05
-2.43666e-06
2.28123e-05
-2.30236e-06
2.28246e-05
-2.44159e-06
2.28126e-05
-2.29709e-06
2.28255e-05
-2.44524e-06
2.28126e-05
-2.29256e-06
2.2826e-05
-2.4486e-06
2.28124e-05
-2.28873e-06
2.28262e-05
-2.4517e-06
2.2812e-05
-2.28547e-06
2.28262e-05
-2.45415e-06
2.28116e-05
-2.28318e-06
2.28267e-05
-2.45905e-06
2.2812e-05
-2.28167e-06
2.28274e-05
-2.45967e-06
2.28123e-05
-2.27983e-06
2.28277e-05
-2.46015e-06
2.28123e-05
-2.27857e-06
2.28277e-05
-2.4604e-06
2.28121e-05
-2.27803e-06
2.28274e-05
-2.46026e-06
2.28118e-05
-2.27818e-06
2.28275e-05
-2.46252e-06
2.28122e-05
-2.2792e-06
2.28279e-05
-2.46062e-06
2.28126e-05
-2.27967e-06
2.28279e-05
-2.45891e-06
2.28126e-05
-2.28064e-06
2.28275e-05
-2.45706e-06
2.28124e-05
-2.28219e-06
2.28269e-05
-2.45492e-06
2.28122e-05
-2.28441e-06
2.28268e-05
-2.45514e-06
2.28126e-05
-2.2872e-06
2.28269e-05
-2.45152e-06
2.2813e-05
-2.28948e-06
2.28267e-05
-2.44827e-06
2.28131e-05
-2.29204e-06
2.28261e-05
-2.44482e-06
2.2813e-05
-2.295e-06
2.28253e-05
-2.44133e-06
2.28127e-05
-2.2982e-06
2.2825e-05
-2.44066e-06
2.28132e-05
-2.30202e-06
2.28249e-05
-2.43602e-06
2.28135e-05
-2.30527e-06
2.28245e-05
-2.43166e-06
2.28135e-05
-2.30843e-06
2.28238e-05
-2.42816e-06
2.28134e-05
-2.31169e-06
2.28229e-05
-2.42445e-06
2.28131e-05
-2.31535e-06
2.28225e-05
-2.42315e-06
2.28135e-05
-2.31921e-06
2.28223e-05
-2.41845e-06
2.28138e-05
-2.32264e-06
2.28218e-05
-2.41457e-06
2.28138e-05
-2.32513e-06
2.28211e-05
-2.41118e-06
2.28134e-05
-2.32828e-06
2.28201e-05
-2.40776e-06
2.28135e-05
-2.33382e-06
2.282e-05
-2.40567e-06
2.28139e-05
-2.33542e-06
2.28197e-05
-2.40181e-06
2.28138e-05
-2.33777e-06
2.28191e-05
-2.39938e-06
2.28137e-05
-2.3407e-06
2.28184e-05
-2.39638e-06
2.28134e-05
-2.3428e-06
2.28181e-05
-2.39625e-06
2.28138e-05
-2.34545e-06
2.28181e-05
-2.39272e-06
2.2814e-05
-2.34739e-06
2.28177e-05
-2.39043e-06
2.28137e-05
-2.34869e-06
2.28169e-05
-2.38788e-06
2.28134e-05
-2.35123e-06
2.28163e-05
-2.38627e-06
2.28134e-05
-2.35406e-06
2.28163e-05
-2.38555e-06
2.28137e-05
-2.3551e-06
2.28161e-05
-2.38302e-06
2.28135e-05
-2.35584e-06
2.28155e-05
-2.38133e-06
2.28132e-05
-2.35755e-06
2.28149e-05
-2.38e-06
2.28127e-05
-2.35792e-06
2.28148e-05
-2.38193e-06
2.2813e-05
-2.35958e-06
2.28147e-05
-2.37851e-06
2.28129e-05
-2.3603e-06
2.28146e-05
-2.37886e-06
2.28129e-05
-2.36073e-06
2.2814e-05
-2.37613e-06
2.28125e-05
-2.36203e-06
2.28138e-05
-2.3781e-06
2.28128e-05
-2.36319e-06
2.28142e-05
-2.37677e-06
2.2813e-05
-2.36316e-06
2.28139e-05
-2.37467e-06
2.28128e-05
-2.36422e-06
2.28137e-05
-2.37463e-06
2.28127e-05
-2.364e-06
2.28136e-05
-2.3753e-06
2.28128e-05
-2.36508e-06
2.28134e-05
-2.3736e-06
2.28126e-05
-2.36538e-06
2.28134e-05
-2.37407e-06
2.28127e-05
-2.36522e-06
2.2813e-05
-2.37205e-06
2.28123e-05
-2.36581e-06
2.28129e-05
-2.37438e-06
2.28125e-05
-2.36671e-06
2.28131e-05
-2.37328e-06
2.28124e-05
-2.36642e-06
2.28127e-05
-2.37157e-06
2.28122e-05
-2.36662e-06
2.28128e-05
-2.37167e-06
2.28124e-05
-2.36696e-06
2.28128e-05
-2.37309e-06
2.28121e-05
-2.36668e-06
2.28122e-05
-2.37189e-06
2.28116e-05
-2.36696e-06
2.2812e-05
-2.37171e-06
2.2812e-05
-2.36801e-06
2.28127e-05
-2.3716e-06
2.28129e-05
-2.37e-06
2.28132e-05
-2.37131e-06
2.28124e-05
-2.36736e-06
2.28119e-05
-2.37026e-06
2.28115e-05
-2.3684e-06
2.28119e-05
-2.37016e-06
2.28125e-05
-2.36977e-06
2.2814e-05
-2.37466e-06
2.28138e-05
-2.36615e-06
2.28138e-05
-2.37217e-06
2.28131e-05
-2.3671e-06
2.28126e-05
-2.36947e-06
2.2814e-05
-2.37845e-06
2.28115e-05
-2.35452e-06
2.28113e-05
-2.3703e-06
2.28112e-05
-2.37053e-06
2.28112e-05
-2.36966e-06
2.2811e-05
-2.36831e-06
2.28114e-05
-2.37062e-06
2.28041e-05
-2.21433e-06
2.29833e-05
-3.10842e-06
2.3366e-05
-4.85082e-06
2.19117e-05
5.10435e-06
1.89499e-05
9.68163e-06
1.87047e-05
-5.04011e-06
1.88085e-05
-3.95505e-06
-2.77086e-06
2.11553e-05
1.31108e-06
2.1773e-05
4.78972e-07
2.22033e-05
5.95426e-08
2.23509e-05
-5.06099e-07
2.22868e-05
-1.00339e-06
2.20946e-05
-1.3179e-06
2.18449e-05
-1.55966e-06
2.15955e-05
-1.74589e-06
2.13819e-05
-1.89776e-06
2.12076e-05
-2.03914e-06
2.10672e-05
-2.14571e-06
2.09564e-05
-2.22136e-06
2.0877e-05
-2.29488e-06
2.08265e-05
-2.35487e-06
2.07984e-05
-2.4017e-06
2.07912e-05
-2.44903e-06
2.0799e-05
-2.48226e-06
2.08196e-05
-2.511e-06
2.08515e-05
-2.53436e-06
2.08904e-05
-2.55056e-06
2.09334e-05
-2.56028e-06
2.09758e-05
-2.56341e-06
2.10156e-05
-2.56331e-06
2.1054e-05
-2.55906e-06
2.10896e-05
-2.54545e-06
2.11218e-05
-2.52964e-06
2.11506e-05
-2.5131e-06
2.1176e-05
-2.49645e-06
2.11983e-05
-2.48072e-06
2.1218e-05
-2.46743e-06
2.12351e-05
-2.45481e-06
2.12498e-05
-2.44248e-06
2.1262e-05
-2.43029e-06
2.12721e-05
-2.41961e-06
2.12806e-05
-2.41186e-06
2.1288e-05
-2.40568e-06
2.12944e-05
-2.40048e-06
2.12998e-05
-2.39604e-06
2.13045e-05
-2.39226e-06
2.13085e-05
-2.38897e-06
2.13119e-05
-2.38621e-06
2.13148e-05
-2.38374e-06
2.13173e-05
-2.38176e-06
2.13194e-05
-2.37995e-06
2.13212e-05
-2.37847e-06
2.13228e-05
-2.37729e-06
2.13241e-05
-2.37615e-06
2.13253e-05
-2.37554e-06
2.13263e-05
-2.37457e-06
2.13271e-05
-2.37346e-06
2.13278e-05
-2.37287e-06
2.13283e-05
-2.37227e-06
2.13289e-05
-2.3723e-06
2.13292e-05
-2.37102e-06
2.13297e-05
-2.37123e-06
2.13287e-05
-2.3549e-06
2.13288e-05
-2.29277e-06
2.13512e-05
-1.33158e-06
2.15555e-05
-4.07342e-06
2.2715e-05
-1.54122e-05
2.35666e-05
-6.28821e-06
2.38301e-05
1.63774e-07
2.3896e-05
-4.55564e-06
2.38546e-05
1.43007e-06
2.38004e-05
-2.43213e-06
2.37331e-05
-1.98188e-06
2.36938e-05
-2.28802e-06
2.36546e-05
-2.17705e-06
2.36258e-05
-2.24493e-06
2.35957e-05
-2.23642e-06
2.35681e-05
-2.23892e-06
2.3546e-05
-2.27184e-06
2.35276e-05
-2.29151e-06
2.35113e-05
-2.30837e-06
2.34964e-05
-2.31394e-06
2.34827e-05
-2.32324e-06
2.34704e-05
-2.33052e-06
2.34596e-05
-2.33607e-06
2.34502e-05
-2.34078e-06
2.34421e-05
-2.34559e-06
2.34354e-05
-2.35001e-06
2.343e-05
-2.35652e-06
2.34257e-05
-2.35807e-06
2.34225e-05
-2.36175e-06
2.342e-05
-2.36346e-06
2.3418e-05
-2.36501e-06
2.34165e-05
-2.36573e-06
2.34152e-05
-2.36707e-06
2.34147e-05
-2.37115e-06
2.34146e-05
-2.37019e-06
2.34146e-05
-2.37102e-06
2.34147e-05
-2.37059e-06
2.34148e-05
-2.37043e-06
2.3415e-05
-2.37094e-06
2.34152e-05
-2.36988e-06
2.34153e-05
-2.3709e-06
2.34156e-05
-2.37223e-06
2.3416e-05
-2.37209e-06
2.34163e-05
-2.37059e-06
2.34165e-05
-2.37089e-06
2.34167e-05
-2.3702e-06
2.34167e-05
-2.36914e-06
2.34168e-05
-2.3706e-06
2.34168e-05
-2.36806e-06
2.34169e-05
-2.37105e-06
2.34169e-05
-2.36739e-06
2.3417e-05
-2.37439e-06
2.3417e-05
-2.36697e-06
2.34173e-05
-2.37405e-06
2.34172e-05
-2.36552e-06
2.34174e-05
-2.37445e-06
2.34172e-05
-2.36394e-06
2.34174e-05
-2.3754e-06
2.34171e-05
-2.36211e-06
2.34173e-05
-2.37661e-06
2.34171e-05
-2.36053e-06
2.34173e-05
-2.3813e-06
2.34171e-05
-2.3592e-06
2.34176e-05
-2.38244e-06
2.34173e-05
-2.35653e-06
2.34177e-05
-2.38423e-06
2.34174e-05
-2.35335e-06
2.34177e-05
-2.38654e-06
2.34173e-05
-2.35061e-06
2.34177e-05
-2.3892e-06
2.34173e-05
-2.34777e-06
2.34178e-05
-2.39529e-06
2.34174e-05
-2.34482e-06
2.34182e-05
-2.39802e-06
2.34177e-05
-2.34055e-06
2.34185e-05
-2.40126e-06
2.34178e-05
-2.33606e-06
2.34186e-05
-2.40509e-06
2.34178e-05
-2.3315e-06
2.34187e-05
-2.40931e-06
2.34178e-05
-2.32667e-06
2.34187e-05
-2.41419e-06
2.34178e-05
-2.32462e-06
2.3419e-05
-2.41975e-06
2.34181e-05
-2.31889e-06
2.34194e-05
-2.42424e-06
2.34184e-05
-2.3133e-06
2.34197e-05
-2.42875e-06
2.34185e-05
-2.30803e-06
2.34198e-05
-2.43326e-06
2.34185e-05
-2.30294e-06
2.34199e-05
-2.4381e-06
2.34185e-05
-2.30098e-06
2.34202e-05
-2.44328e-06
2.34189e-05
-2.29576e-06
2.34206e-05
-2.44699e-06
2.34191e-05
-2.29106e-06
2.34209e-05
-2.45036e-06
2.34192e-05
-2.28707e-06
2.3421e-05
-2.45348e-06
2.34192e-05
-2.28368e-06
2.3421e-05
-2.45595e-06
2.34192e-05
-2.28132e-06
2.34211e-05
-2.46096e-06
2.34193e-05
-2.27996e-06
2.34214e-05
-2.46177e-06
2.34196e-05
-2.27801e-06
2.34217e-05
-2.46218e-06
2.34197e-05
-2.27663e-06
2.34217e-05
-2.46237e-06
2.34197e-05
-2.27602e-06
2.34216e-05
-2.46217e-06
2.34195e-05
-2.27615e-06
2.34215e-05
-2.46449e-06
2.34197e-05
-2.27735e-06
2.34218e-05
-2.46274e-06
2.34199e-05
-2.27774e-06
2.34219e-05
-2.46091e-06
2.34198e-05
-2.27864e-06
2.34217e-05
-2.45896e-06
2.34197e-05
-2.28016e-06
2.34215e-05
-2.45674e-06
2.34195e-05
-2.2824e-06
2.34213e-05
-2.45696e-06
2.34196e-05
-2.28541e-06
2.34215e-05
-2.45345e-06
2.34197e-05
-2.28769e-06
2.34215e-05
-2.45006e-06
2.34197e-05
-2.29021e-06
2.34213e-05
-2.44646e-06
2.34195e-05
-2.29317e-06
2.3421e-05
-2.44284e-06
2.34192e-05
-2.29642e-06
2.34207e-05
-2.44216e-06
2.34192e-05
-2.30052e-06
2.34208e-05
-2.43761e-06
2.34193e-05
-2.30375e-06
2.34207e-05
-2.43307e-06
2.34191e-05
-2.3069e-06
2.34204e-05
-2.42941e-06
2.34189e-05
-2.31023e-06
2.34201e-05
-2.42557e-06
2.34186e-05
-2.31392e-06
2.34197e-05
-2.42424e-06
2.34186e-05
-2.31806e-06
2.34197e-05
-2.41962e-06
2.34186e-05
-2.32151e-06
2.34196e-05
-2.41557e-06
2.34185e-05
-2.32402e-06
2.34193e-05
-2.41197e-06
2.34182e-05
-2.3272e-06
2.34189e-05
-2.40846e-06
2.34179e-05
-2.3328e-06
2.34187e-05
-2.40654e-06
2.3418e-05
-2.33466e-06
2.34187e-05
-2.40253e-06
2.34179e-05
-2.33693e-06
2.34184e-05
-2.39994e-06
2.34177e-05
-2.33994e-06
2.34182e-05
-2.39691e-06
2.34174e-05
-2.34203e-06
2.34179e-05
-2.39673e-06
2.34174e-05
-2.34499e-06
2.3418e-05
-2.3933e-06
2.34175e-05
-2.34686e-06
2.34179e-05
-2.39081e-06
2.34173e-05
-2.34808e-06
2.34175e-05
-2.38816e-06
2.3417e-05
-2.35066e-06
2.34173e-05
-2.38658e-06
2.34168e-05
-2.35359e-06
2.34172e-05
-2.38593e-06
2.34169e-05
-2.35479e-06
2.34171e-05
-2.38327e-06
2.34167e-05
-2.35545e-06
2.34169e-05
-2.38152e-06
2.34165e-05
-2.35715e-06
2.34167e-05
-2.38015e-06
2.34163e-05
-2.35756e-06
2.34164e-05
-2.38202e-06
2.34163e-05
-2.35946e-06
2.34165e-05
-2.37877e-06
2.34162e-05
-2.35997e-06
2.34164e-05
-2.379e-06
2.34162e-05
-2.36058e-06
2.34163e-05
-2.3762e-06
2.34159e-05
-2.36166e-06
2.3416e-05
-2.37817e-06
2.3416e-05
-2.36318e-06
2.34162e-05
-2.37704e-06
2.3416e-05
-2.36297e-06
2.3416e-05
-2.37466e-06
2.34158e-05
-2.36403e-06
2.34161e-05
-2.37485e-06
2.3416e-05
-2.36396e-06
2.3416e-05
-2.37532e-06
2.34158e-05
-2.36487e-06
2.34158e-05
-2.37359e-06
2.34156e-05
-2.36517e-06
2.34158e-05
-2.37424e-06
2.34158e-05
-2.36524e-06
2.34159e-05
-2.37217e-06
2.34157e-05
-2.36563e-06
2.34157e-05
-2.37436e-06
2.34157e-05
-2.36666e-06
2.34157e-05
-2.37328e-06
2.34154e-05
-2.36613e-06
2.34153e-05
-2.37148e-06
2.34154e-05
-2.36672e-06
2.34159e-05
-2.37218e-06
2.3416e-05
-2.36712e-06
2.34159e-05
-2.37292e-06
2.34154e-05
-2.36621e-06
2.34149e-05
-2.37135e-06
2.34146e-05
-2.36666e-06
2.34149e-05
-2.37199e-06
2.34153e-05
-2.36847e-06
2.34161e-05
-2.37234e-06
2.34165e-05
-2.37039e-06
2.34163e-05
-2.37113e-06
2.34154e-05
-2.36647e-06
2.34144e-05
-2.36923e-06
2.3414e-05
-2.36808e-06