/*--------------------------------*- C++ -*----------------------------------*\
| =========                 |                                                 |
| \\      /  F ield         | foam-extend: Open Source CFD                    |
|  \\    /   O peration     | Version:     3.2                                |
|   \\  /    A nd           | Web:         http://www.foam-extend.org         |
|    \\/     M anipulation  | For copyright notice see file Copyright         |
\*---------------------------------------------------------------------------*/
FoamFile
{
    version     2.0;
    format      ascii;
    class       areaVectorField;
    location    "2020";
    object      aMeshCentreN;
}
// * * * * * * * * * * * * * * * * * * * * * * * * * * * * * * * * * * * * * //

dimensions      [0 0 0 0 0 0 0];

internalField   nonuniform List<vector> 
300
(
(0.025 0.01 -0.000125)
(0.075 0.01 -0.000375)
(0.125 0.01 -0.000625)
(0.175 0.01 -0.000875)
(0.225 0.01 -0.001125)
(0.275 0.01 -0.001375)
(0.325 0.01 -0.001625)
(0.375 0.01 -0.001875)
(0.425 0.01 -0.002125)
(0.475 0.01 -0.002375)
(0.525 0.01 -0.002625)
(0.575 0.01 -0.002875)
(0.625 0.01 -0.003125)
(0.675 0.01 -0.003375)
(0.725 0.01 -0.003625)
(0.775 0.01 -0.003875)
(0.825 0.01 -0.004125)
(0.875 0.01 -0.004375)
(0.925 0.01 -0.004625)
(0.975 0.01 -0.004875)
(1.025 0.01 -0.005125)
(1.075 0.01 -0.005375)
(1.125 0.01 -0.005625)
(1.175 0.01 -0.005875)
(1.225 0.01 -0.006125)
(1.275 0.01 -0.006375)
(1.325 0.01 -0.006625)
(1.375 0.01 -0.006875)
(1.425 0.01 -0.007125)
(1.475 0.01 -0.007375)
(1.525 0.01 -0.007625)
(1.575 0.01 -0.007875)
(1.625 0.01 -0.008125)
(1.675 0.01 -0.008375)
(1.725 0.01 -0.008625)
(1.775 0.01 -0.008875)
(1.825 0.01 -0.009125)
(1.875 0.01 -0.009375)
(1.925 0.01 -0.009625)
(1.975 0.01 -0.009875)
(2.025 0.01 -0.010125)
(2.075 0.01 -0.010375)
(2.125 0.01 -0.010625)
(2.175 0.01 -0.010875)
(2.225 0.01 -0.011125)
(2.275 0.01 -0.011375)
(2.325 0.01 -0.011625)
(2.375 0.01 -0.011875)
(2.425 0.01 -0.012125)
(2.475 0.01 -0.012375)
(2.525 0.01 -0.012625)
(2.575 0.01 -0.012875)
(2.625 0.01 -0.013125)
(2.675 0.01 -0.013375)
(2.725 0.01 -0.013625)
(2.775 0.01 -0.013875)
(2.825 0.01 -0.014125)
(2.875 0.01 -0.014375)
(2.925 0.01 -0.014625)
(2.975 0.01 -0.0127627)
(3.025 0.01 -0.0101274)
(3.075 0.01 -0.00988346)
(3.125 0.01 -0.009913)
(3.175 0.01 -0.0100884)
(3.225 0.01 -0.0106811)
(3.275 0.01 -0.0108754)
(3.325 0.01 -0.0111397)
(3.375 0.01 -0.0113937)
(3.425 0.01 -0.0116733)
(3.475 0.01 -0.0119569)
(3.525 0.01 -0.0122508)
(3.575 0.01 -0.0125481)
(3.625 0.01 -0.0128458)
(3.675 0.01 -0.0131427)
(3.725 0.01 -0.0134377)
(3.775 0.01 -0.0137303)
(3.825 0.01 -0.0140193)
(3.875 0.01 -0.0143045)
(3.925 0.01 -0.0145857)
(3.975 0.01 -0.014863)
(4.025 0.01 -0.0151366)
(4.075 0.01 -0.0154062)
(4.125 0.01 -0.0156723)
(4.175 0.01 -0.0159356)
(4.225 0.01 -0.0161965)
(4.275 0.01 -0.0164554)
(4.325 0.01 -0.0167125)
(4.375 0.01 -0.016968)
(4.425 0.01 -0.0172217)
(4.475 0.01 -0.0174742)
(4.525 0.01 -0.0177261)
(4.575 0.01 -0.0179774)
(4.625 0.01 -0.0182284)
(4.675 0.01 -0.0184791)
(4.725 0.01 -0.0187296)
(4.775 0.01 -0.0189799)
(4.825 0.01 -0.0192298)
(4.875 0.01 -0.0194794)
(4.925 0.01 -0.0197291)
(4.975 0.01 -0.0199789)
(5.025 0.01 -0.0202286)
(5.075 0.01 -0.0204787)
(5.125 0.01 -0.0207286)
(5.175 0.01 -0.0209787)
(5.225 0.01 -0.0212287)
(5.275 0.01 -0.0214789)
(5.325 0.01 -0.0217285)
(5.375 0.01 -0.0219783)
(5.425 0.01 -0.022228)
(5.475 0.01 -0.022478)
(5.525 0.01 -0.0227279)
(5.575 0.01 -0.022978)
(5.625 0.01 -0.023228)
(5.675 0.01 -0.0234782)
(5.725 0.01 -0.0237283)
(5.775 0.01 -0.0239786)
(5.825 0.01 -0.0242282)
(5.875 0.01 -0.0244781)
(5.925 0.01 -0.0247277)
(5.975 0.01 -0.0249778)
(6.025 0.01 -0.0252275)
(6.075 0.01 -0.0254777)
(6.125 0.01 -0.0257276)
(6.175 0.01 -0.0259779)
(6.225 0.01 -0.0262277)
(6.275 0.01 -0.0264781)
(6.325 0.01 -0.0267275)
(6.375 0.01 -0.0269774)
(6.425 0.01 -0.0272268)
(6.475 0.01 -0.0274769)
(6.525 0.01 -0.0277264)
(6.575 0.01 -0.0279766)
(6.625 0.01 -0.0282263)
(6.675 0.01 -0.0284766)
(6.725 0.01 -0.0287263)
(6.775 0.01 -0.0289767)
(6.825 0.01 -0.0292264)
(6.875 0.01 -0.0294764)
(6.925 0.01 -0.0297256)
(6.975 0.01 -0.0299757)
(7.025 0.01 -0.030225)
(7.075 0.01 -0.0304752)
(7.125 0.01 -0.0307247)
(7.175 0.01 -0.030975)
(7.225 0.01 -0.0312246)
(7.275 0.01 -0.0314749)
(7.325 0.01 -0.0317245)
(7.375 0.01 -0.0319745)
(7.425 0.01 -0.0322237)
(7.475 0.01 -0.0324737)
(7.525 0.01 -0.0327231)
(7.575 0.01 -0.0329732)
(7.625 0.01 -0.0332227)
(7.675 0.01 -0.0334729)
(7.725 0.01 -0.0337226)
(7.775 0.01 -0.0339729)
(7.825 0.01 -0.0342227)
(7.875 0.01 -0.0344729)
(7.925 0.01 -0.0347225)
(7.975 0.01 -0.0349722)
(8.025 0.01 -0.0352218)
(8.075 0.01 -0.0354717)
(8.125 0.01 -0.0357215)
(8.175 0.01 -0.0359715)
(8.225 0.01 -0.0362214)
(8.275 0.01 -0.0364715)
(8.325 0.01 -0.0367216)
(8.375 0.01 -0.0369717)
(8.425 0.01 -0.0372215)
(8.475 0.01 -0.0374712)
(8.525 0.01 -0.0377211)
(8.575 0.01 -0.0379709)
(8.625 0.01 -0.038221)
(8.675 0.01 -0.0384709)
(8.725 0.01 -0.0387211)
(8.775 0.01 -0.0389712)
(8.825 0.01 -0.0392215)
(8.875 0.01 -0.0394716)
(8.925 0.01 -0.0397216)
(8.975 0.01 -0.0399712)
(9.025 0.01 -0.0402213)
(9.075 0.01 -0.0404711)
(9.125 0.01 -0.0407214)
(9.175 0.01 -0.0409712)
(9.225 0.01 -0.0412217)
(9.275 0.01 -0.0414717)
(9.325 0.01 -0.0417222)
(9.375 0.01 -0.0419723)
(9.425 0.01 -0.0422225)
(9.475 0.01 -0.0424721)
(9.525 0.01 -0.0427224)
(9.575 0.01 -0.0429721)
(9.625 0.01 -0.0432226)
(9.675 0.01 -0.0434725)
(9.725 0.01 -0.043723)
(9.775 0.01 -0.0439731)
(9.825 0.01 -0.0442237)
(9.875 0.01 -0.0444737)
(9.925 0.01 -0.044724)
(9.975 0.01 -0.0449737)
(10.025 0.01 -0.0452241)
(10.075 0.01 -0.0454739)
(10.125 0.01 -0.0457243)
(10.175 0.01 -0.0459743)
(10.225 0.01 -0.0462249)
(10.275 0.01 -0.046475)
(10.325 0.01 -0.0467256)
(10.375 0.01 -0.0469755)
(10.425 0.01 -0.0472256)
(10.475 0.01 -0.0474755)
(10.525 0.01 -0.0477259)
(10.575 0.01 -0.0479759)
(10.625 0.01 -0.0482264)
(10.675 0.01 -0.0484764)
(10.725 0.01 -0.0487269)
(10.775 0.01 -0.048977)
(10.825 0.01 -0.0492271)
(10.875 0.01 -0.0494769)
(10.925 0.01 -0.0497271)
(10.975 0.01 -0.0499771)
(11.025 0.01 -0.0502274)
(11.075 0.01 -0.0504775)
(11.125 0.01 -0.0507281)
(11.175 0.01 -0.0509782)
(11.225 0.01 -0.0512286)
(11.275 0.01 -0.0514786)
(11.325 0.01 -0.0517287)
(11.375 0.01 -0.0519786)
(11.425 0.01 -0.0522288)
(11.475 0.01 -0.0524789)
(11.525 0.01 -0.0527293)
(11.575 0.01 -0.0529795)
(11.625 0.01 -0.0532298)
(11.675 0.01 -0.0534802)
(11.725 0.01 -0.0537302)
(11.775 0.01 -0.05398)
(11.825 0.01 -0.0542302)
(11.875 0.01 -0.0544803)
(11.925 0.01 -0.0547304)
(11.975 0.01 -0.0549804)
(12.025 0.01 -0.0552308)
(12.075 0.01 -0.0554811)
(12.125 0.01 -0.0557311)
(12.175 0.01 -0.0559809)
(12.225 0.01 -0.0562309)
(12.275 0.01 -0.0564808)
(12.325 0.01 -0.056731)
(12.375 0.01 -0.056981)
(12.425 0.01 -0.0572312)
(12.475 0.01 -0.0574814)
(12.525 0.01 -0.0577315)
(12.575 0.01 -0.0579813)
(12.625 0.01 -0.0582314)
(12.675 0.01 -0.0584814)
(12.725 0.01 -0.0587315)
(12.775 0.01 -0.0589815)
(12.825 0.01 -0.0592319)
(12.875 0.01 -0.0594822)
(12.925 0.01 -0.0597322)
(12.975 0.01 -0.0599819)
(13.025 0.01 -0.0602318)
(13.075 0.01 -0.0604817)
(13.125 0.01 -0.0607319)
(13.175 0.01 -0.0609821)
(13.225 0.01 -0.0612324)
(13.275 0.01 -0.0614826)
(13.325 0.01 -0.0617326)
(13.375 0.01 -0.0619825)
(13.425 0.01 -0.0622325)
(13.475 0.01 -0.0624825)
(13.525 0.01 -0.0627326)
(13.575 0.01 -0.0629827)
(13.625 0.01 -0.0632329)
(13.675 0.01 -0.0634827)
(13.725 0.01 -0.0637325)
(13.775 0.01 -0.0639824)
(13.825 0.01 -0.0642323)
(13.875 0.01 -0.0644822)
(13.925 0.01 -0.0647323)
(13.975 0.01 -0.0649825)
(14.025 0.01 -0.0652321)
(14.075 0.01 -0.0654822)
(14.125 0.01 -0.0657322)
(14.175 0.01 -0.0659817)
(14.225 0.01 -0.066232)
(14.275 0.01 -0.0664807)
(14.325 0.01 -0.0667315)
(14.375 0.01 -0.0669838)
(14.425 0.01 -0.0672338)
(14.475 0.01 -0.0674837)
(14.525 0.01 -0.0677343)
(14.575 0.01 -0.0679814)
(14.625 0.01 -0.0682329)
(14.675 0.01 -0.0684205)
(14.725 0.01 -0.0682784)
(14.775 0.01 -0.0689837)
(14.825 0.01 -0.0720693)
(14.875 0.01 -0.074375)
(14.925 0.01 -0.074625)
(14.975 0.01 -0.074875)
)
;

boundaryField
{
    inlet
    {
        type            calculated;
        value           uniform (0 0 0);
    }
    outlet
    {
        type            calculated;
        value           uniform (0 0 0);
    }
    sideWall
    {
        type            empty;
    }
}


// ************************************************************************* //
