/*--------------------------------*- C++ -*----------------------------------*\
| =========                 |                                                 |
| \\      /  F ield         | foam-extend: Open Source CFD                    |
|  \\    /   O peration     | Version:     3.2                                |
|   \\  /    A nd           | Web:         http://www.foam-extend.org         |
|    \\/     M anipulation  | For copyright notice see file Copyright         |
\*---------------------------------------------------------------------------*/
FoamFile
{
    version     2.0;
    format      ascii;
    class       areaVectorField;
    location    "2020";
    object      aUf;
}
// * * * * * * * * * * * * * * * * * * * * * * * * * * * * * * * * * * * * * //

dimensions      [0 1 -1 0 0 0 0];

internalField   nonuniform List<vector> 
300
(
(0.302027 0 0.00431089)
(0.333658 0 0.00247189)
(0.306648 0 0.000286717)
(0.281905 0 -0.000898369)
(0.26642 -2.11932e-26 -0.00122582)
(0.259858 -2.22885e-42 -0.00133529)
(0.257186 -1.31762e-26 -0.00136756)
(0.256856 3.76049e-43 -0.00136717)
(0.257284 9.68877e-27 -0.00136751)
(0.258175 2.63318e-42 -0.00136533)
(0.25923 4.68583e-27 -0.00136179)
(0.260311 3.10797e-27 -0.00135681)
(0.261355 0 -0.00135969)
(0.262454 1.36464e-27 -0.00136196)
(0.263501 1.70529e-27 -0.00136383)
(0.264571 -7.01157e-29 -0.00137164)
(0.265698 -4.69932e-28 -0.00137501)
(0.266811 9.56334e-28 -0.00137887)
(0.267941 -1.36087e-27 -0.00138339)
(0.269069 0 -0.00138789)
(0.270192 0 -0.00139284)
(0.271312 2.00234e-27 -0.00140078)
(0.272453 2.07556e-27 -0.00140949)
(0.273603 0 -0.00141473)
(0.274697 0 -0.00141606)
(0.275693 1.99364e-27 -0.00141659)
(0.276584 0 -0.00141635)
(0.277366 0 -0.00141569)
(0.278041 0 -0.00141483)
(0.278621 1.41216e-27 -0.0014143)
(0.279119 0 -0.00141348)
(0.279542 0 -0.00141244)
(0.279893 -9.8502e-28 -0.00141118)
(0.280178 0 -0.00141017)
(0.280408 0 -0.0014097)
(0.280601 0 -0.00140941)
(0.28076 -5.34559e-28 -0.00140914)
(0.280896 0 -0.00140899)
(0.281009 0 -0.00140884)
(0.281108 0 -0.00140876)
(0.281188 -2.96597e-28 -0.00140867)
(0.281261 -4.13749e-43 -0.00140862)
(0.281317 0 -0.00140855)
(0.281372 0 -0.00140856)
(0.28141 -1.60096e-28 -0.00140843)
(0.281452 0 -0.00140858)
(0.281479 -4.07926e-43 -0.00140842)
(0.281514 0 -0.00140842)
(0.281524 0 -0.00140843)
(0.28157 0 -0.00140837)
(0.281532 0 -0.00140807)
(0.281655 -6.50559e-36 -0.00140899)
(0.281441 0 -0.00140697)
(0.281916 -1.07109e-33 -0.001411)
(0.280963 0 -0.0014021)
(0.282946 0 -0.00141463)
(0.27875 7.33265e-31 -0.0013543)
(0.286601 0 -0.00103333)
(0.258872 -2.39731e-25 -0.00243254)
(0.31018 0 0.0187094)
(0.400556 -2.83983e-24 0.0132374)
(0.372924 2.22354e-24 -0.00310155)
(0.376297 3.52471e-27 0.00379065)
(0.373912 0 -0.00568601)
(0.351565 -1.44457e-25 -0.00124476)
(0.356132 0 -0.00213099)
(0.354245 -7.58296e-27 -0.00170985)
(0.355524 1.67915e-26 -0.00199724)
(0.355364 5.92937e-27 -0.00199026)
(0.355711 9.11221e-27 -0.00207075)
(0.355713 0 -0.00212121)
(0.355727 0 -0.00212421)
(0.355738 0 -0.00213094)
(0.355752 -2.97576e-27 -0.00211442)
(0.355759 2.38133e-27 -0.00210217)
(0.355716 3.24466e-27 -0.00207856)
(0.355684 0 -0.00204979)
(0.355634 0 -0.00202053)
(0.355567 4.07223e-28 -0.0019915)
(0.355499 0 -0.00196158)
(0.355413 9.91832e-31 -0.00193495)
(0.35535 0 -0.00190454)
(0.355292 0 -0.00188358)
(0.355228 0 -0.0018624)
(0.355174 1.11487e-28 -0.00184677)
(0.355119 -3.52972e-28 -0.00183195)
(0.355071 3.4157e-28 -0.00181894)
(0.355019 2.99549e-31 -0.00181059)
(0.354993 0 -0.00179456)
(0.354979 1.63897e-28 -0.00179058)
(0.354955 0 -0.00178536)
(0.354943 -2.75476e-28 -0.0017823)
(0.354924 -1.62258e-28 -0.00178083)
(0.354915 0 -0.00177738)
(0.354901 -5.67733e-29 -0.00177769)
(0.354889 1.57354e-28 -0.00177564)
(0.354889 -1.49604e-28 -0.00177258)
(0.354901 8.66233e-29 -0.00177138)
(0.354903 0 -0.00177294)
(0.354899 3.71017e-29 -0.00177264)
(0.35491 2.42162e-29 -0.00177287)
(0.354889 4.73963e-29 -0.00177555)
(0.354909 -6.6126e-29 -0.00177233)
(0.354874 7.69835e-29 -0.00177731)
(0.354907 -8.38885e-29 -0.00177168)
(0.354858 -5.7587e-29 -0.00177833)
(0.354906 -1.44475e-28 -0.00176725)
(0.354874 -1.13295e-28 -0.00177875)
(0.354925 -7.12018e-31 -0.00176686)
(0.354869 1.66724e-28 -0.00178106)
(0.354932 -3.31799e-28 -0.00176633)
(0.354857 -4.20365e-28 -0.00178372)
(0.354935 -1.10673e-30 -0.00176492)
(0.354839 -2.72202e-28 -0.00178677)
(0.354937 0 -0.00176284)
(0.354816 2.40069e-28 -0.00178905)
(0.354938 0 -0.0017563)
(0.354826 0 -0.00179077)
(0.35496 0 -0.00175366)
(0.354816 -4.32945e-28 -0.00179489)
(0.354971 -4.581e-28 -0.00175095)
(0.3548 0 -0.00179975)
(0.354974 5.47377e-28 -0.00174742)
(0.354776 0 -0.00180425)
(0.354984 -6.49721e-28 -0.00174308)
(0.35475 -6.24497e-28 -0.00180844)
(0.354992 0 -0.00173443)
(0.354757 0 -0.00181243)
(0.355018 8.5648e-28 -0.00172946)
(0.354744 0 -0.00181879)
(0.355032 0 -0.00172457)
(0.354724 1.00833e-27 -0.00182561)
(0.35504 -6.28546e-30 -0.00171895)
(0.354702 -1.1233e-27 -0.00183249)
(0.355044 0 -0.00171276)
(0.354679 1.23575e-27 -0.00183952)
(0.355045 0 -0.00170539)
(0.354658 1.31984e-27 -0.0018432)
(0.355079 8.62878e-30 -0.00169667)
(0.354655 1.46533e-27 -0.0018508)
(0.355094 -1.56318e-27 -0.00168993)
(0.354641 1.6064e-27 -0.00185896)
(0.3551 0 -0.00168345)
(0.354623 1.0702e-29 -0.0018667)
(0.355102 -1.76989e-27 -0.00167707)
(0.354606 0 -0.00187397)
(0.355099 0 -0.00167002)
(0.354591 0 -0.00187738)
(0.355127 0 -0.0016621)
(0.354595 2.04738e-27 -0.0018841)
(0.355136 0 -0.0016568)
(0.354588 -2.14362e-27 -0.00189089)
(0.355136 0 -0.00165223)
(0.354578 4.47716e-27 -0.00189675)
(0.355133 4.50066e-27 -0.00164808)
(0.354567 0 -0.00190168)
(0.355127 2.33176e-27 -0.0016446)
(0.354555 0 -0.00190487)
(0.35512 0 -0.00163828)
(0.354577 2.37356e-27 -0.00190621)
(0.355129 0 -0.00163673)
(0.354584 -2.42018e-27 -0.00190877)
(0.355125 2.39396e-27 -0.00163648)
(0.354585 0 -0.00191088)
(0.355116 0 -0.00163649)
(0.354583 0 -0.00191212)
(0.355104 -2.44094e-27 -0.00163703)
(0.35458 0 -0.00191199)
(0.355091 0 -0.00163423)
(0.35461 -2.51275e-27 -0.00191014)
(0.355095 0 -0.00163594)
(0.354623 1.58884e-29 -0.00190949)
(0.355086 0 -0.00163886)
(0.354629 0 -0.0019085)
(0.355072 2.43761e-27 -0.0016421)
(0.354633 0 -0.00190664)
(0.355057 4.81236e-27 -0.00164561)
(0.354634 0 -0.00190341)
(0.355043 2.41087e-27 -0.0016458)
(0.354667 2.41031e-27 -0.00189881)
(0.355044 2.34462e-27 -0.00165014)
(0.354682 0 -0.00189547)
(0.355035 -2.26871e-27 -0.00165539)
(0.354692 -2.29164e-27 -0.00189204)
(0.355021 -2.19952e-27 -0.00166093)
(0.354696 -2.20517e-27 -0.00188798)
(0.355007 0 -0.00166647)
(0.354698 0 -0.00188323)
(0.354991 -2.07921e-27 -0.00166816)
(0.354731 4.11635e-27 -0.0018771)
(0.354992 0 -0.00167392)
(0.354745 0 -0.00187231)
(0.354984 0 -0.0016807)
(0.354749 1.86327e-27 -0.00186787)
(0.354971 0 -0.00168654)
(0.354754 0 -0.00186317)
(0.354956 9.68224e-30 -0.00169239)
(0.354754 -1.62292e-27 -0.00185788)
(0.354943 0 -0.00169478)
(0.354782 0 -0.00185147)
(0.354946 0 -0.00170067)
(0.354791 -8.26038e-30 -0.00184635)
(0.354939 0 -0.00170686)
(0.354796 -1.39003e-27 -0.00184266)
(0.354921 0 -0.00171251)
(0.354797 0 -0.00183817)
(0.354905 0 -0.00171768)
(0.354798 0 -0.00183067)
(0.354918 -1.1298e-27 -0.00172057)
(0.354816 -1.12588e-27 -0.00182672)
(0.354914 1.01108e-27 -0.00172594)
(0.354815 1.02871e-27 -0.0018236)
(0.354903 0 -0.00173032)
(0.354816 -9.14954e-28 -0.00181959)
(0.354897 0 -0.00173459)
(0.354812 0 -0.00181591)
(0.354889 0 -0.00173512)
(0.354834 0 -0.0018115)
(0.354894 -4.03799e-30 -0.0017396)
(0.354834 7.28146e-28 -0.00180884)
(0.354885 -6.78918e-28 -0.00174364)
(0.354834 0 -0.00180697)
(0.354871 5.90151e-28 -0.00174745)
(0.354829 6.34286e-28 -0.00180346)
(0.354865 0 -0.00174985)
(0.354826 -5.44106e-28 -0.00179926)
(0.354873 0 -0.00175108)
(0.354837 0 -0.00179692)
(0.35487 4.02898e-28 -0.00175414)
(0.354834 0 -0.00179567)
(0.354863 3.77561e-28 -0.00175694)
(0.354821 -4.10353e-28 -0.00179384)
(0.35486 0 -0.00175928)
(0.35481 -2.70221e-28 -0.00179349)
(0.354842 0 -0.00175693)
(0.354831 0 -0.00178974)
(0.354851 0 -0.00176033)
(0.354821 3.04901e-28 -0.00178884)
(0.354847 0 -0.00176094)
(0.354827 -2.82608e-28 -0.00178802)
(0.354838 2.36488e-28 -0.00176459)
(0.354805 1.8708e-28 -0.00178746)
(0.354832 0 -0.00176234)
(0.354824 -1.24569e-30 -0.00178406)
(0.354844 -3.97937e-28 -0.00176322)
(0.354832 -2.45212e-28 -0.00178371)
(0.354841 9.87891e-31 -0.0017662)
(0.354823 0 -0.00178313)
(0.354838 9.06977e-31 -0.00176739)
(0.354812 1.26106e-28 -0.00178365)
(0.354828 0 -0.00176595)
(0.354825 1.83355e-28 -0.00178077)
(0.354836 1.24539e-28 -0.00176761)
(0.35482 7.43842e-31 -0.00178095)
(0.354834 1.48114e-28 -0.00176815)
(0.35482 -1.11955e-28 -0.00178128)
(0.354825 0 -0.00177078)
(0.3548 0 -0.00178096)
(0.354819 0 -0.00176762)
(0.35482 0 -0.00177857)
(0.354829 0 -0.00176836)
(0.354824 9.0549e-29 -0.00177872)
(0.354828 1.04332e-28 -0.0017709)
(0.354813 -4.88409e-31 -0.00177949)
(0.354818 3.27969e-29 -0.00177188)
(0.354798 7.69843e-29 -0.00177934)
(0.354812 -1.6392e-28 -0.00176938)
(0.354811 0 -0.00177788)
(0.354815 0 -0.00176999)
(0.354813 0 -0.00177791)
(0.35481 0 -0.00177167)
(0.354808 0 -0.00177767)
(0.354803 0 -0.00177242)
(0.354804 5.57934e-29 -0.00177447)
(0.354822 0 -0.0017705)
(0.354817 -8.83433e-29 -0.00177582)
(0.354822 9.38554e-29 -0.00177147)
(0.354817 0 -0.00177586)
(0.354827 6.17708e-29 -0.00177349)
(0.354794 -8.74122e-29 -0.00177631)
(0.354828 0 -0.0017688)
(0.354823 -2.58901e-28 -0.00177967)
(0.354806 -3.48311e-28 -0.00176799)
(0.354849 1.19577e-28 -0.00177336)
(0.354772 -6.62375e-29 -0.0017775)
(0.35488 0 -0.00176007)
(0.354855 7.3173e-28 -0.00179497)
(0.354746 5.37058e-28 -0.00177576)
(0.354801 1.62595e-29 -0.0017757)
(0.354729 0 -0.00177183)
(0.354891 0 -0.00178341)
(0.354504 0 -0.00172499)
(0.355435 -8.77446e-28 -0.00173488)
(0.350761 6.10767e-26 -0.00120114)
(0.363998 -1.46789e-25 0.00141487)
(0.388297 -3.91115e-24 -0.00918551)
(0.279859 -8.81283e-24 -0.0164254)
(0.240811 0 -0.00571787)
(0.268112 0 -0.00281656)
(0.271396 0 -0.00148049)
)
;

boundaryField
{
    inlet
    {
        type            calculated;
        value           uniform (0 0 0);
    }
    outlet
    {
        type            calculated;
        value           uniform (0 0 0);
    }
    sideWall
    {
        type            empty;
    }
}


// ************************************************************************* //
