/*--------------------------------*- C++ -*----------------------------------*\
| =========                 |                                                 |
| \\      /  F ield         | foam-extend: Open Source CFD                    |
|  \\    /   O peration     | Version:     3.2                                |
|   \\  /    A nd           | Web:         http://www.foam-extend.org         |
|    \\/     M anipulation  | For copyright notice see file Copyright         |
\*---------------------------------------------------------------------------*/
FoamFile
{
    version     2.0;
    format      ascii;
    class       areaScalarField;
    location    "2020";
    object      Ce1;
}
// * * * * * * * * * * * * * * * * * * * * * * * * * * * * * * * * * * * * * //

dimensions      [1 -3 0 0 0 0 0];

internalField   nonuniform List<scalar> 
300
(
0.214031
0.290047
0.224136
0.173226
0.145626
0.134865
0.130637
0.130121
0.130791
0.132192
0.133863
0.13559
0.137273
0.139059
0.140773
0.14254
0.144417
0.146287
0.148199
0.150127
0.152063
0.154008
0.156007
0.158039
0.159989
0.161778
0.163389
0.164811
0.166045
0.167111
0.16803
0.168813
0.169464
0.169994
0.170423
0.170783
0.171081
0.171336
0.171547
0.171732
0.171882
0.172019
0.172124
0.172227
0.1723
0.172379
0.172428
0.172494
0.172513
0.1726
0.172528
0.17276
0.172356
0.173251
0.171461
0.175201
0.167349
0.182221
0.133397
0.0895416
0.305487
0.305488
0.305486
0.30549
0.305483
0.30549
0.305483
0.305489
0.305492
0.305528
0.304789
0.304743
0.304761
0.304822
0.304961
0.305074
0.305093
0.305216
0.305301
0.305392
0.305412
0.305378
0.305419
0.305454
0.305468
0.305478
0.305488
0.305463
0.305393
0.305411
0.305423
0.305439
0.305428
0.305458
0.305438
0.305455
0.305349
0.30541
0.305413
0.305433
0.305476
0.305416
0.305522
0.305398
0.305568
0.305378
0.305499
0.30529
0.305586
0.305286
0.30565
0.305261
0.305713
0.305215
0.305779
0.305157
0.305743
0.305033
0.305863
0.304991
0.305962
0.304923
0.30605
0.304842
0.306163
0.30475
0.306176
0.304587
0.306335
0.30451
0.30647
0.304407
0.306599
0.304293
0.306726
0.304175
0.306854
0.303953
0.306929
0.303873
0.30709
0.303765
0.307228
0.303654
0.307354
0.303546
0.307468
0.303345
0.30752
0.303294
0.307651
0.303224
0.307751
0.303156
0.307831
0.303096
0.307898
0.303051
0.307847
0.302967
0.307921
0.302983
0.307952
0.302995
0.307961
0.303012
0.307956
0.303037
0.307843
0.30302
0.307855
0.303097
0.307828
0.303165
0.307783
0.303234
0.307732
0.303312
0.307578
0.303339
0.307548
0.303458
0.307489
0.303563
0.307417
0.303662
0.307343
0.303759
0.307166
0.303809
0.307118
0.303942
0.307045
0.304045
0.306973
0.304151
0.306893
0.304256
0.306714
0.304297
0.306671
0.30442
0.30661
0.304515
0.306526
0.304611
0.306452
0.304605
0.306334
0.304726
0.306288
0.304802
0.306242
0.30489
0.306203
0.304959
0.306068
0.304965
0.306054
0.305036
0.30602
0.305093
0.305967
0.305162
0.305953
0.305105
0.305856
0.305191
0.305838
0.305235
0.305824
0.305263
0.305824
0.305276
0.305704
0.305266
0.305712
0.305292
0.305734
0.305354
0.305701
0.305346
0.305615
0.305327
0.305663
0.30539
0.305657
0.305417
0.305676
0.305415
0.305563
0.305384
0.305601
0.305409
0.305629
0.305442
0.305609
0.305433
0.305536
0.305414
0.305588
0.305462
0.30559
0.305464
0.305591
0.305466
0.305513
0.305423
0.305547
0.305466
0.30555
0.305498
0.305557
0.305438
0.30553
0.305493
0.305561
0.30554
0.305579
0.305516
0.305549
0.305458
0.305528
0.305648
0.305378
0.30587
0.305522
0.305483
0.305516
0.305478
0.305508
0.305474
0.305503
0.305472
0.305508
0.305483
0.104286
0.105799
0.14861
0.154147
)
;

boundaryField
{
    inlet
    {
        type            calculated;
        value           uniform 0;
    }
    outlet
    {
        type            calculated;
        value           uniform 0;
    }
    sideWall
    {
        type            empty;
    }
}


// ************************************************************************* //
