/*--------------------------------*- C++ -*----------------------------------*\
| =========                 |                                                 |
| \\      /  F ield         | foam-extend: Open Source CFD                    |
|  \\    /   O peration     | Version:     3.2                                |
|   \\  /    A nd           | Web:         http://www.foam-extend.org         |
|    \\/     M anipulation  | For copyright notice see file Copyright         |
\*---------------------------------------------------------------------------*/
FoamFile
{
    version     2.0;
    format      ascii;
    class       areaScalarField;
    location    "2020";
    object      Cs;
}
// * * * * * * * * * * * * * * * * * * * * * * * * * * * * * * * * * * * * * //

dimensions      [0 0 0 0 0 0 0];

internalField   nonuniform List<scalar> 
300
(
0.531187
0.531187
0.531187
0.531187
0.531187
0.531187
0.531187
0.531187
0.531187
0.531187
0.531187
0.531187
0.531187
0.531187
0.531187
0.531187
0.531187
0.531187
0.531187
0.531187
0.531187
0.531187
0.531187
0.531187
0.531187
0.531187
0.531187
0.531187
0.531187
0.531187
0.531187
0.531187
0.531187
0.531187
0.531187
0.531187
0.531187
0.531187
0.531187
0.531187
0.531187
0.531187
0.531187
0.531187
0.531187
0.531187
0.531187
0.531187
0.531187
0.531187
0.531187
0.531187
0.531187
0.531187
0.531187
0.531187
0.531187
0.531187
0.531187
0.338295
0.271601
0.314394
0.464487
0.461666
0.424881
0.439778
0.447127
0.456751
0.463374
0.531187
0.531187
0.531187
0.531187
0.531187
0.531187
0.531187
0.531187
0.531187
0.531187
0.531187
0.531187
0.531187
0.531187
0.531187
0.531187
0.531187
0.531187
0.531187
0.531187
0.531187
0.531187
0.531187
0.531187
0.531187
0.531187
0.531187
0.531187
0.531187
0.531187
0.531187
0.531187
0.531187
0.531187
0.531187
0.531187
0.531187
0.531187
0.531187
0.531187
0.531187
0.531187
0.531187
0.531187
0.531187
0.531187
0.531187
0.531187
0.530566
0.530796
0.530706
0.530975
0.531187
0.531187
0.531015
0.531111
0.531134
0.53116
0.531166
0.531171
0.53117
0.531174
0.531176
0.531179
0.53118
0.531182
0.531183
0.531184
0.531185
0.531186
0.531186
0.531186
0.531187
0.531187
0.531187
0.531187
0.531187
0.531187
0.531187
0.531187
0.531187
0.531187
0.531187
0.531187
0.531187
0.531187
0.531187
0.531187
0.531187
0.531187
0.531187
0.531187
0.531187
0.531187
0.531187
0.531187
0.531187
0.531187
0.531187
0.531187
0.531187
0.531187
0.531187
0.531187
0.531187
0.531187
0.531187
0.531187
0.531187
0.531187
0.531187
0.530943
0.53097
0.530821
0.531187
0.531187
0.531187
0.530514
0.530524
0.530305
0.530316
0.531187
0.531187
0.531187
0.531187
0.529527
0.529508
0.529265
0.529258
0.531187
0.531187
0.531187
0.52857
0.528326
0.528204
0.531187
0.531187
0.527572
0.527446
0.531187
0.531187
0.531187
0.526635
0.52644
0.526355
0.531187
0.531187
0.525985
0.52581
0.52564
0.525419
0.531187
0.531187
0.531187
0.531187
0.524704
0.524402
0.524312
0.531187
0.531187
0.531187
0.523633
0.523363
0.523396
0.531187
0.531187
0.531187
0.531187
0.522322
0.522489
0.522243
0.522277
0.531187
0.531187
0.531187
0.531187
0.521543
0.521681
0.521333
0.521624
0.531187
0.531187
0.531187
0.521028
0.52055
0.52087
0.520441
0.531187
0.531187
0.531187
0.519852
0.520255
0.519805
0.52015
0.531187
0.531187
0.531187
0.519695
0.519035
0.51959
0.518969
0.531187
0.531187
0.531187
0.531187
0.518954
0.518068
0.51853
0.517671
0.531187
0.531187
0.531187
0.531187
0.517141
0.516311
0.517093
0.51672
0.517406
0.514549
0.516057
0.513444
0.517113
0.531187
0.531187
0.531187
0.36697
0.408046
0.531187
0.531187
0.531187
0.531187
)
;

boundaryField
{
    inlet
    {
        type            calculated;
        value           uniform 0;
    }
    outlet
    {
        type            calculated;
        value           uniform 0;
    }
    sideWall
    {
        type            empty;
    }
}


// ************************************************************************* //
