/*--------------------------------*- C++ -*----------------------------------*\
| =========                 |                                                 |
| \\      /  F ield         | foam-extend: Open Source CFD                    |
|  \\    /   O peration     | Version:     3.2                                |
|   \\  /    A nd           | Web:         http://www.foam-extend.org         |
|    \\/     M anipulation  | For copyright notice see file Copyright         |
\*---------------------------------------------------------------------------*/
FoamFile
{
    version     2.0;
    format      ascii;
    class       areaScalarField;
    location    "2020";
    object      dd;
}
// * * * * * * * * * * * * * * * * * * * * * * * * * * * * * * * * * * * * * //

dimensions      [0 1 0 0 0 0 0];

internalField   nonuniform List<scalar> 
300
(
0.000405
0.000405
0.000405
0.000405
0.000405
0.000405
0.000405
0.000405
0.000405
0.000405
0.000405
0.000405
0.000405
0.000405
0.000405
0.000405
0.000405
0.000405
0.000405
0.000405
0.000405
0.000405
0.000405
0.000405
0.000405
0.000405
0.000405
0.000405
0.000405
0.000405
0.000405
0.000405
0.000405
0.000405
0.000405
0.000405
0.000405
0.000405
0.000405
0.000405
0.000405
0.000405
0.000405
0.000405
0.000405
0.000405
0.000405
0.000405
0.000405
0.000405
0.000405
0.000405
0.000405
0.000405
0.000405
0.000405
0.000405
0.000405
0.000405
0.00251729
0.0054026
0.00589654
0.006117
0.00619157
0.00584889
0.00590464
0.00589027
0.00588628
0.0058567
0.00582314
0.00577921
0.00573187
0.00568421
0.00563731
0.00559232
0.00554966
0.00551065
0.00547553
0.00544428
0.00541696
0.00539343
0.00537384
0.00535774
0.00534439
0.00533345
0.00532455
0.00531755
0.00531205
0.00530829
0.00530582
0.00530393
0.00530261
0.00530159
0.00530091
0.00530042
0.00530007
0.00530019
0.00530061
0.00530092
0.00530114
0.00530137
0.00530135
0.00530141
0.0053013
0.00530128
0.00530114
0.00530146
0.00530172
0.00530197
0.00530201
0.00530213
0.005302
0.00530203
0.00530177
0.00530173
0.00530141
0.00530178
0.00530192
0.00530228
0.00530223
0.00530249
0.00530226
0.00530241
0.00530211
0.00530226
0.00530194
0.00530252
0.00530263
0.00530321
0.00530313
0.00530359
0.00530336
0.00530373
0.00530338
0.00530371
0.00530328
0.00530361
0.00530356
0.00530436
0.00530429
0.00530496
0.00530478
0.00530531
0.00530502
0.00530544
0.00530508
0.00530545
0.00530547
0.00530628
0.00530629
0.00530691
0.00530682
0.00530725
0.00530707
0.00530736
0.00530712
0.00530728
0.00530706
0.00530755
0.00530781
0.00530821
0.00530834
0.00530854
0.00530855
0.00530857
0.00530849
0.00530837
0.00530827
0.00530846
0.00530882
0.00530893
0.00530913
0.00530905
0.00530912
0.00530886
0.00530884
0.00530846
0.00530844
0.00530838
0.00530878
0.00530866
0.00530891
0.00530863
0.00530875
0.00530831
0.00530833
0.00530778
0.00530774
0.00530752
0.00530792
0.00530764
0.00530788
0.00530744
0.00530749
0.00530696
0.00530694
0.00530632
0.00530628
0.00530597
0.0053063
0.00530594
0.00530613
0.00530569
0.00530567
0.00530508
0.00530499
0.00530436
0.00530453
0.00530437
0.00530454
0.00530413
0.00530409
0.00530363
0.00530362
0.00530315
0.00530304
0.00530286
0.00530312
0.00530286
0.00530291
0.00530257
0.00530246
0.00530194
0.00530181
0.00530141
0.00530144
0.00530134
0.00530144
0.00530119
0.00530108
0.0053007
0.00530054
0.00530017
0.00529984
0.00529976
0.00529999
0.00529977
0.00529968
0.00529958
0.00529956
0.00529917
0.00529889
0.00529886
0.00529908
0.00529913
0.00529923
0.00529904
0.00529897
0.00529882
0.00529862
0.00529852
0.00529867
0.00529861
0.00529859
0.00529855
0.00529847
0.00529811
0.00529782
0.00529785
0.00529806
0.00529816
0.00529827
0.00529813
0.00529792
0.00529763
0.00529736
0.00529736
0.00529747
0.00529749
0.00529752
0.0052974
0.00529732
0.00529713
0.00529726
0.00529752
0.00529764
0.0052977
0.00529781
0.0052977
0.00529753
0.00529787
0.00529779
0.00529776
0.00529829
0.00529801
0.00529927
0.00529847
0.00529623
0.0052962
0.00529628
0.0052957
0.00529858
0.00529706
0.00535948
0.00575162
0.0052963
0.00246067
0.000405
0.000405
0.000405
)
;

boundaryField
{
    inlet
    {
        type            calculated;
        value           uniform 0;
    }
    outlet
    {
        type            calculated;
        value           uniform 0;
    }
    sideWall
    {
        type            empty;
    }
}


// ************************************************************************* //
