/*--------------------------------*- C++ -*----------------------------------*\
| =========                 |                                                 |
| \\      /  F ield         | foam-extend: Open Source CFD                    |
|  \\    /   O peration     | Version:     3.2                                |
|   \\  /    A nd           | Web:         http://www.foam-extend.org         |
|    \\/     M anipulation  | For copyright notice see file Copyright         |
\*---------------------------------------------------------------------------*/
FoamFile
{
    version     2.0;
    format      ascii;
    class       areaScalarField;
    location    "2020";
    object      ddmax;
}
// * * * * * * * * * * * * * * * * * * * * * * * * * * * * * * * * * * * * * //

dimensions      [0 1 0 0 0 0 0];

internalField   nonuniform List<scalar> 
300
(
0.000405
0.000405
0.000405
0.000405
0.000405
0.000405
0.000405
0.000405
0.000405
0.000405
0.000405
0.000405
0.000405
0.000405
0.000405
0.000405
0.000405
0.000405
0.000405
0.000405
0.000405
0.000405
0.000405
0.000405
0.000405
0.000405
0.000405
0.000405
0.000405
0.000405
0.000405
0.000405
0.000405
0.000405
0.000405
0.000405
0.000405
0.000405
0.000405
0.000405
0.000405
0.000405
0.000405
0.000405
0.000405
0.000405
0.000405
0.000405
0.000405
0.000405
0.000405
0.000405
0.000405
0.000405
0.000405
0.000405
0.000405
0.000405
0.000405
0.00268756
0.0060445
0.0063858
0.00621618
0.00629693
0.00601614
0.00604423
0.00601594
0.00599483
0.00595351
0.00590641
0.00585521
0.0058031
0.00575036
0.00569825
0.00564794
0.00560015
0.0055562
0.00551644
0.00548079
0.00544944
0.00542217
0.00539921
0.00538009
0.00536403
0.0053507
0.00533966
0.0053307
0.00532348
0.00531823
0.0053145
0.0053115
0.00530922
0.00530741
0.005306
0.00530491
0.00530401
0.00530367
0.00530371
0.00530363
0.00530357
0.00530348
0.00530336
0.0053032
0.00530299
0.00530278
0.00530253
0.00530267
0.00530297
0.00530308
0.00530313
0.00530309
0.00530299
0.00530284
0.00530263
0.00530242
0.0053022
0.00530234
0.00530261
0.00530271
0.00530276
0.00530273
0.00530264
0.00530251
0.0053023
0.00530235
0.005302
0.00530255
0.00530266
0.00530322
0.00530315
0.00530361
0.00530337
0.00530374
0.00530339
0.00530371
0.00530329
0.00530362
0.00530356
0.00530436
0.00530429
0.00530496
0.00530478
0.00530531
0.00530502
0.00530544
0.00530508
0.00530545
0.00530547
0.00530628
0.00530629
0.00530691
0.00530682
0.00530725
0.00530707
0.00530736
0.00530712
0.00530728
0.00530706
0.00530755
0.00530781
0.00530821
0.00530834
0.00530854
0.00530855
0.00530857
0.00530849
0.00530837
0.00530827
0.00530846
0.00530882
0.00530893
0.00530913
0.00530905
0.00530912
0.0053089
0.00530887
0.00530855
0.00530849
0.00530853
0.00530891
0.00530893
0.00530915
0.00530904
0.00530912
0.00530887
0.00530886
0.00530853
0.00530848
0.0053085
0.00530889
0.00530888
0.00530912
0.00530898
0.00530907
0.00530881
0.00530881
0.00530847
0.00530843
0.00530843
0.00530882
0.0053088
0.00530905
0.00530889
0.005309
0.00530873
0.00530874
0.0053084
0.00530872
0.00530879
0.0053091
0.00530901
0.00530919
0.00530895
0.00530903
0.00530869
0.00530873
0.0053087
0.00530915
0.00530909
0.00530939
0.00530918
0.00530934
0.00530902
0.00530909
0.0053087
0.00530907
0.00530907
0.00530944
0.00530927
0.00530952
0.00530921
0.00530936
0.00530895
0.00530906
0.00530894
0.00530947
0.00530931
0.00530969
0.0053094
0.00530966
0.00530923
0.00530943
0.00530929
0.00530988
0.00530969
0.00531014
0.00530979
0.00531012
0.00530963
0.00530991
0.00530971
0.00531038
0.00531012
0.00531065
0.00531024
0.00531065
0.00531009
0.00531045
0.00531016
0.00531093
0.00531056
0.00531119
0.00531065
0.00531118
0.00531045
0.00531093
0.00531041
0.00531129
0.00531066
0.00531141
0.00531057
0.00531128
0.0053106
0.00531171
0.00531143
0.00531259
0.00531211
0.00531323
0.00531252
0.00531365
0.00531305
0.00531463
0.0053138
0.0053153
0.0053141
0.0053158
0.0053142
0.00531532
0.00531351
0.00531669
0.00531177
0.00532402
0.00531918
0.00545674
0.00605257
0.00548005
0.00246067
0.000405
0.000405
0.000405
)
;

boundaryField
{
    inlet
    {
        type            calculated;
        value           uniform 0;
    }
    outlet
    {
        type            calculated;
        value           uniform 0;
    }
    sideWall
    {
        type            empty;
    }
}


// ************************************************************************* //
