/*--------------------------------*- C++ -*----------------------------------*\
| =========                 |                                                 |
| \\      /  F ield         | foam-extend: Open Source CFD                    |
|  \\    /   O peration     | Version:     3.2                                |
|   \\  /    A nd           | Web:         http://www.foam-extend.org         |
|    \\/     M anipulation  | For copyright notice see file Copyright         |
\*---------------------------------------------------------------------------*/
FoamFile
{
    version     2.0;
    format      ascii;
    class       areaScalarField;
    location    "2020";
    object      deltaHs;
}
// * * * * * * * * * * * * * * * * * * * * * * * * * * * * * * * * * * * * * //

dimensions      [0 1 -1 0 0 0 0];

internalField   nonuniform List<scalar> 
300
(
3.11046e-06
5.25094e-07
2.76678e-06
4.49828e-06
5.43699e-06
5.80297e-06
5.94677e-06
5.96432e-06
5.94152e-06
5.8939e-06
5.83705e-06
5.77831e-06
5.72108e-06
5.66035e-06
5.60205e-06
5.54195e-06
5.47811e-06
5.41452e-06
5.34946e-06
5.28389e-06
5.21806e-06
5.15189e-06
5.0839e-06
5.01479e-06
4.9485e-06
4.88764e-06
4.83284e-06
4.78447e-06
4.7425e-06
4.70625e-06
4.67499e-06
4.64838e-06
4.62623e-06
4.6082e-06
4.59362e-06
4.58137e-06
4.57125e-06
4.56257e-06
4.55539e-06
4.5491e-06
4.54398e-06
4.53934e-06
4.53574e-06
4.53225e-06
4.52978e-06
4.5271e-06
4.52541e-06
4.52316e-06
4.52253e-06
4.51957e-06
4.52203e-06
4.51414e-06
4.52785e-06
4.49742e-06
4.55832e-06
4.43112e-06
4.69817e-06
4.19234e-06
5.85291e-06
7.34447e-06
-3.48904e-11
-5.89071e-11
-5.90828e-12
-1.32032e-10
8.8607e-11
-1.31936e-10
8.48555e-11
-1.21096e-10
-1.94651e-10
-1.40378e-09
2.29858e-08
2.41424e-08
2.32564e-08
2.10156e-08
1.6336e-08
1.25542e-08
1.19681e-08
7.91336e-09
5.18556e-09
2.27586e-09
1.75131e-09
2.94834e-09
1.66213e-09
5.58672e-10
1.72434e-10
-7.30422e-11
-3.74666e-10
5.09075e-10
2.86535e-09
2.25533e-09
1.85043e-09
1.31684e-09
1.68865e-09
7.08711e-10
1.36625e-09
8.15034e-10
4.28874e-09
2.23408e-09
2.10104e-09
1.40666e-09
-4.04857e-11
1.95766e-09
-1.62321e-09
2.48164e-09
-3.19931e-09
3.06237e-09
-1.02898e-09
5.85161e-09
-4.05256e-09
5.87679e-09
-6.2826e-09
6.60924e-09
-8.4777e-09
8.04339e-09
-1.07585e-08
9.93448e-09
-9.66048e-09
1.38992e-08
-1.37735e-08
1.52368e-08
-1.70928e-08
1.7453e-08
-2.00592e-08
2.01136e-08
-2.38583e-08
2.31918e-08
-2.43111e-08
2.85489e-08
-2.96556e-08
3.1113e-08
-3.41347e-08
3.45441e-08
-3.83802e-08
3.83911e-08
-4.25861e-08
4.237e-08
-4.68214e-08
4.9767e-08
-4.93132e-08
5.24141e-08
-5.46309e-08
5.60833e-08
-5.91789e-08
5.98548e-08
-6.32835e-08
6.3533e-08
-6.69998e-08
7.02805e-08
-6.87145e-08
7.2019e-08
-7.29824e-08
7.44639e-08
-7.62032e-08
7.6849e-08
-7.8754e-08
7.89489e-08
-8.08821e-08
8.05507e-08
-7.91223e-08
8.33766e-08
-8.1563e-08
8.29222e-08
-8.25109e-08
8.25983e-08
-8.2716e-08
8.21132e-08
-8.24763e-08
8.13586e-08
-7.86639e-08
8.19334e-08
-7.90527e-08
7.93872e-08
-7.81243e-08
7.71752e-08
-7.65726e-08
7.49284e-08
-7.48256e-08
7.23902e-08
-6.96981e-08
7.14505e-08
-6.86948e-08
6.75216e-08
-6.66967e-08
6.40536e-08
-6.42816e-08
6.07924e-08
-6.17809e-08
5.75996e-08
-5.58988e-08
5.58793e-08
-5.43361e-08
5.14589e-08
-5.18533e-08
4.80625e-08
-4.94434e-08
4.45439e-08
-4.67505e-08
4.10683e-08
-4.08026e-08
3.96738e-08
-3.94095e-08
3.55761e-08
-3.73654e-08
3.24094e-08
-3.45337e-08
2.92478e-08
-3.20723e-08
2.94142e-08
-2.82167e-08
2.5353e-08
-2.66749e-08
2.2788e-08
-2.51536e-08
1.98832e-08
-2.3869e-08
1.76017e-08
-1.9398e-08
1.73151e-08
-1.89887e-08
1.49179e-08
-1.78734e-08
1.29878e-08
-1.61168e-08
1.06735e-08
-1.56728e-08
1.2549e-08
-1.25462e-08
9.5976e-09
-1.19832e-08
8.09403e-09
-1.15296e-08
7.13539e-09
-1.1564e-08
6.67447e-09
-7.63679e-09
6.91499e-09
-7.98069e-09
6.00427e-09
-8.72574e-09
3.89861e-09
-7.64951e-09
4.15734e-09
-4.85386e-09
4.70106e-09
-6.49094e-09
2.59225e-09
-6.2945e-09
1.70537e-09
-6.89279e-09
1.81167e-09
-3.15395e-09
2.79514e-09
-4.44821e-09
1.93806e-09
-5.3705e-09
8.70875e-10
-4.66388e-09
1.18766e-09
-2.24664e-09
1.82254e-09
-3.96469e-09
2.49749e-10
-3.99614e-09
2.31833e-10
-3.95711e-09
2.13659e-10
-1.34264e-09
1.64489e-09
-2.4983e-09
2.36351e-10
-2.54347e-09
-7.67655e-10
-2.68919e-09
1.28834e-09
-1.78686e-09
-5.2268e-10
-2.74942e-09
-2.02157e-09
-3.25655e-09
-1.13554e-09
-2.18606e-09
8.30233e-10
-1.48922e-09
-5.40842e-09
3.59956e-09
-1.26937e-08
-1.00592e-09
2.3938e-10
-8.51854e-10
4.06431e-10
-6.08556e-10
5.45544e-10
-4.32153e-10
6.20055e-10
-5.81379e-10
2.796e-10
6.84318e-06
6.79175e-06
5.33573e-06
5.14742e-06
)
;

boundaryField
{
    inlet
    {
        type            calculated;
        value           uniform 0;
    }
    outlet
    {
        type            calculated;
        value           uniform 0;
    }
    sideWall
    {
        type            empty;
    }
}


// ************************************************************************* //
