/*--------------------------------*- C++ -*----------------------------------*\
| =========                 |                                                 |
| \\      /  F ield         | foam-extend: Open Source CFD                    |
|  \\    /   O peration     | Version:     3.2                                |
|   \\  /    A nd           | Web:         http://www.foam-extend.org         |
|    \\/     M anipulation  | For copyright notice see file Copyright         |
\*---------------------------------------------------------------------------*/
FoamFile
{
    version     2.0;
    format      ascii;
    class       areaScalarField;
    location    "2020";
    object      deltaHb;
}
// * * * * * * * * * * * * * * * * * * * * * * * * * * * * * * * * * * * * * //

dimensions      [0 1 -1 0 0 0 0];

internalField   nonuniform List<scalar> 
300
(
0
0
0
0
0
0
0
0
0
0
0
0
0
0
0
0
0
0
0
0
0
0
0
0
0
0
0
0
0
0
0
0
0
0
0
0
0
0
0
0
0
0
0
0
0
0
0
0
0
0
0
0
0
0
0
0
0
0
0
0
0
0
0
0
0
0
0
0
0
0
-2.29396e-09
-2.45678e-09
-2.12188e-09
-1.47947e-09
3.86698e-09
7.84472e-09
8.52089e-09
1.17763e-08
1.35214e-08
1.51854e-08
1.473e-08
1.20547e-08
1.19544e-08
1.1474e-08
1.05324e-08
9.97154e-09
9.57708e-09
7.62731e-09
3.98055e-09
3.58201e-09
3.48564e-09
2.96834e-09
2.67857e-09
2.09823e-09
2.39465e-09
1.21584e-09
-1.07358e-09
-1.28443e-09
2.2108e-10
-6.28419e-10
8.27226e-10
1.56851e-10
1.31755e-09
1.34346e-10
1.50055e-09
2.05634e-10
-1.53389e-09
-1.74205e-09
4.29525e-10
-6.03027e-10
1.06009e-09
-2.56186e-10
1.5607e-09
-1.62176e-10
2.06997e-09
9.46406e-11
3.41121e-09
7.97413e-10
-1.39426e-10
-2.17933e-09
-2.0295e-09
-1.74529e-09
3.25733e-09
-1.94883e-10
1.47002e-09
-9.26039e-10
-9.66203e-10
-2.37482e-09
9.95148e-10
-1.16845e-09
1.61599e-09
-6.08176e-10
1.85835e-09
-2.62127e-10
1.90023e-09
6.88362e-11
1.86814e-09
-2.93244e-09
5.29133e-11
-1.1605e-09
1.07677e-09
-4.52957e-10
1.4088e-09
4.4686e-11
1.4396e-09
4.58825e-10
1.29101e-09
-2.44179e-09
-5.85833e-10
-6.40256e-10
4.26333e-10
8.63306e-11
7.7935e-10
4.48989e-10
8.96429e-10
6.26462e-10
1.06649e-09
7.9094e-10
-2.14619e-09
-7.912e-10
-6.3625e-10
3.44275e-10
-1.32516e-10
8.85866e-10
1.06491e-10
1.10596e-09
2.99831e-10
1.2068e-09
-2.70534e-09
-4.01582e-10
-1.15649e-09
7.53698e-10
-5.73178e-10
1.21342e-09
-2.77624e-10
1.3505e-09
-4.41091e-11
1.24245e-09
-2.91136e-09
1.51833e-09
2.07017e-10
1.6199e-09
-2.31338e-09
-1.48606e-09
-3.10619e-10
5.9825e-09
4.72714e-09
2.85711e-09
-1.43719e-09
-6.51203e-09
-7.34056e-09
5.40941e-10
-2.49478e-10
1.29086e-08
1.16412e-08
3.10266e-09
1.87535e-09
-1.25437e-08
-1.61573e-08
-4.54357e-10
1.79572e-08
2.09416e-08
2.25049e-09
-1.8891e-08
-2.12294e-08
2.71547e-08
2.68644e-08
-2.70721e-08
-2.83789e-08
1.94533e-10
3.27807e-08
3.49785e-08
2.0923e-09
-3.35917e-08
-3.4182e-08
3.80101e-08
3.65943e-08
1.92666e-09
2.89e-09
-3.91301e-08
-4.12393e-08
1.24692e-09
5.14614e-10
4.7077e-08
4.90736e-08
2.05072e-09
-4.9624e-08
-4.91776e-08
2.57503e-10
5.49061e-08
5.75681e-08
1.9296e-09
-5.53141e-08
-5.43326e-08
-1.79583e-09
-1.00616e-09
6.48116e-08
6.31112e-08
-4.3045e-13
2.28899e-09
-6.23876e-08
-6.3683e-08
-1.7025e-09
-1.09971e-09
6.88605e-08
6.87621e-08
2.41032e-09
7.21473e-10
-7.00529e-08
-6.80411e-08
-1.26018e-09
7.25288e-08
7.7394e-08
1.39785e-09
7.78424e-10
-7.38092e-08
-7.57895e-08
6.57385e-10
8.01759e-08
7.80486e-08
1.25394e-11
8.18215e-10
-8.13556e-08
-7.89427e-08
1.38649e-09
8.37932e-08
8.6802e-08
4.61302e-10
3.77189e-10
-8.34341e-08
-8.80781e-08
5.87464e-10
3.98744e-10
8.69001e-08
9.39836e-08
3.09133e-09
2.95156e-09
-9.22056e-08
-9.59823e-08
3.31846e-11
-2.79896e-09
1.04016e-07
1.05898e-07
3.24648e-09
-5.42409e-09
-1.04075e-08
0
0
0
0
0
0
0
0
0
0
0
0
0
0
)
;

boundaryField
{
    inlet
    {
        type            zeroGradient;
    }
    outlet
    {
        type            zeroGradient;
    }
    sideWall
    {
        type            empty;
    }
}


// ************************************************************************* //
