/*--------------------------------*- C++ -*----------------------------------*\
| =========                 |                                                 |
| \\      /  F ield         | foam-extend: Open Source CFD                    |
|  \\    /   O peration     | Version:     3.2                                |
|   \\  /    A nd           | Web:         http://www.foam-extend.org         |
|    \\/     M anipulation  | For copyright notice see file Copyright         |
\*---------------------------------------------------------------------------*/
FoamFile
{
    version     2.0;
    format      ascii;
    class       areaScalarField;
    location    "2020";
    object      deltaH;
}
// * * * * * * * * * * * * * * * * * * * * * * * * * * * * * * * * * * * * * //

dimensions      [0 1 -1 0 0 0 0];

internalField   nonuniform List<scalar> 
300
(
0
0
0
0
0
0
0
0
0
0
0
0
0
0
0
0
0
0
0
0
0
0
0
0
0
0
0
0
0
0
0
0
0
0
0
0
0
0
0
0
0
0
0
0
0
0
0
0
0
0
0
0
0
0
0
0
0
0
0
0
-3.48904e-11
-5.89071e-11
-5.90828e-12
-1.32032e-10
8.8607e-11
-1.31936e-10
8.48555e-11
-1.21096e-10
-1.94651e-10
-1.40378e-09
2.06919e-08
2.16856e-08
2.11345e-08
1.95361e-08
2.0203e-08
2.03989e-08
2.0489e-08
1.96897e-08
1.87069e-08
1.74613e-08
1.64813e-08
1.50031e-08
1.36165e-08
1.20327e-08
1.07048e-08
9.89849e-09
9.20241e-09
8.13638e-09
6.8459e-09
5.83734e-09
5.33607e-09
4.28518e-09
4.36722e-09
2.80694e-09
3.7609e-09
2.03088e-09
3.21516e-09
9.49649e-10
2.32212e-09
7.78236e-10
7.86741e-10
2.11451e-09
-3.05653e-10
2.61599e-09
-1.69876e-09
3.268e-09
-2.56287e-09
4.10957e-09
-3.62303e-09
5.27376e-09
-5.22251e-09
6.35305e-09
-6.917e-09
7.88121e-09
-8.68848e-09
1.00291e-08
-6.24926e-09
1.46966e-08
-1.39129e-08
1.30575e-08
-1.91223e-08
1.57077e-08
-1.68019e-08
1.99188e-08
-2.23883e-08
2.22657e-08
-2.52773e-08
2.61741e-08
-2.86604e-08
2.99445e-08
-3.25187e-08
3.3936e-08
-3.65218e-08
3.8129e-08
-4.06859e-08
4.24388e-08
-4.49533e-08
4.68345e-08
-4.92603e-08
5.12536e-08
-5.35541e-08
5.56303e-08
-5.77701e-08
5.98995e-08
-6.18439e-08
6.39918e-08
-6.57088e-08
6.78387e-08
-6.93003e-08
7.13787e-08
-7.2556e-08
7.45502e-08
-7.54238e-08
7.7298e-08
-7.78575e-08
7.95754e-08
-7.98156e-08
8.13417e-08
-8.12685e-08
8.25854e-08
-8.21992e-08
8.32665e-08
-8.26434e-08
8.34842e-08
-8.26095e-08
8.32192e-08
-8.21764e-08
8.25654e-08
-8.13693e-08
8.15318e-08
-8.02092e-08
8.01409e-08
-7.86975e-08
7.83886e-08
-7.68502e-08
7.62789e-08
-7.48697e-08
7.36327e-08
-7.26095e-08
7.29688e-08
-6.84877e-08
6.91415e-08
-6.90101e-08
6.25675e-08
-6.45922e-08
6.67749e-08
-5.70538e-08
6.04567e-08
-5.7336e-08
4.93673e-08
-6.16766e-08
5.19999e-08
-5.21028e-08
6.09711e-08
-3.78022e-08
4.76466e-08
-4.48751e-08
2.85247e-08
-5.69599e-08
3.92194e-08
-2.14523e-08
5.65177e-08
-3.51149e-08
1.35184e-08
-5.5763e-08
5.64025e-08
-5.20792e-09
2.34208e-09
-5.65955e-08
2.55475e-08
6.10575e-09
5.77665e-08
-2.30613e-08
-1.37086e-08
-5.8051e-08
5.56119e-08
1.71963e-08
1.92418e-08
-1.60987e-08
-2.42122e-08
-5.91127e-08
1.42347e-08
-1.56022e-08
5.77505e-08
3.34008e-08
1.45997e-08
-6.21703e-08
-3.958e-08
-1.17257e-08
6.30001e-08
4.60384e-08
9.065e-09
-6.68781e-08
-4.76581e-08
-9.43262e-09
5.90883e-09
5.68309e-08
6.91155e-08
-8.72617e-09
6.18761e-09
-7.00371e-08
-5.95257e-08
-6.55636e-09
3.60136e-09
6.23695e-08
7.13544e-08
-3.88418e-09
2.42685e-09
-7.69457e-08
-6.62294e-08
-4.41413e-09
7.5324e-08
7.29458e-08
3.33591e-09
-4.59207e-09
-7.29383e-08
-8.04534e-08
1.84505e-09
7.79293e-08
7.98712e-08
-3.95215e-09
1.06796e-09
-8.53517e-08
-7.87108e-08
-2.57062e-09
8.40069e-08
8.54593e-08
2.10619e-09
-2.12111e-09
-8.31977e-08
-9.06215e-08
-1.80191e-10
-2.29045e-09
8.81884e-08
9.21968e-08
2.56865e-09
2.0214e-10
-9.42271e-08
-9.92389e-08
-1.10235e-09
-4.98502e-09
1.04846e-07
1.04409e-07
-2.16194e-09
-1.82453e-09
-2.31013e-08
-1.00592e-09
2.3938e-10
-8.51854e-10
4.06431e-10
-6.08556e-10
5.45544e-10
-4.32153e-10
6.20055e-10
-5.81379e-10
2.796e-10
0
0
0
0
)
;

boundaryField
{
    inlet
    {
        type            zeroGradient;
    }
    outlet
    {
        type            zeroGradient;
    }
    sideWall
    {
        type            empty;
    }
}


// ************************************************************************* //
