/*--------------------------------*- C++ -*----------------------------------*\
| =========                 |                                                 |
| \\      /  F ield         | foam-extend: Open Source CFD                    |
|  \\    /   O peration     | Version:     3.2                                |
|   \\  /    A nd           | Web:         http://www.foam-extend.org         |
|    \\/     M anipulation  | For copyright notice see file Copyright         |
\*---------------------------------------------------------------------------*/
FoamFile
{
    version     2.0;
    format      ascii;
    class       volScalarField;
    location    "2020";
    object      DiSSt;
}
// * * * * * * * * * * * * * * * * * * * * * * * * * * * * * * * * * * * * * //

dimensions      [0 2 -1 0 0 0 0];

internalField   nonuniform List<scalar> 
2400
(
2.38776e-05
2.63388e-05
2.09394e-05
1.76182e-05
1.6515e-05
1.60516e-05
1.59494e-05
1.62347e-05
1.6644e-05
1.70506e-05
1.74088e-05
1.77216e-05
1.79697e-05
1.82145e-05
1.84096e-05
1.85916e-05
1.8765e-05
1.89149e-05
1.90513e-05
1.91756e-05
1.92882e-05
1.93964e-05
1.95139e-05
1.96364e-05
1.97524e-05
1.98564e-05
1.99478e-05
2.00255e-05
2.00906e-05
2.01443e-05
2.01889e-05
2.02245e-05
2.02526e-05
2.02734e-05
2.02897e-05
2.03021e-05
2.03122e-05
2.03198e-05
2.03265e-05
2.03314e-05
2.0336e-05
2.03393e-05
2.03425e-05
2.03448e-05
2.03472e-05
2.03486e-05
2.03508e-05
2.03518e-05
2.03515e-05
2.03563e-05
2.03477e-05
2.0368e-05
2.03284e-05
2.04118e-05
2.02412e-05
2.05954e-05
1.98574e-05
2.13691e-05
1.74114e-05
2.45295e-05
3.13652e-05
2.53424e-05
2.60924e-05
2.62982e-05
2.26972e-05
2.41857e-05
2.39823e-05
2.44441e-05
2.45269e-05
2.47516e-05
2.49182e-05
2.50685e-05
2.51959e-05
2.53086e-05
2.54048e-05
2.5483e-05
2.55534e-05
2.5609e-05
2.56535e-05
2.56878e-05
2.57118e-05
2.57321e-05
2.57465e-05
2.57525e-05
2.57572e-05
2.57571e-05
2.57551e-05
2.57505e-05
2.57501e-05
2.57475e-05
2.57429e-05
2.57387e-05
2.57345e-05
2.57315e-05
2.57269e-05
2.57241e-05
2.57228e-05
2.57232e-05
2.57208e-05
2.57186e-05
2.57203e-05
2.57141e-05
2.57196e-05
2.57096e-05
2.57198e-05
2.57063e-05
2.57188e-05
2.57096e-05
2.57212e-05
2.57059e-05
2.57223e-05
2.57025e-05
2.57236e-05
2.56989e-05
2.57258e-05
2.56954e-05
2.57258e-05
2.5698e-05
2.57287e-05
2.56936e-05
2.57301e-05
2.56897e-05
2.57311e-05
2.56849e-05
2.57344e-05
2.56805e-05
2.57355e-05
2.56823e-05
2.57383e-05
2.56775e-05
2.57395e-05
2.5673e-05
2.57401e-05
2.56691e-05
2.57403e-05
2.56661e-05
2.57407e-05
2.5662e-05
2.57468e-05
2.56605e-05
2.57458e-05
2.56575e-05
2.57444e-05
2.5655e-05
2.57426e-05
2.56535e-05
2.5741e-05
2.56513e-05
2.57451e-05
2.56516e-05
2.57422e-05
2.56506e-05
2.57393e-05
2.56497e-05
2.57365e-05
2.56491e-05
2.57344e-05
2.56493e-05
2.57308e-05
2.56556e-05
2.57288e-05
2.5656e-05
2.57257e-05
2.56561e-05
2.57232e-05
2.56564e-05
2.57209e-05
2.56572e-05
2.57187e-05
2.56633e-05
2.57179e-05
2.56645e-05
2.57152e-05
2.56655e-05
2.57127e-05
2.56667e-05
2.57107e-05
2.56682e-05
2.57092e-05
2.56747e-05
2.57088e-05
2.56763e-05
2.57069e-05
2.56776e-05
2.57053e-05
2.56788e-05
2.57042e-05
2.56802e-05
2.57032e-05
2.56869e-05
2.57034e-05
2.56881e-05
2.57026e-05
2.56884e-05
2.57017e-05
2.56898e-05
2.57009e-05
2.56911e-05
2.57008e-05
2.56967e-05
2.57018e-05
2.56972e-05
2.57013e-05
2.56979e-05
2.56996e-05
2.56987e-05
2.56992e-05
2.56999e-05
2.57039e-05
2.57026e-05
2.57032e-05
2.57017e-05
2.57027e-05
2.57026e-05
2.57036e-05
2.57025e-05
2.57035e-05
2.57067e-05
2.57045e-05
2.57058e-05
2.57038e-05
2.5706e-05
2.5703e-05
2.5706e-05
2.57038e-05
2.57062e-05
2.57066e-05
2.5708e-05
2.57063e-05
2.57068e-05
2.57058e-05
2.5705e-05
2.5707e-05
2.57044e-05
2.57057e-05
2.57091e-05
2.57067e-05
2.57062e-05
2.57065e-05
2.57076e-05
2.57056e-05
2.57046e-05
2.57068e-05
2.57088e-05
2.5708e-05
2.57089e-05
2.5707e-05
2.5707e-05
2.57075e-05
2.5706e-05
2.5707e-05
2.57084e-05
2.57074e-05
2.57069e-05
2.57078e-05
2.57074e-05
2.57067e-05
2.57045e-05
2.5707e-05
2.57085e-05
2.57079e-05
2.57087e-05
2.5708e-05
2.57066e-05
2.57067e-05
2.57045e-05
2.57065e-05
2.57075e-05
2.5707e-05
2.57075e-05
2.57066e-05
2.57071e-05
2.57058e-05
2.57064e-05
2.57086e-05
2.57073e-05
2.57081e-05
2.57071e-05
2.57103e-05
2.57024e-05
2.57098e-05
2.57081e-05
2.57045e-05
2.57124e-05
2.56933e-05
2.57197e-05
2.57134e-05
2.56943e-05
2.57072e-05
2.56946e-05
2.57236e-05
2.56543e-05
2.58301e-05
2.49415e-05
2.69094e-05
3.04165e-05
2.14245e-05
1.72939e-05
1.91254e-05
1.96805e-05
1.69439e-05
1.92698e-05
2.55032e-05
2.85647e-05
3.0745e-05
3.29182e-05
3.48714e-05
3.65167e-05
3.79685e-05
3.92077e-05
4.02562e-05
4.11559e-05
4.1925e-05
4.26198e-05
4.32027e-05
4.37422e-05
4.42302e-05
4.46616e-05
4.5059e-05
4.54243e-05
4.5757e-05
4.60664e-05
4.63574e-05
4.66168e-05
4.68368e-05
4.70183e-05
4.71644e-05
4.72784e-05
4.73662e-05
4.74315e-05
4.74801e-05
4.7514e-05
4.75379e-05
4.7553e-05
4.75632e-05
4.75688e-05
4.75728e-05
4.75744e-05
4.75761e-05
4.75762e-05
4.75771e-05
4.75766e-05
4.75772e-05
4.75763e-05
4.75769e-05
4.75756e-05
4.75767e-05
4.75752e-05
4.75747e-05
4.75762e-05
4.75705e-05
4.75824e-05
4.75579e-05
4.76081e-05
4.75044e-05
4.77167e-05
4.72557e-05
4.79611e-05
4.52566e-05
5.1151e-05
4.4993e-05
4.49729e-05
4.85317e-05
5.01847e-05
4.98768e-05
5.22834e-05
5.30581e-05
5.42006e-05
5.49276e-05
5.56507e-05
5.62317e-05
5.67059e-05
5.70772e-05
5.73683e-05
5.75845e-05
5.77399e-05
5.78474e-05
5.79105e-05
5.79419e-05
5.79476e-05
5.79344e-05
5.79114e-05
5.78783e-05
5.78411e-05
5.78013e-05
5.77635e-05
5.77247e-05
5.76902e-05
5.76604e-05
5.76322e-05
5.7607e-05
5.75869e-05
5.75695e-05
5.7556e-05
5.7543e-05
5.75338e-05
5.75269e-05
5.75219e-05
5.75158e-05
5.75121e-05
5.75113e-05
5.75054e-05
5.75096e-05
5.75002e-05
5.75092e-05
5.74966e-05
5.75078e-05
5.74979e-05
5.75084e-05
5.74938e-05
5.75092e-05
5.74905e-05
5.75106e-05
5.74871e-05
5.75126e-05
5.74835e-05
5.75124e-05
5.74836e-05
5.75129e-05
5.74779e-05
5.75136e-05
5.74733e-05
5.75141e-05
5.7468e-05
5.75164e-05
5.74624e-05
5.75164e-05
5.74607e-05
5.75164e-05
5.74537e-05
5.75163e-05
5.74475e-05
5.75161e-05
5.7442e-05
5.75153e-05
5.74368e-05
5.75143e-05
5.74311e-05
5.75176e-05
5.7425e-05
5.75145e-05
5.74192e-05
5.75119e-05
5.74142e-05
5.75092e-05
5.74101e-05
5.75065e-05
5.74062e-05
5.75081e-05
5.74022e-05
5.75037e-05
5.73986e-05
5.75001e-05
5.7396e-05
5.74971e-05
5.73939e-05
5.74945e-05
5.73926e-05
5.74906e-05
5.73957e-05
5.74867e-05
5.73946e-05
5.74836e-05
5.73949e-05
5.74813e-05
5.73959e-05
5.74795e-05
5.73977e-05
5.7477e-05
5.74033e-05
5.74744e-05
5.74049e-05
5.74724e-05
5.74076e-05
5.74711e-05
5.74108e-05
5.74704e-05
5.74143e-05
5.74694e-05
5.74212e-05
5.7468e-05
5.74241e-05
5.74674e-05
5.74279e-05
5.74676e-05
5.74316e-05
5.74685e-05
5.74355e-05
5.74685e-05
5.7443e-05
5.74681e-05
5.74458e-05
5.7469e-05
5.74488e-05
5.74704e-05
5.74526e-05
5.74714e-05
5.74564e-05
5.74725e-05
5.74628e-05
5.7473e-05
5.74646e-05
5.74741e-05
5.74674e-05
5.74744e-05
5.74709e-05
5.74758e-05
5.74742e-05
5.7481e-05
5.74764e-05
5.74806e-05
5.74772e-05
5.74817e-05
5.74799e-05
5.7484e-05
5.74812e-05
5.74845e-05
5.7485e-05
5.74846e-05
5.74852e-05
5.74855e-05
5.7487e-05
5.74861e-05
5.74884e-05
5.74875e-05
5.74893e-05
5.74903e-05
5.74904e-05
5.749e-05
5.74898e-05
5.74904e-05
5.74895e-05
5.74927e-05
5.74891e-05
5.74918e-05
5.7493e-05
5.74908e-05
5.74904e-05
5.74914e-05
5.74915e-05
5.7491e-05
5.74905e-05
5.74932e-05
5.74933e-05
5.74922e-05
5.74924e-05
5.74914e-05
5.74914e-05
5.74933e-05
5.74918e-05
5.74934e-05
5.74931e-05
5.74922e-05
5.74918e-05
5.74932e-05
5.74926e-05
5.74929e-05
5.7491e-05
5.74937e-05
5.74932e-05
5.74926e-05
5.74933e-05
5.7493e-05
5.74918e-05
5.74929e-05
5.74906e-05
5.74929e-05
5.74924e-05
5.74918e-05
5.74921e-05
5.74916e-05
5.74922e-05
5.74915e-05
5.7492e-05
5.7493e-05
5.74912e-05
5.7492e-05
5.74911e-05
5.74942e-05
5.7488e-05
5.7495e-05
5.74919e-05
5.749e-05
5.74943e-05
5.74801e-05
5.75025e-05
5.74909e-05
5.74822e-05
5.74925e-05
5.74848e-05
5.75016e-05
5.74593e-05
5.75229e-05
5.67812e-05
5.80125e-05
5.19847e-05
4.50765e-05
4.98484e-05
5.36745e-05
5.29644e-05
1.89871e-05
1.59123e-05
1.83309e-05
2.25009e-05
2.7484e-05
3.26566e-05
3.68126e-05
4.08985e-05
4.46053e-05
4.79139e-05
5.08887e-05
5.35132e-05
5.58797e-05
5.79137e-05
5.95455e-05
6.09125e-05
6.21448e-05
6.32578e-05
6.4275e-05
6.52021e-05
6.6044e-05
6.6785e-05
6.74152e-05
6.79385e-05
6.83629e-05
6.87003e-05
6.89642e-05
6.91676e-05
6.93229e-05
6.94412e-05
6.953e-05
6.95956e-05
6.96431e-05
6.9678e-05
6.97052e-05
6.97272e-05
6.97453e-05
6.97605e-05
6.97731e-05
6.97836e-05
6.97924e-05
6.97996e-05
6.98059e-05
6.98107e-05
6.98154e-05
6.98187e-05
6.98221e-05
6.98241e-05
6.98265e-05
6.9827e-05
6.98298e-05
6.98285e-05
6.98357e-05
6.98251e-05
6.98512e-05
6.97887e-05
6.98423e-05
6.84238e-05
6.27682e-05
7.3706e-05
6.55078e-05
6.17733e-05
6.24734e-05
6.35546e-05
6.73014e-05
7.03317e-05
7.27752e-05
7.46269e-05
7.62383e-05
7.75487e-05
7.8628e-05
7.95284e-05
8.02593e-05
8.08371e-05
8.12787e-05
8.16107e-05
8.18493e-05
8.20126e-05
8.2117e-05
8.21758e-05
8.22026e-05
8.2205e-05
8.21904e-05
8.21638e-05
8.21321e-05
8.20949e-05
8.20576e-05
8.2022e-05
8.19896e-05
8.19611e-05
8.19359e-05
8.19142e-05
8.18962e-05
8.1881e-05
8.18678e-05
8.18583e-05
8.18508e-05
8.1844e-05
8.18387e-05
8.1835e-05
8.18318e-05
8.18296e-05
8.18279e-05
8.18265e-05
8.18254e-05
8.18251e-05
8.1825e-05
8.18238e-05
8.18234e-05
8.18221e-05
8.18217e-05
8.18202e-05
8.18201e-05
8.18183e-05
8.18183e-05
8.18167e-05
8.18174e-05
8.18144e-05
8.18147e-05
8.18107e-05
8.18112e-05
8.18063e-05
8.18075e-05
8.18023e-05
8.18038e-05
8.17985e-05
8.18009e-05
8.17936e-05
8.17962e-05
8.17874e-05
8.17908e-05
8.17807e-05
8.17852e-05
8.17738e-05
8.17794e-05
8.17665e-05
8.17739e-05
8.17624e-05
8.17696e-05
8.17541e-05
8.17626e-05
8.17453e-05
8.17555e-05
8.17367e-05
8.17486e-05
8.17284e-05
8.17428e-05
8.1724e-05
8.17386e-05
8.17161e-05
8.17322e-05
8.17083e-05
8.17262e-05
8.17014e-05
8.17211e-05
8.16954e-05
8.17165e-05
8.1691e-05
8.1714e-05
8.16871e-05
8.17109e-05
8.16833e-05
8.17085e-05
8.16804e-05
8.17072e-05
8.16786e-05
8.17066e-05
8.1678e-05
8.17082e-05
8.16779e-05
8.17091e-05
8.16783e-05
8.17103e-05
8.16794e-05
8.17121e-05
8.16814e-05
8.17143e-05
8.16845e-05
8.17185e-05
8.16877e-05
8.17217e-05
8.16913e-05
8.17251e-05
8.16955e-05
8.17288e-05
8.17003e-05
8.17326e-05
8.17055e-05
8.17382e-05
8.17106e-05
8.17426e-05
8.17163e-05
8.17467e-05
8.17218e-05
8.17511e-05
8.17271e-05
8.17552e-05
8.17331e-05
8.17609e-05
8.17389e-05
8.1765e-05
8.17445e-05
8.17691e-05
8.17489e-05
8.17728e-05
8.17541e-05
8.17768e-05
8.17623e-05
8.17821e-05
8.17665e-05
8.17847e-05
8.17702e-05
8.17876e-05
8.1775e-05
8.17906e-05
8.1779e-05
8.17942e-05
8.1782e-05
8.17962e-05
8.17856e-05
8.17986e-05
8.17882e-05
8.18005e-05
8.17915e-05
8.18026e-05
8.17959e-05
8.18052e-05
8.17984e-05
8.18064e-05
8.1799e-05
8.18069e-05
8.18019e-05
8.18078e-05
8.18025e-05
8.18095e-05
8.1804e-05
8.18094e-05
8.18049e-05
8.18103e-05
8.18047e-05
8.18101e-05
8.18077e-05
8.1812e-05
8.18086e-05
8.18122e-05
8.18081e-05
8.18117e-05
8.18089e-05
8.18123e-05
8.18108e-05
8.18138e-05
8.18104e-05
8.18129e-05
8.18109e-05
8.18136e-05
8.18109e-05
8.18131e-05
8.18124e-05
8.18145e-05
8.18119e-05
8.1814e-05
8.18123e-05
8.18138e-05
8.18122e-05
8.18133e-05
8.18125e-05
8.18141e-05
8.18116e-05
8.18133e-05
8.18112e-05
8.18133e-05
8.18121e-05
8.18138e-05
8.18142e-05
8.18143e-05
8.18122e-05
8.18126e-05
8.18121e-05
8.18122e-05
8.18141e-05
8.1815e-05
8.18109e-05
8.18139e-05
8.18101e-05
8.18146e-05
8.18137e-05
8.17965e-05
8.18052e-05
8.18083e-05
8.18119e-05
8.18095e-05
8.18217e-05
8.16004e-05
8.25437e-05
8.253e-05
7.08644e-05
6.09375e-05
7.2276e-05
7.44413e-05
7.52775e-05
3.63313e-05
2.17359e-05
1.8464e-05
1.83646e-05
2.05273e-05
2.42062e-05
2.89555e-05
3.41626e-05
3.82103e-05
4.25344e-05
4.69002e-05
5.10427e-05
5.49475e-05
5.85525e-05
6.1996e-05
6.50892e-05
6.7816e-05
7.03492e-05
7.26194e-05
7.47583e-05
7.67551e-05
7.82196e-05
7.94959e-05
8.05873e-05
8.15082e-05
8.22786e-05
8.29215e-05
8.34563e-05
8.39021e-05
8.42739e-05
8.45828e-05
8.48385e-05
8.50496e-05
8.52262e-05
8.53765e-05
8.55051e-05
8.56154e-05
8.57096e-05
8.57905e-05
8.58592e-05
8.59184e-05
8.59683e-05
8.60117e-05
8.60478e-05
8.60799e-05
8.61059e-05
8.61296e-05
8.61481e-05
8.61649e-05
8.61776e-05
8.61912e-05
8.61993e-05
8.62146e-05
8.62116e-05
8.62444e-05
8.61925e-05
8.62504e-05
8.4882e-05
7.50292e-05
9.05457e-05
8.38819e-05
7.4525e-05
7.15063e-05
7.03496e-05
7.36311e-05
7.71997e-05
8.08652e-05
8.39639e-05
8.65954e-05
8.87508e-05
9.05738e-05
9.21438e-05
9.34814e-05
9.46044e-05
9.553e-05
9.62847e-05
9.6887e-05
9.73577e-05
9.77189e-05
9.79893e-05
9.81893e-05
9.83319e-05
9.84288e-05
9.8491e-05
9.8527e-05
9.85422e-05
9.85445e-05
9.85401e-05
9.85316e-05
9.8521e-05
9.85086e-05
9.84968e-05
9.84857e-05
9.84755e-05
9.84663e-05
9.84592e-05
9.84539e-05
9.84485e-05
9.84441e-05
9.84411e-05
9.84385e-05
9.84366e-05
9.84355e-05
9.84341e-05
9.84337e-05
9.84334e-05
9.84339e-05
9.8433e-05
9.84328e-05
9.84311e-05
9.84309e-05
9.84288e-05
9.84291e-05
9.84265e-05
9.8427e-05
9.84248e-05
9.84261e-05
9.84227e-05
9.84229e-05
9.84179e-05
9.84182e-05
9.84122e-05
9.84131e-05
9.84067e-05
9.84082e-05
9.84019e-05
9.84044e-05
9.83964e-05
9.83982e-05
9.83881e-05
9.83904e-05
9.83792e-05
9.83824e-05
9.837e-05
9.83741e-05
9.83604e-05
9.83663e-05
9.83543e-05
9.83602e-05
9.83443e-05
9.83503e-05
9.83326e-05
9.83397e-05
9.83209e-05
9.83294e-05
9.83097e-05
9.83204e-05
9.83026e-05
9.83138e-05
9.82926e-05
9.83042e-05
9.82817e-05
9.82946e-05
9.82718e-05
9.82862e-05
9.8263e-05
9.82787e-05
9.82566e-05
9.82742e-05
9.82513e-05
9.82688e-05
9.82453e-05
9.82638e-05
9.82403e-05
9.82603e-05
9.82371e-05
9.82582e-05
9.82359e-05
9.82592e-05
9.82361e-05
9.82593e-05
9.82359e-05
9.82596e-05
9.82365e-05
9.8261e-05
9.82386e-05
9.82634e-05
9.82426e-05
9.82687e-05
9.82475e-05
9.82727e-05
9.82517e-05
9.82768e-05
9.82566e-05
9.82816e-05
9.82625e-05
9.8287e-05
9.82695e-05
9.82949e-05
9.82773e-05
9.83011e-05
9.82841e-05
9.8307e-05
9.82911e-05
9.83134e-05
9.82984e-05
9.83198e-05
9.83065e-05
9.83284e-05
9.83151e-05
9.83348e-05
9.83225e-05
9.83411e-05
9.83286e-05
9.83467e-05
9.83355e-05
9.83532e-05
9.83461e-05
9.8362e-05
9.83528e-05
9.83666e-05
9.8358e-05
9.83716e-05
9.83646e-05
9.83768e-05
9.83704e-05
9.83828e-05
9.83759e-05
9.83865e-05
9.83802e-05
9.839e-05
9.83838e-05
9.83935e-05
9.83887e-05
9.83976e-05
9.83947e-05
9.84024e-05
9.83985e-05
9.84047e-05
9.84002e-05
9.84064e-05
9.84038e-05
9.84088e-05
9.84054e-05
9.84116e-05
9.84083e-05
9.84121e-05
9.84097e-05
9.84141e-05
9.84102e-05
9.84142e-05
9.8413e-05
9.84173e-05
9.84156e-05
9.84183e-05
9.84155e-05
9.8418e-05
9.84162e-05
9.84189e-05
9.84181e-05
9.8421e-05
9.84188e-05
9.84204e-05
9.84193e-05
9.84214e-05
9.84195e-05
9.84212e-05
9.8421e-05
9.84235e-05
9.84219e-05
9.84232e-05
9.84218e-05
9.84227e-05
9.84216e-05
9.84228e-05
9.84224e-05
9.8424e-05
9.8422e-05
9.8423e-05
9.84211e-05
9.84228e-05
9.84222e-05
9.84241e-05
9.84252e-05
9.84252e-05
9.84231e-05
9.84229e-05
9.84222e-05
9.84225e-05
9.84245e-05
9.84259e-05
9.84225e-05
9.84244e-05
9.84209e-05
9.84239e-05
9.84238e-05
9.84079e-05
9.84136e-05
9.84164e-05
9.84203e-05
9.84191e-05
9.84345e-05
9.8248e-05
9.91514e-05
9.90763e-05
8.71234e-05
7.80287e-05
8.56005e-05
8.82437e-05
8.9919e-05
9.19216e-05
4.5748e-05
3.10428e-05
2.49904e-05
2.23976e-05
2.17209e-05
2.3081e-05
2.58649e-05
2.97153e-05
3.43942e-05
3.85179e-05
4.23572e-05
4.63571e-05
5.05632e-05
5.48057e-05
5.8976e-05
6.29638e-05
6.68411e-05
7.06501e-05
7.44731e-05
7.8228e-05
8.19896e-05
8.42304e-05
8.61697e-05
8.7871e-05
8.93632e-05
9.06736e-05
9.1821e-05
9.28241e-05
9.36967e-05
9.4451e-05
9.50996e-05
9.56559e-05
9.61354e-05
9.65504e-05
9.69086e-05
9.72178e-05
9.74836e-05
9.77124e-05
9.79083e-05
9.8077e-05
9.82209e-05
9.83451e-05
9.84506e-05
9.85421e-05
9.86195e-05
9.86865e-05
9.8743e-05
9.87914e-05
9.88319e-05
9.8869e-05
9.88978e-05
9.89301e-05
9.89442e-05
9.8991e-05
9.89633e-05
9.90365e-05
9.79483e-05
9.30512e-05
0.000102805
9.80842e-05
8.86595e-05
8.36328e-05
7.7774e-05
7.79667e-05
7.98967e-05
8.29892e-05
8.64199e-05
8.98119e-05
9.2966e-05
9.58576e-05
9.84439e-05
0.000100692
0.000102611
0.00010422
0.000105554
0.000106643
0.000107521
0.000108222
0.000108775
0.000109211
0.000109548
0.000109805
0.000109998
0.000110138
0.000110239
0.000110311
0.000110364
0.000110402
0.000110428
0.000110445
0.000110457
0.000110465
0.000110471
0.000110474
0.000110477
0.000110479
0.00011048
0.000110481
0.000110482
0.000110483
0.000110484
0.000110485
0.000110485
0.000110486
0.000110487
0.000110488
0.000110488
0.000110489
0.000110488
0.000110488
0.000110486
0.000110487
0.000110484
0.000110485
0.000110482
0.000110484
0.00011048
0.00011048
0.000110475
0.000110476
0.000110469
0.00011047
0.000110463
0.000110464
0.000110457
0.000110459
0.000110451
0.000110452
0.000110442
0.000110443
0.000110432
0.000110434
0.000110421
0.000110424
0.00011041
0.000110414
0.000110401
0.000110406
0.00011039
0.000110395
0.000110377
0.000110382
0.000110363
0.000110369
0.000110349
0.000110358
0.00011034
0.000110349
0.000110328
0.000110337
0.000110315
0.000110325
0.000110302
0.000110314
0.000110291
0.000110304
0.000110282
0.000110297
0.000110275
0.00011029
0.000110268
0.000110283
0.000110261
0.000110277
0.000110256
0.000110273
0.000110253
0.000110273
0.000110253
0.000110272
0.000110252
0.000110272
0.000110252
0.000110273
0.000110254
0.000110275
0.000110258
0.00011028
0.000110263
0.000110285
0.000110268
0.000110289
0.000110273
0.000110294
0.00011028
0.000110301
0.000110288
0.00011031
0.000110297
0.000110318
0.000110305
0.000110325
0.000110313
0.000110333
0.000110322
0.000110341
0.000110332
0.000110351
0.000110342
0.000110359
0.000110351
0.000110368
0.000110359
0.000110375
0.000110368
0.000110383
0.00011038
0.000110394
0.000110389
0.000110401
0.000110395
0.000110408
0.000110404
0.000110414
0.000110411
0.000110422
0.000110418
0.000110428
0.000110424
0.000110432
0.000110429
0.000110437
0.000110435
0.000110443
0.000110442
0.000110449
0.000110447
0.000110453
0.00011045
0.000110455
0.000110454
0.000110459
0.000110457
0.000110463
0.000110461
0.000110464
0.000110463
0.000110467
0.000110465
0.000110468
0.000110467
0.000110471
0.000110471
0.000110473
0.000110472
0.000110474
0.000110472
0.000110475
0.000110474
0.000110477
0.000110476
0.000110477
0.000110477
0.000110479
0.000110477
0.000110479
0.000110479
0.000110481
0.00011048
0.000110481
0.00011048
0.000110481
0.00011048
0.000110481
0.000110481
0.000110483
0.000110481
0.000110482
0.00011048
0.000110482
0.000110481
0.000110483
0.000110485
0.000110485
0.000110483
0.000110482
0.000110482
0.000110482
0.000110484
0.000110485
0.000110483
0.000110484
0.000110481
0.000110483
0.000110483
0.00011047
0.000110473
0.000110475
0.000110478
0.000110478
0.000110497
0.000110365
0.000111085
0.000110959
0.000100487
9.28121e-05
9.61298e-05
9.83035e-05
0.000100016
0.000110641
0.000101824
6.86858e-05
5.04937e-05
3.88527e-05
3.1971e-05
2.82309e-05
2.63785e-05
2.63646e-05
2.78768e-05
3.05635e-05
3.41171e-05
3.8345e-05
4.27772e-05
4.64124e-05
5.03918e-05
5.47567e-05
5.95188e-05
6.46278e-05
7.008e-05
7.50553e-05
7.89022e-05
8.23735e-05
8.5492e-05
8.83149e-05
9.08775e-05
9.31939e-05
9.52659e-05
9.71028e-05
9.87164e-05
0.000100124
0.000101345
0.000102401
0.000103318
0.000104112
0.000104799
0.000105392
0.000105902
0.000106342
0.00010672
0.000107045
0.000107323
0.000107563
0.000107768
0.000107944
0.000108095
0.000108224
0.000108335
0.000108429
0.000108509
0.00010858
0.000108638
0.000108695
0.000108734
0.000108806
0.00010881
0.000108901
0.00010818
0.000109815
0.000111494
0.000108411
0.000101338
9.65205e-05
8.84091e-05
8.55691e-05
8.45548e-05
8.55621e-05
8.78427e-05
9.08762e-05
9.42858e-05
9.78545e-05
0.000101314
0.000104442
0.000107152
0.000109432
0.00011132
0.000112869
0.000114132
0.000115157
0.000115982
0.000116645
0.000117173
0.000117585
0.000117907
0.000118154
0.000118344
0.000118489
0.000118604
0.000118693
0.000118762
0.000118815
0.000118856
0.000118888
0.000118913
0.000118933
0.000118949
0.000118962
0.000118973
0.00011898
0.000118987
0.000118993
0.000118998
0.000119002
0.000119006
0.000119009
0.000119011
0.000119014
0.000119016
0.000119017
0.000119017
0.000119018
0.000119017
0.000119017
0.000119015
0.000119015
0.000119014
0.000119014
0.000119012
0.000119012
0.000119007
0.000119007
0.000119001
0.000119001
0.000118995
0.000118994
0.000118989
0.000118989
0.000118982
0.000118981
0.000118973
0.000118972
0.000118962
0.000118961
0.000118951
0.00011895
0.000118939
0.000118939
0.000118929
0.00011893
0.000118917
0.000118918
0.000118903
0.000118904
0.000118888
0.000118889
0.000118873
0.000118876
0.000118861
0.000118865
0.000118849
0.000118852
0.000118834
0.000118838
0.00011882
0.000118825
0.000118808
0.000118813
0.000118797
0.000118805
0.000118788
0.000118796
0.000118779
0.000118787
0.000118771
0.00011878
0.000118765
0.000118775
0.000118761
0.000118773
0.00011876
0.000118772
0.000118758
0.000118771
0.000118758
0.000118771
0.000118759
0.000118773
0.000118762
0.000118777
0.000118768
0.000118782
0.000118772
0.000118787
0.000118778
0.000118793
0.000118785
0.000118799
0.000118793
0.000118809
0.000118803
0.000118818
0.000118811
0.000118826
0.00011882
0.000118835
0.00011883
0.000118844
0.00011884
0.000118855
0.000118852
0.000118865
0.000118862
0.000118874
0.000118871
0.000118883
0.00011888
0.000118893
0.000118893
0.000118904
0.000118903
0.000118913
0.000118912
0.000118921
0.000118921
0.000118929
0.000118929
0.000118938
0.000118938
0.000118945
0.000118944
0.000118951
0.00011895
0.000118957
0.000118957
0.000118964
0.000118965
0.000118971
0.000118971
0.000118976
0.000118975
0.00011898
0.00011898
0.000118984
0.000118984
0.000118988
0.000118988
0.000118991
0.000118991
0.000118994
0.000118993
0.000118995
0.000118996
0.000118999
0.000119
0.000119002
0.000119002
0.000119003
0.000119003
0.000119004
0.000119005
0.000119007
0.000119007
0.000119008
0.000119008
0.000119009
0.000119009
0.00011901
0.00011901
0.000119012
0.000119012
0.000119013
0.000119012
0.000119013
0.000119012
0.000119013
0.000119014
0.000119015
0.000119014
0.000119014
0.000119013
0.000119014
0.000119014
0.000119015
0.000119017
0.000119017
0.000119016
0.000119015
0.000119014
0.000119015
0.000119016
0.000119018
0.000119017
0.000119017
0.000119014
0.000119015
0.000119015
0.000119007
0.000119008
0.000119008
0.000119011
0.000119011
0.000119037
0.000118955
0.000119456
0.000119279
0.000111068
0.00010353
0.000104982
0.00010622
0.00010746
0.000113747
0.000122825
0.000129522
9.46086e-05
7.21768e-05
5.82226e-05
4.69619e-05
3.89949e-05
3.3829e-05
3.0813e-05
2.96784e-05
3.00832e-05
3.17098e-05
3.43263e-05
3.76807e-05
4.15341e-05
4.576e-05
5.02642e-05
5.503e-05
6.00242e-05
6.51556e-05
7.03159e-05
7.53918e-05
8.02606e-05
8.47719e-05
8.88337e-05
9.24286e-05
9.55897e-05
9.83616e-05
0.000100784
0.000102891
0.000104718
0.0001063
0.000107669
0.000108855
0.00010988
0.000110764
0.000111525
0.000112181
0.000112745
0.00011323
0.000113646
0.000114004
0.00011431
0.000114573
0.000114799
0.000114993
0.000115158
0.0001153
0.00011542
0.000115525
0.000115613
0.000115698
0.00011576
0.000115873
0.000115897
0.000116015
0.000115635
0.000116569
0.000117461
0.000115277
0.000109974
0.000105504
9.8266e-05
9.43604e-05
9.17969e-05
9.11801e-05
9.20663e-05
9.40974e-05
9.68882e-05
0.000100171
0.000103611
0.000106904
0.000109894
0.000112503
0.000114722
0.000116576
0.000118108
0.000119363
0.000120384
0.000121212
0.000121877
0.000122401
0.000122817
0.000123143
0.000123399
0.0001236
0.000123762
0.000123892
0.000123994
0.000124076
0.000124141
0.000124194
0.000124236
0.000124269
0.000124297
0.00012432
0.000124338
0.000124353
0.000124365
0.000124375
0.000124384
0.000124391
0.000124397
0.000124402
0.000124407
0.00012441
0.000124413
0.000124415
0.000124416
0.000124417
0.000124417
0.000124417
0.000124417
0.000124416
0.000124416
0.000124415
0.000124414
0.000124413
0.00012441
0.000124408
0.000124404
0.000124402
0.000124398
0.000124395
0.000124392
0.000124389
0.000124385
0.000124382
0.000124376
0.000124372
0.000124366
0.000124361
0.000124354
0.00012435
0.000124342
0.000124338
0.000124332
0.000124328
0.00012432
0.000124315
0.000124306
0.000124301
0.000124291
0.000124286
0.000124276
0.000124271
0.000124263
0.000124259
0.000124249
0.000124245
0.000124235
0.00012423
0.00012422
0.000124216
0.000124207
0.000124203
0.000124195
0.000124193
0.000124185
0.000124183
0.000124175
0.000124174
0.000124166
0.000124166
0.000124159
0.00012416
0.000124154
0.000124157
0.000124152
0.000124155
0.00012415
0.000124153
0.000124149
0.000124153
0.00012415
0.000124154
0.000124152
0.000124158
0.000124157
0.000124163
0.000124162
0.000124168
0.000124167
0.000124174
0.000124174
0.000124181
0.000124182
0.00012419
0.000124192
0.0001242
0.000124201
0.000124208
0.00012421
0.000124218
0.00012422
0.000124228
0.00012423
0.000124239
0.000124242
0.00012425
0.000124253
0.00012426
0.000124262
0.00012427
0.000124272
0.00012428
0.000124284
0.000124292
0.000124296
0.000124302
0.000124305
0.000124311
0.000124314
0.00012432
0.000124323
0.00012433
0.000124333
0.000124338
0.00012434
0.000124345
0.000124347
0.000124351
0.000124354
0.000124358
0.000124361
0.000124366
0.000124368
0.000124372
0.000124373
0.000124376
0.000124379
0.000124381
0.000124383
0.000124386
0.000124387
0.00012439
0.000124391
0.000124393
0.000124394
0.000124395
0.000124396
0.000124399
0.0001244
0.000124402
0.000124403
0.000124404
0.000124404
0.000124405
0.000124406
0.000124407
0.000124408
0.000124409
0.00012441
0.000124411
0.000124411
0.000124411
0.000124412
0.000124414
0.000124414
0.000124415
0.000124415
0.000124415
0.000124415
0.000124416
0.000124417
0.000124417
0.000124417
0.000124417
0.000124416
0.000124416
0.000124417
0.000124418
0.000124419
0.00012442
0.000124419
0.000124418
0.000124418
0.000124418
0.000124419
0.00012442
0.00012442
0.00012442
0.000124418
0.000124418
0.000124418
0.000124412
0.000124412
0.000124412
0.000124414
0.000124414
0.000124454
0.000124402
0.000124731
0.000124511
0.000118685
0.000112625
0.00011238
0.000112429
0.000112928
0.000106254
0.000120401
0.000153933
0.000132661
0.000102852
8.36841e-05
6.81778e-05
5.66928e-05
4.85456e-05
4.2766e-05
3.80867e-05
3.50075e-05
3.36222e-05
3.37086e-05
3.48546e-05
3.70653e-05
4.02484e-05
4.43008e-05
4.89071e-05
5.3973e-05
5.93767e-05
6.50086e-05
7.07321e-05
7.63869e-05
8.17252e-05
8.66345e-05
9.104e-05
9.49379e-05
9.8352e-05
0.000101331
0.000103915
0.000106149
0.000108078
0.000109743
0.000111185
0.000112429
0.000113503
0.000114427
0.000115223
0.000115907
0.000116495
0.000117
0.000117434
0.000117805
0.000118125
0.000118398
0.000118633
0.000118834
0.000119006
0.000119153
0.000119279
0.000119387
0.000119493
0.000119566
0.000119735
0.000119741
0.000119902
0.000119724
0.000120278
0.000120741
0.000118687
0.000114056
0.00010959
0.000103371
9.92251e-05
9.62443e-05
9.49347e-05
9.50647e-05
9.64346e-05
9.87131e-05
0.000101649
0.000104896
0.000108132
0.000111169
0.000113889
0.000116244
0.000118235
0.000119893
0.000121259
0.000122375
0.000123282
0.000124013
0.000124588
0.000125048
0.000125413
0.000125701
0.00012593
0.000126115
0.000126265
0.000126385
0.000126482
0.000126559
0.000126622
0.000126673
0.000126714
0.000126748
0.000126776
0.000126798
0.000126817
0.000126832
0.000126844
0.000126855
0.000126864
0.000126871
0.000126877
0.000126883
0.000126887
0.000126891
0.000126893
0.000126895
0.000126896
0.000126897
0.000126897
0.000126896
0.000126896
0.000126896
0.000126895
0.000126894
0.000126892
0.000126891
0.000126888
0.000126886
0.000126882
0.000126879
0.000126875
0.000126873
0.000126869
0.000126867
0.000126862
0.000126858
0.000126852
0.000126848
0.000126841
0.000126837
0.000126829
0.000126825
0.000126817
0.000126814
0.000126807
0.000126803
0.000126794
0.000126789
0.000126779
0.000126774
0.000126764
0.000126759
0.000126749
0.000126745
0.000126736
0.000126732
0.000126722
0.000126718
0.000126707
0.000126703
0.000126693
0.000126689
0.000126679
0.000126677
0.000126668
0.000126667
0.000126658
0.000126657
0.000126648
0.000126647
0.00012664
0.00012664
0.000126633
0.000126634
0.00012663
0.000126632
0.000126627
0.000126629
0.000126625
0.000126628
0.000126625
0.000126628
0.000126626
0.000126631
0.00012663
0.000126635
0.000126635
0.00012664
0.00012664
0.000126645
0.000126645
0.000126651
0.000126653
0.000126659
0.000126662
0.000126669
0.000126671
0.000126678
0.00012668
0.000126687
0.00012669
0.000126696
0.0001267
0.000126707
0.000126711
0.000126718
0.000126723
0.000126729
0.000126733
0.000126739
0.000126743
0.000126749
0.000126754
0.000126761
0.000126766
0.000126772
0.000126777
0.000126782
0.000126786
0.000126792
0.000126795
0.000126801
0.000126805
0.000126811
0.000126814
0.000126818
0.000126821
0.000126825
0.000126828
0.000126832
0.000126835
0.000126839
0.000126843
0.000126846
0.000126849
0.000126852
0.000126854
0.000126857
0.00012686
0.000126862
0.000126864
0.000126866
0.000126868
0.00012687
0.000126872
0.000126873
0.000126874
0.000126876
0.000126877
0.00012688
0.000126881
0.000126883
0.000126883
0.000126884
0.000126884
0.000126885
0.000126887
0.000126888
0.000126889
0.00012689
0.000126891
0.000126891
0.000126891
0.000126892
0.000126894
0.000126895
0.000126895
0.000126895
0.000126895
0.000126895
0.000126896
0.000126897
0.000126898
0.000126898
0.000126898
0.000126897
0.000126897
0.000126897
0.000126898
0.000126899
0.0001269
0.000126899
0.000126899
0.000126899
0.000126899
0.000126899
0.0001269
0.0001269
0.0001269
0.000126899
0.000126899
0.000126898
0.000126895
0.000126894
0.000126893
0.000126895
0.000126895
0.00012695
0.000126905
0.000127157
0.000126911
0.000122689
0.000118645
0.000117047
0.000116135
0.000116047
)
;

boundaryField
{
    inlet
    {
        type            calculated;
        value           nonuniform List<scalar> 8(2.88676e-06 1.33888e-05 3.65329e-05 8.39757e-05 0.000108384 0.000106371 0.000110739 0.000103541);
    }
    outlet
    {
        type            calculated;
        value           nonuniform List<scalar> 8(2.14848e-05 5.31498e-05 7.52775e-05 8.9919e-05 0.000100016 0.00010746 0.000112928 0.000116047);
    }
    sideWall
    {
        type            empty;
    }
    bed
    {
        type            calculated;
        value           nonuniform List<scalar> 
300
(
1.17184e-05