/*--------------------------------*- C++ -*----------------------------------*\
| =========                 |                                                 |
| \\      /  F ield         | foam-extend: Open Source CFD                    |
|  \\    /   O peration     | Version:     3.2                                |
|   \\  /    A nd           | Web:         http://www.foam-extend.org         |
|    \\/     M anipulation  | For copyright notice see file Copyright         |
\*---------------------------------------------------------------------------*/
FoamFile
{
    version     2.0;
    format      ascii;
    class       areaScalarField;
    location    "2020";
    object      Fi1;
}
// * * * * * * * * * * * * * * * * * * * * * * * * * * * * * * * * * * * * * //

dimensions      [0 1 -1 0 0 0 0];

internalField   nonuniform List<scalar> 
300
(
3.11046e-06
5.25094e-07
2.76678e-06
4.49828e-06
5.43699e-06
5.80297e-06
5.94677e-06
5.96432e-06
5.94152e-06
5.8939e-06
5.83705e-06
5.77831e-06
5.72108e-06
5.66035e-06
5.60205e-06
5.54195e-06
5.47811e-06
5.41452e-06
5.34946e-06
5.28389e-06
5.21806e-06
5.15189e-06
5.0839e-06
5.01479e-06
4.9485e-06
4.88764e-06
4.83284e-06
4.78447e-06
4.7425e-06
4.70625e-06
4.67499e-06
4.64838e-06
4.62623e-06
4.6082e-06
4.59362e-06
4.58137e-06
4.57125e-06
4.56257e-06
4.55539e-06
4.5491e-06
4.54398e-06
4.53934e-06
4.53574e-06
4.53225e-06
4.52978e-06
4.5271e-06
4.52541e-06
4.52316e-06
4.52253e-06
4.51957e-06
4.52203e-06
4.51414e-06
4.52785e-06
4.49742e-06
4.55832e-06
4.43112e-06
4.69817e-06
4.19234e-06
5.85291e-06
7.34447e-06
-3.48959e-11
-5.89112e-11
-5.91273e-12
-1.32043e-10
8.86081e-11
-1.3192e-10
8.48566e-11
-1.20853e-10
-1.97177e-10
-1.38054e-09
2.08062e-08
2.1726e-08
2.115e-08
1.95595e-08
2.02314e-08
2.04296e-08
2.05146e-08
1.97112e-08
1.87241e-08
1.74764e-08
1.6493e-08
1.50107e-08
1.36208e-08
1.20344e-08
1.07067e-08
9.90149e-09
9.2038e-09
8.1342e-09
6.8417e-09
5.83475e-09
5.33297e-09
4.28216e-09
4.36309e-09
2.80374e-09
3.75709e-09
2.02659e-09
3.2095e-09
9.41518e-10
2.31532e-09
7.69216e-10
7.81769e-10
2.10305e-09
-3.1584e-10
2.60063e-09
-1.71054e-09
3.25174e-09
-2.57758e-09
4.09062e-09
-3.6375e-09
5.25435e-09
-5.23793e-09
6.33913e-09
-6.91829e-09
7.8716e-09
-8.69276e-09
1.36142e-08
-6.27063e-09
1.10529e-08
-1.73447e-08
1.15629e-08
-1.56962e-08
1.78666e-08
-1.68086e-08
1.92332e-08
-2.23949e-08
2.22584e-08
-2.52719e-08
2.61675e-08
-2.8657e-08
2.99366e-08
-3.2514e-08
3.39296e-08
-3.65154e-08
3.81236e-08
-4.06783e-08
4.24345e-08
-4.49445e-08
4.68315e-08
-4.92503e-08
5.12518e-08
-5.35431e-08
5.56299e-08
-5.77586e-08
5.99002e-08
-6.18316e-08
6.3994e-08
-6.56959e-08
6.78424e-08
-6.9287e-08
7.13838e-08
-7.25426e-08
7.45566e-08
-7.54105e-08
7.73054e-08
-7.78447e-08
7.95838e-08
-7.98034e-08
8.13507e-08
-8.12574e-08
8.25949e-08
-8.21894e-08
8.32761e-08
-8.26349e-08
8.34938e-08
-8.26025e-08
8.32284e-08
-8.21707e-08
8.25743e-08
-8.13649e-08
8.15402e-08
-8.02063e-08
8.0149e-08
-7.86959e-08
7.83962e-08
-7.68498e-08
7.62859e-08
-7.4869e-08
7.46084e-08
-7.17917e-08
7.20012e-08
-7.08558e-08
6.65417e-08
-6.74664e-08
6.51878e-08
-6.11874e-08
6.67762e-08
-6.04976e-08
5.4165e-08
-6.35051e-08
5.56726e-08
-5.54747e-08
6.1936e-08
-4.19871e-08
5.10196e-08
-4.80146e-08
3.39298e-08
-5.85601e-08
4.23e-08
-2.69375e-08
5.75544e-08
-3.77559e-08
3.80518e-08
-5.64261e-08
1.36508e-08
-1.03852e-08
5.62669e-08
-5.60445e-08
2.49852e-09
-4.7919e-10
5.67805e-08
-2.32909e-08
2.62966e-08
-5.76451e-08
-1.34475e-08
1.31088e-08
5.55375e-08
-1.95703e-08
-2.0614e-08
-5.72724e-08
1.56461e-08
-1.76746e-08
5.9719e-08
3.08986e-08
1.21847e-08
-1.34327e-08
-3.48274e-08
-6.18507e-08
6.18672e-08
4.21708e-08
1.09306e-08
-8.24389e-09
-4.6992e-08
-6.65901e-08
8.57391e-09
5.14587e-08
6.68466e-08
-4.18302e-09
7.69404e-09
-7.31687e-08
-5.76505e-08
-5.4594e-09
4.77963e-09
6.26911e-08
7.09389e-08
-7.05091e-09
3.52672e-09
-7.49903e-08
-6.61739e-08
-5.58022e-09
7.45609e-08
7.02321e-08
3.3781e-09
-2.27717e-09
-7.11134e-08
-8.18073e-08
1.74513e-09
7.81944e-08
8.03757e-08
-3.2424e-09
7.60311e-10
-8.61596e-08
-7.8206e-08
-2.88366e-09
8.32287e-08
8.38855e-08
1.6783e-09
-1.57423e-09
-8.17654e-08
-9.01068e-08
8.75952e-10
-2.0202e-09
8.61722e-08
8.97831e-08
1.6474e-09
-5.12233e-10
-8.91212e-08
-9.73447e-08
-2.31661e-09
-1.01503e-09
9.60997e-08
1.02154e-07
7.416e-09
-3.47199e-09
-1.04447e-07
-1.06396e-07
-2.06842e-08
-9.71726e-10
2.43108e-10
-8.47591e-10
4.11062e-10
-6.03801e-10
5.50419e-10
-4.27438e-10
6.24681e-10
-5.77127e-10
2.83698e-10
6.84318e-06
6.79175e-06
5.33573e-06
5.14742e-06
)
;

boundaryField
{
    inlet
    {
        type            calculated;
        value           uniform 0;
    }
    outlet
    {
        type            calculated;
        value           uniform 0;
    }
    sideWall
    {
        type            empty;
    }
}


// ************************************************************************* //
