/*--------------------------------*- C++ -*----------------------------------*\
| =========                 |                                                 |
| \\      /  F ield         | foam-extend: Open Source CFD                    |
|  \\    /   O peration     | Version:     3.2                                |
|   \\  /    A nd           | Web:         http://www.foam-extend.org         |
|    \\/     M anipulation  | For copyright notice see file Copyright         |
\*---------------------------------------------------------------------------*/
FoamFile
{
    version     2.0;
    format      ascii;
    class       areaScalarField;
    location    "2020";
    object      Fi2;
}
// * * * * * * * * * * * * * * * * * * * * * * * * * * * * * * * * * * * * * //

dimensions      [0 1 -1 0 0 0 0];

internalField   nonuniform List<scalar> 
300
(
3.11046e-06
5.25094e-07
2.76678e-06
4.49828e-06
5.43699e-06
5.80297e-06
5.94677e-06
5.96432e-06
5.94152e-06
5.8939e-06
5.83705e-06
5.77831e-06
5.72108e-06
5.66035e-06
5.60205e-06
5.54195e-06
5.47811e-06
5.41452e-06
5.34946e-06
5.28389e-06
5.21806e-06
5.15189e-06
5.0839e-06
5.01479e-06
4.9485e-06
4.88764e-06
4.83284e-06
4.78447e-06
4.7425e-06
4.70625e-06
4.67499e-06
4.64838e-06
4.62623e-06
4.6082e-06
4.59362e-06
4.58137e-06
4.57125e-06
4.56257e-06
4.55539e-06
4.5491e-06
4.54398e-06
4.53934e-06
4.53574e-06
4.53225e-06
4.52978e-06
4.5271e-06
4.52541e-06
4.52316e-06
4.52253e-06
4.51957e-06
4.52203e-06
4.51414e-06
4.52785e-06
4.49742e-06
4.55832e-06
4.43112e-06
4.69817e-06
4.19234e-06
5.85291e-06
7.34447e-06
-3.49013e-11
-5.89155e-11
-5.91707e-12
-1.32055e-10
8.86096e-11
-1.31905e-10
8.48585e-11
-1.20611e-10
-1.99669e-10
-1.3571e-09
2.09209e-08
2.17661e-08
2.11655e-08
1.9583e-08
2.02598e-08
2.04603e-08
2.05402e-08
1.97327e-08
1.87411e-08
1.74914e-08
1.65046e-08
1.50182e-08
1.3625e-08
1.20359e-08
1.07084e-08
9.90436e-09
9.20505e-09
8.1319e-09
6.83739e-09
5.83208e-09
5.32978e-09
4.27904e-09
4.35886e-09
2.80041e-09
3.75311e-09
2.02211e-09
3.20363e-09
9.3314e-10
2.30824e-09
7.599e-10
7.76477e-10
2.09125e-09
-3.26388e-10
2.5849e-09
-1.72272e-09
3.23506e-09
-2.59268e-09
4.07139e-09
-3.65214e-09
5.23482e-09
-5.25287e-09
6.32696e-09
-6.91811e-09
7.86594e-09
-3.59193e-09
1.3588e-08
-1.14178e-08
8.27385e-09
-1.73253e-08
1.58282e-08
-1.32901e-08
1.6336e-08
-1.92302e-08
1.92199e-08
-2.23973e-08
2.22513e-08
-2.52662e-08
2.6161e-08
-2.86533e-08
2.99288e-08
-3.25091e-08
3.39235e-08
-3.65087e-08
3.81184e-08
-4.06706e-08
4.24303e-08
-4.49355e-08
4.68285e-08
-4.92402e-08
5.12502e-08
-5.3532e-08
5.56296e-08
-5.77469e-08
5.9901e-08
-6.18192e-08
6.39963e-08
-6.56829e-08
6.78462e-08
-6.92736e-08
7.1389e-08
-7.2529e-08
7.45631e-08
-7.53971e-08
7.7313e-08
-7.78317e-08
7.95921e-08
-7.97913e-08
8.13597e-08
-8.12463e-08
8.26043e-08
-8.21796e-08
8.32857e-08
-8.26264e-08
8.35033e-08
-8.25955e-08
8.32376e-08
-8.21651e-08
8.25831e-08
-8.13607e-08
8.15486e-08
-8.02034e-08
8.0157e-08
-7.86944e-08
7.84038e-08
-7.68496e-08
7.62932e-08
-7.45215e-08
7.46122e-08
-7.29626e-08
7.02773e-08
-7.00376e-08
6.82817e-08
-6.5103e-08
6.88288e-08
-6.35805e-08
5.83458e-08
-6.51666e-08
5.89713e-08
-5.88109e-08
6.37227e-08
-4.75518e-08
5.38827e-08
-4.99886e-08
3.91852e-08
-5.98601e-08
4.57867e-08
-4.66474e-08
5.81891e-08
-2.69542e-08
4.15548e-08
-5.64348e-08
1.78206e-08
-3.77432e-08
5.74886e-08
-1.05182e-08
6.96745e-09
-5.59055e-08
5.68466e-08
-5.28332e-10
2.80638e-08
-5.587e-08
-7.37985e-09
-2.50006e-08
5.61805e-08
1.30029e-08
1.95461e-08
-5.79324e-08
-2.03893e-08
-1.8857e-08
5.81516e-08
2.65705e-08
1.71226e-08
-1.36815e-08
-3.42749e-08
-6.16554e-08
1.17494e-08
3.81453e-08
6.18218e-08
-9.66581e-09
-4.34341e-08
-6.3942e-08
7.41377e-09
4.85608e-08
6.75325e-08
-7.80305e-09
7.44751e-09
-6.79459e-08
-5.43251e-08
-9.28921e-09
4.81542e-09
6.22489e-08
7.16469e-08
-5.19348e-09
3.54201e-09
-7.64475e-08
-6.42743e-08
-5.45054e-09
2.15602e-09
6.72378e-08
7.44386e-08
-3.04948e-09
-6.99663e-08
-7.83306e-08
2.36042e-09
7.28448e-08
7.8524e-08
-1.25742e-10
2.99782e-09
-8.50311e-08
-7.7409e-08
-4.04894e-09
8.08097e-08
8.1913e-08
2.70145e-09
-1.56629e-09
-8.12824e-08
-8.86719e-08
1.40272e-09
-2.39447e-09
8.5441e-08
8.73762e-08
1.42416e-09
-2.32304e-10
-8.67729e-08
-9.46965e-08
-4.9265e-10
-2.51536e-09
9.27626e-08
1.02044e-07
8.07334e-10
-1.58504e-09
-9.43753e-08
-1.10587e-07
-2.41464e-09
1.42658e-09
7.94853e-08
-1.0556e-09
2.4659e-10
-8.43258e-10
4.15662e-10
-5.99083e-10
5.55255e-10
-4.22763e-10
6.29264e-10
-5.7292e-10
2.87745e-10
6.84319e-06
6.79175e-06
5.33574e-06
5.14742e-06
)
;

boundaryField
{
    inlet
    {
        type            calculated;
        value           uniform 0;
    }
    outlet
    {
        type            calculated;
        value           uniform 0;
    }
    sideWall
    {
        type            empty;
    }
}


// ************************************************************************* //
