/*--------------------------------*- C++ -*----------------------------------*\
| =========                 |                                                 |
| \\      /  F ield         | foam-extend: Open Source CFD                    |
|  \\    /   O peration     | Version:     3.2                                |
|   \\  /    A nd           | Web:         http://www.foam-extend.org         |
|    \\/     M anipulation  | For copyright notice see file Copyright         |
\*---------------------------------------------------------------------------*/
FoamFile
{
    version     2.0;
    format      ascii;
    class       areaScalarField;
    location    "2020";
    object      Hdep;
}
// * * * * * * * * * * * * * * * * * * * * * * * * * * * * * * * * * * * * * //

dimensions      [0 0 0 0 0 0 0];

internalField   nonuniform List<scalar> 
300
(
0
0
0
0
0
0
0
0
0
0
0
0
0
0
0
0
0
0
0
0
0
0
0
0
0
0
0
0
0
0
0
0
0
0
0
0
0
0
0
0
0
0
0
0
0
0
0
0
0
0
0
0
0
0
0
0
0
0
0
0
0.00561704
0.00578847
0.00578983
0.00573763
0.00559538
0.00563452
0.00560982
0.00558948
0.00554903
0.00550549
0.00579826
0.00586149
0.00582617
0.00575123
0.00571239
0.00565445
0.00561655
0.0055519
0.00550267
0.00543767
0.00539048
0.00533118
0.005286
0.00523276
0.00519584
0.00515927
0.00513543
0.00510276
0.00507568
0.005048
0.00503057
0.005012
0.00499895
0.0049841
0.00497453
0.00496416
0.00495673
0.00494796
0.00494301
0.00493876
0.00493989
0.00493975
0.00493493
0.00493044
0.00492844
0.00492711
0.00492685
0.00492593
0.00492668
0.00492593
0.00492591
0.00492512
0.00492494
0.00492468
0.00492486
0.00492439
0.0049243
0.00492435
0.00492444
0.00492443
0.00492415
0.00492399
0.00492344
0.00492371
0.00492343
0.00492366
0.00492357
0.00492453
0.0049241
0.00492505
0.00492435
0.00492505
0.00492402
0.0049251
0.00492374
0.00492498
0.00492347
0.00492534
0.00492376
0.00492584
0.00492306
0.004926
0.0049227
0.00492592
0.00492201
0.00492541
0.00492138
0.00492549
0.00492153
0.0049263
0.00492145
0.00492657
0.00492124
0.00492676
0.00492066
0.00492662
0.00491969
0.00492658
0.00491947
0.00492682
0.00491973
0.00492687
0.00491897
0.00492716
0.00491916
0.00492652
0.00491802
0.00492569
0.00491729
0.00492557
0.00491727
0.00492526
0.0049169
0.00492493
0.00491606
0.00492416
0.00491498
0.00492319
0.00491443
0.00492306
0.0049141
0.00492279
0.0049136
0.00492218
0.00491291
0.004921
0.00491182
0.00491992
0.00491138
0.00491978
0.00491122
0.00491913
0.00491055
0.00491819
0.00490981
0.0049169
0.00490882
0.00491565
0.00490783
0.00491544
0.00490796
0.00491458
0.00490739
0.00491342
0.00490614
0.00491257
0.00490533
0.00491105
0.00490567
0.00491488
0.00490758
0.00491833
0.00491377
0.00492423
0.00492034
0.0049303
0.0049253
0.00493867
0.00493348
0.00494443
0.00494039
0.00495225
0.00494931
0.00496095
0.00495925
0.00496873
0.00496781
0.00497846
0.00497828
0.00498917
0.00498592
0.00499941
0.00499609
0.00500968
0.00500994
0.00502189
0.00502056
0.00503032
0.00502945
0.0050427
0.00504232
0.00505585
0.00505582
0.00506766
0.00506784
0.00508386
0.00508429
0.00509698
0.00509744
0.00510824
0.00511531
0.00512363
0.00512875
0.00514223
0.00514729
0.00515713
0.00516251
0.00517442
0.00517868
0.00519207
0.00520122
0.00520633
0.00521334
0.00521978
0.00523121
0.00523333
0.00524534
0.00524566
0.0052503
0.00526022
0.00526252
0.00527347
0.00527871
0.00530265
0.00529062
0.00533319
0.00530669
0.00536745
0.0052941
0.00541965
0.00531694
0.00543936
0.00532732
0.00547135
0.00525519
0.0052403
0.00469777
0.00489145
0.00464453
0.00489126
0.00459776
0.00489356
0.00461549
0.00495442
0.00557527
0.00490597
0
0
0
0
)
;

boundaryField
{
    inlet
    {
        type            calculated;
        value           uniform 0;
    }
    outlet
    {
        type            calculated;
        value           uniform 0;
    }
    sideWall
    {
        type            empty;
    }
}


// ************************************************************************* //
