/*--------------------------------*- C++ -*----------------------------------*\
| =========                 |                                                 |
| \\      /  F ield         | foam-extend: Open Source CFD                    |
|  \\    /   O peration     | Version:     3.2                                |
|   \\  /    A nd           | Web:         http://www.foam-extend.org         |
|    \\/     M anipulation  | For copyright notice see file Copyright         |
\*---------------------------------------------------------------------------*/
FoamFile
{
    version     2.0;
    format      ascii;
    class       areaScalarField;
    location    "2020";
    object      He;
}
// * * * * * * * * * * * * * * * * * * * * * * * * * * * * * * * * * * * * * //

dimensions      [0 0 0 0 0 0 0];

internalField   nonuniform List<scalar> 
300
(
0
0
0
0
0
0
0
0
0
0
0
0
0
0
0
0
0
0
0
0
0
0
0
0
0
0
0
0
0
0
0
0
0
0
0
0
0
0
0
0
0
0
0
0
0
0
0
0
0
0
0
0
0
0
0
0
0
0
0
2.911e-07
1.14869e-06
1.38795e-06
1.67952e-06
1.46874e-06
6.8768e-07
7.12957e-07
2.84379e-07
1.19794e-08
1.8103e-08
0
0
0
0
0
0
0
0
0
0
0
0
0
0
0
0
0
0
0
0
0
0
0
0
0
0
0
0
0
0
0
0
0
0
0
0
0
0
0
0
0
0
0
0
0
0
0
0
5.61407e-09
5.65554e-09
2.47877e-09
4.90725e-10
0
0
1.00389e-07
8.3883e-08
5.85296e-08
2.98844e-08
2.28658e-08
1.75419e-08
1.83175e-08
1.37934e-08
1.23309e-08
8.57108e-09
7.51934e-09
5.24814e-09
4.33924e-09
2.8435e-09
1.96562e-09
1.16275e-09
5.51404e-10
2.67578e-10
1.56014e-11
0
0
0
0
0
0
0
0
0
0
0
0
0
0
0
0
0
0
0
0
0
0
0
0
0
0
0
0
0
0
0
0
0
0
0
0
0
0
1.17151e-09
1.30983e-09
8.0096e-10
0
0
0
3.26774e-09
5.42709e-09
4.29323e-09
1.90873e-09
0
0
0
0
1.14571e-08
1.34124e-08
1.02227e-08
2.24471e-10
0
0
0
1.91539e-08
1.53318e-08
9.87747e-09
0
0
2.53303e-08
1.28817e-08
0
0
0
3.09933e-08
2.59104e-08
1.78578e-08
0
0
4.92938e-08
5.89097e-08
2.98782e-08
1.09137e-08
0
0
0
0
4.88361e-08
3.62374e-08
2.41654e-08
0
0
0
5.41134e-08
4.23429e-08
4.28996e-08
0
0
0
0
6.19622e-08
6.60955e-08
4.84823e-08
1.59474e-08
0
0
0
0
7.13586e-08
7.14118e-08
5.32296e-08
6.93363e-10
0
0
0
7.41392e-08
5.67691e-08
5.82457e-08
3.06653e-11
0
0
0
8.29448e-08
6.36155e-08
6.13638e-08
1.86144e-10
0
0
0
8.51147e-08
8.58682e-08
6.52758e-08
2.25938e-08
0
0
0
0
9.12892e-08
9.35741e-08
7.15318e-08
2.57482e-08
0
0
0
0
1.05485e-07
1.08188e-07
8.44808e-08
3.7184e-08
5.59614e-09
2.47284e-07
1.36851e-07
3.16382e-09
4.45725e-10
0
0
0
4.99974e-10
2.39458e-12
0
0
0
0
)
;

boundaryField
{
    inlet
    {
        type            calculated;
        value           uniform 0;
    }
    outlet
    {
        type            calculated;
        value           uniform 0;
    }
    sideWall
    {
        type            empty;
    }
}


// ************************************************************************* //
