/*--------------------------------*- C++ -*----------------------------------*\
| =========                 |                                                 |
| \\      /  F ield         | foam-extend: Open Source CFD                    |
|  \\    /   O peration     | Version:     3.2                                |
|   \\  /    A nd           | Web:         http://www.foam-extend.org         |
|    \\/     M anipulation  | For copyright notice see file Copyright         |
\*---------------------------------------------------------------------------*/
FoamFile
{
    version     2.0;
    format      ascii;
    class       areaScalarField;
    location    "2020";
    object      kTempA;
}
// * * * * * * * * * * * * * * * * * * * * * * * * * * * * * * * * * * * * * //

dimensions      [0 2 -2 0 0 0 0];

internalField   nonuniform List<scalar> 
300
(
0.00304129
0.00371112
0.00313443
0.00264903
0.00236603
0.00225093
0.00220488
0.00219922
0.00220657
0.00222187
0.00224006
0.00225878
0.00227695
0.00229614
0.00231449
0.00233332
0.00235325
0.00237301
0.00239314
0.00241334
0.00243353
0.00245374
0.00247442
0.00249535
0.00251534
0.00253362
0.00255003
0.00256446
0.00257695
0.00258772
0.00259698
0.00260485
0.0026114
0.00261672
0.00262102
0.00262462
0.0026276
0.00263016
0.00263227
0.00263412
0.00263562
0.00263699
0.00263804
0.00263907
0.00263979
0.00264058
0.00264107
0.00264174
0.00264192
0.00264279
0.00264207
0.00264438
0.00264036
0.00264929
0.00263141
0.00266868
0.0025901
0.00273804
0.00223403
0.00321873
0.00535402
0.00463608
0.00472045
0.00466142
0.00411999
0.00422783
0.00418309
0.00421337
0.0042096
0.00421782
0.00421787
0.00421821
0.00421847
0.00421879
0.00421897
0.00421794
0.00421718
0.004216
0.0042144
0.00421277
0.00421074
0.00420923
0.00420786
0.00420634
0.00420506
0.00420376
0.00420262
0.00420139
0.00420076
0.00420045
0.00419988
0.00419959
0.00419913
0.00419892
0.00419861
0.00419831
0.00419832
0.00419861
0.00419865
0.00419854
0.00419881
0.00419832
0.00419877
0.00419797
0.00419874
0.00419758
0.00419872
0.00419797
0.00419917
0.00419784
0.00419933
0.00419755
0.0041994
0.00419714
0.00419946
0.00419659
0.00419947
0.00419683
0.00419999
0.00419659
0.00420025
0.0041962
0.00420033
0.00419565
0.00420054
0.00419503
0.00420075
0.00419519
0.00420137
0.00419489
0.00420169
0.00419442
0.00420188
0.00419389
0.00420198
0.00419335
0.004202
0.00419285
0.0042028
0.00419278
0.00420315
0.00419245
0.0042033
0.00419204
0.00420334
0.00419162
0.00420326
0.00419127
0.00420394
0.00419137
0.00420414
0.00419122
0.00420415
0.00419098
0.00420406
0.00419072
0.00420392
0.00419042
0.00420376
0.00419096
0.00420397
0.00419111
0.00420389
0.00419113
0.00420366
0.00419109
0.00420338
0.00419102
0.00420308
0.00419172
0.00420317
0.00419203
0.00420296
0.00419218
0.00420263
0.00419227
0.00420226
0.0041923
0.00420194
0.00419308
0.00420197
0.00419344
0.00420174
0.00419367
0.00420142
0.00419377
0.00420108
0.0041938
0.00420072
0.00419459
0.00420074
0.00419491
0.00420056
0.00419501
0.00420025
0.00419512
0.0041999
0.00419514
0.00419958
0.00419579
0.00419965
0.00419601
0.00419949
0.00419613
0.00419906
0.00419614
0.00419869
0.00419616
0.00419898
0.0041966
0.0041989
0.00419657
0.00419863
0.00419659
0.00419849
0.00419649
0.0041983
0.00419702
0.00419842
0.00419702
0.00419822
0.004197
0.00419788
0.00419689
0.00419774
0.00419683
0.00419793
0.00419707
0.00419785
0.00419701
0.00419769
0.0041967
0.00419762
0.00419645
0.00419719
0.00419693
0.00419742
0.0041967
0.00419731
0.00419686
0.0041971
0.00419633
0.00419697
0.00419678
0.00419724
0.00419697
0.00419718
0.00419675
0.00419711
0.00419648
0.00419686
0.00419681
0.00419706
0.00419668
0.00419701
0.00419669
0.0041968
0.0041962
0.00419665
0.00419668
0.0041969
0.00419678
0.00419688
0.00419651
0.00419664
0.00419615
0.00419649
0.00419647
0.00419657
0.00419651
0.00419644
0.0041964
0.00419628
0.00419631
0.00419672
0.0041966
0.00419673
0.00419661
0.00419684
0.00419606
0.00419686
0.00419675
0.00419635
0.00419737
0.00419555
0.00419809
0.00419752
0.00419493
0.00419622
0.00419453
0.00419835
0.0041892
0.00421123
0.00410115
0.00441656
0.00502864
0.00261969
0.00193409
0.00239639
0.00245526
)
;

boundaryField
{
    inlet
    {
        type            calculated;
        value           uniform 0;
    }
    outlet
    {
        type            calculated;
        value           uniform 0;
    }
    sideWall
    {
        type            empty;
    }
}


// ************************************************************************* //
