/*--------------------------------*- C++ -*----------------------------------*\
| =========                 |                                                 |
| \\      /  F ield         | foam-extend: Open Source CFD                    |
|  \\    /   O peration     | Version:     3.2                                |
|   \\  /    A nd           | Web:         http://www.foam-extend.org         |
|    \\/     M anipulation  | For copyright notice see file Copyright         |
\*---------------------------------------------------------------------------*/
FoamFile
{
    version     2.0;
    format      ascii;
    class       volVectorField;
    location    "2020";
    object      meshCentreN;
}
// * * * * * * * * * * * * * * * * * * * * * * * * * * * * * * * * * * * * * //

dimensions      [0 1 0 0 0 0 0];

internalField   nonuniform List<vector> 
2400
(
(0.025 0.01 0.00175)
(0.075 0.01 0.0015)
(0.125 0.01 0.00125)
(0.175 0.01 0.001)
(0.225 0.01 0.00075)
(0.275 0.01 0.0005)
(0.325 0.01 0.00025)
(0.375 0.01 -1.98179e-20)
(0.425 0.01 -0.00025)
(0.475 0.01 -0.0005)
(0.525 0.01 -0.00075)
(0.575 0.01 -0.001)
(0.625 0.01 -0.00125)
(0.675 0.01 -0.0015)
(0.725 0.01 -0.00175)
(0.775 0.01 -0.002)
(0.825 0.01 -0.00225)
(0.875 0.01 -0.0025)
(0.925 0.01 -0.00275)
(0.975 0.01 -0.003)
(1.025 0.01 -0.00325)
(1.075 0.01 -0.0035)
(1.125 0.01 -0.00375)
(1.175 0.01 -0.004)
(1.225 0.01 -0.00425)
(1.275 0.01 -0.0045)
(1.325 0.01 -0.00475)
(1.375 0.01 -0.005)
(1.425 0.01 -0.00525)
(1.475 0.01 -0.0055)
(1.525 0.01 -0.00575)
(1.575 0.01 -0.006)
(1.625 0.01 -0.00625)
(1.675 0.01 -0.0065)
(1.725 0.01 -0.00675)
(1.775 0.01 -0.007)
(1.825 0.01 -0.00725)
(1.875 0.01 -0.0075)
(1.925 0.01 -0.00775)
(1.975 0.01 -0.008)
(2.025 0.01 -0.00825)
(2.075 0.01 -0.0085)
(2.125 0.01 -0.00875)
(2.175 0.01 -0.009)
(2.225 0.01 -0.00925)
(2.275 0.01 -0.0095)
(2.325 0.01 -0.00975)
(2.375 0.01 -0.01)
(2.425 0.01 -0.01025)
(2.475 0.01 -0.0105)
(2.525 0.01 -0.01075)
(2.575 0.01 -0.011)
(2.625 0.01 -0.01125)
(2.675 0.01 -0.0115)
(2.725 0.01 -0.01175)
(2.775 0.01 -0.012)
(2.825 0.01 -0.01225)
(2.875 0.01 -0.0125006)
(2.92504 0.01 -0.0127424)
(2.97494 0.01 -0.0108884)
(3.02499 0.01 -0.008263)
(3.07503 0.01 -0.00801442)
(3.12497 0.01 -0.00804427)
(3.17502 0.01 -0.00822092)
(3.22499 0.01 -0.00881008)
(3.275 0.01 -0.00900619)
(3.325 0.01 -0.00927012)
(3.375 0.01 -0.00952426)
(3.425 0.01 -0.00980371)
(3.475 0.01 -0.0100873)
(3.525 0.01 -0.0103811)
(3.575 0.01 -0.0106784)
(3.625 0.01 -0.010976)
(3.675 0.01 -0.0112728)
(3.725 0.01 -0.0115677)
(3.775 0.01 -0.0118603)
(3.825 0.01 -0.0121493)
(3.875 0.01 -0.0124344)
(3.925 0.01 -0.0127156)
(3.975 0.01 -0.0129929)
(4.025 0.01 -0.0132664)
(4.075 0.01 -0.0135359)
(4.125 0.01 -0.013802)
(4.175 0.01 -0.0140654)
(4.225 0.01 -0.0143263)
(4.275 0.01 -0.0145852)
(4.325 0.01 -0.0148422)
(4.375 0.01 -0.0150977)
(4.425 0.01 -0.0153514)
(4.475 0.01 -0.0156039)
(4.525 0.01 -0.0158558)
(4.575 0.01 -0.0161071)
(4.625 0.01 -0.0163581)
(4.675 0.01 -0.0166088)
(4.725 0.01 -0.0168593)
(4.775 0.01 -0.0171096)
(4.825 0.01 -0.0173595)
(4.875 0.01 -0.0176091)
(4.925 0.01 -0.0178588)
(4.975 0.01 -0.0181086)
(5.025 0.01 -0.0183583)
(5.075 0.01 -0.0186084)
(5.125 0.01 -0.0188583)
(5.175 0.01 -0.0191084)
(5.225 0.01 -0.0193584)
(5.275 0.01 -0.0196086)
(5.325 0.01 -0.0198582)
(5.375 0.01 -0.020108)
(5.425 0.01 -0.0203577)
(5.475 0.01 -0.0206077)
(5.525 0.01 -0.0208576)
(5.575 0.01 -0.0211077)
(5.625 0.01 -0.0213577)
(5.675 0.01 -0.0216079)
(5.725 0.01 -0.021858)
(5.775 0.01 -0.0221083)
(5.825 0.01 -0.0223579)
(5.875 0.01 -0.0226078)
(5.925 0.01 -0.0228574)
(5.975 0.01 -0.0231075)
(6.025 0.01 -0.0233572)
(6.075 0.01 -0.0236074)
(6.125 0.01 -0.0238573)
(6.175 0.01 -0.0241076)
(6.225 0.01 -0.0243574)
(6.275 0.01 -0.0246078)
(6.325 0.01 -0.0248572)
(6.375 0.01 -0.0251071)
(6.425 0.01 -0.0253565)
(6.475 0.01 -0.0256066)
(6.525 0.01 -0.0258561)
(6.575 0.01 -0.0261064)
(6.625 0.01 -0.026356)
(6.675 0.01 -0.0266063)
(6.725 0.01 -0.026856)
(6.775 0.01 -0.0271064)
(6.825 0.01 -0.0273561)
(6.875 0.01 -0.0276062)
(6.925 0.01 -0.0278553)
(6.975 0.01 -0.0281054)
(7.025 0.01 -0.0283547)
(7.075 0.01 -0.0286049)
(7.125 0.01 -0.0288544)
(7.175 0.01 -0.0291047)
(7.225 0.01 -0.0293543)
(7.275 0.01 -0.0296046)
(7.325 0.01 -0.0298543)
(7.375 0.01 -0.0301042)
(7.425 0.01 -0.0303534)
(7.475 0.01 -0.0306034)
(7.525 0.01 -0.0308528)
(7.575 0.01 -0.0311029)
(7.625 0.01 -0.0313525)
(7.675 0.01 -0.0316026)
(7.725 0.01 -0.0318524)
(7.775 0.01 -0.0321026)
(7.825 0.01 -0.0323524)
(7.875 0.01 -0.0326027)
(7.925 0.01 -0.0328522)
(7.975 0.01 -0.0331019)
(8.025 0.01 -0.0333515)
(8.075 0.01 -0.0336014)
(8.125 0.01 -0.0338512)
(8.175 0.01 -0.0341012)
(8.225 0.01 -0.0343511)
(8.275 0.01 -0.0346012)
(8.325 0.01 -0.0348513)
(8.375 0.01 -0.0351014)
(8.425 0.01 -0.0353512)
(8.475 0.01 -0.0356009)
(8.525 0.01 -0.0358508)
(8.575 0.01 -0.0361006)
(8.625 0.01 -0.0363507)
(8.675 0.01 -0.0366006)
(8.725 0.01 -0.0368508)
(8.775 0.01 -0.0371009)
(8.825 0.01 -0.0373512)
(8.875 0.01 -0.0376013)
(8.925 0.01 -0.0378513)
(8.975 0.01 -0.0381009)
(9.025 0.01 -0.0383511)
(9.075 0.01 -0.0386008)
(9.125 0.01 -0.0388511)
(9.175 0.01 -0.039101)
(9.225 0.01 -0.0393514)
(9.275 0.01 -0.0396014)
(9.325 0.01 -0.0398519)
(9.375 0.01 -0.040102)
(9.425 0.01 -0.0403522)
(9.475 0.01 -0.0406018)
(9.525 0.01 -0.0408521)
(9.575 0.01 -0.0411018)
(9.625 0.01 -0.0413523)
(9.675 0.01 -0.0416022)
(9.725 0.01 -0.0418527)
(9.775 0.01 -0.0421028)
(9.825 0.01 -0.0423534)
(9.875 0.01 -0.0426034)
(9.925 0.01 -0.0428537)
(9.975 0.01 -0.0431034)
(10.025 0.01 -0.0433538)
(10.075 0.01 -0.0436036)
(10.125 0.01 -0.043854)
(10.175 0.01 -0.044104)
(10.225 0.01 -0.0443546)
(10.275 0.01 -0.0446047)
(10.325 0.01 -0.0448553)
(10.375 0.01 -0.0451052)
(10.425 0.01 -0.0453553)
(10.475 0.01 -0.0456052)
(10.525 0.01 -0.0458556)
(10.575 0.01 -0.0461056)
(10.625 0.01 -0.0463561)
(10.675 0.01 -0.0466061)
(10.725 0.01 -0.0468566)
(10.775 0.01 -0.0471067)
(10.825 0.01 -0.0473568)
(10.875 0.01 -0.0476066)
(10.925 0.01 -0.0478568)
(10.975 0.01 -0.0481068)
(11.025 0.01 -0.0483571)
(11.075 0.01 -0.0486073)
(11.125 0.01 -0.0488578)
(11.175 0.01 -0.0491079)
(11.225 0.01 -0.0493583)
(11.275 0.01 -0.0496083)
(11.325 0.01 -0.0498584)
(11.375 0.01 -0.0501083)
(11.425 0.01 -0.0503585)
(11.475 0.01 -0.0506086)
(11.525 0.01 -0.050859)
(11.575 0.01 -0.0511092)
(11.625 0.01 -0.0513595)
(11.675 0.01 -0.0516099)
(11.725 0.01 -0.0518599)
(11.775 0.01 -0.0521097)
(11.825 0.01 -0.0523599)
(11.875 0.01 -0.05261)
(11.925 0.01 -0.0528601)
(11.975 0.01 -0.0531101)
(12.025 0.01 -0.0533605)
(12.075 0.01 -0.0536108)
(12.125 0.01 -0.0538608)
(12.175 0.01 -0.0541106)
(12.225 0.01 -0.0543606)
(12.275 0.01 -0.0546105)
(12.325 0.01 -0.0548607)
(12.375 0.01 -0.0551107)
(12.425 0.01 -0.0553609)
(12.475 0.01 -0.0556111)
(12.525 0.01 -0.0558612)
(12.575 0.01 -0.056111)
(12.625 0.01 -0.0563611)
(12.675 0.01 -0.0566111)
(12.725 0.01 -0.0568612)
(12.775 0.01 -0.0571112)
(12.825 0.01 -0.0573616)
(12.875 0.01 -0.0576119)
(12.925 0.01 -0.0578618)
(12.975 0.01 -0.0581116)
(13.025 0.01 -0.0583615)
(13.075 0.01 -0.0586114)
(13.125 0.01 -0.0588616)
(13.175 0.01 -0.0591118)
(13.225 0.01 -0.0593621)
(13.275 0.01 -0.0596123)
(13.325 0.01 -0.0598623)
(13.375 0.01 -0.0601122)
(13.425 0.01 -0.0603622)
(13.475 0.01 -0.0606122)
(13.525 0.01 -0.0608623)
(13.575 0.01 -0.0611124)
(13.625 0.01 -0.0613626)
(13.675 0.01 -0.0616124)
(13.725 0.01 -0.0618622)
(13.775 0.01 -0.0621121)
(13.825 0.01 -0.062362)
(13.875 0.01 -0.0626119)
(13.925 0.01 -0.062862)
(13.975 0.01 -0.0631122)
(14.025 0.01 -0.0633618)
(14.075 0.01 -0.0636119)
(14.125 0.01 -0.0638619)
(14.175 0.01 -0.0641114)
(14.225 0.01 -0.0643617)
(14.275 0.01 -0.0646104)
(14.325 0.01 -0.0648612)
(14.375 0.01 -0.0651135)
(14.425 0.01 -0.0653635)
(14.475 0.01 -0.0656134)
(14.525 0.01 -0.065864)
(14.575 0.01 -0.0661111)
(14.625 0.01 -0.0663625)
(14.675 0.01 -0.0665492)
(14.725 0.01 -0.0664107)
(14.775 0.01 -0.0671186)
(14.8251 0.01 -0.0701943)
(14.875 0.01 -0.0724919)
(14.925 0.01 -0.0727506)
(14.975 0.01 -0.0729999)
(0.025 0.01 0.0055)
(0.075 0.01 0.00525)
(0.125 0.01 0.005)
(0.175 0.01 0.00475)
(0.225 0.01 0.0045)
(0.275 0.01 0.00425)
(0.325 0.01 0.004)
(0.375 0.01 0.00375)
(0.425 0.01 0.0035)
(0.475 0.01 0.00325)
(0.525 0.01 0.003)
(0.575 0.01 0.00275)
(0.625 0.01 0.0025)
(0.675 0.01 0.00225)
(0.725 0.01 0.002)
(0.775 0.01 0.00175)
(0.825 0.01 0.0015)
(0.875 0.01 0.00125)
(0.925 0.01 0.001)
(0.975 0.01 0.00075)
(1.025 0.01 0.0005)
(1.075 0.01 0.00025)
(1.125 0.01 -2.49877e-20)
(1.175 0.01 -0.00025)
(1.225 0.01 -0.0005)
(1.275 0.01 -0.00075)
(1.325 0.01 -0.001)
(1.375 0.01 -0.00125)
(1.425 0.01 -0.0015)
(1.475 0.01 -0.00175)
(1.525 0.01 -0.002)
(1.575 0.01 -0.00225)
(1.625 0.01 -0.0025)
(1.675 0.01 -0.00275)
(1.725 0.01 -0.003)
(1.775 0.01 -0.00325)
(1.825 0.01 -0.0035)
(1.875 0.01 -0.00375)
(1.925 0.01 -0.004)
(1.975 0.01 -0.00425)
(2.025 0.01 -0.0045)
(2.075 0.01 -0.00475)
(2.125 0.01 -0.005)
(2.175 0.01 -0.00525)
(2.225 0.01 -0.0055)
(2.275 0.01 -0.00575)
(2.325 0.01 -0.006)
(2.375 0.01 -0.00625)
(2.425 0.01 -0.0065)
(2.475 0.01 -0.00675)
(2.525 0.01 -0.007)
(2.575 0.01 -0.00725)
(2.625 0.01 -0.0075)
(2.675 0.01 -0.00775)
(2.725 0.01 -0.008)
(2.775 0.01 -0.00825001)
(2.825 0.01 -0.00849982)
(2.875 0.01 -0.00875213)
(2.92506 0.01 -0.00897383)
(2.97485 0.01 -0.00715134)
(3.02496 0.01 -0.00457576)
(3.07505 0.01 -0.00431863)
(3.12494 0.01 -0.00435166)
(3.17505 0.01 -0.00453185)
(3.22498 0.01 -0.00510992)
(3.27501 0.01 -0.00531087)
(3.325 0.01 -0.00557366)
(3.375 0.01 -0.00582811)
(3.425 0.01 -0.00610698)
(3.475 0.01 -0.00639016)
(3.525 0.01 -0.00668339)
(3.575 0.01 -0.00698004)
(3.625 0.01 -0.00727703)
(3.675 0.01 -0.00757327)
(3.725 0.01 -0.00786763)
(3.775 0.01 -0.0081597)
(3.825 0.01 -0.00844817)
(3.875 0.01 -0.00873281)
(3.925 0.01 -0.00901364)
(3.975 0.01 -0.0092906)
(4.025 0.01 -0.00956381)
(4.075 0.01 -0.00983314)
(4.125 0.01 -0.010099)
(4.175 0.01 -0.0103622)
(4.225 0.01 -0.010623)
(4.275 0.01 -0.0108818)
(4.325 0.01 -0.0111387)
(4.375 0.01 -0.0113941)
(4.425 0.01 -0.0116478)
(4.475 0.01 -0.0119003)
(4.525 0.01 -0.0121522)
(4.575 0.01 -0.0124035)
(4.625 0.01 -0.0126545)
(4.675 0.01 -0.0129051)
(4.725 0.01 -0.0131556)
(4.775 0.01 -0.013406)
(4.825 0.01 -0.0136558)
(4.875 0.01 -0.0139054)
(4.925 0.01 -0.0141551)
(4.975 0.01 -0.0144049)
(5.025 0.01 -0.0146547)
(5.075 0.01 -0.0149047)
(5.125 0.01 -0.0151546)
(5.175 0.01 -0.0154047)
(5.225 0.01 -0.0156548)
(5.275 0.01 -0.0159049)
(5.325 0.01 -0.0161546)
(5.375 0.01 -0.0164043)
(5.425 0.01 -0.0166541)
(5.475 0.01 -0.016904)
(5.525 0.01 -0.0171539)
(5.575 0.01 -0.0174041)
(5.625 0.01 -0.017654)
(5.675 0.01 -0.0179043)
(5.725 0.01 -0.0181543)
(5.775 0.01 -0.0184046)
(5.825 0.01 -0.0186543)
(5.875 0.01 -0.0189041)
(5.925 0.01 -0.0191538)
(5.975 0.01 -0.0194038)
(6.025 0.01 -0.0196536)
(6.075 0.01 -0.0199038)
(6.125 0.01 -0.0201537)
(6.175 0.01 -0.0204039)
(6.225 0.01 -0.0206538)
(6.275 0.01 -0.0209041)
(6.325 0.01 -0.0211535)
(6.375 0.01 -0.0214034)
(6.425 0.01 -0.0216529)
(6.475 0.01 -0.0219029)
(6.525 0.01 -0.0221525)
(6.575 0.01 -0.0224027)
(6.625 0.01 -0.0226524)
(6.675 0.01 -0.0229027)
(6.725 0.01 -0.0231524)
(6.775 0.01 -0.0234028)
(6.825 0.01 -0.0236525)
(6.875 0.01 -0.0239025)
(6.925 0.01 -0.0241517)
(6.975 0.01 -0.0244018)
(7.025 0.01 -0.0246511)
(7.075 0.01 -0.0249013)
(7.125 0.01 -0.0251508)
(7.175 0.01 -0.0254011)
(7.225 0.01 -0.0256507)
(7.275 0.01 -0.025901)
(7.325 0.01 -0.0261506)
(7.375 0.01 -0.0264006)
(7.425 0.01 -0.0266498)
(7.475 0.01 -0.0268998)
(7.525 0.01 -0.0271492)
(7.575 0.01 -0.0273993)
(7.625 0.01 -0.0276489)
(7.675 0.01 -0.0278991)
(7.725 0.01 -0.0281488)
(7.775 0.01 -0.028399)
(7.825 0.01 -0.0286488)
(7.875 0.01 -0.0288991)
(7.925 0.01 -0.0291486)
(7.975 0.01 -0.0293983)
(8.025 0.01 -0.0296479)
(8.075 0.01 -0.0298978)
(8.125 0.01 -0.0301476)
(8.175 0.01 -0.0303976)
(8.225 0.01 -0.0306476)
(8.275 0.01 -0.0308977)
(8.325 0.01 -0.0311478)
(8.375 0.01 -0.0313979)
(8.425 0.01 -0.0316477)
(8.475 0.01 -0.0318973)
(8.525 0.01 -0.0321472)
(8.575 0.01 -0.032397)
(8.625 0.01 -0.0326471)
(8.675 0.01 -0.0328971)
(8.725 0.01 -0.0331473)
(8.775 0.01 -0.0333973)
(8.825 0.01 -0.0336477)
(8.875 0.01 -0.0338977)
(8.925 0.01 -0.0341477)
(8.975 0.01 -0.0343974)
(9.025 0.01 -0.0346475)
(9.075 0.01 -0.0348973)
(9.125 0.01 -0.0351475)
(9.175 0.01 -0.0353974)
(9.225 0.01 -0.0356478)
(9.275 0.01 -0.0358978)
(9.325 0.01 -0.0361483)
(9.375 0.01 -0.0363984)
(9.425 0.01 -0.0366486)
(9.475 0.01 -0.0368982)
(9.525 0.01 -0.0371485)
(9.575 0.01 -0.0373983)
(9.625 0.01 -0.0376487)
(9.675 0.01 -0.0378987)
(9.725 0.01 -0.0381492)
(9.775 0.01 -0.0383992)
(9.825 0.01 -0.0386498)
(9.875 0.01 -0.0388998)
(9.925 0.01 -0.0391501)
(9.975 0.01 -0.0393998)
(10.025 0.01 -0.0396502)
(10.075 0.01 -0.0399)
(10.125 0.01 -0.0401504)
(10.175 0.01 -0.0404004)
(10.225 0.01 -0.040651)
(10.275 0.01 -0.0409011)
(10.325 0.01 -0.0411517)
(10.375 0.01 -0.0414016)
(10.425 0.01 -0.0416517)
(10.475 0.01 -0.0419016)
(10.525 0.01 -0.042152)
(10.575 0.01 -0.042402)
(10.625 0.01 -0.0426524)
(10.675 0.01 -0.0429025)
(10.725 0.01 -0.0431529)
(10.775 0.01 -0.043403)
(10.825 0.01 -0.0436532)
(10.875 0.01 -0.043903)
(10.925 0.01 -0.0441532)
(10.975 0.01 -0.0444032)
(11.025 0.01 -0.0446535)
(11.075 0.01 -0.0449036)
(11.125 0.01 -0.0451541)
(11.175 0.01 -0.0454043)
(11.225 0.01 -0.0456546)
(11.275 0.01 -0.0459046)
(11.325 0.01 -0.0461547)
(11.375 0.01 -0.0464046)
(11.425 0.01 -0.0466549)
(11.475 0.01 -0.046905)
(11.525 0.01 -0.0471553)
(11.575 0.01 -0.0474055)
(11.625 0.01 -0.0476559)
(11.675 0.01 -0.0479062)
(11.725 0.01 -0.0481563)
(11.775 0.01 -0.0484061)
(11.825 0.01 -0.0486563)
(11.875 0.01 -0.0489063)
(11.925 0.01 -0.0491564)
(11.975 0.01 -0.0494065)
(12.025 0.01 -0.0496569)
(12.075 0.01 -0.0499071)
(12.125 0.01 -0.0501572)
(12.175 0.01 -0.0504069)
(12.225 0.01 -0.0506569)
(12.275 0.01 -0.0509068)
(12.325 0.01 -0.051157)
(12.375 0.01 -0.0514071)
(12.425 0.01 -0.0516572)
(12.475 0.01 -0.0519074)
(12.525 0.01 -0.0521575)
(12.575 0.01 -0.0524073)
(12.625 0.01 -0.0526574)
(12.675 0.01 -0.0529074)
(12.725 0.01 -0.0531575)
(12.775 0.01 -0.0534076)
(12.825 0.01 -0.0536579)
(12.875 0.01 -0.0539082)
(12.925 0.01 -0.0541581)
(12.975 0.01 -0.0544079)
(13.025 0.01 -0.0546578)
(13.075 0.01 -0.0549077)
(13.125 0.01 -0.0551579)
(13.175 0.01 -0.0554081)
(13.225 0.01 -0.0556584)
(13.275 0.01 -0.0559086)
(13.325 0.01 -0.0561586)
(13.375 0.01 -0.0564085)
(13.425 0.01 -0.0566585)
(13.475 0.01 -0.0569085)
(13.525 0.01 -0.0571586)
(13.575 0.01 -0.0574087)
(13.625 0.01 -0.0576589)
(13.675 0.01 -0.0579087)
(13.725 0.01 -0.0581585)
(13.775 0.01 -0.0584084)
(13.825 0.01 -0.0586583)
(13.875 0.01 -0.0589082)
(13.925 0.01 -0.0591583)
(13.975 0.01 -0.0594085)
(14.025 0.01 -0.0596581)
(14.075 0.01 -0.0599082)
(14.125 0.01 -0.0601582)
(14.175 0.01 -0.0604077)
(14.225 0.01 -0.060658)
(14.275 0.01 -0.0609068)
(14.325 0.01 -0.0611576)
(14.375 0.01 -0.0614097)
(14.425 0.01 -0.0616598)
(14.475 0.01 -0.0619097)
(14.525 0.01 -0.0621602)
(14.575 0.01 -0.0624075)
(14.625 0.01 -0.0626586)
(14.675 0.01 -0.0628435)
(14.725 0.01 -0.0627173)
(14.775 0.01 -0.0634288)
(14.8251 0.01 -0.0664556)
(14.8749 0.01 -0.068723)
(14.925 0.01 -0.0690022)
(14.975 0.01 -0.0692498)
(0.025 0.01 0.00925)
(0.075 0.01 0.009)
(0.125 0.01 0.00875)
(0.175 0.01 0.0085)
(0.225 0.01 0.00825)
(0.275 0.01 0.008)
(0.325 0.01 0.00775)
(0.375 0.01 0.0075)
(0.425 0.01 0.00725)
(0.475 0.01 0.007)
(0.525 0.01 0.00675)
(0.575 0.01 0.0065)
(0.625 0.01 0.00625)
(0.675 0.01 0.006)
(0.725 0.01 0.00575)
(0.775 0.01 0.0055)
(0.825 0.01 0.00525)
(0.875 0.01 0.005)
(0.925 0.01 0.00475)
(0.975 0.01 0.0045)
(1.025 0.01 0.00425)
(1.075 0.01 0.004)
(1.125 0.01 0.00375)
(1.175 0.01 0.0035)
(1.225 0.01 0.00325)
(1.275 0.01 0.003)
(1.325 0.01 0.00275)
(1.375 0.01 0.0025)
(1.425 0.01 0.00225)
(1.475 0.01 0.002)
(1.525 0.01 0.00175)
(1.575 0.01 0.0015)
(1.625 0.01 0.00125)
(1.675 0.01 0.001)
(1.725 0.01 0.00075)
(1.775 0.01 0.0005)
(1.825 0.01 0.00025)
(1.875 0.01 2.98991e-19)
(1.925 0.01 -0.00025)
(1.975 0.01 -0.0005)
(2.025 0.01 -0.00075)
(2.075 0.01 -0.001)
(2.125 0.01 -0.00125)
(2.175 0.01 -0.0015)
(2.225 0.01 -0.00175)
(2.275 0.01 -0.002)
(2.325 0.01 -0.00225)
(2.375 0.01 -0.0025)
(2.425 0.01 -0.00275)
(2.475 0.01 -0.003)
(2.525 0.01 -0.00325)
(2.575 0.01 -0.0035)
(2.625 0.01 -0.00375)
(2.675 0.01 -0.004)
(2.725 0.01 -0.00425)
(2.775 0.01 -0.00450003)
(2.825 0.01 -0.00474966)
(2.87499 0.01 -0.00500401)
(2.92506 0.01 -0.0052024)
(2.97472 0.01 -0.00345963)
(3.0249 0.01 -0.00100155)
(3.07507 0.01 -0.00074638)
(3.1249 0.01 -0.000789369)
(3.17509 0.01 -0.000975428)
(3.22498 0.01 -0.00153206)
(3.27501 0.01 -0.00173962)
(3.325 0.01 -0.00200079)
(3.375 0.01 -0.00225545)
(3.425 0.01 -0.0025329)
(3.475 0.01 -0.00281476)
(3.525 0.01 -0.00310614)
(3.575 0.01 -0.00340084)
(3.625 0.01 -0.00369588)
(3.675 0.01 -0.00399022)
(3.725 0.01 -0.00428277)
(3.775 0.01 -0.00457311)
(3.825 0.01 -0.00486003)
(3.875 0.01 -0.00514327)
(3.925 0.01 -0.00542286)
(3.975 0.01 -0.00569874)
(4.025 0.01 -0.00597102)
(4.075 0.01 -0.00623958)
(4.125 0.01 -0.00650485)
(4.175 0.01 -0.0067675)
(4.225 0.01 -0.00702787)
(4.275 0.01 -0.0072863)
(4.325 0.01 -0.00754295)
(4.375 0.01 -0.00779815)
(4.425 0.01 -0.00805172)
(4.475 0.01 -0.00830408)
(4.525 0.01 -0.00855587)
(4.575 0.01 -0.00880712)
(4.625 0.01 -0.00905809)
(4.675 0.01 -0.00930873)
(4.725 0.01 -0.0095592)
(4.775 0.01 -0.00980952)
(4.825 0.01 -0.0100594)
(4.875 0.01 -0.010309)
(4.925 0.01 -0.0105587)
(4.975 0.01 -0.0108085)
(5.025 0.01 -0.0110583)
(5.075 0.01 -0.0113083)
(5.125 0.01 -0.0115583)
(5.175 0.01 -0.0118084)
(5.225 0.01 -0.0120584)
(5.275 0.01 -0.0123085)
(5.325 0.01 -0.0125582)
(5.375 0.01 -0.012808)
(5.425 0.01 -0.0130577)
(5.475 0.01 -0.0133077)
(5.525 0.01 -0.0135576)
(5.575 0.01 -0.0138077)
(5.625 0.01 -0.0140577)
(5.675 0.01 -0.0143079)
(5.725 0.01 -0.014558)
(5.775 0.01 -0.0148083)
(5.825 0.01 -0.0150579)
(5.875 0.01 -0.0153078)
(5.925 0.01 -0.0155574)
(5.975 0.01 -0.0158075)
(6.025 0.01 -0.0160572)
(6.075 0.01 -0.0163075)
(6.125 0.01 -0.0165573)
(6.175 0.01 -0.0168076)
(6.225 0.01 -0.0170575)
(6.275 0.01 -0.0173077)
(6.325 0.01 -0.0175572)
(6.375 0.01 -0.0178071)
(6.425 0.01 -0.0180566)
(6.475 0.01 -0.0183066)
(6.525 0.01 -0.0185562)
(6.575 0.01 -0.0188064)
(6.625 0.01 -0.0190561)
(6.675 0.01 -0.0193064)
(6.725 0.01 -0.0195561)
(6.775 0.01 -0.0198065)
(6.825 0.01 -0.0200562)
(6.875 0.01 -0.0203062)
(6.925 0.01 -0.0205555)
(6.975 0.01 -0.0208055)
(7.025 0.01 -0.0210549)
(7.075 0.01 -0.0213051)
(7.125 0.01 -0.0215546)
(7.175 0.01 -0.0218048)
(7.225 0.01 -0.0220545)
(7.275 0.01 -0.0223048)
(7.325 0.01 -0.0225544)
(7.375 0.01 -0.0228044)
(7.425 0.01 -0.0230537)
(7.475 0.01 -0.0233036)
(7.525 0.01 -0.0235531)
(7.575 0.01 -0.0238031)
(7.625 0.01 -0.0240527)
(7.675 0.01 -0.0243029)
(7.725 0.01 -0.0245526)
(7.775 0.01 -0.0248029)
(7.825 0.01 -0.0250527)
(7.875 0.01 -0.0253029)
(7.925 0.01 -0.0255524)
(7.975 0.01 -0.0258022)
(8.025 0.01 -0.0260518)
(8.075 0.01 -0.0263017)
(8.125 0.01 -0.0265515)
(8.175 0.01 -0.0268015)
(8.225 0.01 -0.0270515)
(8.275 0.01 -0.0273016)
(8.325 0.01 -0.0275517)
(8.375 0.01 -0.0278018)
(8.425 0.01 -0.0280516)
(8.475 0.01 -0.0283013)
(8.525 0.01 -0.0285511)
(8.575 0.01 -0.028801)
(8.625 0.01 -0.029051)
(8.675 0.01 -0.029301)
(8.725 0.01 -0.0295512)
(8.775 0.01 -0.0298012)
(8.825 0.01 -0.0300516)
(8.875 0.01 -0.0303016)
(8.925 0.01 -0.0305516)
(8.975 0.01 -0.0308013)
(9.025 0.01 -0.0310514)
(9.075 0.01 -0.0313012)
(9.125 0.01 -0.0315514)
(9.175 0.01 -0.0318013)
(9.225 0.01 -0.0320517)
(9.275 0.01 -0.0323017)
(9.325 0.01 -0.0325522)
(9.375 0.01 -0.0328023)
(9.425 0.01 -0.0330525)
(9.475 0.01 -0.0333021)
(9.525 0.01 -0.0335523)
(9.575 0.01 -0.0338022)
(9.625 0.01 -0.0340525)
(9.675 0.01 -0.0343025)
(9.725 0.01 -0.034553)
(9.775 0.01 -0.034803)
(9.825 0.01 -0.0350536)
(9.875 0.01 -0.0353037)
(9.925 0.01 -0.0355539)
(9.975 0.01 -0.0358037)
(10.025 0.01 -0.036054)
(10.075 0.01 -0.0363038)
(10.125 0.01 -0.0365542)
(10.175 0.01 -0.0368042)
(10.225 0.01 -0.0370548)
(10.275 0.01 -0.0373049)
(10.325 0.01 -0.0375555)
(10.375 0.01 -0.0378053)
(10.425 0.01 -0.0380554)
(10.475 0.01 -0.0383053)
(10.525 0.01 -0.0385557)
(10.575 0.01 -0.0388057)
(10.625 0.01 -0.0390561)
(10.675 0.01 -0.0393062)
(10.725 0.01 -0.0395566)
(10.775 0.01 -0.0398067)
(10.825 0.01 -0.0400569)
(10.875 0.01 -0.0403067)
(10.925 0.01 -0.0405569)
(10.975 0.01 -0.0408069)
(11.025 0.01 -0.0410572)
(11.075 0.01 -0.0413073)
(11.125 0.01 -0.0415578)
(11.175 0.01 -0.0418079)
(11.225 0.01 -0.0420583)
(11.275 0.01 -0.0423082)
(11.325 0.01 -0.0425583)
(11.375 0.01 -0.0428082)
(11.425 0.01 -0.0430585)
(11.475 0.01 -0.0433086)
(11.525 0.01 -0.0435589)
(11.575 0.01 -0.0438091)
(11.625 0.01 -0.0440594)
(11.675 0.01 -0.0443097)
(11.725 0.01 -0.0445598)
(11.775 0.01 -0.0448096)
(11.825 0.01 -0.0450598)
(11.875 0.01 -0.0453099)
(11.925 0.01 -0.04556)
(11.975 0.01 -0.04581)
(12.025 0.01 -0.0460604)
(12.075 0.01 -0.0463106)
(12.125 0.01 -0.0465607)
(12.175 0.01 -0.0468105)
(12.225 0.01 -0.0470604)
(12.275 0.01 -0.0473103)
(12.325 0.01 -0.0475605)
(12.375 0.01 -0.0478106)
(12.425 0.01 -0.0480607)
(12.475 0.01 -0.0483109)
(12.525 0.01 -0.048561)
(12.575 0.01 -0.0488109)
(12.625 0.01 -0.0490609)
(12.675 0.01 -0.049311)
(12.725 0.01 -0.049561)
(12.775 0.01 -0.0498111)
(12.825 0.01 -0.0500614)
(12.875 0.01 -0.0503116)
(12.925 0.01 -0.0505616)
(12.975 0.01 -0.0508114)
(13.025 0.01 -0.0510613)
(13.075 0.01 -0.0513113)
(13.125 0.01 -0.0515614)
(13.175 0.01 -0.0518116)
(13.225 0.01 -0.0520618)
(13.275 0.01 -0.052312)
(13.325 0.01 -0.052562)
(13.375 0.01 -0.052812)
(13.425 0.01 -0.053062)
(13.475 0.01 -0.053312)
(13.525 0.01 -0.0535621)
(13.575 0.01 -0.0538122)
(13.625 0.01 -0.0540623)
(13.675 0.01 -0.0543121)
(13.725 0.01 -0.0545619)
(13.775 0.01 -0.0548118)
(13.825 0.01 -0.0550618)
(13.875 0.01 -0.0553118)
(13.925 0.01 -0.0555619)
(13.975 0.01 -0.055812)
(14.025 0.01 -0.0560615)
(14.075 0.01 -0.0563115)
(14.125 0.01 -0.0565616)
(14.175 0.01 -0.0568112)
(14.225 0.01 -0.0570615)
(14.275 0.01 -0.0573104)
(14.325 0.01 -0.0575611)
(14.375 0.01 -0.0578131)
(14.425 0.01 -0.0580632)
(14.475 0.01 -0.0583131)
(14.525 0.01 -0.0585636)
(14.575 0.01 -0.0588111)
(14.625 0.01 -0.0590619)
(14.675 0.01 -0.0592465)
(14.7249 0.01 -0.0591437)
(14.7751 0.01 -0.0598497)
(14.8253 0.01 -0.0627612)
(14.8749 0.01 -0.0649516)
(14.925 0.01 -0.0652541)
(14.975 0.01 -0.0654996)
(0.025 0.01 0.013)
(0.075 0.01 0.01275)
(0.125 0.01 0.0125)
(0.175 0.01 0.01225)
(0.225 0.01 0.012)
(0.275 0.01 0.01175)
(0.325 0.01 0.0115)
(0.375 0.01 0.01125)
(0.425 0.01 0.011)
(0.475 0.01 0.01075)
(0.525 0.01 0.0105)
(0.575 0.01 0.01025)
(0.625 0.01 0.01)
(0.675 0.01 0.00975)
(0.725 0.01 0.0095)
(0.775 0.01 0.00925)
(0.825 0.01 0.009)
(0.875 0.01 0.00875)
(0.925 0.01 0.0085)
(0.975 0.01 0.00825)
(1.025 0.01 0.008)
(1.075 0.01 0.00775)
(1.125 0.01 0.0075)
(1.175 0.01 0.00725)
(1.225 0.01 0.007)
(1.275 0.01 0.00675)
(1.325 0.01 0.0065)
(1.375 0.01 0.00625)
(1.425 0.01 0.006)
(1.475 0.01 0.00575)
(1.525 0.01 0.0055)
(1.575 0.01 0.00525)
(1.625 0.01 0.005)
(1.675 0.01 0.00475)
(1.725 0.01 0.0045)
(1.775 0.01 0.00425)
(1.825 0.01 0.004)
(1.875 0.01 0.00375)
(1.925 0.01 0.0035)
(1.975 0.01 0.00325)
(2.025 0.01 0.003)
(2.075 0.01 0.00275)
(2.125 0.01 0.0025)
(2.175 0.01 0.00225)
(2.225 0.01 0.002)
(2.275 0.01 0.00175)
(2.325 0.01 0.0015)
(2.375 0.01 0.00125)
(2.425 0.01 0.001)
(2.475 0.01 0.00075)
(2.525 0.01 0.0005)
(2.575 0.01 0.00025)
(2.625 0.01 2.68804e-11)
(2.675 0.01 -0.00025)
(2.725 0.01 -0.000499996)
(2.775 0.01 -0.000750042)
(2.825 0.01 -0.000999514)
(2.875 0.01 -0.00125562)
(2.92504 0.01 -0.00143427)
(2.97454 0.01 0.000159373)
(3.02481 0.01 0.00240532)
(3.07509 0.01 0.0026347)
(3.12485 0.01 0.00257225)
(3.17513 0.01 0.00237813)
(3.22497 0.01 0.00185491)
(3.27501 0.01 0.00163993)
(3.325 0.01 0.00138062)
(3.375 0.01 0.00112603)
(3.425 0.01 0.000851144)
(3.47501 0.01 0.000571977)
(3.52501 0.01 0.000284224)
(3.57501 0.01 -6.61264e-06)
(3.62501 0.01 -0.00029779)
(3.67501 0.01 -0.000588328)
(3.72501 0.01 -0.000877258)
(3.77501 0.01 -0.00116417)
(3.825 0.01 -0.00144797)
(3.875 0.01 -0.00172841)
(3.925 0.01 -0.00200551)
(3.975 0.01 -0.00227922)
(4.025 0.01 -0.00254964)
(4.075 0.01 -0.00281665)
(4.125 0.01 -0.00308065)
(4.175 0.01 -0.00334225)
(4.225 0.01 -0.00360176)
(4.275 0.01 -0.00385949)
(4.325 0.01 -0.00411559)
(4.375 0.01 -0.00437036)
(4.425 0.01 -0.00462363)
(4.475 0.01 -0.0048758)
(4.525 0.01 -0.00512744)
(4.575 0.01 -0.00537859)
(4.625 0.01 -0.00562948)
(4.675 0.01 -0.00588007)
(4.725 0.01 -0.00613049)
(4.775 0.01 -0.00638079)
(4.825 0.01 -0.0066307)
(4.875 0.01 -0.00688034)
(4.925 0.01 -0.00713007)
(4.975 0.01 -0.00737987)
(5.025 0.01 -0.00762968)
(5.075 0.01 -0.00787969)
(5.125 0.01 -0.00812965)
(5.175 0.01 -0.00837973)
(5.225 0.01 -0.00862975)
(5.275 0.01 -0.00887986)
(5.325 0.01 -0.0091296)
(5.375 0.01 -0.00937937)
(5.425 0.01 -0.00962916)
(5.475 0.01 -0.00987912)
(5.525 0.01 -0.010129)
(5.575 0.01 -0.0103791)
(5.625 0.01 -0.0106291)
(5.675 0.01 -0.0108793)
(5.725 0.01 -0.0111294)
(5.775 0.01 -0.0113796)
(5.825 0.01 -0.0116293)
(5.875 0.01 -0.0118792)
(5.925 0.01 -0.0121289)
(5.975 0.01 -0.0123789)
(6.025 0.01 -0.0126287)
(6.075 0.01 -0.0128789)
(6.125 0.01 -0.0131288)
(6.175 0.01 -0.013379)
(6.225 0.01 -0.0136289)
(6.275 0.01 -0.0138792)
(6.325 0.01 -0.0141287)
(6.375 0.01 -0.0143786)
(6.425 0.01 -0.0146281)
(6.475 0.01 -0.0148781)
(6.525 0.01 -0.0151278)
(6.575 0.01 -0.0153779)
(6.625 0.01 -0.0156276)
(6.675 0.01 -0.0158779)
(6.725 0.01 -0.0161277)
(6.775 0.01 -0.016378)
(6.825 0.01 -0.0166277)
(6.875 0.01 -0.0168778)
(6.925 0.01 -0.0171271)
(6.975 0.01 -0.0173771)
(7.025 0.01 -0.0176266)
(7.075 0.01 -0.0178767)
(7.125 0.01 -0.0181263)
(7.175 0.01 -0.0183765)
(7.225 0.01 -0.0186262)
(7.275 0.01 -0.0188765)
(7.325 0.01 -0.0191261)
(7.375 0.01 -0.0193761)
(7.425 0.01 -0.0196254)
(7.475 0.01 -0.0198754)
(7.525 0.01 -0.0201249)
(7.575 0.01 -0.020375)
(7.625 0.01 -0.0206246)
(7.675 0.01 -0.0208747)
(7.725 0.01 -0.0211245)
(7.775 0.01 -0.0213747)
(7.825 0.01 -0.0216245)
(7.875 0.01 -0.0218747)
(7.925 0.01 -0.0221243)
(7.975 0.01 -0.0223741)
(8.025 0.01 -0.0226237)
(8.075 0.01 -0.0228736)
(8.125 0.01 -0.0231234)
(8.175 0.01 -0.0233735)
(8.225 0.01 -0.0236234)
(8.275 0.01 -0.0238735)
(8.325 0.01 -0.0241236)
(8.375 0.01 -0.0243737)
(8.425 0.01 -0.0246235)
(8.475 0.01 -0.0248732)
(8.525 0.01 -0.0251231)
(8.575 0.01 -0.025373)
(8.625 0.01 -0.025623)
(8.675 0.01 -0.025873)
(8.725 0.01 -0.0261231)
(8.775 0.01 -0.0263732)
(8.825 0.01 -0.0266235)
(8.875 0.01 -0.0268736)
(8.925 0.01 -0.0271236)
(8.975 0.01 -0.0273733)
(9.025 0.01 -0.0276233)
(9.075 0.01 -0.0278732)
(9.125 0.01 -0.0281233)
(9.175 0.01 -0.0283733)
(9.225 0.01 -0.0286236)
(9.275 0.01 -0.0288737)
(9.325 0.01 -0.0291241)
(9.375 0.01 -0.0293742)
(9.425 0.01 -0.0296243)
(9.475 0.01 -0.029874)
(9.525 0.01 -0.0301242)
(9.575 0.01 -0.0303741)
(9.625 0.01 -0.0306244)
(9.675 0.01 -0.0308744)
(9.725 0.01 -0.0311248)
(9.775 0.01 -0.0313749)
(9.825 0.01 -0.0316253)
(9.875 0.01 -0.0318754)
(9.925 0.01 -0.0321257)
(9.975 0.01 -0.0323754)
(10.025 0.01 -0.0326257)
(10.075 0.01 -0.0328756)
(10.125 0.01 -0.0331259)
(10.175 0.01 -0.033376)
(10.225 0.01 -0.0336264)
(10.275 0.01 -0.0338766)
(10.325 0.01 -0.0341271)
(10.375 0.01 -0.034377)
(10.425 0.01 -0.0346271)
(10.475 0.01 -0.034877)
(10.525 0.01 -0.0351273)
(10.575 0.01 -0.0353773)
(10.625 0.01 -0.0356277)
(10.675 0.01 -0.0358777)
(10.725 0.01 -0.0361281)
(10.775 0.01 -0.0363782)
(10.825 0.01 -0.0366284)
(10.875 0.01 -0.0368782)
(10.925 0.01 -0.0371284)
(10.975 0.01 -0.0373784)
(11.025 0.01 -0.0376286)
(11.075 0.01 -0.0378788)
(11.125 0.01 -0.0381292)
(11.175 0.01 -0.0383793)
(11.225 0.01 -0.0386296)
(11.275 0.01 -0.0388796)
(11.325 0.01 -0.0391297)
(11.375 0.01 -0.0393796)
(11.425 0.01 -0.0396298)
(11.475 0.01 -0.03988)
(11.525 0.01 -0.0401303)
(11.575 0.01 -0.0403804)
(11.625 0.01 -0.0406307)
(11.675 0.01 -0.040881)
(11.725 0.01 -0.0411311)
(11.775 0.01 -0.0413809)
(11.825 0.01 -0.0416311)
(11.875 0.01 -0.0418812)
(11.925 0.01 -0.0421312)
(11.975 0.01 -0.0423813)
(12.025 0.01 -0.0426316)
(12.075 0.01 -0.0428818)
(12.125 0.01 -0.0431319)
(12.175 0.01 -0.0433817)
(12.225 0.01 -0.0436316)
(12.275 0.01 -0.0438815)
(12.325 0.01 -0.0441317)
(12.375 0.01 -0.0443818)
(12.425 0.01 -0.0446319)
(12.475 0.01 -0.0448821)
(12.525 0.01 -0.0451321)
(12.575 0.01 -0.045382)
(12.625 0.01 -0.0456321)
(12.675 0.01 -0.0458821)
(12.725 0.01 -0.0461322)
(12.775 0.01 -0.0463822)
(12.825 0.01 -0.0466325)
(12.875 0.01 -0.0468827)
(12.925 0.01 -0.0471327)
(12.975 0.01 -0.0473825)
(13.025 0.01 -0.0476325)
(13.075 0.01 -0.0478824)
(13.125 0.01 -0.0481326)
(13.175 0.01 -0.0483827)
(13.225 0.01 -0.0486329)
(13.275 0.01 -0.0488831)
(13.325 0.01 -0.049133)
(13.375 0.01 -0.049383)
(13.425 0.01 -0.0496331)
(13.475 0.01 -0.0498832)
(13.525 0.01 -0.0501333)
(13.575 0.01 -0.0503833)
(13.625 0.01 -0.0506333)
(13.675 0.01 -0.0508831)
(13.725 0.01 -0.0511328)
(13.775 0.01 -0.0513829)
(13.825 0.01 -0.051633)
(13.875 0.01 -0.0518831)
(13.925 0.01 -0.0521331)
(13.975 0.01 -0.0523831)
(14.025 0.01 -0.0526326)
(14.075 0.01 -0.0528824)
(14.125 0.01 -0.0531325)
(14.175 0.01 -0.0533823)
(14.225 0.01 -0.0536326)
(14.275 0.01 -0.0538817)
(14.325 0.01 -0.0541323)
(14.375 0.01 -0.0543841)
(14.425 0.01 -0.0546342)
(14.475 0.01 -0.0548841)
(14.525 0.01 -0.0551345)
(14.575 0.01 -0.0553823)
(14.625 0.01 -0.0556328)
(14.675 0.01 -0.0558205)
(14.7249 0.01 -0.055754)
(14.7752 0.01 -0.0564345)
(14.8254 0.01 -0.0591382)
(14.875 0.01 -0.0611836)
(14.925 0.01 -0.0615057)
(14.975 0.01 -0.0617495)
(0.025 0.01 0.01675)
(0.075 0.01 0.0165)
(0.125 0.01 0.01625)
(0.175 0.01 0.016)
(0.225 0.01 0.01575)
(0.275 0.01 0.0155)
(0.325 0.01 0.01525)
(0.375 0.01 0.015)
(0.425 0.01 0.01475)
(0.475 0.01 0.0145)
(0.525 0.01 0.01425)
(0.575 0.01 0.014)
(0.625 0.01 0.01375)
(0.675 0.01 0.0135)
(0.725 0.01 0.01325)
(0.775 0.01 0.013)
(0.825 0.01 0.01275)
(0.875 0.01 0.0125)
(0.925 0.01 0.01225)
(0.975 0.01 0.012)
(1.025 0.01 0.01175)
(1.075 0.01 0.0115)
(1.125 0.01 0.01125)
(1.175 0.01 0.011)
(1.225 0.01 0.01075)