/*--------------------------------*- C++ -*----------------------------------*\
| =========                 |                                                 |
| \\      /  F ield         | foam-extend: Open Source CFD                    |
|  \\    /   O peration     | Version:     3.2                                |
|   \\  /    A nd           | Web:         http://www.foam-extend.org         |
|    \\/     M anipulation  | For copyright notice see file Copyright         |
\*---------------------------------------------------------------------------*/
FoamFile
{
    version     2.0;
    format      ascii;
    class       tetPointVectorField;
    location    "2020";
    object      motionU;
}
// * * * * * * * * * * * * * * * * * * * * * * * * * * * * * * * * * * * * * //

dimensions      [0 1 -1 0 0 0 0];

internalField   nonuniform List<vector> 
17726
(
(0 0 0)
(0 0 0)
(0 0 0)
(0 0 0)
(0 0 0)
(0 0 0)
(0 0 0)
(0 0 0)
(0 0 0)
(0 0 0)
(0 0 0)
(0 0 0)
(0 0 0)
(0 0 0)
(0 0 0)
(0 0 0)
(0 0 0)
(0 0 0)
(0 0 0)
(0 0 0)
(0 0 0)
(0 0 0)
(0 0 0)
(0 0 0)
(0 0 0)
(0 0 0)
(0 0 0)
(0 0 0)
(0 0 0)
(0 0 0)
(0 0 0)
(0 0 0)
(0 0 0)
(0 0 0)
(0 0 0)
(0 0 0)
(0 0 0)
(0 0 0)
(0 0 0)
(0 0 0)
(0 0 0)
(0 0 0)
(0 0 0)
(0 0 0)
(0 0 0)
(0 0 0)
(0 0 0)
(0 0 0)
(0 0 0)
(0 0 0)
(0 0 0)
(0 0 0)
(0 0 0)
(0 0 0)
(0 0 0)
(0 0 0)
(0 0 0)
(0 0 0)
(0 0 0)
(0 0 0)
(0 0 -4.36659e-10)
(0 0 -1.17249e-09)
(0 0 -8.10187e-10)
(0 0 -1.72416e-09)
(0 0 -5.42525e-10)
(0 0 -5.41589e-10)
(0 0 -5.88492e-10)
(0 0 -4.53005e-10)
(0 0 -3.94685e-09)
(0 0 -1.99804e-08)
(0 0 2.41101e-07)
(0 0 5.29718e-07)
(0 0 5.35251e-07)
(0 0 5.08382e-07)
(0 0 4.96739e-07)
(0 0 5.07525e-07)
(0 0 5.111e-07)
(0 0 5.02234e-07)
(0 0 4.79958e-07)
(0 0 4.52103e-07)
(0 0 4.24282e-07)
(0 0 3.93554e-07)
(0 0 3.57744e-07)
(0 0 3.20615e-07)
(0 0 2.84218e-07)
(0 0 2.57541e-07)
(0 0 2.38761e-07)
(0 0 2.16735e-07)
(0 0 1.87279e-07)
(0 0 1.58541e-07)
(0 0 1.39668e-07)
(0 0 1.20266e-07)
(0 0 1.08155e-07)
(0 0 8.9677e-08)
(0 0 8.2098e-08)
(0 0 7.23972e-08)
(0 0 6.55754e-08)
(0 0 5.20601e-08)
(0 0 4.08971e-08)
(0 0 3.87544e-08)
(0 0 1.95622e-08)
(0 0 3.62656e-08)
(0 0 2.26107e-08)
(0 0 2.88792e-08)
(0 0 1.14653e-08)
(0 0 1.96155e-08)
(0 0 8.81412e-09)
(0 0 1.93337e-08)
(0 0 6.08166e-09)
(0 0 2.06341e-08)
(0 0 6.40658e-10)
(0 0 1.41317e-08)
(0 0 -7.0494e-09)
(0 0 1.20526e-08)
(0 0 -1.00909e-08)
(0 0 1.67579e-08)
(0 0 4.72481e-08)
(0 0 1.05591e-07)
(0 0 9.79531e-09)
(0 0 -1.06932e-08)
(0 0 -7.58103e-08)
(0 0 -4.26826e-08)
(0 0 -1.36776e-08)
(0 0 3.89604e-08)
(0 0 -3.08692e-08)
(0 0 -1.53186e-09)
(0 0 -3.76443e-08)
(0 0 1.12102e-08)
(0 0 -3.10798e-08)
(0 0 1.60502e-08)
(0 0 -3.21781e-08)
(0 0 1.77149e-08)
(0 0 -3.2324e-08)
(0 0 2.00883e-08)
(0 0 -3.19628e-08)
(0 0 2.19101e-08)
(0 0 -3.14324e-08)
(0 0 2.35142e-08)
(0 0 -3.03231e-08)
(0 0 2.49153e-08)
(0 0 -2.87582e-08)
(0 0 2.59507e-08)
(0 0 -2.67497e-08)
(0 0 2.66151e-08)
(0 0 -2.43067e-08)
(0 0 2.6847e-08)
(0 0 -2.14647e-08)
(0 0 2.66214e-08)
(0 0 -1.8273e-08)
(0 0 2.59768e-08)
(0 0 -1.47196e-08)
(0 0 2.49235e-08)
(0 0 -1.09244e-08)
(0 0 2.34222e-08)
(0 0 -6.99905e-09)
(0 0 2.14688e-08)
(0 0 -3.00668e-09)
(0 0 1.90716e-08)
(0 0 9.09888e-10)
(0 0 1.6457e-08)
(0 0 4.82271e-09)
(0 0 1.33358e-08)
(0 0 7.78326e-09)
(0 0 1.05045e-08)
(0 0 1.09281e-08)
(0 0 7.61497e-09)
(0 0 1.30287e-08)
(0 0 4.85676e-09)
(0 0 1.49464e-08)
(0 0 2.02613e-09)
(0 0 1.65269e-08)
(0 0 -8.5845e-10)
(0 0 1.80381e-08)
(0 0 -3.86635e-09)
(0 0 1.92252e-08)
(0 0 -7.14584e-09)
(0 0 1.76098e-08)
(0 0 -1.54678e-08)
(0 0 1.27854e-08)
(0 0 4.48705e-09)
(0 0 5.60093e-08)
(0 0 8.16769e-09)
(0 0 1.63844e-09)
(0 0 -8.05352e-08)
(0 0 -2.53113e-08)
(0 0 2.72808e-08)
(0 0 1.21511e-07)
(0 0 4.25339e-08)
(0 0 3.90061e-08)
(0 0 -9.96116e-08)
(0 0 -1.53869e-07)
(0 0 -1.20962e-07)
(0 0 -1.28873e-09)
(0 0 1.10852e-07)
(0 0 2.8961e-07)
(0 0 1.23054e-07)
(0 0 3.46417e-08)
(0 0 -2.04382e-07)
(0 0 -3.55442e-07)
(0 0 -2.21758e-07)
(0 0 2.22088e-07)
(0 0 4.38315e-07)
(0 0 2.67533e-07)
(0 0 -2.69957e-07)
(0 0 -5.28059e-07)
(0 0 7.99103e-09)
(0 0 6.39931e-07)
(0 0 -3.5823e-08)
(0 0 -6.78169e-07)
(0 0 -3.88101e-07)
(0 0 3.95666e-07)
(0 0 7.98403e-07)
(0 0 4.33814e-07)
(0 0 -4.59624e-07)
(0 0 -8.96995e-07)
(0 0 -3.04901e-08)
(0 0 9.10102e-07)
(0 0 4.55477e-07)
(0 0 3.92883e-08)
(0 0 -5.03887e-07)
(0 0 -1.04156e-06)
(0 0 -5.60976e-07)
(0 0 -1.70933e-08)
(0 0 5.26854e-07)
(0 0 1.13939e-06)
(0 0 6.00006e-07)
(0 0 -5.94633e-07)
(0 0 -1.27188e-06)
(0 0 -6.41321e-07)
(0 0 6.4093e-07)
(0 0 1.36298e-06)
(0 0 6.88793e-07)
(0 0 -7.22664e-07)
(0 0 -1.4317e-06)
(0 0 -7.13634e-07)
(0 0 -4.40474e-08)
(0 0 7.84247e-07)
(0 0 1.57433e-06)
(0 0 7.54867e-07)
(0 0 -3.1732e-08)
(0 0 -7.98119e-07)
(0 0 -1.61953e-06)
(0 0 -8.26025e-07)
(0 0 -3.69376e-08)
(0 0 8.24636e-07)
(0 0 1.67155e-06)
(0 0 8.43377e-07)
(0 0 -1.82166e-08)
(0 0 -9.31486e-07)
(0 0 -1.78969e-06)
(0 0 -8.83044e-07)
(0 0 8.86373e-07)
(0 0 1.85337e-06)
(0 0 9.53522e-07)
(0 0 -1.5702e-08)
(0 0 -9.6913e-07)
(0 0 -1.9174e-06)
(0 0 -9.82605e-07)
(0 0 9.97179e-07)
(0 0 1.97251e-06)
(0 0 9.48987e-07)
(0 0 -3.60523e-08)
(0 0 -1.05355e-06)
(0 0 -2.05078e-06)
(0 0 -1.01602e-06)
(0 0 1.01795e-06)
(0 0 2.11833e-06)
(0 0 1.09457e-06)
(0 0 -1.86438e-10)
(0 0 -1.06649e-06)
(0 0 -2.17274e-06)
(0 0 -1.13502e-06)
(0 0 -3.0883e-08)
(0 0 1.07372e-06)
(0 0 2.25482e-06)
(0 0 1.18457e-06)
(0 0 3.46349e-08)
(0 0 -1.17531e-06)
(0 0 -2.41833e-06)
(0 0 -1.25427e-06)
(0 0 -7.60922e-08)
(0 0 1.24826e-06)
(0 0 2.61569e-06)
(0 0 1.27809e-06)
(0 0 -4.98309e-08)
(0 0 -3.11572e-07)
(0 0 -3.0134e-07)
(0 0 -9.58178e-09)
(0 0 -7.65592e-09)
(0 0 -5.56779e-09)
(0 0 -2.52657e-09)
(0 0 -7.87652e-10)
(0 0 1.41739e-09)
(0 0 2.34884e-09)
(0 0 4.83643e-10)
(0 0 -3.77514e-09)
(0 0 3.49972e-09)
(0 0 0)
(0 0 0)
(0 0 0)
(0 0 0)
(0 0 0)
(0 0 0)
(0 0 0)
(0 0 0)
(0 0 0)
(0 0 0)
(0 0 0)
(0 0 0)
(0 0 0)
(0 0 0)
(0 0 0)
(0 0 0)
(0 0 0)
(0 0 0)
(0 0 0)
(0 0 0)
(0 0 0)
(0 0 0)
(0 0 0)
(0 0 0)
(0 0 0)
(0 0 0)
(0 0 0)
(0 0 0)
(0 0 0)
(0 0 0)
(0 0 0)
(0 0 0)
(0 0 0)
(0 0 0)
(0 0 0)
(0 0 0)
(0 0 0)
(0 0 0)
(0 0 0)
(0 0 0)
(0 0 0)
(0 0 0)
(0 0 0)
(0 0 0)
(0 0 0)
(0 0 0)
(0 0 0)
(0 0 0)
(0 0 0)
(0 0 0)
(0 0 0)
(0 0 0)
(0 0 0)
(0 0 0)
(0 0 0)
(0 0 0)
(0 0 0)
(0 0 0)
(0 0 0)
(0 0 0)
(0 0 0)
(0 0 0)
(0 0 0)
(0 0 0)
(0 0 -4.36659e-10)
(0 0 -1.17249e-09)
(0 0 -8.10187e-10)
(0 0 -1.72416e-09)
(0 0 -5.42525e-10)
(0 0 -5.41589e-10)
(0 0 -5.88492e-10)
(0 0 -4.53005e-10)
(0 0 -3.94685e-09)
(0 0 -1.99804e-08)
(0 0 2.41101e-07)
(0 0 5.29718e-07)
(0 0 5.35251e-07)
(0 0 5.08382e-07)
(0 0 4.96739e-07)
(0 0 5.07525e-07)
(0 0 5.111e-07)
(0 0 5.02234e-07)
(0 0 4.79958e-07)
(0 0 4.52103e-07)
(0 0 4.24282e-07)
(0 0 3.93554e-07)
(0 0 3.57744e-07)
(0 0 3.20615e-07)
(0 0 2.84218e-07)
(0 0 2.57541e-07)
(0 0 2.38761e-07)
(0 0 2.16735e-07)
(0 0 1.87279e-07)
(0 0 1.58541e-07)
(0 0 1.39668e-07)
(0 0 1.20266e-07)
(0 0 1.08155e-07)
(0 0 8.9677e-08)
(0 0 8.2098e-08)
(0 0 7.23972e-08)
(0 0 6.55754e-08)
(0 0 5.20601e-08)
(0 0 4.08971e-08)
(0 0 3.87544e-08)
(0 0 1.95622e-08)
(0 0 3.62656e-08)
(0 0 2.26107e-08)
(0 0 2.88792e-08)
(0 0 1.14653e-08)
(0 0 1.96155e-08)
(0 0 8.81412e-09)
(0 0 1.93337e-08)
(0 0 6.08166e-09)
(0 0 2.06341e-08)
(0 0 6.40658e-10)
(0 0 1.41317e-08)
(0 0 -7.0494e-09)
(0 0 1.20526e-08)
(0 0 -1.00909e-08)
(0 0 1.67579e-08)
(0 0 4.72481e-08)
(0 0 1.05591e-07)
(0 0 9.79531e-09)
(0 0 -1.06932e-08)
(0 0 -7.58103e-08)
(0 0 -4.26826e-08)
(0 0 -1.36776e-08)
(0 0 3.89604e-08)
(0 0 -3.08692e-08)
(0 0 -1.53186e-09)
(0 0 -3.76443e-08)
(0 0 1.12102e-08)
(0 0 -3.10798e-08)
(0 0 1.60502e-08)
(0 0 -3.21781e-08)
(0 0 1.77149e-08)
(0 0 -3.2324e-08)
(0 0 2.00883e-08)
(0 0 -3.19628e-08)
(0 0 2.19101e-08)
(0 0 -3.14324e-08)
(0 0 2.35142e-08)
(0 0 -3.03231e-08)
(0 0 2.49153e-08)
(0 0 -2.87582e-08)
(0 0 2.59507e-08)
(0 0 -2.67497e-08)
(0 0 2.66151e-08)
(0 0 -2.43067e-08)
(0 0 2.6847e-08)
(0 0 -2.14647e-08)
(0 0 2.66214e-08)
(0 0 -1.8273e-08)
(0 0 2.59768e-08)
(0 0 -1.47196e-08)
(0 0 2.49235e-08)
(0 0 -1.09244e-08)
(0 0 2.34222e-08)
(0 0 -6.99905e-09)
(0 0 2.14688e-08)
(0 0 -3.00668e-09)
(0 0 1.90716e-08)
(0 0 9.09888e-10)
(0 0 1.6457e-08)
(0 0 4.82271e-09)
(0 0 1.33358e-08)
(0 0 7.78326e-09)
(0 0 1.05045e-08)
(0 0 1.09281e-08)
(0 0 7.61497e-09)
(0 0 1.30287e-08)
(0 0 4.85676e-09)
(0 0 1.49464e-08)
(0 0 2.02613e-09)
(0 0 1.65269e-08)
(0 0 -8.5845e-10)
(0 0 1.80381e-08)
(0 0 -3.86635e-09)
(0 0 1.92252e-08)
(0 0 -7.14584e-09)
(0 0 1.76098e-08)
(0 0 -1.54678e-08)
(0 0 1.27854e-08)
(0 0 4.48705e-09)
(0 0 5.60093e-08)
(0 0 8.16769e-09)
(0 0 1.63844e-09)
(0 0 -8.05352e-08)
(0 0 -2.53113e-08)
(0 0 2.72808e-08)
(0 0 1.21511e-07)
(0 0 4.25339e-08)
(0 0 3.90061e-08)
(0 0 -9.96116e-08)
(0 0 -1.53869e-07)
(0 0 -1.20962e-07)
(0 0 -1.28873e-09)
(0 0 1.10852e-07)
(0 0 2.8961e-07)
(0 0 1.23054e-07)
(0 0 3.46417e-08)
(0 0 -2.04382e-07)
(0 0 -3.55442e-07)
(0 0 -2.21758e-07)
(0 0 2.22088e-07)
(0 0 4.38315e-07)
(0 0 2.67533e-07)
(0 0 -2.69957e-07)
(0 0 -5.28059e-07)
(0 0 7.99103e-09)
(0 0 6.39931e-07)
(0 0 -3.5823e-08)
(0 0 -6.78169e-07)
(0 0 -3.88101e-07)
(0 0 3.95666e-07)
(0 0 7.98403e-07)
(0 0 4.33814e-07)
(0 0 -4.59624e-07)
(0 0 -8.96995e-07)
(0 0 -3.04901e-08)
(0 0 9.10102e-07)
(0 0 4.55477e-07)
(0 0 3.92883e-08)
(0 0 -5.03887e-07)
(0 0 -1.04156e-06)
(0 0 -5.60976e-07)
(0 0 -1.70933e-08)
(0 0 5.26854e-07)
(0 0 1.13939e-06)
(0 0 6.00006e-07)
(0 0 -5.94633e-07)
(0 0 -1.27188e-06)
(0 0 -6.41321e-07)
(0 0 6.4093e-07)
(0 0 1.36298e-06)
(0 0 6.88793e-07)
(0 0 -7.22664e-07)
(0 0 -1.4317e-06)
(0 0 -7.13634e-07)
(0 0 -4.40474e-08)
(0 0 7.84247e-07)
(0 0 1.57433e-06)
(0 0 7.54867e-07)
(0 0 -3.1732e-08)
(0 0 -7.98119e-07)
(0 0 -1.61953e-06)
(0 0 -8.26025e-07)
(0 0 -3.69376e-08)
(0 0 8.24636e-07)
(0 0 1.67155e-06)
(0 0 8.43377e-07)
(0 0 -1.82166e-08)
(0 0 -9.31486e-07)
(0 0 -1.78969e-06)
(0 0 -8.83044e-07)
(0 0 8.86373e-07)
(0 0 1.85337e-06)
(0 0 9.53522e-07)
(0 0 -1.5702e-08)
(0 0 -9.6913e-07)
(0 0 -1.9174e-06)
(0 0 -9.82605e-07)
(0 0 9.97179e-07)
(0 0 1.97251e-06)
(0 0 9.48987e-07)
(0 0 -3.60523e-08)
(0 0 -1.05355e-06)
(0 0 -2.05078e-06)
(0 0 -1.01602e-06)
(0 0 1.01795e-06)
(0 0 2.11833e-06)
(0 0 1.09457e-06)
(0 0 -1.86438e-10)
(0 0 -1.06649e-06)
(0 0 -2.17274e-06)
(0 0 -1.13502e-06)
(0 0 -3.0883e-08)
(0 0 1.07372e-06)
(0 0 2.25482e-06)
(0 0 1.18457e-06)
(0 0 3.46349e-08)
(0 0 -1.17531e-06)
(0 0 -2.41833e-06)
(0 0 -1.25427e-06)
(0 0 -7.60922e-08)
(0 0 1.24826e-06)
(0 0 2.61569e-06)
(0 0 1.27809e-06)
(0 0 -4.98309e-08)
(0 0 -3.11572e-07)
(0 0 -3.0134e-07)
(0 0 -9.58178e-09)
(0 0 -7.65592e-09)
(0 0 -5.56779e-09)
(0 0 -2.52657e-09)
(0 0 -7.87652e-10)
(0 0 1.41739e-09)
(0 0 2.34884e-09)
(0 0 4.83643e-10)
(0 0 -3.77514e-09)
(0 0 3.49972e-09)
(0 0 0)
(0 0 0)
(0 0 0)
(0 0 0)
(0 0 0)
(0 0 -4.64761e-55)
(0 0 2.26041e-54)
(0 0 -1.01346e-53)
(0 0 4.44913e-53)
(0 0 -1.9141e-52)
(0 0 8.06018e-52)
(0 0 -3.3145e-51)
(0 0 1.32597e-50)
(0 0 -5.1287e-50)
(0 0 1.89803e-49)
(0 0 -6.59344e-49)
(0 0 2.06456e-48)
(0 0 -5.20468e-48)
(0 0 5.32994e-48)
(0 0 5.437e-47)
(0 0 -5.76457e-46)
(0 0 3.96608e-45)
(0 0 -2.3377e-44)
(0 0 1.2685e-43)
(0 0 -6.52804e-43)
(0 0 3.23512e-42)
(0 0 -1.55765e-41)
(0 0 7.32699e-41)
(0 0 -3.37881e-40)
(0 0 1.53054e-39)
(0 0 -6.81469e-39)
(0 0 2.98026e-38)
(0 0 -1.27714e-37)
(0 0 5.33877e-37)
(0 0 -2.16038e-36)
(0 0 8.35386e-36)
(0 0 -3.01537e-35)
(0 0 9.66811e-35)
(0 0 -2.38174e-34)
(0 0 1.19978e-34)
(0 0 3.83308e-33)
(0 0 -3.61099e-32)
(0 0 2.37253e-31)
(0 0 -1.32843e-30)
(0 0 6.69026e-30)
(0 0 -3.08635e-29)
(0 0 1.30885e-28)
(0 0 -5.08186e-28)
(0 0 1.80442e-27)
(0 0 -6.18445e-27)
(0 0 2.741e-26)
(0 0 -2.33898e-25)
(0 0 2.91511e-24)
(0 0 -3.80175e-23)
(0 0 4.85802e-22)
(0 0 -6.11701e-21)
(0 0 7.66211e-20)
(0 0 -9.59453e-19)
(0 0 1.20325e-17)
(0 0 -1.512e-16)
(0 0 1.90381e-15)
(0 0 -2.40196e-14)
(0 0 3.03407e-13)
(0 0 -3.88063e-12)
(0 0 -4.40045e-10)
(0 0 -1.16265e-09)
(0 0 -8.181e-10)
(0 0 -1.70682e-09)
(0 0 -5.50333e-10)
(0 0 -5.39804e-10)
(0 0 -5.85432e-10)
(0 0 -4.57372e-10)
(0 0 -4.13399e-09)
(0 0 -1.83068e-08)
(0 0 2.40502e-07)
(0 0 5.26545e-07)
(0 0 5.33794e-07)
(0 0 5.07156e-07)
(0 0 4.95587e-07)
(0 0 5.06167e-07)
(0 0 5.09727e-07)
(0 0 5.00887e-07)
(0 0 4.78722e-07)
(0 0 4.50974e-07)
(0 0 4.23208e-07)
(0 0 3.92549e-07)
(0 0 3.56855e-07)
(0 0 3.19826e-07)
(0 0 2.83575e-07)
(0 0 2.56951e-07)
(0 0 2.38153e-07)
(0 0 2.1616e-07)
(0 0 1.86826e-07)
(0 0 1.58214e-07)
(0 0 1.39315e-07)
(0 0 1.2002e-07)
(0 0 1.07843e-07)
(0 0 8.95297e-08)
(0 0 8.18764e-08)
(0 0 7.22422e-08)
(0 0 6.53727e-08)
(0 0 5.19479e-08)
(0 0 4.08609e-08)
(0 0 3.85352e-08)
(0 0 1.97574e-08)
(0 0 3.59601e-08)
(0 0 2.27063e-08)
(0 0 2.86405e-08)
(0 0 1.16174e-08)
(0 0 1.94265e-08)
(0 0 8.9455e-09)
(0 0 1.91148e-08)
(0 0 6.2667e-09)
(0 0 2.03405e-08)
(0 0 8.81438e-10)
(0 0 1.38473e-08)
(0 0 -6.74514e-09)
(0 0 1.17265e-08)
(0 0 -9.73876e-09)
(0 0 1.66715e-08)
(0 0 4.73424e-08)
(0 0 1.04353e-07)
(0 0 1.03766e-08)
(0 0 -1.0999e-08)
(0 0 -7.4995e-08)
(0 0 -4.27011e-08)
(0 0 -1.34489e-08)
(0 0 3.80638e-08)
(0 0 -3.00786e-08)
(0 0 -2.02599e-09)
(0 0 -3.69497e-08)
(0 0 1.0533e-08)
(0 0 -3.0358e-08)
(0 0 1.53293e-08)
(0 0 -3.1395e-08)
(0 0 1.69551e-08)
(0 0 -3.15092e-08)
(0 0 1.92908e-08)
(0 0 -3.11236e-08)
(0 0 2.10883e-08)
(0 0 -3.05776e-08)
(0 0 2.2677e-08)
(0 0 -2.94651e-08)
(0 0 2.40738e-08)
(0 0 -2.79088e-08)
(0 0 2.51174e-08)
(0 0 -2.59218e-08)
(0 0 2.58025e-08)
(0 0 -2.35133e-08)
(0 0 2.60684e-08)
(0 0 -2.07189e-08)
(0 0 2.58897e-08)
(0 0 -1.75871e-08)
(0 0 2.53042e-08)
(0 0 -1.41056e-08)
(0 0 2.43211e-08)
(0 0 -1.03925e-08)
(0 0 2.29001e-08)
(0 0 -6.55793e-09)
(0 0 2.10361e-08)
(0 0 -2.66393e-09)
(0 0 1.87356e-08)
(0 0 1.1506e-09)
(0 0 1.62209e-08)
(0 0 4.95685e-09)
(0 0 1.3201e-08)
(0 0 7.82398e-09)
(0 0 1.0461e-08)
(0 0 1.08753e-08)
(0 0 7.65758e-09)
(0 0 1.28993e-08)
(0 0 4.97459e-09)
(0 0 1.47446e-08)
(0 0 2.21653e-09)
(0 0 1.62572e-08)
(0 0 -5.97479e-10)
(0 0 1.77007e-08)
(0 0 -3.53554e-09)
(0 0 1.88238e-08)
(0 0 -6.75993e-09)
(0 0 1.71563e-08)
(0 0 -1.50055e-08)
(0 0 1.24535e-08)
(0 0 4.89957e-09)
(0 0 5.5213e-08)
(0 0 8.51876e-09)
(0 0 1.10044e-09)
(0 0 -7.94613e-08)
(0 0 -2.53984e-08)
(0 0 2.75193e-08)
(0 0 1.20086e-07)
(0 0 4.30798e-08)
(0 0 3.80685e-08)
(0 0 -9.87824e-08)
(0 0 -1.53068e-07)
(0 0 -1.20217e-07)
(0 0 -1.52508e-09)
(0 0 1.11103e-07)
(0 0 2.8675e-07)
(0 0 1.23557e-07)
(0 0 3.36972e-08)
(0 0 -2.03283e-07)
(0 0 -3.53145e-07)
(0 0 -2.19621e-07)
(0 0 2.20061e-07)
(0 0 4.3527e-07)
(0 0 2.64934e-07)
(0 0 -2.67524e-07)
(0 0 -5.22363e-07)
(0 0 8.33524e-09)
(0 0 6.30573e-07)
(0 0 -3.47779e-08)
(0 0 -6.71227e-07)
(0 0 -3.84966e-07)
(0 0 3.92296e-07)
(0 0 7.92389e-07)
(0 0 4.30096e-07)
(0 0 -4.55655e-07)
(0 0 -8.87484e-07)
(0 0 -3.05647e-08)
(0 0 8.9936e-07)
(0 0 4.55686e-07)
(0 0 3.88065e-08)
(0 0 -5.02817e-07)
(0 0 -1.03301e-06)
(0 0 -5.6002e-07)
(0 0 -1.75949e-08)
(0 0 5.26278e-07)
(0 0 1.13007e-06)
(0 0 5.95445e-07)
(0 0 -5.89711e-07)
(0 0 -1.26165e-06)
(0 0 -6.37093e-07)
(0 0 6.35973e-07)
(0 0 1.35206e-06)
(0 0 6.83621e-07)
(0 0 -7.16373e-07)
(0 0 -1.41994e-06)
(0 0 -7.13451e-07)
(0 0 -4.35923e-08)
(0 0 7.82461e-07)
(0 0 1.56097e-06)
(0 0 7.54469e-07)
(0 0 -3.08541e-08)
(0 0 -7.96973e-07)
(0 0 -1.60599e-06)
(0 0 -8.25338e-07)
(0 0 -3.71066e-08)
(0 0 8.22965e-07)
(0 0 1.65759e-06)
(0 0 8.42458e-07)
(0 0 -1.77492e-08)
(0 0 -9.29188e-07)
(0 0 -1.77559e-06)
(0 0 -8.77317e-07)
(0 0 8.79407e-07)
(0 0 1.83828e-06)
(0 0 9.52181e-07)
(0 0 -1.473e-08)
(0 0 -9.67053e-07)
(0 0 -1.90239e-06)
(0 0 -9.75615e-07)
(0 0 9.88686e-07)
(0 0 1.95643e-06)
(0 0 9.48442e-07)
(0 0 -3.53374e-08)
(0 0 -1.05122e-06)
(0 0 -2.03455e-06)
(0 0 -1.00939e-06)
(0 0 1.00987e-06)
(0 0 2.10115e-06)
(0 0 1.09307e-06)
(0 0 9.38896e-10)
(0 0 -1.06471e-06)
(0 0 -2.15476e-06)
(0 0 -1.13352e-06)
(0 0 -3.18021e-08)
(0 0 1.07217e-06)
(0 0 2.23597e-06)
(0 0 1.18298e-06)
(0 0 3.52308e-08)
(0 0 -1.17325e-06)
(0 0 -2.39815e-06)
(0 0 -1.25305e-06)
(0 0 -7.61062e-08)
(0 0 1.24611e-06)
(0 0 2.5933e-06)
(0 0 1.27665e-06)
(0 0 -4.26963e-08)
(0 0 -3.09664e-07)
(0 0 -2.99107e-07)
(0 0 -1.15523e-08)
(0 0 -7.47807e-09)
(0 0 -5.55716e-09)
(0 0 -2.53014e-09)
(0 0 -7.8223e-10)
(0 0 1.40636e-09)
(0 0 2.32819e-09)
(0 0 4.62767e-10)
(0 0 -3.70128e-09)
(0 0 3.41995e-09)
(0 0 4.08724e-11)
(0 0 -3.19734e-12)
(0 0 2.52023e-13)
(0 0 0)
(0 0 0)
(0 0 1.48068e-55)
(0 0 -7.2595e-55)
(0 0 3.02649e-54)
(0 0 -1.22376e-53)
(0 0 4.79395e-53)
(0 0 -1.80326e-52)
(0 0 6.40919e-52)
(0 0 -2.08341e-51)
(0 0 5.70254e-51)
(0 0 -9.1834e-51)
(0 0 -3.09991e-50)
(0 0 4.49811e-49)
(0 0 -3.32344e-48)
(0 0 2.02485e-47)
(0 0 -1.12e-46)
(0 0 5.83184e-46)
(0 0 -2.9093e-45)
(0 0 1.40422e-44)
(0 0 -6.59715e-44)
(0 0 3.02867e-43)
(0 0 -1.36223e-42)
(0 0 6.0126e-42)
(0 0 -2.60641e-41)
(0 0 1.1095e-40)
(0 0 -4.6314e-40)
(0 0 1.88958e-39)
(0 0 -7.48744e-39)
(0 0 2.84773e-38)
(0 0 -1.01616e-37)
(0 0 3.23438e-37)
(0 0 -7.87858e-37)
(0 0 2.71535e-37)
(0 0 1.44302e-35)
(0 0 -1.37135e-34)
(0 0 9.34016e-34)
(0 0 -5.49964e-33)
(0 0 2.9511e-32)
(0 0 -1.47141e-31)
(0 0 6.85748e-31)
(0 0 -2.9799e-30)
(0 0 1.19333e-29)
(0 0 -4.27379e-29)
(0 0 1.24984e-28)
(0 0 -1.71611e-28)
(0 0 -1.66501e-27)
(0 0 2.6212e-26)
(0 0 -3.01125e-25)
(0 0 3.4438e-24)
(0 0 -4.08633e-23)
(0 0 4.98289e-22)
(0 0 -6.16394e-21)
(0 0 7.67834e-20)
(0 0 -9.60113e-19)
(0 0 1.20366e-17)
(0 0 -1.51232e-16)
(0 0 1.90401e-15)
(0 0 -2.40206e-14)
(0 0 3.0341e-13)
(0 0 -3.88063e-12)
(0 0 -4.40045e-10)
(0 0 -1.16265e-09)
(0 0 -8.181e-10)
(0 0 -1.70682e-09)
(0 0 -5.50333e-10)
(0 0 -5.39805e-10)
(0 0 -5.85431e-10)
(0 0 -4.57367e-10)
(0 0 -4.13402e-09)
(0 0 -1.83067e-08)
(0 0 2.40502e-07)
(0 0 5.26545e-07)
(0 0 5.33794e-07)
(0 0 5.07156e-07)
(0 0 4.95587e-07)
(0 0 5.06167e-07)
(0 0 5.09727e-07)
(0 0 5.00887e-07)
(0 0 4.78722e-07)
(0 0 4.50974e-07)
(0 0 4.23208e-07)
(0 0 3.92549e-07)
(0 0 3.56855e-07)
(0 0 3.19826e-07)
(0 0 2.83575e-07)
(0 0 2.56951e-07)
(0 0 2.38153e-07)
(0 0 2.1616e-07)
(0 0 1.86826e-07)
(0 0 1.58214e-07)
(0 0 1.39315e-07)
(0 0 1.2002e-07)
(0 0 1.07843e-07)
(0 0 8.95297e-08)
(0 0 8.18764e-08)
(0 0 7.22422e-08)
(0 0 6.53726e-08)
(0 0 5.19478e-08)
(0 0 4.08608e-08)
(0 0 3.85352e-08)
(0 0 1.97573e-08)
(0 0 3.59601e-08)
(0 0 2.27063e-08)
(0 0 2.86404e-08)
(0 0 1.16173e-08)
(0 0 1.94265e-08)
(0 0 8.94544e-09)
(0 0 1.91147e-08)
(0 0 6.26664e-09)
(0 0 2.03405e-08)
(0 0 8.81397e-10)
(0 0 1.38471e-08)
(0 0 -6.74471e-09)
(0 0 1.17254e-08)
(0 0 -9.73722e-09)
(0 0 1.66821e-08)
(0 0 4.73469e-08)
(0 0 1.04341e-07)
(0 0 1.03584e-08)
(0 0 -1.10055e-08)
(0 0 -7.49836e-08)
(0 0 -4.26875e-08)
(0 0 -1.3447e-08)
(0 0 3.80593e-08)
(0 0 -3.00807e-08)
(0 0 -2.02556e-09)
(0 0 -3.69493e-08)
(0 0 1.0533e-08)
(0 0 -3.0358e-08)
(0 0 1.53293e-08)
(0 0 -3.1395e-08)
(0 0 1.69551e-08)
(0 0 -3.15091e-08)
(0 0 1.92908e-08)
(0 0 -3.11235e-08)
(0 0 2.10883e-08)
(0 0 -3.05776e-08)
(0 0 2.2677e-08)
(0 0 -2.94651e-08)
(0 0 2.40739e-08)
(0 0 -2.79088e-08)
(0 0 2.51174e-08)
(0 0 -2.59218e-08)
(0 0 2.58025e-08)
(0 0 -2.35133e-08)
(0 0 2.60684e-08)
(0 0 -2.07189e-08)
(0 0 2.58897e-08)
(0 0 -1.7587e-08)
(0 0 2.53042e-08)
(0 0 -1.41055e-08)
(0 0 2.43211e-08)
(0 0 -1.03924e-08)
(0 0 2.29001e-08)
(0 0 -6.55789e-09)
(0 0 2.10361e-08)
(0 0 -2.66389e-09)
(0 0 1.87356e-08)
(0 0 1.15064e-09)
(0 0 1.6221e-08)
(0 0 4.95689e-09)
(0 0 1.3201e-08)
(0 0 7.82401e-09)
(0 0 1.04611e-08)
(0 0 1.08753e-08)
(0 0 7.65761e-09)
(0 0 1.28993e-08)
(0 0 4.97461e-09)
(0 0 1.47446e-08)
(0 0 2.21655e-09)
(0 0 1.62572e-08)
(0 0 -5.97462e-10)
(0 0 1.77007e-08)
(0 0 -3.53555e-09)
(0 0 1.8824e-08)
(0 0 -6.76014e-09)
(0 0 1.71564e-08)
(0 0 -1.50023e-08)
(0 0 1.24572e-08)
(0 0 4.89766e-09)
(0 0 5.52026e-08)
(0 0 8.50839e-09)
(0 0 1.10264e-09)
(0 0 -7.9448e-08)
(0 0 -2.53845e-08)
(0 0 2.75219e-08)
(0 0 1.20074e-07)
(0 0 4.30508e-08)
(0 0 3.80458e-08)
(0 0 -9.87681e-08)
(0 0 -1.53036e-07)
(0 0 -1.20173e-07)
(0 0 -1.49085e-09)
(0 0 1.11081e-07)
(0 0 2.86698e-07)
(0 0 1.23496e-07)
(0 0 3.3647e-08)
(0 0 -2.03247e-07)
(0 0 -3.53016e-07)
(0 0 -2.19531e-07)
(0 0 2.2002e-07)
(0 0 4.35168e-07)
(0 0 2.64834e-07)
(0 0 -2.67522e-07)
(0 0 -5.22204e-07)
(0 0 8.39269e-09)
(0 0 6.30398e-07)
(0 0 -3.48615e-08)
(0 0 -6.71026e-07)
(0 0 -3.84779e-07)
(0 0 3.92229e-07)
(0 0 7.9221e-07)
(0 0 4.29931e-07)
(0 0 -4.55646e-07)
(0 0 -8.87249e-07)
(0 0 -3.04541e-08)
(0 0 8.99225e-07)
(0 0 4.55458e-07)
(0 0 3.86604e-08)
(0 0 -5.02718e-07)
(0 0 -1.0328e-06)
(0 0 -5.59799e-07)
(0 0 -1.74474e-08)
(0 0 5.2617e-07)
(0 0 1.12982e-06)
(0 0 5.95215e-07)
(0 0 -5.89718e-07)
(0 0 -1.26128e-06)
(0 0 -6.36785e-07)
(0 0 6.35852e-07)
(0 0 1.35174e-06)
(0 0 6.83375e-07)
(0 0 -7.16388e-07)
(0 0 -1.41973e-06)
(0 0 -7.13127e-07)
(0 0 -4.33751e-08)
(0 0 7.82308e-07)
(0 0 1.56065e-06)
(0 0 7.54154e-07)
(0 0 -3.10552e-08)
(0 0 -7.96809e-07)
(0 0 -1.60566e-06)
(0 0 -8.25003e-07)
(0 0 -3.68929e-08)
(0 0 8.22789e-07)
(0 0 1.65724e-06)
(0 0 8.42122e-07)
(0 0 -1.7987e-08)
(0 0 -9.28992e-07)
(0 0 -1.77497e-06)
(0 0 -8.76922e-07)
(0 0 8.79197e-07)
(0 0 1.83787e-06)
(0 0 9.51823e-07)
(0 0 -1.49925e-08)
(0 0 -9.66856e-07)
(0 0 -1.90171e-06)
(0 0 -9.75183e-07)
(0 0 9.88444e-07)
(0 0 1.95598e-06)
(0 0 9.48056e-07)
(0 0 -3.56069e-08)
(0 0 -1.051e-06)
(0 0 -2.03385e-06)
(0 0 -1.00893e-06)
(0 0 1.00962e-06)
(0 0 2.10068e-06)
(0 0 1.09265e-06)
(0 0 6.67937e-10)
(0 0 -1.0645e-06)
(0 0 -2.15432e-06)
(0 0 -1.13309e-06)
(0 0 -3.15154e-08)
(0 0 1.07195e-06)
(0 0 2.23551e-06)
(0 0 1.18252e-06)
(0 0 3.49251e-08)
(0 0 -1.17302e-06)
(0 0 -2.39767e-06)
(0 0 -1.25256e-06)
(0 0 -7.5771e-08)
(0 0 1.24588e-06)
(0 0 2.59276e-06)
(0 0 1.27616e-06)
(0 0 -4.30428e-08)
(0 0 -3.09715e-07)
(0 0 -2.99012e-07)
(0 0 -1.15081e-08)
(0 0 -7.48115e-09)
(0 0 -5.56036e-09)
(0 0 -2.5291e-09)
(0 0 -7.82372e-10)
(0 0 1.40639e-09)
(0 0 2.32821e-09)
(0 0 4.62782e-10)
(0 0 -3.70127e-09)
(0 0 3.41995e-09)
(0 0 4.08699e-11)
(0 0 -3.19916e-12)
(0 0 2.52068e-13)
(0 0 0)
(0 0 0)
(0 0 -3.84913e-54)
(0 0 1.78979e-53)
(0 0 -7.653e-53)
(0 0 3.19511e-52)
(0 0 -1.30028e-51)
(0 0 5.13336e-51)
(0 0 -1.95029e-50)
(0 0 7.03066e-50)
(0 0 -2.33904e-49)
(0 0 6.7204e-49)
(0 0 -1.30673e-48)
(0 0 -1.70732e-48)
(0 0 4.04893e-47)
(0 0 -3.20873e-46)
(0 0 2.0158e-45)
(0 0 -1.13642e-44)
(0 0 6.00304e-44)
(0 0 -3.03173e-43)
(0 0 1.47998e-42)
(0 0 -7.02919e-42)
(0 0 3.26152e-41)
(0 0 -1.48222e-40)
(0 0 6.60724e-40)
(0 0 -2.89048e-39)
(0 0 1.24042e-38)
(0 0 -5.21328e-38)
(0 0 2.13894e-37)
(0 0 -8.51834e-37)
(0 0 3.26051e-36)
(0 0 -1.17804e-35)
(0 0 3.87159e-35)
(0 0 -1.05033e-34)
(0 0 1.45618e-34)
(0 0 8.47541e-34)
(0 0 -1.04828e-32)
(0 0 7.54747e-32)
(0 0 -4.5282e-31)
(0 0 2.45351e-30)
(0 0 -1.23712e-29)
(0 0 5.88272e-29)
(0 0 -2.65414e-28)
(0 0 1.13899e-27)
(0 0 -4.65479e-27)
(0 0 1.81986e-26)
(0 0 -6.96606e-26)
(0 0 2.85651e-25)
(0 0 -1.55837e-24)
(0 0 1.31622e-23)
(0 0 -1.45944e-22)
(0 0 1.75201e-21)
(0 0 -2.12245e-20)
(0 0 2.55852e-19)
(0 0 -3.0688e-18)
(0 0 3.6697e-17)
(0 0 -4.38153e-16)
(0 0 5.22759e-15)
(0 0 -6.23501e-14)
(0 0 7.428e-13)
(0 0 -8.95984e-12)
(0 0 -4.3661e-10)
(0 0 -1.12587e-09)
(0 0 -8.12961e-10)
(0 0 -1.64727e-09)
(0 0 -5.49899e-10)
(0 0 -5.26719e-10)
(0 0 -5.70078e-10)
(0 0 -4.50572e-10)
(0 0 -4.32804e-09)
(0 0 -1.56634e-08)
(0 0 2.35078e-07)
(0 0 5.12112e-07)
(0 0 5.21594e-07)
(0 0 4.95808e-07)
(0 0 4.84612e-07)
(0 0 4.94758e-07)
(0 0 4.98275e-07)
(0 0 4.89671e-07)
(0 0 4.68102e-07)
(0 0 4.41044e-07)
(0 0 4.1389e-07)
(0 0 3.83909e-07)
(0 0 3.49047e-07)
(0 0 3.12847e-07)
(0 0 2.77469e-07)
(0 0 2.51416e-07)
(0 0 2.32943e-07)
(0 0 2.11402e-07)
(0 0 1.82774e-07)
(0 0 1.54863e-07)
(0 0 1.36273e-07)
(0 0 1.17483e-07)
(0 0 1.05436e-07)
(0 0 8.7686e-08)
(0 0 8.00698e-08)
(0 0 7.07056e-08)
(0 0 6.38949e-08)
(0 0 5.08397e-08)
(0 0 4.00628e-08)
(0 0 3.75229e-08)
(0 0 1.96665e-08)
(0 0 3.48776e-08)
(0 0 2.24253e-08)
(0 0 2.77831e-08)
(0 0 1.16155e-08)
(0 0 1.88067e-08)
(0 0 8.96514e-09)
(0 0 1.84593e-08)
(0 0 6.41024e-09)
(0 0 1.95589e-08)
(0 0 1.20028e-09)
(0 0 1.31967e-08)
(0 0 -6.19787e-09)
(0 0 1.10511e-08)
(0 0 -9.01004e-09)
(0 0 1.62523e-08)
(0 0 4.65539e-08)
(0 0 1.00729e-07)
(0 0 1.09679e-08)
(0 0 -1.12361e-08)
(0 0 -7.25123e-08)
(0 0 -4.19791e-08)
(0 0 -1.28307e-08)
(0 0 3.61614e-08)
(0 0 -2.8432e-08)
(0 0 -2.69576e-09)
(0 0 -3.53054e-08)
(0 0 9.39707e-09)
(0 0 -2.8796e-08)
(0 0 1.4043e-08)
(0 0 -2.97292e-08)
(0 0 1.55846e-08)
(0 0 -2.97969e-08)
(0 0 1.78252e-08)
(0 0 -2.93843e-08)
(0 0 1.95557e-08)
(0 0 -2.88266e-08)
(0 0 2.10941e-08)
(0 0 -2.77302e-08)
(0 0 2.24594e-08)
(0 0 -2.62144e-08)
(0 0 2.34953e-08)
(0 0 -2.42936e-08)
(0 0 2.41968e-08)
(0 0 -2.19773e-08)
(0 0 2.45052e-08)
(0 0 -1.93004e-08)
(0 0 2.43952e-08)
(0 0 -1.63093e-08)
(0 0 2.39028e-08)
(0 0 -1.29916e-08)
(0 0 2.30358e-08)
(0 0 -9.46085e-09)
(0 0 2.1753e-08)
(0 0 -5.82302e-09)
(0 0 2.00479e-08)
(0 0 -2.13732e-09)
(0 0 1.79244e-08)
(0 0 1.46524e-09)
(0 0 1.55954e-08)
(0 0 5.05343e-09)
(0 0 1.27719e-08)
(0 0 7.73787e-09)
(0 0 1.02096e-08)
(0 0 1.06032e-08)
(0 0 7.57747e-09)
(0 0 1.24834e-08)
(0 0 5.04856e-09)
(0 0 1.4194e-08)
(0 0 2.44224e-09)
(0 0 1.55843e-08)
(0 0 -2.21759e-10)
(0 0 1.6907e-08)
(0 0 -3.00855e-09)
(0 0 1.79205e-08)
(0 0 -6.09822e-09)
(0 0 1.62267e-08)
(0 0 -1.40716e-08)
(0 0 1.17457e-08)
(0 0 5.36431e-09)
(0 0 5.30692e-08)
(0 0 8.8676e-09)
(0 0 3.29467e-10)
(0 0 -7.65092e-08)
(0 0 -2.50312e-08)
(0 0 2.73527e-08)
(0 0 1.15868e-07)
(0 0 4.29484e-08)
(0 0 3.61196e-08)
(0 0 -9.58356e-08)
(0 0 -1.49123e-07)
(0 0 -1.16697e-07)
(0 0 -1.89411e-09)
(0 0 1.09434e-07)
(0 0 2.77511e-07)
(0 0 1.21592e-07)
(0 0 3.18045e-08)
(0 0 -1.97752e-07)
(0 0 -3.43458e-07)
(0 0 -2.12719e-07)
(0 0 2.13472e-07)
(0 0 4.23103e-07)
(0 0 2.56157e-07)
(0 0 -2.58832e-07)
(0 0 -5.05246e-07)
(0 0 7.7832e-09)
(0 0 6.06841e-07)
(0 0 -3.1674e-08)
(0 0 -6.4975e-07)
(0 0 -3.74185e-07)
(0 0 3.80987e-07)
(0 0 7.69637e-07)
(0 0 4.16494e-07)
(0 0 -4.41215e-07)
(0 0 -8.58671e-07)
(0 0 -3.07081e-08)
(0 0 8.68704e-07)
(0 0 4.46973e-07)
(0 0 3.74229e-08)
(0 0 -4.92154e-07)
(0 0 -1.00233e-06)
(0 0 -5.46977e-07)
(0 0 -1.80167e-08)
(0 0 5.15859e-07)
(0 0 1.09658e-06)
(0 0 5.77374e-07)
(0 0 -5.71292e-07)
(0 0 -1.2243e-06)
(0 0 -6.20606e-07)
(0 0 6.18418e-07)
(0 0 1.31244e-06)
(0 0 6.62978e-07)
(0 0 -6.94729e-07)
(0 0 -1.37763e-06)
(0 0 -6.99097e-07)
(0 0 -4.22303e-08)
(0 0 7.65784e-07)
(0 0 1.51402e-06)
(0 0 7.37984e-07)
(0 0 -2.90551e-08)
(0 0 -7.8087e-07)
(0 0 -1.55794e-06)
(0 0 -8.07046e-07)
(0 0 -3.67203e-08)
(0 0 8.05679e-07)
(0 0 1.60809e-06)
(0 0 8.23418e-07)
(0 0 -1.68485e-08)
(0 0 -9.07797e-07)
(0 0 -1.7236e-06)
(0 0 -8.53556e-07)
(0 0 8.55019e-07)
(0 0 1.78407e-06)
(0 0 9.30264e-07)
(0 0 -1.32586e-08)
(0 0 -9.44958e-07)
(0 0 -1.84697e-06)
(0 0 -9.48459e-07)
(0 0 9.6048e-07)
(0 0 1.89863e-06)
(0 0 9.27484e-07)
(0 0 -3.37711e-08)
(0 0 -1.02731e-06)
(0 0 -1.97494e-06)
(0 0 -9.82003e-07)
(0 0 9.81766e-07)
(0 0 2.03929e-06)
(0 0 1.06804e-06)
(0 0 2.3937e-09)
(0 0 -1.04278e-06)
(0 0 -2.09074e-06)
(0 0 -1.10772e-06)
(0 0 -3.24055e-08)
(0 0 1.05037e-06)
(0 0 2.16926e-06)
(0 0 1.15602e-06)
(0 0 3.53445e-08)
(0 0 -1.14893e-06)
(0 0 -2.32665e-06)
(0 0 -1.22508e-06)
(0 0 -7.46592e-08)
(0 0 1.22025e-06)
(0 0 2.51527e-06)
(0 0 1.24791e-06)
(0 0 -3.39099e-08)
(0 0 -3.0284e-07)
(0 0 -2.92217e-07)
(0 0 -1.39826e-08)
(0 0 -6.98791e-09)
(0 0 -5.46338e-09)
(0 0 -2.48485e-09)
(0 0 -7.60363e-10)
(0 0 1.36606e-09)
(0 0 2.25768e-09)
(0 0 4.25312e-10)
(0 0 -3.52293e-09)
(0 0 3.24973e-09)
(0 0 9.55751e-11)
(0 0 -7.91445e-12)
(0 0 6.57405e-13)
(0 0 0)
(0 0 0)
(0 0 1.74482e-54)
(0 0 -8.14378e-54)
(0 0 3.27419e-53)
(0 0 -1.26618e-52)
(0 0 4.67592e-52)
(0 0 -1.61475e-51)
(0 0 4.97922e-51)
(0 0 -1.19531e-50)
(0 0 7.01088e-51)
(0 0 1.73433e-49)
(0 0 -1.65939e-48)
(0 0 1.11487e-47)
(0 0 -6.51877e-47)
(0 0 3.5273e-46)
(0 0 -1.81312e-45)
(0 0 8.97395e-45)
(0 0 -4.31015e-44)
(0 0 2.01851e-43)
(0 0 -9.24529e-43)
(0 0 4.14939e-42)
(0 0 -1.82675e-41)
(0 0 7.89118e-41)
(0 0 -3.34316e-40)
(0 0 1.38698e-39)
(0 0 -5.61792e-39)
(0 0 2.20962e-38)
(0 0 -8.35745e-38)
(0 0 2.98461e-37)
(0 0 -9.6794e-37)
(0 0 2.56336e-36)
(0 0 -3.07938e-36)
(0 0 -2.53794e-35)
(0 0 2.92165e-34)
(0 0 -2.09661e-33)
(0 0 1.27205e-32)
(0 0 -7.01942e-32)
(0 0 3.62113e-31)
(0 0 -1.76728e-30)
(0 0 8.19975e-30)
(0 0 -3.61995e-29)
(0 0 1.51719e-28)
(0 0 -5.99966e-28)
(0 0 2.20539e-27)
(0 0 -7.20803e-27)
(0 0 1.71487e-26)
(0 0 2.36103e-26)
(0 0 -9.53816e-25)
(0 0 1.29618e-23)
(0 0 -1.56066e-22)
(0 0 1.84523e-21)
(0 0 -2.1838e-20)
(0 0 2.59271e-19)
(0 0 -3.08536e-18)
(0 0 3.67651e-17)
(0 0 -4.38369e-16)
(0 0 5.22795e-15)
(0 0 -6.23488e-14)
(0 0 7.42787e-13)
(0 0 -8.95982e-12)
(0 0 -4.3661e-10)
(0 0 -1.12587e-09)
(0 0 -8.12961e-10)
(0 0 -1.64727e-09)
(0 0 -5.49901e-10)
(0 0 -5.26711e-10)
(0 0 -5.70104e-10)
(0 0 -4.50549e-10)
(0 0 -4.32772e-09)
(0 0 -1.56643e-08)
(0 0 2.35077e-07)
(0 0 5.12111e-07)
(0 0 5.21593e-07)
(0 0 4.95808e-07)
(0 0 4.84611e-07)
(0 0 4.94758e-07)
(0 0 4.98274e-07)
(0 0 4.8967e-07)
(0 0 4.68102e-07)
(0 0 4.41044e-07)
(0 0 4.1389e-07)
(0 0 3.83908e-07)
(0 0 3.49046e-07)
(0 0 3.12847e-07)
(0 0 2.77469e-07)
(0 0 2.51416e-07)
(0 0 2.32943e-07)
(0 0 2.11402e-07)
(0 0 1.82774e-07)
(0 0 1.54863e-07)
(0 0 1.36273e-07)
(0 0 1.17483e-07)
(0 0 1.05436e-07)
(0 0 8.76861e-08)
(0 0 8.00699e-08)
(0 0 7.07057e-08)
(0 0 6.3895e-08)
(0 0 5.08398e-08)
(0 0 4.0063e-08)
(0 0 3.7523e-08)
(0 0 1.96667e-08)
(0 0 3.48778e-08)
(0 0 2.24255e-08)
(0 0 2.77833e-08)
(0 0 1.16158e-08)
(0 0 1.8807e-08)
(0 0 8.96545e-09)
(0 0 1.84596e-08)
(0 0 6.41059e-09)
(0 0 1.95592e-08)
(0 0 1.20077e-09)
(0 0 1.31971e-08)
(0 0 -6.2013e-09)
(0 0 1.10684e-08)
(0 0 -9.03368e-09)
(0 0 1.62093e-08)
(0 0 4.65623e-08)
(0 0 1.0075e-07)
(0 0 1.10261e-08)
(0 0 -1.12098e-08)
(0 0 -7.25306e-08)
(0 0 -4.19961e-08)
(0 0 -1.28521e-08)
(0 0 3.61525e-08)
(0 0 -2.84303e-08)
(0 0 -2.6907e-09)
(0 0 -3.53054e-08)
(0 0 9.39693e-09)
(0 0 -2.87959e-08)
(0 0 1.4043e-08)
(0 0 -2.97292e-08)
(0 0 1.55846e-08)
(0 0 -2.97969e-08)
(0 0 1.78251e-08)
(0 0 -2.93843e-08)
(0 0 1.95557e-08)
(0 0 -2.88267e-08)
(0 0 2.10941e-08)
(0 0 -2.77302e-08)
(0 0 2.24593e-08)
(0 0 -2.62145e-08)
(0 0 2.34952e-08)
(0 0 -2.42937e-08)
(0 0 2.41967e-08)
(0 0 -2.19774e-08)
(0 0 2.45051e-08)
(0 0 -1.93005e-08)
(0 0 2.43951e-08)
(0 0 -1.63094e-08)
(0 0 2.39027e-08)
(0 0 -1.29918e-08)
(0 0 2.30356e-08)
(0 0 -9.46106e-09)
(0 0 2.17529e-08)
(0 0 -5.82323e-09)
(0 0 2.00477e-08)
(0 0 -2.13753e-09)
(0 0 1.79242e-08)
(0 0 1.46503e-09)
(0 0 1.55952e-08)