/*--------------------------------*- C++ -*----------------------------------*\
| =========                 |                                                 |
| \\      /  F ield         | foam-extend: Open Source CFD                    |
|  \\    /   O peration     | Version:     3.2                                |
|   \\  /    A nd           | Web:         http://www.foam-extend.org         |
|    \\/     M anipulation  | For copyright notice see file Copyright         |
\*---------------------------------------------------------------------------*/
FoamFile
{
    version     2.0;
    format      ascii;
    class       pointVectorField;
    location    "2020";
    object      newMeshPoints;
}
// * * * * * * * * * * * * * * * * * * * * * * * * * * * * * * * * * * * * * //

dimensions      [0 1 0 0 0 0 0];

internalField   nonuniform List<vector> 
5418
(
(0 0 0)
(0.05 0 -0.00025)
(0.1 0 -0.0005)
(0.15 0 -0.00075)
(0.2 0 -0.001)
(0.25 0 -0.00125)
(0.3 0 -0.0015)
(0.35 0 -0.00175)
(0.4 0 -0.002)
(0.45 0 -0.00225)
(0.5 0 -0.0025)
(0.55 0 -0.00275)
(0.6 0 -0.003)
(0.65 0 -0.00325)
(0.7 0 -0.0035)
(0.75 0 -0.00375)
(0.8 0 -0.004)
(0.85 0 -0.00425)
(0.9 0 -0.0045)
(0.95 0 -0.00475)
(1 0 -0.005)
(1.05 0 -0.00525)
(1.1 0 -0.0055)
(1.15 0 -0.00575)
(1.2 0 -0.006)
(1.25 0 -0.00625)
(1.3 0 -0.0065)
(1.35 0 -0.00675)
(1.4 0 -0.007)
(1.45 0 -0.00725)
(1.5 0 -0.0075)
(1.55 0 -0.00775)
(1.6 0 -0.008)
(1.65 0 -0.00825)
(1.7 0 -0.0085)
(1.75 0 -0.00875)
(1.8 0 -0.009)
(1.85 0 -0.00925)
(1.9 0 -0.0095)
(1.95 0 -0.00975)
(2 0 -0.01)
(2.05 0 -0.01025)
(2.1 0 -0.0105)
(2.15 0 -0.01075)
(2.2 0 -0.011)
(2.25 0 -0.01125)
(2.3 0 -0.0115)
(2.35 0 -0.01175)
(2.4 0 -0.012)
(2.45 0 -0.01225)
(2.5 0 -0.0125)
(2.55 0 -0.01275)
(2.6 0 -0.013)
(2.65 0 -0.01325)
(2.7 0 -0.0135)
(2.75 0 -0.01375)
(2.8 0 -0.014)
(2.85 0 -0.01425)
(2.9 0 -0.0145)
(2.95 0 -0.01475)
(3 0 -0.0107754)
(3.05 0 -0.00947938)
(3.1 0 -0.0102875)
(3.15 0 -0.00953845)
(3.2 0 -0.0106384)
(3.25 0 -0.0107238)
(3.3 0 -0.0110269)
(3.35 0 -0.0112526)
(3.4 0 -0.0115349)
(3.45 0 -0.0118117)
(3.5 0 -0.012102)
(3.55 0 -0.0123996)
(3.6 0 -0.0126967)
(3.65 0 -0.0129949)
(3.7 0 -0.0132905)
(3.75 0 -0.0135849)
(3.8 0 -0.0138758)
(3.85 0 -0.0141629)
(3.9 0 -0.0144461)
(3.95 0 -0.0147254)
(4 0 -0.0150007)
(4.05 0 -0.0152724)
(4.1 0 -0.0155399)
(4.15 0 -0.0158046)
(4.2 0 -0.0160666)
(4.25 0 -0.0163265)
(4.3 0 -0.0165844)
(4.35 0 -0.0168405)
(4.4 0 -0.0170954)
(4.45 0 -0.017348)
(4.5 0 -0.0176003)
(4.55 0 -0.0178518)
(4.6 0 -0.018103)
(4.65 0 -0.0183539)
(4.7 0 -0.0186043)
(4.75 0 -0.0188549)
(4.8 0 -0.019105)
(4.85 0 -0.0193546)
(4.9 0 -0.0196042)
(4.95 0 -0.019854)
(5 0 -0.0201037)
(5.05 0 -0.0203535)
(5.1 0 -0.0206038)
(5.15 0 -0.0208534)
(5.2 0 -0.021104)
(5.25 0 -0.0213535)
(5.3 0 -0.0216043)
(5.35 0 -0.0218528)
(5.4 0 -0.0221037)
(5.45 0 -0.0223523)
(5.5 0 -0.0226037)
(5.55 0 -0.0228521)
(5.6 0 -0.0231039)
(5.65 0 -0.023352)
(5.7 0 -0.0236044)
(5.75 0 -0.0238521)
(5.8 0 -0.0241051)
(5.85 0 -0.0243514)
(5.9 0 -0.0246048)
(5.95 0 -0.0248507)
(6 0 -0.0251049)
(6.05 0 -0.0253501)
(6.1 0 -0.0256053)
(6.15 0 -0.0258498)
(6.2 0 -0.0261059)
(6.25 0 -0.0263495)
(6.3 0 -0.0266066)
(6.35 0 -0.0268484)
(6.4 0 -0.0271064)
(6.45 0 -0.0273472)
(6.5 0 -0.0276065)
(6.55 0 -0.0278463)
(6.6 0 -0.028107)
(6.65 0 -0.0283455)
(6.7 0 -0.0286077)
(6.75 0 -0.0288449)
(6.8 0 -0.0291085)
(6.85 0 -0.0293442)
(6.9 0 -0.0296087)
(6.95 0 -0.0298426)
(7 0 -0.0301088)
(7.05 0 -0.0303413)
(7.1 0 -0.0306092)
(7.15 0 -0.0308402)
(7.2 0 -0.0311097)
(7.25 0 -0.0313394)
(7.3 0 -0.0316105)
(7.35 0 -0.0318386)
(7.4 0 -0.0321104)
(7.45 0 -0.032337)
(7.5 0 -0.0326104)
(7.55 0 -0.0328358)
(7.6 0 -0.0331106)
(7.65 0 -0.0333349)
(7.7 0 -0.033611)
(7.75 0 -0.0338343)
(7.8 0 -0.0341114)
(7.85 0 -0.034334)
(7.9 0 -0.0346119)
(7.95 0 -0.034833)
(8 0 -0.0351113)
(8.05 0 -0.0353322)
(8.1 0 -0.0356111)
(8.15 0 -0.0358318)
(8.2 0 -0.0361111)
(8.25 0 -0.0363318)
(8.3 0 -0.0366112)
(8.35 0 -0.036832)
(8.4 0 -0.0371114)
(8.45 0 -0.0373317)
(8.5 0 -0.0376107)
(8.55 0 -0.0378314)
(8.6 0 -0.0381103)
(8.65 0 -0.0383316)
(8.7 0 -0.0386102)
(8.75 0 -0.0388321)
(8.8 0 -0.0391102)
(8.85 0 -0.0393329)
(8.9 0 -0.0396103)
(8.95 0 -0.039833)
(9 0 -0.0401095)
(9.05 0 -0.0403332)
(9.1 0 -0.0406089)
(9.15 0 -0.0408338)
(9.2 0 -0.0411087)
(9.25 0 -0.0413347)
(9.3 0 -0.0416087)
(9.35 0 -0.0418358)
(9.4 0 -0.0421087)
(9.45 0 -0.0423362)
(9.5 0 -0.0426079)
(9.55 0 -0.0428368)
(9.6 0 -0.0431075)
(9.65 0 -0.0433377)
(9.7 0 -0.0436073)
(9.75 0 -0.0438387)
(9.8 0 -0.0441074)
(9.85 0 -0.04434)
(9.9 0 -0.0446075)
(9.95 0 -0.0448406)
(10 0 -0.0451068)
(10.05 0 -0.0453413)
(10.1 0 -0.0456064)
(10.15 0 -0.0458422)
(10.2 0 -0.0461065)
(10.25 0 -0.0463434)
(10.3 0 -0.0466067)
(10.35 0 -0.0468446)
(10.4 0 -0.0471063)
(10.45 0 -0.047345)
(10.5 0 -0.047606)
(10.55 0 -0.0478458)
(10.6 0 -0.048106)
(10.65 0 -0.0483467)
(10.7 0 -0.0486061)
(10.75 0 -0.0488476)
(10.8 0 -0.0491063)
(10.85 0 -0.049348)
(10.9 0 -0.0496058)
(10.95 0 -0.0498485)
(11 0 -0.0501057)
(11.05 0 -0.0503492)
(11.1 0 -0.0506059)
(11.15 0 -0.0508502)
(11.2 0 -0.0511062)
(11.25 0 -0.051351)
(11.3 0 -0.0516061)
(11.35 0 -0.0518512)
(11.4 0 -0.0521059)
(11.45 0 -0.0523517)
(11.5 0 -0.0526061)
(11.55 0 -0.0528525)
(11.6 0 -0.0531065)
(11.65 0 -0.0533532)
(11.7 0 -0.0536071)
(11.75 0 -0.0538534)
(11.8 0 -0.0541067)
(11.85 0 -0.0543538)
(11.9 0 -0.0546068)
(11.95 0 -0.054854)
(12 0 -0.0551069)
(12.05 0 -0.0553548)
(12.1 0 -0.0556074)
(12.15 0 -0.0558549)
(12.2 0 -0.056107)
(12.25 0 -0.0563547)
(12.3 0 -0.0566068)
(12.35 0 -0.0568551)
(12.4 0 -0.0571069)
(12.45 0 -0.0573554)
(12.5 0 -0.0576073)
(12.55 0 -0.0578556)
(12.6 0 -0.0581071)
(12.65 0 -0.0583557)
(12.7 0 -0.0586071)
(12.75 0 -0.0588558)
(12.8 0 -0.0591073)
(12.85 0 -0.0593565)
(12.9 0 -0.0596079)
(12.95 0 -0.0598564)
(13 0 -0.0601074)
(13.05 0 -0.0603562)
(13.1 0 -0.0606072)
(13.15 0 -0.0608565)
(13.2 0 -0.0611076)
(13.25 0 -0.0613571)
(13.3 0 -0.0616082)
(13.35 0 -0.0618571)
(13.4 0 -0.0621079)
(13.45 0 -0.0623571)
(13.5 0 -0.0626079)
(13.55 0 -0.0628573)
(13.6 0 -0.0631081)
(13.65 0 -0.0633577)
(13.7 0 -0.0636078)
(13.75 0 -0.0638572)
(13.8 0 -0.0641076)
(13.85 0 -0.064357)
(13.9 0 -0.0646073)
(13.95 0 -0.0648573)
(14 0 -0.0651077)
(14.05 0 -0.0653566)
(14.1 0 -0.0656078)
(14.15 0 -0.0658566)
(14.2 0 -0.0661068)
(14.25 0 -0.0663572)
(14.3 0 -0.0666043)
(14.35 0 -0.0668588)
(14.4 0 -0.0671088)
(14.45 0 -0.0673588)
(14.5 0 -0.0676086)
(14.55 0 -0.06786)
(14.6 0 -0.0681028)
(14.65 0 -0.068363)
(14.7 0 -0.068478)
(14.75 0 -0.0680787)
(14.8 0 -0.0698887)
(14.85 0 -0.07425)
(14.9 0 -0.0745)
(14.95 0 -0.07475)
(15 0 -0.075)
(0 0.02 0)
(0.05 0.02 -0.00025)
(0.1 0.02 -0.0005)
(0.15 0.02 -0.00075)
(0.2 0.02 -0.001)
(0.25 0.02 -0.00125)
(0.3 0.02 -0.0015)
(0.35 0.02 -0.00175)
(0.4 0.02 -0.002)
(0.45 0.02 -0.00225)
(0.5 0.02 -0.0025)
(0.55 0.02 -0.00275)
(0.6 0.02 -0.003)
(0.65 0.02 -0.00325)
(0.7 0.02 -0.0035)
(0.75 0.02 -0.00375)
(0.8 0.02 -0.004)
(0.85 0.02 -0.00425)
(0.9 0.02 -0.0045)
(0.95 0.02 -0.00475)
(1 0.02 -0.005)
(1.05 0.02 -0.00525)
(1.1 0.02 -0.0055)
(1.15 0.02 -0.00575)
(1.2 0.02 -0.006)
(1.25 0.02 -0.00625)
(1.3 0.02 -0.0065)
(1.35 0.02 -0.00675)
(1.4 0.02 -0.007)
(1.45 0.02 -0.00725)
(1.5 0.02 -0.0075)
(1.55 0.02 -0.00775)
(1.6 0.02 -0.008)
(1.65 0.02 -0.00825)
(1.7 0.02 -0.0085)
(1.75 0.02 -0.00875)
(1.8 0.02 -0.009)
(1.85 0.02 -0.00925)
(1.9 0.02 -0.0095)
(1.95 0.02 -0.00975)
(2 0.02 -0.01)
(2.05 0.02 -0.01025)
(2.1 0.02 -0.0105)
(2.15 0.02 -0.01075)
(2.2 0.02 -0.011)
(2.25 0.02 -0.01125)
(2.3 0.02 -0.0115)
(2.35 0.02 -0.01175)
(2.4 0.02 -0.012)
(2.45 0.02 -0.01225)
(2.5 0.02 -0.0125)
(2.55 0.02 -0.01275)
(2.6 0.02 -0.013)
(2.65 0.02 -0.01325)
(2.7 0.02 -0.0135)
(2.75 0.02 -0.01375)
(2.8 0.02 -0.014)
(2.85 0.02 -0.01425)
(2.9 0.02 -0.0145)
(2.95 0.02 -0.01475)
(3 0.02 -0.0107754)
(3.05 0.02 -0.00947938)
(3.1 0.02 -0.0102875)
(3.15 0.02 -0.00953845)
(3.2 0.02 -0.0106384)
(3.25 0.02 -0.0107238)
(3.3 0.02 -0.0110269)
(3.35 0.02 -0.0112526)
(3.4 0.02 -0.0115349)
(3.45 0.02 -0.0118117)
(3.5 0.02 -0.012102)
(3.55 0.02 -0.0123996)
(3.6 0.02 -0.0126967)
(3.65 0.02 -0.0129949)
(3.7 0.02 -0.0132905)
(3.75 0.02 -0.0135849)
(3.8 0.02 -0.0138758)
(3.85 0.02 -0.0141629)
(3.9 0.02 -0.0144461)
(3.95 0.02 -0.0147254)
(4 0.02 -0.0150007)
(4.05 0.02 -0.0152724)
(4.1 0.02 -0.0155399)
(4.15 0.02 -0.0158046)
(4.2 0.02 -0.0160666)
(4.25 0.02 -0.0163265)
(4.3 0.02 -0.0165844)
(4.35 0.02 -0.0168405)
(4.4 0.02 -0.0170954)
(4.45 0.02 -0.017348)
(4.5 0.02 -0.0176003)
(4.55 0.02 -0.0178518)
(4.6 0.02 -0.018103)
(4.65 0.02 -0.0183539)
(4.7 0.02 -0.0186043)
(4.75 0.02 -0.0188549)
(4.8 0.02 -0.019105)
(4.85 0.02 -0.0193546)
(4.9 0.02 -0.0196042)
(4.95 0.02 -0.019854)
(5 0.02 -0.0201037)
(5.05 0.02 -0.0203535)
(5.1 0.02 -0.0206038)
(5.15 0.02 -0.0208534)
(5.2 0.02 -0.021104)
(5.25 0.02 -0.0213535)
(5.3 0.02 -0.0216043)
(5.35 0.02 -0.0218528)
(5.4 0.02 -0.0221037)
(5.45 0.02 -0.0223523)
(5.5 0.02 -0.0226037)
(5.55 0.02 -0.0228521)
(5.6 0.02 -0.0231039)
(5.65 0.02 -0.023352)
(5.7 0.02 -0.0236044)
(5.75 0.02 -0.0238521)
(5.8 0.02 -0.0241051)
(5.85 0.02 -0.0243514)
(5.9 0.02 -0.0246048)
(5.95 0.02 -0.0248507)
(6 0.02 -0.0251049)
(6.05 0.02 -0.0253501)
(6.1 0.02 -0.0256053)
(6.15 0.02 -0.0258498)
(6.2 0.02 -0.0261059)
(6.25 0.02 -0.0263495)
(6.3 0.02 -0.0266066)
(6.35 0.02 -0.0268484)
(6.4 0.02 -0.0271064)
(6.45 0.02 -0.0273472)
(6.5 0.02 -0.0276065)
(6.55 0.02 -0.0278463)
(6.6 0.02 -0.028107)
(6.65 0.02 -0.0283455)
(6.7 0.02 -0.0286077)
(6.75 0.02 -0.0288449)
(6.8 0.02 -0.0291085)
(6.85 0.02 -0.0293442)
(6.9 0.02 -0.0296087)
(6.95 0.02 -0.0298426)
(7 0.02 -0.0301088)
(7.05 0.02 -0.0303413)
(7.1 0.02 -0.0306092)
(7.15 0.02 -0.0308402)
(7.2 0.02 -0.0311097)
(7.25 0.02 -0.0313394)
(7.3 0.02 -0.0316105)
(7.35 0.02 -0.0318386)
(7.4 0.02 -0.0321104)
(7.45 0.02 -0.032337)
(7.5 0.02 -0.0326104)
(7.55 0.02 -0.0328358)
(7.6 0.02 -0.0331106)
(7.65 0.02 -0.0333349)
(7.7 0.02 -0.033611)
(7.75 0.02 -0.0338343)
(7.8 0.02 -0.0341114)
(7.85 0.02 -0.034334)
(7.9 0.02 -0.0346119)
(7.95 0.02 -0.034833)
(8 0.02 -0.0351113)
(8.05 0.02 -0.0353322)
(8.1 0.02 -0.0356111)
(8.15 0.02 -0.0358318)
(8.2 0.02 -0.0361111)
(8.25 0.02 -0.0363318)
(8.3 0.02 -0.0366112)
(8.35 0.02 -0.036832)
(8.4 0.02 -0.0371114)
(8.45 0.02 -0.0373317)
(8.5 0.02 -0.0376107)
(8.55 0.02 -0.0378314)
(8.6 0.02 -0.0381103)
(8.65 0.02 -0.0383316)
(8.7 0.02 -0.0386102)
(8.75 0.02 -0.0388321)
(8.8 0.02 -0.0391102)
(8.85 0.02 -0.0393329)
(8.9 0.02 -0.0396103)
(8.95 0.02 -0.039833)
(9 0.02 -0.0401095)
(9.05 0.02 -0.0403332)
(9.1 0.02 -0.0406089)
(9.15 0.02 -0.0408338)
(9.2 0.02 -0.0411087)
(9.25 0.02 -0.0413347)
(9.3 0.02 -0.0416087)
(9.35 0.02 -0.0418358)
(9.4 0.02 -0.0421087)
(9.45 0.02 -0.0423362)
(9.5 0.02 -0.0426079)
(9.55 0.02 -0.0428368)
(9.6 0.02 -0.0431075)
(9.65 0.02 -0.0433377)
(9.7 0.02 -0.0436073)
(9.75 0.02 -0.0438387)
(9.8 0.02 -0.0441074)
(9.85 0.02 -0.04434)
(9.9 0.02 -0.0446075)
(9.95 0.02 -0.0448406)
(10 0.02 -0.0451068)
(10.05 0.02 -0.0453413)
(10.1 0.02 -0.0456064)
(10.15 0.02 -0.0458422)
(10.2 0.02 -0.0461065)
(10.25 0.02 -0.0463434)
(10.3 0.02 -0.0466067)
(10.35 0.02 -0.0468446)
(10.4 0.02 -0.0471063)
(10.45 0.02 -0.047345)
(10.5 0.02 -0.047606)
(10.55 0.02 -0.0478458)
(10.6 0.02 -0.048106)
(10.65 0.02 -0.0483467)
(10.7 0.02 -0.0486061)
(10.75 0.02 -0.0488476)
(10.8 0.02 -0.0491063)
(10.85 0.02 -0.049348)
(10.9 0.02 -0.0496058)
(10.95 0.02 -0.0498485)
(11 0.02 -0.0501057)
(11.05 0.02 -0.0503492)
(11.1 0.02 -0.0506059)
(11.15 0.02 -0.0508502)
(11.2 0.02 -0.0511062)
(11.25 0.02 -0.051351)
(11.3 0.02 -0.0516061)
(11.35 0.02 -0.0518512)
(11.4 0.02 -0.0521059)
(11.45 0.02 -0.0523517)
(11.5 0.02 -0.0526061)
(11.55 0.02 -0.0528525)
(11.6 0.02 -0.0531065)
(11.65 0.02 -0.0533532)
(11.7 0.02 -0.0536071)
(11.75 0.02 -0.0538534)
(11.8 0.02 -0.0541067)
(11.85 0.02 -0.0543538)
(11.9 0.02 -0.0546068)
(11.95 0.02 -0.054854)
(12 0.02 -0.0551069)
(12.05 0.02 -0.0553548)
(12.1 0.02 -0.0556074)
(12.15 0.02 -0.0558549)
(12.2 0.02 -0.056107)
(12.25 0.02 -0.0563547)
(12.3 0.02 -0.0566068)
(12.35 0.02 -0.0568551)
(12.4 0.02 -0.0571069)
(12.45 0.02 -0.0573554)
(12.5 0.02 -0.0576073)
(12.55 0.02 -0.0578556)
(12.6 0.02 -0.0581071)
(12.65 0.02 -0.0583557)
(12.7 0.02 -0.0586071)
(12.75 0.02 -0.0588558)
(12.8 0.02 -0.0591073)
(12.85 0.02 -0.0593565)
(12.9 0.02 -0.0596079)
(12.95 0.02 -0.0598564)
(13 0.02 -0.0601074)
(13.05 0.02 -0.0603562)
(13.1 0.02 -0.0606072)
(13.15 0.02 -0.0608565)
(13.2 0.02 -0.0611076)
(13.25 0.02 -0.0613571)
(13.3 0.02 -0.0616082)
(13.35 0.02 -0.0618571)
(13.4 0.02 -0.0621079)
(13.45 0.02 -0.0623571)
(13.5 0.02 -0.0626079)
(13.55 0.02 -0.0628573)
(13.6 0.02 -0.0631081)
(13.65 0.02 -0.0633577)
(13.7 0.02 -0.0636078)
(13.75 0.02 -0.0638572)
(13.8 0.02 -0.0641076)
(13.85 0.02 -0.064357)
(13.9 0.02 -0.0646073)
(13.95 0.02 -0.0648573)
(14 0.02 -0.0651077)
(14.05 0.02 -0.0653566)
(14.1 0.02 -0.0656078)
(14.15 0.02 -0.0658566)
(14.2 0.02 -0.0661068)
(14.25 0.02 -0.0663572)
(14.3 0.02 -0.0666043)
(14.35 0.02 -0.0668588)
(14.4 0.02 -0.0671088)
(14.45 0.02 -0.0673588)
(14.5 0.02 -0.0676086)
(14.55 0.02 -0.06786)
(14.6 0.02 -0.0681028)
(14.65 0.02 -0.068363)
(14.7 0.02 -0.068478)
(14.75 0.02 -0.0680787)
(14.8 0.02 -0.0698887)
(14.85 0.02 -0.07425)
(14.9 0.02 -0.0745)
(14.95 0.02 -0.07475)
(15 0.02 -0.075)
(0 0 0.00375)
(0.05 0 0.0035)
(0.1 0 0.00325)
(0.15 0 0.003)
(0.2 0 0.00275)
(0.25 0 0.0025)
(0.3 0 0.00225)
(0.35 0 0.002)
(0.4 0 0.00175)
(0.45 0 0.0015)
(0.5 0 0.00125)
(0.55 0 0.001)
(0.6 0 0.00075)
(0.65 0 0.0005)
(0.7 0 0.00025)
(0.75 0 1.4456e-19)
(0.8 0 -0.00025)
(0.85 0 -0.0005)
(0.9 0 -0.00075)
(0.95 0 -0.001)
(1 0 -0.00125)
(1.05 0 -0.0015)
(1.1 0 -0.00175)
(1.15 0 -0.002)
(1.2 0 -0.00225)
(1.25 0 -0.0025)
(1.3 0 -0.00275)
(1.35 0 -0.003)
(1.4 0 -0.00325)
(1.45 0 -0.0035)
(1.5 0 -0.00375)
(1.55 0 -0.004)
(1.6 0 -0.00425)
(1.65 0 -0.0045)
(1.7 0 -0.00475)
(1.75 0 -0.005)
(1.8 0 -0.00525)
(1.85 0 -0.0055)
(1.9 0 -0.00575)
(1.95 0 -0.006)
(2 0 -0.00625)
(2.05 0 -0.0065)
(2.1 0 -0.00675)
(2.15 0 -0.007)
(2.2 0 -0.00725)
(2.25 0 -0.0075)
(2.3 0 -0.00775)
(2.35 0 -0.008)
(2.4 0 -0.00825)
(2.45 0 -0.0085)
(2.5 0 -0.00875)
(2.55 0 -0.009)
(2.6 0 -0.00925)
(2.65 0 -0.0095)
(2.7 0 -0.00975)
(2.75 0 -0.01)
(2.8 0 -0.01025)
(2.85 0 -0.0104998)
(2.9 0 -0.0107527)
(2.95 0 -0.0109661)
(3 0 -0.00704363)
(3.05 0 -0.00575297)
(3.1 0 -0.00653599)
(3.15 0 -0.00581334)
(3.2 0 -0.00689133)
(3.25 0 -0.00698683)
(3.3 0 -0.00728713)
(3.35 0 -0.00751392)
(3.4 0 -0.00779568)
(3.45 0 -0.00807258)
(3.5 0 -0.00836272)
(3.55 0 -0.00866012)
(3.6 0 -0.00895713)
(3.65 0 -0.00925518)
(3.7 0 -0.00955067)
(3.75 0 -0.00984492)
(3.8 0 -0.0101358)
(3.85 0 -0.0104227)
(3.9 0 -0.0107058)
(3.95 0 -0.0109851)
(4 0 -0.0112603)
(4.05 0 -0.011532)
(4.1 0 -0.0117994)
(4.15 0 -0.0120642)
(4.2 0 -0.0123261)
(4.25 0 -0.012586)
(4.3 0 -0.0128438)
(4.35 0 -0.0131)
(4.4 0 -0.0133548)
(4.45 0 -0.0136075)
(4.5 0 -0.0138597)
(4.55 0 -0.0141112)
(4.6 0 -0.0143624)
(4.65 0 -0.0146133)
(4.7 0 -0.0148637)
(4.75 0 -0.0151143)
(4.8 0 -0.0153644)
(4.85 0 -0.015614)
(4.9 0 -0.0158636)
(4.95 0 -0.0161134)
(5 0 -0.0163631)
(5.05 0 -0.016613)
(5.1 0 -0.0168632)
(5.15 0 -0.0171128)
(5.2 0 -0.0173634)
(5.25 0 -0.0176129)
(5.3 0 -0.0178637)
(5.35 0 -0.0181122)
(5.4 0 -0.0183631)
(5.45 0 -0.0186117)
(5.5 0 -0.0188631)
(5.55 0 -0.0191115)
(5.6 0 -0.0193633)
(5.65 0 -0.0196115)
(5.7 0 -0.0198638)
(5.75 0 -0.0201116)
(5.8 0 -0.0203644)
(5.85 0 -0.0206108)
(5.9 0 -0.0208641)
(5.95 0 -0.0211101)
(6 0 -0.0213642)
(6.05 0 -0.0216096)
(6.1 0 -0.0218647)
(6.15 0 -0.0221093)
(6.2 0 -0.0223653)
(6.25 0 -0.0226091)
(6.3 0 -0.0228659)
(6.35 0 -0.0231079)
(6.4 0 -0.0233656)
(6.45 0 -0.0236068)
(6.5 0 -0.0238658)
(6.55 0 -0.0241059)
(6.6 0 -0.0243662)
(6.65 0 -0.0246051)
(6.7 0 -0.0248669)
(6.75 0 -0.0251045)
(6.8 0 -0.0253677)
(6.85 0 -0.0256039)
(6.9 0 -0.0258678)
(6.95 0 -0.0261023)
(7 0 -0.0263679)
(7.05 0 -0.026601)
(7.1 0 -0.0268683)
(7.15 0 -0.0270999)
(7.2 0 -0.0273689)
(7.25 0 -0.0275991)
(7.3 0 -0.0278696)
(7.35 0 -0.0280984)
(7.4 0 -0.0283695)
(7.45 0 -0.0285968)
(7.5 0 -0.0288695)
(7.55 0 -0.0290956)
(7.6 0 -0.0293696)
(7.65 0 -0.0295947)
(7.7 0 -0.02987)
(7.75 0 -0.0300942)
(7.8 0 -0.0303704)
(7.85 0 -0.0305939)
(7.9 0 -0.0308708)
(7.95 0 -0.0310929)
(8 0 -0.0313703)
(8.05 0 -0.0315921)
(8.1 0 -0.03187)
(8.15 0 -0.0320917)
(8.2 0 -0.03237)
(8.25 0 -0.0325917)
(8.3 0 -0.0328702)
(8.35 0 -0.0330919)
(8.4 0 -0.0333704)
(8.45 0 -0.0335916)
(8.5 0 -0.0338697)
(8.55 0 -0.0340913)
(8.6 0 -0.0343693)
(8.65 0 -0.0345915)
(8.7 0 -0.0348691)
(8.75 0 -0.035092)
(8.8 0 -0.0353692)
(8.85 0 -0.0355927)
(8.9 0 -0.0358693)
(8.95 0 -0.0360928)
(9 0 -0.0363685)
(9.05 0 -0.0365931)
(9.1 0 -0.036868)
(9.15 0 -0.0370936)
(9.2 0 -0.0373677)
(9.25 0 -0.0375945)
(9.3 0 -0.0378677)
(9.35 0 -0.0380956)
(9.4 0 -0.0383678)
(9.45 0 -0.038596)
(9.5 0 -0.038867)
(9.55 0 -0.0390965)
(9.6 0 -0.0393666)
(9.65 0 -0.0395974)
(9.7 0 -0.0398665)
(9.75 0 -0.0400984)
(9.8 0 -0.0403665)
(9.85 0 -0.0405997)
(9.9 0 -0.0408666)
(9.95 0 -0.0411003)
(10 0 -0.041366)
(10.05 0 -0.041601)
(10.1 0 -0.0418656)
(10.15 0 -0.0421018)
(10.2 0 -0.0423657)
(10.25 0 -0.042603)
(10.3 0 -0.0428659)
(10.35 0 -0.0431042)
(10.4 0 -0.0433655)
(10.45 0 -0.0436045)
(10.5 0 -0.0438652)
(10.55 0 -0.0441054)
(10.6 0 -0.0443653)
(10.65 0 -0.0446063)
(10.7 0 -0.0448653)
(10.75 0 -0.0451072)
(10.8 0 -0.0453656)
(10.85 0 -0.0456075)
(10.9 0 -0.0458651)
(10.95 0 -0.046108)
(11 0 -0.046365)
(11.05 0 -0.0466087)
(11.1 0 -0.0468652)
(11.15 0 -0.0471097)
(11.2 0 -0.0473655)
(11.25 0 -0.0476105)
(11.3 0 -0.0478655)
(11.35 0 -0.0481107)
(11.4 0 -0.0483653)
(11.45 0 -0.0486112)
(11.5 0 -0.0488655)
(11.55 0 -0.0491119)
(11.6 0 -0.0493658)
(11.65 0 -0.0496127)
(11.7 0 -0.0498665)
(11.75 0 -0.0501128)
(11.8 0 -0.050366)
(11.85 0 -0.0506133)
(11.9 0 -0.0508662)
(11.95 0 -0.0511135)
(12 0 -0.0513662)
(12.05 0 -0.0516142)
(12.1 0 -0.0518668)
(12.15 0 -0.0521143)
(12.2 0 -0.0523664)
(12.25 0 -0.0526142)
(12.3 0 -0.0528662)
(12.35 0 -0.0531146)
(12.4 0 -0.0533663)
(12.45 0 -0.0536149)
(12.5 0 -0.0538667)
(12.55 0 -0.054115)
(12.6 0 -0.0543664)
(12.65 0 -0.0546151)
(12.7 0 -0.0548665)
(12.75 0 -0.0551152)
(12.8 0 -0.0553667)
(12.85 0 -0.0556159)
(12.9 0 -0.0558672)
(12.95 0 -0.0561159)
(13 0 -0.0563668)
(13.05 0 -0.0566157)
(13.1 0 -0.0568666)
(13.15 0 -0.0571159)
(13.2 0 -0.057367)
(13.25 0 -0.0576165)
(13.3 0 -0.0578675)
(13.35 0 -0.0581165)
(13.4 0 -0.0583673)
(13.45 0 -0.0586165)
(13.5 0 -0.0588673)
(13.55 0 -0.0591167)
(13.6 0 -0.0593674)
(13.65 0 -0.0596171)
(13.7 0 -0.0598672)
(13.75 0 -0.0601166)
(13.8 0 -0.060367)
(13.85 0 -0.0606164)
(13.9 0 -0.0608667)
(13.95 0 -0.0611167)
(14 0 -0.0613671)
(14.05 0 -0.061616)
(14.1 0 -0.0618672)
(14.15 0 -0.062116)
(14.2 0 -0.0623662)
(14.25 0 -0.0626166)
(14.3 0 -0.0628637)
(14.35 0 -0.0631181)
(14.4 0 -0.0633682)
(14.45 0 -0.0636182)
(14.5 0 -0.063868)
(14.55 0 -0.0641193)
(14.6 0 -0.0643624)
(14.65 0 -0.0646219)
(14.7 0 -0.0647337)
(14.75 0 -0.0643518)
(14.8 0 -0.0661538)
(14.85 0 -0.0704656)
(14.9 0 -0.0707527)
(14.95 0 -0.0709998)
(15 0 -0.07125)
(0 0.02 0.00375)
(0.05 0.02 0.0035)
(0.1 0.02 0.00325)
(0.15 0.02 0.003)
(0.2 0.02 0.00275)
(0.25 0.02 0.0025)
(0.3 0.02 0.00225)
(0.35 0.02 0.002)
(0.4 0.02 0.00175)
(0.45 0.02 0.0015)
(0.5 0.02 0.00125)
(0.55 0.02 0.001)
(0.6 0.02 0.00075)
(0.65 0.02 0.0005)
(0.7 0.02 0.00025)
(0.75 0.02 1.4456e-19)
(0.8 0.02 -0.00025)
(0.85 0.02 -0.0005)
(0.9 0.02 -0.00075)
(0.95 0.02 -0.001)
(1 0.02 -0.00125)
(1.05 0.02 -0.0015)
(1.1 0.02 -0.00175)
(1.15 0.02 -0.002)
(1.2 0.02 -0.00225)
(1.25 0.02 -0.0025)
(1.3 0.02 -0.00275)
(1.35 0.02 -0.003)
(1.4 0.02 -0.00325)
(1.45 0.02 -0.0035)
(1.5 0.02 -0.00375)
(1.55 0.02 -0.004)
(1.6 0.02 -0.00425)
(1.65 0.02 -0.0045)
(1.7 0.02 -0.00475)
(1.75 0.02 -0.005)
(1.8 0.02 -0.00525)
(1.85 0.02 -0.0055)
(1.9 0.02 -0.00575)
(1.95 0.02 -0.006)
(2 0.02 -0.00625)
(2.05 0.02 -0.0065)
(2.1 0.02 -0.00675)
(2.15 0.02 -0.007)
(2.2 0.02 -0.00725)
(2.25 0.02 -0.0075)
(2.3 0.02 -0.00775)
(2.35 0.02 -0.008)
(2.4 0.02 -0.00825)
(2.45 0.02 -0.0085)
(2.5 0.02 -0.00875)
(2.55 0.02 -0.009)
(2.6 0.02 -0.00925)
(2.65 0.02 -0.0095)
(2.7 0.02 -0.00975)
(2.75 0.02 -0.01)
(2.8 0.02 -0.01025)
(2.85 0.02 -0.0104998)
(2.9 0.02 -0.0107527)
(2.95 0.02 -0.0109661)
(3 0.02 -0.00704363)
(3.05 0.02 -0.00575297)
(3.1 0.02 -0.00653599)
(3.15 0.02 -0.00581334)
(3.2 0.02 -0.00689133)
(3.25 0.02 -0.00698683)
(3.3 0.02 -0.00728713)
(3.35 0.02 -0.00751392)
(3.4 0.02 -0.00779568)
(3.45 0.02 -0.00807258)
(3.5 0.02 -0.00836272)
(3.55 0.02 -0.00866012)
(3.6 0.02 -0.00895713)
(3.65 0.02 -0.00925518)
(3.7 0.02 -0.00955067)
(3.75 0.02 -0.00984492)
(3.8 0.02 -0.0101358)
(3.85 0.02 -0.0104227)
(3.9 0.02 -0.0107058)
(3.95 0.02 -0.0109851)
(4 0.02 -0.0112603)
(4.05 0.02 -0.011532)
(4.1 0.02 -0.0117994)
(4.15 0.02 -0.0120642)
(4.2 0.02 -0.0123261)
(4.25 0.02 -0.012586)
(4.3 0.02 -0.0128438)
(4.35 0.02 -0.0131)
(4.4 0.02 -0.0133548)
(4.45 0.02 -0.0136075)
(4.5 0.02 -0.0138597)
(4.55 0.02 -0.0141112)
(4.6 0.02 -0.0143624)
(4.65 0.02 -0.0146133)
(4.7 0.02 -0.0148637)
(4.75 0.02 -0.0151143)
(4.8 0.02 -0.0153644)
(4.85 0.02 -0.015614)
(4.9 0.02 -0.0158636)
(4.95 0.02 -0.0161134)
(5 0.02 -0.0163631)
(5.05 0.02 -0.016613)
(5.1 0.02 -0.0168632)
(5.15 0.02 -0.0171128)
(5.2 0.02 -0.0173634)
(5.25 0.02 -0.0176129)
(5.3 0.02 -0.0178637)
(5.35 0.02 -0.0181122)
(5.4 0.02 -0.0183631)
(5.45 0.02 -0.0186117)
(5.5 0.02 -0.0188631)
(5.55 0.02 -0.0191115)
(5.6 0.02 -0.0193633)
(5.65 0.02 -0.0196115)
(5.7 0.02 -0.0198638)
(5.75 0.02 -0.0201116)
(5.8 0.02 -0.0203644)
(5.85 0.02 -0.0206108)
(5.9 0.02 -0.0208641)
(5.95 0.02 -0.0211101)
(6 0.02 -0.0213642)
(6.05 0.02 -0.0216096)
(6.1 0.02 -0.0218647)
(6.15 0.02 -0.0221093)
(6.2 0.02 -0.0223653)
(6.25 0.02 -0.0226091)
(6.3 0.02 -0.0228659)
(6.35 0.02 -0.0231079)
(6.4 0.02 -0.0233656)
(6.45 0.02 -0.0236068)
(6.5 0.02 -0.0238658)
(6.55 0.02 -0.0241059)
(6.6 0.02 -0.0243662)
(6.65 0.02 -0.0246051)
(6.7 0.02 -0.0248669)
(6.75 0.02 -0.0251045)
(6.8 0.02 -0.0253677)
(6.85 0.02 -0.0256039)
(6.9 0.02 -0.0258678)
(6.95 0.02 -0.0261023)
(7 0.02 -0.0263679)
(7.05 0.02 -0.026601)
(7.1 0.02 -0.0268683)
(7.15 0.02 -0.0270999)
(7.2 0.02 -0.0273689)
(7.25 0.02 -0.0275991)
(7.3 0.02 -0.0278696)
(7.35 0.02 -0.0280984)
(7.4 0.02 -0.0283695)
(7.45 0.02 -0.0285968)
(7.5 0.02 -0.0288695)
(7.55 0.02 -0.0290956)
(7.6 0.02 -0.0293696)
(7.65 0.02 -0.0295947)
(7.7 0.02 -0.02987)
(7.75 0.02 -0.0300942)
(7.8 0.02 -0.0303704)
(7.85 0.02 -0.0305939)
(7.9 0.02 -0.0308708)
(7.95 0.02 -0.0310929)
(8 0.02 -0.0313703)
(8.05 0.02 -0.0315921)
(8.1 0.02 -0.03187)
(8.15 0.02 -0.0320917)
(8.2 0.02 -0.03237)
(8.25 0.02 -0.0325917)
(8.3 0.02 -0.0328702)
(8.35 0.02 -0.0330919)
(8.4 0.02 -0.0333704)
(8.45 0.02 -0.0335916)
(8.5 0.02 -0.0338697)
(8.55 0.02 -0.0340913)
(8.6 0.02 -0.0343693)
(8.65 0.02 -0.0345915)
(8.7 0.02 -0.0348691)
(8.75 0.02 -0.035092)
(8.8 0.02 -0.0353692)
(8.85 0.02 -0.0355927)
(8.9 0.02 -0.0358693)
(8.95 0.02 -0.0360928)
(9 0.02 -0.0363685)
(9.05 0.02 -0.0365931)
(9.1 0.02 -0.036868)
(9.15 0.02 -0.0370936)
(9.2 0.02 -0.0373677)
(9.25 0.02 -0.0375945)
(9.3 0.02 -0.0378677)
(9.35 0.02 -0.0380956)
(9.4 0.02 -0.0383678)
(9.45 0.02 -0.038596)
(9.5 0.02 -0.038867)
(9.55 0.02 -0.0390965)
(9.6 0.02 -0.0393666)
(9.65 0.02 -0.0395974)
(9.7 0.02 -0.0398665)
(9.75 0.02 -0.0400984)
(9.8 0.02 -0.0403665)
(9.85 0.02 -0.0405997)
(9.9 0.02 -0.0408666)
(9.95 0.02 -0.0411003)
(10 0.02 -0.041366)
(10.05 0.02 -0.041601)
(10.1 0.02 -0.0418656)
(10.15 0.02 -0.0421018)
(10.2 0.02 -0.0423657)
(10.25 0.02 -0.042603)
(10.3 0.02 -0.0428659)
(10.35 0.02 -0.0431042)
(10.4 0.02 -0.0433655)
(10.45 0.02 -0.0436045)
(10.5 0.02 -0.0438652)
(10.55 0.02 -0.0441054)
(10.6 0.02 -0.0443653)
(10.65 0.02 -0.0446063)
(10.7 0.02 -0.0448653)
(10.75 0.02 -0.0451072)
(10.8 0.02 -0.0453656)
(10.85 0.02 -0.0456075)
(10.9 0.02 -0.0458651)
(10.95 0.02 -0.046108)
(11 0.02 -0.046365)
(11.05 0.02 -0.0466087)
(11.1 0.02 -0.0468652)
(11.15 0.02 -0.0471097)
(11.2 0.02 -0.0473655)
(11.25 0.02 -0.0476105)
(11.3 0.02 -0.0478655)
(11.35 0.02 -0.0481107)
(11.4 0.02 -0.0483653)
(11.45 0.02 -0.0486112)
(11.5 0.02 -0.0488655)
(11.55 0.02 -0.0491119)
(11.6 0.02 -0.0493658)
(11.65 0.02 -0.0496127)
(11.7 0.02 -0.0498665)
(11.75 0.02 -0.0501128)
(11.8 0.02 -0.050366)
(11.85 0.02 -0.0506133)
(11.9 0.02 -0.0508662)
(11.95 0.02 -0.0511135)
(12 0.02 -0.0513662)
(12.05 0.02 -0.0516142)
(12.1 0.02 -0.0518668)
(12.15 0.02 -0.0521143)
(12.2 0.02 -0.0523664)
(12.25 0.02 -0.0526142)
(12.3 0.02 -0.0528662)
(12.35 0.02 -0.0531146)
(12.4 0.02 -0.0533663)
(12.45 0.02 -0.0536149)
(12.5 0.02 -0.0538667)
(12.55 0.02 -0.054115)
(12.6 0.02 -0.0543664)
(12.65 0.02 -0.0546151)
(12.7 0.02 -0.0548665)
(12.75 0.02 -0.0551152)
(12.8 0.02 -0.0553667)
(12.85 0.02 -0.0556159)
(12.9 0.02 -0.0558672)
(12.95 0.02 -0.0561159)
(13 0.02 -0.0563668)
(13.05 0.02 -0.0566157)
(13.1 0.02 -0.0568666)
(13.15 0.02 -0.0571159)
(13.2 0.02 -0.057367)
(13.25 0.02 -0.0576165)
(13.3 0.02 -0.0578675)
(13.35 0.02 -0.0581165)
(13.4 0.02 -0.0583673)
(13.45 0.02 -0.0586165)
(13.5 0.02 -0.0588673)
(13.55 0.02 -0.0591167)
(13.6 0.02 -0.0593674)
(13.65 0.02 -0.0596171)
(13.7 0.02 -0.0598672)
(13.75 0.02 -0.0601166)
(13.8 0.02 -0.060367)
(13.85 0.02 -0.0606164)
(13.9 0.02 -0.0608667)
(13.95 0.02 -0.0611167)
(14 0.02 -0.0613671)
(14.05 0.02 -0.061616)
(14.1 0.02 -0.0618672)
(14.15 0.02 -0.062116)
(14.2 0.02 -0.0623662)
(14.25 0.02 -0.0626166)
(14.3 0.02 -0.0628637)
(14.35 0.02 -0.0631181)
(14.4 0.02 -0.0633682)
(14.45 0.02 -0.0636182)
(14.5 0.02 -0.063868)
(14.55 0.02 -0.0641193)
(14.6 0.02 -0.0643624)
(14.65 0.02 -0.0646219)
(14.7 0.02 -0.0647337)
(14.75 0.02 -0.0643518)
(14.8 0.02 -0.0661538)
(14.85 0.02 -0.0704656)
(14.9 0.02 -0.0707527)
(14.95 0.02 -0.0709998)
(15 0.02 -0.07125)
(0 0 0.0075)
(0.05 0 0.00725)
(0.1 0 0.007)
(0.15 0 0.00675)
(0.2 0 0.0065)
(0.25 0 0.00625)
(0.3 0 0.006)
(0.35 0 0.00575)
(0.4 0 0.0055)
(0.45 0 0.00525)
(0.5 0 0.005)
(0.55 0 0.00475)
(0.6 0 0.0045)
(0.65 0 0.00425)
(0.7 0 0.004)
(0.75 0 0.00375)
(0.8 0 0.0035)
(0.85 0 0.00325)
(0.9 0 0.003)
(0.95 0 0.00275)
(1 0 0.0025)
(1.05 0 0.00225)
(1.1 0 0.002)
(1.15 0 0.00175)
(1.2 0 0.0015)
(1.25 0 0.00125)
(1.3 0 0.001)
(1.35 0 0.00075)
(1.4 0 0.0005)
(1.45 0 0.00025)
(1.5 0 -5.78241e-19)
(1.55 0 -0.00025)
(1.6 0 -0.0005)
(1.65 0 -0.00075)
(1.7 0 -0.001)
(1.75 0 -0.00125)
(1.8 0 -0.0015)
(1.85 0 -0.00175)
(1.9 0 -0.002)
(1.95 0 -0.00225)
(2 0 -0.0025)
(2.05 0 -0.00275)
(2.1 0 -0.003)
(2.15 0 -0.00325)
(2.2 0 -0.0035)
(2.25 0 -0.00375)
(2.3 0 -0.004)
(2.35 0 -0.00425)
(2.4 0 -0.0045)
(2.45 0 -0.00475)
(2.5 0 -0.005)
(2.55 0 -0.00525)
(2.6 0 -0.0055)
(2.65 0 -0.00575)
(2.7 0 -0.006)
(2.75 0 -0.00625)
(2.8 0 -0.00650005)
(2.85 0 -0.00674943)
(2.9 0 -0.00700675)
(2.95 0 -0.00716893)
(3 0 -0.00338048)
(3.05 0 -0.00212218)
(3.1 0 -0.00286027)
(3.15 0 -0.00219351)
(3.2 0 -0.0032247)
(3.25 0 -0.00333698)
(3.3 0 -0.00363242)
(3.35 0 -0.00386122)
(3.4 0 -0.00414158)
(3.45 0 -0.00441807)
(3.5 0 -0.00470722)
(3.55 0 -0.00500347)
(3.6 0 -0.00529943)
(3.65 0 -0.00559636)
(3.7 0 -0.00589084)
(3.75 0 -0.00618408)
(3.8 0 -0.00647401)
(3.85 0 -0.00676016)
(3.9 0 -0.00704252)
(3.95 0 -0.00732113)
(4 0 -0.00759584)
(4.05 0 -0.00786704)
(4.1 0 -0.00813407)
(4.15 0 -0.00839848)
(4.2 0 -0.00866014)
(4.25 0 -0.00891983)
(4.3 0 -0.00917752)
(4.35 0 -0.00943352)
(4.4 0 -0.00968824)
(4.45 0 -0.00994086)
(4.5 0 -0.0101931)
(4.55 0 -0.0104446)
(4.6 0 -0.0106957)
(4.65 0 -0.0109466)
(4.7 0 -0.011197)
(4.75 0 -0.0114475)
(4.8 0 -0.0116977)
(4.85 0 -0.0119473)
(4.9 0 -0.0121968)
(4.95 0 -0.0124467)
(5 0 -0.0126964)
(5.05 0 -0.0129462)
(5.1 0 -0.0131964)
(5.15 0 -0.0134461)
(5.2 0 -0.0136966)
(5.25 0 -0.0139462)
(5.3 0 -0.0141969)
(5.35 0 -0.0144456)
(5.4 0 -0.0146964)
(5.45 0 -0.0149451)
(5.5 0 -0.0151963)
(5.55 0 -0.0154449)
(5.6 0 -0.0156965)
(5.65 0 -0.0159448)
(5.7 0 -0.016197)
(5.75 0 -0.0164449)
(5.8 0 -0.0166976)
(5.85 0 -0.0169442)
(5.9 0 -0.0171973)
(5.95 0 -0.0174436)
(6 0 -0.0176974)
(6.05 0 -0.0179431)
(6.1 0 -0.0181978)
(6.15 0 -0.0184428)
(6.2 0 -0.0186984)
(6.25 0 -0.0189426)
(6.3 0 -0.0191989)
(6.35 0 -0.0194415)
(6.4 0 -0.0196987)
(6.45 0 -0.0199404)
(6.5 0 -0.0201988)
(6.55 0 -0.0204395)
(6.6 0 -0.0206992)
(6.65 0 -0.0209388)
(6.7 0 -0.0211999)
(6.75 0 -0.0214382)
(6.8 0 -0.0217006)
(6.85 0 -0.0219376)
(6.9 0 -0.0222007)
(6.95 0 -0.0224361)
(7 0 -0.0227008)
(7.05 0 -0.0229349)
(7.1 0 -0.0232011)
(7.15 0 -0.0234339)
(7.2 0 -0.0237016)
(7.25 0 -0.0239331)
(7.3 0 -0.0242023)
(7.35 0 -0.0244324)
(7.4 0 -0.0247022)
(7.45 0 -0.0249309)
(7.5 0 -0.0252021)
(7.55 0 -0.0254297)
(7.6 0 -0.0257023)
(7.65 0 -0.0259289)
(7.7 0 -0.0262026)
(7.75 0 -0.0264284)
(7.8 0 -0.026703)
(7.85 0 -0.0269281)
(7.9 0 -0.0272034)
(7.95 0 -0.0274272)
(8 0 -0.0277029)
(8.05 0 -0.0279264)
(8.1 0 -0.0282026)
(8.15 0 -0.0284261)
(8.2 0 -0.0287026)
(8.25 0 -0.028926)
(8.3 0 -0.0292027)
(8.35 0 -0.0294263)
(8.4 0 -0.0297029)
(8.45 0 -0.0299259)
(8.5 0 -0.0302022)
(8.55 0 -0.0304257)
(8.6 0 -0.0307018)
(8.65 0 -0.0309258)
(8.7 0 -0.0312017)
(8.75 0 -0.0314263)
(8.8 0 -0.0317018)
(8.85 0 -0.031927)
(8.9 0 -0.0322019)
(8.95 0 -0.0324271)
(9 0 -0.0327011)
(9.05 0 -0.0329273)
(9.1 0 -0.0332006)
(9.15 0 -0.0334278)
(9.2 0 -0.0337004)
(9.25 0 -0.0339286)
(9.3 0 -0.0342004)
(9.35 0 -0.0344297)
(9.4 0 -0.0347005)
(9.45 0 -0.0349301)
(9.5 0 -0.0351998)
(9.55 0 -0.0354306)
(9.6 0 -0.0356994)
(9.65 0 -0.0359314)
(9.7 0 -0.0361993)
(9.75 0 -0.0364324)
(9.8 0 -0.0366994)
(9.85 0 -0.0369336)
(9.9 0 -0.0371995)
(9.95 0 -0.0374342)
(10 0 -0.0376989)
(10.05 0 -0.0379348)
(10.1 0 -0.0381986)
(10.15 0 -0.0384356)
(10.2 0 -0.0386986)
(10.25 0 -0.0389367)
(10.3 0 -0.0391988)
(10.35 0 -0.0394379)
(10.4 0 -0.0396985)
(10.45 0 -0.0399382)
(10.5 0 -0.0401982)
(10.55 0 -0.040439)
(10.6 0 -0.0406983)
(10.65 0 -0.0409399)
(10.7 0 -0.0411984)
(10.75 0 -0.0414408)
(10.8 0 -0.0416986)
(10.85 0 -0.0419411)
(10.9 0 -0.0421982)
(10.95 0 -0.0424416)
(11 0 -0.0426981)
(11.05 0 -0.0429422)
(11.1 0 -0.0431983)
(11.15 0 -0.0434432)
(11.2 0 -0.0436986)
(11.25 0 -0.0439439)
(11.3 0 -0.0441986)
(11.35 0 -0.0444441)
(11.4 0 -0.0446984)
(11.45 0 -0.0449446)