/*--------------------------------*- C++ -*----------------------------------*\
| =========                 |                                                 |
| \\      /  F ield         | foam-extend: Open Source CFD                    |
|  \\    /   O peration     | Version:     3.2                                |
|   \\  /    A nd           | Web:         http://www.foam-extend.org         |
|    \\/     M anipulation  | For copyright notice see file Copyright         |
\*---------------------------------------------------------------------------*/
FoamFile
{
    version     2.0;
    format      ascii;
    class       pointVectorField;
    location    "2020";
    object      newPoints;
}
// * * * * * * * * * * * * * * * * * * * * * * * * * * * * * * * * * * * * * //

dimensions      [0 1 0 0 0 0 0];

internalField   nonuniform List<vector> 
602
(
(0 0 0)
(0.05 0 -0.00025)
(0.1 0 -0.0005)
(0.15 0 -0.00075)
(0.2 0 -0.001)
(0.25 0 -0.00125)
(0.3 0 -0.0015)
(0.35 0 -0.00175)
(0.4 0 -0.002)
(0.45 0 -0.00225)
(0.5 0 -0.0025)
(0.55 0 -0.00275)
(0.6 0 -0.003)
(0.65 0 -0.00325)
(0.7 0 -0.0035)
(0.75 0 -0.00375)
(0.8 0 -0.004)
(0.85 0 -0.00425)
(0.9 0 -0.0045)
(0.95 0 -0.00475)
(1 0 -0.005)
(1.05 0 -0.00525)
(1.1 0 -0.0055)
(1.15 0 -0.00575)
(1.2 0 -0.006)
(1.25 0 -0.00625)
(1.3 0 -0.0065)
(1.35 0 -0.00675)
(1.4 0 -0.007)
(1.45 0 -0.00725)
(1.5 0 -0.0075)
(1.55 0 -0.00775)
(1.6 0 -0.008)
(1.65 0 -0.00825)
(1.7 0 -0.0085)
(1.75 0 -0.00875)
(1.8 0 -0.009)
(1.85 0 -0.00925)
(1.9 0 -0.0095)
(1.95 0 -0.00975)
(2 0 -0.01)
(2.05 0 -0.01025)
(2.1 0 -0.0105)
(2.15 0 -0.01075)
(2.2 0 -0.011)
(2.25 0 -0.01125)
(2.3 0 -0.0115)
(2.35 0 -0.01175)
(2.4 0 -0.012)
(2.45 0 -0.01225)
(2.5 0 -0.0125)
(2.55 0 -0.01275)
(2.6 0 -0.013)
(2.65 0 -0.01325)
(2.7 0 -0.0135)
(2.75 0 -0.01375)
(2.8 0 -0.014)
(2.85 0 -0.01425)
(2.9 0 -0.0145)
(2.95 0 -0.01475)
(3 0 -0.0107754)
(3.05 0 -0.00947938)
(3.1 0 -0.0102875)
(3.15 0 -0.00953845)
(3.2 0 -0.0106384)
(3.25 0 -0.0107238)
(3.3 0 -0.0110269)
(3.35 0 -0.0112526)
(3.4 0 -0.0115349)
(3.45 0 -0.0118117)
(3.5 0 -0.012102)
(3.55 0 -0.0123996)
(3.6 0 -0.0126967)
(3.65 0 -0.0129949)
(3.7 0 -0.0132905)
(3.75 0 -0.0135849)
(3.8 0 -0.0138758)
(3.85 0 -0.0141629)
(3.9 0 -0.0144461)
(3.95 0 -0.0147254)
(4 0 -0.0150007)
(4.05 0 -0.0152724)
(4.1 0 -0.0155399)
(4.15 0 -0.0158046)
(4.2 0 -0.0160666)
(4.25 0 -0.0163265)
(4.3 0 -0.0165844)
(4.35 0 -0.0168405)
(4.4 0 -0.0170954)
(4.45 0 -0.017348)
(4.5 0 -0.0176003)
(4.55 0 -0.0178518)
(4.6 0 -0.018103)
(4.65 0 -0.0183539)
(4.7 0 -0.0186043)
(4.75 0 -0.0188549)
(4.8 0 -0.019105)
(4.85 0 -0.0193546)
(4.9 0 -0.0196042)
(4.95 0 -0.019854)
(5 0 -0.0201037)
(5.05 0 -0.0203535)
(5.1 0 -0.0206038)
(5.15 0 -0.0208534)
(5.2 0 -0.021104)
(5.25 0 -0.0213535)
(5.3 0 -0.0216043)
(5.35 0 -0.0218528)
(5.4 0 -0.0221037)
(5.45 0 -0.0223523)
(5.5 0 -0.0226037)
(5.55 0 -0.0228521)
(5.6 0 -0.0231039)
(5.65 0 -0.023352)
(5.7 0 -0.0236044)
(5.75 0 -0.0238521)
(5.8 0 -0.0241051)
(5.85 0 -0.0243514)
(5.9 0 -0.0246048)
(5.95 0 -0.0248507)
(6 0 -0.0251049)
(6.05 0 -0.0253501)
(6.1 0 -0.0256053)
(6.15 0 -0.0258498)
(6.2 0 -0.0261059)
(6.25 0 -0.0263495)
(6.3 0 -0.0266066)
(6.35 0 -0.0268484)
(6.4 0 -0.0271064)
(6.45 0 -0.0273472)
(6.5 0 -0.0276065)
(6.55 0 -0.0278463)
(6.6 0 -0.028107)
(6.65 0 -0.0283455)
(6.7 0 -0.0286077)
(6.75 0 -0.0288449)
(6.8 0 -0.0291085)
(6.85 0 -0.0293442)
(6.9 0 -0.0296087)
(6.95 0 -0.0298426)
(7 0 -0.0301088)
(7.05 0 -0.0303413)
(7.1 0 -0.0306092)
(7.15 0 -0.0308402)
(7.2 0 -0.0311097)
(7.25 0 -0.0313394)
(7.3 0 -0.0316105)
(7.35 0 -0.0318386)
(7.4 0 -0.0321104)
(7.45 0 -0.032337)
(7.5 0 -0.0326104)
(7.55 0 -0.0328358)
(7.6 0 -0.0331106)
(7.65 0 -0.0333349)
(7.7 0 -0.033611)
(7.75 0 -0.0338343)
(7.8 0 -0.0341114)
(7.85 0 -0.034334)
(7.9 0 -0.0346119)
(7.95 0 -0.034833)
(8 0 -0.0351113)
(8.05 0 -0.0353322)
(8.1 0 -0.0356111)
(8.15 0 -0.0358318)
(8.2 0 -0.0361111)
(8.25 0 -0.0363318)
(8.3 0 -0.0366112)
(8.35 0 -0.036832)
(8.4 0 -0.0371114)
(8.45 0 -0.0373317)
(8.5 0 -0.0376107)
(8.55 0 -0.0378314)
(8.6 0 -0.0381103)
(8.65 0 -0.0383316)
(8.7 0 -0.0386102)
(8.75 0 -0.0388321)
(8.8 0 -0.0391102)
(8.85 0 -0.0393329)
(8.9 0 -0.0396103)
(8.95 0 -0.039833)
(9 0 -0.0401095)
(9.05 0 -0.0403332)
(9.1 0 -0.0406089)
(9.15 0 -0.0408338)
(9.2 0 -0.0411087)
(9.25 0 -0.0413347)
(9.3 0 -0.0416087)
(9.35 0 -0.0418358)
(9.4 0 -0.0421087)
(9.45 0 -0.0423362)
(9.5 0 -0.0426079)
(9.55 0 -0.0428368)
(9.6 0 -0.0431075)
(9.65 0 -0.0433377)
(9.7 0 -0.0436073)
(9.75 0 -0.0438387)
(9.8 0 -0.0441074)
(9.85 0 -0.04434)
(9.9 0 -0.0446075)
(9.95 0 -0.0448406)
(10 0 -0.0451068)
(10.05 0 -0.0453413)
(10.1 0 -0.0456064)
(10.15 0 -0.0458422)
(10.2 0 -0.0461065)
(10.25 0 -0.0463434)
(10.3 0 -0.0466067)
(10.35 0 -0.0468446)
(10.4 0 -0.0471063)
(10.45 0 -0.047345)
(10.5 0 -0.047606)
(10.55 0 -0.0478458)
(10.6 0 -0.048106)
(10.65 0 -0.0483467)
(10.7 0 -0.0486061)
(10.75 0 -0.0488476)
(10.8 0 -0.0491063)
(10.85 0 -0.049348)
(10.9 0 -0.0496058)
(10.95 0 -0.0498485)
(11 0 -0.0501057)
(11.05 0 -0.0503492)
(11.1 0 -0.0506059)
(11.15 0 -0.0508502)
(11.2 0 -0.0511062)
(11.25 0 -0.051351)
(11.3 0 -0.0516061)
(11.35 0 -0.0518512)
(11.4 0 -0.0521059)
(11.45 0 -0.0523517)
(11.5 0 -0.0526061)
(11.55 0 -0.0528525)
(11.6 0 -0.0531065)
(11.65 0 -0.0533532)
(11.7 0 -0.0536071)
(11.75 0 -0.0538534)
(11.8 0 -0.0541067)
(11.85 0 -0.0543538)
(11.9 0 -0.0546068)
(11.95 0 -0.054854)
(12 0 -0.0551069)
(12.05 0 -0.0553548)
(12.1 0 -0.0556074)
(12.15 0 -0.0558549)
(12.2 0 -0.056107)
(12.25 0 -0.0563547)
(12.3 0 -0.0566068)
(12.35 0 -0.0568551)
(12.4 0 -0.0571069)
(12.45 0 -0.0573554)
(12.5 0 -0.0576073)
(12.55 0 -0.0578556)
(12.6 0 -0.0581071)
(12.65 0 -0.0583557)
(12.7 0 -0.0586071)
(12.75 0 -0.0588558)
(12.8 0 -0.0591073)
(12.85 0 -0.0593565)
(12.9 0 -0.0596079)
(12.95 0 -0.0598564)
(13 0 -0.0601074)
(13.05 0 -0.0603562)
(13.1 0 -0.0606072)
(13.15 0 -0.0608565)
(13.2 0 -0.0611076)
(13.25 0 -0.0613571)
(13.3 0 -0.0616082)
(13.35 0 -0.0618571)
(13.4 0 -0.0621079)
(13.45 0 -0.0623571)
(13.5 0 -0.0626079)
(13.55 0 -0.0628573)
(13.6 0 -0.0631081)
(13.65 0 -0.0633577)
(13.7 0 -0.0636078)
(13.75 0 -0.0638572)
(13.8 0 -0.0641076)
(13.85 0 -0.064357)
(13.9 0 -0.0646073)
(13.95 0 -0.0648573)
(14 0 -0.0651077)
(14.05 0 -0.0653566)
(14.1 0 -0.0656078)
(14.15 0 -0.0658566)
(14.2 0 -0.0661068)
(14.25 0 -0.0663572)
(14.3 0 -0.0666043)
(14.35 0 -0.0668588)
(14.4 0 -0.0671088)
(14.45 0 -0.0673588)
(14.5 0 -0.0676086)
(14.55 0 -0.06786)
(14.6 0 -0.0681028)
(14.65 0 -0.068363)
(14.7 0 -0.068478)
(14.75 0 -0.0680787)
(14.8 0 -0.0698887)
(14.85 0 -0.07425)
(14.9 0 -0.0745)
(14.95 0 -0.07475)
(15 0 -0.075)
(0 0.02 0)
(0.05 0.02 -0.00025)
(0.1 0.02 -0.0005)
(0.15 0.02 -0.00075)
(0.2 0.02 -0.001)
(0.25 0.02 -0.00125)
(0.3 0.02 -0.0015)
(0.35 0.02 -0.00175)
(0.4 0.02 -0.002)
(0.45 0.02 -0.00225)
(0.5 0.02 -0.0025)
(0.55 0.02 -0.00275)
(0.6 0.02 -0.003)
(0.65 0.02 -0.00325)
(0.7 0.02 -0.0035)
(0.75 0.02 -0.00375)
(0.8 0.02 -0.004)
(0.85 0.02 -0.00425)
(0.9 0.02 -0.0045)
(0.95 0.02 -0.00475)
(1 0.02 -0.005)
(1.05 0.02 -0.00525)
(1.1 0.02 -0.0055)
(1.15 0.02 -0.00575)
(1.2 0.02 -0.006)
(1.25 0.02 -0.00625)
(1.3 0.02 -0.0065)
(1.35 0.02 -0.00675)
(1.4 0.02 -0.007)
(1.45 0.02 -0.00725)
(1.5 0.02 -0.0075)
(1.55 0.02 -0.00775)
(1.6 0.02 -0.008)
(1.65 0.02 -0.00825)
(1.7 0.02 -0.0085)
(1.75 0.02 -0.00875)
(1.8 0.02 -0.009)
(1.85 0.02 -0.00925)
(1.9 0.02 -0.0095)
(1.95 0.02 -0.00975)
(2 0.02 -0.01)
(2.05 0.02 -0.01025)
(2.1 0.02 -0.0105)
(2.15 0.02 -0.01075)
(2.2 0.02 -0.011)
(2.25 0.02 -0.01125)
(2.3 0.02 -0.0115)
(2.35 0.02 -0.01175)
(2.4 0.02 -0.012)
(2.45 0.02 -0.01225)
(2.5 0.02 -0.0125)
(2.55 0.02 -0.01275)
(2.6 0.02 -0.013)
(2.65 0.02 -0.01325)
(2.7 0.02 -0.0135)
(2.75 0.02 -0.01375)
(2.8 0.02 -0.014)
(2.85 0.02 -0.01425)
(2.9 0.02 -0.0145)
(2.95 0.02 -0.01475)
(3 0.02 -0.0107754)
(3.05 0.02 -0.00947938)
(3.1 0.02 -0.0102875)
(3.15 0.02 -0.00953845)
(3.2 0.02 -0.0106384)
(3.25 0.02 -0.0107238)
(3.3 0.02 -0.0110269)
(3.35 0.02 -0.0112526)
(3.4 0.02 -0.0115349)
(3.45 0.02 -0.0118117)
(3.5 0.02 -0.012102)
(3.55 0.02 -0.0123996)
(3.6 0.02 -0.0126967)
(3.65 0.02 -0.0129949)
(3.7 0.02 -0.0132905)
(3.75 0.02 -0.0135849)
(3.8 0.02 -0.0138758)
(3.85 0.02 -0.0141629)
(3.9 0.02 -0.0144461)
(3.95 0.02 -0.0147254)
(4 0.02 -0.0150007)
(4.05 0.02 -0.0152724)
(4.1 0.02 -0.0155399)
(4.15 0.02 -0.0158046)
(4.2 0.02 -0.0160666)
(4.25 0.02 -0.0163265)
(4.3 0.02 -0.0165844)
(4.35 0.02 -0.0168405)
(4.4 0.02 -0.0170954)
(4.45 0.02 -0.017348)
(4.5 0.02 -0.0176003)
(4.55 0.02 -0.0178518)
(4.6 0.02 -0.018103)
(4.65 0.02 -0.0183539)
(4.7 0.02 -0.0186043)
(4.75 0.02 -0.0188549)
(4.8 0.02 -0.019105)
(4.85 0.02 -0.0193546)
(4.9 0.02 -0.0196042)
(4.95 0.02 -0.019854)
(5 0.02 -0.0201037)
(5.05 0.02 -0.0203535)
(5.1 0.02 -0.0206038)
(5.15 0.02 -0.0208534)
(5.2 0.02 -0.021104)
(5.25 0.02 -0.0213535)
(5.3 0.02 -0.0216043)
(5.35 0.02 -0.0218528)
(5.4 0.02 -0.0221037)
(5.45 0.02 -0.0223523)
(5.5 0.02 -0.0226037)
(5.55 0.02 -0.0228521)
(5.6 0.02 -0.0231039)
(5.65 0.02 -0.023352)
(5.7 0.02 -0.0236044)
(5.75 0.02 -0.0238521)
(5.8 0.02 -0.0241051)
(5.85 0.02 -0.0243514)
(5.9 0.02 -0.0246048)
(5.95 0.02 -0.0248507)
(6 0.02 -0.0251049)
(6.05 0.02 -0.0253501)
(6.1 0.02 -0.0256053)
(6.15 0.02 -0.0258498)
(6.2 0.02 -0.0261059)
(6.25 0.02 -0.0263495)
(6.3 0.02 -0.0266066)
(6.35 0.02 -0.0268484)
(6.4 0.02 -0.0271064)
(6.45 0.02 -0.0273472)
(6.5 0.02 -0.0276065)
(6.55 0.02 -0.0278463)
(6.6 0.02 -0.028107)
(6.65 0.02 -0.0283455)
(6.7 0.02 -0.0286077)
(6.75 0.02 -0.0288449)
(6.8 0.02 -0.0291085)
(6.85 0.02 -0.0293442)
(6.9 0.02 -0.0296087)
(6.95 0.02 -0.0298426)
(7 0.02 -0.0301088)
(7.05 0.02 -0.0303413)
(7.1 0.02 -0.0306092)
(7.15 0.02 -0.0308402)
(7.2 0.02 -0.0311097)
(7.25 0.02 -0.0313394)
(7.3 0.02 -0.0316105)
(7.35 0.02 -0.0318386)
(7.4 0.02 -0.0321104)
(7.45 0.02 -0.032337)
(7.5 0.02 -0.0326104)
(7.55 0.02 -0.0328358)
(7.6 0.02 -0.0331106)
(7.65 0.02 -0.0333349)
(7.7 0.02 -0.033611)
(7.75 0.02 -0.0338343)
(7.8 0.02 -0.0341114)
(7.85 0.02 -0.034334)
(7.9 0.02 -0.0346119)
(7.95 0.02 -0.034833)
(8 0.02 -0.0351113)
(8.05 0.02 -0.0353322)
(8.1 0.02 -0.0356111)
(8.15 0.02 -0.0358318)
(8.2 0.02 -0.0361111)
(8.25 0.02 -0.0363318)
(8.3 0.02 -0.0366112)
(8.35 0.02 -0.036832)
(8.4 0.02 -0.0371114)
(8.45 0.02 -0.0373317)
(8.5 0.02 -0.0376107)
(8.55 0.02 -0.0378314)
(8.6 0.02 -0.0381103)
(8.65 0.02 -0.0383316)
(8.7 0.02 -0.0386102)
(8.75 0.02 -0.0388321)
(8.8 0.02 -0.0391102)
(8.85 0.02 -0.0393329)
(8.9 0.02 -0.0396103)
(8.95 0.02 -0.039833)
(9 0.02 -0.0401095)
(9.05 0.02 -0.0403332)
(9.1 0.02 -0.0406089)
(9.15 0.02 -0.0408338)
(9.2 0.02 -0.0411087)
(9.25 0.02 -0.0413347)
(9.3 0.02 -0.0416087)
(9.35 0.02 -0.0418358)
(9.4 0.02 -0.0421087)
(9.45 0.02 -0.0423362)
(9.5 0.02 -0.0426079)
(9.55 0.02 -0.0428368)
(9.6 0.02 -0.0431075)
(9.65 0.02 -0.0433377)
(9.7 0.02 -0.0436073)
(9.75 0.02 -0.0438387)
(9.8 0.02 -0.0441074)
(9.85 0.02 -0.04434)
(9.9 0.02 -0.0446075)
(9.95 0.02 -0.0448406)
(10 0.02 -0.0451068)
(10.05 0.02 -0.0453413)
(10.1 0.02 -0.0456064)
(10.15 0.02 -0.0458422)
(10.2 0.02 -0.0461065)
(10.25 0.02 -0.0463434)
(10.3 0.02 -0.0466067)
(10.35 0.02 -0.0468446)
(10.4 0.02 -0.0471063)
(10.45 0.02 -0.047345)
(10.5 0.02 -0.047606)
(10.55 0.02 -0.0478458)
(10.6 0.02 -0.048106)
(10.65 0.02 -0.0483467)
(10.7 0.02 -0.0486061)
(10.75 0.02 -0.0488476)
(10.8 0.02 -0.0491063)
(10.85 0.02 -0.049348)
(10.9 0.02 -0.0496058)
(10.95 0.02 -0.0498485)
(11 0.02 -0.0501057)
(11.05 0.02 -0.0503492)
(11.1 0.02 -0.0506059)
(11.15 0.02 -0.0508502)
(11.2 0.02 -0.0511062)
(11.25 0.02 -0.051351)
(11.3 0.02 -0.0516061)
(11.35 0.02 -0.0518512)
(11.4 0.02 -0.0521059)
(11.45 0.02 -0.0523517)
(11.5 0.02 -0.0526061)
(11.55 0.02 -0.0528525)
(11.6 0.02 -0.0531065)
(11.65 0.02 -0.0533532)
(11.7 0.02 -0.0536071)
(11.75 0.02 -0.0538534)
(11.8 0.02 -0.0541067)
(11.85 0.02 -0.0543538)
(11.9 0.02 -0.0546068)
(11.95 0.02 -0.054854)
(12 0.02 -0.0551069)
(12.05 0.02 -0.0553548)
(12.1 0.02 -0.0556074)
(12.15 0.02 -0.0558549)
(12.2 0.02 -0.056107)
(12.25 0.02 -0.0563547)
(12.3 0.02 -0.0566068)
(12.35 0.02 -0.0568551)
(12.4 0.02 -0.0571069)
(12.45 0.02 -0.0573554)
(12.5 0.02 -0.0576073)
(12.55 0.02 -0.0578556)
(12.6 0.02 -0.0581071)
(12.65 0.02 -0.0583557)
(12.7 0.02 -0.0586071)
(12.75 0.02 -0.0588558)
(12.8 0.02 -0.0591073)
(12.85 0.02 -0.0593565)
(12.9 0.02 -0.0596079)
(12.95 0.02 -0.0598564)
(13 0.02 -0.0601074)
(13.05 0.02 -0.0603562)
(13.1 0.02 -0.0606072)
(13.15 0.02 -0.0608565)
(13.2 0.02 -0.0611076)
(13.25 0.02 -0.0613571)
(13.3 0.02 -0.0616082)
(13.35 0.02 -0.0618571)
(13.4 0.02 -0.0621079)
(13.45 0.02 -0.0623571)
(13.5 0.02 -0.0626079)
(13.55 0.02 -0.0628573)
(13.6 0.02 -0.0631081)
(13.65 0.02 -0.0633577)
(13.7 0.02 -0.0636078)
(13.75 0.02 -0.0638572)
(13.8 0.02 -0.0641076)
(13.85 0.02 -0.064357)
(13.9 0.02 -0.0646073)
(13.95 0.02 -0.0648573)
(14 0.02 -0.0651077)
(14.05 0.02 -0.0653566)
(14.1 0.02 -0.0656078)
(14.15 0.02 -0.0658566)
(14.2 0.02 -0.0661068)
(14.25 0.02 -0.0663572)
(14.3 0.02 -0.0666043)
(14.35 0.02 -0.0668588)
(14.4 0.02 -0.0671088)
(14.45 0.02 -0.0673588)
(14.5 0.02 -0.0676086)
(14.55 0.02 -0.06786)
(14.6 0.02 -0.0681028)
(14.65 0.02 -0.068363)
(14.7 0.02 -0.068478)
(14.75 0.02 -0.0680787)
(14.8 0.02 -0.0698887)
(14.85 0.02 -0.07425)
(14.9 0.02 -0.0745)
(14.95 0.02 -0.07475)
(15 0.02 -0.075)
)
;

boundaryField
{
    inlet
    {
        type            zeroGradient;
    }
    outlet
    {
        type            zeroGradient;
    }
    sideWall
    {
        type            empty;
    }
    bed
    {
        type            zeroGradient;
    }
    topWall
    {
        type            zeroGradient;
    }
}


// ************************************************************************* //
