/*--------------------------------*- C++ -*----------------------------------*\
| =========                 |                                                 |
| \\      /  F ield         | foam-extend: Open Source CFD                    |
|  \\    /   O peration     | Version:     3.2                                |
|   \\  /    A nd           | Web:         http://www.foam-extend.org         |
|    \\/     M anipulation  | For copyright notice see file Copyright         |
\*---------------------------------------------------------------------------*/
FoamFile
{
    version     2.0;
    format      ascii;
    class       volScalarField;
    location    "2020";
    object      nut;
}
// * * * * * * * * * * * * * * * * * * * * * * * * * * * * * * * * * * * * * //

dimensions      [0 2 -1 0 0 0 0];

internalField   nonuniform List<scalar> 
2400
(
2.28776e-05
2.53388e-05
1.99394e-05
1.66182e-05
1.5515e-05
1.50516e-05
1.49494e-05
1.52347e-05
1.5644e-05
1.60506e-05
1.64088e-05
1.67216e-05
1.69697e-05
1.72145e-05
1.74096e-05
1.75916e-05
1.7765e-05
1.79149e-05
1.80513e-05
1.81756e-05
1.82882e-05
1.83964e-05
1.85139e-05
1.86364e-05
1.87524e-05
1.88564e-05
1.89478e-05
1.90255e-05
1.90906e-05
1.91443e-05
1.91889e-05
1.92245e-05
1.92526e-05
1.92734e-05
1.92897e-05
1.93021e-05
1.93122e-05
1.93198e-05
1.93265e-05
1.93314e-05
1.9336e-05
1.93393e-05
1.93425e-05
1.93448e-05
1.93472e-05
1.93486e-05
1.93508e-05
1.93518e-05
1.93515e-05
1.93563e-05
1.93477e-05
1.9368e-05
1.93284e-05
1.94118e-05
1.92412e-05
1.95954e-05
1.88574e-05
2.03691e-05
1.64114e-05
2.35295e-05
3.03652e-05
2.43424e-05
2.50924e-05
2.52982e-05
2.16972e-05
2.31857e-05
2.29823e-05
2.34441e-05
2.35269e-05
2.37516e-05
2.39183e-05
2.40686e-05
2.41959e-05
2.43086e-05
2.44048e-05
2.4483e-05
2.45534e-05
2.46091e-05
2.46535e-05
2.46878e-05
2.47118e-05
2.47321e-05
2.47465e-05
2.47525e-05
2.47572e-05
2.47571e-05
2.47551e-05
2.47505e-05
2.47501e-05
2.47475e-05
2.47429e-05
2.47387e-05
2.47345e-05
2.47315e-05
2.47269e-05
2.47241e-05
2.47228e-05
2.47232e-05
2.47208e-05
2.47186e-05
2.47203e-05
2.4714e-05
2.47196e-05
2.47096e-05
2.47198e-05
2.47063e-05
2.47188e-05
2.47096e-05
2.47212e-05
2.47059e-05
2.47223e-05
2.47025e-05
2.47236e-05
2.46989e-05
2.47258e-05
2.46954e-05
2.47258e-05
2.4698e-05
2.47287e-05
2.46935e-05
2.47301e-05
2.46897e-05
2.47311e-05
2.46849e-05
2.47344e-05
2.46805e-05
2.47355e-05
2.46823e-05
2.47383e-05
2.46775e-05
2.47395e-05
2.4673e-05
2.47401e-05
2.46691e-05
2.47403e-05
2.46661e-05
2.47407e-05
2.4662e-05
2.47468e-05
2.46604e-05
2.47458e-05
2.46575e-05
2.47444e-05
2.4655e-05
2.47426e-05
2.46535e-05
2.4741e-05
2.46513e-05
2.47451e-05
2.46516e-05
2.47422e-05
2.46506e-05
2.47392e-05
2.46497e-05
2.47365e-05
2.46491e-05
2.47343e-05
2.46493e-05
2.47308e-05
2.46556e-05
2.47288e-05
2.4656e-05
2.47257e-05
2.46561e-05
2.47232e-05
2.46564e-05
2.47209e-05
2.46572e-05
2.47187e-05
2.46633e-05
2.47179e-05
2.46645e-05
2.47152e-05
2.46655e-05
2.47127e-05
2.46667e-05
2.47107e-05
2.46682e-05
2.47092e-05
2.46747e-05
2.47088e-05
2.46763e-05
2.47069e-05
2.46776e-05
2.47053e-05
2.46788e-05
2.47042e-05
2.46802e-05
2.47031e-05
2.46868e-05
2.47034e-05
2.46881e-05
2.47026e-05
2.46885e-05
2.47018e-05
2.46898e-05
2.47009e-05
2.4691e-05
2.47008e-05
2.46967e-05
2.47019e-05
2.46973e-05
2.47013e-05
2.46978e-05
2.46995e-05
2.46988e-05
2.46993e-05
2.46998e-05
2.47037e-05
2.47026e-05
2.47034e-05
2.47019e-05
2.47026e-05
2.47024e-05
2.47035e-05
2.47026e-05
2.47037e-05
2.47067e-05
2.47044e-05
2.47056e-05
2.47036e-05
2.4706e-05
2.47031e-05
2.47062e-05
2.4704e-05
2.47062e-05
2.47064e-05
2.47077e-05
2.47063e-05
2.47071e-05
2.47061e-05
2.4705e-05
2.47067e-05
2.47041e-05
2.47057e-05
2.47092e-05
2.4707e-05
2.47065e-05
2.47065e-05
2.47075e-05
2.47053e-05
2.47043e-05
2.47068e-05
2.47089e-05
2.47083e-05
2.47092e-05
2.47071e-05
2.47068e-05
2.47072e-05
2.47057e-05
2.4707e-05
2.47087e-05
2.47077e-05
2.4707e-05
2.47076e-05
2.47071e-05
2.47063e-05
2.47045e-05
2.47073e-05
2.47088e-05
2.4708e-05
2.47086e-05
2.47076e-05
2.47062e-05
2.47067e-05
2.47049e-05
2.47069e-05
2.47076e-05
2.47069e-05
2.47071e-05
2.47062e-05
2.4707e-05
2.4706e-05
2.47068e-05
2.4709e-05
2.47074e-05
2.4708e-05
2.47067e-05
2.47098e-05
2.47023e-05
2.47099e-05
2.47086e-05
2.4705e-05
2.47125e-05
2.46932e-05
2.47196e-05
2.47134e-05
2.46943e-05
2.47072e-05
2.46946e-05
2.47236e-05
2.46543e-05
2.48301e-05
2.39415e-05
2.59094e-05
2.94165e-05
2.04245e-05
1.62939e-05
1.81254e-05
1.86805e-05
1.59439e-05
1.82698e-05
2.45032e-05
2.75647e-05
2.9745e-05
3.19182e-05
3.38714e-05
3.55167e-05
3.69685e-05
3.82077e-05
3.92562e-05
4.01559e-05
4.0925e-05
4.16198e-05
4.22027e-05
4.27422e-05
4.32302e-05
4.36616e-05
4.4059e-05
4.44243e-05
4.4757e-05
4.50664e-05
4.53574e-05
4.56168e-05
4.58368e-05
4.60183e-05
4.61644e-05
4.62784e-05
4.63662e-05
4.64315e-05
4.64801e-05
4.6514e-05
4.65379e-05
4.6553e-05
4.65632e-05
4.65688e-05
4.65728e-05
4.65744e-05
4.65761e-05
4.65762e-05
4.65771e-05
4.65766e-05
4.65772e-05
4.65763e-05
4.65769e-05
4.65756e-05
4.65767e-05
4.65752e-05
4.65747e-05
4.65762e-05
4.65705e-05
4.65824e-05
4.65579e-05
4.66081e-05
4.65044e-05
4.67167e-05
4.62557e-05
4.69611e-05
4.42566e-05
5.0151e-05
4.3993e-05
4.39729e-05
4.75317e-05
4.91847e-05
4.88768e-05
5.12834e-05
5.20581e-05
5.32006e-05
5.39276e-05
5.46507e-05
5.52317e-05
5.57059e-05
5.60772e-05
5.63683e-05
5.65846e-05
5.674e-05
5.68474e-05
5.69106e-05
5.69419e-05
5.69476e-05
5.69345e-05
5.69114e-05
5.68783e-05
5.68411e-05
5.68013e-05
5.67635e-05
5.67247e-05
5.66902e-05
5.66604e-05
5.66322e-05
5.6607e-05
5.65869e-05
5.65695e-05
5.65559e-05
5.6543e-05
5.65338e-05
5.65269e-05
5.65219e-05
5.65158e-05
5.65121e-05
5.65113e-05
5.65054e-05
5.65096e-05
5.65002e-05
5.65092e-05
5.64966e-05
5.65078e-05
5.64979e-05
5.65084e-05
5.64938e-05
5.65092e-05
5.64905e-05
5.65106e-05
5.64871e-05
5.65126e-05
5.64835e-05
5.65124e-05
5.64836e-05
5.65129e-05
5.64779e-05
5.65136e-05
5.64732e-05
5.65141e-05
5.6468e-05
5.65164e-05
5.64624e-05
5.65164e-05
5.64607e-05
5.65164e-05
5.64537e-05
5.65163e-05
5.64475e-05
5.65161e-05
5.6442e-05
5.65153e-05
5.64368e-05
5.65143e-05
5.64311e-05
5.65176e-05
5.6425e-05
5.65145e-05
5.64192e-05
5.65119e-05
5.64142e-05
5.65091e-05
5.64101e-05
5.65065e-05
5.64062e-05
5.65081e-05
5.64022e-05
5.65037e-05
5.63986e-05
5.65001e-05
5.6396e-05
5.64971e-05
5.63939e-05
5.64945e-05
5.63926e-05
5.64906e-05
5.63957e-05
5.64867e-05
5.63946e-05
5.64836e-05
5.63949e-05
5.64813e-05
5.63959e-05
5.64795e-05
5.63977e-05
5.6477e-05
5.64033e-05
5.64744e-05
5.64049e-05
5.64724e-05
5.64076e-05
5.64711e-05
5.64108e-05
5.64704e-05
5.64143e-05
5.64694e-05
5.64212e-05
5.6468e-05
5.64241e-05
5.64674e-05
5.64278e-05
5.64676e-05
5.64316e-05
5.64685e-05
5.64355e-05
5.64685e-05
5.64429e-05
5.64681e-05
5.64458e-05
5.64691e-05
5.64489e-05
5.64705e-05
5.64527e-05
5.64714e-05
5.64563e-05
5.64724e-05
5.64627e-05
5.64731e-05
5.64648e-05
5.64742e-05
5.64672e-05
5.64743e-05
5.64711e-05
5.6476e-05
5.64741e-05
5.64808e-05
5.64764e-05
5.64808e-05
5.64775e-05
5.64817e-05
5.64797e-05
5.64838e-05
5.64813e-05
5.64848e-05
5.64851e-05
5.64845e-05
5.6485e-05
5.64852e-05
5.64869e-05
5.64862e-05
5.64887e-05
5.64878e-05
5.64894e-05
5.649e-05
5.64901e-05
5.649e-05
5.64901e-05
5.64908e-05
5.64895e-05
5.64923e-05
5.64887e-05
5.64917e-05
5.64931e-05
5.64912e-05
5.64909e-05
5.64915e-05
5.64914e-05
5.64906e-05
5.649e-05
5.6493e-05
5.64935e-05
5.64925e-05
5.64929e-05
5.64915e-05
5.64912e-05
5.64929e-05
5.64912e-05
5.64933e-05
5.64937e-05
5.64928e-05
5.6492e-05
5.6493e-05
5.6492e-05
5.64923e-05
5.6491e-05
5.64943e-05
5.64938e-05
5.64928e-05
5.6493e-05
5.64924e-05
5.64912e-05
5.64929e-05
5.64912e-05
5.64935e-05
5.64926e-05
5.64916e-05
5.64915e-05
5.6491e-05
5.64919e-05
5.64916e-05
5.64925e-05
5.64937e-05
5.64914e-05
5.64919e-05
5.64904e-05
5.64935e-05
5.64877e-05
5.64952e-05
5.64927e-05
5.64907e-05
5.64945e-05
5.648e-05
5.65024e-05
5.64909e-05
5.64822e-05
5.64925e-05
5.64848e-05
5.65016e-05
5.64593e-05
5.65229e-05
5.57812e-05
5.70125e-05
5.09847e-05
4.40765e-05
4.88484e-05
5.26745e-05
5.19644e-05
1.79871e-05
1.49123e-05
1.73309e-05
2.15009e-05
2.6484e-05
3.16566e-05
3.58126e-05
3.98985e-05
4.36053e-05
4.69139e-05
4.98887e-05
5.25132e-05
5.48797e-05
5.69137e-05
5.85455e-05
5.99125e-05
6.11448e-05
6.22578e-05
6.3275e-05
6.42021e-05
6.5044e-05
6.5785e-05
6.64152e-05
6.69385e-05
6.73629e-05
6.77003e-05
6.79642e-05
6.81676e-05
6.83229e-05
6.84412e-05
6.853e-05
6.85956e-05
6.86431e-05
6.8678e-05
6.87052e-05
6.87272e-05
6.87453e-05
6.87605e-05
6.87731e-05
6.87836e-05
6.87924e-05
6.87996e-05
6.88059e-05
6.88107e-05
6.88154e-05
6.88187e-05
6.88221e-05
6.88241e-05
6.88265e-05
6.8827e-05
6.88298e-05
6.88285e-05
6.88357e-05
6.88251e-05
6.88512e-05
6.87887e-05
6.88423e-05
6.74238e-05
6.17682e-05
7.2706e-05
6.45078e-05
6.07733e-05
6.14734e-05
6.25546e-05
6.63014e-05
6.93317e-05
7.17752e-05
7.36269e-05
7.52383e-05
7.65487e-05
7.76281e-05
7.85284e-05
7.92593e-05
7.98371e-05
8.02788e-05
8.06107e-05
8.08493e-05
8.10126e-05
8.1117e-05
8.11759e-05
8.12027e-05
8.1205e-05
8.11904e-05
8.11638e-05
8.11322e-05
8.10949e-05
8.10576e-05
8.1022e-05
8.09896e-05
8.0961e-05
8.09359e-05
8.09142e-05
8.08962e-05
8.0881e-05
8.08678e-05
8.08583e-05
8.08508e-05
8.0844e-05
8.08386e-05
8.0835e-05
8.08318e-05
8.08296e-05
8.08279e-05
8.08265e-05
8.08254e-05
8.08251e-05
8.0825e-05
8.08238e-05
8.08234e-05
8.08221e-05
8.08217e-05
8.08202e-05
8.08201e-05
8.08183e-05
8.08182e-05
8.08167e-05
8.08174e-05
8.08144e-05
8.08147e-05
8.08107e-05
8.08112e-05
8.08063e-05
8.08075e-05
8.08023e-05
8.08038e-05
8.07985e-05
8.08009e-05
8.07936e-05
8.07962e-05
8.07874e-05
8.07907e-05
8.07807e-05
8.07852e-05
8.07738e-05
8.07794e-05
8.07665e-05
8.07739e-05
8.07624e-05
8.07696e-05
8.07541e-05
8.07626e-05
8.07453e-05
8.07555e-05
8.07367e-05
8.07486e-05
8.07284e-05
8.07428e-05
8.0724e-05
8.07385e-05
8.07161e-05
8.07322e-05
8.07083e-05
8.07262e-05
8.07014e-05
8.07211e-05
8.06954e-05
8.07165e-05
8.0691e-05
8.0714e-05
8.06871e-05
8.07109e-05
8.06833e-05
8.07085e-05
8.06804e-05
8.07072e-05
8.06786e-05
8.07066e-05
8.0678e-05
8.07082e-05
8.06779e-05
8.07091e-05
8.06783e-05
8.07103e-05
8.06794e-05
8.07121e-05
8.06814e-05
8.07143e-05
8.06845e-05
8.07185e-05
8.06877e-05
8.07217e-05
8.06914e-05
8.07251e-05
8.06955e-05
8.07288e-05
8.07003e-05
8.07326e-05
8.07055e-05
8.07382e-05
8.07106e-05
8.07426e-05
8.07162e-05
8.07468e-05
8.07219e-05
8.07512e-05
8.07272e-05
8.07552e-05
8.0733e-05
8.07608e-05
8.07388e-05
8.07651e-05
8.07447e-05
8.07691e-05
8.07487e-05
8.07728e-05
8.07542e-05
8.07769e-05
8.07622e-05
8.0782e-05
8.07665e-05
8.07849e-05
8.07705e-05
8.07877e-05
8.07746e-05
8.07905e-05
8.07792e-05
8.07943e-05
8.07822e-05
8.07962e-05
8.07853e-05
8.07984e-05
8.0788e-05
8.08005e-05
8.07919e-05
8.08028e-05
8.07959e-05
8.0805e-05
8.07979e-05
8.08063e-05
8.07996e-05
8.08072e-05
8.08019e-05
8.08076e-05
8.0802e-05
8.08094e-05
8.08041e-05
8.08097e-05
8.08056e-05
8.08105e-05
8.08046e-05
8.08098e-05
8.0807e-05
8.08119e-05
8.08087e-05
8.08125e-05
8.08087e-05
8.08119e-05
8.08088e-05
8.0812e-05
8.08099e-05
8.08137e-05
8.08112e-05
8.08133e-05
8.08113e-05
8.08135e-05
8.08101e-05
8.08127e-05
8.08124e-05
8.08148e-05
8.08127e-05
8.08142e-05
8.08119e-05
8.08133e-05
8.08114e-05
8.08133e-05
8.08133e-05
8.08145e-05
8.0812e-05
8.08132e-05
8.08104e-05
8.08128e-05
8.08117e-05
8.0814e-05
8.08147e-05
8.08147e-05
8.08127e-05
8.08127e-05
8.08113e-05
8.08113e-05
8.08137e-05
8.08151e-05
8.08119e-05
8.08144e-05
8.08106e-05
8.08148e-05
8.08137e-05
8.07964e-05
8.08052e-05
8.08083e-05
8.08119e-05
8.08095e-05
8.08217e-05
8.06004e-05
8.15437e-05
8.153e-05
6.98644e-05
5.99375e-05
7.1276e-05
7.34413e-05
7.42775e-05
3.53313e-05
2.07359e-05
1.7464e-05
1.73646e-05
1.95273e-05
2.32062e-05
2.79555e-05
3.31626e-05
3.72103e-05
4.15344e-05
4.59002e-05
5.00427e-05
5.39475e-05
5.75525e-05
6.0996e-05
6.40892e-05
6.6816e-05
6.93492e-05
7.16194e-05
7.37583e-05
7.57551e-05
7.72196e-05
7.84959e-05
7.95873e-05
8.05082e-05
8.12786e-05
8.19215e-05
8.24563e-05
8.29021e-05
8.32739e-05
8.35828e-05
8.38385e-05
8.40496e-05
8.42262e-05
8.43765e-05
8.45051e-05
8.46154e-05
8.47096e-05
8.47905e-05
8.48592e-05
8.49184e-05
8.49683e-05
8.50117e-05
8.50478e-05
8.50799e-05
8.51059e-05
8.51296e-05
8.51481e-05
8.51649e-05
8.51776e-05
8.51912e-05
8.51993e-05
8.52146e-05
8.52116e-05
8.52444e-05
8.51925e-05
8.52504e-05
8.3882e-05
7.40292e-05
8.95457e-05
8.28819e-05
7.3525e-05
7.05063e-05
6.93496e-05
7.26311e-05
7.61997e-05
7.98652e-05
8.29639e-05
8.55954e-05
8.77508e-05
8.95738e-05
9.11438e-05
9.24814e-05
9.36044e-05
9.45301e-05
9.52847e-05
9.5887e-05
9.63578e-05
9.6719e-05
9.69894e-05
9.71893e-05
9.73319e-05
9.74288e-05
9.7491e-05
9.7527e-05
9.75422e-05
9.75445e-05
9.75401e-05
9.75316e-05
9.7521e-05
9.75086e-05
9.74968e-05
9.74856e-05
9.74754e-05
9.74663e-05
9.74592e-05
9.74538e-05
9.74485e-05
9.74441e-05
9.74411e-05
9.74385e-05
9.74366e-05
9.74355e-05
9.74341e-05
9.74337e-05
9.74334e-05
9.74339e-05
9.7433e-05
9.74328e-05
9.74311e-05
9.74309e-05
9.74288e-05
9.7429e-05
9.74265e-05
9.7427e-05
9.74248e-05
9.74261e-05
9.74227e-05
9.74229e-05
9.74179e-05
9.74182e-05
9.74121e-05
9.74131e-05
9.74067e-05
9.74082e-05
9.74019e-05
9.74044e-05
9.73964e-05
9.73982e-05
9.73881e-05
9.73904e-05
9.73792e-05
9.73823e-05
9.737e-05
9.7374e-05
9.73604e-05
9.73663e-05
9.73543e-05
9.73602e-05
9.73443e-05
9.73503e-05
9.73326e-05
9.73397e-05
9.73209e-05
9.73294e-05
9.73096e-05
9.73204e-05
9.73026e-05
9.73138e-05
9.72926e-05
9.73041e-05
9.72817e-05
9.72946e-05
9.72718e-05
9.72862e-05
9.7263e-05
9.72787e-05
9.72566e-05
9.72742e-05
9.72513e-05
9.72688e-05
9.72453e-05
9.72638e-05
9.72403e-05
9.72603e-05
9.72371e-05
9.72582e-05
9.72359e-05
9.72592e-05
9.72362e-05
9.72593e-05
9.72359e-05
9.72596e-05
9.72365e-05
9.7261e-05
9.72386e-05
9.72634e-05
9.72426e-05
9.72687e-05
9.72475e-05
9.72727e-05
9.72517e-05
9.72768e-05
9.72566e-05
9.72816e-05
9.72625e-05
9.7287e-05
9.72695e-05
9.72949e-05
9.72772e-05
9.73011e-05
9.72841e-05
9.7307e-05
9.72912e-05
9.73134e-05
9.72984e-05
9.73198e-05
9.73064e-05
9.73283e-05
9.73151e-05
9.73349e-05
9.73226e-05
9.73411e-05
9.73285e-05
9.73467e-05
9.73356e-05
9.73533e-05
9.7346e-05
9.73619e-05
9.73528e-05
9.73667e-05
9.73582e-05
9.73716e-05
9.73644e-05
9.73767e-05
9.73706e-05
9.73829e-05
9.7376e-05
9.73865e-05
9.73799e-05
9.73899e-05
9.73837e-05
9.73936e-05
9.7389e-05
9.73978e-05
9.73947e-05
9.74022e-05
9.73982e-05
9.74047e-05
9.74006e-05
9.74065e-05
9.74037e-05
9.74086e-05
9.74052e-05
9.74115e-05
9.74084e-05
9.74123e-05
9.74101e-05
9.74141e-05
9.74101e-05
9.7414e-05
9.74126e-05
9.74172e-05
9.74157e-05
9.74185e-05
9.74159e-05
9.74181e-05
9.74161e-05
9.74187e-05
9.74176e-05
9.7421e-05
9.74193e-05
9.74206e-05
9.74195e-05
9.74214e-05
9.7419e-05
9.7421e-05
9.74211e-05
9.74237e-05
9.74224e-05
9.74233e-05
9.74216e-05
9.74224e-05
9.74211e-05
9.74228e-05
9.7423e-05
9.74243e-05
9.74222e-05
9.74229e-05
9.74206e-05
9.74226e-05
9.7422e-05
9.74242e-05
9.74255e-05
9.74254e-05
9.74233e-05
9.7423e-05
9.74216e-05
9.7422e-05
9.74243e-05
9.7426e-05
9.74231e-05
9.74247e-05
9.74212e-05
9.7424e-05
9.74238e-05
9.74078e-05
9.74135e-05
9.74164e-05
9.74203e-05
9.74191e-05
9.74345e-05
9.7248e-05
9.81514e-05
9.80763e-05
8.61234e-05
7.70288e-05
8.46005e-05
8.72437e-05
8.8919e-05
9.09216e-05
4.4748e-05
3.00428e-05
2.39904e-05
2.13976e-05
2.07209e-05
2.2081e-05
2.48649e-05
2.87153e-05
3.33942e-05
3.75179e-05
4.13572e-05
4.53571e-05
4.95632e-05
5.38057e-05
5.7976e-05
6.19638e-05
6.58411e-05
6.96501e-05
7.34731e-05
7.7228e-05
8.09896e-05
8.32304e-05
8.51697e-05
8.6871e-05
8.83632e-05
8.96736e-05
9.0821e-05
9.18241e-05
9.26967e-05
9.3451e-05
9.40996e-05
9.46559e-05
9.51354e-05
9.55504e-05
9.59086e-05
9.62178e-05
9.64836e-05
9.67124e-05
9.69083e-05
9.7077e-05
9.72209e-05
9.73451e-05
9.74506e-05
9.75421e-05
9.76195e-05
9.76865e-05
9.7743e-05
9.77914e-05
9.78319e-05
9.7869e-05
9.78978e-05
9.79301e-05
9.79442e-05
9.7991e-05
9.79633e-05
9.80365e-05
9.69483e-05
9.20512e-05
0.000101805
9.70842e-05
8.76595e-05
8.26328e-05
7.6774e-05
7.69667e-05
7.88967e-05
8.19892e-05
8.54199e-05
8.88119e-05
9.1966e-05
9.48576e-05
9.74439e-05
9.9692e-05
0.000101611
0.00010322
0.000104554
0.000105643
0.000106521
0.000107222
0.000107775
0.000108211
0.000108548
0.000108805
0.000108998
0.000109138
0.000109239
0.000109311
0.000109363
0.000109401
0.000109428
0.000109445
0.000109457
0.000109465
0.000109471
0.000109474
0.000109476
0.000109479
0.00010948
0.000109481
0.000109482
0.000109483
0.000109484
0.000109485
0.000109485
0.000109486
0.000109487
0.000109488
0.000109488
0.000109489
0.000109488
0.000109488
0.000109486
0.000109487
0.000109484
0.000109485
0.000109482
0.000109484
0.00010948
0.00010948
0.000109475
0.000109476
0.000109469
0.00010947
0.000109463
0.000109464
0.000109457
0.000109459
0.000109451
0.000109452
0.000109442
0.000109443
0.000109431
0.000109434
0.000109421
0.000109424
0.00010941
0.000109414
0.000109401
0.000109406
0.00010939
0.000109395
0.000109377
0.000109382
0.000109363
0.000109369
0.000109349
0.000109358
0.00010934
0.000109349
0.000109328
0.000109337
0.000109315
0.000109325
0.000109302
0.000109314
0.000109291
0.000109304
0.000109282
0.000109297
0.000109275
0.00010929
0.000109268
0.000109283
0.000109261
0.000109277
0.000109256
0.000109273
0.000109253
0.000109273
0.000109253
0.000109272
0.000109252
0.000109272
0.000109252
0.000109273
0.000109254
0.000109275
0.000109258
0.00010928
0.000109263
0.000109285
0.000109268
0.000109289
0.000109273
0.000109295
0.00010928
0.000109301
0.000109288
0.00010931
0.000109297
0.000109318
0.000109305
0.000109325
0.000109314
0.000109333
0.000109322
0.000109341
0.000109332
0.000109351
0.000109342
0.000109359
0.000109351
0.000109368
0.000109359
0.000109375
0.000109368
0.000109383
0.00010938
0.000109394
0.000109389
0.000109401
0.000109396
0.000109408
0.000109403
0.000109414
0.000109411
0.000109422
0.000109419
0.000109428
0.000109424
0.000109432
0.000109429
0.000109437
0.000109435
0.000109443
0.000109442
0.000109449
0.000109447
0.000109453
0.00010945
0.000109456
0.000109454
0.000109459
0.000109457
0.000109463
0.000109461
0.000109464
0.000109463
0.000109467
0.000109465
0.000109468
0.000109467
0.000109471
0.000109471
0.000109473
0.000109472
0.000109474
0.000109472
0.000109475
0.000109474
0.000109477
0.000109476
0.000109477
0.000109477
0.000109479
0.000109477
0.000109478
0.000109479
0.000109481
0.000109481
0.000109481
0.00010948
0.000109481
0.00010948
0.000109481
0.000109482
0.000109483
0.000109481
0.000109482
0.00010948
0.000109481
0.000109481
0.000109483
0.000109485
0.000109485
0.000109483
0.000109482
0.000109481
0.000109482
0.000109484
0.000109486
0.000109484
0.000109484
0.000109481
0.000109483
0.000109483
0.00010947
0.000109473
0.000109475
0.000109478
0.000109478
0.000109497
0.000109365
0.000110085
0.000109959
9.9487e-05
9.18121e-05
9.51298e-05
9.73035e-05
9.90163e-05
0.000109641
0.000100824
6.76858e-05
4.94937e-05
3.78527e-05
3.0971e-05
2.72309e-05
2.53785e-05
2.53646e-05
2.68768e-05
2.95635e-05
3.31171e-05
3.7345e-05
4.17772e-05
4.54124e-05
4.93918e-05
5.37567e-05
5.85188e-05
6.36278e-05
6.908e-05
7.40553e-05
7.79022e-05
8.13735e-05
8.4492e-05
8.73149e-05
8.98775e-05
9.21939e-05
9.42659e-05
9.61028e-05
9.77164e-05
9.91236e-05
0.000100345
0.000101401
0.000102318
0.000103112
0.000103799
0.000104392
0.000104902
0.000105342
0.00010572
0.000106045
0.000106323
0.000106563
0.000106768
0.000106944
0.000107095
0.000107224
0.000107335
0.000107429
0.000107509
0.00010758
0.000107638
0.000107695
0.000107734
0.000107806
0.00010781
0.000107901
0.00010718
0.000108815
0.000110494
0.000107411
0.000100338
9.55205e-05
8.74091e-05
8.45691e-05
8.35548e-05
8.45621e-05
8.68427e-05
8.98762e-05
9.32858e-05
9.68546e-05
0.000100314
0.000103442
0.000106152
0.000108432
0.00011032
0.000111869
0.000113132
0.000114157
0.000114982
0.000115645
0.000116173
0.000116585
0.000116907
0.000117154
0.000117344
0.000117489
0.000117603
0.000117693
0.000117762
0.000117815
0.000117856
0.000117888
0.000117913
0.000117933
0.000117949
0.000117962
0.000117972
0.00011798
0.000117987
0.000117993
0.000117998
0.000118002
0.000118006
0.000118009
0.000118011
0.000118014
0.000118016
0.000118017
0.000118017
0.000118018
0.000118017
0.000118017
0.000118015
0.000118015
0.000118014
0.000118014
0.000118012
0.000118012
0.000118007
0.000118007
0.000118001
0.000118001
0.000117995
0.000117994
0.000117988
0.000117989
0.000117982
0.000117981
0.000117973
0.000117972
0.000117962
0.000117961
0.000117951
0.00011795
0.000117939
0.000117939
0.000117929
0.00011793
0.000117917
0.000117918
0.000117903
0.000117904
0.000117888
0.000117889
0.000117873
0.000117876
0.000117861
0.000117865
0.000117849
0.000117852
0.000117834
0.000117838
0.00011782
0.000117825
0.000117808
0.000117813
0.000117797
0.000117804
0.000117788
0.000117796
0.000117779
0.000117787
0.000117771
0.00011778
0.000117765
0.000117775
0.000117761
0.000117773
0.00011776
0.000117772
0.000117758
0.000117771
0.000117758
0.000117771
0.000117759
0.000117773
0.000117762
0.000117777
0.000117768
0.000117782
0.000117772
0.000117787
0.000117778
0.000117793
0.000117785
0.000117799
0.000117793
0.000117809
0.000117803
0.000117818
0.000117811
0.000117826
0.00011782
0.000117835
0.00011783
0.000117844
0.00011784
0.000117855
0.000117852
0.000117865
0.000117862
0.000117874
0.000117871
0.000117883
0.00011788
0.000117893
0.000117893
0.000117904
0.000117903
0.000117913
0.000117912
0.000117921
0.000117921
0.00011793
0.000117929
0.000117938
0.000117938
0.000117945
0.000117944
0.000117951
0.00011795
0.000117957
0.000117957
0.000117964
0.000117965
0.000117971
0.000117971
0.000117976
0.000117975
0.00011798
0.00011798
0.000117984
0.000117984
0.000117988
0.000117988
0.000117991
0.000117991
0.000117994
0.000117993
0.000117996
0.000117996
0.000117999
0.000118
0.000118002
0.000118002
0.000118003
0.000118003
0.000118004
0.000118005
0.000118007
0.000118007
0.000118008
0.000118008
0.000118009
0.000118009
0.00011801
0.00011801
0.000118012
0.000118012
0.000118013
0.000118012
0.000118013
0.000118012
0.000118013
0.000118014
0.000118015
0.000118014
0.000118014
0.000118013
0.000118014
0.000118014
0.000118015
0.000118017
0.000118017
0.000118016
0.000118015
0.000118014
0.000118015
0.000118016
0.000118018
0.000118017
0.000118017
0.000118014
0.000118015
0.000118015
0.000118007
0.000118008
0.000118008
0.000118011
0.000118011
0.000118037
0.000117955
0.000118456
0.000118279
0.000110068
0.00010253
0.000103982
0.00010522
0.00010646
0.000112747
0.000121825
0.000128522
9.36086e-05
7.11768e-05
5.72226e-05
4.59619e-05
3.79949e-05
3.2829e-05
2.9813e-05
2.86784e-05
2.90832e-05
3.07098e-05
3.33263e-05
3.66807e-05
4.05341e-05
4.476e-05
4.92642e-05
5.403e-05
5.90242e-05
6.41556e-05
6.93159e-05
7.43918e-05
7.92606e-05
8.37719e-05
8.78337e-05
9.14286e-05
9.45897e-05
9.73616e-05
9.97836e-05
0.000101891
0.000103718
0.0001053
0.000106669
0.000107855
0.00010888
0.000109764
0.000110525
0.000111181
0.000111745
0.00011223
0.000112646
0.000113004
0.00011331
0.000113573
0.000113799
0.000113993
0.000114158
0.0001143
0.00011442
0.000114525
0.000114613
0.000114698
0.00011476
0.000114873
0.000114897
0.000115015
0.000114635
0.000115569
0.000116461
0.000114277
0.000108974
0.000104504
9.7266e-05
9.33604e-05
9.07969e-05
9.01801e-05
9.10663e-05
9.30974e-05
9.58883e-05
9.9171e-05
0.000102611
0.000105904
0.000108894
0.000111504
0.000113722
0.000115576
0.000117108
0.000118363
0.000119384
0.000120212
0.000120877
0.000121401
0.000121817
0.000122143
0.000122399
0.0001226
0.000122762
0.000122892
0.000122994
0.000123076
0.000123141
0.000123193
0.000123235
0.000123269
0.000123297
0.00012332
0.000123338
0.000123353
0.000123365
0.000123375
0.000123384
0.000123391
0.000123397
0.000123402
0.000123406
0.00012341
0.000123413
0.000123415
0.000123416
0.000123417
0.000123417
0.000123417
0.000123417
0.000123416
0.000123416
0.000123415
0.000123414
0.000123413
0.00012341
0.000123408
0.000123404
0.000123402
0.000123398
0.000123395
0.000123392
0.000123389
0.000123385
0.000123382
0.000123376
0.000123372
0.000123366
0.000123361
0.000123354
0.00012335
0.000123342
0.000123338
0.000123332
0.000123328
0.00012332
0.000123315
0.000123306
0.000123301
0.000123291
0.000123286
0.000123276
0.000123271
0.000123263
0.000123259
0.000123249
0.000123245
0.000123235
0.00012323
0.00012322
0.000123216
0.000123207
0.000123203
0.000123195
0.000123193
0.000123185
0.000123183
0.000123175
0.000123174
0.000123166
0.000123166
0.000123159
0.00012316
0.000123154
0.000123157
0.000123152
0.000123155
0.00012315
0.000123153
0.000123149
0.000123153
0.00012315
0.000123154
0.000123152
0.000123158
0.000123157
0.000123163
0.000123162
0.000123168
0.000123167
0.000123174
0.000123174
0.000123181
0.000123182
0.00012319
0.000123192
0.0001232
0.000123201
0.000123208
0.00012321
0.000123218
0.00012322
0.000123228
0.00012323
0.000123239
0.000123242
0.00012325
0.000123253
0.00012326
0.000123263
0.00012327
0.000123272
0.00012328
0.000123284
0.000123292
0.000123296
0.000123302
0.000123305
0.000123311
0.000123314
0.00012332
0.000123323
0.00012333
0.000123333
0.000123338
0.00012334
0.000123345
0.000123347
0.000123351
0.000123354
0.000123358
0.000123361
0.000123366
0.000123368
0.000123372
0.000123373
0.000123376
0.000123378
0.000123382
0.000123383
0.000123386
0.000123387
0.000123389
0.000123391
0.000123393
0.000123394
0.000123395
0.000123396
0.000123399
0.0001234
0.000123402
0.000123402
0.000123404
0.000123404
0.000123405
0.000123406
0.000123407
0.000123408
0.000123409
0.00012341
0.000123411
0.000123411
0.000123411
0.000123412
0.000123414
0.000123414
0.000123415
0.000123415
0.000123415
0.000123415
0.000123416
0.000123416
0.000123417
0.000123417
0.000123417
0.000123416
0.000123417
0.000123417
0.000123418
0.000123419
0.000123419
0.000123418
0.000123418
0.000123418
0.000123418
0.000123419
0.00012342
0.000123419
0.000123419
0.000123418
0.000123418
0.000123418
0.000123412
0.000123412
0.000123412
0.000123414
0.000123414
0.000123454
0.000123402
0.000123731
0.000123511
0.000117685
0.000111625
0.00011138
0.000111429
0.000111928
0.000105254
0.000119401
0.000152933
0.000131661
0.000101852
8.26841e-05
6.71778e-05
5.56928e-05
4.75456e-05
4.1766e-05
3.70867e-05
3.40075e-05
3.26222e-05
3.27086e-05
3.38546e-05
3.60653e-05
3.92484e-05
4.33008e-05
4.79071e-05
5.2973e-05
5.83767e-05
6.40086e-05
6.97321e-05
7.53869e-05
8.07252e-05
8.56345e-05
9.004e-05
9.39379e-05
9.7352e-05
0.000100331
0.000102915
0.000105149
0.000107078
0.000108743
0.000110185
0.000111429
0.000112503
0.000113427
0.000114223
0.000114907
0.000115495
0.000116
0.000116434
0.000116805
0.000117125
0.000117398
0.000117633
0.000117834
0.000118006
0.000118153
0.000118279
0.000118387
0.000118493
0.000118566
0.000118735
0.000118741
0.000118902
0.000118724
0.000119278
0.000119741
0.000117687
0.000113056
0.00010859
0.000102371
9.82251e-05
9.52443e-05
9.39347e-05
9.40647e-05
9.54346e-05
9.77131e-05
0.000100649
0.000103896
0.000107132
0.000110169
0.000112889
0.000115244
0.000117235
0.000118893
0.000120259
0.000121375
0.000122282
0.000123013
0.000123588
0.000124048
0.000124413
0.000124701
0.00012493
0.000125115
0.000125265
0.000125385
0.000125482
0.000125559
0.000125622
0.000125673
0.000125714
0.000125748
0.000125775
0.000125798
0.000125816
0.000125832
0.000125844
0.000125855
0.000125864
0.000125871
0.000125877
0.000125883
0.000125887
0.000125891
0.000125893
0.000125895
0.000125896
0.000125897
0.000125896
0.000125896
0.000125896
0.000125896
0.000125895
0.000125894
0.000125892
0.000125891
0.000125888
0.000125886
0.000125882
0.000125879
0.000125875
0.000125873
0.000125869
0.000125867
0.000125862
0.000125858
0.000125852
0.000125848
0.000125841
0.000125837
0.000125829
0.000125825
0.000125817
0.000125814
0.000125807
0.000125803
0.000125794
0.000125789
0.000125779
0.000125774
0.000125764
0.000125759
0.000125749
0.000125745
0.000125736
0.000125732
0.000125722
0.000125718
0.000125707
0.000125703
0.000125693
0.000125689
0.000125679
0.000125677
0.000125668
0.000125667
0.000125658
0.000125657
0.000125648
0.000125647
0.00012564
0.00012564
0.000125633
0.000125634
0.00012563
0.000125632
0.000125627
0.000125629
0.000125626
0.000125628
0.000125625
0.000125628
0.000125626
0.000125631
0.00012563
0.000125635
0.000125635
0.00012564
0.00012564
0.000125645
0.000125645
0.000125651
0.000125653
0.000125659
0.000125662
0.000125669
0.000125671
0.000125678
0.00012568
0.000125687
0.00012569
0.000125696
0.0001257
0.000125707
0.000125711
0.000125718
0.000125723
0.000125729
0.000125733
0.000125739
0.000125743
0.000125749
0.000125754
0.000125761
0.000125766
0.000125772
0.000125777
0.000125782
0.000125786
0.000125792
0.000125796
0.000125801
0.000125805
0.00012581
0.000125814
0.000125818
0.000125821
0.000125825
0.000125828
0.000125832
0.000125835
0.000125839
0.000125843
0.000125847
0.000125849
0.000125852
0.000125854
0.000125857
0.00012586
0.000125862
0.000125864
0.000125866
0.000125868
0.00012587
0.000125872
0.000125873
0.000125874
0.000125876
0.000125878
0.00012588
0.000125881
0.000125882
0.000125883
0.000125884
0.000125885
0.000125886
0.000125887
0.000125888
0.000125889
0.00012589
0.000125891
0.000125891
0.000125892
0.000125893
0.000125893
0.000125894
0.000125895
0.000125895
0.000125895
0.000125896
0.000125896
0.000125897
0.000125897
0.000125897
0.000125898
0.000125898
0.000125898
0.000125898
0.000125898
0.000125899
0.000125899
0.000125899
0.000125899
0.000125899
0.000125899
0.0001259
0.0001259
0.000125899
0.000125899
0.000125898
0.000125899
0.000125898
0.000125895
0.000125894
0.000125893
0.000125895
0.000125895
0.00012595
0.000125905
0.000126157
0.000125911
0.000121689
0.000117645
0.000116047
0.000115135
0.000115047
)
;

boundaryField
{
    inlet
    {
        type            calculated;
        value           nonuniform List<scalar> 8(1.88676e-06 1.23888e-05 3.55329e-05 8.29757e-05 0.000107384 0.000105371 0.000109739 0.000102541);
    }
    outlet
    {
        type            calculated;
        value           nonuniform List<scalar> 8(2.04848e-05 5.21498e-05 7.42775e-05 8.8919e-05 9.90163e-05 0.00010646 0.000111928 0.000115047);
    }
    sideWall
    {
        type            empty;
    }
    bed
    {
        type            nutRoughWallFunction;
        Cmu             0.09;
        kappa           0.41;