/*--------------------------------*- C++ -*----------------------------------*\
| =========                 |                                                 |
| \\      /  F ield         | foam-extend: Open Source CFD                    |
|  \\    /   O peration     | Version:     3.2                                |
|   \\  /    A nd           | Web:         http://www.foam-extend.org         |
|    \\/     M anipulation  | For copyright notice see file Copyright         |
\*---------------------------------------------------------------------------*/
FoamFile
{
    version     2.0;
    format      ascii;
    class       volScalarField;
    location    "2020";
    object      omega;
}
// * * * * * * * * * * * * * * * * * * * * * * * * * * * * * * * * * * * * * //

dimensions      [0 0 -1 0 0 0 0];

internalField   nonuniform List<scalar> 
2400
(
132.937
146.46
134.899
124.337
117.743
114.953
113.818
113.678
113.86
114.238
114.686
115.146
115.59
116.057
116.502
116.957
117.437
117.91
118.391
118.871
119.349
119.826
120.311
120.801
121.267
121.691
122.071
122.404
122.691
122.939
123.151
123.331
123.481
123.602
123.7
123.782
123.85
123.908
123.956
123.999
124.033
124.064
124.088
124.111
124.128
124.145
124.157
124.172
124.176
124.196
124.179
124.232
124.14
124.343
123.937
124.782
122.99
126.383
114.044
136.795
176.321
163.812
165.293
164.399
154.466
156.59
155.74
156.303
156.225
156.372
156.366
156.367
156.366
156.366
156.364
156.341
156.323
156.297
156.265
156.232
156.193
156.164
156.137
156.108
156.084
156.059
156.038
156.015
156.003
155.998
155.987
155.982
155.973
155.969
155.964
155.958
155.958
155.964
155.964
155.963
155.967
155.958
155.967
155.952
155.966
155.945
155.966
155.952
155.974
155.95
155.977
155.945
155.978
155.937
155.979
155.927
155.98
155.932
155.989
155.927
155.994
155.92
155.995
155.91
155.999
155.899
156.003
155.902
156.014
155.896
156.02
155.888
156.023
155.878
156.025
155.868
156.026
155.859
156.04
155.858
156.047
155.852
156.049
155.845
156.05
155.837
156.049
155.831
156.061
155.833
156.065
155.83
156.065
155.826
156.063
155.821
156.061
155.816
156.058
155.826
156.062
155.829
156.06
155.829
156.056
155.828
156.051
155.827
156.045
155.84
156.047
155.845
156.043
155.848
156.037
155.85
156.03
155.85
156.025
155.865
156.025
155.871
156.021
155.875
156.015
155.877
156.009
155.877
156.002
155.892
156.003
155.898
155.999
155.899
155.994
155.901
155.987
155.902
155.982
155.914
155.983
155.917
155.98
155.92
155.972
155.92
155.965
155.92
155.971
155.928
155.969
155.927
155.964
155.928
155.962
155.926
155.958
155.935
155.96
155.935
155.957
155.935
155.95
155.933
155.948
155.932
155.951
155.936
155.95
155.935
155.947
155.929
155.946
155.924
155.938
155.933
155.942
155.929
155.94
155.932
155.936
155.922
155.934
155.93
155.939
155.934
155.938
155.93
155.936
155.925
155.932
155.931
155.935
155.928
155.934
155.929
155.93
155.92
155.928
155.928
155.932
155.93
155.932
155.925
155.928
155.919
155.925
155.925
155.926
155.925
155.924
155.923
155.921
155.921
155.929
155.927
155.929
155.927
155.932
155.917
155.932
155.929
155.922
155.941
155.908
155.955
155.944
155.896
155.92
155.889
155.957
155.794
156.184
154.091
160.096
170.946
123.825
106.427
118.509
119.858
44.0084
59.8842
58.478
57.0845
55.6338
54.2007
52.9065
51.8048
50.8991
50.1976
49.667
49.2628
48.9603
48.7422
48.6155
48.5387
48.5103
48.5232
48.5685
48.6386
48.7278
48.8251
48.9186
49.0098
49.0999
49.1854
49.2645
49.3364
49.4003
49.4567
49.5061
49.5499
49.5878
49.6202
49.6467
49.6692
49.6879
49.7042
49.7177
49.7297
49.7394
49.7484
49.7553
49.762
49.7669
49.772
49.7752
49.7792
49.7816
49.7849
49.7859
49.7895
49.7868
49.7971
49.781
49.8287
49.7899
50.5842
50.0224
45.7425
58.0851
65.4209
63.9323
68.0099
66.4286
65.5412
65.1221
64.873
64.6891
64.5179
64.3429
64.155
63.9797
63.8129
63.6577
63.5098
63.3716
63.2456
63.1315
63.0304
62.9417
62.8648
62.8015
62.7479
62.7052
62.6691
62.6413
62.6177
62.5983
62.5865
62.5779
62.5723
62.5682
62.5649
62.5641
62.562
62.5606
62.5609
62.5632
62.5639
62.5652
62.5669
62.5657
62.5685
62.5657
62.5695
62.5647
62.5697
62.5659
62.5728
62.567
62.5749
62.5668
62.5762
62.5656
62.5772
62.5634
62.5779
62.5642
62.5819
62.5649
62.5854
62.5647
62.5876
62.5634
62.59
62.5612
62.5925
62.5623
62.5983
62.5635
62.6034
62.5637
62.6076
62.5631
62.6111
62.5618
62.6129
62.5601
62.6194
62.5621
62.6258
62.5633
62.6309
62.5637
62.6349
62.5632
62.6368
62.5623
62.6429
62.5649
62.6484
62.5667
62.6524
62.5675
62.655
62.5676
62.6565
62.5665
62.6573
62.5688
62.6606
62.5713
62.6625
62.5726
62.6628
62.573
62.6617
62.572
62.6599
62.5742
62.6609
62.5765
62.6605
62.5775
62.6586
62.5774
62.6553
62.576
62.6517
62.5778
62.6509
62.5795
62.6489
62.5801
62.6456
62.5795
62.6414
62.5776
62.6367
62.5789
62.6346
62.58
62.6317
62.5796
62.628
62.5788
62.6232
62.5763
62.6179
62.5769
62.6156
62.5775
62.6136
62.5773
62.6086
62.5754
62.603
62.5728
62.6007
62.5737
62.5988
62.5732
62.5958
62.5718
62.5916
62.5694
62.589
62.5708
62.5885
62.5709
62.5857
62.5694
62.5814
62.5672
62.5787
62.5659
62.5775
62.5659
62.5757
62.5656
62.5745
62.5643
62.5728
62.5609
62.5682
62.5615
62.5684
62.5611
62.5686
62.5619
62.5664
62.558
62.5628
62.5582
62.5638
62.5602
62.5648
62.5596
62.5633
62.5572
62.5604
62.5582
62.5618
62.5581
62.5623
62.5585
62.5595
62.5547
62.5575
62.556
62.5594
62.5579
62.56
62.5564
62.557
62.5537
62.5565
62.5551
62.558
62.5557
62.5562
62.5538
62.5535
62.5532
62.5562
62.556
62.5582
62.5572
62.5574
62.5532
62.5566
62.5544
62.5588
62.5603
62.5533
62.5693
62.559
62.5545
62.5512
62.5553
62.5476
62.7142
62.4927
61.8458
67.4725
70.5152
58.3948
52.6646
50.8565
14.9396
25.1382
29.9533
32.6181
33.4607
33.0056
32.24
31.6602
31.2346
30.8888
30.5497
30.2151
29.9076
29.6522
29.4445
29.2718
29.1371
29.0279
28.9463
28.8834
28.8321
28.7895
28.7439
28.6965
28.6504
28.6058
28.563
28.5221
28.4834
28.4472
28.4137
28.3835
28.3565
28.3328
28.3117
28.2933
28.2772
28.2632
28.2511
28.2407
28.2316
28.2238
28.2172
28.2113
28.2065
28.202
28.1985
28.195
28.1924
28.1899
28.1883
28.1861
28.1859
28.1825
28.187
28.1845
28.2505
28.7735
29.5635
25.3738
26.9408
32.6102
32.9959
36.5396
36.5597
36.7492
36.8521
36.9782
37.0416
37.0635
37.0531
36.9962
36.9105
36.8
36.6784
36.5481
36.4161
36.2882
36.1679
36.0567
35.9564
35.8652
35.7879
35.7195
35.6629
35.6137
35.5735
35.5393
35.5106
35.4891
35.4719
35.4588
35.4488
35.4407
35.435
35.4303
35.4261
35.4231
35.4219
35.421
35.4206
35.4211
35.4201
35.4215
35.4199
35.4222
35.4188
35.4218
35.4185
35.423
35.4189
35.4245
35.4191
35.4259
35.419
35.4277
35.4177
35.4282
35.4172
35.4303
35.4173
35.4331
35.4175
35.4355
35.4173
35.4383
35.4158
35.4402
35.4154
35.4439
35.4157
35.448
35.416
35.4522
35.4159
35.4562
35.4157
35.4586
35.414
35.4629
35.4142
35.468
35.4147
35.4729
35.4151
35.4775
35.4154
35.4801
35.4143
35.4844
35.415
35.4889
35.416
35.493
35.4168
35.4964
35.4174
35.4992
35.4167
35.5003
35.4173
35.5024
35.4187
35.5042
35.4202
35.5052
35.4212
35.5054
35.4211
35.5038
35.422
35.5038
35.4235
35.5035
35.4248
35.5025
35.4254
35.5007
35.4251
35.4974
35.4257
35.4957
35.4268
35.4939
35.4277
35.4915
35.428
35.4887
35.4273
35.4844
35.4275
35.4817
35.4282
35.4792
35.4285
35.4762
35.4285
35.4728
35.4273
35.4681
35.4271
35.4652
35.4273
35.463
35.4276
35.4596
35.4272
35.4553
35.4251
35.4523
35.4252
35.4503
35.4251
35.4477
35.4244
35.445
35.423
35.442
35.4231
35.4405
35.4232
35.4385
35.4229
35.4359
35.4218
35.4335
35.4204
35.4316
35.4201
35.4302
35.4201
35.4293
35.4194
35.4282
35.4178
35.4249
35.4173
35.4245
35.417
35.4237
35.4177
35.423
35.4157
35.4202
35.4149
35.4199
35.4158
35.4202
35.4156
35.4198
35.4149
35.4179
35.4147
35.4183
35.4147
35.4182
35.4152
35.4175
35.4135
35.4156
35.4132
35.4159
35.4141
35.4164
35.4138
35.4155
35.4126
35.4146
35.4129
35.4149
35.4133
35.4141
35.4125
35.4123
35.4112
35.4132
35.4128
35.4143
35.4138
35.4144
35.4111
35.4135
35.4122
35.414
35.4154
35.4099
35.4213
35.4182
35.415
35.4137
35.4133
35.4155
35.5232
35.5206
34.4865
37.7241
45.5611
39.3839
34.8481
32.5176
5.01294
9.73039
13.7017
16.8353
19.3826
21.0611
22.0034
22.4271
22.4568
22.2107
21.9451
21.7692
21.6349
21.5227
21.3942
21.2444
21.092
20.9414
20.7982
20.6548
20.5098
20.3566
20.2099
20.0669
19.9282
19.7941
19.6659
19.545
19.4328
19.3299
19.2365
19.1528
19.0786
19.0138
18.9575
18.9089
18.8669
18.8307
18.7996
18.7727
18.7497
18.7298
18.7129
18.6981
18.6858
18.6748
18.6658
18.6575
18.6508
18.6447
18.6401
18.6354
18.6332
18.6277
18.6311
18.6235
18.6801
19.0052
19.5425
17.0452
16.1901
19.4633
20.2556
23.1171
23.6674
24.0852
24.3149
24.5428
24.7249
24.8633
24.9563
24.9872
24.9653
24.8997
24.8075
24.6977
24.58
24.4615
24.3471
24.239
24.1398
24.0484
23.9681
23.8968
23.8351
23.7814
23.7358
23.6973
23.6643
23.638
23.616
23.5987
23.5848
23.5735
23.5647
23.5576
23.5518
23.547
23.5438
23.5414
23.5397
23.5389
23.5377
23.5379
23.5367
23.5377
23.5356
23.537
23.535
23.5372
23.5349
23.5379
23.535
23.5388
23.5352
23.5401
23.5348
23.5405
23.5344
23.5415
23.5344
23.543
23.5347
23.5447
23.5349
23.5467
23.5346
23.548
23.5343
23.5499
23.5345
23.5524
23.5349
23.5551
23.5354
23.558
23.536
23.5599
23.5355
23.5624
23.5356
23.5654
23.5361
23.5686
23.5369
23.5718
23.5378
23.5741
23.5377
23.5766
23.5381
23.5794
23.539
23.5822
23.54
23.5848
23.541
23.5871
23.5414
23.5881
23.5417
23.5893
23.5425
23.5906
23.5436
23.5917
23.5446
23.5925
23.545
23.592
23.5452
23.5918
23.5459
23.5918
23.5467
23.5915
23.5473
23.5908
23.5473
23.5891
23.5472
23.5877
23.5475
23.5865
23.5478
23.5852
23.5481
23.5837
23.5478
23.5812
23.5473
23.5791
23.5472
23.5773
23.5472
23.5754
23.547
23.5735
23.5464
23.5706
23.5456
23.5682
23.5452
23.5664
23.5451
23.5644
23.5448
23.5619
23.5434
23.5595
23.5427
23.5577
23.5423
23.5559
23.5418
23.5543
23.541
23.5521
23.5403
23.5506
23.5398
23.5492
23.5397
23.5478
23.539
23.5462
23.538
23.5445
23.5373
23.5434
23.5371
23.5426
23.5367
23.5419
23.5358
23.54
23.5349
23.5392
23.5345
23.5384
23.5347
23.538
23.5338
23.5365
23.5329
23.5357
23.533
23.5356
23.5329
23.5354
23.5327
23.5344
23.5322
23.5343
23.5321
23.5341
23.5324
23.5339
23.5317
23.5328
23.5311
23.5326
23.5315
23.5328
23.5313
23.5323
23.5307
23.5319
23.5308
23.532
23.531
23.5314
23.5304
23.5301
23.5293
23.5305
23.5304
23.5312
23.531
23.5311
23.5291
23.5303
23.5297
23.5307
23.5316
23.5285
23.535
23.5342
23.5326
23.532
23.5313
23.5341
23.5942
23.5994
22.9095
24.9518
31.1148
28.2795
25.618
23.8724
1.75466
3.69554
5.72536
7.59019
9.44024
11.2809
13.1021
14.6415
15.7391
16.3985
16.7506
16.917
16.9268
16.8291
16.704
16.5875
16.4818
16.3675
16.2318
16.0687
15.8855
15.6866
15.4859
15.2854
15.0879
14.8958
14.7125
14.5406
14.3828
14.2397
14.1112
13.9971
13.8967
13.8095
13.7343
13.6695
13.6139
13.566
13.5249
13.4895
13.4592
13.433
13.4108
13.3915
13.3753
13.3611
13.3491
13.3386
13.3296
13.3219
13.3157
13.3099
13.3061
13.3007
13.301
13.2954
13.33
13.5231
13.6741
12.3527
11.6543
13.101
13.6369
15.9534
16.7489
17.3829
17.7698
18.0535
18.2361
18.3538
18.4227
18.4406
18.4165
18.3597
18.2834
18.195
18.101
18.0058
17.9128
17.8236
17.7401
17.662
17.5915
17.5278
17.471
17.4207
17.3771
17.3398
17.3076
17.2807
17.2581
17.2395
17.2243
17.2117
17.2016
17.1933
17.1866
17.181
17.1768
17.1736
17.1711
17.1696
17.168
17.1675
17.1663
17.1665
17.1651
17.1656
17.1643
17.1653
17.164
17.1655
17.164
17.166
17.1642
17.1668
17.1641
17.1671
17.1639
17.1676
17.164
17.1685
17.1642
17.1695
17.1646
17.1708
17.1646
17.1717
17.1647
17.1728
17.1649
17.1743
17.1654
17.176
17.166
17.1779
17.1667
17.1793
17.1668
17.1809
17.167
17.1827
17.1676
17.1847
17.1684
17.1868
17.1693
17.1884
17.1697
17.1901
17.1702
17.1919
17.171
17.1937
17.1719
17.1955
17.1729
17.1971
17.1736
17.1981
17.174
17.1989
17.1746
17.1997
17.1753
17.2006
17.1761
17.2013
17.1766
17.2013
17.1768
17.2012
17.1771
17.2013
17.1776
17.2012
17.178
17.201
17.1781
17.2001
17.1779
17.1992
17.1779
17.1984
17.1779
17.1976
17.178
17.1968
17.1778
17.1954
17.1773
17.1939
17.1769
17.1927
17.1766
17.1915
17.1763
17.1903
17.1759
17.1886
17.1751
17.1869
17.1744
17.1856
17.174
17.1842
17.1737
17.1827
17.1727
17.181
17.1719
17.1797
17.1713
17.1784
17.1708
17.1773
17.1702
17.1759
17.1694
17.1747
17.1688
17.1737
17.1685
17.1728
17.168
17.1717
17.1672
17.1705
17.1665
17.1696
17.1661
17.169
17.1657
17.1684
17.1652
17.1672
17.1644
17.1665
17.1639
17.1659
17.1637
17.1655
17.1633
17.1646
17.1626
17.1639
17.1624
17.1637
17.1622
17.1635
17.162
17.163
17.1617
17.1628
17.1615
17.1626
17.1616
17.1624
17.1613
17.1618
17.1608
17.1616
17.1609
17.1616
17.1607
17.1612
17.1603
17.161
17.1605
17.1611
17.1605
17.1606
17.1599
17.1596
17.1592
17.1599
17.16
17.1605
17.1602
17.1602
17.1589
17.1595
17.1592
17.1599
17.1605
17.1588
17.1626
17.1623
17.1614
17.1612
17.1607
17.1628
17.196
17.196
16.8085
18.129
22.3275
20.8565
19.3557
18.238
0.753386
1.5713
2.35783
3.24111
4.29767
5.42177
6.61906
7.92529
9.30459
10.5855
11.6498
12.4519
12.9938
13.304
13.4598
13.5135
13.4847
13.3828
13.2226
13.0232
12.8059
12.5865
12.3665
12.1453
11.9249
11.7095
11.5054
11.3175
11.1485
10.9979
10.8648
10.7479
10.6461
10.5583
10.4829
10.4181
10.3624
10.3145
10.2734
10.2381
10.2079
10.1819
10.1597
10.1405
10.1242
10.1102
10.0982
10.088
10.079
10.0714
10.065
10.0594
10.0552
10.0506
10.0497
10.0463
10.0646
10.1713
10.196
9.5815
9.30446
9.93278
10.223
11.6869
12.4336
13.172
13.7025
14.0915
14.3308
14.4653
14.5283
14.5367
14.5129
14.4723
14.4244
14.3707
14.3125
14.2511
14.1882
14.1253
14.064
14.0049
13.9493
13.8977
13.8499
13.8067
13.7685
13.7352
13.706
13.681
13.6597
13.6418
13.6268
13.6143
13.6041
13.5956
13.5887
13.5831
13.5785
13.575
13.5723
13.5703
13.5686
13.5676
13.5664
13.5661
13.5651
13.5651
13.5643
13.5647
13.5639
13.5646
13.5638
13.5648
13.5639
13.5652
13.5639
13.5654
13.5639
13.5658
13.564
13.5663
13.5642
13.5669
13.5645
13.5676
13.5647
13.5683
13.5649
13.5691
13.5652
13.57
13.5657
13.5711
13.5662
13.5722
13.5668
13.5732
13.5671
13.5743
13.5676
13.5755
13.5681
13.5767
13.5688
13.5781
13.5696
13.5792
13.5701
13.5804
13.5708
13.5816
13.5715
13.5828
13.5722
13.584
13.573
13.5851
13.5736
13.5858
13.5741
13.5865
13.5746
13.5871
13.5752
13.5877
13.5757
13.5882
13.5761
13.5884
13.5763
13.5885
13.5766
13.5885
13.5768
13.5885
13.577
13.5884
13.5771
13.588
13.577
13.5875
13.5769
13.587
13.5768
13.5865
13.5767
13.586
13.5765
13.5851
13.5761
13.5842
13.5757
13.5834
13.5753
13.5826
13.5749
13.5817
13.5745
13.5807
13.5738
13.5796
13.5732
13.5786
13.5727
13.5777
13.5722
13.5766
13.5715
13.5755
13.5708
13.5746
13.5702
13.5736
13.5697
13.5728
13.5691
13.5719
13.5685
13.571
13.5679
13.5703
13.5675
13.5696
13.567
13.5688
13.5664
13.5679
13.5658
13.5673
13.5654
13.5667
13.5649
13.5662
13.5645
13.5655
13.5639
13.5649
13.5635
13.5644
13.5631
13.564
13.5628
13.5634
13.5623
13.5629
13.5621
13.5627
13.5618
13.5624
13.5617
13.5621
13.5614
13.5619
13.5613
13.5617
13.5611
13.5615
13.5609
13.5612
13.5607
13.5611
13.5606
13.5609
13.5604
13.5606
13.5601
13.5605
13.5602
13.5605
13.5601
13.5601
13.5597
13.5595
13.5592
13.5597
13.5598
13.5601
13.5599
13.5598
13.559
13.5593
13.5592
13.5598
13.56
13.5593
13.5613
13.5611
13.5606
13.5606
13.5601
13.5623
13.5803
13.5842
13.4039
14.1822
16.7819
15.8825
14.9853
14.2739
0.406917
0.802792
1.22629
1.67681
2.18837
2.70745
3.38905
4.18781
5.08343
6.06144
7.02903
7.98149
8.85727
9.58734
10.1528
10.547
10.7906
10.9071
10.9008
10.8069
10.6491
10.445
10.2088
9.96042
9.72505
9.51474
9.33104
9.17047
9.02974
8.90584
8.79677
8.70103
8.61758
8.5454
8.48308
8.42921
8.38277
8.34269
8.30823
8.27854
8.25305
8.23111
8.21232
8.19614
8.18232
8.17041
8.16026
8.15151
8.14399
8.13751
8.13205
8.1273
8.1238
8.12019
8.12085
8.11871
8.12849
8.18108
8.19891
8.04991
8.06875
8.42867
8.65682
9.46499
9.98952
10.5654
11.054
11.4634
11.7652
11.9783
12.1234
12.2115
12.2562
12.2731
12.2724
12.2586
12.2346
12.2027
12.1652
12.124
12.0811
12.0374
11.9937
11.9515
11.9113
11.8742
11.8405
11.8107
11.7843
11.7613
11.7416
11.7247
11.7105
11.6986
11.6886
11.6804
11.6736
11.6681
11.6636
11.6601
11.6573
11.6551
11.6534
11.6522
11.651
11.6504
11.6497
11.6494
11.6489
11.649
11.6485
11.6488
11.6484
11.6488
11.6484
11.649
11.6484
11.6491
11.6485
11.6494
11.6487
11.6498
11.6489
11.6501
11.6491
11.6505
11.6493
11.651
11.6496
11.6516
11.65
11.6522
11.6504
11.6529
11.6508
11.6537
11.6513
11.6543
11.6517
11.6551
11.6523
11.656
11.6528
11.6568
11.6534
11.6577
11.654
11.6585
11.6546
11.6594
11.6552
11.6603
11.6559
11.6612
11.6565
11.662
11.6571
11.6627
11.6577
11.6633
11.6582
11.6639
11.6586
11.6644
11.6591
11.6648
11.6594
11.6651
11.6597
11.6654
11.66
11.6655
11.6602
11.6656
11.6604
11.6656
11.6604
11.6656
11.6604
11.6654
11.6604
11.6651
11.6603
11.6648
11.6601
11.6645
11.6599
11.664
11.6597
11.6636
11.6594
11.663
11.659
11.6624
11.6586
11.6618
11.6582
11.6612
11.6577
11.6605
11.6572
11.6597
11.6567
11.659
11.6562
11.6583
11.6556
11.6574
11.655
11.6567
11.6545
11.656
11.6539
11.6553
11.6533
11.6546
11.6528
11.654
11.6523
11.6533
11.6518
11.6527
11.6513
11.6521
11.6509
11.6515
11.6503
11.6509
11.6499
11.6504
11.6494
11.6499
11.6489
11.6494
11.6485
11.6489
11.6481
11.6484
11.6476
11.6479
11.6472
11.6476
11.647
11.6472
11.6466
11.6468
11.6463
11.6465
11.6461
11.6463
11.6459
11.6461
11.6457
11.6459
11.6455
11.6457
11.6453
11.6455
11.6452
11.6453
11.645
11.6452
11.6449
11.645
11.6447
11.6448
11.6445
11.6447
11.6445
11.6446
11.6444
11.6443
11.6441
11.644
11.6438
11.6441
11.6441
11.6442
11.6441
11.644
11.6437
11.6439
11.6439
11.6442
11.6443
11.644
11.645
11.6449
11.6446
11.6446
11.6443
11.6482
11.6572
11.6698
11.6185
12.0157
13.3897
12.7909
12.1953
11.6965
0.292944
0.527796
0.858287
1.18881
1.51867
1.846
2.24677
2.69329
3.16622
3.67277
4.30505
5.01639
5.74529
6.45022
7.07299
7.60222
8.01613
8.30321
8.51803
8.65341
8.70754
8.69041
8.61788
8.51165
8.38363
8.2541
8.13147
8.01937
7.91757
7.82644
7.74487
7.67185
7.60693
7.54963
7.49977
7.45645
7.41889
7.38633
7.35819
7.33386
7.31289
7.29479
7.27923
7.26583
7.25433
7.24444
7.23596
7.22867
7.22242
7.21701
7.21245
7.20847
7.20639
7.20306
7.21088
7.20558
7.21624
7.23711
7.26765
7.35522
7.54442
7.84485
8.07731
8.61784
9.03056
9.48447
9.91611
10.299
10.6157
10.8649
11.0585
11.1974
11.2859
11.3379
11.3644
11.3721
11.3657
11.3487
11.3237
11.2932
11.2592
11.2228
11.1837
11.1452
11.1082
11.0734
11.0415
11.013
10.9879
10.9659
10.947
10.9308
10.9171
10.9055
10.8958
10.8877
10.8811
10.8757
10.8713
10.8678
10.865
10.8628
10.8611
10.8598
10.8587
10.858
10.8573
10.857
10.8566
10.8565
10.8562
10.8563
10.8561
10.8563
10.856
10.8563
10.856
10.8564
10.8562
10.8567
10.8564
10.8569
10.8565
10.8572
10.8567
10.8575
10.8569
10.8579
10.8573
10.8584
10.8577
10.8589
10.8581
10.8594
10.8585
10.8599
10.8589
10.8604
10.8593
10.8611
10.8599
10.8618
10.8604
10.8625
10.861
10.8631
10.8615
10.8638
10.8621
10.8645
10.8627
10.8653
10.8634
10.866
10.8639
10.8666
10.8644
10.8672
10.8649
10.8677
10.8654
10.8682
10.8659
10.8687
10.8663
10.869
10.8665
10.8693
10.8668
10.8695
10.8671
10.8697
10.8673
10.8698
10.8674
10.8699
10.8674
10.8698
10.8674
10.8697
10.8674
10.8696
10.8673
10.8694
10.8671
10.8691
10.8669
10.8687
10.8666
10.8684
10.8663
10.868
10.866
10.8675
10.8656
10.867
10.8652
10.8664
10.8647
10.8659
10.8643
10.8653
10.8638
10.8647
10.8632
10.8641
10.8627
10.8634
10.8621
10.8628
10.8616
10.8622
10.8611
10.8616
10.8605
10.861
10.86
10.8604
10.8595
10.8599
10.859
10.8594
10.8586
10.8589
10.8581
10.8583
10.8576
10.8578
10.8572
10.8574
10.8568
10.8568
10.8562
10.8563
10.8559
10.856
10.8555
10.8555
10.855
10.8551
10.8546
10.8547
10.8543
10.8544
10.8541
10.8541
10.8538
10.8538
10.8535
10.8536
10.8534
10.8534
10.8532
10.8532
10.853
10.853
10.8528
10.8528
10.8527
10.8527
10.8525
10.8526
10.8524
10.8523
10.8522
10.8522
10.8521
10.8521
10.8519
10.8519
10.8517
10.8517
10.8516
10.8516
10.8515
10.8516
10.8515
10.8515
10.8514
10.8514
10.8514
10.8516
10.8516
10.8518
10.8518
10.8517
10.8522
10.8522
10.8519
10.8521
10.8517
10.8603
10.8625
10.8836
10.8926
11.1021
11.7334
11.2883
10.8243
10.4231
)
;

boundaryField
{
    inlet
    {
        type            fixedValue;
        value           uniform 0.18449;
    }
    outlet
    {
        type            zeroGradient;
    }
    sideWall
    {
        type            empty;
    }
    bed
    {
        type            omegaWallFunction;
        refValue        nonuniform List<scalar> 
300
(
132.937
146.46
134.899
124.337
117.743
114.953
113.818
113.678
113.86
114.238
114.686
115.146
115.59
116.057
116.502
116.957
117.437
117.91
118.391
118.871
119.349
119.826
120.311
120.801
121.267
121.691
122.071
122.404
122.691
122.939
123.151
123.331
123.481
123.602
123.7
123.782
123.85
123.908
123.956
123.999
124.033
124.064
124.088
124.111
124.128
124.145
124.157
124.172
124.176
124.196
124.179
124.232
124.14
124.343
123.937
124.782
122.99
126.383
114.044
136.795
176.321
163.812
165.293
164.399
154.466
156.59
155.74
156.303
156.225
156.372
156.366
156.367
156.366
156.366
156.364
156.341
156.323
156.297
156.265
156.232
156.193
156.164
156.137
156.108
156.084
156.059
156.038
156.015
156.003
155.998
155.987
155.982
155.973
155.969
155.964
155.958
155.958
155.964
155.964
155.963
155.967
155.958
155.967
155.952
155.966
155.945
155.966
155.952
155.974
155.95
155.977
155.945
155.978
155.937
155.979
155.927
155.98
155.932
155.989
155.927
155.994
155.92
155.995
155.91
155.999
155.899
156.003
155.902
156.014
155.896
156.02
155.888
156.023
155.878
156.025
155.868
156.026
155.859
156.04
155.858
156.047
155.852
156.049
155.845
156.05
155.837
156.049
155.831
156.061
155.833
156.065
155.83
156.065
155.826
156.063
155.821
156.061
155.816
156.058
155.826
156.062
155.829
156.06
155.829
156.056
155.828
156.051
155.827
156.045
155.84
156.047
155.845
156.043
155.848
156.037
155.85
156.03
155.85
156.025
155.865
156.025
155.871
156.021
155.875
156.015
155.877
156.009
155.877
156.002
155.892
156.003
155.898
155.999
155.899
155.994
155.901
155.987
155.902
155.982
155.914
155.983
155.917
155.98
155.92
155.972
155.92
155.965
155.92
155.971
155.928
155.969
155.927
155.964
155.928
155.962
155.926
155.958
155.935
155.96
155.935
155.957
155.935
155.95
155.933
155.948
155.932
155.951
155.936
155.95
155.935
155.947
155.929
155.946
155.924
155.938
155.933
155.942
155.929
155.94
155.932
155.936
155.922
155.934
155.93
155.939
155.934
155.938
155.93
155.936
155.925
155.932
155.931
155.935
155.928
155.934
155.929
155.93
155.92
155.928
155.928
155.932
155.93
155.932
155.925
155.928
155.919
155.925
155.925
155.926
155.925
155.924
155.923
155.921
155.921
155.929
155.927
155.929
155.927
155.932
155.917
155.932
155.929
155.922
155.941
155.908
155.955
155.944
155.896
155.92
155.889
155.957
155.794
156.184
154.091
160.096
170.946
123.825
106.427
118.509
119.858
)
;
        value           nonuniform List<scalar> 
300
(
132.937
146.46
134.899
124.337
117.743
114.953
113.818
113.678
113.86
114.238
114.686
115.146
115.59
116.057
116.502
116.957
117.437
117.91
118.391
118.871
119.349
119.826
120.311
120.801
121.267
121.691
122.071
122.404
122.691
122.939
123.151
123.331
123.481
123.602
123.7
123.782
123.85
123.908
123.956
123.999
124.033
124.064
124.088
124.111
124.128
124.145
124.157
124.172
124.176
124.196
124.179
124.232
124.14
124.343
123.937
124.782
122.99
126.383
114.044
136.795
176.321
163.812
165.293
164.399
154.466
156.59
155.74
156.303
156.225
156.372
156.366
156.367
156.366
156.366
156.364
156.341
156.323
156.297
156.265
156.232
156.193
156.164
156.137
156.108
156.084
156.059
156.038
156.015
156.003
155.998
155.987
155.982
155.973
155.969
155.964
155.958
155.958
155.964
155.964
155.963
155.967
155.958
155.967
155.952
155.966
155.945
155.966
155.952
155.974
155.95
155.977
155.945
155.978
155.937
155.979
155.927
155.98
155.932
155.989
155.927
155.994
155.92
155.995
155.91
155.999
155.899
156.003
155.902
156.014
155.896
156.02
155.888
156.023
155.878
156.025
155.868
156.026
155.859
156.04
155.858
156.047
155.852
156.049
155.845
156.05
155.837
156.049
155.831
156.061
155.833
156.065
155.83
156.065
155.826
156.063
155.821
156.061
155.816
156.058
155.826
156.062
155.829
156.06
155.829
156.056
155.828
156.051
155.827
156.045
155.84
156.047
155.845
156.043
155.848
156.037
155.85
156.03
155.85
156.025
155.865
156.025
155.871
156.021
155.875
156.015
155.877
156.009
155.877
156.002
155.892
156.003
155.898
155.999
155.899
155.994
155.901
155.987
155.902
155.982
155.914
155.983
155.917
155.98
155.92
155.972
155.92
155.965
155.92
155.971
155.928
155.969
155.927
155.964
155.928
155.962
155.926
155.958
155.935
155.96
155.935
155.957
155.935
155.95
155.933
155.948
155.932
155.951
155.936
155.95
155.935
155.947
155.929
155.946
155.924
155.938
155.933
155.942
155.929
155.94
155.932
155.936
155.922
155.934
155.93
155.939
155.934
155.938
155.93
155.936
155.925
155.932
155.931
155.935
155.928
155.934
155.929
155.93
155.92
155.928
155.928
155.932
155.93
155.932
155.925
155.928
155.919
155.925
155.925
155.926
155.925
155.924
155.923
155.921
155.921
155.929
155.927
155.929
155.927
155.932
155.917
155.932
155.929
155.922
155.941
155.908
155.955
155.944
155.896
155.92
155.889
155.957
155.794
156.184
154.091
160.096
170.946
123.825
106.427
118.509
119.858
)
;
        Cmu             0.09;
        kappa           0.41;
        E               9.8;
        beta1           0.075;
    }
    topWall
    {
        type            slip;
        value           nonuniform List<scalar> 
300
(
0.292944
0.527796
0.858287
1.18881
1.51867
1.846
2.24677
2.69329
3.16622
3.67277
4.30505
5.01639
5.74529
6.45022
7.07299
7.60222
8.01613
8.30321
8.51803
8.65341
8.70754
8.69041
8.61788
8.51165
8.38363
8.2541
8.13147
8.01937
7.91757
7.82644
7.74487
7.67185
7.60693
7.54963
7.49977
7.45645
7.41889
7.38633
7.35819
7.33386
7.31289
7.29479
7.27923
7.26583
7.25433
7.24444
7.23596
7.22867
7.22242
7.21701
7.21245
7.20847
7.20639
7.20306
7.21088
7.20558
7.21624
7.23711
7.26765
7.35522
7.54442
7.84485
8.07731
8.61784
9.03056
9.48447
9.91611
10.299
10.6157
10.8649
11.0585
11.1974
11.2859
11.3379
11.3644
11.3721
11.3657
11.3487
11.3237
11.2932
11.2592
11.2228
11.1837
11.1452
11.1082
11.0734
11.0415
11.013
10.9879
10.9659
10.947
10.9308
10.9171
10.9055
10.8958
10.8877
10.8811
10.8757
10.8713
10.8678
10.865
10.8628
10.8611
10.8598
10.8587
10.858
10.8573
10.857
10.8566
10.8565
10.8562
10.8563
10.8561
10.8563
10.856
10.8563
10.856
10.8564
10.8562
10.8567
10.8564
10.8569
10.8565
10.8572
10.8567
10.8575
10.8569
10.8579
10.8573
10.8584
10.8577
10.8589
10.8581
10.8594
10.8585
10.8599
10.8589
10.8604
10.8593
10.8611
10.8599
10.8618
10.8604
10.8625
10.861
10.8631
10.8615
10.8638
10.8621
10.8645
10.8627
10.8653
10.8634
10.866
10.8639
10.8666
10.8644
10.8672
10.8649
10.8677
10.8654
10.8682
10.8659
10.8687
10.8663
10.869
10.8665
10.8693
10.8668
10.8695
10.8671
10.8697
10.8673
10.8698
10.8674
10.8699
10.8674
10.8698
10.8674
10.8697
10.8674
10.8696
10.8673
10.8694
10.8671
10.8691
10.8669
10.8687
10.8666
10.8684
10.8663
10.868
10.866
10.8675
10.8656
10.867
10.8652
10.8664
10.8647
10.8659
10.8643
10.8653
10.8638
10.8647
10.8632
10.8641
10.8627
10.8634
10.8621
10.8628
10.8616
10.8622
10.8611
10.8616
10.8605
10.861
10.86
10.8604
10.8595
10.8599
10.859
10.8594
10.8586
10.8589
10.8581
10.8583
10.8576
10.8578
10.8572
10.8574
10.8568
10.8568
10.8562
10.8563
10.8559
10.856
10.8555
10.8555
10.855
10.8551
10.8546
10.8547
10.8543
10.8544
10.8541
10.8541
10.8538
10.8538
10.8535
10.8536
10.8534
10.8534
10.8532
10.8532
10.853
10.853
10.8528
10.8528
10.8527
10.8527
10.8525
10.8526
10.8524
10.8523
10.8522
10.8522
10.8521
10.8521
10.8519
10.8519
10.8517
10.8517
10.8516
10.8516
10.8515
10.8516
10.8515
10.8515
10.8514
10.8514
10.8514
10.8516
10.8516
10.8518
10.8518
10.8517
10.8522
10.8522
10.8519
10.8521
10.8517
10.8603
10.8625
10.8836
10.8926
11.1021
11.7334
11.2883
10.8243
10.4231
)
;
    }
}


// ************************************************************************* //
