/*--------------------------------*- C++ -*----------------------------------*\
| =========                 |                                                 |
| \\      /  F ield         | foam-extend: Open Source CFD                    |
|  \\    /   O peration     | Version:     3.2                                |
|   \\  /    A nd           | Web:         http://www.foam-extend.org         |
|    \\/     M anipulation  | For copyright notice see file Copyright         |
\*---------------------------------------------------------------------------*/
FoamFile
{
    version     2.0;
    format      ascii;
    class       volScalarField;
    location    "2020";
    object      p;
}
// * * * * * * * * * * * * * * * * * * * * * * * * * * * * * * * * * * * * * //

dimensions      [1 -1 -2 0 0 0 0];

internalField   nonuniform List<scalar> 
2400
(
693.116
689.97
690.435
690.263
691.184
692.051
693.242
694.36
695.595
696.807
698.052
699.289
700.551
701.813
703.078
704.355
705.619
706.89
708.155
709.423
710.688
711.953
713.207
714.443
715.659
716.861
718.045
719.215
720.371
721.516
722.649
723.773
724.89
726.001
727.107
728.21
729.308
730.404
731.497
732.588
733.677
734.764
735.85
736.936
738.019
739.103
740.184
741.268
742.346
743.435
744.496
745.618
746.609
747.872
748.573
750.434
749.896
754.333
748.119
739.713
690.195
670.293
683.404
662.044
679.71
672.534
674.733
673.61
674.154
674.371
674.828
675.35
675.871
676.405
676.896
677.374
677.788
678.153
678.457
678.709
678.901
679.043
679.125
679.176
679.185
679.167
679.122
679.055
678.969
678.854
678.739
678.61
678.479
678.344
678.203
678.064
677.916
677.764
677.612
677.463
677.314
677.161
677.024
676.864
676.736
676.569
676.447
676.263
676.149
675.962
675.857
675.662
675.571
675.365
675.29
675.068
675.008
674.758
674.715
674.45
674.429
674.145
674.149
673.841
673.871
673.535
673.592
673.216
673.303
672.899
673.02
672.585
672.742
672.272
672.467
671.961
672.194
671.646
671.91
671.319
671.628
670.997
671.35
670.679
671.073
670.365
670.797
670.05
670.509
669.724
670.222
669.405
669.938
669.092
669.655
668.784
669.372
668.48
669.085
668.166
668.785
667.859
668.488
667.558
668.194
667.263
667.902
666.972
667.606
666.671
667.3
666.376
666.997
666.088
666.697
665.804
666.399
665.524
666.098
665.234
665.787
664.95
665.48
664.67
665.177
664.394
664.876
664.122
664.574
663.839
664.262
663.561
663.955
663.287
663.652
663.015
663.352
662.746
663.052
662.467
662.742
662.19
662.436
661.918
662.139
661.648
661.841
661.377
661.536
661.096
661.234
660.819
660.936
660.545
660.642
660.271
660.343
659.984
660.04
659.705
659.744
659.429
659.452
659.154
659.158
658.874
658.862
658.591
658.566
658.308
658.273
658.027
657.986
657.753
657.701
657.462
657.402
657.177
657.108
656.891
656.821
656.617
656.535
656.325
656.235
656.032
655.939
655.748
655.652
655.467
655.366
655.175
655.067
654.885
654.777
654.599
654.494
654.322
654.206
654.025
653.907
653.734
653.617
653.453
653.334
653.169
653.045
652.875
652.752
652.588
652.466
652.305
652.177
652.017
651.876
651.717
651.584
651.428
651.297
651.142
651.01
650.841
650.714
650.552
650.398
650.276
650.082
650.008
649.863
649.689
649.621
649.295
649.527
647.771
645.2
645.327
671.967
717.788
709.165
714.607
656.41
653.378
653.805
653.63
654.552
655.418
656.607
657.724
658.959
660.17
661.414
662.65
663.912
665.173
666.438
667.715
668.979
670.249
671.514
672.782
674.047
675.312
676.566
677.802
679.018
680.219
681.403
682.574
683.73
684.875
686.008
687.132
688.249
689.36
690.467
691.569
692.668
693.763
694.856
695.947
697.036
698.124
699.21
700.295
701.379
702.462
703.544
704.628
705.705
706.795
707.855
708.978
709.969
711.232
711.933
713.793
713.257
717.705
711.201
703.003
654.359
634.299
647.346
626.095
643.489
636.449
638.612
637.504
638.037
638.252
638.702
639.217
639.731
640.259
640.744
641.217
641.625
641.986
642.286
642.535
642.724
642.863
642.944
642.993
643.001
642.982
642.936
642.868
642.782
642.667
642.552
642.423
642.291
642.156
642.015
641.876
641.728
641.576
641.424
641.275
641.127
640.974
640.837
640.677
640.549
640.381
640.26
640.076
639.961
639.774
639.67
639.475
639.384
639.177
639.102
638.88
638.82
638.57
638.528
638.263
638.242
637.957
637.961
637.654
637.683
637.348
637.404
637.029
637.115
636.712
636.832
636.398
636.554
636.085
636.28
635.774
636.006
635.459
635.722
635.133
635.441
634.811
635.162
634.493
634.885
634.179
634.609
633.863
634.321
633.538
634.035
633.219
633.75
632.906
633.467
632.598
633.184
632.294
632.897
631.981
632.597
631.674
632.3
631.373
632.006
631.077
631.714
630.786
631.418
630.486
631.112
630.191
630.809
629.902
630.509
629.619
630.211
629.338
629.91
629.049
629.6
628.764
629.292
628.484
628.989
628.209
628.688
627.936
628.386
627.654
628.074
627.375
627.767
627.101
627.464
626.829
627.165
626.56
626.864
626.281
626.555
626.004
626.249
625.732
625.951
625.462
625.653
625.191
625.348
624.909
625.046
624.632
624.748
624.358
624.454
624.084
624.156
623.797
623.853
623.518
623.557
623.242
623.264
622.967
622.97
622.686
622.674
622.403
622.378
622.121
622.086
621.84
621.798
621.565
621.513
621.275
621.214
620.99
620.921
620.704
620.633
620.429
620.347
620.138
620.047
619.844
619.751
619.561
619.464
619.279
619.178
618.988
618.88
618.698
618.589
618.412
618.306
618.134
618.018
617.837
617.719
617.546
617.429
617.265
617.146
616.981
616.857
616.687
616.564
616.4
616.278
616.117
615.989
615.828
615.688
615.529
615.396
615.24
615.109
614.955
614.822
614.653
614.526
614.364
614.21
614.089
613.895
613.82
613.675
613.501
613.433
613.107
613.337
611.536
609.078
609.515
635.603
680.874
672.511
677.956
619.681
616.744
617.193
617.019
617.929
618.789
619.974
621.09
622.323
623.533
624.776
626.012
627.273
628.534
629.798
631.076
632.339
633.609
634.874
636.142
637.407
638.672
639.925
641.161
642.377
643.579
644.763
645.933
647.089
648.234
649.367
650.492
651.608
652.719
653.826
654.928
656.027
657.123
658.216
659.307
660.396
661.484
662.569
663.655
664.738
665.822
666.903
667.987
669.065
670.154
671.215
672.338
673.329
674.591
675.292
677.153
676.614
681.067
674.267
666.81
619.476
599.583
612.516
591.45
608.475
601.578
603.701
602.603
603.118
603.32
603.752
604.247
604.742
605.25
605.718
606.173
606.566
606.913
607.201
607.439
607.62
607.751
607.826
607.87
607.874
607.852
607.803
607.733
607.645
607.529
607.413
607.284
607.152
607.017
606.875
606.736
606.588
606.437
606.285
606.136
605.987
605.835
605.697
605.538
605.409
605.242
605.12
604.937
604.822
604.635
604.531
604.336
604.245
604.038
603.963
603.741
603.681
603.431
603.388
603.124
603.102
602.819
602.822
602.515
602.544
602.209
602.265
601.89
601.976
601.574
601.694
601.26
601.416
600.947
601.141
600.636
600.867
600.321
600.583
599.995
600.302
599.674
600.023
599.356
599.747
599.042
599.471
598.726
599.183
598.401
598.897
598.083
598.612
597.77
598.329
597.462
598.046
597.157
597.759
596.844
597.46
596.538
597.163
596.237
596.869
595.942
596.577
595.65
596.281
595.35
595.975
595.055
595.672
594.767
595.372
594.483
595.074
594.203
594.773
593.913
594.462
593.628
594.155
593.348
593.852
593.073
593.551
592.8
593.248
592.517
592.937
592.239
592.63
591.965
592.327
591.693
592.027
591.423
591.726
591.144
591.417
590.867
591.111
590.594
590.813
590.324
590.514
590.053
590.21
589.772
589.907
589.494
589.61
589.22
589.315
588.945
589.017
588.659
588.714
588.38
588.418
588.103
588.125
587.827
587.831
587.547
587.534
587.264
587.239
586.981
586.946
586.7
586.658
586.425
586.373
586.135
586.074
585.85
585.781
585.564
585.492
585.289
585.207
584.997
584.907
584.704
584.611
584.421
584.323
584.138
584.038
583.847
583.739
583.558
583.449
583.271
583.165
582.994
582.877
582.696
582.578
582.406
582.288
582.125
582.005
581.84
581.716
581.546
581.424
581.26
581.137
580.977
580.847
580.687
580.547
580.388
580.256
580.1
579.969
579.814
579.681
579.511
579.384
579.224
579.07
578.949
578.755
578.678
578.534
578.36
578.291
577.966
578.192
576.375
574.134
574.675
599.684
643.965
635.865
641.293
582.984
580.123
580.569
580.387
581.301
582.157
583.342
584.455
585.687
586.898
588.14
589.376
590.636
591.897
593.16
594.437
595.7
596.97
598.235
599.502
600.767
602.032
603.285
604.521
605.737
606.938
608.122
609.292
610.449
611.594
612.727
613.851
614.968
616.079
617.186
618.288
619.387
620.483
621.576
622.667
623.755
624.843
625.929
627.014
628.098
629.182
630.263
631.347
632.425
633.514
634.574
635.697
636.688
637.951
638.652
640.512
639.97
644.415
637.404
631.302
586.245
566.719
579.552
558.817
575.335
568.574
570.664
569.567
570.057
570.232
570.627
571.085
571.542
572.013
572.445
572.866
573.228
573.548
573.812
574.028
574.19
574.307
574.369
574.402
574.398
574.369
574.315
574.24
574.15
574.032
573.915
573.784
573.652
573.516
573.374
573.235
573.087
572.936
572.784
572.635
572.487
572.334
572.197
572.037
571.909
571.741
571.62
571.437
571.322
571.136
571.031
570.836
570.745
570.539
570.463
570.241
570.18
569.932
569.889
569.625
569.603
569.32
569.322
569.016
569.044
568.71
568.764
568.392
568.477
568.076
568.194
567.762
567.916
567.449
567.641
567.138
567.367
566.824
567.084
566.499
566.803
566.178
566.525
565.86
566.248
565.546
565.971
565.231
565.684
564.907
565.399
564.589
565.114
564.276
564.831
563.968
564.548
563.664
564.261
563.351
563.963
563.045
563.666
562.745
563.372
562.449
563.079
562.157
562.784
561.858
562.478
561.563
562.175
561.274
561.875
560.99
561.577
560.71
561.276
560.42
560.966
560.136
560.659
559.856
560.355
559.58
560.054
559.306
559.751
559.023
559.44
558.745
559.133
558.471
558.83
558.198
558.529
557.928
558.228
557.648
557.919
557.371
557.613
557.098
557.315
556.827
557.016
556.556
556.711
556.274
556.409
555.997
556.11
555.722
555.816
555.447
555.517
555.161
555.214
554.881
554.918
554.604
554.625
554.328
554.33
554.047
554.034
553.764
553.738
553.481
553.445
553.2
553.157
552.924
552.871
552.634
552.573
552.349
552.279
552.062
551.99
551.787
551.704
551.496
551.405
551.203
551.109
550.919
550.821
550.636
550.535
550.345
550.237
550.056
549.947
549.769
549.662
549.49
549.374
549.194
549.076
548.903
548.786
548.622
548.502
548.336
548.212
548.043
547.921
547.757
547.635
547.474
547.343
547.182
547.043
546.885
546.754
546.599
546.467
546.311
546.177
546.006
545.879
545.721
545.567
545.448
545.253
545.174
545.03
544.856
544.787
544.462
544.685
542.894
540.988
541.404
564.473
607.084
599.208
604.63
546.278
543.489
543.935
543.752
544.671
545.523
546.704
547.819
549.051
550.261
551.504
552.739
553.999
555.26
556.523
557.8
559.063
560.332
561.597
562.864
564.128
565.393
566.646
567.881
569.097
570.298
571.482
572.652
573.809
574.954
576.087
577.211
578.327
579.439
580.545
581.648
582.746
583.842
584.935
586.026
587.115
588.203
589.289
590.374
591.457
592.541
593.623
594.706
595.784
596.874
597.934
599.057
600.048
601.311
602.012
603.872
603.327
607.756
600.67
596.706
555.075
536.138
549.091
528.597
544.558
537.921
539.98
538.882
539.334
539.467
539.807
540.206
540.604
541.016
541.392
541.761
542.075
542.352
542.577
542.76
542.893
542.986
543.029
543.046
543.028
542.988
542.926
542.845
542.749
542.629
542.509
542.377
542.243
542.107
541.964
541.824
541.677
541.526
541.375
541.226
541.078
540.926
540.788
540.628
540.5
540.332
540.211
540.029
539.914
539.728
539.623
539.429
539.337
539.131
539.054
538.833
538.772
538.524
538.48
538.218
538.195
537.912
537.914
537.608
537.635
537.302
537.356
536.985
537.069
536.67
536.787
536.357
536.509
536.044
536.234
535.733
535.96
535.419
535.677
535.095
535.397
534.775
535.119
534.457
534.842
534.144
534.566
533.829
534.279
533.506
533.994
533.189
533.71
532.877
533.427
532.569
533.144
532.264
532.858
531.953
532.56
531.647
532.264
531.347
531.969
531.052
531.677
530.759
531.381
530.46
531.076
530.166
530.774
529.877
530.473
529.593
530.175
529.312
529.874
529.023
529.564
528.738
529.257
528.458
528.953
528.181
528.651
527.907
528.348
527.624
528.037
527.346
527.73
527.071
527.426
526.797
527.125
526.526
526.824
526.247
526.515
525.97
526.208
525.696
525.909
525.424
525.61
525.152
525.305
524.87
525.003
524.592
524.704
524.317
524.408
524.041
524.109
523.755
523.807
523.475
523.51
523.197
523.217
522.92
522.921
522.639
522.624
522.356
522.329
522.072
522.035
521.79
521.746
521.514
521.46
521.224
521.162
520.938
520.868
520.652
520.579
520.375
520.292
520.084
519.993
519.792
519.698
519.507
519.409
519.224
519.122
518.933
518.825
518.644
518.535
518.357
518.249
518.077
517.961
517.781
517.663
517.491
517.374
517.21
517.089
516.922
516.797
516.629
516.508
516.345
516.222
516.06
515.929
515.768
515.628
515.471
515.341
515.187
515.055
514.898
514.763
514.591
514.464
514.308
514.155
514.037
513.842
513.759
513.615
513.441
513.371
513.049
513.269
511.55
510.112
510.104
530.145
570.288
562.544
567.969
509.604
506.844
507.29
507.116
508.033
508.883
510.063
511.18
512.413
513.623
514.865
516.101
517.362
518.622
519.886
521.162
522.425
523.695
524.96
526.227
527.491
528.755
530.007
531.242
532.458
533.659
534.843
536.013
537.169
538.314
539.447
540.571
541.687
542.799
543.905
545.008
546.106
547.202
548.295
549.386
550.475
551.563
552.648
553.734
554.817
555.901
556.982
558.066
559.144
560.233
561.294
562.416
563.408
564.67
565.371
567.231
566.685
571.095
564.09
563.187
526.24
508.133
521.403
501.083
516.439
509.905
511.939
510.837
511.24
511.315
511.583
511.902
512.22
512.554
512.856
513.153
513.403
513.62
513.794
513.931
514.025
514.086
514.102
514.097
514.061
514.006
513.932
513.842
513.74
513.615
513.492
513.358
513.223
513.085
512.942
512.801
512.654
512.504
512.353
512.205
512.058
511.905
511.768
511.608
511.479
511.311
511.19
511.008
510.894
510.708
510.603
510.409
510.317
510.111
510.034
509.812
509.751
509.504
509.461
509.199
509.175
508.893
508.894
508.589
508.616
508.283
508.337
507.967
508.051
507.653
507.769
507.34
507.492
507.028
507.216
506.716
506.942
506.403
506.66
506.08
506.381
505.761
506.103
505.444
505.827
505.131
505.55
504.817
505.265
504.495
504.981
504.179
504.698
503.867
504.415
503.56
504.132
503.255
503.845
502.945
503.548
502.64
503.253
502.34
502.959
502.045
502.666
501.752
502.37
501.454
502.066
501.16
501.764
500.871
501.463
500.587
501.164
500.304
500.863
500.016
500.554
499.732
500.247
499.451
499.942
499.174
499.639
498.898
499.336
498.616
499.026
498.337
498.718
498.062
498.413
497.787
498.111
497.515
497.809
497.236
497.5
496.958
497.194
496.683
496.894
496.41
496.593
496.137
496.289
495.856
495.986
495.577
495.686
495.3
495.39
495.023
495.091
494.737
494.788
494.457
494.491
494.179
494.197
493.901
493.9
493.619
493.603
493.335
493.308
493.052
493.014
492.768
492.724
492.491
492.437
492.201
492.138
491.915
491.844
491.628
491.554
491.35
491.267
491.06
490.969
490.768
490.673
490.483
490.384
490.199
490.097
489.908
489.8
489.619
489.509
489.331
489.223
489.051
488.934
488.755
488.637
488.466
488.348
488.184
488.062
487.894
487.77
487.602
487.48
487.318
487.195
487.033
486.901
486.74
486.601
486.444
486.315
486.161
486.029
485.872
485.736
485.564
485.437
485.281
485.129
485.013
484.816
484.729
484.585
484.412
484.341
484.023
484.241
482.639
481.797
481.059
496.847
533.628
525.871
531.312
472.958
470.203
470.638
470.469
471.39
472.24
473.422
474.538
475.771
476.982
478.224
479.462
480.723
481.983
483.247
484.525
485.788
487.057
488.322
489.589
490.852
492.116
493.369
494.604
495.819
497.02
498.203
499.373
500.529
501.674
502.807
503.931
505.047
506.159
507.265
508.368
509.466
510.562
511.655
512.746
513.835
514.922
516.008
517.094
518.177
519.261
520.342
521.426
522.504
523.593
524.653
525.776
526.767
528.03
528.731
530.59
530.045
534.427
527.655
530.869
499.856
482.865
496.552
476.392
491.083
484.641
486.651
485.541
485.885
485.892
486.071
486.294
486.516
486.754
486.964
487.174
487.344
487.491
487.6
487.682
487.728
487.748
487.731
487.699
487.64
487.568
487.479
487.378
487.268
487.138
487.012
486.875
486.738
486.598
486.454
486.313
486.166
486.016
485.866
485.719
485.572
485.419
485.282
485.122
484.993
484.825
484.705
484.523
484.41
484.224
484.119
483.924
483.832
483.626
483.549
483.326
483.266
483.02
482.977
482.715
482.692
482.41
482.41
482.105
482.131
481.799
481.853
481.484
481.568
481.171
481.287
480.858
481.01
480.546
480.735
480.235
480.46
479.922
480.18
479.601
479.902
479.282
479.625
478.966
479.348
478.653
479.072
478.34
478.788
478.02
478.506
477.705
478.223
477.394
477.94
477.086
477.657
476.782
477.371
476.473
477.075
476.17
476.78
475.87
476.486
475.574
476.193
475.281
475.898
474.984
475.594
474.691
475.292
474.402
474.992
474.117
474.692
473.834
474.39
473.546
474.082
473.262
473.774
472.981
473.469
472.703
473.166
472.426
472.862
472.144
472.552
471.865
472.244
471.589
471.938
471.313
471.635
471.039
471.332
470.76
471.023
470.482
470.716
470.206
470.415
469.932
470.113
469.658
469.808
469.377
469.505
469.097
469.204
468.819
468.907
468.541
468.608
468.255
468.305
467.975
468.007
467.695
467.712
467.416
467.414
467.133
467.117
466.85
466.821
466.565
466.526
466.281
466.235
466.001
465.947
465.712
465.649
465.426
465.354
465.139
465.064
464.859
464.776
464.569
464.478
464.277
464.182
463.992
463.893
463.707
463.605
463.417
463.308
463.127
463.017
462.839
462.73
462.558
462.441
462.263
462.144
461.973
461.855
461.69
461.568
461.401
461.276
461.108
460.986
460.824
460.7
460.539
460.407
460.246
460.108
459.951
459.821
459.667
459.535
459.378
459.243
459.072
458.944
458.79
458.636
458.522
458.324
458.233
458.089
457.915
457.844
457.53
457.748
456.298
456.172
454.435
464.654
497.132
489.193
494.662
436.339
433.568
433.991
433.822
434.745
435.597
436.778
437.896
439.129
440.341
441.583
442.821
444.083
445.343
446.607
447.886
449.148
450.418
451.683
452.949
454.213
455.477
456.73
457.965
459.179
460.38
461.564
462.733
463.889
465.034
466.167
467.291
468.407
469.518
470.625
471.727
472.826
473.922
475.015
476.106
477.194
478.282
479.368
480.453
481.537
482.62
483.702
484.786
485.863
486.953
488.013
489.136
490.127
491.39
492.091
493.949
493.407
497.752
491.356
499.768
475.952
460.326
474.465
454.472
468.453
462.095
464.083
462.961
463.239
463.169
463.248
463.363
463.474
463.605
463.71
463.822
463.901
463.966
464.003
464.021
464.012
463.986
463.931
463.868
463.784
463.69
463.585
463.471
463.353
463.217
463.086
462.946
462.806
462.665
462.52
462.378
462.231
462.082
461.933
461.786
461.639
461.487
461.349
461.189
461.06
460.892
460.773
460.592
460.479
460.293
460.188
459.994
459.901
459.694
459.617
459.394
459.335
459.089
459.046
458.785
458.762
458.48
458.48
458.175
458.201
457.868
457.923
457.555
457.64
457.243
457.36
456.931
457.083
456.619
456.807
456.307
456.533
455.995
456.254
455.676
455.978
455.359
455.701
455.043
455.425
454.73
455.149
454.418
454.867
454.1
454.586
453.786
454.304
453.476
454.021
453.168
453.738
452.863
453.452
452.556
453.158
452.254
452.864
451.955
452.57
451.659
452.276
451.366
451.981
451.07
451.679
450.778
451.377
450.489
451.076
450.203
450.775
449.919
450.474
449.632
450.166
449.348
449.859
449.066
449.553
448.787
449.248
448.509
448.944
448.228
448.634
447.949
448.325
447.671
448.019
447.394
447.714
447.119
447.41
446.84
447.101
446.561
446.794
446.284
446.491
446.009
446.187
445.733
445.883
445.452
445.579
445.171
445.277
444.892
444.979
444.613
444.679
444.327
444.376
444.046
444.078
443.766
443.78
443.485
443.482
443.201
443.185
442.918
442.888
442.632
442.592
442.347
442.3
442.066
442.011
441.777
441.713
441.49
441.418
441.202
441.126
440.921
440.838
440.632
440.541
440.34
440.244
440.054
439.954
439.768
439.666
439.478
439.369
439.188
439.078
438.9
438.79
438.617
438.501
438.323
438.205
438.033
437.914
437.749
437.627
437.46
437.336
437.167
437.044
436.881
436.757
436.596
436.465
436.306
436.168
436.011
435.879
435.724
435.591
435.435
435.304
435.135
435.007
434.851
434.695
434.584
434.385
434.289
434.144
433.971
433.899
433.591
433.807
432.533
433.231
430.291
433.573
460.804
452.514
458.017
)
;

boundaryField
{
    inlet
    {
        type            calculated;
        value           nonuniform List<scalar> 8(691.894 655.189 618.46 581.763 545.057 508.383 471.736 435.117);
    }
    outlet
    {
        type            calculated;
        value           nonuniform List<scalar> 8(714.487 677.846 641.206 604.566 567.925 531.285 494.645 458.004);
    }
    sideWall
    {
        type            empty;
    }
    bed
    {
        type            calculated;
        value           nonuniform List<scalar> 
300
(
711.436
708.29
708.755
708.584
709.504
710.372
711.562
712.68
713.915
715.128
716.372
717.61
718.871
720.133
721.398
722.676
723.939
725.21
726.475
727.743
729.008
730.274
731.527
732.763
733.979
735.181
736.365
737.535
738.691
739.836
740.969
742.093
743.21
744.321
745.427
746.53
747.628
748.724
749.817
750.908
751.997
753.085
754.17
755.256
756.339
757.423
758.504
759.588
760.666
761.755
762.816
763.938
764.929
766.193
766.893
768.754
768.217
772.647
766.514
758.026
708.412
688.555
701.663
680.291
697.991
690.797
693.001
691.876
692.421
692.638
693.097
693.619
694.141
694.675
695.167
695.645
696.059
696.425
696.73
696.982
697.174
697.316
697.399
697.45
697.459
697.441
697.396
697.329
697.243
697.128
697.013
696.884
696.753
696.618
696.477
696.338
696.19
696.038
695.886
695.737
695.589
695.436
695.298
695.139
695.01
694.843
694.721
694.537
694.423
694.236
694.132
693.937
693.846
693.639
693.564
693.342
693.282
693.032
692.989
692.724
692.703
692.419
692.423
692.115
692.145
691.809
691.866
691.49
691.577
691.173
691.294
690.859
691.016
690.546
690.742
690.235
690.468
689.92
690.184
689.594
689.903
689.272
689.624
688.954
689.347
688.639
689.071
688.324
688.783
687.998
688.497
687.679
688.212
687.366
687.929
687.058
687.646
686.754
687.359
686.44
687.059
686.133
686.762
685.832
686.468
685.537
686.176
685.246
685.88
684.945
685.574
684.65
685.271
684.362
684.971
684.078
684.673
683.798
684.372
683.508
684.062
683.224
683.754
682.944
683.451
682.669
683.15
682.396
682.848
682.113
682.536
681.835
682.229
681.561
681.926
681.289
681.627
681.02
681.326
680.741
681.016
680.465
680.71
680.192
680.413
679.922
680.115
679.651
679.81
679.37
679.508
679.093
679.21
678.819
678.916
678.545
678.618
678.258
678.315
677.98
678.019
677.703
677.726
677.428
677.432
677.148
677.136
676.865
676.84
676.582
676.548
676.301
676.26
676.027
675.975
675.736
675.676
675.452
675.383
675.166
675.095
674.891
674.809
674.599
674.509
674.306
674.213
674.023
673.926
673.741
673.64
673.45
673.342
673.16
673.051
672.874
672.768
672.597
672.48
672.299
672.181
672.008
671.891
671.727
671.608
671.443
671.319
671.149
671.027
670.862
670.74
670.579
670.451
670.291
670.151
669.992
669.858
669.702
669.571
669.417
669.284
669.115
668.989
668.826
668.673
668.551
668.356
668.283
668.138
667.963
667.896
667.569
667.802
666.056
663.448
663.551
690.288
736.187
727.479
732.927
)
;
    }
    topWall
    {
        type            calculated;
        value           nonuniform List<scalar> 
300
(
418.019
415.248
415.671
415.502
416.425
417.276
418.458
419.576
420.809
422.021
423.263
424.501
425.763
427.023
428.286
429.566
430.828
432.098
433.362
434.629
435.893
437.157
438.41
439.644
440.859
442.06
443.243
444.413
445.569
446.714
447.847
448.971
450.087
451.198
452.305
453.407
454.506
455.602
456.694
457.785
458.874
459.962
461.048
462.133
463.216
464.3
465.382
466.465
467.543
468.632
469.693
470.816
471.807
473.069
473.771
475.629
475.088
479.414
473.24
484.589
464.649
449.716
464.119
444.168
457.81
451.489
453.467
452.337
452.581
452.47
452.496
452.555
452.609
452.683
452.734
452.794
452.826
452.847
452.846
452.83
452.793
452.743
452.668
452.588
452.491
452.386
452.272
452.151
452.029
451.89
451.756
451.615
451.474
451.332
451.186
451.044
450.897
450.749
450.6
450.453
450.307
450.154
450.017
449.857
449.728
449.56
449.44
449.26
449.147
448.961
448.857
448.662
448.57
448.362
448.285
448.062
448.003
447.757
447.715
447.453
447.431
447.148
447.149
446.843
446.869
446.536
446.592
446.224
446.31
445.913
446.031
445.601
445.753
445.289
445.478
444.977
445.203
444.665
444.926
444.347
444.65
444.03
444.374
443.715
444.098
443.402
443.822
443.09
443.541
442.773
443.26
442.46
442.979
442.15
442.696
441.842
442.413
441.537
442.128
441.231
441.835
440.93
441.541
440.631
441.247
440.335
440.953
440.041
440.658
439.746
440.357
439.454
440.055
439.165
439.753
438.879
439.452
438.595
439.15
438.308
438.843
438.024
438.536
437.743
438.229
437.463
437.924
437.184
437.619
436.903
437.309
436.624
437
436.346
436.693
436.068
436.388
435.792
436.084
435.513
435.775
435.234
435.467
434.957
435.164
434.68
434.859
434.404
434.554
434.123
434.25
433.842
433.948
433.562
433.649
433.282
433.348
432.997
433.045
432.715
432.747
432.434
432.449
432.153
432.15
431.868
431.852
431.585
431.556
431.299
431.259
431.013
430.966
430.731
430.677
430.442
430.379
430.155
430.083
429.867
429.791
429.585
429.502
429.296
429.206
429.005
428.909
428.718
428.618
428.432
428.33
428.143
428.033
427.852
427.742
427.564
427.454
427.28
427.164
426.986
426.868
426.696
426.577
426.412
426.29
426.123
425.999
425.83
425.707
425.543
425.418
425.258
425.128
424.97
424.832
424.674
424.541
424.385
424.253
424.097
423.968
423.8
423.672
423.515
423.358
423.248
423.048
422.95
422.805
422.632
422.56
422.254
422.47
421.292
422.436
418.797
418.193
442.68
434.177
439.698
)
;
    }
}


// ************************************************************************* //
