/*--------------------------------*- C++ -*----------------------------------*\
| =========                 |                                                 |
| \\      /  F ield         | foam-extend: Open Source CFD                    |
|  \\    /   O peration     | Version:     3.2                                |
|   \\  /    A nd           | Web:         http://www.foam-extend.org         |
|    \\/     M anipulation  | For copyright notice see file Copyright         |
\*---------------------------------------------------------------------------*/
FoamFile
{
    version     2.0;
    format      ascii;
    class       volScalarField;
    location    "2020";
    object      pd;
}
// * * * * * * * * * * * * * * * * * * * * * * * * * * * * * * * * * * * * * //

dimensions      [1 -1 -2 0 0 0 0];

internalField   nonuniform List<scalar> 
2400
(
710.214
704.626
702.649
700.034
698.512
696.937
695.684
694.36
693.152
691.922
690.724
689.519
688.338
687.157
685.979
684.814
683.635
682.463
681.286
680.111
678.933
677.756
676.567
675.36
674.133
672.892
671.633
670.361
669.075
667.777
666.467
665.149
663.822
662.491
661.155
659.814
658.47
657.123
655.774
654.422
653.068
651.713
650.356
648.999
647.639
646.281
644.919
643.56
642.196
640.842
639.46
638.14
636.688
635.509
633.766
633.185
630.205
632.192
623.617
633.325
609.459
591.986
604.805
581.719
593.628
584.537
584.157
580.551
578.364
575.811
573.397
571.014
568.628
566.261
563.871
561.49
559.08
556.66
554.216
551.758
549.279
546.786
544.269
541.747
539.206
536.659
534.103
531.539
528.974
526.392
523.816
521.232
518.648
516.064
513.475
510.89
508.3
505.71
503.118
500.528
497.939
495.344
492.764
490.161
487.59
484.978
482.417
479.793
477.238
474.609
472.063
469.424
466.891
464.239
461.721
459.053
456.554
453.862
451.381
448.673
446.211
443.482
441.045
438.291
435.88
433.099
430.718
427.901
425.551
422.704
420.386
417.506
415.224
412.308
410.064
407.11
404.904
401.913
399.742
396.708
394.581
391.505
389.42
386.304
384.26
381.105
379.098
375.908
373.933
370.705
368.767
365.506
363.6
360.31
358.433
355.117
353.264
349.927
348.094
344.735
342.916
339.548
337.737
334.364
332.557
329.183
327.378
324.004
322.198
318.823
317.01
313.646
311.823
308.472
306.636
303.3
301.449
298.131
296.262
292.959
291.068
287.79
285.876
282.624
280.684
277.459
275.492
272.295
270.302
267.129
265.106
261.965
259.912
256.802
254.719
251.639
249.528
246.478
244.338
241.314
239.143
236.15
233.949
230.988
228.76
225.826
223.57
220.665
218.38
215.499
213.19
210.332
208.002
205.168
202.817
200.003
197.631
194.832
192.443
189.665
187.258
184.499
182.075
179.332
176.89
174.163
171.707
168.994
166.525
163.823
161.343
158.652
156.164
153.485
150.99
148.311
145.806
143.138
140.625
137.965
135.447
132.798
130.274
127.624
125.091
122.447
119.909
117.274
114.733
112.104
109.56
106.929
104.377
101.752
99.2001
96.5787
94.0268
91.4105
88.8523
86.2306
83.6705
81.0553
78.4936
75.8855
73.3217
70.7117
68.1451
65.5329
62.9674
60.3601
57.794
55.1904
52.6182
50.0169
47.4367
44.8355
42.2598
39.6612
37.0865
34.4883
31.917
29.3052
26.7355
24.1351
21.5356
18.9832
16.3383
13.8004
11.2122
8.59612
6.07995
3.33847
1.11416
-2.4649
-3.68323
-10.4725
-13.8842
9.48701
-1.66381
1.34183
710.15
704.674
702.659
700.041
698.521
696.944
695.69
694.365
693.156
691.925
690.726
689.52
688.339
687.157
685.979
684.814
683.635
682.463
681.285
680.11
678.932
677.755
676.566
675.359
674.133
672.891
671.633
670.36
669.074
667.776
666.467
665.148
663.822
662.49
661.154
659.814
658.47
657.123
655.773
654.422
653.068
651.713
650.356
648.999
647.639
646.281
644.919
643.56
642.195
640.842
639.46
638.14
636.688
635.508
633.767
633.184
630.207
632.19
623.52
633.129
609.65
592.103
604.827
581.816
593.561
584.558
584.153
580.559
578.367
575.815
573.4
571.017
568.63
566.262
563.872
561.49
559.08
556.66
554.216
551.759
549.279
546.786
544.269
541.747
539.206
536.659
534.103
531.539
528.974
526.392
523.816
521.232
518.648
516.063
513.475
510.89
508.3
505.71
503.118
500.528
497.939
495.344
492.764
490.161
487.59
484.978
482.417
479.793
477.238
474.609
472.063
469.424
466.891
464.239
461.721
459.053
456.554
453.863
451.381
448.673
446.211
443.482
441.044
438.292
435.88
433.099
430.718
427.901
425.55
422.704
420.386
417.506
415.224
412.308
410.063
407.111
404.904
401.913
399.741
396.709
394.58
391.506
389.42
386.305
384.259
381.106
379.097
375.909
373.932
370.706
368.766
365.507
363.599
360.311
358.432
355.118
353.263
349.928
348.093
344.736
342.915
339.549
337.736
334.365
332.556
329.184
327.377
324.005
322.197
318.824
317.009
313.647
311.822
308.473
306.635
303.301
301.448
298.132
296.261
292.96
291.067
287.791
285.875
282.625
280.683
277.46
275.491
272.296
270.301
267.13
265.105
261.966
259.911
256.803
254.718
251.64
249.527
246.479
244.337
241.315
239.142
236.151
233.949
230.988
228.76
225.827
223.569
220.666
218.379
215.499
213.19
210.333
208.001
205.168
202.817
200.003
197.631
194.832
192.442
189.665
187.258
184.5
182.075
179.333
176.89
174.163
171.707
168.995
166.525
163.824
161.343
158.652
156.164
153.485
150.99
148.311
145.806
143.138
140.625
137.965
135.447
132.798
130.273
127.624
125.091
122.447
119.909
117.274
114.733
112.104
109.56
106.929
104.377
101.752
99.2
96.5788
94.0267
91.4105
88.8522
86.2306
83.6705
81.0554
78.4936
75.8856
73.3217
70.7117
68.145
65.5329
62.9674
60.3601
57.7939
55.1904
52.6181
50.0169
47.4367
44.8356
42.2598
39.6612
37.0865
34.4883
31.917
29.3053
26.7353
24.1352
21.5356
18.9833
16.3386
13.8001
11.2122
8.59612
6.08001
3.33804
1.11459
-2.49277
-3.71825
-10.2325
-13.7183
9.39801
-1.6928
1.33293
710.061
704.681
702.688
700.07
698.538
696.955
695.697
694.37
693.161
691.929
690.729
689.522
688.341
687.159
685.98
684.815
683.635
682.463
681.285
680.11
678.932
677.755
676.566
675.359
674.132
672.891
671.632
670.36
669.073
667.776
666.466
665.148
663.822
662.49
661.154
659.814
658.47
657.123
655.773
654.422
653.068
651.713
650.356
648.999
647.639
646.281
644.919
643.56
642.195
640.842
639.46
638.14
636.688
635.508
633.767
633.184
630.206
632.174
623.435
633.007
609.69
592.29
604.804
581.92
593.505
584.58
584.152
580.565
578.37
575.818
573.402
571.018
568.631
566.263
563.872
561.491
559.08
556.66
554.216
551.758
549.278
546.786
544.269
541.746
539.206
536.659
534.103
531.539
528.973
526.392
523.816
521.232
518.648
516.063
513.475
510.89
508.3
505.71
503.118
500.528
497.939
495.344
492.764
490.161
487.59
484.978
482.417
479.793
477.238
474.609
472.063
469.424
466.89
464.239
461.721
459.053
456.553
453.863
451.38
448.673
446.211
443.482
441.044
438.292
435.879
433.099
430.717
427.902
425.55
422.704
420.385
417.507
415.223
412.309
410.063
407.111
404.903
401.914
399.741
396.71
394.58
391.507
389.419
386.306
384.258
381.107
379.097
375.91
373.931
370.707
368.765
365.508
363.599
360.312
358.431
355.119
353.262
349.929
348.092
344.737
342.914
339.55
337.735
334.366
332.556
329.184
327.376
324.006
322.196
318.825
317.009
313.648
311.821
308.474
306.634
303.302
301.448
298.133
296.26
292.961
291.067
287.792
285.874
282.625
280.682
277.46
275.491
272.297
270.301
267.13
265.105
261.966
259.91
256.803
254.718
251.64
249.527
246.479
244.337
241.315
239.142
236.151
233.948
230.989
228.76
225.827
223.569
220.666
218.379
215.5
213.189
210.333
208.001
205.168
202.817
200.003
197.631
194.832
192.442
189.666
187.258
184.5
182.075
179.333
176.89
174.163
171.707
168.995
166.525
163.824
161.342
158.652
156.164
153.485
150.99
148.311
145.806
143.138
140.625
137.965
135.447
132.798
130.273
127.624
125.091
122.447
119.909
117.274
114.733
112.104
109.56
106.929
104.377
101.752
99.2
96.5789
94.0267
91.4105
88.8521
86.2307
83.6705
81.0554
78.4936
75.8856
73.3217
70.7117
68.145
65.5329
62.9674
60.3602
57.7938
55.1904
52.6181
50.0169
47.4367
44.8356
42.2598
39.6613
37.0865
34.4883
31.9169
29.3054
26.7352
24.1353
21.5357
18.9832
16.3389
13.7999
11.2122
8.59605
6.08021
3.3368
1.11236
-2.5084
-3.74493
-10.1024
-13.5403
9.3388
-1.71738
1.31165
710.004
704.7
702.703
700.079
698.551
696.964
695.705
694.376
693.166
691.933
690.733
689.526
688.344
687.161
685.982
684.817
683.637
682.464
681.286
680.111
678.933
677.755
676.566
675.359
674.132
672.891
671.632
670.36
669.073
667.776
666.466
665.148
663.821
662.49
661.154
659.814
658.47
657.123
655.773
654.422
653.068
651.713
650.356
648.999
647.639
646.281
644.919
643.56
642.195
640.842
639.46
638.14
636.688
635.508
633.767
633.184
630.204
632.146
623.39
632.859
609.747
592.462
604.684
582.054
593.459
584.598
584.153
580.569
578.373
575.821
573.405
571.02
568.632
566.264
563.873
561.491
559.081
556.66
554.216
551.758
549.278
546.786
544.269
541.746
539.206
536.659
534.103
531.539
528.973
526.392
523.816
521.232
518.648
516.063
513.475
510.889
508.3
505.71
503.118
500.528
497.939
495.344
492.764
490.161
487.59
484.978
482.417
479.793
477.238
474.609
472.063
469.424
466.89
464.239
461.72
459.053
456.553
453.863
451.38
448.673
446.21
443.483
441.044
438.292
435.879
433.1
430.716
427.902
425.549
422.705
420.384
417.508
415.222
412.31
410.062
407.113
404.902
401.915
399.739
396.711
394.578
391.508
389.417
386.308
384.256
381.109
379.095
375.912
373.929
370.709
368.763
365.51
363.597
360.314
358.429
355.121
353.26
349.931
348.09
344.739
342.912
339.552
337.733
334.368
332.553
329.187
327.374
324.008
322.194
318.827
317.006
313.65
311.819
308.476
306.632
303.304
301.446
298.135
296.258
292.963
291.065
287.794
285.872
282.627
280.681
277.462
275.489
272.298
270.299
267.131
265.104
261.967
259.909
256.804
254.717
251.642
249.526
246.48
244.336
241.316
239.141
236.152
233.948
230.989
228.759
225.828
223.569
220.666
218.378
215.5
213.189
210.334
208.001
205.169
202.816
200.004
197.63
194.833
192.442
189.666
187.258
184.5
182.074
179.333
176.89
174.164
171.707
168.995
166.525
163.824
161.342
158.652
156.164
153.485
150.989
148.311
145.806
143.138
140.625
137.965
135.447
132.798
130.273
127.624
125.091
122.447
119.909
117.275
114.733
112.104
109.56
106.929
104.377
101.752
99.2
96.579
94.0266
91.4105
88.8519
86.2307
83.6704
81.0555
78.4936
75.8856
73.3216
70.7118
68.1449
65.533
62.9674
60.3603
57.7938
55.1905
52.618
50.0169
47.4367
44.8357
42.2598
39.6613
37.0864
34.4884
31.9168
29.3055
26.735
24.1353
21.5358
18.9829
16.3394
13.7997
11.2122
8.59599
6.08041
3.33551
1.11043
-2.5147
-3.77017
-10.0036
-13.3527
9.27349
-1.74927
1.29113
709.938
704.707
702.71
700.084
698.561
696.97
695.708
694.38
693.17
691.937
690.737
689.529
688.347
687.165
685.986
684.82
683.64
682.467
681.289
680.113
678.935
677.757
676.567
675.36
674.133
672.891
671.633
670.36
669.074
667.776
666.466
665.148
663.822
662.49
661.154
659.814
658.47
657.123
655.773
654.422
653.068
651.713
650.356
648.999
647.639
646.281
644.919
643.56
642.195
640.842
639.46
638.14
636.688
635.508
633.767
633.184
630.202
632.12
623.389
632.697
609.82
592.565
604.617
582.128
593.422
584.609
584.154
580.573
578.376
575.823
573.407
571.022
568.634
566.266
563.874
561.492
559.081
556.661
554.217
551.759
549.278
546.786
544.269
541.746
539.206
536.659
534.103
531.539
528.973
526.392
523.816
521.232
518.648
516.063
513.475
510.889
508.3
505.71
503.118
500.528
497.939
495.344
492.764
490.161
487.589
484.978
482.417
479.793
477.238
474.609
472.063
469.425
466.89
464.24
461.72
459.054
456.553
453.863
451.38
448.674
446.21
443.483
441.043
438.293
435.878
433.101
430.716
427.903
425.548
422.706
420.383
417.509
415.221
412.311
410.06
407.114
404.9
401.917
399.738
396.713
394.577
391.51
389.416
386.309
384.255
381.111
379.093
375.913
373.927
370.711
368.761
365.512
363.594
360.317
358.427
355.124
353.258
349.933
348.088
344.742
342.909
339.555
337.73
334.371
332.551
329.189
327.371
324.01
322.191
318.83
317.004
313.652
311.817
308.478
306.63
303.306
301.443
298.137
296.256
292.965
291.063
287.796
285.87
282.629
280.679
277.464
275.488
272.3
270.298
267.133
265.102
261.969
259.908
256.806
254.715
251.643
249.524
246.482
244.335
241.317
239.14
236.153
233.947
230.991
228.758
225.829
223.568
220.667
218.378
215.501
213.188
210.334
208
205.17
202.816
200.004
197.63
194.833
192.441
189.666
187.257
184.501
182.074
179.334
176.889
174.164
171.706
168.995
166.524
163.824
161.342
158.652
156.163
153.485
150.989
148.311
145.806
143.139
140.624
137.965
135.447
132.798
130.273
127.624
125.091
122.447
119.909
117.275
114.733
112.104
109.56
106.929
104.377
101.752
99.1999
96.5791
94.0265
91.4106
88.8518
86.2308
83.6704
81.0556
78.4936
75.8857
73.3215
70.7118
68.1448
65.5331
62.9673
60.3604
57.7937
55.1905
52.6179
50.0169
47.4367
44.8357
42.2597
39.6613
37.0864
34.4884
31.9167
29.3056
26.7349
24.1354
21.5358
18.9827
16.3397
13.7995
11.2122
8.59592
6.08058
3.33443
1.10855
-2.51717
-3.78869
-9.94094
-13.1935
9.20822
-1.78111
1.27126
709.905
704.702
702.705
700.089
698.563
696.97
695.707
694.382
693.172
691.939
690.738
689.532
688.35
687.168
685.989
684.823
683.643
682.47
681.292
680.116
678.937
677.759
676.569
675.361
674.134
672.892
671.633
670.361
669.074
667.776
666.467
665.148
663.822
662.49
661.154
659.814
658.47
657.123
655.773
654.422
653.068
651.713
650.356
648.999
647.639
646.281
644.919
643.56
642.196
640.842
639.46
638.14
636.688
635.508
633.767
633.183
630.2
632.101
623.419
632.535
609.904
592.599
604.59
582.158
593.398
584.614
584.153
580.576
578.378
575.825
573.408
571.024
568.635
566.267
563.875
561.493
559.082
556.661
554.217
551.759
549.279
546.786
544.269
541.746
539.206
536.659
534.103
531.539
528.973
526.392
523.816
521.232
518.648
516.063
513.475
510.889
508.3
505.71
503.118
500.528
497.939
495.344
492.764
490.161
487.589
484.978
482.417
479.793
477.238
474.609
472.063
469.425
466.89
464.24
461.72
459.054
456.552
453.864
451.379
448.674
446.21
443.484
441.043
438.293
435.878
433.101
430.715
427.904
425.548
422.707
420.383
417.509
415.22
412.312
410.06
407.115
404.9
401.918
399.737
396.714
394.575
391.511
389.414
386.311
384.253
381.112
379.091
375.915
373.926
370.713
368.76
365.514
363.593
360.318
358.425
355.125
353.256
349.935
348.086
344.744
342.907
339.557
337.728
334.372
332.549
329.191
327.369
324.012
322.189
318.832
317.002
313.654
311.815
308.48
306.628
303.308
301.442
298.138
296.254
292.967
291.061
287.797
285.869
282.63
280.677
277.465
275.486
272.301
270.296
267.135
265.101
261.97
259.906
256.807
254.714
251.644
249.523
246.483
244.334
241.318
239.139
236.154
233.946
230.991
228.757
225.83
223.567
220.668
218.377
215.502
213.187
210.335
207.999
205.17
202.815
200.005
197.629
194.834
192.441
189.667
187.257
184.501
182.073
179.334
176.889
174.164
171.706
168.996
166.524
163.825
161.342
158.653
156.163
153.486
150.989
148.312
145.805
143.139
140.624
137.965
135.447
132.799
130.273
127.624
125.091
122.447
119.909
117.275
114.733
112.104
109.559
106.929
104.377
101.752
99.1998
96.5792
94.0265
91.4106
88.8517
86.2309
83.6703
81.0557
78.4935
75.8857
73.3214
70.7119
68.1448
65.5332
62.9672
60.3604
57.7936
55.1906
52.6179
50.0169
47.4366
44.8358
42.2597
39.6614
37.0864
34.4884
31.9167
29.3056
26.7348
24.1355
21.5359
18.9826
16.3399
13.7994
11.2122
8.59587
6.08072
3.33361
1.10727
-2.51704
-3.80291
-9.91019
-13.0684
9.15561
-1.81022
1.25443
709.899
704.701
702.693
700.082
698.56
696.968
695.706
694.38
693.171
691.939
690.738
689.534
688.352
687.169
685.99
684.825
683.646
682.472
681.295
680.119
678.939
677.761
676.571
675.363
674.135
672.893
671.634
670.362
669.075
667.777
666.467
665.149
663.822
662.491
661.155
659.814
658.47
657.123
655.774
654.422
653.068
651.713
650.356
648.999
647.639
646.281
644.919
643.56
642.196
640.842
639.46
638.14
636.688
635.508
633.767
633.183
630.199
632.089
623.449
632.422
609.964
592.608
604.579
582.173
593.385
584.615
584.152
580.577
578.38
575.826
573.409
571.025
568.636
566.267
563.876
561.493
559.082
556.662
554.217
551.759
549.279
546.786
544.269
541.746
539.206
536.659
534.103
531.539
528.973
526.392
523.816
521.232
518.648
516.063
513.475
510.889
508.3
505.71
503.118
500.528
497.939
495.344
492.764
490.161
487.589
484.978
482.417
479.793
477.238
474.609
472.062
469.425
466.89
464.24
461.72
459.054
456.552
453.864
451.379
448.674
446.209
443.484
441.043
438.294
435.877
433.101
430.715
427.904
425.547
422.707
420.382
417.51
415.22
412.312
410.059
407.115
404.899
401.918
399.736
396.714
394.575
391.512
389.414
386.311
384.253
381.113
379.091
375.916
373.925
370.714
368.759
365.515
363.592
360.319
358.424
355.126
353.255
349.936
348.085
344.745
342.906
339.558
337.727
334.373
332.548
329.192
327.368
324.013
322.188
318.833
317.001
313.655
311.814
308.481
306.627
303.309
301.441
298.139
296.254
292.968
291.06
287.798
285.868
282.631
280.676
277.466
275.485
272.302
270.295
267.135
265.1
261.971
259.906
256.808
254.713
251.645
249.522
246.483
244.333
241.319
239.139
236.155
233.945
230.992
228.756
225.83
223.566
220.669
218.376
215.502
213.187
210.335
207.999
205.17
202.815
200.005
197.629
194.834
192.441
189.667
187.256
184.501
182.073
179.334
176.889
174.165
171.706
168.996
166.524
163.825
161.342
158.653
156.163
153.486
150.989
148.312
145.805
143.139
140.624
137.966
135.447
132.799
130.273
127.624
125.091
122.447
119.909
117.275
114.733
112.104
109.559
106.929
104.377
101.752
99.1998
96.5792
94.0265
91.4106
88.8517
86.231
83.6703
81.0557
78.4935
75.8857
73.3214
70.7119
68.1447
65.5332
62.9672
60.3605
57.7936
55.1906
52.6179
50.0169
47.4366
44.8358
42.2597
39.6614
37.0864
34.4884
31.9166
29.3057
26.7348
24.1355
21.5359
18.9826
16.34
13.7993
11.2122
8.59583
6.08082
3.33308
1.10666
-2.51587
-3.8113
-9.89875
-12.9831
9.1208
-1.83278
1.24233
709.92
704.707
702.687
700.075
698.556
696.964
695.703
694.378
693.169
691.938
690.738
689.533
688.352
687.169
685.99
684.827
683.646
682.473
681.295
680.119
678.941
677.762
676.572
675.364
674.136
672.894
671.635
670.362
669.075
667.778
666.468
665.149
663.822
662.491
661.155
659.814
658.47
657.123
655.774
654.422
653.068
651.713
650.356
648.999
647.639
646.281
644.919
643.56
642.196
640.842
639.46
638.14
636.688
635.508
633.767
633.182
630.199
632.082
623.465
632.372
609.989
592.613
604.574
582.18
593.38
584.616
584.151
580.578
578.38
575.826
573.41
571.025
568.637
566.268
563.876
561.493
559.083
556.662
554.217
551.759
549.279
546.786
544.269
541.746
539.206
536.659
534.103
531.539
528.973
526.392
523.816
521.232
518.648
516.063
513.475
510.889
508.3
505.71
503.118
500.528
497.939
495.344
492.764
490.161
487.589
484.979
482.416
479.793
477.238
474.609
472.062
469.425
466.89
464.24
461.72
459.054
456.552
453.864
451.379
448.674
446.209
443.484
441.042
438.294
435.877
433.101
430.715
427.904
425.547
422.707
420.382
417.51
415.22
412.313
410.059
407.115
404.899
401.918
399.736
396.714
394.575
391.512
389.413
386.312
384.252
381.113
379.09
375.916
373.924
370.714
368.758
365.515
363.591
360.32
358.424
355.127
353.255
349.936
348.084
344.745
342.906
339.558
337.727
334.374
332.547
329.193
327.368
324.014
322.188
318.833
317.001
313.656
311.814
308.481
306.627
303.31
301.44
298.14
296.253
292.968
291.06
287.799
285.867
282.632
280.676
277.467
275.485
272.302
270.295
267.136
265.1
261.972
259.905
256.808
254.713
251.645
249.522
246.484
244.333
241.319
239.138
236.155
233.945
230.992
228.756
225.83
223.566
220.669
218.376
215.502
213.187
210.336
207.999
205.171
202.814
200.005
197.629
194.834
192.441
189.667
187.256
184.501
182.073
179.334
176.888
174.165
171.706
168.996
166.524
163.825
161.342
158.653
156.163
153.486
150.989
148.312
145.805
143.139
140.624
137.966
135.447
132.799
130.273
127.624
125.091
122.447
119.909
117.275
114.733
112.104
109.559
106.929
104.377
101.752
99.1998
96.5792
94.0265
91.4106
88.8516
86.231
83.6702
81.0557
78.4935
75.8857
73.3214
70.7119
68.1447
65.5332
62.9672
60.3605
57.7936
55.1906
52.6179
50.0169
47.4366
44.8358
42.2597
39.6614
37.0864
34.4884
31.9166
29.3057
26.7348
24.1355
21.5359
18.9826
16.34
13.7993
11.2122
8.59582
6.08086
3.33287
1.10639
-2.51519
-3.81362
-9.89527
-12.9415
9.10206
-1.84318
1.23536
)
;

boundaryField
{
    inlet
    {
        type            buoyantPressure;
        gradient        nonuniform List<scalar> 8(8.36451e-14 1.43033e-11 -2.50935e-12 3.98151e-11 2.10786e-11 -4.50847e-11 -2.28351e-11 3.76403e-12);
        rho             rho;
        value           nonuniform List<scalar> 8(710.214 710.15 710.061 710.004 709.938 709.905 709.899 709.92);
    }
    outlet
    {
        type            fixedValue;
        value           uniform 0;
    }
    sideWall
    {
        type            empty;
    }
    bed
    {
        type            buoyantPressure;
        gradient        uniform -0;
        rho             rho;
        value           nonuniform List<scalar> 
300
(
710.214
704.626
702.649
700.034
698.512
696.937
695.684
694.36
693.152
691.922
690.724
689.519
688.338
687.157
685.979
684.814
683.635
682.463
681.286
680.111
678.933
677.756
676.567
675.36
674.133
672.892
671.633
670.361
669.075
667.777
666.467
665.149
663.822
662.491
661.155
659.814
658.47
657.123
655.774
654.422
653.068
651.713
650.356
648.999
647.639
646.281
644.919
643.56
642.196
640.842
639.46
638.14
636.688
635.509
633.766
633.185
630.205
632.192
623.617
633.325
609.459
591.986
604.805
581.719
593.628
584.537
584.157
580.551
578.364
575.811
573.397
571.014
568.628
566.261
563.871
561.49
559.08
556.66
554.216
551.758
549.279
546.786
544.269
541.747
539.206
536.659
534.103
531.539
528.974
526.392
523.816
521.232
518.648
516.064
513.475
510.89
508.3
505.71
503.118
500.528
497.939
495.344
492.764
490.161
487.59
484.978
482.417
479.793
477.238
474.609
472.063
469.424
466.891
464.239
461.721
459.053
456.554
453.862
451.381
448.673
446.211
443.482
441.045
438.291
435.88
433.099
430.718
427.901
425.551
422.704
420.386
417.506
415.224
412.308
410.064
407.11
404.904
401.913
399.742
396.708
394.581
391.505
389.42
386.304
384.26
381.105
379.098
375.908
373.933
370.705
368.767
365.506
363.6
360.31
358.433
355.117
353.264
349.927
348.094
344.735
342.916
339.548
337.737
334.364
332.557
329.183
327.378
324.004
322.198
318.823
317.01
313.646
311.823
308.472
306.636
303.3
301.449
298.131
296.262
292.959
291.068
287.79
285.876
282.624
280.684
277.459
275.492
272.295
270.302
267.129
265.106
261.965
259.912
256.802
254.719
251.639
249.528
246.478
244.338
241.314
239.143
236.15
233.949
230.988
228.76
225.826
223.57
220.665
218.38
215.499
213.19
210.332
208.002
205.168
202.817
200.003
197.631
194.832
192.443
189.665
187.258
184.499
182.075
179.332
176.89
174.163
171.707
168.994
166.525
163.823
161.343
158.652
156.164
153.485
150.99
148.311
145.806
143.138
140.625
137.965
135.447
132.798
130.274
127.624
125.091
122.447
119.909
117.274
114.733
112.104
109.56
106.929
104.377
101.752
99.2001
96.5787
94.0268
91.4105
88.8523
86.2306
83.6705
81.0553
78.4936
75.8855
73.3217
70.7117
68.1451
65.5329
62.9674
60.3601
57.794
55.1904
52.6182
50.0169
47.4367
44.8355
42.2598
39.6612
37.0865
34.4883
31.917
29.3052
26.7355
24.1351
21.5356
18.9832
16.3383
13.8004
11.2122
8.59612
6.07995
3.33847
1.11416
-2.4649
-3.68323
-10.4725
-13.8842
9.48701
-1.66381
1.34183
)
;
    }
    topWall
    {
        type            slip;
        value           nonuniform List<scalar> 
300
(
709.92
704.707
702.687
700.075
698.556
696.964
695.703
694.378
693.169
691.938
690.738
689.533
688.352
687.169
685.99
684.827
683.646
682.473
681.295
680.119
678.941
677.762
676.572
675.364
674.136
672.894
671.635
670.362
669.075
667.778
666.468
665.149
663.822
662.491
661.155
659.814
658.47
657.123
655.774
654.422
653.068
651.713
650.356
648.999
647.639
646.281
644.919
643.56
642.196
640.842
639.46
638.14
636.688
635.508
633.767
633.182
630.199
632.082
623.465
632.372
609.989
592.613
604.574
582.18
593.38
584.616
584.151
580.578
578.38
575.826
573.41
571.025
568.637
566.268
563.876
561.493
559.083
556.662
554.217
551.759
549.279
546.786
544.269
541.746
539.206
536.659
534.103
531.539
528.973
526.392
523.816
521.232
518.648
516.063
513.475
510.889
508.3
505.71
503.118
500.528
497.939
495.344
492.764
490.161
487.589
484.979
482.416
479.793
477.238
474.609
472.062
469.425
466.89
464.24
461.72
459.054
456.552
453.864
451.379
448.674
446.209
443.484
441.042
438.294
435.877
433.101
430.715
427.904
425.547
422.707
420.382
417.51
415.22
412.313
410.059
407.115
404.899
401.918
399.736
396.714
394.575
391.512
389.413
386.312
384.252
381.113
379.09
375.916
373.924
370.714
368.758
365.515
363.591
360.32
358.424
355.127
353.255
349.936
348.084
344.745
342.906
339.558
337.727
334.374
332.547
329.193
327.368
324.014
322.188
318.833
317.001
313.656
311.814
308.481
306.627
303.31
301.44
298.14
296.253
292.968
291.06
287.799
285.867
282.632
280.676
277.467
275.485
272.302
270.295
267.136
265.1
261.972
259.905
256.808
254.713
251.645
249.522
246.484
244.333
241.319
239.138
236.155
233.945
230.992
228.756
225.83
223.566
220.669
218.376
215.502
213.187
210.336
207.999
205.171
202.814
200.005
197.629
194.834
192.441
189.667
187.256
184.501
182.073
179.334
176.888
174.165
171.706
168.996
166.524
163.825
161.342
158.653
156.163
153.486
150.989
148.312
145.805
143.139
140.624
137.966
135.447
132.799
130.273
127.624
125.091
122.447
119.909
117.275
114.733
112.104
109.559
106.929
104.377
101.752
99.1998
96.5792
94.0265
91.4106
88.8516
86.231
83.6702
81.0557
78.4935
75.8857
73.3214
70.7119
68.1447
65.5332
62.9672
60.3605
57.7936
55.1906
52.6179
50.0169
47.4366
44.8358
42.2597
39.6614
37.0864
34.4884
31.9166
29.3057
26.7348
24.1355
21.5359
18.9826
16.34
13.7993
11.2122
8.59582
6.08086
3.33287
1.10639
-2.51519
-3.81362
-9.89527
-12.9415
9.10206
-1.84318
1.23536
)
;
    }
}


// ************************************************************************* //
