/*--------------------------------*- C++ -*----------------------------------*\
| =========                 |                                                 |
| \\      /  F ield         | foam-extend: Open Source CFD                    |
|  \\    /   O peration     | Version:     3.2                                |
|   \\  /    A nd           | Web:         http://www.foam-extend.org         |
|    \\/     M anipulation  | For copyright notice see file Copyright         |
\*---------------------------------------------------------------------------*/
FoamFile
{
    version     2.0;
    format      ascii;
    class       areaScalarField;
    location    "2020";
    object      Pef;
}
// * * * * * * * * * * * * * * * * * * * * * * * * * * * * * * * * * * * * * //

dimensions      [0 0 0 0 0 0 0];

internalField   nonuniform List<scalar> 
300
(
0.271236
0.351033
0.282386
0.224161
0.190114
0.176254
0.170706
0.170025
0.17091
0.172753
0.174945
0.177199
0.179387
0.181698
0.183908
0.186176
0.188575
0.190954
0.193377
0.195808
0.198239
0.200671
0.203159
0.205678
0.208083
0.210283
0.212256
0.213992
0.215494
0.216789
0.217903
0.218849
0.219636
0.220276
0.220793
0.221227
0.221585
0.221892
0.222145
0.222368
0.222549
0.222713
0.22284
0.222963
0.22305
0.223145
0.223204
0.223284
0.223306
0.22341
0.223323
0.223602
0.223118
0.224191
0.222042
0.226522
0.217076
0.234856
0.174218
0.219585
0.446171
0.398559
0.452215
0.450778
0.375383
0.392731
0.389059
0.395106
0.396178
0.410627
0.410653
0.410691
0.410725
0.410755
0.410772
0.410643
0.410543
0.410395
0.410198
0.409997
0.40975
0.409563
0.409395
0.40921
0.409056
0.408899
0.408761
0.408615
0.408536
0.408497
0.408429
0.408394
0.408341
0.408314
0.408279
0.408243
0.408243
0.408276
0.408281
0.408269
0.4083
0.408244
0.408295
0.408204
0.408291
0.408159
0.408286
0.408205
0.408338
0.408192
0.408356
0.40816
0.408364
0.408113
0.408369
0.408051
0.408367
0.407973
0.408359
0.407971
0.408418
0.408012
0.408462
0.407921
0.408471
0.407871
0.408498
0.407898
0.408569
0.407868
0.408605
0.407818
0.408623
0.407762
0.408632
0.407704
0.408631
0.407647
0.40872
0.407644
0.408755
0.407611
0.40877
0.407568
0.408769
0.407524
0.408756
0.407485
0.40883
0.407501
0.40885
0.407487
0.408848
0.407463
0.408836
0.407436
0.408818
0.407403
0.408795
0.407467
0.408819
0.407486
0.408808
0.40749
0.408782
0.407486
0.408749
0.407477
0.408713
0.407558
0.408725
0.407593
0.408702
0.407611
0.408665
0.407619
0.408625
0.407621
0.408587
0.407709
0.408551
0.407712
0.408507
0.407773
0.408536
0.407783
0.408383
0.407668
0.408306
0.40772
0.408464
0.407906
0.408447
0.407914
0.408127
0.407633
0.408044
0.407588
0.408342
0.407995
0.408355
0.407563
0.407842
0.407511
0.408292
0.408028
0.407623
0.407374
0.408288
0.408074
0.408282
0.407276
0.407424
0.407225
0.408239
0.408055
0.407309
0.407176
0.407265
0.407105
0.408213
0.408109
0.408176
0.408094
0.407026
0.406897
0.40698
0.408111
0.408176
0.408104
0.406835
0.406694
0.406786
0.408037
0.408101
0.408091
0.408131
0.406505
0.406589
0.406508
0.406528
0.408019
0.408079
0.40807
0.408112
0.406394
0.406433
0.40633
0.406413
0.408034
0.408068
0.408072
0.406302
0.40618
0.406267
0.40616
0.408064
0.408001
0.408045
0.406053
0.406144
0.406054
0.406123
0.408036
0.408047
0.407995
0.405997
0.40588
0.405987
0.405871
0.408022
0.408021
0.408004
0.40801
0.405891
0.405719
0.405815
0.405646
0.40807
0.407981
0.40807
0.408064
0.405515
0.405488
0.405419
0.405636
0.405716
0.404877
0.405305
0.404626
0.40575
0.407161
0.409776
0.396522
0.389818
0.481886
0.233033
0.138077
0.193769
0.200854
)
;

boundaryField
{
    inlet
    {
        type            calculated;
        value           uniform 0;
    }
    outlet
    {
        type            calculated;
        value           uniform 0;
    }
    sideWall
    {
        type            empty;
    }
}


// ************************************************************************* //
