/*--------------------------------*- C++ -*----------------------------------*\
| =========                 |                                                 |
| \\      /  F ield         | foam-extend: Open Source CFD                    |
|  \\    /   O peration     | Version:     3.2                                |
|   \\  /    A nd           | Web:         http://www.foam-extend.org         |
|    \\/     M anipulation  | For copyright notice see file Copyright         |
\*---------------------------------------------------------------------------*/
FoamFile
{
    version     2.0;
    format      ascii;
    class       surfaceScalarField;
    location    "2020";
    object      phi;
}
// * * * * * * * * * * * * * * * * * * * * * * * * * * * * * * * * * * * * * //

dimensions      [0 3 -1 0 0 0 0];

internalField   nonuniform List<scalar> 
4492
(
1.54373e-05
4.81272e-06
1.26343e-05
2.80294e-06
1.09142e-05
1.72013e-06
1.01078e-05
8.06398e-07
9.78293e-06
3.24891e-07
9.66398e-06
1.18948e-07
9.63591e-06
2.80774e-08
9.64736e-06
-1.14504e-08
9.67709e-06
-2.97319e-08
9.71502e-06
-3.79316e-08
9.75541e-06
-4.03862e-08
9.79306e-06
-3.7649e-08
9.83222e-06
-3.91613e-08
9.87061e-06
-3.83944e-08
9.90739e-06
-3.67834e-08
9.94786e-06
-4.04635e-08
9.98811e-06
-4.02511e-08
1.00282e-05
-4.00724e-08
1.00683e-05
-4.01502e-08
1.01084e-05
-4.00394e-08
1.01484e-05
-4.00758e-08
1.01905e-05
-4.20543e-08
1.02349e-05
-4.44345e-08
1.0279e-05
-4.40633e-08
1.03196e-05
-4.06319e-08
1.03563e-05
-3.66944e-08
1.03888e-05
-3.2497e-08
1.04172e-05
-2.834e-08
1.04416e-05
-2.44378e-08
1.04628e-05
-2.11993e-08
1.04809e-05
-1.81096e-08
1.04961e-05
-1.51547e-08
1.05084e-05
-1.22995e-08
1.05183e-05
-9.90561e-09
1.05265e-05
-8.22876e-09
1.05334e-05
-6.91824e-09
1.05392e-05
-5.82288e-09
1.05442e-05
-4.93465e-09
1.05484e-05
-4.18462e-09
1.05519e-05
-3.56139e-09
1.0555e-05
-3.03657e-09
1.05575e-05
-2.57435e-09
1.05597e-05
-2.19725e-09
1.05616e-05
-1.88128e-09
1.05632e-05
-1.57202e-09
1.05646e-05
-1.42618e-09
1.05658e-05
-1.17587e-09
1.05668e-05
-9.85126e-10
1.05677e-05
-9.46045e-10
1.05683e-05
-5.66129e-10
1.0569e-05
-6.75951e-10
1.05693e-05
-3.3608e-10
1.057e-05
-7.44548e-10
1.05697e-05
3.82242e-10
1.0571e-05
-1.3226e-09
1.05638e-05
7.15919e-09
1.05448e-05
1.90249e-08
1.01165e-05
4.28288e-07
1.07291e-05
-6.12637e-07
1.54701e-05
-4.74094e-06
1.5639e-05
-1.68889e-07
1.36831e-05
1.95584e-06
1.48434e-05
-1.16023e-06
1.31044e-05
1.73893e-06
1.32959e-05
-1.91493e-07
1.32594e-05
3.65577e-08
1.3304e-05
-4.4628e-08
1.32886e-05
1.53618e-08
1.3287e-05
1.68355e-09
1.32849e-05
2.00303e-09
1.32785e-05
5.95325e-09
1.32776e-05
3.5069e-10
1.32779e-05
-7.43656e-10
1.32805e-05
-3.18954e-09
1.32817e-05
-1.65049e-09
1.3284e-05
-2.81539e-09
1.32864e-05
-2.87239e-09
1.32883e-05
-2.41685e-09
1.32897e-05
-1.84699e-09
1.32907e-05
-1.46322e-09
1.32915e-05
-1.24168e-09
1.32932e-05
-1.98873e-09
1.32936e-05
-7.55924e-10
1.32941e-05
-7.99712e-10
1.32942e-05
-3.64674e-10
1.32941e-05
-1.67148e-10
1.32937e-05
1.58026e-10
1.32936e-05
-8.63611e-11
1.32945e-05
-1.12086e-09
1.32944e-05
1.41254e-11
1.32944e-05
-1.8249e-10
1.32942e-05
8.38455e-11
1.3294e-05
1.03129e-10
1.3294e-05
-2.0488e-11
1.32935e-05
4.05081e-10
1.32936e-05
-2.01257e-10
1.32942e-05
-6.97386e-10
1.32946e-05
-4.25475e-10
1.32944e-05
1.97861e-10
1.32946e-05
-2.52489e-10
1.32944e-05
1.69601e-10
1.3294e-05
3.48866e-10
1.32942e-05
-2.12015e-10
1.32934e-05
7.68777e-10
1.32941e-05
-6.34476e-10
1.32928e-05
1.25897e-09
1.32951e-05
-2.29639e-09
1.32936e-05
1.4807e-09
1.32953e-05
-1.749e-09
1.32932e-05
2.08467e-09
1.32954e-05
-2.15867e-09
1.32926e-05
2.71875e-09
1.32954e-05
-2.74793e-09
1.32919e-05
3.47211e-09
1.32954e-05
-3.47947e-09
1.32909e-05
4.43483e-09
1.32966e-05
-5.77563e-09
1.32914e-05
5.20189e-09
1.32972e-05
-5.79082e-09
1.32907e-05
6.51256e-09
1.32976e-05
-6.83046e-09
1.32897e-05
7.90709e-09
1.32978e-05
-8.09289e-09
1.32887e-05
9.02984e-09
1.32982e-05
-9.45138e-09
1.32876e-05
1.0674e-08
1.32999e-05
-1.23564e-08
1.32876e-05
1.22856e-08
1.33009e-05
-1.32382e-08
1.32866e-05
1.4267e-08
1.33016e-05
-1.4993e-08
1.32853e-05
1.63069e-08
1.33023e-05
-1.69905e-08
1.32839e-05
1.84282e-08
1.3303e-05
-1.91165e-08
1.32824e-05
2.06174e-08
1.33037e-05
-2.12845e-08
1.32821e-05
2.16499e-08
1.33058e-05
-2.37637e-08
1.3281e-05
2.48649e-08
1.33069e-05
-2.59561e-08
1.32796e-05
2.7349e-08
1.33078e-05
-2.82341e-08
1.32781e-05
2.97273e-08
1.33086e-05
-3.04924e-08
1.32766e-05
3.19736e-08
1.33092e-05
-3.26509e-08
1.32763e-05
3.29113e-08
1.33112e-05
-3.49236e-08
1.32754e-05
3.58239e-08
1.33121e-05
-3.67105e-08
1.32743e-05
3.78267e-08
1.33127e-05
-3.8416e-08
1.32732e-05
3.95216e-08
1.33131e-05
-3.99396e-08
1.32721e-05
4.0966e-08
1.33133e-05
-4.12233e-08
1.32712e-05
4.21708e-08
1.33147e-05
-4.35137e-08
1.32717e-05
4.29901e-08
1.33151e-05
-4.34104e-08
1.32713e-05
4.37246e-08
1.33151e-05
-4.37309e-08
1.32709e-05
4.41297e-08
1.33148e-05
-4.3923e-08
1.32705e-05
4.42849e-08
1.33145e-05
-4.3941e-08
1.32702e-05
4.42179e-08
1.33152e-05
-4.49523e-08
1.32713e-05
4.38614e-08
1.33151e-05
-4.37521e-08
1.32715e-05
4.35567e-08
1.33145e-05
-4.3034e-08
1.32716e-05
4.29262e-08
1.33138e-05
-4.22168e-08
1.32717e-05
4.20756e-08
1.3313e-05
-4.12556e-08
1.3272e-05
4.10037e-08
1.33132e-05
-4.12931e-08
1.32734e-05
3.97743e-08
1.33127e-05
-3.92883e-08
1.32741e-05
3.86385e-08
1.33118e-05
-3.77386e-08
1.32746e-05
3.73079e-08
1.33108e-05
-3.6216e-08
1.32751e-05
3.56472e-08
1.33097e-05
-3.46939e-08
1.32755e-05
3.41584e-08
1.33097e-05
-3.41942e-08
1.32772e-05
3.26451e-08
1.33089e-05
-3.15762e-08
1.3278e-05
3.09137e-08
1.33078e-05
-2.97929e-08
1.32786e-05
2.90055e-08
1.33067e-05
-2.83481e-08
1.32791e-05
2.75418e-08
1.33055e-05
-2.6324e-08
1.32797e-05
2.6112e-08
1.33054e-05
-2.54735e-08
1.32814e-05
2.40875e-08
1.33046e-05
-2.35729e-08
1.32821e-05
2.21256e-08
1.33036e-05
-2.14301e-08
1.32824e-05
2.15802e-08
1.33024e-05
-1.97584e-08
1.32829e-05
1.91287e-08
1.33012e-05
-1.85739e-08
1.32843e-05
1.7284e-08
1.33015e-05
-1.66469e-08
1.32851e-05
1.63121e-08
1.33005e-05
-1.59336e-08
1.32853e-05
1.45255e-08
1.32995e-05
-1.41902e-08
1.32859e-05
1.43501e-08
1.32988e-05
-1.2481e-08
1.32862e-05
1.21607e-08
1.32989e-05
-1.34034e-08
1.32873e-05
1.13795e-08
1.32981e-05
-1.05577e-08
1.32875e-05
1.13927e-08
1.32975e-05
-9.18802e-09
1.32877e-05
1.00301e-08
1.32966e-05
-9.14341e-09
1.32881e-05
7.68588e-09
1.3296e-05
-8.78006e-09
1.32886e-05
7.41327e-09
1.32961e-05
-6.538e-09
1.32892e-05
7.84332e-09
1.32956e-05
-6.44819e-09
1.32892e-05
5.41918e-09
1.32947e-05
-6.56091e-09
1.3289e-05
5.7739e-09
1.3294e-05
-3.95918e-09
1.32886e-05
6.48607e-09
1.32947e-05
-5.71495e-09
1.32899e-05
4.42852e-09
1.3294e-05
-5.32026e-09
1.32896e-05
3.31425e-09
1.32939e-05
-4.67555e-09
1.32896e-05
4.72963e-09
1.32927e-05
-1.89451e-09
1.32893e-05
4.57782e-09
1.32935e-05
-3.81433e-09
1.32904e-05
2.73527e-09
1.32937e-05
-4.53942e-09
1.32905e-05
1.95576e-09
1.32928e-05
-2.69998e-09
1.32902e-05
3.08167e-09
1.32925e-05
-9.62103e-10
1.32899e-05
3.91409e-09
1.32929e-05
-2.94632e-09
1.32907e-05
7.7705e-10
1.32925e-05
-3.18642e-09
1.32904e-05
1.60999e-09
1.32924e-05
-1.49012e-09
1.32902e-05
3.68726e-09
1.32915e-05
1.52543e-10
1.32899e-05
1.51143e-09
1.32924e-05
-3.9527e-09
1.32908e-05
1.97017e-10
1.32924e-05
-2.05545e-09
1.32908e-05
2.11715e-09
1.32916e-05
6.97867e-10
1.32902e-05
2.92962e-09
1.32913e-05
-1.0405e-09
1.329e-05
-3.16432e-10
1.32917e-05
-3.30851e-09
1.32903e-05
8.5427e-10
1.32915e-05
-6.09842e-10
1.32902e-05
2.87137e-09
1.32912e-05
6.57159e-10
1.32903e-05
1.46659e-09
1.32911e-05
-1.25671e-09
1.32911e-05
-1.68152e-09
1.32918e-05
-2.41092e-09
1.32909e-05
3.16161e-10
1.32914e-05
2.53316e-12
1.32909e-05
2.27109e-09
1.32909e-05
1.82328e-09
1.32905e-05
1.07043e-09
1.32926e-05
-2.66094e-09
1.32906e-05
9.13541e-11
1.32921e-05
-3.43693e-09
1.32906e-05
8.7362e-10
1.32908e-05
-2.82678e-11
1.32957e-05
-4.53379e-09
1.32881e-05
7.68375e-09
1.32888e-05
-6.42527e-10
1.32895e-05
-7.31125e-10
1.32896e-05
-8.10523e-11
1.32887e-05
9.42648e-10
1.32908e-05
-2.13111e-09
1.32013e-05
8.95374e-08
1.34708e-05
-2.69595e-07
1.46877e-05
-1.21687e-06
1.14327e-05
3.255e-06
6.69078e-06
4.74194e-06
8.80676e-06
-2.11598e-06
9.7864e-06
-9.7964e-07
-1.97081e-07
1.97835e-05
5.27926e-06
1.88528e-05
3.73356e-06
1.78631e-05
2.70985e-06
1.707e-05
1.59952e-06
1.65578e-05
8.37112e-07
1.62275e-05
4.49228e-07
1.60112e-05
2.44307e-07
1.58682e-05
1.31637e-07
1.57687e-05
6.97689e-08
1.57078e-05
2.29211e-08
1.56752e-05
-7.77979e-09
1.56619e-05
-2.43651e-08
1.56641e-05
-4.12988e-08
1.56755e-05
-4.98855e-08
1.56961e-05
-5.73458e-08
1.57261e-05
-7.04706e-08
1.57625e-05
-7.66269e-08
1.58049e-05
-8.25192e-08
1.5852e-05
-8.7254e-08
1.59028e-05
-9.07749e-08
1.5956e-05
-9.32997e-08
1.60108e-05
-9.68889e-08
1.60665e-05
-1.00083e-07
1.61211e-05
-9.86342e-08
1.61719e-05
-9.1463e-08
1.62183e-05
-8.31321e-08
1.62601e-05
-7.43101e-08
1.62973e-05
-6.54826e-08
1.633e-05
-5.71183e-08
1.63588e-05
-5.00711e-08
1.63841e-05
-4.33686e-08
1.64058e-05
-3.68805e-08
1.6424e-05
-3.05188e-08
1.64391e-05
-2.49933e-08
1.64519e-05
-2.09892e-08
1.64628e-05
-1.78188e-08
1.64721e-05
-1.51672e-08
1.64801e-05
-1.29439e-08
1.6487e-05
-1.10605e-08
1.64929e-05
-9.44043e-09
1.64979e-05
-8.08923e-09
1.65022e-05
-6.86574e-09
1.65059e-05
-5.89864e-09
1.65091e-05
-5.01533e-09
1.65118e-05
-4.27334e-09
1.65141e-05
-3.73929e-09
1.65161e-05
-3.15963e-09
1.65179e-05
-2.81587e-09
1.65194e-05
-2.42579e-09
1.65206e-05
-1.78186e-09
1.65215e-05
-1.57753e-09
1.65224e-05
-1.20684e-09
1.6523e-05
-1.33591e-09
1.65238e-05
-4.2243e-10
1.65232e-05
-7.9896e-10
1.65196e-05
1.07577e-08
1.64811e-05
5.75236e-08
1.60644e-05
8.44984e-07
1.66013e-05
-1.1495e-06
2.08251e-05
-8.96473e-06
2.22471e-05
-1.5909e-06
2.15272e-05
2.6758e-06
2.21887e-05
-1.82183e-06
2.08191e-05
3.10861e-06
2.08337e-05
-2.06149e-07
2.06858e-05
1.84463e-07
2.06513e-05
-1.01437e-08
2.05828e-05
8.38726e-08
2.05369e-05
4.76383e-08
2.04856e-05
5.32455e-08
2.04363e-05
5.52991e-08
2.03988e-05
3.78855e-08
2.03688e-05
2.92084e-08
2.03456e-05
2.00012e-08
2.03253e-05
1.87475e-08
2.03086e-05
1.38122e-08
2.0295e-05
1.0791e-08
2.02836e-05
8.99969e-09
2.0274e-05
7.71471e-09
2.02663e-05
6.30233e-09
2.02602e-05
4.88472e-09
2.02562e-05
2.0252e-09
2.02529e-05
2.5497e-09
2.02507e-05
1.33472e-09
2.02491e-05
1.25981e-09
2.02481e-05
8.00701e-10
2.02474e-05
9.21442e-10
2.0247e-05
2.78708e-10
2.02478e-05
-1.88634e-09
2.02482e-05
-4.24455e-10
2.0249e-05
-9.16351e-10
2.02495e-05
-4.51157e-10
2.02499e-05
-2.95357e-10
2.02505e-05
-6.29347e-10
2.02507e-05
2.20845e-10
2.02512e-05
-6.845e-10
2.02521e-05
-1.64595e-09
2.0253e-05
-1.30356e-09
2.02534e-05
-1.86286e-10
2.02538e-05
-6.44665e-10
2.0254e-05
-4.03147e-11
2.02539e-05
5.05678e-10
2.02542e-05
-5.46569e-10
2.02536e-05
1.31653e-09
2.02541e-05
-1.0437e-09
2.02534e-05
1.94786e-09
2.02549e-05
-3.81673e-09
2.0254e-05
2.36871e-09
2.02555e-05
-3.24795e-09
2.02541e-05
3.4808e-09
2.02557e-05
-3.74816e-09
2.02538e-05
4.64442e-09
2.02557e-05
-4.65006e-09
2.02531e-05
6.02358e-09
2.02553e-05
-5.70499e-09
2.02524e-05
7.39254e-09
2.02562e-05
-9.58302e-09
2.02527e-05
8.68184e-09
2.0257e-05
-1.00766e-08
2.02526e-05
1.08795e-08
2.02575e-05
-1.16611e-08
2.0252e-05
1.33562e-08
2.02576e-05
-1.37166e-08
2.02512e-05
1.54354e-08
2.02577e-05
-1.58987e-08
2.02505e-05
1.78938e-08
2.02589e-05
-2.08331e-08
2.02507e-05
2.05589e-08
2.02601e-05
-2.27182e-08
2.02504e-05
2.3982e-08
2.02609e-05
-2.55153e-08
2.02497e-05
2.75253e-08
2.02615e-05
-2.878e-08
2.02488e-05
3.11637e-08
2.0262e-05
-3.23043e-08
2.02476e-05
3.50327e-08
2.02625e-05
-3.62164e-08
2.02474e-05
3.6749e-08
2.02641e-05
-4.04826e-08
2.02472e-05
4.18015e-08
2.02654e-05
-4.41858e-08
2.02465e-05
4.62022e-08
2.02663e-05
-4.7984e-08
2.02457e-05
5.03666e-08
2.02669e-05
-5.1755e-08
2.02445e-05
5.44052e-08
2.02675e-05
-5.56643e-08
2.02444e-05
5.60132e-08
2.02691e-05
-5.96176e-08
2.02443e-05
6.0611e-08
2.02703e-05
-6.26747e-08
2.02438e-05
6.42601e-08
2.0271e-05
-6.55448e-08
2.02431e-05
6.73421e-08
2.02714e-05
-6.81586e-08
2.02424e-05
6.99786e-08
2.02714e-05
-7.02537e-08
2.02416e-05
7.19043e-08
2.02724e-05
-7.42893e-08
2.02421e-05
7.33049e-08
2.02733e-05
-7.45625e-08
2.02422e-05
7.47636e-08
2.02736e-05
-7.50622e-08
2.0242e-05
7.56894e-08
2.02734e-05
-7.53368e-08
2.02417e-05
7.6027e-08
2.0273e-05
-7.52685e-08
2.02413e-05
7.5907e-08
2.02734e-05
-7.70872e-08
2.02421e-05
7.51553e-08
2.02736e-05
-7.52263e-08
2.02425e-05
7.46635e-08
2.02734e-05
-7.38955e-08
2.02426e-05
7.37133e-08
2.02728e-05
-7.23996e-08
2.02425e-05
7.23331e-08
2.02719e-05
-7.06666e-08
2.02424e-05
7.04886e-08
2.0272e-05
-7.08036e-08
2.02435e-05
6.82544e-08
2.02717e-05
-6.75453e-08
2.02441e-05
6.63107e-08
2.02712e-05
-6.48524e-08
2.02444e-05
6.41103e-08
2.02703e-05
-6.21126e-08
2.02445e-05
6.14321e-08
2.02691e-05
-5.93465e-08
2.02444e-05
5.88496e-08
2.02689e-05
-5.86395e-08
2.02456e-05
5.59763e-08
2.02684e-05
-5.44358e-08
2.02462e-05
5.30908e-08
2.02676e-05
-5.11296e-08
2.02465e-05
5.01169e-08
2.02666e-05
-4.84347e-08
2.02465e-05
4.75522e-08
2.02653e-05
-4.51081e-08
2.02466e-05
4.4864e-08
2.02649e-05
-4.38571e-08
2.02476e-05
4.14364e-08
2.02644e-05
-4.03323e-08
2.02482e-05
3.83083e-08
2.02636e-05
-3.68085e-08
2.02482e-05
3.69247e-08
2.02625e-05
-3.40151e-08
2.02482e-05
3.33766e-08
2.02612e-05
-3.15513e-08
2.02488e-05
2.96513e-08
2.02612e-05
-2.90092e-08
2.02495e-05
2.80446e-08
2.02605e-05
-2.69677e-08
2.02495e-05
2.55407e-08
2.02596e-05
-2.43029e-08
2.02496e-05
2.43424e-08
2.02588e-05
-2.16593e-08
2.02496e-05
2.13749e-08
2.02587e-05
-2.24796e-08
2.02503e-05
1.97289e-08
2.02582e-05
-1.84184e-08
2.02505e-05
1.90403e-08
2.02576e-05
-1.63138e-08
2.02504e-05
1.7239e-08
2.02566e-05
-1.5372e-08
2.02503e-05
1.40375e-08
2.02559e-05
-1.43676e-08
2.02505e-05
1.28452e-08
2.02559e-05
-1.19464e-08
2.02509e-05
1.28003e-08
2.02555e-05
-1.10895e-08
2.02508e-05
1.01662e-08
2.02547e-05
-1.0471e-08
2.02505e-05
1.00448e-08
2.02539e-05
-7.44729e-09
2.02499e-05
1.05297e-08
2.02541e-05
-9.961e-09
2.02507e-05
7.85411e-09
2.02537e-05
-8.35316e-09
2.02505e-05
6.58772e-09
2.02536e-05
-7.7675e-09
2.02504e-05
7.87003e-09
2.02526e-05
-4.05892e-09
2.02499e-05
7.18776e-09
2.02529e-05
-6.74511e-09
2.02507e-05
4.92091e-09
2.02532e-05
-7.00633e-09
2.02509e-05
4.24325e-09
2.02526e-05
-4.34918e-09
2.02506e-05
5.00739e-09
2.02523e-05
-2.62119e-09
2.02503e-05
5.86436e-09
2.02523e-05
-4.99066e-09
2.02508e-05
2.30435e-09
2.02521e-05
-4.4519e-09
2.02506e-05
3.15745e-09
2.0252e-05
-2.94432e-09
2.02504e-05
5.27965e-09
2.02513e-05
-7.26471e-10
2.025e-05
2.7885e-09
2.02517e-05
-5.6029e-09
2.02506e-05
1.31505e-09
2.02518e-05
-3.25874e-09
2.02506e-05
3.28185e-09
2.02512e-05
6.24173e-11
2.02502e-05
3.92208e-09
2.02509e-05
-1.79377e-09
2.025e-05
6.62248e-10
2.02511e-05
-4.40566e-09
2.02501e-05
1.94737e-09
2.02508e-05
-1.37425e-09
2.02498e-05
3.85036e-09
2.02505e-05
-1.11538e-10
2.02499e-05
2.03289e-09
2.02506e-05
-1.94099e-09
2.02508e-05
-1.79133e-09
2.02514e-05
-2.93838e-09
2.02506e-05
1.12898e-09
2.02508e-05
-2.21088e-10
2.02502e-05
2.77926e-09
2.02504e-05
1.58232e-09
2.02505e-05
9.53688e-10
2.02522e-05
-4.2967e-09
2.0251e-05
1.27802e-09
2.02518e-05
-4.20571e-09
2.02512e-05
1.52707e-09
2.02512e-05
-3.09661e-12
2.02538e-05
-7.12432e-09
2.02486e-05
1.28469e-08
2.02488e-05
-8.3556e-10
2.0249e-05
-9.28496e-10
2.02489e-05
-2.17151e-11
2.02486e-05
1.24175e-09
2.0247e-05
-5.40625e-10
2.01885e-05
1.48094e-07
2.04785e-05
-5.59599e-07
2.136e-05
-2.09836e-06
1.85953e-05
6.0197e-06
1.42476e-05
9.08956e-06
1.50473e-05
-2.91561e-06
1.55492e-05
-1.48157e-06
-3.49859e-07
2.09432e-05
4.58608e-06
2.12104e-05
3.46639e-06
2.10607e-05
2.8595e-06
2.0649e-05
2.01118e-06
2.01839e-05
1.30225e-06
1.97736e-05
8.5953e-07
1.94575e-05
5.60395e-07
1.92148e-05
3.74337e-07
1.90263e-05
2.58322e-07
1.88929e-05
1.56332e-07
1.88016e-05
8.35104e-08
1.87396e-05
3.75718e-08
1.87029e-05
-4.5794e-09
1.86887e-05
-3.5707e-08
1.86915e-05
-6.00779e-08
1.87075e-05
-8.65223e-08
1.87357e-05
-1.04769e-07
1.87739e-05
-1.20736e-07
1.88193e-05
-1.32726e-07
1.88706e-05
-1.42013e-07
1.89249e-05
-1.47607e-07
1.89793e-05
-1.51335e-07
1.9033e-05
-1.53789e-07
1.90853e-05
-1.50916e-07
1.91341e-05
-1.40215e-07
1.91787e-05
-1.27738e-07
1.92189e-05
-1.14579e-07
1.92548e-05
-1.01338e-07
1.92864e-05
-8.87578e-08
1.93145e-05
-7.80929e-08
1.93391e-05
-6.79674e-08
1.93603e-05
-5.81103e-08
1.93782e-05
-4.83869e-08
1.9393e-05
-3.98431e-08
1.94056e-05
-3.35875e-08
1.94164e-05
-2.86118e-08
1.94257e-05
-2.44426e-08
1.94336e-05
-2.09013e-08
1.94405e-05
-1.78961e-08
1.94463e-05
-1.5286e-08
1.94513e-05
-1.31095e-08
1.94556e-05
-1.11372e-08
1.94593e-05
-9.57743e-09
1.94624e-05
-8.13301e-09
1.94651e-05
-6.96167e-09
1.94674e-05
-6.0303e-09
1.94694e-05
-5.13364e-09
1.94712e-05
-4.63154e-09
1.94726e-05
-3.89256e-09
1.94738e-05
-2.99004e-09
1.94748e-05
-2.50598e-09
1.94756e-05
-2.02238e-09
1.94763e-05
-2.06273e-09
1.94769e-05
-9.95842e-10
1.94771e-05
-1.03614e-09
1.94741e-05
1.37638e-08
1.94546e-05
7.70322e-08
1.92391e-05
1.06048e-06
1.9589e-05
-1.49935e-06
2.25074e-05
-1.18831e-05
2.39833e-05
-3.0669e-06
2.38621e-05
2.79701e-06
2.41604e-05
-2.12011e-06
2.35107e-05
3.75837e-06
2.34212e-05
-1.16659e-07
2.3285e-05
3.20605e-07
2.32326e-05
4.22973e-08
2.3163e-05
1.53489e-07
2.31146e-05
9.59699e-08
2.30649e-05
1.03001e-07
2.30175e-05
1.02751e-07
2.29801e-05
7.52911e-08
2.295e-05
5.9376e-08
2.29254e-05
4.45653e-08
2.29039e-05
4.03349e-08
2.28854e-05
3.22824e-08
2.28698e-05
2.64619e-08
2.28565e-05
2.23525e-08
2.28452e-05
1.90476e-08
2.28358e-05
1.56725e-08
2.28282e-05
1.25204e-08
2.28227e-05
7.50444e-09
2.28183e-05
6.98792e-09
2.28152e-05
4.42889e-09
2.2813e-05
3.53486e-09
2.28113e-05
2.45814e-09
2.28101e-05
2.18986e-09
2.28092e-05
1.1781e-09
2.28094e-05
-2.08829e-09
2.28098e-05
-7.89135e-10
2.28103e-05
-1.44725e-09
2.28108e-05
-8.77697e-10
2.28112e-05
-7.09018e-10
2.28117e-05
-1.14744e-09
2.2812e-05
-6.90519e-11
2.28124e-05
-1.09585e-09
2.28131e-05
-2.35069e-09
2.28139e-05
-2.06367e-09
2.28143e-05
-6.34406e-10
2.28147e-05
-1.02002e-09
2.2815e-05
-3.27553e-10
2.28149e-05
5.6157e-10
2.28152e-05
-8.01809e-10
2.28149e-05
1.57742e-09
2.28152e-05
-1.28682e-09
2.28149e-05
2.27092e-09
2.28156e-05
-4.58894e-09
2.28153e-05
2.7252e-09
2.28161e-05
-4.11574e-09
2.28155e-05
4.1054e-09
2.28164e-05
-4.59494e-09
2.28154e-05
5.6177e-09
2.28163e-05
-5.59072e-09
2.2815e-05
7.35616e-09
2.28161e-05
-6.78397e-09
2.28146e-05
8.91583e-09
2.28164e-05
-1.14591e-08
2.28148e-05
1.03111e-08
2.28171e-05
-1.23333e-08
2.2815e-05
1.29797e-08
2.28174e-05
-1.41226e-08
2.28147e-05
1.60531e-08
2.28175e-05
-1.65108e-08
2.28143e-05
1.86599e-08
2.28175e-05
-1.90945e-08
2.28139e-05
2.14997e-08
2.28181e-05
-2.50539e-08
2.28141e-05
2.45143e-08
2.2819e-05
-2.75717e-08
2.28143e-05
2.86725e-08
2.28196e-05
-3.0813e-08
2.28141e-05
3.30245e-08
2.282e-05
-3.46347e-08
2.28137e-05
3.74473e-08
2.28202e-05
-3.88095e-08
2.28131e-05
4.21553e-08
2.28204e-05
-4.35744e-08
2.2813e-05
4.41787e-08
2.28214e-05
-4.8877e-08
2.28132e-05
4.99718e-08
2.28223e-05
-5.33031e-08
2.28132e-05
5.53741e-08
2.28229e-05
-5.77732e-08
2.28128e-05
6.04699e-08
2.28233e-05
-6.22306e-08
2.28123e-05
6.54168e-08
2.28236e-05
-6.69779e-08
2.28123e-05
6.73331e-08
2.28246e-05
-7.19047e-08
2.28126e-05
7.26016e-08
2.28255e-05
-7.55612e-08
2.28126e-05
7.71268e-08
2.2826e-05
-7.89216e-08
2.28124e-05
8.09557e-08
2.28262e-05
-8.20164e-08
2.2812e-05
8.42151e-08
2.28262e-05
-8.44714e-08
2.28116e-05
8.65068e-08
2.28267e-05
-8.93704e-08
2.2812e-05
8.80148e-08
2.28274e-05
-8.99871e-08
2.28123e-05
8.98521e-08
2.28277e-05
-9.04664e-08
2.28123e-05
9.11164e-08
2.28277e-05
-9.07197e-08
2.28121e-05
9.16476e-08
2.28274e-05
-9.05729e-08
2.28118e-05
9.15022e-08
2.28275e-05
-9.28361e-08
2.28122e-05
9.04778e-08
2.28279e-05
-9.09285e-08
2.28126e-05
9.00136e-08
2.28279e-05
-8.92259e-08
2.28126e-05
8.90391e-08
2.28275e-05
-8.73683e-08
2.28124e-05
8.74914e-08
2.28269e-05
-8.52288e-08
2.28122e-05
8.52744e-08
2.28268e-05
-8.54567e-08
2.28126e-05
8.24569e-08
2.28269e-05
-8.18472e-08
2.2813e-05
8.02118e-08
2.28267e-05
-7.85266e-08
2.28131e-05
7.7695e-08
2.28261e-05
-7.51431e-08
2.2813e-05
7.4607e-08
2.28253e-05
-7.16974e-08
2.28127e-05
7.14597e-08
2.2825e-05
-7.09181e-08
2.28131e-05
6.77996e-08
2.28249e-05
-6.6214e-08
2.28135e-05
6.4461e-08
2.28245e-05
-6.20466e-08
2.28135e-05
6.1047e-08
2.28238e-05
-5.86335e-08
2.28134e-05
5.79465e-08
2.28229e-05
-5.46311e-08
2.28131e-05
5.46255e-08
2.28225e-05
-5.32197e-08
2.28135e-05
5.04069e-08
2.28223e-05
-4.9099e-08
2.28138e-05
4.67659e-08
2.28218e-05
-4.47846e-08
2.28137e-05
4.49673e-08
2.28211e-05
-4.13471e-08
2.28134e-05
4.10197e-08
2.28201e-05
-3.8232e-08
2.28135e-05
3.63019e-08
2.282e-05
-3.5545e-08
2.28139e-05
3.41304e-08
2.28197e-05
-3.27329e-08
2.28138e-05
3.14379e-08
2.2819e-05
-2.95247e-08
2.28137e-05
2.96711e-08
2.28184e-05
-2.64139e-08
2.28135e-05
2.63358e-08
2.28181e-05
-2.71165e-08
2.28138e-05
2.40922e-08
2.28181e-05
-2.27033e-08
2.2814e-05
2.30985e-08
2.28177e-05
-2.00875e-08
2.28137e-05
2.11752e-08
2.28169e-05
-1.85366e-08
2.28134e-05
1.75891e-08
2.28164e-05
-1.72574e-08
2.28134e-05
1.58448e-08
2.28162e-05
-1.48965e-08
2.28136e-05
1.53578e-08
2.28161e-05
-1.35546e-08
2.28135e-05
1.28035e-08
2.28156e-05
-1.24363e-08
2.28132e-05
1.24063e-08
2.28149e-05
-9.21033e-09
2.28127e-05
1.26316e-08
2.28148e-05
-1.20204e-08
2.2813e-05
9.61334e-09
2.28148e-05
-1.00225e-08
2.2813e-05
8.46255e-09
2.28146e-05
-9.34828e-09
2.28129e-05
9.50336e-09
2.2814e-05
-5.21208e-09
2.28124e-05
8.65464e-09
2.28138e-05
-8.1577e-09
2.28128e-05
5.97275e-09
2.28142e-05
-8.36655e-09
2.2813e-05
5.53705e-09
2.28139e-05
-5.19638e-09
2.28128e-05
6.08209e-09
2.28136e-05
-3.56307e-09
2.28126e-05
6.77544e-09
2.28136e-05
-5.95477e-09
2.28128e-05
3.20749e-09
2.28135e-05
-5.0395e-09
2.28126e-05
4.05675e-09
2.28134e-05
-3.75092e-09
2.28126e-05
5.96681e-09
2.2813e-05
-1.22702e-09
2.28123e-05
3.52407e-09
2.2813e-05
-6.21902e-09
2.28125e-05
1.84122e-09
2.28131e-05
-3.83625e-09
2.28124e-05
3.98441e-09
2.28127e-05
-3.02523e-10
2.28122e-05
4.29112e-09
2.28128e-05
-2.35849e-09
2.28124e-05
1.11394e-09
2.28128e-05
-4.69138e-09
2.28121e-05
2.71837e-09
2.28122e-05
-1.51032e-09
2.28115e-05
4.41532e-09
2.2812e-05
-7.01466e-10
2.2812e-05
2.03266e-09
2.28127e-05
-2.619e-09
2.2813e-05
-2.00761e-09
2.28132e-05
-3.02766e-09
2.28124e-05
1.9948e-09
2.28119e-05
1.94268e-10
2.28114e-05
3.13548e-09
2.28119e-05
1.01417e-09
2.28125e-05
3.16126e-10
2.2814e-05
-5.76975e-09
2.28138e-05
1.56588e-09
2.28138e-05
-4.04228e-09
2.28131e-05
2.24995e-09
2.28126e-05
4.49402e-10
2.2814e-05
-8.4635e-09
2.28115e-05
1.52658e-08
2.28113e-05
-5.98066e-10
2.28112e-05
-8.3217e-10
2.28112e-05
3.25957e-11
2.2811e-05
1.38706e-09
2.28114e-05
-9.2865e-10
2.28041e-05
1.55358e-07
2.29833e-05
-7.38732e-07
2.3366e-05
-2.48113e-06
2.19117e-05
7.47404e-06
1.89499e-05
1.20513e-05
1.87047e-05
-2.67042e-06
1.88085e-05
-1.58536e-06
-4.01169e-07
2.11553e-05
3.68077e-06
2.1773e-05
2.84866e-06
2.22033e-05
2.42923e-06
2.23509e-05
1.86359e-06
2.22868e-05
1.36631e-06
2.20946e-05
1.0518e-06
2.18449e-05
8.1003e-07
2.15955e-05
6.23806e-07
2.13819e-05
4.7193e-07
2.12076e-05
3.30554e-07
2.10672e-05
2.23984e-07
2.09564e-05
1.48333e-07
2.0877e-05
7.48107e-08
2.08265e-05
1.48191e-08
2.07984e-05
-3.20036e-08
2.07912e-05
-7.93372e-08
2.0799e-05
-1.12566e-07
2.08196e-05
-1.41311e-07
2.08515e-05
-1.64664e-07
2.08904e-05
-1.80873e-07
2.09334e-05
-1.90592e-07
2.09758e-05
-1.9372e-07
2.10156e-05
-1.93618e-07
2.1054e-05
-1.8937e-07
2.10896e-05
-1.75756e-07
2.11218e-05
-1.5995e-07
2.11506e-05
-1.43404e-07
2.1176e-05
-1.26756e-07
2.11983e-05
-1.1103e-07
2.1218e-05
-9.77331e-08
2.12351e-05
-8.51161e-08
2.12498e-05
-7.27845e-08
2.1262e-05
-6.05943e-08
2.12721e-05
-4.99221e-08
2.12806e-05
-4.21639e-08
2.1288e-05
-3.59871e-08
2.12944e-05
-3.07905e-08
2.12998e-05
-2.63438e-08
2.13045e-05
-2.25639e-08
2.13085e-05
-1.9274e-08
2.13119e-05
-1.65216e-08
2.13148e-05
-1.40516e-08
2.13173e-05
-1.20685e-08
2.13194e-05
-1.02571e-08
2.13212e-05
-8.77501e-09
2.13228e-05
-7.5937e-09
2.13241e-05
-6.45809e-09
2.13253e-05
-5.84607e-09
2.13263e-05
-4.87854e-09
2.13271e-05
-3.77098e-09
2.13278e-05
-3.1807e-09
2.13283e-05
-2.5735e-09
2.13289e-05
-2.61015e-09
2.13292e-05
-1.32787e-09
2.13297e-05
-1.54204e-09
2.13287e-05
1.47929e-08
2.13288e-05
7.69187e-08
2.13512e-05
1.03811e-06
2.15555e-05
-1.70373e-06
2.2715e-05
-1.30426e-05
2.35666e-05
-3.91852e-06
2.38301e-05
2.53347e-06
2.3896e-05
-2.18594e-06
2.38546e-05
3.79976e-06
2.38004e-05
-6.24424e-08
2.37331e-05
3.87811e-07
2.36938e-05
8.16697e-08
2.36546e-05
1.9264e-07
2.36258e-05
1.24767e-07
2.35957e-05
1.33132e-07
2.35681e-05
1.30428e-07
2.3546e-05
9.74311e-08
2.35276e-05
7.7766e-08
2.35113e-05
6.09163e-08
2.34964e-05
5.53392e-08
2.34827e-05
4.60423e-08
2.34704e-05
3.87621e-08
2.34596e-05
3.32216e-08
2.34502e-05
2.85356e-08
2.34421e-05
2.37504e-08
2.34354e-05
1.93485e-08
2.343e-05
1.28706e-08
2.34257e-05
1.13518e-08
2.34225e-05
7.69904e-09
2.342e-05
6.00904e-09
2.3418e-05
4.48144e-09
2.34165e-05
3.77684e-09
2.34152e-05
2.46476e-09
2.34147e-05
-1.59878e-09
2.34146e-05
-6.18982e-10
2.34146e-05
-1.43277e-09
2.34147e-05
-9.89745e-10
2.34148e-05
-8.16731e-10
2.3415e-05
-1.31894e-09
2.34152e-05
-2.51065e-10
2.34153e-05
-1.26397e-09
2.34156e-05
-2.58304e-09
2.3416e-05
-2.43565e-09
2.34163e-05
-9.31684e-10
2.34165e-05
-1.22281e-09
2.34167e-05
-5.29555e-10
2.34167e-05
5.29829e-10
2.34168e-05
-9.26798e-10
2.34168e-05
1.61317e-09
2.34169e-05
-1.37308e-09
2.34169e-05
2.29464e-09
2.3417e-05
-4.70847e-09
2.3417e-05
2.71045e-09
2.34173e-05
-4.36643e-09
2.34172e-05
4.16608e-09
2.34174e-05
-4.76292e-09
2.34172e-05
5.74908e-09
2.34174e-05
-5.70862e-09
2.34171e-05
7.57902e-09
2.34173e-05
-6.92456e-09
2.34171e-05
9.1318e-09
2.34173e-05
-1.16775e-08
2.34171e-05
1.0459e-08
2.34176e-05
-1.27441e-08
2.34173e-05
1.32065e-08
2.34177e-05
-1.44963e-08
2.34174e-05
1.6355e-08
2.34177e-05
-1.68672e-08
2.34173e-05
1.90896e-08
2.34177e-05
-1.94941e-08
2.34173e-05
2.19432e-08
2.34178e-05
-2.55913e-08
2.34174e-05
2.48843e-08
2.34182e-05
-2.83285e-08
2.34177e-05
2.91504e-08
2.34185e-05
-3.15669e-08
2.34178e-05
3.36442e-08
2.34186e-05
-3.53997e-08
2.34178e-05
3.82059e-08
2.34187e-05
-3.96224e-08
2.34178e-05
4.30334e-08
2.34187e-05
-4.4497e-08
2.34178e-05
4.5081e-08
2.3419e-05
-5.00634e-08
2.34181e-05
5.0813e-08
2.34194e-05
-5.45575e-08
2.34184e-05
5.63992e-08
2.34197e-05
-5.90683e-08
2.34185e-05
6.16653e-08
2.34198e-05
-6.35723e-08
2.34185e-05
6.67585e-08
2.34199e-05
-6.84145e-08
2.34185e-05
6.87164e-08
2.34202e-05
-7.35953e-08
2.34189e-05
7.39287e-08
2.34206e-05
-7.73034e-08
2.34191e-05
7.86307e-08
2.34209e-05
-8.06781e-08
2.34192e-05
8.26195e-08
2.3421e-05
-8.37956e-08
2.34192e-05
8.60064e-08
2.3421e-05
-8.62693e-08
2.34192e-05
8.83683e-08
2.34211e-05
-9.12769e-08
2.34193e-05
8.97294e-08
2.34214e-05
-9.20871e-08
2.34196e-05
9.16701e-08
2.34217e-05
-9.24914e-08
2.34197e-05
9.30492e-08
2.34217e-05
-9.26809e-08
2.34197e-05
9.36666e-08
2.34216e-05
-9.24805e-08
2.34195e-05
9.35367e-08
2.34215e-05
-9.48033e-08
2.34197e-05
9.23307e-08
2.34218e-05
-9.30487e-08
2.34199e-05
9.1939e-08
2.34219e-05
-9.1224e-08
2.34198e-05
9.10443e-08
2.34217e-05
-8.92666e-08
2.34197e-05
8.95219e-08
2.34215e-05
-8.7045e-08
2.34195e-05
8.72867e-08
2.34213e-05
-8.72739e-08
2.34196e-05
8.42456e-08
2.34215e-05
-8.37776e-08
2.34197e-05
8.20062e-08
2.34215e-05
-8.03201e-08
2.34197e-05
7.9516e-08
2.34213e-05
-7.67851e-08
2.34195e-05
7.64514e-08
2.3421e-05
-7.32065e-08
2.34192e-05
7.32449e-08
2.34207e-05
-7.24148e-08
2.34192e-05
6.92813e-08
2.34208e-05
-6.78151e-08
2.34193e-05
6.59729e-08
2.34207e-05
-6.34494e-08
2.34191e-05
6.25968e-08
2.34204e-05
-5.98566e-08
2.34189e-05
5.94203e-08
2.34201e-05
-5.5766e-08
2.34186e-05
5.60282e-08
2.34197e-05
-5.43384e-08
2.34186e-05
5.15503e-08
2.34197e-05
-5.02308e-08
2.34186e-05
4.79327e-08
2.34196e-05
-4.57883e-08
2.34185e-05
4.60405e-08
2.34193e-05
-4.21626e-08
2.34182e-05
4.21323e-08
2.34189e-05
-3.88969e-08
2.34179e-05
3.72905e-08
2.34187e-05
-3.64687e-08
2.3418e-05
3.48856e-08
2.34187e-05
-3.33914e-08
2.34179e-05
3.2337e-08
2.34184e-05
-3.00869e-08
2.34177e-05
3.03727e-08
2.34182e-05
-2.69938e-08
2.34174e-05
2.71546e-08
2.34179e-05
-2.75181e-08
2.34174e-05
2.45692e-08
2.3418e-05
-2.33058e-08
2.34175e-05
2.35553e-08
2.34179e-05
-2.05552e-08
2.34173e-05
2.1754e-08
2.34175e-05
-1.87867e-08
2.3417e-05
1.82572e-08
2.34173e-05
-1.74882e-08
2.34168e-05
1.63109e-08
2.34172e-05
-1.53637e-08
2.34169e-05
1.55677e-08
2.34171e-05
-1.38195e-08
2.34167e-05
1.33033e-08
2.34169e-05
-1.25216e-08
2.34165e-05
1.28082e-08
2.34167e-05
-9.46723e-09
2.34163e-05
1.28877e-08
2.34164e-05
-1.21391e-08
2.34163e-05
9.76521e-09
2.34165e-05
-1.01572e-08
2.34162e-05
8.90847e-09
2.34164e-05
-9.46484e-09
2.34162e-05
9.61094e-09
2.34163e-05
-5.40374e-09
2.34159e-05
8.88967e-09
2.3416e-05
-8.26626e-09
2.3416e-05
6.01941e-09
2.34162e-05
-8.50168e-09
2.34161e-05
5.84401e-09
2.3416e-05
-5.13926e-09
2.34158e-05
6.22425e-09
2.34161e-05
-3.91769e-09
2.3416e-05
6.67375e-09
2.3416e-05
-5.96833e-09
2.34158e-05
3.55157e-09
2.34158e-05
-4.87344e-09
2.34156e-05
4.30451e-09
2.34158e-05
-3.9712e-09
2.34158e-05
5.79964e-09
2.34159e-05
-1.47961e-09
2.34157e-05
3.70623e-09
2.34157e-05
-6.04937e-09
2.34157e-05
2.04236e-09
2.34157e-05
-3.79152e-09
2.34154e-05
4.21092e-09
2.34153e-05
-3.68984e-10
2.34154e-05
4.03515e-09
2.34159e-05
-2.86079e-09
2.3416e-05
1.1162e-09
2.34159e-05
-4.35938e-09
2.34154e-05
3.23121e-09
2.34149e-05
-1.01389e-09
2.34146e-05
4.53397e-09
2.34149e-05
-1.14325e-09
2.34153e-05
1.50874e-09
2.34161e-05
-3.30494e-09
2.34165e-05
-2.23358e-09
2.34163e-05
-2.66034e-09
2.34154e-05
2.9368e-09
2.34144e-05
1.1605e-09
2.3414e-05
3.2797e-09
2.34147e-05
1.68746e-10
2.34157e-05
-7.21857e-10
2.34171e-05
-7.13696e-09
2.34176e-05
1.28136e-09
2.34168e-05
-3.08809e-09
2.34159e-05
3.27608e-09
2.34153e-05
1.02261e-09
2.34155e-05
-8.70948e-09
2.34155e-05
1.52032e-08
2.34151e-05
-1.83007e-10
2.34151e-05
-8.05071e-10
2.34148e-05
3.02637e-10
2.34151e-05
1.0885e-09
2.34163e-05
-2.14194e-09
2.34357e-05
1.35994e-07
2.34858e-05
-7.88801e-07
2.34812e-05
-2.47652e-06
2.32398e-05
7.71542e-06
2.19815e-05
1.33096e-05
2.12983e-05
-1.98724e-06
2.11463e-05
-1.43338e-06