/*--------------------------------*- C++ -*----------------------------------*\
| =========                 |                                                 |
| \\      /  F ield         | foam-extend: Open Source CFD                    |
|  \\    /   O peration     | Version:     3.2                                |
|   \\  /    A nd           | Web:         http://www.foam-extend.org         |
|    \\/     M anipulation  | For copyright notice see file Copyright         |
\*---------------------------------------------------------------------------*/
FoamFile
{
    version     2.0;
    format      ascii;
    class       areaVectorField;
    location    "2020";
    object      PointNormalVector;
}
// * * * * * * * * * * * * * * * * * * * * * * * * * * * * * * * * * * * * * //

dimensions      [0 0 0 0 0 0 0];

internalField   nonuniform List<vector> 
300
(
(5e-06 -0 0.001)
(5e-06 -0 0.001)
(5e-06 -0 0.001)
(5e-06 -0 0.001)
(5e-06 -4.23516e-22 0.001)
(5e-06 -4.23516e-22 0.001)
(5e-06 -4.23516e-22 0.001)
(5e-06 -4.23516e-22 0.001)
(5e-06 -0 0.001)
(5e-06 -4.23516e-22 0.001)
(5e-06 -0 0.001)
(5e-06 4.23516e-22 0.001)
(5e-06 -0 0.001)
(5e-06 4.23516e-22 0.001)
(5e-06 -0 0.001)
(5e-06 -0 0.001)
(5e-06 4.23516e-22 0.001)
(5e-06 -4.23516e-22 0.001)
(5e-06 4.23516e-22 0.001)
(5e-06 -0 0.001)
(5e-06 -0 0.001)
(5e-06 -4.23516e-22 0.001)
(5e-06 -0 0.001)
(5e-06 -0 0.001)
(5e-06 -0 0.001)
(5e-06 -4.23516e-22 0.001)
(5e-06 -0 0.001)
(5e-06 -0 0.001)
(5e-06 -0 0.001)
(5e-06 -4.23516e-22 0.001)
(5e-06 -0 0.001)
(5e-06 -0 0.001)
(5e-06 -0 0.001)
(5e-06 -0 0.001)
(5e-06 -0 0.001)
(5e-06 -0 0.001)
(5e-06 -0 0.001)
(5e-06 -0 0.001)
(5e-06 -0 0.001)
(5e-06 -0 0.001)
(5e-06 -0 0.001)
(5e-06 -4.23516e-22 0.001)
(5e-06 -0 0.001)
(5e-06 -4.23516e-22 0.001)
(5e-06 -0 0.001)
(5e-06 -0 0.001)
(5e-06 -4.23516e-22 0.001)
(5e-06 -0 0.001)
(5e-06 -4.23516e-22 0.001)
(5e-06 -0 0.001)
(5e-06 -0 0.001)
(5e-06 -4.23516e-22 0.001)
(5e-06 -0 0.001)
(5e-06 -4.23516e-22 0.001)
(5e-06 -0 0.001)
(5e-06 -0 0.001)
(5e-06 -4.23516e-22 0.001)
(5e-06 -0 0.001)
(5e-06 -0 0.001)
(-7.94916e-05 -0 0.001)
(-2.59208e-05 -0 0.001)
(1.61634e-05 1.69407e-21 0.001)
(-1.49819e-05 1.69407e-21 0.001)
(2.19993e-05 -0 0.001)
(1.70789e-06 2.11758e-22 0.001)
(6.06178e-06 -0 0.001)
(4.51321e-06 -0 0.001)
(5.64648e-06 4.23516e-22 0.001)
(5.53644e-06 -0 0.001)
(5.80607e-06 4.23516e-22 0.001)
(5.95124e-06 -0 0.001)
(5.9424e-06 -0 0.001)
(5.96397e-06 -0 0.001)
(5.91205e-06 -0 0.001)
(5.88748e-06 4.23516e-22 0.001)
(5.81905e-06 4.23516e-22 0.001)
(5.74123e-06 -0 0.001)
(5.66343e-06 -0 0.001)
(5.5867e-06 -0 0.001)
(5.5063e-06 -0 0.001)
(5.43481e-06 -4.23516e-22 0.001)
(5.34862e-06 -0 0.001)
(5.29547e-06 -0 0.001)
(5.23865e-06 -0 0.001)
(5.19866e-06 -4.23516e-22 0.001)
(5.15745e-06 -0 0.001)
(5.12277e-06 -4.23516e-22 0.001)
(5.09717e-06 -4.23516e-22 0.001)
(5.0531e-06 -0 0.001)
(5.04576e-06 -4.23516e-22 0.001)
(5.02996e-06 -0 0.001)
(5.02254e-06 4.23516e-22 0.001)
(5.01851e-06 -0 0.001)
(5.00842e-06 -0 0.001)
(5.01122e-06 -0 0.001)
(5.00281e-06 -4.23516e-22 0.001)
(4.99261e-06 -0 0.001)
(4.99042e-06 -0 0.001)
(4.99712e-06 -0 0.001)
(4.99412e-06 -4.23516e-22 0.001)
(4.99653e-06 -4.23516e-22 0.001)
(5.0045e-06 4.23516e-22 0.001)
(4.99322e-06 4.23516e-22 0.001)
(5.011e-06 -0 0.001)
(4.9897e-06 4.23516e-22 0.001)
(5.01604e-06 -4.23516e-22 0.001)
(4.971e-06 4.23516e-22 0.001)
(5.01862e-06 -0 0.001)
(4.97141e-06 -4.23516e-22 0.001)
(5.02706e-06 -0 0.001)
(4.96816e-06 4.23516e-22 0.001)
(5.03703e-06 -4.23516e-22 0.001)
(4.96174e-06 -4.23516e-22 0.001)
(5.04871e-06 -0 0.001)
(4.95303e-06 -0 0.001)
(5.05958e-06 4.23516e-22 0.001)
(4.92574e-06 -0 0.001)
(5.06856e-06 -0 0.001)
(4.91718e-06 -0 0.001)
(5.0847e-06 -4.23516e-22 0.001)
(4.9048e-06 4.23516e-22 0.001)
(5.10438e-06 -0 0.001)
(4.88973e-06 -0 0.001)
(5.12212e-06 -0 0.001)
(4.87194e-06 4.23516e-22 0.001)
(5.141e-06 -4.23516e-22 0.001)
(4.83558e-06 -0 0.001)
(5.16005e-06 -0 0.001)
(4.81699e-06 -4.23516e-22 0.001)
(5.18604e-06 -0 0.001)
(4.79546e-06 -0 0.001)
(5.21409e-06 4.23516e-22 0.001)
(4.77088e-06 -4.23516e-22 0.001)
(5.24296e-06 -4.23516e-22 0.001)
(4.74412e-06 -0 0.001)
(5.27285e-06 -0 0.001)
(4.71392e-06 -0 0.001)
(5.28844e-06 4.23516e-22 0.001)
(4.67925e-06 4.23516e-22 0.001)
(5.3235e-06 4.23516e-22 0.001)
(4.6498e-06 -0 0.001)
(5.35767e-06 4.23516e-22 0.001)
(4.6211e-06 -0 0.001)
(5.39044e-06 -4.23516e-22 0.001)
(4.5928e-06 4.23516e-22 0.001)
(5.42165e-06 -0 0.001)
(4.56316e-06 -0 0.001)
(5.43632e-06 -0 0.001)
(4.53137e-06 -0 0.001)
(5.4679e-06 -0 0.001)
(4.50739e-06 -0 0.001)
(5.4964e-06 -4.23516e-22 0.001)
(4.48628e-06 -0 0.001)
(5.52108e-06 4.23516e-22 0.001)
(4.4673e-06 -4.23516e-22 0.001)
(5.54206e-06 -0 0.001)
(4.45158e-06 -0 0.001)
(5.55719e-06 -0 0.001)
(4.42344e-06 -0 0.001)
(5.56603e-06 -0 0.001)
(4.41806e-06 -0 0.001)
(5.57655e-06 -0 0.001)
(4.41549e-06 -4.23516e-22 0.001)
(5.58435e-06 -0 0.001)
(4.41481e-06 -0 0.001)
(5.58841e-06 -0 0.001)
(4.41632e-06 4.23516e-22 0.001)
(5.58748e-06 -0 0.001)
(4.40502e-06 -0 0.001)
(5.58064e-06 -4.23516e-22 0.001)
(4.41493e-06 -0 0.001)
(5.57695e-06 -4.23516e-22 0.001)
(4.42633e-06 -0 0.001)
(5.57101e-06 -0 0.001)
(4.43911e-06 -4.23516e-22 0.001)
(5.56178e-06 -0 0.001)
(4.4533e-06 -4.23516e-22 0.001)
(5.54765e-06 -0 0.001)
(4.45472e-06 -4.23516e-22 0.001)
(5.52929e-06 -0 0.001)
(4.47568e-06 -4.23516e-22 0.001)
(5.51425e-06 -0 0.001)
(4.49697e-06 4.23516e-22 0.001)
(5.49815e-06 -0 0.001)
(4.5195e-06 -0 0.001)
(5.4798e-06 -4.23516e-22 0.001)
(4.54215e-06 -0 0.001)
(5.45931e-06 -0 0.001)
(4.54956e-06 4.23516e-22 0.001)
(5.43451e-06 4.23516e-22 0.001)
(4.57669e-06 -0 0.001)
(5.41343e-06 -0 0.001)
(4.60439e-06 -0 0.001)
(5.39342e-06 4.23516e-22 0.001)
(4.62785e-06 -0 0.001)
(5.37289e-06 -0 0.001)
(4.65188e-06 4.23516e-22 0.001)
(5.34979e-06 -4.23516e-22 0.001)
(4.66252e-06 -0 0.001)
(5.32452e-06 -0 0.001)
(4.68996e-06 -0 0.001)
(5.30238e-06 4.23516e-22 0.001)
(4.71508e-06 -0 0.001)
(5.28577e-06 -0 0.001)
(4.73767e-06 -0 0.001)
(5.26596e-06 -0 0.001)
(4.75944e-06 -0 0.001)
(5.23353e-06 -0 0.001)
(4.77306e-06 -0 0.001)
(5.2202e-06 -0 0.001)
(4.79618e-06 -4.23516e-22 0.001)
(5.20543e-06 -0 0.001)
(4.81287e-06 -0 0.001)
(5.18765e-06 -0 0.001)
(4.8311e-06 -0 0.001)
(5.17321e-06 -0 0.001)
(4.83392e-06 -0 0.001)
(5.15591e-06 -0 0.001)
(4.85435e-06 -4.23516e-22 0.001)
(5.14367e-06 -0 0.001)
(4.86981e-06 4.23516e-22 0.001)
(5.13489e-06 -0 0.001)
(4.88558e-06 -0 0.001)
(5.11985e-06 -0 0.001)
(4.89601e-06 -0 0.001)
(5.10281e-06 -0 0.001)
(4.90143e-06 -0 0.001)
(5.09425e-06 -0 0.001)
(4.91574e-06 -4.23516e-22 0.001)
(5.08898e-06 -0 0.001)
(4.92606e-06 -4.23516e-22 0.001)
(5.08026e-06 -4.23516e-22 0.001)
(4.93479e-06 -0 0.001)
(5.07811e-06 -4.23516e-22 0.001)
(4.9252e-06 -0 0.001)
(5.06569e-06 -0 0.001)
(4.94294e-06 -0 0.001)
(5.0607e-06 -0 0.001)
(4.94349e-06 -0 0.001)
(5.05735e-06 -0 0.001)
(4.95827e-06 -4.23516e-22 0.001)
(5.05262e-06 4.23516e-22 0.001)
(4.94867e-06 -0 0.001)
(5.04256e-06 4.23516e-22 0.001)
(4.95532e-06 4.23516e-22 0.001)
(5.04068e-06 -4.23516e-22 0.001)
(4.9669e-06 4.23516e-22 0.001)
(5.03623e-06 -0 0.001)
(4.96969e-06 4.23516e-22 0.001)
(5.03839e-06 -0 0.001)
(4.96526e-06 -0 0.001)
(5.029e-06 4.23516e-22 0.001)
(4.97318e-06 -4.23516e-22 0.001)
(5.02784e-06 -4.23516e-22 0.001)
(4.97373e-06 -4.23516e-22 0.001)
(5.02954e-06 -4.23516e-22 0.001)
(4.98464e-06 -0 0.001)
(5.02711e-06 -0 0.001)
(4.97165e-06 -0 0.001)
(5.01983e-06 -0 0.001)
(4.97634e-06 -0 0.001)
(5.01918e-06 -0 0.001)
(4.98648e-06 -4.23516e-22 0.001)
(5.02174e-06 4.23516e-22 0.001)
(4.98984e-06 -4.23516e-22 0.001)
(5.021e-06 4.23516e-22 0.001)
(4.97912e-06 4.23516e-22 0.001)
(5.01647e-06 -0 0.001)
(4.9828e-06 -0 0.001)
(5.01599e-06 -0 0.001)
(4.98865e-06 -0 0.001)
(5.01482e-06 -0 0.001)
(4.99257e-06 -0 0.001)
(5.0024e-06 4.23516e-22 0.001)
(4.98699e-06 -0 0.001)
(5.00828e-06 -4.23516e-22 0.001)
(4.98919e-06 -0 0.001)
(5.00637e-06 -0 0.001)
(4.99829e-06 -4.23516e-22 0.001)
(5.00853e-06 4.23516e-22 0.001)
(4.97773e-06 -0 0.001)
(5.02549e-06 -4.23516e-22 0.001)
(4.97559e-06 4.23516e-22 0.001)
(5.00345e-06 -0 0.001)
(5.00783e-06 -0 0.001)
(4.94175e-06 -0 0.001)
(5.09e-06 -0 0.001)
(4.99986e-06 -4.23516e-22 0.001)
(5.00126e-06 -0 0.001)
(4.99545e-06 -0 0.001)
(5.02758e-06 -0 0.001)
(4.85722e-06 -0 0.001)
(5.20387e-06 -0 0.001)
(2.29931e-06 -2.11758e-22 0.001)
(-7.98514e-06 -0 0.001)
(3.61983e-05 -3.38813e-21 0.001)
(8.72268e-05 -0 0.001)
(5e-06 -0 0.001)
(5e-06 -0 0.001)
(5e-06 -0 0.001)
)
;

boundaryField
{
    inlet
    {
        type            calculated;
        value           uniform (0 0 0);
    }
    outlet
    {
        type            calculated;
        value           uniform (0 0 0);
    }
    sideWall
    {
        type            empty;
    }
}


// ************************************************************************* //
