/*--------------------------------*- C++ -*----------------------------------*\
| =========                 |                                                 |
| \\      /  F ield         | foam-extend: Open Source CFD                    |
|  \\    /   O peration     | Version:     3.2                                |
|   \\  /    A nd           | Web:         http://www.foam-extend.org         |
|    \\/     M anipulation  | For copyright notice see file Copyright         |
\*---------------------------------------------------------------------------*/
FoamFile
{
    version     2.0;
    format      ascii;
    class       areaVectorField;
    location    "2020";
    object      q_bed;
}
// * * * * * * * * * * * * * * * * * * * * * * * * * * * * * * * * * * * * * //

dimensions      [0 2 -1 0 0 0 0];

internalField   nonuniform List<vector> 
300
(
(2.75979e-05 0 -1.3799e-07)
(4.15304e-05 0 -2.07652e-07)
(2.9416e-05 0 -1.4708e-07)
(2.04471e-05 0 -1.02236e-07)
(1.58003e-05 2.6681e-27 -7.90014e-08)
(1.40429e-05 -8.238e-28 -7.02144e-08)
(1.33621e-05 -1.79685e-27 -6.68103e-08)
(1.32794e-05 -1.81497e-27 -6.63968e-08)
(1.33868e-05 5.04117e-31 -6.69339e-08)
(1.36117e-05 -1.66238e-27 -6.80586e-08)
(1.3881e-05 2.50913e-31 -6.94051e-08)
(1.41602e-05 1.27309e-27 -7.0801e-08)
(1.44331e-05 0 -7.21657e-08)
(1.47237e-05 1.18047e-27 -7.36184e-08)
(1.50035e-05 9.70973e-32 -7.50174e-08)
(1.52928e-05 -4.05285e-33 -7.64641e-08)
(1.56012e-05 1.15683e-27 -7.80058e-08)
(1.59093e-05 -1.1315e-27 -7.95464e-08)
(1.62255e-05 1.12021e-27 -8.11276e-08)
(1.65452e-05 0 -8.2726e-08)
(1.68672e-05 0 -8.43361e-08)
(1.71918e-05 -1.1864e-27 -8.59591e-08)
(1.75263e-05 1.33517e-31 -8.76317e-08)
(1.78674e-05 0 -8.93372e-08)
(1.81956e-05 0 -9.09778e-08)
(1.84976e-05 -1.08324e-27 -9.2488e-08)
(1.87702e-05 0 -9.38509e-08)
(1.90113e-05 0 -9.50566e-08)
(1.92209e-05 0 -9.61044e-08)
(1.94022e-05 -6.25042e-28 -9.7011e-08)
(1.95588e-05 0 -9.77938e-08)
(1.96922e-05 0 -9.84608e-08)
(1.98033e-05 -6.96934e-32 -9.90166e-08)
(1.98939e-05 0 -9.94693e-08)
(1.99671e-05 0 -9.98357e-08)
(2.00287e-05 0 -1.00144e-07)
(2.00796e-05 -3.8231e-32 -1.00398e-07)
(2.01233e-05 0 -1.00616e-07)
(2.01594e-05 0 -1.00797e-07)
(2.01911e-05 0 -1.00955e-07)
(2.02168e-05 -2.13247e-32 -1.01084e-07)
(2.02402e-05 -7.06539e-29 -1.01201e-07)
(2.02583e-05 0 -1.01292e-07)
(2.0276e-05 -5.18163e-29 -1.0138e-07)
(2.02884e-05 -1.15422e-32 -1.01442e-07)
(2.03019e-05 0 -1.01509e-07)
(2.03104e-05 -3.15124e-29 -1.01552e-07)
(2.03217e-05 0 -1.01609e-07)
(2.03249e-05 -2.48489e-29 -1.01625e-07)
(2.03398e-05 0 -1.01699e-07)
(2.03274e-05 0 -1.01637e-07)
(2.03672e-05 -2.20657e-29 -1.01836e-07)
(2.02981e-05 0 -1.0149e-07)
(2.04515e-05 -4.37254e-29 -1.02258e-07)
(2.01447e-05 0 -1.00723e-07)
(2.07864e-05 0 -1.03932e-07)
(1.94425e-05 1.16523e-27 -9.72126e-08)
(2.20003e-05 0 -1.10002e-07)
(1.37913e-05 -1.27713e-29 -6.89567e-08)
(1.9189e-05 0 1.52537e-06)
(5.75945e-05 -4.08253e-28 1.4929e-06)
(4.88618e-05 -6.49125e-25 -7.89775e-07)
(6.14093e-05 5.10548e-25 9.20031e-07)
(6.13468e-05 0 -1.34959e-06)
(4.53726e-05 1.75902e-26 -7.74916e-08)
(4.89151e-05 0 -2.96513e-07)
(4.82433e-05 -1.03269e-30 -2.17732e-07)
(4.9536e-05 -6.00662e-28 -2.79704e-07)
(4.9808e-05 8.31062e-31 -2.75759e-07)
(5.33397e-05 3.48479e-28 -3.09694e-07)
(5.3346e-05 0 -3.17475e-07)
(5.33539e-05 0 -3.1705e-07)
(5.33612e-05 0 -3.18244e-07)
(5.3367e-05 -4.46399e-31 -3.15508e-07)
(5.33704e-05 4.86054e-28 -3.14217e-07)
(5.33431e-05 5.48577e-28 -3.10406e-07)
(5.33219e-05 0 -3.06133e-07)
(5.32905e-05 0 -3.01807e-07)
(5.3249e-05 6.09849e-32 -2.97486e-07)
(5.32068e-05 0 -2.92973e-07)
(5.31551e-05 -2.12311e-28 -2.88888e-07)
(5.31157e-05 0 -2.84096e-07)
(5.30806e-05 0 -2.81087e-07)
(5.30418e-05 0 -2.77867e-07)
(5.30096e-05 -2.13573e-29 -2.75579e-07)
(5.29767e-05 -5.26564e-32 -2.73225e-07)
(5.29479e-05 5.39946e-31 -2.7124e-07)
(5.29174e-05 -6.28479e-29 -2.69729e-07)
(5.29008e-05 0 -2.67313e-07)
(5.28928e-05 3.52132e-29 -2.66885e-07)
(5.28786e-05 0 -2.65977e-07)
(5.28712e-05 -2.64811e-29 -2.65548e-07)
(5.28602e-05 -2.41658e-32 -2.6528e-07)
(5.28547e-05 0 -2.64718e-07)
(5.28473e-05 -8.45393e-33 -2.64829e-07)
(5.28399e-05 -1.245e-29 -2.64348e-07)
(5.28397e-05 -2.22746e-32 -2.63808e-07)
(5.28465e-05 1.28986e-32 -2.63726e-07)
(5.28477e-05 0 -2.64086e-07)
(5.28451e-05 -1.43449e-29 -2.63915e-07)
(5.28516e-05 2.83161e-29 -2.64075e-07)
(5.284e-05 -3.12567e-29 -2.64438e-07)
(5.28506e-05 1.22263e-29 -2.63895e-07)
(5.28319e-05 1.14609e-32 -2.6474e-07)
(5.28498e-05 5.06039e-29 -2.63705e-07)
(5.28226e-05 1.03999e-28 -2.6496e-07)
(5.28485e-05 1.89954e-28 -2.6271e-07)
(5.28321e-05 -1.68668e-32 -2.65144e-07)
(5.28593e-05 -1.50375e-28 -2.62785e-07)
(5.28294e-05 2.48202e-32 -2.65576e-07)
(5.2863e-05 1.87694e-28 -2.62632e-07)
(5.28228e-05 2.33194e-28 -2.6607e-07)
(5.28646e-05 -2.41132e-28 -2.623e-07)
(5.28132e-05 -4.05136e-32 -2.66638e-07)
(5.28656e-05 0 -2.61845e-07)
(5.28004e-05 -3.89001e-28 -2.67148e-07)
(5.2865e-05 0 -2.60399e-07)
(5.27793e-05 0 -2.67515e-07)
(5.28601e-05 0 -2.59923e-07)
(5.27801e-05 5.81972e-28 -2.68371e-07)
(5.28736e-05 6.23761e-28 -2.59334e-07)
(5.27927e-05 0 -2.69474e-07)
(5.28844e-05 8.15487e-32 -2.58591e-07)
(5.27725e-05 0 -2.70307e-07)
(5.28856e-05 8.59139e-28 -2.57656e-07)
(5.27634e-05 9.65353e-28 -2.71257e-07)
(5.28913e-05 0 -2.5576e-07)
(5.27694e-05 0 -2.72293e-07)
(5.2906e-05 -1.22028e-27 -2.54848e-07)
(5.27632e-05 0 -2.73632e-07)
(5.29133e-05 0 -2.53743e-07)
(5.27532e-05 -1.5087e-27 -2.7506e-07)
(5.2917e-05 -1.58413e-27 -2.52461e-07)
(5.27417e-05 1.71226e-27 -2.76523e-07)
(5.29187e-05 0 -2.51053e-07)
(5.27299e-05 1.83719e-31 -2.78037e-07)
(5.29183e-05 0 -2.49452e-07)
(5.27184e-05 -2.03822e-27 -2.78798e-07)
(5.29364e-05 2.22003e-27 -2.47703e-07)
(5.2718e-05 -2.34166e-27 -2.80644e-07)
(5.29436e-05 -2.33067e-31 -2.46177e-07)
(5.27114e-05 -2.58629e-27 -2.8241e-07)
(5.29464e-05 0 -2.44671e-07)
(5.27026e-05 2.82431e-27 -2.84091e-07)
(5.29461e-05 2.91457e-27 -2.43171e-07)
(5.26937e-05 0 -2.85687e-07)
(5.29433e-05 0 -2.41589e-07)
(5.26857e-05 0 -2.86416e-07)
(5.29584e-05 0 -2.39974e-07)
(5.26893e-05 3.04222e-31 -2.881e-07)
(5.29624e-05 0 -2.38722e-07)
(5.26867e-05 3.6539e-27 -2.89587e-07)
(5.29619e-05 0 -2.37602e-07)
(5.26819e-05 -3.83171e-27 -2.90861e-07)
(5.29591e-05 -3.88925e-27 -2.36584e-07)
(5.26763e-05 0 -2.91936e-07)
(5.29552e-05 3.47703e-31 -2.35734e-07)
(5.26697e-05 0 -2.92696e-07)
(5.29503e-05 0 -2.34223e-07)
(5.2683e-05 3.52663e-31 -2.93235e-07)
(5.29552e-05 0 -2.33959e-07)
(5.26869e-05 -3.5961e-31 -2.93811e-07)
(5.29531e-05 -4.32055e-27 -2.33814e-07)
(5.26877e-05 0 -2.94227e-07)
(5.29476e-05 0 -2.33754e-07)
(5.26871e-05 0 -2.94437e-07)
(5.29408e-05 4.34239e-27 -2.33804e-07)
(5.26852e-05 0 -2.94378e-07)
(5.29333e-05 0 -2.33172e-07)
(5.2702e-05 4.33067e-27 -2.94111e-07)
(5.29358e-05 0 -2.33708e-07)
(5.27091e-05 4.29463e-27 -2.93956e-07)
(5.29311e-05 0 -2.34291e-07)
(5.27127e-05 0 -2.93663e-07)
(5.29236e-05 -4.15899e-27 -2.34934e-07)
(5.27144e-05 0 -2.93186e-07)
(5.29152e-05 -4.0664e-27 -2.35647e-07)
(5.27147e-05 0 -2.92443e-07)
(5.29076e-05 -4.05022e-27 -2.35688e-07)
(5.27327e-05 3.58371e-31 -2.91574e-07)
(5.28982e-05 -3.85331e-27 -2.36755e-07)
(5.27314e-05 0 -2.90774e-07)
(5.28881e-05 3.71e-27 -2.37836e-07)
(5.27457e-05 -3.40786e-31 -2.90004e-07)
(5.28973e-05 -3.27724e-31 -2.39069e-07)
(5.27477e-05 3.5066e-27 -2.89047e-07)
(5.28603e-05 0 -2.401e-07)
(5.27184e-05 0 -2.87806e-07)
(5.28426e-05 3.34734e-27 -2.40411e-07)
(5.27273e-05 -3.19027e-27 -2.86547e-07)
(5.28829e-05 0 -2.42029e-07)
(5.27727e-05 0 -2.85681e-07)
(5.28796e-05 0 -2.43478e-07)
(5.27743e-05 -2.8628e-27 -2.84634e-07)
(5.27997e-05 0 -2.44349e-07)
(5.27023e-05 0 -2.83163e-07)
(5.27805e-05 2.59298e-27 -2.45529e-07)
(5.26907e-05 2.51476e-27 -2.81884e-07)
(5.28581e-05 0 -2.46452e-07)
(5.27906e-05 0 -2.81085e-07)
(5.28609e-05 0 -2.47915e-07)
(5.26795e-05 -2.19381e-27 -2.79327e-07)
(5.27313e-05 0 -2.48632e-07)
(5.26656e-05 -2.06334e-31 -2.78378e-07)
(5.28482e-05 0 -2.50377e-07)
(5.2797e-05 0 -2.78027e-07)
(5.26802e-05 0 -2.50728e-07)
(5.26308e-05 0 -2.75445e-07)
(5.28477e-05 -1.68228e-31 -2.52245e-07)
(5.28064e-05 -1.67561e-31 -2.7566e-07)
(5.28465e-05 -1.49496e-27 -2.53461e-07)
(5.26035e-05 1.52513e-31 -2.73824e-07)
(5.263e-05 0 -2.53302e-07)
(5.25906e-05 -1.35614e-31 -2.72822e-07)
(5.28379e-05 0 -2.55265e-07)
(5.28021e-05 0 -2.73156e-07)
(5.26027e-05 0 -2.54277e-07)
(5.25757e-05 0 -2.71076e-07)
(5.25908e-05 -1.05547e-27 -2.55294e-07)
(5.25578e-05 1.07852e-31 -2.7034e-07)
(5.28329e-05 9.72188e-28 -2.57286e-07)
(5.2813e-05 0 -2.71189e-07)
(5.28251e-05 8.78484e-32 -2.58081e-07)
(5.28098e-05 9.44019e-32 -2.70378e-07)
(5.25339e-05 0 -2.57206e-07)
(5.25062e-05 -8.05152e-32 -2.67929e-07)
(5.25212e-05 0 -2.57429e-07)
(5.28132e-05 0 -2.69043e-07)
(5.28254e-05 -6.10855e-28 -2.59676e-07)
(5.28116e-05 0 -2.68757e-07)
(5.24857e-05 -5.54934e-28 -2.58548e-07)
(5.24554e-05 5.46956e-28 -2.66487e-07)
(5.24738e-05 0 -2.58947e-07)
(5.27977e-05 5.21778e-28 -2.68112e-07)
(5.281e-05 0 -2.601e-07)
(5.28088e-05 0 -2.67513e-07)
(5.28162e-05 0 -2.61067e-07)
(5.24078e-05 4.50345e-32 -2.6522e-07)
(5.24257e-05 0 -2.59166e-07)
(5.24078e-05 -4.17409e-32 -2.65045e-07)
(5.24115e-05 -3.26059e-28 -2.5987e-07)
(5.27938e-05 -3.30127e-28 -2.66747e-07)
(5.28056e-05 0 -2.61317e-07)
(5.28043e-05 -3.25436e-28 -2.66269e-07)
(5.28124e-05 3.06095e-28 -2.61702e-07)
(5.23783e-05 3.05435e-28 -2.64022e-07)
(5.23869e-05 2.34063e-28 -2.602e-07)
(5.23633e-05 0 -2.63714e-07)
(5.23824e-05 2.47077e-28 -2.60325e-07)
(5.27968e-05 1.87648e-32 -2.66011e-07)
(5.28034e-05 0 -2.62183e-07)
(5.28046e-05 -2.29788e-28 -2.65555e-07)
(5.23547e-05 -1.84043e-28 -2.60369e-07)
(5.23257e-05 1.8934e-28 -2.63086e-07)
(5.2346e-05 -2.06241e-28 -2.60355e-07)
(5.23209e-05 2.06431e-28 -2.6315e-07)
(5.28027e-05 0 -2.63203e-07)
(5.27899e-05 0 -2.6538e-07)
(5.27986e-05 0 -2.62497e-07)
(5.22938e-05 0 -2.62506e-07)
(5.23157e-05 0 -2.60341e-07)
(5.22937e-05 1.3345e-32 -2.62472e-07)
(5.23106e-05 -9.74543e-29 -2.60846e-07)
(5.27971e-05 -1.4413e-28 -2.65133e-07)
(5.27991e-05 -8.75281e-29 -2.63459e-07)
(5.27885e-05 -1.32094e-28 -2.65051e-07)
(5.22806e-05 1.70165e-28 -2.60311e-07)
(5.22514e-05 0 -2.62118e-07)
(5.22778e-05 0 -2.6049e-07)
(5.22491e-05 0 -2.62081e-07)
(5.2794e-05 0 -2.63371e-07)
(5.27941e-05 0 -2.64753e-07)
(5.27904e-05 0 -2.6356e-07)
(5.27916e-05 -2.52658e-29 -2.64085e-07)
(5.22527e-05 0 -2.60584e-07)
(5.22101e-05 7.51665e-29 -2.61483e-07)
(5.22336e-05 1.38165e-32 -2.60603e-07)
(5.21918e-05 0 -2.61292e-07)
(5.28041e-05 2.3259e-30 -2.6393e-07)
(5.27857e-05 -4.34099e-29 -2.64379e-07)
(5.28039e-05 0 -2.62844e-07)
(5.2803e-05 2.1957e-28 -2.65361e-07)
(5.21603e-05 1.63077e-28 -2.59528e-07)
(5.21478e-05 1.75728e-32 -2.60919e-07)
(5.21402e-05 -9.73479e-33 -2.61109e-07)
(5.21814e-05 0 -2.57867e-07)
(5.22046e-05 1.07648e-31 -2.65721e-07)
(5.20076e-05 -1.28878e-28 -2.60031e-07)
(5.21082e-05 2.38798e-33 -2.60606e-07)
(5.19468e-05 0 -2.59498e-07)
(5.22087e-05 0 -2.62484e-07)
(5.26151e-05 0 -2.55563e-07)
(5.31589e-05 -1.31231e-31 -2.76632e-07)
(5.04187e-05 -1.20031e-26 -1.15928e-07)
(4.75833e-05 -1.91894e-29 3.79959e-07)
(6.77169e-05 2.8745e-24 -2.45123e-06)
(2.18631e-05 -6.90182e-28 -1.90705e-06)
(9.62713e-06 0 -4.81356e-08)
(1.62766e-05 0 -8.13831e-08)
(1.72164e-05 0 -8.60818e-08)
)
;

boundaryField
{
    inlet
    {
        type            zeroGradient;
    }
    outlet
    {
        type            zeroGradient;
    }
    sideWall
    {
        type            empty;
    }
}


// ************************************************************************* //
