/*--------------------------------*- C++ -*----------------------------------*\
| =========                 |                                                 |
| \\      /  F ield         | foam-extend: Open Source CFD                    |
|  \\    /   O peration     | Version:     3.2                                |
|   \\  /    A nd           | Web:         http://www.foam-extend.org         |
|    \\/     M anipulation  | For copyright notice see file Copyright         |
\*---------------------------------------------------------------------------*/
FoamFile
{
    version     2.0;
    format      ascii;
    class       edgeScalarField;
    location    "2020";
    object      q_f;
}
// * * * * * * * * * * * * * * * * * * * * * * * * * * * * * * * * * * * * * //

dimensions      [0 3 -1 0 0 0 0];

internalField   nonuniform List<scalar> 
299
(
6.91292e-07
7.09473e-07
4.98637e-07
3.62479e-07
2.98435e-07
2.74053e-07
2.66417e-07
2.66665e-07
2.69988e-07
2.74931e-07
2.80416e-07
2.85937e-07
2.91572e-07
2.97275e-07
3.02967e-07
3.08944e-07
3.15108e-07
3.21352e-07
3.27711e-07
3.34128e-07
3.40595e-07
3.47186e-07
3.53942e-07
3.60635e-07
3.66936e-07
3.72682e-07
3.7782e-07
3.82327e-07
3.86236e-07
3.89614e-07
3.92514e-07
3.9496e-07
3.96977e-07
3.98615e-07
3.99964e-07
4.01088e-07
4.02034e-07
4.02832e-07
4.0351e-07
4.04084e-07
4.04576e-07
4.04991e-07
4.05348e-07
4.05648e-07
4.05908e-07
4.06128e-07
4.06326e-07
4.06472e-07
4.06653e-07
4.06678e-07
4.06951e-07
4.06658e-07
4.07501e-07
4.05967e-07
4.09315e-07
4.02294e-07
4.14434e-07
3.57921e-07
3.30325e-07
7.69174e-07
1.06481e-06
1.10285e-06
1.22778e-06
1.06732e-06
9.42886e-07
9.71597e-07
9.77805e-07
9.93455e-07
1.03149e-06
1.06688e-06
1.06702e-06
1.06717e-06
1.0673e-06
1.06739e-06
1.06715e-06
1.06667e-06
1.06614e-06
1.06541e-06
1.06458e-06
1.06364e-06
1.06272e-06
1.06198e-06
1.06124e-06
1.06053e-06
1.05988e-06
1.05926e-06
1.05867e-06
1.0582e-06
1.05795e-06
1.05773e-06
1.05751e-06
1.05733e-06
1.05716e-06
1.05703e-06
1.05688e-06
1.05681e-06
1.05688e-06
1.05696e-06
1.05694e-06
1.05698e-06
1.05693e-06
1.05692e-06
1.05684e-06
1.05683e-06
1.05674e-06
1.05672e-06
1.05682e-06
1.05693e-06
1.0569e-06
1.05694e-06
1.05687e-06
1.05689e-06
1.05679e-06
1.0568e-06
1.05667e-06
1.05667e-06
1.05646e-06
1.05641e-06
1.05642e-06
1.05655e-06
1.05668e-06
1.05678e-06
1.05658e-06
1.05659e-06
1.0565e-06
1.05656e-06
1.05662e-06
1.05677e-06
1.05671e-06
1.05678e-06
1.05668e-06
1.05672e-06
1.0566e-06
1.05662e-06
1.0565e-06
1.0565e-06
1.05638e-06
1.05656e-06
1.05656e-06
1.05663e-06
1.05656e-06
1.05659e-06
1.0565e-06
1.0565e-06
1.05641e-06
1.05638e-06
1.0563e-06
1.05645e-06
1.05649e-06
1.05653e-06
1.0565e-06
1.0565e-06
1.05645e-06
1.05642e-06
1.05637e-06
1.05633e-06
1.05626e-06
1.05621e-06
1.05635e-06
1.0564e-06
1.05643e-06
1.05641e-06
1.05642e-06
1.05637e-06
1.05636e-06
1.05629e-06
1.05627e-06
1.0562e-06
1.05637e-06
1.05639e-06
1.05646e-06
1.05642e-06
1.05645e-06
1.05638e-06
1.05639e-06
1.05631e-06
1.05631e-06
1.05624e-06
1.05642e-06
1.05632e-06
1.05631e-06
1.05621e-06
1.05635e-06
1.05644e-06
1.05646e-06
1.05609e-06
1.0558e-06
1.05562e-06
1.05571e-06
1.05612e-06
1.05657e-06
1.05654e-06
1.05655e-06
1.05575e-06
1.05503e-06
1.05484e-06
1.05472e-06
1.0555e-06
1.0565e-06
1.05653e-06
1.05542e-06
1.05412e-06
1.05398e-06
1.05515e-06
1.05646e-06
1.05478e-06
1.05312e-06
1.0548e-06
1.05655e-06
1.05654e-06
1.05451e-06
1.05235e-06
1.05222e-06
1.0543e-06
1.05641e-06
1.05406e-06
1.0518e-06
1.05168e-06
1.0515e-06
1.05392e-06
1.05647e-06
1.05639e-06
1.05636e-06
1.05345e-06
1.05041e-06
1.05029e-06
1.05336e-06
1.0564e-06
1.05638e-06
1.05299e-06
1.04942e-06
1.04931e-06
1.05273e-06
1.05609e-06
1.0562e-06
1.05626e-06
1.05225e-06
1.04835e-06
1.04835e-06
1.04821e-06
1.05207e-06
1.05601e-06
1.05611e-06
1.05618e-06
1.05192e-06
1.04766e-06
1.04752e-06
1.04747e-06
1.05181e-06
1.05602e-06
1.05609e-06
1.05161e-06
1.04682e-06
1.04673e-06
1.04668e-06
1.05125e-06
1.05594e-06
1.0559e-06
1.05094e-06
1.04611e-06
1.04611e-06
1.04606e-06
1.05109e-06
1.05597e-06
1.05589e-06
1.0507e-06
1.04533e-06
1.0453e-06
1.04528e-06
1.05044e-06
1.05589e-06
1.05586e-06
1.05583e-06
1.05046e-06
1.04464e-06
1.04445e-06
1.04427e-06
1.04997e-06
1.05591e-06
1.05591e-06
1.05608e-06
1.04965e-06
1.04309e-06
1.04289e-06
1.04323e-06
1.04387e-06
1.04213e-06
1.04117e-06
1.04056e-06
1.04157e-06
1.04825e-06
1.05775e-06
1.03578e-06
9.80037e-07
1.1534e-06
8.97792e-07
3.15501e-07
2.59041e-07
3.34934e-07
)
;

boundaryField
{
    inlet
    {
        type            calculated;
        value           uniform 0;
    }
    outlet
    {
        type            calculated;
        value           uniform 0;
    }
    sideWall
    {
        type            empty;
    }
}


// ************************************************************************* //
