/*--------------------------------*- C++ -*----------------------------------*\
| =========                 |                                                 |
| \\      /  F ield         | foam-extend: Open Source CFD                    |
|  \\    /   O peration     | Version:     3.2                                |
|   \\  /    A nd           | Web:         http://www.foam-extend.org         |
|    \\/     M anipulation  | For copyright notice see file Copyright         |
\*---------------------------------------------------------------------------*/
FoamFile
{
    version     2.0;
    format      ascii;
    class       areaScalarField;
    location    "2020";
    object      SSd1;
}
// * * * * * * * * * * * * * * * * * * * * * * * * * * * * * * * * * * * * * //

dimensions      [0 1 -2 -1 0 0 0];

internalField   nonuniform List<scalar> 
300
(
0.000142861
0.000142861
0.000142861
0.000142861
0.000142861
0.000142861
0.000142861
0.000142861
0.000142861
0.000142861
0.000142861
0.000142861
0.000142861
0.000142861
0.000142861
0.000142861
0.000142861
0.000142861
0.000142861
0.000142861
0.000142861
0.000142861
0.000142861
0.000142861
0.000142861
0.000142861
0.000142861
0.000142861
0.000142861
0.000142861
0.000142861
0.000142861
0.000142861
0.000142861
0.000142861
0.000142861
0.000142861
0.000142861
0.000142861
0.000142861
0.000142861
0.000142861
0.000142861
0.000142861
0.000142861
0.000142861
0.000142861
0.000142861
0.000142861
0.000142861
0.000142861
0.000142861
0.000142861
0.000142861
0.000142861
0.000142861
0.000142861
0.000142861
0.000142861
0.000142861
0.000142861
0.000142861
0.000142861
0.000142861
0.000142861
0.000142861
0.000142861
0.000142861
0.000142861
0.000142861
0.000142851
0.000142845
0.000142841
0.000142839
0.00014284
0.000142841
0.000142841
0.000142843
0.000142846
0.000142848
0.00014285
0.000142851
0.000142852
0.000142854
0.000142855
0.000142856
0.000142857
0.000142857
0.000142856
0.000142856
0.000142857
0.000142857
0.000142857
0.000142857
0.000142857
0.000142857
0.000142856
0.000142856
0.000142856
0.000142855
0.000142856
0.000142855
0.000142855
0.000142854
0.000142855
0.000142853
0.000142853
0.000142849
0.000142852
0.000142848
0.000142851
0.000142846
0.00014285
0.000142845
0.00014285
0.000142843
0.000142848
0.00014284
0.000142848
0.000142839
0.000142848
0.000142837
0.000142849
0.000142836
0.000142849
0.000142835
0.000142849
0.000142833
0.00014285
0.000142832
0.000142852
0.000142831
0.000142853
0.000142831
0.000142855
0.00014283
0.000142857
0.000142828
0.000142857
0.000142827
0.00014286
0.000142827
0.000142862
0.000142827
0.000142864
0.000142827
0.000142867
0.000142826
0.000142867
0.000142826
0.00014287
0.000142827
0.000142872
0.000142828
0.000142874
0.000142828
0.000142876
0.000142829
0.000142877
0.000142829
0.000142878
0.00014283
0.00014288
0.000142832
0.000142881
0.000142833
0.000142882
0.000142834
0.000142881
0.000142834
0.000142881
0.000142835
0.000142882
0.000142837
0.000142882
0.000142838
0.000142882
0.000142839
0.000142881
0.000142839
0.00014288
0.000142841
0.00014288
0.000142842
0.00014288
0.000142844
0.00014288
0.000142845
0.000142878
0.000142845
0.000142877
0.000142846
0.000142877
0.000142848
0.000142876
0.000142849
0.000142876
0.00014285
0.000142874
0.00014285
0.000142873
0.000142851
0.000142873
0.000142852
0.000142872
0.000142854
0.000142871
0.000142853
0.000142869
0.000142854
0.000142869
0.000142854
0.000142868
0.000142855
0.000142868
0.000142856
0.000142866
0.000142855
0.000142865
0.000142855
0.000142865
0.000142856
0.000142864
0.000142856
0.000142864
0.000142855
0.000142861
0.000142855
0.000142861
0.000142855
0.00014286
0.000142855
0.00014286
0.000142854
0.000142858
0.000142853
0.000142857
0.000142852
0.000142857
0.000142853
0.000142856
0.000142852
0.000142854
0.000142851
0.000142854
0.000142852
0.000142854
0.000142852
0.000142855
0.000142852
0.000142853
0.000142851
0.000142853
0.000142851
0.000142854
0.000142852
0.000142854
0.000142852
0.000142853
0.000142852
0.000142854
0.000142853
0.000142855
0.000142854
0.000142855
0.000142854
0.000142855
0.000142854
0.000142855
0.000142855
0.000142856
0.000142856
0.000142857
0.000142856
0.000142857
0.000142857
0.000142858
0.000142858
0.000142859
0.000142859
0.00014286
0.000142859
0.00014286
0.000142862
0.00014286
0.000142866
0.000142864
0.000142863
0.000142863
0.000142863
0.000142863
0.000142863
0.000142863
0.000142863
0.000142863
0.000142863
0.000142863
0.000142864
0.000142864
0.000142864
)
;

boundaryField
{
    inlet
    {
        type            calculated;
        value           uniform 0;
    }
    outlet
    {
        type            calculated;
        value           uniform 0;
    }
    sideWall
    {
        type            empty;
    }
}


// ************************************************************************* //
