/*--------------------------------*- C++ -*----------------------------------*\
| =========                 |                                                 |
| \\      /  F ield         | foam-extend: Open Source CFD                    |
|  \\    /   O peration     | Version:     3.2                                |
|   \\  /    A nd           | Web:         http://www.foam-extend.org         |
|    \\/     M anipulation  | For copyright notice see file Copyright         |
\*---------------------------------------------------------------------------*/
FoamFile
{
    version     2.0;
    format      ascii;
    class       areaScalarField;
    location    "2020";
    object      SSe1;
}
// * * * * * * * * * * * * * * * * * * * * * * * * * * * * * * * * * * * * * //

dimensions      [0 1 -2 -1 0 0 0];

internalField   nonuniform List<scalar> 
300
(
0.000100092
0.000135641
0.000104817
8.10092e-05
6.81019e-05
6.30697e-05
6.10925e-05
6.08512e-05
6.11646e-05
6.18195e-05
6.26012e-05
6.34088e-05
6.41958e-05
6.50308e-05
6.58324e-05
6.66588e-05
6.75366e-05
6.8411e-05
6.93055e-05
7.02071e-05
7.11123e-05
7.20222e-05
7.29569e-05
7.39073e-05
7.48188e-05
7.56556e-05
7.6409e-05
7.70742e-05
7.76512e-05
7.81497e-05
7.85795e-05
7.89454e-05
7.925e-05
7.94979e-05
7.96984e-05
7.98668e-05
8.00059e-05
8.01253e-05
8.02239e-05
8.03105e-05
8.03808e-05
8.04447e-05
8.04941e-05
8.05422e-05
8.05761e-05
8.0613e-05
8.06361e-05
8.06671e-05
8.06758e-05
8.07165e-05
8.06826e-05
8.07911e-05
8.06026e-05
8.10211e-05
8.01837e-05
8.19327e-05
7.82607e-05
8.5216e-05
6.23831e-05
4.18742e-05
0.000142861
0.000142861
0.000142861
0.000142862
0.000142859
0.000142862
0.000142859
0.000142862
0.000142863
0.000142881
0.000142535
0.000142513
0.000142522
0.00014255
0.000142615
0.000142668
0.000142677
0.000142735
0.000142774
0.000142817
0.000142826
0.00014281
0.000142829
0.000142846
0.000142852
0.000142857
0.000142862
0.00014285
0.000142817
0.000142825
0.000142831
0.000142839
0.000142834
0.000142848
0.000142838
0.000142846
0.000142797
0.000142825
0.000142827
0.000142836
0.000142856
0.000142828
0.000142878
0.00014282
0.000142899
0.00014281
0.000142867
0.000142769
0.000142907
0.000142767
0.000142937
0.000142755
0.000142967
0.000142734
0.000142998
0.000142707
0.000142981
0.000142649
0.000143037
0.000142629
0.000143083
0.000142597
0.000143124
0.00014256
0.000143177
0.000142516
0.000143183
0.00014244
0.000143258
0.000142404
0.000143321
0.000142356
0.000143381
0.000142303
0.000143441
0.000142247
0.000143501
0.000142144
0.000143535
0.000142107
0.000143611
0.000142056
0.000143676
0.000142004
0.000143734
0.000141954
0.000143788
0.00014186
0.000143812
0.000141836
0.000143873
0.000141803
0.00014392
0.000141771
0.000143957
0.000141743
0.000143989
0.000141722
0.000143965
0.000141683
0.000144
0.00014169
0.000144014
0.000141696
0.000144018
0.000141704
0.000144016
0.000141715
0.000143963
0.000141707
0.000143968
0.000141744
0.000143956
0.000141776
0.000143935
0.000141808
0.000143911
0.000141844
0.000143839
0.000141857
0.000143825
0.000141912
0.000143797
0.000141961
0.000143764
0.000142008
0.000143729
0.000142053
0.000143646
0.000142077
0.000143624
0.000142139
0.00014359
0.000142187
0.000143556
0.000142236
0.000143519
0.000142286
0.000143435
0.000142305
0.000143415
0.000142362
0.000143386
0.000142407
0.000143347
0.000142451
0.000143312
0.000142449
0.000143257
0.000142505
0.000143236
0.000142541
0.000143214
0.000142582
0.000143196
0.000142614
0.000143133
0.000142617
0.000143127
0.00014265
0.000143111
0.000142677
0.000143086
0.000142709
0.000143079
0.000142682
0.000143034
0.000142723
0.000143026
0.000142743
0.000143019
0.000142756
0.000143019
0.000142763
0.000142963
0.000142758
0.000142967
0.00014277
0.000142976
0.000142799
0.000142961
0.000142795
0.000142921
0.000142787
0.000142944
0.000142816
0.000142941
0.000142829
0.000142949
0.000142827
0.000142897
0.000142813
0.000142914
0.000142825
0.000142927
0.00014284
0.000142918
0.000142836
0.000142884
0.000142827
0.000142908
0.000142849
0.000142909
0.00014285
0.00014291
0.000142851
0.000142873
0.000142831
0.000142889
0.000142851
0.000142891
0.000142866
0.000142894
0.000142838
0.000142881
0.000142864
0.000142896
0.000142886
0.000142904
0.000142875
0.00014289
0.000142848
0.00014288
0.000142937
0.00014281
0.00014304
0.000142878
0.00014286
0.000142875
0.000142857
0.000142871
0.000142855
0.000142869
0.000142854
0.000142871
0.000142859
4.87696e-05
4.94771e-05
6.94975e-05
7.2087e-05
)
;

boundaryField
{
    inlet
    {
        type            calculated;
        value           uniform 0;
    }
    outlet
    {
        type            calculated;
        value           uniform 0;
    }
    sideWall
    {
        type            empty;
    }
}


// ************************************************************************* //
