/*--------------------------------*- C++ -*----------------------------------*\
| =========                 |                                                 |
| \\      /  F ield         | foam-extend: Open Source CFD                    |
|  \\    /   O peration     | Version:     3.2                                |
|   \\  /    A nd           | Web:         http://www.foam-extend.org         |
|    \\/     M anipulation  | For copyright notice see file Copyright         |
\*---------------------------------------------------------------------------*/
FoamFile
{
    version     2.0;
    format      ascii;
    class       areaScalarField;
    location    "2020";
    object      tau;
}
// * * * * * * * * * * * * * * * * * * * * * * * * * * * * * * * * * * * * * //

dimensions      [1 1 2 0 0 0 0];

internalField   nonuniform List<scalar> 
300
(
0.908737
1.10888
0.936569
0.791531
0.706971
0.672579
0.658818
0.657128
0.659322
0.663894
0.669331
0.674924
0.680352
0.686087
0.691569
0.697197
0.70315
0.709055
0.715069
0.721104
0.727139
0.733178
0.739356
0.74561
0.751584
0.757047
0.761948
0.766261
0.769993
0.773209
0.775978
0.77833
0.780285
0.781875
0.783159
0.784238
0.785128
0.785891
0.786521
0.787074
0.787524
0.787931
0.788247
0.788554
0.78877
0.789005
0.789153
0.78935
0.789406
0.789666
0.78945
0.790141
0.788939
0.791606
0.786264
0.797402
0.773923
0.818125
0.667528
0.961755
1.59978
1.38526
1.41047
1.39283
1.23105
1.26327
1.24991
1.25896
1.25783
1.26028
1.26029
1.2604
1.26048
1.26057
1.26062
1.26032
1.26009
1.25974
1.25926
1.25877
1.25817
1.25772
1.25731
1.25685
1.25647
1.25608
1.25574
1.25537
1.25519
1.25509
1.25492
1.25484
1.2547
1.25464
1.25454
1.25446
1.25446
1.25454
1.25456
1.25453
1.2546
1.25446
1.25459
1.25435
1.25458
1.25424
1.25458
1.25435
1.25471
1.25432
1.25476
1.25423
1.25478
1.2541
1.2548
1.25394
1.2548
1.25401
1.25496
1.25394
1.25503
1.25383
1.25506
1.25366
1.25512
1.25347
1.25518
1.25352
1.25537
1.25343
1.25547
1.25329
1.25552
1.25313
1.25555
1.25297
1.25556
1.25282
1.2558
1.2528
1.2559
1.2527
1.25595
1.25258
1.25596
1.25246
1.25593
1.25235
1.25614
1.25238
1.2562
1.25234
1.2562
1.25226
1.25617
1.25219
1.25613
1.2521
1.25608
1.25226
1.25615
1.2523
1.25612
1.25231
1.25605
1.2523
1.25597
1.25228
1.25588
1.25249
1.25591
1.25258
1.25585
1.25262
1.25575
1.25265
1.25564
1.25266
1.25554
1.25289
1.25555
1.253
1.25548
1.25307
1.25538
1.2531
1.25528
1.25311
1.25518
1.25334
1.25518
1.25344
1.25513
1.25347
1.25504
1.2535
1.25493
1.25351
1.25483
1.2537
1.25486
1.25377
1.25481
1.2538
1.25468
1.25381
1.25457
1.25381
1.25466
1.25394
1.25463
1.25394
1.25455
1.25394
1.25451
1.25391
1.25445
1.25407
1.25449
1.25407
1.25443
1.25406
1.25433
1.25403
1.25428
1.25401
1.25434
1.25408
1.25432
1.25407
1.25427
1.25398
1.25425
1.2539
1.25412
1.25404
1.25419
1.25398
1.25416
1.25402
1.25409
1.25386
1.25405
1.254
1.25414
1.25406
1.25412
1.25399
1.25409
1.2539
1.25402
1.25401
1.25408
1.25397
1.25406
1.25397
1.254
1.25382
1.25396
1.25397
1.25403
1.254
1.25403
1.25392
1.25396
1.25381
1.25391
1.25391
1.25394
1.25392
1.25389
1.25388
1.25385
1.25386
1.25398
1.25395
1.25399
1.25395
1.25401
1.25378
1.25402
1.25399
1.25387
1.25418
1.25363
1.25439
1.25422
1.25344
1.25383
1.25333
1.25447
1.25173
1.25832
1.22542
1.31967
1.50256
0.782762
0.577907
0.716042
0.733633
)
;

boundaryField
{
    inlet
    {
        type            calculated;
        value           uniform 0;
    }
    outlet
    {
        type            calculated;
        value           uniform 0;
    }
    sideWall
    {
        type            empty;
    }
}


// ************************************************************************* //
