/*--------------------------------*- C++ -*----------------------------------*\
| =========                 |                                                 |
| \\      /  F ield         | foam-extend: Open Source CFD                    |
|  \\    /   O peration     | Version:     3.2                                |
|   \\  /    A nd           | Web:         http://www.foam-extend.org         |
|    \\/     M anipulation  | For copyright notice see file Copyright         |
\*---------------------------------------------------------------------------*/
FoamFile
{
    version     2.0;
    format      ascii;
    class       areaScalarField;
    location    "2020";
    object      tauCSS1;
}
// * * * * * * * * * * * * * * * * * * * * * * * * * * * * * * * * * * * * * //

dimensions      [1 1 2 0 0 0 0];

internalField   nonuniform List<scalar> 
300
(
0.0176069
0.0176069
0.0176069
0.0176069
0.0176069
0.0176069
0.0176069
0.0176069
0.0176069
0.0176069
0.0176069
0.0176069
0.0176069
0.0176069
0.0176069
0.0176069
0.0176069
0.0176069
0.0176069
0.0176069
0.0176069
0.0176069
0.0176069
0.0176069
0.0176069
0.0176069
0.0176069
0.0176069
0.0176069
0.0176069
0.0176069
0.0176069
0.0176069
0.0176069
0.0176069
0.0176069
0.0176069
0.0176069
0.0176069
0.0176069
0.0176069
0.0176069
0.0176069
0.0176069
0.0176069
0.0176069
0.0176069
0.0176069
0.0176069
0.0176069
0.0176069
0.0176069
0.0176069
0.0176069
0.0176069
0.0176069
0.0176069
0.0176069
0.0176069
0.0214512
0.0211403
0.0195777
0.0201104
0.0188972
0.0194307
0.0192605
0.0192917
0.0192545
0.0192526
0.0192466
0.0192541
0.0192585
0.0192552
0.0192618
0.0192604
0.0192613
0.019269
0.0192704
0.0192714
0.0192726
0.0192735
0.0192815
0.0192818
0.0192822
0.019282
0.0192821
0.0192819
0.0192813
0.0192883
0.0192872
0.0192866
0.0192858
0.0192848
0.0192841
0.0192831
0.0192824
0.0192884
0.0192876
0.0192866
0.0192857
0.0192848
0.0192838
0.0192832
0.0192819
0.0192817
0.0192801
0.0192874
0.0192852
0.0192858
0.0192835
0.0192844
0.0192816
0.0192831
0.0192797
0.019282
0.019278
0.0192878
0.0192828
0.0192866
0.019281
0.0192856
0.0192789
0.0192847
0.019277
0.0192838
0.019275
0.0192899
0.0192796
0.0192891
0.0192773
0.0192884
0.0192751
0.0192878
0.0192729
0.0192871
0.0192707
0.0192867
0.0192752
0.0192928
0.0192727
0.0192923
0.0192704
0.0192918
0.019268
0.0192912
0.0192658
0.0192908
0.0192703
0.0192968
0.019268
0.0192961
0.0192658
0.0192954
0.0192637
0.0192947
0.0192618
0.0192937
0.0192599
0.0192995
0.0192646
0.0192983
0.0192629
0.019297
0.0192613
0.0192957
0.0192598
0.0192944
0.0192586
0.0192995
0.0192636
0.0192978
0.0192623
0.0192962
0.0192611
0.0192945
0.0192601
0.0192926
0.0192592
0.0192973
0.0192645
0.0192954
0.0192635
0.0192934
0.0192627
0.0192913
0.0192619
0.0192893
0.0192611
0.0192937
0.0192665
0.0192915
0.0192657
0.0192894
0.019265
0.0192872
0.0192643
0.0192852
0.0192636
0.0192894
0.0192688
0.0192872
0.0192682
0.019285
0.0192673
0.019283
0.0192665
0.019281
0.0192719
0.019285
0.0192709
0.0192829
0.0192699
0.019281
0.0192691
0.019279
0.0192681
0.0192834
0.0192729
0.0192813
0.0192719
0.0192794
0.0192708
0.0192775
0.0192697
0.0192758
0.0192745
0.0192799
0.0192734
0.0192779
0.0192721
0.0192762
0.0192709
0.0192746
0.0192695
0.019279
0.0192741
0.019277
0.0192727
0.0192755
0.0192714
0.0192736
0.01927
0.019278
0.0192744
0.0192763
0.019273
0.0192744
0.0192716
0.0192728
0.01927
0.0192771
0.0192744
0.0192752
0.0192729
0.0192737
0.0192713
0.0192719
0.0192698
0.0192762
0.019274
0.0192745
0.0192725
0.0192727
0.0192707
0.0192711
0.0192691
0.0192753
0.0192732
0.0192737
0.0192716
0.019272
0.0192699
0.0192704
0.019274
0.0192745
0.0192721
0.0192729
0.0192705
0.0192712
0.0192686
0.0192757
0.0192715
0.0192746
0.01927
0.0192721
0.0192738
0.0192623
0.019266
0.0192705
0.0192652
0.0192764
0.0192626
0.0193083
0.0192644
0.0198429
0.0186215
0.0153044
0.0176069
0.0176069
0.0176069
)
;

boundaryField
{
    inlet
    {
        type            calculated;
        value           uniform 0;
    }
    outlet
    {
        type            calculated;
        value           uniform 0;
    }
    sideWall
    {
        type            empty;
    }
}


// ************************************************************************* //
