/*--------------------------------*- C++ -*----------------------------------*\
| =========                 |                                                 |
| \\      /  F ield         | foam-extend: Open Source CFD                    |
|  \\    /   O peration     | Version:     3.2                                |
|   \\  /    A nd           | Web:         http://www.foam-extend.org         |
|    \\/     M anipulation  | For copyright notice see file Copyright         |
\*---------------------------------------------------------------------------*/
FoamFile
{
    version     2.0;
    format      ascii;
    class       areaScalarField;
    location    "2020";
    object      tauCB;
}
// * * * * * * * * * * * * * * * * * * * * * * * * * * * * * * * * * * * * * //

dimensions      [1 1 2 0 0 0 0];

internalField   nonuniform List<scalar> 
300
(
0.112594
0.112594
0.112594
0.112594
0.112594
0.112594
0.112594
0.112594
0.112594
0.112594
0.112594
0.112594
0.112594
0.112594
0.112594
0.112594
0.112594
0.112594
0.112594
0.112594
0.112594
0.112594
0.112594
0.112594
0.112594
0.112594
0.112594
0.112594
0.112594
0.112594
0.112594
0.112594
0.112594
0.112594
0.112594
0.112594
0.112594
0.112594
0.112594
0.112594
0.112594
0.112594
0.112594
0.112594
0.112594
0.112594
0.112594
0.112594
0.112594
0.112594
0.112594
0.112594
0.112594
0.112594
0.112594
0.112594
0.112594
0.112594
0.112594
0.199326
0.230688
0.186919
0.132738
0.126106
0.141485
0.135772
0.133862
0.130811
0.128964
0.112452
0.112427
0.112429
0.112425
0.112434
0.112438
0.11245
0.112464
0.112477
0.112491
0.112505
0.112518
0.112533
0.112542
0.112552
0.112559
0.112566
0.112572
0.112577
0.112584
0.112586
0.112588
0.11259
0.11259
0.112592
0.112592
0.112593
0.112595
0.112595
0.112594
0.112595
0.112594
0.112593
0.112595
0.112592
0.112595
0.112591
0.112599
0.11259
0.112599
0.112589
0.112599
0.112587
0.1126
0.112585
0.112602
0.112583
0.112607
0.112713
0.112691
0.112681
0.112655
0.112575
0.112613
0.112609
0.112632
0.11258
0.112628
0.11257
0.112629
0.112565
0.112632
0.112559
0.112635
0.112553
0.112639
0.112547
0.112644
0.112544
0.11265
0.112537
0.112655
0.112531
0.11266
0.112525
0.112665
0.11252
0.11267
0.112517
0.112676
0.112512
0.11268
0.112507
0.112684
0.112502
0.112687
0.112499
0.11269
0.112496
0.112695
0.112495
0.112696
0.112493
0.112696
0.112491
0.112696
0.112491
0.112696
0.112491
0.112698
0.112492
0.112696
0.112493
0.112694
0.112494
0.112692
0.112495
0.112689
0.112498
0.112689
0.112501
0.112737
0.11255
0.112759
0.112506
0.112678
0.11251
0.112817
0.112654
0.11286
0.112702
0.112668
0.112521
0.112663
0.112525
0.113012
0.112885
0.113064
0.112943
0.112653
0.112537
0.112648
0.113098
0.113254
0.113179
0.11264
0.112547
0.113407
0.113351
0.112633
0.112555
0.112629
0.11353
0.113642
0.113594
0.112623
0.112563
0.113736
0.113717
0.113807
0.113804
0.112616
0.11257
0.112614
0.112573
0.114003
0.114032
0.114087
0.112577
0.112608
0.112578
0.114231
0.114263
0.114281
0.11258
0.112607
0.112582
0.112604
0.114494
0.114478
0.114512
0.114522
0.112584
0.112603
0.112586
0.112601
0.114668
0.114651
0.114715
0.114663
0.112587
0.1126
0.112589
0.114794
0.114889
0.114828
0.114913
0.112596
0.112589
0.112599
0.115045
0.114964
0.115056
0.114985
0.11259
0.112595
0.11259
0.115087
0.115227
0.11511
0.115241
0.112596
0.112591
0.112595
0.112593
0.11525
0.115443
0.115344
0.115532
0.112594
0.112592
0.112598
0.112589
0.115656
0.115837
0.115661
0.115757
0.115576
0.116234
0.115894
0.116485
0.115653
0.112619
0.112558
0.113066
0.166257
0.139393
0.0978695
0.112594
0.112594
0.112594
)
;

boundaryField
{
    inlet
    {
        type            calculated;
        value           uniform 0;
    }
    outlet
    {
        type            calculated;
        value           uniform 0;
    }
    sideWall
    {
        type            empty;
    }
}


// ************************************************************************* //
