/*--------------------------------*- C++ -*----------------------------------*\
| =========                 |                                                 |
| \\      /  F ield         | foam-extend: Open Source CFD                    |
|  \\    /   O peration     | Version:     3.2                                |
|   \\  /    A nd           | Web:         http://www.foam-extend.org         |
|    \\/     M anipulation  | For copyright notice see file Copyright         |
\*---------------------------------------------------------------------------*/
FoamFile
{
    version     2.0;
    format      ascii;
    class       areaScalarField;
    location    "2020";
    object      tauCSS2;
}
// * * * * * * * * * * * * * * * * * * * * * * * * * * * * * * * * * * * * * //

dimensions      [1 1 2 0 0 0 0];

internalField   nonuniform List<scalar> 
300
(
0.0552126
0.0552126
0.0552126
0.0552126
0.0552126
0.0552126
0.0552126
0.0552126
0.0552126
0.0552126
0.0552126
0.0552126
0.0552126
0.0552126
0.0552126
0.0552126
0.0552126
0.0552126
0.0552126
0.0552126
0.0552126
0.0552126
0.0552126
0.0552126
0.0552126
0.0552126
0.0552126
0.0552126
0.0552126
0.0552126
0.0552126
0.0552126
0.0552126
0.0552126
0.0552126
0.0552126
0.0552126
0.0552126
0.0552126
0.0552126
0.0552126
0.0552126
0.0552126
0.0552126
0.0552126
0.0552126
0.0552126
0.0552126
0.0552126
0.0552126
0.0552126
0.0552126
0.0552126
0.0552126
0.0552126
0.0552126
0.0552126
0.0552126
0.0552126
0.0672678
0.0662928
0.0613929
0.0630634
0.0592589
0.0609319
0.0603981
0.0604959
0.0603793
0.0603735
0.0603545
0.0603782
0.0603918
0.0603816
0.0604022
0.0603978
0.0604007
0.0604246
0.0604291
0.0604321
0.060436
0.060439
0.0604638
0.0604648
0.0604661
0.0604656
0.0604658
0.0604651
0.0604633
0.0604852
0.060482
0.06048
0.0604773
0.0604743
0.0604723
0.060469
0.0604667
0.0604856
0.060483
0.0604798
0.0604772
0.0604742
0.0604711
0.0604693
0.0604652
0.0604647
0.0604596
0.0604825
0.0604756
0.0604775
0.0604702
0.0604731
0.0604643
0.0604691
0.0604585
0.0604655
0.0604529
0.0604838
0.0604682
0.06048
0.0604623
0.0604769
0.0604558
0.0604741
0.0604497
0.0604711
0.0604436
0.0604903
0.0604579
0.0604877
0.0604509
0.0604855
0.0604438
0.0604836
0.060437
0.0604817
0.0604301
0.0604802
0.0604441
0.0604993
0.0604364
0.0604979
0.0604292
0.0604963
0.0604218
0.0604945
0.0604146
0.0604932
0.0604287
0.060512
0.0604215
0.0605098
0.0604147
0.0605074
0.0604082
0.0605052
0.0604021
0.0605024
0.0603963
0.0605205
0.0604109
0.0605166
0.0604058
0.0605127
0.0604007
0.0605086
0.060396
0.0605043
0.0603921
0.0605204
0.0604079
0.0605152
0.0604039
0.0605099
0.0604001
0.0605046
0.0603968
0.0604989
0.060394
0.0605135
0.0604105
0.0605075
0.0604076
0.0605014
0.0604049
0.0604948
0.0604024
0.0604883
0.0604001
0.0605024
0.060417
0.0604954
0.0604146
0.0604887
0.0604122
0.060482
0.06041
0.0604754
0.0604077
0.0604888
0.0604242
0.0604819
0.0604221
0.0604751
0.0604195
0.0604686
0.0604168
0.0604623
0.0604337
0.060475
0.0604308
0.0604684
0.0604276
0.0604623
0.0604251
0.0604563
0.0604218
0.0604698
0.0604371
0.0604633
0.0604339
0.0604572
0.0604303
0.0604514
0.0604271
0.0604461
0.0604422
0.0604588
0.0604385
0.0604528
0.0604345
0.0604475
0.0604306
0.0604422
0.0604263
0.0604561
0.0604406
0.0604497
0.0604365
0.0604452
0.0604322
0.0604391
0.0604279
0.0604531
0.0604418
0.0604476
0.0604373
0.0604418
0.0604329
0.0604368
0.060428
0.0604501
0.0604416
0.0604444
0.060437
0.0604395
0.0604319
0.0604338
0.0604272
0.0604475
0.0604404
0.0604421
0.0604356
0.0604364
0.0604303
0.0604313
0.0604252
0.0604446
0.0604378
0.0604394
0.0604328
0.0604341
0.0604276
0.0604291
0.0604403
0.0604419
0.0604345
0.0604369
0.0604294
0.0604315
0.0604234
0.0604459
0.0604326
0.0604422
0.060428
0.0604346
0.0604399
0.0604038
0.0604153
0.0604294
0.0604129
0.060448
0.0604046
0.060548
0.0604103
0.0622243
0.0583944
0.0479923
0.0552126
0.0552126
0.0552126
)
;

boundaryField
{
    inlet
    {
        type            calculated;
        value           uniform 0;
    }
    outlet
    {
        type            calculated;
        value           uniform 0;
    }
    sideWall
    {
        type            empty;
    }
}


// ************************************************************************* //
