/*--------------------------------*- C++ -*----------------------------------*\
| =========                 |                                                 |
| \\      /  F ield         | foam-extend: Open Source CFD                    |
|  \\    /   O peration     | Version:     3.2                                |
|   \\  /    A nd           | Web:         http://www.foam-extend.org         |
|    \\/     M anipulation  | For copyright notice see file Copyright         |
\*---------------------------------------------------------------------------*/
FoamFile
{
    version     2.0;
    format      ascii;
    class       areaScalarField;
    location    "2020";
    object      thetaC2SS1;
}
// * * * * * * * * * * * * * * * * * * * * * * * * * * * * * * * * * * * * * //

dimensions      [0 0 0 0 0 0 0];

internalField   nonuniform List<scalar> 
300
(
0.118217
0.118217
0.118217
0.118217
0.118217
0.118217
0.118217
0.118217
0.118217
0.118217
0.118217
0.118217
0.118217
0.118217
0.118217
0.118217
0.118217
0.118217
0.118217
0.118217
0.118217
0.118217
0.118217
0.118217
0.118217
0.118217
0.118217
0.118217
0.118217
0.118217
0.118217
0.118217
0.118217
0.118217
0.118217
0.118217
0.118217
0.118217
0.118217
0.118217
0.118217
0.118217
0.118217
0.118217
0.118217
0.118217
0.118217
0.118217
0.118217
0.118217
0.118217
0.118217
0.118217
0.118217
0.118217
0.118217
0.118217
0.118217
0.118217
0.127747
0.135492
0.133781
0.130983
0.130345
0.129799
0.129534
0.129432
0.12941
0.129375
0.129389
0.129469
0.129496
0.129479
0.129513
0.129498
0.129491
0.129526
0.12952
0.129511
0.129503
0.129495
0.129531
0.129522
0.129514
0.129505
0.129497
0.129488
0.129479
0.129517
0.129509
0.129502
0.129494
0.129487
0.129481
0.129474
0.129468
0.129506
0.1295
0.129495
0.129488
0.129482
0.129477
0.129471
0.129466
0.129461
0.129455
0.129495
0.12949
0.129484
0.12948
0.129474
0.129469
0.129464
0.129459
0.129455
0.129449
0.129489
0.129484
0.129479
0.129475
0.12947
0.129465
0.129461
0.129455
0.129451
0.129446
0.129484
0.12948
0.129475
0.129471
0.129466
0.129461
0.129457
0.129452
0.129448
0.129443
0.129438
0.129477
0.129472
0.129467
0.129463
0.129459
0.129454
0.129449
0.129444
0.12944
0.129436
0.129474
0.12947
0.129464
0.12946
0.129456
0.129451
0.129447
0.129442
0.129438
0.129433
0.129428
0.129466
0.129461
0.129457
0.129453
0.129448
0.129443
0.129439
0.129434
0.12943
0.129425
0.129462
0.129458
0.129453
0.129449
0.129444
0.129439
0.129435
0.12943
0.129426
0.129422
0.129457
0.129453
0.129449
0.129444
0.12944
0.129435
0.12943
0.129426
0.129421
0.129417
0.129453
0.129448
0.129443
0.129439
0.129434
0.12943
0.129425
0.129421
0.129416
0.129411
0.129446
0.129441
0.129437
0.129432
0.129428
0.129423
0.129418
0.129414
0.129409
0.129443
0.129439
0.129434
0.12943
0.129425
0.12942
0.129416
0.129411
0.129406
0.12944
0.129435
0.12943
0.129426
0.129421
0.129416
0.129411
0.129406
0.129402
0.129435
0.12943
0.129426
0.12942
0.129416
0.129411
0.129406
0.129401
0.129396
0.129429
0.129424
0.129419
0.129415
0.12941
0.129405
0.129399
0.129394
0.129427
0.129422
0.129417
0.129412
0.129407
0.129402
0.129397
0.129392
0.129424
0.129419
0.129414
0.129409
0.129404
0.129398
0.129393
0.129388
0.12942
0.129415
0.12941
0.129404
0.129399
0.129393
0.129389
0.129382
0.129416
0.129408
0.129405
0.129398
0.129395
0.129386
0.129385
0.129411
0.129411
0.1294
0.129401
0.129388
0.129391
0.129376
0.129418
0.129399
0.12941
0.129385
0.1294
0.129398
0.12935
0.129357
0.129387
0.129351
0.129433
0.129305
0.129682
0.128806
0.130603
0.131469
0.118217
0.118217
0.118217
0.118217
)
;

boundaryField
{
    inlet
    {
        type            calculated;
        value           uniform 0;
    }
    outlet
    {
        type            calculated;
        value           uniform 0;
    }
    sideWall
    {
        type            empty;
    }
}


// ************************************************************************* //
