/*--------------------------------*- C++ -*----------------------------------*\
| =========                 |                                                 |
| \\      /  F ield         | foam-extend: Open Source CFD                    |
|  \\    /   O peration     | Version:     3.2                                |
|   \\  /    A nd           | Web:         http://www.foam-extend.org         |
|    \\/     M anipulation  | For copyright notice see file Copyright         |
\*---------------------------------------------------------------------------*/
FoamFile
{
    version     2.0;
    format      ascii;
    class       areaScalarField;
    location    "2020";
    object      thetaBinit;
}
// * * * * * * * * * * * * * * * * * * * * * * * * * * * * * * * * * * * * * //

dimensions      [0 0 0 0 0 0 0];

internalField   nonuniform List<scalar> 
300
(
0.115082
0.140547
0.119203
0.100083
0.0897509
0.0851507
0.0834959
0.0832739
0.0835595
0.0841346
0.0848434
0.0855469
0.0862467
0.0869683
0.0876719
0.0883894
0.0891417
0.0898956
0.0906556
0.0914224
0.0921865
0.0929533
0.0937375
0.0945319
0.0952899
0.0959828
0.0966041
0.0971512
0.0976247
0.0980327
0.0983843
0.0986821
0.0989306
0.0991314
0.0992947
0.0994307
0.0995443
0.0996402
0.0997212
0.0997902
0.0998485
0.0998985
0.099941
0.0999769
0.100008
0.100034
0.100056
0.100075
0.100091
0.100105
0.100117
0.100127
0.100135
0.100143
0.100149
0.100155
0.100159
0.100163
0.100166
0.100169
0.100172
0.100174
0.100176
0.100177
0.100178
0.10018
0.100181
0.100182
0.100182
0.100183
0.100183
0.100184
0.100184
0.100185
0.100185
0.100185
0.100185
0.100185
0.100186
0.100186
0.100186
0.100186
0.100186
0.100186
0.100186
0.100186
0.100186
0.100186
0.100186
0.100186
0.100186
0.100186
0.100186
0.100186
0.100186
0.100186
0.100186
0.100186
0.100186
0.100186
0.100186
0.100186
0.100186
0.100186
0.100186
0.100186
0.100186
0.100186
0.100186
0.100186
0.100186
0.100186
0.100186
0.100186
0.100186
0.100186
0.100186
0.100186
0.100186
0.100186
0.100186
0.100186
0.100186
0.100186
0.100186
0.100186
0.100186
0.100186
0.100186
0.100186
0.100186
0.100186
0.100186
0.100186
0.100186
0.100186
0.100186
0.100186
0.100186
0.100186
0.100186
0.100186
0.100186
0.100186
0.100186
0.100186
0.100186
0.100186
0.100186
0.100186
0.100186
0.100186
0.100186
0.100186
0.100186
0.100186
0.100186
0.100186
0.100186
0.100186
0.100186
0.100186
0.100186
0.100186
0.100186
0.100186
0.100186
0.100186
0.100186
0.100186
0.100186
0.100186
0.100186
0.100186
0.100186
0.100186
0.100186
0.100186
0.100186
0.100186
0.100186
0.100186
0.100186
0.100186
0.100186
0.100186
0.100186
0.100186
0.100186
0.100186
0.100186
0.100186
0.100186
0.100186
0.100186
0.100186
0.100186
0.100186
0.100186
0.100186
0.100186
0.100186
0.100186
0.100186
0.100186
0.100186
0.100186
0.100186
0.100186
0.100186
0.100186
0.100186
0.100186
0.100186
0.100186
0.100186
0.100186
0.100186
0.100186
0.100186
0.100186
0.100186
0.100186
0.100186
0.100186
0.100186
0.100186
0.100186
0.100186
0.100186
0.100186
0.100186
0.100186
0.100186
0.100186
0.100186
0.100186
0.100186
0.100186
0.100186
0.100186
0.100186
0.100186
0.100186
0.100186
0.100186
0.100186
0.100186
0.100186
0.100186
0.100186
0.100186
0.100186
0.100186
0.100186
0.100186
0.100186
0.100186
0.100186
0.100186
0.100186
0.100186
0.100186
0.100186
0.100186
0.100186
0.100186
0.100186
0.100186
0.100186
0.100186
0.100186
0.100186
0.100186
0.100186
0.100186
0.100186
0.100186
0.100186
0.100186
0.100186
0.100186
0.100186
0.100186
0.100186
0.100186
0.100186
0.100186
0.100186
0.100186
0.100186
0.100186
0.100186
0.100186
0.100186
0.100186
0.100186
0.100187
0.100194
0.100185
)
;

boundaryField
{
    inlet
    {
        type            calculated;
        value           uniform 0;
    }
    outlet
    {
        type            calculated;
        value           uniform 0;
    }
    sideWall
    {
        type            empty;
    }
}


// ************************************************************************* //
