/*--------------------------------*- C++ -*----------------------------------*\
| =========                 |                                                 |
| \\      /  F ield         | foam-extend: Open Source CFD                    |
|  \\    /   O peration     | Version:     3.2                                |
|   \\  /    A nd           | Web:         http://www.foam-extend.org         |
|    \\/     M anipulation  | For copyright notice see file Copyright         |
\*---------------------------------------------------------------------------*/
FoamFile
{
    version     2.0;
    format      ascii;
    class       areaScalarField;
    location    "2020";
    object      thetaC2B;
}
// * * * * * * * * * * * * * * * * * * * * * * * * * * * * * * * * * * * * * //

dimensions      [0 0 0 0 0 0 0];

internalField   nonuniform List<scalar> 
300
(
0.0301212
0.0301212
0.0301212
0.0301212
0.0301212
0.0301212
0.0301212
0.0301212
0.0301212
0.0301212
0.0301212
0.0301212
0.0301212
0.0301212
0.0301212
0.0301212
0.0301212
0.0301212
0.0301212
0.0301212
0.0301212
0.0301212
0.0301212
0.0301212
0.0301212
0.0301212
0.0301212
0.0301212
0.0301212
0.0301212
0.0301212
0.0301212
0.0301212
0.0301212
0.0301212
0.0301212
0.0301212
0.0301212
0.0301212
0.0301212
0.0301212
0.0301212
0.0301212
0.0301212
0.0301212
0.0301212
0.0301212
0.0301212
0.0301212
0.0301212
0.0301212
0.0301212
0.0301212
0.0301212
0.0301212
0.0301212
0.0301212
0.0301212
0.0301212
0.047296
0.0589098
0.0508916
0.0344466
0.0346571
0.0376576
0.036382
0.035784
0.03503
0.0345294
0.0301212
0.0301212
0.0301212
0.0301212
0.0301212
0.0301212
0.0301212
0.0301212
0.0301212
0.0301212
0.0301212
0.0301212
0.0301212
0.0301212
0.0301212
0.0301212
0.0301212
0.0301212
0.0301212
0.0301212
0.0301212
0.0301212
0.0301212
0.0301212
0.0301212
0.0301212
0.0301212
0.0301212
0.0301212
0.0301212
0.0301212
0.0301212
0.0301212
0.0301212
0.0301212
0.0301212
0.0301212
0.0301212
0.0301212
0.0301212
0.0301212
0.0301212
0.0301212
0.0301212
0.0301212
0.0301212
0.0301212
0.0301212
0.0301565
0.0301434
0.0301485
0.0301332
0.0301212
0.0301212
0.030131
0.0301255
0.0301242
0.0301228
0.0301224
0.0301221
0.0301222
0.0301219
0.0301219
0.0301217
0.0301216
0.0301215
0.0301215
0.0301214
0.0301213
0.0301213
0.0301213
0.0301213
0.0301212
0.0301212
0.0301212
0.0301212
0.0301212
0.0301212
0.0301212
0.0301212
0.0301212
0.0301212
0.0301212
0.0301212
0.0301212
0.0301212
0.0301212
0.0301212
0.0301212
0.0301212
0.0301212
0.0301212
0.0301212
0.0301212
0.0301212
0.0301212
0.0301212
0.0301212
0.0301212
0.0301212
0.0301212
0.0301212
0.0301212
0.0301212
0.0301212
0.0301212
0.0301212
0.0301212
0.0301212
0.0301212
0.0301212
0.0301351
0.0301335
0.030142
0.0301212
0.0301212
0.0301212
0.0301594
0.0301589
0.0301713
0.0301707
0.0301212
0.0301212
0.0301212
0.0301212
0.0302157
0.0302167
0.0302306
0.030231
0.0301212
0.0301212
0.0301212
0.0302704
0.0302844
0.0302913
0.0301212
0.0301212
0.0303276
0.0303349
0.0301212
0.0301212
0.0301212
0.0303816
0.0303928
0.0303977
0.0301212
0.0301212
0.0304191
0.0304293
0.0304391
0.0304519
0.0301212
0.0301212
0.0301212
0.0301212
0.0304934
0.0305109
0.0305162
0.0301212
0.0301212
0.0301212
0.0305558
0.0305715
0.0305696
0.0301212
0.0301212
0.0301212
0.0301212
0.0306324
0.0306226
0.0306371
0.0306351
0.0301212
0.0301212
0.0301212
0.0301212
0.0306782
0.0306701
0.0306906
0.0306734
0.0301212
0.0301212
0.0301212
0.0307085
0.0307367
0.0307178
0.0307432
0.0301212
0.0301212
0.0301212
0.030778
0.0307541
0.0307808
0.0307604
0.0301212
0.0301212
0.0301212
0.0307873
0.0308265
0.0307935
0.0308304
0.0301212
0.0301212
0.0301212
0.0301212
0.0308312
0.030884
0.0308565
0.0309076
0.0301212
0.0301212
0.0301212
0.0301212
0.0309393
0.0309891
0.0309422
0.0309646
0.0309235
0.0310952
0.0310043
0.0311621
0.030941
0.0301212
0.0301212
0.0301212
0.0436003
0.0392113
0.0301212
0.0301212
0.0301212
0.0301212
)
;

boundaryField
{
    inlet
    {
        type            calculated;
        value           uniform 0;
    }
    outlet
    {
        type            calculated;
        value           uniform 0;
    }
    sideWall
    {
        type            empty;
    }
}


// ************************************************************************* //
