/*--------------------------------*- C++ -*----------------------------------*\
| =========                 |                                                 |
| \\      /  F ield         | foam-extend: Open Source CFD                    |
|  \\    /   O peration     | Version:     3.2                                |
|   \\  /    A nd           | Web:         http://www.foam-extend.org         |
|    \\/     M anipulation  | For copyright notice see file Copyright         |
\*---------------------------------------------------------------------------*/
FoamFile
{
    version     2.0;
    format      ascii;
    class       areaScalarField;
    location    "2020";
    object      thetaHMaxSS2;
}
// * * * * * * * * * * * * * * * * * * * * * * * * * * * * * * * * * * * * * //

dimensions      [0 0 0 0 0 0 0];

internalField   nonuniform List<scalar> 
300
(
0
0
0
0
0
0
0
0
0
0
0
0
0
0
0
0
0
0
0
0
0
0
0
0
0
0
0
0
0
0
0
0
0
0
0
0
0
0
0
0
0
0
0
0
0
0
0
0
0
0
0
0
0
0
0
0
0
0
0
1.44326
1.53079
1.5115
1.47991
1.47273
1.46657
1.4636
1.46245
1.46222
1.46184
1.46201
1.46292
1.46323
1.46304
1.46343
1.46327
1.46318
1.46359
1.46352
1.46343
1.46333
1.46325
1.46366
1.46356
1.46346
1.46336
1.46327
1.46317
1.46308
1.46351
1.46341
1.46333
1.46325
1.46316
1.46309
1.46302
1.46294
1.46338
1.46331
1.46325
1.46318
1.46311
1.46305
1.46299
1.46293
1.46287
1.4628
1.46325
1.46319
1.46313
1.46308
1.46302
1.46296
1.46291
1.46285
1.4628
1.46274
1.46318
1.46313
1.46307
1.46302
1.46297
1.46291
1.46286
1.4628
1.46275
1.4627
1.46313
1.46309
1.46303
1.46298
1.46293
1.46287
1.46282
1.46277
1.46272
1.46267
1.46261
1.46305
1.463
1.46294
1.46289
1.46284
1.46279
1.46274
1.46268
1.46264
1.46259
1.46301
1.46297
1.46291
1.46286
1.46281
1.46275
1.46271
1.46266
1.46261
1.46255
1.4625
1.46293
1.46287
1.46282
1.46278
1.46272
1.46267
1.46262
1.46256
1.46252
1.46247
1.46288
1.46284
1.46278
1.46273
1.46268
1.46262
1.46258
1.46252
1.46247
1.46242
1.46283
1.46278
1.46273
1.46268
1.46263
1.46257
1.46252
1.46247
1.46242
1.46237
1.46278
1.46272
1.46267
1.46262
1.46257
1.46251
1.46246
1.46241
1.46236
1.46231
1.4627
1.46265
1.4626
1.46255
1.46249
1.46244
1.46239
1.46233
1.46228
1.46267
1.46262
1.46257
1.46252
1.46246
1.46241
1.46236
1.4623
1.46225
1.46263
1.46258
1.46252
1.46247
1.46241
1.46236
1.46231
1.46225
1.4622
1.46258
1.46252
1.46247
1.46241
1.46236
1.4623
1.46225
1.4622
1.46214
1.46251
1.46246
1.4624
1.46234
1.46229
1.46223
1.46217
1.46212
1.46249
1.46243
1.46237
1.46232
1.46226
1.4622
1.46214
1.46209
1.46246
1.4624
1.46234
1.46228
1.46222
1.46216
1.46211
1.46204
1.46241
1.46235
1.46229
1.46223
1.46217
1.4621
1.46206
1.46198
1.46236
1.46228
1.46224
1.46215
1.46212
1.46202
1.46201
1.4623
1.46231
1.46218
1.46219
1.46205
1.46208
1.46191
1.46238
1.46217
1.46229
1.46201
1.46218
1.46216
1.46162
1.46169
1.46204
1.46162
1.46255
1.46111
1.46537
1.45546
1.47578
1.48556
1.25478
0
0
0
)
;

boundaryField
{
    inlet
    {
        type            calculated;
        value           uniform 0;
    }
    outlet
    {
        type            calculated;
        value           uniform 0;
    }
    sideWall
    {
        type            empty;
    }
}


// ************************************************************************* //
