/*--------------------------------*- C++ -*----------------------------------*\
| =========                 |                                                 |
| \\      /  F ield         | foam-extend: Open Source CFD                    |
|  \\    /   O peration     | Version:     3.2                                |
|   \\  /    A nd           | Web:         http://www.foam-extend.org         |
|    \\/     M anipulation  | For copyright notice see file Copyright         |
\*---------------------------------------------------------------------------*/
FoamFile
{
    version     2.0;
    format      ascii;
    class       areaScalarField;
    location    "2020";
    object      thetaCSS2;
}
// * * * * * * * * * * * * * * * * * * * * * * * * * * * * * * * * * * * * * //

dimensions      [0 0 0 0 0 0 0];

internalField   nonuniform List<scalar> 
300
(
0.0933366
0.0933366
0.0933366
0.0933366
0.0933366
0.0933366
0.0933366
0.0933366
0.0933366
0.0933366
0.0933366
0.0933366
0.0933366
0.0933366
0.0933366
0.0933366
0.0933366
0.0933366
0.0933366
0.0933366
0.0933366
0.0933366
0.0933366
0.0933366
0.0933366
0.0933366
0.0933366
0.0933366
0.0933366
0.0933366
0.0933366
0.0933366
0.0933366
0.0933366
0.0933366
0.0933366
0.0933366
0.0933366
0.0933366
0.0933366
0.0933366
0.0933366
0.0933366
0.0933366
0.0933366
0.0933366
0.0933366
0.0933366
0.0933366
0.0933366
0.0933366
0.0933366
0.0933366
0.0933366
0.0933366
0.0933366
0.0933366
0.0933366
0.0933366
0.113716
0.112068
0.103784
0.106608
0.100177
0.103005
0.102103
0.102268
0.102071
0.102061
0.102029
0.102069
0.102092
0.102075
0.10211
0.102102
0.102107
0.102148
0.102155
0.10216
0.102167
0.102172
0.102214
0.102215
0.102218
0.102217
0.102217
0.102216
0.102213
0.10225
0.102244
0.102241
0.102237
0.102231
0.102228
0.102222
0.102219
0.102251
0.102246
0.102241
0.102236
0.102231
0.102226
0.102223
0.102216
0.102215
0.102207
0.102245
0.102234
0.102237
0.102224
0.102229
0.102215
0.102223
0.102205
0.102217
0.102195
0.102248
0.102221
0.102241
0.102211
0.102236
0.1022
0.102231
0.10219
0.102226
0.10218
0.102259
0.102204
0.102254
0.102192
0.10225
0.10218
0.102247
0.102168
0.102244
0.102157
0.102241
0.10218
0.102274
0.102167
0.102271
0.102155
0.102269
0.102143
0.102266
0.102131
0.102263
0.102154
0.102295
0.102142
0.102291
0.102131
0.102287
0.10212
0.102284
0.102109
0.102279
0.1021
0.10231
0.102124
0.102303
0.102116
0.102296
0.102107
0.102289
0.102099
0.102282
0.102092
0.102309
0.102119
0.102301
0.102112
0.102292
0.102106
0.102283
0.1021
0.102273
0.102096
0.102298
0.102124
0.102288
0.102119
0.102277
0.102114
0.102266
0.10211
0.102255
0.102106
0.102279
0.102135
0.102267
0.10213
0.102256
0.102127
0.102244
0.102123
0.102233
0.102119
0.102256
0.102147
0.102244
0.102143
0.102233
0.102139
0.102222
0.102134
0.102211
0.102163
0.102233
0.102158
0.102222
0.102153
0.102211
0.102148
0.102201
0.102143
0.102224
0.102169
0.102213
0.102163
0.102203
0.102157
0.102193
0.102152
0.102184
0.102177
0.102205
0.102171
0.102195
0.102164
0.102186
0.102158
0.102177
0.10215
0.102201
0.102175
0.10219
0.102168
0.102182
0.10216
0.102172
0.102153
0.102196
0.102176
0.102186
0.102169
0.102176
0.102161
0.102168
0.102153
0.10219
0.102176
0.102181
0.102168
0.102173
0.10216
0.102163
0.102152
0.102186
0.102174
0.102177
0.102166
0.102167
0.102157
0.102159
0.102148
0.102181
0.10217
0.102173
0.102161
0.102164
0.102152
0.102155
0.102174
0.102177
0.102164
0.102168
0.102155
0.102159
0.102145
0.102183
0.102161
0.102177
0.102153
0.102164
0.102173
0.102112
0.102132
0.102156
0.102128
0.102187
0.102114
0.102356
0.102123
0.10519
0.0987154
0.0811307
0.0933366
0.0933366
0.0933366
)
;

boundaryField
{
    inlet
    {
        type            calculated;
        value           uniform 0;
    }
    outlet
    {
        type            calculated;
        value           uniform 0;
    }
    sideWall
    {
        type            empty;
    }
}


// ************************************************************************* //
