/*--------------------------------*- C++ -*----------------------------------*\
| =========                 |                                                 |
| \\      /  F ield         | foam-extend: Open Source CFD                    |
|  \\    /   O peration     | Version:     3.2                                |
|   \\  /    A nd           | Web:         http://www.foam-extend.org         |
|    \\/     M anipulation  | For copyright notice see file Copyright         |
\*---------------------------------------------------------------------------*/
FoamFile
{
    version     2.0;
    format      ascii;
    class       areaScalarField;
    location    "2020";
    object      thetaSS2init;
}
// * * * * * * * * * * * * * * * * * * * * * * * * * * * * * * * * * * * * * //

dimensions      [0 0 0 0 0 0 0];

internalField   nonuniform List<scalar> 
300
(
1.53443
1.87396
1.58938
1.33444
1.19668
1.13534
1.11328
1.11032
1.11413
1.1218
1.13125
1.14063
1.14996
1.15958
1.16896
1.17852
1.18856
1.19861
1.20874
1.21896
1.22915
1.23938
1.24983
1.26043
1.27053
1.27977
1.28806
1.29535
1.30166
1.3071
1.31179
1.31576
1.31907
1.32175
1.32393
1.32574
1.32726
1.32854
1.32962
1.33054
1.33131
1.33198
1.33255
1.33303
1.33344
1.33378
1.33408
1.33433
1.33455
1.33473
1.33489
1.33503
1.33514
1.33524
1.33532
1.33539
1.33546
1.33551
1.33555
1.33559
1.33562
1.33565
1.33568
1.3357
1.33571
1.33573
1.33574
1.33575
1.33576
1.33577
1.33578
1.33578
1.33579
1.33579
1.3358
1.3358
1.3358
1.3358
1.33581
1.33581
1.33581
1.33581
1.33581
1.33581
1.33581
1.33581
1.33581
1.33582
1.33582
1.33582
1.33582
1.33582
1.33582
1.33582
1.33582
1.33582
1.33582
1.33582
1.33582
1.33582
1.33582
1.33582
1.33582
1.33582
1.33582
1.33582
1.33582
1.33582
1.33582
1.33582
1.33582
1.33582
1.33582
1.33582
1.33582
1.33582
1.33582
1.33582
1.33582
1.33582
1.33582
1.33582
1.33582
1.33582
1.33582
1.33582
1.33582
1.33582
1.33582
1.33582
1.33582
1.33582
1.33582
1.33582
1.33582
1.33582
1.33582
1.33582
1.33582
1.33582
1.33582
1.33582
1.33582
1.33582
1.33582
1.33582
1.33582
1.33582
1.33582
1.33582
1.33582
1.33582
1.33582
1.33582
1.33582
1.33582
1.33582
1.33582
1.33582
1.33582
1.33582
1.33582
1.33582
1.33582
1.33582
1.33582
1.33582
1.33582
1.33582
1.33582
1.33582
1.33582
1.33582
1.33582
1.33582
1.33582
1.33582
1.33582
1.33582
1.33582
1.33582
1.33582
1.33582
1.33582
1.33582
1.33582
1.33582
1.33582
1.33582
1.33582
1.33582
1.33582
1.33582
1.33582
1.33582
1.33582
1.33582
1.33582
1.33582
1.33582
1.33582
1.33582
1.33582
1.33582
1.33582
1.33582
1.33582
1.33582
1.33582
1.33582
1.33582
1.33582
1.33582
1.33582
1.33582
1.33582
1.33582
1.33582
1.33582
1.33582
1.33582
1.33582
1.33582
1.33582
1.33582
1.33582
1.33582
1.33582
1.33582
1.33582
1.33582
1.33582
1.33582
1.33582
1.33582
1.33582
1.33582
1.33582
1.33582
1.33582
1.33582
1.33582
1.33582
1.33582
1.33582
1.33582
1.33582
1.33582
1.33582
1.33582
1.33582
1.33582
1.33582
1.33582
1.33582
1.33582
1.33582
1.33582
1.33582
1.33582
1.33582
1.33582
1.33582
1.33582
1.33582
1.33582
1.33582
1.33582
1.33582
1.33582
1.33582
1.33582
1.33582
1.33582
1.33582
1.33582
1.33582
1.33582
1.33582
1.33582
1.33582
1.33582
1.33582
1.33582
1.33582
1.33582
1.33582
1.33582
1.33582
1.33582
1.33582
1.33582
1.33582
1.33582
1.33582
1.33582
1.33582
1.33582
1.33592
1.3358
)
;

boundaryField
{
    inlet
    {
        type            calculated;
        value           uniform 0;
    }
    outlet
    {
        type            calculated;
        value           uniform 0;
    }
    sideWall
    {
        type            empty;
    }
}


// ************************************************************************* //
