/*--------------------------------*- C++ -*----------------------------------*\
| =========                 |                                                 |
| \\      /  F ield         | foam-extend: Open Source CFD                    |
|  \\    /   O peration     | Version:     3.2                                |
|   \\  /    A nd           | Web:         http://www.foam-extend.org         |
|    \\/     M anipulation  | For copyright notice see file Copyright         |
\*---------------------------------------------------------------------------*/
FoamFile
{
    version     2.0;
    format      ascii;
    class       areaScalarField;
    location    "2020";
    object      thetaHMaxSS1;
}
// * * * * * * * * * * * * * * * * * * * * * * * * * * * * * * * * * * * * * //

dimensions      [0 0 0 0 0 0 0];

internalField   nonuniform List<scalar> 
300
(
0
0
0
0
0
0
0
0
0
0
0
0
0
0
0
0
0
0
0
0
0
0
0
0
0
0
0
0
0
0
0
0
0
0
0
0
0
0
0
0
0
0
0
0
0
0
0
0
0
0
0
0
0
0
0
0
0
0
0
5.68814
6.03312
5.95707
5.83257
5.80429
5.78002
5.76829
5.76379
5.76287
5.76137
5.76203
5.76561
5.76685
5.7661
5.76762
5.767
5.76666
5.76827
5.76799
5.76762
5.76726
5.76691
5.76853
5.76814
5.76776
5.76735
5.767
5.76662
5.76624
5.76794
5.76756
5.76723
5.76691
5.76658
5.7663
5.76601
5.76572
5.76743
5.76716
5.76692
5.76664
5.76638
5.76615
5.76588
5.76565
5.76541
5.76516
5.76694
5.7667
5.76647
5.76627
5.76602
5.7658
5.76557
5.76535
5.76516
5.76491
5.76666
5.76645
5.76622
5.76603
5.76581
5.76559
5.76541
5.76517
5.76497
5.76475
5.76647
5.76629
5.76606
5.76585
5.76565
5.76543
5.76525
5.76504
5.76483
5.76465
5.76442
5.76613
5.76593
5.76571
5.76553
5.76532
5.76512
5.76491
5.76469
5.76451
5.76431
5.76599
5.76581
5.76558
5.76539
5.76518
5.76497
5.76479
5.76459
5.76439
5.76418
5.76398
5.76566
5.76544
5.76524
5.76505
5.76483
5.76464
5.76444
5.76422
5.76405
5.76384
5.76548
5.76529
5.76507
5.76488
5.76467
5.76446
5.76428
5.76406
5.76387
5.76367
5.76527
5.76509
5.76488
5.76467
5.76449
5.76427
5.76407
5.76386
5.76365
5.76346
5.76506
5.76485
5.76463
5.76443
5.76424
5.76403
5.76381
5.76363
5.76341
5.7632
5.76477
5.76455
5.76436
5.76415
5.76394
5.76375
5.76352
5.76332
5.76311
5.76464
5.76445
5.76424
5.76403
5.76381
5.7636
5.7634
5.76318
5.76297
5.7645
5.76427
5.76406
5.76385
5.76362
5.76343
5.76321
5.76299
5.7628
5.76428
5.76406
5.76385
5.76362
5.76342
5.7632
5.76297
5.76277
5.76254
5.76401
5.7638
5.76356
5.76336
5.76314
5.76292
5.76269
5.76246
5.76393
5.7637
5.76347
5.76326
5.76302
5.76279
5.76257
5.76234
5.7638
5.76356
5.76332
5.76311
5.76287
5.76264
5.76241
5.76217
5.7636
5.76336
5.76314
5.7629
5.76268
5.76241
5.76223
5.76193
5.7634
5.76309
5.76294
5.76261
5.76249
5.7621
5.76204
5.7632
5.76321
5.7627
5.76276
5.76219
5.76232
5.76164
5.76351
5.76267
5.76314
5.76203
5.7627
5.76261
5.7605
5.76079
5.76215
5.76052
5.76416
5.7585
5.77527
5.73624
5.81631
5.85487
4.94531
0
0
0
)
;

boundaryField
{
    inlet
    {
        type            calculated;
        value           uniform 0;
    }
    outlet
    {
        type            calculated;
        value           uniform 0;
    }
    sideWall
    {
        type            empty;
    }
}


// ************************************************************************* //
