/*--------------------------------*- C++ -*----------------------------------*\
| =========                 |                                                 |
| \\      /  F ield         | foam-extend: Open Source CFD                    |
|  \\    /   O peration     | Version:     3.2                                |
|   \\  /    A nd           | Web:         http://www.foam-extend.org         |
|    \\/     M anipulation  | For copyright notice see file Copyright         |
\*---------------------------------------------------------------------------*/
FoamFile
{
    version     2.0;
    format      ascii;
    class       areaScalarField;
    location    "2020";
    object      thetaC2SS2;
}
// * * * * * * * * * * * * * * * * * * * * * * * * * * * * * * * * * * * * * //

dimensions      [0 0 0 0 0 0 0];

internalField   nonuniform List<scalar> 
300
(
0.0940613
0.0940613
0.0940613
0.0940613
0.0940613
0.0940613
0.0940613
0.0940613
0.0940613
0.0940613
0.0940613
0.0940613
0.0940613
0.0940613
0.0940613
0.0940613
0.0940613
0.0940613
0.0940613
0.0940613
0.0940613
0.0940613
0.0940613
0.0940613
0.0940613
0.0940613
0.0940613
0.0940613
0.0940613
0.0940613
0.0940613
0.0940613
0.0940613
0.0940613
0.0940613
0.0940613
0.0940613
0.0940613
0.0940613
0.0940613
0.0940613
0.0940613
0.0940613
0.0940613
0.0940613
0.0940613
0.0940613
0.0940613
0.0940613
0.0940613
0.0940613
0.0940613
0.0940613
0.0940613
0.0940613
0.0940613
0.0940613
0.0940613
0.0940613
0.101644
0.107806
0.106445
0.104218
0.103711
0.103276
0.103066
0.102984
0.102967
0.102939
0.10295
0.103014
0.103036
0.103022
0.103049
0.103037
0.103031
0.103059
0.103055
0.103047
0.103041
0.103035
0.103063
0.103056
0.10305
0.103042
0.103036
0.103029
0.103022
0.103052
0.103046
0.10304
0.103034
0.103028
0.103023
0.103018
0.103013
0.103043
0.103039
0.103034
0.103029
0.103025
0.103021
0.103016
0.103011
0.103007
0.103003
0.103035
0.10303
0.103026
0.103023
0.103018
0.103014
0.10301
0.103006
0.103003
0.102998
0.10303
0.103026
0.103022
0.103018
0.103014
0.103011
0.103007
0.103003
0.102999
0.102996
0.103026
0.103023
0.103019
0.103015
0.103012
0.103008
0.103004
0.103001
0.102997
0.102994
0.10299
0.10302
0.103016
0.103013
0.103009
0.103006
0.103002
0.102998
0.102994
0.102991
0.102988
0.103018
0.103014
0.10301
0.103007
0.103003
0.102999
0.102996
0.102993
0.102989
0.102985
0.102982
0.103012
0.103008
0.103004
0.103001
0.102997
0.102993
0.10299
0.102986
0.102983
0.102979
0.103008
0.103005
0.103001
0.102998
0.102994
0.10299
0.102987
0.102983
0.10298
0.102976
0.103005
0.103001
0.102998
0.102994
0.102991
0.102987
0.102983
0.10298
0.102976
0.102972
0.103001
0.102997
0.102993
0.10299
0.102986
0.102983
0.102979
0.102975
0.102971
0.102968
0.102996
0.102992
0.102989
0.102985
0.102981
0.102978
0.102974
0.10297
0.102966
0.102994
0.10299
0.102986
0.102983
0.102979
0.102975
0.102971
0.102967
0.102964
0.102991
0.102987
0.102983
0.102979
0.102975
0.102972
0.102968
0.102964
0.102961
0.102987
0.102983
0.102979
0.102975
0.102972
0.102968
0.102964
0.10296
0.102956
0.102982
0.102978
0.102974
0.102971
0.102967
0.102963
0.102959
0.102955
0.102981
0.102977
0.102973
0.102969
0.102965
0.10296
0.102956
0.102952
0.102978
0.102974
0.10297
0.102966
0.102962
0.102958
0.102954
0.102949
0.102975
0.102971
0.102967
0.102962
0.102958
0.102954
0.10295
0.102945
0.102971
0.102966
0.102963
0.102957
0.102955
0.102948
0.102947
0.102968
0.102968
0.102959
0.10296
0.10295
0.102952
0.10294
0.102973
0.102958
0.102967
0.102947
0.102959
0.102957
0.10292
0.102925
0.102949
0.10292
0.102985
0.102884
0.103183
0.102486
0.103917
0.104606
0.0940613
0.0940613
0.0940613
0.0940613
)
;

boundaryField
{
    inlet
    {
        type            calculated;
        value           uniform 0;
    }
    outlet
    {
        type            calculated;
        value           uniform 0;
    }
    sideWall
    {
        type            empty;
    }
}


// ************************************************************************* //
