/*--------------------------------*- C++ -*----------------------------------*\
| =========                 |                                                 |
| \\      /  F ield         | foam-extend: Open Source CFD                    |
|  \\    /   O peration     | Version:     3.2                                |
|   \\  /    A nd           | Web:         http://www.foam-extend.org         |
|    \\/     M anipulation  | For copyright notice see file Copyright         |
\*---------------------------------------------------------------------------*/
FoamFile
{
    version     2.0;
    format      ascii;
    class       areaScalarField;
    location    "2020";
    object      thetaSS1init;
}
// * * * * * * * * * * * * * * * * * * * * * * * * * * * * * * * * * * * * * //

dimensions      [0 0 0 0 0 0 0];

internalField   nonuniform List<scalar> 
300
(
6.04747
7.3856
6.26402
5.25924
4.71632
4.47458
4.38763
4.37596
4.39097
4.42119
4.45844
4.49541
4.53218
4.5701
4.60707
4.64477
4.68431
4.72393
4.76386
4.80416
4.84431
4.8846
4.92581
4.96756
5.00739
5.0438
5.07645
5.1052
5.13008
5.15152
5.17
5.18565
5.19871
5.20926
5.21784
5.22498
5.23096
5.23599
5.24025
5.24388
5.24694
5.24957
5.2518
5.25369
5.2553
5.25668
5.25785
5.25885
5.2597
5.26042
5.26104
5.26157
5.26201
5.26241
5.26273
5.26303
5.26327
5.26347
5.26364
5.2638
5.26392
5.26404
5.26414
5.26422
5.26428
5.26434
5.2644
5.26444
5.26448
5.26452
5.26454
5.26456
5.26458
5.2646
5.26462
5.26462
5.26464
5.26464
5.26466
5.26466
5.26466
5.26468
5.26468
5.26468
5.26468
5.26468
5.26468
5.2647
5.2647
5.2647
5.2647
5.2647
5.2647
5.2647
5.2647
5.2647
5.2647
5.2647
5.2647
5.2647
5.2647
5.2647
5.2647
5.2647
5.2647
5.2647
5.2647
5.2647
5.2647
5.2647
5.2647
5.2647
5.2647
5.2647
5.2647
5.2647
5.2647
5.2647
5.2647
5.2647
5.2647
5.2647
5.2647
5.2647
5.2647
5.2647
5.2647
5.2647
5.2647
5.2647
5.2647
5.2647
5.2647
5.2647
5.2647
5.2647
5.2647
5.2647
5.2647
5.2647
5.2647
5.2647
5.2647
5.2647
5.2647
5.2647
5.2647
5.2647
5.2647
5.2647
5.2647
5.2647
5.2647
5.2647
5.2647
5.2647
5.2647
5.2647
5.2647
5.2647
5.2647
5.2647
5.2647
5.2647
5.2647
5.2647
5.2647
5.2647
5.2647
5.2647
5.2647
5.2647
5.2647
5.2647
5.2647
5.2647
5.2647
5.2647
5.2647
5.2647
5.2647
5.2647
5.2647
5.2647
5.2647
5.2647
5.2647
5.2647
5.2647
5.2647
5.2647
5.2647
5.2647
5.2647
5.2647
5.2647
5.2647
5.2647
5.2647
5.2647
5.2647
5.2647
5.2647
5.2647
5.2647
5.2647
5.2647
5.2647
5.2647
5.2647
5.2647
5.2647
5.2647
5.2647
5.2647
5.2647
5.2647
5.2647
5.2647
5.2647
5.2647
5.2647
5.2647
5.2647
5.2647
5.2647
5.2647
5.2647
5.2647
5.2647
5.2647
5.2647
5.2647
5.2647
5.2647
5.2647
5.2647
5.2647
5.2647
5.2647
5.2647
5.2647
5.2647
5.2647
5.2647
5.2647
5.2647
5.2647
5.2647
5.2647
5.2647
5.2647
5.2647
5.2647
5.2647
5.2647
5.2647
5.2647
5.2647
5.2647
5.2647
5.2647
5.2647
5.2647
5.2647
5.2647
5.2647
5.2647
5.2647
5.2647
5.2647
5.2647
5.2647
5.2647
5.2647
5.2647
5.2647
5.2647
5.2647
5.2647
5.2647
5.2647
5.2647
5.2647
5.2647
5.2647
5.2647
5.2647
5.2647
5.2647
5.2647
5.2647
5.2647
5.2647
5.2647
5.2647
5.2647
5.26472
5.2651
5.26464
)
;

boundaryField
{
    inlet
    {
        type            calculated;
        value           uniform 0;
    }
    outlet
    {
        type            calculated;
        value           uniform 0;
    }
    sideWall
    {
        type            empty;
    }
}


// ************************************************************************* //
