/*--------------------------------*- C++ -*----------------------------------*\
| =========                 |                                                 |
| \\      /  F ield         | foam-extend: Open Source CFD                    |
|  \\    /   O peration     | Version:     3.2                                |
|   \\  /    A nd           | Web:         http://www.foam-extend.org         |
|    \\/     M anipulation  | For copyright notice see file Copyright         |
\*---------------------------------------------------------------------------*/
FoamFile
{
    version     2.0;
    format      ascii;
    class       areaScalarField;
    location    "2020";
    object      thetaCSS1;
}
// * * * * * * * * * * * * * * * * * * * * * * * * * * * * * * * * * * * * * //

dimensions      [0 0 0 0 0 0 0];

internalField   nonuniform List<scalar> 
300
(
0.117306
0.117306
0.117306
0.117306
0.117306
0.117306
0.117306
0.117306
0.117306
0.117306
0.117306
0.117306
0.117306
0.117306
0.117306
0.117306
0.117306
0.117306
0.117306
0.117306
0.117306
0.117306
0.117306
0.117306
0.117306
0.117306
0.117306
0.117306
0.117306
0.117306
0.117306
0.117306
0.117306
0.117306
0.117306
0.117306
0.117306
0.117306
0.117306
0.117306
0.117306
0.117306
0.117306
0.117306
0.117306
0.117306
0.117306
0.117306
0.117306
0.117306
0.117306
0.117306
0.117306
0.117306
0.117306
0.117306
0.117306
0.117306
0.117306
0.142919
0.140848
0.130437
0.133987
0.125903
0.129458
0.128324
0.128532
0.128284
0.128271
0.128231
0.128281
0.12831
0.128289
0.128332
0.128323
0.128329
0.12838
0.12839
0.128396
0.128404
0.128411
0.128463
0.128465
0.128468
0.128467
0.128468
0.128466
0.128462
0.128509
0.128502
0.128498
0.128492
0.128486
0.128481
0.128474
0.128469
0.12851
0.128504
0.128497
0.128492
0.128485
0.128479
0.128475
0.128466
0.128465
0.128454
0.128503
0.128488
0.128492
0.128477
0.128483
0.128464
0.128474
0.128452
0.128467
0.12844
0.128506
0.128473
0.128498
0.12846
0.128491
0.128446
0.128485
0.128433
0.128479
0.12842
0.12852
0.128451
0.128514
0.128436
0.128509
0.128421
0.128505
0.128406
0.128501
0.128392
0.128498
0.128422
0.128539
0.128405
0.128536
0.12839
0.128532
0.128374
0.128528
0.128359
0.128526
0.128389
0.128566
0.128374
0.128561
0.128359
0.128556
0.128345
0.128551
0.128332
0.128545
0.12832
0.128584
0.128351
0.128576
0.12834
0.128567
0.128329
0.128558
0.128319
0.128549
0.128311
0.128583
0.128345
0.128573
0.128336
0.128561
0.128328
0.12855
0.128321
0.128538
0.128315
0.128569
0.12835
0.128556
0.128344
0.128543
0.128338
0.128529
0.128333
0.128515
0.128328
0.128545
0.128364
0.12853
0.128359
0.128516
0.128354
0.128502
0.128349
0.128488
0.128344
0.128516
0.128379
0.128502
0.128375
0.128487
0.128369
0.128474
0.128363
0.12846
0.128399
0.128487
0.128393
0.128473
0.128386
0.12846
0.128381
0.128447
0.128374
0.128476
0.128407
0.128462
0.1284
0.128449
0.128392
0.128437
0.128385
0.128426
0.128417
0.128453
0.128409
0.12844
0.128401
0.128429
0.128393
0.128417
0.128384
0.128447
0.128414
0.128433
0.128405
0.128424
0.128396
0.128411
0.128387
0.12844
0.128417
0.128429
0.128407
0.128417
0.128398
0.128406
0.128387
0.128434
0.128416
0.128422
0.128406
0.128412
0.128395
0.128399
0.128385
0.128429
0.128414
0.128417
0.128403
0.128405
0.128392
0.128394
0.128381
0.128423
0.128408
0.128412
0.128397
0.1284
0.128386
0.12839
0.128413
0.128417
0.128401
0.128406
0.12839
0.128395
0.128378
0.128425
0.128397
0.128417
0.128387
0.128401
0.128412
0.128336
0.12836
0.12839
0.128355
0.12843
0.128338
0.128642
0.12835
0.132204
0.124067
0.101966
0.117306
0.117306
0.117306
)
;

boundaryField
{
    inlet
    {
        type            calculated;
        value           uniform 0;
    }
    outlet
    {
        type            calculated;
        value           uniform 0;
    }
    sideWall
    {
        type            empty;
    }
}


// ************************************************************************* //
