/*--------------------------------*- C++ -*----------------------------------*\
| =========                 |                                                 |
| \\      /  F ield         | foam-extend: Open Source CFD                    |
|  \\    /   O peration     | Version:     3.2                                |
|   \\  /    A nd           | Web:         http://www.foam-extend.org         |
|    \\/     M anipulation  | For copyright notice see file Copyright         |
\*---------------------------------------------------------------------------*/
FoamFile
{
    version     2.0;
    format      ascii;
    class       areaScalarField;
    location    "2020";
    object      thetaSS2;
}
// * * * * * * * * * * * * * * * * * * * * * * * * * * * * * * * * * * * * * //

dimensions      [0 0 0 0 0 0 0];

internalField   nonuniform List<scalar> 
300
(
1.53621
1.87456
1.58326
1.33808
1.19513
1.13699
1.11373
1.11087
1.11458
1.12231
1.1315
1.14096
1.15013
1.15983
1.16909
1.17861
1.18867
1.19865
1.20882
1.21902
1.22922
1.23943
1.24988
1.26045
1.27055
1.27978
1.28807
1.29536
1.30167
1.30711
1.31179
1.31576
1.31907
1.32176
1.32393
1.32575
1.32725
1.32854
1.32961
1.33054
1.3313
1.33199
1.33253
1.33305
1.33341
1.33381
1.33406
1.33439
1.33449
1.33493
1.33456
1.33573
1.3337
1.33821
1.32918
1.348
1.30831
1.38304
1.12845
1.62584
2.70442
2.34177
2.38439
2.35457
2.08109
2.13556
2.11296
2.12826
2.12635
2.1305
2.13052
2.13069
2.13083
2.13099
2.13108
2.13056
2.13018
2.12958
2.12877
2.12795
2.12692
2.12616
2.12547
2.1247
2.12406
2.1234
2.12282
2.1222
2.12189
2.12173
2.12144
2.12129
2.12107
2.12096
2.1208
2.12065
2.12066
2.1208
2.12082
2.12077
2.1209
2.12065
2.12088
2.12048
2.12087
2.12028
2.12086
2.12048
2.12108
2.12041
2.12116
2.12027
2.1212
2.12006
2.12123
2.11978
2.12124
2.1199
2.1215
2.11978
2.12163
2.11958
2.12167
2.11931
2.12178
2.11899
2.12188
2.11907
2.12219
2.11892
2.12236
2.11868
2.12245
2.11842
2.1225
2.11815
2.12251
2.11789
2.12292
2.11785
2.12309
2.11769
2.12317
2.11748
2.12319
2.11727
2.12315
2.11709
2.12349
2.11714
2.12359
2.11707
2.1236
2.11695
2.12355
2.11681
2.12348
2.11666
2.1234
2.11694
2.12351
2.11701
2.12347
2.11702
2.12335
2.117
2.12321
2.11697
2.12306
2.11732
2.12311
2.11747
2.123
2.11755
2.12283
2.1176
2.12265
2.11761
2.12248
2.11801
2.1225
2.11819
2.12238
2.1183
2.12222
2.11836
2.12205
2.11837
2.12187
2.11877
2.12188
2.11893
2.12178
2.11898
2.12163
2.11904
2.12145
2.11904
2.12129
2.11938
2.12133
2.11949
2.12125
2.11955
2.12103
2.11955
2.12084
2.11956
2.12099
2.11978
2.12095
2.11977
2.12081
2.11978
2.12074
2.11973
2.12065
2.12
2.12071
2.12
2.1206
2.11999
2.12043
2.11993
2.12036
2.1199
2.12046
2.12002
2.12041
2.11999
2.12034
2.11984
2.1203
2.11971
2.12008
2.11995
2.1202
2.11984
2.12015
2.11992
2.12004
2.11965
2.11997
2.11988
2.12011
2.11997
2.12008
2.11987
2.12004
2.11972
2.11992
2.11989
2.12002
2.11983
2.11999
2.11983
2.11988
2.11958
2.11981
2.11983
2.11994
2.11987
2.11992
2.11974
2.11981
2.11956
2.11973
2.11972
2.11977
2.11974
2.1197
2.11968
2.11962
2.11964
2.11985
2.11979
2.11986
2.11979
2.1199
2.11951
2.11992
2.11986
2.11966
2.12018
2.11926
2.12054
2.12025
2.11894
2.11959
2.11874
2.12067
2.11605
2.12718
2.07157
2.23089
2.54006
1.32326
0.976949
1.21046
1.2402
)
;

boundaryField
{
    inlet
    {
        type            calculated;
        value           uniform 0;
    }
    outlet
    {
        type            calculated;
        value           uniform 0;
    }
    sideWall
    {
        type            empty;
    }
}


// ************************************************************************* //
