/*--------------------------------*- C++ -*----------------------------------*\
| =========                 |                                                 |
| \\      /  F ield         | foam-extend: Open Source CFD                    |
|  \\    /   O peration     | Version:     3.2                                |
|   \\  /    A nd           | Web:         http://www.foam-extend.org         |
|    \\/     M anipulation  | For copyright notice see file Copyright         |
\*---------------------------------------------------------------------------*/
FoamFile
{
    version     2.0;
    format      ascii;
    class       areaScalarField;
    location    "2020";
    object      thetaCB;
}
// * * * * * * * * * * * * * * * * * * * * * * * * * * * * * * * * * * * * * //

dimensions      [0 0 0 0 0 0 0];

internalField   nonuniform List<scalar> 
300
(
0.0298892
0.0298892
0.0298892
0.0298892
0.0298892
0.0298892
0.0298892
0.0298892
0.0298892
0.0298892
0.0298892
0.0298892
0.0298892
0.0298892
0.0298892
0.0298892
0.0298892
0.0298892
0.0298892
0.0298892
0.0298892
0.0298892
0.0298892
0.0298892
0.0298892
0.0298892
0.0298892
0.0298892
0.0298892
0.0298892
0.0298892
0.0298892
0.0298892
0.0298892
0.0298892
0.0298892
0.0298892
0.0298892
0.0298892
0.0298892
0.0298892
0.0298892
0.0298892
0.0298892
0.0298892
0.0298892
0.0298892
0.0298892
0.0298892
0.0298892
0.0298892
0.0298892
0.0298892
0.0298892
0.0298892
0.0298892
0.0298892
0.0298892
0.0298892
0.0529132
0.0612385
0.0496196
0.0352366
0.033476
0.0375586
0.036042
0.0355352
0.0347252
0.0342347
0.0298517
0.0298449
0.0298453
0.0298443
0.0298468
0.0298479
0.0298511
0.0298547
0.0298583
0.0298619
0.0298656
0.0298689
0.029873
0.0298754
0.0298781
0.0298799
0.0298818
0.0298835
0.0298846
0.0298867
0.029887
0.0298878
0.0298881
0.0298883
0.0298888
0.0298886
0.029889
0.0298895
0.0298896
0.0298893
0.0298894
0.0298893
0.029889
0.0298895
0.0298887
0.0298896
0.0298884
0.0298905
0.0298883
0.0298905
0.0298879
0.0298906
0.0298874
0.0298909
0.0298869
0.0298913
0.0298864
0.0298926
0.0299209
0.029915
0.0299123
0.0299055
0.0298843
0.0298943
0.0298931
0.0298994
0.0298856
0.0298983
0.0298829
0.0298986
0.0298814
0.0298994
0.0298798
0.0299002
0.0298782
0.0299013
0.0298767
0.0299026
0.0298759
0.0299041
0.0298742
0.0299055
0.0298725
0.0299068
0.029871
0.0299081
0.0298696
0.0299095
0.0298689
0.0299109
0.0298674
0.0299121
0.0298661
0.029913
0.0298649
0.0299139
0.029864
0.0299147
0.0298633
0.029916
0.0298628
0.0299162
0.0298624
0.0299163
0.029862
0.0299164
0.0298618
0.0299163
0.0298618
0.0299168
0.0298622
0.0299164
0.0298623
0.0299158
0.0298626
0.0299152
0.029863
0.0299146
0.0298637
0.0299145
0.0298646
0.0299273
0.0298775
0.0299332
0.029866
0.0299115
0.0298669
0.0299484
0.0299051
0.0299598
0.029918
0.0299088
0.0298699
0.0299076
0.0298709
0.0300002
0.0299665
0.0300139
0.0299818
0.0299049
0.0298741
0.0299036
0.030023
0.0300643
0.0300446
0.0299014
0.0298768
0.0301052
0.0300902
0.0298997
0.0298789
0.0298986
0.0301378
0.0301674
0.0301547
0.029897
0.0298811
0.0301925
0.0301875
0.0302114
0.0302105
0.0298952
0.0298829
0.0298945
0.0298836
0.0302633
0.030271
0.0302857
0.0298848
0.0298931
0.029885
0.0303238
0.0303322
0.0303372
0.0298855
0.0298926
0.0298861
0.0298918
0.0303936
0.0303894
0.0303983
0.030401
0.0298867
0.0298915
0.0298872
0.0298912
0.0304399
0.0304354
0.0304524
0.0304385
0.0298874
0.0298908
0.0298878
0.0304732
0.0304986
0.0304824
0.0305049
0.0298899
0.0298879
0.0298905
0.0305399
0.0305183
0.0305427
0.030524
0.0298882
0.0298896
0.0298882
0.0305511
0.0305882
0.0305571
0.0305921
0.0298897
0.0298885
0.0298895
0.0298891
0.0305943
0.0306456
0.0306193
0.0306692
0.0298892
0.0298888
0.0298902
0.029888
0.0307021
0.0307501
0.0307034
0.0307288
0.0306809
0.0308556
0.0307654
0.0309223
0.0307013
0.0298958
0.0298797
0.0300146
0.0441346
0.0370034
0.0259805
0.0298892
0.0298892
0.0298892
)
;

boundaryField
{
    inlet
    {
        type            calculated;
        value           uniform 0;
    }
    outlet
    {
        type            calculated;
        value           uniform 0;
    }
    sideWall
    {
        type            empty;
    }
}


// ************************************************************************* //
