/*--------------------------------*- C++ -*----------------------------------*\
| =========                 |                                                 |
| \\      /  F ield         | foam-extend: Open Source CFD                    |
|  \\    /   O peration     | Version:     3.2                                |
|   \\  /    A nd           | Web:         http://www.foam-extend.org         |
|    \\/     M anipulation  | For copyright notice see file Copyright         |
\*---------------------------------------------------------------------------*/
FoamFile
{
    version     2.0;
    format      ascii;
    class       areaScalarField;
    location    "2020";
    object      thetaSS1;
}
// * * * * * * * * * * * * * * * * * * * * * * * * * * * * * * * * * * * * * //

dimensions      [0 0 0 0 0 0 0];

internalField   nonuniform List<scalar> 
300
(
6.05449
7.38798
6.23992
5.2736
4.71022
4.48108
4.3894
4.37814
4.39276
4.42322
4.45944
4.49671
4.53287
4.57108
4.6076
4.6451
4.68476
4.7241
4.76417
4.80438
4.84459
4.88483
4.92599
4.96766
5.00746
5.04385
5.0765
5.10524
5.13011
5.15154
5.16998
5.18565
5.19868
5.20927
5.21783
5.22501
5.23094
5.23603
5.24023
5.24391
5.2469
5.24962
5.25172
5.25377
5.25521
5.25678
5.25776
5.25908
5.25945
5.26118
5.25974
5.26434
5.25634
5.27411
5.23851
5.31272
5.15629
5.45079
4.44743
6.40773
10.6586
9.22934
9.39731
9.27979
8.20194
8.41661
8.32755
8.38783
8.38032
8.39668
8.39676
8.39744
8.39797
8.39861
8.39896
8.39692
8.3954
8.39305
8.38987
8.38663
8.38258
8.37959
8.37685
8.37382
8.37129
8.36869
8.36642
8.36398
8.36274
8.3621
8.36098
8.36039
8.35949
8.35906
8.35844
8.35786
8.35788
8.35844
8.35852
8.35832
8.35884
8.35786
8.35877
8.35717
8.35872
8.35639
8.35867
8.35717
8.35956
8.35692
8.35987
8.35635
8.36002
8.35552
8.36013
8.35443
8.36017
8.35492
8.36121
8.35443
8.3617
8.35366
8.36187
8.35256
8.3623
8.35132
8.36271
8.35164
8.36393
8.35104
8.36458
8.35011
8.36495
8.34906
8.36515
8.34798
8.3652
8.34697
8.3668
8.34684
8.36748
8.34618
8.36779
8.34536
8.36786
8.34453
8.36771
8.34383
8.36905
8.34403
8.36945
8.34373
8.36947
8.34326
8.3693
8.34273
8.36903
8.34214
8.36871
8.34321
8.36913
8.34351
8.36896
8.34355
8.36851
8.34349
8.36794
8.34334
8.36736
8.34474
8.36753
8.34534
8.36711
8.34565
8.36646
8.34582
8.36572
8.34589
8.36508
8.34743
8.36513
8.34816
8.36469
8.3486
8.36405
8.34882
8.36337
8.34887
8.36265
8.35044
8.36268
8.35109
8.36232
8.35128
8.36172
8.3515
8.36102
8.35153
8.36038
8.35283
8.36053
8.35327
8.36021
8.35351
8.35934
8.35353
8.35862
8.35358
8.35919
8.35444
8.35902
8.3544
8.35849
8.35441
8.3582
8.35423
8.35784
8.35529
8.35807
8.3553
8.35768
8.35524
8.35699
8.35503
8.35671
8.35492
8.3571
8.35538
8.35692
8.35527
8.35662
8.35466
8.35649
8.35415
8.35561
8.3551
8.35608
8.35466
8.35587
8.35497
8.35544
8.3539
8.35518
8.3548
8.35573
8.35519
8.35562
8.35477
8.35544
8.35419
8.35496
8.35487
8.35538
8.35461
8.35525
8.35462
8.35484
8.35365
8.35455
8.35462
8.35505
8.35479
8.35499
8.35427
8.35453
8.35356
8.35425
8.35421
8.3544
8.35426
8.35411
8.35403
8.3538
8.35387
8.35471
8.35447
8.35472
8.35446
8.35491
8.35336
8.35496
8.35475
8.35396
8.35601
8.35238
8.35742
8.35628
8.35111
8.35369
8.35034
8.35793
8.33971
8.38358
8.16442
8.79233
10.0108
5.21518
3.85033
4.77065
4.88785
)
;

boundaryField
{
    inlet
    {
        type            calculated;
        value           uniform 0;
    }
    outlet
    {
        type            calculated;
        value           uniform 0;
    }
    sideWall
    {
        type            empty;
    }
}


// ************************************************************************* //
