/*--------------------------------*- C++ -*----------------------------------*\
| =========                 |                                                 |
| \\      /  F ield         | foam-extend: Open Source CFD                    |
|  \\    /   O peration     | Version:     3.2                                |
|   \\  /    A nd           | Web:         http://www.foam-extend.org         |
|    \\/     M anipulation  | For copyright notice see file Copyright         |
\*---------------------------------------------------------------------------*/
FoamFile
{
    version     2.0;
    format      ascii;
    class       areaScalarField;
    location    "2020";
    object      thetaB;
}
// * * * * * * * * * * * * * * * * * * * * * * * * * * * * * * * * * * * * * //

dimensions      [0 0 0 0 0 0 0];

internalField   nonuniform List<scalar> 
300
(
0.115216
0.140592
0.118745
0.100356
0.0896347
0.0852743
0.0835296
0.0833153
0.0835935
0.0841732
0.0848625
0.0855717
0.0862598
0.0869869
0.0876819
0.0883955
0.0891503
0.0898989
0.0906615
0.0914267
0.0921918
0.0929575
0.0937408
0.0945338
0.0952911
0.0959837
0.0966051
0.097152
0.0976251
0.098033
0.0983839
0.0986822
0.0989301
0.0991316
0.0992945
0.0994312
0.099544
0.0996408
0.0997207
0.0997908
0.0998478
0.0998995
0.0999395
0.0999784
0.100006
0.100036
0.100054
0.100079
0.100086
0.100119
0.100092
0.10018
0.100027
0.100365
0.0996881
0.1011
0.0981235
0.103728
0.0846339
0.121938
0.202832
0.175633
0.178829
0.176593
0.156082
0.160167
0.158472
0.159619
0.159476
0.159788
0.159789
0.159802
0.159812
0.159824
0.159831
0.159792
0.159763
0.159718
0.159658
0.159596
0.159519
0.159462
0.15941
0.159353
0.159304
0.159255
0.159212
0.159165
0.159142
0.15913
0.159108
0.159097
0.15908
0.159072
0.15906
0.159049
0.159049
0.15906
0.159061
0.159058
0.159068
0.159049
0.159066
0.159036
0.159065
0.159021
0.159064
0.159036
0.159081
0.159031
0.159087
0.15902
0.15909
0.159004
0.159092
0.158983
0.159093
0.158993
0.159113
0.158984
0.159122
0.158969
0.159125
0.158948
0.159133
0.158924
0.159141
0.15893
0.159164
0.158919
0.159177
0.158901
0.159184
0.158881
0.159188
0.158861
0.159189
0.158842
0.159219
0.158839
0.159232
0.158827
0.159238
0.158811
0.159239
0.158795
0.159236
0.158782
0.159262
0.158786
0.159269
0.15878
0.15927
0.158771
0.159267
0.158761
0.159261
0.15875
0.159255
0.15877
0.159263
0.158776
0.15926
0.158777
0.159251
0.158775
0.159241
0.158772
0.15923
0.158799
0.159233
0.158811
0.159225
0.158817
0.159212
0.15882
0.159198
0.158821
0.159186
0.15885
0.159187
0.158864
0.159179
0.158873
0.159167
0.158877
0.159154
0.158878
0.15914
0.158908
0.159141
0.15892
0.159134
0.158924
0.159122
0.158928
0.159109
0.158928
0.159097
0.158953
0.1591
0.158962
0.159093
0.158966
0.159077
0.158966
0.159063
0.158967
0.159074
0.158984
0.159071
0.158983
0.159061
0.158983
0.159055
0.15898
0.159049
0.159
0.159053
0.159
0.159045
0.158999
0.159032
0.158995
0.159027
0.158993
0.159034
0.159002
0.159031
0.159
0.159025
0.158988
0.159023
0.158978
0.159006
0.158996
0.159015
0.158988
0.159011
0.158994
0.159003
0.158973
0.158998
0.158991
0.159008
0.158998
0.159006
0.15899
0.159003
0.158979
0.158994
0.158992
0.159002
0.158987
0.158999
0.158987
0.158991
0.158969
0.158986
0.158987
0.158995
0.15899
0.158994
0.15898
0.158985
0.158967
0.15898
0.158979
0.158983
0.15898
0.158977
0.158976
0.158972
0.158973
0.158989
0.158984
0.158989
0.158984
0.158993
0.158963
0.158994
0.15899
0.158975
0.159014
0.158944
0.15904
0.159019
0.15892
0.158969
0.158906
0.15905
0.158703
0.159538
0.155368
0.167317
0.190505
0.0992441
0.0732712
0.0907848
0.0930151
)
;

boundaryField
{
    inlet
    {
        type            calculated;
        value           uniform 0;
    }
    outlet
    {
        type            calculated;
        value           uniform 0;
    }
    sideWall
    {
        type            empty;
    }
}


// ************************************************************************* //
