/*--------------------------------*- C++ -*----------------------------------*\
| =========                 |                                                 |
| \\      /  F ield         | foam-extend: Open Source CFD                    |
|  \\    /   O peration     | Version:     3.2                                |
|   \\  /    A nd           | Web:         http://www.foam-extend.org         |
|    \\/     M anipulation  | For copyright notice see file Copyright         |
\*---------------------------------------------------------------------------*/
FoamFile
{
    version     2.0;
    format      ascii;
    class       areaScalarField;
    location    "2020";
    object      totH;
}
// * * * * * * * * * * * * * * * * * * * * * * * * * * * * * * * * * * * * * //

dimensions      [0 0 0 0 0 0 0];

internalField   nonuniform List<scalar> 
300
(
0
0
0
0
0
0
0
0
0
0
0
0
0
0
0
0
0
0
0
0
0
0
0
0
0
0
0
0
0
0
0
0
0
0
0
0
0
0
0
0
0
0
0
0
0
0
0
0
0
0
0
0
0
0
0
0
0
0
0
0.00211229
0.0049976
0.00549154
0.005712
0.00578657
0.00544389
0.00549964
0.00548527
0.00548128
0.0054517
0.00541814
0.00537421
0.00532687
0.00527921
0.00523231
0.00518732
0.00514466
0.00510565
0.00507053
0.00503928
0.00501196
0.00498843
0.00496884
0.00495274
0.00493939
0.00492845
0.00491955
0.00491255
0.00490705
0.00490329
0.00490082
0.00489893
0.00489761
0.00489659
0.00489591
0.00489542
0.00489507
0.00489519
0.00489561
0.00489592
0.00489614
0.00489637
0.00489635
0.00489641
0.0048963
0.00489628
0.00489614
0.00489646
0.00489672
0.00489697
0.00489701
0.00489713
0.004897
0.00489703
0.00489677
0.00489673
0.00489641
0.00489678
0.00489692
0.00489728
0.00489723
0.00489749
0.00489726
0.00489741
0.00489711
0.00489726
0.00489694
0.00489752
0.00489763
0.00489821
0.00489813
0.00489859
0.00489836
0.00489873
0.00489838
0.00489871
0.00489828
0.00489861
0.00489856
0.00489936
0.00489929
0.00489996
0.00489978
0.00490031
0.00490002
0.00490044
0.00490008
0.00490045
0.00490047
0.00490128
0.00490129
0.00490191
0.00490182
0.00490225
0.00490207
0.00490236
0.00490212
0.00490228
0.00490206
0.00490255
0.00490281
0.00490321
0.00490334
0.00490354
0.00490355
0.00490357
0.00490349
0.00490337
0.00490327
0.00490346
0.00490382
0.00490393
0.00490413
0.00490405
0.00490412
0.00490386
0.00490384
0.00490346
0.00490344
0.00490338
0.00490378
0.00490366
0.00490391
0.00490363
0.00490375
0.00490331
0.00490333
0.00490278
0.00490274
0.00490252
0.00490292
0.00490264
0.00490288
0.00490244
0.00490249
0.00490196
0.00490194
0.00490132
0.00490128
0.00490097
0.0049013
0.00490094
0.00490113
0.00490069
0.00490067
0.00490008
0.00489999
0.00489936
0.00489953
0.00489937
0.00489954
0.00489913
0.00489909
0.00489863
0.00489862
0.00489815
0.00489804
0.00489786
0.00489812
0.00489786
0.00489791
0.00489757
0.00489746
0.00489694
0.00489681
0.00489641
0.00489644
0.00489634
0.00489644
0.00489619
0.00489608
0.0048957
0.00489554
0.00489517
0.00489484
0.00489476
0.00489499
0.00489477
0.00489468
0.00489458
0.00489456
0.00489417
0.00489389
0.00489386
0.00489408
0.00489413
0.00489423
0.00489404
0.00489397
0.00489382
0.00489362
0.00489352
0.00489367
0.00489361
0.00489359
0.00489355
0.00489347
0.00489311
0.00489282
0.00489285
0.00489306
0.00489316
0.00489327
0.00489313
0.00489292
0.00489263
0.00489236
0.00489236
0.00489247
0.00489249
0.00489252
0.0048924
0.00489232
0.00489213
0.00489226
0.00489252
0.00489264
0.0048927
0.00489281
0.0048927
0.00489253
0.00489287
0.00489279
0.00489276
0.00489329
0.00489301
0.00489427
0.00489347
0.00489123
0.0048912
0.00489128
0.0048907
0.00489358
0.00489206
0.00495448
0.00534662
0.0048913
0.00205567
0
0
0
)
;

boundaryField
{
    inlet
    {
        type            calculated;
        value           uniform 0;
    }
    outlet
    {
        type            calculated;
        value           uniform 0;
    }
    sideWall
    {
        type            empty;
    }
}


// ************************************************************************* //
