/*--------------------------------*- C++ -*----------------------------------*\
| =========                 |                                                 |
| \\      /  F ield         | foam-extend: Open Source CFD                    |
|  \\    /   O peration     | Version:     3.2                                |
|   \\  /    A nd           | Web:         http://www.foam-extend.org         |
|    \\/     M anipulation  | For copyright notice see file Copyright         |
\*---------------------------------------------------------------------------*/
FoamFile
{
    version     2.0;
    format      ascii;
    class       areaVectorField;
    location    "2020";
    object      Ub2;
}
// * * * * * * * * * * * * * * * * * * * * * * * * * * * * * * * * * * * * * //

dimensions      [0 1 -1 0 0 0 0];

internalField   nonuniform List<vector> 
300
(
(0.194326 0 -0.000971629)
(0.225954 0 -0.00112977)
(0.198949 0 -0.000994745)
(0.17421 0 -0.000871052)
(0.158727 2.68033e-23 -0.000793637)
(0.152167 -8.92656e-24 -0.000760833)
(0.149494 -2.01031e-23 -0.000747472)
(0.149164 -2.03872e-23 -0.000745822)
(0.149593 5.63334e-27 -0.000747964)
(0.150483 -1.83783e-23 -0.000752417)
(0.151538 2.7392e-27 -0.000757692)
(0.152619 1.37214e-23 -0.000763096)
(0.153664 0 -0.000768319)
(0.154763 1.24082e-23 -0.000773815)
(0.155809 1.00834e-27 -0.000779047)
(0.15688 -4.15757e-29 -0.000784398)
(0.158007 1.17162e-23 -0.000790033)
(0.15912 -1.13169e-23 -0.000795599)
(0.160249 1.10636e-23 -0.000801246)
(0.161377 0 -0.000806887)
(0.162501 0 -0.000812505)
(0.163621 -1.12913e-23 -0.000818103)
(0.164761 1.25516e-27 -0.000823807)
(0.165911 0 -0.000829556)
(0.167005 0 -0.000835026)
(0.168002 -9.83839e-24 -0.000840008)
(0.168893 0 -0.000844463)
(0.169674 0 -0.000848372)
(0.170349 0 -0.000851745)
(0.170929 -5.50648e-24 -0.000854645)
(0.171427 0 -0.000857137)
(0.17185 0 -0.00085925)
(0.172201 -6.06023e-28 -0.000861005)
(0.172486 0 -0.00086243)
(0.172716 0 -0.00086358)
(0.172909 0 -0.000864545)
(0.173068 -3.29517e-28 -0.000865341)
(0.173205 0 -0.000866023)
(0.173317 0 -0.000866586)
(0.173416 0 -0.00086708)
(0.173496 -1.83004e-28 -0.000867481)
(0.173569 -6.05888e-25 -0.000867845)
(0.173625 0 -0.000868126)
(0.17368 -4.43849e-25 -0.0008684)
(0.173719 -9.88298e-29 -0.000868593)
(0.173761 0 -0.000868803)
(0.173787 -2.69638e-25 -0.000868935)
(0.173822 0 -0.000869111)
(0.173832 -2.12524e-25 -0.000869161)
(0.173878 0 -0.000869392)
(0.17384 0 -0.000869199)
(0.173963 -1.88471e-25 -0.000869816)
(0.173749 0 -0.000868744)
(0.174224 -3.72492e-25 -0.000871121)
(0.173271 0 -0.000866357)
(0.175254 0 -0.000876271)
(0.171058 1.02518e-23 -0.000855288)
(0.178907 0 -0.000894536)
(0.151187 -1.40005e-25 -0.000755937)
(0.166898 0 0.013267)
(0.246536 -1.74755e-24 0.00639042)
(0.234142 -3.11055e-21 -0.00378453)
(0.259353 2.15622e-21 0.00388561)
(0.259914 0 -0.00571794)
(0.230845 8.94945e-23 -0.000394258)
(0.237875 0 -0.00144195)
(0.236822 -5.0694e-27 -0.00106883)
(0.239447 -2.90348e-24 -0.00135203)
(0.24011 4.00631e-27 -0.00132935)
(0.248087 1.6208e-24 -0.00144041)
(0.248101 0 -0.00147651)
(0.248115 0 -0.0014744)
(0.248128 0 -0.00147983)
(0.248137 -2.07559e-27 -0.001467)
(0.248142 2.25988e-24 -0.00146093)
(0.248093 2.55138e-24 -0.00144367)
(0.248055 0 -0.00142414)
(0.247999 0 -0.00140452)
(0.247925 2.83942e-28 -0.00138508)
(0.24785 0 -0.00136473)
(0.247758 -9.89591e-25 -0.00134652)
(0.247687 0 -0.00132479)
(0.247625 0 -0.00131129)
(0.247556 0 -0.00129686)
(0.247499 -9.97162e-26 -0.00128666)
(0.24744 -2.45944e-28 -0.00127616)
(0.247389 2.5228e-27 -0.00126732)
(0.247335 -2.9375e-25 -0.00126071)
(0.247305 0 -0.00124966)
(0.247291 1.64633e-25 -0.00124777)
(0.247266 0 -0.00124374)
(0.247253 -1.23839e-25 -0.00124184)
(0.247234 -1.13026e-28 -0.00124074)
(0.247224 0 -0.0012382)
(0.247211 -3.95461e-29 -0.00123883)
(0.247198 -5.8244e-26 -0.00123668)
(0.247197 -1.04206e-28 -0.00123416)
(0.247209 6.03381e-29 -0.00123368)
(0.247211 0 -0.00123534)
(0.247207 -6.71047e-26 -0.00123458)
(0.247218 1.32451e-25 -0.00123523)
(0.247198 -1.46226e-25 -0.0012371)
(0.247216 5.71903e-26 -0.00123441)
(0.247184 5.36219e-29 -0.00123864)
(0.247215 2.36709e-25 -0.00123353)
(0.247167 4.86632e-25 -0.0012398)
(0.247212 8.88556e-25 -0.00122889)
(0.247184 -7.89144e-29 -0.00124052)
(0.247231 -7.03327e-25 -0.00122909)
(0.24718 1.16129e-28 -0.00124259)
(0.247237 8.77834e-25 -0.00122831)
(0.247168 1.09116e-24 -0.00124499)
(0.24724 -1.12774e-24 -0.00122674)
(0.247152 -1.89593e-28 -0.0012478)
(0.247242 0 -0.0012246)
(0.247129 -1.8207e-24 -0.00125037)
(0.24724 0 -0.00121784)
(0.247078 0 -0.00125233)
(0.247222 0 -0.00121564)
(0.247083 2.72442e-24 -0.00125634)
(0.24725 2.91686e-24 -0.00121271)
(0.247117 0 -0.00126138)
(0.247273 3.813e-28 -0.0012091)
(0.247078 0 -0.00126556)
(0.247273 4.01702e-24 -0.0012047)
(0.247065 4.52027e-24 -0.00127016)
(0.247284 0 -0.00119576)
(0.247076 0 -0.00127493)
(0.24731 -5.70421e-24 -0.00119129)
(0.247066 0 -0.0012813)
(0.247322 0 -0.00118602)
(0.247049 -7.06541e-24 -0.00128814)
(0.247328 -7.40404e-24 -0.00117997)
(0.24703 8.01982e-24 -0.00129517)
(0.247331 0 -0.00117337)
(0.24701 8.60617e-28 -0.00130245)
(0.247329 0 -0.00116589)
(0.24699 -9.54925e-24 -0.00130619)
(0.247361 1.03737e-23 -0.00115746)
(0.24699 -1.09709e-23 -0.00131485)
(0.247373 -1.08898e-27 -0.00115023)
(0.246979 -1.21181e-23 -0.00132323)
(0.247377 0 -0.00114315)
(0.246964 1.32347e-23 -0.00133125)
(0.247376 1.36175e-23 -0.00113615)
(0.246949 0 -0.00133887)
(0.24737 0 -0.00112879)
(0.246935 0 -0.00134242)
(0.247396 0 -0.00112104)
(0.246942 1.42581e-27 -0.00135026)
(0.247403 0 -0.00111514)
(0.246938 1.71255e-23 -0.00135727)
(0.247401 0 -0.00110991)
(0.24693 -1.796e-23 -0.00136332)
(0.247396 -1.81685e-23 -0.00110519)
(0.246921 0 -0.00136845)
(0.247389 1.62435e-27 -0.00110127)
(0.24691 0 -0.00137212)
(0.24738 0 -0.00109427)
(0.246933 1.65298e-27 -0.00137444)
(0.247388 0 -0.00109298)
(0.24694 -1.68547e-27 -0.00137707)
(0.247385 -2.01846e-23 -0.00109232)
(0.246942 0 -0.00137901)
(0.247375 0 -0.00109211)
(0.246941 0 -0.00138001)
(0.247363 2.02896e-23 -0.00109244)
(0.246937 0 -0.00137976)
(0.24735 0 -0.00108958)
(0.246967 2.02939e-23 -0.00137823)
(0.247354 0 -0.00109205)
(0.246979 2.01233e-23 -0.00137739)
(0.247346 0 -0.00109484)
(0.246985 0 -0.00137596)
(0.247334 -1.94367e-23 -0.00109794)
(0.246988 0 -0.00137369)
(0.247319 -1.90058e-23 -0.00110139)
(0.246988 0 -0.0013702)
(0.247306 -1.89319e-23 -0.00110168)
(0.24702 1.67874e-27 -0.00136584)
(0.247284 -1.80131e-23 -0.00110676)
(0.247012 0 -0.00136209)
(0.247264 1.73451e-23 -0.00111194)
(0.247042 -1.59612e-27 -0.00135827)
(0.247289 -1.53207e-27 -0.00111762)
(0.247045 1.64233e-23 -0.00135376)
(0.247208 0 -0.00112286)
(0.246977 0 -0.00134832)
(0.247172 1.56572e-23 -0.00112453)
(0.246987 -1.4944e-23 -0.00134226)
(0.247265 0 -0.00113166)
(0.247088 0 -0.00133759)
(0.24726 0 -0.00113848)
(0.24709 -1.34037e-23 -0.00133266)
(0.24708 0 -0.00114345)
(0.246923 0 -0.00132669)
(0.24704 1.21365e-23 -0.0011492)
(0.246896 1.17836e-23 -0.00132084)
(0.247223 0 -0.00115268)
(0.247117 0 -0.00131578)
(0.247228 0 -0.00115949)
(0.246859 -1.02803e-23 -0.00130894)
(0.246932 0 -0.00116431)
(0.246825 -9.67015e-28 -0.00130466)
(0.247207 0 -0.00117119)
(0.247127 0 -0.00130136)
(0.246825 0 -0.00117475)
(0.246745 0 -0.00129134)
(0.247207 -7.86924e-28 -0.00117993)
(0.247143 -7.84215e-28 -0.00129014)
(0.247205 -6.99314e-24 -0.00118564)
(0.246676 7.15185e-28 -0.00128406)
(0.246711 0 -0.00118739)
(0.246647 -6.36021e-28 -0.00127952)
(0.247191 0 -0.0011942)
(0.247135 0 -0.00127848)
(0.246652 0 -0.0011923)
(0.246606 0 -0.00127148)
(0.246623 -4.94959e-24 -0.00119719)
(0.246565 5.0597e-28 -0.00126825)
(0.247183 4.54846e-24 -0.00120373)
(0.247153 0 -0.0012691)
(0.24717 4.11044e-28 -0.00120757)
(0.247147 4.41796e-28 -0.00126536)
(0.246501 0 -0.00120687)
(0.246449 -3.77916e-28 -0.00125758)
(0.246469 0 -0.00120805)
(0.247153 0 -0.00125906)
(0.247171 -2.8582e-24 -0.00121503)
(0.24715 0 -0.00125774)
(0.246391 -2.6051e-24 -0.00121374)
(0.246334 2.56854e-24 -0.00125144)
(0.246364 0 -0.00121576)
(0.247125 2.44224e-24 -0.00125493)
(0.247144 0 -0.00121723)
(0.247144 0 -0.00125196)
(0.247155 0 -0.00122167)
(0.246224 2.11583e-28 -0.00124607)
(0.246258 0 -0.00121737)
(0.246222 -1.96107e-28 -0.00124523)
(0.246228 -1.53182e-24 -0.00122086)
(0.247118 -1.54526e-24 -0.00124859)
(0.247136 0 -0.001223)
(0.247136 -1.52311e-24 -0.0012462)
(0.247148 1.43245e-24 -0.0012247)
(0.246153 1.4354e-24 -0.00124078)
(0.24617 1.09988e-24 -0.0012227)
(0.246121 0 -0.00123952)
(0.246161 1.16109e-24 -0.00122335)
(0.247123 8.78313e-29 -0.0012451)
(0.247133 0 -0.00122708)
(0.247136 -1.07545e-24 -0.00124285)
(0.246097 -8.65112e-25 -0.00122389)
(0.246036 8.9028e-25 -0.00123703)
(0.246079 -9.69541e-25 -0.00122393)
(0.246025 9.70687e-25 -0.00123739)
(0.247132 0 -0.00123187)
(0.24711 0 -0.00124225)
(0.247125 0 -0.00122862)
(0.245962 0 -0.00123469)
(0.24601 0 -0.00122423)
(0.245961 6.27679e-29 -0.00123452)
(0.245999 -4.58294e-25 -0.00122667)
(0.247123 -6.74619e-25 -0.00124099)
(0.247126 -4.09675e-25 -0.00123312)
(0.247108 -6.18345e-25 -0.00124073)
(0.245935 8.00477e-25 -0.00122454)
(0.245868 0 -0.00123339)
(0.245927 0 -0.00122541)
(0.245862 0 -0.00123324)
(0.247117 0 -0.00123278)
(0.247118 0 -0.00123925)
(0.247111 0 -0.00123372)
(0.247113 -1.18267e-25 -0.00123616)
(0.245867 0 -0.00122614)
(0.245771 3.53835e-25 -0.00123089)
(0.245823 6.50237e-29 -0.00122646)
(0.245729 0 -0.00123021)
(0.247135 1.08857e-26 -0.00123525)
(0.247103 -2.03212e-25 -0.00123762)
(0.247134 0 -0.00123017)
(0.247133 1.02765e-24 -0.00124196)
(0.24566 7.68046e-25 -0.0012223)
(0.245618 8.27685e-29 -0.00122894)
(0.245624 -4.5859e-29 -0.00123004)
(0.245686 0 -0.00121412)
(0.245747 5.06742e-28 -0.00125085)
(0.245327 -6.07935e-25 -0.0012266)
(0.245542 1.12525e-29 -0.00122802)
(0.245192 0 -0.00122485)
(0.245746 0 -0.00123551)
(0.2468 0 -0.00119876)
(0.24776 -6.11634e-28 -0.00128931)
(0.242843 -5.78132e-23 -0.000558371)
(0.233128 -9.4016e-26 0.00186156)
(0.268383 1.13925e-20 -0.00971499)
(0.179183 -5.65649e-24 -0.0156295)
(0.133161 0 -0.000665806)
(0.160429 0 -0.000802144)
(0.163705 0 -0.000818524)
)
;

boundaryField
{
    inlet
    {
        type            calculated;
        value           uniform (0 0 0);
    }
    outlet
    {
        type            calculated;
        value           uniform (0 0 0);
    }
    sideWall
    {
        type            empty;
    }
}


// ************************************************************************* //
