/*--------------------------------*- C++ -*----------------------------------*\
| =========                 |                                                 |
| \\      /  F ield         | foam-extend: Open Source CFD                    |
|  \\    /   O peration     | Version:     3.2                                |
|   \\  /    A nd           | Web:         http://www.foam-extend.org         |
|    \\/     M anipulation  | For copyright notice see file Copyright         |
\*---------------------------------------------------------------------------*/
FoamFile
{
    version     2.0;
    format      ascii;
    class       areaScalarField;
    location    "2020";
    object      Uf;
}
// * * * * * * * * * * * * * * * * * * * * * * * * * * * * * * * * * * * * * //

dimensions      [0 1 -1 0 0 0 0];

internalField   nonuniform List<scalar> 
300
(
0.0302057
0.0333667
0.0306648
0.0281906
0.0266423
0.0259862
0.0257189
0.0256859
0.0257288
0.0258178
0.0259233
0.0260314
0.0261359
0.0262458
0.0263504
0.0264575
0.0265702
0.0266815
0.0267944
0.0269073
0.0270196
0.0271316
0.0272457
0.0273606
0.02747
0.0275697
0.0276588
0.027737
0.0278044
0.0278624
0.0279123
0.0279545
0.0279896
0.0280181
0.0280411
0.0280604
0.0280763
0.02809
0.0281012
0.0281111
0.0281191
0.0281264
0.0281321
0.0281375
0.0281414
0.0281456
0.0281482
0.0281517
0.0281527
0.0281574
0.0281535
0.0281658
0.0281444
0.0281919
0.0280967
0.0282949
0.0278753
0.0286603
0.0258884
0.0310744
0.0400775
0.0372937
0.0376316
0.0373955
0.0351568
0.0356139
0.0354249
0.0355529
0.035537
0.0355717
0.0355719
0.0355733
0.0355745
0.0355758
0.0355765
0.0355722
0.035569
0.035564
0.0355573
0.0355504
0.0355418
0.0355355
0.0355297
0.0355232
0.0355179
0.0355123
0.0355075
0.0355024
0.0354997
0.0354984
0.035496
0.0354947
0.0354928
0.0354919
0.0354906
0.0354893
0.0354894
0.0354906
0.0354908
0.0354903
0.0354914
0.0354894
0.0354913
0.0354879
0.0354912
0.0354862
0.0354911
0.0354879
0.035493
0.0354874
0.0354936
0.0354861
0.035494
0.0354844
0.0354942
0.0354821
0.0354943
0.0354831
0.0354965
0.0354821
0.0354975
0.0354804
0.0354979
0.0354781
0.0354988
0.0354755
0.0354996
0.0354761
0.0355022
0.0354749
0.0355036
0.0354729
0.0355044
0.0354707
0.0355048
0.0354684
0.0355049
0.0354662
0.0355083
0.0354659
0.0355098
0.0354645
0.0355104
0.0354628
0.0355106
0.035461
0.0355103
0.0354595
0.0355131
0.03546
0.035514
0.0354593
0.035514
0.0354583
0.0355136
0.0354572
0.0355131
0.035456
0.0355124
0.0354582
0.0355133
0.0354589
0.0355129
0.035459
0.035512
0.0354588
0.0355107
0.0354585
0.0355095
0.0354615
0.0355099
0.0354628
0.035509
0.0354634
0.0355076
0.0354638
0.035506
0.0354639
0.0355047
0.0354672
0.0355048
0.0354688
0.0355038
0.0354697
0.0355025
0.0354702
0.0355011
0.0354703
0.0354995
0.0354736
0.0354996
0.035475
0.0354988
0.0354754
0.0354975
0.0354759
0.0354961
0.0354759
0.0354947
0.0354787
0.035495
0.0354796
0.0354943
0.0354801
0.0354925
0.0354802
0.035491
0.0354803
0.0354922
0.0354821
0.0354918
0.035482
0.0354907
0.035482
0.0354901
0.0354816
0.0354893
0.0354839
0.0354898
0.0354839
0.035489
0.0354838
0.0354875
0.0354833
0.0354869
0.0354831
0.0354877
0.0354841
0.0354874
0.0354838
0.0354867
0.0354825
0.0354864
0.0354815
0.0354846
0.0354835
0.0354856
0.0354825
0.0354851
0.0354832
0.0354842
0.035481
0.0354837
0.0354829
0.0354848
0.0354837
0.0354846
0.0354827
0.0354843
0.0354816
0.0354832
0.035483
0.0354841
0.0354824
0.0354838
0.0354825
0.0354829
0.0354804
0.0354823
0.0354824
0.0354834
0.0354829
0.0354833
0.0354817
0.0354823
0.0354802
0.0354817
0.0354816
0.035482
0.0354817
0.0354814
0.0354813
0.0354807
0.0354809
0.0354826
0.0354821
0.0354827
0.0354822
0.0354831
0.0354798
0.0354832
0.0354827
0.035481
0.0354854
0.0354777
0.0354884
0.035486
0.035475
0.0354805
0.0354734
0.0354895
0.0354508
0.0355439
0.0350763
0.0364001
0.0388406
0.028034
0.0240879
0.0268126
0.02714
)
;

boundaryField
{
    inlet
    {
        type            calculated;
        value           uniform 0;
    }
    outlet
    {
        type            calculated;
        value           uniform 0;
    }
    sideWall
    {
        type            empty;
    }
}


// ************************************************************************* //
