/*--------------------------------*- C++ -*----------------------------------*\
| =========                 |                                                 |
| \\      /  F ield         | foam-extend: Open Source CFD                    |
|  \\    /   O peration     | Version:     3.2                                |
|   \\  /    A nd           | Web:         http://www.foam-extend.org         |
|    \\/     M anipulation  | For copyright notice see file Copyright         |
\*---------------------------------------------------------------------------*/
FoamFile
{
    version     2.0;
    format      ascii;
    class       areaScalarField;
    location    "2020";
    object      Uf2;
}
// * * * * * * * * * * * * * * * * * * * * * * * * * * * * * * * * * * * * * //

dimensions      [0 1 -1 0 0 0 0];

internalField   nonuniform List<scalar> 
300
(
0.0224416
0.0185486
0.0152302
0.0138377
0.0131411
0.012939
0.0128404
0.0128519
0.0128776
0.0129272
0.0129808
0.0130333
0.0130824
0.0131372
0.0131846
0.013236
0.0132915
0.013344
0.013398
0.0134514
0.0135046
0.0135586
0.0136166
0.013677
0.013734
0.0137855
0.0138317
0.0138722
0.0139072
0.0139375
0.0139636
0.0139858
0.014004
0.0140186
0.0140304
0.0140406
0.0140489
0.0140561
0.014062
0.0140673
0.0140715
0.0140755
0.0140783
0.0140814
0.0140832
0.0140857
0.0140868
0.0140891
0.014089
0.0140927
0.014088
0.0140999
0.0140776
0.0141253
0.0140281
0.0142289
0.0138021
0.01461
0.0118158
0.0175718
0.0231569
0.0183245
0.0194861
0.0189687
0.0170513
0.0179883
0.017683
0.0178186
0.0177528
0.0177735
0.0177569
0.0177536
0.0177524
0.0177541
0.017757
0.0177574
0.0177611
0.0177634
0.017765
0.0177668
0.0177668
0.0177689
0.0177701
0.0177703
0.0177708
0.0177705
0.0177703
0.0177693
0.0177703
0.0177711
0.0177705
0.0177708
0.0177701
0.0177703
0.0177697
0.0177693
0.0177699
0.017771
0.0177709
0.0177705
0.0177716
0.0177694
0.0177717
0.0177681
0.0177721
0.0177666
0.0177725
0.0177681
0.0177737
0.0177671
0.0177744
0.0177657
0.0177751
0.0177641
0.0177759
0.017762
0.0177768
0.017763
0.0177785
0.0177614
0.0177798
0.0177596
0.0177806
0.0177574
0.0177822
0.0177549
0.0177839
0.0177553
0.0177861
0.0177534
0.0177878
0.0177512
0.0177891
0.017749
0.0177903
0.0177469
0.0177912
0.017745
0.017795
0.0177438
0.0177964
0.0177422
0.0177975
0.0177404
0.0177982
0.0177389
0.0177986
0.0177376
0.0178017
0.0177373
0.0178023
0.0177364
0.0178025
0.0177355
0.0178025
0.0177347
0.0178024
0.0177338
0.0178023
0.0177361
0.0178024
0.0177363
0.0178018
0.0177365
0.0178009
0.0177366
0.0177998
0.0177367
0.0177988
0.0177397
0.0177982
0.0177407
0.0177969
0.0177415
0.0177954
0.0177422
0.0177939
0.0177428
0.0177926
0.0177461
0.0177917
0.0177474
0.0177902
0.0177484
0.0177886
0.0177492
0.0177871
0.0177497
0.0177857
0.0177532
0.0177848
0.0177543
0.0177835
0.0177548
0.0177821
0.0177556
0.0177806
0.0177561
0.0177795
0.0177591
0.0177788
0.0177597
0.0177778
0.0177603
0.017776
0.0177609
0.0177745
0.0177614
0.0177758
0.0177628
0.0177747
0.0177627
0.0177737
0.0177632
0.0177733
0.017763
0.0177726
0.0177651
0.0177722
0.0177651
0.0177716
0.0177654
0.0177703
0.0177652
0.0177699
0.0177652
0.0177706
0.0177661
0.0177703
0.0177657
0.0177695
0.0177649
0.0177696
0.0177641
0.0177688
0.0177666
0.0177687
0.0177653
0.0177685
0.017766
0.0177678
0.0177645
0.0177681
0.0177664
0.0177683
0.0177667
0.0177678
0.0177657
0.017768
0.0177654
0.0177674
0.0177664
0.0177674
0.0177657
0.0177677
0.0177661
0.0177669
0.0177644
0.0177669
0.0177663
0.0177672
0.0177667
0.0177672
0.0177655
0.0177665
0.0177644
0.0177663
0.0177658
0.0177663
0.0177661
0.017766
0.0177659
0.0177655
0.0177656
0.017767
0.017766
0.0177667
0.0177662
0.0177674
0.0177641
0.0177681
0.0177665
0.017765
0.0177692
0.0177611
0.0177733
0.0177681
0.017759
0.0177668
0.0177591
0.0177753
0.0177367
0.01783
0.0173875
0.0187384
0.0205091
0.00962972
0.00928126
0.013271
0.0132035
)
;

boundaryField
{
    inlet
    {
        type            calculated;
        value           uniform 0;
    }
    outlet
    {
        type            calculated;
        value           uniform 0;
    }
    sideWall
    {
        type            empty;
    }
}


// ************************************************************************* //
