/*--------------------------------*- C++ -*----------------------------------*\
| =========                 |                                                 |
| \\      /  F ield         | foam-extend: Open Source CFD                    |
|  \\    /   O peration     | Version:     3.2                                |
|   \\  /    A nd           | Web:         http://www.foam-extend.org         |
|    \\/     M anipulation  | For copyright notice see file Copyright         |
\*---------------------------------------------------------------------------*/
FoamFile
{
    version     2.0;
    format      ascii;
    class       areaVectorField;
    location    "2020";
    object      uNormal;
}
// * * * * * * * * * * * * * * * * * * * * * * * * * * * * * * * * * * * * * //

dimensions      [0 0 0 0 0 0 0];

internalField   nonuniform List<vector> 
300
(
(0.00499994 -0 0.999988)
(0.00499994 -0 0.999988)
(0.00499994 -0 0.999988)
(0.00499994 -0 0.999988)
(0.00499994 -4.23511e-19 0.999988)
(0.00499994 -4.23511e-19 0.999988)
(0.00499994 -4.23511e-19 0.999988)
(0.00499994 -4.23511e-19 0.999988)
(0.00499994 -0 0.999988)
(0.00499994 -4.23511e-19 0.999988)
(0.00499994 -0 0.999988)
(0.00499994 4.23511e-19 0.999988)
(0.00499994 -0 0.999988)
(0.00499994 4.23511e-19 0.999988)
(0.00499994 -0 0.999988)
(0.00499994 -0 0.999988)
(0.00499994 4.23511e-19 0.999988)
(0.00499994 -4.23511e-19 0.999988)
(0.00499994 4.23511e-19 0.999988)
(0.00499994 -0 0.999988)
(0.00499994 -0 0.999988)
(0.00499994 -4.23511e-19 0.999988)
(0.00499994 -0 0.999988)
(0.00499994 -0 0.999988)
(0.00499994 -0 0.999988)
(0.00499994 -4.23511e-19 0.999988)
(0.00499994 -0 0.999988)
(0.00499994 -0 0.999988)
(0.00499994 -0 0.999988)
(0.00499994 -4.23511e-19 0.999988)
(0.00499994 -0 0.999988)
(0.00499994 -0 0.999988)
(0.00499994 -0 0.999988)
(0.00499994 -0 0.999988)
(0.00499994 -0 0.999988)
(0.00499994 -0 0.999988)
(0.00499994 -0 0.999988)
(0.00499994 -0 0.999988)
(0.00499994 -0 0.999988)
(0.00499994 -0 0.999988)
(0.00499994 -0 0.999988)
(0.00499994 -4.23511e-19 0.999988)
(0.00499994 -0 0.999988)
(0.00499994 -4.23511e-19 0.999988)
(0.00499994 -0 0.999988)
(0.00499994 -0 0.999988)
(0.00499994 -4.23511e-19 0.999988)
(0.00499994 -0 0.999988)
(0.00499994 -4.23511e-19 0.999988)
(0.00499994 -0 0.999988)
(0.00499994 -0 0.999988)
(0.00499994 -4.23511e-19 0.999988)
(0.00499994 -0 0.999988)
(0.00499994 -4.23511e-19 0.999988)
(0.00499994 -0 0.999988)
(0.00499994 -0 0.999988)
(0.00499994 -4.23511e-19 0.999988)
(0.00499994 -0 0.999988)
(0.00499994 -0 0.999988)
(-0.0792417 -0 0.996855)
(-0.0259121 -0 0.999664)
(0.0161613 1.69384e-18 0.999869)
(-0.0149803 1.69388e-18 0.999888)
(0.021994 -0 0.999758)
(0.00170789 2.11758e-19 0.999999)
(0.00606167 -0 0.999982)
(0.00451316 -0 0.99999)
(0.00564639 4.2351e-19 0.999984)
(0.00553635 -0 0.999985)
(0.00580597 4.23509e-19 0.999983)
(0.00595114 -0 0.999982)
(0.0059423 -0 0.999982)
(0.00596386 -0 0.999982)
(0.00591194 -0 0.999983)
(0.00588738 4.23509e-19 0.999983)
(0.00581895 4.23509e-19 0.999983)
(0.00574114 -0 0.999984)
(0.00566334 -0 0.999984)
(0.00558661 -0 0.999984)
(0.00550622 -0 0.999985)
(0.00543473 -4.2351e-19 0.999985)
(0.00534854 -0 0.999986)
(0.0052954 -0 0.999986)
(0.00523858 -0 0.999986)
(0.00519859 -4.23511e-19 0.999986)
(0.00515739 -0 0.999987)
(0.0051227 -4.23511e-19 0.999987)
(0.00509711 -4.23511e-19 0.999987)
(0.00505303 -0 0.999987)
(0.0050457 -4.23511e-19 0.999987)
(0.00502989 -0 0.999987)
(0.00502248 4.23511e-19 0.999987)
(0.00501845 -0 0.999987)
(0.00500836 -0 0.999987)
(0.00501116 -0 0.999987)
(0.00500275 -4.23511e-19 0.999987)
(0.00499255 -0 0.999988)
(0.00499036 -0 0.999988)
(0.00499706 -0 0.999988)
(0.00499406 -4.23511e-19 0.999988)
(0.00499647 -4.23511e-19 0.999988)
(0.00500444 4.23511e-19 0.999987)
(0.00499316 4.23511e-19 0.999988)
(0.00501094 -0 0.999987)
(0.00498964 4.23511e-19 0.999988)
(0.00501597 -4.23511e-19 0.999987)
(0.00497094 4.23511e-19 0.999988)
(0.00501856 -0 0.999987)
(0.00497134 -4.23511e-19 0.999988)
(0.00502699 -0 0.999987)
(0.00496809 4.23511e-19 0.999988)
(0.00503696 -4.23511e-19 0.999987)
(0.00496168 -4.23511e-19 0.999988)
(0.00504865 -0 0.999987)
(0.00495297 -0 0.999988)
(0.00505952 4.23511e-19 0.999987)
(0.00492568 -0 0.999988)
(0.0050685 -0 0.999987)
(0.00491713 -0 0.999988)
(0.00508463 -4.23511e-19 0.999987)
(0.00490474 4.23511e-19 0.999988)
(0.00510431 -0 0.999987)
(0.00488968 -0 0.999988)
(0.00512206 -0 0.999987)
(0.00487188 4.23511e-19 0.999988)
(0.00514093 -4.23511e-19 0.999987)
(0.00483552 -0 0.999988)
(0.00515998 -0 0.999987)
(0.00481693 -4.23512e-19 0.999988)
(0.00518597 -0 0.999987)
(0.0047954 -0 0.999989)
(0.00521402 4.23511e-19 0.999986)
(0.00477083 -4.23512e-19 0.999989)
(0.00524289 -4.23511e-19 0.999986)
(0.00474407 -0 0.999989)
(0.00527278 -0 0.999986)
(0.00471387 -0 0.999989)
(0.00528836 4.23511e-19 0.999986)
(0.0046792 4.23512e-19 0.999989)
(0.00532342 4.2351e-19 0.999986)
(0.00464975 -0 0.999989)
(0.0053576 4.2351e-19 0.999986)
(0.00462105 -0 0.999989)
(0.00539036 -4.2351e-19 0.999985)
(0.00459275 4.23512e-19 0.999989)
(0.00542157 -0 0.999985)
(0.00456311 -0 0.99999)
(0.00543624 -0 0.999985)
(0.00453132 -0 0.99999)
(0.00546782 -0 0.999985)
(0.00450734 -0 0.99999)
(0.00549631 -4.2351e-19 0.999985)
(0.00448623 -0 0.99999)
(0.005521 4.2351e-19 0.999985)
(0.00446725 -4.23512e-19 0.99999)
(0.00554198 -0 0.999985)
(0.00445153 -0 0.99999)
(0.00555711 -0 0.999985)
(0.0044234 -0 0.99999)
(0.00556594 -0 0.999985)
(0.00441802 -0 0.99999)
(0.00557646 -0 0.999984)
(0.00441545 -4.23512e-19 0.99999)
(0.00558427 -0 0.999984)
(0.00441477 -0 0.99999)
(0.00558832 -0 0.999984)
(0.00441628 4.23512e-19 0.99999)
(0.00558739 -0 0.999984)
(0.00440498 -0 0.99999)
(0.00558055 -4.2351e-19 0.999984)
(0.00441488 -0 0.99999)
(0.00557687 -4.2351e-19 0.999984)
(0.00442629 -0 0.99999)
(0.00557092 -0 0.999984)
(0.00443906 -4.23512e-19 0.99999)
(0.00556169 -0 0.999985)
(0.00445325 -4.23512e-19 0.99999)
(0.00554756 -0 0.999985)
(0.00445468 -4.23512e-19 0.99999)
(0.00552921 -0 0.999985)
(0.00447563 -4.23512e-19 0.99999)
(0.00551417 -0 0.999985)
(0.00449692 4.23512e-19 0.99999)
(0.00549806 -0 0.999985)
(0.00451945 -0 0.99999)
(0.00547972 -4.2351e-19 0.999985)
(0.00454211 -0 0.99999)
(0.00545923 -0 0.999985)
(0.00454951 4.23512e-19 0.99999)
(0.00543443 4.2351e-19 0.999985)
(0.00457664 -0 0.99999)
(0.00541335 -0 0.999985)
(0.00460434 -0 0.999989)
(0.00539334 4.2351e-19 0.999985)
(0.0046278 -0 0.999989)
(0.00537281 -0 0.999986)
(0.00465183 4.23512e-19 0.999989)
(0.00534971 -4.2351e-19 0.999986)
(0.00466247 -0 0.999989)
(0.00532444 -0 0.999986)
(0.00468991 -0 0.999989)
(0.0053023 4.23511e-19 0.999986)
(0.00471502 -0 0.999989)
(0.0052857 -0 0.999986)
(0.00473762 -0 0.999989)
(0.00526589 -0 0.999986)
(0.00475939 -0 0.999989)
(0.00523346 -0 0.999986)
(0.004773 -0 0.999989)
(0.00522013 -0 0.999986)
(0.00479612 -4.23512e-19 0.999988)
(0.00520536 -0 0.999986)
(0.00481282 -0 0.999988)
(0.00518758 -0 0.999987)
(0.00483104 -0 0.999988)
(0.00517314 -0 0.999987)
(0.00483387 -0 0.999988)
(0.00515584 -0 0.999987)
(0.00485429 -4.23511e-19 0.999988)
(0.0051436 -0 0.999987)
(0.00486975 4.23511e-19 0.999988)
(0.00513482 -0 0.999987)
(0.00488552 -0 0.999988)
(0.00511978 -0 0.999987)
(0.00489595 -0 0.999988)
(0.00510274 -0 0.999987)
(0.00490137 -0 0.999988)
(0.00509418 -0 0.999987)
(0.00491568 -4.23511e-19 0.999988)
(0.00508891 -0 0.999987)
(0.004926 -4.23511e-19 0.999988)
(0.00508019 -4.23511e-19 0.999987)
(0.00493473 -0 0.999988)
(0.00507805 -4.23511e-19 0.999987)
(0.00492514 -0 0.999988)
(0.00506562 -0 0.999987)
(0.00494288 -0 0.999988)
(0.00506064 -0 0.999987)
(0.00494343 -0 0.999988)
(0.00505729 -0 0.999987)
(0.00495821 -4.23511e-19 0.999988)
(0.00505256 4.23511e-19 0.999987)
(0.00494861 -0 0.999988)
(0.0050425 4.23511e-19 0.999987)
(0.00495525 4.23511e-19 0.999988)
(0.00504061 -4.23511e-19 0.999987)
(0.00496684 4.23511e-19 0.999988)
(0.00503616 -0 0.999987)
(0.00496963 4.23511e-19 0.999988)
(0.00503833 -0 0.999987)
(0.0049652 -0 0.999988)
(0.00502894 4.23511e-19 0.999987)
(0.00497311 -4.23511e-19 0.999988)
(0.00502778 -4.23511e-19 0.999987)
(0.00497366 -4.23511e-19 0.999988)
(0.00502948 -4.23511e-19 0.999987)
(0.00498458 -0 0.999988)
(0.00502704 -0 0.999987)
(0.00497159 -0 0.999988)
(0.00501976 -0 0.999987)
(0.00497628 -0 0.999988)
(0.00501912 -0 0.999987)
(0.00498641 -4.23511e-19 0.999988)
(0.00502168 4.23511e-19 0.999987)
(0.00498978 -4.23511e-19 0.999988)
(0.00502094 4.23511e-19 0.999987)
(0.00497906 4.23511e-19 0.999988)
(0.00501641 -0 0.999987)
(0.00498274 -0 0.999988)
(0.00501593 -0 0.999987)
(0.00498859 -0 0.999988)
(0.00501475 -0 0.999987)
(0.00499251 -0 0.999988)
(0.00500234 4.23511e-19 0.999987)
(0.00498693 -0 0.999988)
(0.00500822 -4.23511e-19 0.999987)
(0.00498913 -0 0.999988)
(0.00500631 -0 0.999987)
(0.00499823 -4.23511e-19 0.999988)
(0.00500847 4.23511e-19 0.999987)
(0.00497767 -0 0.999988)
(0.00502542 -4.23511e-19 0.999987)
(0.00497553 4.23511e-19 0.999988)
(0.00500339 -0 0.999987)
(0.00500777 -0 0.999987)
(0.00494168 -0 0.999988)
(0.00508993 -0 0.999987)
(0.0049998 -4.23511e-19 0.999988)
(0.0050012 -0 0.999987)
(0.00499539 -0 0.999988)
(0.00502752 -0 0.999987)
(0.00485716 -0 0.999988)
(0.0052038 -0 0.999986)
(0.0022993 -2.11758e-19 0.999997)
(-0.00798489 -0 0.999968)
(0.0361746 -3.38591e-18 0.999345)
(0.0868968 -0 0.996217)
(0.00499994 -0 0.999988)
(0.00499994 -0 0.999988)
(0.00499994 -0 0.999988)
)
;

boundaryField
{
    inlet
    {
        type            calculated;
        value           uniform (0 0 0);
    }
    outlet
    {
        type            calculated;
        value           uniform (0 0 0);
    }
    sideWall
    {
        type            empty;
    }
}


// ************************************************************************* //
