/*--------------------------------*- C++ -*----------------------------------*\
| =========                 |                                                 |
| \\      /  F ield         | foam-extend: Open Source CFD                    |
|  \\    /   O peration     | Version:     3.2                                |
|   \\  /    A nd           | Web:         http://www.foam-extend.org         |
|    \\/     M anipulation  | For copyright notice see file Copyright         |
\*---------------------------------------------------------------------------*/
FoamFile
{
    version     2.0;
    format      ascii;
    class       areaVectorField;
    location    "2020";
    object      Utau;
}
// * * * * * * * * * * * * * * * * * * * * * * * * * * * * * * * * * * * * * //

dimensions      [0 1 -1 0 0 0 0];

internalField   nonuniform List<vector> 
300
(
(0.301998 0 -0.00150999)
(0.333637 0 -0.00166819)
(0.306639 0 -0.00153319)
(0.281902 0 -0.00140951)
(0.266419 4.49886e-23 -0.0013321)
(0.259858 -1.52441e-23 -0.00129929)
(0.257186 -3.45848e-23 -0.00128593)
(0.256856 -3.51061e-23 -0.00128428)
(0.257285 9.68877e-27 -0.00128642)
(0.258175 -3.15306e-23 -0.00129088)
(0.25923 4.68583e-27 -0.00129615)
(0.260311 2.34036e-23 -0.00130155)
(0.261356 0 -0.00130678)
(0.262455 2.10424e-23 -0.00131227)
(0.263501 1.70529e-27 -0.00131751)
(0.264571 -7.01157e-29 -0.00132286)
(0.265698 1.97015e-23 -0.00132849)
(0.266812 -1.89761e-23 -0.00133406)
(0.267941 1.84987e-23 -0.0013397)
(0.269069 0 -0.00134535)
(0.270193 0 -0.00135096)
(0.271312 -1.87231e-23 -0.00135656)
(0.272453 2.07556e-27 -0.00136227)
(0.273603 0 -0.00136802)
(0.274697 0 -0.00137348)
(0.275693 -1.6145e-23 -0.00137847)
(0.276584 0 -0.00138292)
(0.277366 0 -0.00138683)
(0.278041 0 -0.0013902)
(0.278621 -8.97577e-24 -0.0013931)
(0.279119 0 -0.0013956)
(0.279542 0 -0.00139771)
(0.279893 -9.8502e-28 -0.00139946)
(0.280178 0 -0.00140089)
(0.280408 0 -0.00140204)
(0.280601 0 -0.001403)
(0.28076 -5.34559e-28 -0.0014038)
(0.280896 0 -0.00140448)
(0.281009 0 -0.00140504)
(0.281108 0 -0.00140554)
(0.281188 -2.96597e-28 -0.00140594)
(0.281261 -9.81815e-25 -0.0014063)
(0.281317 0 -0.00140659)
(0.281372 -7.19061e-25 -0.00140686)
(0.28141 -1.60096e-28 -0.00140705)
(0.281452 0 -0.00140726)
(0.281479 -4.36726e-25 -0.00140739)
(0.281514 0 -0.00140757)
(0.281524 -3.44187e-25 -0.00140762)
(0.28157 0 -0.00140785)
(0.281532 0 -0.00140766)
(0.281655 -3.05144e-25 -0.00140827)
(0.281441 0 -0.0014072)
(0.281916 -6.02737e-25 -0.00140958)
(0.280963 0 -0.00140482)
(0.282946 0 -0.00141473)
(0.278749 1.6706e-23 -0.00139375)
(0.286599 0 -0.00143299)
(0.258878 -2.39731e-25 -0.00129439)
(0.30971 0 0.0246194)
(0.40063 -2.83983e-24 0.0103847)
(0.372877 -4.95364e-21 -0.00602697)
(0.376269 3.12824e-21 0.00563724)
(0.373856 0 -0.00822457)
(0.351566 1.36296e-22 -0.000600438)
(0.356132 0 -0.0021588)
(0.354246 -7.58296e-27 -0.00159878)
(0.355524 -4.311e-24 -0.00200746)
(0.355365 5.92937e-27 -0.00196745)
(0.355711 2.32393e-24 -0.00206528)
(0.355713 0 -0.00211693)
(0.355727 0 -0.00211387)
(0.355738 0 -0.00212161)
(0.355752 -2.97576e-27 -0.00210322)
(0.355759 3.23997e-24 -0.00209453)
(0.355716 3.65816e-24 -0.00206993)
(0.355684 0 -0.00204207)
(0.355634 0 -0.00201411)
(0.355567 4.07223e-28 -0.00198645)
(0.355499 0 -0.00195748)
(0.355413 -1.41959e-24 -0.0019316)
(0.35535 0 -0.00190063)
(0.355292 0 -0.00188144)
(0.355228 0 -0.00186091)
(0.355174 -1.43098e-25 -0.00184643)
(0.355119 -3.52972e-28 -0.00183151)
(0.355071 3.6209e-27 -0.00181895)
(0.355019 -4.21642e-25 -0.00180959)
(0.354993 0 -0.00179381)
(0.354979 2.36326e-25 -0.00179114)
(0.354955 0 -0.00178541)
(0.354943 -1.77777e-25 -0.00178271)
(0.354924 -1.62258e-28 -0.00178119)
(0.354915 0 -0.00177756)
(0.354901 -5.67733e-29 -0.00177849)
(0.354889 -8.3618e-26 -0.00177544)
(0.35489 -1.49604e-28 -0.00177183)
(0.354901 8.66233e-29 -0.00177111)
(0.354903 0 -0.00177349)
(0.354899 -9.63379e-26 -0.00177241)
(0.35491 1.90149e-25 -0.00177332)
(0.354889 -2.09929e-25 -0.00177604)
(0.354909 8.21036e-26 -0.00177214)
(0.354874 7.69835e-29 -0.00177828)
(0.354907 3.39825e-25 -0.00177088)
(0.354858 6.98657e-25 -0.00177998)
(0.354906 1.27564e-24 -0.00176424)
(0.354874 -1.13295e-28 -0.00178098)
(0.354925 -1.0097e-24 -0.00176448)
(0.354869 1.66724e-28 -0.00178395)
(0.354932 1.26021e-24 -0.00176336)
(0.354857 1.56657e-24 -0.00178742)
(0.354935 -1.61897e-24 -0.00176109)
(0.354839 -2.72202e-28 -0.00179148)
(0.354937 0 -0.00175802)
(0.354816 -2.61407e-24 -0.00179522)
(0.354938 0 -0.00174833)
(0.354826 0 -0.00179846)
(0.35496 0 -0.00174541)
(0.354816 3.91233e-24 -0.00180413)
(0.354971 4.18767e-24 -0.00174106)
(0.3548 0 -0.00181103)
(0.354974 5.47377e-28 -0.00173573)
(0.354776 0 -0.00181721)
(0.354984 5.76679e-24 -0.00172946)
(0.35475 6.49047e-24 -0.00182377)
(0.354992 0 -0.00171659)
(0.354757 0 -0.00183056)
(0.355018 -8.18852e-24 -0.00171012)
(0.354744 0 -0.00183972)
(0.355032 0 -0.00170254)
(0.354724 -1.01448e-23 -0.00184956)
(0.35504 -1.06285e-23 -0.00169385)
(0.354702 1.15154e-23 -0.00185969)
(0.355044 0 -0.00168437)
(0.354679 1.23575e-27 -0.00187017)
(0.355045 0 -0.00167366)
(0.354657 -1.37119e-23 -0.00187558)
(0.355079 1.48912e-23 -0.00166151)
(0.354654 -1.57532e-23 -0.001888)
(0.355094 -1.56318e-27 -0.00165112)
(0.35464 -1.74005e-23 -0.00190005)
(0.355101 0 -0.00164095)
(0.354623 1.90041e-23 -0.00191157)
(0.355102 1.95476e-23 -0.00163091)
(0.354605 0 -0.00192254)
(0.355099 0 -0.00162037)
(0.35459 0 -0.00192767)
(0.355127 0 -0.00160921)
(0.354595 2.04738e-27 -0.00193889)
(0.355136 0 -0.00160074)
(0.354588 2.45912e-23 -0.00194896)
(0.355136 0 -0.00159324)
(0.354578 -2.57895e-23 -0.00195765)
(0.355133 -2.60805e-23 -0.00158648)
(0.354567 0 -0.00196503)
(0.355127 2.33176e-27 -0.00158088)
(0.354554 0 -0.00197033)
(0.35512 0 -0.00157085)
(0.354577 2.37356e-27 -0.00197359)
(0.355129 0 -0.00156898)
(0.354583 -2.42018e-27 -0.00197735)
(0.355126 -2.89754e-23 -0.00156805)
(0.354584 0 -0.00198012)
(0.355116 0 -0.00156777)
(0.354583 0 -0.00198155)
(0.355104 2.91269e-23 -0.00156825)
(0.35458 0 -0.00198121)
(0.355092 0 -0.00156419)
(0.354609 2.91392e-23 -0.00197895)
(0.355095 0 -0.00156772)
(0.354622 2.88939e-23 -0.00197771)
(0.355086 0 -0.00157173)
(0.354629 0 -0.00197564)
(0.355072 -2.79033e-23 -0.0015762)
(0.354632 0 -0.00197239)
(0.355057 -2.72852e-23 -0.00158117)
(0.354634 0 -0.00196738)
(0.355043 -2.71795e-23 -0.00158162)
(0.354667 2.41031e-27 -0.00196106)
(0.355044 -2.58628e-23 -0.00158906)
(0.354682 0 -0.00195581)
(0.355035 2.4905e-23 -0.00159658)
(0.354692 -2.29164e-27 -0.00195015)
(0.355021 -2.19952e-27 -0.00160452)
(0.354696 2.35798e-23 -0.00194366)
(0.355007 0 -0.0016125)
(0.354697 0 -0.0019364)
(0.354992 2.24871e-23 -0.00161506)
(0.354731 -2.1463e-23 -0.00192779)
(0.354992 0 -0.00162469)
(0.354745 0 -0.00192038)
(0.354985 0 -0.00163449)
(0.354749 -1.92437e-23 -0.00191331)
(0.354972 0 -0.00164276)
(0.354753 0 -0.00190605)
(0.354957 1.74382e-23 -0.00165122)
(0.354754 1.69313e-23 -0.00189786)
(0.354943 0 -0.00165493)
(0.354782 0 -0.00188904)
(0.354946 0 -0.00166468)
(0.354791 -1.4775e-23 -0.00188124)
(0.354939 0 -0.00167357)
(0.354796 -1.39003e-27 -0.00187537)
(0.354921 0 -0.0016815)
(0.354797 0 -0.00186835)
(0.354906 0 -0.00168915)
(0.354798 0 -0.00185684)
(0.354918 -1.1298e-27 -0.00169404)
(0.354816 -1.12588e-27 -0.00185221)
(0.354914 -1.00401e-23 -0.00170223)
(0.354815 1.02871e-27 -0.00184697)
(0.354903 0 -0.0017081)
(0.354816 -9.14954e-28 -0.00184066)
(0.354897 0 -0.00171454)
(0.354812 0 -0.00183552)
(0.354889 0 -0.00171551)
(0.354834 0 -0.00182949)
(0.354894 -7.12253e-24 -0.00172278)
(0.354834 7.28146e-28 -0.00182515)
(0.354885 6.53032e-24 -0.00172822)
(0.354833 0 -0.00182203)
(0.354871 5.90151e-28 -0.00173375)
(0.354829 6.34286e-28 -0.00181667)
(0.354865 0 -0.00173742)
(0.354826 -5.44106e-28 -0.00181061)
(0.354873 0 -0.00173938)
(0.354837 0 -0.00180762)
(0.35487 -4.10359e-24 -0.00174445)
(0.354834 0 -0.00180574)
(0.354863 -3.75198e-24 -0.00174808)
(0.354821 3.69974e-24 -0.00180258)
(0.35486 0 -0.00175116)
(0.35481 3.50645e-24 -0.00180177)
(0.354842 0 -0.00174767)
(0.354831 0 -0.00179746)
(0.354851 0 -0.00175401)
(0.354821 3.04901e-28 -0.00179564)
(0.354847 0 -0.00175418)
(0.354827 -2.82608e-28 -0.00179449)
(0.354838 -2.20749e-24 -0.00175938)
(0.354805 -2.21865e-24 -0.0017927)
(0.354833 0 -0.00175595)
(0.354824 -2.1868e-24 -0.00178922)
(0.354844 2.05664e-24 -0.00175836)
(0.354832 2.06915e-24 -0.0017886)
(0.354841 1.58542e-24 -0.00176246)
(0.354823 0 -0.00178697)
(0.354838 1.6737e-24 -0.00176344)
(0.354812 1.26106e-28 -0.00178768)
(0.354828 0 -0.00176181)
(0.354825 -1.54408e-24 -0.00178442)
(0.354836 -1.24736e-24 -0.00176466)
(0.35482 1.28391e-24 -0.00178398)
(0.354834 -1.39803e-24 -0.00176485)
(0.35482 1.39994e-24 -0.00178458)
(0.354825 0 -0.00176868)
(0.3548 0 -0.00178362)
(0.354819 0 -0.00176404)
(0.35482 0 -0.00178114)
(0.354829 0 -0.00176575)
(0.354824 9.0549e-29 -0.00178093)
(0.354828 -6.61043e-25 -0.00176934)
(0.354813 -9.68601e-25 -0.00178178)
(0.354818 -5.88203e-25 -0.00177049)
(0.354798 -8.87821e-25 -0.00178144)
(0.354812 1.15486e-24 -0.00176665)
(0.354811 0 -0.0017799)
(0.354815 0 -0.00176798)
(0.354813 0 -0.00177974)
(0.35481 0 -0.00177002)
(0.354808 0 -0.0017793)
(0.354803 0 -0.00177138)
(0.354804 -1.69808e-25 -0.00177487)
(0.354822 0 -0.00176949)
(0.354817 5.10828e-25 -0.00177702)
(0.354822 9.38554e-29 -0.00177028)
(0.354817 0 -0.00177635)
(0.354827 1.56293e-26 -0.00177353)
(0.354794 -2.91775e-25 -0.001777)
(0.354828 0 -0.00176624)
(0.354823 1.47546e-24 -0.00178316)
(0.354806 1.10929e-24 -0.00176537)
(0.354849 1.19577e-28 -0.00177547)
(0.354772 -6.62375e-29 -0.00177664)
(0.35488 0 -0.00175373)
(0.354855 7.3173e-28 -0.00180621)
(0.354746 -8.79081e-25 -0.00177368)
(0.354801 1.62595e-29 -0.00177445)
(0.354729 0 -0.00177203)
(0.354891 0 -0.00178424)
(0.354504 0 -0.0017219)
(0.355434 -8.77446e-28 -0.00184963)
(0.350761 -8.35052e-23 -0.000806508)
(0.363986 -1.46789e-25 0.00290648)
(0.388121 1.64753e-20 -0.0140493)
(0.279167 -8.81283e-24 -0.0243509)
(0.240834 0 -0.00120417)
(0.268119 0 -0.00134059)
(0.271396 0 -0.00135698)
)
;

boundaryField
{
    inlet
    {
        type            calculated;
        value           uniform (0 0 0);
    }
    outlet
    {
        type            calculated;
        value           uniform (0 0 0);
    }
    sideWall
    {
        type            empty;
    }
}


// ************************************************************************* //
