/*--------------------------------*- C++ -*----------------------------------*\
| =========                 |                                                 |
| \\      /  F ield         | foam-extend: Open Source CFD                    |
|  \\    /   O peration     | Version:     3.2                                |
|   \\  /    A nd           | Web:         http://www.foam-extend.org         |
|    \\/     M anipulation  | For copyright notice see file Copyright         |
\*---------------------------------------------------------------------------*/
FoamFile
{
    version     2.0;
    format      ascii;
    class       areaVectorField;
    location    "2020";
    object      Wt;
}
// * * * * * * * * * * * * * * * * * * * * * * * * * * * * * * * * * * * * * //

dimensions      [1 1 -2 0 0 0 0];

internalField   nonuniform List<vector> 
300
(
(2.06482e-08 0 -1.03241e-10)
(2.06482e-08 0 -1.03241e-10)
(2.06482e-08 0 -1.03241e-10)
(2.06482e-08 0 -1.03241e-10)
(2.06482e-08 -1.74897e-24 -1.03241e-10)
(2.06482e-08 -1.74897e-24 -1.03241e-10)
(2.06482e-08 -1.74897e-24 -1.03241e-10)
(2.06482e-08 -1.74897e-24 -1.03241e-10)
(2.06482e-08 0 -1.03241e-10)
(2.06482e-08 -1.74897e-24 -1.03241e-10)
(2.06482e-08 0 -1.03241e-10)
(2.06482e-08 1.74897e-24 -1.03241e-10)
(2.06482e-08 0 -1.03241e-10)
(2.06482e-08 1.74897e-24 -1.03241e-10)
(2.06482e-08 0 -1.03241e-10)
(2.06482e-08 0 -1.03241e-10)
(2.06482e-08 1.74897e-24 -1.03241e-10)
(2.06482e-08 -1.74897e-24 -1.03241e-10)
(2.06482e-08 1.74897e-24 -1.03241e-10)
(2.06482e-08 0 -1.03241e-10)
(2.06482e-08 0 -1.03241e-10)
(2.06482e-08 -1.74897e-24 -1.03241e-10)
(2.06482e-08 0 -1.03241e-10)
(2.06482e-08 0 -1.03241e-10)
(2.06482e-08 0 -1.03241e-10)
(2.06482e-08 -1.74897e-24 -1.03241e-10)
(2.06482e-08 0 -1.03241e-10)
(2.06482e-08 0 -1.03241e-10)
(2.06482e-08 0 -1.03241e-10)
(2.06482e-08 -1.74897e-24 -1.03241e-10)
(2.06482e-08 0 -1.03241e-10)
(2.06482e-08 0 -1.03241e-10)
(2.06482e-08 0 -1.03241e-10)
(2.06482e-08 0 -1.03241e-10)
(2.06482e-08 0 -1.03241e-10)
(2.06482e-08 0 -1.03241e-10)
(2.06482e-08 0 -1.03241e-10)
(2.06482e-08 0 -1.03241e-10)
(2.06482e-08 0 -1.03241e-10)
(2.06482e-08 0 -1.03241e-10)
(2.06482e-08 0 -1.03241e-10)
(2.06482e-08 -1.74897e-24 -1.03241e-10)
(2.06482e-08 0 -1.03241e-10)
(2.06482e-08 -1.74897e-24 -1.03241e-10)
(2.06482e-08 0 -1.03241e-10)
(2.06482e-08 0 -1.03241e-10)
(2.06482e-08 -1.74897e-24 -1.03241e-10)
(2.06482e-08 0 -1.03241e-10)
(2.06482e-08 -1.74897e-24 -1.03241e-10)
(2.06482e-08 0 -1.03241e-10)
(2.06482e-08 0 -1.03241e-10)
(2.06482e-08 -1.74897e-24 -1.03241e-10)
(2.06482e-08 0 -1.03241e-10)
(2.06482e-08 -1.74897e-24 -1.03241e-10)
(2.06482e-08 0 -1.03241e-10)
(2.06482e-08 0 -1.03241e-10)
(2.06482e-08 -1.74897e-24 -1.03241e-10)
(2.06482e-08 0 -1.03241e-10)
(2.06482e-08 0 -1.03241e-10)
(-3.26219e-07 0 -2.59317e-08)
(-1.06975e-07 0 -2.77287e-09)
(6.67335e-08 6.99424e-24 -1.07864e-09)
(-6.18578e-08 6.9945e-24 -9.26749e-10)
(9.08077e-08 0 -1.99771e-09)
(7.05315e-09 8.74506e-25 -1.2046e-11)
(2.50327e-08 0 -1.51743e-10)
(1.8638e-08 0 -8.41172e-11)
(2.33178e-08 1.74896e-24 -1.31663e-10)
(2.28634e-08 0 -1.26582e-10)
(2.39768e-08 1.74896e-24 -1.39211e-10)
(2.45763e-08 0 -1.46259e-10)
(2.45398e-08 0 -1.45825e-10)
(2.46288e-08 0 -1.46885e-10)
(2.44144e-08 0 -1.44339e-10)
(2.4313e-08 1.74896e-24 -1.43142e-10)
(2.40304e-08 1.74896e-24 -1.39834e-10)
(2.37091e-08 0 -1.36119e-10)
(2.33878e-08 0 -1.32455e-10)
(2.3071e-08 0 -1.28891e-10)
(2.2739e-08 0 -1.25208e-10)
(2.24437e-08 -1.74897e-24 -1.21977e-10)
(2.20878e-08 0 -1.18139e-10)
(2.18684e-08 0 -1.15803e-10)
(2.16337e-08 0 -1.13331e-10)
(2.14686e-08 -1.74897e-24 -1.11608e-10)
(2.12984e-08 0 -1.09846e-10)
(2.11552e-08 -1.74897e-24 -1.08373e-10)
(2.10495e-08 -1.74897e-24 -1.07293e-10)
(2.08675e-08 0 -1.05445e-10)
(2.08372e-08 -1.74897e-24 -1.0514e-10)
(2.07719e-08 0 -1.04482e-10)
(2.07413e-08 1.74897e-24 -1.04174e-10)
(2.07247e-08 0 -1.04007e-10)
(2.0683e-08 0 -1.03589e-10)
(2.06946e-08 0 -1.03705e-10)
(2.06598e-08 -1.74897e-24 -1.03357e-10)
(2.06177e-08 0 -1.02936e-10)
(2.06087e-08 0 -1.02846e-10)
(2.06363e-08 0 -1.03122e-10)
(2.0624e-08 -1.74897e-24 -1.02999e-10)
(2.06339e-08 -1.74897e-24 -1.03098e-10)
(2.06668e-08 1.74897e-24 -1.03427e-10)
(2.06202e-08 1.74897e-24 -1.02961e-10)
(2.06936e-08 0 -1.03696e-10)
(2.06057e-08 1.74897e-24 -1.02816e-10)
(2.07145e-08 -1.74897e-24 -1.03904e-10)
(2.05285e-08 1.74897e-24 -1.02047e-10)
(2.07251e-08 0 -1.04012e-10)
(2.05301e-08 -1.74897e-24 -1.02064e-10)
(2.076e-08 0 -1.04362e-10)
(2.05167e-08 1.74897e-24 -1.0193e-10)
(2.08011e-08 -1.74897e-24 -1.04776e-10)
(2.04902e-08 -1.74897e-24 -1.01667e-10)
(2.08494e-08 0 -1.05262e-10)
(2.04543e-08 0 -1.01311e-10)
(2.08943e-08 1.74897e-24 -1.05716e-10)
(2.03416e-08 0 -1.00197e-10)
(2.09314e-08 0 -1.06092e-10)
(2.03062e-08 0 -9.98496e-11)
(2.0998e-08 -1.74897e-24 -1.06768e-10)
(2.02551e-08 1.74897e-24 -9.93473e-11)
(2.10792e-08 0 -1.07596e-10)
(2.01929e-08 0 -9.87379e-11)
(2.11525e-08 0 -1.08346e-10)
(2.01194e-08 1.74898e-24 -9.80206e-11)
(2.12305e-08 -1.74897e-24 -1.09146e-10)
(1.99692e-08 0 -9.65628e-11)
(2.13091e-08 0 -1.09956e-10)
(1.98925e-08 -1.74898e-24 -9.58219e-11)
(2.14165e-08 0 -1.11067e-10)
(1.98036e-08 0 -9.49673e-11)
(2.15323e-08 1.74897e-24 -1.12271e-10)
(1.97021e-08 -1.74898e-24 -9.39963e-11)
(2.16515e-08 -1.74897e-24 -1.13518e-10)
(1.95916e-08 0 -9.29448e-11)
(2.17749e-08 0 -1.14816e-10)
(1.94669e-08 0 -9.17653e-11)
(2.18393e-08 1.74897e-24 -1.15496e-10)
(1.93237e-08 1.74898e-24 -9.04205e-11)
(2.19841e-08 1.74897e-24 -1.17032e-10)
(1.92021e-08 0 -8.92859e-11)
(2.21252e-08 1.74897e-24 -1.1854e-10)
(1.90836e-08 0 -8.81871e-11)
(2.22605e-08 -1.74897e-24 -1.19994e-10)
(1.89667e-08 1.74898e-24 -8.71103e-11)
(2.23894e-08 0 -1.21387e-10)
(1.88443e-08 0 -8.59897e-11)
(2.245e-08 0 -1.22045e-10)
(1.8713e-08 0 -8.47957e-11)
(2.25804e-08 0 -1.23467e-10)
(1.8614e-08 0 -8.39006e-11)
(2.2698e-08 -1.74896e-24 -1.24757e-10)
(1.85268e-08 0 -8.31165e-11)
(2.28e-08 1.74896e-24 -1.25881e-10)
(1.84484e-08 -1.74898e-24 -8.24147e-11)
(2.28866e-08 0 -1.26839e-10)
(1.83835e-08 0 -8.18357e-11)
(2.29491e-08 0 -1.27533e-10)
(1.82674e-08 0 -8.08046e-11)
(2.29856e-08 0 -1.27939e-10)
(1.82451e-08 0 -8.06081e-11)
(2.3029e-08 0 -1.28422e-10)
(1.82345e-08 -1.74898e-24 -8.05143e-11)
(2.30613e-08 0 -1.28782e-10)
(1.82317e-08 0 -8.04895e-11)
(2.3078e-08 0 -1.28969e-10)
(1.8238e-08 1.74898e-24 -8.05447e-11)
(2.30742e-08 0 -1.28926e-10)
(1.81913e-08 0 -8.0133e-11)
(2.30459e-08 -1.74896e-24 -1.28611e-10)
(1.82322e-08 0 -8.04938e-11)
(2.30307e-08 -1.74896e-24 -1.28441e-10)
(1.82793e-08 0 -8.09102e-11)
(2.30061e-08 0 -1.28167e-10)
(1.8332e-08 -1.74898e-24 -8.13779e-11)
(2.2968e-08 0 -1.27743e-10)
(1.83906e-08 -1.74898e-24 -8.1899e-11)
(2.29097e-08 0 -1.27095e-10)
(1.83965e-08 -1.74898e-24 -8.19513e-11)
(2.28339e-08 0 -1.26255e-10)
(1.84831e-08 -1.74898e-24 -8.27243e-11)
(2.27718e-08 0 -1.25569e-10)
(1.8571e-08 1.74898e-24 -8.3513e-11)
(2.27053e-08 0 -1.24837e-10)
(1.8664e-08 0 -8.43519e-11)
(2.26295e-08 -1.74896e-24 -1.24005e-10)
(1.87576e-08 0 -8.51998e-11)
(2.25449e-08 0 -1.2308e-10)
(1.87882e-08 1.74898e-24 -8.54779e-11)
(2.24425e-08 1.74897e-24 -1.21964e-10)
(1.89002e-08 0 -8.65004e-11)
(2.23554e-08 0 -1.2102e-10)
(1.90146e-08 0 -8.75506e-11)
(2.22728e-08 1.74897e-24 -1.20127e-10)
(1.91115e-08 0 -8.8445e-11)
(2.2188e-08 0 -1.19214e-10)
(1.92107e-08 1.74898e-24 -8.93659e-11)
(2.20927e-08 -1.74897e-24 -1.18191e-10)
(1.92546e-08 0 -8.9775e-11)
(2.19883e-08 0 -1.17077e-10)
(1.93679e-08 0 -9.08348e-11)
(2.18969e-08 1.74897e-24 -1.16105e-10)
(1.94717e-08 0 -9.18103e-11)
(2.18283e-08 0 -1.15379e-10)
(1.9565e-08 0 -9.26924e-11)
(2.17465e-08 0 -1.14516e-10)
(1.96549e-08 0 -9.35461e-11)
(2.16126e-08 0 -1.1311e-10)
(1.97111e-08 0 -9.40821e-11)
(2.15575e-08 0 -1.12534e-10)
(1.98066e-08 -1.74898e-24 -9.49957e-11)
(2.14965e-08 0 -1.11899e-10)
(1.98755e-08 0 -9.56582e-11)
(2.14231e-08 0 -1.11136e-10)
(1.99508e-08 0 -9.63842e-11)
(2.13635e-08 0 -1.10518e-10)
(1.99624e-08 0 -9.64969e-11)
(2.12921e-08 0 -1.0978e-10)
(2.00468e-08 -1.74898e-24 -9.73141e-11)
(2.12415e-08 0 -1.09259e-10)
(2.01106e-08 1.74898e-24 -9.79347e-11)
(2.12052e-08 0 -1.08887e-10)
(2.01757e-08 0 -9.857e-11)
(2.11431e-08 0 -1.0825e-10)
(2.02188e-08 0 -9.89913e-11)
(2.10728e-08 0 -1.0753e-10)
(2.02412e-08 0 -9.92106e-11)
(2.10374e-08 0 -1.0717e-10)
(2.03003e-08 -1.74897e-24 -9.97911e-11)
(2.10157e-08 0 -1.06948e-10)
(2.03429e-08 -1.74897e-24 -1.0021e-10)
(2.09796e-08 -1.74897e-24 -1.06582e-10)
(2.0379e-08 0 -1.00566e-10)
(2.09708e-08 -1.74897e-24 -1.06492e-10)
(2.03394e-08 0 -1.00176e-10)
(2.09195e-08 0 -1.05971e-10)
(2.04126e-08 0 -1.00898e-10)
(2.08989e-08 0 -1.05763e-10)
(2.04149e-08 0 -1.00921e-10)
(2.08851e-08 0 -1.05623e-10)
(2.04759e-08 -1.74897e-24 -1.01525e-10)
(2.08655e-08 1.74897e-24 -1.05426e-10)
(2.04362e-08 0 -1.01132e-10)
(2.0824e-08 1.74897e-24 -1.05006e-10)
(2.04637e-08 1.74897e-24 -1.01404e-10)
(2.08162e-08 -1.74897e-24 -1.04928e-10)
(2.05115e-08 1.74897e-24 -1.01879e-10)
(2.07978e-08 0 -1.04743e-10)
(2.05231e-08 1.74897e-24 -1.01993e-10)
(2.08068e-08 0 -1.04833e-10)
(2.05048e-08 0 -1.01812e-10)
(2.0768e-08 1.74897e-24 -1.04442e-10)
(2.05375e-08 -1.74897e-24 -1.02136e-10)
(2.07632e-08 -1.74897e-24 -1.04394e-10)
(2.05397e-08 -1.74897e-24 -1.02159e-10)
(2.07702e-08 -1.74897e-24 -1.04465e-10)
(2.05848e-08 0 -1.02608e-10)
(2.07602e-08 0 -1.04364e-10)
(2.05312e-08 0 -1.02074e-10)
(2.07301e-08 0 -1.04062e-10)
(2.05505e-08 0 -1.02266e-10)
(2.07274e-08 0 -1.04035e-10)
(2.05924e-08 -1.74897e-24 -1.02683e-10)
(2.0738e-08 1.74897e-24 -1.04141e-10)
(2.06063e-08 -1.74897e-24 -1.02822e-10)
(2.07349e-08 1.74897e-24 -1.0411e-10)
(2.0562e-08 1.74897e-24 -1.02381e-10)
(2.07163e-08 0 -1.03923e-10)
(2.05772e-08 0 -1.02532e-10)
(2.07143e-08 0 -1.03903e-10)
(2.06014e-08 0 -1.02773e-10)
(2.07094e-08 0 -1.03854e-10)
(2.06175e-08 0 -1.02935e-10)
(2.06581e-08 1.74897e-24 -1.0334e-10)
(2.05945e-08 0 -1.02705e-10)
(2.06824e-08 -1.74897e-24 -1.03583e-10)
(2.06036e-08 0 -1.02795e-10)
(2.06745e-08 0 -1.03504e-10)
(2.06412e-08 -1.74897e-24 -1.03171e-10)
(2.06835e-08 1.74897e-24 -1.03594e-10)
(2.05563e-08 0 -1.02324e-10)
(2.07535e-08 -1.74897e-24 -1.04296e-10)
(2.05474e-08 1.74897e-24 -1.02236e-10)
(2.06625e-08 0 -1.03384e-10)
(2.06806e-08 0 -1.03565e-10)
(2.04077e-08 0 -1.0085e-10)
(2.10199e-08 0 -1.06991e-10)
(2.06477e-08 -1.74897e-24 -1.03235e-10)
(2.06534e-08 0 -1.03293e-10)
(2.06294e-08 0 -1.03053e-10)
(2.07621e-08 0 -1.04383e-10)
(2.00586e-08 0 -9.74291e-11)
(2.14901e-08 0 -1.11832e-10)
(9.49551e-09 -8.74504e-25 -2.18331e-11)
(-3.29745e-08 0 -2.63306e-10)
(1.49294e-07 -1.39738e-23 -5.40419e-09)
(3.57505e-07 0 -3.1184e-08)
(2.06482e-08 0 -1.03241e-10)
(2.06482e-08 0 -1.03241e-10)
(2.06482e-08 0 -1.03241e-10)
)
;

boundaryField
{
    inlet
    {
        type            calculated;
        value           uniform (0 0 0);
    }
    outlet
    {
        type            calculated;
        value           uniform (0 0 0);
    }
    sideWall
    {
        type            empty;
    }
}


// ************************************************************************* //
