/*--------------------------------*- C++ -*----------------------------------*\
| =========                 |                                                 |
| \\      /  F ield         | foam-extend: Open Source CFD                    |
|  \\    /   O peration     | Version:     3.2                                |
|   \\  /    A nd           | Web:         http://www.foam-extend.org         |
|    \\/     M anipulation  | For copyright notice see file Copyright         |
\*---------------------------------------------------------------------------*/
FoamFile
{
    version     2.0;
    format      ascii;
    class       areaScalarField;
    location    "2020";
    object      zCo;
}
// * * * * * * * * * * * * * * * * * * * * * * * * * * * * * * * * * * * * * //

dimensions      [0 1 0 0 0 0 0];

internalField   nonuniform List<scalar> 
300
(
-0.000125
-0.000375
-0.000625
-0.000875
-0.001125
-0.001375
-0.001625
-0.001875
-0.002125
-0.002375
-0.002625
-0.002875
-0.003125
-0.003375
-0.003625
-0.003875
-0.004125
-0.004375
-0.004625
-0.004875
-0.005125
-0.005375
-0.005625
-0.005875
-0.006125
-0.006375
-0.006625
-0.006875
-0.007125
-0.007375
-0.007625
-0.007875
-0.008125
-0.008375
-0.008625
-0.008875
-0.009125
-0.009375
-0.009625
-0.009875
-0.010125
-0.010375
-0.010625
-0.010875
-0.011125
-0.011375
-0.011625
-0.011875
-0.012125
-0.012375
-0.012625
-0.012875
-0.013125
-0.013375
-0.013625
-0.013875
-0.014125
-0.014375
-0.014625
-0.0127627
-0.0101274
-0.00988346
-0.009913
-0.0100884
-0.0106811
-0.0108754
-0.0111397
-0.0113937
-0.0116733
-0.0119569
-0.0122508
-0.0125481
-0.0128458
-0.0131427
-0.0134377
-0.0137303
-0.0140193
-0.0143045
-0.0145857
-0.014863
-0.0151366
-0.0154062
-0.0156723
-0.0159356
-0.0161965
-0.0164554
-0.0167125
-0.016968
-0.0172217
-0.0174742
-0.0177261
-0.0179774
-0.0182284
-0.0184791
-0.0187296
-0.0189799
-0.0192298
-0.0194794
-0.0197291
-0.0199789
-0.0202286
-0.0204787
-0.0207286
-0.0209787
-0.0212287
-0.0214789
-0.0217285
-0.0219783
-0.022228
-0.022478
-0.0227279
-0.022978
-0.023228
-0.0234782
-0.0237283
-0.0239786
-0.0242282
-0.0244781
-0.0247277
-0.0249778
-0.0252275
-0.0254777
-0.0257276
-0.0259779
-0.0262277
-0.0264781
-0.0267275
-0.0269774
-0.0272268
-0.0274769
-0.0277264
-0.0279766
-0.0282263
-0.0284766
-0.0287263
-0.0289767
-0.0292264
-0.0294764
-0.0297256
-0.0299757
-0.030225
-0.0304752
-0.0307247
-0.030975
-0.0312246
-0.0314749
-0.0317245
-0.0319745
-0.0322237
-0.0324737
-0.0327231
-0.0329732
-0.0332227
-0.0334729
-0.0337226
-0.0339729
-0.0342227
-0.0344729
-0.0347225
-0.0349722
-0.0352218
-0.0354717
-0.0357215
-0.0359715
-0.0362214
-0.0364715
-0.0367216
-0.0369717
-0.0372215
-0.0374712
-0.0377211
-0.0379709
-0.038221
-0.0384709
-0.0387211
-0.0389712
-0.0392215
-0.0394716
-0.0397216
-0.0399712
-0.0402213
-0.0404711
-0.0407214
-0.0409712
-0.0412217
-0.0414717
-0.0417222
-0.0419723
-0.0422225
-0.0424721
-0.0427224
-0.0429721
-0.0432226
-0.0434725
-0.043723
-0.0439731
-0.0442237
-0.0444737
-0.044724
-0.0449737
-0.0452241
-0.0454739
-0.0457243
-0.0459743
-0.0462249
-0.046475
-0.0467256
-0.0469755
-0.0472256
-0.0474755
-0.0477259
-0.0479759
-0.0482264
-0.0484764
-0.0487269
-0.048977
-0.0492271
-0.0494769
-0.0497271
-0.0499771
-0.0502274
-0.0504775
-0.0507281
-0.0509782
-0.0512286
-0.0514786
-0.0517287
-0.0519786
-0.0522288
-0.0524789
-0.0527293
-0.0529795
-0.0532298
-0.0534802
-0.0537302
-0.05398
-0.0542302
-0.0544803
-0.0547304
-0.0549804
-0.0552308
-0.0554811
-0.0557311
-0.0559809
-0.0562309
-0.0564808
-0.056731
-0.056981
-0.0572312
-0.0574814
-0.0577315
-0.0579813
-0.0582314
-0.0584814
-0.0587315
-0.0589815
-0.0592319
-0.0594822
-0.0597322
-0.0599819
-0.0602318
-0.0604817
-0.0607319
-0.0609821
-0.0612324
-0.0614826
-0.0617326
-0.0619825
-0.0622325
-0.0624825
-0.0627326
-0.0629827
-0.0632329
-0.0634827
-0.0637325
-0.0639824
-0.0642323
-0.0644822
-0.0647323
-0.0649825
-0.0652321
-0.0654822
-0.0657322
-0.0659817
-0.066232
-0.0664807
-0.0667315
-0.0669838
-0.0672338
-0.0674837
-0.0677343
-0.0679814
-0.0682329
-0.0684205
-0.0682784
-0.0689837
-0.0720693
-0.074375
-0.074625
-0.074875
)
;

boundaryField
{
    inlet
    {
        type            calculated;
        value           uniform 0;
    }
    outlet
    {
        type            calculated;
        value           uniform 0;
    }
    sideWall
    {
        type            empty;
    }
}


// ************************************************************************* //
