/*--------------------------------*- C++ -*----------------------------------*\
| =========                 |                                                 |
| \\      /  F ield         | foam-extend: Open Source CFD                    |
|  \\    /   O peration     | Version:     3.2                                |
|   \\  /    A nd           | Web:         http://www.foam-extend.org         |
|    \\/     M anipulation  | For copyright notice see file Copyright         |
\*---------------------------------------------------------------------------*/
FoamFile
{
    version     2.0;
    format      ascii;
    class       volScalarField;
    location    "2020";
    object      zDim;
}
// * * * * * * * * * * * * * * * * * * * * * * * * * * * * * * * * * * * * * //

dimensions      [0 1 0 0 0 0 0];

internalField   nonuniform List<scalar> 
2400
(
0.004
0.004
0.004
0.004
0.004
0.004
0.004
0.004
0.004
0.004
0.004
0.004
0.004
0.004
0.004
0.004
0.004
0.004
0.004
0.004
0.004
0.004
0.004
0.004
0.004
0.004
0.004
0.004
0.004
0.004
0.004
0.004
0.004
0.004
0.004
0.004
0.004
0.004
0.004
0.004
0.004
0.004
0.004
0.004
0.004
0.004
0.004
0.004
0.004
0.004
0.004
0.004
0.004
0.004
0.004
0.004
0.00399998
0.00400021
0.00399734
0.00770637
0.00502245
0.00453458
0.00447421
0.00482508
0.00383248
0.00404007
0.00396543
0.00402097
0.00401603
0.00402943
0.00403685
0.00403658
0.00403776
0.00403532
0.00403419
0.0040309
0.00402711
0.00402332
0.00401956
0.00401562
0.0040121
0.00400785
0.00400522
0.00400242
0.00400045
0.00399841
0.00399669
0.00399543
0.00399324
0.00399287
0.00399209
0.00399172
0.00399152
0.00399102
0.00399115
0.00399074
0.00399023
0.00399012
0.00399045
0.0039903
0.00399042
0.00399081
0.00399026
0.00399113
0.00399009
0.00399138
0.00398916
0.0039915
0.00398918
0.00399192
0.00398902
0.00399241
0.00398871
0.00399299
0.00398828
0.00399353
0.00398693
0.00399396
0.00398651
0.00399476
0.0039859
0.00399573
0.00398516
0.00399661
0.00398428
0.00399753
0.00398249
0.00399846
0.00398157
0.00399975
0.00398051
0.00400113
0.0039793
0.00400255
0.00397799
0.00400402
0.0039765
0.00400478
0.00397478
0.00400651
0.00397334
0.00400819
0.00397192
0.00400981
0.00397053
0.00401134
0.00396907
0.00401206
0.0039675
0.00401361
0.00396632
0.00401501
0.00396528
0.00401623
0.00396435
0.00401726
0.00396358
0.00401801
0.00396219
0.00401843
0.00396193
0.00401895
0.0039618
0.00401934
0.00396177
0.00401954
0.00396185
0.00401949
0.00396129
0.00401915
0.00396177
0.00401897
0.00396234
0.00401868
0.00396297
0.00401823
0.00396367
0.00401753
0.00396374
0.00401662
0.00396477
0.00401588
0.00396582
0.00401509
0.00396693
0.00401419
0.00396805
0.00401318
0.00396841
0.00401196
0.00396974
0.00401092
0.00397111
0.00400994
0.00397227
0.00400893
0.00397345
0.0040078
0.00397397
0.00400655
0.00397533
0.00400546
0.00397656
0.00400465
0.00397768
0.00400367
0.00397875
0.00400207
0.00397942
0.00400142
0.00398056
0.0040007
0.00398138
0.00399982
0.00398228
0.00399911
0.00398242
0.00399826
0.00398342
0.00399766
0.00398419
0.00399723
0.00398497
0.00399649
0.00398548
0.00399565
0.00398574
0.00399523
0.00398645
0.00399497
0.00398696
0.00399455
0.00398739
0.00399444
0.00398691
0.00399382
0.00398779
0.00399358
0.00398782
0.00399342
0.00398855
0.00399319
0.00398807
0.00399269
0.0039884
0.0039926
0.00398897
0.00399238
0.00398911
0.00399249
0.00398889
0.00399202
0.00398928
0.00399197
0.0039893
0.00399205
0.00398985
0.00399194
0.0039892
0.00399157
0.00398943
0.00399154
0.00398993
0.00399167
0.0039901
0.00399164
0.00398958
0.00399141
0.00398975
0.00399138
0.00399004
0.00399133
0.00399024
0.00399072
0.00398996
0.00399101
0.00399007
0.00399091
0.00399051
0.00399102
0.0039895
0.00399186
0.00398941
0.00399077
0.00399099
0.00398771
0.00399504
0.00399063
0.00399067
0.00399038
0.00399197
0.00398353
0.00400063
0.00385613
0.00412617
0.00553683
0.00809616
0.00403435
0.0039973
0.00400021
0.004
0.004
0.004
0.004
0.004
0.004
0.004
0.004
0.004
0.004
0.004
0.004
0.004
0.004
0.004
0.004
0.004
0.004
0.004
0.004
0.004
0.004
0.004
0.004
0.004
0.004
0.004
0.004
0.004
0.004
0.004
0.004
0.004
0.004
0.004
0.004
0.004
0.004
0.004
0.004
0.004
0.004
0.004
0.004
0.004
0.004
0.004
0.004
0.004
0.004
0.004
0.004
0.004
0.004
0.004
0.00400002
0.00399974
0.00400323
0.00395938
0.00758565
0.00492145
0.00441382
0.00434249
0.00469783
0.00376213
0.00395015
0.0038815
0.00393445
0.003931
0.00394465
0.00395289
0.00395366
0.00395575
0.00395432
0.00395408
0.00395169
0.00394872
0.00394566
0.00394257
0.00393921
0.00393619
0.00393239
0.00393009
0.00392759
0.00392584
0.003924
0.00392244
0.00392128
0.00391922
0.00391888
0.00391815
0.00391781
0.00391762
0.00391715
0.00391729
0.00391689
0.00391638
0.00391626
0.00391658
0.00391643
0.00391655
0.00391693
0.0039164
0.00391724
0.00391624
0.00391747
0.00391534
0.00391757
0.00391535
0.00391797
0.0039152
0.00391844
0.00391491
0.003919
0.00391451
0.00391952
0.00391321
0.00391991
0.0039128
0.00392067
0.00391222
0.0039216
0.00391152
0.00392244
0.00391069
0.00392332
0.00390895
0.00392418
0.00390807
0.0039254
0.00390706
0.00392672
0.00390591
0.00392808
0.00390466
0.00392948
0.00390323
0.00393019
0.00390158
0.00393182
0.00390019
0.00393342
0.00389884
0.00393496
0.00389751
0.00393642
0.00389612
0.00393708
0.0038946
0.00393855
0.00389347
0.00393988
0.00389248
0.00394104
0.00389159
0.00394203
0.00389086
0.00394273
0.00388951
0.00394311
0.00388925
0.0039436
0.00388913
0.00394397
0.00388911
0.00394417
0.00388919
0.00394413
0.00388864
0.00394378
0.0038891
0.00394361
0.00388964
0.00394334
0.00389025
0.00394291
0.00389093
0.00394225
0.00389098
0.00394137
0.00389196
0.00394067
0.00389297
0.00393993
0.00389404
0.00393908
0.00389512
0.00393813
0.00389545
0.00393695
0.00389673
0.00393597
0.00389804
0.00393504
0.00389915
0.0039341
0.0039003
0.00393302
0.00390079
0.00393182
0.00390208
0.0039308
0.00390327
0.00393004
0.00390435
0.00392912
0.00390538
0.0039276
0.00390601
0.00392698
0.00390711
0.0039263
0.0039079
0.00392547
0.00390877
0.00392481
0.00390889
0.00392398
0.00390986
0.00392342
0.00391059
0.00392303
0.00391135
0.00392234
0.00391185
0.00392153
0.00391209
0.00392113
0.00391278
0.0039209
0.00391327
0.00392051
0.0039137
0.00392043
0.00391324
0.00391982
0.00391408
0.0039196
0.0039141
0.00391945
0.00391482
0.00391925
0.00391436
0.00391875
0.00391467
0.00391867
0.00391522
0.00391846
0.00391535
0.00391858
0.00391516
0.00391814
0.00391552
0.00391807
0.00391553
0.00391816
0.00391608
0.00391808
0.00391546
0.00391771
0.00391567
0.00391768
0.00391614
0.0039178
0.00391632
0.00391781
0.00391585
0.00391759
0.00391599
0.00391752
0.00391623
0.00391747
0.00391646
0.00391694
0.00391623
0.00391722
0.00391628
0.00391703
0.00391665
0.00391715
0.00391574
0.00391806
0.00391574
0.00391698
0.00391715
0.00391396
0.00392105
0.00391689
0.00391689
0.00391661
0.00391812
0.00391001
0.00392598
0.00377941
0.00401524
0.00543537
0.00798016
0.00408435
0.00399299
0.00400057
0.004
0.004
0.004
0.004
0.004
0.004
0.004
0.004
0.004
0.004
0.004
0.004
0.004
0.004
0.004
0.004
0.004
0.004
0.004
0.004
0.004
0.004
0.004
0.004
0.004
0.004
0.004
0.004
0.004
0.004
0.004
0.004
0.004
0.004
0.004
0.004
0.004
0.004
0.004
0.004
0.004
0.004
0.004
0.004
0.004
0.004
0.004
0.004
0.004
0.004
0.004
0.004
0.004
0.004
0.004
0.00400005
0.00399935
0.00400769
0.00390804
0.00733527
0.00472039
0.00420018
0.00410076
0.00446519
0.00362003
0.00378257
0.00372217
0.00377105
0.00376967
0.00378373
0.00379328
0.00379584
0.00379956
0.00379997
0.00380136
0.00380065
0.00379923
0.00379757
0.00379573
0.0037935
0.00379143
0.00378851
0.00378686
0.00378495
0.00378365
0.00378221
0.00378097
0.00378004
0.00377821
0.00377795
0.00377733
0.00377705
0.0037769
0.00377648
0.00377662
0.00377625
0.00377577
0.00377564
0.00377592
0.00377578
0.00377588
0.00377624
0.00377575
0.00377653
0.00377561
0.00377674
0.00377476
0.0037768
0.00377476
0.00377717
0.00377463
0.00377761
0.00377436
0.00377814
0.00377401
0.00377861
0.00377279
0.00377895
0.0037724
0.00377964
0.00377187
0.0037805
0.00377123
0.00378128
0.00377047
0.00378209
0.00376885
0.00378285
0.00376802
0.00378395
0.00376708
0.00378516
0.00376602
0.00378641
0.00376487
0.00378771
0.00376356
0.00378833
0.003762
0.00378981
0.00376071
0.00379127
0.00375946
0.00379268
0.00375824
0.00379402
0.00375695
0.0037946
0.00375551
0.00379592
0.00375445
0.00379713
0.00375354
0.00379819
0.00375272
0.0037991
0.00375206
0.00379975
0.00375079
0.00380006
0.00375053
0.0038005
0.00375042
0.00380084
0.0037504
0.00380102
0.00375048
0.00380099
0.00374996
0.00380064
0.00375037
0.00380048
0.00375087
0.00380023
0.00375144
0.00379986
0.00375208
0.00379926
0.00375212
0.00379843
0.00375301
0.00379779
0.00375395
0.00379712
0.00375495
0.00379636
0.00375596
0.0037955
0.00375626
0.0037944
0.00375744
0.0037935
0.00375866
0.00379268
0.0037597
0.00379183
0.00376078
0.00379086
0.00376123
0.00378975
0.00376242
0.00378881
0.00376353
0.00378814
0.00376455
0.00378733
0.00376552
0.00378593
0.00376608
0.00378536
0.00376712
0.00378476
0.00376786
0.00378402
0.00376868
0.00378343
0.00376879
0.00378266
0.00376968
0.00378216
0.00377038
0.00378182
0.0037711
0.0037812
0.00377157
0.00378047
0.00377179
0.0037801
0.00377243
0.00377991
0.00377291
0.00377956
0.00377332
0.00377952
0.0037729
0.00377894
0.00377368
0.00377876
0.0037737
0.00377862
0.00377439
0.00377846
0.00377396
0.00377799
0.00377424
0.00377793
0.00377476
0.00377773
0.00377487
0.00377786
0.00377472
0.00377746
0.00377505
0.00377738
0.00377504
0.00377747
0.00377559
0.00377744
0.00377502
0.00377708
0.00377521
0.00377704
0.00377563
0.00377714
0.00377579
0.0037772
0.00377543
0.00377703
0.00377554
0.0037769
0.00377569
0.00377683
0.00377592
0.00377641
0.0037758
0.00377672
0.00377582
0.00377641
0.00377601
0.00377648
0.0037752
0.00377747
0.00377542
0.0037765
0.00377657
0.00377352
0.00378017
0.00377641
0.0037764
0.00377612
0.00377751
0.00376995
0.00378424
0.00363687
0.00381379
0.00523518
0.00773809
0.00413496
0.0039885
0.00400093
0.004
0.004
0.004
0.004
0.004
0.004
0.004
0.004
0.004
0.004
0.004
0.004
0.004
0.004
0.004
0.004
0.004
0.004
0.004
0.004
0.004
0.004
0.004
0.004
0.004
0.004
0.004
0.004
0.004
0.004
0.004
0.004
0.004
0.004
0.004
0.004
0.004
0.004
0.004
0.004
0.004
0.004
0.004
0.004
0.004
0.004
0.004
0.004
0.004
0.004
0.004
0.004
0.004
0.004
0.00399999
0.00400009
0.00399896
0.00401209
0.00385859
0.00692789
0.00441003
0.00391536
0.00376676
0.00414473
0.00342044
0.00355457
0.00350381
0.00354711
0.00354794
0.00356229
0.00357321
0.003578
0.00358374
0.0035865
0.00359
0.00359148
0.00359212
0.00359235
0.00359221
0.00359152
0.00359078
0.00358909
0.00358836
0.00358727
0.00358661
0.00358573
0.00358493
0.00358434
0.00358287
0.00358274
0.00358227
0.00358207
0.00358198
0.00358164
0.00358178
0.00358146
0.00358102
0.00358088
0.00358112
0.00358098
0.00358106
0.00358138
0.00358095
0.00358164
0.00358084
0.00358183
0.00358006
0.00358185
0.00358005
0.00358216
0.00357992
0.00358256
0.0035797
0.00358304
0.00357941
0.00358347
0.00357832
0.00358373
0.00357796
0.00358433
0.00357748
0.00358509
0.00357693
0.00358578
0.00357627
0.00358649
0.00357481
0.00358712
0.00357405
0.00358807
0.00357321
0.00358913
0.00357227
0.00359023
0.00357127
0.00359138
0.00357011
0.00359189
0.00356869
0.00359316
0.00356753
0.00359442
0.00356642
0.00359565
0.00356534
0.00359684
0.0035642
0.00359731
0.00356288
0.00359843
0.00356192
0.00359948
0.0035611
0.0036004
0.00356038
0.0036012
0.00355981
0.00360176
0.00355866
0.003602
0.00355841
0.00360236
0.00355829
0.00360265
0.00355828
0.00360283
0.00355837
0.0036028
0.00355788
0.00360246
0.00355823
0.00360231
0.00355867
0.0036021
0.00355918
0.00360179
0.00355977
0.00360128
0.00355979
0.00360052
0.00356057
0.00359995
0.0035614
0.00359938
0.0035623
0.00359874
0.00356322
0.003598
0.00356348
0.00359702
0.00356452
0.00359624
0.00356561
0.00359554
0.00356655
0.00359482
0.00356754
0.003594
0.00356794
0.00359302
0.00356899
0.00359221
0.00356999
0.00359165
0.00357092
0.00359097
0.0035718
0.00358974
0.00357229
0.00358925
0.00357322
0.00358875
0.0035739
0.00358812
0.00357465
0.00358763
0.00357475
0.00358694
0.00357553
0.00358651
0.00357617
0.00358625
0.00357684
0.00358573
0.00357727
0.00358509
0.00357747
0.00358478
0.00357805
0.00358464
0.00357849
0.00358435
0.00357888
0.00358435
0.00357852
0.00358383
0.00357922
0.00358369
0.00357924
0.00358357
0.00357988
0.00358347
0.0035795
0.00358302
0.00357973
0.00358299
0.00358021
0.00358281
0.00358029
0.00358294
0.0035802
0.00358262
0.0035805
0.00358253
0.00358045
0.0035826
0.00358097
0.00358262
0.0035805
0.00358229
0.00358065
0.00358227
0.00358101
0.00358231
0.00358112
0.00358242
0.00358092
0.00358234
0.00358103
0.00358216
0.00358104
0.00358203
0.00358124
0.00358172
0.00358127
0.00358212
0.0035813
0.00358168
0.00358125
0.00358163
0.00358051
0.00358266
0.00358102
0.00358194
0.00358187
0.00357904
0.00358499
0.00358182
0.00358178
0.00358155
0.00358273
0.003576
0.0035882
0.00344551
0.0035368
0.00492669
0.00734296
0.00417184
0.00398525
0.00400119
0.004
0.004
0.004
0.004
0.004
0.004
0.004
0.004
0.004
0.004
0.004
0.004
0.004
0.004
0.004
0.004
0.004
0.004
0.004
0.004
0.004
0.004
0.004
0.004
0.004
0.004
0.004
0.004
0.004
0.004
0.004
0.004
0.004
0.004
0.004
0.004
0.004
0.004
0.004
0.004
0.004
0.004
0.004
0.004
0.004
0.004
0.004
0.004
0.004
0.004
0.004
0.004
0.004
0.004
0.00399999
0.00400011
0.00399869
0.00401507
0.00382514
0.00634305
0.00399304
0.00358251
0.003364
0.00375943
0.00318217
0.00328655
0.00324633
0.00328255
0.00328544
0.00329962
0.00331163
0.00331868
0.00332651
0.00333179
0.00333754
0.00334144
0.0033444
0.00334676
0.00334856
0.00334966
0.00335047
0.00335023
0.00335059
0.00335048
0.00335059
0.00335038
0.00335013
0.00334995
0.00334894
0.00334897
0.00334868
0.00334859
0.00334858
0.00334833
0.00334848
0.00334823
0.00334784
0.0033477
0.00334788
0.00334776
0.00334781
0.00334808
0.00334772
0.0033483
0.00334764
0.00334846
0.00334697
0.00334844
0.00334693
0.00334868
0.00334682
0.00334901
0.00334665
0.00334942
0.00334643
0.0033498
0.0033455
0.00334998
0.00334518
0.00335046
0.00334477
0.00335109
0.00334432
0.00335167
0.00334379
0.00335227
0.00334255
0.00335274
0.00334188
0.0033535
0.00334116
0.00335436
0.00334038
0.00335528
0.00333955
0.00335624
0.00333859
0.00335663
0.00333736
0.00335764
0.00333636
0.00335866
0.00333542
0.00335967
0.00333452
0.00336065
0.00333357
0.003361
0.00333242
0.00336188
0.00333159
0.00336272
0.00333089
0.00336347
0.00333029
0.00336413
0.00332982
0.0033646
0.00332884
0.00336474
0.00332859
0.00336501
0.00332848
0.00336525
0.00332847
0.0033654
0.00332856
0.00336538
0.00332814
0.00336506
0.0033284
0.00336492
0.00332876
0.00336476
0.0033292
0.00336451
0.00332971
0.00336411
0.00332973
0.00336347
0.00333036
0.00336299
0.00333105
0.00336252
0.00333182
0.00336202
0.00333262
0.00336145
0.00333284
0.00336062
0.00333369
0.00335998
0.00333462
0.00335942
0.00333543
0.00335887
0.00333629
0.00335823
0.00333663
0.00335741
0.00333751
0.00335675
0.00333836
0.00335632
0.00333917
0.0033558
0.00333995
0.0033548
0.00334035
0.0033544
0.00334114
0.00335402
0.00334173
0.00335352
0.00334239
0.00335315
0.00334248
0.00335257
0.00334313
0.00335223
0.00334369
0.00335205
0.00334429
0.00335166
0.00334467
0.00335115
0.00334483
0.00335089
0.00334533
0.0033508
0.00334573
0.00335059
0.00334608
0.00335064
0.00334581
0.0033502
0.00334639
0.0033501
0.00334642
0.00335001
0.00334697
0.00334997
0.00334667
0.00334957
0.00334684
0.00334956
0.00334727
0.00334941
0.00334731
0.00334952
0.00334728
0.0033493
0.00334755
0.00334922
0.00334747
0.00334925
0.00334793
0.00334933
0.00334757
0.00334905
0.0033477
0.00334906
0.003348
0.00334903
0.00334802
0.00334914
0.00334797
0.0033492
0.00334813
0.00334902
0.00334801
0.00334879
0.00334811
0.00334855
0.00334827
0.00334908
0.00334841
0.00334861
0.00334811
0.00334837
0.00334734
0.00334928
0.00334814
0.00334893
0.00334875
0.00334627
0.00335123
0.0033488
0.0033487
0.00334859
0.00334946
0.00334388
0.00335361
0.00322405
0.00320283
0.00451203
0.00677429
0.00418347
0.00398427
0.00400125
0.004
0.004
0.004
0.004
0.004
0.004
0.004
0.004
0.004
0.004
0.004
0.004
0.004
0.004
0.004
0.004
0.004
0.004
0.004
0.004
0.004
0.004
0.004
0.004
0.004
0.004
0.004
0.004
0.004
0.004
0.004
0.004
0.004
0.004
0.004
0.004
0.004
0.004
0.004
0.004
0.004
0.004
0.004
0.004
0.004
0.004
0.004
0.004
0.004
0.004
0.004
0.004
0.004
0.004
0.00399999
0.00400012
0.00399864
0.00401565
0.00381851
0.00556638
0.00348256
0.00322179
0.00291682
0.00333324
0.00292474
0.00299842
0.00296949
0.00299719
0.00300178
0.00301518
0.00302772
0.00303678
0.00304643
0.0030541
0.00306197
0.00306826
0.00307353
0.00307805
0.00308185
0.00308481
0.00308723
0.00308857
0.00309008
0.00309103
0.00309195
0.00309248
0.00309283
0.00309311
0.00309263
0.00309284
0.00309277
0.0030928
0.00309287
0.00309273
0.00309288
0.00309271
0.0030924
0.00309226
0.00309238
0.00309227
0.00309229
0.00309249
0.00309222
0.00309266
0.00309217
0.0030928
0.00309165
0.00309273
0.00309158
0.00309289
0.00309149
0.00309315
0.00309136
0.00309348
0.00309122
0.00309378
0.00309052
0.00309388
0.00309023
0.00309422
0.00308991
0.00309469
0.00308958
0.00309514
0.00308919
0.00309561
0.00308823
0.0030959
0.00308767
0.00309644
0.0030871
0.00309707
0.0030865
0.00309776
0.00308587
0.0030985
0.00308515
0.00309877
0.00308417
0.00309947
0.00308337
0.0031002
0.00308263
0.00310094
0.00308194
0.00310168
0.00308122
0.00310191
0.00308029
0.00310251
0.00307961
0.0031031
0.00307906
0.00310365
0.0030786
0.00310415
0.00307825
0.0031045
0.00307748
0.00310455
0.00307724
0.00310472
0.00307713
0.00310488
0.00307713
0.003105
0.00307721
0.003105
0.00307688
0.00310471
0.00307704
0.00310459
0.00307731
0.00310447
0.00307765
0.00310431
0.00307807
0.00310403
0.00307809
0.00310352
0.00307854
0.00310315
0.00307906
0.00310281
0.00307968
0.00310247
0.00308033
0.00310208
0.0030805
0.00310144
0.00308114
0.00310096
0.00308186
0.00310058
0.00308251
0.0031002
0.00308321
0.00309977
0.00308349
0.00309915
0.00308416
0.00309866
0.00308482
0.00309838
0.00308548
0.00309805
0.00308612
0.00309732
0.00308642
0.00309702
0.00308704
0.00309677
0.00308753
0.00309642
0.00308806
0.0030962
0.00308816
0.00309575
0.00308864
0.00309551
0.00308909
0.00309542
0.00308959
0.00309517
0.00308992
0.0030948
0.00309004
0.00309462
0.00309044
0.00309459
0.00309079
0.00309446
0.00309109
0.00309455
0.00309091
0.00309421
0.00309135
0.00309416
0.00309139
0.0030941
0.00309184
0.00309412
0.00309163
0.0030938
0.00309173
0.0030938
0.0030921
0.00309371
0.0030921
0.00309377
0.0030921
0.00309365
0.00309235
0.0030936
0.00309226
0.0030936
0.00309263
0.00309371
0.00309238
0.00309348
0.00309248
0.00309354
0.00309275
0.00309349
0.00309268
0.00309353
0.0030927
0.00309369
0.00309295
0.00309361
0.00309278
0.00309331
0.00309272
0.00309304
0.00309291
0.00309365
0.00309325
0.00309333
0.00309282
0.00309291
0.00309195
0.00309348
0.00309282
0.00309353
0.00309333
0.00309135
0.00309507
0.0030935
0.00309331
0.00309338
0.00309386
0.0030897
0.00309668
0.00298959
0.00283048
0.00400385
0.00601746
0.00416188
0.00398617
0.00400108
0.004
0.004
0.004
0.004
0.004
0.004
0.004
0.004
0.004
0.004
0.004
0.004
0.004
0.004
0.004
0.004
0.004
0.004
0.004
0.004
0.004
0.004
0.004
0.004
0.004
0.004
0.004
0.004
0.004
0.004
0.004
0.004
0.004
0.004
0.004
0.004
0.004
0.004
0.004
0.004
0.004
0.004
0.004
0.004
0.004
0.004
0.004
0.004
0.004
0.004
0.004
0.004
0.004
0.004
0.00399999
0.0040001
0.00399885
0.00401327
0.00384586
0.00458974
0.00289854
0.00284845
0.00249189
0.00288793
0.00266519
0.00270707
0.00269013
0.00270806
0.00271395
0.00272587
0.00273828
0.00274889
0.00275992
0.00276963
0.00277929
0.00278772
0.00279513
0.00280168
0.00280735
0.0028121
0.00281611
0.00281902
0.00282168
0.00282369
0.00282542
0.00282669
0.00282766
0.00282841
0.0028285
0.0028289
0.00282905
0.00282921
0.00282936
0.00282935
0.00282949
0.00282942
0.00282922
0.00282909
0.00282912
0.00282903
0.00282903
0.00282915
0.00282898
0.00282926
0.00282896
0.00282937
0.00282861
0.00282926
0.00282851
0.00282933
0.00282844
0.00282949
0.00282837
0.00282973
0.00282832
0.00282996
0.00282787
0.00282996
0.00282764
0.00283014
0.00282741
0.00283044
0.00282721
0.00283073
0.00282698
0.00283104
0.00282635
0.00283116
0.00282593
0.00283144
0.00282553
0.00283181
0.00282514
0.00283224
0.00282475
0.00283272
0.00282431
0.00283285
0.00282361
0.00283321
0.00282304
0.00283362
0.00282254
0.00283407
0.0028221
0.00283452
0.00282164
0.00283462
0.00282097
0.00283491
0.00282048
0.00283523
0.00282009
0.00283555
0.00281979
0.00283586
0.00281958
0.00283608
0.00281907
0.00283603
0.00281885
0.00283608
0.00281874
0.00283616
0.00281874
0.00283625
0.00281881
0.00283627
0.00281859
0.00283603
0.00281864
0.00283592
0.0028188
0.00283585
0.00281904
0.00283578
0.00281934
0.00283565
0.00281936
0.00283529
0.00281961
0.00283504
0.00281994
0.00283485
0.00282036
0.00283468
0.00282083
0.0028345
0.00282097
0.00283408
0.00282135
0.00283378
0.00282183
0.00283358
0.00282229
0.00283341
0.0028228
0.0028332
0.00282301
0.00283281
0.00282343
0.00283253
0.00282387
0.0028324
0.00282436
0.00283226
0.00282484
0.00283185
0.00282502
0.00283166
0.00282544
0.00283156
0.0028258
0.00283139
0.00282618
0.00283131
0.00282627
0.00283102
0.00282658
0.00283089
0.00282689
0.00283088
0.00282728
0.0028308
0.00282754
0.0028306
0.00282762
0.00283048
0.00282789
0.00283051
0.00282816
0.00283049
0.0028284
0.00283061
0.00282833
0.00283039
0.00282861
0.00283039
0.00282866
0.00283037
0.00282898
0.00283045
0.00282889
0.00283021
0.00282891
0.00283022
0.00282918
0.0028302
0.00282918
0.00283023
0.00282919
0.00283017
0.00282939
0.00283019
0.00282933
0.00283016
0.00282957
0.00283028
0.00282945
0.00283012
0.0028295
0.00283019
0.00282973
0.00283019
0.00282963
0.00283014
0.00282965
0.00283032
0.00282994
0.00283039
0.00282985
0.00283012
0.00282965
0.00282978
0.00282971
0.0028303
0.00283019
0.00283029
0.00282988
0.00282982
0.00282896
0.00282987
0.00282957
0.00283019
0.00283009
0.00282877
0.00283108
0.00283039
0.00283015
0.00283036
0.00283048
0.00282789
0.00283196
0.00275577
0.00254495
0.00342186
0.00506371
0.0041031
0.00399123
0.00400065
0.004
0.004
0.004
0.004
0.004
0.004
0.004
0.004
0.004
0.004
0.004
0.004
0.004
0.004
0.004
0.004
0.004
0.004
0.004
0.004
0.004
0.004
0.004
0.004
0.004
0.004
0.004
0.004
0.004
0.004
0.004
0.004
0.004
0.004
0.004
0.004
0.004
0.004
0.004
0.004
0.004
0.004
0.004
0.004
0.004
0.004
0.004
0.004
0.004
0.004
0.004
0.004
0.004
0.004
0.00399999
0.00400006
0.00399933
0.00400772
0.00391028
0.00366028
0.00251383
0.00247275
0.0022675
0.00244136
0.00241644
0.00242515
0.00242092
0.00242804
0.00243485
0.00244465
0.00245626
0.0024679
0.00247978
0.0024911
0.00250212
0.00251233
0.00252159
0.00252991
0.00253727
0.00254364
0.00254911
0.00255352
0.00255725
0.00256027
0.00256278
0.00256478
0.00256634
0.00256756
0.00256825
0.00256882
0.00256921
0.0025695
0.00256973
0.00256984
0.00256998
0.00257001
0.00256992
0.0025698
0.00256976
0.00256969
0.00256965
0.0025697
0.00256963
0.00256974
0.00256964
0.00256981
0.00256949
0.00256967
0.00256937
0.00256964
0.00256932
0.0025697
0.00256931
0.00256982
0.00256935
0.00256996
0.00256918
0.00256987
0.00256902
0.00256988
0.00256891
0.00256998
0.00256885
0.0025701
0.0025688
0.00257024
0.00256854
0.00257016
0.00256827
0.00257017
0.00256807
0.00257026
0.00256791
0.0025704
0.00256778
0.00257058
0.00256765
0.00257058
0.00256728
0.00257057
0.00256698
0.00257063
0.00256675
0.00257074
0.00256657
0.00257089
0.00256641
0.00257085
0.00256604
0.00257081
0.00256576
0.00257082
0.00256557
0.00257089
0.00256544
0.00257099
0.00256538
0.00257108
0.00256516
0.00257093
0.00256497
0.00257085
0.00256487
0.00257085
0.00256487
0.00257089
0.00256493
0.00257093
0.00256483
0.00257076
0.00256477
0.00257066
0.0025648
0.00257064
0.00256492
0.00257067
0.00256509
0.00257069
0.00256511
0.00257051
0.00256515
0.00257041
0.00256527
0.00257037
0.00256547
0.00257038
0.00256572
0.00257042
0.00256581
0.00257025
0.00256592
0.00257015
0.00256612
0.00257015
0.00256636
0.00257019
0.00256665
0.00257024
0.00256678
0.0025701
0.00256694
0.00257003
0.00256713
0.00257007
0.0025674
0.00257014
0.0025677
0.00257008
0.00256776
0.00257001
0.00256794
0.00257006
0.00256816
0.00257008
0.00256837
0.00257015
0.00256846
0.00257005
0.00256856
0.00257003
0.00256871
0.00257011
0.00256896
0.0025702
0.00256915
0.00257019
0.00256918
0.00257015
0.0025693
0.00257023
0.00256949
0.00257032
0.00256966
0.00257047
0.0025697
0.00257038
0.0025698
0.00257043
0.00256986
0.00257045
0.00257003
0.00257058
0.00257006
0.00257047
0.00257
0.00257045
0.00257014
0.00257052
0.00257018
0.00257054
0.00257018
0.00257052
0.00257029
0.00257059
0.0025703
0.00257057
0.00257041
0.00257069
0.0025704
0.0025706
0.00257038
0.00257064
0.00257055
0.00257074
0.00257052
0.00257065
0.00257047
0.00257074
0.00257071
0.00257095
0.00257078
0.00257081
0.00257055
0.00257045
0.00257037
0.00257068
0.00257084
0.002571
0.00257084
0.00257069
0.00257008
0.00257021
0.00257015
0.00257052
0.00257066
0.00257007
0.00257092
0.00257105
0.00257093
0.00257107
0.00257108
0.00256988
0.00257122
0.00253204
0.00239103
0.00278896
0.00390948
0.0040077
0.00399935
0.004
)
;

boundaryField
{
    inlet
    {
        type            calculated;
        value           uniform 0;
    }
    outlet
    {
        type            calculated;
        value           uniform 0;
    }
    sideWall
    {
        type            empty;
    }
    bed
    {
        type            calculated;
        value           uniform 0;
    }
    topWall
    {
        type            calculated;
        value           uniform 0;
    }
}


// ************************************************************************* //
