/*--------------------------------*- C++ -*----------------------------------*\
| =========                 |                                                 |
| \\      /  F ield         | foam-extend: Open Source CFD                    |
|  \\    /   O peration     | Version:     3.2                                |
|   \\  /    A nd           | Web:         http://www.foam-extend.org         |
|    \\/     M anipulation  | For copyright notice see file Copyright         |
\*---------------------------------------------------------------------------*/
FoamFile
{
    version     2.0;
    format      ascii;
    class       areaScalarField;
    location    "2020";
    object      zDimA;
}
// * * * * * * * * * * * * * * * * * * * * * * * * * * * * * * * * * * * * * //

dimensions      [0 1 0 0 0 0 0];

internalField   nonuniform List<scalar> 
300
(
0.004
0.004
0.004
0.004
0.004
0.004
0.004
0.004
0.004
0.004
0.004
0.004
0.004
0.004
0.004
0.004
0.004
0.004
0.004
0.004
0.004
0.004
0.004
0.004
0.004
0.004
0.004
0.004
0.004
0.004
0.004
0.004
0.004
0.004
0.004
0.004
0.004
0.004
0.004
0.004
0.004
0.004
0.004
0.004
0.004
0.004
0.004
0.004
0.004
0.004
0.004
0.004
0.004
0.004
0.004
0.004
0.00399998
0.00400021
0.00399734
0.00770637
0.00502245
0.00453458
0.00447421
0.00482508
0.00383248
0.00404007
0.00396543
0.00402097
0.00401603
0.00402943
0.00403685
0.00403658
0.00403776
0.00403532
0.00403419
0.0040309
0.00402711
0.00402332
0.00401956
0.00401562
0.0040121
0.00400785
0.00400522
0.00400242
0.00400045
0.00399841
0.00399669
0.00399543
0.00399324
0.00399287
0.00399209
0.00399172
0.00399152
0.00399102
0.00399115
0.00399074
0.00399023
0.00399012
0.00399045
0.0039903
0.00399042
0.00399081
0.00399026
0.00399113
0.00399009
0.00399138
0.00398916
0.0039915
0.00398918
0.00399192
0.00398902
0.00399241
0.00398871
0.00399299
0.00398828
0.00399353
0.00398693
0.00399396
0.00398651
0.00399476
0.0039859
0.00399573
0.00398516
0.00399661
0.00398428
0.00399753
0.00398249
0.00399846
0.00398157
0.00399975
0.00398051
0.00400113
0.0039793
0.00400255
0.00397799
0.00400402
0.0039765
0.00400478
0.00397478
0.00400651
0.00397334
0.00400819
0.00397192
0.00400981
0.00397053
0.00401134
0.00396907
0.00401206
0.0039675
0.00401361
0.00396632
0.00401501
0.00396528
0.00401623
0.00396435
0.00401726
0.00396358
0.00401801
0.00396219
0.00401843
0.00396193
0.00401895
0.0039618
0.00401934
0.00396177
0.00401954
0.00396185
0.00401949
0.00396129
0.00401915
0.00396177
0.00401897
0.00396234
0.00401868
0.00396297
0.00401823
0.00396367
0.00401753
0.00396374
0.00401662
0.00396477
0.00401588
0.00396582
0.00401509
0.00396693
0.00401419
0.00396805
0.00401318
0.00396841
0.00401196
0.00396974
0.00401092
0.00397111
0.00400994
0.00397227
0.00400893
0.00397345
0.0040078
0.00397397
0.00400655
0.00397533
0.00400546
0.00397656
0.00400465
0.00397768
0.00400367
0.00397875
0.00400207
0.00397942
0.00400142
0.00398056
0.0040007
0.00398138
0.00399982
0.00398228
0.00399911
0.00398242
0.00399826
0.00398342
0.00399766
0.00398419
0.00399723
0.00398497
0.00399649
0.00398548
0.00399565
0.00398574
0.00399523
0.00398645
0.00399497
0.00398696
0.00399455
0.00398739
0.00399444
0.00398691
0.00399382
0.00398779
0.00399358
0.00398782
0.00399342
0.00398855
0.00399319
0.00398807
0.00399269
0.0039884
0.0039926
0.00398897
0.00399238
0.00398911
0.00399249
0.00398889
0.00399202
0.00398928
0.00399197
0.0039893
0.00399205
0.00398985
0.00399194
0.0039892
0.00399157
0.00398943
0.00399154
0.00398993
0.00399167
0.0039901
0.00399164
0.00398958
0.00399141
0.00398975
0.00399138
0.00399004
0.00399133
0.00399024
0.00399072
0.00398996
0.00399101
0.00399007
0.00399091
0.00399051
0.00399102
0.0039895
0.00399186
0.00398941
0.00399077
0.00399099
0.00398771
0.00399504
0.00399063
0.00399067
0.00399038
0.00399197
0.00398353
0.00400063
0.00385613
0.00412617
0.00553683
0.00809616
0.00403435
0.0039973
0.00400021
)
;

boundaryField
{
    inlet
    {
        type            calculated;
        value           uniform 0;
    }
    outlet
    {
        type            calculated;
        value           uniform 0;
    }
    sideWall
    {
        type            empty;
    }
}


// ************************************************************************* //
