/*--------------------------------*- C++ -*----------------------------------*\
| =========                 |                                                 |
| \\      /  F ield         | foam-extend: Open Source CFD                    |
|  \\    /   O peration     | Version:     3.2                                |
|   \\  /    A nd           | Web:         http://www.foam-extend.org         |
|    \\/     M anipulation  | For copyright notice see file Copyright         |
\*---------------------------------------------------------------------------*/
FoamFile
{
    version     2.0;
    format      ascii;
    class       areaScalarField;
    location    "2000";
    object      a;
}
// * * * * * * * * * * * * * * * * * * * * * * * * * * * * * * * * * * * * * //

dimensions      [1 -1 0 0 0 0 0];

internalField   nonuniform List<scalar> 
300
(
0.000207762
0.000207762
0.000207762
0.000207762
0.000207762
0.000207762
0.000207762
0.000207762
0.000207762
0.000207762
0.000207762
0.000207762
0.000207762
0.000207762
0.000207762
0.000207762
0.000207762
0.000207762
0.000207762
0.000207762
0.000207762
0.000207762
0.000207762
0.000207762
0.000207762
0.000207762
0.000207762
0.000207762
0.000207762
0.000207762
0.000207762
0.000207762
0.000207762
0.000207762
0.000207762
0.000207762
0.000207762
0.000207762
0.000207762
0.000207762
0.000207762
0.000207762
0.000207762
0.000207762
0.000207762
0.000207762
0.000207762
0.000207762
0.000207762
0.000207762
0.000207762
0.000207762
0.000207762
0.000207762
0.000207762
0.000207762
0.000207762
0.000207762
0.000207762
0.000207398
0.000207127
0.000207208
0.000207529
0.000207557
0.000207598
0.000207622
0.000207644
0.000207667
0.000207685
0.000207762
0.000207762
0.000207762
0.000207762
0.000207762
0.000207762
0.000207762
0.000207762
0.000207762
0.000207762
0.000207762
0.000207762
0.000207762
0.000207762
0.000207762
0.000207762
0.000207762
0.000207762
0.000207762
0.000207762
0.000207762
0.000207762
0.000207762
0.000207762
0.000207762
0.000207762
0.000207759
0.000207759
0.000207762
0.000207762
0.000207762
0.00020776
0.000207761
0.000207759
0.000207762
0.000207762
0.000207762
0.00020776
0.000207761
0.00020776
0.000207762
0.000207762
0.000207762
0.000207762
0.00020776
0.000207761
0.000207758
0.000207762
0.000207762
0.000207762
0.000207762
0.000207757
0.000207762
0.000207755
0.000207762
0.000207762
0.000207762
0.000207759
0.000207762
0.000207762
0.000207755
0.000207762
0.000207738
0.000207762
0.000207762
0.000207747
0.00020776
0.000207762
0.000207762
0.000207762
0.000207762
0.000207762
0.000207762
0.000207762
0.000207762
0.000207762
0.000207762
0.000207762
0.000207762
0.000207762
0.000207762
0.000207762
0.000207762
0.000207762
0.000207762
0.000207762
0.000207762
0.000207762
0.000207762
0.000207762
0.000207762
0.000207762
0.000207762
0.000207762
0.000207762
0.000207762
0.000207762
0.000207762
0.000207762
0.000207762
0.000207762
0.000207762
0.000207762
0.000207762
0.000207762
0.000207762
0.000207762
0.000207762
0.000207762
0.000207762
0.000207762
0.000207762
0.000207762
0.000207762
0.000207762
0.000207762
0.000207762
0.000207762
0.000207762
0.000207762
0.000207762
0.000207762
0.000207762
0.000207762
0.000207762
0.000207762
0.000207762
0.000207762
0.000207762
0.000207762
0.000207762
0.000207685
0.000207709
0.000207623
0.000207651
0.000207762
0.000207762
0.000207762
0.000207762
0.000207321
0.000207331
0.000207181
0.000207184
0.000207762
0.000207762
0.000207762
0.000207762
0.000206647
0.000206594
0.000206441
0.000206377
0.000207762
0.000207762
0.000207762
0.000207762
0.000205734
0.000205594
0.000205492
0.000205347
0.000207762
0.000207762
0.000207762
0.000207762
0.000204704
0.000204481
0.000204456
0.000204224
0.000207762
0.000207762
0.000207762
0.000207762
0.000203665
0.000203359
0.000203423
0.000203128
0.000207762
0.000207762
0.000207762
0.000207762
0.000202702
0.000202325
0.000202489
0.000202142
0.000207762
0.000207762
0.000207762
0.000207762
0.000201862
0.000201426
0.000201693
0.000201279
0.000207762
0.000207762
0.000207762
0.000207762
0.000201128
0.000200606
0.000200972
0.000200464
0.000207762
0.000207762
0.000207762
0.000207762
0.000200438
0.000199754
0.000200288
0.000199591
0.000207762
0.000207762
0.000207762
0.000207762
0.000199751
0.00019882
0.00019954
0.000198617
0.000207762
0.000207762
0.000207762
0.000197546
0.000198825
0.000196556
0.000200465
0.000199435
0.000198123
0.000207762
0.000207762
0.000207762
0.000207762
0.000207762
0.000207762
0.000207762
)
;

boundaryField
{
    inlet
    {
        type            calculated;
        value           uniform 0;
    }
    outlet
    {
        type            calculated;
        value           uniform 0;
    }
    sideWall
    {
        type            empty;
    }
}


// ************************************************************************* //
