/*--------------------------------*- C++ -*----------------------------------*\
| =========                 |                                                 |
| \\      /  F ield         | foam-extend: Open Source CFD                    |
|  \\    /   O peration     | Version:     3.2                                |
|   \\  /    A nd           | Web:         http://www.foam-extend.org         |
|    \\/     M anipulation  | For copyright notice see file Copyright         |
\*---------------------------------------------------------------------------*/
FoamFile
{
    version     2.0;
    format      ascii;
    class       surfaceScalarField;
    location    "2000";
    object      AdSS2;
}
// * * * * * * * * * * * * * * * * * * * * * * * * * * * * * * * * * * * * * //

dimensions      [0 3 -1 0 0 0 0];

internalField   nonuniform List<scalar> 
4492
(
1.69374e-05
2.91164e-06
1.38536e-05
7.14118e-07
1.19526e-05
-4.6867e-07
1.10666e-05
-1.48369e-06
1.07113e-05
-2.01439e-06
1.05812e-05
-2.2396e-06
1.05519e-05
-2.34036e-06
1.05647e-05
-2.38256e-06
1.05974e-05
-2.40234e-06
1.06398e-05
-2.41214e-06
1.06847e-05
-2.41458e-06
1.07262e-05
-2.4112e-06
1.07693e-05
-2.41275e-06
1.08117e-05
-2.41205e-06
1.08518e-05
-2.40981e-06
1.08956e-05
-2.41347e-06
1.09395e-05
-2.41368e-06
1.09836e-05
-2.41371e-06
1.10279e-05
-2.41401e-06
1.10721e-05
-2.41391e-06
1.11163e-05
-2.41391e-06
1.11627e-05
-2.41612e-06
1.12125e-05
-2.41943e-06
1.12628e-05
-2.41996e-06
1.13096e-05
-2.41654e-06
1.13522e-05
-2.41229e-06
1.139e-05
-2.40751e-06
1.1423e-05
-2.40272e-06
1.14515e-05
-2.39812e-06
1.14759e-05
-2.3941e-06
1.14969e-05
-2.39069e-06
1.15145e-05
-2.38735e-06
1.1529e-05
-2.38416e-06
1.15406e-05
-2.38129e-06
1.15501e-05
-2.37914e-06
1.1558e-05
-2.37762e-06
1.15646e-05
-2.37635e-06
1.15703e-05
-2.37532e-06
1.1575e-05
-2.37446e-06
1.15791e-05
-2.37375e-06
1.15825e-05
-2.37314e-06
1.15855e-05
-2.37263e-06
1.1588e-05
-2.3722e-06
1.15901e-05
-2.37183e-06
1.15919e-05
-2.37151e-06
1.15935e-05
-2.37126e-06
1.15948e-05
-2.37099e-06
1.1596e-05
-2.37088e-06
1.1597e-05
-2.37067e-06
1.15978e-05
-2.37047e-06
1.15986e-05
-2.37052e-06
1.15991e-05
-2.37021e-06
1.15996e-05
-2.37022e-06
1.15999e-05
-2.36996e-06
1.16004e-05
-2.37018e-06
1.15987e-05
-2.36797e-06
1.15908e-05
-2.36186e-06
1.14437e-05
-2.22254e-06
1.16874e-05
-2.61338e-06
1.38196e-05
-4.50192e-06
1.42637e-05
-2.81382e-06
1.26779e-05
-7.83848e-07
1.262e-05
-2.31178e-06
1.25924e-05
-2.34212e-06
1.25881e-05
-2.36543e-06
1.25764e-05
-2.35793e-06
1.25728e-05
-2.36607e-06
1.25728e-05
-2.36975e-06
1.25755e-05
-2.37239e-06
1.25772e-05
-2.37143e-06
1.25788e-05
-2.37124e-06
1.25814e-05
-2.37225e-06
1.25845e-05
-2.37281e-06
1.25873e-05
-2.3725e-06
1.25898e-05
-2.37217e-06
1.25919e-05
-2.37188e-06
1.2594e-05
-2.37175e-06
1.25955e-05
-2.3712e-06
1.25969e-05
-2.37107e-06
1.25982e-05
-2.37101e-06
1.25992e-05
-2.3707e-06
1.26001e-05
-2.37055e-06
1.26007e-05
-2.37036e-06
1.26013e-05
-2.37023e-06
1.26017e-05
-2.37013e-06
1.2602e-05
-2.37e-06
1.26023e-05
-2.36996e-06
1.26027e-05
-2.37012e-06
1.26029e-05
-2.36984e-06
1.2603e-05
-2.36984e-06
1.26031e-05
-2.36974e-06
1.26031e-05
-2.36974e-06
1.26031e-05
-2.36967e-06
1.26031e-05
-2.36974e-06
1.26033e-05
-2.36989e-06
1.26034e-05
-2.36972e-06
1.26034e-05
-2.3697e-06
1.26034e-05
-2.36968e-06
1.26033e-05
-2.36965e-06
1.26033e-05
-2.36965e-06
1.26032e-05
-2.36962e-06
1.26034e-05
-2.36992e-06
1.26034e-05
-2.36965e-06
1.26034e-05
-2.36972e-06
1.26033e-05
-2.36961e-06
1.26033e-05
-2.36969e-06
1.26032e-05
-2.36959e-06
1.26032e-05
-2.36969e-06
1.26034e-05
-2.36985e-06
1.26034e-05
-2.36971e-06
1.26034e-05
-2.36967e-06
1.26034e-05
-2.36967e-06
1.26033e-05
-2.36963e-06
1.26032e-05
-2.36963e-06
1.26032e-05
-2.36966e-06
1.26034e-05
-2.36987e-06
1.26034e-05
-2.36968e-06
1.26034e-05
-2.36969e-06
1.26033e-05
-2.36964e-06
1.26033e-05
-2.36966e-06
1.26032e-05
-2.36961e-06
1.26032e-05
-2.3697e-06
1.26033e-05
-2.36982e-06
1.26034e-05
-2.36975e-06
1.26033e-05
-2.36957e-06
1.26034e-05
-2.36978e-06
1.26032e-05
-2.36949e-06
1.26033e-05
-2.3698e-06
1.26031e-05
-2.36947e-06
1.26034e-05
-2.37004e-06
1.26033e-05
-2.36956e-06
1.26033e-05
-2.36977e-06
1.26033e-05
-2.36969e-06
1.26031e-05
-2.3694e-06
1.26033e-05
-2.36997e-06
1.26028e-05
-2.36913e-06
1.26036e-05
-2.37048e-06
1.26028e-05
-2.36895e-06
1.26037e-05
-2.37056e-06
1.26026e-05
-2.3686e-06
1.26038e-05
-2.37088e-06
1.26023e-05
-2.36818e-06
1.26041e-05
-2.37157e-06
1.26022e-05
-2.36771e-06
1.26044e-05
-2.37191e-06
1.26018e-05
-2.36709e-06
1.26046e-05
-2.37252e-06
1.26013e-05
-2.36636e-06
1.26051e-05
-2.37354e-06
1.2601e-05
-2.36557e-06
1.26056e-05
-2.37423e-06
1.26005e-05
-2.36459e-06
1.2606e-05
-2.3752e-06
1.25998e-05
-2.36349e-06
1.26067e-05
-2.37659e-06
1.25993e-05
-2.36233e-06
1.26072e-05
-2.37764e-06
1.25985e-05
-2.36099e-06
1.26078e-05
-2.37897e-06
1.25977e-05
-2.35956e-06
1.26087e-05
-2.38068e-06
1.25971e-05
-2.35808e-06
1.26094e-05
-2.38202e-06
1.25962e-05
-2.35648e-06
1.26101e-05
-2.38357e-06
1.25955e-05
-2.35513e-06
1.2611e-05
-2.3852e-06
1.25946e-05
-2.35334e-06
1.26117e-05
-2.38675e-06
1.25937e-05
-2.35173e-06
1.26126e-05
-2.38854e-06
1.25931e-05
-2.35024e-06
1.26133e-05
-2.38981e-06
1.25924e-05
-2.3488e-06
1.26138e-05
-2.39111e-06
1.25919e-05
-2.34779e-06
1.26145e-05
-2.3923e-06
1.25913e-05
-2.34652e-06
1.26149e-05
-2.39326e-06
1.25908e-05
-2.34557e-06
1.26154e-05
-2.39434e-06
1.25905e-05
-2.34482e-06
1.26157e-05
-2.39485e-06
1.25902e-05
-2.34418e-06
1.26158e-05
-2.39532e-06
1.25901e-05
-2.344e-06
1.26161e-05
-2.39565e-06
1.259e-05
-2.3436e-06
1.2616e-05
-2.39574e-06
1.25899e-05
-2.34354e-06
1.26161e-05
-2.39593e-06
1.25901e-05
-2.34369e-06
1.26159e-05
-2.39551e-06
1.25902e-05
-2.34398e-06
1.26156e-05
-2.39506e-06
1.25906e-05
-2.34474e-06
1.26154e-05
-2.39445e-06
1.2591e-05
-2.34531e-06
1.26149e-05
-2.39361e-06
1.25916e-05
-2.3464e-06
1.26146e-05
-2.39269e-06
1.25922e-05
-2.34722e-06
1.26141e-05
-2.39161e-06
1.25929e-05
-2.34854e-06
1.26137e-05
-2.39046e-06
1.25936e-05
-2.34958e-06
1.2613e-05
-2.38916e-06
1.25942e-05
-2.35081e-06
1.26126e-05
-2.38807e-06
1.2595e-05
-2.35216e-06
1.26119e-05
-2.38658e-06
1.25957e-05
-2.3535e-06
1.26114e-05
-2.38541e-06
1.25966e-05
-2.35486e-06
1.26108e-05
-2.38385e-06
1.25972e-05
-2.35615e-06
1.26102e-05
-2.38272e-06
1.2598e-05
-2.35749e-06
1.26096e-05
-2.38127e-06
1.25987e-05
-2.35876e-06
1.26092e-05
-2.38021e-06
1.25995e-05
-2.35994e-06
1.26086e-05
-2.3788e-06
1.25999e-05
-2.36101e-06
1.26081e-05
-2.37794e-06
1.26005e-05
-2.36207e-06
1.26076e-05
-2.37679e-06
1.2601e-05
-2.36309e-06
1.26074e-05
-2.37603e-06
1.26016e-05
-2.3639e-06
1.26068e-05
-2.37491e-06
1.26018e-05
-2.36473e-06
1.26063e-05
-2.37415e-06
1.26023e-05
-2.36577e-06
1.2606e-05
-2.37331e-06
1.26029e-05
-2.36658e-06
1.26058e-05
-2.37268e-06
1.26031e-05
-2.36692e-06
1.26054e-05
-2.37201e-06
1.26032e-05
-2.3675e-06
1.26051e-05
-2.3716e-06
1.26033e-05
-2.3679e-06
1.26049e-05
-2.37126e-06
1.26037e-05
-2.36848e-06
1.26049e-05
-2.37089e-06
1.26037e-05
-2.36855e-06
1.26047e-05
-2.37064e-06
1.26037e-05
-2.36869e-06
1.26044e-05
-2.37036e-06
1.26036e-05
-2.36898e-06
1.26044e-05
-2.37045e-06
1.26039e-05
-2.36923e-06
1.26043e-05
-2.37008e-06
1.2604e-05
-2.36938e-06
1.26042e-05
-2.36984e-06
1.26037e-05
-2.36925e-06
1.26041e-05
-2.37004e-06
1.26038e-05
-2.3694e-06
1.26041e-05
-2.36997e-06
1.26039e-05
-2.36956e-06
1.26042e-05
-2.36998e-06
1.26039e-05
-2.36943e-06
1.26039e-05
-2.36968e-06
1.26038e-05
-2.36951e-06
1.26038e-05
-2.36973e-06
1.26037e-05
-2.36956e-06
1.26041e-05
-2.37008e-06
1.2604e-05
-2.36964e-06
1.26041e-05
-2.36981e-06
1.26038e-05
-2.36942e-06
1.2604e-05
-2.36982e-06
1.26036e-05
-2.36929e-06
1.26037e-05
-2.36982e-06
1.26037e-05
-2.36968e-06
1.2604e-05
-2.37001e-06
1.26039e-05
-2.36958e-06
1.26042e-05
-2.36999e-06
1.2604e-05
-2.36949e-06
1.2604e-05
-2.36964e-06
1.26035e-05
-2.3692e-06
1.2604e-05
-2.37023e-06
1.26037e-05
-2.36941e-06
1.26044e-05
-2.37041e-06
1.26043e-05
-2.36953e-06
1.26022e-05
-2.36758e-06
1.26091e-05
-2.37661e-06
1.26024e-05
-2.36301e-06
1.26014e-05
-2.3687e-06
1.26017e-05
-2.36995e-06
1.26013e-05
-2.3693e-06
1.25963e-05
-2.36474e-06
1.2607e-05
-2.38031e-06
1.26592e-05
-2.42192e-06
1.25153e-05
-2.22582e-06
1.28935e-05
-2.74789e-06
1.22386e-05
-1.71477e-06
1.01883e-05
-3.19409e-07
1.08919e-05
-3.07331e-06
1.1279e-05
-2.75675e-06
-2.46251e-06
2.17086e-05
3.42183e-06
2.06846e-05
1.73802e-06
1.95879e-05
6.28075e-07
1.87131e-05
-6.08833e-07
1.81467e-05
-1.44801e-06
1.77807e-05
-1.87358e-06
1.75422e-05
-2.10186e-06
1.7384e-05
-2.22444e-06
1.72741e-05
-2.29245e-06
1.72069e-05
-2.34491e-06
1.71711e-05
-2.37879e-06
1.71562e-05
-2.39626e-06
1.71584e-05
-2.41498e-06
1.71708e-05
-2.42446e-06
1.71928e-05
-2.43177e-06
1.72251e-05
-2.44585e-06
1.72649e-05
-2.45342e-06
1.73116e-05
-2.46043e-06
1.73636e-05
-2.46606e-06
1.74196e-05
-2.46988e-06
1.74785e-05
-2.47275e-06
1.75397e-05
-2.4774e-06
1.76032e-05
-2.48287e-06
1.76662e-05
-2.483e-06
1.77252e-05
-2.47554e-06
1.77793e-05
-2.46636e-06
1.7828e-05
-2.4562e-06
1.78713e-05
-2.44602e-06
1.79094e-05
-2.43619e-06
1.79427e-05
-2.42745e-06
1.7972e-05
-2.42001e-06
1.79974e-05
-2.41269e-06
1.80188e-05
-2.40558e-06
1.80365e-05
-2.39904e-06
1.80513e-05
-2.39394e-06
1.80639e-05
-2.39022e-06
1.80747e-05
-2.38712e-06
1.80839e-05
-2.38455e-06
1.80919e-05
-2.38237e-06
1.80986e-05
-2.38053e-06
1.81045e-05
-2.37896e-06
1.81094e-05
-2.37759e-06
1.81137e-05
-2.37646e-06
1.81173e-05
-2.37544e-06
1.81204e-05
-2.37462e-06
1.8123e-05
-2.3739e-06
1.81253e-05
-2.37326e-06
1.81273e-05
-2.37285e-06
1.8129e-05
-2.37239e-06
1.81306e-05
-2.37205e-06
1.81317e-05
-2.37167e-06
1.81327e-05
-2.37118e-06
1.81334e-05
-2.37097e-06
1.81342e-05
-2.37076e-06
1.81344e-05
-2.37035e-06
1.81337e-05
-2.36727e-06
1.81201e-05
-2.34826e-06
1.7981e-05
-2.08343e-06
1.82078e-05
-2.84017e-06
2.00721e-05
-6.36628e-06
2.09153e-05
-3.65699e-06
2.0066e-05
6.54764e-08
1.99222e-05
-2.16798e-06
1.98172e-05
-2.23711e-06
1.97678e-05
-2.31603e-06
1.97062e-05
-2.2963e-06
1.96608e-05
-2.32072e-06
1.96264e-05
-2.33534e-06
1.96017e-05
-2.34773e-06
1.95832e-05
-2.35286e-06
1.95689e-05
-2.35695e-06
1.95588e-05
-2.36219e-06
1.9552e-05
-2.36602e-06
1.95472e-05
-2.3677e-06
1.95438e-05
-2.36877e-06
1.95415e-05
-2.36953e-06
1.954e-05
-2.37022e-06
1.95388e-05
-2.37008e-06
1.95383e-05
-2.37054e-06
1.95382e-05
-2.37089e-06
1.95382e-05
-2.37075e-06
1.95384e-05
-2.3707e-06
1.95386e-05
-2.3706e-06
1.95389e-05
-2.37055e-06
1.95393e-05
-2.37047e-06
1.95396e-05
-2.37033e-06
1.954e-05
-2.37032e-06
1.95405e-05
-2.37064e-06
1.95409e-05
-2.3702e-06
1.95412e-05
-2.3702e-06
1.95415e-05
-2.36998e-06
1.95417e-05
-2.36998e-06
1.95419e-05
-2.36982e-06
1.9542e-05
-2.36987e-06
1.95423e-05
-2.3702e-06
1.95425e-05
-2.36992e-06
1.95426e-05
-2.36982e-06
1.95427e-05
-2.36977e-06
1.95427e-05
-2.36967e-06
1.95428e-05
-2.36967e-06
1.95428e-05
-2.36965e-06
1.9543e-05
-2.37012e-06
1.9543e-05
-2.36967e-06
1.95431e-05
-2.36979e-06
1.9543e-05
-2.36957e-06
1.9543e-05
-2.3697e-06
1.9543e-05
-2.36952e-06
1.9543e-05
-2.36969e-06
1.95431e-05
-2.36996e-06
1.95431e-05
-2.36974e-06
1.95431e-05
-2.36967e-06
1.95431e-05
-2.36965e-06
1.95431e-05
-2.36959e-06
1.9543e-05
-2.36957e-06
1.9543e-05
-2.36962e-06
1.95431e-05
-2.37e-06
1.95431e-05
-2.36969e-06
1.95431e-05
-2.3697e-06
1.95431e-05
-2.36959e-06
1.9543e-05
-2.36963e-06
1.95429e-05
-2.36952e-06
1.95429e-05
-2.36969e-06
1.9543e-05
-2.36988e-06
1.95431e-05
-2.36982e-06
1.9543e-05
-2.36953e-06
1.95431e-05
-2.36982e-06
1.95429e-05
-2.36935e-06
1.9543e-05
-2.36983e-06
1.95428e-05
-2.3693e-06
1.9543e-05
-2.37029e-06
1.9543e-05
-2.36951e-06
1.9543e-05
-2.36974e-06
1.95431e-05
-2.36978e-06
1.95428e-05
-2.36917e-06
1.9543e-05
-2.37015e-06
1.95426e-05
-2.36873e-06
1.95431e-05
-2.37101e-06
1.95426e-05
-2.36842e-06
1.95433e-05
-2.37123e-06
1.95425e-05
-2.36781e-06
1.95433e-05
-2.37171e-06
1.95423e-05
-2.36714e-06
1.95436e-05
-2.37288e-06
1.95422e-05
-2.36635e-06
1.95439e-05
-2.37354e-06
1.9542e-05
-2.36527e-06
1.9544e-05
-2.3745e-06
1.95417e-05
-2.36408e-06
1.95444e-05
-2.37623e-06
1.95416e-05
-2.36273e-06
1.95448e-05
-2.37748e-06
1.95413e-05
-2.36104e-06
1.95452e-05
-2.37907e-06
1.95409e-05
-2.35922e-06
1.95457e-05
-2.38142e-06
1.95406e-05
-2.35725e-06
1.95463e-05
-2.38331e-06
1.95402e-05
-2.35494e-06
1.95468e-05
-2.3855e-06
1.95397e-05
-2.35254e-06
1.95475e-05
-2.38841e-06
1.95394e-05
-2.35002e-06
1.95482e-05
-2.39078e-06
1.95389e-05
-2.34724e-06
1.95488e-05
-2.39344e-06
1.95386e-05
-2.34492e-06
1.95496e-05
-2.39623e-06
1.95382e-05
-2.34191e-06
1.95503e-05
-2.39885e-06
1.95377e-05
-2.33915e-06
1.95511e-05
-2.40193e-06
1.95375e-05
-2.33657e-06
1.95519e-05
-2.40421e-06
1.95371e-05
-2.33402e-06
1.95524e-05
-2.40646e-06
1.95369e-05
-2.33222e-06
1.95531e-05
-2.40858e-06
1.95366e-05
-2.33e-06
1.95536e-05
-2.41028e-06
1.95363e-05
-2.32824e-06
1.95542e-05
-2.41218e-06
1.95363e-05
-2.32695e-06
1.95545e-05
-2.41308e-06
1.95362e-05
-2.32582e-06
1.95547e-05
-2.41387e-06
1.95362e-05
-2.32549e-06
1.9555e-05
-2.41446e-06
1.95362e-05
-2.32481e-06
1.95551e-05
-2.41459e-06
1.95362e-05
-2.32465e-06
1.95552e-05
-2.41491e-06
1.95364e-05
-2.32491e-06
1.95551e-05
-2.41421e-06
1.95365e-05
-2.32537e-06
1.95548e-05
-2.41341e-06
1.95367e-05
-2.32665e-06
1.95547e-05
-2.41239e-06
1.9537e-05
-2.32762e-06
1.95543e-05
-2.41094e-06
1.95374e-05
-2.32948e-06
1.95541e-05
-2.40939e-06
1.95378e-05
-2.33089e-06
1.95537e-05
-2.4075e-06
1.95383e-05
-2.33315e-06
1.95534e-05
-2.40555e-06
1.95387e-05
-2.33494e-06
1.95529e-05
-2.40328e-06
1.95391e-05
-2.33702e-06
1.95524e-05
-2.40141e-06
1.95396e-05
-2.33937e-06
1.95519e-05
-2.39885e-06
1.954e-05
-2.34162e-06
1.95514e-05
-2.39682e-06
1.95406e-05
-2.344e-06
1.95509e-05
-2.39416e-06
1.95409e-05
-2.34618e-06
1.95504e-05
-2.39221e-06
1.95414e-05
-2.34851e-06
1.95499e-05
-2.38972e-06
1.95417e-05
-2.35064e-06
1.95494e-05
-2.38786e-06
1.95422e-05
-2.35272e-06
1.95489e-05
-2.38548e-06
1.95424e-05
-2.35455e-06
1.95484e-05
-2.38397e-06
1.95428e-05
-2.35645e-06
1.9548e-05
-2.38195e-06
1.9543e-05
-2.35812e-06
1.95476e-05
-2.3806e-06
1.95433e-05
-2.3596e-06
1.95471e-05
-2.37872e-06
1.95433e-05
-2.36093e-06
1.95467e-05
-2.37761e-06
1.95437e-05
-2.36274e-06
1.95462e-05
-2.37578e-06
1.9544e-05
-2.36442e-06
1.95459e-05
-2.37462e-06
1.9544e-05
-2.36497e-06
1.95455e-05
-2.37355e-06
1.95441e-05
-2.36602e-06
1.95454e-05
-2.3729e-06
1.95441e-05
-2.36667e-06
1.95451e-05
-2.37224e-06
1.95442e-05
-2.36758e-06
1.95449e-05
-2.3716e-06
1.9544e-05
-2.36764e-06
1.95447e-05
-2.37132e-06
1.95441e-05
-2.36807e-06
1.95446e-05
-2.37088e-06
1.95441e-05
-2.36852e-06
1.95446e-05
-2.3709e-06
1.95442e-05
-2.36881e-06
1.95443e-05
-2.37021e-06
1.9544e-05
-2.36908e-06
1.95441e-05
-2.37001e-06
1.95439e-05
-2.369e-06
1.95443e-05
-2.37044e-06
1.95442e-05
-2.36933e-06
1.95443e-05
-2.37008e-06
1.95441e-05
-2.36928e-06
1.95441e-05
-2.36999e-06
1.95437e-05
-2.3691e-06
1.95438e-05
-2.36974e-06
1.95438e-05
-2.36954e-06
1.95441e-05
-2.37001e-06
1.95442e-05
-2.36966e-06
1.95444e-05
-2.37025e-06
1.95441e-05
-2.3694e-06
1.95439e-05
-2.36959e-06
1.95435e-05
-2.36902e-06
1.95437e-05
-2.36999e-06
1.95436e-05
-2.36926e-06
1.95441e-05
-2.37028e-06
1.95444e-05
-2.36994e-06
1.95445e-05
-2.37013e-06
1.95441e-05
-2.36924e-06
1.95439e-05
-2.36975e-06
1.95434e-05
-2.36902e-06
1.95435e-05
-2.36973e-06
1.95436e-05
-2.36926e-06
1.95446e-05
-2.37122e-06
1.95449e-05
-2.36974e-06
1.95447e-05
-2.37026e-06
1.95442e-05
-2.36902e-06
1.95435e-05
-2.36684e-06
1.95483e-05
-2.38143e-06
1.95434e-05
-2.35817e-06
1.95423e-05
-2.36753e-06
1.95428e-05
-2.37043e-06
1.95421e-05
-2.36863e-06
1.95425e-05
-2.36515e-06
1.95524e-05
-2.39018e-06
1.95794e-05
-2.44895e-06
1.94938e-05
-2.14027e-06
1.97509e-05
-3.00494e-06
1.91223e-05
-1.08623e-06
1.74133e-05
1.3896e-06
1.76538e-05
-3.31373e-06
1.78135e-05
-2.9165e-06
-2.51504e-06
2.29836e-05
2.65698e-06
2.32765e-05
1.44517e-06
2.31094e-05
7.95152e-07
2.26552e-05
-1.54612e-07
2.21342e-05
-9.27085e-07
2.16777e-05
-1.41709e-06
2.13257e-05
-1.74983e-06
2.10553e-05
-1.95405e-06
2.08458e-05
-2.08293e-06
2.06976e-05
-2.19674e-06
2.05962e-05
-2.2774e-06
2.05272e-05
-2.32718e-06
2.04863e-05
-2.37417e-06
2.04706e-05
-2.40871e-06
2.04736e-05
-2.43481e-06
2.0491e-05
-2.46316e-06
2.05216e-05
-2.4841e-06
2.05637e-05
-2.50251e-06
2.06139e-05
-2.51626e-06
2.06705e-05
-2.52645e-06
2.0731e-05
-2.53325e-06
2.07928e-05
-2.53926e-06
2.08551e-05
-2.54518e-06
2.09161e-05
-2.54394e-06
2.09729e-05
-2.5324e-06
2.1025e-05
-2.51843e-06
2.1072e-05
-2.50318e-06
2.11139e-05
-2.48789e-06
2.11508e-05
-2.47309e-06
2.11832e-05
-2.45988e-06
2.12118e-05
-2.44859e-06
2.12366e-05
-2.43747e-06
2.12576e-05
-2.42662e-06
2.12751e-05
-2.41653e-06
2.12897e-05
-2.40858e-06
2.13022e-05
-2.40272e-06
2.1313e-05
-2.39785e-06
2.13222e-05
-2.39374e-06
2.133e-05
-2.39026e-06
2.13368e-05
-2.38728e-06
2.13426e-05
-2.38475e-06
2.13475e-05
-2.38253e-06
2.13518e-05
-2.3807e-06
2.13554e-05
-2.37904e-06
2.13585e-05
-2.37772e-06
2.13611e-05
-2.37653e-06
2.13634e-05
-2.37552e-06
2.13653e-05
-2.37481e-06
2.1367e-05
-2.3741e-06
2.13686e-05
-2.37362e-06
2.13697e-05
-2.37282e-06
2.13707e-05
-2.37213e-06
2.13715e-05
-2.37177e-06
2.13722e-05
-2.37144e-06
2.13727e-05
-2.37086e-06
2.1372e-05
-2.3666e-06
2.13658e-05
-2.34207e-06
2.12841e-05
-2.0017e-06
2.14448e-05
-3.00082e-06
2.27876e-05
-7.70913e-06
2.35854e-05
-4.45481e-06
2.32017e-05
4.49234e-07
2.30833e-05
-2.0496e-06
2.29976e-05
-2.15143e-06
2.29474e-05
-2.26579e-06
2.28862e-05
-2.23514e-06
2.28374e-05
-2.27192e-06
2.28004e-05
-2.29839e-06
2.27721e-05
-2.31936e-06
2.27505e-05
-2.33128e-06
2.27335e-05
-2.33999e-06
2.27208e-05
-2.3495e-06
2.27116e-05
-2.35678e-06
2.27047e-05
-2.36084e-06
2.26996e-05
-2.36364e-06
2.26958e-05
-2.36571e-06
2.26931e-05
-2.36749e-06
2.2691e-05
-2.36801e-06
2.26896e-05
-2.3691e-06
2.26887e-05
-2.37002e-06
2.26882e-05
-2.37022e-06
2.26879e-05
-2.37042e-06
2.26878e-05
-2.3705e-06
2.26878e-05
-2.37059e-06
2.26879e-05
-2.37059e-06
2.26881e-05
-2.37053e-06
2.26884e-05
-2.37057e-06
2.26888e-05
-2.37102e-06
2.26891e-05
-2.37052e-06
2.26894e-05
-2.37052e-06
2.26896e-05
-2.37022e-06
2.26899e-05
-2.37021e-06
2.269e-05
-2.37e-06
2.26902e-05
-2.37e-06
2.26904e-05
-2.37047e-06
2.26906e-05
-2.37012e-06
2.26908e-05
-2.36995e-06
2.26909e-05
-2.36988e-06
2.26909e-05
-2.36973e-06
2.2691e-05
-2.36971e-06
2.2691e-05
-2.36968e-06
2.26912e-05
-2.37027e-06
2.26912e-05
-2.36973e-06
2.26913e-05
-2.36986e-06
2.26913e-05
-2.36957e-06
2.26913e-05
-2.36971e-06
2.26912e-05
-2.36949e-06
2.26912e-05
-2.36968e-06
2.26913e-05
-2.37003e-06
2.26913e-05
-2.36978e-06
2.26913e-05
-2.36967e-06
2.26913e-05
-2.36964e-06
2.26913e-05
-2.36956e-06
2.26913e-05
-2.36953e-06
2.26912e-05
-2.36959e-06
2.26913e-05
-2.37007e-06
2.26913e-05
-2.3697e-06
2.26913e-05
-2.36971e-06
2.26913e-05
-2.36957e-06
2.26913e-05
-2.36961e-06
2.26912e-05
-2.36946e-06
2.26912e-05
-2.36967e-06
2.26912e-05
-2.36992e-06
2.26913e-05
-2.36987e-06
2.26913e-05
-2.36951e-06
2.26913e-05
-2.36984e-06
2.26912e-05
-2.36927e-06
2.26912e-05
-2.36983e-06
2.26911e-05
-2.3692e-06
2.26913e-05
-2.37043e-06
2.26912e-05
-2.36949e-06
2.26912e-05
-2.3697e-06
2.26913e-05
-2.36987e-06
2.26911e-05
-2.36903e-06
2.26912e-05
-2.37026e-06
2.2691e-05
-2.3685e-06
2.26913e-05
-2.3713e-06
2.2691e-05
-2.36814e-06
2.26914e-05
-2.37161e-06
2.2691e-05
-2.36738e-06
2.26914e-05
-2.37217e-06
2.26909e-05
-2.36657e-06
2.26916e-05
-2.3736e-06
2.26909e-05
-2.36564e-06
2.26918e-05
-2.37445e-06
2.26908e-05
-2.3643e-06
2.26919e-05
-2.37559e-06
2.26907e-05
-2.36285e-06
2.26921e-05
-2.3777e-06
2.26906e-05
-2.36125e-06
2.26924e-05
-2.37927e-06
2.26905e-05
-2.35917e-06
2.26926e-05
-2.38116e-06
2.26904e-05
-2.35695e-06
2.2693e-05
-2.38404e-06
2.26903e-05
-2.35459e-06
2.26934e-05
-2.38638e-06
2.26902e-05
-2.35176e-06
2.26937e-05
-2.38901e-06
2.269e-05
-2.34884e-06
2.26942e-05
-2.39256e-06
2.269e-05
-2.34582e-06
2.26947e-05
-2.39548e-06
2.26898e-05
-2.34242e-06
2.26951e-05
-2.39871e-06
2.26898e-05
-2.33958e-06
2.26957e-05
-2.40213e-06
2.26897e-05
-2.33596e-06
2.26962e-05
-2.40531e-06
2.26896e-05
-2.33258e-06
2.26967e-05
-2.40905e-06
2.26896e-05
-2.32945e-06
2.26973e-05
-2.41187e-06
2.26896e-05
-2.32631e-06
2.26977e-05
-2.41459e-06
2.26896e-05
-2.32409e-06
2.26982e-05
-2.4172e-06
2.26896e-05
-2.32142e-06
2.26986e-05
-2.41925e-06
2.26895e-05
-2.31922e-06
2.26989e-05
-2.42156e-06
2.26896e-05
-2.31763e-06
2.26993e-05
-2.42274e-06
2.26896e-05
-2.31617e-06
2.26995e-05
-2.42371e-06
2.26897e-05
-2.3157e-06
2.26997e-05
-2.4245e-06
2.26898e-05
-2.31486e-06
2.26998e-05
-2.42465e-06
2.26897e-05
-2.31458e-06
2.26999e-05
-2.42507e-06
2.26899e-05
-2.31487e-06
2.27e-05
-2.42431e-06
2.26899e-05
-2.31533e-06
2.26998e-05
-2.42333e-06
2.269e-05
-2.31682e-06
2.26998e-05
-2.42215e-06
2.26901e-05
-2.31798e-06
2.26996e-05
-2.42041e-06
2.26903e-05
-2.32018e-06
2.26995e-05
-2.41857e-06
2.26905e-05
-2.3219e-06
2.26992e-05
-2.41626e-06
2.26907e-05
-2.3246e-06
2.26991e-05
-2.41392e-06
2.26909e-05
-2.3268e-06
2.26987e-05
-2.41112e-06
2.2691e-05
-2.32928e-06
2.26984e-05
-2.40884e-06
2.26912e-05
-2.33217e-06
2.26981e-05
-2.40573e-06
2.26914e-05
-2.33488e-06
2.26978e-05
-2.40323e-06
2.26916e-05
-2.33783e-06
2.26974e-05
-2.39999e-06
2.26917e-05
-2.34047e-06
2.26971e-05
-2.39757e-06
2.2692e-05
-2.3434e-06
2.26968e-05
-2.39451e-06
2.26921e-05
-2.34595e-06
2.26963e-05
-2.39214e-06
2.26922e-05
-2.34862e-06
2.2696e-05
-2.38919e-06
2.26924e-05
-2.35095e-06
2.26955e-05
-2.38714e-06
2.26926e-05
-2.35356e-06
2.26952e-05
-2.38454e-06
2.26927e-05
-2.35556e-06
2.26947e-05
-2.38266e-06
2.26927e-05
-2.35756e-06
2.26944e-05
-2.38047e-06
2.26926e-05
-2.35914e-06
2.26942e-05
-2.37921e-06
2.26928e-05
-2.36131e-06
2.26941e-05
-2.37703e-06
2.26928e-05
-2.36314e-06
2.26937e-05
-2.37559e-06
2.26926e-05
-2.3638e-06
2.26934e-05
-2.37439e-06
2.26926e-05
-2.36524e-06
2.26934e-05
-2.37369e-06
2.26928e-05
-2.36604e-06
2.26933e-05
-2.37271e-06
2.26926e-05
-2.36697e-06
2.26929e-05
-2.37184e-06
2.26922e-05
-2.36701e-06
2.26926e-05
-2.37171e-06
2.26924e-05
-2.36782e-06
2.26928e-05
-2.37131e-06
2.26927e-05
-2.36839e-06
2.26929e-05
-2.37108e-06
2.26925e-05
-2.36841e-06
2.26923e-05
-2.37006e-06
2.2692e-05
-2.36873e-06
2.26921e-05
-2.37015e-06
2.26921e-05
-2.36902e-06
2.26926e-05
-2.37093e-06
2.26928e-05
-2.36952e-06
2.26928e-05
-2.37004e-06
2.26924e-05
-2.36888e-06
2.2692e-05
-2.36966e-06
2.26916e-05
-2.36862e-06
2.26917e-05
-2.36987e-06
2.2692e-05
-2.36982e-06
2.26926e-05
-2.37058e-06
2.2693e-05
-2.37008e-06
2.26929e-05
-2.37021e-06
2.26925e-05
-2.36893e-06
2.26918e-05
-2.36895e-06
2.26911e-05
-2.36834e-06
2.26914e-05
-2.37023e-06
2.26918e-05
-2.36969e-06
2.26927e-05
-2.37116e-06
2.26934e-05
-2.37064e-06
2.26933e-05
-2.37001e-06
2.26926e-05
-2.36854e-06
2.26916e-05
-2.36882e-06
2.26906e-05
-2.36803e-06
2.26909e-05
-2.36998e-06
2.26917e-05
-2.37002e-06
2.26933e-05
-2.37286e-06
2.26944e-05
-2.37086e-06
2.26939e-05
-2.36974e-06
2.26931e-05
-2.36824e-06
2.26924e-05
-2.36608e-06
2.26948e-05
-2.38388e-06
2.26922e-05
-2.35555e-06
2.26912e-05
-2.36655e-06
2.26913e-05
-2.37055e-06
2.26912e-05
-2.36848e-06
2.2694e-05
-2.36796e-06
2.26985e-05
-2.3947e-06
2.27116e-05
-2.46202e-06
2.2664e-05
-2.09271e-06
2.2745e-05
-3.08585e-06
2.23886e-05
-7.29907e-07
2.12625e-05
2.51577e-06
2.11427e-05
-3.19393e-06
2.11675e-05
-2.94136e-06
-2.52892e-06
2.32145e-05
1.6612e-06
2.38952e-05
7.64481e-07
2.43731e-05
3.17309e-07
2.45356e-05
-3.17119e-07
2.44619e-05
-8.5343e-07
2.4247e-05
-1.20217e-06
2.39641e-05
-1.46695e-06
2.36829e-05
-1.67282e-06
2.34423e-05
-1.84235e-06
2.32464e-05
-2.00082e-06
2.30881e-05
-2.11909e-06
2.29637e-05
-2.2028e-06
2.28747e-05
-2.28518e-06
2.28178e-05
-2.35178e-06
2.27864e-05
-2.4034e-06
2.27778e-05
-2.45461e-06
2.27862e-05
-2.49246e-06
2.28089e-05
-2.52524e-06
2.28442e-05
-2.55158e-06
2.28881e-05
-2.57029e-06
2.29374e-05
-2.58259e-06
2.29873e-05
-2.58913e-06
2.30352e-05
-2.59312e-06
2.30807e-05
-2.58947e-06
2.31226e-05
-2.57423e-06
2.31604e-05
-2.55629e-06
2.31942e-05
-2.53698e-06
2.32241e-05
-2.51774e-06
2.32502e-05
-2.49916e-06
2.32729e-05
-2.48267e-06
2.32929e-05
-2.46859e-06
2.33102e-05
-2.4547e-06
2.33246e-05
-2.4411e-06
2.33366e-05
-2.42845e-06
2.33465e-05
-2.41855e-06
2.33551e-05
-2.41127e-06
2.33624e-05
-2.4052e-06
2.33687e-05
-2.40005e-06
2.33742e-05
-2.39567e-06
2.33788e-05
-2.3919e-06
2.33827e-05
-2.3887e-06
2.33861e-05
-2.3859e-06
2.3389e-05
-2.38358e-06
2.33914e-05
-2.3815e-06
2.33935e-05
-2.37983e-06
2.33953e-05
-2.37832e-06
2.33969e-05
-2.37705e-06
2.33982e-05
-2.37614e-06
2.33993e-05
-2.37523e-06
2.34003e-05
-2.37463e-06
2.34012e-05
-2.37364e-06
2.34018e-05
-2.37276e-06
2.34024e-05
-2.37236e-06
2.34028e-05
-2.37187e-06
2.34033e-05
-2.37136e-06
2.34031e-05
-2.36642e-06
2.3404e-05
-2.34291e-06
2.34064e-05
-2.00419e-06
2.34922e-05
-3.08657e-06
2.41093e-05
-8.32626e-06
2.46067e-05
-4.95222e-06
2.46022e-05
4.53732e-07
2.45572e-05
-2.00451e-06
2.45219e-05
-2.11623e-06
2.44945e-05
-2.23839e-06
2.44607e-05
-2.20133e-06
2.4431e-05
-2.24218e-06
2.4405e-05
-2.27242e-06
2.43841e-05
-2.29842e-06
2.43678e-05
-2.315e-06
2.43545e-05
-2.32671e-06
2.4344e-05
-2.33896e-06
2.43358e-05
-2.34858e-06
2.43294e-05
-2.35443e-06
2.43243e-05
-2.3586e-06
2.43204e-05
-2.36173e-06
2.43173e-05
-2.36444e-06
2.43149e-05
-2.36561e-06
2.4313e-05
-2.36723e-06
2.43117e-05
-2.36867e-06
2.43107e-05
-2.36923e-06
2.431e-05
-2.36972e-06
2.43095e-05
-2.37002e-06
2.43092e-05
-2.37029e-06
2.4309e-05
-2.37042e-06
2.4309e-05
-2.37045e-06
2.4309e-05
-2.37056e-06
2.43091e-05
-2.37113e-06
2.43092e-05
-2.37066e-06
2.43094e-05
-2.37065e-06
2.43095e-05
-2.37035e-06
2.43096e-05
-2.37034e-06
2.43097e-05
-2.3701e-06
2.43098e-05
-2.37009e-06
2.431e-05
-2.37062e-06
2.43101e-05
-2.37025e-06
2.43102e-05
-2.37006e-06
2.43103e-05
-2.36997e-06
2.43103e-05
-2.36978e-06
2.43104e-05
-2.36976e-06
2.43104e-05
-2.3697e-06
2.43105e-05
-2.37034e-06
2.43105e-05
-2.36979e-06
2.43106e-05
-2.36991e-06
2.43106e-05
-2.36958e-06
2.43106e-05
-2.36971e-06
2.43106e-05
-2.36948e-06
2.43106e-05
-2.36967e-06
2.43106e-05
-2.37005e-06
2.43106e-05
-2.36981e-06
2.43106e-05
-2.36968e-06
2.43106e-05
-2.36965e-06
2.43106e-05
-2.36955e-06
2.43106e-05
-2.36951e-06
2.43106e-05
-2.36957e-06
2.43106e-05
-2.37008e-06
2.43106e-05
-2.36972e-06
2.43106e-05
-2.36972e-06
2.43106e-05
-2.36957e-06
2.43106e-05
-2.36961e-06
2.43106e-05
-2.36943e-06
2.43106e-05
-2.36965e-06
2.43106e-05
-2.36993e-06
2.43106e-05
-2.3699e-06
2.43106e-05
-2.3695e-06
2.43106e-05
-2.36984e-06
2.43106e-05
-2.36925e-06
2.43106e-05
-2.36982e-06
2.43105e-05
-2.36916e-06
2.43106e-05
-2.37047e-06
2.43106e-05
-2.36949e-06
2.43106e-05
-2.36967e-06
2.43106e-05
-2.36992e-06
2.43105e-05
-2.36896e-06
2.43106e-05
-2.37029e-06
2.43105e-05
-2.36842e-06
2.43106e-05
-2.37138e-06
2.43105e-05
-2.36806e-06
2.43106e-05
-2.37172e-06
2.43105e-05
-2.36727e-06
2.43106e-05
-2.3723e-06
2.43105e-05
-2.36642e-06
2.43107e-05
-2.3738e-06
2.43105e-05
-2.36547e-06
2.43108e-05
-2.37471e-06
2.43105e-05
-2.36406e-06
2.43108e-05
-2.37587e-06
2.43105e-05
-2.36256e-06
2.43109e-05
-2.37808e-06
2.43106e-05
-2.36091e-06
2.43111e-05
-2.37975e-06
2.43106e-05
-2.35873e-06
2.43112e-05
-2.3817e-06
2.43107e-05
-2.35644e-06
2.43113e-05
-2.3847e-06
2.43107e-05
-2.35399e-06
2.43115e-05
-2.38716e-06
2.43108e-05
-2.35105e-06
2.43117e-05
-2.38988e-06
2.43108e-05
-2.34802e-06
2.43119e-05
-2.39357e-06
2.43109e-05
-2.34491e-06
2.43121e-05
-2.39663e-06
2.43111e-05
-2.34137e-06
2.43123e-05
-2.39998e-06
2.43112e-05
-2.33842e-06
2.43126e-05
-2.40356e-06
2.43113e-05
-2.33468e-06
2.43128e-05
-2.40684e-06
2.43114e-05
-2.33116e-06
2.43131e-05
-2.41071e-06
2.43116e-05
-2.32796e-06
2.43134e-05
-2.41365e-06
2.43118e-05
-2.32468e-06
2.43136e-05
-2.41645e-06
2.43119e-05
-2.32237e-06
2.43138e-05
-2.41916e-06
2.43121e-05
-2.31963e-06
2.43141e-05
-2.42124e-06
2.43122e-05
-2.31735e-06
2.43142e-05
-2.42362e-06
2.43123e-05
-2.31574e-06
2.43144e-05
-2.42484e-06
2.43125e-05
-2.31419e-06
2.43145e-05
-2.4258e-06
2.43125e-05
-2.31369e-06
2.43147e-05
-2.42663e-06
2.43127e-05
-2.31285e-06
2.43148e-05
-2.42673e-06
2.43127e-05
-2.31255e-06
2.43148e-05
-2.42712e-06
2.43128e-05
-2.31292e-06
2.43148e-05
-2.42631e-06
2.43129e-05
-2.31339e-06
2.43148e-05
-2.42522e-06
2.43129e-05
-2.31494e-06
2.43147e-05
-2.42399e-06
2.4313e-05
-2.31621e-06
2.43146e-05
-2.4221e-06
2.4313e-05
-2.3185e-06
2.43146e-05
-2.42019e-06
2.4313e-05
-2.32035e-06
2.43145e-05
-2.41772e-06
2.43131e-05
-2.32316e-06
2.43144e-05
-2.41529e-06
2.43131e-05
-2.32543e-06
2.43143e-05
-2.41238e-06
2.4313e-05
-2.32799e-06
2.43142e-05
-2.41001e-06
2.4313e-05
-2.33097e-06
2.43141e-05
-2.4068e-06
2.43129e-05
-2.33376e-06
2.43139e-05
-2.40421e-06
2.43129e-05
-2.3368e-06
2.43138e-05
-2.40087e-06
2.43128e-05
-2.33954e-06
2.43137e-05
-2.39839e-06
2.43128e-05
-2.34256e-06
2.43135e-05
-2.39522e-06
2.43127e-05
-2.34515e-06
2.43133e-05
-2.39274e-06
2.43126e-05
-2.34789e-06
2.43132e-05
-2.38976e-06
2.43125e-05
-2.35032e-06
2.43131e-05
-2.38769e-06
2.43126e-05
-2.35302e-06
2.4313e-05
-2.38496e-06
2.43124e-05
-2.35499e-06
2.43127e-05
-2.38296e-06
2.43122e-05
-2.35703e-06
2.43125e-05
-2.38079e-06
2.43121e-05
-2.35877e-06
2.43125e-05
-2.37961e-06
2.43122e-05
-2.36098e-06
2.43125e-05
-2.37732e-06
2.4312e-05
-2.36267e-06
2.43121e-05
-2.37572e-06
2.43117e-05
-2.36332e-06
2.43119e-05
-2.37462e-06
2.43117e-05
-2.36507e-06
2.43121e-05
-2.37405e-06
2.4312e-05
-2.36597e-06
2.43121e-05
-2.37275e-06
2.43117e-05
-2.36663e-06
2.43115e-05
-2.37165e-06
2.43112e-05
-2.36664e-06
2.43113e-05
-2.37186e-06
2.43114e-05
-2.3679e-06
2.43118e-05
-2.37169e-06
2.43119e-05
-2.36856e-06
2.43119e-05
-2.37102e-06
2.43115e-05
-2.36806e-06
2.43111e-05
-2.36966e-06
2.43107e-05
-2.36832e-06
2.43109e-05
-2.37029e-06
2.43111e-05
-2.36929e-06
2.43117e-05
-2.3715e-06
2.43122e-05
-2.36997e-06
2.4312e-05
-2.36987e-06
2.43115e-05
-2.3684e-06
2.43109e-05
-2.36901e-06
2.43102e-05
-2.36801e-06
2.43104e-05
-2.37007e-06
2.43109e-05
-2.37032e-06
2.43118e-05
-2.37145e-06
2.43125e-05
-2.37079e-06
2.43123e-05
-2.36997e-06
2.43116e-05
-2.36825e-06
2.43106e-05
-2.36791e-06
2.43096e-05
-2.3674e-06
2.431e-05
-2.37054e-06
2.43107e-05
-2.37047e-06
2.43121e-05
-2.37248e-06
2.43132e-05
-2.37178e-06
2.43129e-05
-2.36968e-06
2.43118e-05
-2.36752e-06
2.43103e-05
-2.36724e-06
2.43088e-05
-2.36654e-06
2.43092e-05