/*--------------------------------*- C++ -*----------------------------------*\
| =========                 |                                                 |
| \\      /  F ield         | foam-extend: Open Source CFD                    |
|  \\    /   O peration     | Version:     3.2                                |
|   \\  /    A nd           | Web:         http://www.foam-extend.org         |
|    \\/     M anipulation  | For copyright notice see file Copyright         |
\*---------------------------------------------------------------------------*/
FoamFile
{
    version     2.0;
    format      ascii;
    class       surfaceScalarField;
    location    "2000";
    object      AdSS1;
}
// * * * * * * * * * * * * * * * * * * * * * * * * * * * * * * * * * * * * * //

dimensions      [0 3 -1 0 0 0 0];

internalField   nonuniform List<scalar> 
4492
(
1.69374e-05
4.68006e-06
1.38536e-05
2.48254e-06
1.19526e-05
1.29976e-06
1.10666e-05
2.84741e-07
1.07113e-05
-2.45965e-07
1.05812e-05
-4.71175e-07
1.05519e-05
-5.71938e-07
1.05647e-05
-6.14135e-07
1.05974e-05
-6.33918e-07
1.06398e-05
-6.43716e-07
1.06847e-05
-6.46149e-07
1.07262e-05
-6.42774e-07
1.07693e-05
-6.44325e-07
1.08117e-05
-6.43627e-07
1.08518e-05
-6.41387e-07
1.08956e-05
-6.45047e-07
1.09395e-05
-6.45254e-07
1.09836e-05
-6.45286e-07
1.10279e-05
-6.45584e-07
1.10721e-05
-6.45481e-07
1.11163e-05
-6.45481e-07
1.11627e-05
-6.47694e-07
1.12125e-05
-6.51003e-07
1.12628e-05
-6.51537e-07
1.13096e-05
-6.48118e-07
1.13522e-05
-6.43859e-07
1.139e-05
-6.39079e-07
1.1423e-05
-6.34289e-07
1.14515e-05
-6.29693e-07
1.14759e-05
-6.2567e-07
1.14969e-05
-6.22266e-07
1.15145e-05
-6.18926e-07
1.1529e-05
-6.15731e-07
1.15406e-05
-6.12868e-07
1.15501e-05
-6.10711e-07
1.1558e-05
-6.09192e-07
1.15646e-05
-6.07919e-07
1.15703e-05
-6.06891e-07
1.1575e-05
-6.06029e-07
1.15791e-05
-6.05323e-07
1.15825e-05
-6.04718e-07
1.15855e-05
-6.04207e-07
1.1588e-05
-6.03776e-07
1.15901e-05
-6.034e-07
1.15919e-05
-6.03081e-07
1.15935e-05
-6.02837e-07
1.15948e-05
-6.02567e-07
1.1596e-05
-6.02455e-07
1.1597e-05
-6.02248e-07
1.15978e-05
-6.02042e-07
1.15986e-05
-6.02093e-07
1.15991e-05
-6.01784e-07
1.15996e-05
-6.01794e-07
1.15999e-05
-6.0153e-07
1.16004e-05
-6.01751e-07
1.15987e-05
-5.99548e-07
1.15908e-05
-5.93428e-07
1.14437e-05
-4.54117e-07
1.16874e-05
-8.44949e-07
1.38196e-05
-2.73349e-06
1.42637e-05
-1.04539e-06
1.26779e-05
9.84579e-07
1.262e-05
-5.43351e-07
1.25924e-05
-5.73691e-07
1.25881e-05
-5.97008e-07
1.25764e-05
-5.89501e-07
1.25728e-05
-5.97646e-07
1.25728e-05
-6.01321e-07
1.25755e-05
-6.03966e-07
1.25772e-05
-6.03004e-07
1.25788e-05
-6.02814e-07
1.25814e-05
-6.03824e-07
1.25845e-05
-6.04387e-07
1.25873e-05
-6.04072e-07
1.25898e-05
-6.0374e-07
1.25919e-05
-6.03449e-07
1.2594e-05
-6.03322e-07
1.25955e-05
-6.0277e-07
1.25969e-05
-6.02646e-07
1.25982e-05
-6.02587e-07
1.25992e-05
-6.02277e-07
1.26001e-05
-6.02119e-07
1.26007e-05
-6.01935e-07
1.26013e-05
-6.01804e-07
1.26017e-05
-6.01701e-07
1.2602e-05
-6.01573e-07
1.26023e-05
-6.01537e-07
1.26027e-05
-6.01689e-07
1.26029e-05
-6.01417e-07
1.2603e-05
-6.01418e-07
1.26031e-05
-6.01311e-07
1.26031e-05
-6.01314e-07
1.26031e-05
-6.0124e-07
1.26031e-05
-6.01311e-07
1.26033e-05
-6.01461e-07
1.26034e-05
-6.01293e-07
1.26034e-05
-6.01272e-07
1.26034e-05
-6.01251e-07
1.26033e-05
-6.01223e-07
1.26033e-05
-6.01221e-07
1.26032e-05
-6.01198e-07
1.26034e-05
-6.01491e-07
1.26034e-05
-6.01225e-07
1.26034e-05
-6.01298e-07
1.26033e-05
-6.01183e-07
1.26033e-05
-6.01267e-07
1.26032e-05
-6.01166e-07
1.26032e-05
-6.01263e-07
1.26034e-05
-6.01422e-07
1.26034e-05
-6.0128e-07
1.26034e-05
-6.0124e-07
1.26034e-05
-6.01239e-07
1.26033e-05
-6.01208e-07
1.26032e-05
-6.01203e-07
1.26032e-05
-6.01229e-07
1.26034e-05
-6.01448e-07
1.26034e-05
-6.01256e-07
1.26034e-05
-6.01265e-07
1.26033e-05
-6.01209e-07
1.26033e-05
-6.01237e-07
1.26032e-05
-6.01179e-07
1.26032e-05
-6.01268e-07
1.26033e-05
-6.01392e-07
1.26034e-05
-6.01323e-07
1.26033e-05
-6.01146e-07
1.26034e-05
-6.01355e-07
1.26032e-05
-6.01062e-07
1.26033e-05
-6.01374e-07
1.26031e-05
-6.01045e-07
1.26034e-05
-6.01609e-07
1.26033e-05
-6.01135e-07
1.26033e-05
-6.01347e-07
1.26033e-05
-6.01263e-07
1.26031e-05
-6.00976e-07
1.26033e-05
-6.01546e-07
1.26028e-05
-6.00702e-07
1.26036e-05
-6.02058e-07
1.26028e-05
-6.0052e-07
1.26037e-05
-6.02135e-07
1.26026e-05
-6.00175e-07
1.26038e-05
-6.02452e-07
1.26023e-05
-5.99748e-07
1.26041e-05
-6.03141e-07
1.26022e-05
-5.99286e-07
1.26044e-05
-6.03488e-07
1.26018e-05
-5.98667e-07
1.26046e-05
-6.04095e-07
1.26013e-05
-5.97938e-07
1.26051e-05
-6.05112e-07
1.2601e-05
-5.97143e-07
1.26056e-05
-6.05802e-07
1.26005e-05
-5.96162e-07
1.2606e-05
-6.06775e-07
1.25998e-05
-5.95066e-07
1.26067e-05
-6.08159e-07
1.25993e-05
-5.93904e-07
1.26072e-05
-6.09217e-07
1.25985e-05
-5.92561e-07
1.26078e-05
-6.10543e-07
1.25977e-05
-5.91131e-07
1.26087e-05
-6.12251e-07
1.25971e-05
-5.89651e-07
1.26094e-05
-6.13597e-07
1.25962e-05
-5.8805e-07
1.26101e-05
-6.15148e-07
1.25955e-05
-5.86701e-07
1.2611e-05
-6.16769e-07
1.25946e-05
-5.84911e-07
1.26117e-05
-6.18322e-07
1.25937e-05
-5.83307e-07
1.26126e-05
-6.20111e-07
1.25931e-05
-5.8181e-07
1.26133e-05
-6.21385e-07
1.25924e-05
-5.80378e-07
1.26138e-05
-6.22679e-07
1.25919e-05
-5.79362e-07
1.26145e-05
-6.23872e-07
1.25913e-05
-5.78092e-07
1.26149e-05
-6.24833e-07
1.25908e-05
-5.77144e-07
1.26154e-05
-6.25916e-07
1.25905e-05
-5.76388e-07
1.26157e-05
-6.26421e-07
1.25902e-05
-5.75756e-07
1.26158e-05
-6.26891e-07
1.25901e-05
-5.75578e-07
1.26161e-05
-6.27228e-07
1.259e-05
-5.75176e-07
1.2616e-05
-6.27314e-07
1.25899e-05
-5.75111e-07
1.26161e-05
-6.27503e-07
1.25901e-05
-5.75261e-07
1.26159e-05
-6.2708e-07
1.25902e-05
-5.75554e-07
1.26156e-05
-6.26629e-07
1.25906e-05
-5.76316e-07
1.26154e-05
-6.2602e-07
1.2591e-05
-5.76879e-07
1.26149e-05
-6.25184e-07
1.25916e-05
-5.77974e-07
1.26146e-05
-6.24263e-07
1.25922e-05
-5.78792e-07
1.26141e-05
-6.23179e-07
1.25929e-05
-5.80116e-07
1.26137e-05
-6.22032e-07
1.25936e-05
-5.81156e-07
1.2613e-05
-6.20733e-07
1.25942e-05
-5.82386e-07
1.26126e-05
-6.19647e-07
1.2595e-05
-5.83737e-07
1.26119e-05
-6.18152e-07
1.25957e-05
-5.85068e-07
1.26114e-05
-6.16983e-07
1.25966e-05
-5.86431e-07
1.26108e-05
-6.15424e-07
1.25972e-05
-5.87719e-07
1.26102e-05
-6.14295e-07
1.2598e-05
-5.89059e-07
1.26096e-05
-6.12847e-07
1.25987e-05
-5.90335e-07
1.26092e-05
-6.11781e-07
1.25995e-05
-5.91516e-07
1.26086e-05
-6.10372e-07
1.25999e-05
-5.92586e-07
1.26081e-05
-6.09514e-07
1.26005e-05
-5.93648e-07
1.26076e-05
-6.08363e-07
1.2601e-05
-5.94667e-07
1.26074e-05
-6.07607e-07
1.26016e-05
-5.95475e-07
1.26068e-05
-6.0648e-07
1.26018e-05
-5.963e-07
1.26063e-05
-6.05719e-07
1.26023e-05
-5.97347e-07
1.2606e-05
-6.04887e-07
1.26029e-05
-5.98154e-07
1.26058e-05
-6.04255e-07
1.26031e-05
-5.98493e-07
1.26054e-05
-6.03581e-07
1.26032e-05
-5.99076e-07
1.26051e-05
-6.03171e-07
1.26033e-05
-5.99475e-07
1.26049e-05
-6.02832e-07
1.26037e-05
-6.00056e-07
1.26049e-05
-6.02463e-07
1.26037e-05
-6.00123e-07
1.26047e-05
-6.02218e-07
1.26037e-05
-6.00262e-07
1.26044e-05
-6.01937e-07
1.26036e-05
-6.00553e-07
1.26044e-05
-6.02025e-07
1.26039e-05
-6.00807e-07
1.26043e-05
-6.01649e-07
1.2604e-05
-6.00953e-07
1.26042e-05
-6.01417e-07
1.26037e-05
-6.00823e-07
1.26041e-05
-6.0161e-07
1.26038e-05
-6.00977e-07
1.26041e-05
-6.01544e-07
1.26039e-05
-6.0113e-07
1.26042e-05
-6.01549e-07
1.26039e-05
-6.01e-07
1.26039e-05
-6.01257e-07
1.26038e-05
-6.01086e-07
1.26038e-05
-6.01306e-07
1.26037e-05
-6.01131e-07
1.26041e-05
-6.01657e-07
1.2604e-05
-6.01209e-07
1.26041e-05
-6.01379e-07
1.26038e-05
-6.00998e-07
1.2604e-05
-6.01397e-07
1.26036e-05
-6.00863e-07
1.26037e-05
-6.01397e-07
1.26037e-05
-6.01248e-07
1.2604e-05
-6.01587e-07
1.26039e-05
-6.01158e-07
1.26042e-05
-6.01561e-07
1.2604e-05
-6.01068e-07
1.2604e-05
-6.01216e-07
1.26035e-05
-6.00771e-07
1.2604e-05
-6.01807e-07
1.26037e-05
-6.00986e-07
1.26044e-05
-6.01979e-07
1.26043e-05
-6.01108e-07
1.26022e-05
-5.99157e-07
1.26091e-05
-6.08185e-07
1.26024e-05
-5.94585e-07
1.26014e-05
-6.00271e-07
1.26017e-05
-6.01528e-07
1.26013e-05
-6.00878e-07
1.25963e-05
-5.9631e-07
1.2607e-05
-6.11882e-07
1.26592e-05
-6.53498e-07
1.25153e-05
-4.57393e-07
1.28935e-05
-9.79467e-07
1.22386e-05
5.36529e-08
1.01883e-05
1.44902e-06
1.08919e-05
-1.30488e-06
1.1279e-05
-9.88327e-07
-6.94084e-07
2.17086e-05
5.19026e-06
2.06846e-05
3.50645e-06
1.95879e-05
2.3965e-06
1.87131e-05
1.15959e-06
1.81467e-05
3.20415e-07
1.77807e-05
-1.05155e-07
1.75422e-05
-3.33437e-07
1.7384e-05
-4.56017e-07
1.72741e-05
-5.24027e-07
1.72069e-05
-5.76482e-07
1.71711e-05
-6.10363e-07
1.71562e-05
-6.2783e-07
1.71584e-05
-6.46549e-07
1.71708e-05
-6.5603e-07
1.71928e-05
-6.63341e-07
1.72251e-05
-6.7742e-07
1.72649e-05
-6.84996e-07
1.73116e-05
-6.92005e-07
1.73636e-05
-6.97632e-07
1.74196e-05
-7.01458e-07
1.74785e-05
-7.04328e-07
1.75397e-05
-7.08971e-07
1.76032e-05
-7.14447e-07
1.76662e-05
-7.1457e-07
1.77252e-05
-7.07118e-07
1.77793e-05
-6.9793e-07
1.7828e-05
-6.87776e-07
1.78713e-05
-6.77595e-07
1.79094e-05
-6.67762e-07
1.79427e-05
-6.59026e-07
1.7972e-05
-6.5158e-07
1.79974e-05
-6.44259e-07
1.80188e-05
-6.37156e-07
1.80365e-05
-6.30614e-07
1.80513e-05
-6.2551e-07
1.80639e-05
-6.21793e-07
1.80747e-05
-6.18697e-07
1.80839e-05
-6.16122e-07
1.80919e-05
-6.13946e-07
1.80986e-05
-6.121e-07
1.81045e-05
-6.1053e-07
1.81094e-05
-6.09165e-07
1.81137e-05
-6.08036e-07
1.81173e-05
-6.07013e-07
1.81204e-05
-6.06196e-07
1.8123e-05
-6.05476e-07
1.81253e-05
-6.04834e-07
1.81273e-05
-6.04427e-07
1.8129e-05
-6.03964e-07
1.81306e-05
-6.03627e-07
1.81317e-05
-6.03243e-07
1.81327e-05
-6.02748e-07
1.81334e-05
-6.02539e-07
1.81342e-05
-6.02329e-07
1.81344e-05
-6.01922e-07
1.81337e-05
-5.98844e-07
1.81201e-05
-5.79835e-07
1.7981e-05
-3.14999e-07
1.82078e-05
-1.07174e-06
2.00721e-05
-4.59785e-06
2.09153e-05
-1.88856e-06
2.0066e-05
1.8339e-06
1.99222e-05
-3.99551e-07
1.98172e-05
-4.68688e-07
1.97678e-05
-5.47599e-07
1.97062e-05
-5.27877e-07
1.96608e-05
-5.52294e-07
1.96264e-05
-5.6691e-07
1.96017e-05
-5.79304e-07
1.95832e-05
-5.84437e-07
1.95689e-05
-5.88527e-07
1.95588e-05
-5.93764e-07
1.9552e-05
-5.97594e-07
1.95472e-05
-5.99273e-07
1.95438e-05
-6.00341e-07
1.95415e-05
-6.01107e-07
1.954e-05
-6.01797e-07
1.95388e-05
-6.01658e-07
1.95383e-05
-6.02113e-07
1.95382e-05
-6.02465e-07
1.95382e-05
-6.02323e-07
1.95384e-05
-6.02275e-07
1.95386e-05
-6.02172e-07
1.95389e-05
-6.02118e-07
1.95393e-05
-6.02044e-07
1.95396e-05
-6.01908e-07
1.954e-05
-6.01896e-07
1.95405e-05
-6.02217e-07
1.95409e-05
-6.01774e-07
1.95412e-05
-6.01774e-07
1.95415e-05
-6.01554e-07
1.95417e-05
-6.01555e-07
1.95419e-05
-6.01398e-07
1.9542e-05
-6.01442e-07
1.95423e-05
-6.01772e-07
1.95425e-05
-6.01489e-07
1.95426e-05
-6.01391e-07
1.95427e-05
-6.01344e-07
1.95427e-05
-6.01248e-07
1.95428e-05
-6.01241e-07
1.95428e-05
-6.01223e-07
1.9543e-05
-6.01693e-07
1.9543e-05
-6.01248e-07
1.95431e-05
-6.01368e-07
1.9543e-05
-6.01147e-07
1.9543e-05
-6.01272e-07
1.9543e-05
-6.01096e-07
1.9543e-05
-6.01258e-07
1.95431e-05
-6.01535e-07
1.95431e-05
-6.01317e-07
1.95431e-05
-6.01239e-07
1.95431e-05
-6.01222e-07
1.95431e-05
-6.0116e-07
1.9543e-05
-6.01144e-07
1.9543e-05
-6.01194e-07
1.95431e-05
-6.01576e-07
1.95431e-05
-6.01261e-07
1.95431e-05
-6.01274e-07
1.95431e-05
-6.01168e-07
1.9543e-05
-6.01208e-07
1.95429e-05
-6.01095e-07
1.95429e-05
-6.0126e-07
1.9543e-05
-6.01458e-07
1.95431e-05
-6.01393e-07
1.9543e-05
-6.01103e-07
1.95431e-05
-6.01396e-07
1.95429e-05
-6.0092e-07
1.9543e-05
-6.01408e-07
1.95428e-05
-6.00874e-07
1.9543e-05
-6.01863e-07
1.9543e-05
-6.01079e-07
1.9543e-05
-6.01314e-07
1.95431e-05
-6.01357e-07
1.95428e-05
-6.00748e-07
1.9543e-05
-6.01728e-07
1.95426e-05
-6.00307e-07
1.95431e-05
-6.02588e-07
1.95426e-05
-5.9999e-07
1.95433e-05
-6.02803e-07
1.95425e-05
-5.99387e-07
1.95433e-05
-6.0328e-07
1.95423e-05
-5.98709e-07
1.95436e-05
-6.04451e-07
1.95422e-05
-5.97926e-07
1.95439e-05
-6.05113e-07
1.9542e-05
-5.96844e-07
1.9544e-05
-6.06077e-07
1.95417e-05
-5.9565e-07
1.95444e-05
-6.07804e-07
1.95416e-05
-5.94306e-07
1.95448e-05
-6.09055e-07
1.95413e-05
-5.92614e-07
1.95452e-05
-6.1064e-07
1.95409e-05
-5.90789e-07
1.95457e-05
-6.12997e-07
1.95406e-05
-5.88819e-07
1.95463e-05
-6.14878e-07
1.95402e-05
-5.86509e-07
1.95468e-05
-6.17071e-07
1.95397e-05
-5.8411e-07
1.95475e-05
-6.19983e-07
1.95394e-05
-5.81598e-07
1.95482e-05
-6.2235e-07
1.95389e-05
-5.78818e-07
1.95488e-05
-6.25016e-07
1.95386e-05
-5.76497e-07
1.95496e-05
-6.27799e-07
1.95382e-05
-5.73486e-07
1.95503e-05
-6.30426e-07
1.95377e-05
-5.70728e-07
1.95511e-05
-6.33505e-07
1.95375e-05
-5.6814e-07
1.95519e-05
-6.35781e-07
1.95371e-05
-5.65593e-07
1.95524e-05
-6.38038e-07
1.95369e-05
-5.63789e-07
1.95531e-05
-6.40152e-07
1.95366e-05
-5.61573e-07
1.95536e-05
-6.41858e-07
1.95363e-05
-5.59812e-07
1.95542e-05
-6.43752e-07
1.95363e-05
-5.58523e-07
1.95545e-05
-6.44652e-07
1.95362e-05
-5.57395e-07
1.95547e-05
-6.45439e-07
1.95362e-05
-5.57063e-07
1.9555e-05
-6.46035e-07
1.95362e-05
-5.56382e-07
1.95551e-05
-6.46163e-07
1.95362e-05
-5.56226e-07
1.95552e-05
-6.46485e-07
1.95364e-05
-5.56487e-07
1.95551e-05
-6.45788e-07
1.95365e-05
-5.56947e-07
1.95548e-05
-6.44984e-07
1.95367e-05
-5.58224e-07
1.95547e-05
-6.43962e-07
1.9537e-05
-5.59196e-07
1.95543e-05
-6.42518e-07
1.95374e-05
-5.61053e-07
1.95541e-05
-6.4096e-07
1.95378e-05
-5.62466e-07
1.95537e-05
-6.39075e-07
1.95383e-05
-5.64721e-07
1.95534e-05
-6.37119e-07
1.95387e-05
-5.66518e-07
1.95529e-05
-6.34858e-07
1.95391e-05
-5.68593e-07
1.95524e-05
-6.32986e-07
1.95396e-05
-5.7094e-07
1.95519e-05
-6.30419e-07
1.954e-05
-5.73196e-07
1.95514e-05
-6.28398e-07
1.95406e-05
-5.7557e-07
1.95509e-05
-6.25732e-07
1.95409e-05
-5.77756e-07
1.95504e-05
-6.23781e-07
1.95414e-05
-5.80087e-07
1.95499e-05
-6.21293e-07
1.95417e-05
-5.82218e-07
1.95494e-05
-6.19438e-07
1.95422e-05
-5.84295e-07
1.95489e-05
-6.17054e-07
1.95424e-05
-5.86118e-07
1.95484e-05
-6.1554e-07
1.95428e-05
-5.88024e-07
1.9548e-05
-6.13524e-07
1.9543e-05
-5.89696e-07
1.95476e-05
-6.12174e-07
1.95433e-05
-5.91173e-07
1.95471e-05
-6.10295e-07
1.95433e-05
-5.92507e-07
1.95467e-05
-6.09185e-07
1.95437e-05
-5.94317e-07
1.95462e-05
-6.07353e-07
1.9544e-05
-5.95989e-07
1.95459e-05
-6.06194e-07
1.9544e-05
-5.96546e-07
1.95455e-05
-6.05123e-07
1.95441e-05
-5.97596e-07
1.95454e-05
-6.04475e-07
1.95441e-05
-5.98248e-07
1.95451e-05
-6.03811e-07
1.95442e-05
-5.99154e-07
1.95449e-05
-6.03169e-07
1.9544e-05
-5.99214e-07
1.95447e-05
-6.02893e-07
1.95441e-05
-5.99646e-07
1.95446e-05
-6.02454e-07
1.95441e-05
-6.00094e-07
1.95446e-05
-6.02473e-07
1.95442e-05
-6.0038e-07
1.95443e-05
-6.01787e-07
1.9544e-05
-6.00649e-07
1.95441e-05
-6.0158e-07
1.95439e-05
-6.00572e-07
1.95443e-05
-6.02013e-07
1.95442e-05
-6.00899e-07
1.95443e-05
-6.01649e-07
1.95441e-05
-6.00856e-07
1.95441e-05
-6.01563e-07
1.95437e-05
-6.0067e-07
1.95438e-05
-6.01315e-07
1.95438e-05
-6.01109e-07
1.95441e-05
-6.01581e-07
1.95442e-05
-6.0123e-07
1.95444e-05
-6.01827e-07
1.95441e-05
-6.0097e-07
1.95439e-05
-6.01161e-07
1.95435e-05
-6.00591e-07
1.95437e-05
-6.01566e-07
1.95436e-05
-6.00834e-07
1.95441e-05
-6.01851e-07
1.95444e-05
-6.01511e-07
1.95445e-05
-6.01705e-07
1.95441e-05
-6.00815e-07
1.95439e-05
-6.01319e-07
1.95434e-05
-6.00594e-07
1.95435e-05
-6.01302e-07
1.95436e-05
-6.00835e-07
1.95446e-05
-6.02794e-07
1.95449e-05
-6.01314e-07
1.95447e-05
-6.01832e-07
1.95442e-05
-6.00596e-07
1.95435e-05
-5.98412e-07
1.95483e-05
-6.12998e-07
1.95434e-05
-5.89744e-07
1.95423e-05
-5.99103e-07
1.95428e-05
-6.02001e-07
1.95421e-05
-6.00204e-07
1.95425e-05
-5.96719e-07
1.95524e-05
-6.2175e-07
1.95794e-05
-6.80526e-07
1.94938e-05
-3.71846e-07
1.97509e-05
-1.23651e-06
1.91223e-05
6.822e-07
1.74133e-05
3.15802e-06
1.76538e-05
-1.5453e-06
1.78135e-05
-1.14807e-06
-7.46609e-07
2.29836e-05
4.42541e-06
2.32765e-05
3.21359e-06
2.31094e-05
2.56358e-06
2.26552e-05
1.61382e-06
2.21342e-05
8.41342e-07
2.16777e-05
3.51332e-07
2.13257e-05
1.85984e-08
2.10553e-05
-1.85622e-07
2.08458e-05
-3.14505e-07
2.06976e-05
-4.2831e-07
2.05962e-05
-5.08974e-07
2.05272e-05
-5.58758e-07
2.04863e-05
-6.05739e-07
2.04706e-05
-6.40286e-07
2.04736e-05
-6.66384e-07
2.0491e-05
-6.94735e-07
2.05216e-05
-7.15673e-07
2.05637e-05
-7.3408e-07
2.06139e-05
-7.47838e-07
2.06705e-05
-7.58019e-07
2.0731e-05
-7.64825e-07
2.07928e-05
-7.7083e-07
2.08551e-05
-7.76749e-07
2.09161e-05
-7.75514e-07
2.09729e-05
-7.63974e-07
2.1025e-05
-7.50007e-07
2.1072e-05
-7.34751e-07
2.11139e-05
-7.19467e-07
2.11508e-05
-7.04667e-07
2.11832e-05
-6.91454e-07
2.12118e-05
-6.8016e-07
2.12366e-05
-6.69047e-07
2.12576e-05
-6.58198e-07
2.12751e-05
-6.48106e-07
2.12897e-05
-6.40151e-07
2.13022e-05
-6.34291e-07
2.1313e-05
-6.29419e-07
2.13222e-05
-6.25317e-07
2.133e-05
-6.21838e-07
2.13368e-05
-6.18854e-07
2.13426e-05
-6.1632e-07
2.13475e-05
-6.14106e-07
2.13518e-05
-6.12276e-07
2.13554e-05
-6.10615e-07
2.13585e-05
-6.09298e-07
2.13611e-05
-6.08104e-07
2.13634e-05
-6.07093e-07
2.13653e-05
-6.06382e-07
2.1367e-05
-6.05671e-07
2.13686e-05
-6.05192e-07
2.13697e-05
-6.04394e-07
2.13707e-05
-6.03699e-07
2.13715e-05
-6.03345e-07
2.13722e-05
-6.03012e-07
2.13727e-05
-6.02429e-07
2.1372e-05
-5.98175e-07
2.13658e-05
-5.73648e-07
2.12841e-05
-2.33274e-07
2.14448e-05
-1.2324e-06
2.27876e-05
-5.9407e-06
2.35854e-05
-2.68638e-06
2.32017e-05
2.21766e-06
2.30833e-05
-2.81169e-07
2.29976e-05
-3.83008e-07
2.29474e-05
-4.97359e-07
2.28862e-05
-4.6671e-07
2.28374e-05
-5.03491e-07
2.28004e-05
-5.29959e-07
2.27721e-05
-5.50929e-07
2.27505e-05
-5.62857e-07
2.27335e-05
-5.71567e-07
2.27208e-05
-5.81076e-07
2.27116e-05
-5.88351e-07
2.27047e-05
-5.92413e-07
2.26996e-05
-5.95212e-07
2.26958e-05
-5.97286e-07
2.26931e-05
-5.99066e-07
2.2691e-05
-5.99587e-07
2.26896e-05
-6.00676e-07
2.26887e-05
-6.01597e-07
2.26882e-05
-6.01789e-07
2.26879e-05
-6.0199e-07
2.26878e-05
-6.02069e-07
2.26878e-05
-6.02162e-07
2.26879e-05
-6.02167e-07
2.26881e-05
-6.02098e-07
2.26884e-05
-6.02142e-07
2.26888e-05
-6.02596e-07
2.26891e-05
-6.02089e-07
2.26894e-05
-6.02088e-07
2.26896e-05
-6.01794e-07
2.26899e-05
-6.01788e-07
2.269e-05
-6.01569e-07
2.26902e-05
-6.01576e-07
2.26904e-05
-6.0204e-07
2.26906e-05
-6.01693e-07
2.26908e-05
-6.01527e-07
2.26909e-05
-6.01457e-07
2.26909e-05
-6.013e-07
2.2691e-05
-6.01287e-07
2.2691e-05
-6.01252e-07
2.26912e-05
-6.01839e-07
2.26912e-05
-6.01307e-07
2.26913e-05
-6.01434e-07
2.26913e-05
-6.0114e-07
2.26913e-05
-6.01279e-07
2.26912e-05
-6.01061e-07
2.26912e-05
-6.01249e-07
2.26913e-05
-6.01601e-07
2.26913e-05
-6.01358e-07
2.26913e-05
-6.01246e-07
2.26913e-05
-6.01215e-07
2.26913e-05
-6.01131e-07
2.26913e-05
-6.01105e-07
2.26912e-05
-6.01162e-07
2.26913e-05
-6.01641e-07
2.26913e-05
-6.01278e-07
2.26913e-05
-6.01287e-07
2.26913e-05
-6.01145e-07
2.26913e-05
-6.01188e-07
2.26912e-05
-6.0103e-07
2.26912e-05
-6.01244e-07
2.26912e-05
-6.01492e-07
2.26913e-05
-6.01447e-07
2.26913e-05
-6.01082e-07
2.26913e-05
-6.01414e-07
2.26912e-05
-6.00844e-07
2.26912e-05
-6.01407e-07
2.26911e-05
-6.00773e-07
2.26913e-05
-6.02003e-07
2.26912e-05
-6.01062e-07
2.26912e-05
-6.0127e-07
2.26913e-05
-6.01446e-07
2.26911e-05
-6.00603e-07
2.26912e-05
-6.0183e-07
2.2691e-05
-6.00073e-07
2.26913e-05
-6.0287e-07
2.2691e-05
-5.99709e-07
2.26914e-05
-6.03185e-07
2.2691e-05
-5.98957e-07
2.26914e-05
-6.03739e-07
2.26909e-05
-5.98141e-07
2.26916e-05
-6.0517e-07
2.26909e-05
-5.97215e-07
2.26918e-05
-6.06023e-07
2.26908e-05
-5.95873e-07
2.26919e-05
-6.07161e-07
2.26907e-05
-5.94422e-07
2.26921e-05
-6.09268e-07
2.26906e-05
-5.9282e-07
2.26924e-05
-6.10841e-07
2.26905e-05
-5.9074e-07
2.26926e-05
-6.12734e-07
2.26904e-05
-5.88522e-07
2.2693e-05
-6.15608e-07
2.26903e-05
-5.8616e-07
2.26934e-05
-6.17949e-07
2.26902e-05
-5.83331e-07
2.26937e-05
-6.20581e-07
2.269e-05
-5.80412e-07
2.26942e-05
-6.24129e-07
2.269e-05
-5.77395e-07
2.26947e-05
-6.27053e-07
2.26898e-05
-5.7399e-07
2.26951e-05
-6.30285e-07
2.26898e-05
-5.71157e-07
2.26957e-05
-6.33706e-07
2.26897e-05
-5.67532e-07
2.26962e-05
-6.36879e-07
2.26896e-05
-5.64152e-07
2.26967e-05
-6.40623e-07
2.26896e-05
-5.61028e-07
2.26973e-05
-6.43439e-07
2.26896e-05
-5.57883e-07
2.26977e-05
-6.46167e-07
2.26896e-05
-5.5566e-07
2.26982e-05
-6.48771e-07
2.26896e-05
-5.5299e-07
2.26986e-05
-6.50821e-07
2.26895e-05
-5.50797e-07
2.26989e-05
-6.53138e-07
2.26896e-05
-5.49207e-07
2.26993e-05
-6.54316e-07
2.26896e-05
-5.47742e-07
2.26995e-05
-6.55283e-07
2.26897e-05
-5.47268e-07
2.26997e-05
-6.56069e-07
2.26898e-05
-5.4643e-07
2.26998e-05
-6.56223e-07
2.26897e-05
-5.46155e-07
2.26999e-05
-6.56643e-07
2.26899e-05
-5.46446e-07
2.27e-05
-6.5588e-07
2.26899e-05
-5.46907e-07
2.26998e-05
-6.549e-07
2.269e-05
-5.48388e-07
2.26998e-05
-6.53726e-07
2.26901e-05
-5.49558e-07
2.26996e-05
-6.5198e-07
2.26903e-05
-5.51753e-07
2.26995e-05
-6.50143e-07
2.26905e-05
-5.53472e-07
2.26992e-05
-6.47835e-07
2.26907e-05
-5.56171e-07
2.26991e-05
-6.4549e-07
2.26909e-05
-5.58372e-07
2.26987e-05
-6.42697e-07
2.2691e-05
-5.60854e-07
2.26984e-05
-6.40411e-07
2.26912e-05
-5.63745e-07
2.26981e-05
-6.37303e-07
2.26914e-05
-5.66457e-07
2.26978e-05
-6.348e-07
2.26916e-05
-5.69401e-07
2.26974e-05
-6.3156e-07
2.26917e-05
-5.72048e-07
2.26971e-05
-6.29141e-07
2.2692e-05
-5.74969e-07
2.26968e-05
-6.26088e-07
2.26921e-05
-5.77524e-07
2.26963e-05
-6.23709e-07
2.26922e-05
-5.80197e-07
2.2696e-05
-6.20767e-07
2.26924e-05
-5.8252e-07
2.26955e-05
-6.18709e-07
2.26926e-05
-5.85131e-07
2.26952e-05
-6.16114e-07
2.26927e-05
-5.87134e-07
2.26947e-05
-6.14234e-07
2.26927e-05
-5.89138e-07
2.26944e-05
-6.12039e-07
2.26926e-05
-5.90709e-07
2.26942e-05
-6.10781e-07
2.26928e-05
-5.92881e-07
2.26941e-05
-6.08607e-07
2.26928e-05
-5.94716e-07
2.26937e-05
-6.07164e-07
2.26926e-05
-5.95371e-07
2.26934e-05
-6.05959e-07
2.26926e-05
-5.96809e-07
2.26934e-05
-6.05263e-07
2.26928e-05
-5.97618e-07
2.26933e-05
-6.0428e-07
2.26926e-05
-5.98539e-07
2.26929e-05
-6.03408e-07
2.26922e-05
-5.98582e-07
2.26926e-05
-6.03284e-07
2.26924e-05
-5.99395e-07
2.26928e-05
-6.02884e-07
2.26927e-05
-5.99961e-07
2.26929e-05
-6.02649e-07
2.26925e-05
-5.99988e-07
2.26923e-05
-6.01636e-07
2.2692e-05
-6.00302e-07
2.26921e-05
-6.01723e-07
2.26921e-05
-6.0059e-07
2.26926e-05
-6.02503e-07
2.26928e-05
-6.0109e-07
2.26928e-05
-6.01611e-07
2.26924e-05
-6.00457e-07
2.2692e-05
-6.01231e-07
2.26916e-05
-6.00197e-07
2.26917e-05
-6.01444e-07
2.2692e-05
-6.01389e-07
2.26926e-05
-6.02158e-07
2.2693e-05
-6.0165e-07
2.26929e-05
-6.01779e-07
2.26925e-05
-6.00499e-07
2.26918e-05
-6.00521e-07
2.26911e-05
-5.99912e-07
2.26914e-05
-6.01802e-07
2.26918e-05
-6.01258e-07
2.26927e-05
-6.02737e-07
2.26934e-05
-6.02214e-07
2.26933e-05
-6.01586e-07
2.26926e-05
-6.00117e-07
2.26916e-05
-6.0039e-07
2.26906e-05
-5.99602e-07
2.26909e-05
-6.01555e-07
2.26917e-05
-6.01589e-07
2.26933e-05
-6.04434e-07
2.26944e-05
-6.02437e-07
2.26939e-05
-6.01314e-07
2.26931e-05
-5.99815e-07
2.26924e-05
-5.9765e-07
2.26948e-05
-6.15454e-07
2.26922e-05
-5.87122e-07
2.26912e-05
-5.98128e-07
2.26913e-05
-6.02128e-07
2.26912e-05
-6.00055e-07
2.2694e-05
-5.99535e-07
2.26985e-05
-6.26276e-07
2.27116e-05
-6.93596e-07
2.2664e-05
-3.24282e-07
2.2745e-05
-1.31742e-06
2.23886e-05
1.03852e-06
2.12625e-05
4.2842e-06
2.11427e-05
-1.4255e-06
2.11675e-05
-1.17293e-06
-7.60498e-07
2.32145e-05
3.42962e-06
2.38952e-05
2.53291e-06
2.43731e-05
2.08574e-06
2.45356e-05
1.45131e-06
2.44619e-05
9.14997e-07
2.4247e-05
5.66252e-07
2.39641e-05
3.01473e-07
2.36829e-05
9.56048e-08
2.34423e-05
-7.39273e-08
2.32464e-05
-2.32393e-07
2.30881e-05
-3.50658e-07
2.29637e-05
-4.34378e-07
2.28747e-05
-5.16753e-07
2.28178e-05
-5.8335e-07
2.27864e-05
-6.34972e-07
2.27778e-05
-6.86181e-07
2.27862e-05
-7.24029e-07
2.28089e-05
-7.5681e-07
2.28442e-05
-7.83152e-07
2.28881e-05
-8.01867e-07
2.29374e-05
-8.14163e-07
2.29873e-05
-8.20699e-07
2.30352e-05
-8.24694e-07
2.30807e-05
-8.21041e-07
2.31226e-05
-8.05802e-07
2.31604e-05
-7.87866e-07
2.31942e-05
-7.68554e-07
2.32241e-05
-7.49311e-07
2.32502e-05
-7.30737e-07
2.32729e-05
-7.1424e-07
2.32929e-05
-7.00164e-07
2.33102e-05
-6.86277e-07
2.33246e-05
-6.72673e-07
2.33366e-05
-6.60025e-07
2.33465e-05
-6.5012e-07
2.33551e-05
-6.42842e-07
2.33624e-05
-6.36775e-07
2.33687e-05
-6.31623e-07
2.33742e-05
-6.27245e-07
2.33788e-05
-6.23473e-07
2.33827e-05
-6.20272e-07
2.33861e-05
-6.17477e-07
2.3389e-05
-6.15158e-07
2.33914e-05
-6.13073e-07
2.33935e-05
-6.11399e-07
2.33953e-05
-6.09895e-07
2.33969e-05
-6.08618e-07
2.33982e-05
-6.07715e-07
2.33993e-05
-6.06806e-07
2.34003e-05
-6.06207e-07
2.34012e-05
-6.05213e-07
2.34018e-05
-6.04328e-07
2.34024e-05
-6.03933e-07
2.34028e-05
-6.03445e-07
2.34033e-05
-6.0293e-07
2.34031e-05
-5.9799e-07
2.3404e-05
-5.74487e-07
2.34064e-05
-2.35761e-07
2.34922e-05
-1.31814e-06
2.41093e-05
-6.55783e-06
2.46067e-05
-3.18379e-06
2.46022e-05
2.22216e-06
2.45572e-05
-2.36088e-07
2.45219e-05
-3.47799e-07
2.44945e-05
-4.69961e-07
2.44607e-05
-4.329e-07
2.4431e-05
-4.73755e-07
2.4405e-05
-5.03991e-07
2.43841e-05
-5.29996e-07
2.43678e-05
-5.46573e-07
2.43545e-05
-5.58281e-07
2.4344e-05
-5.70537e-07
2.43358e-05
-5.80154e-07
2.43294e-05
-5.86007e-07
2.43243e-05
-5.90174e-07
2.43204e-05
-5.93307e-07
2.43173e-05
-5.96011e-07
2.43149e-05
-5.97187e-07
2.4313e-05
-5.98806e-07
2.43117e-05
-6.00242e-07
2.43107e-05
-6.00801e-07
2.431e-05
-6.01289e-07
2.43095e-05
-6.01593e-07
2.43092e-05
-6.0186e-07
2.4309e-05
-6.01993e-07
2.4309e-05
-6.02026e-07
2.4309e-05
-6.02135e-07
2.43091e-05
-6.02702e-07
2.43092e-05
-6.0223e-07
2.43094e-05
-6.02227e-07
2.43095e-05
-6.01919e-07
2.43096e-05
-6.01916e-07
2.43097e-05
-6.01672e-07
2.43098e-05
-6.01667e-07
2.431e-05
-6.0219e-07
2.43101e-05
-6.01826e-07
2.43102e-05
-6.01629e-07
2.43103e-05
-6.01544e-07
2.43103e-05
-6.01352e-07
2.43104e-05
-6.01335e-07
2.43104e-05
-6.01277e-07
2.43105e-05
-6.01909e-07
2.43105e-05
-6.01362e-07
2.43106e-05
-6.01483e-07
2.43106e-05
-6.01155e-07
2.43106e-05
-6.01286e-07
2.43106e-05
-6.01053e-07
2.43106e-05
-6.01242e-07
2.43106e-05
-6.01625e-07
2.43106e-05
-6.01386e-07
2.43106e-05
-6.01256e-07
2.43106e-05
-6.01218e-07
2.43106e-05
-6.01122e-07
2.43106e-05
-6.01087e-07
2.43106e-05
-6.01143e-07
2.43106e-05
-6.01657e-07
2.43106e-05
-6.01291e-07
2.43106e-05
-6.01297e-07
2.43106e-05
-6.0114e-07
2.43106e-05
-6.0118e-07
2.43106e-05
-6.00998e-07
2.43106e-05
-6.01227e-07
2.43106e-05
-6.01499e-07
2.43106e-05
-6.01475e-07
2.43106e-05
-6.01078e-07
2.43106e-05
-6.01416e-07
2.43106e-05
-6.00823e-07
2.43106e-05
-6.01392e-07
2.43105e-05
-6.00738e-07
2.43106e-05
-6.02045e-07
2.43106e-05
-6.01066e-07
2.43106e-05
-6.01239e-07
2.43106e-05
-6.01496e-07
2.43105e-05
-6.00538e-07
2.43106e-05
-6.01867e-07
2.43105e-05
-5.99998e-07
2.43106e-05
-6.02952e-07
2.43105e-05
-5.99632e-07
2.43106e-05
-6.03295e-07
2.43105e-05
-5.98841e-07
2.43106e-05
-6.03871e-07
2.43105e-05
-5.97998e-07
2.43107e-05
-6.05369e-07
2.43105e-05
-5.97046e-07
2.43108e-05
-6.0628e-07
2.43105e-05
-5.95637e-07
2.43108e-05
-6.07447e-07
2.43105e-05
-5.94137e-07
2.43109e-05
-6.09651e-07
2.43106e-05
-5.92482e-07
2.43111e-05
-6.1132e-07
2.43106e-05
-5.90306e-07
2.43112e-05
-6.13268e-07
2.43107e-05
-5.8801e-07
2.43113e-05
-6.16269e-07
2.43107e-05
-5.85567e-07
2.43115e-05
-6.18733e-07
2.43108e-05
-5.8262e-07
2.43117e-05
-6.2145e-07
2.43108e-05
-5.79592e-07
2.43119e-05
-6.25144e-07
2.43109e-05
-5.76481e-07
2.43121e-05
-6.28207e-07
2.43111e-05
-5.72942e-07
2.43123e-05
-6.31552e-07
2.43112e-05
-5.69995e-07
2.43126e-05
-6.35137e-07
2.43113e-05
-5.66257e-07
2.43128e-05
-6.38411e-07
2.43114e-05
-5.62734e-07
2.43131e-05
-6.42288e-07
2.43116e-05
-5.59533e-07
2.43134e-05
-6.45225e-07
2.43118e-05
-5.5625e-07
2.43136e-05
-6.48019e-07
2.43119e-05
-5.53941e-07
2.43138e-05
-6.50734e-07
2.43121e-05
-5.51204e-07
2.43141e-05
-6.52815e-07
2.43122e-05
-5.48921e-07
2.43142e-05
-6.55189e-07
2.43123e-05
-5.47308e-07
2.43144e-05
-6.56417e-07
2.43125e-05
-5.45765e-07
2.43145e-05
-6.57373e-07
2.43125e-05
-5.45263e-07
2.43147e-05
-6.58199e-07
2.43127e-05
-5.44426e-07
2.43148e-05
-6.58306e-07
2.43127e-05
-5.44127e-07
2.43148e-05
-6.58693e-07
2.43128e-05
-5.44491e-07
2.43148e-05
-6.57883e-07
2.43129e-05
-5.44965e-07
2.43148e-05
-6.56788e-07
2.43129e-05
-5.46509e-07
2.43147e-05
-6.55562e-07
2.4313e-05
-5.47786e-07
2.43146e-05
-6.53676e-07
2.4313e-05
-5.50075e-07
2.43146e-05
-6.51762e-07
2.4313e-05
-5.51921e-07
2.43145e-05
-6.49289e-07
2.43131e-05
-5.54735e-07
2.43144e-05
-6.46858e-07
2.43131e-05
-5.57004e-07
2.43143e-05
-6.43951e-07
2.4313e-05
-5.59563e-07
2.43142e-05
-6.41588e-07
2.4313e-05
-5.62547e-07
2.43141e-05
-6.38375e-07
2.43129e-05
-5.65338e-07
2.43139e-05
-6.35779e-07
2.43129e-05
-5.68369e-07
2.43138e-05
-6.32445e-07
2.43128e-05
-5.71109e-07
2.43137e-05
-6.29964e-07
2.43128e-05
-5.74131e-07
2.43135e-05
-6.26796e-07
2.43127e-05
-5.76722e-07
2.43133e-05
-6.2431e-07
2.43126e-05
-5.79461e-07
2.43132e-05
-6.21334e-07
2.43125e-05
-5.81893e-07
2.43131e-05
-6.1926e-07
2.43126e-05
-5.84595e-07
2.4313e-05
-6.16532e-07
2.43124e-05
-5.86561e-07
2.43127e-05
-6.14533e-07
2.43122e-05
-5.88607e-07
2.43125e-05
-6.12366e-07
2.43121e-05
-5.9034e-07
2.43125e-05
-6.11186e-07
2.43122e-05
-5.92549e-07
2.43125e-05
-6.08896e-07
2.4312e-05
-5.94244e-07
2.43121e-05
-6.07293e-07
2.43117e-05
-5.94892e-07
2.43119e-05
-6.06195e-07
2.43117e-05
-5.96643e-07
2.43121e-05
-6.05623e-07
2.4312e-05
-5.9754e-07
2.43121e-05
-6.04327e-07
2.43117e-05
-5.98202e-07
2.43115e-05
-6.03219e-07
2.43112e-05
-5.98218e-07
2.43113e-05
-6.03433e-07
2.43114e-05
-5.99471e-07
2.43118e-05
-6.0326e-07
2.43119e-05
-6.00137e-07
2.43119e-05
-6.02596e-07
2.43115e-05
-5.99636e-07
2.43111e-05
-6.01231e-07
2.43107e-05
-5.99892e-07
2.43109e-05
-6.01867e-07
2.43111e-05
-6.00862e-07
2.43117e-05
-6.03069e-07
2.43122e-05
-6.01539e-07
2.4312e-05
-6.01441e-07
2.43115e-05
-5.99974e-07
2.43109e-05
-6.00579e-07
2.43102e-05
-5.99582e-07
2.43104e-05
-6.0164e-07
2.43109e-05
-6.01897e-07
2.43118e-05
-6.03019e-07
2.43125e-05
-6.02367e-07
2.43123e-05
-6.01544e-07
2.43116e-05
-5.99822e-07
2.43106e-05
-5.99485e-07
2.43096e-05
-5.98977e-07
2.431e-05
-6.02116e-07
2.43107e-05
-6.02047e-07
2.43121e-05
-6.04049e-07
2.43132e-05
-6.03349e-07
2.43129e-05
-6.01251e-07
2.43118e-05
-5.99093e-07
2.43103e-05
-5.98818e-07
2.43088e-05
-5.98117e-07
2.43092e-05