/*--------------------------------*- C++ -*----------------------------------*\
| =========                 |                                                 |
| \\      /  F ield         | foam-extend: Open Source CFD                    |
|  \\    /   O peration     | Version:     3.2                                |
|   \\  /    A nd           | Web:         http://www.foam-extend.org         |
|    \\/     M anipulation  | For copyright notice see file Copyright         |
\*---------------------------------------------------------------------------*/
FoamFile
{
    version     2.0;
    format      ascii;
    class       areaVectorField;
    location    "2000";
    object      aMeshCentreN;
}
// * * * * * * * * * * * * * * * * * * * * * * * * * * * * * * * * * * * * * //

dimensions      [0 0 0 0 0 0 0];

internalField   nonuniform List<vector> 
300
(
(0.025 0.01 -0.000125)
(0.075 0.01 -0.000375)
(0.125 0.01 -0.000625)
(0.175 0.01 -0.000875)
(0.225 0.01 -0.001125)
(0.275 0.01 -0.001375)
(0.325 0.01 -0.001625)
(0.375 0.01 -0.001875)
(0.425 0.01 -0.002125)
(0.475 0.01 -0.002375)
(0.525 0.01 -0.002625)
(0.575 0.01 -0.002875)
(0.625 0.01 -0.003125)
(0.675 0.01 -0.003375)
(0.725 0.01 -0.003625)
(0.775 0.01 -0.003875)
(0.825 0.01 -0.004125)
(0.875 0.01 -0.004375)
(0.925 0.01 -0.004625)
(0.975 0.01 -0.004875)
(1.025 0.01 -0.005125)
(1.075 0.01 -0.005375)
(1.125 0.01 -0.005625)
(1.175 0.01 -0.005875)
(1.225 0.01 -0.006125)
(1.275 0.01 -0.006375)
(1.325 0.01 -0.006625)
(1.375 0.01 -0.006875)
(1.425 0.01 -0.007125)
(1.475 0.01 -0.007375)
(1.525 0.01 -0.007625)
(1.575 0.01 -0.007875)
(1.625 0.01 -0.008125)
(1.675 0.01 -0.008375)
(1.725 0.01 -0.008625)
(1.775 0.01 -0.008875)
(1.825 0.01 -0.009125)
(1.875 0.01 -0.009375)
(1.925 0.01 -0.009625)
(1.975 0.01 -0.009875)
(2.025 0.01 -0.010125)
(2.075 0.01 -0.010375)
(2.125 0.01 -0.010625)
(2.175 0.01 -0.010875)
(2.225 0.01 -0.011125)
(2.275 0.01 -0.011375)
(2.325 0.01 -0.011625)
(2.375 0.01 -0.011875)
(2.425 0.01 -0.012125)
(2.475 0.01 -0.012375)
(2.525 0.01 -0.012625)
(2.575 0.01 -0.012875)
(2.625 0.01 -0.013125)
(2.675 0.01 -0.013375)
(2.725 0.01 -0.013625)
(2.775 0.01 -0.013875)
(2.825 0.01 -0.014125)
(2.875 0.01 -0.014375)
(2.925 0.01 -0.014625)
(2.975 0.01 -0.0139875)
(3.025 0.01 -0.0128349)
(3.075 0.01 -0.0129058)
(3.125 0.01 -0.013482)
(3.175 0.01 -0.0137426)
(3.225 0.01 -0.0140164)
(3.275 0.01 -0.0142846)
(3.325 0.01 -0.0145614)
(3.375 0.01 -0.014835)
(3.425 0.01 -0.0151068)
(3.475 0.01 -0.0153763)
(3.525 0.01 -0.0156447)
(3.575 0.01 -0.0159112)
(3.625 0.01 -0.0161756)
(3.675 0.01 -0.0164379)
(3.725 0.01 -0.0166987)
(3.775 0.01 -0.016958)
(3.825 0.01 -0.0172159)
(3.875 0.01 -0.0174727)
(3.925 0.01 -0.0177284)
(3.975 0.01 -0.0179831)
(4.025 0.01 -0.0182369)
(4.075 0.01 -0.01849)
(4.125 0.01 -0.0187425)
(4.175 0.01 -0.0189944)
(4.225 0.01 -0.019246)
(4.275 0.01 -0.0194971)
(4.325 0.01 -0.019748)
(4.375 0.01 -0.0199986)
(4.425 0.01 -0.0202489)
(4.475 0.01 -0.0204991)
(4.525 0.01 -0.0207493)
(4.575 0.01 -0.0209994)
(4.625 0.01 -0.0212494)
(4.675 0.01 -0.0214995)
(4.725 0.01 -0.0217494)
(4.775 0.01 -0.0219992)
(4.825 0.01 -0.0222492)
(4.875 0.01 -0.0224991)
(4.925 0.01 -0.022749)
(4.975 0.01 -0.022999)
(5.025 0.01 -0.023249)
(5.075 0.01 -0.0234989)
(5.125 0.01 -0.0237487)
(5.175 0.01 -0.0239987)
(5.225 0.01 -0.0242486)
(5.275 0.01 -0.0244986)
(5.325 0.01 -0.0247486)
(5.375 0.01 -0.0249987)
(5.425 0.01 -0.0252486)
(5.475 0.01 -0.0254986)
(5.525 0.01 -0.0257485)
(5.575 0.01 -0.0259985)
(5.625 0.01 -0.0262486)
(5.675 0.01 -0.0264986)
(5.725 0.01 -0.0267486)
(5.775 0.01 -0.0269986)
(5.825 0.01 -0.0272486)
(5.875 0.01 -0.0274986)
(5.925 0.01 -0.0277486)
(5.975 0.01 -0.0279986)
(6.025 0.01 -0.0282486)
(6.075 0.01 -0.0284987)
(6.125 0.01 -0.0287487)
(6.175 0.01 -0.0289986)
(6.225 0.01 -0.0292486)
(6.275 0.01 -0.0294986)
(6.325 0.01 -0.0297487)
(6.375 0.01 -0.0299987)
(6.425 0.01 -0.0302488)
(6.475 0.01 -0.0304987)
(6.525 0.01 -0.0307486)
(6.575 0.01 -0.0309987)
(6.625 0.01 -0.0312487)
(6.675 0.01 -0.0314987)
(6.725 0.01 -0.0317487)
(6.775 0.01 -0.0319988)
(6.825 0.01 -0.0322488)
(6.875 0.01 -0.0324988)
(6.925 0.01 -0.0327487)
(6.975 0.01 -0.0329988)
(7.025 0.01 -0.0332487)
(7.075 0.01 -0.0334988)
(7.125 0.01 -0.0337487)
(7.175 0.01 -0.0339987)
(7.225 0.01 -0.0342485)
(7.275 0.01 -0.0344986)
(7.325 0.01 -0.0347485)
(7.375 0.01 -0.0349987)
(7.425 0.01 -0.0352484)
(7.475 0.01 -0.0354985)
(7.525 0.01 -0.0357482)
(7.575 0.01 -0.0359984)
(7.625 0.01 -0.0362481)
(7.675 0.01 -0.0364983)
(7.725 0.01 -0.036748)
(7.775 0.01 -0.0369981)
(7.825 0.01 -0.0372477)
(7.875 0.01 -0.0374979)
(7.925 0.01 -0.0377475)
(7.975 0.01 -0.0379977)
(8.025 0.01 -0.0382473)
(8.075 0.01 -0.0384974)
(8.125 0.01 -0.038747)
(8.175 0.01 -0.0389972)
(8.225 0.01 -0.0392467)
(8.275 0.01 -0.0394968)
(8.325 0.01 -0.0397463)
(8.375 0.01 -0.0399965)
(8.425 0.01 -0.040246)
(8.475 0.01 -0.0404961)
(8.525 0.01 -0.0407456)
(8.575 0.01 -0.0409957)
(8.625 0.01 -0.0412452)
(8.675 0.01 -0.0414953)
(8.725 0.01 -0.0417449)
(8.775 0.01 -0.0419949)
(8.825 0.01 -0.0422445)
(8.875 0.01 -0.0424945)
(8.925 0.01 -0.0427442)
(8.975 0.01 -0.0429942)
(9.025 0.01 -0.0432438)
(9.075 0.01 -0.0434938)
(9.125 0.01 -0.0437435)
(9.175 0.01 -0.0439935)
(9.225 0.01 -0.0442433)
(9.275 0.01 -0.0444932)
(9.325 0.01 -0.044743)
(9.375 0.01 -0.0449929)
(9.425 0.01 -0.0452428)
(9.475 0.01 -0.0454928)
(9.525 0.01 -0.0457427)
(9.575 0.01 -0.0459926)
(9.625 0.01 -0.0462426)
(9.675 0.01 -0.0464924)
(9.725 0.01 -0.0467426)
(9.775 0.01 -0.0469924)
(9.825 0.01 -0.0472425)
(9.875 0.01 -0.0474923)
(9.925 0.01 -0.0477425)
(9.975 0.01 -0.0479923)
(10.025 0.01 -0.0482424)
(10.075 0.01 -0.0484922)
(10.125 0.01 -0.0487425)
(10.175 0.01 -0.0489922)
(10.225 0.01 -0.0492425)
(10.275 0.01 -0.0494922)
(10.325 0.01 -0.0497425)
(10.375 0.01 -0.0499924)
(10.425 0.01 -0.0502427)
(10.475 0.01 -0.0504924)
(10.525 0.01 -0.0507428)
(10.575 0.01 -0.0509926)
(10.625 0.01 -0.0512429)
(10.675 0.01 -0.0514927)
(10.725 0.01 -0.051743)
(10.775 0.01 -0.0519929)
(10.825 0.01 -0.0522432)
(10.875 0.01 -0.052493)
(10.925 0.01 -0.0527434)
(10.975 0.01 -0.0529933)
(11.025 0.01 -0.0532436)
(11.075 0.01 -0.0534934)
(11.125 0.01 -0.0537438)
(11.175 0.01 -0.0539937)
(11.225 0.01 -0.054244)
(11.275 0.01 -0.0544939)
(11.325 0.01 -0.0547443)
(11.375 0.01 -0.0549942)
(11.425 0.01 -0.0552445)
(11.475 0.01 -0.0554944)
(11.525 0.01 -0.0557447)
(11.575 0.01 -0.0559947)
(11.625 0.01 -0.056245)
(11.675 0.01 -0.056495)
(11.725 0.01 -0.0567452)
(11.775 0.01 -0.0569952)
(11.825 0.01 -0.0572453)
(11.875 0.01 -0.0574954)
(11.925 0.01 -0.0577456)
(11.975 0.01 -0.0579957)
(12.025 0.01 -0.0582459)
(12.075 0.01 -0.0584959)
(12.125 0.01 -0.0587461)
(12.175 0.01 -0.0589961)
(12.225 0.01 -0.0592462)
(12.275 0.01 -0.0594963)
(12.325 0.01 -0.0597464)
(12.375 0.01 -0.0599965)
(12.425 0.01 -0.0602466)
(12.475 0.01 -0.0604967)
(12.525 0.01 -0.0607468)
(12.575 0.01 -0.0609968)
(12.625 0.01 -0.0612469)
(12.675 0.01 -0.0614969)
(12.725 0.01 -0.0617469)
(12.775 0.01 -0.061997)
(12.825 0.01 -0.0622471)
(12.875 0.01 -0.0624971)
(12.925 0.01 -0.0627471)
(12.975 0.01 -0.0629972)
(13.025 0.01 -0.0632472)
(13.075 0.01 -0.0634972)
(13.125 0.01 -0.0637473)
(13.175 0.01 -0.0639973)
(13.225 0.01 -0.0642473)
(13.275 0.01 -0.0644974)
(13.325 0.01 -0.0647473)
(13.375 0.01 -0.0649973)
(13.425 0.01 -0.0652473)
(13.475 0.01 -0.0654973)
(13.525 0.01 -0.0657473)
(13.575 0.01 -0.0659974)
(13.625 0.01 -0.0662475)
(13.675 0.01 -0.0664974)
(13.725 0.01 -0.0667474)
(13.775 0.01 -0.0669973)
(13.825 0.01 -0.0672473)
(13.875 0.01 -0.0674972)
(13.925 0.01 -0.0677472)
(13.975 0.01 -0.0679974)
(14.025 0.01 -0.0682473)
(14.075 0.01 -0.0684972)
(14.125 0.01 -0.0687473)
(14.175 0.01 -0.068997)
(14.225 0.01 -0.0692473)
(14.275 0.01 -0.0694955)
(14.325 0.01 -0.0697453)
(14.375 0.01 -0.0699981)
(14.425 0.01 -0.0702484)
(14.475 0.01 -0.0704986)
(14.525 0.01 -0.0707469)
(14.575 0.01 -0.070996)
(14.625 0.01 -0.0712257)
(14.675 0.01 -0.0715133)
(14.725 0.01 -0.0717531)
(14.775 0.01 -0.0720576)
(14.825 0.01 -0.0732781)
(14.875 0.01 -0.074375)
(14.925 0.01 -0.074625)
(14.975 0.01 -0.074875)
)
;

boundaryField
{
    inlet
    {
        type            calculated;
        value           uniform (0 0 0);
    }
    outlet
    {
        type            calculated;
        value           uniform (0 0 0);
    }
    sideWall
    {
        type            empty;
    }
}


// ************************************************************************* //
