/*--------------------------------*- C++ -*----------------------------------*\
| =========                 |                                                 |
| \\      /  F ield         | foam-extend: Open Source CFD                    |
|  \\    /   O peration     | Version:     3.2                                |
|   \\  /    A nd           | Web:         http://www.foam-extend.org         |
|    \\/     M anipulation  | For copyright notice see file Copyright         |
\*---------------------------------------------------------------------------*/
FoamFile
{
    version     2.0;
    format      ascii;
    class       areaScalarField;
    location    "2000";
    object      angBeta;
}
// * * * * * * * * * * * * * * * * * * * * * * * * * * * * * * * * * * * * * //

dimensions      [0 0 0 0 0 0 0];

internalField   nonuniform List<scalar> 
300
(
0.00499996
0.00499996
0.00499996
0.00499996
0.00499996
0.00499996
0.00499996
0.00499996
0.00499996
0.00499996
0.00499996
0.00499996
0.00499996
0.00499996
0.00499996
0.00499996
0.00499996
0.00499996
0.00499996
0.00499996
0.00499996
0.00499996
0.00499996
0.00499996
0.00499996
0.00499996
0.00499996
0.00499996
0.00499996
0.00499996
0.00499996
0.00499996
0.00499996
0.00499996
0.00499996
0.00499996
0.00499996
0.00499996
0.00499996
0.00499996
0.00499996
0.00499996
0.00499996
0.00499996
0.00499996
0.00499996
0.00499996
0.00499996
0.00499996
0.00499996
0.00499996
0.00499996
0.00499996
0.00499996
0.00499996
0.00499996
0.00499996
0.00499996
0.00499996
0.0304916
0.0156018
0.0184363
0.00461077
0.00581379
0.0051369
0.00559383
0.00547688
0.00546799
0.00540077
0.00538071
0.00535413
0.00530892
0.00526361
0.00523047
0.00519985
0.00517293
0.0051446
0.00512522
0.00510405
0.0050833
0.00506872
0.00505512
0.00504396
0.00503425
0.00502647
0.00502007
0.00501509
0.00500692
0.00500641
0.00500305
0.00500296
0.00500098
0.00500093
0.00500039
0.00499631
0.00499776
0.00499823
0.00499833
0.00499942
0.004999
0.00500025
0.00499594
0.00499929
0.00499797
0.00500029
0.00499938
0.00500101
0.00500032
0.00499786
0.00499908
0.00499984
0.00499999
0.00500066
0.00500084
0.00500112
0.0049977
0.00499993
0.00499957
0.0050007
0.00500025
0.00500159
0.00500045
0.004999
0.00499839
0.00500145
0.00499863
0.00500293
0.00499862
0.00500385
0.00499497
0.00500133
0.00500092
0.004997
0.00500588
0.0049942
0.00500994
0.00498727
0.00501303
0.00498404
0.00501863
0.00497903
0.00502512
0.00496871
0.00503247
0.00496127
0.00504259
0.00495178
0.00505391
0.00493627
0.00506645
0.0049233
0.00508214
0.00490809
0.0050992
0.00488678
0.00511743
0.00486808
0.00513866
0.00484738
0.00516089
0.00482116
0.00518378
0.00479825
0.00520889
0.00477372
0.00523108
0.00474784
0.00525763
0.00472344
0.00528285
0.00469634
0.00530601
0.00467494
0.00532874
0.00465492
0.00534593
0.00463617
0.00536472
0.00462131
0.00538023
0.00460557
0.00539196
0.00459672
0.00540231
0.00459009
0.00540653
0.00458511
0.00541179
0.00458441
0.00541338
0.00458318
0.00541087
0.00458915
0.00540663
0.00459742
0.00539609
0.00460735
0.00538615
0.00462102
0.00537031
0.00463573
0.00535621
0.00465348
0.00533669
0.0046717
0.00531966
0.00469251
0.00530085
0.00471075
0.00527988
0.00473356
0.00525927
0.00475306
0.00523774
0.00477657
0.00521756
0.00479559
0.00519655
0.00481773
0.005177
0.00483577
0.00515765
0.00485675
0.0051404
0.00487262
0.00512256
0.00489053
0.00510692
0.00490437
0.00509244
0.00492012
0.00508075
0.00493047
0.00506746
0.0049431
0.00505409
0.00495294
0.00504735
0.00496349
0.00503762
0.00497026
0.00503153
0.00497705
0.00502251
0.00498235
0.00502009
0.00498504
0.00501667
0.00498972
0.00501347
0.00498955
0.00500924
0.0049945
0.00500578
0.00499668
0.00500725
0.00499481
0.00500497
0.00499655
0.00500419
0.00499593
0.00500425
0.00499934
0.00500284
0.00499836
0.00500275
0.00499538
0.00500174
0.00499807
0.00500367
0.00499755
0.0050051
0.00499703
0.00500211
0.0049957
0.00500196
0.00499576
0.00500223
0.00499864
0.00500627
0.0049906
0.00500492
0.00499989
0.00498601
0.0050291
0.00489882
0.00509223
0.00501968
0.00499298
0.00501208
0.00492005
0.00504376
0.00414577
0.0073569
0.00223601
0.00994401
0.038856
0.00499996
0.00499996
0.00499996
)
;

boundaryField
{
    inlet
    {
        type            calculated;
        value           uniform 0;
    }
    outlet
    {
        type            calculated;
        value           uniform 0;
    }
    sideWall
    {
        type            empty;
    }
}


// ************************************************************************* //
