/*--------------------------------*- C++ -*----------------------------------*\
| =========                 |                                                 |
| \\      /  F ield         | foam-extend: Open Source CFD                    |
|  \\    /   O peration     | Version:     3.2                                |
|   \\  /    A nd           | Web:         http://www.foam-extend.org         |
|    \\/     M anipulation  | For copyright notice see file Copyright         |
\*---------------------------------------------------------------------------*/
FoamFile
{
    version     2.0;
    format      ascii;
    class       areaVectorField;
    location    "2000";
    object      aUf;
}
// * * * * * * * * * * * * * * * * * * * * * * * * * * * * * * * * * * * * * //

dimensions      [0 1 -1 0 0 0 0];

internalField   nonuniform List<vector> 
300
(
(0.33083 0 0.0047272)
(0.366187 0 0.00275939)
(0.336706 0 0.000323169)
(0.309331 0 -0.000993526)
(0.292484 -2.54711e-26 -0.00135225)
(0.285241 -2.65136e-42 -0.00146862)
(0.282383 -1.5661e-26 -0.00150445)
(0.282028 4.44604e-43 -0.00150187)
(0.282506 1.15481e-26 -0.001501)
(0.283482 3.14181e-42 -0.00149992)
(0.284652 5.57597e-27 -0.00149571)
(0.285839 3.71868e-27 -0.00149006)
(0.286985 0 -0.00149311)
(0.288189 1.65301e-27 -0.00149591)
(0.289339 2.12988e-27 -0.00149746)
(0.2905 -1.3068e-28 -0.00150572)
(0.291726 -5.41271e-28 -0.00150989)
(0.292944 1.13727e-27 -0.00151434)
(0.294185 -1.61643e-27 -0.00151966)
(0.295429 0 -0.00152471)
(0.296672 0 -0.00153015)
(0.297911 2.40576e-27 -0.00153891)
(0.299182 2.56413e-27 -0.00154926)
(0.300481 0 -0.00155627)
(0.301734 0 -0.00155833)
(0.302883 2.50861e-27 -0.00155921)
(0.303916 0 -0.00155897)
(0.304822 0 -0.00155818)
(0.305606 0 -0.00155705)
(0.306277 1.76772e-27 -0.00155606)
(0.30685 0 -0.00155529)
(0.307339 0 -0.00155413)
(0.307746 -1.25498e-27 -0.00155275)
(0.30808 0 -0.00155143)
(0.308346 0 -0.00155062)
(0.308567 0 -0.00155027)
(0.308749 -6.71246e-28 -0.00154993)
(0.308904 0 -0.00154973)
(0.309033 0 -0.00154954)
(0.309144 0 -0.00154944)
(0.309236 -3.71323e-28 -0.00154933)
(0.309317 -4.93298e-43 -0.00154928)
(0.309383 0 -0.0015492)
(0.309443 0 -0.00154916)
(0.309489 -2.00726e-28 -0.00154908)
(0.309535 0 -0.00154912)
(0.309567 -4.94295e-43 -0.00154899)
(0.309602 0 -0.00154912)
(0.309623 0 -0.00154897)
(0.309654 0 -0.00154894)
(0.309656 0 -0.00154901)
(0.309709 -2.75719e-36 -0.00154915)
(0.309648 0 -0.00154836)
(0.309813 3.55489e-28 -0.00155001)
(0.309499 0 -0.00154637)
(0.310184 0 -0.0015522)
(0.308722 -1.94668e-27 -0.00152759)
(0.311494 4.81751e-28 -0.00139833)
(0.301288 0 -0.00186193)
(0.320555 -1.53289e-24 0.00698293)
(0.365069 0 0.00617523)
(0.356106 -1.20904e-27 -0.00444885)
(0.337966 0 -0.00188427)
(0.338258 0 -0.00200275)
(0.336469 0 -0.00177534)
(0.336541 8.46036e-27 -0.00187752)
(0.336268 0 -0.0018535)
(0.336284 3.5913e-27 -0.001849)
(0.336296 0 -0.00182962)
(0.336368 0 -0.001818)
(0.336389 5.0446e-31 -0.00180764)
(0.336424 9.73734e-28 -0.00179295)
(0.336467 -2.66165e-31 -0.00177776)
(0.336515 4.44046e-28 -0.00176566)
(0.336554 -2.81027e-28 -0.00175466)
(0.336586 -2.19173e-31 -0.00174503)
(0.336614 1.32802e-28 -0.0017352)
(0.336638 -4.91746e-29 -0.00172805)
(0.336651 4.24366e-29 -0.00172065)
(0.336666 0 -0.00171349)
(0.336677 1.05469e-28 -0.00170798)
(0.336685 -5.61597e-32 -0.00170294)
(0.336691 0 -0.00169913)
(0.336695 0 -0.00169572)
(0.336697 9.40093e-29 -0.00169296)
(0.3367 0 -0.00169061)
(0.336699 8.60836e-29 -0.00168891)
(0.336702 0 -0.00168636)
(0.336705 0 -0.00168579)
(0.336705 5.63409e-29 -0.0016847)
(0.336706 0 -0.00168448)
(0.336705 -3.89226e-29 -0.0016839)
(0.336705 2.34941e-29 -0.00168377)
(0.336703 0 -0.0016837)
(0.336704 0 -0.00168253)
(0.336707 -1.36029e-29 -0.00168275)
(0.336707 0 -0.00168291)
(0.336708 -1.01067e-29 -0.00168292)
(0.336706 -2.34442e-30 -0.00168328)
(0.336707 0 -0.00168314)
(0.336704 0 -0.00168353)
(0.336706 0 -0.00168249)
(0.336708 0 -0.00168319)
(0.336708 0 -0.00168289)
(0.336708 0 -0.00168355)
(0.336708 1.30443e-32 -0.00168337)
(0.336707 0 -0.00168375)
(0.336705 -1.03395e-29 -0.00168366)
(0.336707 0 -0.00168305)
(0.336709 0 -0.00168323)
(0.336709 3.86988e-30 -0.00168347)
(0.336709 -8.86529e-30 -0.00168352)
(0.336708 0 -0.00168371)
(0.336708 -7.51659e-34 -0.00168376)
(0.336705 -6.72872e-30 -0.00168387)
(0.336707 1.62692e-29 -0.00168304)
(0.336708 -1.18926e-29 -0.00168348)
(0.336709 -4.29078e-31 -0.00168341)
(0.336708 6.41587e-30 -0.00168371)
(0.336708 0 -0.00168361)
(0.336706 9.72441e-30 -0.00168397)
(0.336705 -4.9325e-30 -0.00168372)
(0.336705 1.00269e-29 -0.00168338)
(0.336709 -1.90133e-32 -0.00168305)
(0.336706 0 -0.00168388)
(0.336709 6.0294e-31 -0.00168323)
(0.336705 0 -0.00168427)
(0.336707 -3.00887e-30 -0.00168325)
(0.336703 0 -0.0016845)
(0.336704 3.96639e-29 -0.00168236)
(0.336709 0 -0.00168377)
(0.336703 0 -0.00168397)
(0.336714 0 -0.00168251)
(0.336697 3.74301e-29 -0.00168517)
(0.336715 0 -0.00168198)
(0.33669 0 -0.00168612)
(0.336716 2.642e-31 -0.00168035)
(0.336689 -6.06267e-29 -0.00168683)
(0.336722 0 -0.0016794)
(0.336683 -8.55599e-29 -0.00168825)
(0.336726 -4.70435e-31 -0.00167818)
(0.336675 9.43502e-29 -0.0016898)
(0.33673 -1.26963e-28 -0.0016757)
(0.336671 0 -0.00169152)
(0.336738 0 -0.00167376)
(0.336663 0 -0.00169403)
(0.336745 1.96293e-28 -0.00167149)
(0.336651 2.01385e-28 -0.00169672)
(0.336751 -1.35965e-30 -0.00166779)
(0.336645 0 -0.00169965)
(0.336762 0 -0.00166454)
(0.336634 0 -0.00170345)
(0.33677 -3.48198e-28 -0.00166092)
(0.33662 3.59322e-28 -0.00170746)
(0.336778 0 -0.00165588)
(0.336611 4.28313e-28 -0.00171169)
(0.33679 4.76531e-28 -0.00165131)
(0.336598 -5.03089e-28 -0.00171674)
(0.3368 0 -0.00164643)
(0.336583 0 -0.00172192)
(0.336808 0 -0.00164031)
(0.336574 -6.42183e-28 -0.00172714)
(0.336819 0 -0.00163484)
(0.336562 0 -0.00173299)
(0.336827 0 -0.00162912)
(0.336549 0 -0.00173818)
(0.336839 0 -0.00162301)
(0.33654 0 -0.0017442)
(0.336846 -9.13845e-28 -0.00161742)
(0.33653 0 -0.00174996)
(0.336851 0 -0.00161129)
(0.336526 9.95785e-28 -0.0017551)
(0.336857 0 -0.00160637)
(0.336521 -7.25707e-30 -0.00176028)
(0.336858 0 -0.0016019)
(0.336516 0 -0.00176419)
(0.336864 0 -0.00159764)
(0.336516 0 -0.00176838)
(0.336864 -1.17996e-27 -0.00159433)
(0.336514 -2.4236e-27 -0.00177207)
(0.336861 0 -0.00159062)
(0.33652 0 -0.00177486)
(0.336859 0 -0.0015884)
(0.336523 1.3535e-27 -0.00177743)
(0.336854 -1.3733e-27 -0.00158688)
(0.336526 -1.38127e-27 -0.00177859)
(0.336852 0 -0.00158565)
(0.336534 1.43359e-27 -0.00177983)
(0.336846 -2.87383e-27 -0.00158551)
(0.336539 0 -0.00178037)
(0.336837 0 -0.00158525)
(0.336552 -1.48361e-27 -0.00177986)
(0.33683 1.48612e-27 -0.00158653)
(0.336561 1.49518e-27 -0.00177903)
(0.336819 1.48503e-27 -0.00158854)
(0.336571 0 -0.00177675)
(0.336812 2.94024e-27 -0.00159082)
(0.336584 0 -0.00177443)
(0.336802 0 -0.00159405)
(0.336595 0 -0.00177089)
(0.336797 0 -0.00159746)
(0.336609 -1.41009e-27 -0.00176757)
(0.336788 -1.38569e-27 -0.0016017)
(0.336621 0 -0.00176315)
(0.336785 0 -0.00160596)
(0.336635 -1.30789e-27 -0.00175917)
(0.336777 -1.25871e-27 -0.00161089)
(0.336644 -1.24426e-27 -0.00175488)
(0.336769 -1.19871e-27 -0.00161525)
(0.336659 0 -0.00175001)
(0.336765 -1.13392e-27 -0.00162057)
(0.336668 1.1014e-27 -0.00174526)
(0.336759 1.05997e-27 -0.00162524)
(0.336681 -1.02666e-27 -0.00174021)
(0.336756 0 -0.00163069)
(0.336688 0 -0.00173549)
(0.336751 0 -0.0016353)
(0.3367 8.81318e-28 -0.00173055)
(0.336749 0 -0.00164052)
(0.336706 0 -0.00172601)
(0.336745 0 -0.00164495)
(0.336715 -6.77955e-28 -0.00172132)
(0.336744 0 -0.00164985)
(0.336718 -5.78315e-28 -0.00171707)
(0.336741 4.79571e-28 -0.00165402)
(0.336725 0 -0.00171266)
(0.33674 -2.45364e-30 -0.00165828)
(0.336727 0 -0.00170897)
(0.336737 0 -0.00166191)
(0.336732 0 -0.00170538)
(0.336736 0 -0.00166526)
(0.336732 -2.97323e-28 -0.00170264)
(0.336734 3.75428e-28 -0.00166937)
(0.336736 -8.09217e-28 -0.00169845)
(0.336733 9.60147e-28 -0.0016707)
(0.336738 -8.02577e-28 -0.00169639)
(0.336735 0 -0.00167311)
(0.336739 6.81642e-28 -0.00169483)
(0.336733 5.88341e-28 -0.00167547)
(0.336737 -5.81415e-28 -0.00169248)
(0.336734 0 -0.00167703)
(0.336737 0 -0.00169117)
(0.336732 0 -0.00167878)
(0.336735 3.05112e-28 -0.00168918)
(0.336733 0 -0.00168012)
(0.336733 1.54333e-28 -0.00168833)
(0.336731 2.26408e-28 -0.0016802)
(0.336734 -2.67197e-28 -0.00168748)
(0.336731 2.30682e-31 -0.00168154)
(0.336731 0 -0.00168685)
(0.336729 -2.13198e-28 -0.0016815)
(0.336731 1.10723e-28 -0.00168602)
(0.336727 0 -0.00168259)
(0.336728 8.68941e-32 -0.00168497)
(0.336728 0 -0.00168284)
(0.336726 6.41466e-29 -0.0016853)
(0.336727 0 -0.00168244)
(0.336727 -9.10879e-29 -0.00168477)
(0.336727 6.12393e-29 -0.00168306)
(0.336725 -7.37344e-30 -0.00168488)
(0.336725 0 -0.00168283)
(0.336725 0 -0.00168465)
(0.336723 -1.15181e-29 -0.00168336)
(0.336722 6.21489e-29 -0.00168419)
(0.336725 0 -0.0016831)
(0.336721 -4.66481e-29 -0.00168432)
(0.336724 6.66086e-29 -0.00168276)
(0.336723 -2.01391e-32 -0.00168423)
(0.336725 0 -0.00168319)
(0.33672 0 -0.00168455)
(0.336722 0 -0.00168289)
(0.336721 0 -0.00168458)
(0.336721 -1.2941e-29 -0.0016828)
(0.33672 6.85178e-29 -0.00168422)
(0.336724 7.81837e-29 -0.00168276)
(0.336721 -3.36184e-29 -0.00168429)
(0.336723 0 -0.00168268)
(0.336723 -2.21323e-29 -0.00168409)
(0.336724 0 -0.00168304)
(0.33672 4.70429e-29 -0.00168481)
(0.336718 -5.37711e-29 -0.00168122)
(0.336733 0 -0.00168478)
(0.336708 1.99522e-29 -0.00168465)
(0.336764 3.91247e-31 -0.001679)
(0.336668 0 -0.00169019)
(0.336755 -6.4176e-28 -0.00165995)
(0.336797 1.41364e-27 -0.0017043)
(0.336657 3.20997e-28 -0.00168952)
(0.33673 3.04849e-28 -0.00168237)
(0.336578 -2.50965e-28 -0.00168628)
(0.336865 -2.95499e-27 -0.00165213)
(0.336162 1.05378e-27 -0.00171059)
(0.337589 -6.18651e-27 -0.0014672)
(0.33715 0 -0.00226294)
(0.333618 0 -0.00122745)
(0.348688 -2.31504e-25 -0.00264973)
(0.311316 0 -0.00928964)
(0.291162 1.55104e-25 -0.00283635)
(0.30235 1.86471e-26 -0.00208891)
(0.304893 0 -0.00142811)
)
;

boundaryField
{
    inlet
    {
        type            calculated;
        value           uniform (0 0 0);
    }
    outlet
    {
        type            calculated;
        value           uniform (0 0 0);
    }
    sideWall
    {
        type            empty;
    }
}


// ************************************************************************* //
