/*--------------------------------*- C++ -*----------------------------------*\
| =========                 |                                                 |
| \\      /  F ield         | foam-extend: Open Source CFD                    |
|  \\    /   O peration     | Version:     3.2                                |
|   \\  /    A nd           | Web:         http://www.foam-extend.org         |
|    \\/     M anipulation  | For copyright notice see file Copyright         |
\*---------------------------------------------------------------------------*/
FoamFile
{
    version     2.0;
    format      ascii;
    class       areaScalarField;
    location    "2000";
    object      Ce2;
}
// * * * * * * * * * * * * * * * * * * * * * * * * * * * * * * * * * * * * * //

dimensions      [1 -3 0 0 0 0 0];

internalField   nonuniform List<scalar> 
300
(
0.0305476
0.0420266
0.0322832
0.0246762
0.0206327
0.0190356
0.0184279
0.0183534
0.0184538
0.0186601
0.0189094
0.0191644
0.0194127
0.0196757
0.0199291
0.0201873
0.0204619
0.0207372
0.0210202
0.0213065
0.0215947
0.0218849
0.0221849
0.0224944
0.0227954
0.0230737
0.0233259
0.0235485
0.0237424
0.0239088
0.0240518
0.0241741
0.0242763
0.0243603
0.0244276
0.0244833
0.0245294
0.0245685
0.0246012
0.0246294
0.0246527
0.0246734
0.0246901
0.0247054
0.0247171
0.0247287
0.0247368
0.0247457
0.0247511
0.0247591
0.0247596
0.024773
0.0247576
0.0247995
0.0247196
0.0248941
0.0245224
0.0252296
0.0226938
0.0172875
0.0282393
0.0282698
0.0281087
0.0281232
0.0281144
0.0281205
0.028119
0.0281188
0.028118
0.0281177
0.028103
0.0280965
0.0280919
0.0280918
0.0280955
0.028098
0.0280999
0.0281037
0.0281059
0.028106
0.0281077
0.0281089
0.0281099
0.0281108
0.0281111
0.028112
0.0281118
0.0281105
0.0281111
0.0281119
0.0281121
0.0281125
0.0281126
0.0281124
0.0281108
0.0281115
0.0281118
0.0281124
0.0281122
0.028113
0.0281122
0.0281111
0.0281112
0.0281122
0.0281121
0.0281126
0.0281126
0.0281127
0.0281109
0.0281117
0.0281119
0.0281125
0.0281125
0.0281129
0.0281126
0.0281112
0.0281115
0.0281123
0.0281123
0.0281128
0.0281126
0.0281132
0.0281105
0.0281124
0.0281113
0.0281134
0.0281117
0.0281138
0.028112
0.0281117
0.028112
0.0281108
0.0281155
0.028109
0.0281177
0.0281071
0.0281175
0.0281038
0.0281211
0.0281019
0.0281247
0.028099
0.0281265
0.0280939
0.0281319
0.0280899
0.0281374
0.0280849
0.0281412
0.0280777
0.0281488
0.0280715
0.0281565
0.0280642
0.0281624
0.0280548
0.028172
0.0280467
0.0281815
0.0280378
0.0281889
0.0280272
0.0281995
0.0280183
0.0282095
0.0280069
0.0282181
0.0279986
0.0282281
0.0279901
0.028235
0.0279809
0.0282438
0.0279745
0.028251
0.0279667
0.0282558
0.0279628
0.0282613
0.0279594
0.0282631
0.0279559
0.0282665
0.0279552
0.0282682
0.0279532
0.0282674
0.0279551
0.0282673
0.0279575
0.0282635
0.0279598
0.0282614
0.0279648
0.0282575
0.0279685
0.0282514
0.0279761
0.0282462
0.0279817
0.0282391
0.0279908
0.0282332
0.0279976
0.0282255
0.0280073
0.0282192
0.0280165
0.0282105
0.0280245
0.0282044
0.028034
0.0281958
0.0280418
0.02819
0.028051
0.0281819
0.0280583
0.0281767
0.0280667
0.0281692
0.0280729
0.0281646
0.0280801
0.028158
0.0280856
0.0281544
0.0280919
0.0281485
0.028096
0.0281455
0.0281007
0.0281407
0.0281041
0.0281386
0.0281068
0.0281349
0.0281106
0.0281331
0.0281116
0.0281303
0.028115
0.0281295
0.0281156
0.028127
0.0281175
0.0281245
0.0281174
0.0281249
0.0281192
0.0281232
0.0281192
0.0281231
0.0281183
0.0281215
0.0281191
0.0281207
0.028119
0.0281218
0.0281202
0.0281202
0.0281192
0.0281206
0.0281179
0.0281204
0.0281193
0.02812
0.0281191
0.028121
0.0281198
0.0281193
0.0281189
0.0281209
0.0281183
0.0281212
0.0281199
0.0281205
0.0281185
0.0281215
0.0281204
0.0281165
0.0281239
0.0281148
0.0281342
0.0281008
0.0281492
0.0281155
0.0281145
0.028114
0.0281141
0.0281129
0.0281144
0.0281023
0.0281446
0.0280759
0.0281769
0.0190336
0.0202728
0.022951
0.0235654
)
;

boundaryField
{
    inlet
    {
        type            calculated;
        value           uniform 0;
    }
    outlet
    {
        type            calculated;
        value           uniform 0;
    }
    sideWall
    {
        type            empty;
    }
}


// ************************************************************************* //
