/*--------------------------------*- C++ -*----------------------------------*\
| =========                 |                                                 |
| \\      /  F ield         | foam-extend: Open Source CFD                    |
|  \\    /   O peration     | Version:     3.2                                |
|   \\  /    A nd           | Web:         http://www.foam-extend.org         |
|    \\/     M anipulation  | For copyright notice see file Copyright         |
\*---------------------------------------------------------------------------*/
FoamFile
{
    version     2.0;
    format      ascii;
    class       areaScalarField;
    location    "2000";
    object      Cs;
}
// * * * * * * * * * * * * * * * * * * * * * * * * * * * * * * * * * * * * * //

dimensions      [0 0 0 0 0 0 0];

internalField   nonuniform List<scalar> 
300
(
0.531187
0.531187
0.531187
0.531187
0.531187
0.531187
0.531187
0.531187
0.531187
0.531187
0.531187
0.531187
0.531187
0.531187
0.531187
0.531187
0.531187
0.531187
0.531187
0.531187
0.531187
0.531187
0.531187
0.531187
0.531187
0.531187
0.531187
0.531187
0.531187
0.531187
0.531187
0.531187
0.531187
0.531187
0.531187
0.531187
0.531187
0.531187
0.531187
0.531187
0.531187
0.531187
0.531187
0.531187
0.531187
0.531187
0.531187
0.531187
0.531187
0.531187
0.531187
0.531187
0.531187
0.531187
0.531187
0.531187
0.531187
0.531187
0.531187
0.530256
0.529562
0.52977
0.530591
0.530662
0.530768
0.530828
0.530884
0.530944
0.530989
0.531187
0.531187
0.531187
0.531187
0.531187
0.531187
0.531187
0.531187
0.531187
0.531187
0.531187
0.531187
0.531187
0.531187
0.531187
0.531187
0.531187
0.531187
0.531187
0.531187
0.531187
0.531187
0.531187
0.531187
0.531187
0.531187
0.531178
0.531178
0.531187
0.531187
0.531187
0.53118
0.531184
0.531179
0.531187
0.531187
0.531187
0.531182
0.531184
0.531181
0.531187
0.531187
0.531187
0.531186
0.531181
0.531185
0.531177
0.531187
0.531187
0.531187
0.531187
0.531172
0.531187
0.531167
0.531187
0.531187
0.531187
0.531178
0.531187
0.531187
0.531168
0.531186
0.531125
0.531187
0.531187
0.531149
0.531182
0.531187
0.531187
0.531187
0.531187
0.531187
0.531187
0.531187
0.531187
0.531187
0.531187
0.531187
0.531187
0.531187
0.531187
0.531187
0.531187
0.531187
0.531187
0.531187
0.531187
0.531187
0.531187
0.531187
0.531187
0.531187
0.531187
0.531187
0.531187
0.531187
0.531187
0.531187
0.531187
0.531187
0.531187
0.531187
0.531187
0.531187
0.531187
0.531187
0.531187
0.531187
0.531187
0.531187
0.531187
0.531187
0.531187
0.531187
0.531187
0.531187
0.531187
0.531187
0.531187
0.531187
0.531187
0.531187
0.531187
0.531187
0.531187
0.531187
0.531187
0.531187
0.531187
0.531187
0.531187
0.530988
0.53105
0.530832
0.530903
0.531187
0.531187
0.531187
0.531187
0.530058
0.530085
0.529702
0.529707
0.531187
0.531187
0.531187
0.531187
0.528337
0.528199
0.527809
0.527645
0.531187
0.531187
0.531187
0.531187
0.526002
0.525644
0.525382
0.525013
0.531187
0.531187
0.531187
0.531187
0.523369
0.522797
0.522733
0.52214
0.531187
0.531187
0.531187
0.531187
0.520711
0.51993
0.520094
0.519338
0.531187
0.531187
0.531187
0.531187
0.51825
0.517285
0.517705
0.516817
0.531187
0.531187
0.531187
0.531187
0.516101
0.514988
0.515671
0.514611
0.531187
0.531187
0.531187
0.531187
0.514225
0.51289
0.513826
0.512527
0.531187
0.531187
0.531187
0.531187
0.512462
0.510713
0.512077
0.510295
0.531187
0.531187
0.531187
0.531187
0.510703
0.508323
0.510165
0.507804
0.531187
0.531187
0.531187
0.505068
0.508337
0.502535
0.51253
0.509898
0.506542
0.531187
0.531187
0.531187
0.531187
0.531187
0.531187
0.531187
)
;

boundaryField
{
    inlet
    {
        type            calculated;
        value           uniform 0;
    }
    outlet
    {
        type            calculated;
        value           uniform 0;
    }
    sideWall
    {
        type            empty;
    }
}


// ************************************************************************* //
