/*--------------------------------*- C++ -*----------------------------------*\
| =========                 |                                                 |
| \\      /  F ield         | foam-extend: Open Source CFD                    |
|  \\    /   O peration     | Version:     3.2                                |
|   \\  /    A nd           | Web:         http://www.foam-extend.org         |
|    \\/     M anipulation  | For copyright notice see file Copyright         |
\*---------------------------------------------------------------------------*/
FoamFile
{
    version     2.0;
    format      ascii;
    class       areaScalarField;
    location    "2000";
    object      dd;
}
// * * * * * * * * * * * * * * * * * * * * * * * * * * * * * * * * * * * * * //

dimensions      [0 1 0 0 0 0 0];

internalField   nonuniform List<scalar> 
300
(
0.000405
0.000405
0.000405
0.000405
0.000405
0.000405
0.000405
0.000405
0.000405
0.000405
0.000405
0.000405
0.000405
0.000405
0.000405
0.000405
0.000405
0.000405
0.000405
0.000405
0.000405
0.000405
0.000405
0.000405
0.000405
0.000405
0.000405
0.000405
0.000405
0.000405
0.000405
0.000405
0.000405
0.000405
0.000405
0.000405
0.000405
0.000405
0.000405
0.000405
0.000405
0.000405
0.000405
0.000405
0.000405
0.000405
0.000405
0.000405
0.000405
0.000405
0.000405
0.000405
0.000405
0.000405
0.000405
0.000405
0.000405
0.000405
0.000405
0.00129253
0.00269513
0.00287425
0.00254802
0.0025374
0.00251363
0.00249536
0.00246859
0.00244496
0.00242324
0.0024037
0.00238533
0.00236875
0.00235444
0.00234208
0.00233132
0.002322
0.00231406
0.00230731
0.00230158
0.00229689
0.00229309
0.00228999
0.00228751
0.00228555
0.00228403
0.00228287
0.00228199
0.00228143
0.0022811
0.00228086
0.00228071
0.00228061
0.00228056
0.00228052
0.0022806
0.00228075
0.00228085
0.00228093
0.00228099
0.00228102
0.00228104
0.00228113
0.00228125
0.00228132
0.00228136
0.00228136
0.00228135
0.00228132
0.00228136
0.00228144
0.00228146
0.00228146
0.00228144
0.0022814
0.00228135
0.00228138
0.00228144
0.00228145
0.00228144
0.00228141
0.00228137
0.00228131
0.00228132
0.00228139
0.00228139
0.00228138
0.00228134
0.0022813
0.00228124
0.00228127
0.00228136
0.0022813
0.00228135
0.00228127
0.00228127
0.00228116
0.00228123
0.00228122
0.00228129
0.00228122
0.00228128
0.00228117
0.00228133
0.0022813
0.00228145
0.00228135
0.00228149
0.00228135
0.00228159
0.00228152
0.00228177
0.00228164
0.00228188
0.00228169
0.00228204
0.00228193
0.00228229
0.00228212
0.00228247
0.00228226
0.00228271
0.00228258
0.00228303
0.00228285
0.00228328
0.00228316
0.00228368
0.00228355
0.00228402
0.00228386
0.00228438
0.00228431
0.00228479
0.00228469
0.0022851
0.00228508
0.00228552
0.0022855
0.00228585
0.00228581
0.00228616
0.00228622
0.0022865
0.00228652
0.00228671
0.00228679
0.002287
0.00228707
0.00228717
0.00228722
0.0022873
0.00228745
0.00228745
0.00228755
0.00228745
0.00228761
0.00228752
0.00228768
0.0022875
0.00228771
0.00228756
0.00228776
0.00228751
0.00228776
0.00228755
0.00228776
0.00228745
0.00228762
0.00228733
0.00228756
0.00228722
0.0022874
0.00228709
0.00228731
0.00228695
0.0022871
0.00228677
0.00228696
0.0022866
0.00228673
0.00228641
0.00228657
0.00228621
0.00228628
0.00228595
0.00228607
0.00228574
0.0022858
0.00228552
0.0022856
0.00228528
0.00228526
0.00228498
0.00228503
0.00228476
0.00228483
0.00228465
0.00228464
0.00228437
0.00228434
0.00228414
0.00228409
0.00228387
0.00228388
0.00228376
0.0022837
0.00228357
0.00228352
0.00228336
0.00228328
0.0022832
0.00228323
0.00228313
0.00228312
0.00228306
0.00228296
0.00228291
0.00228291
0.00228287
0.00228285
0.00228284
0.00228284
0.00228275
0.00228269
0.00228266
0.00228263
0.00228267
0.00228274
0.00228274
0.0022827
0.00228267
0.0022826
0.00228254
0.00228256
0.00228261
0.00228267
0.00228273
0.00228277
0.00228275
0.00228263
0.0022827
0.00228281
0.00228269
0.00228304
0.00228266
0.00228446
0.00228468
0.00228188
0.00228156
0.00228143
0.00228313
0.00228403
0.00230429
0.00226672
0.00227689
0.00222239
0.00125189
0.000405
0.000405
0.000405
)
;

boundaryField
{
    inlet
    {
        type            calculated;
        value           uniform 0;
    }
    outlet
    {
        type            calculated;
        value           uniform 0;
    }
    sideWall
    {
        type            empty;
    }
}


// ************************************************************************* //
