/*--------------------------------*- C++ -*----------------------------------*\
| =========                 |                                                 |
| \\      /  F ield         | foam-extend: Open Source CFD                    |
|  \\    /   O peration     | Version:     3.2                                |
|   \\  /    A nd           | Web:         http://www.foam-extend.org         |
|    \\/     M anipulation  | For copyright notice see file Copyright         |
\*---------------------------------------------------------------------------*/
FoamFile
{
    version     2.0;
    format      ascii;
    class       areaScalarField;
    location    "2000";
    object      ddmax;
}
// * * * * * * * * * * * * * * * * * * * * * * * * * * * * * * * * * * * * * //

dimensions      [0 1 0 0 0 0 0];

internalField   nonuniform List<scalar> 
300
(
0.000405
0.000405
0.000405
0.000405
0.000405
0.000405
0.000405
0.000405
0.000405
0.000405
0.000405
0.000405
0.000405
0.000405
0.000405
0.000405
0.000405
0.000405
0.000405
0.000405
0.000405
0.000405
0.000405
0.000405
0.000405
0.000405
0.000405
0.000405
0.000405
0.000405
0.000405
0.000405
0.000405
0.000405
0.000405
0.000405
0.000405
0.000405
0.000405
0.000405
0.000405
0.000405
0.000405
0.000405
0.000405
0.000405
0.000405
0.000405
0.000405
0.000405
0.000405
0.000405
0.000405
0.000405
0.000405
0.000405
0.000405
0.000405
0.000405
0.00129278
0.00269605
0.0028751
0.00254834
0.00253768
0.00251385
0.00249555
0.00246875
0.00244509
0.00242334
0.00240378
0.0023854
0.00236882
0.0023545
0.00234214
0.00233137
0.00232204
0.0023141
0.00230735
0.00230161
0.00229692
0.00229312
0.00229002
0.00228753
0.00228557
0.00228405
0.00228289
0.002282
0.00228145
0.00228111
0.00228087
0.00228072
0.00228062
0.00228057
0.00228053
0.00228061
0.00228075
0.00228085
0.00228094
0.00228099
0.00228103
0.00228104
0.00228114
0.00228125
0.00228132
0.00228136
0.00228137
0.00228135
0.00228132
0.00228136
0.00228144
0.00228146
0.00228147
0.00228144
0.00228141
0.00228135
0.00228139
0.00228144
0.00228145
0.00228145
0.00228141
0.00228137
0.00228131
0.00228133
0.00228139
0.00228139
0.00228139
0.00228135
0.0022813
0.00228124
0.00228128
0.00228136
0.00228133
0.00228137
0.00228128
0.00228129
0.00228117
0.00228123
0.00228122
0.00228129
0.00228122
0.00228128
0.00228117
0.00228133
0.0022813
0.00228145
0.00228135
0.00228149
0.00228135
0.00228159
0.00228152
0.00228177
0.00228164
0.00228188
0.00228169
0.00228204
0.00228193
0.00228229
0.00228212
0.00228247
0.00228226
0.00228271
0.00228258
0.00228303
0.00228285
0.00228328
0.00228316
0.00228368
0.00228355
0.00228402
0.00228386
0.00228438
0.00228431
0.00228479
0.00228469
0.0022851
0.00228508
0.00228552
0.0022855
0.00228585
0.00228581
0.00228616
0.00228622
0.0022865
0.00228652
0.00228671
0.00228679
0.002287
0.00228707
0.00228717
0.00228722
0.0022873
0.00228745
0.00228745
0.00228755
0.00228745
0.00228761
0.00228753
0.00228768
0.00228754
0.00228773
0.00228765
0.00228782
0.00228768
0.00228789
0.00228781
0.00228799
0.00228784
0.00228799
0.00228787
0.00228809
0.00228793
0.00228811
0.00228799
0.00228823
0.00228807
0.00228827
0.00228814
0.0022884
0.00228823
0.00228844
0.0022883
0.00228857
0.00228839
0.00228862
0.00228846
0.00228875
0.00228855
0.0022888
0.00228862
0.00228893
0.00228871
0.00228897
0.00228877
0.00228911
0.00228887
0.00228923
0.00228905
0.00228938
0.00228911
0.00228948
0.00228926
0.0022896
0.0022893
0.00228969
0.00228943
0.00228981
0.00228957
0.00229002
0.00228971
0.00229012
0.00228983
0.0022903
0.00228996
0.00229047
0.00229016
0.00229066
0.00229035
0.00229092
0.00229053
0.00229105
0.00229067
0.00229127
0.00229083
0.00229148
0.00229105
0.00229171
0.00229127
0.00229201
0.00229148
0.00229222
0.00229165
0.00229248
0.00229185
0.00229277
0.00229212
0.0022931
0.00229235
0.00229349
0.00229263
0.00229378
0.00229292
0.00229428
0.00229319
0.00229478
0.00229347
0.0022954
0.00229411
0.00229507
0.00229302
0.00229598
0.0022924
0.00229468
0.00231682
0.00228361
0.00236726
0.00231885
0.00125991
0.000405
0.000405
0.000405
)
;

boundaryField
{
    inlet
    {
        type            calculated;
        value           uniform 0;
    }
    outlet
    {
        type            calculated;
        value           uniform 0;
    }
    sideWall
    {
        type            empty;
    }
}


// ************************************************************************* //
