/*--------------------------------*- C++ -*----------------------------------*\
| =========                 |                                                 |
| \\      /  F ield         | foam-extend: Open Source CFD                    |
|  \\    /   O peration     | Version:     3.2                                |
|   \\  /    A nd           | Web:         http://www.foam-extend.org         |
|    \\/     M anipulation  | For copyright notice see file Copyright         |
\*---------------------------------------------------------------------------*/
FoamFile
{
    version     2.0;
    format      ascii;
    class       areaScalarField;
    location    "2000";
    object      deltaHb;
}
// * * * * * * * * * * * * * * * * * * * * * * * * * * * * * * * * * * * * * //

dimensions      [0 1 -1 0 0 0 0];

internalField   nonuniform List<scalar> 
300
(
0
0
0
0
0
0
0
0
0
0
0
0
0
0
0
0
0
0
0
0
0
0
0
0
0
0
0
0
0
0
0
0
0
0
0
0
0
0
0
0
0
0
0
0
0
0
0
0
0
0
0
0
0
0
0
0
0
0
0
0
0
0
0
0
0
0
0
0
0
0
-4.18141e-09
-5.82267e-09
-6.9615e-09
-6.76475e-09
-5.51717e-09
-4.62298e-09
-3.96002e-09
-2.74894e-09
-2.04317e-09
-1.94342e-09
-1.43837e-09
-9.98477e-10
-7.05748e-10
-4.16197e-10
-3.09141e-10
-5.90611e-11
-7.88377e-11
-4.75277e-10
-2.5582e-10
-6.87953e-11
1.88843e-11
9.90661e-11
2.00934e-10
6.47221e-11
-2.87753e-10
-1.5201e-10
-1.20185e-10
-1.27064e-11
4.7648e-11
2.59632e-10
1.23289e-10
-3.52138e-10
-2.2466e-10
-8.50619e-11
5.65999e-11
1.08922e-10
2.2714e-10
9.05721e-11
-3.34342e-10
-2.28385e-10
-1.0005e-11
7.25145e-11
1.51126e-10
2.53839e-10
1.26547e-10
-3.04394e-10
-2.58754e-10
1.83832e-11
7.13511e-11
2.38387e-10
2.04555e-10
1.68204e-10
-3.25431e-10
-2.46605e-10
2.85616e-11
1.28913e-10
1.97293e-10
9.16135e-11
3.98936e-10
-4.66871e-10
3.15094e-10
-3.63556e-10
4.89621e-11
1.62682e-10
5.93774e-10
-2.6151e-10
1.41395e-11
-4.79831e-10
4.36871e-10
-3.24912e-10
6.63243e-10
-2.68732e-10
2.23307e-10
-6.28933e-10
6.46862e-10
-4.83785e-10
8.89609e-10
-4.32301e-10
4.32004e-10
-7.93901e-10
8.45304e-10
-6.19613e-10
1.06889e-09
-5.4279e-10
5.89059e-10
-8.77686e-10
9.60418e-10
-6.60614e-10
1.13025e-09
-5.47069e-10
5.83386e-10
-7.86014e-10
8.63588e-10
-4.58714e-10
9.02795e-10
-8.85933e-10
5.74109e-10
-4.59322e-10
7.42804e-10
-2.3945e-10
1.39703e-10
-3.74147e-10
3.29821e-10
6.94232e-12
3.00716e-10
-3.45359e-10
-7.8551e-11
9.97143e-11
5.8225e-11
3.22948e-10
-5.36236e-10
1.68417e-10
-3.22224e-10
5.07518e-10
-3.03156e-10
1.27362e-10
-6.35427e-10
5.29098e-10
-4.56558e-10
7.24631e-10
-1.01413e-09
5.5029e-10
-7.51761e-10
8.77198e-10
-7.2262e-10
4.58132e-10
-1.00825e-09
7.6567e-10
-8.33133e-10
1.60017e-09
-1.85119e-10
1.67022e-09
1.01528e-10
-2.09809e-09
-2.85269e-09
4.65272e-10
-7.03148e-10
7.89504e-09
6.09697e-09
2.55058e-09
1.81427e-09
-9.24755e-09
-1.05494e-08
1.15095e-10
-5.15649e-10
1.88508e-08
1.86185e-08
3.49628e-09
3.27327e-09
-2.17732e-08
-2.37053e-08
-2.08627e-11
-1.78361e-10
3.40093e-08
3.56906e-08
4.04347e-09
4.14073e-09
-3.77928e-08
-4.07417e-08
-1.02576e-11
8.90997e-11
5.13524e-08
5.47645e-08
4.22348e-09
4.32152e-09
-5.56484e-08
-5.94466e-08
1.269e-10
1.74511e-10
6.87846e-08
7.41777e-08
4.26835e-09
4.20815e-09
-7.31458e-08
-7.79397e-08
1.06875e-10
-5.70946e-11
8.54258e-08
9.21922e-08
3.83082e-09
3.16672e-09
-8.89821e-08
-9.48313e-08
-6.32626e-11
1.56331e-10
1.00005e-07
1.07353e-07
2.93032e-09
2.8287e-09
-1.0265e-07
-1.1006e-07
1.17517e-10
1.87162e-10
1.1247e-07
1.21897e-07
2.77812e-09
2.31515e-09
-1.15394e-07
-1.24011e-07
2.22976e-10
-1.25194e-10
1.24783e-07
1.36815e-07
2.35931e-09
2.83694e-09
-1.27172e-07
-1.39722e-07
-1.22524e-10
1.40908e-10
1.37221e-07
1.52186e-07
4.48936e-09
1.18084e-09
-1.37319e-07
-1.55607e-07
-1.08883e-08
0
0
0
0
0
0
0
0
0
0
0
0
0
0
)
;

boundaryField
{
    inlet
    {
        type            zeroGradient;
    }
    outlet
    {
        type            zeroGradient;
    }
    sideWall
    {
        type            empty;
    }
}


// ************************************************************************* //
