/*--------------------------------*- C++ -*----------------------------------*\
| =========                 |                                                 |
| \\      /  F ield         | foam-extend: Open Source CFD                    |
|  \\    /   O peration     | Version:     3.2                                |
|   \\  /    A nd           | Web:         http://www.foam-extend.org         |
|    \\/     M anipulation  | For copyright notice see file Copyright         |
\*---------------------------------------------------------------------------*/
FoamFile
{
    version     2.0;
    format      ascii;
    class       areaScalarField;
    location    "2000";
    object      deltaHs1;
}
// * * * * * * * * * * * * * * * * * * * * * * * * * * * * * * * * * * * * * //

dimensions      [0 1 -1 0 0 0 0];

internalField   nonuniform List<scalar> 
300
(
-7.39598e-07
-4.21937e-06
-1.26654e-06
1.04576e-06
2.27854e-06
2.76642e-06
2.95222e-06
2.97501e-06
2.94431e-06
2.88121e-06
2.80498e-06
2.72705e-06
2.65118e-06
2.5708e-06
2.4934e-06
2.41455e-06
2.33071e-06
2.24666e-06
2.16027e-06
2.0729e-06
1.98495e-06
1.89643e-06
1.80496e-06
1.71056e-06
1.61879e-06
1.53396e-06
1.45711e-06
1.38928e-06
1.33019e-06
1.27949e-06
1.23595e-06
1.19868e-06
1.16755e-06
1.14197e-06
1.12148e-06
1.10452e-06
1.09047e-06
1.07856e-06
1.06862e-06
1.06004e-06
1.05292e-06
1.04663e-06
1.04155e-06
1.03688e-06
1.03331e-06
1.02978e-06
1.02733e-06
1.02459e-06
1.02297e-06
1.02052e-06
1.02037e-06
1.01631e-06
1.02099e-06
1.00823e-06
1.03255e-06
9.79424e-07
1.09261e-06
8.77276e-07
1.64968e-06
3.37174e-06
-9.33557e-12
-8.50617e-12
6.46187e-13
-5.1056e-12
-1.99654e-12
-4.30387e-13
-6.14265e-12
4.86292e-12
-1.01e-11
9.20983e-12
4.22609e-09
5.88626e-09
6.98863e-09
6.81525e-09
5.53075e-09
4.67068e-09
3.97062e-09
2.79651e-09
2.05378e-09
1.98022e-09
1.44397e-09
1.02618e-09
7.20736e-10
4.36846e-10
3.20413e-10
6.41389e-11
1.02782e-10
4.76718e-10
2.8976e-10
5.87086e-11
-2.84937e-12
-1.11507e-10
-1.53653e-10
-8.34651e-11
3.67354e-10
1.78563e-10
1.00538e-10
-8.85708e-11
-1.88265e-11
-2.62701e-10
-2.25647e-11
2.96146e-10
2.66167e-10
-2.61204e-11
1.91069e-11
-1.48406e-10
-1.33337e-10
-1.65611e-10
3.72358e-10
1.31769e-10
6.4261e-11
-9.94107e-11
-1.03891e-10
-2.21563e-10
-1.35839e-10
2.91324e-10
1.8358e-10
-3.45407e-11
-3.58874e-11
-1.92604e-10
-1.19992e-10
-2.90898e-10
4.79727e-10
-9.20191e-11
2.72667e-10
-3.67219e-10
1.47975e-10
-4.91559e-10
6.04936e-11
1.22662e-10
6.22155e-11
3.9311e-10
-9.96141e-10
9.52937e-10
-1.64768e-09
1.53914e-09
-1.64189e-09
2.52962e-09
-2.71935e-09
3.13686e-09
-3.81808e-09
4.02386e-09
-4.38378e-09
5.55272e-09
-6.00989e-09
6.78069e-09
-7.68289e-09
8.31928e-09
-8.88421e-09
1.0515e-08
-1.11868e-08
1.24123e-08
-1.35328e-08
1.46377e-08
-1.53985e-08
1.74934e-08
-1.83201e-08
1.99898e-08
-2.12177e-08
2.27515e-08
-2.35449e-08
2.5978e-08
-2.6791e-08
2.87068e-08
-2.98429e-08
3.21915e-08
-3.25084e-08
3.47623e-08
-3.55871e-08
3.74071e-08
-3.77412e-08
4.02029e-08
-4.04641e-08
4.22098e-08
-4.26786e-08
4.4608e-08
-4.41899e-08
4.58313e-08
-4.58755e-08
4.69129e-08
-4.6455e-08
4.80014e-08
-4.75161e-08
4.82508e-08
-4.80302e-08
4.88597e-08
-4.78377e-08
4.83196e-08
-4.77986e-08
4.7622e-08
-4.66696e-08
4.69426e-08
-4.60179e-08
4.54307e-08
-4.48148e-08
4.42894e-08
-4.29527e-08
4.20167e-08
-4.13613e-08
4.02708e-08
-3.91991e-08
3.754e-08
-3.73489e-08
3.54539e-08
-3.49746e-08
3.25059e-08
-3.30147e-08
2.97041e-08
-3.03195e-08
2.72728e-08
-2.84203e-08
2.43654e-08
-2.57528e-08
2.19733e-08
-2.39148e-08
1.92083e-08
-2.14009e-08
1.6957e-08
-1.97619e-08
1.44033e-08
-1.74264e-08
1.24968e-08
-1.59578e-08
1.031e-08
-1.39086e-08
8.62228e-09
-1.27531e-08
6.72849e-09
-1.09082e-08
5.4605e-09
-9.9313e-09
4.02235e-09
-8.4595e-09
2.97464e-09
-7.76788e-09
2.13926e-09
-6.62532e-09
9.8952e-10
-6.00694e-09
6.71015e-10
-5.14318e-09
-3.5141e-10
-4.87482e-09
-5.40206e-10
-4.08278e-09
-1.09589e-09
-3.33658e-09
-1.09356e-09
-3.41861e-09
-1.63753e-09
-2.91024e-09
-1.64503e-09
-2.84723e-09
-1.36432e-09
-2.36611e-09
-1.60477e-09
-2.11599e-09
-1.58122e-09
-2.45529e-09
-1.92521e-09
-1.94758e-09
-1.62285e-09
-2.04878e-09
-1.24758e-09
-2.00319e-09
-1.66436e-09
-1.87757e-09
-1.60335e-09
-2.15822e-09
-1.76477e-09
-1.6387e-09
-1.48278e-09
-2.12969e-09
-1.32738e-09
-2.22225e-09
-1.79291e-09
-1.99114e-09
-1.36903e-09
-2.26582e-09
-1.90171e-09
-8.0288e-10
-2.94157e-09
-2.49697e-10
-6.0472e-09
4.05511e-09
-1.08363e-08
3.67785e-11
-7.88894e-12
-6.54523e-12
-3.09716e-12
-3.23474e-12
-3.15432e-13
-1.0602e-12
1.19675e-12
4.62971e-13
2.11188e-12
2.85785e-06
2.38971e-06
1.57162e-06
1.38447e-06
)
;

boundaryField
{
    inlet
    {
        type            zeroGradient;
    }
    outlet
    {
        type            zeroGradient;
    }
    sideWall
    {
        type            empty;
    }
}


// ************************************************************************* //
