/*--------------------------------*- C++ -*----------------------------------*\
| =========                 |                                                 |
| \\      /  F ield         | foam-extend: Open Source CFD                    |
|  \\    /   O peration     | Version:     3.2                                |
|   \\  /    A nd           | Web:         http://www.foam-extend.org         |
|    \\/     M anipulation  | For copyright notice see file Copyright         |
\*---------------------------------------------------------------------------*/
FoamFile
{
    version     2.0;
    format      ascii;
    class       volScalarField;
    location    "2000";
    object      DiSS;
}
// * * * * * * * * * * * * * * * * * * * * * * * * * * * * * * * * * * * * * //

dimensions      [0 2 -1 0 0 0 0];

internalField   nonuniform List<scalar> 
2400
(
2.61208e-05
2.88663e-05
2.28758e-05
1.92674e-05
1.80611e-05
1.75587e-05
1.74506e-05
1.77558e-05
1.82053e-05
1.86586e-05
1.90555e-05
1.94023e-05
1.96762e-05
1.99458e-05
2.01629e-05
2.03616e-05
2.05504e-05
2.07151e-05
2.08644e-05
2.10023e-05
2.11268e-05
2.12465e-05
2.13737e-05
2.1509e-05
2.16402e-05
2.17593e-05
2.1865e-05
2.19549e-05
2.20305e-05
2.20924e-05
2.21434e-05
2.21844e-05
2.22167e-05
2.22411e-05
2.22594e-05
2.22732e-05
2.22844e-05
2.22927e-05
2.22998e-05
2.23052e-05
2.23101e-05
2.23137e-05
2.23171e-05
2.23196e-05
2.23221e-05
2.23238e-05
2.23258e-05
2.23267e-05
2.23284e-05
2.23292e-05
2.23276e-05
2.2335e-05
2.23225e-05
2.23504e-05
2.22933e-05
2.24146e-05
2.21565e-05
2.26838e-05
2.10069e-05
2.46627e-05
2.87e-05
2.58814e-05
2.28926e-05
2.3507e-05
2.33172e-05
2.35171e-05
2.36266e-05
2.37552e-05
2.38624e-05
2.39517e-05
2.40166e-05
2.40716e-05
2.41177e-05
2.41557e-05
2.41857e-05
2.42093e-05
2.42284e-05
2.42438e-05
2.42541e-05
2.4263e-05
2.42693e-05
2.42739e-05
2.42773e-05
2.42793e-05
2.42805e-05
2.42813e-05
2.4281e-05
2.42814e-05
2.42813e-05
2.42807e-05
2.42801e-05
2.42795e-05
2.42787e-05
2.4278e-05
2.42781e-05
2.42777e-05
2.42773e-05
2.4277e-05
2.42764e-05
2.42765e-05
2.42755e-05
2.42758e-05
2.42761e-05
2.42758e-05
2.42757e-05
2.42755e-05
2.42755e-05
2.4275e-05
2.42754e-05
2.42758e-05
2.42756e-05
2.42756e-05
2.42754e-05
2.42754e-05
2.4275e-05
2.42753e-05
2.42757e-05
2.42756e-05
2.42755e-05
2.42754e-05
2.42752e-05
2.42752e-05
2.42751e-05
2.42761e-05
2.4275e-05
2.42758e-05
2.4275e-05
2.42754e-05
2.4275e-05
2.4275e-05
2.4276e-05
2.42745e-05
2.42776e-05
2.42726e-05
2.42782e-05
2.42712e-05
2.42785e-05
2.42711e-05
2.42799e-05
2.42694e-05
2.42811e-05
2.42676e-05
2.4282e-05
2.42668e-05
2.42835e-05
2.42645e-05
2.4285e-05
2.42621e-05
2.42862e-05
2.42607e-05
2.4288e-05
2.42579e-05
2.42896e-05
2.42551e-05
2.42908e-05
2.42534e-05
2.42924e-05
2.42504e-05
2.42936e-05
2.42476e-05
2.42944e-05
2.42463e-05
2.42952e-05
2.4244e-05
2.42954e-05
2.42418e-05
2.42965e-05
2.42403e-05
2.4296e-05
2.42389e-05
2.42949e-05
2.42392e-05
2.42937e-05
2.42387e-05
2.42919e-05
2.42385e-05
2.4291e-05
2.42389e-05
2.4289e-05
2.4239e-05
2.42873e-05
2.42403e-05
2.42857e-05
2.42408e-05
2.42837e-05
2.42416e-05
2.42827e-05
2.4243e-05
2.42806e-05
2.42442e-05
2.42784e-05
2.42467e-05
2.42765e-05
2.42484e-05
2.42742e-05
2.42503e-05
2.42731e-05
2.42526e-05
2.42713e-05
2.42546e-05
2.42707e-05
2.42568e-05
2.42692e-05
2.42588e-05
2.4269e-05
2.42609e-05
2.42681e-05
2.42625e-05
2.42674e-05
2.42649e-05
2.42673e-05
2.42663e-05
2.42672e-05
2.42684e-05
2.42674e-05
2.42694e-05
2.42676e-05
2.42711e-05
2.42682e-05
2.42716e-05
2.42689e-05
2.4273e-05
2.42698e-05
2.42729e-05
2.42705e-05
2.42741e-05
2.42711e-05
2.42743e-05
2.42719e-05
2.42756e-05
2.42722e-05
2.42754e-05
2.42728e-05
2.42755e-05
2.4274e-05
2.42762e-05
2.42749e-05
2.42767e-05
2.42748e-05
2.42765e-05
2.42752e-05
2.42766e-05
2.42753e-05
2.42768e-05
2.42761e-05
2.4277e-05
2.42763e-05
2.4277e-05
2.4276e-05
2.42764e-05
2.42761e-05
2.4277e-05
2.42764e-05
2.42769e-05
2.42764e-05
2.42763e-05
2.42761e-05
2.42762e-05
2.42759e-05
2.42763e-05
2.42764e-05
2.42767e-05
2.42762e-05
2.4276e-05
2.42762e-05
2.42751e-05
2.4276e-05
2.42761e-05
2.42766e-05
2.42761e-05
2.42763e-05
2.4276e-05
2.42753e-05
2.42751e-05
2.42759e-05
2.42757e-05
2.42762e-05
2.42767e-05
2.42765e-05
2.42757e-05
2.42745e-05
2.42769e-05
2.42721e-05
2.42868e-05
2.42643e-05
2.42798e-05
2.42868e-05
2.42618e-05
2.42784e-05
2.42465e-05
2.43066e-05
2.41381e-05
2.44423e-05
2.43495e-05
2.36859e-05
2.66767e-05
2.07049e-05
1.90694e-05
2.12773e-05
2.17841e-05
1.81318e-05
2.08967e-05
2.77965e-05
3.11679e-05
3.36251e-05
3.60422e-05
3.82134e-05
4.00434e-05
4.16447e-05
4.30189e-05
4.41758e-05
4.51713e-05
4.60185e-05
4.67858e-05
4.74268e-05
4.80188e-05
4.85563e-05
4.90347e-05
4.94754e-05
4.98846e-05
5.02587e-05
5.0608e-05
5.09349e-05
5.12311e-05
5.14856e-05
5.16962e-05
5.18659e-05
5.1998e-05
5.20989e-05
5.21735e-05
5.22281e-05
5.22663e-05
5.22923e-05
5.23086e-05
5.23188e-05
5.2324e-05
5.23272e-05
5.2328e-05
5.23288e-05
5.23282e-05
5.23284e-05
5.23274e-05
5.23275e-05
5.23264e-05
5.23265e-05
5.23253e-05
5.23257e-05
5.23243e-05
5.2325e-05
5.23235e-05
5.23221e-05
5.23258e-05
5.23177e-05
5.23342e-05
5.22993e-05
5.2372e-05
5.22114e-05
5.24629e-05
5.14557e-05
5.39281e-05
5.50406e-05
5.2383e-05
5.19087e-05
5.33309e-05
5.37196e-05
5.43024e-05
5.47333e-05
5.50783e-05
5.53519e-05
5.55589e-05
5.57142e-05
5.58345e-05
5.59254e-05
5.59922e-05
5.60401e-05
5.60732e-05
5.60956e-05
5.6109e-05
5.61157e-05
5.6118e-05
5.61168e-05
5.6113e-05
5.61082e-05
5.61023e-05
5.60962e-05
5.60903e-05
5.60841e-05
5.60791e-05
5.60742e-05
5.60697e-05
5.60659e-05
5.60627e-05
5.60597e-05
5.60575e-05
5.6056e-05
5.60542e-05
5.6053e-05
5.6052e-05
5.60512e-05
5.60508e-05
5.60499e-05
5.605e-05
5.60498e-05
5.60495e-05
5.60494e-05
5.60494e-05
5.60494e-05
5.60491e-05
5.60495e-05
5.60496e-05
5.60495e-05
5.60496e-05
5.60494e-05
5.60495e-05
5.60493e-05
5.60497e-05
5.60498e-05
5.60497e-05
5.60497e-05
5.60496e-05
5.60495e-05
5.60496e-05
5.60495e-05
5.60502e-05
5.60492e-05
5.60499e-05
5.60491e-05
5.60496e-05
5.60492e-05
5.60493e-05
5.60498e-05
5.60488e-05
5.60512e-05
5.60468e-05
5.6052e-05
5.60454e-05
5.60523e-05
5.60449e-05
5.60531e-05
5.60429e-05
5.60539e-05
5.60408e-05
5.60546e-05
5.60393e-05
5.60554e-05
5.60364e-05
5.60564e-05
5.60333e-05
5.60571e-05
5.60309e-05
5.60579e-05
5.6027e-05
5.60588e-05
5.60231e-05
5.60593e-05
5.60199e-05
5.60598e-05
5.60153e-05
5.60601e-05
5.6011e-05
5.606e-05
5.60075e-05
5.60595e-05
5.60031e-05
5.60588e-05
5.59991e-05
5.60587e-05
5.59952e-05
5.60572e-05
5.59917e-05
5.60554e-05
5.59896e-05
5.60531e-05
5.59871e-05
5.60508e-05
5.59853e-05
5.60493e-05
5.59839e-05
5.60466e-05
5.59831e-05
5.60441e-05
5.59837e-05
5.60415e-05
5.59839e-05
5.6039e-05
5.59848e-05
5.60376e-05
5.5986e-05
5.60352e-05
5.59877e-05
5.60331e-05
5.59907e-05
5.60309e-05
5.59932e-05
5.6029e-05
5.59964e-05
5.60283e-05
5.59996e-05
5.6027e-05
5.60032e-05
5.60271e-05
5.60066e-05
5.60265e-05
5.60104e-05
5.60272e-05
5.6014e-05
5.60274e-05
5.60175e-05
5.60281e-05
5.60215e-05
5.6029e-05
5.60248e-05
5.60303e-05
5.60285e-05
5.60316e-05
5.60312e-05
5.60333e-05
5.60343e-05
5.6035e-05
5.60366e-05
5.60374e-05
5.60391e-05
5.60394e-05
5.60402e-05
5.60417e-05
5.60422e-05
5.6043e-05
5.60439e-05
5.60451e-05
5.60462e-05
5.60457e-05
5.60471e-05
5.60469e-05
5.60485e-05
5.60482e-05
5.60502e-05
5.60498e-05
5.60513e-05
5.60503e-05
5.60515e-05
5.60508e-05
5.60519e-05
5.60515e-05
5.60528e-05
5.60524e-05
5.6053e-05
5.60524e-05
5.60526e-05
5.60519e-05
5.60522e-05
5.60521e-05
5.60528e-05
5.60523e-05
5.60525e-05
5.60518e-05
5.60515e-05
5.60512e-05
5.60513e-05
5.6051e-05
5.60516e-05
5.60515e-05
5.60516e-05
5.60508e-05
5.60504e-05
5.60505e-05
5.60496e-05
5.60506e-05
5.60507e-05
5.6051e-05
5.60504e-05
5.60503e-05
5.60498e-05
5.60492e-05
5.60494e-05
5.60503e-05
5.60501e-05
5.60504e-05
5.60504e-05
5.60497e-05
5.60489e-05
5.60483e-05
5.60503e-05
5.60478e-05
5.60589e-05
5.60391e-05
5.60536e-05
5.60524e-05
5.60379e-05
5.60514e-05
5.60299e-05
5.60685e-05
5.5935e-05
5.61904e-05
5.5989e-05
5.55528e-05
5.52132e-05
5.10817e-05
5.2131e-05
5.41735e-05
5.39604e-05
1.91525e-05
1.66262e-05
1.95313e-05
2.42008e-05
2.97092e-05
3.5431e-05
4.00758e-05
4.46159e-05
4.874e-05
5.2415e-05
5.57205e-05
5.86413e-05
6.12544e-05
6.35214e-05
6.52517e-05
6.67656e-05
6.81349e-05
6.93756e-05
7.05124e-05
7.15509e-05
7.24998e-05
7.33445e-05
7.40732e-05
7.4681e-05
7.51736e-05
7.55647e-05
7.58688e-05
7.61024e-05
7.62791e-05
7.64123e-05
7.6512e-05
7.65853e-05
7.6638e-05
7.66756e-05
7.67038e-05
7.67264e-05
7.67451e-05
7.67608e-05
7.6774e-05
7.67851e-05
7.67945e-05
7.68023e-05
7.68091e-05
7.68145e-05
7.68195e-05
7.68233e-05
7.68271e-05
7.68297e-05
7.68326e-05
7.6834e-05
7.68359e-05
7.68363e-05
7.68395e-05
7.68371e-05
7.68466e-05
7.68275e-05
7.6847e-05
7.63546e-05
7.55739e-05
7.91026e-05
7.80415e-05
7.41682e-05
7.55543e-05
7.66287e-05
7.76854e-05
7.84667e-05
7.91477e-05
7.96957e-05
8.01377e-05
8.04864e-05
8.0762e-05
8.09789e-05
8.11464e-05
8.12726e-05
8.13657e-05
8.14332e-05
8.14795e-05
8.15105e-05
8.15292e-05
8.15391e-05
8.15425e-05
8.15414e-05
8.15374e-05
8.15315e-05
8.15246e-05
8.15173e-05
8.15102e-05
8.15033e-05
8.14967e-05
8.1491e-05
8.14857e-05
8.14814e-05
8.14774e-05
8.14743e-05
8.14719e-05
8.14696e-05
8.14678e-05
8.14664e-05
8.14653e-05
8.14644e-05
8.14639e-05
8.14635e-05
8.14631e-05
8.14629e-05
8.14626e-05
8.14627e-05
8.14625e-05
8.14627e-05
8.14629e-05
8.14629e-05
8.14629e-05
8.14629e-05
8.14629e-05
8.14628e-05
8.1463e-05
8.14632e-05
8.14632e-05
8.14632e-05
8.14631e-05
8.14631e-05
8.1463e-05
8.14632e-05
8.14634e-05
8.14633e-05
8.14631e-05
8.1463e-05
8.14627e-05
8.14628e-05
8.14625e-05
8.1463e-05
8.14626e-05
8.14629e-05
8.14626e-05
8.14626e-05
8.14621e-05
8.14621e-05
8.14618e-05
8.14616e-05
8.1461e-05
8.14606e-05
8.14598e-05
8.14595e-05
8.14589e-05
8.14582e-05
8.14574e-05
8.14564e-05
8.14554e-05
8.14544e-05
8.14537e-05
8.14521e-05
8.14513e-05
8.14492e-05
8.14484e-05
8.1446e-05
8.14457e-05
8.14425e-05
8.14422e-05
8.14383e-05
8.14383e-05
8.1434e-05
8.14346e-05
8.14292e-05
8.14303e-05
8.1424e-05
8.14259e-05
8.14193e-05
8.14217e-05
8.14137e-05
8.14169e-05
8.14082e-05
8.14125e-05
8.14029e-05
8.14081e-05
8.13975e-05
8.1404e-05
8.13934e-05
8.14007e-05
8.13888e-05
8.13975e-05
8.13845e-05
8.13954e-05
8.13809e-05
8.13936e-05
8.13777e-05
8.13923e-05
8.13761e-05
8.13919e-05
8.13743e-05
8.13916e-05
8.13731e-05
8.13922e-05
8.13726e-05
8.1393e-05
8.13727e-05
8.13943e-05
8.13743e-05
8.13966e-05
8.13759e-05
8.13989e-05
8.13789e-05
8.1402e-05
8.13817e-05
8.14051e-05
8.13859e-05
8.14088e-05
8.13897e-05
8.14124e-05
8.13939e-05
8.14165e-05
8.13986e-05
8.14204e-05
8.14035e-05
8.14248e-05
8.14086e-05
8.14287e-05
8.14135e-05
8.14329e-05
8.14185e-05
8.14367e-05
8.14235e-05
8.14408e-05
8.14283e-05
8.14441e-05
8.14324e-05
8.14475e-05
8.14366e-05
8.14502e-05
8.14408e-05
8.14532e-05
8.14446e-05
8.14553e-05
8.14476e-05
8.14576e-05
8.14508e-05
8.14599e-05
8.14549e-05
8.14621e-05
8.14574e-05
8.14632e-05
8.14594e-05
8.14642e-05
8.14608e-05
8.14651e-05
8.14633e-05
8.14659e-05
8.14642e-05
8.14662e-05
8.14642e-05
8.14659e-05
8.14642e-05
8.1466e-05
8.1465e-05
8.14659e-05
8.14651e-05
8.14652e-05
8.14644e-05
8.1465e-05
8.14641e-05
8.14645e-05
8.14643e-05
8.14647e-05
8.14638e-05
8.14637e-05
8.14632e-05
8.14632e-05
8.14631e-05
8.14635e-05
8.14635e-05
8.14632e-05
8.14625e-05
8.14626e-05
8.14619e-05
8.14625e-05
8.14627e-05
8.14628e-05
8.14627e-05
8.14627e-05
8.14616e-05
8.14612e-05
8.14609e-05
8.14629e-05
8.14623e-05
8.14636e-05
8.14611e-05
8.14652e-05
8.14666e-05
8.14462e-05
8.14519e-05
8.14555e-05
8.1462e-05
8.14492e-05
8.15149e-05
8.14485e-05
8.10981e-05
8.15303e-05
7.78805e-05
7.37198e-05
7.74597e-05
7.8386e-05
7.87406e-05
3.48689e-05
2.12647e-05
1.85238e-05
1.88074e-05
2.13858e-05
2.55503e-05
3.08542e-05
3.6616e-05
4.11649e-05
4.59898e-05
5.08637e-05
5.54764e-05
5.98099e-05
6.38519e-05
6.76894e-05
7.11227e-05
7.41532e-05
7.6946e-05
7.94704e-05
8.18397e-05
8.39955e-05
8.5709e-05
8.71705e-05
8.84262e-05
8.94858e-05
9.03717e-05
9.11086e-05
9.1721e-05
9.22291e-05
9.26522e-05
9.3004e-05
9.32951e-05
9.35354e-05
9.37348e-05
9.39036e-05
9.4048e-05
9.41722e-05
9.42787e-05
9.43702e-05
9.44484e-05
9.45156e-05
9.45728e-05
9.46222e-05
9.46639e-05
9.47005e-05
9.47308e-05
9.47579e-05
9.47799e-05
9.47999e-05
9.48153e-05
9.48295e-05
9.48406e-05
9.4853e-05
9.48587e-05
9.48753e-05
9.48637e-05
9.48917e-05
9.44202e-05
9.34543e-05
9.75322e-05
9.60604e-05
9.18684e-05
9.23545e-05
9.3089e-05
9.40497e-05
9.48926e-05
9.57323e-05
9.64585e-05
9.70937e-05
9.76296e-05
9.80777e-05
9.84492e-05
9.87526e-05
9.89954e-05
9.9187e-05
9.93364e-05
9.94505e-05
9.95361e-05
9.95991e-05
9.96439e-05
9.96744e-05
9.96941e-05
9.9706e-05
9.97121e-05
9.97141e-05
9.97131e-05
9.97104e-05
9.97066e-05
9.97021e-05
9.96974e-05
9.96927e-05
9.96885e-05
9.96844e-05
9.96812e-05
9.96784e-05
9.96757e-05
9.96736e-05
9.96718e-05
9.96704e-05
9.96692e-05
9.96685e-05
9.9668e-05
9.96674e-05
9.96671e-05
9.96667e-05
9.96667e-05
9.96665e-05
9.96666e-05
9.96668e-05
9.96669e-05
9.96669e-05
9.96669e-05
9.96669e-05
9.96669e-05
9.96671e-05
9.96673e-05
9.96674e-05
9.96674e-05
9.96674e-05
9.96674e-05
9.96673e-05
9.96674e-05
9.96677e-05
9.96676e-05
9.96675e-05
9.96674e-05
9.96671e-05
9.96671e-05
9.96669e-05
9.96673e-05
9.9667e-05
9.96672e-05
9.96671e-05
9.96668e-05
9.96665e-05
9.96662e-05
9.96661e-05
9.96656e-05
9.96653e-05
9.96643e-05
9.9664e-05
9.9663e-05
9.96628e-05
9.96614e-05
9.9661e-05
9.9659e-05
9.96586e-05
9.96564e-05
9.96563e-05
9.96535e-05
9.96532e-05
9.96496e-05
9.96495e-05
9.96455e-05
9.96458e-05
9.96409e-05
9.96412e-05
9.96354e-05
9.96359e-05
9.96295e-05
9.96307e-05
9.96233e-05
9.96247e-05
9.96162e-05
9.96184e-05
9.96096e-05
9.96123e-05
9.96021e-05
9.96053e-05
9.95945e-05
9.95988e-05
9.95871e-05
9.9592e-05
9.95795e-05
9.95855e-05
9.95732e-05
9.958e-05
9.95667e-05
9.95745e-05
9.95605e-05
9.95701e-05
9.95554e-05
9.95662e-05
9.95507e-05
9.9563e-05
9.95478e-05
9.95611e-05
9.9545e-05
9.95593e-05
9.95431e-05
9.95589e-05
9.95423e-05
9.95588e-05
9.95419e-05
9.95595e-05
9.95435e-05
9.95617e-05
9.95453e-05
9.95641e-05
9.95488e-05
9.95678e-05
9.95522e-05
9.95715e-05
9.95573e-05
9.95763e-05
9.95622e-05
9.95809e-05
9.95676e-05
9.95865e-05
9.95739e-05
9.9592e-05
9.95802e-05
9.95982e-05
9.9587e-05
9.96039e-05
9.95935e-05
9.96102e-05
9.96003e-05
9.96159e-05
9.96069e-05
9.96222e-05
9.96134e-05
9.96276e-05
9.96193e-05
9.96333e-05
9.96253e-05
9.96379e-05
9.96311e-05
9.96428e-05
9.96365e-05
9.96465e-05
9.96411e-05
9.96506e-05
9.96459e-05
9.96544e-05
9.96511e-05
9.96579e-05
9.96547e-05
9.96603e-05
9.9658e-05
9.96628e-05
9.96608e-05
9.96648e-05
9.96637e-05
9.96663e-05
9.96651e-05
9.96674e-05
9.96662e-05
9.96681e-05
9.96673e-05
9.96688e-05
9.9668e-05
9.96687e-05
9.9668e-05
9.96683e-05
9.96679e-05
9.96688e-05
9.96684e-05
9.96685e-05
9.96681e-05
9.9668e-05
9.9667e-05
9.96671e-05
9.96671e-05
9.96675e-05
9.96678e-05
9.96678e-05
9.96673e-05
9.96666e-05
9.96654e-05
9.96657e-05
9.96656e-05
9.96668e-05
9.96675e-05
9.96672e-05
9.96665e-05
9.96658e-05
9.96642e-05
9.9664e-05
9.96645e-05
9.96671e-05
9.96676e-05
9.9668e-05
9.96654e-05
9.9668e-05
9.96693e-05
9.96503e-05
9.96527e-05
9.96555e-05
9.96618e-05
9.96546e-05
9.97082e-05
9.96581e-05
9.93269e-05
9.96658e-05
9.62584e-05
9.26e-05
9.45626e-05
9.55817e-05
9.6211e-05
8.45914e-05
4.26023e-05
2.94615e-05
2.41627e-05
2.18945e-05
2.15601e-05
2.33474e-05
2.66237e-05
3.10137e-05
3.6295e-05
4.08463e-05
4.51392e-05
4.96532e-05
5.43459e-05
5.90898e-05
6.37106e-05
6.81247e-05
7.23664e-05
7.65622e-05
8.07122e-05
8.48586e-05
8.89817e-05
9.20017e-05
9.42288e-05
9.61777e-05
9.78854e-05
9.93825e-05
0.000100694
0.00010184
0.000102837
0.000103701
0.000104445
0.000105083
0.00010563
0.000106104
0.000106514
0.000106868
0.000107173
0.000107436
0.000107661
0.000107855
0.000108021
0.000108164
0.000108286
0.000108392
0.000108481
0.000108559
0.000108625
0.000108682
0.00010873
0.000108771
0.000108806
0.000108838
0.000108862
0.000108893
0.000108898
0.000108943
0.000108577
0.000109824
0.00011143
0.000109849
0.000106217
0.000105997
0.000106211
0.000106821
0.000107511
0.000108308
0.000109087
0.000109824
0.000110476
0.000111044
0.000111531
0.000111944
0.000112288
0.000112569
0.000112798
0.00011298
0.000113125
0.000113238
0.000113324
0.00011339
0.000113438
0.000113473
0.000113498
0.000113515
0.000113526
0.000113532
0.000113536
0.000113538
0.000113537
0.000113536
0.000113535
0.000113533
0.000113531
0.00011353
0.000113528
0.000113527
0.000113525
0.000113524
0.000113523
0.000113523
0.000113523
0.000113522
0.000113522
0.000113522
0.000113522
0.000113522
0.000113522
0.000113522
0.000113522
0.000113523
0.000113523
0.000113523
0.000113523
0.000113523
0.000113523
0.000113523
0.000113523
0.000113523
0.000113523
0.000113523
0.000113523
0.000113524
0.000113524
0.000113524
0.000113524
0.000113523
0.000113523
0.000113523
0.000113523
0.000113523
0.000113523
0.000113523
0.000113523
0.000113523
0.000113522
0.000113522
0.000113522
0.000113522
0.00011352
0.00011352
0.000113519
0.000113519
0.000113517
0.000113517
0.000113515
0.000113514
0.000113512
0.000113512
0.000113508
0.000113508
0.000113504
0.000113504
0.000113499
0.0001135
0.000113494
0.000113495
0.000113487
0.000113488
0.000113481
0.000113482
0.000113473
0.000113475
0.000113465
0.000113467
0.000113457
0.00011346
0.000113448
0.000113451
0.000113438
0.000113443
0.000113429
0.000113435
0.00011342
0.000113426
0.000113411
0.000113419
0.000113403
0.000113411
0.000113395
0.000113405
0.000113388
0.000113399
0.000113382
0.000113394
0.000113378
0.00011339
0.000113374
0.000113387
0.000113371
0.000113385
0.000113369
0.000113384
0.000113368
0.000113384
0.000113369
0.000113386
0.000113371
0.000113388
0.000113374
0.000113391
0.000113378
0.000113395
0.000113383
0.000113401
0.000113389
0.000113406
0.000113395
0.000113412
0.000113402
0.000113419
0.00011341
0.000113426
0.000113418
0.000113433
0.000113425
0.000113441
0.000113434
0.000113448
0.000113442
0.000113456
0.00011345
0.000113463
0.000113457
0.00011347
0.000113465
0.000113476
0.000113472
0.000113483
0.000113479
0.000113488
0.000113485
0.000113494
0.000113491
0.000113499
0.000113498
0.000113504
0.000113502
0.000113508
0.000113507
0.000113511
0.000113511
0.000113515
0.000113514
0.000113517
0.000113517
0.000113519
0.000113519
0.000113521
0.000113521
0.000113522
0.000113522
0.000113522
0.000113522
0.000113522
0.000113523
0.000113524
0.000113524
0.000113524
0.000113523
0.000113523
0.000113522
0.000113522
0.000113522
0.000113523
0.000113524
0.000113523
0.000113523
0.000113521
0.00011352
0.000113521
0.000113521
0.000113522
0.000113524
0.000113523
0.000113522
0.00011352
0.000113518
0.000113519
0.00011352
0.000113522
0.000113524
0.000113524
0.000113521
0.000113522
0.000113523
0.000113508
0.000113508
0.000113509
0.000113515
0.000113511
0.000113551
0.000113516
0.000113243
0.000113469
0.000110742
0.000107024
0.000108144
0.000108888
0.000109471
0.000101549
9.66696e-05
6.51373e-05
4.69687e-05
3.66552e-05
3.05443e-05
2.72658e-05
2.57059e-05
2.60373e-05
2.80151e-05
3.11979e-05
3.52974e-05
4.01098e-05
4.47183e-05
4.87864e-05
5.31908e-05
5.7979e-05
6.31798e-05
6.87583e-05
7.46219e-05
8.10092e-05
8.55239e-05
8.9478e-05
9.30242e-05
9.6229e-05
9.91398e-05
0.000101775
0.00010414
0.000106239
0.000108088
0.000109704
0.000111108
0.000112323
0.000113376
0.000114289
0.000115079
0.000115762
0.000116351
0.000116858
0.000117294
0.00011767
0.000117992
0.000118269
0.000118506
0.000118711
0.000118885
0.000119036
0.000119164
0.000119274
0.000119369
0.000119449
0.000119517
0.000119578
0.000119627
0.000119681
0.00011971
0.000119782
0.000119554
0.000120431
0.000121717
0.000120191
0.000117552
0.000117
0.000116828
0.000117064
0.000117474
0.000118055
0.00011873
0.000119444
0.000120123
0.000120747
0.000121303
0.000121787
0.0001222
0.000122546
0.000122834
0.00012307
0.000123261
0.000123414
0.000123537
0.000123632
0.000123707
0.000123764
0.000123807
0.00012384
0.000123864
0.000123881
0.000123894
0.000123902
0.000123908
0.000123912
0.000123915
0.000123916
0.000123917
0.000123918
0.000123918
0.000123918
0.000123918
0.000123918
0.000123918
0.000123919
0.000123919
0.000123919
0.000123919
0.00012392
0.00012392
0.00012392
0.00012392
0.000123921
0.000123921
0.000123921
0.000123922
0.000123922
0.000123922
0.000123922
0.000123922
0.000123923
0.000123923
0.000123923
0.000123923
0.000123923
0.000123923
0.000123923
0.000123923
0.000123923
0.000123923
0.000123923
0.000123923
0.000123923
0.000123923
0.000123923
0.000123923
0.000123923
0.000123922
0.000123922
0.000123922
0.000123922
0.000123921
0.000123921
0.00012392
0.00012392
0.000123919
0.000123918
0.000123917
0.000123917
0.000123914
0.000123914
0.000123911
0.000123911
0.000123908
0.000123907
0.000123903
0.000123903
0.000123898
0.000123898
0.000123893
0.000123892
0.000123886
0.000123886
0.000123879
0.000123879
0.000123871
0.000123871
0.000123862
0.000123862
0.000123852
0.000123854
0.000123843
0.000123844
0.000123832
0.000123834
0.000123822
0.000123825
0.000123811
0.000123815
0.000123801
0.000123805
0.000123792
0.000123796
0.000123782
0.000123788
0.000123774
0.000123781
0.000123766
0.000123774
0.00012376
0.000123769
0.000123755
0.000123765
0.000123751
0.000123762
0.000123748
0.000123759
0.000123747
0.000123758
0.000123747
0.000123759
0.000123748
0.000123761
0.000123751
0.000123764
0.000123754
0.000123768
0.000123759
0.000123773
0.000123765
0.000123779
0.000123772
0.000123785
0.000123779
0.000123792
0.000123787
0.0001238
0.000123796
0.000123808
0.000123805
0.000123817
0.000123814
0.000123825
0.000123823
0.000123834
0.000123832
0.000123843
0.000123841
0.000123851
0.00012385
0.000123859
0.000123858
0.000123867
0.000123866
0.000123873
0.000123873
0.00012388
0.000123881
0.000123887
0.000123887
0.000123893
0.000123893
0.000123898
0.000123899
0.000123903
0.000123904
0.000123907
0.000123908
0.000123911
0.000123911
0.000123913
0.000123914
0.000123916
0.000123917
0.000123918
0.000123918
0.000123919
0.000123919
0.00012392
0.00012392
0.000123921
0.000123922
0.000123922
0.000123921
0.000123921
0.00012392
0.00012392
0.000123921
0.000123922
0.000123922
0.000123922
0.000123921
0.00012392
0.000123918
0.000123919
0.00012392
0.000123921
0.000123922
0.000123922
0.00012392
0.000123918
0.000123916
0.000123917
0.000123918
0.00012392
0.000123922
0.000123922
0.000123919
0.000123919
0.00012392
0.000123909
0.000123908
0.000123908
0.000123912
0.000123911
0.000123938
0.000123915
0.000123714
0.000123837
0.000121886
0.000118679
0.000119024
0.000119344
0.000119694
0.000105036
0.000111925
0.0001272
9.1176e-05
7.02485e-05
5.66972e-05
4.53438e-05
3.77712e-05
3.28478e-05
3.01103e-05
2.92044e-05
2.9866e-05
3.18616e-05
3.48993e-05
3.87337e-05
4.31183e-05
4.79026e-05
5.29735e-05
5.82822e-05
6.38195e-05
6.95688e-05
7.53503e-05
8.10576e-05
8.65541e-05
9.16845e-05
9.6331e-05
0.000100455
0.000104085
0.00010727
0.000110057
0.000112485
0.000114593
0.000116417
0.000117996
0.000119364
0.000120547
0.000121568
0.000122449
0.000123207
0.00012386
0.000124421
0.000124904
0.000125318
0.000125673
0.000125979
0.00012624
0.000126465
0.000126657
0.000126823
0.000126964
0.000127084
0.000127187
0.000127277
0.000127352
0.000127433
0.000127483
0.000127597
0.000127491
0.000128038
0.000128836
0.000127689
0.000125776
0.000125025
0.000124583
0.000124545
0.000124721
0.000125107
0.000125643
0.000126271
0.000126914
0.000127535
0.000128107
0.000128619
0.000129063
0.000129443
0.000129762
0.000130027
0.000130245
0.000130423
0.000130567
0.000130682
0.000130773
0.000130845
0.000130901
0.000130945
0.000130978
0.000131004
0.000131024
0.000131039
0.00013105
0.000131058
0.000131065
0.000131069
0.000131073
0.000131076
0.000131078
0.00013108
0.000131081
0.000131083
0.000131084
0.000131085
0.000131086
0.000131087
0.000131087
0.000131088
0.000131088
0.000131089
0.00013109
0.00013109
0.000131091
0.000131091
0.000131091
0.000131092
0.000131092
0.000131092
0.000131092
0.000131093
0.000131093
0.000131093
0.000131093
0.000131093
0.000131093
0.000131093
0.000131094
0.000131094
0.000131094
0.000131093
0.000131093
0.000131093
0.000131093
0.000131093
0.000131093
0.000131093
0.000131093
0.000131093
0.000131093
0.000131092
0.000131092
0.000131092
0.000131091
0.000131091
0.00013109
0.000131089
0.000131088
0.000131087
0.000131086
0.000131085
0.000131083
0.000131082
0.000131079
0.000131078
0.000131075
0.000131073
0.00013107
0.000131068
0.000131064
0.000131062
0.000131058
0.000131056
0.00013105
0.000131048
0.000131042
0.00013104
0.000131033
0.000131031
0.000131024
0.000131021
0.000131014
0.000131011
0.000131003
0.000131001
0.000130992
0.00013099
0.000130981
0.000130979
0.00013097
0.000130968
0.000130959
0.000130958
0.000130949
0.000130949
0.00013094
0.00013094
0.000130931
0.000130932
0.000130924
0.000130926
0.000130918
0.000130921
0.000130913
0.000130916
0.00013091
0.000130913
0.000130907
0.000130912
0.000130906
0.000130912
0.000130907
0.000130913
0.000130909
0.000130915
0.000130912
0.000130919
0.000130916
0.000130924
0.000130922
0.00013093
0.000130929
0.000130937
0.000130936
0.000130944
0.000130944
0.000130952
0.000130953
0.000130961
0.000130962
0.00013097
0.000130972
0.000130979
0.000130981
0.000130989
0.000130991
0.000130998
0.000131
0.000131007
0.00013101
0.000131016
0.000131018
0.000131025
0.000131027
0.000131033
0.000131035
0.000131041
0.000131043
0.000131048
0.00013105
0.000131055
0.000131057
0.000131061
0.000131063
0.000131067
0.000131069
0.000131072
0.000131073
0.000131076
0.000131077
0.000131079
0.000131081
0.000131083
0.000131084
0.000131086
0.000131086
0.000131087
0.000131087
0.000131088
0.000131089
0.00013109
0.00013109
0.00013109
0.00013109
0.00013109
0.000131089
0.000131089
0.00013109
0.000131091
0.000131091
0.000131091
0.00013109
0.000131089
0.000131088
0.000131088
0.000131089
0.00013109
0.000131091
0.00013109
0.000131089
0.000131088
0.000131086
0.000131086
0.000131087
0.000131089
0.00013109
0.00013109
0.000131088
0.000131088
0.000131088
0.000131082
0.00013108
0.000131079
0.000131083
0.000131081
0.000131101
0.000131086
0.000130956
0.000131006
0.000129759
0.000127516
0.000127258
0.000127102
0.000127157
9.71066e-05
0.000109571
0.000139798
0.000133874
0.000103448
8.37902e-05
6.7745e-05
5.64314e-05
4.83912e-05
4.22531e-05
3.7354e-05
3.4366e-05
3.3144e-05
3.34479e-05
3.48696e-05
3.74042e-05
4.09708e-05
4.54886e-05
5.07234e-05
5.64475e-05
6.25553e-05
6.89176e-05
7.5395e-05
8.18027e-05
8.78904e-05
9.35168e-05
9.8583e-05
0.00010307
0.000107009
0.000110443
0.000113429
0.000116013
0.000118243
0.000120167
0.000121832
0.000123271
0.000124513
0.000125583
0.000126505
0.000127297
0.000127979
0.000128564
0.000129067
0.000129499
0.000129869
0.000130187
0.000130459
0.000130693
0.000130893
0.000131064
0.000131211
0.000131336
0.000131445
0.000131536
0.000131642
0.000131697
0.000131871
0.000131813
0.000132202
0.000132629
0.000131742
0.000130197
0.00012928
0.00012865
0.000128468
0.000128508
0.000128796
0.000129256
0.000129827
0.00013044
0.00013105
0.000131622
0.000132139
0.000132592
0.000132983
0.000133314
0.00013359
0.000133818
0.000134006
0.000134158
0.000134281
0.000134379
0.000134458
0.00013452
0.000134569
0.000134607
0.000134637
0.000134661
0.000134679
0.000134693
0.000134704
0.000134712
0.000134719
0.000134724
0.000134728
0.000134732
0.000134735
0.000134737
0.000134739
0.000134741
0.000134742
0.000134744
0.000134745
0.000134746
0.000134747
0.000134748
0.000134748
0.000134749
0.00013475
0.00013475
0.000134751
0.000134751
0.000134752
0.000134752
0.000134752
0.000134753
0.000134753
0.000134753
0.000134753
0.000134753
0.000134753
0.000134754
0.000134754
0.000134754
0.000134754
0.000134754
0.000134754
0.000134754
0.000134754
0.000134754
0.000134754
0.000134754
0.000134754
0.000134754
0.000134753
0.000134753
0.000134753
0.000134753
0.000134752
0.000134752
0.000134751
0.000134751
0.00013475
0.000134749
0.000134748
0.000134747
0.000134745
0.000134744
0.000134742
0.000134741
0.000134739
0.000134737
0.000134734
0.000134732
0.000134729
0.000134727
0.000134723
0.00013472
0.000134716
0.000134713
0.000134709
0.000134705
0.0001347
0.000134696
0.000134691
0.000134687
0.000134681
0.000134677
0.000134671
0.000134666
0.00013466
0.000134655
0.000134649
0.000134644
0.000134638
0.000134633
0.000134627
0.000134622
0.000134616
0.000134611
0.000134606
0.000134602
0.000134597
0.000134593
0.000134588
0.000134585
0.000134581
0.000134578
0.000134575
0.000134573
0.000134571
0.000134569
0.000134567
0.000134566
0.000134565
0.000134564
0.000134564
0.000134564
0.000134565
0.000134566
0.000134567
0.000134569
0.000134571
0.000134573
0.000134576
0.000134578
0.000134581
0.000134584
0.000134588
0.000134591
0.000134596
0.000134599
0.000134604
0.000134608
0.000134613
0.000134617
0.000134622
0.000134626
0.000134632
0.000134636
0.000134641
0.000134646
0.000134651
0.000134655
0.000134661
0.000134665
0.00013467
0.000134674
0.000134679
0.000134683
0.000134687
0.000134691
0.000134696
0.000134699
0.000134703
0.000134707
0.00013471
0.000134713
0.000134717
0.00013472
0.000134723
0.000134726
0.000134729
0.000134731
0.000134733
0.000134735
0.000134737
0.000134739
0.000134741
0.000134743
0.000134744
0.000134745
0.000134745
0.000134746
0.000134747
0.000134748
0.000134749
0.00013475
0.00013475
0.000134749
0.000134749
0.000134749
0.000134749
0.00013475
0.00013475
0.000134751
0.000134751
0.00013475
0.000134749
0.000134748
0.000134748
0.000134749
0.00013475
0.00013475
0.00013475
0.000134749
0.000134747
0.000134746
0.000134746
0.000134747
0.000134748
0.000134749
0.000134749
0.000134747
0.000134747
0.000134746
0.000134743
0.000134742
0.00013474
0.000134744
0.000134741
0.00013476
0.000134748
0.00013467
0.0001347
0.000133896
0.00013264
0.000131972
0.000131428
0.000131289
)
;

boundaryField
{
    inlet
    {
        type            calculated;
        value           nonuniform List<scalar> 8(2.71823e-06 1.22954e-05 3.33579e-05 7.66976e-05 9.90449e-05 9.72474e-05 0.000102114 9.4563e-05);
    }
    outlet
    {
        type            calculated;
        value           nonuniform List<scalar> 8(2.40992e-05 5.51928e-05 7.87406e-05 9.6211e-05 0.000109471 0.000119694 0.000127157 0.000131289);
    }
    sideWall
    {
        type            empty;
    }
    bed
    {
        type            calculated;
        value           nonuniform List<scalar> 
300
(
1.28286e-05