/*--------------------------------*- C++ -*----------------------------------*\
| =========                 |                                                 |
| \\      /  F ield         | foam-extend: Open Source CFD                    |
|  \\    /   O peration     | Version:     3.2                                |
|   \\  /    A nd           | Web:         http://www.foam-extend.org         |
|    \\/     M anipulation  | For copyright notice see file Copyright         |
\*---------------------------------------------------------------------------*/
FoamFile
{
    version     2.0;
    format      ascii;
    class       areaScalarField;
    location    "2000";
    object      Fi1;
}
// * * * * * * * * * * * * * * * * * * * * * * * * * * * * * * * * * * * * * //

dimensions      [0 1 -1 0 0 0 0];

internalField   nonuniform List<scalar> 
300
(
-7.39598e-07
-4.21937e-06
-1.26654e-06
1.04576e-06
2.27854e-06
2.76642e-06
2.95222e-06
2.97501e-06
2.94431e-06
2.88121e-06
2.80498e-06
2.72705e-06
2.65118e-06
2.5708e-06
2.4934e-06
2.41455e-06
2.33071e-06
2.24666e-06
2.16027e-06
2.0729e-06
1.98495e-06
1.89643e-06
1.80496e-06
1.71056e-06
1.61879e-06
1.53396e-06
1.45711e-06
1.38928e-06
1.33019e-06
1.27949e-06
1.23595e-06
1.19868e-06
1.16755e-06
1.14197e-06
1.12148e-06
1.10452e-06
1.09047e-06
1.07856e-06
1.06862e-06
1.06004e-06
1.05292e-06
1.04663e-06
1.04155e-06
1.03688e-06
1.03331e-06
1.02978e-06
1.02733e-06
1.02459e-06
1.02297e-06
1.02052e-06
1.02037e-06
1.01631e-06
1.02099e-06
1.00823e-06
1.03255e-06
9.79424e-07
1.09261e-06
8.77276e-07
1.64968e-06
3.37174e-06
-9.33876e-12
-8.51108e-12
6.49198e-13
-5.11049e-12
-1.9933e-12
-4.34497e-13
-6.13956e-12
4.85866e-12
-1.01044e-11
9.26931e-12
4.48828e-11
6.36192e-11
2.71191e-11
5.05089e-11
1.3591e-11
4.7729e-11
1.06195e-11
4.75992e-11
1.06023e-11
3.67989e-11
5.58186e-12
2.77223e-11
1.49864e-11
2.06348e-11
1.12356e-11
5.09425e-12
2.39501e-11
1.46226e-12
3.39241e-11
-1.01517e-11
1.60431e-11
-1.23675e-11
4.72505e-11
-1.88222e-11
2.45888e-11
-3.01095e-11
3.53278e-11
-4.4542e-11
1.07571e-10
-3.39747e-12
2.13289e-11
-1.05749e-10
4.20516e-11
-2.49809e-11
8.87741e-11
-7.59543e-11
6.32708e-11
-1.12172e-10
5.53766e-11
-5.92982e-11
1.13686e-10
-2.71775e-11
-1.22648e-11
1.94667e-11
-7.39021e-11
-1.27013e-13
-1.03749e-11
7.30581e-11
4.83595e-11
-4.38786e-11
7.03634e-11
-2.47605e-10
1.55244e-10
-1.37353e-10
3.25265e-10
-3.13956e-10
3.20921e-10
-3.72381e-10
4.58757e-10
-3.73614e-10
-2.29833e-11
2.98813e-11
-4.01075e-10
1.11465e-09
-1.19689e-09
1.27692e-09
-1.62568e-09
2.04885e-09
-2.28145e-09
2.81062e-09
-3.15362e-09
3.75369e-09
-4.15887e-09
4.92212e-09
-5.36118e-09
6.29491e-09
-6.79119e-09
7.88468e-09
-8.44982e-09
9.71856e-09
-1.03388e-08
1.17898e-08
-1.2461e-08
1.40918e-08
-1.48063e-08
1.66123e-08
-1.73564e-08
1.93257e-08
-2.0084e-08
2.22008e-08
-2.29579e-08
2.51883e-08
-2.59238e-08
2.82444e-08
-2.89365e-08
3.1302e-08
-3.19308e-08
3.42997e-08
-3.48411e-08
3.71645e-08
-3.75986e-08
3.9826e-08
-4.01318e-08
4.22145e-08
-4.23758e-08
4.42609e-08
-4.42669e-08
4.59298e-08
-4.58161e-08
4.72351e-08
-4.69907e-08
4.81695e-08
-4.78381e-08
4.87585e-08
-4.83336e-08
4.89876e-08
-4.84737e-08
4.88497e-08
-4.82562e-08
4.8348e-08
-4.76852e-08
4.74946e-08
-4.67714e-08
4.63099e-08
-4.55395e-08
4.47501e-08
-4.3963e-08
4.33464e-08
-4.192e-08
4.13089e-08
-3.96825e-08
3.69163e-08
-3.90683e-08
3.56602e-08
-3.59893e-08
3.8304e-08
-2.87056e-08
3.22506e-08
-2.93379e-08
2.01964e-08
-3.61142e-08
2.4775e-08
-2.66925e-08
3.73945e-08
-8.57311e-09
2.26972e-08
-1.88852e-08
-1.50029e-09
-3.93225e-08
1.46532e-08
-1.80477e-08
4.22373e-08
1.55042e-08
1.44441e-08
-1.02936e-08
-2.51867e-08
-4.85639e-08
6.91398e-09
-1.12531e-08
5.21861e-08
4.03314e-08
8.45629e-09
-4.51606e-09
-4.81368e-08
-6.22284e-08
2.01564e-09
-6.62884e-09
6.57715e-08
6.35956e-08
4.54732e-09
-1.25485e-09
-6.89606e-08
-7.79652e-08
-5.49157e-10
-3.84751e-09
8.06246e-08
8.41556e-08
2.39784e-09
1.64378e-10
-8.66739e-08
-9.38318e-08
-1.43506e-09
-2.51608e-09
9.50404e-08
1.01408e-07
1.55257e-09
3.862e-10
-1.01225e-07
-1.085e-07
-1.61768e-09
-1.88916e-09
1.0816e-07
1.16297e-07
1.12312e-09
3.4816e-10
-1.1396e-07
-1.2251e-07
-1.48433e-09
-1.82027e-09
1.20308e-07
1.30911e-07
9.69278e-10
4.70614e-10
-1.25967e-07
-1.37514e-07
-1.48017e-09
-2.03342e-09
1.32283e-07
1.47362e-07
1.01394e-09
1.98161e-10
-1.38544e-07
-1.54306e-07
-2.73073e-09
5.37583e-09
1.04887e-07
-6.47685e-11
-8.21308e-12
-6.45639e-12
-3.10499e-12
-3.23401e-12
-3.11769e-13
-1.05654e-12
1.20019e-12
4.66e-13
2.11446e-12
2.85785e-06
2.38971e-06
1.57162e-06
1.38447e-06
)
;

boundaryField
{
    inlet
    {
        type            calculated;
        value           uniform 0;
    }
    outlet
    {
        type            calculated;
        value           uniform 0;
    }
    sideWall
    {
        type            empty;
    }
}


// ************************************************************************* //
