/*--------------------------------*- C++ -*----------------------------------*\
| =========                 |                                                 |
| \\      /  F ield         | foam-extend: Open Source CFD                    |
|  \\    /   O peration     | Version:     3.2                                |
|   \\  /    A nd           | Web:         http://www.foam-extend.org         |
|    \\/     M anipulation  | For copyright notice see file Copyright         |
\*---------------------------------------------------------------------------*/
FoamFile
{
    version     2.0;
    format      ascii;
    class       areaScalarField;
    location    "2000";
    object      Fi2;
}
// * * * * * * * * * * * * * * * * * * * * * * * * * * * * * * * * * * * * * //

dimensions      [0 1 -1 0 0 0 0];

internalField   nonuniform List<scalar> 
300
(
-7.39598e-07
-4.21937e-06
-1.26654e-06
1.04576e-06
2.27854e-06
2.76642e-06
2.95222e-06
2.97501e-06
2.94431e-06
2.88121e-06
2.80498e-06
2.72705e-06
2.65118e-06
2.5708e-06
2.4934e-06
2.41455e-06
2.33071e-06
2.24666e-06
2.16027e-06
2.0729e-06
1.98495e-06
1.89643e-06
1.80496e-06
1.71056e-06
1.61879e-06
1.53396e-06
1.45711e-06
1.38928e-06
1.33019e-06
1.27949e-06
1.23595e-06
1.19868e-06
1.16755e-06
1.14197e-06
1.12148e-06
1.10452e-06
1.09047e-06
1.07856e-06
1.06862e-06
1.06004e-06
1.05292e-06
1.04663e-06
1.04155e-06
1.03688e-06
1.03331e-06
1.02978e-06
1.02733e-06
1.02459e-06
1.02297e-06
1.02052e-06
1.02037e-06
1.01631e-06
1.02099e-06
1.00823e-06
1.03255e-06
9.79424e-07
1.09261e-06
8.77276e-07
1.64968e-06
3.37174e-06
-9.34194e-12
-8.516e-12
6.5221e-13
-5.11539e-12
-1.99006e-12
-4.38607e-13
-6.13647e-12
4.8544e-12
-1.01087e-11
9.3291e-12
4.50878e-11
6.36504e-11
2.71048e-11
5.05111e-11
1.36036e-11
4.77554e-11
1.0642e-11
4.76244e-11
1.05941e-11
3.67906e-11
5.56943e-12
2.7745e-11
1.49849e-11
2.06206e-11
1.11994e-11
5.11064e-12
2.39561e-11
1.48325e-12
3.39077e-11
-1.02169e-11
1.60515e-11
-1.22944e-11
4.72185e-11
-1.88994e-11
2.4567e-11
-3.00008e-11
9.38556e-11
1.3147e-11
4.83971e-11
-1.03938e-10
4.7924e-12
-6.30155e-11
7.96833e-11
-2.5113e-11
5.49577e-11
-1.06092e-10
7.64214e-11
-8.19474e-11
1.16646e-10
-4.18717e-11
5.21425e-11
-4.59721e-11
-4.65669e-11
2.06008e-11
-3.9213e-11
6.09192e-11
4.27692e-11
1.15582e-11
-5.7057e-12
-1.35233e-10
7.09943e-11
-1.55545e-10
2.62189e-10
-1.37536e-10
2.17296e-10
-3.70639e-10
3.21767e-10
-3.15416e-10
3.37373e-10
-3.7401e-10
9.89614e-11
3.56923e-10
-3.99866e-10
7.84102e-10
-1.22582e-09
1.2776e-09
-1.59451e-09
2.04788e-09
-2.28043e-09
2.8093e-09
-3.15239e-09
3.75224e-09
-4.15727e-09
4.92045e-09
-5.35934e-09
6.29292e-09
-6.7891e-09
7.88239e-09
-8.44743e-09
9.71599e-09
-1.03361e-08
1.1787e-08
-1.24581e-08
1.40887e-08
-1.48031e-08
1.6609e-08
-1.7353e-08
1.93222e-08
-2.00805e-08
2.21971e-08
-2.29543e-08
2.51846e-08
-2.59202e-08
2.82407e-08
-2.89329e-08
3.12985e-08
-3.19274e-08
3.42963e-08
-3.48379e-08
3.71615e-08
-3.75957e-08
3.98233e-08
-4.01292e-08
4.22123e-08
-4.23738e-08
4.42592e-08
-4.42653e-08
4.59285e-08
-4.5815e-08
4.72344e-08
-4.699e-08
4.81692e-08
-4.78379e-08
4.87586e-08
-4.83338e-08
4.89882e-08
-4.84744e-08
4.88506e-08
-4.82572e-08
4.83494e-08
-4.76866e-08
4.74964e-08
-4.67732e-08
4.6312e-08
-4.55416e-08
4.48904e-08
-4.39443e-08
4.32094e-08
-4.19529e-08
4.00306e-08
-4.05442e-08
3.8203e-08
-3.82e-08
3.92895e-08
-3.27649e-08
3.46658e-08
-3.2007e-08
2.49547e-08
-3.63303e-08
2.75154e-08
-2.9048e-08
3.71116e-08
-1.41171e-08
2.50143e-08
-2.1353e-08
4.23872e-09
-3.79242e-08
1.70159e-08
-2.00759e-08
4.04704e-08
9.31698e-09
1.63216e-08
-1.22453e-08
-1.92374e-08
-4.57654e-08
8.6055e-09
-1.26983e-08
4.93136e-08
3.42324e-08
9.62041e-09
-5.74694e-09
-4.25024e-08
-5.84416e-08
2.99714e-09
-7.6985e-09
6.21224e-08
5.79874e-08
5.42976e-09
-1.82877e-09
-6.39902e-08
-7.39117e-08
-1.81325e-10
-4.48562e-09
7.68792e-08
7.93777e-08
2.89199e-09
-8.07001e-11
-8.25337e-08
-8.99147e-08
-1.43334e-09
-2.72652e-09
9.16548e-08
9.74186e-08
1.58313e-09
2.81928e-10
-9.77852e-08
-1.04935e-07
-1.51331e-09
-1.97366e-09
1.04981e-07
1.12642e-07
1.14025e-09
4.17341e-10
-1.10872e-07
-1.18988e-07
-1.53934e-09
-1.81134e-09
1.1731e-07
1.27206e-07
1.04311e-09
3.83683e-10
-1.22985e-07
-1.33523e-07
-1.53927e-09
-2.0069e-09
1.29313e-07
1.42979e-07
9.75354e-10
6.94749e-10
-1.34938e-07
-1.50032e-07
-2.07447e-09
-2.41254e-09
1.43633e-07
1.52357e-07
-4.16652e-08
-3.02581e-11
-7.69634e-12
-6.46157e-12
-3.09111e-12
-3.23062e-12
-3.09387e-13
-1.05342e-12
1.20356e-12
4.68997e-13
2.11698e-12
2.85785e-06
2.38971e-06
1.57162e-06
1.38447e-06
)
;

boundaryField
{
    inlet
    {
        type            calculated;
        value           uniform 0;
    }
    outlet
    {
        type            calculated;
        value           uniform 0;
    }
    sideWall
    {
        type            empty;
    }
}


// ************************************************************************* //
