/*--------------------------------*- C++ -*----------------------------------*\
| =========                 |                                                 |
| \\      /  F ield         | foam-extend: Open Source CFD                    |
|  \\    /   O peration     | Version:     3.2                                |
|   \\  /    A nd           | Web:         http://www.foam-extend.org         |
|    \\/     M anipulation  | For copyright notice see file Copyright         |
\*---------------------------------------------------------------------------*/
FoamFile
{
    version     2.0;
    format      ascii;
    class       areaScalarField;
    location    "2000";
    object      He;
}
// * * * * * * * * * * * * * * * * * * * * * * * * * * * * * * * * * * * * * //

dimensions      [0 0 0 0 0 0 0];

internalField   nonuniform List<scalar> 
300
(
0
0
0
0
0
0
0
0
0
0
0
0
0
0
0
0
0
0
0
0
0
0
0
0
0
0
0
0
0
0
0
0
0
0
0
0
0
0
0
0
0
0
0
0
0
0
0
0
0
0
0
0
0
0
0
0
0
0
0
2.52125e-07
9.19207e-07
8.5431e-07
3.17624e-07
2.79021e-07
2.2018e-07
1.87589e-07
1.56516e-07
1.24354e-07
7.81135e-11
0
0
0
0
0
0
0
0
0
0
0
0
0
0
0
0
0
0
0
0
0
0
0
0
0
0
7.56235e-14
9.98999e-13
0
0
0
5.59644e-11
4.7418e-11
1.16566e-11
0
0
0
2.41955e-11
2.64242e-11
1.51793e-11
0
0
0
3.76864e-11
2.2953e-11
3.21161e-11
2.11327e-11
0
0
0
0
7.48866e-11
6.74005e-11
1.86174e-11
0
0
0
2.17542e-11
0
0
1.55785e-10
9.74249e-11
9.1074e-11
0
0
1.07913e-10
1.33469e-10
0
0
0
0
0
0
0
0
0
0
0
0
0
0
0
0
0
0
0
0
0
0
0
0
0
0
0
0
0
0
0
0
0
0
0
0
0
0
0
0
0
0
0
0
0
0
0
0
0
0
0
0
0
0
0
0
0
0
4.84311e-12
6.36852e-13
0
0
0
0
9.98773e-10
1.81424e-09
1.39007e-09
9.34332e-10
0
0
0
0
6.60488e-09
8.85176e-09
6.8143e-09
3.31424e-09
0
0
0
0
1.77919e-08
2.12942e-08
1.6373e-08
7.01595e-09
0
0
0
0
3.33732e-08
3.76209e-08
2.88501e-08
1.14973e-08
0
0
0
0
5.12753e-08
5.5791e-08
4.26445e-08
1.62065e-08
0
0
0
0
6.97295e-08
7.39753e-08
5.636e-08
2.07278e-08
0
0
0
0
8.69359e-08
9.06308e-08
6.89431e-08
2.48045e-08
0
0
0
0
1.02017e-07
1.05124e-07
7.99604e-08
2.84061e-08
0
0
0
0
1.15632e-07
1.1849e-07
9.01163e-08
3.18248e-08
0
0
0
0
1.28907e-07
1.31897e-07
1.00619e-07
3.56269e-08
0
0
0
0
1.43553e-07
1.46947e-07
1.12472e-07
3.85979e-08
0
0
0
3.77367e-11
1.14522e-05
1.45448e-05
6.75101e-06
1.06452e-05
1.25244e-05
0
0
0
0
0
0
0
)
;

boundaryField
{
    inlet
    {
        type            calculated;
        value           uniform 0;
    }
    outlet
    {
        type            calculated;
        value           uniform 0;
    }
    sideWall
    {
        type            empty;
    }
}


// ************************************************************************* //
