/*--------------------------------*- C++ -*----------------------------------*\
| =========                 |                                                 |
| \\      /  F ield         | foam-extend: Open Source CFD                    |
|  \\    /   O peration     | Version:     3.2                                |
|   \\  /    A nd           | Web:         http://www.foam-extend.org         |
|    \\/     M anipulation  | For copyright notice see file Copyright         |
\*---------------------------------------------------------------------------*/
FoamFile
{
    version     2.0;
    format      ascii;
    class       areaScalarField;
    location    "2000";
    object      kTempA;
}
// * * * * * * * * * * * * * * * * * * * * * * * * * * * * * * * * * * * * * //

dimensions      [0 2 -2 0 0 0 0];

internalField   nonuniform List<scalar> 
300
(
0.00364903
0.00447001
0.00377904
0.00318955
0.00285162
0.00271215
0.00265807
0.0026514
0.00266039
0.00267881
0.00270097
0.00272354
0.00274542
0.0027685
0.00279064
0.00281309
0.00283687
0.00286061
0.0028849
0.00290936
0.00293388
0.00295845
0.00298374
0.00300972
0.00303486
0.00305801
0.0030789
0.00309729
0.00311326
0.00312693
0.00313864
0.00314865
0.003157
0.00316385
0.00316933
0.00317386
0.00317762
0.0031808
0.00318345
0.00318574
0.00318764
0.00318932
0.00319067
0.00319192
0.00319287
0.00319381
0.00319446
0.00319519
0.00319562
0.00319627
0.00319631
0.0031974
0.00319615
0.00319955
0.00319307
0.00320721
0.00317704
0.00323435
0.00302593
0.0034268
0.00444378
0.0042277
0.00380749
0.00381409
0.00377383
0.00377544
0.00376932
0.00376968
0.00376994
0.00377156
0.00377204
0.00377281
0.00377377
0.00377484
0.00377572
0.00377644
0.00377708
0.0037776
0.00377789
0.00377822
0.00377848
0.00377866
0.00377879
0.00377888
0.00377893
0.00377899
0.00377896
0.00377903
0.0037791
0.00377911
0.00377913
0.0037791
0.0037791
0.00377905
0.00377909
0.00377915
0.00377915
0.00377916
0.00377913
0.00377915
0.00377907
0.00377913
0.00377917
0.00377918
0.00377918
0.00377916
0.00377916
0.0037791
0.00377914
0.00377919
0.00377919
0.00377919
0.00377917
0.00377916
0.0037791
0.00377914
0.00377918
0.00377919
0.00377918
0.00377917
0.00377913
0.00377911
0.0037791
0.0037792
0.00377913
0.0037792
0.00377911
0.00377914
0.00377907
0.00377907
0.0037792
0.00377905
0.0037793
0.00377892
0.00377933
0.00377876
0.00377935
0.00377874
0.00377948
0.00377862
0.00377958
0.00377842
0.00377967
0.00377835
0.00377985
0.00377816
0.00378
0.0037779
0.00378014
0.00377776
0.00378038
0.00377751
0.00378057
0.00377719
0.00378075
0.003777
0.00378102
0.0037767
0.00378123
0.00377636
0.00378142
0.00377617
0.00378167
0.00377589
0.00378183
0.00377561
0.00378211
0.00377542
0.00378227
0.00377517
0.00378238
0.0037751
0.00378251
0.00377498
0.00378254
0.00377487
0.00378266
0.00377486
0.00378266
0.00377483
0.00378259
0.00377496
0.00378256
0.00377503
0.00378243
0.00377511
0.0037824
0.00377527
0.00378226
0.0037754
0.00378206
0.00377568
0.0037819
0.00377589
0.00378165
0.0037761
0.00378151
0.0037764
0.00378128
0.00377665
0.00378117
0.00377696
0.00378096
0.00377723
0.00378088
0.00377753
0.00378072
0.00377775
0.00378054
0.00377807
0.00378044
0.00377828
0.0037803
0.00377857
0.00378024
0.00377874
0.00378013
0.00377899
0.00378008
0.00377912
0.00377999
0.00377933
0.00377997
0.0037794
0.0037799
0.00377956
0.00377988
0.00377959
0.00377983
0.00377972
0.00377981
0.00377971
0.00377976
0.0037798
0.00377974
0.00377984
0.00377978
0.00377986
0.00377973
0.00377982
0.00377975
0.00377982
0.00377971
0.00377977
0.00377973
0.00377973
0.00377969
0.00377975
0.00377968
0.00377968
0.00377964
0.00377969
0.00377961
0.00377963
0.00377962
0.00377957
0.00377959
0.00377961
0.00377959
0.00377954
0.00377954
0.00377955
0.0037795
0.0037795
0.00377955
0.00377946
0.00377954
0.00377951
0.00377955
0.00377945
0.00377949
0.00377947
0.00377945
0.00377944
0.00377953
0.00377946
0.0037795
0.0037795
0.00377953
0.00377945
0.0037794
0.00377973
0.00377917
0.00378044
0.00377828
0.00378023
0.00378117
0.00377803
0.00377966
0.00377626
0.00378269
0.00376692
0.00379895
0.00378918
0.00371009
0.00405302
0.00323347
0.0028261
0.00304734
0.00309872
)
;

boundaryField
{
    inlet
    {
        type            calculated;
        value           uniform 0;
    }
    outlet
    {
        type            calculated;
        value           uniform 0;
    }
    sideWall
    {
        type            empty;
    }
}


// ************************************************************************* //
