/*--------------------------------*- C++ -*----------------------------------*\
| =========                 |                                                 |
| \\      /  F ield         | foam-extend: Open Source CFD                    |
|  \\    /   O peration     | Version:     3.2                                |
|   \\  /    A nd           | Web:         http://www.foam-extend.org         |
|    \\/     M anipulation  | For copyright notice see file Copyright         |
\*---------------------------------------------------------------------------*/
FoamFile
{
    version     2.0;
    format      ascii;
    class       surfaceScalarField;
    location    "2000";
    object      meshPhi;
}
// * * * * * * * * * * * * * * * * * * * * * * * * * * * * * * * * * * * * * //

dimensions      [0 3 -1 0 0 0 0];

internalField   nonuniform List<scalar> 
4492
(
0
0
0
0
0
0
0
0
0
0
0
0
0
0
0
0
0
0
0
0
0
0
0
0
0
0
0
0
0
0
0
0
0
0
0
0
0
0
0
0
0
0
0
0
0
0
0
0
0
0
0
0
0
0
0
0
0
0
0
0
0
0
0
0
0
0
0
0
0
0
0
0
0
0
0
0
0
0
0
0
0
0
0
0
0
0
0
0
0
0
0
0
0
0
0
0
0
0
0
0
0
0
0
0
0
0
0
0
0
-1.4456e-20
-2.77555e-19
1.87928e-19
2.77561e-19
-2.45752e-18
2.77484e-19
3.12147e-17
-2.55186e-30
-3.97017e-16
5.5417e-19
-5.8785e-14
2.76465e-19
-1.68995e-13
2.77697e-19
-1.60011e-13
0
-7.74196e-14
2.77321e-19
-7.20311e-14
2.17874e-30
-5.95175e-14
2.77309e-19
-5.61215e-14
0
-4.89733e-14
-2.77313e-19
-4.08562e-14
-2.77314e-19
-3.61914e-14
0
3.32373e-13
2.7732e-19
1.00871e-12
0
1.23904e-12
-2.77323e-19
1.05076e-12
-1.63755e-30
8.84586e-13
-2.77326e-19
7.82534e-13
-2.77327e-19
7.4611e-13
2.77328e-19
7.26777e-13
5.54657e-19
7.25522e-13
-1.40195e-30
6.58696e-13
0
5.60431e-13
-5.5466e-19
4.72805e-13
0
4.74099e-13
0
4.88176e-13
0
4.21178e-13
0
3.01797e-13
0
2.83473e-13
0
3.39297e-13
-5.54662e-19
3.78895e-13
-5.54662e-19
3.68521e-13
0
1.8628e-13
5.54662e-19
6.13978e-14
0
2.39426e-13
0
3.95183e-13
0
5.59892e-13
0
1.03737e-12
0
6.99211e-13
0
-7.05473e-13
0
-1.19857e-12
-5.54662e-19
-2.91278e-13
0
7.64204e-13
0
8.84088e-13
-5.54662e-19
1.89208e-13
0
-5.21725e-13
-5.54662e-19
-6.51711e-13
0
3.66045e-15
0
5.61052e-13
-5.54662e-19
4.53626e-13
5.54662e-19
-1.13085e-13
0
-5.94027e-13
0
-6.26694e-13
0
-9.50639e-14
-5.54662e-19
2.97257e-13
-5.54662e-19
6.21403e-13
0
6.35769e-13
-5.54662e-19
4.13195e-15
0
-6.88648e-13
-6.05795e-29
-1.11405e-12
5.54662e-19
-4.47833e-13
5.54662e-19
6.25134e-13
1.24007e-28
1.31145e-12
0
5.77295e-13
0
-4.22287e-14
-1.10932e-18
-9.50347e-13
-5.54662e-19
-1.37181e-12
-5.54662e-19
1.54499e-13
0
1.05028e-12
-1.42655e-28
3.29304e-13
-4.2222e-29
3.85254e-14
0
1.07992e-12
5.54661e-19
9.41868e-13
0
2.69591e-12
5.54662e-19
-3.1573e-12
-5.54661e-19
-4.62918e-12
1.10933e-18
1.39661e-12
5.54661e-19
1.7652e-12
5.54663e-19
-7.63156e-13
5.5466e-19
4.43013e-13
-5.54663e-19
1.18174e-12
1.10932e-18
1.84257e-12
0
1.17218e-12
1.12714e-27
1.59936e-12
5.54665e-19
1.22599e-12
-1.37219e-27
2.22417e-12
-5.54666e-19
2.03106e-12
5.54657e-19
3.07573e-12
0
2.73939e-12
1.10931e-18
3.71622e-12
0
3.30798e-12
0
4.3797e-12
0
4.0571e-12
5.54653e-19
5.1732e-12
-2.46054e-27
4.87654e-12
-2.70647e-27
5.97739e-12
5.54674e-19
5.72729e-12
0
6.80134e-12
-2.92113e-27
6.63519e-12
3.17618e-27
7.63719e-12
0
7.56403e-12
-5.54644e-19
8.46976e-12
1.10936e-18
8.48882e-12
-1.10928e-18
9.1881e-12
1.10937e-18
9.33035e-12
0
9.88744e-12
0
1.01605e-11
1.10927e-18
1.0441e-11
0
1.08326e-11
-1.10926e-18
1.08597e-11
1.10938e-18
1.13952e-11
0
1.11245e-11
0
1.17784e-11
0
1.11982e-11
-1.10939e-18
1.19763e-11
0
1.10986e-11
-1.1094e-18
1.19711e-11
0
1.07688e-11
0
1.17051e-11
-1.10924e-18
1.03516e-11
1.10941e-18
1.10652e-11
0
9.57621e-12
0
1.03586e-11
0
8.89243e-12
-1.10941e-18
9.40372e-12
0
7.82214e-12
1.10941e-18
8.37327e-12
0
6.74431e-12
0
7.26681e-12
0
5.56444e-12
-9.20184e-28
6.0281e-12
0
4.28814e-12
0
4.68846e-12
0
2.95786e-12
1.10941e-18
3.30406e-12
1.10923e-18
1.64388e-12
0
1.90717e-12
0
-1.07261e-13
0
-3.92476e-14
-4.21721e-27
-2.44128e-12
-3.26135e-27
-3.6529e-12
1.10924e-18
1.68621e-12
0
1.3422e-11
-1.10924e-18
1.44145e-11
0
1.10555e-11
6.66378e-27
-1.21291e-11
0
-5.19635e-11
0
-5.80493e-11
0
-3.48219e-11
-1.10925e-18
1.97429e-11
1.10939e-18
1.07191e-10
1.10926e-18
1.1801e-10
1.19483e-26
5.48605e-11
0
-5.18524e-11
-1.10938e-18
-2.03017e-10
1.10927e-18
-2.20135e-10
0
-1.0313e-10
-1.10927e-18
7.07455e-11
0
3.03851e-10
1.10928e-18
3.29154e-10
-1.22591e-26
1.34865e-10
1.10928e-18
-1.24481e-10
1.10936e-18
-4.49668e-10
7.21418e-27
-4.7972e-10
0
-2.01532e-10
0
1.5342e-10
1.10935e-18
5.85876e-10
0
6.25021e-10
-2.2187e-18
2.40233e-10
-1.1093e-18
-2.22655e-10
0
-7.6062e-10
-1.1093e-18
-8.01435e-10
0
-3.15728e-10
1.1093e-18
2.57123e-10
0
9.14832e-10
0
9.64605e-10
5.10727e-27
3.57457e-10
0
-3.32323e-10
1.10933e-18
-1.09716e-09
0
-1.14717e-09
0
-4.34996e-10
6.20567e-27
3.67955e-10
0
1.25606e-09
-7.91404e-27
1.31429e-09
0
4.75923e-10
-1.10932e-18
-4.43925e-10
1.10933e-18
-1.42984e-09
0
-1.48397e-09
-1.99271e-27
-5.4584e-10
9.13157e-27
4.78005e-10
1.10933e-18
1.57885e-09
-1.10932e-18
1.64143e-09
0
5.83599e-10
1.2505e-26
-5.48755e-10
1.10932e-18
-1.73201e-09
0
-1.78662e-09
5.88086e-27
-6.41885e-10
0
5.77737e-10
-1.10932e-18
1.86343e-09
-1.10932e-18
1.92829e-09
-1.10932e-18
6.76769e-10
-1.35994e-26
-6.39499e-10
1.10932e-18
-1.99375e-09
1.37688e-26
-2.05194e-09
-1.10932e-18
-7.30299e-10
0
6.61565e-10
-1.10932e-18
2.11611e-09
1.10932e-18
2.18873e-09
0
7.65889e-10
2.21865e-18
-7.17639e-10
0
-2.23582e-09
-1.10932e-18
-2.3054e-09
1.10932e-18
-8.18684e-10
1.10932e-18
7.37905e-10
-1.10932e-18
2.35883e-09
-2.21865e-18
2.44712e-09
-1.10933e-18
8.58444e-10
0
-7.9062e-10
1.10932e-18
-2.48016e-09
-1.10932e-18
-2.57263e-09
1.10932e-18
-9.17479e-10
0
8.08739e-10
0
2.60988e-09
-2.58595e-26
2.73253e-09
1.10933e-18
9.71082e-10
1.10933e-18
-8.72979e-10
-1.10932e-18
-2.71902e-09
0
-2.91054e-09
1.1093e-18
-1.22136e-09
8.24576e-27
-1.40664e-10
1.10933e-18
-2.11916e-13
9.11381e-29
-1.08442e-13
-8.6446e-30
-1.04052e-13
-1.1093e-18
-6.18858e-14
0
-3.06137e-14
1.10897e-18
-7.80441e-15
-1.1099e-18
1.11926e-14
0
2.63474e-14
2.21409e-18
2.91538e-14
0
1.32444e-14
0
9.90325e-17
-1.11025e-18
-7.86408e-18
6.93889e-19
0
0
0
0
0
0
0
0
0
0
0
0
0
0
0
0
0
0
0
0
0
0
0
0
0
0
0
0
0
0
0
0
0
0
0
0
0
0
0
0
0
0
0
0
0
0
0
0
0
0
0
0
0
0
0
0
0
0
0
0
0
0
0
0
0
0
0
0
0
0
0
0
0
0
0
0
0
0
0
0
0
0
0
0
0
0
0
0
0
0
0
0
0
0
0
0
0
0
0
0
0
0
0
0
0
0
0
0
0
-5.05961e-20
0
5.71013e-19
-2.77566e-19
-6.62086e-18
2.77442e-19
7.89559e-17
-3.57093e-30
-9.47867e-16
-2.75246e-19
-5.85765e-14
-1.70221e-29
-1.65309e-13
-2.7581e-19
-1.56799e-13
-2.75123e-19
-7.69589e-14
-2.75295e-19
-7.07117e-14
2.75254e-19
-5.86514e-14
0
-5.51728e-14
0
-4.81499e-14
2.75366e-19
-4.05095e-14
1.62613e-29
-3.26429e-14
0
3.29661e-13
8.80538e-29
9.88383e-13
5.50902e-19
1.21576e-12
2.75466e-19
1.0345e-12
-3.41003e-29
8.70984e-13
0
7.70605e-13
-2.75501e-19
7.34305e-13
0
7.15408e-13
2.75517e-19
7.13393e-13
-2.75523e-19
6.48013e-13
0
5.51597e-13
0
4.66088e-13
0
4.66662e-13
0
4.79732e-13
0
4.14033e-13
0
2.97929e-13
4.75278e-29
2.7956e-13
0
3.33713e-13
0
3.7258e-13
0
3.61148e-13
5.51087e-19
1.83792e-13
-5.51088e-19
6.31502e-14
-5.51088e-19
2.35103e-13
0
3.88153e-13
-6.00474e-29
5.53724e-13
5.51087e-19
1.01483e-12
0
6.7968e-13
0
-6.86107e-13
0
-1.16838e-12
-5.51087e-19
-2.86779e-13
0
7.44008e-13
5.51087e-19
8.64759e-13
0
1.87408e-13
-5.51086e-19
-5.09162e-13
-5.51086e-19
-6.36138e-13
0
2.1755e-15
-5.51086e-19
5.47163e-13
3.15888e-29
4.43157e-13
6.78811e-29
-1.1002e-13
-5.51086e-19
-5.8088e-13
-5.51086e-19
-6.12332e-13
-5.51086e-19
-9.61421e-14
-5.51086e-19
2.92366e-13
-5.51086e-19
6.09613e-13
-5.51086e-19
6.2002e-13
-5.51086e-19
4.75561e-15
0
-6.75411e-13
-5.51086e-19
-1.08767e-12
-5.51086e-19
-4.39148e-13
0
6.12587e-13
0
1.27824e-12
-5.51086e-19
5.70543e-13
5.51086e-19
-4.2442e-14
-5.51086e-19
-9.31743e-13
0
-1.33566e-12
-5.51086e-19
1.4558e-13
5.51085e-19
1.02172e-12
0
3.28691e-13
-5.51086e-19
4.9281e-14
0
1.04474e-12
0
9.5132e-13
-5.51086e-19
2.58709e-12
-5.51086e-19
-3.06552e-12
5.51085e-19
-4.49675e-12
5.51087e-19
1.31928e-12
-5.51085e-19
1.71918e-12
-1.10218e-18
-7.1449e-13
1.60996e-27
4.26453e-13
5.51089e-19
1.16396e-12
0
1.80016e-12
0
1.16564e-12
-5.51081e-19
1.56429e-12
5.51092e-19
1.22091e-12
1.10216e-18
2.17536e-12
2.53715e-27
2.01247e-12
0
3.0117e-12
0
2.71047e-12
5.51075e-19
3.6418e-12
3.40326e-27
3.2716e-12
5.51071e-19
4.29454e-12
5.51101e-19
4.00848e-12
4.99454e-27
5.07536e-12
-4.26001e-27
4.81451e-12
-5.51064e-19
5.86749e-12
5.51108e-19
5.65096e-12
5.5106e-19
6.67963e-12
5.51111e-19
6.5428e-12
5.51055e-19
7.50408e-12
5.28841e-27
7.45486e-12
0
8.32569e-12
-5.5112e-19
8.36184e-12
-1.10209e-18
9.03625e-12
0
9.18705e-12
0
9.72768e-12
0
9.99974e-12
0
1.02769e-11
-1.10227e-18
1.06571e-11
0
1.06934e-11
1.10228e-18
1.1206e-11
0
1.09587e-11
0
1.15784e-11
0
1.10361e-11
0
1.17685e-11
-1.10202e-18
1.09425e-11
0
1.17589e-11
0
1.0622e-11
1.10231e-18
1.14947e-11
-1.102e-18
1.0211e-11
-1.10231e-18
1.08656e-11
1.10199e-18
9.44958e-12
1.10232e-18
1.01698e-11
0
8.77386e-12
0
9.23163e-12
0
7.72183e-12
0
8.2165e-12
1.10197e-18
6.66132e-12
0
7.12708e-12
1.10197e-18
5.50026e-12
0
5.90815e-12
1.10197e-18
4.24382e-12
1.10232e-18
4.59045e-12
-1.10197e-18
2.93381e-12
4.98825e-27
3.22924e-12
4.88159e-27
1.63938e-12
-1.10232e-18
1.85191e-12
1.10197e-18
-8.20647e-14
0
-5.89224e-14
-1.10197e-18
-2.39054e-12
0
-3.55167e-12
-1.10198e-18
1.71265e-12
1.1023e-18
1.30927e-11
0
1.41523e-11
-1.10229e-18
1.07485e-11
1.102e-18
-1.206e-11
0
-5.08192e-11
1.102e-18
-5.68822e-11
0
-3.41014e-11
0
1.96709e-11
-1.10227e-18
1.04799e-10
0
1.15527e-10
0
5.37982e-11
1.10203e-18
-5.13474e-11
0
-1.98625e-10
-1.10204e-18
-2.15537e-10
-1.10224e-18
-1.01295e-10
2.16541e-26
7.00295e-11
-1.10224e-18
2.97257e-10
0
3.22133e-10
-1.10223e-18
1.32585e-10
1.10207e-18
-1.22948e-10
-1.10222e-18
-4.40048e-10
-1.10208e-18
-4.6959e-10
-1.10221e-18
-1.98236e-10
1.10209e-18
1.51481e-10
1.10221e-18
5.73315e-10
-1.1021e-18
6.11654e-10
-1.1022e-18
2.36466e-10
0
-2.19584e-10
2.20439e-18
-7.44454e-10
1.10211e-18
-7.84437e-10
0
-3.10843e-10
-9.14271e-26
2.53538e-10
-1.10219e-18
8.95351e-10
-1.18578e-25
9.43978e-10
1.10218e-18
3.52112e-10
0
-3.27458e-10
-1.10218e-18
-1.07394e-09
0
-1.12279e-09
-1.10217e-18
-4.28514e-10
1.30651e-25
3.62559e-10
-1.10217e-18
1.22943e-09
1.10215e-18
1.2862e-09
1.10218e-18
4.69024e-10
-1.10215e-18
-4.37171e-10
-5.56915e-25
-1.39965e-09
-1.90753e-25
-1.4524e-09
-3.80892e-27
-5.37947e-10
0
4.70751e-10
-6.22524e-25
1.54547e-09
2.08114e-25
1.60636e-09
1.10217e-18
5.75336e-10
1.90743e-25
-5.40177e-10
-2.20434e-18
-1.6955e-09
-1.10216e-18
-1.74859e-09
1.10216e-18
-6.32827e-10
0
5.68777e-10
1.10216e-18
1.82412e-09
2.44647e-25
1.8871e-09
-2.20435e-18
6.67358e-10
0
-6.29344e-10
1.10217e-18
-1.95179e-09
-1.10216e-18
-2.00825e-09
0
-7.20117e-10
-1.10215e-18
6.5121e-10
8.28693e-25
2.07154e-09
2.20434e-18
2.14197e-09
2.86084e-26
7.55329e-10
0
-7.06179e-10
0
-2.18884e-09
-2.93734e-25
-2.25626e-09
-2.20429e-18
-8.07332e-10
-1.10215e-18
7.26304e-10
-2.20432e-18
2.30924e-09
-3.14902e-25
2.39479e-09
-3.56025e-26
8.46652e-10
1.10219e-18
-7.77994e-10
-1.10217e-18
-2.42814e-09
0
-2.51768e-09
-3.22697e-26
-9.04789e-10
-1.10214e-18
7.96022e-10
1.10216e-18
2.55517e-09
1.10218e-18
2.674e-09
0
9.57517e-10
0
-8.58476e-10
-1.10217e-18
-2.66321e-09
-1.10219e-18
-2.85001e-09
-1.04569e-25
-1.20817e-09
-1.10218e-18
-1.4466e-10
1.10218e-18
2.95692e-13
1.10217e-18
-6.617e-14
0
-1.38674e-13
-1.10212e-18
-5.23859e-14
-7.59279e-30
-3.16286e-14
-8.46382e-31
-7.51956e-15
4.59347e-30
1.09631e-14
0
2.58321e-14
-1.09933e-18
2.85537e-14
-1.11562e-18
1.31145e-14
-3.08149e-31
2.36038e-16
-1.11026e-18
-1.97334e-17
1.73472e-18
0
0
0
0
0
0
0
0
0
0
0
0
0
0
0
0
0
0
0
0
0
0
0
0
0
0
0
0
0
0
0
0
0
0
0
0
0
0
0
0
0
0
0
0
0
0
0
0
0
0
0
0
0
0
0
0
0
0
0
0
0
0
0
0
0
0
0
0
0
0
0
0
0
0
0
0
0
0
0
0
0
0
0
0
0
0
0
0
-6.26771e-44
-7.05682e-30
0
-7.05682e-30
0
0
0
0
0
0
0
0
0
0
0
0
0
0
2.77556e-19
7.22801e-21
0
-8.31222e-20
-2.77555e-19
9.39642e-19
-2.77566e-19
-1.09689e-17
2.77439e-19
1.27337e-16
2.78865e-19
-1.49105e-15
2.7194e-19
-5.678e-14
-2.6795e-19
-1.56885e-13
-1.03354e-29
-1.49022e-13
2.71044e-19
-7.42964e-14
-2.71295e-19
-6.73893e-14
7.07779e-31
-5.61266e-14
-1.41284e-29
-5.26671e-14
0
-4.59683e-14
-2.71539e-19
-3.90299e-14
1.63624e-29
-2.81955e-14
0
3.17724e-13
2.71721e-19
9.40441e-13
-2.71771e-19
1.15853e-12
-2.71813e-19
9.8937e-13
-2.71849e-19
8.33088e-13
0
7.37205e-13
-2.71909e-19
7.02058e-13
-2.71932e-19
6.84139e-13
-2.71952e-19
6.8143e-13
0
6.19322e-13
0
5.27436e-13
0
4.46425e-13
-5.44003e-19
4.46269e-13
0
4.57974e-13
-1.11029e-28
3.95395e-13
0
2.8579e-13
0
2.67887e-13
0
3.1887e-13
0
3.55934e-13
-7.9101e-29
3.43756e-13
0
1.76196e-13
0
6.31554e-14
5.44053e-19
2.24245e-13
5.44054e-19
3.69712e-13
0
5.31101e-13
0
9.64487e-13
0
6.42461e-13
-5.44051e-19
-6.47306e-13
0
-1.10566e-12
0
-2.74844e-13
-5.4405e-19
7.02774e-13
-5.44051e-19
8.22116e-13
-5.44049e-19
1.81302e-13
5.44049e-19
-4.82507e-13
0
-6.04088e-13
0
2.27278e-16
0
5.18431e-13
5.44049e-19
4.20413e-13
-5.44049e-19
-1.03634e-13
0
-5.51147e-13
0
-5.80893e-13
0
-9.51765e-14
-1.0881e-18
2.79258e-13
-3.37756e-28
5.80924e-13
-5.9673e-29
5.8646e-13
0
5.77512e-15
-5.44048e-19
-6.4234e-13
5.44048e-19
-1.03099e-12
5.44048e-19
-4.19177e-13
0
5.82977e-13
1.0881e-18
1.20932e-12
-5.44049e-19
5.46742e-13
2.64809e-28
-3.96053e-14
-5.44048e-19
-8.85906e-13
5.44048e-19
-1.26505e-12
0
1.32298e-13
-5.44048e-19
9.67175e-13
5.44049e-19
3.19442e-13
5.44048e-19
5.72942e-14
-5.4405e-19
9.7557e-13
5.44048e-19
9.31401e-13
5.44049e-19
2.41403e-12
-5.44049e-19
-2.8856e-12
-1.55197e-27
-4.24716e-12
2.09514e-28
1.20591e-12
5.44047e-19
1.63121e-12
-5.44053e-19
-6.46169e-13
-5.44045e-19
3.96529e-13
5.44053e-19
1.1139e-12
0
1.70783e-12
-5.44055e-19
1.12678e-12
-5.44042e-19
1.48576e-12
0
1.182e-12
-5.44039e-19
2.06614e-12
3.33721e-27
1.93811e-12
0
2.86406e-12
5.44062e-19
2.60641e-12
5.44032e-19
3.46628e-12
5.44066e-19
3.1445e-12
0
4.09016e-12
0
3.84869e-12
5.44022e-19
4.83663e-12
0
4.61895e-12
1.08803e-18
5.5947e-12
5.44078e-19
5.41786e-12
-1.08802e-18
6.37248e-12
5.44082e-19
6.26888e-12
-5.44001e-19
7.16266e-12
0
7.13884e-12
-1.10734e-26
7.95049e-12
0
8.00279e-12
0
8.63354e-12
0
8.78875e-12
0
9.29788e-12
0
9.56139e-12
0
9.82747e-12
0
1.01857e-11
0
1.02302e-11
-1.08823e-18
1.07056e-11
0
1.04887e-11
0
1.10569e-11
0
1.05676e-11
-1.08825e-18
1.1234e-11
1.08785e-18
1.04825e-11
0
1.12201e-11
0
1.01803e-11
0
1.09651e-11
-1.08782e-18
9.78687e-12
0
1.03643e-11
0
9.06068e-12
0
9.69861e-12
0
8.41179e-12
0
8.80314e-12
-1.08778e-18
7.40722e-12
0
7.83153e-12
0
6.3935e-12
0
6.78941e-12
1.86631e-27
5.28351e-12
-1.08828e-18
5.62413e-12
0
4.08183e-12
1.08828e-18
4.36497e-12
0
2.82847e-12
1.08827e-18
3.06476e-12
0
1.58959e-12
1.08827e-18
1.74511e-12
-1.08777e-18
-5.42152e-14
0
-7.04712e-14
-1.301e-26
-2.2655e-12
0
-3.35762e-12
-1.08778e-18
1.68416e-12
0
1.23796e-11
0
1.34594e-11
-1.08823e-18
1.01554e-11
-1.0878e-18
-1.16192e-11
1.08822e-18
-4.82244e-11
0
-5.40505e-11
1.08821e-18
-3.24429e-11
0
1.89669e-11
-1.0882e-18
9.94348e-11
0
1.09697e-10
1.08819e-18
5.12371e-11
0
-4.92739e-11
0
-1.88627e-10
0
-2.04741e-10
-1.08817e-18
-9.66175e-11
1.08789e-18
6.71447e-11
-1.08816e-18
2.82289e-10
1.0879e-18
3.05883e-10
1.08815e-18
1.26557e-10
0
-1.17703e-10
0
-4.18059e-10
1.08793e-18
-4.46041e-10
0
-1.89325e-10
-1.08795e-18
1.44933e-10
0
5.44659e-10
-1.08796e-18
5.80852e-10
0
2.25969e-10
0
-2.09938e-10
0
-7.07413e-10
1.08798e-18
-7.45098e-10
-1.08809e-18
-2.97106e-10
-1.08799e-18
2.42316e-10
-1.08809e-18
8.50781e-10
-1.08801e-18
8.96517e-10
1.08809e-18
3.36705e-10
-1.08802e-18
-3.12837e-10
9.01638e-25
-1.02065e-09
-1.08802e-18
-1.0665e-09
0
-4.09789e-10
3.96755e-25
3.46307e-10
0
1.16838e-09
-4.80808e-25
1.22161e-09
0
4.48689e-10
1.08806e-18
-4.17439e-10
-1.17427e-24
-1.3303e-09
0
-1.37961e-09
2.07494e-27
-5.14646e-10
5.06206e-25
4.49466e-10
-1.08808e-18
1.46889e-09
6.01168e-25
1.52577e-09
1.08809e-18
5.50563e-10
5.67411e-25
-5.15611e-10
1.08808e-18
-1.61159e-09
0
-1.66098e-09
1.06168e-26
-6.05606e-10
0
5.42916e-10
1.08807e-18
1.73385e-09
0
1.79248e-09
1.0881e-18
6.38768e-10
-6.53158e-25
-6.00594e-10
1.08809e-18
-1.85529e-09
1.08806e-18
-1.90764e-09
1.08805e-18
-6.89243e-10
0
6.2153e-10
1.08807e-18
1.96911e-09
0
2.03459e-09
-1.08812e-18
7.23042e-10
0
-6.73861e-10
0
-2.0807e-09
-8.45851e-25
-2.14319e-09
0
-7.72759e-10
-7.58129e-25
6.93155e-10
1.08807e-18
2.19515e-09
0
2.27469e-09
0
8.10483e-10
-1.08812e-18
-7.42371e-10
1.0881e-18
-2.30829e-09
0
-2.39142e-09
-3.39734e-26
-8.66043e-10
-1.08802e-18
7.5966e-10
-1.08806e-18
2.42908e-09
-1.08811e-18
2.53982e-09
1.08817e-18
9.16372e-10
2.17631e-18
-8.18538e-10
1.08809e-18
-2.53329e-09
0
-2.71078e-09
1.08799e-18
-1.16019e-09
0
-1.42503e-10
0
2.06172e-12
2.03105e-27
3.93464e-14
0
-1.98435e-13
1.08802e-18
-3.04363e-14
2.17647e-18
-3.44979e-14
1.08705e-18
-6.49938e-15
1.08979e-18
1.03481e-14
0
2.46124e-14
-1.48856e-29
2.7168e-14
0
1.26331e-14
0
3.70627e-16
-2.87606e-32
-3.18033e-17
3.00685e-18
0
0
0
0
0
0
0
0
0
0
0
0
0
0
0
0
0
0
0
0
0
0
0
0
0
0
0
0
0
0
0
0
0
0
0
0
0
0
0
0
0
0
0
0
0
0
0
0
0
0
0
0
0
0
0
0
0
0
0
0
0
0
0
0
0
0
0
0
0
0
0
0
0
0
0
0
0
0
0
0
0
0
0
0
0
0
0
0
0
0
0
0
0
0
0
0
0
0
0
0
0
0
0
0
0
0
3.20988e-35
9.03502e-21
0
-1.01192e-19
-5.5511e-19
1.21431e-18
0
-1.39719e-17
2.77473e-19
1.6138e-16
2.78481e-19
-1.87479e-15
2.76063e-29
-5.25389e-14
2.60496e-19
-1.4209e-13
2.27872e-29
-1.35041e-13
0
-6.83206e-14
2.35431e-29
-6.12859e-14
0
-5.12329e-14
5.31347e-19
-4.7974e-14
2.65816e-19
-4.18786e-14
0
-3.58496e-14
2.66082e-19
-2.32852e-14
0
2.91955e-13
0
8.5446e-13
0
1.0541e-12
0
9.03145e-13
-2.66552e-19
7.60596e-13
0
6.73184e-13
0
6.40767e-13
0
6.24551e-13
-2.66746e-19
6.21458e-13
-1.42289e-28
5.65107e-13
0
4.81485e-13
0
4.08148e-13
5.33681e-19
4.07435e-13
0
4.1748e-13
5.33729e-19
3.60555e-13
0
2.61646e-13
5.33757e-19
2.45024e-13
0
2.90918e-13
0
3.24674e-13
0
3.12546e-13
0
1.61227e-13
0
5.99246e-14
0
2.04224e-13
0
3.35478e-13
-3.70543e-28
4.84977e-13
0
8.76742e-13
-5.33775e-19
5.81971e-13
0
-5.84206e-13
0
-1.00065e-12
-1.81275e-28
-2.52276e-13
0
6.34854e-13
-5.33773e-19
7.48652e-13
5.3377e-19
1.68568e-13
5.3377e-19
-4.37868e-13
-5.33769e-19
-5.50486e-13
0
-1.56356e-15
5.33768e-19
4.70598e-13
0
3.81502e-13
2.43426e-28
-9.30282e-14
0
-4.99555e-13
0
-5.27095e-13
5.33768e-19
-9.0569e-14
7.05355e-29
2.55148e-13
-5.3962e-28
5.29401e-13
0
5.29652e-13
0
7.0448e-15
0
-5.82718e-13
5.33768e-19
-9.34773e-13
5.33768e-19
-3.83685e-13
0
5.30646e-13
-9.04586e-28
1.09422e-12
0
4.991e-13
2.56203e-28
-3.2496e-14
5.33769e-19
-8.04259e-13
0
-1.15037e-12
0
1.15394e-13
-5.33768e-19
8.79596e-13
5.3377e-19
2.96537e-13
5.33769e-19
5.8052e-14
0
8.65012e-13
0
8.66156e-13
-5.33769e-19
2.16768e-12
5.3377e-19
-2.5968e-12
-1.74407e-27
-3.84959e-12
5.33772e-19
1.05826e-12
-5.33767e-19
1.4897e-12
5.33775e-19
-5.59956e-13
1.06753e-18
3.50229e-13
0
1.01741e-12
0
1.54821e-12
0
1.03861e-12
0
1.34823e-12
-3.4943e-27
1.09092e-12
-5.75948e-27
1.87486e-12
-5.33783e-19
1.78055e-12
0
2.60185e-12
-5.33786e-19
2.39138e-12
5.33748e-19
3.1514e-12
5.33791e-19
2.88385e-12
5.3374e-19
3.72072e-12
0
3.52639e-12
-1.6012e-18
4.40206e-12
-5.33799e-19
4.22918e-12
-1.21055e-26
5.09464e-12
-5.33805e-19
4.9578e-12
0
5.80567e-12
5.33809e-19
5.73326e-12
-5.33705e-19
6.52852e-12
5.33815e-19
6.52569e-12
-1.55764e-26
7.24953e-12
-1.06765e-18
7.31172e-12
0
7.87603e-12
-1.06766e-18
8.02669e-12
0
8.48509e-12
0
8.7284e-12
1.06731e-18
8.97218e-12
0
9.29486e-12
0
9.34351e-12
-1.06769e-18
9.76546e-12
0
9.58329e-12
0
1.00822e-11
0
9.65931e-12
0
1.024e-11
0
9.58532e-12
0
1.02235e-11
0
9.3129e-12
0
9.98883e-12
0
8.95333e-12
0
9.44094e-12
0
8.29189e-12
0
8.83293e-12
-1.59908e-26
7.69727e-12
-1.06773e-18
8.01679e-12
1.06709e-18
6.78133e-12
0
7.12904e-12
-1.06708e-18
5.85619e-12
0
6.17735e-12
1.06707e-18
4.84305e-12
1.06773e-18
5.11378e-12
0
3.74583e-12
1.06773e-18
3.96497e-12
0
2.60106e-12
1.07677e-26
2.77914e-12
0
1.46919e-12
1.06771e-18
1.57214e-12
-1.06707e-18
-2.92466e-14
0
-6.70931e-14
-1.06708e-18
-2.04383e-12
1.06769e-18
-3.04611e-12
-1.06709e-18
1.56694e-12
0
1.11675e-11
0
1.219e-11
1.06767e-18
9.20738e-12
1.06711e-18
-1.06346e-11
0
-4.37052e-11
0
-4.89917e-11
0
-2.95378e-11
1.06715e-18
1.73429e-11
1.06762e-18
9.01464e-11
1.06716e-18
9.94161e-11
0
4.66731e-11
-1.06718e-18
-4.49663e-11
-2.69027e-25
-1.71182e-10
0
-1.85669e-10
-1.06758e-18
-8.80774e-11
0
6.11998e-11
1.06757e-18
2.56222e-10
1.06724e-18
2.77356e-10
-1.06756e-18
1.15417e-10
-1.06727e-18
-1.07256e-10
0
-3.7962e-10
-1.06728e-18
-4.04588e-10
0
-1.72702e-10
-3.36824e-25
1.31964e-10
8.48247e-25
4.94623e-10
1.06733e-18
5.26837e-10
-1.06752e-18
2.06195e-10
-4.82021e-25
-1.91161e-10
-1.06752e-18
-6.42585e-10
1.06736e-18
-6.75955e-10
-1.0675e-18
-2.71127e-10
1.06737e-18
2.20528e-10
1.29863e-24
7.72851e-10
-6.72186e-25
8.13307e-10
-1.06751e-18
3.07342e-10
0
-2.8474e-10
0
-9.27302e-10
1.06742e-18
-9.67633e-10
-1.06749e-18
-3.7406e-10
7.65837e-25
3.15097e-10
0
1.06157e-09
-9.17867e-25
1.10837e-09
0
4.09644e-10
2.13494e-18
-3.79854e-10
-1.0675e-18
-1.2088e-09
0
-1.25181e-09
1.4082e-26
-4.69874e-10
0
4.089e-10
-1.06749e-18
1.33478e-09
1.14525e-24
1.38446e-09
0
5.02732e-10
1.08908e-24
-4.69106e-10
1.06751e-18
-1.46455e-09
1.24865e-24
-1.5072e-09
1.06747e-18
-5.53013e-10
1.06747e-18
4.93871e-10
-2.58718e-24
1.5757e-09
-1.06751e-18
1.62658e-09
2.92678e-26
5.83338e-10
1.06752e-18
-5.46369e-10
0
-1.68612e-09
-1.06748e-18
-1.73108e-09
-1.06746e-18
-6.2943e-10
-1.06747e-18
5.65361e-10
0
1.78961e-09
1.06753e-18
1.84633e-09
3.86226e-26
6.60321e-10
1.06754e-18
-6.12986e-10
3.08831e-24
-1.89106e-09
-1.60988e-24
-1.94483e-09
0
-7.05695e-10
1.06745e-18
6.30482e-10
0
1.99513e-09
0
2.06421e-09
1.06759e-18
7.40157e-10
1.06757e-18
-6.75262e-10
-1.06753e-18
-2.098e-09
0
-2.17003e-09
0
-7.90836e-10
1.06742e-18
6.90903e-10
1.06748e-18
2.20785e-09
0
2.30479e-09
-1.06764e-18
8.36642e-10
-1.06761e-18
-7.43963e-10
-1.06753e-18
-2.30424e-09
0
-2.4654e-09
1.06737e-18
-1.06134e-09
0
-1.29578e-10
0
5.65822e-12
1.06753e-18
2.8043e-13
0
-2.79903e-13
-1.06743e-18
-6.40471e-15
-1.0676e-18
-3.58563e-14
-1.06616e-18
-5.19057e-15
0
9.3086e-15
0
2.23996e-14
1.06961e-18
2.47065e-14
1.11401e-18
1.16341e-14
1.10989e-18
4.65636e-16
-1.11025e-18
-3.99565e-17
3.70074e-18
0
0
0
0
0
0
0
0
0
0
0
0
0
0
0
0
0
0
0
0
0
0
0
0
0
0
0
0
0
0
0
0
0
0
0
0
0
0
0
0
0
0
0
0
0
0
0
0
0
0
0
0
0
0
0
0
0
0
0
0
0
0
0
0
0
0
0
0
0
0
0
0
0
0
0
0
0
0
0
0
0
0
0
0
0
0
0
0
0
0
0
0
0
0
0
0
0
0
0
0
0
0
0
0
0
0
0
7.22801e-21
0
-9.39642e-20
2.77556e-19
1.28659e-18
0
-1.48174e-17
-5.85964e-32
1.70412e-16
0
-1.97837e-15
-2.6122e-19
-4.51523e-14
-8.84999e-29
-1.19644e-13
2.57823e-19
-1.13638e-13
0
-5.82219e-14
3.46252e-29
-5.1796e-14
2.58068e-19
-4.34285e-14
0
-4.06038e-14
0
-3.54525e-14
-2.54122e-29
-3.05452e-14
-2.59008e-19
-1.81165e-14
-2.59192e-19
2.48885e-13
5.18726e-19
7.2207e-13
0
8.91858e-13
-2.59639e-19
7.66188e-13
0
6.45368e-13
-2.59846e-19
5.7131e-13
2.80381e-28
5.43606e-13
0
5.29959e-13
2.60059e-19
5.26937e-13
-2.60109e-19
4.79367e-13
-2.60149e-19
4.08593e-13
-5.20365e-19
3.46775e-13
0
3.45789e-13
0
3.53889e-13
0
3.05724e-13
5.20519e-19
2.22555e-13
2.79736e-28
2.08259e-13
0
2.46771e-13
0
2.75366e-13
-2.29235e-28
2.64406e-13
-5.20568e-19
1.37089e-13
0
5.23988e-14
5.20572e-19
1.72949e-13
1.04115e-18
2.82311e-13
0
4.10321e-13
0
7.43192e-13
0
4.93662e-13
-5.20566e-19
-4.9109e-13
6.84436e-28
-8.44959e-13
0
-2.17576e-13
-5.20563e-19
5.33409e-13
-5.20563e-19
6.36527e-13
5.2056e-19
1.47975e-13
-1.04112e-18
-3.69928e-13
-5.20557e-19
-4.69599e-13
0
-3.92289e-15
-5.20557e-19
3.98554e-13
1.73258e-28
3.23317e-13
5.20558e-19
-7.67116e-14
5.20556e-19
-4.2092e-13
-5.20555e-19
-4.46115e-13
2.8661e-28
-8.14794e-14
1.73525e-28
2.16293e-13
-7.73042e-28
4.4947e-13
0
4.45927e-13
0
9.0152e-15
0
-4.90322e-13
-8.57755e-28
-7.90364e-13
0
-3.29645e-13
5.20556e-19
4.48599e-13
0
9.22774e-13
0
4.23661e-13
5.20558e-19
-2.02171e-14
5.20557e-19
-6.7766e-13
0
-9.80069e-13
-1.04111e-18
9.20595e-14
5.20556e-19
7.48611e-13
-5.20559e-19
2.56764e-13
-6.11961e-28
5.06192e-14
-5.20561e-19
7.09075e-13
-5.20557e-19
7.44119e-13
0
1.83316e-12
-5.20559e-19
-2.1738e-12
-5.20556e-19
-3.26724e-12
-5.20562e-19
8.66065e-13
5.20556e-19
1.27489e-12
5.20566e-19
-4.53658e-13
0
2.87041e-13
-5.20566e-19
8.63462e-13
5.20551e-19
1.30677e-12
0
8.88114e-13
-5.20548e-19
1.13878e-12
5.20573e-19
9.33768e-13
5.20542e-19
1.58356e-12
0
1.51861e-12
0
2.19957e-12
-5.20578e-19
2.0375e-12
1.06832e-26
2.66581e-12
5.61984e-27
2.45629e-12
5.20521e-19
3.14883e-12
0
3.00136e-12
5.20512e-19
3.72698e-12
-6.68932e-27
3.59755e-12
-1.59209e-26
4.3151e-12
0
4.21541e-12
-1.76275e-26
4.91918e-12
0
4.87256e-12
0
5.53363e-12
-5.20611e-19
5.54389e-12
5.20461e-19
6.14672e-12
0
6.20917e-12
0
6.68036e-12
0
6.81424e-12
0
7.19897e-12
0
7.40731e-12
0
7.61475e-12
0
7.88571e-12
0
7.93231e-12
0
8.28239e-12
0
8.13838e-12
0
8.5486e-12
0
8.20554e-12
-1.0413e-18
8.67985e-12
-1.04066e-18
8.14518e-12
0
8.66332e-12
0
7.9163e-12
0
8.46287e-12
0
7.61091e-12
-1.86959e-27
7.99829e-12
0
7.05057e-12
0
7.48209e-12
0
6.54446e-12
0
6.79038e-12
0
5.7679e-12
0
6.03647e-12
0
4.98298e-12
0
5.22861e-12
-1.04049e-18
4.1233e-12
1.0413e-18
4.32617e-12
-1.04048e-18
3.19202e-12
0
3.3517e-12
0
2.22014e-12
-1.04128e-18
2.3461e-12
9.14324e-27
1.25906e-12
1.04128e-18
1.32e-12
0
-1.06841e-14
-1.04126e-18
-4.83778e-14
1.04049e-18
-1.70976e-12
-1.04125e-18
-2.59041e-12
1.04051e-18
1.33129e-12
-2.08247e-18
9.36028e-12
0
1.02455e-11
-1.04122e-18
7.8371e-12
-2.08108e-18
-8.95228e-12
0
-3.68326e-11
-1.04055e-18
-4.12898e-11
1.04118e-18
-2.5155e-11
1.04058e-18
1.45144e-11
-1.04117e-18
7.60244e-11
0
8.38442e-11
-1.04115e-18
3.97865e-11
1.04063e-18
-3.77605e-11
0
-1.44526e-10
1.04065e-18
-1.56716e-10
-3.0386e-26
-7.50412e-11
0
5.12478e-11
-1.04111e-18
2.16383e-10
0
2.34164e-10
-1.04109e-18
9.84027e-11
-1.04074e-18
-9.00296e-11
0
-3.20745e-10
5.60285e-25
-3.41709e-10
0
-1.47185e-10
0
1.10585e-10
1.26477e-24
4.17983e-10
0
4.45034e-10
1.04106e-18
1.75819e-10
0
-1.60459e-10
-1.04105e-18
-5.43161e-10
-9.02493e-25
-5.71102e-10
0
-2.31114e-10
-1.04088e-18
1.84897e-10
0
6.53334e-10
-1.04406e-24
6.87249e-10
-1.04105e-18
2.62085e-10
0
-2.39018e-10
-1.04104e-18
-7.84026e-10
0
-8.17717e-10
3.81777e-26
-3.1891e-10
1.24185e-24
2.64277e-10
0
8.97618e-10
1.04098e-18
9.36782e-10
-1.04105e-18
3.49337e-10
0
-3.18889e-10
-2.96965e-24
-1.02222e-09
0
-1.05803e-09
1.95919e-26
-4.00653e-10
0
3.43051e-10
0
1.12883e-09
1.77351e-24
1.17031e-09
0
4.28743e-10
0
-3.93857e-10
1.04106e-18
-1.23866e-09
0
-1.27403e-09
0
-4.71593e-10
0
4.14429e-10
-3.87827e-24
1.33273e-09
2.07763e-24
1.37512e-09
4.45495e-26
4.97499e-10
-1.04108e-18
-4.58751e-10
0
-1.42616e-09
2.21444e-24
-1.46336e-09
0
-5.36774e-10
-1.04103e-18
4.74452e-10
0
1.51376e-09
0
1.56096e-09
5.67487e-26
5.6313e-10
-1.0411e-18
-5.1466e-10
-1.04108e-18
-1.59958e-09
-2.49146e-24
-1.64408e-09
1.04101e-18
-6.01772e-10
2.08202e-18
5.29077e-10
0
1.68767e-09
-2.08218e-18
1.74517e-09
-6.38029e-26
6.31143e-10
0
-5.66848e-10
5.15434e-24
-1.77465e-09
0
-1.83443e-09
-3.32115e-26
-6.74264e-10
1.04098e-18
5.79631e-10
1.04104e-18
1.86763e-09
0
1.9486e-09
-1.04118e-18
7.13186e-10
-1.04116e-18
-6.23969e-10
-5.58449e-24
-1.95086e-09
-1.04111e-18
-2.09077e-09
1.04089e-18
-9.03648e-10
1.04108e-18
-1.07583e-10
1.04111e-18
9.18407e-12
1.0411e-18
5.33308e-13
0
-3.90488e-13
9.35807e-29
1.38683e-14
-1.04106e-18
-3.14284e-14
0
-4.65896e-15
-1.04398e-18
7.98358e-15
1.03863e-18
1.89306e-14
-4.00881e-29
2.09251e-14
0
9.96712e-15
1.11014e-18
4.90638e-16
-6.16298e-33
-4.19225e-17
3.98986e-18
0
0
0
0
0
0
0
0
0
0
0
0
0
0
0
0
0
0
0
0
0
0
0
0
0
0
0
0
0
0
0
0
0
0
0
0
0
0
0
0
0
0
0
0
0
0
0
0
0
0
0
0
0
0
0
0
0
0
0
0
0
0
0
0
0
0
0
0
0
0
0
0
0
0
0
0
0
0
0
0
0
0
0
0
0
0
0
0
0
0
0
0
0
0
0
0
0
0
0
0
0
0
0
0
0
0
-6.41977e-35
0
-2.77556e-19
-1.15648e-19
2.77556e-19
1.11311e-18
0
-1.2837e-17
-2.7761e-19
1.47693e-16
0
-1.71779e-15
-2.54009e-19
-3.41038e-14
-1.196e-28
-8.86821e-14
0
-8.40792e-14
0
-4.35225e-14
4.70256e-29
-3.85153e-14
0
-3.23623e-14
-4.29238e-29
-3.02305e-14
1.0665e-29
-2.64022e-14
-3.48883e-29
-2.28519e-14
2.50596e-19
-1.26729e-14
5.01712e-19
1.86306e-13
7.25927e-28
5.37341e-13
2.51309e-19
6.64343e-13
0
5.71859e-13
-4.39229e-28
4.81778e-13
-2.51783e-19
4.26576e-13
3.98136e-28
4.05812e-13
2.51999e-19
3.957e-13
3.94721e-28
3.93255e-13
5.04311e-19
3.57878e-13
0
3.05134e-13
0
2.5919e-13
0
2.58257e-13
0
2.64091e-13
-4.29908e-28
2.28201e-13
0
1.66487e-13
0
1.55708e-13
0
1.84243e-13
0
2.05574e-13
-3.23381e-28
1.97048e-13
0
1.02534e-13
-5.04812e-19
3.99498e-14
0
1.28985e-13
0
2.08821e-13
5.04816e-19
3.04179e-13
5.04811e-19
5.5485e-13
5.04808e-19
3.705e-13
0
-3.63401e-13
5.04803e-19
-6.28809e-13
0
-1.65308e-13
0
3.94659e-13
0
4.76844e-13
0
1.147e-13
-5.04795e-19
-2.75028e-13
0
-3.53651e-13
0
-5.32041e-15
-1.00958e-18
2.97582e-13
-5.04793e-19
2.41472e-13
5.04794e-19
-5.5631e-14
5.04791e-19
-3.12017e-13
0
-3.32402e-13
0
-6.4275e-14
5.0479e-19
1.60945e-13
-5.04791e-19
3.3586e-13
-5.04792e-19
3.30542e-13
5.04793e-19
9.02108e-15
-1.00958e-18
-3.6224e-13
-1.2005e-27
-5.88417e-13
5.0479e-19
-2.49832e-13
5.04791e-19
3.33484e-13
0
6.85972e-13
5.04794e-19
3.14974e-13
2.74223e-28
-8.81253e-15
-5.04793e-19
-5.00797e-13
0
-7.37374e-13
0
6.3939e-14
1.3564e-27
5.63277e-13
0
1.95876e-13
-5.04793e-19
3.68598e-14
0
5.09938e-13
0
5.54955e-13
5.04794e-19
1.37594e-12
-5.04795e-19
-1.60048e-12
5.04791e-19
-2.4507e-12
0
6.27402e-13
5.04792e-19
9.65692e-13
5.04804e-19
-3.262e-13
-5.04789e-19
2.0678e-13
-5.04804e-19
6.44487e-13
-5.04785e-19
9.72454e-13
-3.89413e-27
6.66789e-13
0
8.47722e-13
-4.59065e-27
7.01525e-13
-9.38421e-27
1.17878e-12
0
1.13811e-12
0
1.63838e-12
-5.46571e-27
1.52592e-12
1.351e-26
1.98653e-12
5.04825e-19
1.83914e-12
-5.04749e-19
2.3472e-12
0
2.24612e-12
0
2.77896e-12
-5.04834e-19
2.69126e-12
0
3.21839e-12
-5.04842e-19
3.15248e-12
-5.04707e-19
3.66989e-12
5.04846e-19
3.64278e-12
5.04689e-19
4.12932e-12
5.04854e-19
4.14356e-12
-5.04672e-19
4.58783e-12
0
4.6395e-12
0
4.98739e-12
0
5.09051e-12
-1.00925e-18
5.37561e-12
0
5.53218e-12
-1.00921e-18
5.68738e-12
0
5.88826e-12
0
5.9258e-12
0
6.18311e-12
0
6.08103e-12
0
6.38055e-12
0
6.13255e-12
-1.00979e-18
6.47722e-12
-5.27943e-26
6.08873e-12
0
6.46354e-12