/*--------------------------------*- C++ -*----------------------------------*\
| =========                 |                                                 |
| \\      /  F ield         | foam-extend: Open Source CFD                    |
|  \\    /   O peration     | Version:     3.2                                |
|   \\  /    A nd           | Web:         http://www.foam-extend.org         |
|    \\/     M anipulation  | For copyright notice see file Copyright         |
\*---------------------------------------------------------------------------*/
FoamFile
{
    version     2.0;
    format      ascii;
    class       tetPointVectorField;
    location    "2000";
    object      motionU;
}
// * * * * * * * * * * * * * * * * * * * * * * * * * * * * * * * * * * * * * //

dimensions      [0 1 -1 0 0 0 0];

internalField   nonuniform List<vector> 
17726
(
(0 0 0)
(0 0 0)
(0 0 0)
(0 0 0)
(0 0 0)
(0 0 0)
(0 0 0)
(0 0 0)
(0 0 0)
(0 0 0)
(0 0 0)
(0 0 0)
(0 0 0)
(0 0 0)
(0 0 0)
(0 0 0)
(0 0 0)
(0 0 0)
(0 0 0)
(0 0 0)
(0 0 0)
(0 0 0)
(0 0 0)
(0 0 0)
(0 0 0)
(0 0 0)
(0 0 0)
(0 0 0)
(0 0 0)
(0 0 0)
(0 0 0)
(0 0 0)
(0 0 0)
(0 0 0)
(0 0 0)
(0 0 0)
(0 0 0)
(0 0 0)
(0 0 0)
(0 0 0)
(0 0 0)
(0 0 0)
(0 0 0)
(0 0 0)
(0 0 0)
(0 0 0)
(0 0 0)
(0 0 0)
(0 0 0)
(0 0 0)
(0 0 0)
(0 0 0)
(0 0 0)
(0 0 0)
(0 0 0)
(0 0 0)
(0 0 0)
(0 0 0)
(0 0 0)
(0 0 0)
(0 0 -1.16712e-10)
(0 0 -2.23022e-10)
(0 0 -9.82419e-11)
(0 0 -5.57425e-11)
(0 0 -8.87767e-11)
(0 0 -3.03366e-11)
(0 0 -8.2163e-11)
(0 0 -1.59966e-11)
(0 0 -6.54639e-11)
(0 0 -1.11275e-11)
(0 0 6.73599e-10)
(0 0 1.35332e-09)
(0 0 1.13401e-09)
(0 0 9.70499e-10)
(0 0 8.01065e-10)
(0 0 7.66011e-10)
(0 0 7.28739e-10)
(0 0 7.27129e-10)
(0 0 7.27297e-10)
(0 0 5.92711e-10)
(0 0 5.30011e-10)
(0 0 4.16168e-10)
(0 0 5.33586e-10)
(0 0 4.45452e-10)
(0 0 3.99005e-10)
(0 0 2.04369e-10)
(0 0 3.62771e-10)
(0 0 3.17311e-10)
(0 0 4.42263e-10)
(0 0 2.98166e-10)
(0 0 7.4352e-11)
(0 0 4.49249e-11)
(0 0 4.35498e-10)
(0 0 3.56722e-10)
(0 0 7.60726e-10)
(0 0 1.32693e-09)
(0 0 8.63266e-11)
(0 0 -1.51155e-09)
(0 0 -9.05696e-10)
(0 0 3.21908e-10)
(0 0 1.2207e-09)
(0 0 5.5916e-10)
(0 0 -1.81061e-10)
(0 0 -8.70943e-10)
(0 0 -4.43443e-10)
(0 0 4.52797e-10)
(0 0 6.78995e-10)
(0 0 2.34548e-10)
(0 0 -4.62788e-10)
(0 0 -7.32504e-10)
(0 0 -5.29502e-10)
(0 0 3.41998e-10)
(0 0 2.54232e-10)
(0 0 9.93892e-10)
(0 0 2.87307e-10)
(0 0 -2.79521e-10)
(0 0 -1.10305e-09)
(0 0 -1.14165e-09)
(0 0 2.41328e-10)
(0 0 1.01558e-09)
(0 0 1.62933e-09)
(0 0 -4.76629e-10)
(0 0 3.9502e-10)
(0 0 -2.30411e-09)
(0 0 -4.67442e-10)
(0 0 7.86534e-10)
(0 0 1.33703e-09)
(0 0 -6.83464e-10)
(0 0 7.43553e-10)
(0 0 1.44026e-09)
(0 0 4.13751e-10)
(0 0 5.08579e-09)
(0 0 -1.14703e-08)
(0 0 2.1055e-09)
(0 0 7.71363e-10)
(0 0 2.79657e-09)
(0 0 -4.37649e-09)
(0 0 5.27543e-09)
(0 0 -2.90863e-09)
(0 0 6.61831e-09)
(0 0 -4.28621e-09)
(0 0 7.50364e-09)
(0 0 -5.0668e-09)
(0 0 9.5414e-09)
(0 0 -5.49047e-09)
(0 0 1.16735e-08)
(0 0 -6.20468e-09)
(0 0 1.36712e-08)
(0 0 -7.06534e-09)
(0 0 1.58615e-08)
(0 0 -7.75424e-09)
(0 0 1.81403e-08)
(0 0 -8.39075e-09)
(0 0 2.03871e-08)
(0 0 -8.93196e-09)
(0 0 2.25774e-08)
(0 0 -9.30104e-09)
(0 0 2.46185e-08)
(0 0 -9.47853e-09)
(0 0 2.6461e-08)
(0 0 -9.46397e-09)
(0 0 2.78807e-08)
(0 0 -9.19367e-09)
(0 0 2.90071e-08)
(0 0 -8.65118e-09)
(0 0 2.95676e-08)
(0 0 -7.85952e-09)
(0 0 2.96087e-08)
(0 0 -6.76706e-09)
(0 0 2.90404e-08)
(0 0 -5.42467e-09)
(0 0 2.78392e-08)
(0 0 -3.82077e-09)
(0 0 2.60298e-08)
(0 0 -2.01546e-09)
(0 0 2.3558e-08)
(0 0 -7.35404e-11)
(0 0 2.0781e-08)
(0 0 1.4205e-09)
(0 0 1.7731e-08)
(0 0 3.05555e-09)
(0 0 1.47299e-08)
(0 0 4.14145e-09)
(0 0 1.1498e-08)
(0 0 5.31033e-09)
(0 0 8.16939e-09)
(0 0 6.42286e-09)
(0 0 4.69292e-09)
(0 0 7.41744e-09)
(0 0 1.14185e-09)
(0 0 8.28367e-09)
(0 0 -2.38842e-09)
(0 0 9.03867e-09)
(0 0 -5.77404e-09)
(0 0 9.62902e-09)
(0 0 -9.87524e-09)
(0 0 9.83041e-09)
(0 0 -1.47341e-08)
(0 0 7.34755e-09)
(0 0 -4.04418e-09)
(0 0 3.10828e-08)
(0 0 -2.17669e-09)
(0 0 2.45339e-08)
(0 0 -4.86467e-08)
(0 0 -5.58951e-08)
(0 0 -6.07032e-08)
(0 0 -9.33458e-09)
(0 0 4.8516e-08)
(0 0 1.67207e-07)
(0 0 7.001e-08)
(0 0 4.02167e-08)
(0 0 -1.43602e-07)
(0 0 -2.64805e-07)
(0 0 -1.77673e-07)
(0 0 -2.92756e-08)
(0 0 1.70357e-07)
(0 0 4.40958e-07)
(0 0 2.20886e-07)
(0 0 4.95582e-08)
(0 0 -2.98232e-07)
(0 0 -6.06271e-07)
(0 0 -3.58198e-07)
(0 0 -4.5752e-08)
(0 0 3.5229e-07)
(0 0 8.26267e-07)
(0 0 4.30597e-07)
(0 0 5.06674e-08)
(0 0 -4.95958e-07)
(0 0 -1.03393e-06)
(0 0 -5.77496e-07)
(0 0 -5.48996e-08)
(0 0 5.69157e-07)
(0 0 1.271e-06)
(0 0 6.68789e-07)
(0 0 4.6897e-08)
(0 0 -7.11944e-07)
(0 0 -1.49476e-06)
(0 0 -8.11944e-07)
(0 0 -5.89501e-08)
(0 0 7.95289e-07)
(0 0 1.73113e-06)
(0 0 9.11893e-07)
(0 0 4.06283e-08)
(0 0 -9.29408e-07)
(0 0 -1.94636e-06)
(0 0 -1.03764e-06)
(0 0 -5.47836e-08)
(0 0 1.01173e-06)
(0 0 2.16382e-06)
(0 0 1.13709e-06)
(0 0 3.06221e-08)
(0 0 -1.12963e-06)
(0 0 -2.35382e-06)
(0 0 -1.23883e-06)
(0 0 -4.54671e-08)
(0 0 1.20238e-06)
(0 0 2.54546e-06)
(0 0 1.33233e-06)
(0 0 2.15314e-08)
(0 0 -1.30252e-06)
(0 0 -2.70728e-06)
(0 0 -1.41891e-06)
(0 0 -4.20869e-08)
(0 0 1.36701e-06)
(0 0 2.88896e-06)
(0 0 1.5126e-06)
(0 0 1.93916e-08)
(0 0 -1.457e-06)
(0 0 -3.03958e-06)
(0 0 -1.59638e-06)
(0 0 -4.13212e-08)
(0 0 1.51921e-06)
(0 0 3.22481e-06)
(0 0 1.69646e-06)
(0 0 2.05826e-08)
(0 0 -1.60438e-06)
(0 0 -3.38347e-06)
(0 0 -1.79005e-06)
(0 0 -4.52058e-08)
(0 0 1.66493e-06)
(0 0 3.58378e-06)
(0 0 1.91163e-06)
(0 0 3.09867e-08)
(0 0 -1.78044e-06)
(0 0 -3.68649e-06)
(0 0 -2.16596e-06)
(0 0 -2.71098e-07)
(0 0 3.6112e-10)
(0 0 -1.80427e-10)
(0 0 -1.2053e-10)
(0 0 -7.91487e-11)
(0 0 -4.43771e-11)
(0 0 -1.71954e-11)
(0 0 1.70667e-12)
(0 0 2.07464e-11)
(0 0 3.21853e-11)
(0 0 2.64066e-11)
(0 0 0)
(0 0 0)
(0 0 0)
(0 0 0)
(0 0 0)
(0 0 0)
(0 0 0)
(0 0 0)
(0 0 0)
(0 0 0)
(0 0 0)
(0 0 0)
(0 0 0)
(0 0 0)
(0 0 0)
(0 0 0)
(0 0 0)
(0 0 0)
(0 0 0)
(0 0 0)
(0 0 0)
(0 0 0)
(0 0 0)
(0 0 0)
(0 0 0)
(0 0 0)
(0 0 0)
(0 0 0)
(0 0 0)
(0 0 0)
(0 0 0)
(0 0 0)
(0 0 0)
(0 0 0)
(0 0 0)
(0 0 0)
(0 0 0)
(0 0 0)
(0 0 0)
(0 0 0)
(0 0 0)
(0 0 0)
(0 0 0)
(0 0 0)
(0 0 0)
(0 0 0)
(0 0 0)
(0 0 0)
(0 0 0)
(0 0 0)
(0 0 0)
(0 0 0)
(0 0 0)
(0 0 0)
(0 0 0)
(0 0 0)
(0 0 0)
(0 0 0)
(0 0 0)
(0 0 0)
(0 0 0)
(0 0 0)
(0 0 0)
(0 0 0)
(0 0 -1.16712e-10)
(0 0 -2.23022e-10)
(0 0 -9.82419e-11)
(0 0 -5.57425e-11)
(0 0 -8.87767e-11)
(0 0 -3.03366e-11)
(0 0 -8.2163e-11)
(0 0 -1.59966e-11)
(0 0 -6.54639e-11)
(0 0 -1.11275e-11)
(0 0 6.73599e-10)
(0 0 1.35332e-09)
(0 0 1.13401e-09)
(0 0 9.70499e-10)
(0 0 8.01065e-10)
(0 0 7.66011e-10)
(0 0 7.28739e-10)
(0 0 7.27129e-10)
(0 0 7.27297e-10)
(0 0 5.92711e-10)
(0 0 5.30011e-10)
(0 0 4.16168e-10)
(0 0 5.33586e-10)
(0 0 4.45452e-10)
(0 0 3.99005e-10)
(0 0 2.04369e-10)
(0 0 3.62771e-10)
(0 0 3.17311e-10)
(0 0 4.42263e-10)
(0 0 2.98166e-10)
(0 0 7.4352e-11)
(0 0 4.49249e-11)
(0 0 4.35498e-10)
(0 0 3.56722e-10)
(0 0 7.60726e-10)
(0 0 1.32693e-09)
(0 0 8.63266e-11)
(0 0 -1.51155e-09)
(0 0 -9.05696e-10)
(0 0 3.21908e-10)
(0 0 1.2207e-09)
(0 0 5.5916e-10)
(0 0 -1.81061e-10)
(0 0 -8.70943e-10)
(0 0 -4.43443e-10)
(0 0 4.52797e-10)
(0 0 6.78995e-10)
(0 0 2.34548e-10)
(0 0 -4.62788e-10)
(0 0 -7.32504e-10)
(0 0 -5.29502e-10)
(0 0 3.41998e-10)
(0 0 2.54232e-10)
(0 0 9.93892e-10)
(0 0 2.87307e-10)
(0 0 -2.79521e-10)
(0 0 -1.10305e-09)
(0 0 -1.14165e-09)
(0 0 2.41328e-10)
(0 0 1.01558e-09)
(0 0 1.62933e-09)
(0 0 -4.76629e-10)
(0 0 3.9502e-10)
(0 0 -2.30411e-09)
(0 0 -4.67442e-10)
(0 0 7.86534e-10)
(0 0 1.33703e-09)
(0 0 -6.83464e-10)
(0 0 7.43553e-10)
(0 0 1.44026e-09)
(0 0 4.13751e-10)
(0 0 5.08579e-09)
(0 0 -1.14703e-08)
(0 0 2.1055e-09)
(0 0 7.71363e-10)
(0 0 2.79657e-09)
(0 0 -4.37649e-09)
(0 0 5.27543e-09)
(0 0 -2.90863e-09)
(0 0 6.61831e-09)
(0 0 -4.28621e-09)
(0 0 7.50364e-09)
(0 0 -5.0668e-09)
(0 0 9.5414e-09)
(0 0 -5.49047e-09)
(0 0 1.16735e-08)
(0 0 -6.20468e-09)
(0 0 1.36712e-08)
(0 0 -7.06534e-09)
(0 0 1.58615e-08)
(0 0 -7.75424e-09)
(0 0 1.81403e-08)
(0 0 -8.39075e-09)
(0 0 2.03871e-08)
(0 0 -8.93196e-09)
(0 0 2.25774e-08)
(0 0 -9.30104e-09)
(0 0 2.46185e-08)
(0 0 -9.47853e-09)
(0 0 2.6461e-08)
(0 0 -9.46397e-09)
(0 0 2.78807e-08)
(0 0 -9.19367e-09)
(0 0 2.90071e-08)
(0 0 -8.65118e-09)
(0 0 2.95676e-08)
(0 0 -7.85952e-09)
(0 0 2.96087e-08)
(0 0 -6.76706e-09)
(0 0 2.90404e-08)
(0 0 -5.42467e-09)
(0 0 2.78392e-08)
(0 0 -3.82077e-09)
(0 0 2.60298e-08)
(0 0 -2.01546e-09)
(0 0 2.3558e-08)
(0 0 -7.35404e-11)
(0 0 2.0781e-08)
(0 0 1.4205e-09)
(0 0 1.7731e-08)
(0 0 3.05555e-09)
(0 0 1.47299e-08)
(0 0 4.14145e-09)
(0 0 1.1498e-08)
(0 0 5.31033e-09)
(0 0 8.16939e-09)
(0 0 6.42286e-09)
(0 0 4.69292e-09)
(0 0 7.41744e-09)
(0 0 1.14185e-09)
(0 0 8.28367e-09)
(0 0 -2.38842e-09)
(0 0 9.03867e-09)
(0 0 -5.77404e-09)
(0 0 9.62902e-09)
(0 0 -9.87524e-09)
(0 0 9.83041e-09)
(0 0 -1.47341e-08)
(0 0 7.34755e-09)
(0 0 -4.04418e-09)
(0 0 3.10828e-08)
(0 0 -2.17669e-09)
(0 0 2.45339e-08)
(0 0 -4.86467e-08)
(0 0 -5.58951e-08)
(0 0 -6.07032e-08)
(0 0 -9.33458e-09)
(0 0 4.8516e-08)
(0 0 1.67207e-07)
(0 0 7.001e-08)
(0 0 4.02167e-08)
(0 0 -1.43602e-07)
(0 0 -2.64805e-07)
(0 0 -1.77673e-07)
(0 0 -2.92756e-08)
(0 0 1.70357e-07)
(0 0 4.40958e-07)
(0 0 2.20886e-07)
(0 0 4.95582e-08)
(0 0 -2.98232e-07)
(0 0 -6.06271e-07)
(0 0 -3.58198e-07)
(0 0 -4.5752e-08)
(0 0 3.5229e-07)
(0 0 8.26267e-07)
(0 0 4.30597e-07)
(0 0 5.06674e-08)
(0 0 -4.95958e-07)
(0 0 -1.03393e-06)
(0 0 -5.77496e-07)
(0 0 -5.48996e-08)
(0 0 5.69157e-07)
(0 0 1.271e-06)
(0 0 6.68789e-07)
(0 0 4.6897e-08)
(0 0 -7.11944e-07)
(0 0 -1.49476e-06)
(0 0 -8.11944e-07)
(0 0 -5.89501e-08)
(0 0 7.95289e-07)
(0 0 1.73113e-06)
(0 0 9.11893e-07)
(0 0 4.06283e-08)
(0 0 -9.29408e-07)
(0 0 -1.94636e-06)
(0 0 -1.03764e-06)
(0 0 -5.47836e-08)
(0 0 1.01173e-06)
(0 0 2.16382e-06)
(0 0 1.13709e-06)
(0 0 3.06221e-08)
(0 0 -1.12963e-06)
(0 0 -2.35382e-06)
(0 0 -1.23883e-06)
(0 0 -4.54671e-08)
(0 0 1.20238e-06)
(0 0 2.54546e-06)
(0 0 1.33233e-06)
(0 0 2.15314e-08)
(0 0 -1.30252e-06)
(0 0 -2.70728e-06)
(0 0 -1.41891e-06)
(0 0 -4.20869e-08)
(0 0 1.36701e-06)
(0 0 2.88896e-06)
(0 0 1.5126e-06)
(0 0 1.93916e-08)
(0 0 -1.457e-06)
(0 0 -3.03958e-06)
(0 0 -1.59638e-06)
(0 0 -4.13212e-08)
(0 0 1.51921e-06)
(0 0 3.22481e-06)
(0 0 1.69646e-06)
(0 0 2.05826e-08)
(0 0 -1.60438e-06)
(0 0 -3.38347e-06)
(0 0 -1.79005e-06)
(0 0 -4.52058e-08)
(0 0 1.66493e-06)
(0 0 3.58378e-06)
(0 0 1.91163e-06)
(0 0 3.09867e-08)
(0 0 -1.78044e-06)
(0 0 -3.68649e-06)
(0 0 -2.16596e-06)
(0 0 -2.71098e-07)
(0 0 3.6112e-10)
(0 0 -1.80427e-10)
(0 0 -1.2053e-10)
(0 0 -7.91487e-11)
(0 0 -4.43771e-11)
(0 0 -1.71954e-11)
(0 0 1.70667e-12)
(0 0 2.07464e-11)
(0 0 3.21853e-11)
(0 0 2.64066e-11)
(0 0 0)
(0 0 0)
(0 0 0)
(0 0 0)
(0 0 0)
(0 0 -1.75026e-55)
(0 0 8.40873e-55)
(0 0 -3.7355e-54)
(0 0 1.6245e-53)
(0 0 -6.91761e-53)
(0 0 2.87928e-52)
(0 0 -1.1678e-51)
(0 0 4.59217e-51)
(0 0 -1.73625e-50)
(0 0 6.21953e-50)
(0 0 -2.05033e-49)
(0 0 5.79589e-49)
(0 0 -1.07137e-48)
(0 0 -1.91025e-48)
(0 0 3.74204e-47)
(0 0 -2.88939e-46)
(0 0 1.79177e-45)
(0 0 -1.00118e-44)
(0 0 5.2534e-44)
(0 0 -2.64004e-43)
(0 0 1.28465e-42)
(0 0 -6.09354e-42)
(0 0 2.82944e-41)
(0 0 -1.28943e-40)
(0 0 5.77414e-40)
(0 0 -2.54043e-39)
(0 0 1.09629e-38)
(0 0 -4.62327e-38)
(0 0 1.89304e-37)
(0 0 -7.44335e-37)
(0 0 2.75599e-36)
(0 0 -9.23814e-36)
(0 0 2.53002e-35)
(0 0 -3.34353e-35)
(0 0 -2.28885e-34)
(0 0 2.72045e-33)
(0 0 -1.9238e-32)
(0 0 1.12608e-31)
(0 0 -5.87491e-31)
(0 0 2.79911e-30)
(0 0 -1.22459e-29)
(0 0 4.88622e-29)
(0 0 -1.74237e-28)
(0 0 5.32956e-28)
(0 0 -1.31954e-27)
(0 0 3.34704e-27)
(0 0 -3.21889e-26)
(0 0 5.50621e-25)
(0 0 -8.1314e-24)
(0 0 1.08117e-22)
(0 0 -1.37559e-21)
(0 0 1.7251e-20)
(0 0 -2.15771e-19)
(0 0 2.70206e-18)
(0 0 -3.39082e-17)
(0 0 4.26418e-16)
(0 0 -5.37337e-15)
(0 0 6.78234e-14)
(0 0 -8.61932e-13)
(0 0 -1.16707e-10)
(0 0 -2.21283e-10)
(0 0 -9.87394e-11)
(0 0 -5.60998e-11)
(0 0 -8.79625e-11)
(0 0 -3.10725e-11)
(0 0 -8.11705e-11)
(0 0 -1.67761e-11)
(0 0 -6.49363e-11)
(0 0 -7.4465e-12)
(0 0 6.72193e-10)
(0 0 1.34523e-09)
(0 0 1.13285e-09)
(0 0 9.6866e-10)
(0 0 8.00512e-10)
(0 0 7.64556e-10)
(0 0 7.27665e-10)
(0 0 7.2589e-10)
(0 0 7.25154e-10)
(0 0 5.92238e-10)
(0 0 5.28624e-10)
(0 0 4.16985e-10)
(0 0 5.31213e-10)
(0 0 4.45139e-10)
(0 0 3.97217e-10)
(0 0 2.06378e-10)
(0 0 3.60568e-10)
(0 0 3.18027e-10)
(0 0 4.39763e-10)
(0 0 2.9728e-10)
(0 0 7.52801e-11)
(0 0 4.7518e-11)
(0 0 4.31331e-10)
(0 0 3.59026e-10)
(0 0 7.60855e-10)
(0 0 1.31412e-09)
(0 0 8.44004e-11)
(0 0 -1.49554e-09)
(0 0 -9.01943e-10)
(0 0 3.19162e-10)
(0 0 1.20934e-09)
(0 0 5.59152e-10)
(0 0 -1.80538e-10)
(0 0 -8.63049e-10)
(0 0 -4.40634e-10)
(0 0 4.47902e-10)
(0 0 6.74359e-10)
(0 0 2.33077e-10)
(0 0 -4.59169e-10)
(0 0 -7.28974e-10)
(0 0 -5.24639e-10)
(0 0 3.34343e-10)
(0 0 2.60234e-10)
(0 0 9.82763e-10)
(0 0 2.88972e-10)
(0 0 -2.8058e-10)
(0 0 -1.09681e-09)
(0 0 -1.13164e-09)
(0 0 2.35685e-10)
(0 0 1.01465e-09)
(0 0 1.60852e-09)
(0 0 -4.53579e-10)
(0 0 3.69404e-10)
(0 0 -2.27036e-09)
(0 0 -4.73826e-10)
(0 0 7.82715e-10)
(0 0 1.31812e-09)
(0 0 -6.59367e-10)
(0 0 7.36308e-10)
(0 0 1.42349e-09)
(0 0 4.61048e-10)
(0 0 4.93176e-09)
(0 0 -1.1247e-08)
(0 0 1.98719e-09)
(0 0 8.05766e-10)
(0 0 2.72518e-09)
(0 0 -4.25126e-09)
(0 0 5.13723e-09)
(0 0 -2.77378e-09)
(0 0 6.45892e-09)
(0 0 -4.11456e-09)
(0 0 7.31329e-09)
(0 0 -4.86131e-09)
(0 0 9.30966e-09)
(0 0 -5.24754e-09)
(0 0 1.1399e-08)
(0 0 -5.92022e-09)
(0 0 1.33527e-08)
(0 0 -6.73669e-09)
(0 0 1.54961e-08)
(0 0 -7.38189e-09)
(0 0 1.77283e-08)
(0 0 -7.9752e-09)
(0 0 1.993e-08)
(0 0 -8.4754e-09)
(0 0 2.20781e-08)
(0 0 -8.80771e-09)
(0 0 2.40821e-08)
(0 0 -8.95403e-09)
(0 0 2.58936e-08)
(0 0 -8.91592e-09)
(0 0 2.72921e-08)
(0 0 -8.63142e-09)
(0 0 2.84063e-08)
(0 0 -8.08531e-09)
(0 0 2.89673e-08)
(0 0 -7.30203e-09)
(0 0 2.90213e-08)
(0 0 -6.23097e-09)
(0 0 2.84799e-08)
(0 0 -4.9231e-09)
(0 0 2.73196e-08)
(0 0 -3.36698e-09)
(0 0 2.55642e-08)
(0 0 -1.62195e-09)
(0 0 2.31595e-08)
(0 0 2.50631e-10)
(0 0 2.04526e-08)
(0 0 1.67775e-09)
(0 0 1.74747e-08)
(0 0 3.24256e-09)
(0 0 1.45423e-08)
(0 0 4.26515e-09)
(0 0 1.13791e-08)
(0 0 5.36741e-09)
(0 0 8.12121e-09)
(0 0 6.41242e-09)
(0 0 4.71646e-09)
(0 0 7.33974e-09)
(0 0 1.23655e-09)
(0 0 8.14038e-09)
(0 0 -2.22467e-09)
(0 0 8.83278e-09)
(0 0 -5.54501e-09)
(0 0 9.35932e-09)
(0 0 -9.57379e-09)
(0 0 9.49538e-09)
(0 0 -1.4379e-08)
(0 0 7.07146e-09)
(0 0 -3.69931e-09)
(0 0 3.05447e-08)
(0 0 -1.71032e-09)
(0 0 2.38298e-08)
(0 0 -4.80858e-08)
(0 0 -5.58482e-08)
(0 0 -6.02668e-08)
(0 0 -9.39901e-09)
(0 0 4.88785e-08)
(0 0 1.65521e-07)
(0 0 7.05355e-08)
(0 0 3.92275e-08)
(0 0 -1.42921e-07)
(0 0 -2.63147e-07)
(0 0 -1.77184e-07)
(0 0 -2.91448e-08)
(0 0 1.70616e-07)
(0 0 4.3714e-07)
(0 0 2.21263e-07)
(0 0 4.85692e-08)
(0 0 -2.97504e-07)
(0 0 -6.01911e-07)
(0 0 -3.57665e-07)
(0 0 -4.55394e-08)
(0 0 3.52342e-07)
(0 0 8.19518e-07)
(0 0 4.30704e-07)
(0 0 4.99406e-08)
(0 0 -4.95205e-07)
(0 0 -1.02617e-06)
(0 0 -5.76923e-07)
(0 0 -5.47558e-08)
(0 0 5.68945e-07)
(0 0 1.26089e-06)
(0 0 6.68598e-07)
(0 0 4.65816e-08)
(0 0 -7.11163e-07)
(0 0 -1.48336e-06)
(0 0 -8.11311e-07)
(0 0 -5.89928e-08)
(0 0 7.94825e-07)
(0 0 1.71754e-06)
(0 0 9.11424e-07)
(0 0 4.07726e-08)
(0 0 -9.2854e-07)
(0 0 -1.9314e-06)
(0 0 -1.03695e-06)
(0 0 -5.51235e-08)
(0 0 1.01104e-06)
(0 0 2.14696e-06)
(0 0 1.13637e-06)
(0 0 3.1252e-08)
(0 0 -1.12866e-06)
(0 0 -2.33568e-06)
(0 0 -1.23807e-06)
(0 0 -4.61659e-08)
(0 0 1.20153e-06)
(0 0 2.52569e-06)
(0 0 1.33145e-06)
(0 0 2.25892e-08)
(0 0 -1.30147e-06)
(0 0 -2.6864e-06)
(0 0 -1.41805e-06)
(0 0 -4.3082e-08)
(0 0 1.36609e-06)
(0 0 2.86653e-06)
(0 0 1.51154e-06)
(0 0 2.07945e-08)
(0 0 -1.45594e-06)
(0 0 -3.01613e-06)
(0 0 -1.59532e-06)
(0 0 -4.26445e-08)
(0 0 1.51831e-06)
(0 0 3.19979e-06)
(0 0 1.69515e-06)
(0 0 2.23679e-08)
(0 0 -1.60346e-06)
(0 0 -3.35733e-06)
(0 0 -1.78866e-06)
(0 0 -4.69615e-08)
(0 0 1.66428e-06)
(0 0 3.55598e-06)
(0 0 1.90985e-06)
(0 0 3.30105e-08)
(0 0 -1.77879e-06)
(0 0 -3.6598e-06)
(0 0 -2.16206e-06)
(0 0 -2.81061e-07)
(0 0 -2.79754e-10)
(0 0 -6.54815e-11)
(0 0 -1.29615e-10)
(0 0 -8.13308e-11)
(0 0 -4.34256e-11)
(0 0 -1.74116e-11)
(0 0 1.73165e-12)
(0 0 2.06602e-11)
(0 0 3.20347e-11)
(0 0 2.62722e-11)
(0 0 2.15352e-13)
(0 0 -1.69584e-14)
(0 0 1.33696e-15)
(0 0 0)
(0 0 0)
(0 0 5.41774e-56)
(0 0 -2.61307e-55)
(0 0 1.07597e-54)
(0 0 -4.28703e-54)
(0 0 1.6475e-53)
(0 0 -6.03285e-53)
(0 0 2.05669e-52)
(0 0 -6.19579e-52)
(0 0 1.39817e-51)
(0 0 -1.15877e-52)
(0 0 -2.63081e-50)
(0 0 2.32197e-49)
(0 0 -1.51518e-48)
(0 0 8.70403e-48)
(0 0 -4.64596e-47)
(0 0 2.3598e-46)
(0 0 -1.15499e-45)
(0 0 5.48785e-45)
(0 0 -2.54319e-44)
(0 0 1.15304e-43)
(0 0 -5.12471e-43)
(0 0 2.23532e-42)
(0 0 -9.57106e-42)
(0 0 4.01925e-41)
(0 0 -1.6512e-40)
(0 0 6.60219e-40)
(0 0 -2.54449e-39)
(0 0 9.27838e-39)
(0 0 -3.07748e-38)
(0 0 8.34586e-38)
(0 0 -1.03309e-37)
(0 0 -8.54861e-37)
(0 0 1.0055e-35)
(0 0 -7.32401e-35)
(0 0 4.48513e-34)
(0 0 -2.4812e-33)
(0 0 1.27211e-32)
(0 0 -6.09935e-32)
(0 0 2.7354e-31)
(0 0 -1.13899e-30)
(0 0 4.32236e-30)
(0 0 -1.42986e-29)
(0 0 3.57422e-29)
(0 0 -1.26317e-29)
(0 0 -7.32952e-28)
(0 0 8.35902e-27)
(0 0 -8.13375e-26)
(0 0 8.41661e-25)
(0 0 -9.50401e-24)
(0 0 1.13548e-22)
(0 0 -1.39376e-21)
(0 0 1.73056e-20)
(0 0 -2.15985e-19)
(0 0 2.70364e-18)
(0 0 -3.39214e-17)
(0 0 4.26505e-16)
(0 0 -5.37375e-15)
(0 0 6.7824e-14)
(0 0 -8.61931e-13)
(0 0 -1.16708e-10)
(0 0 -2.21283e-10)
(0 0 -9.87394e-11)
(0 0 -5.60998e-11)
(0 0 -8.79625e-11)
(0 0 -3.10725e-11)
(0 0 -8.11705e-11)
(0 0 -1.67761e-11)
(0 0 -6.49364e-11)
(0 0 -7.44627e-12)
(0 0 6.72194e-10)
(0 0 1.34523e-09)
(0 0 1.13285e-09)
(0 0 9.6866e-10)
(0 0 8.00512e-10)
(0 0 7.64556e-10)
(0 0 7.27665e-10)
(0 0 7.2589e-10)
(0 0 7.25154e-10)
(0 0 5.92238e-10)
(0 0 5.28624e-10)
(0 0 4.16985e-10)
(0 0 5.31213e-10)
(0 0 4.45139e-10)
(0 0 3.97217e-10)
(0 0 2.06378e-10)
(0 0 3.60568e-10)
(0 0 3.18027e-10)
(0 0 4.39763e-10)
(0 0 2.97279e-10)
(0 0 7.52816e-11)
(0 0 4.75115e-11)
(0 0 4.31343e-10)
(0 0 3.59034e-10)
(0 0 7.60655e-10)
(0 0 1.31386e-09)
(0 0 8.44654e-11)
(0 0 -1.49522e-09)
(0 0 -9.01582e-10)
(0 0 3.19253e-10)
(0 0 1.20906e-09)
(0 0 5.58798e-10)
(0 0 -1.80579e-10)
(0 0 -8.62734e-10)
(0 0 -4.40426e-10)
(0 0 4.47799e-10)
(0 0 6.74146e-10)
(0 0 2.32921e-10)
(0 0 -4.59168e-10)
(0 0 -7.28798e-10)
(0 0 -5.24364e-10)
(0 0 3.34404e-10)
(0 0 2.60049e-10)
(0 0 9.82568e-10)
(0 0 2.88773e-10)
(0 0 -2.80637e-10)
(0 0 -1.09656e-09)
(0 0 -1.13119e-09)
(0 0 2.35812e-10)
(0 0 1.0144e-09)
(0 0 1.60826e-09)
(0 0 -4.54019e-10)
(0 0 3.6928e-10)
(0 0 -2.26971e-09)
(0 0 -4.73353e-10)
(0 0 7.8246e-10)
(0 0 1.31784e-09)
(0 0 -6.59376e-10)
(0 0 7.36538e-10)
(0 0 1.42333e-09)
(0 0 4.59609e-10)
(0 0 4.93124e-09)
(0 0 -1.12452e-08)
(0 0 1.9883e-09)
(0 0 8.05195e-10)
(0 0 2.72467e-09)
(0 0 -4.25121e-09)
(0 0 5.1373e-09)
(0 0 -2.77378e-09)
(0 0 6.45891e-09)
(0 0 -4.11456e-09)
(0 0 7.31329e-09)
(0 0 -4.86131e-09)
(0 0 9.30966e-09)
(0 0 -5.24754e-09)
(0 0 1.1399e-08)
(0 0 -5.92022e-09)
(0 0 1.33527e-08)
(0 0 -6.73669e-09)
(0 0 1.54961e-08)
(0 0 -7.38189e-09)
(0 0 1.77283e-08)
(0 0 -7.9752e-09)
(0 0 1.993e-08)
(0 0 -8.4754e-09)
(0 0 2.20781e-08)
(0 0 -8.80771e-09)
(0 0 2.40821e-08)
(0 0 -8.95403e-09)
(0 0 2.58936e-08)
(0 0 -8.91592e-09)
(0 0 2.72921e-08)
(0 0 -8.63142e-09)
(0 0 2.84063e-08)
(0 0 -8.08531e-09)
(0 0 2.89673e-08)
(0 0 -7.30203e-09)
(0 0 2.90213e-08)
(0 0 -6.23097e-09)
(0 0 2.84799e-08)
(0 0 -4.9231e-09)
(0 0 2.73196e-08)
(0 0 -3.36698e-09)
(0 0 2.55642e-08)
(0 0 -1.62195e-09)
(0 0 2.31595e-08)
(0 0 2.50631e-10)
(0 0 2.04526e-08)
(0 0 1.67775e-09)
(0 0 1.74747e-08)
(0 0 3.24256e-09)
(0 0 1.45423e-08)
(0 0 4.26515e-09)
(0 0 1.13791e-08)
(0 0 5.36741e-09)
(0 0 8.12121e-09)
(0 0 6.41242e-09)
(0 0 4.71646e-09)
(0 0 7.33974e-09)
(0 0 1.23655e-09)
(0 0 8.14038e-09)
(0 0 -2.22467e-09)
(0 0 8.83278e-09)
(0 0 -5.54503e-09)
(0 0 9.3594e-09)
(0 0 -9.57397e-09)
(0 0 9.49539e-09)
(0 0 -1.43769e-08)
(0 0 7.07285e-09)
(0 0 -3.70016e-09)
(0 0 3.05427e-08)
(0 0 -1.71905e-09)
(0 0 2.38216e-08)
(0 0 -4.80821e-08)
(0 0 -5.5838e-08)
(0 0 -6.02442e-08)
(0 0 -9.37753e-09)
(0 0 4.88697e-08)
(0 0 1.65494e-07)
(0 0 7.0491e-08)
(0 0 3.91879e-08)
(0 0 -1.42904e-07)
(0 0 -2.63098e-07)
(0 0 -1.7711e-07)
(0 0 -2.90799e-08)
(0 0 1.7059e-07)
(0 0 4.37059e-07)
(0 0 2.21152e-07)
(0 0 4.84769e-08)
(0 0 -2.97465e-07)
(0 0 -6.01794e-07)
(0 0 -3.57513e-07)
(0 0 -4.54126e-08)
(0 0 3.52289e-07)
(0 0 8.19356e-07)
(0 0 4.30505e-07)
(0 0 4.97816e-08)
(0 0 -4.95136e-07)
(0 0 -1.02597e-06)
(0 0 -5.76676e-07)
(0 0 -5.45569e-08)
(0 0 5.6886e-07)
(0 0 1.26063e-06)
(0 0 6.683e-07)
(0 0 4.63498e-08)
(0 0 -7.1106e-07)
(0 0 -1.48306e-06)
(0 0 -8.10963e-07)
(0 0 -5.87194e-08)
(0 0 7.94705e-07)
(0 0 1.71718e-06)
(0 0 9.11025e-07)
(0 0 4.04694e-08)
(0 0 -9.28402e-07)
(0 0 -1.93101e-06)
(0 0 -1.03651e-06)
(0 0 -5.47803e-08)
(0 0 1.01088e-06)
(0 0 2.14651e-06)
(0 0 1.13588e-06)
(0 0 3.08843e-08)
(0 0 -1.12849e-06)
(0 0 -2.3352e-06)
(0 0 -1.23754e-06)
(0 0 -4.57614e-08)
(0 0 1.20135e-06)
(0 0 2.52516e-06)
(0 0 1.33087e-06)
(0 0 2.21653e-08)
(0 0 -1.30128e-06)
(0 0 -2.68584e-06)
(0 0 -1.41744e-06)
(0 0 -4.26219e-08)
(0 0 1.36588e-06)
(0 0 2.86593e-06)
(0 0 1.5109e-06)
(0 0 2.03171e-08)
(0 0 -1.45572e-06)
(0 0 -3.0155e-06)
(0 0 -1.59464e-06)
(0 0 -4.21295e-08)
(0 0 1.51808e-06)
(0 0 3.19912e-06)
(0 0 1.69443e-06)
(0 0 2.18337e-08)
(0 0 -1.60322e-06)
(0 0 -3.35663e-06)
(0 0 -1.78791e-06)
(0 0 -4.63845e-08)
(0 0 1.66403e-06)
(0 0 3.55523e-06)
(0 0 1.90905e-06)
(0 0 3.24156e-08)
(0 0 -1.77855e-06)
(0 0 -3.65894e-06)
(0 0 -2.16138e-06)
(0 0 -2.80926e-07)
(0 0 -3.90591e-10)
(0 0 -1.11835e-10)
(0 0 -1.26837e-10)
(0 0 -7.84268e-11)
(0 0 -4.43587e-11)
(0 0 -1.72585e-11)
(0 0 1.72127e-12)
(0 0 2.06576e-11)
(0 0 3.2036e-11)
(0 0 2.62718e-11)
(0 0 2.15426e-13)
(0 0 -1.69724e-14)
(0 0 1.33871e-15)
(0 0 0)
(0 0 0)
(0 0 -1.39952e-54)
(0 0 6.42862e-54)
(0 0 -2.71914e-53)
(0 0 1.1212e-52)
(0 0 -4.49411e-52)
(0 0 1.7399e-51)
(0 0 -6.43449e-51)
(0 0 2.2266e-50)
(0 0 -6.893e-50)
(0 0 1.67373e-49)
(0 0 -1.15037e-49)
(0 0 -2.27248e-48)
(0 0 2.21552e-47)
(0 0 -1.49488e-46)
(0 0 8.75006e-46)
(0 0 -4.73407e-45)
(0 0 2.43195e-44)
(0 0 -1.20278e-43)
(0 0 5.77296e-43)
(0 0 -2.70228e-42)
(0 0 1.23743e-41)
(0 0 -5.55363e-41)
(0 0 2.44494e-40)
(0 0 -1.05572e-39)
(0 0 4.4658e-39)
(0 0 -1.84566e-38)
(0 0 7.41621e-38)
(0 0 -2.87263e-37)
(0 0 1.0562e-36)
(0 0 -3.57483e-36)
(0 0 1.03353e-35)
(0 0 -1.90342e-35)
(0 0 -4.22687e-35)
(0 0 7.67266e-34)
(0 0 -5.95289e-33)
(0 0 3.70587e-32)
(0 0 -2.05928e-31)
(0 0 1.05966e-30)
(0 0 -5.12918e-30)
(0 0 2.35125e-29)
(0 0 -1.02276e-28)
(0 0 4.21604e-28)
(0 0 -1.64021e-27)
(0 0 5.9873e-27)
(0 0 -2.05204e-26)
(0 0 6.97348e-26)
(0 0 -3.06383e-25)
(0 0 2.49888e-24)
(0 0 -3.00435e-23)
(0 0 3.83754e-22)
(0 0 -4.79979e-21)
(0 0 5.87128e-20)
(0 0 -7.08633e-19)
(0 0 8.49475e-18)
(0 0 -1.01517e-16)
(0 0 1.21165e-15)
(0 0 -1.44548e-14)
(0 0 1.7234e-13)
(0 0 -2.06809e-12)
(0 0 -1.15085e-10)
(0 0 -2.15534e-10)
(0 0 -9.80646e-11)
(0 0 -5.58533e-11)
(0 0 -8.55702e-11)
(0 0 -3.17327e-11)
(0 0 -7.86128e-11)
(0 0 -1.7687e-11)
(0 0 -6.33322e-11)
(0 0 -1.953e-12)
(0 0 6.61277e-10)
(0 0 1.31549e-09)
(0 0 1.11602e-09)
(0 0 9.52974e-10)
(0 0 7.88994e-10)
(0 0 7.52217e-10)
(0 0 7.16395e-10)
(0 0 7.14422e-10)
(0 0 7.12363e-10)
(0 0 5.83663e-10)
(0 0 5.19531e-10)
(0 0 4.12646e-10)
(0 0 5.20678e-10)
(0 0 4.38785e-10)
(0 0 3.89281e-10)
(0 0 2.06578e-10)
(0 0 3.52541e-10)
(0 0 3.14886e-10)
(0 0 4.30275e-10)
(0 0 2.92021e-10)
(0 0 7.55651e-11)
(0 0 5.07224e-11)
(0 0 4.19549e-10)
(0 0 3.56731e-10)
(0 0 7.50187e-10)
(0 0 1.27907e-09)
(0 0 8.04081e-11)
(0 0 -1.45227e-09)
(0 0 -8.83803e-10)
(0 0 3.10581e-10)
(0 0 1.17715e-09)
(0 0 5.51967e-10)
(0 0 -1.77261e-10)
(0 0 -8.40758e-10)
(0 0 -4.31421e-10)
(0 0 4.3575e-10)
(0 0 6.58468e-10)
(0 0 2.27497e-10)
(0 0 -4.47685e-10)
(0 0 -7.1384e-10)
(0 0 -5.10341e-10)
(0 0 3.18175e-10)
(0 0 2.66472e-10)
(0 0 9.52564e-10)
(0 0 2.86864e-10)
(0 0 -2.77585e-10)
(0 0 -1.07281e-09)
(0 0 -1.1018e-09)
(0 0 2.23745e-10)
(0 0 1.0014e-09)
(0 0 1.55483e-09)
(0 0 -4.15023e-10)
(0 0 3.2999e-10)
(0 0 -2.19233e-09)
(0 0 -4.78853e-10)
(0 0 7.69919e-10)
(0 0 1.27385e-09)
(0 0 -6.16502e-10)
(0 0 7.15381e-10)
(0 0 1.37319e-09)
(0 0 5.26133e-10)
(0 0 4.64827e-09)
(0 0 -1.07765e-08)
(0 0 1.78282e-09)
(0 0 8.55935e-10)
(0 0 2.5836e-09)
(0 0 -4.01289e-09)
(0 0 4.86536e-09)
(0 0 -2.53743e-09)
(0 0 6.13777e-09)
(0 0 -3.8065e-09)
(0 0 6.93509e-09)
(0 0 -4.49328e-09)
(0 0 8.84399e-09)
(0 0 -4.81906e-09)
(0 0 1.08425e-08)
(0 0 -5.42152e-09)
(0 0 1.27051e-08)
(0 0 -6.16193e-09)
(0 0 1.4751e-08)
(0 0 -6.73406e-09)
(0 0 1.68848e-08)
(0 0 -7.25575e-09)
(0 0 1.89907e-08)
(0 0 -7.68881e-09)
(0 0 2.10481e-08)
(0 0 -7.96247e-09)
(0 0 2.29706e-08)
(0 0 -8.0609e-09)
(0 0 2.47123e-08)
(0 0 -7.9886e-09)
(0 0 2.60611e-08)
(0 0 -7.68699e-09)
(0 0 2.71424e-08)
(0 0 -7.14288e-09)
(0 0 2.76966e-08)
(0 0 -6.38244e-09)
(0 0 2.77692e-08)
(0 0 -5.35725e-09)
(0 0 2.72746e-08)
(0 0 -4.11776e-09)
(0 0 2.61899e-08)
(0 0 -2.65287e-09)
(0 0 2.45378e-08)
(0 0 -1.02001e-09)
(0 0 2.2264e-08)
(0 0 7.2544e-10)
(0 0 1.96965e-08)
(0 0 2.03479e-09)
(0 0 1.68644e-08)
(0 0 3.47529e-09)
(0 0 1.40724e-08)
(0 0 4.39082e-09)
(0 0 1.10528e-08)
(0 0 5.38016e-09)
(0 0 7.94248e-09)
(0 0 6.31168e-09)
(0 0 4.68884e-09)
(0 0 7.12746e-09)
(0 0 1.36019e-09)
(0 0 7.82071e-09)
(0 0 -1.95309e-09)
(0 0 8.41155e-09)
(0 0 -5.13279e-09)
(0 0 8.83674e-09)
(0 0 -9.00163e-09)
(0 0 8.8845e-09)
(0 0 -1.36607e-08)
(0 0 6.55895e-09)
(0 0 -3.13297e-09)
(0 0 2.93155e-08)
(0 0 -1.03336e-09)
(0 0 2.25155e-08)
(0 0 -4.66335e-08)
(0 0 -5.49953e-08)
(0 0 -5.87138e-08)
(0 0 -9.44291e-09)
(0 0 4.87788e-08)
(0 0 1.60796e-07)
(0 0 7.01556e-08)
(0 0 3.73463e-08)
(0 0 -1.40032e-07)
(0 0 -2.57176e-07)
(0 0 -1.73732e-07)
(0 0 -2.86949e-08)
(0 0 1.6874e-07)
(0 0 4.25704e-07)
(0 0 2.18319e-07)
(0 0 4.66071e-08)
(0 0 -2.92487e-07)
(0 0 -5.8751e-07)
(0 0 -3.51339e-07)
(0 0 -4.47909e-08)
(0 0 3.47731e-07)
(0 0 7.98764e-07)
(0 0 4.2412e-07)
(0 0 4.83681e-08)
(0 0 -4.87515e-07)
(0 0 -1.00122e-06)
(0 0 -5.67122e-07)
(0 0 -5.40039e-08)
(0 0 5.61051e-07)
(0 0 1.22944e-06)
(0 0 6.57893e-07)
(0 0 4.56614e-08)
(0 0 -7.00551e-07)
(0 0 -1.44708e-06)
(0 0 -7.97774e-07)
(0 0 -5.84639e-08)
(0 0 7.83545e-07)
(0 0 1.67501e-06)
(0 0 8.96555e-07)
(0 0 4.05955e-08)
(0 0 -9.14905e-07)
(0 0 -1.88406e-06)
(0 0 -1.01981e-06)
(0 0 -5.50738e-08)
(0 0 9.96535e-07)
(0 0 2.09404e-06)
(0 0 1.11767e-06)
(0 0 3.18953e-08)
(0 0 -1.11221e-06)
(0 0 -2.27838e-06)
(0 0 -1.2177e-06)
(0 0 -4.67443e-08)
(0 0 1.18425e-06)
(0 0 2.46356e-06)
(0 0 1.30948e-06)
(0 0 2.39502e-08)
(0 0 -1.2826e-06)
(0 0 -2.62052e-06)
(0 0 -1.39472e-06)
(0 0 -4.41243e-08)
(0 0 1.3465e-06)
(0 0 2.79609e-06)
(0 0 1.48653e-06)
(0 0 2.26674e-08)
(0 0 -1.43499e-06)
(0 0 -2.94217e-06)
(0 0 -1.56894e-06)
(0 0 -4.41577e-08)
(0 0 1.49672e-06)
(0 0 3.12121e-06)
(0 0 1.66691e-06)
(0 0 2.47556e-08)
(0 0 -1.5807e-06)
(0 0 -3.27501e-06)
(0 0 -1.75881e-06)
(0 0 -4.90143e-08)
(0 0 1.64101e-06)
(0 0 3.46871e-06)
(0 0 1.87767e-06)
(0 0 3.5525e-08)
(0 0 -1.75245e-06)
(0 0 -3.57309e-06)
(0 0 -2.12589e-06)
(0 0 -2.89491e-07)
(0 0 8.33378e-10)
(0 0 7.29816e-11)
(0 0 -2.33494e-10)
(0 0 -5.70173e-11)
(0 0 -4.60247e-11)
(0 0 -1.6861e-11)
(0 0 1.66671e-12)
(0 0 2.02785e-11)
(0 0 3.13894e-11)
(0 0 2.57157e-11)
(0 0 5.14755e-13)
(0 0 -4.29239e-14)
(0 0 3.58072e-15)
(0 0 0)
(0 0 0)
(0 0 6.16862e-55)
(0 0 -2.83013e-54)
(0 0 1.11781e-53)
(0 0 -4.22259e-53)
(0 0 1.50689e-52)
(0 0 -4.91756e-52)
(0 0 1.35054e-51)
(0 0 -2.17319e-51)
(0 0 -7.52409e-51)
(0 0 1.08908e-49)
(0 0 -8.08242e-49)
(0 0 4.95218e-48)
(0 0 -2.75642e-47)
(0 0 1.44489e-46)
(0 0 -7.25819e-46)
(0 0 3.52781e-45)
(0 0 -1.66869e-44)
(0 0 7.70923e-44)
(0 0 -3.48656e-43)
(0 0 1.54564e-42)
(0 0 -6.72023e-42)
(0 0 2.86497e-41)
(0 0 -1.19621e-40)
(0 0 4.87925e-40)
(0 0 -1.93534e-39)
(0 0 7.40316e-39)
(0 0 -2.68931e-38)
(0 0 8.98825e-38)
(0 0 -2.5517e-37)
(0 0 4.4035e-37)
(0 0 1.32845e-36)
(0 0 -2.11597e-35)
(0 0 1.62986e-34)
(0 0 -1.02455e-33)
(0 0 5.79429e-33)
(0 0 -3.05067e-32)
(0 0 1.51705e-31)
(0 0 -7.16861e-31)
(0 0 3.22365e-30)
(0 0 -1.37729e-29)
(0 0 5.56479e-29)
(0 0 -2.10693e-28)
(0 0 7.33324e-28)
(0 0 -2.2267e-27)
(0 0 4.67206e-27)
(0 0 9.1607e-27)
(0 0 -2.62196e-25)
(0 0 3.27559e-24)
(0 0 -3.76921e-23)
(0 0 4.35397e-22)
(0 0 -5.09646e-21)
(0 0 6.02191e-20)
(0 0 -7.15304e-19)
(0 0 8.51902e-18)
(0 0 -1.01577e-16)
(0 0 1.21163e-15)
(0 0 -1.44535e-14)
(0 0 1.72333e-13)
(0 0 -2.06809e-12)
(0 0 -1.15085e-10)
(0 0 -2.15534e-10)
(0 0 -9.80646e-11)
(0 0 -5.58532e-11)
(0 0 -8.55702e-11)
(0 0 -3.17326e-11)
(0 0 -7.86129e-11)
(0 0 -1.76869e-11)
(0 0 -6.3332e-11)
(0 0 -1.95466e-12)
(0 0 6.61276e-10)
(0 0 1.31549e-09)
(0 0 1.11602e-09)
(0 0 9.52973e-10)
(0 0 7.88993e-10)
(0 0 7.52216e-10)
(0 0 7.16394e-10)
(0 0 7.14422e-10)
(0 0 7.12363e-10)
(0 0 5.83663e-10)
(0 0 5.19531e-10)
(0 0 4.12645e-10)
(0 0 5.20678e-10)
(0 0 4.38786e-10)
(0 0 3.89281e-10)
(0 0 2.06578e-10)
(0 0 3.52541e-10)
(0 0 3.14885e-10)
(0 0 4.30276e-10)
(0 0 2.9202e-10)
(0 0 7.55641e-11)
(0 0 5.0749e-11)
(0 0 4.19392e-10)
(0 0 3.56938e-10)
(0 0 7.5104e-10)
(0 0 1.27904e-09)
(0 0 8.02042e-11)
(0 0 -1.45277e-09)
(0 0 -8.84691e-10)
(0 0 3.10799e-10)
(0 0 1.17751e-09)
(0 0 5.52413e-10)
(0 0 -1.77486e-10)
(0 0 -8.41142e-10)
(0 0 -4.31229e-10)
(0 0 4.35602e-10)
(0 0 6.58833e-10)
(0 0 2.27831e-10)
(0 0 -4.47725e-10)
(0 0 -7.14271e-10)
(0 0 -5.10877e-10)
(0 0 3.18475e-10)
(0 0 2.6634e-10)
(0 0 9.53076e-10)
(0 0 2.87576e-10)
(0 0 -2.77833e-10)
(0 0 -1.07342e-09)
(0 0 -1.10264e-09)
(0 0 2.24107e-10)
(0 0 1.00109e-09)
(0 0 1.55563e-09)
(0 0 -4.13268e-10)
(0 0 3.28533e-10)
(0 0 -2.19317e-09)
(0 0 -4.78281e-10)
(0 0 7.69536e-10)
(0 0 1.27359e-09)
(0 0 -6.16177e-10)
(0 0 7.14422e-10)
(0 0 1.37598e-09)
(0 0 5.2998e-10)
(0 0 4.64398e-09)
(0 0 -1.07778e-08)
(0 0 1.78452e-09)
(0 0 8.53825e-10)
(0 0 2.58336e-09)
(0 0 -4.01203e-09)
(0 0 4.86537e-09)
(0 0 -2.53747e-09)
(0 0 6.13777e-09)
(0 0 -3.8065e-09)
(0 0 6.93509e-09)
(0 0 -4.49327e-09)
(0 0 8.84399e-09)
(0 0 -4.81906e-09)
(0 0 1.08425e-08)
(0 0 -5.42152e-09)
(0 0 1.27051e-08)
(0 0 -6.16193e-09)
(0 0 1.4751e-08)
(0 0 -6.73406e-09)
(0 0 1.68848e-08)
(0 0 -7.25575e-09)
(0 0 1.89907e-08)
(0 0 -7.68881e-09)
(0 0 2.10481e-08)
(0 0 -7.96246e-09)
(0 0 2.29706e-08)
(0 0 -8.0609e-09)
(0 0 2.47123e-08)