/*--------------------------------*- C++ -*----------------------------------*\
| =========                 |                                                 |
| \\      /  F ield         | foam-extend: Open Source CFD                    |
|  \\    /   O peration     | Version:     3.2                                |
|   \\  /    A nd           | Web:         http://www.foam-extend.org         |
|    \\/     M anipulation  | For copyright notice see file Copyright         |
\*---------------------------------------------------------------------------*/
FoamFile
{
    version     2.0;
    format      ascii;
    class       pointVectorField;
    location    "2000";
    object      newMeshPoints;
}
// * * * * * * * * * * * * * * * * * * * * * * * * * * * * * * * * * * * * * //

dimensions      [0 1 0 0 0 0 0];

internalField   nonuniform List<vector> 
5418
(
(0 0 0)
(0.05 0 -0.00025)
(0.1 0 -0.0005)
(0.15 0 -0.00075)
(0.2 0 -0.001)
(0.25 0 -0.00125)
(0.3 0 -0.0015)
(0.35 0 -0.00175)
(0.4 0 -0.002)
(0.45 0 -0.00225)
(0.5 0 -0.0025)
(0.55 0 -0.00275)
(0.6 0 -0.003)
(0.65 0 -0.00325)
(0.7 0 -0.0035)
(0.75 0 -0.00375)
(0.8 0 -0.004)
(0.85 0 -0.00425)
(0.9 0 -0.0045)
(0.95 0 -0.00475)
(1 0 -0.005)
(1.05 0 -0.00525)
(1.1 0 -0.0055)
(1.15 0 -0.00575)
(1.2 0 -0.006)
(1.25 0 -0.00625)
(1.3 0 -0.0065)
(1.35 0 -0.00675)
(1.4 0 -0.007)
(1.45 0 -0.00725)
(1.5 0 -0.0075)
(1.55 0 -0.00775)
(1.6 0 -0.008)
(1.65 0 -0.00825)
(1.7 0 -0.0085)
(1.75 0 -0.00875)
(1.8 0 -0.009)
(1.85 0 -0.00925)
(1.9 0 -0.0095)
(1.95 0 -0.00975)
(2 0 -0.01)
(2.05 0 -0.01025)
(2.1 0 -0.0105)
(2.15 0 -0.01075)
(2.2 0 -0.011)
(2.25 0 -0.01125)
(2.3 0 -0.0115)
(2.35 0 -0.01175)
(2.4 0 -0.012)
(2.45 0 -0.01225)
(2.5 0 -0.0125)
(2.55 0 -0.01275)
(2.6 0 -0.013)
(2.65 0 -0.01325)
(2.7 0 -0.0135)
(2.75 0 -0.01375)
(2.8 0 -0.014)
(2.85 0 -0.01425)
(2.9 0 -0.0145)
(2.95 0 -0.01475)
(3 0 -0.0132249)
(3.05 0 -0.0124448)
(3.1 0 -0.0133667)
(3.15 0 -0.0135973)
(3.2 0 -0.0138879)
(3.25 0 -0.0141448)
(3.3 0 -0.0144245)
(3.35 0 -0.0146983)
(3.4 0 -0.0149717)
(3.45 0 -0.0152418)
(3.5 0 -0.0155108)
(3.55 0 -0.0157785)
(3.6 0 -0.016044)
(3.65 0 -0.0163072)
(3.7 0 -0.0165687)
(3.75 0 -0.0168287)
(3.8 0 -0.0170873)
(3.85 0 -0.0173446)
(3.9 0 -0.0176008)
(3.95 0 -0.017856)
(4 0 -0.0181102)
(4.05 0 -0.0183636)
(4.1 0 -0.0186164)
(4.15 0 -0.0188686)
(4.2 0 -0.0191203)
(4.25 0 -0.0193716)
(4.3 0 -0.0196226)
(4.35 0 -0.0198734)
(4.4 0 -0.0201237)
(4.45 0 -0.0203741)
(4.5 0 -0.0206242)
(4.55 0 -0.0208744)
(4.6 0 -0.0211244)
(4.65 0 -0.0213745)
(4.7 0 -0.0216245)
(4.75 0 -0.0218743)
(4.8 0 -0.0221242)
(4.85 0 -0.0223741)
(4.9 0 -0.022624)
(4.95 0 -0.022874)
(5 0 -0.023124)
(5.05 0 -0.023374)
(5.1 0 -0.0236238)
(5.15 0 -0.0238737)
(5.2 0 -0.0241236)
(5.25 0 -0.0243736)
(5.3 0 -0.0246236)
(5.35 0 -0.0248737)
(5.4 0 -0.0251237)
(5.45 0 -0.0253736)
(5.5 0 -0.0256235)
(5.55 0 -0.0258735)
(5.6 0 -0.0261235)
(5.65 0 -0.0263736)
(5.7 0 -0.0266236)
(5.75 0 -0.0268737)
(5.8 0 -0.0271236)
(5.85 0 -0.0273736)
(5.9 0 -0.0276235)
(5.95 0 -0.0278736)
(6 0 -0.0281236)
(6.05 0 -0.0283737)
(6.1 0 -0.0286237)
(6.15 0 -0.0288737)
(6.2 0 -0.0291236)
(6.25 0 -0.0293736)
(6.3 0 -0.0296236)
(6.35 0 -0.0298737)
(6.4 0 -0.0301237)
(6.45 0 -0.0303739)
(6.5 0 -0.0306236)
(6.55 0 -0.0308737)
(6.6 0 -0.0311237)
(6.65 0 -0.0313736)
(6.7 0 -0.0316239)
(6.75 0 -0.0318736)
(6.8 0 -0.0321241)
(6.85 0 -0.0323735)
(6.9 0 -0.0326241)
(6.95 0 -0.0328733)
(7 0 -0.0331242)
(7.05 0 -0.0333732)
(7.1 0 -0.0336245)
(7.15 0 -0.0338729)
(7.2 0 -0.0341245)
(7.25 0 -0.0343726)
(7.3 0 -0.0346247)
(7.35 0 -0.0348723)
(7.4 0 -0.035125)
(7.45 0 -0.0353718)
(7.5 0 -0.0356251)
(7.55 0 -0.0358713)
(7.6 0 -0.0361254)
(7.65 0 -0.0363708)
(7.7 0 -0.0366258)
(7.75 0 -0.0368701)
(7.8 0 -0.037126)
(7.85 0 -0.0373694)
(7.9 0 -0.0376263)
(7.95 0 -0.0378687)
(8 0 -0.0381268)
(8.05 0 -0.0383678)
(8.1 0 -0.038627)
(8.15 0 -0.0388669)
(8.2 0 -0.0391274)
(8.25 0 -0.0393661)
(8.3 0 -0.0396276)
(8.35 0 -0.039865)
(8.4 0 -0.0401279)
(8.45 0 -0.0403641)
(8.5 0 -0.0406282)
(8.55 0 -0.040863)
(8.6 0 -0.0411283)
(8.65 0 -0.0413621)
(8.7 0 -0.0416285)
(8.75 0 -0.0418613)
(8.8 0 -0.0421286)
(8.85 0 -0.0423604)
(8.9 0 -0.0426286)
(8.95 0 -0.0428597)
(9 0 -0.0431287)
(9.05 0 -0.043359)
(9.1 0 -0.0436286)
(9.15 0 -0.0438584)
(9.2 0 -0.0441285)
(9.25 0 -0.044358)
(9.3 0 -0.0446284)
(9.35 0 -0.0448576)
(9.4 0 -0.0451282)
(9.45 0 -0.0453574)
(9.5 0 -0.0456281)
(9.55 0 -0.0458573)
(9.6 0 -0.0461278)
(9.65 0 -0.0463573)
(9.7 0 -0.0466276)
(9.75 0 -0.0468575)
(9.8 0 -0.0471273)
(9.85 0 -0.0473577)
(9.9 0 -0.047627)
(9.95 0 -0.047858)
(10 0 -0.0481265)
(10.05 0 -0.0483583)
(10.1 0 -0.0486261)
(10.15 0 -0.0488588)
(10.2 0 -0.0491257)
(10.25 0 -0.0493592)
(10.3 0 -0.0496252)
(10.35 0 -0.0498599)
(10.4 0 -0.0501249)
(10.45 0 -0.0503604)
(10.5 0 -0.0506244)
(10.55 0 -0.0508611)
(10.6 0 -0.0511241)
(10.65 0 -0.0513617)
(10.7 0 -0.0516236)
(10.75 0 -0.0518625)
(10.8 0 -0.0521233)
(10.85 0 -0.0523631)
(10.9 0 -0.052623)
(10.95 0 -0.0528638)
(11 0 -0.0531227)
(11.05 0 -0.0533645)
(11.1 0 -0.0536224)
(11.15 0 -0.0538652)
(11.2 0 -0.0541222)
(11.25 0 -0.0543659)
(11.3 0 -0.054622)
(11.35 0 -0.0548665)
(11.4 0 -0.0551219)
(11.45 0 -0.0553671)
(11.5 0 -0.0556217)
(11.55 0 -0.0558677)
(11.6 0 -0.0561218)
(11.65 0 -0.0563683)
(11.7 0 -0.0566217)
(11.75 0 -0.0568688)
(11.8 0 -0.0571215)
(11.85 0 -0.0573692)
(11.9 0 -0.0576215)
(11.95 0 -0.0578697)
(12 0 -0.0581216)
(12.05 0 -0.0583701)
(12.1 0 -0.0586217)
(12.15 0 -0.0588706)
(12.2 0 -0.0591217)
(12.25 0 -0.0593708)
(12.3 0 -0.0596218)
(12.35 0 -0.0598711)
(12.4 0 -0.0601219)
(12.45 0 -0.0603714)
(12.5 0 -0.0606221)
(12.55 0 -0.0608715)
(12.6 0 -0.061122)
(12.65 0 -0.0613717)
(12.7 0 -0.061622)
(12.75 0 -0.0618719)
(12.8 0 -0.0621222)
(12.85 0 -0.062372)
(12.9 0 -0.0626222)
(12.95 0 -0.062872)
(13 0 -0.0631223)
(13.05 0 -0.0633721)
(13.1 0 -0.0636223)
(13.15 0 -0.0638722)
(13.2 0 -0.0641224)
(13.25 0 -0.0643723)
(13.3 0 -0.0646224)
(13.35 0 -0.0648722)
(13.4 0 -0.0651223)
(13.45 0 -0.0653722)
(13.5 0 -0.0656224)
(13.55 0 -0.0658723)
(13.6 0 -0.0661225)
(13.65 0 -0.0663724)
(13.7 0 -0.0666225)
(13.75 0 -0.0668723)
(13.8 0 -0.0671224)
(13.85 0 -0.0673722)
(13.9 0 -0.0676223)
(13.95 0 -0.0678722)
(14 0 -0.0681225)
(14.05 0 -0.0683721)
(14.1 0 -0.0686223)
(14.15 0 -0.0688723)
(14.2 0 -0.0691216)
(14.25 0 -0.0693731)
(14.3 0 -0.069618)
(14.35 0 -0.0698726)
(14.4 0 -0.0701236)
(14.45 0 -0.0703733)
(14.5 0 -0.0706239)
(14.55 0 -0.0708699)
(14.6 0 -0.0711221)
(14.65 0 -0.0713294)
(14.7 0 -0.0716972)
(14.75 0 -0.071809)
(14.8 0 -0.0723062)
(14.85 0 -0.07425)
(14.9 0 -0.0745)
(14.95 0 -0.07475)
(15 0 -0.075)
(0 0.02 0)
(0.05 0.02 -0.00025)
(0.1 0.02 -0.0005)
(0.15 0.02 -0.00075)
(0.2 0.02 -0.001)
(0.25 0.02 -0.00125)
(0.3 0.02 -0.0015)
(0.35 0.02 -0.00175)
(0.4 0.02 -0.002)
(0.45 0.02 -0.00225)
(0.5 0.02 -0.0025)
(0.55 0.02 -0.00275)
(0.6 0.02 -0.003)
(0.65 0.02 -0.00325)
(0.7 0.02 -0.0035)
(0.75 0.02 -0.00375)
(0.8 0.02 -0.004)
(0.85 0.02 -0.00425)
(0.9 0.02 -0.0045)
(0.95 0.02 -0.00475)
(1 0.02 -0.005)
(1.05 0.02 -0.00525)
(1.1 0.02 -0.0055)
(1.15 0.02 -0.00575)
(1.2 0.02 -0.006)
(1.25 0.02 -0.00625)
(1.3 0.02 -0.0065)
(1.35 0.02 -0.00675)
(1.4 0.02 -0.007)
(1.45 0.02 -0.00725)
(1.5 0.02 -0.0075)
(1.55 0.02 -0.00775)
(1.6 0.02 -0.008)
(1.65 0.02 -0.00825)
(1.7 0.02 -0.0085)
(1.75 0.02 -0.00875)
(1.8 0.02 -0.009)
(1.85 0.02 -0.00925)
(1.9 0.02 -0.0095)
(1.95 0.02 -0.00975)
(2 0.02 -0.01)
(2.05 0.02 -0.01025)
(2.1 0.02 -0.0105)
(2.15 0.02 -0.01075)
(2.2 0.02 -0.011)
(2.25 0.02 -0.01125)
(2.3 0.02 -0.0115)
(2.35 0.02 -0.01175)
(2.4 0.02 -0.012)
(2.45 0.02 -0.01225)
(2.5 0.02 -0.0125)
(2.55 0.02 -0.01275)
(2.6 0.02 -0.013)
(2.65 0.02 -0.01325)
(2.7 0.02 -0.0135)
(2.75 0.02 -0.01375)
(2.8 0.02 -0.014)
(2.85 0.02 -0.01425)
(2.9 0.02 -0.0145)
(2.95 0.02 -0.01475)
(3 0.02 -0.0132249)
(3.05 0.02 -0.0124448)
(3.1 0.02 -0.0133667)
(3.15 0.02 -0.0135973)
(3.2 0.02 -0.0138879)
(3.25 0.02 -0.0141448)
(3.3 0.02 -0.0144245)
(3.35 0.02 -0.0146983)
(3.4 0.02 -0.0149717)
(3.45 0.02 -0.0152418)
(3.5 0.02 -0.0155108)
(3.55 0.02 -0.0157785)
(3.6 0.02 -0.016044)
(3.65 0.02 -0.0163072)
(3.7 0.02 -0.0165687)
(3.75 0.02 -0.0168287)
(3.8 0.02 -0.0170873)
(3.85 0.02 -0.0173446)
(3.9 0.02 -0.0176008)
(3.95 0.02 -0.017856)
(4 0.02 -0.0181102)
(4.05 0.02 -0.0183636)
(4.1 0.02 -0.0186164)
(4.15 0.02 -0.0188686)
(4.2 0.02 -0.0191203)
(4.25 0.02 -0.0193716)
(4.3 0.02 -0.0196226)
(4.35 0.02 -0.0198734)
(4.4 0.02 -0.0201237)
(4.45 0.02 -0.0203741)
(4.5 0.02 -0.0206242)
(4.55 0.02 -0.0208744)
(4.6 0.02 -0.0211244)
(4.65 0.02 -0.0213745)
(4.7 0.02 -0.0216245)
(4.75 0.02 -0.0218743)
(4.8 0.02 -0.0221242)
(4.85 0.02 -0.0223741)
(4.9 0.02 -0.022624)
(4.95 0.02 -0.022874)
(5 0.02 -0.023124)
(5.05 0.02 -0.023374)
(5.1 0.02 -0.0236238)
(5.15 0.02 -0.0238737)
(5.2 0.02 -0.0241236)
(5.25 0.02 -0.0243736)
(5.3 0.02 -0.0246236)
(5.35 0.02 -0.0248737)
(5.4 0.02 -0.0251237)
(5.45 0.02 -0.0253736)
(5.5 0.02 -0.0256235)
(5.55 0.02 -0.0258735)
(5.6 0.02 -0.0261235)
(5.65 0.02 -0.0263736)
(5.7 0.02 -0.0266236)
(5.75 0.02 -0.0268737)
(5.8 0.02 -0.0271236)
(5.85 0.02 -0.0273736)
(5.9 0.02 -0.0276235)
(5.95 0.02 -0.0278736)
(6 0.02 -0.0281236)
(6.05 0.02 -0.0283737)
(6.1 0.02 -0.0286237)
(6.15 0.02 -0.0288737)
(6.2 0.02 -0.0291236)
(6.25 0.02 -0.0293736)
(6.3 0.02 -0.0296236)
(6.35 0.02 -0.0298737)
(6.4 0.02 -0.0301237)
(6.45 0.02 -0.0303739)
(6.5 0.02 -0.0306236)
(6.55 0.02 -0.0308737)
(6.6 0.02 -0.0311237)
(6.65 0.02 -0.0313736)
(6.7 0.02 -0.0316239)
(6.75 0.02 -0.0318736)
(6.8 0.02 -0.0321241)
(6.85 0.02 -0.0323735)
(6.9 0.02 -0.0326241)
(6.95 0.02 -0.0328733)
(7 0.02 -0.0331242)
(7.05 0.02 -0.0333732)
(7.1 0.02 -0.0336245)
(7.15 0.02 -0.0338729)
(7.2 0.02 -0.0341245)
(7.25 0.02 -0.0343726)
(7.3 0.02 -0.0346247)
(7.35 0.02 -0.0348723)
(7.4 0.02 -0.035125)
(7.45 0.02 -0.0353718)
(7.5 0.02 -0.0356251)
(7.55 0.02 -0.0358713)
(7.6 0.02 -0.0361254)
(7.65 0.02 -0.0363708)
(7.7 0.02 -0.0366258)
(7.75 0.02 -0.0368701)
(7.8 0.02 -0.037126)
(7.85 0.02 -0.0373694)
(7.9 0.02 -0.0376263)
(7.95 0.02 -0.0378687)
(8 0.02 -0.0381268)
(8.05 0.02 -0.0383678)
(8.1 0.02 -0.038627)
(8.15 0.02 -0.0388669)
(8.2 0.02 -0.0391274)
(8.25 0.02 -0.0393661)
(8.3 0.02 -0.0396276)
(8.35 0.02 -0.039865)
(8.4 0.02 -0.0401279)
(8.45 0.02 -0.0403641)
(8.5 0.02 -0.0406282)
(8.55 0.02 -0.040863)
(8.6 0.02 -0.0411283)
(8.65 0.02 -0.0413621)
(8.7 0.02 -0.0416285)
(8.75 0.02 -0.0418613)
(8.8 0.02 -0.0421286)
(8.85 0.02 -0.0423604)
(8.9 0.02 -0.0426286)
(8.95 0.02 -0.0428597)
(9 0.02 -0.0431287)
(9.05 0.02 -0.043359)
(9.1 0.02 -0.0436286)
(9.15 0.02 -0.0438584)
(9.2 0.02 -0.0441285)
(9.25 0.02 -0.044358)
(9.3 0.02 -0.0446284)
(9.35 0.02 -0.0448576)
(9.4 0.02 -0.0451282)
(9.45 0.02 -0.0453574)
(9.5 0.02 -0.0456281)
(9.55 0.02 -0.0458573)
(9.6 0.02 -0.0461278)
(9.65 0.02 -0.0463573)
(9.7 0.02 -0.0466276)
(9.75 0.02 -0.0468575)
(9.8 0.02 -0.0471273)
(9.85 0.02 -0.0473577)
(9.9 0.02 -0.047627)
(9.95 0.02 -0.047858)
(10 0.02 -0.0481265)
(10.05 0.02 -0.0483583)
(10.1 0.02 -0.0486261)
(10.15 0.02 -0.0488588)
(10.2 0.02 -0.0491257)
(10.25 0.02 -0.0493592)
(10.3 0.02 -0.0496252)
(10.35 0.02 -0.0498599)
(10.4 0.02 -0.0501249)
(10.45 0.02 -0.0503604)
(10.5 0.02 -0.0506244)
(10.55 0.02 -0.0508611)
(10.6 0.02 -0.0511241)
(10.65 0.02 -0.0513617)
(10.7 0.02 -0.0516236)
(10.75 0.02 -0.0518625)
(10.8 0.02 -0.0521233)
(10.85 0.02 -0.0523631)
(10.9 0.02 -0.052623)
(10.95 0.02 -0.0528638)
(11 0.02 -0.0531227)
(11.05 0.02 -0.0533645)
(11.1 0.02 -0.0536224)
(11.15 0.02 -0.0538652)
(11.2 0.02 -0.0541222)
(11.25 0.02 -0.0543659)
(11.3 0.02 -0.054622)
(11.35 0.02 -0.0548665)
(11.4 0.02 -0.0551219)
(11.45 0.02 -0.0553671)
(11.5 0.02 -0.0556217)
(11.55 0.02 -0.0558677)
(11.6 0.02 -0.0561218)
(11.65 0.02 -0.0563683)
(11.7 0.02 -0.0566217)
(11.75 0.02 -0.0568688)
(11.8 0.02 -0.0571215)
(11.85 0.02 -0.0573692)
(11.9 0.02 -0.0576215)
(11.95 0.02 -0.0578697)
(12 0.02 -0.0581216)
(12.05 0.02 -0.0583701)
(12.1 0.02 -0.0586217)
(12.15 0.02 -0.0588706)
(12.2 0.02 -0.0591217)
(12.25 0.02 -0.0593708)
(12.3 0.02 -0.0596218)
(12.35 0.02 -0.0598711)
(12.4 0.02 -0.0601219)
(12.45 0.02 -0.0603714)
(12.5 0.02 -0.0606221)
(12.55 0.02 -0.0608715)
(12.6 0.02 -0.061122)
(12.65 0.02 -0.0613717)
(12.7 0.02 -0.061622)
(12.75 0.02 -0.0618719)
(12.8 0.02 -0.0621222)
(12.85 0.02 -0.062372)
(12.9 0.02 -0.0626222)
(12.95 0.02 -0.062872)
(13 0.02 -0.0631223)
(13.05 0.02 -0.0633721)
(13.1 0.02 -0.0636223)
(13.15 0.02 -0.0638722)
(13.2 0.02 -0.0641224)
(13.25 0.02 -0.0643723)
(13.3 0.02 -0.0646224)
(13.35 0.02 -0.0648722)
(13.4 0.02 -0.0651223)
(13.45 0.02 -0.0653722)
(13.5 0.02 -0.0656224)
(13.55 0.02 -0.0658723)
(13.6 0.02 -0.0661225)
(13.65 0.02 -0.0663724)
(13.7 0.02 -0.0666225)
(13.75 0.02 -0.0668723)
(13.8 0.02 -0.0671224)
(13.85 0.02 -0.0673722)
(13.9 0.02 -0.0676223)
(13.95 0.02 -0.0678722)
(14 0.02 -0.0681225)
(14.05 0.02 -0.0683721)
(14.1 0.02 -0.0686223)
(14.15 0.02 -0.0688723)
(14.2 0.02 -0.0691216)
(14.25 0.02 -0.0693731)
(14.3 0.02 -0.069618)
(14.35 0.02 -0.0698726)
(14.4 0.02 -0.0701236)
(14.45 0.02 -0.0703733)
(14.5 0.02 -0.0706239)
(14.55 0.02 -0.0708699)
(14.6 0.02 -0.0711221)
(14.65 0.02 -0.0713294)
(14.7 0.02 -0.0716972)
(14.75 0.02 -0.071809)
(14.8 0.02 -0.0723062)
(14.85 0.02 -0.07425)
(14.9 0.02 -0.0745)
(14.95 0.02 -0.07475)
(15 0.02 -0.075)
(0 0 0.00375)
(0.05 0 0.0035)
(0.1 0 0.00325)
(0.15 0 0.003)
(0.2 0 0.00275)
(0.25 0 0.0025)
(0.3 0 0.00225)
(0.35 0 0.002)
(0.4 0 0.00175)
(0.45 0 0.0015)
(0.5 0 0.00125)
(0.55 0 0.001)
(0.6 0 0.00075)
(0.65 0 0.0005)
(0.7 0 0.00025)
(0.75 0 1.4456e-19)
(0.8 0 -0.00025)
(0.85 0 -0.0005)
(0.9 0 -0.00075)
(0.95 0 -0.001)
(1 0 -0.00125)
(1.05 0 -0.0015)
(1.1 0 -0.00175)
(1.15 0 -0.002)
(1.2 0 -0.00225)
(1.25 0 -0.0025)
(1.3 0 -0.00275)
(1.35 0 -0.003)
(1.4 0 -0.00325)
(1.45 0 -0.0035)
(1.5 0 -0.00375)
(1.55 0 -0.004)
(1.6 0 -0.00425)
(1.65 0 -0.0045)
(1.7 0 -0.00475)
(1.75 0 -0.005)
(1.8 0 -0.00525)
(1.85 0 -0.0055)
(1.9 0 -0.00575)
(1.95 0 -0.006)
(2 0 -0.00625)
(2.05 0 -0.0065)
(2.1 0 -0.00675)
(2.15 0 -0.007)
(2.2 0 -0.00725)
(2.25 0 -0.0075)
(2.3 0 -0.00775)
(2.35 0 -0.008)
(2.4 0 -0.00825)
(2.45 0 -0.0085)
(2.5 0 -0.00875)
(2.55 0 -0.009)
(2.6 0 -0.00925)
(2.65 0 -0.0095)
(2.7 0 -0.00975)
(2.75 0 -0.01)
(2.8 0 -0.01025)
(2.85 0 -0.0104999)
(2.9 0 -0.010751)
(2.95 0 -0.0109878)
(3 0 -0.0094813)
(3.05 0 -0.00870953)
(3.1 0 -0.0096148)
(3.15 0 -0.0098516)
(3.2 0 -0.0101411)
(3.25 0 -0.0103984)
(3.3 0 -0.0106778)
(3.35 0 -0.0109517)
(3.4 0 -0.011225)
(3.45 0 -0.011495)
(3.5 0 -0.011764)
(3.55 0 -0.0120317)
(3.6 0 -0.0122971)
(3.65 0 -0.0125603)
(3.7 0 -0.0128218)
(3.75 0 -0.0130818)
(3.8 0 -0.0133404)
(3.85 0 -0.0135976)
(3.9 0 -0.0138539)
(3.95 0 -0.0141091)
(4 0 -0.0143632)
(4.05 0 -0.0146167)
(4.1 0 -0.0148694)
(4.15 0 -0.0151216)
(4.2 0 -0.0153733)
(4.25 0 -0.0156247)
(4.3 0 -0.0158757)
(4.35 0 -0.0161264)
(4.4 0 -0.0163768)
(4.45 0 -0.0166271)
(4.5 0 -0.0168773)
(4.55 0 -0.0171274)
(4.6 0 -0.0173775)
(4.65 0 -0.0176275)
(4.7 0 -0.0178775)
(4.75 0 -0.0181273)
(4.8 0 -0.0183772)
(4.85 0 -0.0186271)
(4.9 0 -0.0188771)
(4.95 0 -0.019127)
(5 0 -0.019377)
(5.05 0 -0.019627)
(5.1 0 -0.0198768)
(5.15 0 -0.0201268)
(5.2 0 -0.0203767)
(5.25 0 -0.0206267)
(5.3 0 -0.0208767)
(5.35 0 -0.0211267)
(5.4 0 -0.0213767)
(5.45 0 -0.0216266)
(5.5 0 -0.0218766)
(5.55 0 -0.0221266)
(5.6 0 -0.0223766)
(5.65 0 -0.0226266)
(5.7 0 -0.0228767)
(5.75 0 -0.0231267)
(5.8 0 -0.0233766)
(5.85 0 -0.0236266)
(5.9 0 -0.0238766)
(5.95 0 -0.0241266)
(6 0 -0.0243766)
(6.05 0 -0.0246267)
(6.1 0 -0.0248767)
(6.15 0 -0.0251267)
(6.2 0 -0.0253766)
(6.25 0 -0.0256267)
(6.3 0 -0.0258766)
(6.35 0 -0.0261268)
(6.4 0 -0.0263767)
(6.45 0 -0.0266269)
(6.5 0 -0.0268766)
(6.55 0 -0.0271267)
(6.6 0 -0.0273768)
(6.65 0 -0.0276266)
(6.7 0 -0.0278769)
(6.75 0 -0.0281266)
(6.8 0 -0.0283771)
(6.85 0 -0.0286265)
(6.9 0 -0.0288771)
(6.95 0 -0.0291264)
(7 0 -0.0293773)
(7.05 0 -0.0296263)
(7.1 0 -0.0298775)
(7.15 0 -0.030126)
(7.2 0 -0.0303775)
(7.25 0 -0.0306257)
(7.3 0 -0.0308777)
(7.35 0 -0.0311254)
(7.4 0 -0.031378)
(7.45 0 -0.0316249)
(7.5 0 -0.0318781)
(7.55 0 -0.0321244)
(7.6 0 -0.0323784)
(7.65 0 -0.0326239)
(7.7 0 -0.0328787)
(7.75 0 -0.0331233)
(7.8 0 -0.0333789)
(7.85 0 -0.0336226)
(7.9 0 -0.0338793)
(7.95 0 -0.0341219)
(8 0 -0.0343797)
(8.05 0 -0.034621)
(8.1 0 -0.0348799)
(8.15 0 -0.0351201)
(8.2 0 -0.0353802)
(8.25 0 -0.0356193)
(8.3 0 -0.0358805)
(8.35 0 -0.0361182)
(8.4 0 -0.0363807)
(8.45 0 -0.0366173)
(8.5 0 -0.036881)
(8.55 0 -0.0371163)
(8.6 0 -0.0373811)
(8.65 0 -0.0376154)
(8.7 0 -0.0378813)
(8.75 0 -0.0381146)
(8.8 0 -0.0383813)
(8.85 0 -0.0386137)
(8.9 0 -0.0388814)
(8.95 0 -0.039113)
(9 0 -0.0393814)
(9.05 0 -0.0396123)
(9.1 0 -0.0398813)
(9.15 0 -0.0401118)
(9.2 0 -0.0403813)
(9.25 0 -0.0406114)
(9.3 0 -0.0408811)
(9.35 0 -0.041111)
(9.4 0 -0.041381)
(9.45 0 -0.0416108)
(9.5 0 -0.0418808)
(9.55 0 -0.0421106)
(9.6 0 -0.0423806)
(9.65 0 -0.0426106)
(9.7 0 -0.0428804)
(9.75 0 -0.0431108)
(9.8 0 -0.04338)
(9.85 0 -0.043611)
(9.9 0 -0.0438797)
(9.95 0 -0.0441114)
(10 0 -0.0443793)
(10.05 0 -0.0446117)
(10.1 0 -0.0448789)
(10.15 0 -0.0451121)
(10.2 0 -0.0453785)
(10.25 0 -0.0456125)
(10.3 0 -0.045878)
(10.35 0 -0.0461131)
(10.4 0 -0.0463777)
(10.45 0 -0.0466137)
(10.5 0 -0.0468773)
(10.55 0 -0.0471144)
(10.6 0 -0.0473769)
(10.65 0 -0.047615)
(10.7 0 -0.0478765)
(10.75 0 -0.0481157)
(10.8 0 -0.0483762)
(10.85 0 -0.0486163)
(10.9 0 -0.0488759)
(10.95 0 -0.049117)
(11 0 -0.0493756)
(11.05 0 -0.0496177)
(11.1 0 -0.0498753)
(11.15 0 -0.0501184)
(11.2 0 -0.0503752)
(11.25 0 -0.050619)
(11.3 0 -0.0508749)
(11.35 0 -0.0511197)
(11.4 0 -0.0513748)
(11.45 0 -0.0516202)
(11.5 0 -0.0518747)
(11.55 0 -0.0521208)
(11.6 0 -0.0523747)
(11.65 0 -0.0526214)
(11.7 0 -0.0528747)
(11.75 0 -0.0531219)
(11.8 0 -0.0533745)
(11.85 0 -0.0536223)
(11.9 0 -0.0538746)
(11.95 0 -0.0541228)
(12 0 -0.0543746)
(12.05 0 -0.0546232)
(12.1 0 -0.0548747)
(12.15 0 -0.0551236)
(12.2 0 -0.0553747)
(12.25 0 -0.0556239)
(12.3 0 -0.0558748)
(12.35 0 -0.0561241)
(12.4 0 -0.0563749)
(12.45 0 -0.0566244)
(12.5 0 -0.0568751)
(12.55 0 -0.0571246)
(12.6 0 -0.057375)
(12.65 0 -0.0576248)
(12.7 0 -0.0578751)
(12.75 0 -0.0581249)
(12.8 0 -0.0583753)
(12.85 0 -0.058625)
(12.9 0 -0.0588752)
(12.95 0 -0.0591251)
(13 0 -0.0593753)
(13.05 0 -0.0596251)
(13.1 0 -0.0598753)
(13.15 0 -0.0601253)
(13.2 0 -0.0603754)
(13.25 0 -0.0606253)
(13.3 0 -0.0608755)
(13.35 0 -0.0611253)
(13.4 0 -0.0613753)
(13.45 0 -0.0616253)
(13.5 0 -0.0618754)
(13.55 0 -0.0621253)
(13.6 0 -0.0623756)
(13.65 0 -0.0626254)
(13.7 0 -0.0628755)
(13.75 0 -0.0631253)
(13.8 0 -0.0633754)
(13.85 0 -0.0636252)
(13.9 0 -0.0638753)
(13.95 0 -0.0641253)
(14 0 -0.0643756)
(14.05 0 -0.0646251)
(14.1 0 -0.0648753)
(14.15 0 -0.0651253)
(14.2 0 -0.0653747)
(14.25 0 -0.0656261)
(14.3 0 -0.0658711)
(14.35 0 -0.0661256)
(14.4 0 -0.0663766)
(14.45 0 -0.0666263)
(14.5 0 -0.0668769)
(14.55 0 -0.067123)
(14.6 0 -0.0673747)
(14.65 0 -0.0675836)
(14.7 0 -0.0679483)
(14.75 0 -0.068064)
(14.8 0 -0.068567)
(14.85 0 -0.0704873)
(14.9 0 -0.070751)
(14.95 0 -0.0709999)
(15 0 -0.07125)
(0 0.02 0.00375)
(0.05 0.02 0.0035)
(0.1 0.02 0.00325)
(0.15 0.02 0.003)
(0.2 0.02 0.00275)
(0.25 0.02 0.0025)
(0.3 0.02 0.00225)
(0.35 0.02 0.002)
(0.4 0.02 0.00175)
(0.45 0.02 0.0015)
(0.5 0.02 0.00125)
(0.55 0.02 0.001)
(0.6 0.02 0.00075)
(0.65 0.02 0.0005)
(0.7 0.02 0.00025)
(0.75 0.02 1.4456e-19)
(0.8 0.02 -0.00025)
(0.85 0.02 -0.0005)
(0.9 0.02 -0.00075)
(0.95 0.02 -0.001)
(1 0.02 -0.00125)
(1.05 0.02 -0.0015)
(1.1 0.02 -0.00175)
(1.15 0.02 -0.002)
(1.2 0.02 -0.00225)
(1.25 0.02 -0.0025)
(1.3 0.02 -0.00275)
(1.35 0.02 -0.003)
(1.4 0.02 -0.00325)
(1.45 0.02 -0.0035)
(1.5 0.02 -0.00375)
(1.55 0.02 -0.004)
(1.6 0.02 -0.00425)
(1.65 0.02 -0.0045)
(1.7 0.02 -0.00475)
(1.75 0.02 -0.005)
(1.8 0.02 -0.00525)
(1.85 0.02 -0.0055)
(1.9 0.02 -0.00575)
(1.95 0.02 -0.006)
(2 0.02 -0.00625)
(2.05 0.02 -0.0065)
(2.1 0.02 -0.00675)
(2.15 0.02 -0.007)
(2.2 0.02 -0.00725)
(2.25 0.02 -0.0075)
(2.3 0.02 -0.00775)
(2.35 0.02 -0.008)
(2.4 0.02 -0.00825)
(2.45 0.02 -0.0085)
(2.5 0.02 -0.00875)
(2.55 0.02 -0.009)
(2.6 0.02 -0.00925)
(2.65 0.02 -0.0095)
(2.7 0.02 -0.00975)
(2.75 0.02 -0.01)
(2.8 0.02 -0.01025)
(2.85 0.02 -0.0104999)
(2.9 0.02 -0.010751)
(2.95 0.02 -0.0109878)
(3 0.02 -0.0094813)
(3.05 0.02 -0.00870953)
(3.1 0.02 -0.0096148)
(3.15 0.02 -0.0098516)
(3.2 0.02 -0.0101411)
(3.25 0.02 -0.0103984)
(3.3 0.02 -0.0106778)
(3.35 0.02 -0.0109517)
(3.4 0.02 -0.011225)
(3.45 0.02 -0.011495)
(3.5 0.02 -0.011764)
(3.55 0.02 -0.0120317)
(3.6 0.02 -0.0122971)
(3.65 0.02 -0.0125603)
(3.7 0.02 -0.0128218)
(3.75 0.02 -0.0130818)
(3.8 0.02 -0.0133404)
(3.85 0.02 -0.0135976)
(3.9 0.02 -0.0138539)
(3.95 0.02 -0.0141091)
(4 0.02 -0.0143632)
(4.05 0.02 -0.0146167)
(4.1 0.02 -0.0148694)
(4.15 0.02 -0.0151216)
(4.2 0.02 -0.0153733)
(4.25 0.02 -0.0156247)
(4.3 0.02 -0.0158757)
(4.35 0.02 -0.0161264)
(4.4 0.02 -0.0163768)
(4.45 0.02 -0.0166271)
(4.5 0.02 -0.0168773)
(4.55 0.02 -0.0171274)
(4.6 0.02 -0.0173775)
(4.65 0.02 -0.0176275)
(4.7 0.02 -0.0178775)
(4.75 0.02 -0.0181273)
(4.8 0.02 -0.0183772)
(4.85 0.02 -0.0186271)
(4.9 0.02 -0.0188771)
(4.95 0.02 -0.019127)
(5 0.02 -0.019377)
(5.05 0.02 -0.019627)
(5.1 0.02 -0.0198768)
(5.15 0.02 -0.0201268)
(5.2 0.02 -0.0203767)
(5.25 0.02 -0.0206267)
(5.3 0.02 -0.0208767)
(5.35 0.02 -0.0211267)
(5.4 0.02 -0.0213767)
(5.45 0.02 -0.0216266)
(5.5 0.02 -0.0218766)
(5.55 0.02 -0.0221266)
(5.6 0.02 -0.0223766)
(5.65 0.02 -0.0226266)
(5.7 0.02 -0.0228767)
(5.75 0.02 -0.0231267)
(5.8 0.02 -0.0233766)
(5.85 0.02 -0.0236266)
(5.9 0.02 -0.0238766)
(5.95 0.02 -0.0241266)
(6 0.02 -0.0243766)
(6.05 0.02 -0.0246267)
(6.1 0.02 -0.0248767)
(6.15 0.02 -0.0251267)
(6.2 0.02 -0.0253766)
(6.25 0.02 -0.0256267)
(6.3 0.02 -0.0258766)
(6.35 0.02 -0.0261268)
(6.4 0.02 -0.0263767)
(6.45 0.02 -0.0266269)
(6.5 0.02 -0.0268766)
(6.55 0.02 -0.0271267)
(6.6 0.02 -0.0273768)
(6.65 0.02 -0.0276266)
(6.7 0.02 -0.0278769)
(6.75 0.02 -0.0281266)
(6.8 0.02 -0.0283771)
(6.85 0.02 -0.0286265)
(6.9 0.02 -0.0288771)
(6.95 0.02 -0.0291264)
(7 0.02 -0.0293773)
(7.05 0.02 -0.0296263)
(7.1 0.02 -0.0298775)
(7.15 0.02 -0.030126)
(7.2 0.02 -0.0303775)
(7.25 0.02 -0.0306257)
(7.3 0.02 -0.0308777)
(7.35 0.02 -0.0311254)
(7.4 0.02 -0.031378)
(7.45 0.02 -0.0316249)
(7.5 0.02 -0.0318781)
(7.55 0.02 -0.0321244)
(7.6 0.02 -0.0323784)
(7.65 0.02 -0.0326239)
(7.7 0.02 -0.0328787)
(7.75 0.02 -0.0331233)
(7.8 0.02 -0.0333789)
(7.85 0.02 -0.0336226)
(7.9 0.02 -0.0338793)
(7.95 0.02 -0.0341219)
(8 0.02 -0.0343797)
(8.05 0.02 -0.034621)
(8.1 0.02 -0.0348799)
(8.15 0.02 -0.0351201)
(8.2 0.02 -0.0353802)
(8.25 0.02 -0.0356193)
(8.3 0.02 -0.0358805)
(8.35 0.02 -0.0361182)
(8.4 0.02 -0.0363807)
(8.45 0.02 -0.0366173)
(8.5 0.02 -0.036881)
(8.55 0.02 -0.0371163)
(8.6 0.02 -0.0373811)
(8.65 0.02 -0.0376154)
(8.7 0.02 -0.0378813)
(8.75 0.02 -0.0381146)
(8.8 0.02 -0.0383813)
(8.85 0.02 -0.0386137)
(8.9 0.02 -0.0388814)
(8.95 0.02 -0.039113)
(9 0.02 -0.0393814)
(9.05 0.02 -0.0396123)
(9.1 0.02 -0.0398813)
(9.15 0.02 -0.0401118)
(9.2 0.02 -0.0403813)
(9.25 0.02 -0.0406114)
(9.3 0.02 -0.0408811)
(9.35 0.02 -0.041111)
(9.4 0.02 -0.041381)
(9.45 0.02 -0.0416108)
(9.5 0.02 -0.0418808)
(9.55 0.02 -0.0421106)
(9.6 0.02 -0.0423806)
(9.65 0.02 -0.0426106)
(9.7 0.02 -0.0428804)
(9.75 0.02 -0.0431108)
(9.8 0.02 -0.04338)
(9.85 0.02 -0.043611)
(9.9 0.02 -0.0438797)
(9.95 0.02 -0.0441114)
(10 0.02 -0.0443793)
(10.05 0.02 -0.0446117)
(10.1 0.02 -0.0448789)
(10.15 0.02 -0.0451121)
(10.2 0.02 -0.0453785)
(10.25 0.02 -0.0456125)
(10.3 0.02 -0.045878)
(10.35 0.02 -0.0461131)
(10.4 0.02 -0.0463777)
(10.45 0.02 -0.0466137)
(10.5 0.02 -0.0468773)
(10.55 0.02 -0.0471144)
(10.6 0.02 -0.0473769)
(10.65 0.02 -0.047615)
(10.7 0.02 -0.0478765)
(10.75 0.02 -0.0481157)
(10.8 0.02 -0.0483762)
(10.85 0.02 -0.0486163)
(10.9 0.02 -0.0488759)
(10.95 0.02 -0.049117)
(11 0.02 -0.0493756)
(11.05 0.02 -0.0496177)
(11.1 0.02 -0.0498753)
(11.15 0.02 -0.0501184)
(11.2 0.02 -0.0503752)
(11.25 0.02 -0.050619)
(11.3 0.02 -0.0508749)
(11.35 0.02 -0.0511197)
(11.4 0.02 -0.0513748)
(11.45 0.02 -0.0516202)
(11.5 0.02 -0.0518747)
(11.55 0.02 -0.0521208)
(11.6 0.02 -0.0523747)
(11.65 0.02 -0.0526214)
(11.7 0.02 -0.0528747)
(11.75 0.02 -0.0531219)
(11.8 0.02 -0.0533745)
(11.85 0.02 -0.0536223)
(11.9 0.02 -0.0538746)
(11.95 0.02 -0.0541228)
(12 0.02 -0.0543746)
(12.05 0.02 -0.0546232)
(12.1 0.02 -0.0548747)
(12.15 0.02 -0.0551236)
(12.2 0.02 -0.0553747)
(12.25 0.02 -0.0556239)
(12.3 0.02 -0.0558748)
(12.35 0.02 -0.0561241)
(12.4 0.02 -0.0563749)
(12.45 0.02 -0.0566244)
(12.5 0.02 -0.0568751)
(12.55 0.02 -0.0571246)
(12.6 0.02 -0.057375)
(12.65 0.02 -0.0576248)
(12.7 0.02 -0.0578751)
(12.75 0.02 -0.0581249)
(12.8 0.02 -0.0583753)
(12.85 0.02 -0.058625)
(12.9 0.02 -0.0588752)
(12.95 0.02 -0.0591251)
(13 0.02 -0.0593753)
(13.05 0.02 -0.0596251)
(13.1 0.02 -0.0598753)
(13.15 0.02 -0.0601253)
(13.2 0.02 -0.0603754)
(13.25 0.02 -0.0606253)
(13.3 0.02 -0.0608755)
(13.35 0.02 -0.0611253)
(13.4 0.02 -0.0613753)
(13.45 0.02 -0.0616253)
(13.5 0.02 -0.0618754)
(13.55 0.02 -0.0621253)
(13.6 0.02 -0.0623756)
(13.65 0.02 -0.0626254)
(13.7 0.02 -0.0628755)
(13.75 0.02 -0.0631253)
(13.8 0.02 -0.0633754)
(13.85 0.02 -0.0636252)
(13.9 0.02 -0.0638753)
(13.95 0.02 -0.0641253)
(14 0.02 -0.0643756)
(14.05 0.02 -0.0646251)
(14.1 0.02 -0.0648753)
(14.15 0.02 -0.0651253)
(14.2 0.02 -0.0653747)
(14.25 0.02 -0.0656261)
(14.3 0.02 -0.0658711)
(14.35 0.02 -0.0661256)
(14.4 0.02 -0.0663766)
(14.45 0.02 -0.0666263)
(14.5 0.02 -0.0668769)
(14.55 0.02 -0.067123)
(14.6 0.02 -0.0673747)
(14.65 0.02 -0.0675836)
(14.7 0.02 -0.0679483)
(14.75 0.02 -0.068064)
(14.8 0.02 -0.068567)
(14.85 0.02 -0.0704873)
(14.9 0.02 -0.070751)
(14.95 0.02 -0.0709999)
(15 0.02 -0.07125)
(0 0 0.0075)
(0.05 0 0.00725)
(0.1 0 0.007)
(0.15 0 0.00675)
(0.2 0 0.0065)
(0.25 0 0.00625)
(0.3 0 0.006)
(0.35 0 0.00575)
(0.4 0 0.0055)
(0.45 0 0.00525)
(0.5 0 0.005)
(0.55 0 0.00475)
(0.6 0 0.0045)
(0.65 0 0.00425)
(0.7 0 0.004)
(0.75 0 0.00375)
(0.8 0 0.0035)
(0.85 0 0.00325)
(0.9 0 0.003)
(0.95 0 0.00275)
(1 0 0.0025)
(1.05 0 0.00225)
(1.1 0 0.002)
(1.15 0 0.00175)
(1.2 0 0.0015)
(1.25 0 0.00125)
(1.3 0 0.001)
(1.35 0 0.00075)
(1.4 0 0.0005)
(1.45 0 0.00025)
(1.5 0 -5.78241e-19)
(1.55 0 -0.00025)
(1.6 0 -0.0005)
(1.65 0 -0.00075)
(1.7 0 -0.001)
(1.75 0 -0.00125)
(1.8 0 -0.0015)
(1.85 0 -0.00175)
(1.9 0 -0.002)
(1.95 0 -0.00225)
(2 0 -0.0025)
(2.05 0 -0.00275)
(2.1 0 -0.003)
(2.15 0 -0.00325)
(2.2 0 -0.0035)
(2.25 0 -0.00375)
(2.3 0 -0.004)
(2.35 0 -0.00425)
(2.4 0 -0.0045)
(2.45 0 -0.00475)
(2.5 0 -0.005)
(2.55 0 -0.00525)
(2.6 0 -0.0055)
(2.65 0 -0.00575)
(2.7 0 -0.006)
(2.75 0 -0.00625)
(2.8 0 -0.00650002)
(2.85 0 -0.00674979)
(2.9 0 -0.0070025)
(2.95 0 -0.00722002)
(3 0 -0.00576251)
(3.05 0 -0.00501655)
(3.1 0 -0.00588839)
(3.15 0 -0.00613447)
(3.2 0 -0.00642166)
(3.25 0 -0.0066795)
(3.3 0 -0.00695812)
(3.35 0 -0.00723167)
(3.4 0 -0.0075046)
(3.45 0 -0.00777433)
(3.5 0 -0.00804302)
(3.55 0 -0.0083104)
(3.6 0 -0.00857558)
(3.65 0 -0.00883853)
(3.7 0 -0.00909986)
(3.75 0 -0.00935968)
(3.8 0 -0.00961817)
(3.85 0 -0.00987529)
(3.9 0 -0.0101314)
(3.95 0 -0.0103866)
(4 0 -0.0106406)
(4.05 0 -0.010894)
(4.1 0 -0.0111467)
(4.15 0 -0.0113989)
(4.2 0 -0.0116506)
(4.25 0 -0.0119019)
(4.3 0 -0.0121529)
(4.35 0 -0.0124036)
(4.4 0 -0.012654)
(4.45 0 -0.0129043)
(4.5 0 -0.0131544)
(4.55 0 -0.0134046)
(4.6 0 -0.0136546)
(4.65 0 -0.0139047)
(4.7 0 -0.0141547)
(4.75 0 -0.0144045)
(4.8 0 -0.0146544)
(4.85 0 -0.0149043)
(4.9 0 -0.0151543)
(4.95 0 -0.0154042)
(5 0 -0.0156542)
(5.05 0 -0.0159042)
(5.1 0 -0.016154)
(5.15 0 -0.016404)
(5.2 0 -0.0166539)
(5.25 0 -0.0169039)
(5.3 0 -0.0171539)
(5.35 0 -0.0174039)
(5.4 0 -0.0176539)
(5.45 0 -0.0179038)
(5.5 0 -0.0181538)
(5.55 0 -0.0184038)
(5.6 0 -0.0186538)
(5.65 0 -0.0189038)
(5.7 0 -0.0191539)
(5.75 0 -0.0194039)
(5.8 0 -0.0196538)
(5.85 0 -0.0199038)
(5.9 0 -0.0201538)
(5.95 0 -0.0204038)
(6 0 -0.0206538)
(6.05 0 -0.0209039)
(6.1 0 -0.0211539)
(6.15 0 -0.0214039)
(6.2 0 -0.0216538)
(6.25 0 -0.0219039)
(6.3 0 -0.0221538)
(6.35 0 -0.022404)
(6.4 0 -0.0226539)
(6.45 0 -0.0229041)
(6.5 0 -0.0231538)
(6.55 0 -0.0234039)
(6.6 0 -0.023654)
(6.65 0 -0.0239038)
(6.7 0 -0.0241541)
(6.75 0 -0.0244038)
(6.8 0 -0.0246543)
(6.85 0 -0.0249037)
(6.9 0 -0.0251543)
(6.95 0 -0.0254036)
(7 0 -0.0256544)
(7.05 0 -0.0259035)
(7.1 0 -0.0261546)
(7.15 0 -0.0264032)
(7.2 0 -0.0266547)
(7.25 0 -0.0269029)
(7.3 0 -0.0271548)
(7.35 0 -0.0274027)
(7.4 0 -0.0276551)
(7.45 0 -0.0279022)
(7.5 0 -0.0281552)
(7.55 0 -0.0284017)
(7.6 0 -0.0286555)
(7.65 0 -0.0289013)
(7.7 0 -0.0291558)
(7.75 0 -0.0294006)
(7.8 0 -0.029656)
(7.85 0 -0.0299)
(7.9 0 -0.0301563)
(7.95 0 -0.0303993)
(8 0 -0.0306566)
(8.05 0 -0.0308985)
(8.1 0 -0.0311568)
(8.15 0 -0.0313976)
(8.2 0 -0.0316572)
(8.25 0 -0.0318968)
(8.3 0 -0.0321573)
(8.35 0 -0.0323959)
(8.4 0 -0.0326576)
(8.45 0 -0.032895)
(8.5 0 -0.0331578)
(8.55 0 -0.033394)
(8.6 0 -0.0336579)
(8.65 0 -0.0338931)
(8.7 0 -0.0341581)
(8.75 0 -0.0343923)
(8.8 0 -0.0346581)
(8.85 0 -0.0348915)
(8.9 0 -0.0351581)
(8.95 0 -0.0353908)
(9 0 -0.0356582)
(9.05 0 -0.0358902)
(9.1 0 -0.036158)
(9.15 0 -0.0363896)
(9.2 0 -0.036658)
(9.25 0 -0.0368893)
(9.3 0 -0.0371578)
(9.35 0 -0.0373889)
(9.4 0 -0.0376576)
(9.45 0 -0.0378887)
(9.5 0 -0.0381575)
(9.55 0 -0.0383885)
(9.6 0 -0.0386572)
(9.65 0 -0.0388885)
(9.7 0 -0.0391571)
(9.75 0 -0.0393887)
(9.8 0 -0.0396568)
(9.85 0 -0.0398889)
(9.9 0 -0.0401565)
(9.95 0 -0.0403892)
(10 0 -0.0406561)
(10.05 0 -0.0408895)
(10.1 0 -0.0411557)
(10.15 0 -0.0413899)
(10.2 0 -0.0416553)
(10.25 0 -0.0418903)
(10.3 0 -0.0421549)
(10.35 0 -0.0423909)
(10.4 0 -0.0426546)
(10.45 0 -0.0428914)
(10.5 0 -0.0431542)
(10.55 0 -0.043392)
(10.6 0 -0.0436539)
(10.65 0 -0.0438926)
(10.7 0 -0.0441535)
(10.75 0 -0.0443933)
(10.8 0 -0.0446532)
(10.85 0 -0.0448939)
(10.9 0 -0.0451529)
(10.95 0 -0.0453946)
(11 0 -0.0456526)
(11.05 0 -0.0458952)
(11.1 0 -0.0461524)
(11.15 0 -0.0463958)
(11.2 0 -0.0466522)
(11.25 0 -0.0468965)
(11.3 0 -0.047152)
(11.35 0 -0.0473971)
(11.4 0 -0.047652)
(11.45 0 -0.0478976)
(11.5 0 -0.0481518)
(11.55 0 -0.0483982)
(11.6 0 -0.0486519)