/*--------------------------------*- C++ -*----------------------------------*\
| =========                 |                                                 |
| \\      /  F ield         | foam-extend: Open Source CFD                    |
|  \\    /   O peration     | Version:     3.2                                |
|   \\  /    A nd           | Web:         http://www.foam-extend.org         |
|    \\/     M anipulation  | For copyright notice see file Copyright         |
\*---------------------------------------------------------------------------*/
FoamFile
{
    version     2.0;
    format      ascii;
    class       pointVectorField;
    location    "2000";
    object      newPoints;
}
// * * * * * * * * * * * * * * * * * * * * * * * * * * * * * * * * * * * * * //

dimensions      [0 1 0 0 0 0 0];

internalField   nonuniform List<vector> 
602
(
(0 0 0)
(0.05 0 -0.00025)
(0.1 0 -0.0005)
(0.15 0 -0.00075)
(0.2 0 -0.001)
(0.25 0 -0.00125)
(0.3 0 -0.0015)
(0.35 0 -0.00175)
(0.4 0 -0.002)
(0.45 0 -0.00225)
(0.5 0 -0.0025)
(0.55 0 -0.00275)
(0.6 0 -0.003)
(0.65 0 -0.00325)
(0.7 0 -0.0035)
(0.75 0 -0.00375)
(0.8 0 -0.004)
(0.85 0 -0.00425)
(0.9 0 -0.0045)
(0.95 0 -0.00475)
(1 0 -0.005)
(1.05 0 -0.00525)
(1.1 0 -0.0055)
(1.15 0 -0.00575)
(1.2 0 -0.006)
(1.25 0 -0.00625)
(1.3 0 -0.0065)
(1.35 0 -0.00675)
(1.4 0 -0.007)
(1.45 0 -0.00725)
(1.5 0 -0.0075)
(1.55 0 -0.00775)
(1.6 0 -0.008)
(1.65 0 -0.00825)
(1.7 0 -0.0085)
(1.75 0 -0.00875)
(1.8 0 -0.009)
(1.85 0 -0.00925)
(1.9 0 -0.0095)
(1.95 0 -0.00975)
(2 0 -0.01)
(2.05 0 -0.01025)
(2.1 0 -0.0105)
(2.15 0 -0.01075)
(2.2 0 -0.011)
(2.25 0 -0.01125)
(2.3 0 -0.0115)
(2.35 0 -0.01175)
(2.4 0 -0.012)
(2.45 0 -0.01225)
(2.5 0 -0.0125)
(2.55 0 -0.01275)
(2.6 0 -0.013)
(2.65 0 -0.01325)
(2.7 0 -0.0135)
(2.75 0 -0.01375)
(2.8 0 -0.014)
(2.85 0 -0.01425)
(2.9 0 -0.0145)
(2.95 0 -0.01475)
(3 0 -0.0132249)
(3.05 0 -0.0124448)
(3.1 0 -0.0133667)
(3.15 0 -0.0135973)
(3.2 0 -0.0138879)
(3.25 0 -0.0141448)
(3.3 0 -0.0144245)
(3.35 0 -0.0146983)
(3.4 0 -0.0149717)
(3.45 0 -0.0152418)
(3.5 0 -0.0155108)
(3.55 0 -0.0157785)
(3.6 0 -0.016044)
(3.65 0 -0.0163072)
(3.7 0 -0.0165687)
(3.75 0 -0.0168287)
(3.8 0 -0.0170873)
(3.85 0 -0.0173446)
(3.9 0 -0.0176008)
(3.95 0 -0.017856)
(4 0 -0.0181102)
(4.05 0 -0.0183636)
(4.1 0 -0.0186164)
(4.15 0 -0.0188686)
(4.2 0 -0.0191203)
(4.25 0 -0.0193716)
(4.3 0 -0.0196226)
(4.35 0 -0.0198734)
(4.4 0 -0.0201237)
(4.45 0 -0.0203741)
(4.5 0 -0.0206242)
(4.55 0 -0.0208744)
(4.6 0 -0.0211244)
(4.65 0 -0.0213745)
(4.7 0 -0.0216245)
(4.75 0 -0.0218743)
(4.8 0 -0.0221242)
(4.85 0 -0.0223741)
(4.9 0 -0.022624)
(4.95 0 -0.022874)
(5 0 -0.023124)
(5.05 0 -0.023374)
(5.1 0 -0.0236238)
(5.15 0 -0.0238737)
(5.2 0 -0.0241236)
(5.25 0 -0.0243736)
(5.3 0 -0.0246236)
(5.35 0 -0.0248737)
(5.4 0 -0.0251237)
(5.45 0 -0.0253736)
(5.5 0 -0.0256235)
(5.55 0 -0.0258735)
(5.6 0 -0.0261235)
(5.65 0 -0.0263736)
(5.7 0 -0.0266236)
(5.75 0 -0.0268737)
(5.8 0 -0.0271236)
(5.85 0 -0.0273736)
(5.9 0 -0.0276235)
(5.95 0 -0.0278736)
(6 0 -0.0281236)
(6.05 0 -0.0283737)
(6.1 0 -0.0286237)
(6.15 0 -0.0288737)
(6.2 0 -0.0291236)
(6.25 0 -0.0293736)
(6.3 0 -0.0296236)
(6.35 0 -0.0298737)
(6.4 0 -0.0301237)
(6.45 0 -0.0303739)
(6.5 0 -0.0306236)
(6.55 0 -0.0308737)
(6.6 0 -0.0311237)
(6.65 0 -0.0313736)
(6.7 0 -0.0316239)
(6.75 0 -0.0318736)
(6.8 0 -0.0321241)
(6.85 0 -0.0323735)
(6.9 0 -0.0326241)
(6.95 0 -0.0328733)
(7 0 -0.0331242)
(7.05 0 -0.0333732)
(7.1 0 -0.0336245)
(7.15 0 -0.0338729)
(7.2 0 -0.0341245)
(7.25 0 -0.0343726)
(7.3 0 -0.0346247)
(7.35 0 -0.0348723)
(7.4 0 -0.035125)
(7.45 0 -0.0353718)
(7.5 0 -0.0356251)
(7.55 0 -0.0358713)
(7.6 0 -0.0361254)
(7.65 0 -0.0363708)
(7.7 0 -0.0366258)
(7.75 0 -0.0368701)
(7.8 0 -0.037126)
(7.85 0 -0.0373694)
(7.9 0 -0.0376263)
(7.95 0 -0.0378687)
(8 0 -0.0381268)
(8.05 0 -0.0383678)
(8.1 0 -0.038627)
(8.15 0 -0.0388669)
(8.2 0 -0.0391274)
(8.25 0 -0.0393661)
(8.3 0 -0.0396276)
(8.35 0 -0.039865)
(8.4 0 -0.0401279)
(8.45 0 -0.0403641)
(8.5 0 -0.0406282)
(8.55 0 -0.040863)
(8.6 0 -0.0411283)
(8.65 0 -0.0413621)
(8.7 0 -0.0416285)
(8.75 0 -0.0418613)
(8.8 0 -0.0421286)
(8.85 0 -0.0423604)
(8.9 0 -0.0426286)
(8.95 0 -0.0428597)
(9 0 -0.0431287)
(9.05 0 -0.043359)
(9.1 0 -0.0436286)
(9.15 0 -0.0438584)
(9.2 0 -0.0441285)
(9.25 0 -0.044358)
(9.3 0 -0.0446284)
(9.35 0 -0.0448576)
(9.4 0 -0.0451282)
(9.45 0 -0.0453574)
(9.5 0 -0.0456281)
(9.55 0 -0.0458573)
(9.6 0 -0.0461278)
(9.65 0 -0.0463573)
(9.7 0 -0.0466276)
(9.75 0 -0.0468575)
(9.8 0 -0.0471273)
(9.85 0 -0.0473577)
(9.9 0 -0.047627)
(9.95 0 -0.047858)
(10 0 -0.0481265)
(10.05 0 -0.0483583)
(10.1 0 -0.0486261)
(10.15 0 -0.0488588)
(10.2 0 -0.0491257)
(10.25 0 -0.0493592)
(10.3 0 -0.0496252)
(10.35 0 -0.0498599)
(10.4 0 -0.0501249)
(10.45 0 -0.0503604)
(10.5 0 -0.0506244)
(10.55 0 -0.0508611)
(10.6 0 -0.0511241)
(10.65 0 -0.0513617)
(10.7 0 -0.0516236)
(10.75 0 -0.0518625)
(10.8 0 -0.0521233)
(10.85 0 -0.0523631)
(10.9 0 -0.052623)
(10.95 0 -0.0528638)
(11 0 -0.0531227)
(11.05 0 -0.0533645)
(11.1 0 -0.0536224)
(11.15 0 -0.0538652)
(11.2 0 -0.0541222)
(11.25 0 -0.0543659)
(11.3 0 -0.054622)
(11.35 0 -0.0548665)
(11.4 0 -0.0551219)
(11.45 0 -0.0553671)
(11.5 0 -0.0556217)
(11.55 0 -0.0558677)
(11.6 0 -0.0561218)
(11.65 0 -0.0563683)
(11.7 0 -0.0566217)
(11.75 0 -0.0568688)
(11.8 0 -0.0571215)
(11.85 0 -0.0573692)
(11.9 0 -0.0576215)
(11.95 0 -0.0578697)
(12 0 -0.0581216)
(12.05 0 -0.0583701)
(12.1 0 -0.0586217)
(12.15 0 -0.0588706)
(12.2 0 -0.0591217)
(12.25 0 -0.0593708)
(12.3 0 -0.0596218)
(12.35 0 -0.0598711)
(12.4 0 -0.0601219)
(12.45 0 -0.0603714)
(12.5 0 -0.0606221)
(12.55 0 -0.0608715)
(12.6 0 -0.061122)
(12.65 0 -0.0613717)
(12.7 0 -0.061622)
(12.75 0 -0.0618719)
(12.8 0 -0.0621222)
(12.85 0 -0.062372)
(12.9 0 -0.0626222)
(12.95 0 -0.062872)
(13 0 -0.0631223)
(13.05 0 -0.0633721)
(13.1 0 -0.0636223)
(13.15 0 -0.0638722)
(13.2 0 -0.0641224)
(13.25 0 -0.0643723)
(13.3 0 -0.0646224)
(13.35 0 -0.0648722)
(13.4 0 -0.0651223)
(13.45 0 -0.0653722)
(13.5 0 -0.0656224)
(13.55 0 -0.0658723)
(13.6 0 -0.0661225)
(13.65 0 -0.0663724)
(13.7 0 -0.0666225)
(13.75 0 -0.0668723)
(13.8 0 -0.0671224)
(13.85 0 -0.0673722)
(13.9 0 -0.0676223)
(13.95 0 -0.0678722)
(14 0 -0.0681225)
(14.05 0 -0.0683721)
(14.1 0 -0.0686223)
(14.15 0 -0.0688723)
(14.2 0 -0.0691216)
(14.25 0 -0.0693731)
(14.3 0 -0.069618)
(14.35 0 -0.0698726)
(14.4 0 -0.0701236)
(14.45 0 -0.0703733)
(14.5 0 -0.0706239)
(14.55 0 -0.0708699)
(14.6 0 -0.0711221)
(14.65 0 -0.0713294)
(14.7 0 -0.0716972)
(14.75 0 -0.071809)
(14.8 0 -0.0723062)
(14.85 0 -0.07425)
(14.9 0 -0.0745)
(14.95 0 -0.07475)
(15 0 -0.075)
(0 0.02 0)
(0.05 0.02 -0.00025)
(0.1 0.02 -0.0005)
(0.15 0.02 -0.00075)
(0.2 0.02 -0.001)
(0.25 0.02 -0.00125)
(0.3 0.02 -0.0015)
(0.35 0.02 -0.00175)
(0.4 0.02 -0.002)
(0.45 0.02 -0.00225)
(0.5 0.02 -0.0025)
(0.55 0.02 -0.00275)
(0.6 0.02 -0.003)
(0.65 0.02 -0.00325)
(0.7 0.02 -0.0035)
(0.75 0.02 -0.00375)
(0.8 0.02 -0.004)
(0.85 0.02 -0.00425)
(0.9 0.02 -0.0045)
(0.95 0.02 -0.00475)
(1 0.02 -0.005)
(1.05 0.02 -0.00525)
(1.1 0.02 -0.0055)
(1.15 0.02 -0.00575)
(1.2 0.02 -0.006)
(1.25 0.02 -0.00625)
(1.3 0.02 -0.0065)
(1.35 0.02 -0.00675)
(1.4 0.02 -0.007)
(1.45 0.02 -0.00725)
(1.5 0.02 -0.0075)
(1.55 0.02 -0.00775)
(1.6 0.02 -0.008)
(1.65 0.02 -0.00825)
(1.7 0.02 -0.0085)
(1.75 0.02 -0.00875)
(1.8 0.02 -0.009)
(1.85 0.02 -0.00925)
(1.9 0.02 -0.0095)
(1.95 0.02 -0.00975)
(2 0.02 -0.01)
(2.05 0.02 -0.01025)
(2.1 0.02 -0.0105)
(2.15 0.02 -0.01075)
(2.2 0.02 -0.011)
(2.25 0.02 -0.01125)
(2.3 0.02 -0.0115)
(2.35 0.02 -0.01175)
(2.4 0.02 -0.012)
(2.45 0.02 -0.01225)
(2.5 0.02 -0.0125)
(2.55 0.02 -0.01275)
(2.6 0.02 -0.013)
(2.65 0.02 -0.01325)
(2.7 0.02 -0.0135)
(2.75 0.02 -0.01375)
(2.8 0.02 -0.014)
(2.85 0.02 -0.01425)
(2.9 0.02 -0.0145)
(2.95 0.02 -0.01475)
(3 0.02 -0.0132249)
(3.05 0.02 -0.0124448)
(3.1 0.02 -0.0133667)
(3.15 0.02 -0.0135973)
(3.2 0.02 -0.0138879)
(3.25 0.02 -0.0141448)
(3.3 0.02 -0.0144245)
(3.35 0.02 -0.0146983)
(3.4 0.02 -0.0149717)
(3.45 0.02 -0.0152418)
(3.5 0.02 -0.0155108)
(3.55 0.02 -0.0157785)
(3.6 0.02 -0.016044)
(3.65 0.02 -0.0163072)
(3.7 0.02 -0.0165687)
(3.75 0.02 -0.0168287)
(3.8 0.02 -0.0170873)
(3.85 0.02 -0.0173446)
(3.9 0.02 -0.0176008)
(3.95 0.02 -0.017856)
(4 0.02 -0.0181102)
(4.05 0.02 -0.0183636)
(4.1 0.02 -0.0186164)
(4.15 0.02 -0.0188686)
(4.2 0.02 -0.0191203)
(4.25 0.02 -0.0193716)
(4.3 0.02 -0.0196226)
(4.35 0.02 -0.0198734)
(4.4 0.02 -0.0201237)
(4.45 0.02 -0.0203741)
(4.5 0.02 -0.0206242)
(4.55 0.02 -0.0208744)
(4.6 0.02 -0.0211244)
(4.65 0.02 -0.0213745)
(4.7 0.02 -0.0216245)
(4.75 0.02 -0.0218743)
(4.8 0.02 -0.0221242)
(4.85 0.02 -0.0223741)
(4.9 0.02 -0.022624)
(4.95 0.02 -0.022874)
(5 0.02 -0.023124)
(5.05 0.02 -0.023374)
(5.1 0.02 -0.0236238)
(5.15 0.02 -0.0238737)
(5.2 0.02 -0.0241236)
(5.25 0.02 -0.0243736)
(5.3 0.02 -0.0246236)
(5.35 0.02 -0.0248737)
(5.4 0.02 -0.0251237)
(5.45 0.02 -0.0253736)
(5.5 0.02 -0.0256235)
(5.55 0.02 -0.0258735)
(5.6 0.02 -0.0261235)
(5.65 0.02 -0.0263736)
(5.7 0.02 -0.0266236)
(5.75 0.02 -0.0268737)
(5.8 0.02 -0.0271236)
(5.85 0.02 -0.0273736)
(5.9 0.02 -0.0276235)
(5.95 0.02 -0.0278736)
(6 0.02 -0.0281236)
(6.05 0.02 -0.0283737)
(6.1 0.02 -0.0286237)
(6.15 0.02 -0.0288737)
(6.2 0.02 -0.0291236)
(6.25 0.02 -0.0293736)
(6.3 0.02 -0.0296236)
(6.35 0.02 -0.0298737)
(6.4 0.02 -0.0301237)
(6.45 0.02 -0.0303739)
(6.5 0.02 -0.0306236)
(6.55 0.02 -0.0308737)
(6.6 0.02 -0.0311237)
(6.65 0.02 -0.0313736)
(6.7 0.02 -0.0316239)
(6.75 0.02 -0.0318736)
(6.8 0.02 -0.0321241)
(6.85 0.02 -0.0323735)
(6.9 0.02 -0.0326241)
(6.95 0.02 -0.0328733)
(7 0.02 -0.0331242)
(7.05 0.02 -0.0333732)
(7.1 0.02 -0.0336245)
(7.15 0.02 -0.0338729)
(7.2 0.02 -0.0341245)
(7.25 0.02 -0.0343726)
(7.3 0.02 -0.0346247)
(7.35 0.02 -0.0348723)
(7.4 0.02 -0.035125)
(7.45 0.02 -0.0353718)
(7.5 0.02 -0.0356251)
(7.55 0.02 -0.0358713)
(7.6 0.02 -0.0361254)
(7.65 0.02 -0.0363708)
(7.7 0.02 -0.0366258)
(7.75 0.02 -0.0368701)
(7.8 0.02 -0.037126)
(7.85 0.02 -0.0373694)
(7.9 0.02 -0.0376263)
(7.95 0.02 -0.0378687)
(8 0.02 -0.0381268)
(8.05 0.02 -0.0383678)
(8.1 0.02 -0.038627)
(8.15 0.02 -0.0388669)
(8.2 0.02 -0.0391274)
(8.25 0.02 -0.0393661)
(8.3 0.02 -0.0396276)
(8.35 0.02 -0.039865)
(8.4 0.02 -0.0401279)
(8.45 0.02 -0.0403641)
(8.5 0.02 -0.0406282)
(8.55 0.02 -0.040863)
(8.6 0.02 -0.0411283)
(8.65 0.02 -0.0413621)
(8.7 0.02 -0.0416285)
(8.75 0.02 -0.0418613)
(8.8 0.02 -0.0421286)
(8.85 0.02 -0.0423604)
(8.9 0.02 -0.0426286)
(8.95 0.02 -0.0428597)
(9 0.02 -0.0431287)
(9.05 0.02 -0.043359)
(9.1 0.02 -0.0436286)
(9.15 0.02 -0.0438584)
(9.2 0.02 -0.0441285)
(9.25 0.02 -0.044358)
(9.3 0.02 -0.0446284)
(9.35 0.02 -0.0448576)
(9.4 0.02 -0.0451282)
(9.45 0.02 -0.0453574)
(9.5 0.02 -0.0456281)
(9.55 0.02 -0.0458573)
(9.6 0.02 -0.0461278)
(9.65 0.02 -0.0463573)
(9.7 0.02 -0.0466276)
(9.75 0.02 -0.0468575)
(9.8 0.02 -0.0471273)
(9.85 0.02 -0.0473577)
(9.9 0.02 -0.047627)
(9.95 0.02 -0.047858)
(10 0.02 -0.0481265)
(10.05 0.02 -0.0483583)
(10.1 0.02 -0.0486261)
(10.15 0.02 -0.0488588)
(10.2 0.02 -0.0491257)
(10.25 0.02 -0.0493592)
(10.3 0.02 -0.0496252)
(10.35 0.02 -0.0498599)
(10.4 0.02 -0.0501249)
(10.45 0.02 -0.0503604)
(10.5 0.02 -0.0506244)
(10.55 0.02 -0.0508611)
(10.6 0.02 -0.0511241)
(10.65 0.02 -0.0513617)
(10.7 0.02 -0.0516236)
(10.75 0.02 -0.0518625)
(10.8 0.02 -0.0521233)
(10.85 0.02 -0.0523631)
(10.9 0.02 -0.052623)
(10.95 0.02 -0.0528638)
(11 0.02 -0.0531227)
(11.05 0.02 -0.0533645)
(11.1 0.02 -0.0536224)
(11.15 0.02 -0.0538652)
(11.2 0.02 -0.0541222)
(11.25 0.02 -0.0543659)
(11.3 0.02 -0.054622)
(11.35 0.02 -0.0548665)
(11.4 0.02 -0.0551219)
(11.45 0.02 -0.0553671)
(11.5 0.02 -0.0556217)
(11.55 0.02 -0.0558677)
(11.6 0.02 -0.0561218)
(11.65 0.02 -0.0563683)
(11.7 0.02 -0.0566217)
(11.75 0.02 -0.0568688)
(11.8 0.02 -0.0571215)
(11.85 0.02 -0.0573692)
(11.9 0.02 -0.0576215)
(11.95 0.02 -0.0578697)
(12 0.02 -0.0581216)
(12.05 0.02 -0.0583701)
(12.1 0.02 -0.0586217)
(12.15 0.02 -0.0588706)
(12.2 0.02 -0.0591217)
(12.25 0.02 -0.0593708)
(12.3 0.02 -0.0596218)
(12.35 0.02 -0.0598711)
(12.4 0.02 -0.0601219)
(12.45 0.02 -0.0603714)
(12.5 0.02 -0.0606221)
(12.55 0.02 -0.0608715)
(12.6 0.02 -0.061122)
(12.65 0.02 -0.0613717)
(12.7 0.02 -0.061622)
(12.75 0.02 -0.0618719)
(12.8 0.02 -0.0621222)
(12.85 0.02 -0.062372)
(12.9 0.02 -0.0626222)
(12.95 0.02 -0.062872)
(13 0.02 -0.0631223)
(13.05 0.02 -0.0633721)
(13.1 0.02 -0.0636223)
(13.15 0.02 -0.0638722)
(13.2 0.02 -0.0641224)
(13.25 0.02 -0.0643723)
(13.3 0.02 -0.0646224)
(13.35 0.02 -0.0648722)
(13.4 0.02 -0.0651223)
(13.45 0.02 -0.0653722)
(13.5 0.02 -0.0656224)
(13.55 0.02 -0.0658723)
(13.6 0.02 -0.0661225)
(13.65 0.02 -0.0663724)
(13.7 0.02 -0.0666225)
(13.75 0.02 -0.0668723)
(13.8 0.02 -0.0671224)
(13.85 0.02 -0.0673722)
(13.9 0.02 -0.0676223)
(13.95 0.02 -0.0678722)
(14 0.02 -0.0681225)
(14.05 0.02 -0.0683721)
(14.1 0.02 -0.0686223)
(14.15 0.02 -0.0688723)
(14.2 0.02 -0.0691216)
(14.25 0.02 -0.0693731)
(14.3 0.02 -0.069618)
(14.35 0.02 -0.0698726)
(14.4 0.02 -0.0701236)
(14.45 0.02 -0.0703733)
(14.5 0.02 -0.0706239)
(14.55 0.02 -0.0708699)
(14.6 0.02 -0.0711221)
(14.65 0.02 -0.0713294)
(14.7 0.02 -0.0716972)
(14.75 0.02 -0.071809)
(14.8 0.02 -0.0723062)
(14.85 0.02 -0.07425)
(14.9 0.02 -0.0745)
(14.95 0.02 -0.07475)
(15 0.02 -0.075)
)
;

boundaryField
{
    inlet
    {
        type            zeroGradient;
    }
    outlet
    {
        type            zeroGradient;
    }
    sideWall
    {
        type            empty;
    }
    bed
    {
        type            zeroGradient;
    }
    topWall
    {
        type            zeroGradient;
    }
}


// ************************************************************************* //
