/*--------------------------------*- C++ -*----------------------------------*\
| =========                 |                                                 |
| \\      /  F ield         | foam-extend: Open Source CFD                    |
|  \\    /   O peration     | Version:     3.2                                |
|   \\  /    A nd           | Web:         http://www.foam-extend.org         |
|    \\/     M anipulation  | For copyright notice see file Copyright         |
\*---------------------------------------------------------------------------*/
FoamFile
{
    version     2.0;
    format      ascii;
    class       volScalarField;
    location    "2000";
    object      nut;
}
// * * * * * * * * * * * * * * * * * * * * * * * * * * * * * * * * * * * * * //

dimensions      [0 2 -1 0 0 0 0];

internalField   nonuniform List<scalar> 
2400
(
2.51208e-05
2.78663e-05
2.18758e-05
1.82674e-05
1.70611e-05
1.65587e-05
1.64506e-05
1.67558e-05
1.72053e-05
1.76586e-05
1.80555e-05
1.84023e-05
1.86762e-05
1.89458e-05
1.91629e-05
1.93616e-05
1.95504e-05
1.97151e-05
1.98644e-05
2.00023e-05
2.01268e-05
2.02465e-05
2.03737e-05
2.0509e-05
2.06402e-05
2.07593e-05
2.0865e-05
2.09549e-05
2.10305e-05
2.10924e-05
2.11434e-05
2.11844e-05
2.12167e-05
2.12411e-05
2.12594e-05
2.12732e-05
2.12844e-05
2.12927e-05
2.12998e-05
2.13052e-05
2.13101e-05
2.13137e-05
2.13171e-05
2.13196e-05
2.13221e-05
2.13238e-05
2.13258e-05
2.13267e-05
2.13284e-05
2.13292e-05
2.13276e-05
2.1335e-05
2.13225e-05
2.13504e-05
2.12933e-05
2.14146e-05
2.11565e-05
2.16838e-05
2.00069e-05
2.36627e-05
2.77e-05
2.48814e-05
2.18926e-05
2.2507e-05
2.23172e-05
2.25171e-05
2.26266e-05
2.27552e-05
2.28624e-05
2.29517e-05
2.30166e-05
2.30716e-05
2.31177e-05
2.31557e-05
2.31857e-05
2.32093e-05
2.32284e-05
2.32438e-05
2.32541e-05
2.3263e-05
2.32693e-05
2.32739e-05
2.32773e-05
2.32793e-05
2.32805e-05
2.32813e-05
2.3281e-05
2.32814e-05
2.32813e-05
2.32807e-05
2.32801e-05
2.32795e-05
2.32787e-05
2.3278e-05
2.32781e-05
2.32777e-05
2.32773e-05
2.3277e-05
2.32764e-05
2.32765e-05
2.32755e-05
2.32758e-05
2.32761e-05
2.32758e-05
2.32757e-05
2.32755e-05
2.32755e-05
2.3275e-05
2.32754e-05
2.32758e-05
2.32756e-05
2.32756e-05
2.32754e-05
2.32754e-05
2.3275e-05
2.32753e-05
2.32757e-05
2.32756e-05
2.32755e-05
2.32754e-05
2.32752e-05
2.32752e-05
2.32751e-05
2.32761e-05
2.3275e-05
2.32758e-05
2.3275e-05
2.32754e-05
2.3275e-05
2.3275e-05
2.3276e-05
2.32745e-05
2.32776e-05
2.32726e-05
2.32782e-05
2.32712e-05
2.32785e-05
2.32711e-05
2.32799e-05
2.32694e-05
2.32811e-05
2.32676e-05
2.3282e-05
2.32668e-05
2.32835e-05
2.32645e-05
2.3285e-05
2.32621e-05
2.32862e-05
2.32607e-05
2.3288e-05
2.32579e-05
2.32896e-05
2.32551e-05
2.32908e-05
2.32534e-05
2.32924e-05
2.32504e-05
2.32937e-05
2.32476e-05
2.32944e-05
2.32463e-05
2.32952e-05
2.3244e-05
2.32954e-05
2.32418e-05
2.32965e-05
2.32403e-05
2.3296e-05
2.32389e-05
2.32949e-05
2.32392e-05
2.32936e-05
2.32387e-05
2.32919e-05
2.32385e-05
2.3291e-05
2.32389e-05
2.3289e-05
2.3239e-05
2.32873e-05
2.32403e-05
2.32857e-05
2.32408e-05
2.32837e-05
2.32417e-05
2.32827e-05
2.3243e-05
2.32806e-05
2.32442e-05
2.32784e-05
2.32467e-05
2.32765e-05
2.32484e-05
2.32742e-05
2.32503e-05
2.32731e-05
2.32526e-05
2.32713e-05
2.32546e-05
2.32707e-05
2.32568e-05
2.32692e-05
2.32588e-05
2.3269e-05
2.32609e-05
2.32681e-05
2.32626e-05
2.32675e-05
2.32649e-05
2.32673e-05
2.32663e-05
2.32672e-05
2.32684e-05
2.32674e-05
2.32694e-05
2.32677e-05
2.32711e-05
2.32681e-05
2.32716e-05
2.32688e-05
2.32729e-05
2.32698e-05
2.32731e-05
2.32707e-05
2.32741e-05
2.32711e-05
2.32741e-05
2.32718e-05
2.32756e-05
2.32723e-05
2.32756e-05
2.3273e-05
2.32756e-05
2.32739e-05
2.32759e-05
2.32746e-05
2.32766e-05
2.32749e-05
2.32767e-05
2.32755e-05
2.32767e-05
2.32752e-05
2.32765e-05
2.32758e-05
2.32769e-05
2.32764e-05
2.32773e-05
2.32763e-05
2.32765e-05
2.32759e-05
2.32766e-05
2.3276e-05
2.32768e-05
2.32765e-05
2.32767e-05
2.32765e-05
2.32764e-05
2.32758e-05
2.32759e-05
2.3276e-05
2.32766e-05
2.32763e-05
2.32764e-05
2.32767e-05
2.32753e-05
2.32758e-05
2.32757e-05
2.32761e-05
2.32759e-05
2.32765e-05
2.32765e-05
2.32758e-05
2.32753e-05
2.32757e-05
2.32751e-05
2.32756e-05
2.32765e-05
2.32767e-05
2.32762e-05
2.32751e-05
2.32771e-05
2.32719e-05
2.32862e-05
2.32637e-05
2.32796e-05
2.32867e-05
2.32618e-05
2.32784e-05
2.32465e-05
2.33066e-05
2.31381e-05
2.34423e-05
2.33495e-05
2.26859e-05
2.56767e-05
1.97049e-05
1.80694e-05
2.02773e-05
2.07841e-05
1.71318e-05
1.98967e-05
2.67965e-05
3.01679e-05
3.26251e-05
3.50422e-05
3.72134e-05
3.90434e-05
4.06447e-05
4.20189e-05
4.31758e-05
4.41713e-05
4.50185e-05
4.57858e-05
4.64268e-05
4.70188e-05
4.75563e-05
4.80347e-05
4.84754e-05
4.88846e-05
4.92587e-05
4.9608e-05
4.99349e-05
5.02311e-05
5.04856e-05
5.06962e-05
5.08659e-05
5.0998e-05
5.10989e-05
5.11735e-05
5.12281e-05
5.12663e-05
5.12923e-05
5.13086e-05
5.13188e-05
5.1324e-05
5.13272e-05
5.1328e-05
5.13288e-05
5.13282e-05
5.13284e-05
5.13274e-05
5.13275e-05
5.13264e-05
5.13265e-05
5.13253e-05
5.13257e-05
5.13243e-05
5.1325e-05
5.13235e-05
5.13221e-05
5.13258e-05
5.13177e-05
5.13342e-05
5.12993e-05
5.1372e-05
5.12114e-05
5.14629e-05
5.04557e-05
5.29281e-05
5.40406e-05
5.1383e-05
5.09087e-05
5.23309e-05
5.27196e-05
5.33024e-05
5.37333e-05
5.40783e-05
5.43519e-05
5.45589e-05
5.47142e-05
5.48345e-05
5.49254e-05
5.49922e-05
5.50401e-05
5.50732e-05
5.50956e-05
5.5109e-05
5.51157e-05
5.5118e-05
5.51168e-05
5.5113e-05
5.51082e-05
5.51023e-05
5.50962e-05
5.50903e-05
5.50841e-05
5.50791e-05
5.50742e-05
5.50697e-05
5.50659e-05
5.50627e-05
5.50597e-05
5.50575e-05
5.5056e-05
5.50542e-05
5.5053e-05
5.5052e-05
5.50512e-05
5.50508e-05
5.50499e-05
5.505e-05
5.50498e-05
5.50495e-05
5.50494e-05
5.50494e-05
5.50494e-05
5.50491e-05
5.50495e-05
5.50496e-05
5.50495e-05
5.50496e-05
5.50495e-05
5.50495e-05
5.50493e-05
5.50497e-05
5.50498e-05
5.50497e-05
5.50497e-05
5.50496e-05
5.50495e-05
5.50496e-05
5.50495e-05
5.50502e-05
5.50492e-05
5.50499e-05
5.50491e-05
5.50496e-05
5.50492e-05
5.50493e-05
5.50498e-05
5.50488e-05
5.50512e-05
5.50468e-05
5.5052e-05
5.50454e-05
5.50523e-05
5.50449e-05
5.50531e-05
5.50429e-05
5.50539e-05
5.50408e-05
5.50546e-05
5.50393e-05
5.50554e-05
5.50364e-05
5.50564e-05
5.50333e-05
5.50571e-05
5.50309e-05
5.50579e-05
5.5027e-05
5.50588e-05
5.50231e-05
5.50593e-05
5.50199e-05
5.50598e-05
5.50153e-05
5.50601e-05
5.50109e-05
5.506e-05
5.50075e-05
5.50595e-05
5.50031e-05
5.50588e-05
5.49991e-05
5.50587e-05
5.49952e-05
5.50572e-05
5.49917e-05
5.50554e-05
5.49896e-05
5.50531e-05
5.49871e-05
5.50508e-05
5.49853e-05
5.50493e-05
5.49839e-05
5.50466e-05
5.49831e-05
5.50441e-05
5.49837e-05
5.50415e-05
5.49839e-05
5.5039e-05
5.49848e-05
5.50376e-05
5.4986e-05
5.50352e-05
5.49877e-05
5.50331e-05
5.49907e-05
5.50309e-05
5.49932e-05
5.5029e-05
5.49964e-05
5.50283e-05
5.49996e-05
5.5027e-05
5.50032e-05
5.50271e-05
5.50066e-05
5.50265e-05
5.50104e-05
5.50272e-05
5.50139e-05
5.50274e-05
5.50175e-05
5.50281e-05
5.50216e-05
5.50289e-05
5.50247e-05
5.50302e-05
5.50285e-05
5.50317e-05
5.50313e-05
5.50334e-05
5.50344e-05
5.5035e-05
5.50364e-05
5.50373e-05
5.5039e-05
5.50394e-05
5.50405e-05
5.50419e-05
5.50423e-05
5.50429e-05
5.50436e-05
5.50448e-05
5.5046e-05
5.50458e-05
5.50475e-05
5.50472e-05
5.50487e-05
5.50481e-05
5.50498e-05
5.50494e-05
5.50511e-05
5.50504e-05
5.5052e-05
5.50513e-05
5.50521e-05
5.50513e-05
5.50523e-05
5.50519e-05
5.50528e-05
5.50526e-05
5.50532e-05
5.50524e-05
5.50524e-05
5.50519e-05
5.50522e-05
5.50517e-05
5.50523e-05
5.5052e-05
5.50521e-05
5.50519e-05
5.50516e-05
5.50508e-05
5.50509e-05
5.50508e-05
5.50513e-05
5.5051e-05
5.50512e-05
5.50513e-05
5.50499e-05
5.50504e-05
5.505e-05
5.50502e-05
5.505e-05
5.50506e-05
5.50505e-05
5.50501e-05
5.50497e-05
5.50501e-05
5.50492e-05
5.50494e-05
5.505e-05
5.505e-05
5.50498e-05
5.50492e-05
5.50507e-05
5.50476e-05
5.50579e-05
5.50381e-05
5.50532e-05
5.50523e-05
5.50379e-05
5.50514e-05
5.50299e-05
5.50685e-05
5.4935e-05
5.51904e-05
5.4989e-05
5.45528e-05
5.42132e-05
5.00817e-05
5.1131e-05
5.31735e-05
5.29604e-05
1.81525e-05
1.56262e-05
1.85313e-05
2.32008e-05
2.87092e-05
3.4431e-05
3.90758e-05
4.36159e-05
4.774e-05
5.1415e-05
5.47205e-05
5.76413e-05
6.02544e-05
6.25214e-05
6.42517e-05
6.57656e-05
6.71349e-05
6.83756e-05
6.95124e-05
7.05509e-05
7.14998e-05
7.23445e-05
7.30732e-05
7.3681e-05
7.41736e-05
7.45647e-05
7.48688e-05
7.51024e-05
7.52791e-05
7.54123e-05
7.5512e-05
7.55853e-05
7.5638e-05
7.56756e-05
7.57038e-05
7.57264e-05
7.57451e-05
7.57608e-05
7.5774e-05
7.57851e-05
7.57945e-05
7.58023e-05
7.58091e-05
7.58145e-05
7.58195e-05
7.58233e-05
7.58271e-05
7.58297e-05
7.58326e-05
7.5834e-05
7.58359e-05
7.58363e-05
7.58395e-05
7.58371e-05
7.58466e-05
7.58275e-05
7.5847e-05
7.53546e-05
7.45739e-05
7.81026e-05
7.70415e-05
7.31682e-05
7.45543e-05
7.56287e-05
7.66854e-05
7.74667e-05
7.81477e-05
7.86957e-05
7.91377e-05
7.94864e-05
7.9762e-05
7.99789e-05
8.01464e-05
8.02726e-05
8.03657e-05
8.04332e-05
8.04795e-05
8.05105e-05
8.05292e-05
8.05391e-05
8.05425e-05
8.05414e-05
8.05374e-05
8.05315e-05
8.05246e-05
8.05173e-05
8.05102e-05
8.05033e-05
8.04967e-05
8.0491e-05
8.04857e-05
8.04814e-05
8.04774e-05
8.04743e-05
8.04719e-05
8.04696e-05
8.04678e-05
8.04664e-05
8.04653e-05
8.04644e-05
8.04639e-05
8.04635e-05
8.04631e-05
8.04629e-05
8.04626e-05
8.04627e-05
8.04625e-05
8.04627e-05
8.04629e-05
8.04629e-05
8.04629e-05
8.04629e-05
8.04629e-05
8.04628e-05
8.0463e-05
8.04632e-05
8.04632e-05
8.04632e-05
8.04631e-05
8.04631e-05
8.0463e-05
8.04632e-05
8.04634e-05
8.04633e-05
8.04631e-05
8.0463e-05
8.04627e-05
8.04628e-05
8.04625e-05
8.0463e-05
8.04626e-05
8.04629e-05
8.04626e-05
8.04626e-05
8.04621e-05
8.04621e-05
8.04618e-05
8.04616e-05
8.0461e-05
8.04606e-05
8.04598e-05
8.04595e-05
8.04589e-05
8.04582e-05
8.04574e-05
8.04564e-05
8.04554e-05
8.04544e-05
8.04537e-05
8.04521e-05
8.04513e-05
8.04492e-05
8.04484e-05
8.0446e-05
8.04456e-05
8.04425e-05
8.04422e-05
8.04383e-05
8.04383e-05
8.0434e-05
8.04346e-05
8.04292e-05
8.04303e-05
8.04239e-05
8.04258e-05
8.04193e-05
8.04217e-05
8.04137e-05
8.04169e-05
8.04082e-05
8.04125e-05
8.04029e-05
8.04081e-05
8.03975e-05
8.0404e-05
8.03934e-05
8.04007e-05
8.03888e-05
8.03975e-05
8.03845e-05
8.03954e-05
8.03809e-05
8.03936e-05
8.03777e-05
8.03923e-05
8.03761e-05
8.03919e-05
8.03743e-05
8.03916e-05
8.03731e-05
8.03922e-05
8.03726e-05
8.0393e-05
8.03727e-05
8.03944e-05
8.03743e-05
8.03966e-05
8.03759e-05
8.03989e-05
8.0379e-05
8.0402e-05
8.03817e-05
8.04051e-05
8.03859e-05
8.04088e-05
8.03897e-05
8.04124e-05
8.03939e-05
8.04166e-05
8.03986e-05
8.04204e-05
8.04034e-05
8.04248e-05
8.04086e-05
8.04287e-05
8.04137e-05
8.0433e-05
8.04185e-05
8.04367e-05
8.04232e-05
8.04407e-05
8.04282e-05
8.04441e-05
8.04328e-05
8.04477e-05
8.04367e-05
8.04501e-05
8.04404e-05
8.0453e-05
8.04444e-05
8.04553e-05
8.04481e-05
8.04579e-05
8.0451e-05
8.04599e-05
8.04544e-05
8.04618e-05
8.04571e-05
8.04632e-05
8.046e-05
8.04646e-05
8.04612e-05
8.0465e-05
8.04625e-05
8.04655e-05
8.04638e-05
8.04663e-05
8.04649e-05
8.04663e-05
8.04647e-05
8.04659e-05
8.04642e-05
8.04652e-05
8.04648e-05
8.04654e-05
8.04651e-05
8.04656e-05
8.04646e-05
8.04644e-05
8.04634e-05
8.04638e-05
8.04634e-05
8.0464e-05
8.04639e-05
8.04639e-05
8.04637e-05
8.04634e-05
8.04624e-05
8.04622e-05
8.04621e-05
8.04629e-05
8.04627e-05
8.04633e-05
8.04633e-05
8.04627e-05
8.04616e-05
8.04616e-05
8.04612e-05
8.04616e-05
8.04618e-05
8.04637e-05
8.0463e-05
8.04636e-05
8.04598e-05
8.04635e-05
8.04662e-05
8.04461e-05
8.04519e-05
8.04555e-05
8.0462e-05
8.04492e-05
8.05149e-05
8.04485e-05
8.00981e-05
8.05303e-05
7.68805e-05
7.27198e-05
7.64597e-05
7.7386e-05
7.77406e-05
3.38689e-05
2.02647e-05
1.75238e-05
1.78074e-05
2.03858e-05
2.45503e-05
2.98542e-05
3.5616e-05
4.01649e-05
4.49898e-05
4.98637e-05
5.44764e-05
5.88099e-05
6.28519e-05
6.66894e-05
7.01227e-05
7.31532e-05
7.5946e-05
7.84704e-05
8.08397e-05
8.29955e-05
8.4709e-05
8.61705e-05
8.74262e-05
8.84858e-05
8.93717e-05
9.01086e-05
9.0721e-05
9.12291e-05
9.16522e-05
9.2004e-05
9.22951e-05
9.25354e-05
9.27348e-05
9.29036e-05
9.3048e-05
9.31722e-05
9.32787e-05
9.33702e-05
9.34484e-05
9.35156e-05
9.35728e-05
9.36222e-05
9.36639e-05
9.37005e-05
9.37308e-05
9.37579e-05
9.37799e-05
9.37999e-05
9.38153e-05
9.38295e-05
9.38406e-05
9.3853e-05
9.38587e-05
9.38753e-05
9.38637e-05
9.38917e-05
9.34202e-05
9.24543e-05
9.65322e-05
9.50604e-05
9.08684e-05
9.13545e-05
9.2089e-05
9.30497e-05
9.38926e-05
9.47323e-05
9.54585e-05
9.60937e-05
9.66296e-05
9.70777e-05
9.74492e-05
9.77526e-05
9.79954e-05
9.8187e-05
9.83364e-05
9.84505e-05
9.85361e-05
9.85991e-05
9.86439e-05
9.86744e-05
9.86941e-05
9.8706e-05
9.87121e-05
9.87141e-05
9.87131e-05
9.87104e-05
9.87066e-05
9.87021e-05
9.86974e-05
9.86927e-05
9.86885e-05
9.86844e-05
9.86812e-05
9.86784e-05
9.86757e-05
9.86736e-05
9.86718e-05
9.86704e-05
9.86692e-05
9.86685e-05
9.8668e-05
9.86674e-05
9.86671e-05
9.86667e-05
9.86667e-05
9.86665e-05
9.86666e-05
9.86668e-05
9.86669e-05
9.86669e-05
9.86669e-05
9.86669e-05
9.86669e-05
9.86671e-05
9.86673e-05
9.86674e-05
9.86674e-05
9.86674e-05
9.86674e-05
9.86673e-05
9.86674e-05
9.86677e-05
9.86676e-05
9.86675e-05
9.86674e-05
9.86671e-05
9.86671e-05
9.86669e-05
9.86673e-05
9.8667e-05
9.86672e-05
9.86671e-05
9.86668e-05
9.86665e-05
9.86662e-05
9.86661e-05
9.86656e-05
9.86653e-05
9.86643e-05
9.8664e-05
9.8663e-05
9.86628e-05
9.86614e-05
9.8661e-05
9.8659e-05
9.86586e-05
9.86564e-05
9.86563e-05
9.86535e-05
9.86532e-05
9.86496e-05
9.86495e-05
9.86455e-05
9.86458e-05
9.86409e-05
9.86412e-05
9.86353e-05
9.86359e-05
9.86295e-05
9.86307e-05
9.86233e-05
9.86247e-05
9.86162e-05
9.86184e-05
9.86096e-05
9.86123e-05
9.86021e-05
9.86053e-05
9.85945e-05
9.85988e-05
9.85871e-05
9.8592e-05
9.85795e-05
9.85855e-05
9.85732e-05
9.858e-05
9.85666e-05
9.85744e-05
9.85605e-05
9.85701e-05
9.85554e-05
9.85662e-05
9.85507e-05
9.8563e-05
9.85478e-05
9.85611e-05
9.8545e-05
9.85593e-05
9.85431e-05
9.85589e-05
9.85423e-05
9.85588e-05
9.85419e-05
9.85595e-05
9.85435e-05
9.85617e-05
9.85453e-05
9.85641e-05
9.85488e-05
9.85678e-05
9.85522e-05
9.85715e-05
9.85573e-05
9.85763e-05
9.85622e-05
9.85809e-05
9.85677e-05
9.85865e-05
9.85739e-05
9.8592e-05
9.85802e-05
9.85981e-05
9.8587e-05
9.86039e-05
9.85936e-05
9.86102e-05
9.86004e-05
9.86159e-05
9.86067e-05
9.86221e-05
9.86134e-05
9.86276e-05
9.86195e-05
9.86334e-05
9.86254e-05
9.86379e-05
9.86308e-05
9.86427e-05
9.86364e-05
9.86466e-05
9.86414e-05
9.86508e-05
9.8646e-05
9.86543e-05
9.86507e-05
9.86577e-05
9.86546e-05
9.86604e-05
9.86585e-05
9.86631e-05
9.8661e-05
9.86647e-05
9.86632e-05
9.86661e-05
9.86649e-05
9.86675e-05
9.86668e-05
9.86684e-05
9.86675e-05
9.86688e-05
9.86675e-05
9.86682e-05
9.86679e-05
9.86684e-05
9.86684e-05
9.86692e-05
9.86687e-05
9.86685e-05
9.86675e-05
9.86675e-05
9.86668e-05
9.86673e-05
9.86675e-05
9.8668e-05
9.86681e-05
9.86678e-05
9.86666e-05
9.86658e-05
9.86652e-05
9.86659e-05
9.86662e-05
9.86672e-05
9.86679e-05
9.86672e-05
9.86657e-05
9.8665e-05
9.86639e-05
9.86643e-05
9.86651e-05
9.86675e-05
9.8668e-05
9.8668e-05
9.86645e-05
9.86669e-05
9.8669e-05
9.86502e-05
9.86527e-05
9.86555e-05
9.86618e-05
9.86546e-05
9.87082e-05
9.86581e-05
9.83269e-05
9.86658e-05
9.52584e-05
9.16e-05
9.35626e-05
9.45817e-05
9.5211e-05
8.35914e-05
4.16023e-05
2.84615e-05
2.31627e-05
2.08945e-05
2.05601e-05
2.23474e-05
2.56237e-05
3.00137e-05
3.5295e-05
3.98463e-05
4.41392e-05
4.86532e-05
5.33459e-05
5.80898e-05
6.27106e-05
6.71247e-05
7.13664e-05
7.55622e-05
7.97122e-05
8.38586e-05
8.79817e-05
9.10017e-05
9.32288e-05
9.51777e-05
9.68854e-05
9.83825e-05
9.96944e-05
0.00010084
0.000101837
0.000102701
0.000103445
0.000104083
0.00010463
0.000105104
0.000105514
0.000105868
0.000106173
0.000106436
0.000106661
0.000106855
0.000107021
0.000107164
0.000107286
0.000107392
0.000107481
0.000107559
0.000107625
0.000107682
0.00010773
0.000107771
0.000107806
0.000107838
0.000107862
0.000107893
0.000107898
0.000107943
0.000107577
0.000108824
0.00011043
0.000108849
0.000105217
0.000104997
0.000105211
0.000105821
0.000106511
0.000107308
0.000108087
0.000108824
0.000109476
0.000110044
0.000110531
0.000110944
0.000111288
0.000111569
0.000111798
0.00011198
0.000112125
0.000112238
0.000112324
0.00011239
0.000112438
0.000112473
0.000112498
0.000112515
0.000112526
0.000112532
0.000112536
0.000112538
0.000112537
0.000112536
0.000112535
0.000112533
0.000112531
0.00011253
0.000112528
0.000112527
0.000112525
0.000112524
0.000112523
0.000112523
0.000112523
0.000112522
0.000112522
0.000112522
0.000112522
0.000112522
0.000112522
0.000112522
0.000112522
0.000112523
0.000112523
0.000112523
0.000112523
0.000112523
0.000112523
0.000112523
0.000112523
0.000112523
0.000112523
0.000112523
0.000112523
0.000112524
0.000112524
0.000112524
0.000112524
0.000112523
0.000112523
0.000112523
0.000112523
0.000112523
0.000112523
0.000112523
0.000112523
0.000112523
0.000112522
0.000112522
0.000112522
0.000112522
0.00011252
0.00011252
0.000112519
0.000112519
0.000112517
0.000112517
0.000112514
0.000112514
0.000112512
0.000112512
0.000112508
0.000112508
0.000112504
0.000112504
0.000112499
0.0001125
0.000112494
0.000112494
0.000112487
0.000112488
0.000112481
0.000112482
0.000112473
0.000112475
0.000112465
0.000112467
0.000112457
0.00011246
0.000112448
0.000112451
0.000112438
0.000112443
0.000112429
0.000112434
0.00011242
0.000112426
0.000112411
0.000112419
0.000112403
0.000112411
0.000112395
0.000112405
0.000112388
0.000112399
0.000112382
0.000112394
0.000112378
0.00011239
0.000112374
0.000112387
0.000112371
0.000112385
0.000112369
0.000112384
0.000112368
0.000112384
0.000112369
0.000112386
0.000112371
0.000112388
0.000112374
0.000112392
0.000112378
0.000112395
0.000112383
0.000112401
0.000112389
0.000112406
0.000112395
0.000112412
0.000112402
0.000112419
0.00011241
0.000112426
0.000112418
0.000112433
0.000112426
0.000112441
0.000112434
0.000112448
0.000112442
0.000112455
0.00011245
0.000112463
0.000112458
0.00011247
0.000112465
0.000112476
0.000112472
0.000112483
0.000112479
0.000112488
0.000112485
0.000112494
0.000112492
0.000112499
0.000112497
0.000112504
0.000112502
0.000112508
0.000112507
0.000112512
0.000112511
0.000112515
0.000112514
0.000112517
0.000112516
0.000112519
0.000112519
0.000112521
0.000112521
0.000112522
0.000112521
0.000112522
0.000112522
0.000112522
0.000112523
0.000112524
0.000112524
0.000112524
0.000112523
0.000112523
0.000112522
0.000112522
0.000112523
0.000112523
0.000112524
0.000112523
0.000112522
0.000112521
0.00011252
0.000112521
0.000112521
0.000112523
0.000112524
0.000112523
0.000112521
0.00011252
0.000112518
0.000112519
0.00011252
0.000112523
0.000112524
0.000112524
0.00011252
0.000112521
0.000112523
0.000112508
0.000112508
0.000112509
0.000112515
0.000112511
0.000112551
0.000112516
0.000112243
0.000112469
0.000109742
0.000106024
0.000107144
0.000107888
0.000108471
0.000100549
9.56696e-05
6.41373e-05
4.59687e-05
3.56552e-05
2.95443e-05
2.62658e-05
2.47059e-05
2.50373e-05
2.70151e-05
3.01979e-05
3.42974e-05
3.91098e-05
4.37183e-05
4.77864e-05
5.21908e-05
5.6979e-05
6.21798e-05
6.77583e-05
7.36219e-05
8.00092e-05
8.45239e-05
8.8478e-05
9.20242e-05
9.5229e-05
9.81398e-05
0.000100775
0.00010314
0.000105239
0.000107088
0.000108704
0.000110108
0.000111323
0.000112376
0.000113289
0.000114079
0.000114762
0.000115351
0.000115858
0.000116294
0.00011667
0.000116992
0.000117269
0.000117506
0.000117711
0.000117885
0.000118036
0.000118164
0.000118274
0.000118369
0.000118449
0.000118517
0.000118578
0.000118627
0.000118681
0.00011871
0.000118782
0.000118554
0.000119431
0.000120717
0.000119191
0.000116552
0.000116
0.000115828
0.000116064
0.000116474
0.000117055
0.00011773
0.000118444
0.000119123
0.000119747
0.000120303
0.000120787
0.0001212
0.000121546
0.000121834
0.00012207
0.000122261
0.000122414
0.000122537
0.000122632
0.000122707
0.000122764
0.000122807
0.00012284
0.000122864
0.000122881
0.000122894
0.000122902
0.000122908
0.000122912
0.000122915
0.000122916
0.000122917
0.000122918
0.000122918
0.000122918
0.000122918
0.000122918
0.000122918
0.000122919
0.000122919
0.000122919
0.000122919
0.00012292
0.00012292
0.00012292
0.00012292
0.000122921
0.000122921
0.000122921
0.000122922
0.000122922
0.000122922
0.000122922
0.000122922
0.000122923
0.000122923
0.000122923
0.000122923
0.000122923
0.000122923
0.000122923
0.000122923
0.000122923
0.000122923
0.000122923
0.000122923
0.000122923
0.000122923
0.000122923
0.000122923
0.000122923
0.000122922
0.000122922
0.000122922
0.000122922
0.000122921
0.000122921
0.00012292
0.00012292
0.000122919
0.000122918
0.000122917
0.000122917
0.000122914
0.000122914
0.000122911
0.000122911
0.000122908
0.000122907
0.000122903
0.000122903
0.000122898
0.000122898
0.000122893
0.000122892
0.000122886
0.000122886
0.000122879
0.000122879
0.000122871
0.000122871
0.000122862
0.000122862
0.000122852
0.000122854
0.000122843
0.000122844
0.000122832
0.000122834
0.000122822
0.000122825
0.000122811
0.000122815
0.000122801
0.000122805
0.000122792
0.000122796
0.000122782
0.000122788
0.000122774
0.000122781
0.000122766
0.000122774
0.00012276
0.000122769
0.000122755
0.000122765
0.000122751
0.000122762
0.000122748
0.000122759
0.000122747
0.000122758
0.000122747
0.000122759
0.000122748
0.000122761
0.000122751
0.000122764
0.000122754
0.000122768
0.000122759
0.000122773
0.000122765
0.000122779
0.000122772
0.000122785
0.000122779
0.000122792
0.000122787
0.0001228
0.000122796
0.000122808
0.000122805
0.000122817
0.000122814
0.000122825
0.000122823
0.000122834
0.000122832
0.000122843
0.000122841
0.000122851
0.00012285
0.000122859
0.000122858
0.000122867
0.000122866
0.000122873
0.000122873
0.00012288
0.000122881
0.000122887
0.000122887
0.000122893
0.000122893
0.000122898
0.000122899
0.000122903
0.000122904
0.000122907
0.000122908
0.000122911
0.000122911
0.000122913
0.000122914
0.000122916
0.000122917
0.000122918
0.000122918
0.000122919
0.000122919
0.00012292
0.00012292
0.000122921
0.000122922
0.000122922
0.000122921
0.000122921
0.00012292
0.00012292
0.000122921
0.000122921
0.000122922
0.000122922
0.000122921
0.000122919
0.000122918
0.000122919
0.00012292
0.000122921
0.000122922
0.000122921
0.00012292
0.000122918
0.000122916
0.000122917
0.000122918
0.00012292
0.000122922
0.000122921
0.000122919
0.000122919
0.00012292
0.000122909
0.000122908
0.000122908
0.000122912
0.000122911
0.000122938
0.000122915
0.000122714
0.000122837
0.000120886
0.000117679
0.000118024
0.000118344
0.000118694
0.000104036
0.000110925
0.0001262
9.0176e-05
6.92485e-05
5.56972e-05
4.43438e-05
3.67712e-05
3.18478e-05
2.91103e-05
2.82044e-05
2.8866e-05
3.08616e-05
3.38993e-05
3.77337e-05
4.21183e-05
4.69026e-05
5.19735e-05
5.72822e-05
6.28195e-05
6.85688e-05
7.43503e-05
8.00576e-05
8.55541e-05
9.06845e-05
9.5331e-05
9.94545e-05
0.000103085
0.00010627
0.000109057
0.000111485
0.000113593
0.000115417
0.000116996
0.000118364
0.000119547
0.000120568
0.000121449
0.000122207
0.00012286
0.000123421
0.000123904
0.000124318
0.000124673
0.000124979
0.00012524
0.000125465
0.000125657
0.000125823
0.000125964
0.000126084
0.000126187
0.000126277
0.000126352
0.000126433
0.000126483
0.000126597
0.000126491
0.000127038
0.000127836
0.000126689
0.000124776
0.000124025
0.000123583
0.000123545
0.000123721
0.000124107
0.000124643
0.000125271
0.000125914
0.000126535
0.000127107
0.000127619
0.000128063
0.000128443
0.000128762
0.000129027
0.000129245
0.000129423
0.000129567
0.000129682
0.000129773
0.000129845
0.000129901
0.000129945
0.000129978
0.000130004
0.000130024
0.000130039
0.00013005
0.000130058
0.000130065
0.000130069
0.000130073
0.000130076
0.000130078
0.00013008
0.000130081
0.000130083
0.000130084
0.000130085
0.000130086
0.000130087
0.000130087
0.000130088
0.000130088
0.000130089
0.00013009
0.00013009
0.000130091
0.000130091
0.000130091
0.000130092
0.000130092
0.000130092
0.000130092
0.000130093
0.000130093
0.000130093
0.000130093
0.000130093
0.000130093
0.000130093
0.000130094
0.000130094
0.000130094
0.000130093
0.000130093
0.000130093
0.000130093
0.000130093
0.000130093
0.000130093
0.000130093
0.000130093
0.000130093
0.000130092
0.000130092
0.000130092
0.000130091
0.000130091
0.00013009
0.000130089
0.000130088
0.000130087
0.000130086
0.000130085
0.000130083
0.000130082
0.000130079
0.000130078
0.000130075
0.000130073
0.00013007
0.000130068
0.000130064
0.000130062
0.000130058
0.000130056
0.00013005
0.000130048
0.000130042
0.00013004
0.000130033
0.000130031
0.000130024
0.000130021
0.000130014
0.000130011
0.000130003
0.000130001
0.000129992
0.00012999
0.000129981
0.000129979
0.00012997
0.000129968
0.000129959
0.000129958
0.000129949
0.000129949
0.00012994
0.00012994
0.000129931
0.000129932
0.000129924
0.000129926
0.000129918
0.000129921
0.000129913
0.000129916
0.00012991
0.000129913
0.000129907
0.000129912
0.000129906
0.000129912
0.000129907
0.000129913
0.000129909
0.000129915
0.000129912
0.000129919
0.000129916
0.000129924
0.000129922
0.00012993
0.000129929
0.000129937
0.000129936
0.000129944
0.000129944
0.000129952
0.000129953
0.000129961
0.000129962
0.00012997
0.000129972
0.000129979
0.000129981
0.000129989
0.000129991
0.000129998
0.00013
0.000130007
0.00013001
0.000130016
0.000130018
0.000130025
0.000130027
0.000130033
0.000130035
0.000130041
0.000130043
0.000130048
0.00013005
0.000130055
0.000130057
0.000130061
0.000130063
0.000130067
0.000130069
0.000130072
0.000130074
0.000130076
0.000130077
0.000130079
0.000130081
0.000130083
0.000130084
0.000130086
0.000130086
0.000130087
0.000130087
0.000130088
0.000130088
0.000130089
0.00013009
0.000130091
0.00013009
0.00013009
0.000130089
0.000130089
0.00013009
0.00013009
0.000130091
0.000130091
0.00013009
0.000130089
0.000130088
0.000130088
0.000130089
0.00013009
0.000130091
0.000130091
0.000130089
0.000130088
0.000130086
0.000130086
0.000130087
0.000130088
0.00013009
0.00013009
0.000130088
0.000130088
0.000130088
0.000130082
0.00013008
0.000130079
0.000130083
0.000130081
0.000130101
0.000130086
0.000129956
0.000130006
0.000128759
0.000126516
0.000126258
0.000126102
0.000126157
9.61066e-05
0.000108571
0.000138798
0.000132874
0.000102448
8.27902e-05
6.6745e-05
5.54314e-05
4.73912e-05
4.12531e-05
3.6354e-05
3.3366e-05
3.2144e-05
3.24479e-05
3.38696e-05
3.64042e-05
3.99708e-05
4.44886e-05
4.97234e-05
5.54475e-05
6.15553e-05
6.79176e-05
7.4395e-05
8.08027e-05
8.68904e-05
9.25168e-05
9.7583e-05
0.00010207
0.000106009
0.000109443
0.000112429
0.000115013
0.000117243
0.000119167
0.000120832
0.000122271
0.000123513
0.000124583
0.000125505
0.000126297
0.000126979
0.000127564
0.000128067
0.000128499
0.000128869
0.000129187
0.000129459
0.000129693
0.000129893
0.000130064
0.000130211
0.000130336
0.000130445
0.000130536
0.000130642
0.000130697
0.000130871
0.000130813
0.000131202
0.000131629
0.000130742
0.000129197
0.00012828
0.00012765
0.000127468
0.000127508
0.000127796
0.000128256
0.000128827
0.00012944
0.00013005
0.000130622
0.000131139
0.000131592
0.000131983
0.000132314
0.00013259
0.000132818
0.000133006
0.000133158
0.000133281
0.000133379
0.000133458
0.00013352
0.000133569
0.000133607
0.000133637
0.000133661
0.000133679
0.000133693
0.000133704
0.000133712
0.000133719
0.000133724
0.000133728
0.000133732
0.000133735
0.000133737
0.000133739
0.000133741
0.000133742
0.000133744
0.000133745
0.000133746
0.000133747
0.000133748
0.000133748
0.000133749
0.00013375
0.00013375
0.000133751
0.000133751
0.000133752
0.000133752
0.000133752
0.000133753
0.000133753
0.000133753
0.000133753
0.000133753
0.000133753
0.000133754
0.000133754
0.000133754
0.000133754
0.000133754
0.000133754
0.000133754
0.000133754
0.000133754
0.000133754
0.000133754
0.000133754
0.000133754
0.000133753
0.000133753
0.000133753
0.000133753
0.000133752
0.000133752
0.000133751
0.000133751
0.00013375
0.000133749
0.000133748
0.000133747
0.000133745
0.000133744
0.000133742
0.000133741
0.000133739
0.000133737
0.000133734
0.000133732
0.000133729
0.000133727
0.000133723
0.00013372
0.000133716
0.000133713
0.000133709
0.000133705
0.0001337
0.000133696
0.000133691
0.000133687
0.000133681
0.000133677
0.000133671
0.000133666
0.00013366
0.000133655
0.000133649
0.000133644
0.000133638
0.000133633
0.000133627
0.000133622
0.000133616
0.000133611
0.000133606
0.000133602
0.000133597
0.000133593
0.000133588
0.000133585
0.000133581
0.000133578
0.000133575
0.000133573
0.000133571
0.000133569
0.000133567
0.000133566
0.000133565
0.000133564
0.000133564
0.000133564
0.000133565
0.000133566
0.000133567
0.000133569
0.000133571
0.000133573
0.000133576
0.000133578
0.000133581
0.000133584
0.000133588
0.000133591
0.000133596
0.000133599
0.000133604
0.000133608
0.000133613
0.000133617
0.000133622
0.000133626
0.000133632
0.000133636
0.000133641
0.000133646
0.000133651
0.000133655
0.00013366
0.000133665
0.00013367
0.000133674
0.000133679
0.000133683
0.000133687
0.000133691
0.000133695
0.000133699
0.000133703
0.000133707
0.000133711
0.000133714
0.000133717
0.00013372
0.000133723
0.000133726
0.000133729
0.000133731
0.000133734
0.000133735
0.000133737
0.000133739
0.000133741
0.000133743
0.000133744
0.000133745
0.000133746
0.000133746
0.000133747
0.000133747
0.000133748
0.000133749
0.00013375
0.00013375
0.00013375
0.000133749
0.000133749
0.000133749
0.00013375
0.00013375
0.000133751
0.00013375
0.00013375
0.000133748
0.000133748
0.000133748
0.000133749
0.00013375
0.00013375
0.000133749
0.000133748
0.000133747
0.000133746
0.000133747
0.000133747
0.000133748
0.000133749
0.000133748
0.000133748
0.000133747
0.000133743
0.000133742
0.00013374
0.000133744
0.000133741
0.00013376
0.000133748
0.00013367
0.0001337
0.000132896
0.00013164
0.000130972
0.000130428
0.000130289
)
;

boundaryField
{
    inlet
    {
        type            calculated;
        value           nonuniform List<scalar> 8(1.71823e-06 1.12954e-05 3.23579e-05 7.56976e-05 9.80449e-05 9.62474e-05 0.000101114 9.3563e-05);
    }
    outlet
    {
        type            calculated;
        value           nonuniform List<scalar> 8(2.30992e-05 5.41928e-05 7.77406e-05 9.5211e-05 0.000108471 0.000118694 0.000126157 0.000130289);
    }
    sideWall
    {
        type            empty;
    }
    bed
    {
        type            nutRoughWallFunction;
        Cmu             0.09;
        kappa           0.41;