/*--------------------------------*- C++ -*----------------------------------*\
| =========                 |                                                 |
| \\      /  F ield         | foam-extend: Open Source CFD                    |
|  \\    /   O peration     | Version:     3.2                                |
|   \\  /    A nd           | Web:         http://www.foam-extend.org         |
|    \\/     M anipulation  | For copyright notice see file Copyright         |
\*---------------------------------------------------------------------------*/
FoamFile
{
    version     2.0;
    format      ascii;
    class       volScalarField;
    location    "2000";
    object      omega;
}
// * * * * * * * * * * * * * * * * * * * * * * * * * * * * * * * * * * * * * //

dimensions      [0 0 -1 0 0 0 0];

internalField   nonuniform List<scalar> 
2400
(
145.259
160.409
147.762
136.046
128.85
125.761
124.542
124.391
124.595
125.011
125.51
126.016
126.505
127.018
127.509
128.005
128.527
129.047
129.577
130.108
130.639
131.168
131.711
132.266
132.801
133.291
133.733
134.12
134.455
134.742
134.987
135.196
135.37
135.512
135.626
135.721
135.799
135.865
135.92
135.967
136.007
136.041
136.069
136.095
136.115
136.134
136.148
136.163
136.172
136.186
136.186
136.209
136.183
136.253
136.119
136.412
135.785
136.988
132.406
140.83
160.425
156.389
148.353
148.582
147.799
147.834
147.711
147.717
147.721
147.75
147.758
147.771
147.789
147.808
147.825
147.838
147.849
147.859
147.864
147.87
147.875
147.878
147.88
147.882
147.883
147.884
147.883
147.884
147.886
147.886
147.886
147.886
147.886
147.885
147.886
147.887
147.887
147.887
147.886
147.887
147.885
147.886
147.887
147.887
147.887
147.887
147.887
147.886
147.886
147.888
147.887
147.888
147.887
147.887
147.886
147.886
147.887
147.887
147.887
147.887
147.886
147.886
147.886
147.888
147.886
147.888
147.886
147.887
147.885
147.885
147.888
147.885
147.89
147.882
147.89
147.879
147.89
147.879
147.893
147.876
147.895
147.873
147.897
147.871
147.9
147.868
147.903
147.863
147.906
147.86
147.91
147.855
147.914
147.849
147.917
147.846
147.923
147.84
147.927
147.833
147.93
147.83
147.935
147.825
147.938
147.819
147.943
147.816
147.947
147.811
147.949
147.81
147.951
147.807
147.952
147.805
147.954
147.805
147.954
147.805
147.953
147.807
147.952
147.809
147.949
147.81
147.949
147.813
147.946
147.816
147.942
147.821
147.939
147.825
147.934
147.829
147.932
147.835
147.927
147.84
147.925
147.846
147.921
147.851
147.92
147.857
147.917
147.861
147.913
147.867
147.911
147.871
147.909
147.876
147.908
147.88
147.905
147.884
147.905
147.887
147.903
147.891
147.902
147.892
147.901
147.895
147.901
147.896
147.9
147.898
147.899
147.898
147.898
147.9
147.898
147.9
147.899
147.901
147.898
147.9
147.898
147.9
147.897
147.899
147.898
147.898
147.897
147.898
147.897
147.897
147.896
147.897
147.896
147.896
147.896
147.895
147.895
147.895
147.895
147.894
147.894
147.895
147.894
147.894
147.894
147.893
147.894
147.894
147.894
147.893
147.893
147.893
147.893
147.892
147.894
147.893
147.894
147.894
147.894
147.893
147.892
147.898
147.887
147.911
147.869
147.908
147.926
147.865
147.896
147.831
147.955
147.647
148.281
148.065
146.56
153.236
137.02
128.084
133.082
134.149
48.2402
65.7655
64.2457
62.7179
61.0881
59.4843
58.038
56.8018
55.7929
55.0075
54.4155
53.9621
53.6254
53.3811
53.2421
53.1577
53.1254
53.1384
53.1882
53.2651
53.3649
53.4748
53.5842
53.6916
53.7975
53.8978
53.9904
54.0745
54.1495
54.2155
54.2729
54.3236
54.3677
54.4058
54.4372
54.4634
54.4852
54.504
54.5197
54.5335
54.5448
54.555
54.5632
54.5707
54.5765
54.5822
54.5862
54.5905
54.5932
54.5968
54.5988
54.6015
54.6018
54.606
54.6015
54.6178
54.6061
54.8777
54.5203
52.7097
55.7725
61.7035
61.1719
60.6679
60.4161
60.2499
60.086
59.9521
59.8386
59.7479
59.672
59.6074
59.5528
59.5078
59.4703
59.4391
59.4127
59.3914
59.3732
59.3583
59.3463
59.3369
59.3293
59.3234
59.3188
59.3154
59.3129
59.3109
59.31
59.3094
59.3092
59.3091
59.3093
59.3093
59.3091
59.3097
59.3101
59.3106
59.311
59.3112
59.3115
59.3113
59.3117
59.312
59.3123
59.3124
59.3126
59.3125
59.3122
59.3124
59.3126
59.3127
59.3128
59.3128
59.3127
59.3124
59.3125
59.3126
59.3127
59.3127
59.3128
59.3125
59.3123
59.3122
59.3127
59.3124
59.3128
59.3125
59.3127
59.312
59.3124
59.3124
59.312
59.3132
59.3118
59.3136
59.3112
59.3137
59.311
59.3146
59.3108
59.3154
59.3103
59.3163
59.3101
59.3178
59.3099
59.3193
59.3093
59.3208
59.3092
59.3231
59.309
59.3254
59.3084
59.3276
59.3083
59.3306
59.3082
59.3336
59.3078
59.3364
59.3079
59.3399
59.3081
59.3429
59.308
59.3466
59.3086
59.3501
59.3088
59.3531
59.3096
59.3564
59.3104
59.3588
59.311
59.3616
59.3121
59.3638
59.3129
59.3653
59.3142
59.3669
59.3153
59.3676
59.316
59.3686
59.3173
59.3689
59.318
59.3685
59.3191
59.3682
59.3201
59.3668
59.3206
59.3658
59.3214
59.3639
59.3219
59.3626
59.3228
59.3604
59.3232
59.3586
59.3239
59.3564
59.324
59.354
59.3245
59.3518
59.3244
59.3491
59.3247
59.3467
59.3244
59.3445
59.3247
59.3426
59.3241
59.34
59.3238
59.3379
59.3231
59.3362
59.3233
59.3347
59.3225
59.332
59.3222
59.3297
59.3215
59.3281
59.3216
59.327
59.3212
59.3251
59.3204
59.323
59.3198
59.3228
59.3198
59.3221
59.3194
59.3205
59.3182
59.3193
59.3182
59.3194
59.3183
59.3197
59.3185
59.3182
59.3173
59.3175
59.317
59.3179
59.3181
59.3187
59.3179
59.3174
59.3167
59.3165
59.3165
59.3173
59.3173
59.3182
59.318
59.3174
59.3163
59.3164
59.3163
59.3169
59.3171
59.3183
59.3179
59.3173
59.3167
59.3168
59.3161
59.3175
59.3171
59.3176
59.3228
59.3131
59.3284
59.3225
59.3178
59.3163
59.3244
59.3315
59.2721
59.5448
59.0324
59.8557
62.3213
57.9063
55.7429
55.0294
16.4371
27.7105
33.0513
35.9841
36.8988
36.3915
35.5211
34.857
34.3617
33.9596
33.5675
33.1819
32.8337
32.5427
32.3077
32.1136
31.9625
31.8411
31.751
31.6822
31.6303
31.5875
31.5425
31.493
31.4431
31.3937
31.3454
31.2989
31.2547
31.2133
31.1748
31.1398
31.1086
31.081
31.0567
31.0354
31.0167
31.0005
30.9865
30.9744
30.9639
30.9549
30.9471
30.9404
30.9347
30.9297
30.9256
30.9218
30.9187
30.9157
30.9135
30.9114
30.9103
30.9081
30.9089
30.9068
30.9315
31.1055
31.2652
29.4198
29.4958
32.8133
33.375
33.6058
33.7348
33.8326
33.8891
33.9091
33.9064
33.8923
33.8711
33.8439
33.8139
33.784
33.7553
33.7286
33.7038
33.682
33.6622
33.6446
33.6292
33.6161
33.6049
33.5956
33.5878
33.5814
33.5762
33.5718
33.5685
33.566
33.5641
33.5626
33.5616
33.5608
33.56
33.5596
33.5595
33.5594
33.5595
33.5595
33.5597
33.5594
33.5595
33.5596
33.5598
33.5599
33.5601
33.5601
33.5599
33.5599
33.56
33.5601
33.5602
33.5603
33.5603
33.5601
33.5601
33.5601
33.5602
33.5602
33.5603
33.5602
33.5601
33.5599
33.5601
33.56
33.5603
33.5601
33.5604
33.5599
33.56
33.56
33.5598
33.5604
33.5597
33.5609
33.5594
33.5611
33.5592
33.5616
33.5591
33.5623
33.5587
33.5629
33.5585
33.564
33.5583
33.5653
33.5579
33.5666
33.5576
33.5683
33.5574
33.5703
33.557
33.5722
33.5566
33.5746
33.5564
33.5772
33.556
33.5798
33.5557
33.5827
33.5556
33.5855
33.5553
33.5886
33.5554
33.5919
33.5553
33.5948
33.5554
33.5978
33.5558
33.6003
33.556
33.6028
33.5566
33.6049
33.5573
33.6064
33.5582
33.6079
33.5592
33.6087
33.5598
33.6095
33.5608
33.61
33.5616
33.6098
33.5625
33.6096
33.5635
33.6087
33.5641
33.6077
33.565
33.6062
33.5655
33.6048
33.5663
33.603
33.5667
33.6011
33.5674
33.5992
33.5679
33.5969
33.5683
33.5948
33.5686
33.5924
33.5688
33.5902
33.5689
33.5878
33.5691
33.5858
33.5691
33.5834
33.569
33.5814
33.5689
33.5794
33.5687
33.5778
33.5685
33.5759
33.5681
33.5742
33.5678
33.5723
33.5676
33.571
33.567
33.5697
33.5665
33.5684
33.5659
33.5677
33.5656
33.5669
33.5651
33.5661
33.5645
33.5652
33.5641
33.5649
33.564
33.5646
33.564
33.5641
33.5634
33.5637
33.563
33.5633
33.5632
33.5637
33.5633
33.5634
33.5631
33.5629
33.5626
33.5628
33.5625
33.5631
33.5631
33.5634
33.5629
33.5629
33.5624
33.5623
33.5622
33.563
33.563
33.5634
33.5631
33.5631
33.562
33.562
33.5621
33.5625
33.5673
33.5588
33.5679
33.5681
33.565
33.5653
33.5663
33.5772
33.5089
33.6979
33.4046
33.5782
36.783
34.827
33.2939
32.4614
5.43267
10.714
15.1877
18.6646
21.4932
23.3547
24.3858
24.8418
24.8555
24.5631
24.2536
24.0435
23.8785
23.7391
23.5825
23.4054
23.2293
23.0606
22.9017
22.7449
22.5883
22.4233
22.2582
22.0962
21.9377
21.7839
21.6362
21.4967
21.3666
21.2474
21.1391
21.0418
20.9555
20.8798
20.8142
20.7574
20.7086
20.6665
20.6303
20.5991
20.5724
20.5493
20.5297
20.5127
20.4983
20.4857
20.4753
20.4659
20.4582
20.451
20.4453
20.4403
20.4367
20.4324
20.4314
20.4268
20.4468
20.5545
20.7049
19.5217
19.0104
20.6569
21.1591
21.5057
21.7577
21.9672
22.1363
22.2498
22.3252
22.3721
22.3983
22.4079
22.406
22.3968
22.3832
22.3671
22.3498
22.3327
22.316
22.3002
22.2857
22.2727
22.2611
22.251
22.2422
22.2347
22.2284
22.2229
22.2185
22.2149
22.212
22.2097
22.2078
22.2064
22.2052
22.2042
22.2036
22.2031
22.2029
22.2027
22.2026
22.2023
22.2022
22.2022
22.2023
22.2023
22.2024
22.2024
22.2023
22.2023
22.2023
22.2024
22.2024
22.2025
22.2025
22.2024
22.2024
22.2024
22.2024
22.2024
22.2025
22.2025
22.2024
22.2023
22.2024
22.2023
22.2025
22.2024
22.2026
22.2023
22.2023
22.2023
22.2022
22.2025
22.2022
22.2028
22.2021
22.2029
22.202
22.2032
22.2019
22.2036
22.2018
22.204
22.2017
22.2046
22.2016
22.2054
22.2015
22.2061
22.2014
22.2071
22.2014
22.2083
22.2014
22.2095
22.2013
22.2109
22.2014
22.2125
22.2014
22.2141
22.2015
22.2159
22.2017
22.2177
22.2018
22.2197
22.2021
22.2217
22.2024
22.2236
22.2028
22.2255
22.2033
22.2273
22.2038
22.2289
22.2044
22.2305
22.2051
22.2318
22.2057
22.2329
22.2065
22.2338
22.2071
22.2346
22.2078
22.2352
22.2084
22.2354
22.209
22.2354
22.2097
22.2352
22.2101
22.2347
22.2106
22.234
22.2109
22.2332
22.2113
22.2322
22.2114
22.2311
22.2117
22.23
22.2119
22.2286
22.2119
22.2273
22.2119
22.2257
22.2118
22.2243
22.2118
22.2227
22.2116
22.2213
22.2115
22.2197
22.2112
22.2182
22.211
22.2168
22.2106
22.2156
22.2104
22.2143
22.2098
22.2132
22.2094
22.2119
22.209
22.2108
22.2084
22.21
22.208
22.209
22.2074
22.2083
22.207
22.2077
22.2066
22.2072
22.2062
22.2065
22.2057
22.206
22.2054
22.2057
22.2054
22.2055
22.2051
22.2052
22.2046
22.2046
22.2045
22.2048
22.2047
22.205
22.2047
22.2045
22.2041
22.204
22.2038
22.2042
22.2044
22.2049
22.2046
22.2044
22.2038
22.2035
22.2034
22.204
22.2043
22.205
22.2048
22.2046
22.2035
22.2029
22.2032
22.2036
22.2065
22.2018
22.2068
22.2077
22.2062
22.2068
22.2057
22.2109
22.1713
22.2773
22.1191
22.2752
24.4158
23.6426
22.8111
22.2336
1.93197
4.07725
6.30116
8.33296
10.4493
12.5252
14.5749
16.3028
17.5272
18.2533
18.6326
18.8058
18.8005
18.6816
18.5333
18.3998
18.2771
18.1459
17.9917
17.8094
17.5979
17.3704
17.1379
16.9052
16.6758
16.4527
16.2392
16.0391
15.8547
15.6876
15.5377
15.4044
15.287
15.1847
15.0965
15.0207
14.9556
14.8996
14.8516
14.8104
14.7751
14.7448
14.7189
14.6965
14.6776
14.6612
14.6473
14.6353
14.6251
14.6161
14.6085
14.602
14.5969
14.5918
14.5892
14.5847
14.5958
14.6599
14.7231
14.0699
13.6248
14.4551
14.7542
15.0209
15.2489
15.4547
15.6294
15.7652
15.8696
15.946
16.0004
16.0361
16.0574
16.0681
16.0712
16.0689
16.0628
16.0545
16.0449
16.0346
16.0243
16.0144
16.0051
15.9966
15.9889
15.9821
15.9761
15.9708
15.9663
15.9625
15.9593
15.9566
15.9545
15.9527
15.9513
15.9501
15.9491
15.9484
15.9479
15.9475
15.9472
15.9469
15.9467
15.9466
15.9465
15.9465
15.9465
15.9465
15.9464
15.9464
15.9464
15.9464
15.9464
15.9465
15.9465
15.9464
15.9464
15.9464
15.9464
15.9464
15.9465
15.9465
15.9464
15.9464
15.9464
15.9464
15.9465
15.9464
15.9465
15.9464
15.9464
15.9464
15.9463
15.9465
15.9463
15.9467
15.9463
15.9467
15.9462
15.9469
15.9462
15.9471
15.9462
15.9473
15.9462
15.9476
15.9462
15.9481
15.9462
15.9485
15.9462
15.9491
15.9463
15.9498
15.9464
15.9505
15.9465
15.9514
15.9467
15.9524
15.9469
15.9534
15.9472
15.9545
15.9475
15.9556
15.9478
15.9568
15.9482
15.9581
15.9486
15.9593
15.9491
15.9605
15.9496
15.9617
15.9502
15.9628
15.9507
15.9639
15.9514
15.9648
15.952
15.9657
15.9526
15.9664
15.9531
15.967
15.9537
15.9675
15.9542
15.9678
15.9546
15.968
15.9551
15.968
15.9554
15.9679
15.9557
15.9676
15.9559
15.9671
15.956
15.9666
15.9561
15.966
15.9561
15.9654
15.9561
15.9646
15.956
15.9638
15.9559
15.9629
15.9557
15.962
15.9554
15.961
15.9551
15.9601
15.9549
15.9591
15.9545
15.9582
15.9542
15.9572
15.9538
15.9564
15.9534
15.9556
15.953
15.9548
15.9526
15.9539
15.9521
15.9531
15.9517
15.9526
15.9513
15.9519
15.9508
15.9512
15.9504
15.9508
15.9501
15.9504
15.9498
15.9499
15.9493
15.9494
15.9489
15.9491
15.949
15.9491
15.9488
15.9487
15.9483
15.9481
15.948
15.9483
15.9483
15.9485
15.9484
15.9482
15.9478
15.9475
15.9474
15.9477
15.948
15.9485
15.9483
15.9481
15.9475
15.9471
15.947
15.9475
15.948
15.9486
15.9485
15.9482
15.9472
15.9465
15.9467
15.9472
15.9488
15.9464
15.9494
15.9501
15.9493
15.9497
15.9485
15.9501
15.9298
15.9913
15.9057
16.0721
17.3897
17.0212
16.5849
16.2388
0.805163
1.67343
2.53093
3.57405
4.70799
5.91817
7.2394
8.72717
10.2967
11.7634
12.9763
13.8888
14.4976
14.8453
15.0174
15.0764
15.042
14.9236
14.7389
14.5107
14.2555
13.9972
13.7411
13.4835
13.2271
12.9762
12.7374
12.517
12.3179
12.141
11.9845
11.847
11.7271
11.6235
11.5346
11.4582
11.3928
11.3366
11.2884
11.2471
11.2117
11.1813
11.1554
11.1331
11.1141
11.0978
11.0838
11.0719
11.0617
11.0529
11.0453
11.0388
11.0335
11.0287
11.0256
11.0219
11.0272
11.0626
11.0857
10.7919
10.5007
10.9577
11.1298
11.3024
11.4688
11.6325
11.7784
11.9039
12.0088
12.0921
12.1575
12.2068
12.2429
12.2682
12.2849
12.2949
12.2997
12.3008
12.2991
12.2954
12.2906
12.2851
12.2793
12.2735
12.268
12.2627
12.2579
12.2536
12.2497
12.2463
12.2433
12.2408
12.2387
12.2369
12.2353
12.2341
12.2331
12.2322
12.2316
12.2311
12.2307
12.2303
12.2301
12.2299
12.2297
12.2296
12.2296
12.2296
12.2295
12.2295
12.2294
12.2294
12.2295
12.2295
12.2295
12.2295
12.2294
12.2294
12.2294
12.2295
12.2295
12.2295
12.2295
12.2294
12.2294
12.2294
12.2295
12.2294
12.2295
12.2294
12.2294
12.2294
12.2294
12.2295
12.2294
12.2295
12.2294
12.2296
12.2294
12.2297
12.2294
12.2298
12.2294
12.2299
12.2294
12.2301
12.2294
12.2304
12.2295
12.2307
12.2296
12.231
12.2297
12.2315
12.2298
12.2319
12.23
12.2325
12.2302
12.2331
12.2305
12.2337
12.2307
12.2344
12.2311
12.2351
12.2314
12.2359
12.2318
12.2368
12.2322
12.2376
12.2327
12.2384
12.2332
12.2392
12.2337
12.24
12.2342
12.2407
12.2347
12.2414
12.2352
12.242
12.2357
12.2426
12.2361
12.2431
12.2366
12.2435
12.237
12.2438
12.2373
12.244
12.2376
12.2441
12.2379
12.2441
12.2381
12.2439
12.2381
12.2437
12.2382
12.2435
12.2382
12.2431
12.2382
12.2428
12.2381
12.2423
12.238
12.2418
12.2378
12.2413
12.2376
12.2407
12.2374
12.2401
12.2371
12.2396
12.2368
12.2389
12.2365
12.2383
12.2362
12.2377
12.2358
12.2371
12.2355
12.2366
12.2351
12.236
12.2347
12.2354
12.2343
12.2348
12.234
12.2344
12.2337
12.2339
12.2333
12.2334
12.2329
12.2331
12.2327
12.2328
12.2325
12.2324
12.232
12.232
12.2317
12.2318
12.2317
12.2318
12.2316
12.2315
12.2312
12.231
12.2309
12.231
12.2311
12.2313
12.2312
12.231
12.2307
12.2304
12.2304
12.2306
12.2308
12.2312
12.231
12.2309
12.2305
12.2301
12.2301
12.2304
12.2308
12.2313
12.2312
12.231
12.2303
12.2297
12.2299
12.2302
12.2311
12.23
12.2317
12.2321
12.2316
12.2318
12.2311
12.2317
12.2221
12.2573
12.2153
12.3447
13.1031
12.8832
12.6346
12.4241
0.409991
0.808322
1.26166
1.76601
2.29173
2.84663
3.61345
4.47709
5.46441
6.55098
7.64988
8.76177
9.79145
10.645
11.3043
11.7636
12.0421
12.1719
12.1717
12.067
11.8899
11.6574
11.3863
11.0965
10.818
10.5674
10.3482
10.1568
9.98915
9.84201
9.71259
9.59899
9.49987
9.41399
9.34001
9.27617
9.2212
9.17384
9.13316
9.09817
9.06816
9.04238
9.02031
9.00135
8.98515
8.97124
8.95937
8.94917
8.94048
8.93299
8.92657
8.92104
8.91645
8.91239
8.90997
8.90712
8.91113
8.92835
8.94137
8.87719
8.80141
9.04572
9.15232
9.26224
9.3766
9.49439
9.60619
9.70964
9.80242
9.88227
9.94968
10.0048
10.0487
10.0827
10.1083
10.1268
10.1396
10.1476
10.1521
10.1538
10.1535
10.1518
10.1491
10.1458
10.1423
10.1386
10.1351
10.1317
10.1286
10.1258
10.1232
10.121
10.119
10.1173
10.1159
10.1147
10.1136
10.1128
10.1121
10.1116
10.1111
10.1107
10.1105
10.1102
10.1101
10.11
10.1099
10.1098
10.1097
10.1097
10.1097
10.1097
10.1097
10.1097
10.1097
10.1097
10.1097
10.1097
10.1097
10.1097
10.1097
10.1097
10.1097
10.1096
10.1097
10.1096
10.1097
10.1096
10.1097
10.1096
10.1096
10.1096
10.1096
10.1096
10.1096
10.1097
10.1096
10.1097
10.1096
10.1098
10.1096
10.1098
10.1096
10.1099
10.1097
10.11
10.1097
10.1102
10.1098
10.1104
10.1099
10.1106
10.1101
10.1109
10.1102
10.1112
10.1104
10.1115
10.1106
10.1119
10.1109
10.1123
10.1111
10.1128
10.1115
10.1133
10.1118
10.1138
10.1122
10.1144
10.1125
10.115
10.113
10.1156
10.1134
10.1161
10.1138
10.1167
10.1143
10.1172
10.1147
10.1177
10.1151
10.1182
10.1155
10.1186
10.1159
10.119
10.1163
10.1193
10.1166
10.1196
10.1168
10.1198
10.1171
10.1199
10.1172
10.12
10.1173
10.1199
10.1174
10.1199
10.1174
10.1197
10.1174
10.1196
10.1174
10.1194
10.1173
10.1191
10.1172
10.1188
10.117
10.1185
10.1168
10.1182
10.1166
10.1178
10.1164
10.1174
10.1161
10.117
10.1159
10.1166
10.1156
10.1162
10.1152
10.1158
10.1149
10.1154
10.1147
10.115
10.1143
10.1145
10.114
10.1142
10.1137
10.1139
10.1135
10.1135
10.1131
10.1131
10.1128
10.1128
10.1126
10.1126
10.1124
10.1123
10.1121
10.112
10.1118
10.1118
10.1117
10.1117
10.1116
10.1115
10.1113
10.1112
10.1111
10.1112
10.1112
10.1113
10.1112
10.1111
10.1109
10.1108
10.1107
10.1108
10.1109
10.1111
10.111
10.1109
10.1107
10.1105
10.1105
10.1107
10.1109
10.1112
10.1111
10.111
10.1106
10.1104
10.1104
10.1107
10.1111
10.1107
10.1116
10.1117
10.1115
10.1116
10.1113
10.1119
10.1091
10.1263
10.1118
10.1851
10.5618
10.4129
10.2498
10.1059
0.287281
0.506587
0.837857
1.19244
1.53416
1.87989
2.31356
2.77728
3.2713
3.84775
4.57166
5.36325
6.18491
6.99347
7.72067
8.34985
8.85631
9.21375
9.45661
9.61396
9.68201
9.66854
9.58988
9.46698
9.31675
9.16282
9.01628
8.88148
8.75952
8.64976
8.55211
8.46492
8.38738
8.31893
8.25919
8.20742
8.16262
8.12386
8.0904
8.06154
8.0367
8.01531
7.99694
7.98115
7.96761
7.95598
7.94604
7.9375
7.93021
7.92394
7.91858
7.91395
7.91011
7.9067
7.90648
7.90327
7.91339
7.91711
7.93602
7.97498
8.04165
8.20304
8.29289
8.37336
8.46435
8.55308
8.64302
8.73064
8.81309
8.88796
8.95405
9.01035
9.057
9.09461
9.12413
9.14657
9.16303
9.17454
9.1821
9.18651
9.18854
9.1888
9.1878
9.18593
9.18353
9.18083
9.17803
9.17526
9.1726
9.17011
9.16784
9.16579
9.16397
9.16238
9.16102
9.15985
9.15887
9.15804
9.15736
9.15679
9.15634
9.15597
9.15569
9.15546
9.15528
9.15515
9.15505
9.15497
9.15491
9.15488
9.15485
9.15483
9.15483
9.15482
9.15482
9.15481
9.15481
9.15481
9.15481
9.15481
9.15482
9.15481
9.15481
9.1548
9.15481
9.1548
9.15481
9.1548
9.1548
9.15479
9.15479
9.15478
9.15477
9.15478
9.15476
9.15479
9.15476
9.15481
9.15478
9.15484
9.15479
9.15487
9.15482
9.15493
9.15486
9.15502
9.15493
9.15512
9.15501
9.15525
9.15512
9.15541
9.15525
9.1556
9.1554
9.15583
9.15559
9.15609
9.15581
9.15638
9.15604
9.1567
9.15632
9.15706
9.15662
9.15743
9.15694
9.15784
9.15729
9.15827
9.15766
9.15872
9.15805
9.15918
9.15845
9.15962
9.15885
9.16007
9.15925
9.16051
9.15964
9.16092
9.16002
9.16132
9.16038
9.16167
9.1607
9.162
9.16101
9.16228
9.16127
9.16252
9.16151
9.16272
9.16169
9.16284
9.16183
9.16293
9.16192
9.16296
9.16197
9.16295
9.16199
9.16289
9.16197
9.1628
9.16192
9.16268
9.16183
9.16252
9.16172
9.16233
9.16157
9.16213
9.16141
9.16189
9.16122
9.16162
9.161
9.16135
9.16077
9.16107
9.16055
9.16078
9.16029
9.16045
9.16
9.16013
9.15973
9.15985
9.15949
9.15954
9.1592
9.1592
9.15889
9.15888
9.15862
9.15863
9.1584
9.15834
9.15812
9.15803
9.15782
9.15777
9.1576
9.15757
9.15743
9.15734
9.15719
9.15706
9.15692
9.15688
9.1568
9.15678
9.15668
9.1566
9.15649
9.15639
9.15632
9.15631
9.1563
9.15633
9.15626
9.15619
9.15611
9.15602
9.15598
9.15601
9.15605
9.15612
9.15605
9.15599
9.15592
9.15585
9.15584
9.15592
9.15601
9.15613
9.15604
9.15596
9.15588
9.15583
9.1559
9.15602
9.15619
9.15616
9.1566
9.15669
9.15646
9.15681
9.15656
9.15794
9.15848
9.16509
9.16895
9.1982
9.35731
9.2487
9.11379
9.00151
)
;

boundaryField
{
    inlet
    {
        type            fixedValue;
        value           uniform 0.18449;
    }
    outlet
    {
        type            zeroGradient;
    }
    sideWall
    {
        type            empty;
    }
    bed
    {
        type            omegaWallFunction;
        refValue        nonuniform List<scalar> 
300
(
145.259
160.409
147.762
136.046
128.85
125.761
124.542
124.391
124.595
125.011
125.51
126.016
126.505
127.018
127.509
128.005
128.527
129.047
129.577
130.108
130.639
131.168
131.711
132.266
132.801
133.291
133.733
134.12
134.455
134.742
134.987
135.196
135.37
135.512
135.626
135.721
135.799
135.865
135.92
135.967
136.007
136.041
136.069
136.095
136.115
136.134
136.148
136.163
136.172
136.186
136.186
136.209
136.183
136.253
136.119
136.412
135.785
136.988
132.406
140.83
160.425
156.389
148.353
148.582
147.799
147.834
147.711
147.717
147.721
147.75
147.758
147.771
147.789
147.808
147.825
147.838
147.849
147.859
147.864
147.87
147.875
147.878
147.88
147.882
147.883
147.884
147.883
147.884
147.886
147.886
147.886
147.886
147.886
147.885
147.886
147.887
147.887
147.887
147.886
147.887
147.885
147.886
147.887
147.887
147.887
147.887
147.887
147.886
147.886
147.888
147.887
147.888
147.887
147.887
147.886
147.886
147.887
147.887
147.887
147.887
147.886
147.886
147.886
147.888
147.886
147.888
147.886
147.887
147.885
147.885
147.888
147.885
147.89
147.882
147.89
147.879
147.89
147.879
147.893
147.876
147.895
147.873
147.897
147.871
147.9
147.868
147.903
147.863
147.906
147.86
147.91
147.855
147.914
147.849
147.917
147.846
147.923
147.84
147.927
147.833
147.93
147.83
147.935
147.825
147.938
147.819
147.943
147.816
147.947
147.811
147.949
147.81
147.951
147.807
147.952
147.805
147.954
147.805
147.954
147.805
147.953
147.807
147.952
147.809
147.949
147.81
147.949
147.813
147.946
147.816
147.942
147.821
147.939
147.825
147.934
147.829
147.932
147.835
147.927
147.84
147.925
147.846
147.921
147.851
147.92
147.857
147.917
147.861
147.913
147.867
147.911
147.871
147.909
147.876
147.908
147.88
147.905
147.884
147.905
147.887
147.903
147.891
147.902
147.892
147.901
147.895
147.901
147.896
147.9
147.898
147.899
147.898
147.898
147.9
147.898
147.9
147.899
147.901
147.898
147.9
147.898
147.9
147.897
147.899
147.898
147.898
147.897
147.898
147.897
147.897
147.896
147.897
147.896
147.896
147.896
147.895
147.895
147.895
147.895
147.894
147.894
147.895
147.894
147.894
147.894
147.893
147.894
147.894
147.894
147.893
147.893
147.893
147.893
147.892
147.894
147.893
147.894
147.894
147.894
147.893
147.892
147.898
147.887
147.911
147.869
147.908
147.926
147.865
147.896
147.831
147.955
147.647
148.281
148.065
146.56
153.236
137.02
128.084
133.082
134.149
)
;
        value           nonuniform List<scalar> 
300
(
145.259
160.409
147.762
136.046
128.85
125.761
124.542
124.391
124.595
125.011
125.51
126.016
126.505
127.018
127.509
128.005
128.527
129.047
129.577
130.108
130.639
131.168
131.711
132.266
132.801
133.291
133.733
134.12
134.455
134.742
134.987
135.196
135.37
135.512
135.626
135.721
135.799
135.865
135.92
135.967
136.007
136.041
136.069
136.095
136.115
136.134
136.148
136.163
136.172
136.186
136.186
136.209
136.183
136.253
136.119
136.412
135.785
136.988
132.406
140.83
160.425
156.389
148.353
148.582
147.799
147.834
147.711
147.717
147.721
147.75
147.758
147.771
147.789
147.808
147.825
147.838
147.849
147.859
147.864
147.87
147.875
147.878
147.88
147.882
147.883
147.884
147.883
147.884
147.886
147.886
147.886
147.886
147.886
147.885
147.886
147.887
147.887
147.887
147.886
147.887
147.885
147.886
147.887
147.887
147.887
147.887
147.887
147.886
147.886
147.888
147.887
147.888
147.887
147.887
147.886
147.886
147.887
147.887
147.887
147.887
147.886
147.886
147.886
147.888
147.886
147.888
147.886
147.887
147.885
147.885
147.888
147.885
147.89
147.882
147.89
147.879
147.89
147.879
147.893
147.876
147.895
147.873
147.897
147.871
147.9
147.868
147.903
147.863
147.906
147.86
147.91
147.855
147.914
147.849
147.917
147.846
147.923
147.84
147.927
147.833
147.93
147.83
147.935
147.825
147.938
147.819
147.943
147.816
147.947
147.811
147.949
147.81
147.951
147.807
147.952
147.805
147.954
147.805
147.954
147.805
147.953
147.807
147.952
147.809
147.949
147.81
147.949
147.813
147.946
147.816
147.942
147.821
147.939
147.825
147.934
147.829
147.932
147.835
147.927
147.84
147.925
147.846
147.921
147.851
147.92
147.857
147.917
147.861
147.913
147.867
147.911
147.871
147.909
147.876
147.908
147.88
147.905
147.884
147.905
147.887
147.903
147.891
147.902
147.892
147.901
147.895
147.901
147.896
147.9
147.898
147.899
147.898
147.898
147.9
147.898
147.9
147.899
147.901
147.898
147.9
147.898
147.9
147.897
147.899
147.898
147.898
147.897
147.898
147.897
147.897
147.896
147.897
147.896
147.896
147.896
147.895
147.895
147.895
147.895
147.894
147.894
147.895
147.894
147.894
147.894
147.893
147.894
147.894
147.894
147.893
147.893
147.893
147.893
147.892
147.894
147.893
147.894
147.894
147.894
147.893
147.892
147.898
147.887
147.911
147.869
147.908
147.926
147.865
147.896
147.831
147.955
147.647
148.281
148.065
146.56
153.236
137.02
128.084
133.082
134.149
)
;
        Cmu             0.09;
        kappa           0.41;
        E               9.8;
        beta1           0.075;
    }
    topWall
    {
        type            slip;
        value           nonuniform List<scalar> 
300
(
0.287281
0.506587
0.837857
1.19244
1.53416
1.87989
2.31356
2.77728
3.2713
3.84775
4.57166
5.36325
6.18491
6.99347
7.72067
8.34985
8.85631
9.21375
9.45661
9.61396
9.68201
9.66854
9.58988
9.46698
9.31675
9.16282
9.01628
8.88148
8.75952
8.64976
8.55211
8.46492
8.38738
8.31893
8.25919
8.20742
8.16262
8.12386
8.0904
8.06154
8.0367
8.01531
7.99694
7.98115
7.96761
7.95598
7.94604
7.9375
7.93021
7.92394
7.91858
7.91395
7.91011
7.9067
7.90648
7.90327
7.91339
7.91711
7.93602
7.97498
8.04165
8.20304
8.29289
8.37336
8.46435
8.55308
8.64302
8.73064
8.81309
8.88796
8.95405
9.01035
9.057
9.09461
9.12413
9.14657
9.16303
9.17454
9.1821
9.18651
9.18854
9.1888
9.1878
9.18593
9.18353
9.18083
9.17803
9.17526
9.1726
9.17011
9.16784
9.16579
9.16397
9.16238
9.16102
9.15985
9.15887
9.15804
9.15736
9.15679
9.15634
9.15597
9.15569
9.15546
9.15528
9.15515
9.15505
9.15497
9.15491
9.15488
9.15485
9.15483
9.15483
9.15482
9.15482
9.15481
9.15481
9.15481
9.15481
9.15481
9.15482
9.15481
9.15481
9.1548
9.15481
9.1548
9.15481
9.1548
9.1548
9.15479
9.15479
9.15478
9.15477
9.15478
9.15476
9.15479
9.15476
9.15481
9.15478
9.15484
9.15479
9.15487
9.15482
9.15493
9.15486
9.15502
9.15493
9.15512
9.15501
9.15525
9.15512
9.15541
9.15525
9.1556
9.1554
9.15583
9.15559
9.15609
9.15581
9.15638
9.15604
9.1567
9.15632
9.15706
9.15662
9.15743
9.15694
9.15784
9.15729
9.15827
9.15766
9.15872
9.15805
9.15918
9.15845
9.15962
9.15885
9.16007
9.15925
9.16051
9.15964
9.16092
9.16002
9.16132
9.16038
9.16167
9.1607
9.162
9.16101
9.16228
9.16127
9.16252
9.16151
9.16272
9.16169
9.16284
9.16183
9.16293
9.16192
9.16296
9.16197
9.16295
9.16199
9.16289
9.16197
9.1628
9.16192
9.16268
9.16183
9.16252
9.16172
9.16233
9.16157
9.16213
9.16141
9.16189
9.16122
9.16162
9.161
9.16135
9.16077
9.16107
9.16055
9.16078
9.16029
9.16045
9.16
9.16013
9.15973
9.15985
9.15949
9.15954
9.1592
9.1592
9.15889
9.15888
9.15862
9.15863
9.1584
9.15834
9.15812
9.15803
9.15782
9.15777
9.1576
9.15757
9.15743
9.15734
9.15719
9.15706
9.15692
9.15688
9.1568
9.15678
9.15668
9.1566
9.15649
9.15639
9.15632
9.15631
9.1563
9.15633
9.15626
9.15619
9.15611
9.15602
9.15598
9.15601
9.15605
9.15612
9.15605
9.15599
9.15592
9.15585
9.15584
9.15592
9.15601
9.15613
9.15604
9.15596
9.15588
9.15583
9.1559
9.15602
9.15619
9.15616
9.1566
9.15669
9.15646
9.15681
9.15656
9.15794
9.15848
9.16509
9.16895
9.1982
9.35731
9.2487
9.11379
9.00151
)
;
    }
}


// ************************************************************************* //
