/*--------------------------------*- C++ -*----------------------------------*\
| =========                 |                                                 |
| \\      /  F ield         | foam-extend: Open Source CFD                    |
|  \\    /   O peration     | Version:     3.2                                |
|   \\  /    A nd           | Web:         http://www.foam-extend.org         |
|    \\/     M anipulation  | For copyright notice see file Copyright         |
\*---------------------------------------------------------------------------*/
FoamFile
{
    version     2.0;
    format      ascii;
    class       volScalarField;
    location    "2000";
    object      p;
}
// * * * * * * * * * * * * * * * * * * * * * * * * * * * * * * * * * * * * * //

dimensions      [1 -1 -2 0 0 0 0];

internalField   nonuniform List<scalar> 
2400
(
581.97
577.753
577.702
577.079
577.636
578.216
579.131
579.992
580.972
581.938
582.937
583.929
584.95
585.972
586.997
588.037
589.064
590.097
591.126
592.158
593.187
594.218
595.236
596.234
597.207
598.161
599.093
600.007
600.904
601.786
602.653
603.509
604.354
605.192
606.024
606.852
607.674
608.493
609.309
610.122
610.932
611.74
612.547
613.353
614.156
614.96
615.761
616.564
617.363
618.166
618.96
619.773
620.542
621.404
622.068
623.149
623.351
625.41
623.429
619.934
599.114
588.034
599.746
597.176
598.787
599.033
599.871
600.518
601.19
601.814
602.44
603.038
603.61
604.152
604.676
605.177
605.661
606.126
606.579
607.016
607.44
607.854
608.259
608.657
609.048
609.434
609.815
610.193
610.566
610.939
611.31
611.68
612.05
612.419
612.787
613.153
613.52
613.888
614.255
614.624
614.991
615.36
615.725
616.094
616.461
616.83
617.198
617.567
617.935
618.302
618.67
619.039
619.407
619.776
620.145
620.514
620.881
621.25
621.618
621.987
622.355
622.725
623.093
623.461
623.828
624.199
624.565
624.937
625.303
625.675
626.04
626.409
626.78
627.143
627.52
627.879
628.26
628.613
628.999
629.347
629.739
630.08
630.481
630.811
631.221
631.541
631.963
632.272
632.707
632.998
633.449
633.725
634.194
634.451
634.939
635.174
635.684
635.896
636.43
636.618
637.177
637.337
637.923
638.057
638.67
638.776
639.415
639.493
640.16
640.211
640.906
640.928
641.648
641.648
642.391
642.369
643.131
643.09
643.871
643.814
644.61
644.538
645.347
645.265
646.084
645.994
646.818
646.725
647.552
647.458
648.285
648.193
649.016
648.93
649.747
649.671
650.476
650.412
651.205
651.156
651.931
651.9
652.658
652.646
653.383
653.392
654.109
654.14
654.835
654.888
655.561
655.638
656.287
656.387
657.013
657.137
657.739
657.885
658.466
658.636
659.194
659.385
659.922
660.133
660.651
660.88
661.381
661.629
662.113
662.376
662.844
663.122
663.576
663.865
664.31
664.611
665.044
665.357
665.778
666.1
666.509
666.841
667.245
667.586
667.983
668.329
668.719
669.068
669.452
669.806
670.189
670.547
670.928
671.289
671.664
672.026
672.398
672.76
673.135
673.5
673.875
674.24
674.611
674.976
675.344
675.71
676.082
676.447
676.822
677.188
677.558
677.922
678.291
678.655
679.027
679.393
679.768
680.132
680.503
680.866
681.235
681.598
681.965
682.348
682.69
683.089
683.389
683.824
684.218
684.525
685.004
685.108
685.681
685.744
686.539
689.006
693.858
715.335
711.829
714.268
545.253
541.169
541.075
540.448
541.006
541.584
542.497
543.357
544.337
545.302
546.299
547.29
548.31
549.332
550.357
551.397
552.423
553.457
554.485
555.517
556.546
557.576
558.595
559.592
560.565
561.519
562.452
563.366
564.263
565.144
566.012
566.868
567.713
568.551
569.384
570.211
571.034
571.853
572.668
573.481
574.291
575.1
575.907
576.712
577.516
578.319
579.121
579.923
580.723
581.525
582.32
583.132
583.901
584.763
585.427
586.508
586.711
588.775
586.683
583.23
562.778
551.735
563.215
560.718
562.313
562.564
563.396
564.041
564.711
565.333
565.957
566.553
567.124
567.665
568.187
568.688
569.171
569.636
570.088
570.524
570.948
571.362
571.767
572.164
572.555
572.941
573.323
573.7
574.073
574.447
574.817
575.188
575.557
575.926
576.294
576.66
577.028
577.395
577.762
578.131
578.498
578.867
579.232
579.601
579.968
580.337
580.705
581.074
581.442
581.809
582.177
582.546
582.914
583.284
583.652
584.021
584.388
584.757
585.125
585.494
585.863
586.232
586.6
586.969
587.336
587.706
588.073
588.444
588.811
589.182
589.547
589.916
590.287
590.65
591.027
591.386
591.768
592.12
592.506
592.854
593.247
593.588
593.988
594.318
594.728
595.049
595.471
595.779
596.214
596.506
596.956
597.233
597.701
597.959
598.447
598.681
599.191
599.404
599.938
600.126
600.685
600.845
601.43
601.565
602.177
602.284
602.922
603.001
603.668
603.719
604.413
604.436
605.156
605.156
605.899
605.877
606.639
606.598
607.379
607.322
608.118
608.046
608.854
608.773
609.591
609.503
610.325
610.233
611.059
610.967
611.792
611.701
612.523
612.439
613.254
613.18
613.983
613.921
614.712
614.664
615.438
615.408
616.165
616.154
616.89
616.9
617.616
617.649
618.343
618.397
619.068
619.146
619.795
619.895
620.52
620.645
621.246
621.394
621.973
622.144
622.702
622.893
623.43
623.641
624.159
624.388
624.888
625.137
625.621
625.884
626.352
626.63
627.084
627.374
627.817
628.119
628.551
628.865
629.285
629.608
630.017
630.349
630.752
631.094
631.49
631.837
632.226
632.575
632.959
633.314
633.697
634.055
634.436
634.797
635.171
635.533
635.905
636.267
636.642
637.008
637.383
637.747
638.119
638.483
638.852
639.217
639.589
639.955
640.329
640.695
641.066
641.429
641.799
642.162
642.534
642.901
643.275
643.64
644.011
644.374
644.742
645.105
645.471
645.855
646.197
646.597
646.898
647.331
647.725
648.033
648.511
648.613
649.198
649.253
650.031
652.624
657.358
678.557
675.186
677.633
508.507
504.538
504.468
503.842
504.387
504.957
505.866
506.724
507.702
508.666
509.662
510.653
511.672
512.693
513.717
514.758
515.784
516.817
517.845
518.876
519.906
520.936
521.954
522.952
523.924
524.878
525.811
526.725
527.622
528.504
529.372
530.227
531.073
531.911
532.743
533.571
534.393
535.212
536.028
536.841
537.651
538.46
539.266
540.072
540.875
541.679
542.481
543.283
544.082
544.885
545.68
546.492
547.261
548.123
548.787
549.868
550.069
552.136
549.918
546.71
526.854
515.959
527.092
524.665
526.238
526.487
527.309
527.947
528.61
529.227
529.845
530.436
531.002
531.54
532.059
532.557
533.038
533.501
533.951
534.386
534.809
535.222
535.626
536.023
536.413
536.799
537.18
537.558
537.931
538.304
538.674
539.045
539.414
539.783
540.152
540.518
540.885
541.253
541.62
541.989
542.356
542.725
543.09
543.459
543.826
544.195
544.563
544.932
545.3
545.667
546.035
546.404
546.772
547.141
547.51
547.879
548.246
548.615
548.983
549.352
549.72
550.09
550.458
550.826
551.193
551.564
551.93
552.302
552.668
553.04
553.405
553.774
554.145
554.508
554.885
555.244
555.625
555.978
556.364
556.712
557.104
557.445
557.845
558.176
558.586
558.907
559.328
559.637
560.071
560.364
560.814
561.09
561.559
561.817
562.304
562.539
563.049
563.262
563.795
563.984
564.542
564.703
565.288
565.423
566.035
566.142
566.78
566.859
567.526
567.578
568.271
568.295
569.014
569.015
569.757
569.736
570.497
570.457
571.237
571.182
571.976
571.906
572.713
572.633
573.449
573.363
574.184
574.093
574.918
574.827
575.651
575.561
576.382
576.299
577.113
577.039
577.842
577.781
578.571
578.524
579.297
579.268
580.024
580.014
580.749
580.76
581.476
581.509
582.202
582.256
582.927
583.006
583.654
583.755
584.379
584.505
585.105
585.253
585.832
586.003
586.561
586.752
587.289
587.501
588.017
588.247
588.747
588.996
589.48
589.743
590.211
590.489
590.942
591.233
591.675
591.978
592.409
592.724
593.143
593.467
593.875
594.208
594.61
594.952
595.348
595.696
596.085
596.434
596.817
597.172
597.554
597.913
598.294
598.655
599.03
599.392
599.763
600.125
600.5
600.866
601.241
601.606
601.978
602.342
602.71
603.074
603.446
603.812
604.187
604.554
604.925
605.288
605.657
606.02
606.391
606.758
607.133
607.499
607.87
608.233
608.6
608.962
609.327
609.712
610.054
610.455
610.757
611.188
611.583
611.89
612.369
612.47
613.069
613.11
613.874
616.571
621.019
641.777
638.544
640.982
471.8
467.921
467.847
467.213
467.761
468.328
469.235
470.091
471.068
472.031
473.026
474.017
475.036
476.056
477.08
478.119
479.145
480.178
481.206
482.237
483.266
484.296
485.314
486.311
487.284
488.238
489.17
490.084
490.981
491.863
492.731
493.586
494.432
495.27
496.103
496.93
497.753
498.572
499.387
500.2
501.01
501.819
502.626
503.431
504.235
505.039
505.84
506.642
507.442
508.245
509.039
509.851
510.62
511.483
512.147
513.227
513.427
515.492
513.182
510.461
491.621
480.92
491.629
489.262
490.81
491.05
491.854
492.477
493.127
493.731
494.338
494.919
495.476
496.007
496.519
497.011
497.487
497.946
498.392
498.825
499.245
499.656
500.059
500.455
500.844
501.229
501.61
501.987
502.36
502.733
503.103
503.474
503.843
504.212
504.58
504.947
505.314
505.682
506.049
506.417
506.785
507.153
507.519
507.888
508.255
508.624
508.992
509.361
509.729
510.096
510.464
510.833
511.201
511.57
511.939
512.308
512.675
513.044
513.412
513.781
514.149
514.519
514.887
515.256
515.622
515.993
516.359
516.731
517.097
517.469
517.834
518.203
518.574
518.937
519.314
519.673
520.054
520.407
520.793
521.141
521.533
521.874
522.274
522.605
523.015
523.336
523.757
524.066
524.5
524.793
525.243
525.52
525.987
526.246
526.733
526.969
527.478
527.692
528.224
528.415
528.971
529.134
529.717
529.854
530.464
530.574
531.209
531.291
531.955
532.01
532.7
532.728
533.443
533.448
534.186
534.169
534.927
534.891
535.667
535.615
536.406
536.34
537.143
537.067
537.88
537.797
538.614
538.527
539.349
539.261
540.082
539.996
540.813
540.734
541.544
541.474
542.273
542.215
543.002
542.959
543.729
543.703
544.456
544.449
545.181
545.195
545.907
545.943
546.633
546.69
547.359
547.44
548.085
548.189
548.811
548.938
549.537
549.686
550.263
550.436
550.992
551.185
551.72
551.934
552.449
552.68
553.178
553.428
553.91
554.176
554.642
554.921
555.373
555.664
556.105
556.41
556.84
557.155
557.574
557.898
558.305
558.638
559.04
559.383
559.779
560.127
560.515
560.865
561.248
561.602
561.984
562.343
562.724
563.086
563.461
563.822
564.194
564.555
564.929
565.295
565.671
566.037
566.409
566.772
567.14
567.503
567.875
568.241
568.617
568.985
569.357
569.719
570.086
570.448
570.819
571.187
571.563
571.931
572.303
572.665
573.029
573.39
573.754
574.14
574.483
574.886
575.19
575.617
576.012
576.319
576.798
576.9
577.513
577.539
578.29
581.031
584.944
605.016
601.899
604.333
435.086
431.291
431.216
430.58
431.133
431.695
432.598
433.455
434.432
435.396
436.391
437.381
438.4
439.42
440.444
441.483
442.509
443.541
444.569
445.599
446.628
447.658
448.676
449.672
450.644
451.598
452.53
453.444
454.341
455.223
456.091
456.946
457.792
458.63
459.462
460.29
461.112
461.931
462.747
463.56
464.37
465.179
465.985
466.791
467.595
468.398
469.2
470.002
470.802
471.604
472.399
473.211
473.98
474.842
475.506
476.587
476.786
478.845
476.506
474.591
457.322
446.837
457.074
454.739
456.256
456.479
457.253
457.852
458.479
459.063
459.651
460.214
460.756
461.274
461.775
462.258
462.726
463.177
463.618
464.045
464.462
464.87
465.27
465.663
466.051
466.435
466.815
467.192
467.564
467.937
468.307
468.677
469.046
469.415
469.784
470.15
470.518
470.885
471.253
471.621
471.989
472.358
472.723
473.092
473.459
473.828
474.196
474.565
474.934
475.301
475.669
476.037
476.406
476.775
477.143
477.513
477.879
478.248
478.616
478.985
479.354
479.723
480.092
480.46
480.827
481.197
481.564
481.935
482.302
482.673
483.038
483.407
483.778
484.141
484.518
484.877
485.258
485.611
485.997
486.345
486.737
487.079
487.479
487.81
488.219
488.541
488.961
489.271
489.705
489.998
490.447
490.725
491.192
491.452
491.937
492.175
492.682
492.898
493.429
493.621
494.176
494.341
494.922
495.061
495.669
495.781
496.414
496.499
497.161
497.219
497.906
497.937
498.649
498.658
499.393
499.38
500.133
500.102
500.874
500.827
501.613
501.552
502.35
502.279
503.087
503.009
503.822
503.74
504.557
504.474
505.29
505.209
506.021
505.947
506.753
506.688
507.482
507.429
508.21
508.172
508.937
508.916
509.664
509.662
510.39
510.408
511.116
511.156
511.842
511.903
512.567
512.652
513.294
513.401
514.019
514.15
514.746
514.898
515.472
515.647
516.201
516.396
516.929
517.144
517.657
517.89
518.386
518.638
519.118
519.385
519.85
520.13
520.581
520.873
521.313
521.618
522.047
522.364
522.782
523.106
523.512
523.846
524.247
524.59
524.985
525.334
525.723
526.072
526.454
526.808
527.19
527.549
527.93
528.293
528.668
529.029
529.4
529.76
530.134
530.5
530.877
531.244
531.616
531.979
532.345
532.708
533.079
533.446
533.823
534.192
534.564
534.926
535.292
535.652
536.022
536.391
536.769
537.139
537.511
537.872
538.235
538.593
538.956
539.343
539.688
540.093
540.398
540.822
541.216
541.524
542.004
542.108
542.739
542.738
543.481
546.198
549.222
568.291
565.25
567.685
398.408
394.647
394.571
393.946
394.496
395.056
395.957
396.817
397.795
398.758
399.752
400.744
401.763
402.783
403.807
404.846
405.872
406.904
407.932
408.963
409.991
411.02
412.038
413.034
414.005
414.959
415.891
416.805
417.701
418.583
419.451
420.306
421.152
421.99
422.822
423.65
424.472
425.291
426.107
426.92
427.73
428.539
429.345
430.151
430.954
431.758
432.56
433.362
434.161
434.964
435.759
436.571
437.34
438.202
438.866
439.946
440.145
442.197
439.89
439.205
424.146
413.936
423.632
421.296
422.773
422.97
423.703
424.265
424.858
425.412
425.972
426.509
427.03
427.528
428.013
428.481
428.937
429.378
429.809
430.23
430.64
431.044
431.44
431.83
432.216
432.598
432.977
433.352
433.724
434.097
434.467
434.837
435.206
435.575
435.943
436.31
436.678
437.046
437.413
437.782
438.149
438.518
438.884
439.253
439.62
439.989
440.357
440.726
441.094
441.462
441.83
442.198
442.566
442.936
443.304
443.673
444.04
444.409
444.777
445.146
445.515
445.884
446.252
446.621
446.988
447.358
447.725
448.096
448.462
448.833
449.199
449.568
449.939
450.302
450.679
451.038
451.419
451.772
452.157
452.506
452.898
453.239
453.639
453.971
454.38
454.702
455.122
455.432
455.865
456.16
456.608
456.887
457.353
457.613
458.099
458.337
458.844
459.061
459.59
459.784
460.338
460.505
461.084
461.225
461.831
461.946
462.577
462.665
463.324
463.385
464.07
464.104
464.814
464.825
465.557
465.548
466.299
466.271
467.04
466.996
467.78
467.722
468.517
468.45
469.254
469.18
469.989
469.912
470.724
470.646
471.458
471.381
472.189
472.119
472.921
472.86
473.65
473.601
474.379
474.344
475.106
475.088
475.833
475.834
476.558
476.58
477.284
477.327
478.011
478.075
478.736
478.823
479.462
479.572
480.188
480.321
480.914
481.068
481.64
481.817
482.368
482.566
483.096
483.313
483.824
484.058
484.553
484.806
485.285
485.553
486.016
486.298
486.747
487.039
487.478
487.784
488.213
488.53
488.947
489.272
489.677
490.011
490.411
490.754
491.15
491.498
491.887
492.236
492.618
492.971
493.353
493.712
494.093
494.457
494.831
495.192
495.563
495.923
496.296
496.663
497.04
497.407
497.779
498.142
498.508
498.87
499.241
499.608
499.986
500.356
500.728
501.089
501.455
501.814
502.184
502.553
502.931
503.303
503.676
504.036
504.398
504.754
505.116
505.505
505.85
506.258
506.564
506.983
507.377
507.685
508.167
508.274
508.93
508.887
509.627
512.247
513.923
531.624
528.599
531.039
361.76
358.008
357.919
357.298
357.853
358.413
359.316
360.175
361.153
362.117
363.112
364.106
365.125
366.145
367.169
368.209
369.235
370.267
371.295
372.326
373.354
374.383
375.4
376.395
377.367
378.32
379.252
380.166
381.062
381.944
382.811
383.666
384.512
385.35
386.182
387.01
387.832
388.651
389.466
390.279
391.09
391.898
392.705
393.511
394.314
395.118
395.919
396.721
397.521
398.324
399.118
399.93
400.699
401.562
402.226
403.306
403.504
405.546
403.327
404.395
392.213
382.435
391.474
389.1
390.528
390.687
391.365
391.877
392.426
392.939
393.46
393.963
394.454
394.926
395.389
395.837
396.276
396.704
397.123
397.534
397.936
398.333
398.724
399.111
399.493
399.873
400.249
400.624
400.995
401.367
401.737
402.107
402.476
402.845
403.213
403.58
403.948
404.316
404.684
405.052
405.42
405.789
406.155
406.524
406.891
407.26
407.628
407.997
408.366
408.733
409.101
409.47
409.838
410.207
410.575
410.945
411.312
411.681
412.049
412.418
412.786
413.155
413.524
413.892
414.259
414.629
414.996
415.367
415.734
416.105
416.471
416.839
417.21
417.573
417.95
418.309
418.69
419.043
419.429
419.777
420.169
420.511
420.91
421.242
421.651
421.973
422.394
422.704
423.137
423.432
423.88
424.159
424.625
424.886
425.371
425.61
426.117
426.334
426.864
427.058
427.612
427.779
428.358
428.501
429.106
429.222
429.853
429.942
430.6
430.662
431.347
431.383
432.091
432.105
432.836
432.828
433.578
433.552
434.319
434.278
435.06
435.004
435.798
435.733
436.536
436.465
437.271
437.196
438.006
437.931
438.741
438.666
439.472
439.405
440.204
440.145
440.933
440.887
441.662
441.63
442.389
442.374
443.116
443.12
443.842
443.866
444.568
444.613
445.294
445.36
446.019
446.108
446.745
446.856
447.47
447.605
448.196
448.352
448.922
449.1
449.65
449.848
450.377
450.595
451.105
451.34
451.833
452.087
452.565
452.833
453.296
453.577
454.025
454.319
454.757
455.063
455.491
455.808
456.225
456.55
456.955
457.288
457.688
458.031
458.426
458.775
459.163
459.512
459.894
460.247
460.628
460.988
461.368
461.731
462.106
462.467
462.838
463.198
463.571
463.938
464.314
464.681
465.053
465.417
465.783
466.145
466.516
466.883
467.259
467.629
468.001
468.363
468.729
469.089
469.459
469.827
470.205
470.576
470.949
471.31
471.673
472.031
472.392
472.781
473.124
473.535
473.843
474.256
474.649
474.956
475.442
475.554
476.243
476.138
476.884
479.33
479.117
495.028
491.945
494.395
325.146
321.376
321.275
320.651
321.208
321.769
322.672
323.533
324.511
325.476
326.471
327.465
328.484
329.505
330.528
331.571
332.596
333.628
334.656
335.686
336.714
337.744
338.761
339.757
340.728
341.681
342.612
343.526
344.422
345.304
346.172
347.026
347.872
348.71
349.542
350.37
351.192
352.011
352.826
353.639
354.449
355.258
356.065
356.87
357.674
358.477
359.279
360.081
360.881
361.683
362.478
363.29
364.059
364.921
365.585
366.665
366.865
368.892
366.814
370.221
361.667
352.466
360.724
358.28
359.651
359.761
360.369
360.819
361.31
361.772
362.244
362.703
363.156
363.596
364.03
364.454
364.872
365.281
365.685
366.083
366.476
366.864
367.249
367.63
368.008
368.385
368.759
369.132
369.503
369.874
370.243
370.613
370.982
371.351
371.719
372.087
372.455
372.823
373.191
373.56
373.927
374.297
374.663
375.032
375.399
375.768
376.136
376.505
376.874
377.242
377.61
377.978
378.347
378.715
379.084
379.453
379.82
380.189
380.557
380.926
381.294
381.663
382.032
382.4
382.767
383.138
383.504
383.875
384.241
384.613
384.979
385.347
385.718
386.081
386.458
386.817
387.198
387.551
387.937
388.285
388.677
389.018
389.418
389.75
390.159
390.481
390.902
391.212
391.646
391.94
392.389
392.668
393.134
393.395
393.881
394.12
394.627
394.845
395.375
395.569
396.123
396.291
396.871
397.013
397.619
397.735
398.367
398.456
399.115
399.178
399.862
399.899
400.608
400.622
401.353
401.347
402.096
402.072
402.839
402.799
403.58
403.526
404.319
404.256
405.057
404.988
405.794
405.72
406.529
406.455
407.264
407.191
407.996
407.93
408.727
408.671
409.457
409.412
410.186
410.156
410.913
410.9
411.64
411.645
412.366
412.391
413.091
413.138
413.817
413.885
414.542
414.633
415.268
415.381
415.993
416.128
416.718
416.875
417.444
417.623
418.171
418.37
418.898
419.117
419.625
419.861
420.353
420.607
421.084
421.353
421.814
422.096
422.543
422.837
423.274
423.581
424.008
424.324
424.74
425.066
425.47
425.804
426.203
426.546
426.94
427.288
427.676
428.026
428.407
428.761
429.142
429.501
429.881
430.243
430.617
430.979
431.35
431.712
432.085
432.45
432.826
433.192
433.563
433.927
434.295
434.658
435.03
435.396
435.771
436.139
436.51
436.873
437.241
437.603
437.974
438.341
438.717
439.084
439.456
439.819
440.185
440.547
440.91
441.297
441.638
442.051
442.359
442.766
443.158
443.465
443.954
444.072
444.805
444.616
445.379
447.578
444.861
458.501
455.29
457.753
)
;

boundaryField
{
    inlet
    {
        type            calculated;
        value           nonuniform List<scalar> 8(580.749 544.031 507.286 470.578 433.865 397.187 360.539 323.924);
    }
    outlet
    {
        type            calculated;
        value           nonuniform List<scalar> 8(714.487 677.846 641.206 604.566 567.925 531.285 494.645 458.004);
    }
    sideWall
    {
        type            empty;
    }
    bed
    {
        type            calculated;
        value           nonuniform List<scalar> 
300
(
600.291
596.074
596.023
595.399
595.956
596.536
597.451
598.312
599.292
600.259
601.257
602.249
603.27
604.292
605.317
606.357
607.384
608.418
609.447
610.478
611.507
612.538
613.557
614.554
615.527
616.481
617.413
618.327
619.224
620.106
620.974
621.829
622.674
623.512
624.345
625.172
625.994
626.813
627.629
628.442
629.252
630.061
630.867
631.673
632.476
633.28
634.082
634.884
635.683
636.486
637.281
638.093
638.862
639.724
640.388
641.469
641.671
643.728
641.776
638.263
617.381
606.319
618.06
615.478
617.09
617.336
618.175
618.822
619.494
620.119
620.745
621.343
621.914
622.457
622.981
623.482
623.966
624.432
624.884
625.321
625.745
626.159
626.564
626.962
627.353
627.739
628.121
628.498
628.872
629.245
629.615
629.986
630.355
630.724
631.092
631.458
631.826
632.193
632.56
632.929
633.296
633.665
634.03
634.399
634.766
635.135
635.503
635.872
636.24
636.607
636.975
637.344
637.712
638.081
638.45
638.819
639.186
639.555
639.923
640.292
640.661
641.03
641.398
641.767
642.134
642.504
642.871
643.242
643.609
643.98
644.345
644.714
645.085
645.448
645.825
646.184
646.566
646.918
647.304
647.652
648.045
648.386
648.786
649.116
649.526
649.847
650.269
650.577
651.012
651.304
651.754
652.03
652.499
652.756
653.245
653.479
653.989
654.202
654.736
654.924
655.483
655.643
656.228
656.362
656.975
657.081
657.72
657.798
658.466
658.517
659.211
659.234
659.954
659.953
660.697
660.674
661.437
661.395
662.177
662.119
662.916
662.843
663.652
663.57
664.389
664.3
665.123
665.03
665.857
665.764
666.591
666.498
667.321
667.236
668.053
667.976
668.781
668.717
669.51
669.461
670.236
670.205
670.963
670.951
671.688
671.697
672.415
672.446
673.141
673.193
673.866
673.943
674.593
674.692
675.318
675.442
676.044
676.191
676.771
676.941
677.5
677.69
678.228
678.439
678.956
679.185
679.686
679.934
680.419
680.681
681.15
681.428
681.881
682.171
682.615
682.917
683.349
683.662
684.083
684.406
684.815
685.147
685.55
685.892
686.288
686.635
687.024
687.373
687.757
688.112
688.495
688.853
689.234
689.595
689.969
690.331
690.703
691.065
691.44
691.806
692.181
692.545
692.917
693.281
693.65
694.015
694.387
694.753
695.127
695.493
695.864
696.227
696.597
696.961
697.333
697.699
698.073
698.437
698.808
699.172
699.54
699.904
700.27
700.653
700.995
701.395
701.694
702.129
702.523
702.831
703.309
703.414
703.984
704.051
704.844
707.288
712.173
733.684
730.147
732.588
)
;
    }
    topWall
    {
        type            calculated;
        value           nonuniform List<scalar> 
300
(
306.825
303.055
302.955
302.33
302.887
303.449
304.352
305.212
306.191
307.155
308.151
309.144
310.164
311.185
312.208
313.251
314.276
315.308
316.336
317.366
318.394
319.424
320.441
321.437
322.407
323.361
324.292
325.206
326.102
326.984
327.851
328.706
329.552
330.389
331.222
332.049
332.872
333.691
334.506
335.319
336.129
336.938
337.744
338.55
339.354
340.157
340.959
341.761
342.561
343.363
344.158
344.97
345.739
346.601
347.265
348.345
348.545
350.565
348.571
353.334
346.772
337.862
345.715
343.228
344.569
344.65
345.22
345.635
346.095
346.528
346.974
347.409
347.84
348.262
348.68
349.091
349.497
349.896
350.292
350.683
351.07
351.454
351.835
352.213
352.59
352.964
353.337
353.71
354.08
354.45
354.819
355.189
355.558
355.927
356.296
356.663
357.031
357.4
357.767
358.136
358.504
358.873
359.24
359.609
359.977
360.346
360.714
361.082
361.451
361.819
362.187
362.556
362.924
363.293
363.661
364.03
364.397
364.766
365.134
365.503
365.871
366.24
366.609
366.978
367.345
367.715
368.081
368.452
368.818
369.19
369.556
369.924
370.296
370.658
371.035
371.393
371.775
372.128
372.514
372.862
373.254
373.595
373.995
374.327
374.737
375.059
375.479
375.789
376.223
376.518
376.967
377.246
377.712
377.973
378.459
378.698
379.206
379.423
379.953
380.147
380.702
380.87
381.45
381.592
382.199
382.315
382.947
383.036
383.696
383.758
384.444
384.48
385.19
385.204
385.936
385.929
386.68
386.655
387.423
387.382
388.164
388.11
388.904
388.84
389.643
389.573
390.379
390.306
391.115
391.041
391.85
391.777
392.582
392.516
393.314
393.257
394.043
393.999
394.772
394.742
395.5
395.486
396.226
396.232
396.952
396.977
397.678
397.724
398.403
398.471
399.128
399.219
399.854
399.966
400.578
400.714
401.303
401.46
402.029
402.208
402.756
402.955
403.482
403.701
404.209
404.445
404.937
405.191
405.667
405.936
406.397
406.679
407.126
407.42
407.857
408.163
408.59
408.906
409.322
409.647
410.052
410.385
410.784
411.127
411.521
411.869
412.256
412.606
412.988
413.342
413.723
414.081
414.461
414.822
415.196
415.558
415.93
416.292
416.665
417.03
417.405
417.77
418.141
418.506
418.874
419.239
419.61
419.976
420.35
420.716
421.087
421.451
421.82
422.184
422.555
422.921
423.296
423.661
424.032
424.396
424.765
425.129
425.493
425.879
426.218
426.633
426.941
427.344
427.735
428.042
428.534
428.655
429.412
429.173
429.952
432.003
427.835
440.256
436.963
439.433
)
;
    }
}


// ************************************************************************* //
