/*--------------------------------*- C++ -*----------------------------------*\
| =========                 |                                                 |
| \\      /  F ield         | foam-extend: Open Source CFD                    |
|  \\    /   O peration     | Version:     3.2                                |
|   \\  /    A nd           | Web:         http://www.foam-extend.org         |
|    \\/     M anipulation  | For copyright notice see file Copyright         |
\*---------------------------------------------------------------------------*/
FoamFile
{
    version     2.0;
    format      ascii;
    class       volScalarField;
    location    "2000";
    object      pd;
}
// * * * * * * * * * * * * * * * * * * * * * * * * * * * * * * * * * * * * * //

dimensions      [1 -1 -2 0 0 0 0];

internalField   nonuniform List<scalar> 
2400
(
599.069
592.409
589.916
586.85
584.964
583.101
581.574
579.992
578.53
577.053
575.608
574.158
572.736
571.316
569.898
568.496
567.08
565.671
564.257
562.846
561.432
560.02
558.596
557.151
555.681
554.192
552.682
551.153
549.607
548.046
546.472
544.884
543.287
541.682
540.072
538.456
536.836
535.213
533.585
531.955
530.323
528.689
527.053
525.416
523.777
522.138
520.496
518.856
517.213
515.573
513.925
512.294
510.62
509.04
507.261
505.9
503.659
503.273
498.879
501.595
491.975
480.22
486.331
481.203
480.14
477.765
475.899
473.872
471.89
469.881
467.884
465.878
463.867
461.846
459.822
457.79
455.754
453.71
451.664
449.612
447.556
445.498
443.436
441.372
439.305
437.237
435.168
433.097
431.024
428.952
426.879
424.806
422.732
420.658
418.584
416.509
414.435
412.36
410.285
408.212
406.136
404.063
401.987
399.914
397.838
395.765
393.69
391.616
389.542
387.467
385.393
383.318
381.244
379.17
377.095
375.022
372.947
370.873
368.798
366.725
364.65
362.576
360.502
358.428
356.352
354.28
352.204
350.132
348.055
345.984
343.908
341.833
339.762
337.682
335.616
333.531
331.471
329.38
327.324
325.229
323.179
321.077
319.036
316.923
314.892
312.769
310.749
308.614
306.608
304.457
302.467
300.299
298.327
296.14
294.189
291.98
290.051
287.819
285.914
283.657
281.778
279.494
277.641
275.33
273.505
271.167
269.368
267.002
265.232
262.838
261.095
258.675
256.957
254.512
252.817
250.352
248.676
246.192
244.534
242.033
240.391
237.876
236.245
233.721
232.098
229.567
227.95
225.415
223.8
221.265
219.65
217.116
215.497
212.969
211.342
208.825
207.186
204.681
203.03
200.54
198.871
196.399
194.712
192.26
190.552
188.12
186.392
183.982
182.232
179.844
178.071
175.707
173.91
171.57
169.749
167.432
165.588
163.294
161.428
159.156
157.269
155.018
153.11
150.879
148.951
146.738
144.793
142.599
140.638
138.459
136.482
134.317
132.325
130.172
128.171
126.03
124.018
121.888
119.864
117.744
115.709
113.597
111.556
109.454
107.407
105.31
103.256
101.162
99.1023
97.0129
94.9521
92.8671
90.8045
88.7232
86.6547
84.5735
82.5027
80.4215
78.3526
76.2749
74.207
72.1293
70.0578
67.9797
65.9052
63.827
61.7561
59.6792
57.6107
55.5341
53.4625
51.3831
49.3096
47.2305
45.1597
43.083
41.0149
38.9379
36.866
34.7867
32.713
30.6345
28.5561
26.4996
24.3946
22.3699
20.2297
18.1943
16.1424
14.006
12.0585
9.72911
8.055
5.31228
3.76205
3.23042
-3.80978
6.98415
1.00422
1.00263
598.992
592.466
589.928
586.859
584.974
583.11
581.58
579.998
578.534
577.057
575.611
574.16
572.737
571.316
569.898
568.496
567.08
565.67
564.256
562.845
561.431
560.019
558.595
557.15
555.68
554.191
552.681
551.152
549.606
548.046
546.471
544.883
543.286
541.682
540.071
538.456
536.836
535.212
533.585
531.955
530.323
528.689
527.053
525.416
523.777
522.138
520.496
518.856
517.213
515.573
513.925
512.294
510.62
509.04
507.261
505.899
503.66
503.273
498.84
501.502
492.01
480.33
486.297
481.212
480.14
477.769
475.9
473.874
471.891
469.882
467.885
465.878
463.867
461.847
459.822
457.79
455.754
453.71
451.664
449.612
447.556
445.498
443.436
441.372
439.305
437.237
435.168
433.097
431.024
428.952
426.879
424.806
422.732
420.658
418.584
416.509
414.435
412.36
410.285
408.212
406.136
404.063
401.987
399.914
397.838
395.765
393.69
391.616
389.542
387.467
385.393
383.318
381.244
379.17
377.095
375.022
372.947
370.873
368.798
366.725
364.65
362.576
360.502
358.428
356.352
354.28
352.204
350.132
348.055
345.984
343.908
341.833
339.762
337.682
335.616
333.531
331.471
329.38
327.324
325.229
323.179
321.077
319.036
316.923
314.892
312.769
310.749
308.614
306.608
304.457
302.467
300.299
298.327
296.14
294.189
291.98
290.05
287.819
285.913
283.657
281.777
279.494
277.64
275.331
273.504
271.167
269.368
267.003
265.232
262.839
261.095
258.675
256.956
254.513
252.817
250.352
248.676
246.192
244.533
242.034
240.39
237.876
236.244
233.721
232.098
229.568
227.949
225.415
223.8
221.265
219.649
217.116
215.496
212.97
211.342
208.826
207.186
204.682
203.029
200.541
198.871
196.4
194.712
192.26
190.552
188.121
186.392
183.983
182.231
179.844
178.07
175.707
173.91
171.57
169.749
167.433
165.588
163.294
161.427
159.157
157.269
155.019
153.11
150.879
148.951
146.738
144.793
142.599
140.638
138.459
136.482
134.317
132.325
130.172
128.17
126.03
124.018
121.889
119.864
117.745
115.709
113.598
111.556
109.454
107.406
105.311
103.256
101.162
99.1022
97.013
94.9521
92.8672
90.8044
88.7232
86.6547
84.5735
82.5027
80.4216
78.3526
76.2749
74.207
72.1293
70.0578
67.9796
65.9052
63.827
61.7561
59.6793
57.6106
55.5341
53.4625
51.3831
49.3097
47.2305
45.1597
43.083
41.0149
38.9379
36.866
34.7867
32.713
30.6346
28.5562
26.4996
24.3945
22.3696
20.2303
18.1942
16.1423
14.0062
12.0578
9.72863
8.0577
5.31838
3.74712
3.28573
-3.72222
6.91639
0.995772
1.00896
598.887
592.475
589.962
586.893
584.995
583.123
581.589
580.005
578.54
577.061
575.614
574.163
572.739
571.318
569.899
568.497
567.08
565.67
564.256
562.845
561.431
560.019
558.595
557.149
555.679
554.191
552.68
551.152
549.606
548.045
546.47
544.883
543.286
541.681
540.071
538.456
536.836
535.212
533.585
531.955
530.323
528.689
527.053
525.416
523.777
522.138
520.496
518.856
517.213
515.573
513.925
512.294
510.62
509.04
507.261
505.899
503.659
503.267
498.794
501.434
492.003
480.485
486.269
481.222
480.14
477.771
475.902
473.875
471.892
469.882
467.885
465.878
463.867
461.847
459.822
457.79
455.753
453.71
451.664
449.612
447.556
445.498
443.436
441.372
439.305
437.237
435.167
433.097
431.024
428.952
426.879
424.806
422.732
420.658
418.584
416.509
414.435
412.36
410.285
408.212
406.136
404.063
401.987
399.914
397.838
395.765
393.69
391.616
389.542
387.467
385.393
383.318
381.244
379.17
377.095
375.022
372.947
370.873
368.798
366.725
364.65
362.576
360.502
358.428
356.352
354.28
352.204
350.132
348.055
345.984
343.908
341.833
339.762
337.682
335.616
333.532
331.471
329.381
327.324
325.229
323.179
321.077
319.036
316.923
314.892
312.769
310.749
308.614
306.608
304.457
302.467
300.299
298.327
296.141
294.189
291.98
290.05
287.819
285.913
283.658
281.777
279.494
277.64
275.331
273.504
271.168
269.367
267.003
265.231
262.839
261.094
258.676
256.956
254.513
252.816
250.353
248.675
246.193
244.533
242.034
240.39
237.877
236.244
233.722
232.097
229.568
227.949
225.416
223.799
221.266
219.649
217.117
215.495
212.97
211.341
208.826
207.185
204.682
203.029
200.541
198.87
196.4
194.711
192.26
190.551
188.121
186.391
183.983
182.231
179.845
178.07
175.707
173.91
171.57
169.749
167.433
165.588
163.294
161.427
159.157
157.269
155.019
153.11
150.88
148.951
146.739
144.793
142.599
140.638
138.459
136.481
134.317
132.325
130.173
128.17
126.031
124.017
121.889
119.864
117.745
115.708
113.598
111.556
109.455
107.406
105.311
103.256
101.163
99.1022
97.0131
94.952
92.8673
90.8043
88.7232
86.6547
84.5735
82.5027
80.4216
78.3526
76.275
74.2069
72.1293
70.0578
67.9796
65.9053
63.8271
61.7561
59.6793
57.6106
55.5341
53.4625
51.3831
49.3097
47.2305
45.1597
43.0831
41.0149
38.9378
36.866
34.7866
32.713
30.6347
28.5562
26.4995
24.3945
22.3693
20.231
18.194
16.1422
14.0062
12.057
9.72917
8.05921
5.32637
3.7351
3.31928
-3.632
6.85766
0.986447
0.998217
598.82
592.498
589.981
586.905
585.01
583.134
581.599
580.012
578.546
577.067
575.619
574.168
572.744
571.321
569.902
568.499
567.082
565.672
564.258
562.846
561.432
560.02
558.595
557.149
555.679
554.191
552.68
551.152
549.606
548.045
546.47
544.883
543.286
541.681
540.071
538.456
536.836
535.212
533.585
531.955
530.323
528.689
527.053
525.416
523.777
522.137
520.496
518.856
517.213
515.573
513.925
512.294
510.62
509.04
507.261
505.899
503.658
503.258
498.766
501.36
492
480.619
486.237
481.229
480.141
477.773
475.903
473.876
471.892
469.883
467.886
465.878
463.868
461.847
459.822
457.79
455.754
453.71
451.664
449.612
447.556
445.498
443.436
441.372
439.305
437.237
435.167
433.097
431.024
428.952
426.879
424.806
422.732
420.658
418.584
416.509
414.435
412.36
410.285
408.212
406.136
404.063
401.987
399.914
397.838
395.765
393.69
391.616
389.542
387.467
385.393
383.318
381.244
379.17
377.096
375.022
372.947
370.873
368.798
366.725
364.65
362.576
360.502
358.428
356.352
354.28
352.204
350.132
348.055
345.984
343.908
341.833
339.762
337.682
335.616
333.532
331.47
329.381
327.324
325.229
323.179
321.077
319.035
316.923
314.891
312.769
310.749
308.614
306.608
304.457
302.466
300.3
298.326
296.141
294.188
291.981
290.049
287.82
285.912
283.658
281.776
279.495
277.639
275.332
273.503
271.169
269.366
267.005
265.23
262.841
261.093
258.677
256.954
254.515
252.814
250.355
248.673
246.194
244.531
242.036
240.388
237.879
236.242
233.724
232.095
229.57
227.947
225.418
223.797
221.268
219.647
217.119
215.494
212.972
211.34
208.828
207.184
204.684
203.027
200.543
198.869
196.401
194.71
192.262
190.55
188.122
186.39
183.984
182.23
179.846
178.069
175.708
173.909
171.571
169.748
167.434
165.587
163.295
161.427
159.157
157.268
155.019
153.109
150.88
148.95
146.739
144.792
142.6
140.637
138.46
136.481
134.318
132.324
130.173
128.169
126.031
124.017
121.889
119.864
117.745
115.708
113.598
111.555
109.455
107.406
105.311
103.256
101.163
99.1021
97.0132
94.9519
92.8674
90.8043
88.7233
86.6546
84.5735
82.5026
80.4217
78.3526
76.275
74.2069
72.1293
70.0577
67.9796
65.9053
63.8271
61.7561
59.6794
57.6106
55.5341
53.4625
51.383
49.3097
47.2306
45.1597
43.0831
41.0148
38.9378
36.866
34.7866
32.713
30.6348
28.5562
26.4994
24.3947
22.3688
20.2316
18.1938
16.1421
14.0063
12.0564
9.73042
8.05608
5.33828
3.72562
3.32577
-3.53654
6.80514
0.975695
0.990786
598.746
592.508
589.991
586.912
585.023
583.142
581.602
580.016
578.551
577.072
575.624
574.171
572.748
571.325
569.906
568.503
567.086
565.675
564.261
562.848
561.434
560.022
558.597
557.151
555.68
554.191
552.681
551.152
549.606
548.045
546.47
544.883
543.286
541.681
540.071
538.456
536.836
535.212
533.585
531.955
530.323
528.689
527.053
525.416
523.777
522.137
520.496
518.856
517.213
515.573
513.925
512.294
510.62
509.04
507.261
505.899
503.657
503.248
498.766
501.277
492.025
480.697
486.21
481.234
480.14
477.774
475.903
473.876
471.893
469.883
467.886
465.879
463.868
461.847
459.822
457.79
455.754
453.71
451.664
449.612
447.556
445.498
443.436
441.372
439.305
437.237
435.167
433.097
431.024
428.952
426.879
424.806
422.732
420.658
418.584
416.509
414.435
412.36
410.285
408.212
406.136
404.063
401.987
399.914
397.838
395.765
393.69
391.616
389.542
387.467
385.393
383.318
381.244
379.17
377.096
375.022
372.947
370.873
368.798
366.725
364.65
362.576
360.502
358.428
356.352
354.28
352.204
350.132
348.055
345.984
343.908
341.833
339.762
337.682
335.616
333.532
331.47
329.381
327.324
325.229
323.179
321.077
319.035
316.924
314.891
312.77
310.748
308.614
306.607
304.458
302.466
300.3
298.326
296.142
294.187
291.982
290.049
287.821
285.911
283.659
281.775
279.497
277.638
275.334
273.501
271.17
269.365
267.006
265.228
262.843
261.091
258.679
256.952
254.517
252.812
250.357
248.671
246.197
244.529
242.038
240.385
237.881
236.24
233.726
232.093
229.573
227.944
225.42
223.795
221.27
219.644
217.121
215.491
212.975
211.337
208.83
207.181
204.687
203.025
200.545
198.866
196.404
194.708
192.264
190.548
188.125
186.388
183.986
182.228
179.848
178.067
175.71
173.907
171.573
169.746
167.435
165.586
163.296
161.425
159.159
157.267
155.02
153.108
150.881
148.949
146.74
144.791
142.6
140.636
138.46
136.48
134.318
132.324
130.174
128.169
126.032
124.017
121.89
119.863
117.745
115.708
113.598
111.555
109.455
107.406
105.311
103.256
101.163
99.1021
97.0133
94.9519
92.8674
90.8042
88.7233
86.6546
84.5735
82.5026
80.4217
78.3526
76.275
74.2069
72.1293
70.0577
67.9796
65.9053
63.8271
61.7561
59.6794
57.6106
55.534
53.4624
51.383
49.3097
47.2306
45.1598
43.0831
41.0148
38.9378
36.8659
34.7866
32.713
30.6348
28.5562
26.4993
24.3949
22.3684
20.2322
18.1936
16.142
14.0063
12.0558
9.73165
8.05185
5.35012
3.71738
3.3224
-3.44495
6.75605
0.964501
0.98342
598.709
592.505
589.986
586.919
585.026
583.143
581.602
580.019
578.554
577.074
575.626
574.175
572.751
571.329
569.91
568.506
567.089
565.679
564.265
562.852
561.438
560.024
558.599
557.152
555.681
554.192
552.682
551.153
549.607
548.046
546.471
544.883
543.286
541.682
540.071
538.456
536.836
535.212
533.585
531.955
530.323
528.689
527.053
525.416
523.777
522.138
520.496
518.856
517.213
515.573
513.925
512.294
510.62
509.04
507.261
505.899
503.657
503.241
498.779
501.199
492.073
480.726
486.188
481.237
480.139
477.775
475.904
473.877
471.893
469.884
467.887
465.879
463.868
461.847
459.822
457.79
455.754
453.71
451.664
449.612
447.556
445.498
443.436
441.372
439.305
437.237
435.167
433.097
431.024
428.952
426.879
424.806
422.732
420.658
418.584
416.509
414.435
412.36
410.285
408.212
406.136
404.063
401.987
399.914
397.838
395.765
393.69
391.616
389.542
387.467
385.393
383.318
381.244
379.17
377.096
375.022
372.947
370.873
368.798
366.725
364.65
362.576
360.502
358.428
356.352
354.28
352.204
350.132
348.055
345.984
343.908
341.833
339.762
337.682
335.616
333.532
331.47
329.381
327.324
325.229
323.179
321.077
319.035
316.924
314.891
312.77
310.748
308.615
306.607
304.458
302.465
300.301
298.325
296.142
294.187
291.982
290.048
287.822
285.91
283.66
281.774
279.497
277.637
275.334
273.5
271.172
269.363
267.007
265.227
262.844
261.09
258.681
256.951
254.519
252.811
250.358
248.669
246.198
244.527
242.04
240.384
237.883
236.238
233.728
232.091
229.575
227.942
225.422
223.793
221.272
219.642
217.123
215.489
212.976
211.335
208.832
207.179
204.688
203.023
200.547
198.865
196.405
194.706
192.266
190.546
188.126
186.387
183.987
182.227
179.849
178.066
175.711
173.906
171.574
169.745
167.436
165.585
163.297
161.425
159.159
157.266
155.021
153.107
150.882
148.949
146.741
144.791
142.601
140.636
138.461
136.48
134.318
132.324
130.174
128.169
126.032
124.016
121.89
119.863
117.745
115.708
113.598
111.555
109.455
107.406
105.311
103.256
101.163
99.102
97.0133
94.9518
92.8675
90.8041
88.7233
86.6546
84.5735
82.5026
80.4217
78.3526
76.275
74.2068
72.1293
70.0577
67.9796
65.9053
63.8272
61.7561
59.6794
57.6105
55.534
53.4624
51.383
49.3097
47.2306
45.1598
43.0832
41.0148
38.9378
36.8659
34.7866
32.713
30.6349
28.5562
26.4993
24.395
22.368
20.2326
18.1935
16.1419
14.0064
12.0554
9.73257
8.04874
5.35925
3.71039
3.31693
-3.37268
6.71787
0.954364
0.977411
598.701
592.507
589.975
586.911
585.023
583.14
581.601
580.018
578.553
577.074
575.626
574.177
572.753
571.331
569.912
568.51
567.093
565.682
564.268
562.855
561.441
560.027
558.601
557.154
555.683
554.194
552.683
551.154
549.608
548.047
546.472
544.884
543.287
541.682
540.072
538.457
536.836
535.213
533.585
531.955
530.323
528.689
527.053
525.416
523.777
522.138
520.496
518.856
517.213
515.573
513.925
512.294
510.62
509.04
507.261
505.899
503.656
503.236
498.791
501.143
492.099
480.749
486.176
481.239
480.139
477.776
475.904
473.877
471.893
469.884
467.887
465.879
463.868
461.847
459.822
457.79
455.754
453.71
451.664
449.612
447.556
445.498
443.436
441.372
439.305
437.237
435.167
433.097
431.024
428.952
426.879
424.806
422.732
420.658
418.584
416.509
414.435
412.36
410.285
408.212
406.136
404.063
401.987
399.914
397.838
395.765
393.69
391.616
389.542
387.467
385.393
383.318
381.244
379.17
377.096
375.022
372.947
370.873
368.798
366.725
364.65
362.576
360.502
358.428
356.352
354.28
352.204
350.132
348.055
345.984
343.908
341.833
339.762
337.682
335.616
333.532
331.47
329.381
327.324
325.229
323.179
321.077
319.035
316.924
314.891
312.77
310.748
308.615
306.607
304.458
302.465
300.301
298.325
296.143
294.186
291.983
290.048
287.822
285.91
283.661
281.773
279.498
277.636
275.335
273.5
271.172
269.363
267.008
265.226
262.845
261.089
258.681
256.95
254.52
252.81
250.359
248.668
246.199
244.526
242.041
240.382
237.884
236.237
233.729
232.09
229.576
227.941
225.423
223.792
221.273
219.641
217.124
215.488
212.978
211.334
208.833
207.178
204.689
203.022
200.548
198.864
196.406
194.705
192.267
190.545
188.127
186.386
183.988
182.226
179.85
178.065
175.712
173.905
171.574
169.745
167.437
165.584
163.298
161.424
159.16
157.266
155.022
153.107
150.882
148.948
146.741
144.791
142.601
140.635
138.461
136.48
134.319
132.323
130.174
128.169
126.032
124.016
121.89
119.863
117.746
115.708
113.599
111.555
109.455
107.406
105.311
103.256
101.163
99.102
97.0134
94.9518
92.8675
90.8041
88.7233
86.6546
84.5735
82.5026
80.4218
78.3526
76.2751
74.2068
72.1293
70.0577
67.9796
65.9053
63.8272
61.7561
59.6794
57.6105
55.534
53.4624
51.383
49.3097
47.2306
45.1598
43.0832
41.0147
38.9378
36.8659
34.7866
32.713
30.6349
28.5562
26.4992
24.3951
22.3678
20.2328
18.1934
16.1419
14.0064
12.0552
9.73324
8.04769
5.3643
3.70541
3.31326
-3.32462
6.69251
0.9466
0.973139
598.727
592.514
589.971
586.904
585.018
583.137
581.597
580.015
578.551
577.073
575.625
574.176
572.753
571.331
569.912
568.512
567.094
565.683
564.269
562.856
561.442
560.029
558.604
557.156
555.684
554.195
552.684
551.155
549.608
548.047
546.472
544.884
543.287
541.682
540.072
538.457
536.836
535.213
533.585
531.956
530.323
528.689
527.053
525.416
523.777
522.138
520.496
518.856
517.213
515.573
513.925
512.294
510.621
509.04
507.261
505.899
503.656
503.233
498.797
501.116
492.112
480.76
486.17
481.24
480.138
477.776
475.904
473.877
471.894
469.884
467.887
465.879
463.868
461.847
459.822
457.79
455.754
453.71
451.664
449.612
447.556
445.498
443.436
441.372
439.305
437.237
435.167
433.097
431.024
428.952
426.879
424.806
422.732
420.658
418.584
416.509
414.435
412.36
410.285
408.212
406.136
404.063
401.987
399.914
397.838
395.765
393.69
391.616
389.542
387.467
385.393
383.318
381.244
379.17
377.096
375.022
372.947
370.873
368.798
366.725
364.65
362.576
360.502
358.428
356.352
354.28
352.204
350.132
348.055
345.984
343.908
341.833
339.762
337.682
335.616
333.532
331.47
329.381
327.324
325.229
323.179
321.077
319.035
316.924
314.891
312.77
310.748
308.615
306.607
304.458
302.465
300.301
298.325
296.143
294.186
291.983
290.047
287.822
285.91
283.661
281.773
279.498
277.636
275.335
273.499
271.173
269.362
267.009
265.225
262.845
261.088
258.682
256.949
254.52
252.809
250.36
248.668
246.2
244.525
242.042
240.382
237.885
236.236
233.73
232.089
229.576
227.941
225.424
223.791
221.274
219.64
217.125
215.487
212.978
211.333
208.834
207.178
204.69
203.021
200.548
198.863
196.407
194.704
192.267
190.545
188.127
186.385
183.989
182.225
179.85
178.065
175.713
173.905
171.575
169.744
167.437
165.584
163.298
161.424
159.16
157.265
155.022
153.107
150.882
148.948
146.741
144.79
142.601
140.635
138.461
136.479
134.319
132.323
130.174
128.169
126.032
124.016
121.89
119.863
117.746
115.708
113.599
111.555
109.455
107.406
105.311
103.256
101.163
99.102
97.0134
94.9518
92.8676
90.8041
88.7233
86.6546
84.5735
82.5026
80.4218
78.3526
76.2751
74.2068
72.1293
70.0577
67.9796
65.9053
63.8272
61.7561
59.6794
57.6105
55.534
53.4624
51.383
49.3097
47.2306
45.1598
43.0832
41.0147
38.9378
36.8659
34.7866
32.713
30.635
28.5562
26.4992
24.3951
22.3677
20.2329
18.1934
16.1419
14.0064
12.055
9.73353
8.04775
5.36632
3.70301
3.31067
-3.29984
6.67896
0.943186
0.970606
)
;

boundaryField
{
    inlet
    {
        type            buoyantPressure;
        gradient        nonuniform List<scalar> 8(-6.69161e-13 2.53445e-11 1.6729e-12 -2.75192e-11 -1.20449e-11 -5.52058e-12 4.7845e-11 2.38389e-11);
        rho             rho;
        value           nonuniform List<scalar> 8(599.069 598.992 598.887 598.82 598.746 598.709 598.701 598.727);
    }
    outlet
    {
        type            fixedValue;
        value           uniform 0;
    }
    sideWall
    {
        type            empty;
    }
    bed
    {
        type            buoyantPressure;
        gradient        uniform -0;
        rho             rho;
        value           nonuniform List<scalar> 
300
(
599.069
592.409
589.916
586.85
584.964
583.101
581.574
579.992
578.53
577.053
575.608
574.158
572.736
571.316
569.898
568.496
567.08
565.671
564.257
562.846
561.432
560.02
558.596
557.151
555.681
554.192
552.682
551.153
549.607
548.046
546.472
544.884
543.287
541.682
540.072
538.456
536.836
535.213
533.585
531.955
530.323
528.689
527.053
525.416
523.777
522.138
520.496
518.856
517.213
515.573
513.925
512.294
510.62
509.04
507.261
505.9
503.659
503.273
498.879
501.595
491.975
480.22
486.331
481.203
480.14
477.765
475.899
473.872
471.89
469.881
467.884
465.878
463.867
461.846
459.822
457.79
455.754
453.71
451.664
449.612
447.556
445.498
443.436
441.372
439.305
437.237
435.168
433.097
431.024
428.952
426.879
424.806
422.732
420.658
418.584
416.509
414.435
412.36
410.285
408.212
406.136
404.063
401.987
399.914
397.838
395.765
393.69
391.616
389.542
387.467
385.393
383.318
381.244
379.17
377.095
375.022
372.947
370.873
368.798
366.725
364.65
362.576
360.502
358.428
356.352
354.28
352.204
350.132
348.055
345.984
343.908
341.833
339.762
337.682
335.616
333.531
331.471
329.38
327.324
325.229
323.179
321.077
319.036
316.923
314.892
312.769
310.749
308.614
306.608
304.457
302.467
300.299
298.327
296.14
294.189
291.98
290.051
287.819
285.914
283.657
281.778
279.494
277.641
275.33
273.505
271.167
269.368
267.002
265.232
262.838
261.095
258.675
256.957
254.512
252.817
250.352
248.676
246.192
244.534
242.033
240.391
237.876
236.245
233.721
232.098
229.567
227.95
225.415
223.8
221.265
219.65
217.116
215.497
212.969
211.342
208.825
207.186
204.681
203.03
200.54
198.871
196.399
194.712
192.26
190.552
188.12
186.392
183.982
182.232
179.844
178.071
175.707
173.91
171.57
169.749
167.432
165.588
163.294
161.428
159.156
157.269
155.018
153.11
150.879
148.951
146.738
144.793
142.599
140.638
138.459
136.482
134.317
132.325
130.172
128.171
126.03
124.018
121.888
119.864
117.744
115.709
113.597
111.556
109.454
107.407
105.31
103.256
101.162
99.1023
97.0129
94.9521
92.8671
90.8045
88.7232
86.6547
84.5735
82.5027
80.4215
78.3526
76.2749
74.207
72.1293
70.0578
67.9797
65.9052
63.827
61.7561
59.6792
57.6107
55.5341
53.4625
51.3831
49.3096
47.2305
45.1597
43.083
41.0149
38.9379
36.866
34.7867
32.713
30.6345
28.5561
26.4996
24.3946
22.3699
20.2297
18.1943
16.1424
14.006
12.0585
9.72911
8.055
5.31228
3.76205
3.23042
-3.80978
6.98415
1.00422
1.00263
)
;
    }
    topWall
    {
        type            slip;
        value           nonuniform List<scalar> 
300
(
598.727
592.514
589.971
586.904
585.018
583.137
581.597
580.015
578.551
577.073
575.625
574.176
572.753
571.331
569.912
568.512
567.094
565.683
564.269
562.856
561.442
560.029
558.604
557.156
555.684
554.195
552.684
551.155
549.608
548.047
546.472
544.884
543.287
541.682
540.072
538.457
536.836
535.213
533.585
531.956
530.323
528.689
527.053
525.416
523.777
522.138
520.496
518.856
517.213
515.573
513.925
512.294
510.621
509.04
507.261
505.899
503.656
503.233
498.797
501.116
492.112
480.76
486.17
481.24
480.138
477.776
475.904
473.877
471.894
469.884
467.887
465.879
463.868
461.847
459.822
457.79
455.754
453.71
451.664
449.612
447.556
445.498
443.436
441.372
439.305
437.237
435.167
433.097
431.024
428.952
426.879
424.806
422.732
420.658
418.584
416.509
414.435
412.36
410.285
408.212
406.136
404.063
401.987
399.914
397.838
395.765
393.69
391.616
389.542
387.467
385.393
383.318
381.244
379.17
377.096
375.022
372.947
370.873
368.798
366.725
364.65
362.576
360.502
358.428
356.352
354.28
352.204
350.132
348.055
345.984
343.908
341.833
339.762
337.682
335.616
333.532
331.47
329.381
327.324
325.229
323.179
321.077
319.035
316.924
314.891
312.77
310.748
308.615
306.607
304.458
302.465
300.301
298.325
296.143
294.186
291.983
290.047
287.822
285.91
283.661
281.773
279.498
277.636
275.335
273.499
271.173
269.362
267.009
265.225
262.845
261.088
258.682
256.949
254.52
252.809
250.36
248.668
246.2
244.525
242.042
240.382
237.885
236.236
233.73
232.089
229.576
227.941
225.424
223.791
221.274
219.64
217.125
215.487
212.978
211.333
208.834
207.178
204.69
203.021
200.548
198.863
196.407
194.704
192.267
190.545
188.127
186.385
183.989
182.225
179.85
178.065
175.713
173.905
171.575
169.744
167.437
165.584
163.298
161.424
159.16
157.265
155.022
153.107
150.882
148.948
146.741
144.79
142.601
140.635
138.461
136.479
134.319
132.323
130.174
128.169
126.032
124.016
121.89
119.863
117.746
115.708
113.599
111.555
109.455
107.406
105.311
103.256
101.163
99.102
97.0134
94.9518
92.8676
90.8041
88.7233
86.6546
84.5735
82.5026
80.4218
78.3526
76.2751
74.2068
72.1293
70.0577
67.9796
65.9053
63.8272
61.7561
59.6794
57.6105
55.534
53.4624
51.383
49.3097
47.2306
45.1598
43.0832
41.0147
38.9378
36.8659
34.7866
32.713
30.635
28.5562
26.4992
24.3951
22.3677
20.2329
18.1934
16.1419
14.0064
12.055
9.73353
8.04775
5.36632
3.70301
3.31067
-3.29984
6.67896
0.943186
0.970606
)
;
    }
}


// ************************************************************************* //
