/*--------------------------------*- C++ -*----------------------------------*\
| =========                 |                                                 |
| \\      /  F ield         | foam-extend: Open Source CFD                    |
|  \\    /   O peration     | Version:     3.2                                |
|   \\  /    A nd           | Web:         http://www.foam-extend.org         |
|    \\/     M anipulation  | For copyright notice see file Copyright         |
\*---------------------------------------------------------------------------*/
FoamFile
{
    version     2.0;
    format      ascii;
    class       areaScalarField;
    location    "2000";
    object      Pef;
}
// * * * * * * * * * * * * * * * * * * * * * * * * * * * * * * * * * * * * * //

dimensions      [0 0 0 0 0 0 0];

internalField   nonuniform List<scalar> 
300
(
0.343682
0.439685
0.359061
0.288977
0.248494
0.231747
0.225248
0.224446
0.225526
0.22774
0.230404
0.233115
0.235743
0.238516
0.241174
0.24387
0.246725
0.249573
0.252488
0.255423
0.258363
0.26131
0.26434
0.267454
0.270466
0.273238
0.27574
0.277941
0.279852
0.281487
0.282889
0.284086
0.285085
0.285904
0.286559
0.287101
0.28755
0.287931
0.288248
0.288522
0.288748
0.288949
0.289111
0.28926
0.289373
0.289486
0.289564
0.289651
0.289703
0.28978
0.289785
0.289915
0.289765
0.290171
0.289398
0.291087
0.287482
0.29433
0.269396
0.311982
0.433486
0.413346
0.362258
0.363223
0.358391
0.358658
0.357929
0.357981
0.35801
0.358232
0.358285
0.35837
0.358477
0.358598
0.358698
0.358779
0.35885
0.358909
0.35894
0.358976
0.359004
0.359024
0.359037
0.359047
0.359051
0.359057
0.359053
0.35906
0.359069
0.359069
0.359071
0.359068
0.359068
0.359062
0.359066
0.359071
0.359071
0.359075
0.359071
0.359073
0.359063
0.35907
0.359075
0.359077
0.359077
0.359075
0.359074
0.359068
0.359071
0.359078
0.359078
0.359079
0.359076
0.359074
0.359067
0.35907
0.359077
0.359078
0.359077
0.359076
0.359069
0.359069
0.359064
0.35908
0.359071
0.359079
0.359068
0.359072
0.359064
0.35906
0.359079
0.359051
0.359091
0.359047
0.359088
0.359028
0.359095
0.359028
0.359111
0.359013
0.359121
0.358992
0.35913
0.358984
0.359151
0.358963
0.359167
0.358934
0.359181
0.358919
0.359207
0.358891
0.359228
0.358856
0.359246
0.358837
0.359275
0.358805
0.359297
0.358768
0.359316
0.358748
0.359342
0.358719
0.359357
0.358689
0.359387
0.35867
0.359402
0.358645
0.359411
0.35864
0.359424
0.358629
0.359424
0.358618
0.359436
0.35862
0.359433
0.358618
0.359423
0.358635
0.359418
0.358645
0.359401
0.358655
0.359397
0.358675
0.35938
0.35869
0.359357
0.358723
0.359339
0.358748
0.35931
0.358771
0.359295
0.358804
0.35927
0.358832
0.359224
0.358843
0.359175
0.358845
0.35923
0.358929
0.359215
0.358952
0.358997
0.358793
0.358926
0.358748
0.359174
0.359039
0.35917
0.359057
0.358657
0.358557
0.358561
0.35847
0.359149
0.359117
0.359149
0.359123
0.358225
0.358158
0.358115
0.358046
0.35914
0.359154
0.359139
0.359152
0.357744
0.357666
0.357628
0.357548
0.359141
0.359164
0.359136
0.359159
0.357266
0.357141
0.357148
0.357024
0.359139
0.359145
0.359135
0.359147
0.356809
0.356634
0.356703
0.356547
0.359126
0.35913
0.359128
0.359125
0.356402
0.356198
0.356321
0.356118
0.359119
0.359121
0.359115
0.359115
0.356047
0.355786
0.355971
0.355723
0.35912
0.359108
0.359113
0.359113
0.355704
0.355372
0.355641
0.355294
0.359113
0.359115
0.359117
0.35911
0.355365
0.354951
0.355236
0.354931
0.358974
0.359186
0.359325
0.354124
0.354942
0.353419
0.356087
0.353743
0.356748
0.360599
0.35051
0.391991
0.29924
0.245432
0.27196
0.278112
)
;

boundaryField
{
    inlet
    {
        type            calculated;
        value           uniform 0;
    }
    outlet
    {
        type            calculated;
        value           uniform 0;
    }
    sideWall
    {
        type            empty;
    }
}


// ************************************************************************* //
