/*--------------------------------*- C++ -*----------------------------------*\
| =========                 |                                                 |
| \\      /  F ield         | foam-extend: Open Source CFD                    |
|  \\    /   O peration     | Version:     3.2                                |
|   \\  /    A nd           | Web:         http://www.foam-extend.org         |
|    \\/     M anipulation  | For copyright notice see file Copyright         |
\*---------------------------------------------------------------------------*/
FoamFile
{
    version     2.0;
    format      ascii;
    class       surfaceScalarField;
    location    "2000";
    object      phi;
}
// * * * * * * * * * * * * * * * * * * * * * * * * * * * * * * * * * * * * * //

dimensions      [0 3 -1 0 0 0 0];

internalField   nonuniform List<scalar> 
4492
(
1.69374e-05
5.28133e-06
1.38536e-05
3.08381e-06
1.19526e-05
1.90102e-06
1.10666e-05
8.86006e-07
1.07113e-05
3.553e-07
1.05812e-05
1.3009e-07
1.05519e-05
2.93275e-08
1.05647e-05
-1.28703e-08
1.05974e-05
-3.26527e-08
1.06398e-05
-4.24507e-08
1.06847e-05
-4.48841e-08
1.07262e-05
-4.15089e-08
1.07693e-05
-4.30596e-08
1.08117e-05
-4.23616e-08
1.08518e-05
-4.01218e-08
1.08956e-05
-4.37816e-08
1.09395e-05
-4.39887e-08
1.09836e-05
-4.40212e-08
1.10279e-05
-4.43187e-08
1.10721e-05
-4.42163e-08
1.11163e-05
-4.42163e-08
1.11627e-05
-4.64292e-08
1.12125e-05
-4.97382e-08
1.12628e-05
-5.02719e-08
1.13096e-05
-4.68524e-08
1.13522e-05
-4.25938e-08
1.139e-05
-3.78143e-08
1.1423e-05
-3.30237e-08
1.14515e-05
-2.84274e-08
1.14759e-05
-2.44051e-08
1.14969e-05
-2.10014e-08
1.15145e-05
-1.76608e-08
1.1529e-05
-1.44663e-08
1.15406e-05
-1.16028e-08
1.15501e-05
-9.44561e-09
1.1558e-05
-7.92681e-09
1.15646e-05
-6.65359e-09
1.15703e-05
-5.62582e-09
1.1575e-05
-4.76357e-09
1.15791e-05
-4.05746e-09
1.15825e-05
-3.45239e-09
1.15855e-05
-2.942e-09
1.1588e-05
-2.51096e-09
1.15901e-05
-2.13439e-09
1.15919e-05
-1.81551e-09
1.15935e-05
-1.5714e-09
1.15948e-05
-1.30228e-09
1.1596e-05
-1.18982e-09
1.1597e-05
-9.82771e-10
1.15978e-05
-7.77051e-10
1.15986e-05
-8.27608e-10
1.15991e-05
-5.18851e-10
1.15996e-05
-5.28603e-10
1.15999e-05
-2.64485e-10
1.16004e-05
-4.86078e-10
1.15987e-05
1.71761e-09
1.15908e-05
7.83668e-09
1.14437e-05
1.47148e-07
1.16874e-05
-2.43684e-07
1.38196e-05
-2.13223e-06
1.42637e-05
-4.4413e-07
1.26779e-05
1.58584e-06
1.262e-05
5.79137e-08
1.25924e-05
2.75737e-08
1.25881e-05
4.25766e-09
1.25764e-05
1.17638e-08
1.25728e-05
3.61877e-09
1.25728e-05
-5.57866e-11
1.25755e-05
-2.70092e-09
1.25772e-05
-1.73941e-09
1.25788e-05
-1.54941e-09
1.25814e-05
-2.55979e-09
1.25845e-05
-3.12301e-09
1.25873e-05
-2.80793e-09
1.25898e-05
-2.47567e-09
1.25919e-05
-2.1844e-09
1.2594e-05
-2.05773e-09
1.25955e-05
-1.50543e-09
1.25969e-05
-1.38116e-09
1.25982e-05
-1.32202e-09
1.25992e-05
-1.01261e-09
1.26001e-05
-8.54684e-10
1.26007e-05
-6.70713e-10
1.26013e-05
-5.3926e-10
1.26017e-05
-4.36496e-10
1.2602e-05
-3.08257e-10
1.26023e-05
-2.71945e-10
1.26027e-05
-4.24068e-10
1.26029e-05
-1.51804e-10
1.2603e-05
-1.52708e-10
1.26031e-05
-4.5961e-11
1.26031e-05
-4.89659e-11
1.26031e-05
2.50222e-11
1.26031e-05
-4.64274e-11
1.26033e-05
-1.96971e-10
1.26034e-05
-2.8471e-11
1.26034e-05
-5.78078e-12
1.26034e-05
1.51394e-11
1.26033e-05
4.25045e-11
1.26033e-05
4.29911e-11
1.26032e-05
6.67739e-11
1.26034e-05
-2.26165e-10
1.26034e-05
4.09083e-11
1.26034e-05
-3.23433e-11
1.26033e-05
8.19656e-11
1.26033e-05
-2.89959e-12
1.26032e-05
9.85819e-11
1.26032e-05
2.19536e-12
1.26034e-05
-1.56208e-10
1.26034e-05
-1.39991e-11
1.26034e-05
2.52426e-11
1.26034e-05
2.54553e-11
1.26033e-05
5.64637e-11
1.26032e-05
6.14206e-11
1.26032e-05
3.60409e-11
1.26034e-05
-1.81651e-10
1.26034e-05
1.05188e-11
1.26034e-05
7.85209e-13
1.26033e-05
5.58117e-11
1.26033e-05
2.71767e-11
1.26032e-05
8.5354e-11
1.26032e-05
-3.1985e-12
1.26033e-05
-1.25956e-10
1.26034e-05
-5.68028e-11
1.26033e-05
1.18662e-10
1.26034e-05
-9.05868e-11
1.26032e-05
2.02672e-10
1.26033e-05
-1.092e-10
1.26031e-05
2.19155e-10
1.26034e-05
-3.44962e-10
1.26033e-05
1.28076e-10
1.26033e-05
-7.81398e-11
1.26033e-05
5.95907e-12
1.26031e-05
2.88066e-10
1.26033e-05
-2.82927e-10
1.26028e-05
5.64597e-10
1.26036e-05
-7.93825e-10
1.26028e-05
7.44668e-10
1.26037e-05
-8.718e-10
1.26026e-05
1.08932e-09
1.26038e-05
-1.18913e-09
1.26023e-05
1.51615e-09
1.26041e-05
-1.87891e-09
1.26022e-05
1.97819e-09
1.26044e-05
-2.22629e-09
1.26018e-05
2.59661e-09
1.26046e-05
-2.83477e-09
1.26013e-05
3.32479e-09
1.26051e-05
-3.85201e-09
1.2601e-05
4.11945e-09
1.26056e-05
-4.54344e-09
1.26005e-05
5.09913e-09
1.2606e-05
-5.51733e-09
1.25998e-05
6.19529e-09
1.26067e-05
-6.90235e-09
1.25993e-05
7.35634e-09
1.26072e-05
-7.96129e-09
1.25985e-05
8.69801e-09
1.26078e-05
-9.28838e-09
1.25977e-05
1.01271e-08
1.26087e-05
-1.09972e-08
1.25971e-05
1.16064e-08
1.26094e-05
-1.23441e-08
1.25962e-05
1.32067e-08
1.26101e-05
-1.38949e-08
1.25955e-05
1.45552e-08
1.2611e-05
-1.55162e-08
1.25946e-05
1.6345e-08
1.26117e-05
-1.70695e-08
1.25937e-05
1.79485e-08
1.26126e-05
-1.88591e-08
1.25931e-05
1.94444e-08
1.26133e-05
-2.0132e-08
1.25924e-05
2.08769e-08
1.26138e-05
-2.14264e-08
1.25919e-05
2.18928e-08
1.26145e-05
-2.2618e-08
1.25913e-05
2.31633e-08
1.26149e-05
-2.35784e-08
1.25908e-05
2.41111e-08
1.26154e-05
-2.46609e-08
1.25905e-05
2.4868e-08
1.26157e-05
-2.51638e-08
1.25902e-05
2.55012e-08
1.26158e-05
-2.56327e-08
1.25901e-05
2.568e-08
1.26161e-05
-2.59684e-08
1.259e-05
2.60829e-08
1.2616e-05
-2.60532e-08
1.25899e-05
2.61495e-08
1.26161e-05
-2.62403e-08
1.25901e-05
2.60004e-08
1.26159e-05
-2.58163e-08
1.25902e-05
2.57086e-08
1.26156e-05
-2.53628e-08
1.25906e-05
2.49485e-08
1.26154e-05
-2.47513e-08
1.2591e-05
2.43882e-08
1.26149e-05
-2.39203e-08
1.25916e-05
2.32759e-08
1.26146e-05
-2.30104e-08
1.25922e-05
2.2461e-08
1.26141e-05
-2.18962e-08
1.25929e-05
2.12031e-08
1.26137e-05
-2.07091e-08
1.25936e-05
2.01388e-08
1.26131e-05
-1.94953e-08
1.25942e-05
1.87627e-08
1.26126e-05
-1.84938e-08
1.2595e-05
1.74797e-08
1.26119e-05
-1.6817e-08
1.25957e-05
1.64121e-08
1.26114e-05
-1.55049e-08
1.25966e-05
1.49215e-08
1.26108e-05
-1.42524e-08
1.25973e-05
1.32193e-08
1.26103e-05
-1.33438e-08
1.2598e-05
1.20939e-08
1.26096e-05
-1.14212e-08
1.25986e-05
1.14088e-08
1.26092e-05
-1.00551e-08
1.25994e-05
9.91572e-09
1.26086e-05
-9.30532e-09
1.26e-05
8.05101e-09
1.26082e-05
-8.84441e-09
1.26005e-05
7.42196e-09
1.26076e-05
-6.81678e-09
1.26009e-05
7.41235e-09
1.26073e-05
-5.58168e-09
1.26016e-05
6.05075e-09
1.26068e-05
-5.54233e-09
1.26019e-05
3.98558e-09
1.26063e-05
-5.36925e-09
1.26024e-05
3.62627e-09
1.26059e-05
-3.20508e-09
1.26027e-05
4.27667e-09
1.26058e-05
-1.8949e-09
1.26031e-05
3.12833e-09
1.26055e-05
-2.77971e-09
1.26034e-05
8.52876e-10
1.26052e-05
-3.15853e-09
1.26033e-05
1.40507e-09
1.26048e-05
-1.01495e-09
1.26035e-05
2.7159e-09
1.26047e-05
2.4947e-10
1.26037e-05
1.55577e-09
1.26048e-05
-1.54234e-09
1.26039e-05
-6.78125e-10
1.26045e-05
-2.22492e-09
1.26037e-05
2.33053e-10
1.26043e-05
-7.69067e-11
1.26037e-05
2.30168e-09
1.26042e-05
1.30108e-09
1.2604e-05
8.44544e-10
1.26043e-05
-8.76506e-10
1.2604e-05
-1.53806e-09
1.26042e-05
-2.17639e-09
1.26038e-05
-2.60954e-10
1.26039e-05
5.25276e-10
1.26037e-05
2.24159e-09
1.2604e-05
1.67251e-09
1.26039e-05
8.50893e-10
1.26041e-05
-8.14646e-10
1.2604e-05
-2.07215e-09
1.2604e-05
-2.12724e-09
1.26037e-05
-4.67283e-10
1.26039e-05
5.00779e-10
1.26037e-05
2.4249e-09
1.26039e-05
2.08319e-09
1.26038e-05
9.19908e-10
1.26041e-05
-1.05019e-09
1.26039e-05
-2.10701e-09
1.26039e-05
-2.46971e-09
1.26037e-05
-6.52281e-10
1.26038e-05
6.56914e-10
1.26036e-05
2.74647e-09
1.2604e-05
2.1468e-09
1.2604e-05
9.31281e-10
1.26041e-05
-9.55962e-10
1.26038e-05
-2.28621e-09
1.26042e-05
-3.14257e-09
1.26037e-05
-4.9856e-10
1.26042e-05
3.72661e-10
1.26039e-05
3.0512e-09
1.26019e-05
4.87921e-09
1.2609e-05
-5.86941e-09
1.26024e-05
6.76574e-09
1.26014e-05
9.90559e-10
1.26017e-05
-2.62831e-10
1.26013e-05
3.87759e-10
1.25963e-05
4.95519e-09
1.2607e-05
-1.06165e-08
1.26592e-05
-5.22327e-08
1.25153e-05
1.43873e-07
1.28935e-05
-3.78202e-07
1.22386e-05
6.54918e-07
1.01883e-05
2.05028e-06
1.08919e-05
-7.03614e-07
1.1279e-05
-3.87062e-07
-9.28193e-08
2.17086e-05
5.79152e-06
2.06846e-05
4.10772e-06
1.95879e-05
2.99777e-06
1.87131e-05
1.76086e-06
1.81467e-05
9.2168e-07
1.77807e-05
4.9611e-07
1.75422e-05
2.67828e-07
1.7384e-05
1.45248e-07
1.72741e-05
7.72383e-08
1.72069e-05
2.47834e-08
1.71711e-05
-9.09822e-09
1.71562e-05
-2.65646e-08
1.71584e-05
-4.5284e-08
1.71708e-05
-5.47649e-08
1.71928e-05
-6.20759e-08
1.72251e-05
-7.61549e-08
1.72649e-05
-8.37309e-08
1.73116e-05
-9.07394e-08
1.73636e-05
-9.63667e-08
1.74196e-05
-1.00193e-07
1.74785e-05
-1.03063e-07
1.75397e-05
-1.07706e-07
1.76032e-05
-1.13182e-07
1.76662e-05
-1.13305e-07
1.77252e-05
-1.05853e-07
1.77793e-05
-9.66647e-08
1.7828e-05
-8.65107e-08
1.78713e-05
-7.633e-08
1.79094e-05
-6.64967e-08
1.79427e-05
-5.77611e-08
1.7972e-05
-5.0315e-08
1.79974e-05
-4.29936e-08
1.80188e-05
-3.58913e-08
1.80365e-05
-2.93491e-08
1.80513e-05
-2.42452e-08
1.80639e-05
-2.05277e-08
1.80747e-05
-1.7432e-08
1.80839e-05
-1.48573e-08
1.80919e-05
-1.26808e-08
1.80986e-05
-1.0835e-08
1.81045e-05
-9.26438e-09
1.81094e-05
-7.9001e-09
1.81137e-05
-6.77062e-09
1.81173e-05
-5.74741e-09
1.81204e-05
-4.93049e-09
1.8123e-05
-4.2112e-09
1.81253e-05
-3.56866e-09
1.81273e-05
-3.16178e-09
1.8129e-05
-2.6993e-09
1.81306e-05
-2.36195e-09
1.81317e-05
-1.97805e-09
1.81327e-05
-1.48325e-09
1.81334e-05
-1.27388e-09
1.81342e-05
-1.06356e-09
1.81344e-05
-6.56392e-10
1.81337e-05
2.4209e-09
1.81201e-05
2.14302e-08
1.7981e-05
2.86266e-07
1.82078e-05
-4.70479e-07
2.00721e-05
-3.99658e-06
2.09153e-05
-1.2873e-06
2.0066e-05
2.43517e-06
1.99222e-05
2.01714e-07
1.98172e-05
1.32578e-07
1.97678e-05
5.36658e-08
1.97062e-05
7.33878e-08
1.96608e-05
4.89713e-08
1.96264e-05
3.43547e-08
1.96017e-05
2.19608e-08
1.95832e-05
1.68282e-08
1.95689e-05
1.27373e-08
1.95588e-05
7.50019e-09
1.9552e-05
3.67023e-09
1.95472e-05
1.99135e-09
1.95438e-05
9.23135e-10
1.95415e-05
1.57824e-10
1.954e-05
-5.32715e-10
1.95388e-05
-3.93378e-10
1.95383e-05
-8.48341e-10
1.95382e-05
-1.2004e-09
1.95382e-05
-1.05822e-09
1.95384e-05
-1.00996e-09
1.95386e-05
-9.06909e-10
1.95389e-05
-8.53662e-10
1.95393e-05
-7.78826e-10
1.95396e-05
-6.43138e-10
1.954e-05
-6.31325e-10
1.95405e-05
-9.52317e-10
1.95409e-05
-5.08958e-10
1.95412e-05
-5.09497e-10
1.95415e-05
-2.89217e-10
1.95417e-05
-2.9003e-10
1.95419e-05
-1.33306e-10
1.9542e-05
-1.77261e-10
1.95423e-05
-5.07558e-10
1.95425e-05
-2.24265e-10
1.95426e-05
-1.24534e-10
1.95427e-05
-7.77014e-11
1.95427e-05
1.74184e-11
1.95428e-05
2.32233e-11
1.95428e-05
4.14713e-11
1.9543e-05
-4.27631e-10
1.9543e-05
1.79349e-11
1.95431e-05
-1.02007e-10
1.9543e-05
1.181e-10
1.9543e-05
-7.6797e-12
1.9543e-05
1.68348e-10
1.9543e-05
7.01867e-12
1.95431e-05
-2.69395e-10
1.95431e-05
-5.17474e-11
1.95431e-05
2.61971e-11
1.95431e-05
4.32219e-11
1.95431e-05
1.04934e-10
1.9543e-05
1.20361e-10
1.9543e-05
7.10273e-11
1.95431e-05
-3.10009e-10
1.95431e-05
5.45934e-12
1.95431e-05
-8.84424e-12
1.95431e-05
9.62477e-11
1.9543e-05
5.62564e-11
1.95429e-05
1.70082e-10
1.95429e-05
4.97348e-12
1.9543e-05
-1.91548e-10
1.95431e-05
-1.26645e-10
1.9543e-05
1.6183e-10
1.95431e-05
-1.3188e-10
1.95429e-05
3.45246e-10
1.9543e-05
-1.43128e-10
1.95428e-05
3.89396e-10
1.9543e-05
-5.98592e-10
1.9543e-05
1.83958e-10
1.9543e-05
-4.43779e-11
1.95431e-05
-8.93998e-11
1.95428e-05
5.16211e-10
1.9543e-05
-4.64404e-10
1.95426e-05
9.59463e-10
1.95431e-05
-1.32405e-09
1.95426e-05
1.27444e-09
1.95433e-05
-1.54009e-09
1.95425e-05
1.87811e-09
1.95433e-05
-2.01777e-09
1.95423e-05
2.55548e-09
1.95436e-05
-3.18936e-09
1.95422e-05
3.33819e-09
1.95439e-05
-3.85272e-09
1.9542e-05
4.41949e-09
1.9544e-05
-4.81742e-09
1.95417e-05
5.6136e-09
1.95444e-05
-6.54502e-09
1.95416e-05
6.95703e-09
1.95448e-05
-7.79733e-09
1.95413e-05
8.64867e-09
1.95452e-05
-9.38359e-09
1.95409e-05
1.04726e-08
1.95457e-05
-1.17414e-08
1.95406e-05
1.24422e-08
1.95463e-05
-1.36237e-08
1.95402e-05
1.47516e-08
1.95468e-05
-1.58178e-08
1.95397e-05
1.71503e-08
1.95475e-05
-1.87306e-08
1.95394e-05
1.96615e-08
1.95482e-05
-2.1098e-08
1.95389e-05
2.24405e-08
1.95488e-05
-2.37643e-08
1.95386e-05
2.4761e-08
1.95496e-05
-2.65482e-08
1.95382e-05
2.77712e-08
1.95503e-05
-2.91752e-08
1.95377e-05
3.05287e-08
1.95511e-05
-3.22536e-08
1.95375e-05
3.3116e-08
1.95519e-05
-3.45293e-08
1.95371e-05
3.56628e-08
1.95524e-05
-3.6786e-08
1.95369e-05
3.74664e-08
1.95531e-05
-3.88992e-08
1.95366e-05
3.96828e-08
1.95537e-05
-4.06034e-08
1.95363e-05
4.14443e-08
1.95542e-05
-4.24969e-08
1.95363e-05
4.2734e-08
1.95545e-05
-4.33953e-08
1.95362e-05
4.38622e-08
1.95547e-05
-4.41809e-08
1.95362e-05
4.41947e-08
1.9555e-05
-4.47754e-08
1.95362e-05
4.48774e-08
1.95551e-05
-4.49012e-08
1.95362e-05
4.5034e-08
1.95552e-05
-4.52221e-08
1.95364e-05
4.47743e-08
1.95551e-05
-4.45233e-08
1.95365e-05
4.43153e-08
1.95548e-05
-4.37167e-08
1.95367e-05
4.30395e-08
1.95547e-05
-4.26925e-08
1.9537e-05
4.20708e-08
1.95543e-05
-4.12539e-08
1.95374e-05
4.01957e-08
1.95541e-05
-3.97059e-08
1.95378e-05
3.87871e-08
1.95537e-05
-3.77889e-08
1.95383e-05
3.6597e-08
1.95534e-05
-3.57972e-08
1.95387e-05
3.4774e-08
1.95529e-05
-3.36233e-08
1.95391e-05
3.25524e-08
1.95524e-05
-3.18264e-08
1.95396e-05
3.02798e-08
1.95519e-05
-2.90771e-08
1.954e-05
2.82856e-08
1.95514e-05
-2.69279e-08
1.95406e-05
2.57736e-08
1.95509e-05
-2.45699e-08
1.95409e-05
2.31762e-08
1.95504e-05
-2.28142e-08
1.95414e-05
2.10764e-08
1.95498e-05
-1.98525e-08
1.95417e-05
1.95305e-08
1.95494e-05
-1.77325e-08
1.95422e-05
1.71185e-08
1.95489e-05
-1.60051e-08
1.95424e-05
1.45099e-08
1.95484e-05
-1.48399e-08
1.95428e-05
1.30686e-08
1.95479e-05
-1.19563e-08
1.95429e-05
1.23966e-08
1.95475e-05
-1.01899e-08
1.95432e-05
1.03258e-08
1.95471e-05
-9.38293e-09
1.95433e-05
7.76186e-09
1.95468e-05
-8.78565e-09
1.95437e-05
6.69113e-09
1.95461e-05
-5.63968e-09
1.95439e-05
6.45174e-09
1.95459e-05
-3.88641e-09
1.9544e-05
5.03629e-09
1.95456e-05
-4.35798e-09
1.95441e-05
2.31876e-09
1.95454e-05
-4.40039e-09
1.95441e-05
2.67784e-09
1.95451e-05
-1.95382e-09
1.95441e-05
3.63896e-09
1.95449e-05
-5.40157e-10
1.9544e-05
2.42544e-09
1.95447e-05
-2.26594e-09
1.95442e-05
-7.07577e-11
1.95447e-05
-2.69353e-09
1.95441e-05
7.82086e-10
1.95445e-05
-4.88354e-10
1.9544e-05
2.74213e-09
1.95442e-05
1.0867e-09
1.9544e-05
1.08038e-09
1.95442e-05
-1.09248e-09
1.9544e-05
-1.30642e-09
1.95444e-05
-2.48981e-09
1.95442e-05
-1.09547e-10
1.95443e-05
4.71241e-10
1.95439e-05
2.54755e-09
1.9544e-05
1.54779e-09
1.95437e-05
1.11174e-09
1.95439e-05
-9.32399e-10
1.9544e-05
-2.11768e-09
1.95442e-05
-2.30234e-09
1.95442e-05
-4.79007e-10
1.95443e-05
3.8587e-10
1.9544e-05
2.70015e-09
1.95438e-05
2.17326e-09
1.95435e-05
1.25249e-09
1.95437e-05
-1.28538e-09
1.95438e-05
-2.10306e-09
1.95442e-05
-2.80636e-09
1.95444e-05
-8.28041e-10
1.95444e-05
6.04694e-10
1.9544e-05
3.12858e-09
1.95438e-05
2.25001e-09
1.95434e-05
1.32338e-09
1.95436e-05
-1.12301e-09
1.95437e-05
-2.37629e-09
1.95446e-05
-3.99941e-09
1.95449e-05
-7.27423e-10
1.95446e-05
5.97388e-10
1.9544e-05
3.59434e-09
1.95434e-05
5.48901e-09
1.95483e-05
-1.07736e-08
1.95434e-05
1.15915e-08
1.95423e-05
2.15739e-09
1.95428e-05
-7.36288e-10
1.95421e-05
1.06176e-09
1.95425e-05
4.54642e-09
1.95524e-05
-2.04845e-08
1.95794e-05
-7.92607e-08
1.94938e-05
2.2942e-07
1.97509e-05
-6.35249e-07
1.91223e-05
1.28346e-06
1.74133e-05
3.75929e-06
1.76538e-05
-9.44034e-07
1.78135e-05
-5.46808e-07
-1.45344e-07
2.29836e-05
5.02667e-06
2.32765e-05
3.81486e-06
2.31094e-05
3.16484e-06
2.26552e-05
2.21508e-06
2.21342e-05
1.44261e-06
2.16777e-05
9.52597e-07
2.13257e-05
6.19863e-07
2.10553e-05
4.15643e-07
2.08458e-05
2.8676e-07
2.06976e-05
1.72955e-07
2.05962e-05
9.22916e-08
2.05272e-05
4.25073e-08
2.04863e-05
-4.47361e-09
2.04706e-05
-3.90213e-08
2.04736e-05
-6.51191e-08
2.0491e-05
-9.34695e-08
2.05216e-05
-1.14407e-07
2.05637e-05
-1.32815e-07
2.06139e-05
-1.46573e-07
2.06705e-05
-1.56753e-07
2.0731e-05
-1.6356e-07
2.07928e-05
-1.69565e-07
2.08551e-05
-1.75484e-07
2.09161e-05
-1.74249e-07
2.09729e-05
-1.62709e-07
2.1025e-05
-1.48742e-07
2.1072e-05
-1.33486e-07
2.11139e-05
-1.18202e-07
2.11508e-05
-1.03402e-07
2.11832e-05
-9.01893e-08
2.12118e-05
-7.88946e-08
2.12366e-05
-6.77815e-08
2.12576e-05
-5.69324e-08
2.12751e-05
-4.68414e-08
2.12897e-05
-3.88857e-08
2.13022e-05
-3.30264e-08
2.1313e-05
-2.81544e-08
2.13222e-05
-2.40515e-08
2.133e-05
-2.05726e-08
2.13368e-05
-1.75886e-08
2.13426e-05
-1.50553e-08
2.13475e-05
-1.28407e-08
2.13518e-05
-1.10112e-08
2.13554e-05
-9.34952e-09
2.13585e-05
-8.03284e-09
2.13611e-05
-6.83937e-09
2.13634e-05
-5.82819e-09
2.13653e-05
-5.11731e-09
2.1367e-05
-4.40565e-09
2.13686e-05
-3.92727e-09
2.13697e-05
-3.12881e-09
2.13707e-05
-2.43389e-09
2.13715e-05
-2.07999e-09
2.13722e-05
-1.7473e-09
2.13727e-05
-1.16395e-09
2.1372e-05
3.08972e-09
2.13658e-05
2.7617e-08
2.12841e-05
3.67991e-07
2.14448e-05
-6.31133e-07
2.27876e-05
-5.33944e-06
2.35854e-05
-2.08512e-06
2.32017e-05
2.81893e-06
2.30833e-05
3.20096e-07
2.29976e-05
2.18257e-07
2.29474e-05
1.03906e-07
2.28862e-05
1.34555e-07
2.28374e-05
9.77739e-08
2.28004e-05
7.13064e-08
2.27721e-05
5.03365e-08
2.27505e-05
3.84078e-08
2.27335e-05
2.96968e-08
2.27208e-05
2.01877e-08
2.27116e-05
1.29127e-08
2.27047e-05
8.8513e-09
2.26996e-05
6.0521e-09
2.26958e-05
3.97816e-09
2.26931e-05
2.19811e-09
2.2691e-05
1.67751e-09
2.26896e-05
5.88301e-10
2.26887e-05
-3.32576e-10
2.26882e-05
-5.24495e-10
2.26879e-05
-7.25528e-10
2.26878e-05
-8.04559e-10
2.26878e-05
-8.97351e-10
2.26879e-05
-9.02289e-10
2.26881e-05
-8.33411e-10
2.26884e-05
-8.76957e-10
2.26888e-05
-1.33103e-09
2.26891e-05
-8.24391e-10
2.26894e-05
-8.23399e-10
2.26896e-05
-5.2866e-10
2.26899e-05
-5.22764e-10
2.269e-05
-3.04488e-10
2.26902e-05
-3.11344e-10
2.26904e-05
-7.76399e-10
2.26906e-05
-4.28545e-10
2.26908e-05
-2.61144e-10
2.26909e-05
-1.90873e-10
2.26909e-05
-3.463e-11
2.2691e-05
-2.28539e-11
2.2691e-05
1.20059e-11
2.26912e-05
-5.73904e-10
2.26912e-05
-4.14172e-11
2.26913e-05
-1.67941e-10
2.26913e-05
1.25379e-10
2.26913e-05
-1.41149e-11
2.26912e-05
2.03751e-10
2.26912e-05
1.67102e-11
2.26913e-05
-3.35219e-10
2.26913e-05
-9.24494e-11
2.26913e-05
1.87507e-11
2.26913e-05
4.93359e-11
2.26913e-05
1.33505e-10
2.26913e-05
1.59932e-10
2.26912e-05
1.03321e-10
2.26913e-05
-3.74992e-10
2.26913e-05
-1.1921e-11
2.26913e-05
-2.18801e-11
2.26913e-05
1.19223e-10
2.26913e-05
7.57399e-11
2.26912e-05
2.3466e-10
2.26912e-05
2.14224e-11
2.26912e-05
-2.25903e-10
2.26913e-05
-1.80853e-10
2.26913e-05
1.82801e-10
2.26913e-05
-1.50039e-10
2.26912e-05
4.20875e-10
2.26912e-05
-1.41953e-10
2.26911e-05
4.91224e-10
2.26913e-05
-7.38273e-10
2.26912e-05
2.00718e-10
2.26912e-05
-6.58932e-13
2.26913e-05
-1.77911e-10
2.26911e-05
6.61392e-10
2.26912e-05
-5.66926e-10
2.2691e-05
1.1935e-09
2.26913e-05
-1.60659e-09
2.2691e-05
1.55589e-09
2.26914e-05
-1.92238e-09
2.2691e-05
2.30795e-09
2.26914e-05
-2.47636e-09
2.26909e-05
3.12464e-09
2.26916e-05
-3.90846e-09
2.26909e-05
4.04966e-09
2.26918e-05
-4.76239e-09
2.26908e-05
5.39124e-09
2.26919e-05
-5.90115e-09
2.26907e-05
6.84169e-09
2.26921e-05
-8.00955e-09
2.26906e-05
8.44347e-09
2.26924e-05
-9.58376e-09
2.26905e-05
1.05234e-08
2.26926e-05
-1.14776e-08
2.26904e-05
1.27408e-08
2.2693e-05
-1.43527e-08
2.26903e-05
1.51026e-08
2.26934e-05
-1.66941e-08
2.26902e-05
1.79307e-08
2.26937e-05
-1.93278e-08
2.269e-05
2.08492e-08
2.26942e-05
-2.28759e-08
2.269e-05
2.38655e-08
2.26947e-05
-2.58013e-08
2.26898e-05
2.72701e-08
2.26951e-05
-2.90342e-08
2.26898e-05
3.01023e-08
2.26957e-05
-3.24551e-08
2.26897e-05
3.37263e-08
2.26962e-05
-3.5628e-08
2.26896e-05
3.71053e-08
2.26967e-05
-3.93719e-08
2.26896e-05
4.02295e-08
2.26973e-05
-4.21872e-08
2.26896e-05
4.33739e-08
2.26977e-05
-4.49151e-08
2.26896e-05
4.55965e-08
2.26982e-05
-4.75176e-08
2.26896e-05
4.82669e-08
2.26986e-05
-4.95666e-08
2.26895e-05
5.046e-08
2.26989e-05
-5.18827e-08
2.26896e-05
5.20509e-08
2.26993e-05
-5.30593e-08
2.26896e-05
5.35159e-08
2.26995e-05
-5.40244e-08
2.26897e-05
5.39904e-08
2.26997e-05
-5.4809e-08
2.26898e-05
5.48291e-08
2.26998e-05
-5.49616e-08
2.26897e-05
5.51049e-08
2.26999e-05
-5.53797e-08
2.26899e-05
5.48146e-08
2.27e-05
-5.46151e-08
2.26899e-05
5.43548e-08
2.26998e-05
-5.36327e-08
2.269e-05
5.28747e-08
2.26998e-05
-5.24559e-08
2.26901e-05
5.17085e-08
2.26996e-05
-5.07164e-08
2.26903e-05
4.94952e-08
2.26995e-05
-4.88881e-08
2.26905e-05
4.7781e-08
2.26992e-05
-4.65476e-08
2.26907e-05
4.51451e-08
2.26991e-05
-4.41709e-08
2.26909e-05
4.29175e-08
2.26987e-05
-4.1464e-08
2.2691e-05
4.02943e-08
2.26984e-05
-3.92431e-08
2.26912e-05
3.74771e-08
2.26981e-05
-3.59571e-08
2.26914e-05
3.50181e-08
2.26978e-05
-3.33436e-08
2.26916e-05
3.19358e-08
2.26974e-05
-3.04017e-08
2.26917e-05
2.88934e-08
2.26971e-05
-2.81508e-08
2.2692e-05
2.62023e-08
2.26968e-05
-2.46414e-08
2.26921e-05
2.42097e-08
2.26963e-05
-2.20351e-08
2.26922e-05
2.12036e-08
2.2696e-05
-1.97251e-08
2.26924e-05
1.81266e-08
2.26955e-05
-1.79679e-08
2.26926e-05
1.59774e-08
2.26952e-05
-1.45339e-08
2.26927e-05
1.49188e-08
2.26947e-05
-1.22836e-08
2.26927e-05
1.23283e-08
2.26945e-05
-1.11382e-08
2.26927e-05
9.60305e-09
2.26943e-05
-1.03267e-08
2.26928e-05
8.15541e-09
2.2694e-05
-6.89002e-09
2.26927e-05
7.68879e-09
2.26937e-05
-4.9272e-09
2.26926e-05
6.17583e-09
2.26934e-05
-5.19757e-09
2.26927e-05
3.14571e-09
2.26934e-05
-5.10547e-09
2.26928e-05
3.34699e-09
2.26932e-05
-2.41919e-09
2.26926e-05
4.20416e-09
2.26928e-05
-8.59848e-10
2.26922e-05
2.99943e-09
2.26927e-05
-2.65803e-09
2.26924e-05
2.29674e-10
2.26928e-05
-3.015e-09
2.26927e-05
9.57906e-10
2.26928e-05
-6.58256e-10
2.26924e-05
3.07616e-09
2.26923e-05
1.12994e-09
2.2692e-05
1.36904e-09
2.26921e-05
-1.23161e-09
2.26922e-05
-1.2802e-09
2.26926e-05
-2.84322e-09
2.26928e-05
-2.51142e-10
2.26927e-05
5.15173e-10
2.26923e-05
2.8811e-09
2.2692e-05
1.75016e-09
2.26916e-05
1.52482e-09
2.26917e-05
-1.06644e-09
2.2692e-05
-2.32757e-09
2.26926e-05
-2.74046e-09
2.2693e-05
-8.3716e-10
2.26929e-05
4.35619e-10
2.26924e-05
3.10537e-09
2.26918e-05
2.65935e-09
2.26911e-05
1.86664e-09
2.26914e-05
-1.53146e-09
2.26919e-05
-2.4416e-09
2.26927e-05
-3.54196e-09
2.26934e-05
-1.45876e-09
2.26932e-05
7.24097e-10
2.26925e-05
3.75219e-09
2.26916e-05
3.01021e-09
2.26906e-05
2.24122e-09
2.26909e-05
-1.37969e-09
2.26917e-05
-3.04734e-09
2.26933e-05
-5.46817e-09
2.26944e-05
-1.76826e-09
2.26939e-05
1.11694e-09
2.2693e-05
4.2887e-09
2.26923e-05
6.08803e-09
2.26948e-05
-1.33296e-08
2.26922e-05
1.42045e-08
2.26912e-05
3.13271e-09
2.26913e-05
-8.63016e-10
2.26912e-05
1.21048e-09
2.2694e-05
1.73048e-09
2.26985e-05
-2.50109e-08
2.27116e-05
-9.23313e-08
2.2664e-05
2.76983e-07
2.2745e-05
-7.16159e-07
2.23886e-05
1.63979e-06
2.12625e-05
4.88546e-06
2.11427e-05
-8.2424e-07
2.11675e-05
-5.71668e-07
-1.59233e-07
2.32145e-05
4.03089e-06
2.38952e-05
3.13417e-06
2.43731e-05
2.687e-06
2.45356e-05
2.05257e-06
2.44619e-05
1.51626e-06
2.4247e-05
1.16752e-06
2.39641e-05
9.02738e-07
2.36829e-05
6.9687e-07
2.34423e-05
5.27338e-07
2.32464e-05
3.68872e-07
2.30881e-05
2.50607e-07
2.29637e-05
1.66887e-07
2.28747e-05
8.45121e-08
2.28178e-05
1.79155e-08
2.27864e-05
-3.37073e-08
2.27778e-05
-8.49163e-08
2.27862e-05
-1.22764e-07
2.28089e-05
-1.55545e-07
2.28442e-05
-1.81886e-07
2.28881e-05
-2.00602e-07
2.29374e-05
-2.12898e-07
2.29873e-05
-2.19433e-07
2.30352e-05
-2.23428e-07
2.30807e-05
-2.19776e-07
2.31226e-05
-2.04537e-07
2.31604e-05
-1.86601e-07
2.31942e-05
-1.67289e-07
2.32241e-05
-1.48046e-07
2.32502e-05
-1.29472e-07
2.32729e-05
-1.12975e-07
2.32929e-05
-9.88992e-08
2.33102e-05
-8.5012e-08
2.33246e-05
-7.14078e-08
2.33366e-05
-5.87602e-08
2.33465e-05
-4.88551e-08
2.33551e-05
-4.15768e-08
2.33624e-05
-3.55098e-08
2.33687e-05
-3.03581e-08
2.33742e-05
-2.598e-08
2.33788e-05
-2.22075e-08
2.33827e-05
-1.90071e-08
2.33861e-05
-1.62114e-08
2.3389e-05
-1.38925e-08
2.33914e-05
-1.18075e-08
2.33935e-05
-1.01342e-08
2.33953e-05
-8.63026e-09
2.33969e-05
-7.35332e-09
2.33982e-05
-6.44979e-09
2.33993e-05
-5.54128e-09
2.34003e-05
-4.94206e-09
2.34012e-05
-3.94812e-09
2.34018e-05
-3.06331e-09
2.34024e-05
-2.66762e-09
2.34028e-05
-2.17978e-09
2.34033e-05
-1.6653e-09
2.34031e-05
3.27462e-09
2.3404e-05
2.67778e-08
2.34064e-05
3.65504e-07
2.34922e-05
-7.16879e-07
2.41093e-05
-5.95656e-06
2.46067e-05
-2.58253e-06
2.46022e-05
2.82342e-06
2.45572e-05
3.65177e-07
2.45219e-05
2.53466e-07
2.44945e-05
1.31304e-07
2.44607e-05
1.68365e-07
2.4431e-05
1.2751e-07
2.4405e-05
9.72739e-08
2.43841e-05
7.12687e-08
2.43678e-05
5.46914e-08
2.43545e-05
4.29835e-08
2.4344e-05
3.07276e-08
2.43358e-05
2.11107e-08
2.43294e-05
1.5257e-08
2.43243e-05
1.10901e-08
2.43204e-05
7.95753e-09
2.43173e-05
5.25373e-09
2.43149e-05
4.07709e-09
2.4313e-05
2.45837e-09
2.43117e-05
1.0229e-09
2.43107e-05
4.63521e-10
2.431e-05
-2.38292e-11
2.43095e-05
-3.28621e-10
2.43092e-05
-5.95015e-10
2.4309e-05
-7.27673e-10
2.4309e-05
-7.61069e-10
2.4309e-05
-8.70408e-10
2.43091e-05
-1.43739e-09
2.43092e-05
-9.65274e-10
2.43094e-05
-9.62349e-10
2.43095e-05
-6.54112e-10
2.43096e-05
-6.51219e-10
2.43097e-05
-4.07404e-10
2.43098e-05
-4.01965e-10
2.431e-05
-9.25948e-10
2.43101e-05
-5.61637e-10
2.43102e-05
-3.62807e-10
2.43103e-05
-2.78408e-10
2.43103e-05
-8.69834e-11
2.43104e-05
-7.10692e-11
2.43104e-05
-1.26163e-11
2.43105e-05
-6.44239e-10
2.43105e-05
-9.64925e-11
2.43106e-05
-2.17136e-10
2.43106e-05
1.10222e-10
2.43106e-05
-2.15925e-11
2.43106e-05
2.11467e-10
2.43106e-05
2.36588e-11
2.43106e-05
-3.59054e-10
2.43106e-05
-1.20052e-10
2.43106e-05
8.80725e-12
2.43106e-05
4.63356e-11
2.43106e-05
1.42395e-10
2.43106e-05
1.78043e-10
2.43106e-05
1.22379e-10
2.43106e-05
-3.91515e-10
2.43106e-05
-2.47477e-11
2.43106e-05
-3.14244e-11
2.43106e-05
1.23983e-10
2.43106e-05
8.39289e-11
2.43106e-05
2.66616e-10
2.43106e-05
3.83023e-11
2.43106e-05
-2.32308e-10
2.43106e-05
-2.09053e-10
2.43106e-05
1.86898e-10
2.43106e-05
-1.52008e-10
2.43106e-05
4.42073e-10
2.43106e-05
-1.27207e-10
2.43105e-05
5.26314e-10
2.43106e-05
-7.80396e-10
2.43106e-05
1.96506e-10
2.43106e-05
3.06532e-11
2.43106e-05
-2.29048e-10
2.43105e-05
7.26392e-10
2.43106e-05
-6.03715e-10
2.43105e-05
1.2685e-09
2.43106e-05
-1.68869e-09
2.43105e-05
1.63286e-09
2.43106e-05
-2.03228e-09
2.43105e-05
2.42427e-09
2.43106e-05
-2.60882e-09
2.43105e-05
3.26755e-09
2.43107e-05
-4.10725e-09
2.43105e-05
4.21862e-09
2.43108e-05
-5.01977e-09
2.43105e-05
5.62728e-09
2.43108e-05
-6.1868e-09
2.43105e-05
7.12714e-09
2.43109e-05
-8.39228e-09
2.43106e-05
8.78259e-09
2.43111e-05
-1.00619e-08
2.43106e-05
1.09582e-08
2.43112e-05
-1.20114e-08
2.43107e-05
1.3253e-08
2.43113e-05
-1.50128e-08
2.43107e-05
1.56963e-08
2.43115e-05
-1.74781e-08
2.43108e-05
1.86421e-08
2.43117e-05
-2.01962e-08
2.43108e-05
2.16701e-08
2.43119e-05
-2.38907e-08
2.43109e-05
2.47805e-08
2.43121e-05
-2.69548e-08
2.43111e-05
2.83188e-08
2.43123e-05
-3.02997e-08
2.43112e-05
3.12647e-08
2.43126e-05
-3.38853e-08
2.43113e-05
3.50019e-08
2.43128e-05
-3.71598e-08
2.43114e-05
3.85248e-08
2.43131e-05
-4.10363e-08
2.43116e-05
4.17256e-08
2.43134e-05
-4.39726e-08
2.43118e-05
4.50081e-08
2.43136e-05
-4.67663e-08
2.43119e-05
4.73173e-08
2.43138e-05
-4.94807e-08
2.43121e-05
5.00536e-08
2.43141e-05
-5.15596e-08
2.43122e-05
5.23373e-08
2.43142e-05
-5.39334e-08
2.43123e-05
5.39499e-08
2.43144e-05
-5.516e-08
2.43125e-05
5.54934e-08
2.43145e-05
-5.61138e-08
2.43125e-05
5.59964e-08
2.43147e-05
-5.69391e-08
2.43127e-05
5.68337e-08
2.43148e-05
-5.70439e-08
2.43127e-05
5.71334e-08
2.43148e-05
-5.7429e-08
2.43128e-05
5.67706e-08
2.43148e-05
-5.66181e-08
2.43129e-05
5.62972e-08
2.43148e-05
-5.55212e-08
2.43129e-05
5.47538e-08
2.43147e-05
-5.42923e-08
2.4313e-05
5.348e-08
2.43146e-05
-5.24125e-08
2.4313e-05
5.11746e-08
2.43146e-05
-5.05055e-08
2.4313e-05
4.93328e-08
2.43145e-05
-4.80025e-08
2.43131e-05
4.65763e-08
2.43144e-05
-4.55446e-08
2.43131e-05
4.42828e-08
2.43143e-05
-4.27157e-08
2.4313e-05
4.15946e-08
2.43142e-05
-4.0409e-08
2.4313e-05
3.86791e-08
2.43141e-05
-3.70333e-08
2.43129e-05
3.61198e-08
2.43139e-05
-3.43419e-08
2.43129e-05
3.29591e-08
2.43138e-05
-3.12818e-08
2.43128e-05
2.98574e-08
2.43137e-05
-2.89439e-08
2.43128e-05
2.70513e-08
2.43135e-05
-2.53589e-08
2.43127e-05
2.49741e-08
2.43133e-05
-2.26786e-08
2.43126e-05
2.19229e-08
2.43132e-05
-2.02797e-08
2.43125e-05
1.88018e-08
2.43131e-05
-1.84631e-08
2.43126e-05
1.65327e-08
2.4313e-05
-1.49695e-08
2.43124e-05
1.54302e-08
2.43127e-05
-1.26555e-08
2.43122e-05
1.28336e-08
2.43125e-05
-1.14452e-08
2.43121e-05
1.00453e-08
2.43125e-05
-1.06448e-08
2.43122e-05
8.51833e-09
2.43125e-05
-7.2035e-09
2.4312e-05
8.07241e-09
2.43121e-05
-5.15998e-09
2.43117e-05
6.61763e-09
2.43119e-05
-5.40704e-09
2.43117e-05
3.41375e-09
2.43121e-05
-5.3463e-09
2.4312e-05
3.46675e-09
2.43121e-05
-2.49899e-09
2.43117e-05
4.42662e-09
2.43115e-05
-8.12646e-10
2.43112e-05
3.32505e-09
2.43113e-05
-2.77426e-09
2.43114e-05
2.81001e-10
2.43118e-05
-3.23897e-09
2.4312e-05
8.27975e-10
2.43119e-05
-6.44583e-10
2.43115e-05
3.28577e-09
2.43111e-05
1.3786e-09
2.43107e-05
1.71676e-09
2.43109e-05
-1.32756e-09
2.43112e-05
-1.40394e-09
2.43117e-05
-3.23425e-09
2.43122e-05
-6.39649e-10
2.4312e-05
6.32219e-10
2.43115e-05
3.20497e-09
2.43109e-05
2.21724e-09
2.43102e-05
2.0771e-09
2.43104e-05
-1.21507e-09
2.4311e-05
-2.66187e-09
2.43118e-05
-3.40329e-09
2.43125e-05
-1.49126e-09
2.43123e-05
6.18326e-10
2.43116e-05
3.60017e-09
2.43106e-05
3.4883e-09
2.43096e-05
2.73017e-09
2.431e-05
-1.78779e-09
2.43108e-05
-3.04104e-09
2.43121e-05
-4.62903e-09
2.43132e-05
-2.52258e-09
2.43128e-05
9.98751e-10
2.43118e-05
4.5746e-09
2.43103e-05
4.35182e-09
2.43088e-05
3.64502e-09
2.43092e-05
-1.71217e-09
2.43105e-05
-4.16311e-09
2.43128e-05
-7.48313e-09
2.43146e-05
-3.5617e-09
2.43139e-05
1.80077e-09
2.43126e-05
5.3281e-09
2.43117e-05
6.76734e-09
2.43121e-05
-1.38303e-08
2.43115e-05
1.48033e-08
2.4311e-05
3.65208e-09
2.43109e-05
-8.10939e-10
2.4311e-05
1.08172e-09
2.43139e-05
-1.15233e-09
2.43147e-05
-2.58262e-08
2.43167e-05
-9.43206e-08
2.43011e-05
2.92578e-07
2.42688e-05
-6.83866e-07
2.41583e-05
1.7503e-06
2.36781e-05
5.36564e-06
2.34256e-05
-5.71728e-07
2.33641e-05