/*--------------------------------*- C++ -*----------------------------------*\
| =========                 |                                                 |
| \\      /  F ield         | foam-extend: Open Source CFD                    |
|  \\    /   O peration     | Version:     3.2                                |
|   \\  /    A nd           | Web:         http://www.foam-extend.org         |
|    \\/     M anipulation  | For copyright notice see file Copyright         |
\*---------------------------------------------------------------------------*/
FoamFile
{
    version     2.0;
    format      ascii;
    class       areaVectorField;
    location    "2000";
    object      PointNormalVector;
}
// * * * * * * * * * * * * * * * * * * * * * * * * * * * * * * * * * * * * * //

dimensions      [0 0 0 0 0 0 0];

internalField   nonuniform List<vector> 
300
(
(5e-06 -0 0.001)
(5e-06 -0 0.001)
(5e-06 -0 0.001)
(5e-06 -0 0.001)
(5e-06 -4.23516e-22 0.001)
(5e-06 -4.23516e-22 0.001)
(5e-06 -4.23516e-22 0.001)
(5e-06 -4.23516e-22 0.001)
(5e-06 -0 0.001)
(5e-06 -4.23516e-22 0.001)
(5e-06 -0 0.001)
(5e-06 4.23516e-22 0.001)
(5e-06 -0 0.001)
(5e-06 4.23516e-22 0.001)
(5e-06 -0 0.001)
(5e-06 -0 0.001)
(5e-06 4.23516e-22 0.001)
(5e-06 -4.23516e-22 0.001)
(5e-06 4.23516e-22 0.001)
(5e-06 -0 0.001)
(5e-06 -0 0.001)
(5e-06 -4.23516e-22 0.001)
(5e-06 -0 0.001)
(5e-06 -0 0.001)
(5e-06 -0 0.001)
(5e-06 -4.23516e-22 0.001)
(5e-06 -0 0.001)
(5e-06 -0 0.001)
(5e-06 -0 0.001)
(5e-06 -4.23516e-22 0.001)
(5e-06 -0 0.001)
(5e-06 -0 0.001)
(5e-06 -0 0.001)
(5e-06 -0 0.001)
(5e-06 -0 0.001)
(5e-06 -0 0.001)
(5e-06 -0 0.001)
(5e-06 -0 0.001)
(5e-06 -0 0.001)
(5e-06 -0 0.001)
(5e-06 -0 0.001)
(5e-06 -4.23516e-22 0.001)
(5e-06 -0 0.001)
(5e-06 -4.23516e-22 0.001)
(5e-06 -0 0.001)
(5e-06 -0 0.001)
(5e-06 -4.23516e-22 0.001)
(5e-06 -0 0.001)
(5e-06 -4.23516e-22 0.001)
(5e-06 -0 0.001)
(5e-06 -0 0.001)
(5e-06 -4.23516e-22 0.001)
(5e-06 -0 0.001)
(5e-06 -4.23516e-22 0.001)
(5e-06 -0 0.001)
(5e-06 -0 0.001)
(5e-06 -4.23516e-22 0.001)
(5e-06 -0 0.001)
(5e-06 -0 0.001)
(-3.05011e-05 -0 0.001)
(-1.56031e-05 -0 0.001)
(1.84384e-05 1.69407e-21 0.001)
(4.6108e-06 -0 0.001)
(5.81386e-06 -0 0.001)
(5.13695e-06 -0 0.001)
(5.59389e-06 4.23516e-22 0.001)
(5.47694e-06 -0 0.001)
(5.46804e-06 -0 0.001)
(5.40083e-06 -0 0.001)
(5.38076e-06 -0 0.001)
(5.35418e-06 -4.23516e-22 0.001)
(5.30897e-06 4.23516e-22 0.001)
(5.26366e-06 4.23516e-22 0.001)
(5.23051e-06 -0 0.001)
(5.19989e-06 -4.23516e-22 0.001)
(5.17298e-06 4.23516e-22 0.001)
(5.14464e-06 4.23516e-22 0.001)
(5.12527e-06 -0 0.001)
(5.10409e-06 -4.23516e-22 0.001)
(5.08334e-06 -0 0.001)
(5.06877e-06 -0 0.001)
(5.05516e-06 4.23516e-22 0.001)
(5.044e-06 -0 0.001)
(5.03429e-06 -0 0.001)
(5.02651e-06 -0 0.001)
(5.02011e-06 -0 0.001)
(5.01513e-06 -0 0.001)
(5.00696e-06 -0 0.001)
(5.00645e-06 -0 0.001)
(5.00309e-06 -4.23516e-22 0.001)
(5.003e-06 -0 0.001)
(5.00102e-06 -0 0.001)
(5.00097e-06 -4.23516e-22 0.001)
(5.00043e-06 -0 0.001)
(4.99635e-06 -0 0.001)
(4.9978e-06 4.23516e-22 0.001)
(4.99827e-06 -0 0.001)
(4.99837e-06 -0 0.001)
(4.99947e-06 -0 0.001)
(4.99904e-06 -0 0.001)
(5.00029e-06 -0 0.001)
(4.99598e-06 -0 0.001)
(4.99933e-06 -0 0.001)
(4.99802e-06 -0 0.001)
(5.00034e-06 -0 0.001)
(4.99943e-06 4.23516e-22 0.001)
(5.00105e-06 -0 0.001)
(5.00036e-06 4.23516e-22 0.001)
(4.9979e-06 -0 0.001)
(4.99912e-06 -0 0.001)
(4.99988e-06 4.23516e-22 0.001)
(5.00003e-06 -4.23516e-22 0.001)
(5.0007e-06 -0 0.001)
(5.00088e-06 -4.23516e-22 0.001)
(5.00116e-06 -0 0.001)
(4.99774e-06 -4.23516e-22 0.001)
(4.99997e-06 -0 0.001)
(4.99961e-06 -0 0.001)
(5.00075e-06 -0 0.001)
(5.00029e-06 -0 0.001)
(5.00163e-06 -0 0.001)
(5.00049e-06 -0 0.001)
(4.99904e-06 -4.23516e-22 0.001)
(4.99843e-06 -4.23516e-22 0.001)
(5.00149e-06 -0 0.001)
(4.99867e-06 4.23516e-22 0.001)
(5.00297e-06 -0 0.001)
(4.99866e-06 4.23516e-22 0.001)
(5.00389e-06 -0 0.001)
(4.99502e-06 -0 0.001)
(5.00138e-06 -0 0.001)
(5.00096e-06 -0 0.001)
(4.99704e-06 -0 0.001)
(5.00592e-06 -0 0.001)
(4.99424e-06 -0 0.001)
(5.00999e-06 -0 0.001)
(4.98731e-06 4.23516e-22 0.001)
(5.01307e-06 -0 0.001)
(4.98408e-06 -0 0.001)
(5.01867e-06 -4.23516e-22 0.001)
(4.97907e-06 -4.23516e-22 0.001)
(5.02516e-06 -0 0.001)
(4.96875e-06 -0 0.001)
(5.03251e-06 -0 0.001)
(4.96131e-06 -0 0.001)
(5.04263e-06 -0 0.001)
(4.95182e-06 -0 0.001)
(5.05395e-06 -0 0.001)
(4.93631e-06 -4.23516e-22 0.001)
(5.0665e-06 -0 0.001)
(4.92334e-06 -0 0.001)
(5.08219e-06 -0 0.001)
(4.90813e-06 4.23516e-22 0.001)
(5.09925e-06 -0 0.001)
(4.88682e-06 -0 0.001)
(5.11747e-06 4.23516e-22 0.001)
(4.86812e-06 -4.23516e-22 0.001)
(5.1387e-06 -4.23516e-22 0.001)
(4.84742e-06 -0 0.001)
(5.16094e-06 -0 0.001)
(4.8212e-06 -0 0.001)
(5.18383e-06 -0 0.001)
(4.79829e-06 -0 0.001)
(5.20893e-06 -0 0.001)
(4.77375e-06 -0 0.001)
(5.23113e-06 -0 0.001)
(4.74787e-06 -0 0.001)
(5.25768e-06 -0 0.001)
(4.72348e-06 4.23516e-22 0.001)
(5.2829e-06 -0 0.001)
(4.69637e-06 -0 0.001)
(5.30606e-06 -0 0.001)
(4.67498e-06 -0 0.001)
(5.32879e-06 4.23516e-22 0.001)
(4.65495e-06 -0 0.001)
(5.34598e-06 -0 0.001)
(4.6362e-06 -0 0.001)
(5.36478e-06 -0 0.001)
(4.62135e-06 4.23516e-22 0.001)
(5.38028e-06 -4.23516e-22 0.001)
(4.6056e-06 -0 0.001)
(5.39201e-06 -0 0.001)
(4.59675e-06 -0 0.001)
(5.40236e-06 -0 0.001)
(4.59013e-06 4.23516e-22 0.001)
(5.40659e-06 -4.23516e-22 0.001)
(4.58514e-06 -0 0.001)
(5.41184e-06 -0 0.001)
(4.58445e-06 4.23516e-22 0.001)
(5.41343e-06 -0 0.001)
(4.58321e-06 -0 0.001)
(5.41092e-06 -4.23516e-22 0.001)
(4.58918e-06 -0 0.001)
(5.40669e-06 4.23516e-22 0.001)
(4.59746e-06 -4.23516e-22 0.001)
(5.39614e-06 -0 0.001)
(4.60738e-06 -4.23516e-22 0.001)
(5.38621e-06 -0 0.001)
(4.62105e-06 -0 0.001)
(5.37036e-06 -0 0.001)
(4.63577e-06 -0 0.001)
(5.35626e-06 -4.23516e-22 0.001)
(4.65351e-06 -0 0.001)
(5.33674e-06 -0 0.001)
(4.67173e-06 -0 0.001)
(5.31971e-06 -0 0.001)
(4.69254e-06 -0 0.001)
(5.3009e-06 -0 0.001)
(4.71078e-06 -0 0.001)
(5.27993e-06 -0 0.001)
(4.73359e-06 -0 0.001)
(5.25932e-06 -0 0.001)
(4.7531e-06 -0 0.001)
(5.23779e-06 -4.23516e-22 0.001)
(4.77661e-06 -0 0.001)
(5.21761e-06 -0 0.001)
(4.79563e-06 -0 0.001)
(5.1966e-06 -0 0.001)
(4.81777e-06 -0 0.001)
(5.17704e-06 -0 0.001)
(4.8358e-06 -0 0.001)
(5.1577e-06 -0 0.001)
(4.85679e-06 -0 0.001)
(5.14044e-06 -4.23516e-22 0.001)
(4.87266e-06 -4.23516e-22 0.001)
(5.1226e-06 -0 0.001)
(4.89057e-06 -4.23516e-22 0.001)
(5.10696e-06 -0 0.001)
(4.90441e-06 -0 0.001)
(5.09248e-06 -0 0.001)
(4.92016e-06 -0 0.001)
(5.08079e-06 -0 0.001)
(4.93051e-06 -4.23516e-22 0.001)
(5.0675e-06 -0 0.001)
(4.94314e-06 -0 0.001)
(5.05413e-06 -4.23516e-22 0.001)
(4.95299e-06 -0 0.001)
(5.0474e-06 -0 0.001)
(4.96353e-06 -0 0.001)
(5.03766e-06 -0 0.001)
(4.9703e-06 -0 0.001)
(5.03158e-06 -0 0.001)
(4.97709e-06 -0 0.001)
(5.02255e-06 -0 0.001)
(4.98239e-06 -0 0.001)
(5.02013e-06 4.23516e-22 0.001)
(4.98508e-06 -4.23516e-22 0.001)
(5.01671e-06 -4.23516e-22 0.001)
(4.98976e-06 4.23516e-22 0.001)
(5.01352e-06 -0 0.001)
(4.9896e-06 -0 0.001)
(5.00928e-06 -0 0.001)
(4.99454e-06 -0 0.001)
(5.00582e-06 -4.23516e-22 0.001)
(4.99672e-06 -0 0.001)
(5.00729e-06 -0 0.001)
(4.99485e-06 -0 0.001)
(5.00501e-06 -0 0.001)
(4.99659e-06 -4.23516e-22 0.001)
(5.00423e-06 4.23516e-22 0.001)
(4.99597e-06 -0 0.001)
(5.00429e-06 -0 0.001)
(4.99938e-06 -0 0.001)
(5.00288e-06 -0 0.001)
(4.9984e-06 -0 0.001)
(5.00279e-06 -4.23516e-22 0.001)
(4.99542e-06 -0 0.001)
(5.00178e-06 4.23516e-22 0.001)
(4.99811e-06 -0 0.001)
(5.00371e-06 -0 0.001)
(4.99759e-06 -0 0.001)
(5.00514e-06 -0 0.001)
(4.99707e-06 4.23516e-22 0.001)
(5.00216e-06 -0 0.001)
(4.99575e-06 -4.23516e-22 0.001)
(5.00201e-06 4.23516e-22 0.001)
(4.9958e-06 -0 0.001)
(5.00227e-06 4.23516e-22 0.001)
(4.99868e-06 -0 0.001)
(5.00631e-06 4.23516e-22 0.001)
(4.99064e-06 4.23516e-22 0.001)
(5.00497e-06 -0 0.001)
(4.99993e-06 -4.23516e-22 0.001)
(4.98605e-06 4.23516e-22 0.001)
(5.02914e-06 -0 0.001)
(4.89886e-06 4.23516e-22 0.001)
(5.09228e-06 4.23516e-22 0.001)
(5.01972e-06 -4.23516e-22 0.001)
(4.99302e-06 -4.23516e-22 0.001)
(5.01213e-06 -0 0.001)
(4.92009e-06 4.23516e-22 0.001)
(5.04381e-06 -4.23516e-22 0.001)
(4.1458e-06 -4.23516e-22 0.001)
(7.35703e-06 -0 0.001)
(2.23601e-06 -0 0.001)
(9.94434e-06 -0 0.001)
(3.88755e-05 -0 0.001)
(5e-06 -0 0.001)
(5e-06 -0 0.001)
(5e-06 -0 0.001)
)
;

boundaryField
{
    inlet
    {
        type            calculated;
        value           uniform (0 0 0);
    }
    outlet
    {
        type            calculated;
        value           uniform (0 0 0);
    }
    sideWall
    {
        type            empty;
    }
}


// ************************************************************************* //
