/*--------------------------------*- C++ -*----------------------------------*\
| =========                 |                                                 |
| \\      /  F ield         | foam-extend: Open Source CFD                    |
|  \\    /   O peration     | Version:     3.2                                |
|   \\  /    A nd           | Web:         http://www.foam-extend.org         |
|    \\/     M anipulation  | For copyright notice see file Copyright         |
\*---------------------------------------------------------------------------*/
FoamFile
{
    version     2.0;
    format      ascii;
    class       areaVectorField;
    location    "2000";
    object      q_bed;
}
// * * * * * * * * * * * * * * * * * * * * * * * * * * * * * * * * * * * * * //

dimensions      [0 2 -1 0 0 0 0];

internalField   nonuniform List<vector> 
300
(
(4.01519e-05 0 -2.0076e-07)
(5.9507e-05 0 -2.97535e-07)
(4.30541e-05 0 -2.1527e-07)
(3.05092e-05 0 -1.52546e-07)
(2.40434e-05 3.83316e-27 -1.20217e-07)
(2.15443e-05 -1.35684e-27 -1.07721e-07)
(2.0603e-05 -2.86053e-27 -1.03015e-07)
(2.04879e-05 -2.82225e-27 -1.0244e-07)
(2.06429e-05 8.43827e-31 -1.03215e-07)
(2.0962e-05 -2.58403e-27 -1.0481e-07)
(2.13484e-05 4.18187e-31 -1.06742e-07)
(2.17445e-05 1.96102e-27 -1.08722e-07)
(2.21311e-05 0 -1.10655e-07)
(2.25417e-05 1.82088e-27 -1.12709e-07)
(2.29381e-05 1.68852e-31 -1.14691e-07)
(2.33429e-05 -1.05006e-32 -1.16715e-07)
(2.37744e-05 1.76905e-27 -1.18872e-07)
(2.4208e-05 -1.73665e-27 -1.2104e-07)
(2.46549e-05 1.72952e-27 -1.23274e-07)
(2.51079e-05 0 -1.25539e-07)
(2.5565e-05 0 -1.27825e-07)
(2.60261e-05 -1.82577e-27 -1.30131e-07)
(2.65038e-05 2.2715e-31 -1.32519e-07)
(2.6998e-05 0 -1.3499e-07)
(2.74795e-05 0 -1.37397e-07)
(2.79255e-05 -1.749e-27 -1.39627e-07)
(2.83303e-05 0 -1.41651e-07)
(2.86882e-05 0 -1.43441e-07)
(2.90005e-05 0 -1.45002e-07)
(2.92687e-05 -9.98565e-28 -1.46344e-07)
(2.94993e-05 0 -1.47497e-07)
(2.96969e-05 0 -1.48485e-07)
(2.98621e-05 -1.21777e-31 -1.4931e-07)
(2.99978e-05 0 -1.49989e-07)
(3.01067e-05 0 -1.50533e-07)
(3.01968e-05 0 -1.50984e-07)
(3.02714e-05 -6.58126e-32 -1.51357e-07)
(3.03348e-05 0 -1.51674e-07)
(3.03876e-05 0 -1.51938e-07)
(3.04333e-05 0 -1.52166e-07)
(3.04711e-05 -3.6589e-32 -1.52356e-07)
(3.05046e-05 -1.12329e-28 -1.52523e-07)
(3.05316e-05 0 -1.52658e-07)
(3.05565e-05 -8.14288e-29 -1.52782e-07)
(3.05754e-05 -1.98303e-32 -1.52877e-07)
(3.05943e-05 0 -1.52971e-07)
(3.06073e-05 -4.85511e-29 -1.53036e-07)
(3.06218e-05 0 -1.53109e-07)
(3.06305e-05 -3.57657e-29 -1.53153e-07)
(3.06435e-05 0 -1.53218e-07)
(3.06443e-05 0 -1.53222e-07)
(3.0666e-05 -2.52991e-29 -1.5333e-07)
(3.0641e-05 0 -1.53205e-07)
(3.07089e-05 -3.96846e-29 -1.53545e-07)
(3.05795e-05 0 -1.52898e-07)
(3.08624e-05 0 -1.54312e-07)
(3.026e-05 6.64709e-28 -1.513e-07)
(3.1408e-05 4.85751e-32 -1.5704e-07)
(2.73081e-05 0 -1.3654e-07)
(3.42775e-05 -1.63958e-28 1.0455e-06)
(5.7998e-05 0 9.04946e-07)
(5.39743e-05 -5.43492e-25 -9.95199e-07)
(4.36606e-05 0 -2.0131e-07)
(4.38528e-05 0 -2.54954e-07)
(4.29251e-05 0 -2.20504e-07)
(4.29788e-05 -2.71977e-28 -2.40419e-07)
(4.28395e-05 0 -2.34629e-07)
(4.28497e-05 4.57608e-31 -2.34304e-07)
(4.28553e-05 0 -2.31454e-07)
(4.28988e-05 0 -2.30828e-07)
(4.29088e-05 -3.54072e-28 -2.29741e-07)
(4.29247e-05 3.72285e-28 -2.27886e-07)
(4.29448e-05 3.6264e-28 -2.26047e-07)
(4.29678e-05 5.6698e-32 -2.24744e-07)
(4.29867e-05 -2.4981e-28 -2.23526e-07)
(4.3002e-05 2.09855e-28 -2.22448e-07)
(4.30153e-05 1.86272e-28 -2.21298e-07)
(4.30265e-05 -6.28513e-33 -2.20522e-07)
(4.30323e-05 -1.27514e-28 -2.19641e-07)
(4.30391e-05 0 -2.18783e-07)
(4.30444e-05 1.34843e-32 -2.18182e-07)
(4.3048e-05 5.09206e-29 -2.17615e-07)
(4.30505e-05 0 -2.17147e-07)
(4.30524e-05 0 -2.16738e-07)
(4.30531e-05 1.20209e-32 -2.16407e-07)
(4.30543e-05 0 -2.16138e-07)
(4.30535e-05 1.10075e-32 -2.15919e-07)
(4.30548e-05 0 -2.15574e-07)
(4.30564e-05 0 -2.1556e-07)
(4.30564e-05 -6.99768e-30 -2.15415e-07)
(4.30569e-05 0 -2.15413e-07)
(4.30563e-05 -4.97724e-33 -2.15325e-07)
(4.30562e-05 4.62075e-30 -2.15323e-07)
(4.3055e-05 0 -2.15294e-07)
(4.30558e-05 0 -2.15122e-07)
(4.30568e-05 -2.16961e-30 -2.15189e-07)
(4.30568e-05 0 -2.1521e-07)
(4.30576e-05 -1.29243e-33 -2.15218e-07)
(4.30569e-05 -2.99796e-34 -2.15261e-07)
(4.30573e-05 0 -2.15245e-07)
(4.30553e-05 0 -2.15289e-07)
(4.30565e-05 0 -2.15109e-07)
(4.30574e-05 0 -2.15258e-07)
(4.30579e-05 0 -2.15204e-07)
(4.3058e-05 0 -2.15304e-07)
(4.30575e-05 1.14121e-30 -2.15263e-07)
(4.30573e-05 0 -2.15332e-07)
(4.30561e-05 8.12203e-31 -2.15296e-07)
(4.30567e-05 0 -2.15193e-07)
(4.30582e-05 0 -2.15253e-07)
(4.30581e-05 -1.99941e-30 -2.15286e-07)
(4.30583e-05 1.8435e-30 -2.15293e-07)
(4.30577e-05 0 -2.15319e-07)
(4.30573e-05 3.8459e-30 -2.15325e-07)
(4.30561e-05 -8.60435e-34 -2.15331e-07)
(4.30565e-05 -1.43863e-29 -2.15185e-07)
(4.3058e-05 -1.52081e-33 -2.15289e-07)
(4.30582e-05 -5.48703e-35 -2.15274e-07)
(4.30579e-05 8.20455e-34 -2.15322e-07)
(4.30577e-05 0 -2.15301e-07)
(4.30564e-05 1.24351e-33 -2.15352e-07)
(4.30564e-05 -6.30747e-34 -2.15303e-07)
(4.30554e-05 -9.71285e-30 -2.15236e-07)
(4.30585e-05 -1.5043e-30 -2.15225e-07)
(4.30569e-05 0 -2.15349e-07)
(4.30583e-05 7.36599e-30 -2.15234e-07)
(4.30561e-05 0 -2.15409e-07)
(4.30571e-05 9.11003e-30 -2.15228e-07)
(4.30555e-05 0 -2.15445e-07)
(4.30546e-05 5.07186e-33 -2.15058e-07)
(4.30584e-05 0 -2.15351e-07)
(4.30526e-05 0 -2.15305e-07)
(4.30607e-05 0 -2.15176e-07)
(4.30523e-05 4.78606e-33 -2.15517e-07)
(4.30597e-05 0 -2.1505e-07)
(4.30487e-05 0 -2.15673e-07)
(4.30613e-05 5.65633e-29 -2.1476e-07)
(4.30486e-05 -7.75165e-33 -2.15806e-07)
(4.30643e-05 0 -2.14636e-07)
(4.30459e-05 7.84178e-29 -2.16033e-07)
(4.30663e-05 -8.63215e-29 -2.1443e-07)
(4.30418e-05 1.20621e-32 -2.16292e-07)
(4.30679e-05 -1.62386e-32 -2.13994e-07)
(4.30404e-05 0 -2.16601e-07)
(4.30718e-05 0 -2.13693e-07)
(4.30364e-05 0 -2.17016e-07)
(4.30748e-05 2.51089e-32 -2.13299e-07)
(4.30309e-05 2.57411e-32 -2.17476e-07)
(4.30775e-05 -2.96795e-28 -2.12644e-07)
(4.30282e-05 0 -2.18002e-07)
(4.30824e-05 0 -2.12109e-07)
(4.3023e-05 0 -2.18651e-07)
(4.30863e-05 4.33632e-28 -2.11473e-07)
(4.30163e-05 4.59174e-32 -2.19351e-07)
(4.30896e-05 0 -2.10571e-07)
(4.30127e-05 -5.90215e-28 -2.20116e-07)
(4.3095e-05 -6.37778e-28 -2.09792e-07)
(4.30067e-05 6.99993e-28 -2.20999e-07)
(4.30991e-05 0 -2.0892e-07)
(4.29997e-05 0 -2.21919e-07)
(4.31025e-05 0 -2.07806e-07)
(4.29961e-05 -8.20367e-32 -2.22885e-07)
(4.31074e-05 0 -2.06842e-07)
(4.29908e-05 0 -2.23936e-07)
(4.31102e-05 0 -2.05798e-07)
(4.29852e-05 0 -2.24861e-07)
(4.31157e-05 0 -2.04708e-07)
(4.29816e-05 0 -2.25984e-07)
(4.31186e-05 1.4277e-27 -2.0367e-07)
(4.2977e-05 0 -2.27043e-07)
(4.31201e-05 0 -2.02508e-07)
(4.29762e-05 1.27167e-31 -2.28034e-07)
(4.31224e-05 0 -2.01596e-07)
(4.29741e-05 -1.78328e-27 -2.29e-07)
(4.31223e-05 0 -2.00732e-07)
(4.29723e-05 0 -2.29729e-07)
(4.31245e-05 0 -1.99934e-07)
(4.29727e-05 0 -2.30539e-07)
(4.31239e-05 2.03638e-27 -1.9929e-07)
(4.29724e-05 2.08013e-27 -2.31203e-07)
(4.31219e-05 0 -1.98602e-07)
(4.29757e-05 0 -2.31725e-07)
(4.31208e-05 0 -1.98216e-07)
(4.29777e-05 1.72857e-31 -2.32181e-07)
(4.31177e-05 2.20489e-27 -1.97916e-07)
(4.29796e-05 2.21049e-27 -2.32373e-07)
(4.31169e-05 0 -1.97697e-07)
(4.29835e-05 1.83104e-31 -2.3262e-07)
(4.31136e-05 2.23582e-27 -1.97652e-07)
(4.29863e-05 0 -2.32704e-07)
(4.31092e-05 0 -1.97578e-07)
(4.29926e-05 2.2286e-27 -2.32629e-07)
(4.31057e-05 1.90186e-31 -1.9782e-07)
(4.29972e-05 -2.19939e-27 -2.32473e-07)
(4.31003e-05 -2.1691e-27 -1.98152e-07)
(4.30017e-05 0 -2.32043e-07)
(4.30975e-05 -2.1128e-27 -1.98567e-07)
(4.30079e-05 0 -2.3165e-07)
(4.30927e-05 0 -1.99134e-07)
(4.30131e-05 0 -2.30996e-07)
(4.30828e-05 0 -1.99722e-07)
(4.30143e-05 1.91554e-27 -2.30396e-07)
(4.30725e-05 -1.77218e-31 -2.00438e-07)
(4.30136e-05 0 -2.29553e-07)
(4.30855e-05 0 -2.01284e-07)
(4.30313e-05 -1.67184e-31 -2.28914e-07)
(4.30826e-05 -1.61022e-31 -2.02167e-07)
(4.30356e-05 -1.59062e-31 -2.28128e-07)
(4.30337e-05 -1.53176e-31 -2.02723e-07)
(4.29979e-05 0 -2.27026e-07)
(4.3018e-05 -1.44845e-31 -2.03629e-07)
(4.29867e-05 1.4063e-31 -2.26081e-07)
(4.30752e-05 1.35581e-31 -2.0474e-07)
(4.3052e-05 1.25918e-27 -2.25497e-07)
(4.30745e-05 0 -2.0575e-07)
(4.30552e-05 0 -2.24645e-07)
(4.29578e-05 0 -2.0601e-07)
(4.294e-05 1.12396e-31 -2.23142e-07)
(4.29362e-05 0 -2.06857e-07)
(4.29197e-05 0 -2.22197e-07)
(4.30709e-05 0 -2.08282e-07)
(4.30664e-05 -8.67116e-32 -2.22123e-07)
(4.3071e-05 0 -2.09187e-07)
(4.30675e-05 7.48084e-28 -2.21386e-07)
(4.28606e-05 -7.11124e-28 -2.08845e-07)
(4.28467e-05 0 -2.19486e-07)
(4.28356e-05 -6.15739e-28 -2.0949e-07)
(4.28211e-05 0 -2.18686e-07)
(4.30694e-05 0 -2.1123e-07)
(4.30732e-05 0 -2.19349e-07)
(4.30695e-05 0 -2.11909e-07)
(4.30726e-05 -3.80317e-32 -2.18843e-07)
(4.27517e-05 -4.89487e-28 -2.10788e-07)
(4.27338e-05 -1.02694e-31 -2.16554e-07)
(4.27256e-05 1.21826e-31 -2.11198e-07)
(4.2707e-05 2.96792e-28 -2.15847e-07)
(4.30699e-05 0 -2.13325e-07)
(4.30749e-05 8.71941e-32 -2.17416e-07)
(4.30691e-05 7.52506e-32 -2.13775e-07)
(4.30738e-05 -7.43718e-32 -2.16991e-07)
(4.26435e-05 0 -2.11951e-07)
(4.26148e-05 0 -2.1442e-07)
(4.26171e-05 0 -2.12109e-07)
(4.25888e-05 3.85892e-32 -2.13904e-07)
(4.30697e-05 0 -2.1459e-07)
(4.3071e-05 -1.14628e-28 -2.16222e-07)
(4.3069e-05 -8.48418e-29 -2.14703e-07)
(4.30714e-05 9.82008e-29 -2.16077e-07)
(4.25404e-05 7.1466e-29 -2.12267e-07)
(4.25009e-05 0 -2.13079e-07)
(4.25167e-05 -2.69192e-32 -2.12141e-07)
(4.24813e-05 1.39686e-32 -2.12801e-07)
(4.30673e-05 0 -2.15102e-07)
(4.30681e-05 3.42615e-29 -2.15591e-07)
(4.30677e-05 0 -2.15197e-07)
(4.30671e-05 8.20433e-33 -2.1565e-07)
(4.24489e-05 0 -2.12026e-07)
(4.24029e-05 -1.14704e-32 -2.12227e-07)
(4.24308e-05 -3.07393e-29 -2.12009e-07)
(4.23854e-05 -8.76919e-30 -2.12106e-07)
(4.30659e-05 0 -2.15156e-07)
(4.30664e-05 0 -2.15517e-07)
(4.30652e-05 -1.4731e-33 -2.153e-07)
(4.30652e-05 7.94855e-33 -2.1545e-07)
(4.23693e-05 0 -2.11779e-07)
(4.2311e-05 1.19448e-29 -2.11673e-07)
(4.23521e-05 8.37781e-33 -2.11567e-07)
(4.22967e-05 8.1665e-31 -2.11559e-07)
(4.30661e-05 0 -2.15249e-07)
(4.3064e-05 0 -2.1548e-07)
(4.30647e-05 0 -2.1522e-07)
(4.30648e-05 0 -2.15545e-07)
(4.22926e-05 9.48893e-30 -2.11339e-07)
(4.22182e-05 8.59082e-33 -2.11182e-07)
(4.2278e-05 -3.04648e-29 -2.1121e-07)
(4.22007e-05 4.95246e-31 -2.11088e-07)
(4.30649e-05 0 -2.15144e-07)
(4.30652e-05 -1.55905e-29 -2.15424e-07)
(4.30657e-05 0 -2.15272e-07)
(4.30643e-05 -4.97508e-29 -2.15593e-07)
(4.22166e-05 4.11817e-29 -2.10688e-07)
(4.21227e-05 0 -2.10823e-07)
(4.21888e-05 -6.01616e-29 -2.10941e-07)
(4.21154e-05 -6.31119e-30 -2.09989e-07)
(4.30385e-05 0 -2.16447e-07)
(4.30782e-05 5.54578e-28 -2.11034e-07)
(4.31059e-05 -5.83488e-28 -2.19507e-07)
(4.1945e-05 2.13831e-29 -2.10552e-07)
(4.21211e-05 -5.70671e-29 -2.10311e-07)
(4.17953e-05 -3.11641e-32 -2.09484e-07)
(4.23652e-05 -2.81163e-28 -2.08441e-07)
(4.19056e-05 -7.94855e-28 -2.11364e-07)
(4.2446e-05 -3.60186e-27 -1.75972e-07)
(4.33612e-05 0 -3.1901e-07)
(4.14212e-05 0 -9.26184e-08)
(4.95481e-05 -3.28971e-29 -4.92723e-07)
(3.23551e-05 0 -1.25782e-06)
(2.35784e-05 1.25601e-29 -1.17892e-07)
(2.77194e-05 1.70955e-30 -1.38597e-07)
(2.87162e-05 0 -1.43581e-07)
)
;

boundaryField
{
    inlet
    {
        type            zeroGradient;
    }
    outlet
    {
        type            zeroGradient;
    }
    sideWall
    {
        type            empty;
    }
}


// ************************************************************************* //
