/*--------------------------------*- C++ -*----------------------------------*\
| =========                 |                                                 |
| \\      /  F ield         | foam-extend: Open Source CFD                    |
|  \\    /   O peration     | Version:     3.2                                |
|   \\  /    A nd           | Web:         http://www.foam-extend.org         |
|    \\/     M anipulation  | For copyright notice see file Copyright         |
\*---------------------------------------------------------------------------*/
FoamFile
{
    version     2.0;
    format      ascii;
    class       edgeScalarField;
    location    "2000";
    object      q_f;
}
// * * * * * * * * * * * * * * * * * * * * * * * * * * * * * * * * * * * * * //

dimensions      [0 3 -1 0 0 0 0];

internalField   nonuniform List<scalar> 
299
(
9.96602e-07
1.02562e-06
7.35642e-07
5.45533e-07
4.55883e-07
4.21478e-07
4.10914e-07
4.11314e-07
4.16054e-07
4.23109e-07
4.30934e-07
4.38761e-07
4.46734e-07
4.54804e-07
4.62816e-07
4.71179e-07
4.79831e-07
4.88635e-07
4.97634e-07
5.06735e-07
5.15918e-07
5.25306e-07
5.35025e-07
5.44781e-07
5.54056e-07
5.62565e-07
5.70192e-07
5.76894e-07
5.827e-07
5.87688e-07
5.9197e-07
5.95598e-07
5.98607e-07
6.01052e-07
6.03042e-07
6.0469e-07
6.0607e-07
6.07231e-07
6.08216e-07
6.09052e-07
6.09765e-07
6.1037e-07
6.10889e-07
6.11327e-07
6.11705e-07
6.12023e-07
6.12299e-07
6.12531e-07
6.12748e-07
6.12886e-07
6.13111e-07
6.13077e-07
6.13507e-07
6.12892e-07
6.14427e-07
6.11231e-07
6.16687e-07
5.87168e-07
6.16002e-07
9.23025e-07
1.11989e-06
9.76437e-07
8.75146e-07
8.67792e-07
8.59051e-07
8.58196e-07
8.56905e-07
8.57063e-07
8.57553e-07
8.58088e-07
8.58347e-07
8.58707e-07
8.59138e-07
8.59557e-07
8.59898e-07
8.60184e-07
8.60429e-07
8.60599e-07
8.60726e-07
8.60846e-07
8.60935e-07
8.60997e-07
8.6104e-07
8.61066e-07
8.61085e-07
8.61089e-07
8.61094e-07
8.61123e-07
8.61139e-07
8.61143e-07
8.61142e-07
8.61136e-07
8.61124e-07
8.6112e-07
8.61137e-07
8.61147e-07
8.61154e-07
8.61155e-07
8.61152e-07
8.61136e-07
8.61128e-07
8.6115e-07
8.61164e-07
8.61169e-07
8.61166e-07
8.61159e-07
8.61145e-07
8.61139e-07
8.6116e-07
8.61174e-07
8.61175e-07
8.6117e-07
8.61161e-07
8.61145e-07
8.61137e-07
8.61156e-07
8.61172e-07
8.61171e-07
8.61167e-07
8.61152e-07
8.61139e-07
8.61129e-07
8.61149e-07
8.61164e-07
8.61163e-07
8.61155e-07
8.61142e-07
8.61137e-07
8.61112e-07
8.61141e-07
8.61121e-07
8.61144e-07
8.61141e-07
8.61131e-07
8.61094e-07
8.6111e-07
8.61109e-07
8.61139e-07
8.61112e-07
8.61132e-07
8.61091e-07
8.61108e-07
8.61094e-07
8.61133e-07
8.61093e-07
8.61123e-07
8.61068e-07
8.61094e-07
8.61068e-07
8.61117e-07
8.61065e-07
8.61103e-07
8.61037e-07
8.6107e-07
8.61034e-07
8.61088e-07
8.61029e-07
8.6107e-07
8.61e-07
8.61034e-07
8.60997e-07
8.61046e-07
8.60993e-07
8.61021e-07
8.60965e-07
8.6102e-07
8.60984e-07
8.61013e-07
8.60967e-07
8.60982e-07
8.60973e-07
8.60996e-07
8.60976e-07
8.60975e-07
8.60957e-07
8.60978e-07
8.60983e-07
8.60977e-07
8.60973e-07
8.60953e-07
8.60986e-07
8.60976e-07
8.60996e-07
8.60965e-07
8.60983e-07
8.60975e-07
8.61015e-07
8.60982e-07
8.6101e-07
8.60965e-07
8.61028e-07
8.60994e-07
8.61041e-07
8.60986e-07
8.61031e-07
8.61003e-07
8.61065e-07
8.61018e-07
8.61069e-07
8.6097e-07
8.60982e-07
8.60878e-07
8.60872e-07
8.61002e-07
8.61178e-07
8.6115e-07
8.61193e-07
8.60705e-07
8.60327e-07
8.6017e-07
8.60057e-07
8.6063e-07
8.61282e-07
8.61275e-07
8.61307e-07
8.60141e-07
8.58989e-07
8.58772e-07
8.5857e-07
8.59917e-07
8.61384e-07
8.61385e-07
8.61396e-07
8.59292e-07
8.57083e-07
8.56833e-07
8.56577e-07
8.58915e-07
8.61436e-07
8.61437e-07
8.61431e-07
8.58254e-07
8.54865e-07
8.54604e-07
8.54337e-07
8.5778e-07
8.61458e-07
8.6145e-07
8.6144e-07
8.57183e-07
8.52594e-07
8.5233e-07
8.52069e-07
8.56595e-07
8.61418e-07
8.61411e-07
8.61415e-07
8.56129e-07
8.50424e-07
8.50187e-07
8.49991e-07
8.55497e-07
8.61365e-07
8.61369e-07
8.61359e-07
8.55171e-07
8.48529e-07
8.48348e-07
8.48172e-07
8.54524e-07
8.61334e-07
8.61327e-07
8.61315e-07
8.54356e-07
8.46814e-07
8.46642e-07
8.46498e-07
8.53639e-07
8.61312e-07
8.61298e-07
8.61306e-07
8.53585e-07
8.45119e-07
8.44973e-07
8.44798e-07
8.52667e-07
8.61312e-07
8.61319e-07
8.61311e-07
8.5282e-07
8.43403e-07
8.43126e-07
8.43053e-07
8.51549e-07
8.61178e-07
8.61851e-07
8.50519e-07
8.40672e-07
8.39175e-07
8.41615e-07
8.42718e-07
8.43524e-07
8.58087e-07
8.47836e-07
9.09717e-07
8.19361e-07
5.59549e-07
5.12984e-07
5.64363e-07
)
;

boundaryField
{
    inlet
    {
        type            calculated;
        value           uniform 0;
    }
    outlet
    {
        type            calculated;
        value           uniform 0;
    }
    sideWall
    {
        type            empty;
    }
}


// ************************************************************************* //
