/*--------------------------------*- C++ -*----------------------------------*\
| =========                 |                                                 |
| \\      /  F ield         | foam-extend: Open Source CFD                    |
|  \\    /   O peration     | Version:     3.2                                |
|   \\  /    A nd           | Web:         http://www.foam-extend.org         |
|    \\/     M anipulation  | For copyright notice see file Copyright         |
\*---------------------------------------------------------------------------*/
FoamFile
{
    version     2.0;
    format      ascii;
    class       areaScalarField;
    location    "2000";
    object      SSe1;
}
// * * * * * * * * * * * * * * * * * * * * * * * * * * * * * * * * * * * * * //

dimensions      [0 1 -2 -1 0 0 0];

internalField   nonuniform List<scalar> 
300
(
0.000132196
0.000180043
0.000139442
0.000107648
9.06968e-05
8.39885e-05
8.14337e-05
8.11204e-05
8.15425e-05
8.24101e-05
8.34582e-05
8.45298e-05
8.5573e-05
8.66782e-05
8.77426e-05
8.88266e-05
8.99795e-05
9.11351e-05
9.2323e-05
9.35244e-05
9.47336e-05
9.59508e-05
9.72086e-05
9.85066e-05
9.97684e-05
0.000100935
0.000101991
0.000102924
0.000103737
0.000104434
0.000105032
0.000105545
0.000105973
0.000106325
0.000106606
0.00010684
0.000107033
0.000107197
0.000107333
0.000107451
0.000107549
0.000107636
0.000107705
0.00010777
0.000107819
0.000107867
0.000107901
0.000107939
0.000107961
0.000107995
0.000107997
0.000108053
0.000107988
0.000108164
0.000107829
0.00010856
0.000107003
0.000109964
9.93436e-05
7.56653e-05
0.000122027
0.000122027
0.000122027
0.000122027
0.000122027
0.000122027
0.000122027
0.000122027
0.000122027
0.000122027
0.000121967
0.000121942
0.000121925
0.000121927
0.000121944
0.000121956
0.000121966
0.000121982
0.000121993
0.000121994
0.000122002
0.000122008
0.000122013
0.000122017
0.000122019
0.000122023
0.000122023
0.000122017
0.00012202
0.000122023
0.000122024
0.000122026
0.000122027
0.000122026
0.000122019
0.000122022
0.000122023
0.000122026
0.000122025
0.000122028
0.000122025
0.000122021
0.000122021
0.000122025
0.000122024
0.000122027
0.000122027
0.000122027
0.00012202
0.000122023
0.000122024
0.000122026
0.000122026
0.000122028
0.000122027
0.000122021
0.000122022
0.000122025
0.000122025
0.000122028
0.000122027
0.000122029
0.000122018
0.000122026
0.000122021
0.00012203
0.000122023
0.000122032
0.000122024
0.000122023
0.000122024
0.000122019
0.000122039
0.000122011
0.000122048
0.000122003
0.000122048
0.000121989
0.000122063
0.000121981
0.000122079
0.000121968
0.000122087
0.000121947
0.000122109
0.000121929
0.000122133
0.000121908
0.00012215
0.000121877
0.000122182
0.00012185
0.000122215
0.000121819
0.000122241
0.000121779
0.000122282
0.000121744
0.000122323
0.000121705
0.000122356
0.000121659
0.000122401
0.000121621
0.000122444
0.000121572
0.000122482
0.000121536
0.000122525
0.000121499
0.000122555
0.000121459
0.000122593
0.000121431
0.000122625
0.000121398
0.000122646
0.00012138
0.000122669
0.000121365
0.000122678
0.00012135
0.000122692
0.000121346
0.0001227
0.000121338
0.000122697
0.000121346
0.000122697
0.000121356
0.000122681
0.000121365
0.000122672
0.000121386
0.000122655
0.000121403
0.000122629
0.000121435
0.000122606
0.000121459
0.000122576
0.000121498
0.00012255
0.000121527
0.000122517
0.000121569
0.00012249
0.000121608
0.000122452
0.000121643
0.000122425
0.000121684
0.000122388
0.000121718
0.000122363
0.000121757
0.000122328
0.000121789
0.000122305
0.000121825
0.000122272
0.000121852
0.000122252
0.000121883
0.000122223
0.000121907
0.000122208
0.000121934
0.000122182
0.000121952
0.000122168
0.000121973
0.000122148
0.000121987
0.000122138
0.000121999
0.000122123
0.000122016
0.000122114
0.000122021
0.000122102
0.000122035
0.000122099
0.000122038
0.000122088
0.000122046
0.000122077
0.000122046
0.000122079
0.000122054
0.000122072
0.000122054
0.000122071
0.00012205
0.000122064
0.000122053
0.000122061
0.000122053
0.000122065
0.000122058
0.000122058
0.000122054
0.00012206
0.000122049
0.000122059
0.000122055
0.000122058
0.000122054
0.000122062
0.000122056
0.000122055
0.000122053
0.000122062
0.00012205
0.000122063
0.000122057
0.00012206
0.000122051
0.000122064
0.000122059
0.000122044
0.000122074
0.000122036
0.000122118
0.000121976
0.000122185
0.000122034
0.000122033
0.000122033
0.000122032
0.000122032
0.000122032
0.000122032
0.000122032
0.000122032
0.000122032
8.2736e-05
8.91729e-05
0.000100422
0.000102995
)
;

boundaryField
{
    inlet
    {
        type            calculated;
        value           uniform 0;
    }
    outlet
    {
        type            calculated;
        value           uniform 0;
    }
    sideWall
    {
        type            empty;
    }
}


// ************************************************************************* //
