/*--------------------------------*- C++ -*----------------------------------*\
| =========                 |                                                 |
| \\      /  F ield         | foam-extend: Open Source CFD                    |
|  \\    /   O peration     | Version:     3.2                                |
|   \\  /    A nd           | Web:         http://www.foam-extend.org         |
|    \\/     M anipulation  | For copyright notice see file Copyright         |
\*---------------------------------------------------------------------------*/
FoamFile
{
    version     2.0;
    format      ascii;
    class       areaScalarField;
    location    "2000";
    object      tau;
}
// * * * * * * * * * * * * * * * * * * * * * * * * * * * * * * * * * * * * * //

dimensions      [1 1 2 0 0 0 0];

internalField   nonuniform List<scalar> 
300
(
1.09033
1.33564
1.12918
0.953038
0.852063
0.810391
0.794232
0.792239
0.794924
0.800427
0.807051
0.813794
0.820332
0.827229
0.833843
0.840552
0.847657
0.854749
0.862008
0.869317
0.876643
0.883986
0.891541
0.899303
0.906816
0.913733
0.919977
0.92547
0.930241
0.934325
0.937825
0.940817
0.943311
0.945358
0.946996
0.948351
0.949472
0.950423
0.951215
0.9519
0.952467
0.952968
0.953373
0.953745
0.954029
0.95431
0.954505
0.954723
0.954852
0.955047
0.955059
0.955382
0.955009
0.956024
0.95409
0.958314
0.949301
0.966423
0.904148
1.02393
1.3278
1.26324
1.13768
1.13965
1.12762
1.1281
1.12627
1.12638
1.12646
1.12694
1.12709
1.12732
1.1276
1.12792
1.12819
1.1284
1.12859
1.12875
1.12883
1.12893
1.12901
1.12906
1.1291
1.12913
1.12914
1.12916
1.12915
1.12917
1.1292
1.1292
1.1292
1.1292
1.1292
1.12918
1.12919
1.12921
1.12921
1.12921
1.1292
1.12921
1.12919
1.1292
1.12922
1.12922
1.12922
1.12921
1.12921
1.1292
1.12921
1.12922
1.12922
1.12922
1.12922
1.12921
1.12919
1.12921
1.12922
1.12922
1.12922
1.12922
1.12921
1.1292
1.1292
1.12923
1.1292
1.12922
1.1292
1.12921
1.12918
1.12919
1.12922
1.12918
1.12926
1.12914
1.12926
1.12909
1.12927
1.12909
1.12931
1.12905
1.12934
1.12899
1.12936
1.12897
1.12942
1.12891
1.12946
1.12884
1.12951
1.1288
1.12958
1.12872
1.12963
1.12862
1.12969
1.12857
1.12977
1.12848
1.12983
1.12838
1.12989
1.12832
1.12996
1.12824
1.13001
1.12815
1.13009
1.12809
1.13014
1.12802
1.13017
1.128
1.13021
1.12796
1.13022
1.12793
1.13026
1.12793
1.13026
1.12792
1.13024
1.12796
1.13023
1.12798
1.13019
1.128
1.13018
1.12805
1.13014
1.12809
1.13008
1.12817
1.13003
1.12824
1.12996
1.1283
1.12991
1.12839
1.12985
1.12846
1.12981
1.12856
1.12975
1.12863
1.12973
1.12873
1.12968
1.12879
1.12963
1.12889
1.1296
1.12895
1.12955
1.12904
1.12953
1.12909
1.1295
1.12916
1.12949
1.1292
1.12946
1.12926
1.12945
1.12928
1.12944
1.12933
1.12943
1.12934
1.12941
1.12938
1.12941
1.12938
1.12939
1.12941
1.12939
1.12941
1.1294
1.12942
1.12938
1.12941
1.12939
1.12941
1.12938
1.1294
1.12938
1.12938
1.12937
1.12939
1.12937
1.12937
1.12936
1.12937
1.12934
1.12935
1.12935
1.12934
1.12934
1.12935
1.12934
1.12933
1.12933
1.12933
1.12932
1.12931
1.12933
1.1293
1.12933
1.12932
1.12933
1.1293
1.12931
1.12931
1.1293
1.1293
1.12933
1.1293
1.12931
1.12931
1.12932
1.1293
1.12929
1.12939
1.12922
1.12959
1.12895
1.12953
1.12981
1.12888
1.12936
1.12835
1.13027
1.12556
1.13513
1.13221
1.10858
1.21104
0.96616
0.84444
0.910544
0.925898
)
;

boundaryField
{
    inlet
    {
        type            calculated;
        value           uniform 0;
    }
    outlet
    {
        type            calculated;
        value           uniform 0;
    }
    sideWall
    {
        type            empty;
    }
}


// ************************************************************************* //
