/*--------------------------------*- C++ -*----------------------------------*\
| =========                 |                                                 |
| \\      /  F ield         | foam-extend: Open Source CFD                    |
|  \\    /   O peration     | Version:     3.2                                |
|   \\  /    A nd           | Web:         http://www.foam-extend.org         |
|    \\/     M anipulation  | For copyright notice see file Copyright         |
\*---------------------------------------------------------------------------*/
FoamFile
{
    version     2.0;
    format      ascii;
    class       areaScalarField;
    location    "2000";
    object      tauCSS1;
}
// * * * * * * * * * * * * * * * * * * * * * * * * * * * * * * * * * * * * * //

dimensions      [1 1 2 0 0 0 0];

internalField   nonuniform List<scalar> 
300
(
0.0176069
0.0176069
0.0176069
0.0176069
0.0176069
0.0176069
0.0176069
0.0176069
0.0176069
0.0176069
0.0176069
0.0176069
0.0176069
0.0176069
0.0176069
0.0176069
0.0176069
0.0176069
0.0176069
0.0176069
0.0176069
0.0176069
0.0176069
0.0176069
0.0176069
0.0176069
0.0176069
0.0176069
0.0176069
0.0176069
0.0176069
0.0176069
0.0176069
0.0176069
0.0176069
0.0176069
0.0176069
0.0176069
0.0176069
0.0176069
0.0176069
0.0176069
0.0176069
0.0176069
0.0176069
0.0176069
0.0176069
0.0176069
0.0176069
0.0176069
0.0176069
0.0176069
0.0176069
0.0176069
0.0176069
0.0176069
0.0176069
0.0176069
0.0176069
0.0198943
0.0208704
0.0194568
0.0194172
0.0192802
0.0191786
0.0191167
0.0191031
0.0191063
0.0191179
0.0191292
0.0191418
0.0191553
0.0191689
0.0191793
0.0191867
0.0191933
0.0192
0.0192039
0.0192076
0.0192124
0.0192151
0.0192175
0.0192195
0.019221
0.0192223
0.0192232
0.0192239
0.019226
0.0192262
0.0192264
0.0192264
0.0192265
0.0192264
0.0192263
0.0192278
0.0192276
0.0192274
0.0192272
0.019227
0.0192268
0.0192265
0.0192279
0.0192276
0.0192274
0.0192271
0.0192269
0.0192267
0.0192264
0.0192278
0.0192275
0.0192273
0.0192271
0.0192268
0.0192266
0.0192263
0.0192277
0.0192274
0.0192272
0.019227
0.0192268
0.0192265
0.0192263
0.0192276
0.0192274
0.0192271
0.0192269
0.0192265
0.0192264
0.019226
0.0192275
0.0192271
0.0192269
0.0192268
0.0192263
0.0192264
0.0192257
0.0192276
0.0192266
0.0192272
0.0192259
0.0192269
0.0192252
0.0192281
0.019226
0.0192278
0.0192252
0.0192276
0.0192243
0.019229
0.0192249
0.0192289
0.0192239
0.0192289
0.0192229
0.0192304
0.0192233
0.0192304
0.0192221
0.0192305
0.0192209
0.0192322
0.0192211
0.0192324
0.0192198
0.0192326
0.01922
0.0192342
0.0192186
0.0192344
0.0192174
0.019236
0.0192175
0.0192361
0.0192163
0.0192362
0.0192166
0.0192375
0.0192154
0.0192374
0.0192144
0.0192387
0.0192149
0.0192383
0.019214
0.019238
0.0192146
0.0192389
0.0192139
0.0192383
0.0192132
0.0192391
0.0192141
0.0192383
0.0192136
0.0192375
0.0192146
0.0192379
0.0192143
0.0192369
0.0192155
0.0192372
0.0192153
0.019236
0.0192166
0.0192362
0.0192165
0.0192349
0.0192164
0.019235
0.0192177
0.0192337
0.0192176
0.0192338
0.019219
0.0192324
0.0192189
0.0192325
0.0192202
0.0192312
0.0192201
0.0192313
0.0192213
0.01923
0.0192211
0.0192301
0.0192223
0.0192289
0.0192221
0.0192291
0.0192231
0.0192279
0.0192227
0.0192282
0.0192237
0.0192271
0.0192247
0.0192274
0.0192242
0.0192264
0.019225
0.0192267
0.0192245
0.0192258
0.0192253
0.0192262
0.0192246
0.0192266
0.0192253
0.0192258
0.0192246
0.0192263
0.0192253
0.0192254
0.0192259
0.0192258
0.0192251
0.0192264
0.0192257
0.0192256
0.0192249
0.0192261
0.0192253
0.0192252
0.0192259
0.0192258
0.0192251
0.0192263
0.0192255
0.0192255
0.0192246
0.019226
0.019225
0.0192252
0.0192255
0.0192257
0.0192249
0.0192257
0.0192257
0.0192251
0.019224
0.0192279
0.0192242
0.019226
0.0192261
0.0192231
0.0192317
0.0192221
0.0192172
0.0192298
0.0192096
0.0192567
0.0191574
0.0194624
0.0189173
0.0193088
0.0198301
0.0168502
0.0176069
0.0176069
0.0176069
)
;

boundaryField
{
    inlet
    {
        type            calculated;
        value           uniform 0;
    }
    outlet
    {
        type            calculated;
        value           uniform 0;
    }
    sideWall
    {
        type            empty;
    }
}


// ************************************************************************* //
