/*--------------------------------*- C++ -*----------------------------------*\
| =========                 |                                                 |
| \\      /  F ield         | foam-extend: Open Source CFD                    |
|  \\    /   O peration     | Version:     3.2                                |
|   \\  /    A nd           | Web:         http://www.foam-extend.org         |
|    \\/     M anipulation  | For copyright notice see file Copyright         |
\*---------------------------------------------------------------------------*/
FoamFile
{
    version     2.0;
    format      ascii;
    class       areaScalarField;
    location    "2000";
    object      tauCB;
}
// * * * * * * * * * * * * * * * * * * * * * * * * * * * * * * * * * * * * * //

dimensions      [1 1 2 0 0 0 0];

internalField   nonuniform List<scalar> 
300
(
0.112594
0.112594
0.112594
0.112594
0.112594
0.112594
0.112594
0.112594
0.112594
0.112594
0.112594
0.112594
0.112594
0.112594
0.112594
0.112594
0.112594
0.112594
0.112594
0.112594
0.112594
0.112594
0.112594
0.112594
0.112594
0.112594
0.112594
0.112594
0.112594
0.112594
0.112594
0.112594
0.112594
0.112594
0.112594
0.112594
0.112594
0.112594
0.112594
0.112594
0.112594
0.112594
0.112594
0.112594
0.112594
0.112594
0.112594
0.112594
0.112594
0.112594
0.112594
0.112594
0.112594
0.112594
0.112594
0.112594
0.112594
0.112594
0.112594
0.118946
0.116534
0.110525
0.112788
0.112562
0.112658
0.112566
0.112574
0.112563
0.112565
0.112527
0.112532
0.11254
0.112547
0.112553
0.112559
0.112563
0.112568
0.112572
0.112575
0.112579
0.112582
0.112584
0.112586
0.112588
0.112589
0.11259
0.112591
0.112592
0.112593
0.112593
0.112593
0.112593
0.112594
0.112594
0.112594
0.112596
0.112596
0.112594
0.112594
0.112594
0.112595
0.112595
0.112595
0.112594
0.112594
0.112594
0.112594
0.112594
0.112595
0.112594
0.112594
0.112594
0.112594
0.112595
0.112594
0.112596
0.112594
0.112594
0.112594
0.112594
0.112596
0.112594
0.112598
0.112594
0.112593
0.112594
0.112595
0.112594
0.112593
0.112599
0.112593
0.112607
0.112594
0.112593
0.112603
0.112593
0.112596
0.112591
0.112596
0.11259
0.112597
0.112589
0.112599
0.112588
0.1126
0.112586
0.112602
0.112584
0.112605
0.112582
0.112607
0.112579
0.11261
0.112576
0.112613
0.112573
0.112617
0.112569
0.11262
0.112565
0.112625
0.112561
0.112629
0.112557
0.112633
0.112553
0.112638
0.112549
0.112642
0.112544
0.112647
0.11254
0.112651
0.112536
0.112654
0.112533
0.112657
0.11253
0.11266
0.112527
0.112663
0.112525
0.112664
0.112523
0.112665
0.112522
0.112666
0.112522
0.112666
0.112521
0.112667
0.112522
0.112666
0.112522
0.112664
0.112524
0.112662
0.112526
0.11266
0.112529
0.1127
0.11256
0.11273
0.112595
0.112651
0.112538
0.112648
0.112541
0.112884
0.112778
0.112956
0.112863
0.112637
0.112552
0.112633
0.112556
0.113237
0.113196
0.113346
0.113318
0.112622
0.112566
0.112619
0.112569
0.113726
0.113759
0.113857
0.113899
0.11261
0.112577
0.112608
0.11258
0.114288
0.114389
0.114425
0.114535
0.112602
0.112585
0.1126
0.112587
0.114864
0.115026
0.114999
0.115158
0.112597
0.11259
0.112596
0.112591
0.115406
0.115617
0.115528
0.115723
0.112595
0.112593
0.112594
0.112592
0.115886
0.116134
0.115982
0.116219
0.112594
0.112593
0.112594
0.112593
0.116308
0.11661
0.116399
0.116693
0.112594
0.112593
0.112594
0.112593
0.116708
0.117107
0.116796
0.117203
0.112594
0.112593
0.112594
0.112593
0.117111
0.117657
0.117233
0.117781
0.112589
0.112611
0.112578
0.118413
0.117656
0.119011
0.116707
0.117287
0.118228
0.112181
0.113077
0.111726
0.106601
0.112594
0.112594
0.112594
)
;

boundaryField
{
    inlet
    {
        type            calculated;
        value           uniform 0;
    }
    outlet
    {
        type            calculated;
        value           uniform 0;
    }
    sideWall
    {
        type            empty;
    }
}


// ************************************************************************* //
