/*--------------------------------*- C++ -*----------------------------------*\
| =========                 |                                                 |
| \\      /  F ield         | foam-extend: Open Source CFD                    |
|  \\    /   O peration     | Version:     3.2                                |
|   \\  /    A nd           | Web:         http://www.foam-extend.org         |
|    \\/     M anipulation  | For copyright notice see file Copyright         |
\*---------------------------------------------------------------------------*/
FoamFile
{
    version     2.0;
    format      ascii;
    class       areaScalarField;
    location    "2000";
    object      tauCSS2;
}
// * * * * * * * * * * * * * * * * * * * * * * * * * * * * * * * * * * * * * //

dimensions      [1 1 2 0 0 0 0];

internalField   nonuniform List<scalar> 
300
(
0.0552126
0.0552126
0.0552126
0.0552126
0.0552126
0.0552126
0.0552126
0.0552126
0.0552126
0.0552126
0.0552126
0.0552126
0.0552126
0.0552126
0.0552126
0.0552126
0.0552126
0.0552126
0.0552126
0.0552126
0.0552126
0.0552126
0.0552126
0.0552126
0.0552126
0.0552126
0.0552126
0.0552126
0.0552126
0.0552126
0.0552126
0.0552126
0.0552126
0.0552126
0.0552126
0.0552126
0.0552126
0.0552126
0.0552126
0.0552126
0.0552126
0.0552126
0.0552126
0.0552126
0.0552126
0.0552126
0.0552126
0.0552126
0.0552126
0.0552126
0.0552126
0.0552126
0.0552126
0.0552126
0.0552126
0.0552126
0.0552126
0.0552126
0.0552126
0.0623857
0.0654465
0.0610137
0.0608895
0.06046
0.0601412
0.0599473
0.0599045
0.0599147
0.059951
0.0599864
0.060026
0.0600681
0.0601108
0.0601435
0.0601668
0.0601875
0.0602083
0.0602207
0.0602322
0.0602472
0.0602558
0.0602634
0.0602694
0.0602744
0.0602783
0.0602812
0.0602832
0.0602901
0.0602906
0.0602912
0.0602913
0.0602914
0.0602911
0.0602909
0.0602956
0.0602949
0.0602943
0.0602937
0.0602929
0.0602923
0.0602915
0.060296
0.060295
0.0602944
0.0602935
0.0602928
0.060292
0.0602913
0.0602956
0.0602948
0.060294
0.0602933
0.0602925
0.0602917
0.060291
0.0602953
0.0602944
0.0602937
0.0602929
0.0602923
0.0602914
0.0602908
0.0602949
0.0602943
0.0602932
0.0602927
0.0602916
0.0602913
0.06029
0.0602947
0.0602934
0.0602928
0.0602924
0.0602908
0.0602912
0.0602889
0.0602948
0.0602917
0.0602937
0.0602897
0.0602927
0.0602875
0.0602966
0.0602898
0.0602957
0.0602874
0.0602951
0.0602847
0.0602994
0.0602865
0.0602991
0.0602834
0.0602989
0.0602801
0.0603037
0.0602813
0.0603038
0.0602777
0.0603041
0.060274
0.0603094
0.0602746
0.0603099
0.0602705
0.0603105
0.0602711
0.0603156
0.0602669
0.0603162
0.0602629
0.0603213
0.0602633
0.0603216
0.0602595
0.0603218
0.0602604
0.0603261
0.0602568
0.0603256
0.0602536
0.0603296
0.060255
0.0603286
0.0602523
0.0603275
0.0602542
0.0603304
0.0602519
0.0603285
0.0602498
0.0603311
0.0602525
0.0603286
0.060251
0.0603259
0.0602543
0.0603272
0.0602533
0.060324
0.060257
0.0603249
0.0602564
0.0603213
0.0602604
0.0603218
0.06026
0.0603179
0.0602597
0.0603182
0.0602638
0.060314
0.0602638
0.0603143
0.0602679
0.0603101
0.0602677
0.0603103
0.0602716
0.0603061
0.0602713
0.0603064
0.0602752
0.0603024
0.0602747
0.0603028
0.0602783
0.060299
0.0602776
0.0602996
0.0602808
0.0602959
0.0602797
0.0602968
0.0602828
0.0602934
0.0602859
0.0602943
0.0602843
0.0602911
0.060287
0.0602921
0.0602852
0.0602892
0.0602878
0.0602904
0.0602857
0.060292
0.0602877
0.0602892
0.0602856
0.0602908
0.0602877
0.060288
0.0602896
0.0602894
0.0602871
0.0602911
0.0602889
0.0602886
0.0602864
0.0602903
0.0602879
0.0602876
0.0602895
0.0602892
0.060287
0.0602909
0.0602885
0.0602882
0.0602857
0.0602899
0.0602868
0.0602875
0.0602884
0.0602889
0.0602864
0.0602891
0.0602889
0.060287
0.0602838
0.0602958
0.0602841
0.0602899
0.0602902
0.0602807
0.0603078
0.0602776
0.0602624
0.0603019
0.0602386
0.0603864
0.0600748
0.0610312
0.0593217
0.0605496
0.0621842
0.0528397
0.0552126
0.0552126
0.0552126
)
;

boundaryField
{
    inlet
    {
        type            calculated;
        value           uniform 0;
    }
    outlet
    {
        type            calculated;
        value           uniform 0;
    }
    sideWall
    {
        type            empty;
    }
}


// ************************************************************************* //
