/*--------------------------------*- C++ -*----------------------------------*\
| =========                 |                                                 |
| \\      /  F ield         | foam-extend: Open Source CFD                    |
|  \\    /   O peration     | Version:     3.2                                |
|   \\  /    A nd           | Web:         http://www.foam-extend.org         |
|    \\/     M anipulation  | For copyright notice see file Copyright         |
\*---------------------------------------------------------------------------*/
FoamFile
{
    version     2.0;
    format      ascii;
    class       volScalarField;
    location    "2000";
    object      testS;
}
// * * * * * * * * * * * * * * * * * * * * * * * * * * * * * * * * * * * * * //

dimensions      [0 0 0 0 0 0 0];

internalField   uniform 0;

boundaryField
{
    inlet
    {
        type            calculated;
        value           uniform 0;
    }
    outlet
    {
        type            calculated;
        value           uniform 0;
    }
    sideWall
    {
        type            empty;
    }
    bed
    {
        type            calculated;
        value           nonuniform List<scalar> 
300
(
0.282682
0.384995
0.298175
0.230188
0.193941
0.179597
0.174134
0.173464
0.174366
0.176221
0.178463
0.180754
0.182985
0.185348
0.187624
0.189942
0.192408
0.194879
0.197419
0.199988
0.202573
0.205176
0.207866
0.210641
0.21334
0.215834
0.218093
0.220088
0.221825
0.223316
0.224596
0.225692
0.226607
0.227359
0.227962
0.22846
0.228873
0.229224
0.229516
0.229768
0.229977
0.230162
0.230312
0.230449
0.230554
0.230658
0.23073
0.23081
0.230858
0.23093
0.230934
0.231054
0.230916
0.231291
0.230576
0.232138
0.22881
0.235142
0.212431
0.161799
0.260936
0.260936
0.260936
0.260936
0.260936
0.260936
0.260936
0.260936
0.260936
0.260935
0.260807
0.260755
0.260719
0.260722
0.260759
0.260784
0.260805
0.260841
0.260864
0.260866
0.260883
0.260896
0.260906
0.260915
0.260919
0.260927
0.260927
0.260916
0.260921
0.260929
0.260931
0.260934
0.260936
0.260934
0.26092
0.260926
0.260928
0.260934
0.260932
0.260939
0.260932
0.260923
0.260923
0.260932
0.260931
0.260936
0.260936
0.260937
0.26092
0.260927
0.260929
0.260934
0.260935
0.260938
0.260936
0.260923
0.260926
0.260932
0.260933
0.260937
0.260935
0.26094
0.260917
0.260934
0.260923
0.260943
0.260927
0.260946
0.26093
0.260928
0.26093
0.26092
0.260962
0.260903
0.260981
0.260886
0.260981
0.260855
0.261013
0.260837
0.261046
0.260811
0.261063
0.260764
0.261112
0.260728
0.261163
0.260681
0.261199
0.260615
0.261268
0.260558
0.261338
0.260491
0.261394
0.260405
0.261482
0.26033
0.261569
0.260247
0.261639
0.26015
0.261737
0.260068
0.261828
0.259963
0.261908
0.259886
0.262001
0.259807
0.262066
0.259722
0.262147
0.259662
0.262214
0.25959
0.262259
0.259553
0.26231
0.259521
0.262327
0.259488
0.262359
0.259481
0.262375
0.259463
0.262369
0.259479
0.262368
0.2595
0.262334
0.259521
0.262315
0.259566
0.262279
0.259601
0.262223
0.259669
0.262175
0.259722
0.26211
0.259804
0.262055
0.259867
0.261984
0.259956
0.261925
0.260041
0.261845
0.260114
0.261788
0.260203
0.261709
0.260275
0.261654
0.260359
0.261579
0.260427
0.26153
0.260504
0.261461
0.260562
0.261417
0.260629
0.261356
0.26068
0.261322
0.260737
0.261267
0.260776
0.261239
0.26082
0.261195
0.260852
0.261175
0.260877
0.261141
0.260912
0.261123
0.260922
0.261097
0.260953
0.261089
0.260959
0.261066
0.260976
0.261044
0.260977
0.261047
0.260993
0.261032
0.260994
0.26103
0.260985
0.261016
0.260993
0.261008
0.260992
0.261018
0.261003
0.261004
0.260994
0.261007
0.260983
0.261005
0.260995
0.261002
0.260994
0.261011
0.260999
0.260995
0.260991
0.26101
0.260986
0.261013
0.261001
0.261007
0.260988
0.261015
0.261005
0.260972
0.261036
0.260955
0.26113
0.260826
0.261275
0.26095
0.26095
0.260949
0.260948
0.260947
0.260947
0.260947
0.260946
0.260946
0.260946
0.176918
0.190683
0.214736
0.220239
)
;
    }
    topWall
    {
        type            calculated;
        value           uniform 0;
    }
}


// ************************************************************************* //
