/*--------------------------------*- C++ -*----------------------------------*\
| =========                 |                                                 |
| \\      /  F ield         | foam-extend: Open Source CFD                    |
|  \\    /   O peration     | Version:     3.2                                |
|   \\  /    A nd           | Web:         http://www.foam-extend.org         |
|    \\/     M anipulation  | For copyright notice see file Copyright         |
\*---------------------------------------------------------------------------*/
FoamFile
{
    version     2.0;
    format      ascii;
    class       areaScalarField;
    location    "2000";
    object      thetaSS1init;
}
// * * * * * * * * * * * * * * * * * * * * * * * * * * * * * * * * * * * * * //

dimensions      [0 0 0 0 0 0 0];

internalField   nonuniform List<scalar> 
300
(
7.2556
8.89488
7.55275
6.33378
5.6825
5.39213
5.28905
5.27561
5.29404
5.33075
5.3759
5.4206
5.46477
5.5105
5.55491
5.5999
5.64713
5.69465
5.74292
5.79168
5.84043
5.88938
5.93979
5.99159
6.04168
6.08778
6.12935
6.16596
6.19775
6.22499
6.24832
6.26824
6.28487
6.29846
6.30941
6.31841
6.32592
6.33221
6.33752
6.34204
6.34588
6.34915
6.35194
6.35431
6.35632
6.35805
6.35952
6.36078
6.36183
6.36275
6.36352
6.3642
6.36476
6.36525
6.36567
6.36603
6.36633
6.36659
6.36683
6.36701
6.36719
6.36732
6.36744
6.36754
6.36764
6.3677
6.36778
6.36784
6.36788
6.36792
6.36796
6.36798
6.36802
6.36804
6.36806
6.36808
6.36808
6.3681
6.3681
6.36812
6.36812
6.36812
6.36814
6.36814
6.36814
6.36814
6.36814
6.36814
6.36816
6.36816
6.36816
6.36816
6.36816
6.36816
6.36816
6.36816
6.36816
6.36816
6.36816
6.36816
6.36816
6.36816
6.36816
6.36816
6.36816
6.36816
6.36816
6.36816
6.36816
6.36816
6.36816
6.36816
6.36816
6.36816
6.36816
6.36816
6.36816
6.36816
6.36816
6.36816
6.36816
6.36816
6.36816
6.36816
6.36816
6.36816
6.36816
6.36816
6.36816
6.36816
6.36816
6.36816
6.36816
6.36816
6.36816
6.36816
6.36816
6.36816
6.36816
6.36816
6.36816
6.36816
6.36816
6.36816
6.36816
6.36816
6.36816
6.36816
6.36816
6.36816
6.36816
6.36816
6.36816
6.36816
6.36816
6.36816
6.36816
6.36816
6.36816
6.36816
6.36816
6.36816
6.36816
6.36816
6.36816
6.36816
6.36816
6.36816
6.36816
6.36816
6.36816
6.36816
6.36816
6.36816
6.36816
6.36816
6.36816
6.36816
6.36816
6.36816
6.36816
6.36816
6.36816
6.36816
6.36816
6.36816
6.36816
6.36816
6.36816
6.36816
6.36816
6.36816
6.36816
6.36816
6.36816
6.36816
6.36816
6.36816
6.36816
6.36816
6.36816
6.36816
6.36816
6.36816
6.36816
6.36816
6.36816
6.36816
6.36816
6.36816
6.36816
6.36816
6.36816
6.36816
6.36816
6.36816
6.36816
6.36816
6.36816
6.36816
6.36816
6.36816
6.36816
6.36816
6.36816
6.36816
6.36816
6.36816
6.36816
6.36816
6.36816
6.36816
6.36816
6.36816
6.36816
6.36816
6.36816
6.36816
6.36816
6.36816
6.36816
6.36816
6.36816
6.36816
6.36816
6.36816
6.36816
6.36816
6.36816
6.36816
6.36816
6.36816
6.36816
6.36816
6.36816
6.36816
6.36816
6.36816
6.36816
6.36816
6.36816
6.36816
6.36816
6.36816
6.36816
6.36816
6.36816
6.36816
6.36816
6.36816
6.36816
6.36816
6.36816
6.36816
6.36816
6.36816
6.36816
6.36816
6.36816
6.36816
6.36816
6.36816
6.36816
6.36816
6.36816
6.36816
6.36816
6.36816
6.36816
6.36816
6.36816
6.36816
6.36816
6.36816
6.36816
6.36816
6.36816
6.36818
6.36864
6.36808
)
;

boundaryField
{
    inlet
    {
        type            calculated;
        value           uniform 0;
    }
    outlet
    {
        type            calculated;
        value           uniform 0;
    }
    sideWall
    {
        type            empty;
    }
}


// ************************************************************************* //
