/*--------------------------------*- C++ -*----------------------------------*\
| =========                 |                                                 |
| \\      /  F ield         | foam-extend: Open Source CFD                    |
|  \\    /   O peration     | Version:     3.2                                |
|   \\  /    A nd           | Web:         http://www.foam-extend.org         |
|    \\/     M anipulation  | For copyright notice see file Copyright         |
\*---------------------------------------------------------------------------*/
FoamFile
{
    version     2.0;
    format      ascii;
    class       areaScalarField;
    location    "2000";
    object      thetaBinit;
}
// * * * * * * * * * * * * * * * * * * * * * * * * * * * * * * * * * * * * * //

dimensions      [0 0 0 0 0 0 0];

internalField   nonuniform List<scalar> 
300
(
0.138073
0.169268
0.143728
0.120531
0.108137
0.102611
0.10065
0.100394
0.100745
0.101443
0.102303
0.103153
0.103994
0.104864
0.105709
0.106565
0.107464
0.108368
0.109287
0.110215
0.111142
0.112074
0.113033
0.114019
0.114972
0.11585
0.116641
0.117337
0.117942
0.118461
0.118905
0.119284
0.1196
0.119859
0.120067
0.120238
0.120381
0.120501
0.120602
0.120688
0.120761
0.120823
0.120876
0.120921
0.12096
0.120993
0.121021
0.121045
0.121065
0.121082
0.121097
0.12111
0.12112
0.12113
0.121138
0.121145
0.12115
0.121155
0.12116
0.121163
0.121167
0.121169
0.121172
0.121173
0.121175
0.121176
0.121178
0.121179
0.12118
0.121181
0.121181
0.121182
0.121183
0.121183
0.121183
0.121184
0.121184
0.121184
0.121184
0.121184
0.121184
0.121184
0.121185
0.121185
0.121185
0.121185
0.121185
0.121185
0.121185
0.121185
0.121185
0.121185
0.121185
0.121185
0.121185
0.121185
0.121185
0.121185
0.121185
0.121185
0.121185
0.121185
0.121185
0.121185
0.121185
0.121185
0.121185
0.121185
0.121185
0.121185
0.121185
0.121185
0.121185
0.121185
0.121185
0.121185
0.121185
0.121185
0.121185
0.121185
0.121185
0.121185
0.121185
0.121185
0.121185
0.121185
0.121185
0.121185
0.121185
0.121185
0.121185
0.121185
0.121185
0.121185
0.121185
0.121185
0.121185
0.121185
0.121185
0.121185
0.121185
0.121185
0.121185
0.121185
0.121185
0.121185
0.121185
0.121185
0.121185
0.121185
0.121185
0.121185
0.121185
0.121185
0.121185
0.121185
0.121185
0.121185
0.121185
0.121185
0.121185
0.121185
0.121185
0.121185
0.121185
0.121185
0.121185
0.121185
0.121185
0.121185
0.121185
0.121185
0.121185
0.121185
0.121185
0.121185
0.121185
0.121185
0.121185
0.121185
0.121185
0.121185
0.121185
0.121185
0.121185
0.121185
0.121185
0.121185
0.121185
0.121185
0.121185
0.121185
0.121185
0.121185
0.121185
0.121185
0.121185
0.121185
0.121185
0.121185
0.121185
0.121185
0.121185
0.121185
0.121185
0.121185
0.121185
0.121185
0.121185
0.121185
0.121185
0.121185
0.121185
0.121185
0.121185
0.121185
0.121185
0.121185
0.121185
0.121185
0.121185
0.121185
0.121185
0.121185
0.121185
0.121185
0.121185
0.121185
0.121185
0.121185
0.121185
0.121185
0.121185
0.121185
0.121185
0.121185
0.121185
0.121185
0.121185
0.121185
0.121185
0.121185
0.121185
0.121185
0.121185
0.121185
0.121185
0.121185
0.121185
0.121185
0.121185
0.121185
0.121185
0.121185
0.121185
0.121185
0.121185
0.121185
0.121185
0.121185
0.121185
0.121185
0.121185
0.121185
0.121185
0.121185
0.121185
0.121185
0.121185
0.121185
0.121185
0.121185
0.121185
0.121185
0.121185
0.121185
0.121185
0.121185
0.121185
0.121185
0.121185
0.121185
0.121185
0.121185
0.121185
0.121185
0.121185
0.121185
0.121185
0.121185
0.121185
0.121185
0.121185
0.121185
0.121185
0.121185
0.121185
0.121186
0.121194
0.121184
)
;

boundaryField
{
    inlet
    {
        type            calculated;
        value           uniform 0;
    }
    outlet
    {
        type            calculated;
        value           uniform 0;
    }
    sideWall
    {
        type            empty;
    }
}


// ************************************************************************* //
