/*--------------------------------*- C++ -*----------------------------------*\
| =========                 |                                                 |
| \\      /  F ield         | foam-extend: Open Source CFD                    |
|  \\    /   O peration     | Version:     3.2                                |
|   \\  /    A nd           | Web:         http://www.foam-extend.org         |
|    \\/     M anipulation  | For copyright notice see file Copyright         |
\*---------------------------------------------------------------------------*/
FoamFile
{
    version     2.0;
    format      ascii;
    class       areaScalarField;
    location    "2000";
    object      thetaC2SS2;
}
// * * * * * * * * * * * * * * * * * * * * * * * * * * * * * * * * * * * * * //

dimensions      [0 0 0 0 0 0 0];

internalField   nonuniform List<scalar> 
300
(
0.0940613
0.0940613
0.0940613
0.0940613
0.0940613
0.0940613
0.0940613
0.0940613
0.0940613
0.0940613
0.0940613
0.0940613
0.0940613
0.0940613
0.0940613
0.0940613
0.0940613
0.0940613
0.0940613
0.0940613
0.0940613
0.0940613
0.0940613
0.0940613
0.0940613
0.0940613
0.0940613
0.0940613
0.0940613
0.0940613
0.0940613
0.0940613
0.0940613
0.0940613
0.0940613
0.0940613
0.0940613
0.0940613
0.0940613
0.0940613
0.0940613
0.0940613
0.0940613
0.0940613
0.0940613
0.0940613
0.0940613
0.0940613
0.0940613
0.0940613
0.0940613
0.0940613
0.0940613
0.0940613
0.0940613
0.0940613
0.0940613
0.0940613
0.0940613
0.100783
0.108057
0.106173
0.10367
0.103131
0.10248
0.102222
0.10213
0.102146
0.102198
0.102255
0.102318
0.102382
0.102448
0.102498
0.102533
0.102564
0.102595
0.102613
0.102629
0.102652
0.102664
0.102675
0.102683
0.10269
0.102695
0.102699
0.102702
0.102712
0.102713
0.102714
0.102714
0.102714
0.102713
0.102713
0.10272
0.102719
0.102718
0.102717
0.102716
0.102715
0.102714
0.102721
0.10272
0.102718
0.102717
0.102716
0.102715
0.102714
0.10272
0.102719
0.102718
0.102717
0.102716
0.102714
0.102713
0.10272
0.102719
0.102718
0.102716
0.102715
0.102714
0.102713
0.102719
0.102718
0.102717
0.102716
0.102714
0.102713
0.102712
0.102719
0.102717
0.102716
0.102715
0.102714
0.102712
0.102711
0.102717
0.102716
0.102715
0.102714
0.102712
0.102711
0.102717
0.102716
0.102715
0.102714
0.102712
0.102711
0.102717
0.102716
0.102714
0.102713
0.102712
0.10271
0.102717
0.102715
0.102714
0.102712
0.102711
0.10271
0.102716
0.102714
0.102713
0.102711
0.10271
0.102716
0.102715
0.102713
0.102712
0.10271
0.102716
0.102715
0.102713
0.102712
0.10271
0.102716
0.102715
0.102713
0.102711
0.10271
0.102716
0.102714
0.102713
0.102711
0.10271
0.102715
0.102714
0.102712
0.102711
0.102709
0.102715
0.102713
0.102711
0.10271
0.102708
0.102714
0.102712
0.10271
0.102709
0.102714
0.102713
0.102711
0.102709
0.102715
0.102713
0.102711
0.10271
0.102708
0.102713
0.102711
0.10271
0.102708
0.102713
0.102712
0.10271
0.102708
0.102713
0.102711
0.10271
0.102708
0.102713
0.102711
0.102709
0.102708
0.102713
0.102711
0.102709
0.102707
0.102712
0.10271
0.102709
0.102707
0.102712
0.10271
0.102708
0.102713
0.102711
0.102709
0.102707
0.102712
0.10271
0.102708
0.102706
0.102711
0.102709
0.102707
0.102712
0.10271
0.102708
0.102706
0.102711
0.102709
0.102707
0.102711
0.10271
0.102707
0.102712
0.10271
0.102708
0.102706
0.102711
0.102708
0.102707
0.102711
0.10271
0.102707
0.102712
0.102709
0.102708
0.102704
0.102711
0.102707
0.102707
0.102709
0.102709
0.102706
0.102709
0.10271
0.102706
0.102702
0.10272
0.102702
0.102711
0.102709
0.1027
0.102725
0.102705
0.102667
0.10273
0.102626
0.102863
0.102352
0.103836
0.101434
0.102712
0.106761
0.0950793
0.0940613
0.0940613
0.0940613
)
;

boundaryField
{
    inlet
    {
        type            calculated;
        value           uniform 0;
    }
    outlet
    {
        type            calculated;
        value           uniform 0;
    }
    sideWall
    {
        type            empty;
    }
}


// ************************************************************************* //
