/*--------------------------------*- C++ -*----------------------------------*\
| =========                 |                                                 |
| \\      /  F ield         | foam-extend: Open Source CFD                    |
|  \\    /   O peration     | Version:     3.2                                |
|   \\  /    A nd           | Web:         http://www.foam-extend.org         |
|    \\/     M anipulation  | For copyright notice see file Copyright         |
\*---------------------------------------------------------------------------*/
FoamFile
{
    version     2.0;
    format      ascii;
    class       areaScalarField;
    location    "2000";
    object      thetaHMaxSS2;
}
// * * * * * * * * * * * * * * * * * * * * * * * * * * * * * * * * * * * * * //

dimensions      [0 0 0 0 0 0 0];

internalField   nonuniform List<scalar> 
300
(
0
0
0
0
0
0
0
0
0
0
0
0
0
0
0
0
0
0
0
0
0
0
0
0
0
0
0
0
0
0
0
0
0
0
0
0
0
0
0
0
0
0
0
0
0
0
0
0
0
0
0
0
0
0
0
0
0
0
0
0
1.85593
1.82361
1.78066
1.77144
1.76027
1.75586
1.75431
1.7546
1.75549
1.75648
1.75758
1.75869
1.75983
1.7607
1.76131
1.76184
1.76237
1.76269
1.76297
1.76336
1.76357
1.76375
1.76391
1.76402
1.76412
1.76418
1.76423
1.76441
1.76443
1.76444
1.76444
1.76443
1.76443
1.76442
1.76455
1.76453
1.76451
1.7645
1.76448
1.76446
1.76444
1.76456
1.76454
1.76452
1.76449
1.76447
1.76445
1.76443
1.76455
1.76453
1.76451
1.76449
1.76447
1.76445
1.76443
1.76454
1.76452
1.7645
1.76448
1.76446
1.76444
1.76442
1.76453
1.76451
1.76449
1.76447
1.76445
1.76443
1.7644
1.76452
1.7645
1.76448
1.76445
1.76443
1.76441
1.76439
1.7645
1.76448
1.76446
1.76443
1.76441
1.76439
1.7645
1.76447
1.76445
1.76443
1.76441
1.76438
1.76449
1.76447
1.76445
1.76442
1.7644
1.76438
1.76448
1.76446
1.76444
1.76441
1.76439
1.76437
1.76447
1.76445
1.76442
1.76439
1.76437
1.76447
1.76445
1.76442
1.7644
1.76437
1.76448
1.76445
1.76443
1.7644
1.76438
1.76448
1.76445
1.76442
1.7644
1.76437
1.76447
1.76444
1.76442
1.76439
1.76436
1.76446
1.76443
1.76441
1.76438
1.76435
1.76445
1.76442
1.76439
1.76437
1.76434
1.76443
1.7644
1.76438
1.76435
1.76444
1.76441
1.76439
1.76436
1.76445
1.76442
1.76439
1.76436
1.76433
1.76442
1.76439
1.76436
1.76434
1.76443
1.7644
1.76437
1.76434
1.76443
1.76439
1.76436
1.76433
1.76442
1.76439
1.76436
1.76433
1.76442
1.76439
1.76435
1.76432
1.76441
1.76438
1.76435
1.76431
1.7644
1.76437
1.76433
1.76442
1.76439
1.76435
1.76432
1.76441
1.76437
1.76434
1.76431
1.76439
1.76436
1.76432
1.76441
1.76437
1.76434
1.7643
1.76439
1.76435
1.76432
1.7644
1.76436
1.76433
1.76441
1.76437
1.76434
1.7643
1.76439
1.76434
1.76432
1.76438
1.76436
1.76431
1.76441
1.76435
1.76434
1.76428
1.76438
1.76431
1.76431
1.76435
1.76435
1.76429
1.76436
1.76437
1.7643
1.76423
1.76454
1.76423
1.76439
1.76436
1.7642
1.76463
1.76428
1.76364
1.76472
1.76292
1.76699
1.75821
1.78371
1.74245
1.76441
1.83395
0
0
0
0
)
;

boundaryField
{
    inlet
    {
        type            calculated;
        value           uniform 0;
    }
    outlet
    {
        type            calculated;
        value           uniform 0;
    }
    sideWall
    {
        type            empty;
    }
}


// ************************************************************************* //
