/*--------------------------------*- C++ -*----------------------------------*\
| =========                 |                                                 |
| \\      /  F ield         | foam-extend: Open Source CFD                    |
|  \\    /   O peration     | Version:     3.2                                |
|   \\  /    A nd           | Web:         http://www.foam-extend.org         |
|    \\/     M anipulation  | For copyright notice see file Copyright         |
\*---------------------------------------------------------------------------*/
FoamFile
{
    version     2.0;
    format      ascii;
    class       areaScalarField;
    location    "2000";
    object      thetaCSS2;
}
// * * * * * * * * * * * * * * * * * * * * * * * * * * * * * * * * * * * * * //

dimensions      [0 0 0 0 0 0 0];

internalField   nonuniform List<scalar> 
300
(
0.0933366
0.0933366
0.0933366
0.0933366
0.0933366
0.0933366
0.0933366
0.0933366
0.0933366
0.0933366
0.0933366
0.0933366
0.0933366
0.0933366
0.0933366
0.0933366
0.0933366
0.0933366
0.0933366
0.0933366
0.0933366
0.0933366
0.0933366
0.0933366
0.0933366
0.0933366
0.0933366
0.0933366
0.0933366
0.0933366
0.0933366
0.0933366
0.0933366
0.0933366
0.0933366
0.0933366
0.0933366
0.0933366
0.0933366
0.0933366
0.0933366
0.0933366
0.0933366
0.0933366
0.0933366
0.0933366
0.0933366
0.0933366
0.0933366
0.0933366
0.0933366
0.0933366
0.0933366
0.0933366
0.0933366
0.0933366
0.0933366
0.0933366
0.0933366
0.105463
0.110637
0.103143
0.102933
0.102207
0.101668
0.101341
0.101268
0.101285
0.101347
0.101407
0.101474
0.101545
0.101617
0.101672
0.101712
0.101747
0.101782
0.101803
0.101822
0.101848
0.101862
0.101875
0.101885
0.101893
0.1019
0.101905
0.101908
0.10192
0.101921
0.101922
0.101922
0.101922
0.101922
0.101921
0.101929
0.101928
0.101927
0.101926
0.101925
0.101924
0.101922
0.10193
0.101928
0.101927
0.101926
0.101925
0.101923
0.101922
0.101929
0.101928
0.101927
0.101925
0.101924
0.101923
0.101922
0.101929
0.101927
0.101926
0.101925
0.101924
0.101922
0.101921
0.101928
0.101927
0.101925
0.101925
0.101923
0.101922
0.10192
0.101928
0.101926
0.101925
0.101924
0.101921
0.101922
0.101918
0.101928
0.101923
0.101926
0.101919
0.101924
0.101916
0.101931
0.10192
0.10193
0.101915
0.101928
0.101911
0.101936
0.101914
0.101935
0.101909
0.101935
0.101903
0.101943
0.101905
0.101943
0.101899
0.101944
0.101893
0.101953
0.101894
0.101953
0.101887
0.101955
0.101888
0.101963
0.101881
0.101964
0.101874
0.101973
0.101875
0.101973
0.101868
0.101974
0.10187
0.101981
0.101864
0.10198
0.101858
0.101987
0.101861
0.101985
0.101856
0.101983
0.101859
0.101988
0.101855
0.101985
0.101852
0.101989
0.101856
0.101985
0.101854
0.101981
0.101859
0.101983
0.101858
0.101977
0.101864
0.101979
0.101863
0.101973
0.10187
0.101974
0.101869
0.101967
0.101869
0.101968
0.101876
0.101961
0.101876
0.101961
0.101883
0.101954
0.101882
0.101954
0.101889
0.101947
0.101888
0.101948
0.101895
0.101941
0.101894
0.101942
0.1019
0.101935
0.101899
0.101936
0.101904
0.10193
0.101902
0.101931
0.101908
0.101926
0.101913
0.101927
0.10191
0.101922
0.101915
0.101924
0.101912
0.101919
0.101916
0.101921
0.101913
0.101923
0.101916
0.101918
0.101912
0.101921
0.101916
0.101917
0.101919
0.101919
0.101915
0.101922
0.101918
0.101917
0.101914
0.10192
0.101916
0.101916
0.101919
0.101918
0.101915
0.101921
0.101917
0.101917
0.101913
0.10192
0.101914
0.101916
0.101917
0.101918
0.101914
0.101918
0.101918
0.101915
0.101909
0.10193
0.10191
0.10192
0.10192
0.101904
0.10195
0.101899
0.101873
0.10194
0.101833
0.102083
0.101556
0.103173
0.100283
0.102359
0.105122
0.0893252
0.0933366
0.0933366
0.0933366
)
;

boundaryField
{
    inlet
    {
        type            calculated;
        value           uniform 0;
    }
    outlet
    {
        type            calculated;
        value           uniform 0;
    }
    sideWall
    {
        type            empty;
    }
}


// ************************************************************************* //
