/*--------------------------------*- C++ -*----------------------------------*\
| =========                 |                                                 |
| \\      /  F ield         | foam-extend: Open Source CFD                    |
|  \\    /   O peration     | Version:     3.2                                |
|   \\  /    A nd           | Web:         http://www.foam-extend.org         |
|    \\/     M anipulation  | For copyright notice see file Copyright         |
\*---------------------------------------------------------------------------*/
FoamFile
{
    version     2.0;
    format      ascii;
    class       areaScalarField;
    location    "2000";
    object      thetaCB;
}
// * * * * * * * * * * * * * * * * * * * * * * * * * * * * * * * * * * * * * //

dimensions      [0 0 0 0 0 0 0];

internalField   nonuniform List<scalar> 
300
(
0.0298892
0.0298892
0.0298892
0.0298892
0.0298892
0.0298892
0.0298892
0.0298892
0.0298892
0.0298892
0.0298892
0.0298892
0.0298892
0.0298892
0.0298892
0.0298892
0.0298892
0.0298892
0.0298892
0.0298892
0.0298892
0.0298892
0.0298892
0.0298892
0.0298892
0.0298892
0.0298892
0.0298892
0.0298892
0.0298892
0.0298892
0.0298892
0.0298892
0.0298892
0.0298892
0.0298892
0.0298892
0.0298892
0.0298892
0.0298892
0.0298892
0.0298892
0.0298892
0.0298892
0.0298892
0.0298892
0.0298892
0.0298892
0.0298892
0.0298892
0.0298892
0.0298892
0.0298892
0.0298892
0.0298892
0.0298892
0.0298892
0.0298892
0.0298892
0.0315753
0.0309352
0.0293401
0.0299408
0.0298809
0.0299064
0.0298818
0.029884
0.0298811
0.0298816
0.0298715
0.0298727
0.0298748
0.0298769
0.0298784
0.0298799
0.0298811
0.0298824
0.0298833
0.0298843
0.0298853
0.029886
0.0298866
0.0298871
0.0298876
0.0298879
0.0298882
0.0298885
0.0298888
0.0298889
0.029889
0.029889
0.0298891
0.0298891
0.0298891
0.0298893
0.0298897
0.0298897
0.0298892
0.0298892
0.0298892
0.0298895
0.0298895
0.0298896
0.0298893
0.0298891
0.0298892
0.0298894
0.0298893
0.0298896
0.0298892
0.0298892
0.0298892
0.0298891
0.0298894
0.0298892
0.0298898
0.0298892
0.0298892
0.0298891
0.0298891
0.0298899
0.0298891
0.0298903
0.0298892
0.0298891
0.0298892
0.0298895
0.0298892
0.029889
0.0298905
0.0298891
0.0298926
0.0298893
0.0298889
0.0298916
0.029889
0.0298898
0.0298886
0.0298899
0.0298883
0.0298901
0.029888
0.0298906
0.0298877
0.029891
0.0298872
0.0298914
0.0298867
0.0298921
0.0298861
0.0298927
0.0298853
0.0298934
0.0298845
0.0298944
0.0298837
0.0298953
0.0298827
0.0298963
0.0298817
0.0298975
0.0298806
0.0298985
0.0298794
0.0298997
0.0298784
0.0299009
0.0298772
0.029902
0.029876
0.0299033
0.0298749
0.0299043
0.0298739
0.0299052
0.0298731
0.0299061
0.0298722
0.0299068
0.0298715
0.0299075
0.0298709
0.0299079
0.0298705
0.0299082
0.0298703
0.0299084
0.02987
0.0299085
0.0298699
0.0299085
0.0298701
0.0299083
0.0298703
0.0299079
0.0298707
0.0299074
0.0298712
0.0299068
0.0298719
0.0299173
0.0298803
0.0299252
0.0298895
0.0299044
0.0298743
0.0299035
0.0298752
0.0299663
0.0299382
0.0299854
0.0299605
0.0299006
0.0298781
0.0298995
0.029879
0.03006
0.030049
0.0300889
0.0300815
0.0298968
0.0298818
0.0298958
0.0298826
0.0301898
0.0301986
0.0302245
0.0302356
0.0298936
0.0298849
0.0298929
0.0298854
0.0303389
0.0303656
0.0303752
0.0304045
0.0298913
0.029887
0.0298909
0.0298874
0.0304919
0.0305348
0.0305278
0.03057
0.02989
0.0298882
0.0298899
0.0298884
0.0306358
0.0306918
0.030668
0.0307198
0.0298894
0.0298889
0.0298893
0.0298888
0.0307631
0.0308291
0.0307887
0.0308517
0.0298894
0.029889
0.0298892
0.029889
0.0308751
0.0309553
0.0308992
0.0309773
0.0298893
0.029889
0.0298893
0.0298889
0.0309814
0.0310872
0.0310048
0.0311128
0.0298894
0.0298891
0.0298892
0.0298889
0.0310884
0.0312333
0.0311207
0.0312661
0.0298878
0.0298939
0.0298849
0.0314339
0.031233
0.0315927
0.030981
0.031135
0.031385
0.0297795
0.0300175
0.0296589
0.0282984
0.0298892
0.0298892
0.0298892
)
;

boundaryField
{
    inlet
    {
        type            calculated;
        value           uniform 0;
    }
    outlet
    {
        type            calculated;
        value           uniform 0;
    }
    sideWall
    {
        type            empty;
    }
}


// ************************************************************************* //
