/*--------------------------------*- C++ -*----------------------------------*\
| =========                 |                                                 |
| \\      /  F ield         | foam-extend: Open Source CFD                    |
|  \\    /   O peration     | Version:     3.2                                |
|   \\  /    A nd           | Web:         http://www.foam-extend.org         |
|    \\/     M anipulation  | For copyright notice see file Copyright         |
\*---------------------------------------------------------------------------*/
FoamFile
{
    version     2.0;
    format      ascii;
    class       areaScalarField;
    location    "2000";
    object      thetaC2B;
}
// * * * * * * * * * * * * * * * * * * * * * * * * * * * * * * * * * * * * * //

dimensions      [0 0 0 0 0 0 0];

internalField   nonuniform List<scalar> 
300
(
0.0301212
0.0301212
0.0301212
0.0301212
0.0301212
0.0301212
0.0301212
0.0301212
0.0301212
0.0301212
0.0301212
0.0301212
0.0301212
0.0301212
0.0301212
0.0301212
0.0301212
0.0301212
0.0301212
0.0301212
0.0301212
0.0301212
0.0301212
0.0301212
0.0301212
0.0301212
0.0301212
0.0301212
0.0301212
0.0301212
0.0301212
0.0301212
0.0301212
0.0301212
0.0301212
0.0301212
0.0301212
0.0301212
0.0301212
0.0301212
0.0301212
0.0301212
0.0301212
0.0301212
0.0301212
0.0301212
0.0301212
0.0301212
0.0301212
0.0301212
0.0301212
0.0301212
0.0301212
0.0301212
0.0301212
0.0301212
0.0301212
0.0301212
0.0301212
0.0301741
0.0302137
0.0302018
0.030155
0.030151
0.030145
0.0301416
0.0301384
0.030135
0.0301324
0.0301212
0.0301212
0.0301212
0.0301212
0.0301212
0.0301212
0.0301212
0.0301212
0.0301212
0.0301212
0.0301212
0.0301212
0.0301212
0.0301212
0.0301212
0.0301212
0.0301212
0.0301212
0.0301212
0.0301212
0.0301212
0.0301212
0.0301212
0.0301212
0.0301212
0.0301212
0.0301217
0.0301217
0.0301212
0.0301212
0.0301212
0.0301216
0.0301214
0.0301217
0.0301212
0.0301212
0.0301212
0.0301215
0.0301214
0.0301216
0.0301212
0.0301212
0.0301212
0.0301212
0.0301215
0.0301214
0.0301218
0.0301212
0.0301212
0.0301212
0.0301212
0.030122
0.0301212
0.0301223
0.0301212
0.0301212
0.0301212
0.0301217
0.0301212
0.0301212
0.0301223
0.0301213
0.0301248
0.0301212
0.0301212
0.0301234
0.0301215
0.0301212
0.0301212
0.0301212
0.0301212
0.0301212
0.0301212
0.0301212
0.0301212
0.0301212
0.0301212
0.0301212
0.0301212
0.0301212
0.0301212
0.0301212
0.0301212
0.0301212
0.0301212
0.0301212
0.0301212
0.0301212
0.0301212
0.0301212
0.0301212
0.0301212
0.0301212
0.0301212
0.0301212
0.0301212
0.0301212
0.0301212
0.0301212
0.0301212
0.0301212
0.0301212
0.0301212
0.0301212
0.0301212
0.0301212
0.0301212
0.0301212
0.0301212
0.0301212
0.0301212
0.0301212
0.0301212
0.0301212
0.0301212
0.0301212
0.0301212
0.0301212
0.0301212
0.0301212
0.0301212
0.0301212
0.0301212
0.0301212
0.0301212
0.0301212
0.0301212
0.0301212
0.0301212
0.0301212
0.0301212
0.0301325
0.030129
0.0301414
0.0301373
0.0301212
0.0301212
0.0301212
0.0301212
0.0301854
0.0301838
0.0302057
0.0302054
0.0301212
0.0301212
0.0301212
0.0301212
0.0302837
0.0302916
0.030314
0.0303234
0.0301212
0.0301212
0.0301212
0.0301212
0.0304182
0.0304389
0.030454
0.0304755
0.0301212
0.0301212
0.0301212
0.0301212
0.0305712
0.0306046
0.0306084
0.0306431
0.0301212
0.0301212
0.0301212
0.0301212
0.0307272
0.0307734
0.0307637
0.0308085
0.0301212
0.0301212
0.0301212
0.0301212
0.0308731
0.0309307
0.0309056
0.0309588
0.0301212
0.0301212
0.0301212
0.0301212
0.0310017
0.0310687
0.0310275
0.0310914
0.0301212
0.0301212
0.0301212
0.0301212
0.0311148
0.0311958
0.0311389
0.0312179
0.0301212
0.0301212
0.0301212
0.0301212
0.0312218
0.0313287
0.0312453
0.0313544
0.0301212
0.0301212
0.0301212
0.0301212
0.0313293
0.031476
0.0313624
0.0315082
0.0301212
0.0301212
0.0301212
0.0316789
0.0314752
0.0318386
0.0312177
0.0313788
0.0315867
0.0301212
0.0301212
0.0301212
0.0301212
0.0301212
0.0301212
0.0301212
)
;

boundaryField
{
    inlet
    {
        type            calculated;
        value           uniform 0;
    }
    outlet
    {
        type            calculated;
        value           uniform 0;
    }
    sideWall
    {
        type            empty;
    }
}


// ************************************************************************* //
