/*--------------------------------*- C++ -*----------------------------------*\
| =========                 |                                                 |
| \\      /  F ield         | foam-extend: Open Source CFD                    |
|  \\    /   O peration     | Version:     3.2                                |
|   \\  /    A nd           | Web:         http://www.foam-extend.org         |
|    \\/     M anipulation  | For copyright notice see file Copyright         |
\*---------------------------------------------------------------------------*/
FoamFile
{
    version     2.0;
    format      ascii;
    class       areaScalarField;
    location    "2000";
    object      thetaHMaxSS1;
}
// * * * * * * * * * * * * * * * * * * * * * * * * * * * * * * * * * * * * * //

dimensions      [0 0 0 0 0 0 0];

internalField   nonuniform List<scalar> 
300
(
0
0
0
0
0
0
0
0
0
0
0
0
0
0
0
0
0
0
0
0
0
0
0
0
0
0
0
0
0
0
0
0
0
0
0
0
0
0
0
0
0
0
0
0
0
0
0
0
0
0
0
0
0
0
0
0
0
0
0
0
7.31455
7.18717
7.01789
6.98155
6.93754
6.92015
6.91404
6.91519
6.9187
6.92261
6.92694
6.93133
6.9358
6.93924
6.94162
6.94374
6.94583
6.94707
6.94817
6.9497
6.95054
6.95127
6.95186
6.95233
6.95269
6.95296
6.95314
6.95384
6.95392
6.95396
6.95396
6.95395
6.95392
6.95389
6.95439
6.95433
6.95426
6.95419
6.95411
6.95404
6.95396
6.95443
6.95434
6.95427
6.95418
6.9541
6.95402
6.95394
6.9544
6.95432
6.95424
6.95416
6.95408
6.95399
6.95391
6.95436
6.95429
6.9542
6.95413
6.95405
6.95396
6.95388
6.95433
6.95425
6.95417
6.95408
6.954
6.95391
6.95383
6.95427
6.95419
6.95411
6.95402
6.95394
6.95386
6.95376
6.9542
6.95412
6.95404
6.95395
6.95386
6.95376
6.9542
6.95411
6.95402
6.95394
6.95384
6.95375
6.95418
6.95409
6.954
6.95391
6.95381
6.95372
6.95414
6.95405
6.95395
6.95386
6.95376
6.95368
6.95408
6.95399
6.95389
6.95379
6.9537
6.95411
6.95401
6.9539
6.95381
6.95371
6.95411
6.95401
6.95391
6.95382
6.95371
6.95411
6.95401
6.9539
6.95379
6.95369
6.95409
6.95398
6.95388
6.95378
6.95367
6.95405
6.95395
6.95384
6.95373
6.95362
6.95401
6.9539
6.95379
6.95368
6.95357
6.95394
6.95383
6.95373
6.95361
6.95398
6.95387
6.95375
6.95364
6.95401
6.9539
6.95378
6.95367
6.95354
6.95391
6.95379
6.95367
6.95356
6.95392
6.9538
6.95368
6.95356
6.95392
6.95379
6.95367
6.95354
6.9539
6.95378
6.95366
6.95354
6.95388
6.95376
6.95363
6.95351
6.95385
6.95372
6.9536
6.95347
6.95381
6.95368
6.95355
6.9539
6.95377
6.95363
6.95351
6.95384
6.95371
6.95357
6.95344
6.95377
6.95364
6.9535
6.95384
6.9537
6.95357
6.95342
6.95376
6.95361
6.95349
6.95379
6.95367
6.95352
6.95386
6.9537
6.95358
6.95341
6.95377
6.95358
6.95349
6.95375
6.95367
6.95347
6.95384
6.95362
6.95356
6.95332
6.95374
6.95347
6.95346
6.95362
6.95361
6.95339
6.95364
6.95368
6.95342
6.95313
6.95434
6.95316
6.95376
6.95365
6.95303
6.95474
6.95334
6.95081
6.95508
6.94798
6.96403
6.92943
7.02993
6.8673
6.95385
7.22793
0
0
0
0
)
;

boundaryField
{
    inlet
    {
        type            calculated;
        value           uniform 0;
    }
    outlet
    {
        type            calculated;
        value           uniform 0;
    }
    sideWall
    {
        type            empty;
    }
}


// ************************************************************************* //
