/*--------------------------------*- C++ -*----------------------------------*\
| =========                 |                                                 |
| \\      /  F ield         | foam-extend: Open Source CFD                    |
|  \\    /   O peration     | Version:     3.2                                |
|   \\  /    A nd           | Web:         http://www.foam-extend.org         |
|    \\/     M anipulation  | For copyright notice see file Copyright         |
\*---------------------------------------------------------------------------*/
FoamFile
{
    version     2.0;
    format      ascii;
    class       areaScalarField;
    location    "2000";
    object      thetaSS2init;
}
// * * * * * * * * * * * * * * * * * * * * * * * * * * * * * * * * * * * * * //

dimensions      [0 0 0 0 0 0 0];

internalField   nonuniform List<scalar> 
300
(
1.84097
2.25691
1.91637
1.60708
1.44183
1.36815
1.342
1.33859
1.34326
1.35258
1.36404
1.37538
1.38658
1.39819
1.40946
1.42087
1.43285
1.44491
1.45716
1.46953
1.4819
1.49432
1.50711
1.52025
1.53296
1.54466
1.55521
1.5645
1.57256
1.57947
1.58539
1.59045
1.59467
1.59812
1.6009
1.60318
1.60508
1.60668
1.60803
1.60917
1.61015
1.61098
1.61169
1.61229
1.6128
1.61324
1.61361
1.61393
1.6142
1.61443
1.61463
1.6148
1.61494
1.61506
1.61517
1.61526
1.61534
1.6154
1.61546
1.61551
1.61555
1.61559
1.61562
1.61565
1.61567
1.61569
1.61571
1.61572
1.61573
1.61574
1.61575
1.61576
1.61577
1.61577
1.61578
1.61578
1.61578
1.61579
1.61579
1.61579
1.61579
1.61579
1.6158
1.6158
1.6158
1.6158
1.6158
1.6158
1.6158
1.6158
1.6158
1.6158
1.6158
1.6158
1.6158
1.6158
1.6158
1.6158
1.6158
1.6158
1.6158
1.6158
1.6158
1.6158
1.6158
1.6158
1.6158
1.6158
1.6158
1.6158
1.6158
1.6158
1.6158
1.6158
1.6158
1.6158
1.6158
1.6158
1.6158
1.6158
1.6158
1.6158
1.6158
1.6158
1.6158
1.6158
1.6158
1.6158
1.6158
1.6158
1.6158
1.6158
1.6158
1.6158
1.6158
1.6158
1.6158
1.6158
1.6158
1.6158
1.6158
1.6158
1.6158
1.6158
1.6158
1.6158
1.6158
1.6158
1.6158
1.6158
1.6158
1.6158
1.6158
1.6158
1.6158
1.6158
1.6158
1.6158
1.6158
1.6158
1.6158
1.6158
1.6158
1.6158
1.6158
1.6158
1.6158
1.6158
1.6158
1.6158
1.6158
1.6158
1.6158
1.6158
1.6158
1.6158
1.6158
1.6158
1.6158
1.6158
1.6158
1.6158
1.6158
1.6158
1.6158
1.6158
1.6158
1.6158
1.6158
1.6158
1.6158
1.6158
1.6158
1.6158
1.6158
1.6158
1.6158
1.6158
1.6158
1.6158
1.6158
1.6158
1.6158
1.6158
1.6158
1.6158
1.6158
1.6158
1.6158
1.6158
1.6158
1.6158
1.6158
1.6158
1.6158
1.6158
1.6158
1.6158
1.6158
1.6158
1.6158
1.6158
1.6158
1.6158
1.6158
1.6158
1.6158
1.6158
1.6158
1.6158
1.6158
1.6158
1.6158
1.6158
1.6158
1.6158
1.6158
1.6158
1.6158
1.6158
1.6158
1.6158
1.6158
1.6158
1.6158
1.6158
1.6158
1.6158
1.6158
1.6158
1.6158
1.6158
1.6158
1.6158
1.6158
1.6158
1.6158
1.6158
1.6158
1.6158
1.6158
1.6158
1.6158
1.6158
1.6158
1.6158
1.6158
1.6158
1.6158
1.6158
1.6158
1.6158
1.6158
1.6158
1.6158
1.6158
1.6158
1.6158
1.6158
1.6158
1.6158
1.6158
1.6158
1.6158
1.6158
1.6158
1.6158
1.6158
1.6158
1.6158
1.6158
1.6158
1.6158
1.6158
1.6158
1.6158
1.6158
1.61581
1.61592
1.61578
)
;

boundaryField
{
    inlet
    {
        type            calculated;
        value           uniform 0;
    }
    outlet
    {
        type            calculated;
        value           uniform 0;
    }
    sideWall
    {
        type            empty;
    }
}


// ************************************************************************* //
