/*--------------------------------*- C++ -*----------------------------------*\
| =========                 |                                                 |
| \\      /  F ield         | foam-extend: Open Source CFD                    |
|  \\    /   O peration     | Version:     3.2                                |
|   \\  /    A nd           | Web:         http://www.foam-extend.org         |
|    \\/     M anipulation  | For copyright notice see file Copyright         |
\*---------------------------------------------------------------------------*/
FoamFile
{
    version     2.0;
    format      ascii;
    class       areaScalarField;
    location    "2000";
    object      thetaSS1;
}
// * * * * * * * * * * * * * * * * * * * * * * * * * * * * * * * * * * * * * //

dimensions      [0 0 0 0 0 0 0];

internalField   nonuniform List<scalar> 
300
(
7.26437
8.89875
7.52319
6.34965
5.6769
5.39926
5.2916
5.27832
5.29621
5.33288
5.37701
5.42193
5.46549
5.51144
5.55551
5.60021
5.64755
5.6948
5.74316
5.79186
5.84067
5.88959
5.93992
5.99164
6.0417
6.08778
6.12938
6.16597
6.19777
6.22498
6.24829
6.26822
6.28484
6.29848
6.30939
6.31842
6.32589
6.33223
6.33751
6.34207
6.34585
6.34918
6.35188
6.35436
6.35625
6.35812
6.35942
6.36087
6.36174
6.36303
6.36311
6.36527
6.36278
6.36955
6.35666
6.3848
6.32475
6.43882
6.02392
6.82196
8.84653
8.41636
7.57982
7.59295
7.5128
7.51601
7.50383
7.50455
7.50507
7.50829
7.50924
7.51079
7.5127
7.51482
7.51658
7.51801
7.51927
7.52032
7.52089
7.52156
7.52206
7.52242
7.52268
7.52287
7.52296
7.52308
7.52302
7.52316
7.52331
7.52331
7.52335
7.52331
7.52331
7.5232
7.52328
7.5234
7.52339
7.52343
7.52337
7.5234
7.52324
7.52335
7.52344
7.52346
7.52346
7.52343
7.52341
7.52331
7.52338
7.52349
7.52348
7.52349
7.52344
7.52342
7.5233
7.52338
7.52346
7.52348
7.52345
7.52344
7.52337
7.52333
7.5233
7.52351
7.52336
7.52349
7.52332
7.52339
7.52324
7.52325
7.5235
7.52321
7.52371
7.52295
7.52376
7.52263
7.52379
7.52259
7.52406
7.52234
7.52426
7.52196
7.52443
7.52181
7.5248
7.52143
7.52509
7.52091
7.52537
7.52064
7.52584
7.52013
7.52623
7.5195
7.52659
7.51912
7.52712
7.51853
7.52754
7.51785
7.52792
7.51746
7.52841
7.51692
7.52874
7.51636
7.5293
7.51597
7.52962
7.51549
7.52983
7.51534
7.5301
7.5151
7.53015
7.51488
7.53039
7.51487
7.53038
7.51479
7.53025
7.51505
7.53019
7.5152
7.52993
7.51535
7.52987
7.51568
7.52959
7.51593
7.52919
7.51649
7.52888
7.51691
7.52837
7.51734
7.52809
7.51792
7.52763
7.51842
7.52742
7.51905
7.52701
7.51957
7.52685
7.52018
7.52653
7.52061
7.52617
7.52125
7.52597
7.52166
7.5257
7.52224
7.52557
7.52258
7.52535
7.52309
7.52526
7.52334
7.52508
7.52375
7.52503
7.5239
7.5249
7.52423
7.52487
7.52428
7.52475
7.52453
7.52471
7.52452
7.52462
7.52471
7.52458
7.52477
7.52465
7.52481
7.52455
7.52475
7.52461
7.52475
7.52451
7.52464
7.52455
7.52455
7.52448
7.5246
7.52447
7.52446
7.52438
7.52447
7.5243
7.52434
7.52433
7.52425
7.5243
7.52433
7.52428
7.52418
7.52417
7.52419
7.5241
7.5241
7.52422
7.52403
7.52419
7.52412
7.52418
7.52398
7.52406
7.52405
7.52402
7.52399
7.52418
7.52401
7.52408
7.52409
7.52414
7.52401
7.52392
7.52457
7.52346
7.52595
7.52165
7.52554
7.52742
7.52117
7.52441
7.51765
7.53045
7.49905
7.56282
7.54336
7.38593
8.06861
6.43708
5.62611
6.06653
6.16883
)
;

boundaryField
{
    inlet
    {
        type            calculated;
        value           uniform 0;
    }
    outlet
    {
        type            calculated;
        value           uniform 0;
    }
    sideWall
    {
        type            empty;
    }
}


// ************************************************************************* //
