/*--------------------------------*- C++ -*----------------------------------*\
| =========                 |                                                 |
| \\      /  F ield         | foam-extend: Open Source CFD                    |
|  \\    /   O peration     | Version:     3.2                                |
|   \\  /    A nd           | Web:         http://www.foam-extend.org         |
|    \\/     M anipulation  | For copyright notice see file Copyright         |
\*---------------------------------------------------------------------------*/
FoamFile
{
    version     2.0;
    format      ascii;
    class       areaScalarField;
    location    "2000";
    object      thetaC2SS1;
}
// * * * * * * * * * * * * * * * * * * * * * * * * * * * * * * * * * * * * * //

dimensions      [0 0 0 0 0 0 0];

internalField   nonuniform List<scalar> 
300
(
0.118217
0.118217
0.118217
0.118217
0.118217
0.118217
0.118217
0.118217
0.118217
0.118217
0.118217
0.118217
0.118217
0.118217
0.118217
0.118217
0.118217
0.118217
0.118217
0.118217
0.118217
0.118217
0.118217
0.118217
0.118217
0.118217
0.118217
0.118217
0.118217
0.118217
0.118217
0.118217
0.118217
0.118217
0.118217
0.118217
0.118217
0.118217
0.118217
0.118217
0.118217
0.118217
0.118217
0.118217
0.118217
0.118217
0.118217
0.118217
0.118217
0.118217
0.118217
0.118217
0.118217
0.118217
0.118217
0.118217
0.118217
0.118217
0.118217
0.126665
0.135807
0.133439
0.130293
0.129617
0.128798
0.128473
0.128358
0.128379
0.128443
0.128515
0.128594
0.128675
0.128758
0.128821
0.128865
0.128904
0.128943
0.128965
0.128986
0.129014
0.129029
0.129043
0.129053
0.129062
0.129069
0.129074
0.129077
0.12909
0.129091
0.129092
0.129092
0.129092
0.129091
0.129091
0.1291
0.129099
0.129098
0.129096
0.129095
0.129093
0.129092
0.129101
0.129099
0.129098
0.129096
0.129095
0.129093
0.129092
0.1291
0.129099
0.129097
0.129096
0.129094
0.129093
0.129091
0.129099
0.129098
0.129096
0.129095
0.129094
0.129092
0.129091
0.129099
0.129097
0.129096
0.129094
0.129093
0.129091
0.129089
0.129098
0.129096
0.129095
0.129093
0.129092
0.12909
0.129088
0.129096
0.129095
0.129093
0.129092
0.12909
0.129088
0.129096
0.129095
0.129093
0.129092
0.12909
0.129088
0.129096
0.129094
0.129093
0.129091
0.129089
0.129087
0.129095
0.129094
0.129092
0.12909
0.129088
0.129087
0.129094
0.129093
0.129091
0.129089
0.129087
0.129095
0.129093
0.129091
0.129089
0.129087
0.129095
0.129093
0.129091
0.129089
0.129087
0.129095
0.129093
0.129091
0.129089
0.129087
0.129094
0.129092
0.12909
0.129089
0.129087
0.129094
0.129092
0.12909
0.129088
0.129086
0.129093
0.129091
0.129089
0.129087
0.129085
0.129092
0.12909
0.129088
0.129085
0.129092
0.12909
0.129088
0.129086
0.129093
0.129091
0.129089
0.129087
0.129084
0.129091
0.129089
0.129087
0.129085
0.129091
0.129089
0.129087
0.129085
0.129091
0.129089
0.129087
0.129084
0.129091
0.129089
0.129086
0.129084
0.129091
0.129088
0.129086
0.129084
0.12909
0.129087
0.129085
0.129083
0.129089
0.129087
0.129084
0.129091
0.129088
0.129086
0.129084
0.12909
0.129087
0.129085
0.129082
0.129088
0.129086
0.129083
0.12909
0.129087
0.129085
0.129082
0.129088
0.129086
0.129083
0.129089
0.129087
0.129084
0.12909
0.129087
0.129085
0.129082
0.129088
0.129085
0.129083
0.129088
0.129087
0.129083
0.12909
0.129086
0.129085
0.12908
0.129088
0.129083
0.129083
0.129086
0.129085
0.129081
0.129086
0.129087
0.129082
0.129077
0.129099
0.129077
0.129088
0.129086
0.129075
0.129106
0.129081
0.129034
0.129113
0.128981
0.129279
0.128637
0.130502
0.127483
0.12909
0.134178
0.119497
0.118217
0.118217
0.118217
)
;

boundaryField
{
    inlet
    {
        type            calculated;
        value           uniform 0;
    }
    outlet
    {
        type            calculated;
        value           uniform 0;
    }
    sideWall
    {
        type            empty;
    }
}


// ************************************************************************* //
