/*--------------------------------*- C++ -*----------------------------------*\
| =========                 |                                                 |
| \\      /  F ield         | foam-extend: Open Source CFD                    |
|  \\    /   O peration     | Version:     3.2                                |
|   \\  /    A nd           | Web:         http://www.foam-extend.org         |
|    \\/     M anipulation  | For copyright notice see file Copyright         |
\*---------------------------------------------------------------------------*/
FoamFile
{
    version     2.0;
    format      ascii;
    class       areaScalarField;
    location    "2000";
    object      thetaSS2;
}
// * * * * * * * * * * * * * * * * * * * * * * * * * * * * * * * * * * * * * //

dimensions      [0 0 0 0 0 0 0];

internalField   nonuniform List<scalar> 
300
(
1.8432
2.25789
1.90887
1.6111
1.44041
1.36996
1.34265
1.33927
1.34381
1.35312
1.36432
1.37571
1.38677
1.39843
1.40961
1.42095
1.43296
1.44495
1.45722
1.46958
1.48196
1.49437
1.50714
1.52027
1.53297
1.54466
1.55522
1.5645
1.57257
1.57947
1.58539
1.59044
1.59466
1.59812
1.60089
1.60318
1.60508
1.60668
1.60802
1.60918
1.61014
1.61099
1.61167
1.6123
1.61278
1.61326
1.61358
1.61395
1.61417
1.6145
1.61452
1.61507
1.61444
1.61615
1.61288
1.62002
1.60479
1.63373
1.52846
1.73095
2.24464
2.13549
1.92324
1.92657
1.90623
1.90705
1.90396
1.90414
1.90427
1.90509
1.90533
1.90572
1.90621
1.90675
1.90719
1.90755
1.90787
1.90814
1.90829
1.90845
1.90858
1.90867
1.90874
1.90879
1.90881
1.90884
1.90883
1.90886
1.9089
1.9089
1.90891
1.9089
1.9089
1.90887
1.90889
1.90892
1.90892
1.90893
1.90891
1.90892
1.90888
1.90891
1.90893
1.90894
1.90894
1.90893
1.90893
1.9089
1.90892
1.90894
1.90894
1.90894
1.90893
1.90893
1.9089
1.90892
1.90894
1.90894
1.90894
1.90893
1.90891
1.9089
1.9089
1.90895
1.90891
1.90895
1.9089
1.90892
1.90888
1.90888
1.90895
1.90887
1.909
1.90881
1.90901
1.90873
1.90902
1.90872
1.90909
1.90865
1.90914
1.90856
1.90918
1.90852
1.90928
1.90842
1.90935
1.90829
1.90942
1.90822
1.90954
1.90809
1.90964
1.90793
1.90973
1.90784
1.90987
1.90769
1.90997
1.90751
1.91007
1.90742
1.91019
1.90728
1.91028
1.90714
1.91042
1.90704
1.9105
1.90691
1.91055
1.90688
1.91062
1.90682
1.91064
1.90676
1.9107
1.90676
1.91069
1.90674
1.91066
1.9068
1.91064
1.90684
1.91058
1.90688
1.91056
1.90696
1.91049
1.90703
1.91039
1.90717
1.91031
1.90728
1.91018
1.90738
1.91011
1.90753
1.91
1.90766
1.90994
1.90782
1.90984
1.90795
1.9098
1.9081
1.90972
1.90822
1.90962
1.90838
1.90958
1.90848
1.90951
1.90863
1.90947
1.90871
1.90942
1.90884
1.90939
1.90891
1.90935
1.90901
1.90934
1.90905
1.9093
1.90913
1.90929
1.90915
1.90926
1.90921
1.90925
1.90921
1.90923
1.90925
1.90922
1.90927
1.90924
1.90928
1.90921
1.90926
1.90923
1.90927
1.9092
1.90924
1.90921
1.90921
1.9092
1.90923
1.90919
1.90919
1.90917
1.90919
1.90915
1.90916
1.90916
1.90914
1.90915
1.90916
1.90915
1.90912
1.90912
1.90912
1.9091
1.9091
1.90913
1.90908
1.90912
1.9091
1.90912
1.90907
1.90909
1.90909
1.90908
1.90907
1.90912
1.90908
1.9091
1.9091
1.90911
1.90908
1.90905
1.90922
1.90894
1.90957
1.90848
1.90947
1.90994
1.90836
1.90918
1.90746
1.91071
1.90274
1.91892
1.91399
1.87404
2.04726
1.63329
1.42752
1.53927
1.56522
)
;

boundaryField
{
    inlet
    {
        type            calculated;
        value           uniform 0;
    }
    outlet
    {
        type            calculated;
        value           uniform 0;
    }
    sideWall
    {
        type            empty;
    }
}


// ************************************************************************* //
