/*--------------------------------*- C++ -*----------------------------------*\
| =========                 |                                                 |
| \\      /  F ield         | foam-extend: Open Source CFD                    |
|  \\    /   O peration     | Version:     3.2                                |
|   \\  /    A nd           | Web:         http://www.foam-extend.org         |
|    \\/     M anipulation  | For copyright notice see file Copyright         |
\*---------------------------------------------------------------------------*/
FoamFile
{
    version     2.0;
    format      ascii;
    class       areaScalarField;
    location    "2000";
    object      thetaB;
}
// * * * * * * * * * * * * * * * * * * * * * * * * * * * * * * * * * * * * * //

dimensions      [0 0 0 0 0 0 0];

internalField   nonuniform List<scalar> 
300
(
0.13824
0.169342
0.143165
0.120833
0.108031
0.102747
0.100698
0.100446
0.100786
0.101484
0.102324
0.103179
0.104007
0.104882
0.10572
0.106571
0.107472
0.108371
0.109291
0.110218
0.111147
0.112078
0.113036
0.11402
0.114973
0.11585
0.116641
0.117338
0.117943
0.11846
0.118904
0.119283
0.1196
0.119859
0.120067
0.120239
0.120381
0.120501
0.120602
0.120689
0.120761
0.120824
0.120875
0.120923
0.120958
0.120994
0.121019
0.121046
0.121063
0.121088
0.121089
0.12113
0.121083
0.121211
0.120966
0.121502
0.120359
0.12253
0.114634
0.129821
0.168348
0.160162
0.144243
0.144493
0.142968
0.143029
0.142797
0.142811
0.14282
0.142882
0.1429
0.142929
0.142965
0.143006
0.143039
0.143067
0.143091
0.14311
0.143121
0.143134
0.143144
0.143151
0.143155
0.143159
0.143161
0.143163
0.143162
0.143165
0.143167
0.143168
0.143168
0.143167
0.143167
0.143165
0.143167
0.143169
0.143169
0.14317
0.143169
0.143169
0.143166
0.143168
0.14317
0.14317
0.14317
0.14317
0.143169
0.143167
0.143169
0.143171
0.143171
0.143171
0.14317
0.14317
0.143167
0.143169
0.14317
0.143171
0.14317
0.14317
0.143169
0.143168
0.143167
0.143171
0.143168
0.143171
0.143168
0.143169
0.143166
0.143166
0.143171
0.143166
0.143175
0.143161
0.143176
0.143154
0.143177
0.143154
0.143182
0.143149
0.143185
0.143142
0.143189
0.143139
0.143196
0.143132
0.143201
0.143122
0.143207
0.143117
0.143216
0.143107
0.143223
0.143095
0.14323
0.143088
0.14324
0.143077
0.143248
0.143064
0.143255
0.143056
0.143265
0.143046
0.143271
0.143035
0.143281
0.143028
0.143288
0.143019
0.143292
0.143016
0.143297
0.143011
0.143298
0.143007
0.143302
0.143007
0.143302
0.143005
0.1433
0.14301
0.143298
0.143013
0.143293
0.143016
0.143292
0.143022
0.143287
0.143027
0.143279
0.143038
0.143273
0.143046
0.143264
0.143054
0.143258
0.143065
0.14325
0.143074
0.143246
0.143086
0.143238
0.143096
0.143235
0.143108
0.143229
0.143116
0.143222
0.143128
0.143218
0.143136
0.143213
0.143147
0.14321
0.143154
0.143206
0.143163
0.143204
0.143168
0.143201
0.143176
0.1432
0.143179
0.143198
0.143185
0.143197
0.143186
0.143195
0.143191
0.143194
0.143191
0.143192
0.143194
0.143192
0.143195
0.143193
0.143196
0.143191
0.143195
0.143192
0.143195
0.14319
0.143193
0.143191
0.143191
0.14319
0.143192
0.143189
0.143189
0.143188
0.143189
0.143186
0.143187
0.143187
0.143185
0.143186
0.143187
0.143186
0.143184
0.143184
0.143184
0.143183
0.143182
0.143185
0.143181
0.143184
0.143183
0.143184
0.14318
0.143182
0.143182
0.143181
0.14318
0.143184
0.143181
0.143182
0.143182
0.143183
0.143181
0.143179
0.143191
0.14317
0.143218
0.143136
0.14321
0.143246
0.143127
0.143188
0.14306
0.143303
0.142706
0.143919
0.143549
0.140553
0.153544
0.122497
0.107064
0.115445
0.117392
)
;

boundaryField
{
    inlet
    {
        type            calculated;
        value           uniform 0;
    }
    outlet
    {
        type            calculated;
        value           uniform 0;
    }
    sideWall
    {
        type            empty;
    }
}


// ************************************************************************* //
