/*--------------------------------*- C++ -*----------------------------------*\
| =========                 |                                                 |
| \\      /  F ield         | foam-extend: Open Source CFD                    |
|  \\    /   O peration     | Version:     3.2                                |
|   \\  /    A nd           | Web:         http://www.foam-extend.org         |
|    \\/     M anipulation  | For copyright notice see file Copyright         |
\*---------------------------------------------------------------------------*/
FoamFile
{
    version     2.0;
    format      ascii;
    class       areaScalarField;
    location    "2000";
    object      totH;
}
// * * * * * * * * * * * * * * * * * * * * * * * * * * * * * * * * * * * * * //

dimensions      [0 0 0 0 0 0 0];

internalField   nonuniform List<scalar> 
300
(
0
0
0
0
0
0
0
0
0
0
0
0
0
0
0
0
0
0
0
0
0
0
0
0
0
0
0
0
0
0
0
0
0
0
0
0
0
0
0
0
0
0
0
0
0
0
0
0
0
0
0
0
0
0
0
0
0
0
0
0.000887527
0.00229013
0.00246925
0.00214302
0.0021324
0.00210863
0.00209036
0.00206359
0.00203996
0.00201824
0.0019987
0.00198033
0.00196375
0.00194944
0.00193708
0.00192632
0.001917
0.00190906
0.00190231
0.00189658
0.00189189
0.00188809
0.00188499
0.00188251
0.00188055
0.00187903
0.00187787
0.00187699
0.00187643
0.0018761
0.00187586
0.00187571
0.00187561
0.00187556
0.00187552
0.0018756
0.00187575
0.00187585
0.00187593
0.00187599
0.00187602
0.00187604
0.00187613
0.00187625
0.00187632
0.00187636
0.00187636
0.00187635
0.00187632
0.00187636
0.00187644
0.00187646
0.00187646
0.00187644
0.0018764
0.00187635
0.00187638
0.00187644
0.00187645
0.00187644
0.00187641
0.00187637
0.00187631
0.00187632
0.00187639
0.00187639
0.00187638
0.00187634
0.0018763
0.00187624
0.00187627
0.00187636
0.0018763
0.00187635
0.00187627
0.00187627
0.00187616
0.00187623
0.00187622
0.00187629
0.00187622
0.00187628
0.00187617
0.00187633
0.0018763
0.00187645
0.00187635
0.00187649
0.00187635
0.00187659
0.00187652
0.00187677
0.00187664
0.00187688
0.00187669
0.00187704
0.00187693
0.00187729
0.00187712
0.00187747
0.00187726
0.00187771
0.00187758
0.00187803
0.00187785
0.00187828
0.00187816
0.00187868
0.00187855
0.00187902
0.00187886
0.00187938
0.00187931
0.00187979
0.00187969
0.0018801
0.00188008
0.00188052
0.0018805
0.00188085
0.00188081
0.00188116
0.00188122
0.0018815
0.00188152
0.00188171
0.00188179
0.001882
0.00188207
0.00188217
0.00188222
0.0018823
0.00188245
0.00188245
0.00188255
0.00188245
0.00188261
0.00188252
0.00188268
0.0018825
0.00188271
0.00188256
0.00188276
0.00188251
0.00188276
0.00188255
0.00188276
0.00188245
0.00188262
0.00188233
0.00188256
0.00188222
0.0018824
0.00188209
0.00188231
0.00188195
0.0018821
0.00188177
0.00188196
0.0018816
0.00188173
0.00188141
0.00188157
0.00188121
0.00188128
0.00188095
0.00188107
0.00188074
0.0018808
0.00188052
0.0018806
0.00188028
0.00188026
0.00187998
0.00188003
0.00187976
0.00187983
0.00187965
0.00187964
0.00187937
0.00187934
0.00187914
0.00187909
0.00187887
0.00187888
0.00187876
0.0018787
0.00187857
0.00187852
0.00187836
0.00187828
0.0018782
0.00187823
0.00187813
0.00187812
0.00187806
0.00187796
0.00187791
0.00187791
0.00187787
0.00187785
0.00187784
0.00187784
0.00187775
0.00187769
0.00187766
0.00187763
0.00187767
0.00187774
0.00187774
0.0018777
0.00187767
0.0018776
0.00187754
0.00187756
0.00187761
0.00187767
0.00187773
0.00187777
0.00187775
0.00187763
0.0018777
0.00187781
0.00187769
0.00187804
0.00187766
0.00187946
0.00187968
0.00187688
0.00187656
0.00187643
0.00187813
0.00187903
0.00189929
0.00186172
0.00187189
0.00181739
0.000846889
0
0
0
)
;

boundaryField
{
    inlet
    {
        type            calculated;
        value           uniform 0;
    }
    outlet
    {
        type            calculated;
        value           uniform 0;
    }
    sideWall
    {
        type            empty;
    }
}


// ************************************************************************* //
