/*--------------------------------*- C++ -*----------------------------------*\
| =========                 |                                                 |
| \\      /  F ield         | foam-extend: Open Source CFD                    |
|  \\    /   O peration     | Version:     3.2                                |
|   \\  /    A nd           | Web:         http://www.foam-extend.org         |
|    \\/     M anipulation  | For copyright notice see file Copyright         |
\*---------------------------------------------------------------------------*/
FoamFile
{
    version     2.0;
    format      ascii;
    class       areaScalarField;
    location    "2000";
    object      totH1;
}
// * * * * * * * * * * * * * * * * * * * * * * * * * * * * * * * * * * * * * //

dimensions      [0 0 0 0 0 0 0];

internalField   nonuniform List<scalar> 
300
(
0
0
0
0
0
0
0
0
0
0
0
0
0
0
0
0
0
0
0
0
0
0
0
0
0
0
0
0
0
0
0
0
0
0
0
0
0
0
0
0
0
0
0
0
0
0
0
0
0
0
0
0
0
0
0
0
0
0
0
0.000887527
0.00229013
0.00246925
0.00214302
0.0021324
0.00210863
0.00209036
0.00206359
0.00203996
0.00201824
0.0019987
0.00198033
0.00196375
0.00194944
0.00193708
0.00192632
0.001917
0.00190906
0.00190231
0.00189658
0.00189189
0.00188809
0.00188499
0.00188251
0.00188055
0.00187903
0.00187787
0.00187699
0.00187643
0.0018761
0.00187586
0.00187571
0.00187561
0.00187556
0.00187552
0.0018756
0.00187575
0.00187585
0.00187593
0.00187599
0.00187602
0.00187604
0.00187613
0.00187625
0.00187632
0.00187636
0.00187636
0.00187635
0.00187632
0.00187636
0.00187644
0.00187646
0.00187646
0.00187644
0.0018764
0.00187635
0.00187638
0.00187644
0.00187645
0.00187644
0.00187641
0.00187637
0.00187631
0.00187632
0.00187639
0.00187639
0.00187638
0.00187634
0.0018763
0.00187624
0.00187627
0.00187636
0.0018763
0.00187635
0.00187627
0.00187627
0.00187616
0.00187623
0.00187622
0.00187629
0.00187622
0.00187628
0.00187617
0.00187633
0.0018763
0.00187645
0.00187635
0.00187649
0.00187635
0.00187659
0.00187652
0.00187677
0.00187663
0.00187688
0.00187669
0.00187704
0.00187693
0.00187729
0.00187712
0.00187747
0.00187726
0.00187771
0.00187758
0.00187803
0.00187785
0.00187828
0.00187816
0.00187868
0.00187855
0.00187902
0.00187886
0.00187938
0.00187931
0.00187979
0.00187969
0.0018801
0.00188008
0.00188052
0.0018805
0.00188085
0.0018808
0.00188116
0.00188122
0.0018815
0.00188152
0.00188171
0.00188179
0.001882
0.00188207
0.00188217
0.00188222
0.0018823
0.00188245
0.00188245
0.00188255
0.00188245
0.00188261
0.00188252
0.00188268
0.0018825
0.00188271
0.00188256
0.00188276
0.00188252
0.00188276
0.00188255
0.00188276
0.00188245
0.00188262
0.00188233
0.00188256
0.00188223
0.0018824
0.00188208
0.0018823
0.00188194
0.00188209
0.00188177
0.00188198
0.00188162
0.00188174
0.00188141
0.00188155
0.00188119
0.00188127
0.00188096
0.0018811
0.00188077
0.00188082
0.00188051
0.00188056
0.00188025
0.00188025
0.00187999
0.00188007
0.0018798
0.00187984
0.00187964
0.00187959
0.00187932
0.00187932
0.00187916
0.00187915
0.00187893
0.0018789
0.00187874
0.00187864
0.0018785
0.0018785
0.00187838
0.00187834
0.00187827
0.00187825
0.00187811
0.00187805
0.00187799
0.00187793
0.00187793
0.00187799
0.00187795
0.00187788
0.00187782
0.00187775
0.00187766
0.00187766
0.00187769
0.00187771
0.00187776
0.00187777
0.00187772
0.00187761
0.00187757
0.00187756
0.00187757
0.00187766
0.00187772
0.00187771
0.00187769
0.00187767
0.00187764
0.00187759
0.00187774
0.00187792
0.0018778
0.00187808
0.00187763
0.00187941
0.00187966
0.00187688
0.00187656
0.00187643
0.00187813
0.00187903
0.00189929
0.00186172
0.00187189
0.00181739
0.000846889
0
0
0
)
;

boundaryField
{
    inlet
    {
        type            calculated;
        value           uniform 0;
    }
    outlet
    {
        type            calculated;
        value           uniform 0;
    }
    sideWall
    {
        type            empty;
    }
}


// ************************************************************************* //
