/*--------------------------------*- C++ -*----------------------------------*\
| =========                 |                                                 |
| \\      /  F ield         | foam-extend: Open Source CFD                    |
|  \\    /   O peration     | Version:     3.2                                |
|   \\  /    A nd           | Web:         http://www.foam-extend.org         |
|    \\/     M anipulation  | For copyright notice see file Copyright         |
\*---------------------------------------------------------------------------*/
FoamFile
{
    version     2.0;
    format      ascii;
    class       volVectorField;
    location    "2000";
    object      U;
}
// * * * * * * * * * * * * * * * * * * * * * * * * * * * * * * * * * * * * * //

dimensions      [0 1 -1 0 0 0 0];

internalField   nonuniform List<vector> 
2400
(
(0.246169 0 0.00351749)
(0.203431 0 0.00153294)
(0.166951 0 0.000160239)
(0.151416 0 -0.000486326)
(0.143938 -1.25349e-26 -0.000665474)
(0.141631 -1.31648e-42 -0.000729215)
(0.140616 -7.79861e-27 -0.000749161)
(0.140732 2.21858e-43 -0.000749438)
(0.141021 5.76455e-27 -0.000749266)
(0.141567 1.56898e-42 -0.000749041)
(0.14217 2.78492e-27 -0.000747033)
(0.142749 1.85712e-27 -0.000744139)
(0.143289 0 -0.000745498)
(0.143892 8.25342e-28 -0.000746902)
(0.144416 1.06308e-27 -0.00074742)
(0.14497 -6.52139e-29 -0.000751411)
(0.145574 -2.70099e-28 -0.000753447)
(0.14615 5.67385e-28 -0.000755507)
(0.146744 -8.06301e-28 -0.000758028)
(0.147334 0 -0.000760391)
(0.147921 0 -0.00076294)
(0.148517 1.19933e-27 -0.000767186)
(0.149159 1.27836e-27 -0.000772392)
(0.149842 0 -0.000776067)
(0.150497 0 -0.000777257)
(0.151093 1.25142e-27 -0.000777813)
(0.151631 0 -0.000777813)
(0.152102 0 -0.000777512)
(0.152512 0 -0.000777037)
(0.152861 8.82261e-28 -0.00077662)
(0.153162 0 -0.000776315)
(0.153421 0 -0.000775809)
(0.153633 -6.26512e-28 -0.000775168)
(0.153806 0 -0.000774541)
(0.153943 0 -0.00077415)
(0.154058 0 -0.000774003)
(0.154154 -3.35144e-28 -0.00077386)
(0.154236 0 -0.00077378)
(0.154304 0 -0.000773706)
(0.154363 0 -0.000773677)
(0.154412 -1.85414e-28 -0.000773634)
(0.154456 -2.46325e-43 -0.000773622)
(0.15449 0 -0.000773589)
(0.154523 0 -0.000773589)
(0.154546 -1.00234e-28 -0.000773549)
(0.154572 0 -0.000773583)
(0.154587 -2.46834e-43 -0.000773515)
(0.154608 0 -0.000773599)
(0.154617 0 -0.000773511)
(0.154638 0 -0.000773522)
(0.154631 0 -0.000773519)
(0.154676 -1.37701e-36 -0.000773682)
(0.154608 0 -0.0007731)
(0.15477 1.77587e-28 -0.000774321)
(0.154447 0 -0.000771671)
(0.155137 0 -0.000776326)
(0.153654 -9.68885e-28 -0.000760298)
(0.156516 0 -0.000702619)
(0.146587 4.24093e-26 -0.000905889)
(0.167808 8.00788e-25 0.00365551)
(0.199356 1.48996e-25 0.00337216)
(0.178681 6.06653e-28 -0.00223227)
(0.164686 0 -0.000918176)
(0.169437 1.87439e-26 -0.0010032)
(0.167626 2.34281e-30 -0.000884454)
(0.168049 0 -0.000937526)
(0.167742 6.1267e-32 -0.000924586)
(0.167794 0 -0.000922583)
(0.167788 0 -0.000912854)
(0.167843 1.04319e-27 -0.000907155)
(0.167844 0 -0.000901937)
(0.167875 -4.86076e-28 -0.000894678)
(0.167912 -3.20469e-28 -0.000887183)
(0.167954 -2.21623e-28 -0.00088124)
(0.167988 -1.40272e-28 -0.000875822)
(0.168017 7.50871e-29 -0.000871085)
(0.168046 -6.71954e-32 -0.000866253)
(0.16807 8.12393e-32 -0.000862748)
(0.168086 -2.1126e-29 -0.000859102)
(0.168105 0 -0.000855588)
(0.16812 -5.27082e-29 -0.000852882)
(0.168132 2.80439e-32 -0.000850407)
(0.168142 0 -0.000848538)
(0.168151 0 -0.000846869)
(0.168156 0 -0.000845513)
(0.168162 -4.66845e-29 -0.000844364)
(0.168164 -8.60061e-29 -0.000843525)
(0.16817 0 -0.000842273)
(0.168174 -1.20864e-32 -0.000842002)
(0.168175 -5.62874e-29 -0.000841461)
(0.168177 -1.69918e-29 -0.00084136)
(0.168177 -1.94419e-29 -0.000841073)
(0.168178 1.17327e-29 -0.000841011)
(0.168177 1.46883e-29 -0.000840977)
(0.16818 -1.46382e-32 -0.0008404)
(0.168181 -1.35305e-29 -0.000840517)
(0.168181 4.56475e-30 -0.000840591)
(0.168182 -1.01061e-29 -0.000840598)
(0.16818 1.15315e-30 -0.000840776)
(0.168181 0 -0.000840706)
(0.168178 -5.65788e-30 -0.000840895)
(0.168181 0 -0.000840387)
(0.168182 0 -0.000840735)
(0.168182 4.47138e-30 -0.000840585)
(0.168181 0 -0.000840911)
(0.168181 -7.30928e-32 -0.000840817)
(0.168181 3.69562e-30 -0.000841011)
(0.168178 1.03037e-29 -0.000840961)
(0.168181 0 -0.000840659)
(0.168182 -1.63522e-30 -0.000840751)
(0.168181 0 -0.000840869)
(0.168182 2.19253e-30 -0.000840896)
(0.16818 2.60148e-30 -0.000840985)
(0.16818 3.83495e-30 -0.000841015)
(0.168178 6.71827e-30 -0.000841065)
(0.16818 -8.10197e-30 -0.000840655)
(0.168182 5.94052e-30 -0.000840878)
(0.168181 -2.00411e-31 -0.000840842)
(0.168181 -3.17052e-30 -0.000840988)
(0.168181 0 -0.000840939)
(0.168179 0 -0.000841113)
(0.168179 2.47779e-30 -0.000840992)
(0.168179 4.94299e-30 -0.000840823)
(0.168183 0 -0.000840666)
(0.168179 1.58679e-32 -0.00084107)
(0.168182 0 -0.000840756)
(0.168178 6.71224e-30 -0.00084126)
(0.168181 1.50736e-30 -0.000840762)
(0.168177 0 -0.000841377)
(0.168178 -3.84112e-32 -0.000840316)
(0.168183 0 -0.000841028)
(0.168176 -7.90972e-30 -0.000841108)
(0.168188 0 -0.000840408)
(0.168169 3.70928e-29 -0.000841686)
(0.168191 -7.44592e-32 -0.000840157)
(0.168162 1.61641e-29 -0.000842148)
(0.168194 0 -0.000839356)
(0.168162 0 -0.000842503)
(0.1682 0 -0.000838896)
(0.168155 -4.27491e-29 -0.000843192)
(0.168206 4.66033e-29 -0.000838303)
(0.168146 -9.40015e-29 -0.000843939)
(0.168212 -6.31164e-29 -0.000837089)
(0.168142 0 -0.00084479)
(0.168221 -7.84018e-29 -0.000836142)
(0.168132 8.85594e-29 -0.000846013)
(0.168229 0 -0.00083503)
(0.16812 1.00599e-28 -0.000847325)
(0.168239 -2.44876e-28 -0.000833214)
(0.168113 1.27736e-28 -0.000848769)
(0.168251 0 -0.000831621)
(0.1681 1.58576e-28 -0.000850628)
(0.168262 0 -0.000829849)
(0.168085 1.09974e-30 -0.000852594)
(0.168274 0 -0.000827369)
(0.168075 0 -0.000854677)
(0.168288 1.42762e-30 -0.000825123)
(0.16806 0 -0.000857154)
(0.168301 0 -0.000822729)
(0.168044 0 -0.000859696)
(0.168313 -3.11843e-28 -0.000819709)
(0.168034 -3.20654e-28 -0.000862277)
(0.168327 -3.45771e-28 -0.000817015)
(0.16802 0 -0.000865156)
(0.168337 0 -0.000814187)
(0.168007 3.91219e-28 -0.000867713)
(0.168353 4.25137e-28 -0.00081118)
(0.167996 4.31142e-28 -0.000870681)
(0.168362 0 -0.000808416)
(0.167984 0 -0.000873526)
(0.16837 4.9131e-28 -0.000805376)
(0.16798 -4.97088e-28 -0.00087608)
(0.168377 5.19875e-28 -0.000802935)
(0.167974 0 -0.000878642)
(0.16838 -5.46644e-28 -0.000800713)
(0.167969 -5.48605e-28 -0.000880586)
(0.168386 0 -0.000798603)
(0.167968 0 -0.000882667)
(0.168386 5.93984e-28 -0.000796945)
(0.167966 0 -0.000884505)
(0.168384 0 -0.000795089)
(0.167972 0 -0.000885912)
(0.168381 0 -0.00079397)
(0.167975 0 -0.000887203)
(0.168374 -6.86453e-28 -0.000793191)
(0.16798 6.93974e-28 -0.000887797)
(0.168372 0 -0.000792572)
(0.167987 0 -0.000888432)
(0.168364 0 -0.000792474)
(0.167993 0 -0.000888724)
(0.168354 7.33267e-28 -0.000792324)
(0.168007 4.52021e-30 -0.000888506)
(0.168343 -7.42741e-28 -0.00079293)
(0.168017 0 -0.00088812)
(0.16833 0 -0.000793896)
(0.168029 -7.4518e-28 -0.000887017)
(0.168321 -7.3243e-28 -0.00079501)
(0.168042 7.36484e-28 -0.000885895)
(0.168307 0 -0.000796582)
(0.168054 0 -0.000884164)
(0.168299 -7.08478e-28 -0.000798263)
(0.168068 0 -0.000882539)
(0.168286 0 -0.000800338)
(0.16808 -6.81095e-28 -0.000880367)
(0.168279 1.31631e-27 -0.00080244)
(0.168093 0 -0.000878411)
(0.168268 0 -0.000804867)
(0.168104 6.16189e-28 -0.000876294)
(0.168257 -5.98471e-28 -0.000807017)
(0.168118 0 -0.000873905)
(0.168248 5.59856e-28 -0.000809642)
(0.168127 -5.53374e-28 -0.000871559)
(0.168239 5.27787e-28 -0.000811939)
(0.16814 5.16179e-28 -0.000869062)
(0.168232 0 -0.00081464)
(0.168148 0 -0.000866723)
(0.168225 4.40348e-28 -0.000816934)
(0.168158 4.39316e-28 -0.000864296)
(0.168218 4.01845e-28 -0.00081951)
(0.168163 0 -0.000862042)
(0.168213 -3.62084e-28 -0.000821684)
(0.168173 -3.37746e-28 -0.000859705)
(0.16821 -3.14873e-28 -0.000824125)
(0.168176 -2.77792e-28 -0.000857586)
(0.168206 2.36301e-28 -0.000826221)
(0.168182 -2.35031e-28 -0.000855424)
(0.168201 -2.06477e-28 -0.00082832)
(0.168183 0 -0.000853583)
(0.168199 0 -0.000830095)
(0.16819 9.90239e-31 -0.00085178)
(0.168197 0 -0.000831779)
(0.168191 1.28091e-28 -0.000850409)
(0.168195 0 -0.000833918)
(0.168193 8.09658e-28 -0.000848326)
(0.168191 -4.59286e-28 -0.000834485)
(0.168194 -4.24127e-28 -0.000847338)
(0.168193 -3.89845e-28 -0.00083565)
(0.168197 4.37954e-31 -0.000846513)
(0.168192 -3.1612e-28 -0.000836854)
(0.168197 0 -0.000845345)
(0.168193 0 -0.000837694)
(0.168195 0 -0.000844746)
(0.168189 0 -0.000838526)
(0.168192 0 -0.000843747)
(0.168191 -1.35144e-28 -0.000839166)
(0.168193 0 -0.000843228)
(0.168193 2.8706e-28 -0.000839218)
(0.168195 0 -0.000842848)
(0.168192 5.5087e-29 -0.000839977)
(0.168191 0 -0.000842576)
(0.168188 0 -0.000839886)
(0.168191 8.94075e-29 -0.000842171)
(0.168188 0 -0.000840356)
(0.168192 0 -0.000841565)
(0.168192 -4.92086e-32 -0.000840548)
(0.168191 -6.04086e-30 -0.000841758)
(0.168192 0 -0.000840419)
(0.16819 0 -0.000841555)
(0.168188 0 -0.000840699)
(0.168186 0 -0.000841597)
(0.168188 0 -0.00084048)
(0.16819 1.67824e-30 -0.000841399)
(0.16819 2.76449e-29 -0.000840799)
(0.16819 -1.6137e-29 -0.000841201)
(0.168192 0 -0.00084077)
(0.168185 -2.22768e-29 -0.000841329)
(0.168188 0 -0.000840546)
(0.168186 -3.26691e-29 -0.000841266)
(0.168189 0 -0.000840658)
(0.168187 -3.36495e-29 -0.00084135)
(0.168191 0 -0.000840571)
(0.16819 -1.10408e-29 -0.000841383)
(0.168189 1.07406e-29 -0.000840617)
(0.168185 0 -0.000841303)
(0.168188 0 -0.000840534)
(0.168184 0 -0.000841303)
(0.168187 0 -0.000840401)
(0.16819 0 -0.000841117)
(0.168192 0 -0.000840653)
(0.168189 2.46393e-29 -0.000841465)
(0.168187 0 -0.000839856)
(0.168197 0 -0.000841622)
(0.16817 0 -0.000841429)
(0.168228 3.28989e-29 -0.000838793)
(0.168125 1.20113e-28 -0.000843972)
(0.168233 3.59068e-28 -0.000829198)
(0.168246 -6.93771e-28 -0.000851392)
(0.168111 0 -0.000843667)
(0.168211 0 -0.000840421)
(0.168056 -1.25008e-28 -0.000841974)
(0.168353 7.38769e-28 -0.000825679)
(0.167632 2.83367e-30 -0.000853012)
(0.169136 -3.08763e-27 -0.000735084)
(0.168381 0 -0.00113017)
(0.165502 0 -0.000608915)
(0.180203 1.19783e-25 -0.00136939)
(0.142326 7.7814e-25 -0.00424698)
(0.135096 7.19667e-26 -0.00131603)
(0.151092 0 -0.00104388)
(0.151234 0 -0.000708376)
(0.291811 0 0.00423432)
(0.285091 0 0.00246649)
(0.267395 0 0.00144611)
(0.254592 0 0.00018304)
(0.244667 0 -0.000566397)
(0.23918 5.01379e-26 -0.000903969)
(0.23505 1.76925e-26 -0.00105684)
(0.232706 1.46278e-26 -0.00113009)
(0.230895 1.20664e-26 -0.00116442)
(0.22974 1.80398e-26 -0.00118507)
(0.229118 6.37264e-27 -0.00119535)
(0.228772 -4.77511e-27 -0.00119521)
(0.228731 3.32806e-27 -0.00120085)
(0.228826 -2.19845e-27 -0.00120134)
(0.22906 3.00482e-27 -0.00120021)
(0.229419 -1.21231e-27 -0.00121052)
(0.229914 -4.1969e-28 -0.00121477)
(0.230485 0 -0.00121911)
(0.231156 5.45087e-28 -0.00122421)
(0.231875 0 -0.00122869)
(0.232647 0 -0.00123334)
(0.233447 0 -0.00124079)
(0.234281 2.65617e-27 -0.00124967)
(0.235138 0 -0.00125458)
(0.23596 0 -0.00125349)
(0.236713 0 -0.00125074)
(0.2374 1.63523e-27 -0.0012469)
(0.238013 0 -0.00124265)
(0.238555 1.41886e-27 -0.00123832)
(0.239028 2.56772e-27 -0.00123448)
(0.239444 -1.1717e-27 -0.00123128)
(0.23981 1.06482e-27 -0.00122792)
(0.24012 -9.43121e-28 -0.00122447)
(0.240381 0 -0.00122124)
(0.240593 0 -0.00121883)
(0.240776 0 -0.00121725)
(0.240929 -4.90363e-28 -0.00121594)
(0.241064 4.21831e-28 -0.0012149)
(0.241175 0 -0.00121402)
(0.241275 0 -0.00121333)
(0.241355 -2.67968e-28 -0.00121271)
(0.24143 -4.57742e-28 -0.00121221)
(0.241487 0 -0.00121176)
(0.241544 -3.35541e-28 -0.00121139)
(0.241583 -1.44135e-28 -0.00121105)
(0.241628 0 -0.00121084)
(0.241652 -2.09049e-28 -0.00121053)
(0.24169 -8.93992e-29 -0.00121048)
(0.241703 -1.56496e-28 -0.00121024)
(0.241738 0 -0.0012101)
(0.241739 0 -0.00121004)
(0.241784 -1.12251e-28 -0.00120982)
(0.241733 0 -0.00120958)
(0.241873 -4.26335e-34 -0.00120982)
(0.241607 0 -0.00120889)
(0.242187 2.68296e-28 -0.00120817)
(0.240937 2.15978e-28 -0.00119055)
(0.243206 5.30323e-27 -0.00099907)
(0.234581 8.27543e-26 -0.00147022)
(0.252007 -1.2692e-24 0.00443699)
(0.2859 0 0.00341092)
(0.277299 9.60199e-25 -0.00267671)
(0.265717 0 -0.00110068)
(0.267834 1.72992e-26 -0.0014543)
(0.265823 -7.51196e-28 -0.00133961)
(0.265414 0 -0.00144774)
(0.264482 -3.22533e-27 -0.00142922)
(0.263997 -2.77523e-27 -0.00143187)
(0.263548 0 -0.00141806)
(0.263272 1.50012e-27 -0.00141239)
(0.263017 0 -0.00140529)
(0.262841 -1.27678e-27 -0.00139516)
(0.262714 0 -0.00138439)
(0.262627 1.14548e-30 -0.0013755)
(0.262561 0 -0.00136719)
(0.262513 4.14688e-29 -0.00135987)
(0.26248 2.24841e-29 -0.0013524)
(0.262455 -1.57621e-29 -0.00134652)
(0.262437 -7.37075e-29 -0.00134097)
(0.262429 0 -0.00133558)
(0.262424 0 -0.00133148)
(0.262423 -2.52315e-31 -0.00132789)
(0.262422 0 -0.00132462)
(0.262425 0 -0.00132192)
(0.262427 0 -0.00131976)
(0.262431 0 -0.001318)
(0.262433 -1.84159e-28 -0.00131656)
(0.26244 0 -0.00131475)
(0.262446 5.34517e-29 -0.00131423)
(0.262449 -4.7564e-29 -0.00131338)
(0.262454 -3.23774e-29 -0.00131321)
(0.262456 -6.68879e-29 -0.0013127)
(0.26246 0 -0.00131258)
(0.262461 2.82675e-29 -0.00131251)
(0.262464 -3.3208e-29 -0.00131172)
(0.262469 -9.85598e-30 -0.00131186)
(0.26247 0 -0.00131195)
(0.262472 1.04256e-32 -0.00131196)
(0.262472 0 -0.00131216)
(0.262474 0 -0.00131208)
(0.262472 -8.92035e-30 -0.00131235)
(0.262475 0 -0.00131168)
(0.262477 0 -0.00131215)
(0.262477 1.67567e-29 -0.00131194)
(0.262478 0 -0.00131235)
(0.262477 6.79967e-31 -0.00131224)
(0.262477 1.50444e-29 -0.00131252)
(0.262476 1.28642e-29 -0.00131248)
(0.262477 -1.21277e-29 -0.00131206)
(0.262479 -2.8424e-30 -0.0013122)
(0.262478 -3.57832e-30 -0.00131232)
(0.262479 1.41438e-33 -0.00131236)
(0.262478 5.05724e-30 -0.00131249)
(0.262478 3.04815e-30 -0.00131253)
(0.262475 3.1419e-30 -0.00131263)
(0.262477 1.59177e-29 -0.00131206)
(0.262478 9.98766e-30 -0.00131236)
(0.262478 -1.44694e-30 -0.00131229)
(0.262478 8.82384e-33 -0.0013125)
(0.262478 2.24055e-30 -0.00131242)
(0.262476 0 -0.00131267)
(0.262476 4.70661e-30 -0.0013125)
(0.262476 8.19867e-30 -0.00131231)
(0.262478 0 -0.0013121)
(0.262477 1.42598e-29 -0.0013126)
(0.262479 0 -0.00131217)
(0.262476 1.4681e-29 -0.00131285)
(0.262477 0 -0.0013122)
(0.262474 0 -0.00131308)
(0.262475 -4.01445e-29 -0.00131158)
(0.262479 3.38124e-29 -0.00131255)
(0.262474 -1.1187e-29 -0.00131269)
(0.26248 3.37023e-29 -0.00131171)
(0.262472 4.92212e-29 -0.00131342)
(0.262481 1.14561e-31 -0.00131137)
(0.262467 5.02159e-29 -0.00131406)
(0.262483 7.43796e-29 -0.00131031)
(0.262466 0 -0.00131457)
(0.262487 0 -0.00130965)
(0.262463 0 -0.00131549)
(0.26249 0 -0.00130884)
(0.262456 -1.20814e-28 -0.00131653)
(0.262495 1.57421e-28 -0.00130716)
(0.262454 -1.6081e-28 -0.00131774)
(0.262502 -3.64362e-28 -0.00130582)
(0.262449 2.07851e-28 -0.00131941)
(0.262508 0 -0.00130429)
(0.26244 2.39738e-28 -0.00132125)
(0.262517 1.13232e-30 -0.00130174)
(0.262435 0 -0.00132333)
(0.262527 0 -0.00129947)
(0.262427 7.18801e-28 -0.00132592)
(0.262537 3.93304e-28 -0.00129699)
(0.262415 -1.82637e-30 -0.00132872)
(0.262549 4.65146e-28 -0.00129347)
(0.262407 0 -0.00133174)
(0.262562 -2.39726e-30 -0.00129025)
(0.262397 0 -0.00133525)
(0.262576 0 -0.00128684)
(0.262384 0 -0.00133892)
(0.26259 0 -0.0012825)
(0.262374 -6.69944e-28 -0.00134271)
(0.262606 0 -0.00127857)
(0.262363 0 -0.00134689)
(0.26262 0 -0.00127447)
(0.262352 0 -0.00135065)
(0.262638 8.50703e-28 -0.00127014)
(0.262342 0 -0.00135498)
(0.262654 9.08133e-28 -0.00126605)
(0.26233 0 -0.00135923)
(0.262669 0 -0.00126155)
(0.262323 -9.40136e-28 -0.00136313)
(0.262683 9.67564e-28 -0.00125784)
(0.262315 0 -0.00136699)
(0.262694 0 -0.00125449)
(0.262308 -9.86593e-28 -0.00137)
(0.262707 0 -0.00125132)
(0.262305 0 -0.00137307)
(0.262715 1.02246e-27 -0.00124889)
(0.262302 0 -0.00137563)
(0.262718 0 -0.0012465)
(0.262306 0 -0.00137748)
(0.262721 0 -0.00124508)
(0.262309 0 -0.00137915)
(0.262719 0 -0.00124414)
(0.262312 -7.65861e-30 -0.00137989)
(0.262721 0 -0.00124342)
(0.262318 0 -0.00138062)
(0.262717 -1.11103e-27 -0.00124348)
(0.262322 0 -0.00138082)
(0.262711 0 -0.00124352)
(0.262333 1.09412e-27 -0.00138028)
(0.262704 -2.15641e-27 -0.0012446)
(0.262342 0 -0.00137953)
(0.262694 0 -0.00124617)
(0.262351 -1.03971e-27 -0.0013778)
(0.262686 1.02315e-27 -0.00124793)
(0.262362 0 -0.001376)
(0.262674 0 -0.00125033)
(0.262372 0 -0.00137342)
(0.262666 -9.26884e-28 -0.00125285)
(0.262385 9.22335e-28 -0.00137095)
(0.262653 8.83221e-28 -0.00125593)
(0.262396 -8.57332e-28 -0.00136778)
(0.262645 8.23486e-28 -0.00125897)
(0.262408 0 -0.00136494)
(0.262633 -7.73814e-28 -0.00126249)
(0.262417 0 -0.00136184)
(0.26262 -1.45317e-27 -0.00126558)
(0.26243 0 -0.0013584)
(0.26261 -6.61887e-28 -0.00126934)
(0.262438 -1.31365e-27 -0.00135505)
(0.262598 0 -0.00127257)
(0.26245 6.01358e-28 -0.0013515)
(0.262588 0 -0.0012764)
(0.262458 0 -0.00134821)
(0.262577 -5.14079e-28 -0.00127955)
(0.262468 -3.67948e-30 -0.00134484)
(0.262568 0 -0.00128316)
(0.262474 0 -0.00134179)
(0.262557 0 -0.00128594)
(0.262484 4.33016e-28 -0.00133868)
(0.26255 0 -0.00128922)
(0.262488 0 -0.00133608)
(0.262541 4.05808e-28 -0.00129153)
(0.262494 2.28911e-30 -0.00133344)
(0.262534 -3.51879e-28 -0.00129449)
(0.262496 4.03072e-28 -0.00133106)
(0.262527 0 -0.00129628)
(0.2625 3.64802e-28 -0.00132861)
(0.262523 0 -0.00129907)
(0.2625 0 -0.00132656)
(0.262517 0 -0.00130009)
(0.262505 6.96414e-28 -0.00132453)
(0.262509 -8.02378e-28 -0.0013037)
(0.262506 -1.50866e-27 -0.00132173)
(0.262508 0 -0.00130498)
(0.262506 1.20627e-27 -0.00132042)
(0.262505 6.21127e-31 -0.00130668)
(0.262505 0 -0.00131877)
(0.262504 0 -0.0013079)
(0.262503 0 -0.00131794)
(0.2625 -3.31607e-28 -0.00130906)
(0.2625 0 -0.00131651)
(0.262501 -4.83619e-28 -0.00130948)
(0.262498 0 -0.00131604)
(0.262499 -2.49818e-31 -0.00131012)
(0.2625 0 -0.00131519)
(0.262498 -1.14066e-31 -0.00131088)
(0.262496 0 -0.00131503)
(0.262495 0 -0.00131103)
(0.262496 1.62655e-28 -0.00131424)
(0.262494 0 -0.00131157)
(0.262494 0 -0.00131346)
(0.262497 -3.93001e-29 -0.00131178)
(0.262493 -2.05908e-29 -0.0013136)
(0.262495 8.28439e-30 -0.00131177)
(0.262494 0 -0.00131343)
(0.262494 8.15357e-30 -0.00131202)
(0.26249 -6.28185e-29 -0.00131347)
(0.262492 0 -0.00131169)
(0.262492 0 -0.0013131)
(0.262492 5.24479e-29 -0.00131224)
(0.262492 -6.95643e-29 -0.00131282)
(0.262494 -4.51752e-29 -0.00131225)
(0.26249 0 -0.00131306)
(0.262493 0 -0.00131189)
(0.26249 0 -0.00131296)
(0.262492 0 -0.00131203)
(0.262489 -2.81512e-29 -0.00131292)
(0.262492 0 -0.00131196)
(0.262491 2.99508e-29 -0.00131308)
(0.262491 2.17075e-29 -0.00131206)
(0.26249 -6.28282e-29 -0.00131303)
(0.262493 0 -0.00131191)
(0.262489 0 -0.00131294)
(0.262492 0 -0.00131168)
(0.262491 0 -0.00131267)
(0.262493 0 -0.00131198)
(0.26249 1.28824e-28 -0.00131325)
(0.262492 0 -0.00131097)
(0.262502 0 -0.00131346)
(0.262482 0 -0.00131327)
(0.262513 2.26149e-28 -0.00130907)
(0.262448 9.90142e-29 -0.001317)
(0.26254 0 -0.00129647)
(0.262547 -1.19852e-27 -0.00132648)
(0.262435 0 -0.00131602)
(0.262509 -2.15321e-28 -0.00131132)
(0.262399 0 -0.00131396)
(0.262612 1.28513e-27 -0.00128743)
(0.262183 1.24672e-28 -0.00133587)
(0.263246 -4.25628e-27 -0.00116532)
(0.262634 0 -0.00171507)
(0.260485 0 -0.00117408)
(0.271825 0 -0.00168099)
(0.238963 2.37592e-27 -0.0060764)
(0.228867 1.16709e-25 -0.00220096)
(0.238415 0 -0.00168943)
(0.237885 -4.04112e-27 -0.00137014)
(0.299181 0 0.00422658)
(0.311739 0 0.00260579)
(0.309826 5.64278e-26 0.00175888)
(0.306078 0 0.000669171)
(0.298295 4.19217e-26 -0.000259141)
(0.291888 5.55526e-26 -0.000739912)
(0.286264 4.14536e-26 -0.00101259)
(0.282388 0 -0.00115294)
(0.279113 1.23231e-26 -0.00122798)
(0.276766 1.08065e-26 -0.00129789)
(0.275178 0 -0.00134588)
(0.274049 -1.56278e-26 -0.00137376)
(0.273347 6.65192e-27 -0.00140195)
(0.272956 -1.01805e-26 -0.00142006)
(0.272925 0 -0.00143678)
(0.273044 3.0242e-27 -0.00145409)
(0.273378 -5.32958e-27 -0.00147043)
(0.273867 0 -0.00148566)
(0.274497 -2.88506e-27 -0.00149715)
(0.275208 9.71525e-28 -0.00150706)
(0.276004 0 -0.00151532)
(0.276824 0 -0.00152473)
(0.277653 -2.44492e-28 -0.00153526)
(0.278485 -1.5622e-28 -0.00153933)
(0.279277 0 -0.00153378)
(0.280002 0 -0.00152566)
(0.280664 7.14119e-28 -0.00151604)
(0.281256 -7.3737e-28 -0.00150601)
(0.28178 7.13551e-28 -0.00149606)
(0.28224 1.31041e-27 -0.00148714)
(0.282645 -6.15175e-28 -0.00147956)
(0.283002 5.92849e-28 -0.00147192)
(0.283306 0 -0.00146426)
(0.283563 0 -0.00145703)
(0.283773 0 -0.00145136)
(0.283954 0 -0.00144733)
(0.284106 0 -0.00144399)
(0.28424 4.46038e-28 -0.00144123)
(0.284351 0 -0.00143887)
(0.284451 0 -0.00143689)
(0.28453 1.4002e-28 -0.00143518)
(0.284605 -1.0122e-42 -0.00143371)
(0.284662 0 -0.00143247)
(0.284719 -1.0139e-42 -0.00143137)
(0.284757 0 -0.00143047)
(0.284802 0 -0.00142971)
(0.284827 -1.07126e-28 -0.00142898)
(0.284863 -4.47235e-29 -0.00142858)
(0.284877 -6.95908e-29 -0.00142805)
(0.284912 0 -0.00142784)
(0.284913 2.91582e-29 -0.00142717)
(0.284956 3.34645e-36 -0.0014268)
(0.28491 0 -0.00142626)
(0.285039 4.39031e-34 -0.00142668)
(0.284796 0 -0.00142483)
(0.28533 9.40378e-29 -0.00142404)
(0.284196 -1.30079e-27 -0.00139296)
(0.2864 1.27381e-26 -0.00110813)
(0.2797 6.54719e-26 -0.00176042)
(0.292448 6.67164e-27 0.00351928)
(0.326036 0 0.00305675)
(0.322691 0 -0.00278619)
(0.313231 0 -0.00132377)
(0.31501 1.38915e-26 -0.00162097)
(0.313169 0 -0.00153625)
(0.312663 0 -0.00162953)
(0.311611 -2.12544e-27 -0.00162633)
(0.311027 -1.85564e-27 -0.0016408)
(0.310469 -1.31823e-27 -0.00163604)
(0.310092 0 -0.00163647)
(0.30975 7.69203e-28 -0.00163332)
(0.309494 -9.42424e-28 -0.00162616)
(0.309294 0 -0.00161734)
(0.309145 -2.78992e-30 -0.00160951)
(0.309025 0 -0.0016017)
(0.308931 6.40821e-29 -0.00159457)
(0.308859 0 -0.00158701)
(0.308804 0 -0.0015811)
(0.308758 0 -0.00157531)
(0.308727 8.92192e-29 -0.00156959)
(0.308704 0 -0.00156503)
(0.308688 6.70997e-31 -0.00156086)
(0.308676 0 -0.0015575)
(0.30867 8.10114e-29 -0.00155459)
(0.308665 -7.41737e-29 -0.00155219)
(0.308664 4.41274e-29 -0.00155009)
(0.308663 -1.57588e-28 -0.00154869)
(0.308665 6.09329e-29 -0.00154667)
(0.30867 0 -0.00154597)
(0.308672 0 -0.00154502)
(0.308677 0 -0.00154468)
(0.308678 -2.24673e-29 -0.00154414)
(0.308682 0 -0.00154393)
(0.308683 0 -0.00154377)
(0.308686 0 -0.00154304)
(0.308691 -5.17443e-30 -0.00154313)
(0.308693 0 -0.00154314)
(0.308696 2.82441e-30 -0.00154313)
(0.308696 -7.82622e-32 -0.00154332)
(0.308698 0 -0.00154321)
(0.308697 1.64295e-30 -0.00154351)
(0.308699 0 -0.00154286)
(0.308701 0 -0.00154329)
(0.308702 6.50642e-30 -0.00154309)
(0.308703 0 -0.00154346)
(0.308703 3.10742e-30 -0.00154338)
(0.308703 8.61474e-30 -0.00154361)
(0.308702 9.1466e-31 -0.00154359)
(0.308702 -1.35146e-29 -0.00154323)
(0.308704 0 -0.00154332)
(0.308704 -5.62634e-30 -0.00154346)
(0.308704 -1.568e-30 -0.00154349)
(0.308704 0 -0.0015436)
(0.308703 0 -0.00154364)
(0.308702 0 -0.00154373)
(0.308703 1.78774e-29 -0.00154324)
(0.308704 8.23088e-30 -0.0015435)
(0.308704 0 -0.00154343)
(0.308704 8.83387e-30 -0.00154362)
(0.308704 3.78141e-30 -0.00154355)
(0.308703 -4.5928e-30 -0.00154378)
(0.308702 -5.71741e-30 -0.00154365)
(0.308701 5.39076e-30 -0.00154344)
(0.308704 0 -0.00154323)
(0.308703 1.90443e-29 -0.00154374)
(0.308704 0 -0.00154332)
(0.308702 1.87823e-29 -0.00154393)
(0.308703 1.15308e-29 -0.00154334)
(0.3087 0 -0.00154407)
(0.3087 0 -0.00154284)
(0.308704 3.12935e-29 -0.00154369)
(0.3087 7.15022e-30 -0.00154379)
(0.308704 3.78452e-29 -0.00154288)
(0.308699 0 -0.00154449)
(0.308704 6.60965e-29 -0.00154255)
(0.308696 0 -0.00154505)
(0.308705 2.23692e-28 -0.00154164)
(0.308696 -1.12157e-28 -0.0015455)
(0.308707 0 -0.00154106)
(0.308694 0 -0.0015463)
(0.308709 1.78574e-28 -0.00154027)
(0.308691 0 -0.00154724)
(0.308712 2.47335e-28 -0.00153884)
(0.30869 7.14816e-31 -0.00154829)
(0.308717 -2.90565e-28 -0.00153766)
(0.308688 0 -0.00154976)
(0.308721 0 -0.00153623)
(0.308684 -4.02763e-28 -0.00155139)
(0.308725 4.71346e-28 -0.00153406)
(0.308682 4.92229e-28 -0.00155317)
(0.308733 -5.46449e-28 -0.0015321)
(0.308679 6.00148e-28 -0.00155543)
(0.308739 6.57101e-28 -0.00152985)
(0.308674 -6.98683e-28 -0.00155786)
(0.308746 7.88193e-28 -0.00152688)
(0.308672 0 -0.00156043)
(0.308755 -8.88996e-28 -0.00152411)
(0.308669 0 -0.00156346)
(0.308764 1.02777e-27 -0.00152111)
(0.308663 -1.07583e-27 -0.0015666)
(0.308773 1.18038e-27 -0.00151746)
(0.308661 1.21013e-27 -0.0015698)
(0.308784 -1.29059e-27 -0.00151414)
(0.308657 -1.34853e-27 -0.00157331)
(0.308793 0 -0.00151067)
(0.308654 0 -0.00157649)
(0.308805 1.56691e-27 -0.00150701)
(0.308652 0 -0.00158018)
(0.308816 1.6797e-27 -0.00150358)
(0.308649 0 -0.00158369)
(0.308826 0 -0.00149986)
(0.308649 0 -0.0015869)
(0.308838 0 -0.00149688)
(0.308649 1.92957e-27 -0.00159006)
(0.308845 -1.97674e-27 -0.00149414)
(0.308648 0 -0.0015925)
(0.308855 2.0428e-27 -0.00149162)
(0.30865 0 -0.00159507)
(0.308862 0 -0.00148964)
(0.30865 0 -0.00159723)
(0.308867 0 -0.00148741)
(0.308654 0 -0.00159909)
(0.308873 0 -0.00148602)
(0.308657 -2.14917e-27 -0.00160076)
(0.308875 0 -0.00148499)
(0.308659 -2.11588e-27 -0.00160158)
(0.308878 0 -0.00148426)
(0.308663 0 -0.00160244)
(0.308879 -2.08948e-27 -0.0014841)
(0.308665 0 -0.00160284)
(0.308877 2.08659e-27 -0.00148387)
(0.308671 0 -0.00160274)
(0.308876 -1.98608e-27 -0.00148454)
(0.308676 0 -0.00160238)
(0.308871 0 -0.0014856)
(0.308679 0 -0.00160114)
(0.308867 1.85291e-27 -0.00148694)
(0.308685 0 -0.00159989)
(0.308861 1.77809e-27 -0.00148871)
(0.30869 0 -0.00159786)
(0.308857 0 -0.00149076)
(0.308697 3.31659e-27 -0.00159597)
(0.30885 1.57967e-27 -0.00149314)
(0.308702 1.53258e-27 -0.00159339)
(0.308845 0 -0.00149578)
(0.308708 0 -0.00159092)
(0.308839 -2.69625e-27 -0.00149872)
(0.308712 0 -0.00158827)
(0.30883 -2.50503e-27 -0.00150147)
(0.308718 0 -0.00158541)
(0.308824 -1.10904e-27 -0.00150462)
(0.308721 -2.17497e-27 -0.00158242)
(0.308815 0 -0.00150756)
(0.308727 0 -0.00157936)
(0.308809 0 -0.00151081)
(0.30873 0 -0.00157634)
(0.3088 4.75784e-30 -0.00151383)
(0.308735 -1.61481e-27 -0.00157334)
(0.308794 0 -0.00151695)
(0.308737 -7.44177e-28 -0.00157034)
(0.308784 0 -0.00151991)
(0.308742 1.42772e-27 -0.00156727)
(0.308778 -6.66049e-28 -0.00152297)
(0.308744 0 -0.00156426)
(0.308769 -7.82406e-28 -0.00152624)
(0.308747 8.01966e-28 -0.00156127)
(0.308764 -6.92634e-28 -0.00152869)
(0.308746 7.73224e-28 -0.00155873)
(0.308757 -8.43701e-28 -0.00153161)
(0.308747 0 -0.00155628)
(0.308754 -6.44921e-28 -0.0015332)
(0.308744 5.67315e-28 -0.00155489)
(0.308749 0 -0.00153523)
(0.308744 6.86553e-28 -0.00155361)
(0.308744 0 -0.00153538)
(0.308742 -6.85483e-28 -0.00155231)
(0.308742 0 -0.00153672)
(0.308741 5.46123e-28 -0.00155109)
(0.308738 1.02447e-27 -0.00153831)
(0.308739 0 -0.00154956)
(0.308737 0 -0.00153944)
(0.308736 3.91404e-28 -0.00154879)
(0.308733 5.10982e-31 -0.00154052)
(0.308733 3.03734e-28 -0.00154745)
(0.308732 -2.39195e-28 -0.0015412)
(0.30873 0 -0.0015467)
(0.30873 -4.58451e-28 -0.00154144)
(0.30873 0 -0.00154619)
(0.308728 -1.91427e-28 -0.00154239)
(0.308727 1.49323e-28 -0.00154588)
(0.308725 1.14324e-28 -0.0015423)
(0.308726 1.50247e-28 -0.00154529)
(0.308723 -1.25523e-28 -0.00154281)
(0.308724 2.53742e-29 -0.00154448)
(0.308725 0 -0.00154307)
(0.308723 1.08596e-29 -0.0015446)
(0.308724 1.732e-29 -0.00154307)
(0.308723 -8.07956e-29 -0.00154453)
(0.308724 1.17283e-29 -0.00154325)
(0.30872 -6.06442e-29 -0.00154447)
(0.308721 0 -0.00154298)
(0.308721 0 -0.00154417)
(0.30872 -4.84746e-29 -0.00154341)
(0.30872 -3.38288e-29 -0.00154394)
(0.308722 -3.02476e-29 -0.00154346)
(0.30872 0 -0.00154418)
(0.308722 5.18721e-30 -0.00154314)
(0.30872 0 -0.00154402)
(0.308721 0 -0.00154318)
(0.308717 0 -0.00154397)
(0.308719 0 -0.00154316)
(0.308719 5.12132e-31 -0.00154416)
(0.30872 2.27591e-29 -0.00154326)
(0.30872 6.46299e-31 -0.00154419)
(0.308722 0 -0.00154314)
(0.308719 0 -0.00154401)
(0.30872 0 -0.00154286)
(0.308718 -2.97389e-29 -0.00154371)
(0.30872 0 -0.00154318)
(0.308718 5.9031e-29 -0.00154428)
(0.308721 0 -0.00154229)
(0.308732 1.38452e-28 -0.00154463)
(0.308713 0 -0.00154426)
(0.308738 2.98728e-28 -0.00153988)
(0.308696 0 -0.00154802)
(0.308756 0 -0.00152934)
(0.308774 -1.03668e-27 -0.00155625)
(0.308674 0 -0.00154688)
(0.308737 -1.51155e-28 -0.00154285)
(0.308638 0 -0.00154468)
(0.308834 0 -0.00151908)
(0.308545 1.47267e-27 -0.00156999)
(0.309229 0 -0.00141082)
(0.309001 0 -0.00192915)
(0.306707 0 -0.00148977)
(0.314137 0 -0.00171434)
(0.29206 -1.30062e-24 -0.00622584)
(0.277275 0 -0.00254996)
(0.28346 1.64113e-26 -0.00198346)
(0.282128 -1.48587e-26 -0.00156614)
(0.301225 0 0.002937)
(0.31598 3.76242e-26 0.00195469)
(0.322117 3.45271e-26 0.00140164)
(0.327485 0 0.000543028)
(0.327021 5.62701e-26 7.32437e-06)
(0.325233 4.15116e-26 -0.000437078)
(0.321433 3.01831e-26 -0.000765089)
(0.317576 0 -0.00100822)
(0.313995 2.37638e-26 -0.00116389)
(0.311125 0 -0.00129177)
(0.308786 0 -0.00138362)
(0.306891 -1.7704e-26 -0.0014386)
(0.30548 0 -0.00149551)
(0.304512 -1.53881e-26 -0.00154194)
(0.30396 0 -0.00157681)
(0.303682 5.3903e-27 -0.00161699)
(0.303723 -9.70689e-27 -0.00164334)
(0.30391 -4.3216e-27 -0.00166747)
(0.304326 -8.043e-27 -0.00169133)
(0.304854 3.37101e-27 -0.00170826)
(0.305494 0 -0.00172149)
(0.306172 0 -0.00173181)
(0.306824 0 -0.00173943)
(0.307449 1.18452e-27 -0.00173965)
(0.308036 0 -0.00172895)
(0.308566 0 -0.00171539)
(0.309044 0 -0.00170017)
(0.309468 1.22379e-28 -0.00168467)
(0.30984 0 -0.00166945)
(0.310164 0 -0.00165581)
(0.310447 -6.05235e-30 -0.00164417)
(0.310697 0 -0.00163258)
(0.310907 0 -0.00162106)
(0.311083 0 -0.00161022)
(0.311225 -5.33709e-29 -0.00160168)
(0.311349 0 -0.00159547)
(0.311453 0 -0.00159031)
(0.311546 1.28334e-29 -0.00158598)
(0.311621 -1.04794e-29 -0.00158228)
(0.31169 0 -0.00157912)
(0.311744 7.70676e-30 -0.00157641)
(0.311796 -9.42917e-43 -0.00157407)
(0.311833 -4.74448e-30 -0.00157211)
(0.311873 -9.44211e-43 -0.00157035)
(0.311898 0 -0.00156896)
(0.31193 0 -0.00156766)
(0.311945 1.32358e-41 -0.0015666)