/*--------------------------------*- C++ -*----------------------------------*\
| =========                 |                                                 |
| \\      /  F ield         | foam-extend: Open Source CFD                    |
|  \\    /   O peration     | Version:     3.2                                |
|   \\  /    A nd           | Web:         http://www.foam-extend.org         |
|    \\/     M anipulation  | For copyright notice see file Copyright         |
\*---------------------------------------------------------------------------*/
FoamFile
{
    version     2.0;
    format      ascii;
    class       areaVectorField;
    location    "2000";
    object      Ub2;
}
// * * * * * * * * * * * * * * * * * * * * * * * * * * * * * * * * * * * * * //

dimensions      [0 1 -1 0 0 0 0];

internalField   nonuniform List<vector> 
300
(
(0.223127 0 -0.00111563)
(0.258481 0 -0.0012924)
(0.229006 0 -0.00114503)
(0.201636 0 -0.00100818)
(0.184791 2.94606e-23 -0.000923957)
(0.17755 -1.11819e-23 -0.000887748)
(0.174691 -2.42542e-23 -0.000873457)
(0.174337 -2.40152e-23 -0.000871684)
(0.174814 7.14593e-27 -0.000874071)
(0.175791 -2.16701e-23 -0.000878953)
(0.176961 3.46643e-27 -0.000884805)
(0.178148 1.60662e-23 -0.000890739)
(0.179294 0 -0.000896468)
(0.180497 1.45803e-23 -0.000902487)
(0.181647 1.33714e-27 -0.000908236)
(0.182809 -8.22354e-29 -0.000914045)
(0.184034 1.36939e-23 -0.000920171)
(0.185252 -1.32897e-23 -0.00092626)
(0.186493 1.30823e-23 -0.000932466)
(0.187738 0 -0.00093869)
(0.18898 0 -0.000944901)
(0.19022 -1.33442e-23 -0.0009511)
(0.19149 1.64116e-27 -0.000957451)
(0.19279 0 -0.00096395)
(0.194043 0 -0.000970213)
(0.195191 -1.2225e-23 -0.000975955)
(0.196224 0 -0.000981121)
(0.19713 0 -0.00098565)
(0.197915 0 -0.000989574)
(0.198585 -6.77515e-24 -0.000992925)
(0.199158 0 -0.00099579)
(0.199647 0 -0.000998235)
(0.200054 -8.15814e-28 -0.00100027)
(0.200388 0 -0.00100194)
(0.200655 0 -0.00100327)
(0.200875 0 -0.00100438)
(0.201058 -4.37116e-28 -0.00100529)
(0.201212 0 -0.00100606)
(0.201341 0 -0.0010067)
(0.201452 0 -0.00100726)
(0.201544 -2.42009e-28 -0.00100772)
(0.201625 -7.42461e-25 -0.00100813)
(0.201691 0 -0.00100846)
(0.201752 -5.3764e-25 -0.00100876)
(0.201798 -1.3088e-28 -0.00100899)
(0.201843 0 -0.00100922)
(0.201875 -3.20226e-25 -0.00100937)
(0.20191 0 -0.00100955)
(0.201931 -2.35785e-25 -0.00100966)
(0.201963 0 -0.00100981)
(0.201965 0 -0.00100982)
(0.202017 -1.66662e-25 -0.00101008)
(0.201957 0 -0.00100978)
(0.202121 -2.61197e-25 -0.00101061)
(0.201807 0 -0.00100904)
(0.202492 0 -0.00101246)
(0.20103 4.41594e-24 -0.00100515)
(0.203801 3.15196e-28 -0.00101901)
(0.193598 0 -0.00096799)
(0.209836 -1.0037e-24 0.00640023)
(0.255529 0 0.00398703)
(0.249387 -2.51119e-21 -0.0045983)
(0.230183 0 -0.00106133)
(0.230582 0 -0.00134057)
(0.228747 0 -0.00117506)
(0.228863 -1.44828e-24 -0.00128023)
(0.228586 0 -0.00125195)
(0.228607 2.44138e-27 -0.00125003)
(0.228618 0 -0.00123473)
(0.228708 0 -0.00123062)
(0.228728 -1.8874e-24 -0.00122465)
(0.228758 1.98402e-24 -0.00121447)
(0.228797 1.93204e-24 -0.00120431)
(0.228842 3.01968e-28 -0.00119696)
(0.228879 -1.33009e-24 -0.00119015)
(0.228909 1.11711e-24 -0.00118414)
(0.228935 9.91372e-25 -0.00117779)
(0.228957 -3.3445e-29 -0.00117346)
(0.228968 -6.78481e-25 -0.00116867)
(0.228981 0 -0.00116399)
(0.228991 7.17351e-29 -0.0011607)
(0.228998 2.70877e-25 -0.00115762)
(0.229003 0 -0.00115509)
(0.229006 0 -0.00115288)
(0.229008 6.39413e-29 -0.00115111)
(0.22901 0 -0.00114966)
(0.229008 5.85504e-29 -0.00114851)
(0.229011 0 -0.00114665)
(0.229014 0 -0.00114655)
(0.229014 -3.72201e-26 -0.00114578)
(0.229015 0 -0.00114576)
(0.229013 -2.64736e-29 -0.0011453)
(0.229013 2.45775e-26 -0.00114529)
(0.229011 0 -0.00114515)
(0.229012 0 -0.00114423)
(0.229014 -1.15399e-26 -0.00114457)
(0.229014 0 -0.00114468)
(0.229016 -6.8742e-30 -0.00114471)
(0.229014 -1.59458e-30 -0.00114495)
(0.229015 0 -0.00114486)
(0.229011 0 -0.00114512)
(0.229014 0 -0.00114415)
(0.229015 0 -0.00114492)
(0.229017 0 -0.00114463)
(0.229017 0 -0.00114516)
(0.229016 6.06992e-27 -0.00114495)
(0.229015 0 -0.00114532)
(0.229013 4.32006e-27 -0.00114515)
(0.229014 0 -0.00114459)
(0.229017 0 -0.00114488)
(0.229017 -1.06344e-26 -0.00114506)
(0.229017 9.80516e-27 -0.00114509)
(0.229016 0 -0.00114524)
(0.229015 2.04558e-26 -0.00114528)
(0.229013 -4.5766e-30 -0.00114533)
(0.229014 -7.65194e-26 -0.00114455)
(0.229017 -8.0889e-30 -0.00114508)
(0.229017 -2.91843e-31 -0.001145)
(0.229017 4.36384e-30 -0.00114525)
(0.229016 0 -0.00114515)
(0.229013 6.61413e-30 -0.00114544)
(0.229014 -3.35489e-30 -0.00114518)
(0.229011 -5.16625e-26 -0.00114484)
(0.229018 -8.00101e-27 -0.00114473)
(0.229015 0 -0.00114541)
(0.229017 3.9178e-26 -0.00114478)
(0.229013 0 -0.00114575)
(0.229015 4.84551e-26 -0.00114477)
(0.229012 0 -0.00114595)
(0.22901 2.69775e-29 -0.00114391)
(0.229018 0 -0.0011454)
(0.229005 0 -0.00114524)
(0.229022 0 -0.00114443)
(0.229006 2.54582e-29 -0.00114638)
(0.229019 0 -0.00114378)
(0.228998 0 -0.00114728)
(0.229023 3.00834e-25 -0.00114221)
(0.228998 -4.12351e-29 -0.00114798)
(0.229029 0 -0.0011415)
(0.228993 4.17163e-25 -0.00114924)
(0.229033 -4.5907e-25 -0.00114037)
(0.228985 6.41711e-29 -0.00115069)
(0.229036 -8.63569e-29 -0.00113802)
(0.228982 0 -0.00115236)
(0.229043 0 -0.00113635)
(0.228975 0 -0.00115463)
(0.229049 1.33516e-28 -0.00113421)
(0.228964 1.36966e-28 -0.00115717)
(0.229054 -1.57813e-24 -0.00113068)
(0.228959 0 -0.00116002)
(0.229064 0 -0.00112776)
(0.228949 0 -0.00116356)
(0.229071 2.30544e-24 -0.00112431)
(0.228936 2.44376e-28 -0.0011674)
(0.229077 0 -0.00111946)
(0.228929 -3.14134e-24 -0.00117154)
(0.229088 -3.39035e-24 -0.00111523)
(0.228918 3.72595e-24 -0.00117634)
(0.229095 0 -0.00111052)
(0.228904 0 -0.00118136)
(0.229102 0 -0.00110454)
(0.228898 -4.36737e-28 -0.00118657)
(0.229111 0 -0.00109934)
(0.228887 0 -0.00119226)
(0.229116 0 -0.00109374)
(0.228877 0 -0.00119728)
(0.229126 0 -0.00108786)
(0.22887 0 -0.00120333)
(0.229132 7.58678e-24 -0.0010823)
(0.228862 0 -0.00120905)
(0.229134 0 -0.0010761)
(0.22886 6.772e-28 -0.00121435)
(0.229138 0 -0.00107122)
(0.228857 -9.49677e-24 -0.00121953)
(0.229138 0 -0.00106663)
(0.228853 0 -0.00122344)
(0.229142 0 -0.00106235)
(0.228854 0 -0.00122775)
(0.22914 1.08204e-23 -0.00105894)
(0.228854 1.1078e-23 -0.0012313)
(0.229136 0 -0.00105531)
(0.228861 0 -0.00123402)
(0.229134 0 -0.00105327)
(0.228865 9.20497e-28 -0.00123641)
(0.229128 1.17168e-23 -0.00105172)
(0.228869 1.1771e-23 -0.0012374)
(0.229126 0 -0.00105058)
(0.228877 9.74982e-28 -0.00123864)
(0.229119 1.18818e-23 -0.00105039)
(0.228882 0 -0.00123904)
(0.229111 0 -0.00105006)
(0.228895 1.18652e-23 -0.00123853)
(0.229104 1.01083e-27 -0.0010514)
(0.228904 -1.17089e-23 -0.00123761)
(0.229093 -1.15295e-23 -0.00105325)
(0.228912 0 -0.00123524)
(0.229088 -1.12308e-23 -0.0010555)
(0.228925 0 -0.00123303)
(0.229079 0 -0.00105858)
(0.228934 0 -0.00122946)
(0.229055 0 -0.00106185)
(0.228933 1.0195e-23 -0.00122623)
(0.229031 -9.4233e-28 -0.0010658)
(0.228929 0 -0.00122173)
(0.229065 0 -0.00107013)
(0.22897 -8.89589e-28 -0.00121805)
(0.22906 -8.56117e-28 -0.00107487)
(0.228978 -8.46315e-28 -0.00121379)
(0.228939 -8.14892e-28 -0.00107848)
(0.228878 0 -0.00120846)
(0.2289 -7.70726e-28 -0.00108352)
(0.228848 7.48667e-28 -0.00120358)
(0.229046 7.20936e-28 -0.00108868)
(0.229009 6.69806e-24 -0.0011995)
(0.229045 0 -0.00109406)
(0.229015 0 -0.00119491)
(0.228752 0 -0.00109701)
(0.228721 5.9868e-28 -0.00118857)
(0.228698 0 -0.00110181)
(0.228668 0 -0.00118382)
(0.229039 0 -0.00110759)
(0.229036 -4.61151e-28 -0.0011813)
(0.22904 0 -0.0011124)
(0.229038 3.9784e-24 -0.00117736)
(0.228509 -3.79132e-24 -0.00111344)
(0.228478 0 -0.0011704)
(0.228446 -3.28379e-24 -0.00111723)
(0.228413 0 -0.00116649)
(0.229038 0 -0.00112329)
(0.229048 0 -0.00116643)
(0.229038 0 -0.0011269)
(0.229047 -2.02241e-28 -0.00116374)
(0.228235 -2.61319e-24 -0.00112532)
(0.228189 -5.48366e-28 -0.00115635)
(0.22817 6.50593e-28 -0.00112787)
(0.228122 1.58533e-24 -0.00115296)
(0.22904 0 -0.00113443)
(0.229051 4.63656e-28 -0.00115611)
(0.229038 4.00176e-28 -0.00113684)
(0.229049 -3.95479e-28 -0.00115387)
(0.227962 0 -0.00113304)
(0.227888 0 -0.00114664)
(0.227896 0 -0.00113426)
(0.227823 2.06428e-28 -0.00114425)
(0.22904 0 -0.00114117)
(0.229043 -6.09568e-25 -0.00114983)
(0.229038 -4.51184e-25 -0.00114178)
(0.229043 5.22209e-25 -0.00114905)
(0.227702 3.82529e-25 -0.00113618)
(0.227603 0 -0.00114109)
(0.227643 -1.44131e-28 -0.00113585)
(0.227553 7.48233e-29 -0.00113988)
(0.229035 0 -0.00114393)
(0.229037 1.82203e-25 -0.00114652)
(0.229036 0 -0.00114443)
(0.229035 4.36314e-29 -0.00114684)
(0.227472 0 -0.00113619)
(0.227356 -6.15018e-29 -0.00113792)
(0.227426 -1.64761e-25 -0.00113636)
(0.227313 -4.70291e-26 -0.00113753)
(0.229033 0 -0.00114424)
(0.229034 0 -0.00114615)
(0.229031 -7.83431e-30 -0.00114501)
(0.229031 4.22723e-29 -0.00114581)
(0.227271 0 -0.00113599)
(0.227125 6.41195e-26 -0.00113626)
(0.227228 4.49488e-29 -0.0011351)
(0.227089 4.38456e-27 -0.00113585)
(0.229033 0 -0.00114473)
(0.229029 0 -0.00114599)
(0.22903 0 -0.0011446)
(0.22903 0 -0.00114633)
(0.227079 5.09483e-26 -0.00113473)
(0.226891 4.61692e-29 -0.00113494)
(0.227041 -1.63602e-25 -0.00113424)
(0.226847 2.66216e-27 -0.00113469)
(0.229031 0 -0.00114419)
(0.229031 -8.29142e-26 -0.00114568)
(0.229032 0 -0.00114486)
(0.229029 -2.6459e-25 -0.00114659)
(0.226888 2.21326e-25 -0.00113231)
(0.226646 0 -0.00113436)
(0.22682 -3.23447e-25 -0.00113408)
(0.22662 -3.39601e-26 -0.00112994)
(0.228979 0 -0.00115157)
(0.229055 2.9488e-24 -0.00112211)
(0.229113 -3.10131e-24 -0.00116671)
(0.226218 1.15323e-25 -0.00113555)
(0.226644 -3.07064e-25 -0.00113164)
(0.22586 -1.68409e-28 -0.00113204)
(0.227224 -1.508e-24 -0.00111796)
(0.226249 -4.29143e-24 -0.00114115)
(0.227235 -1.92826e-23 -0.000942072)
(0.229656 0 -0.00168959)
(0.225696 0 -0.000504659)
(0.241408 -1.60281e-25 -0.00240065)
(0.206502 0 -0.00802789)
(0.183478 9.77381e-26 -0.00091739)
(0.194662 1.20054e-26 -0.000973308)
(0.197201 0 -0.000986003)
)
;

boundaryField
{
    inlet
    {
        type            calculated;
        value           uniform (0 0 0);
    }
    outlet
    {
        type            calculated;
        value           uniform (0 0 0);
    }
    sideWall
    {
        type            empty;
    }
}


// ************************************************************************* //
