/*--------------------------------*- C++ -*----------------------------------*\
| =========                 |                                                 |
| \\      /  F ield         | foam-extend: Open Source CFD                    |
|  \\    /   O peration     | Version:     3.2                                |
|   \\  /    A nd           | Web:         http://www.foam-extend.org         |
|    \\/     M anipulation  | For copyright notice see file Copyright         |
\*---------------------------------------------------------------------------*/
FoamFile
{
    version     2.0;
    format      ascii;
    class       areaScalarField;
    location    "2000";
    object      Uf;
}
// * * * * * * * * * * * * * * * * * * * * * * * * * * * * * * * * * * * * * //

dimensions      [0 1 -1 0 0 0 0];

internalField   nonuniform List<scalar> 
300
(
0.0330864
0.0366197
0.0336706
0.0309332
0.0292487
0.0285245
0.0282387
0.0282032
0.028251
0.0283486
0.0284656
0.0285843
0.0286989
0.0288193
0.0289343
0.0290504
0.029173
0.0292947
0.0294189
0.0295433
0.0296676
0.0297915
0.0299186
0.0300485
0.0301738
0.0302887
0.030392
0.0304826
0.030561
0.0306281
0.0306854
0.0307343
0.030775
0.0308083
0.030835
0.0308571
0.0308753
0.0308908
0.0309036
0.0309148
0.030924
0.0309321
0.0309387
0.0309447
0.0309493
0.0309539
0.030957
0.0309606
0.0309627
0.0309658
0.030966
0.0309713
0.0309652
0.0309817
0.0309503
0.0310187
0.0308725
0.0311497
0.0301294
0.0320631
0.0365121
0.0356133
0.0337971
0.0338264
0.0336474
0.0336546
0.0336273
0.0336289
0.0336301
0.0336373
0.0336394
0.0336429
0.0336472
0.0336519
0.0336559
0.0336591
0.0336619
0.0336642
0.0336655
0.033667
0.0336681
0.0336689
0.0336695
0.0336699
0.0336701
0.0336704
0.0336703
0.0336706
0.0336709
0.0336709
0.033671
0.0336709
0.0336709
0.0336707
0.0336709
0.0336711
0.0336711
0.0336712
0.033671
0.0336711
0.0336708
0.033671
0.0336712
0.0336713
0.0336713
0.0336712
0.0336712
0.0336709
0.0336711
0.0336713
0.0336713
0.0336713
0.0336712
0.0336712
0.0336709
0.0336711
0.0336713
0.0336713
0.0336712
0.0336712
0.0336711
0.033671
0.0336709
0.0336714
0.033671
0.0336713
0.0336709
0.0336711
0.0336708
0.0336708
0.0336713
0.0336707
0.0336718
0.0336701
0.0336719
0.0336694
0.033672
0.0336693
0.0336726
0.0336687
0.033673
0.0336679
0.0336734
0.0336676
0.0336743
0.0336667
0.0336749
0.0336656
0.0336755
0.0336649
0.0336766
0.0336638
0.0336775
0.0336624
0.0336783
0.0336615
0.0336794
0.0336602
0.0336804
0.0336587
0.0336812
0.0336578
0.0336823
0.0336566
0.0336831
0.0336554
0.0336843
0.0336545
0.033685
0.0336534
0.0336855
0.0336531
0.0336861
0.0336525
0.0336862
0.0336521
0.0336868
0.033652
0.0336867
0.0336519
0.0336865
0.0336524
0.0336863
0.0336528
0.0336857
0.0336531
0.0336856
0.0336539
0.033685
0.0336544
0.0336841
0.0336557
0.0336834
0.0336566
0.0336822
0.0336576
0.0336816
0.0336589
0.0336806
0.03366
0.0336801
0.0336614
0.0336792
0.0336626
0.0336788
0.0336639
0.0336781
0.0336649
0.0336773
0.0336663
0.0336769
0.0336672
0.0336763
0.0336685
0.033676
0.0336693
0.0336755
0.0336704
0.0336753
0.033671
0.0336749
0.0336719
0.0336748
0.0336722
0.0336745
0.033673
0.0336744
0.0336731
0.0336742
0.0336737
0.0336741
0.0336736
0.0336738
0.033674
0.0336738
0.0336742
0.0336739
0.0336743
0.0336737
0.0336741
0.0336738
0.0336741
0.0336736
0.0336739
0.0336737
0.0336737
0.0336736
0.0336738
0.0336735
0.0336735
0.0336733
0.0336735
0.0336732
0.0336732
0.0336732
0.033673
0.0336731
0.0336732
0.0336731
0.0336729
0.0336729
0.0336729
0.0336727
0.0336727
0.0336729
0.0336725
0.0336729
0.0336727
0.0336729
0.0336725
0.0336726
0.0336726
0.0336725
0.0336724
0.0336728
0.0336725
0.0336727
0.0336727
0.0336728
0.0336725
0.0336723
0.0336737
0.0336712
0.0336769
0.0336673
0.0336759
0.0336801
0.0336661
0.0336734
0.0336583
0.0336869
0.0336166
0.0337592
0.0337158
0.0333621
0.0348698
0.0311455
0.0291175
0.0302358
0.0304896
)
;

boundaryField
{
    inlet
    {
        type            calculated;
        value           uniform 0;
    }
    outlet
    {
        type            calculated;
        value           uniform 0;
    }
    sideWall
    {
        type            empty;
    }
}


// ************************************************************************* //
