/*--------------------------------*- C++ -*----------------------------------*\
| =========                 |                                                 |
| \\      /  F ield         | foam-extend: Open Source CFD                    |
|  \\    /   O peration     | Version:     3.2                                |
|   \\  /    A nd           | Web:         http://www.foam-extend.org         |
|    \\/     M anipulation  | For copyright notice see file Copyright         |
\*---------------------------------------------------------------------------*/
FoamFile
{
    version     2.0;
    format      ascii;
    class       areaScalarField;
    location    "2000";
    object      Uf2;
}
// * * * * * * * * * * * * * * * * * * * * * * * * * * * * * * * * * * * * * //

dimensions      [0 1 -1 0 0 0 0];

internalField   nonuniform List<scalar> 
300
(
0.0246194
0.0203436
0.0166951
0.0151417
0.0143939
0.0141633
0.0140618
0.0140734
0.0141023
0.0141569
0.0142172
0.0142751
0.0143291
0.0143894
0.0144418
0.0144972
0.0145576
0.0146152
0.0146746
0.0147336
0.0147923
0.0148519
0.0149161
0.0149844
0.0150499
0.0151095
0.0151633
0.0152104
0.0152514
0.0152863
0.0153164
0.0153422
0.0153635
0.0153808
0.0153945
0.015406
0.0154156
0.0154238
0.0154306
0.0154365
0.0154414
0.0154458
0.0154492
0.0154525
0.0154548
0.0154574
0.0154589
0.015461
0.0154619
0.015464
0.0154633
0.0154678
0.015461
0.0154772
0.0154449
0.0155139
0.0153656
0.0156517
0.0146589
0.0167848
0.0199385
0.0178695
0.0164688
0.016944
0.0167628
0.0168051
0.0167744
0.0167796
0.0167791
0.0167845
0.0167846
0.0167877
0.0167915
0.0167956
0.016799
0.0168019
0.0168048
0.0168072
0.0168088
0.0168108
0.0168123
0.0168135
0.0168144
0.0168153
0.0168158
0.0168164
0.0168166
0.0168172
0.0168176
0.0168177
0.0168179
0.0168179
0.016818
0.0168179
0.0168182
0.0168183
0.0168183
0.0168184
0.0168182
0.0168183
0.016818
0.0168183
0.0168184
0.0168184
0.0168184
0.0168183
0.0168183
0.0168181
0.0168183
0.0168184
0.0168183
0.0168184
0.0168182
0.0168183
0.016818
0.0168183
0.0168184
0.0168184
0.0168183
0.0168183
0.0168181
0.0168181
0.0168181
0.0168185
0.0168181
0.0168185
0.016818
0.0168183
0.0168179
0.0168181
0.0168185
0.0168178
0.016819
0.0168171
0.0168193
0.0168165
0.0168196
0.0168164
0.0168202
0.0168157
0.0168208
0.0168148
0.0168214
0.0168144
0.0168223
0.0168134
0.0168231
0.0168122
0.0168241
0.0168115
0.0168253
0.0168102
0.0168264
0.0168087
0.0168276
0.0168077
0.016829
0.0168062
0.0168303
0.0168046
0.0168315
0.0168036
0.0168329
0.0168022
0.0168339
0.0168009
0.0168355
0.0167998
0.0168364
0.0167987
0.0168372
0.0167983
0.0168379
0.0167976
0.0168381
0.0167972
0.0168388
0.016797
0.0168388
0.0167968
0.0168386
0.0167975
0.0168383
0.0167978
0.0168376
0.0167982
0.0168374
0.0167989
0.0168366
0.0167996
0.0168356
0.0168009
0.0168345
0.016802
0.0168332
0.0168031
0.0168323
0.0168044
0.0168309
0.0168057
0.0168301
0.016807
0.0168288
0.0168083
0.0168281
0.0168096
0.016827
0.0168106
0.0168259
0.016812
0.016825
0.0168129
0.0168241
0.0168143
0.0168234
0.0168149
0.0168226
0.016816
0.0168221
0.0168166
0.0168216
0.0168175
0.0168212
0.0168177
0.0168207
0.0168184
0.0168204
0.0168186
0.0168202
0.0168193
0.0168199
0.0168191
0.0168196
0.0168195
0.0168194
0.0168198
0.0168196
0.0168199
0.0168194
0.0168197
0.0168193
0.0168196
0.0168192
0.0168197
0.0168195
0.0168196
0.0168194
0.0168195
0.0168191
0.0168192
0.0168191
0.0168195
0.0168193
0.0168195
0.0168194
0.016819
0.0168191
0.0168191
0.0168191
0.0168191
0.0168193
0.0168194
0.0168191
0.0168189
0.016819
0.0168186
0.0168191
0.0168191
0.0168194
0.016819
0.0168192
0.0168189
0.0168187
0.0168186
0.0168191
0.016819
0.0168194
0.0168193
0.0168193
0.0168187
0.0168185
0.0168198
0.0168173
0.0168234
0.0168132
0.0168237
0.0168248
0.0168113
0.0168214
0.0168059
0.0168355
0.0167634
0.0169137
0.0168385
0.0165503
0.0180208
0.0142389
0.0135102
0.0151095
0.0151235
)
;

boundaryField
{
    inlet
    {
        type            calculated;
        value           uniform 0;
    }
    outlet
    {
        type            calculated;
        value           uniform 0;
    }
    sideWall
    {
        type            empty;
    }
}


// ************************************************************************* //
