/*--------------------------------*- C++ -*----------------------------------*\
| =========                 |                                                 |
| \\      /  F ield         | foam-extend: Open Source CFD                    |
|  \\    /   O peration     | Version:     3.2                                |
|   \\  /    A nd           | Web:         http://www.foam-extend.org         |
|    \\/     M anipulation  | For copyright notice see file Copyright         |
\*---------------------------------------------------------------------------*/
FoamFile
{
    version     2.0;
    format      ascii;
    class       areaVectorField;
    location    "2000";
    object      uNormal;
}
// * * * * * * * * * * * * * * * * * * * * * * * * * * * * * * * * * * * * * //

dimensions      [0 0 0 0 0 0 0];

internalField   nonuniform List<vector> 
300
(
(0.00499994 -0 0.999988)
(0.00499994 -0 0.999988)
(0.00499994 -0 0.999988)
(0.00499994 -0 0.999988)
(0.00499994 -4.23511e-19 0.999988)
(0.00499994 -4.23511e-19 0.999988)
(0.00499994 -4.23511e-19 0.999988)
(0.00499994 -4.23511e-19 0.999988)
(0.00499994 -0 0.999988)
(0.00499994 -4.23511e-19 0.999988)
(0.00499994 -0 0.999988)
(0.00499994 4.23511e-19 0.999988)
(0.00499994 -0 0.999988)
(0.00499994 4.23511e-19 0.999988)
(0.00499994 -0 0.999988)
(0.00499994 -0 0.999988)
(0.00499994 4.23511e-19 0.999988)
(0.00499994 -4.23511e-19 0.999988)
(0.00499994 4.23511e-19 0.999988)
(0.00499994 -0 0.999988)
(0.00499994 -0 0.999988)
(0.00499994 -4.23511e-19 0.999988)
(0.00499994 -0 0.999988)
(0.00499994 -0 0.999988)
(0.00499994 -0 0.999988)
(0.00499994 -4.23511e-19 0.999988)
(0.00499994 -0 0.999988)
(0.00499994 -0 0.999988)
(0.00499994 -0 0.999988)
(0.00499994 -4.23511e-19 0.999988)
(0.00499994 -0 0.999988)
(0.00499994 -0 0.999988)
(0.00499994 -0 0.999988)
(0.00499994 -0 0.999988)
(0.00499994 -0 0.999988)
(0.00499994 -0 0.999988)
(0.00499994 -0 0.999988)
(0.00499994 -0 0.999988)
(0.00499994 -0 0.999988)
(0.00499994 -0 0.999988)
(0.00499994 -0 0.999988)
(0.00499994 -4.23511e-19 0.999988)
(0.00499994 -0 0.999988)
(0.00499994 -4.23511e-19 0.999988)
(0.00499994 -0 0.999988)
(0.00499994 -0 0.999988)
(0.00499994 -4.23511e-19 0.999988)
(0.00499994 -0 0.999988)
(0.00499994 -4.23511e-19 0.999988)
(0.00499994 -0 0.999988)
(0.00499994 -0 0.999988)
(0.00499994 -4.23511e-19 0.999988)
(0.00499994 -0 0.999988)
(0.00499994 -4.23511e-19 0.999988)
(0.00499994 -0 0.999988)
(0.00499994 -0 0.999988)
(0.00499994 -4.23511e-19 0.999988)
(0.00499994 -0 0.999988)
(0.00499994 -0 0.999988)
(-0.0304869 -0 0.999535)
(-0.0156012 -0 0.999878)
(0.0184353 1.69378e-18 0.99983)
(0.00461076 -0 0.999989)
(0.00581376 -0 0.999983)
(0.00513688 -0 0.999987)
(0.00559381 4.2351e-19 0.999984)
(0.00547686 -0 0.999985)
(0.00546796 -0 0.999985)
(0.00540075 -0 0.999985)
(0.00538068 -0 0.999986)
(0.0053541 -4.2351e-19 0.999986)
(0.00530889 4.23511e-19 0.999986)
(0.00526359 4.23511e-19 0.999986)
(0.00523044 -0 0.999986)
(0.00519982 -4.23511e-19 0.999986)
(0.00517291 4.23511e-19 0.999987)
(0.00514457 4.23511e-19 0.999987)
(0.0051252 -0 0.999987)
(0.00510402 -4.23511e-19 0.999987)
(0.00508328 -0 0.999987)
(0.0050687 -0 0.999987)
(0.0050551 4.23511e-19 0.999987)
(0.00504393 -0 0.999987)
(0.00503423 -0 0.999987)
(0.00502645 -0 0.999987)
(0.00502005 -0 0.999987)
(0.00501507 -0 0.999987)
(0.0050069 -0 0.999987)
(0.00500639 -0 0.999987)
(0.00500303 -4.23511e-19 0.999987)
(0.00500293 -0 0.999987)
(0.00500096 -0 0.999987)
(0.00500091 -4.23511e-19 0.999987)
(0.00500036 -0 0.999987)
(0.00499628 -0 0.999988)
(0.00499774 4.23511e-19 0.999988)
(0.00499821 -0 0.999988)
(0.00499831 -0 0.999988)
(0.0049994 -0 0.999988)
(0.00499897 -0 0.999988)
(0.00500023 -0 0.999987)
(0.00499592 -0 0.999988)
(0.00499927 -0 0.999988)
(0.00499795 -0 0.999988)
(0.00500027 -0 0.999987)
(0.00499936 4.23511e-19 0.999988)
(0.00500099 -0 0.999987)
(0.0050003 4.23511e-19 0.999987)
(0.00499784 -0 0.999988)
(0.00499906 -0 0.999988)
(0.00499982 4.23511e-19 0.999988)
(0.00499997 -4.23511e-19 0.999988)
(0.00500064 -0 0.999987)
(0.00500082 -4.23511e-19 0.999987)
(0.0050011 -0 0.999987)
(0.00499768 -4.23511e-19 0.999988)
(0.00499991 -0 0.999988)
(0.00499954 -0 0.999988)
(0.00500068 -0 0.999987)
(0.00500023 -0 0.999987)
(0.00500157 -0 0.999987)
(0.00500043 -0 0.999987)
(0.00499898 -4.23511e-19 0.999988)
(0.00499837 -4.23511e-19 0.999988)
(0.00500143 -0 0.999987)
(0.00499861 4.23511e-19 0.999988)
(0.00500291 -0 0.999987)
(0.0049986 4.23511e-19 0.999988)
(0.00500382 -0 0.999987)
(0.00499495 -0 0.999988)
(0.00500131 -0 0.999987)
(0.0050009 -0 0.999987)
(0.00499698 -0 0.999988)
(0.00500586 -0 0.999987)
(0.00499418 -0 0.999988)
(0.00500992 -0 0.999987)
(0.00498725 4.23511e-19 0.999988)
(0.00501301 -0 0.999987)
(0.00498402 -0 0.999988)
(0.00501861 -4.23511e-19 0.999987)
(0.00497901 -4.23511e-19 0.999988)
(0.0050251 -0 0.999987)
(0.00496869 -0 0.999988)
(0.00503245 -0 0.999987)
(0.00496125 -0 0.999988)
(0.00504256 -0 0.999987)
(0.00495176 -0 0.999988)
(0.00505389 -0 0.999987)
(0.00493625 -4.23511e-19 0.999988)
(0.00506643 -0 0.999987)
(0.00492328 -0 0.999988)
(0.00508212 -0 0.999987)
(0.00490807 4.23511e-19 0.999988)
(0.00509918 -0 0.999987)
(0.00488676 -0 0.999988)
(0.00511741 4.23511e-19 0.999987)
(0.00486806 -4.23511e-19 0.999988)
(0.00513863 -4.23511e-19 0.999987)
(0.00484736 -0 0.999988)
(0.00516087 -0 0.999987)
(0.00482114 -0 0.999988)
(0.00518376 -0 0.999987)
(0.00479823 -0 0.999988)
(0.00520886 -0 0.999986)
(0.0047737 -0 0.999989)
(0.00523105 -0 0.999986)
(0.00474782 -0 0.999989)
(0.00525761 -0 0.999986)
(0.00472342 4.23512e-19 0.999989)
(0.00528283 -0 0.999986)
(0.00469632 -0 0.999989)
(0.00530598 -0 0.999986)
(0.00467493 -0 0.999989)
(0.00532872 4.2351e-19 0.999986)
(0.0046549 -0 0.999989)
(0.0053459 -0 0.999986)
(0.00463615 -0 0.999989)
(0.0053647 -0 0.999986)
(0.0046213 4.23512e-19 0.999989)
(0.0053802 -4.2351e-19 0.999986)
(0.00460556 -0 0.999989)
(0.00539193 -0 0.999985)
(0.0045967 -0 0.999989)
(0.00540228 -0 0.999985)
(0.00459008 4.23512e-19 0.999989)
(0.00540651 -4.2351e-19 0.999985)
(0.0045851 -0 0.999989)
(0.00541176 -0 0.999985)
(0.0045844 4.23512e-19 0.999989)
(0.00541335 -0 0.999985)
(0.00458316 -0 0.999989)
(0.00541084 -4.2351e-19 0.999985)
(0.00458913 -0 0.999989)
(0.00540661 4.2351e-19 0.999985)
(0.00459741 -4.23512e-19 0.999989)
(0.00539606 -0 0.999985)
(0.00460734 -4.23512e-19 0.999989)
(0.00538613 -0 0.999985)
(0.004621 -0 0.999989)
(0.00537029 -0 0.999986)
(0.00463572 -0 0.999989)
(0.00535619 -4.2351e-19 0.999986)
(0.00465346 -0 0.999989)
(0.00533666 -0 0.999986)
(0.00467168 -0 0.999989)
(0.00531964 -0 0.999986)
(0.00469249 -0 0.999989)
(0.00530083 -0 0.999986)
(0.00471073 -0 0.999989)
(0.00527985 -0 0.999986)
(0.00473354 -0 0.999989)
(0.00525924 -0 0.999986)
(0.00475304 -0 0.999989)
(0.00523772 -4.23511e-19 0.999986)
(0.00477655 -0 0.999989)
(0.00521754 -0 0.999986)
(0.00479558 -0 0.999989)
(0.00519653 -0 0.999986)
(0.00481771 -0 0.999988)
(0.00517697 -0 0.999987)
(0.00483575 -0 0.999988)
(0.00515763 -0 0.999987)
(0.00485673 -0 0.999988)
(0.00514037 -4.23511e-19 0.999987)
(0.0048726 -4.23511e-19 0.999988)
(0.00512253 -0 0.999987)
(0.00489051 -4.23511e-19 0.999988)
(0.00510689 -0 0.999987)
(0.00490435 -0 0.999988)
(0.00509242 -0 0.999987)
(0.0049201 -0 0.999988)
(0.00508072 -0 0.999987)
(0.00493045 -4.23511e-19 0.999988)
(0.00506744 -0 0.999987)
(0.00494308 -0 0.999988)
(0.00505407 -4.23511e-19 0.999987)
(0.00495292 -0 0.999988)
(0.00504733 -0 0.999987)
(0.00496347 -0 0.999988)
(0.0050376 -0 0.999987)
(0.00497024 -0 0.999988)
(0.00503151 -0 0.999987)
(0.00497703 -0 0.999988)
(0.00502249 -0 0.999987)
(0.00498233 -0 0.999988)
(0.00502007 4.23511e-19 0.999987)
(0.00498502 -4.23511e-19 0.999988)
(0.00501665 -4.23511e-19 0.999987)
(0.0049897 4.23511e-19 0.999988)
(0.00501345 -0 0.999987)
(0.00498953 -0 0.999988)
(0.00500922 -0 0.999987)
(0.00499448 -0 0.999988)
(0.00500575 -4.23511e-19 0.999987)
(0.00499665 -0 0.999988)
(0.00500723 -0 0.999987)
(0.00499479 -0 0.999988)
(0.00500495 -0 0.999987)
(0.00499653 -4.23511e-19 0.999988)
(0.00500417 4.23511e-19 0.999987)
(0.00499591 -0 0.999988)
(0.00500423 -0 0.999987)
(0.00499932 -0 0.999988)
(0.00500282 -0 0.999987)
(0.00499834 -0 0.999988)
(0.00500273 -4.23511e-19 0.999987)
(0.00499536 -0 0.999988)
(0.00500172 4.23511e-19 0.999987)
(0.00499805 -0 0.999988)
(0.00500364 -0 0.999987)
(0.00499753 -0 0.999988)
(0.00500508 -0 0.999987)
(0.00499701 4.23511e-19 0.999988)
(0.00500209 -0 0.999987)
(0.00499568 -4.23511e-19 0.999988)
(0.00500194 4.23511e-19 0.999987)
(0.00499574 -0 0.999988)
(0.00500221 4.23511e-19 0.999987)
(0.00499862 -0 0.999988)
(0.00500624 4.23511e-19 0.999987)
(0.00499058 4.23511e-19 0.999988)
(0.0050049 -0 0.999987)
(0.00499987 -4.23511e-19 0.999988)
(0.00498599 4.23511e-19 0.999988)
(0.00502908 -0 0.999987)
(0.0048988 4.23511e-19 0.999988)
(0.00509221 4.23511e-19 0.999987)
(0.00501966 -4.23511e-19 0.999987)
(0.00499295 -4.23511e-19 0.999988)
(0.00501206 -0 0.999987)
(0.00492003 4.23511e-19 0.999988)
(0.00504374 -4.23511e-19 0.999987)
(0.00414576 -4.23513e-19 0.999991)
(0.00735683 -0 0.999973)
(0.00223601 -0 0.999998)
(0.00994385 -0 0.999951)
(0.0388462 -0 0.999245)
(0.00499994 -0 0.999988)
(0.00499994 -0 0.999988)
(0.00499994 -0 0.999988)
)
;

boundaryField
{
    inlet
    {
        type            calculated;
        value           uniform (0 0 0);
    }
    outlet
    {
        type            calculated;
        value           uniform (0 0 0);
    }
    sideWall
    {
        type            empty;
    }
}


// ************************************************************************* //
