/*--------------------------------*- C++ -*----------------------------------*\
| =========                 |                                                 |
| \\      /  F ield         | foam-extend: Open Source CFD                    |
|  \\    /   O peration     | Version:     3.2                                |
|   \\  /    A nd           | Web:         http://www.foam-extend.org         |
|    \\/     M anipulation  | For copyright notice see file Copyright         |
\*---------------------------------------------------------------------------*/
FoamFile
{
    version     2.0;
    format      ascii;
    class       areaVectorField;
    location    "2000";
    object      Utau;
}
// * * * * * * * * * * * * * * * * * * * * * * * * * * * * * * * * * * * * * //

dimensions      [0 1 -1 0 0 0 0];

internalField   nonuniform List<vector> 
300
(
(0.330798 0 -0.00165399)
(0.366164 0 -0.00183082)
(0.336696 0 -0.00168348)
(0.309328 0 -0.00154664)
(0.292483 4.66296e-23 -0.00146242)
(0.285241 -1.79643e-23 -0.00142621)
(0.282383 -3.92062e-23 -0.00141192)
(0.282028 -3.88499e-23 -0.00141014)
(0.282506 1.15481e-26 -0.00141253)
(0.283482 -3.49455e-23 -0.00141741)
(0.284653 5.57597e-27 -0.00142326)
(0.285839 2.57784e-23 -0.0014292)
(0.286985 0 -0.00143493)
(0.288189 2.32794e-23 -0.00144095)
(0.289339 2.12988e-27 -0.00144669)
(0.290501 -1.3068e-28 -0.0014525)
(0.291726 2.17073e-23 -0.00145863)
(0.292944 -2.10154e-23 -0.00146472)
(0.294185 2.06368e-23 -0.00147093)
(0.29543 0 -0.00147715)
(0.296672 0 -0.00148336)
(0.297912 -2.08989e-23 -0.00148956)
(0.299182 2.56413e-27 -0.00149591)
(0.300482 0 -0.00150241)
(0.301734 0 -0.00150867)
(0.302883 -1.89699e-23 -0.00151441)
(0.303916 0 -0.00151958)
(0.304822 0 -0.00152411)
(0.305607 0 -0.00152803)
(0.306277 -1.04493e-23 -0.00153138)
(0.30685 0 -0.00153425)
(0.307339 0 -0.00153669)
(0.307746 -1.25498e-27 -0.00153873)
(0.30808 0 -0.0015404)
(0.308346 0 -0.00154173)
(0.308567 0 -0.00154283)
(0.308749 -6.71246e-28 -0.00154375)
(0.308904 0 -0.00154452)
(0.309033 0 -0.00154516)
(0.309144 0 -0.00154572)
(0.309236 -3.71323e-28 -0.00154618)
(0.309317 -1.13902e-24 -0.00154659)
(0.309383 0 -0.00154691)
(0.309443 -8.24624e-25 -0.00154722)
(0.309489 -2.00726e-28 -0.00154745)
(0.309535 0 -0.00154767)
(0.309567 -4.91053e-25 -0.00154783)
(0.309602 0 -0.00154801)
(0.309623 -3.61531e-25 -0.00154811)
(0.309654 0 -0.00154827)
(0.309656 0 -0.00154828)
(0.309709 -2.55507e-25 -0.00154854)
(0.309648 0 -0.00154824)
(0.309813 -4.00365e-25 -0.00154906)
(0.309499 0 -0.0015475)
(0.310184 0 -0.00155092)
(0.308721 6.78156e-24 -0.00154361)
(0.311493 4.81751e-28 -0.00155747)
(0.30129 0 -0.00150645)
(0.32047 -1.53289e-24 0.00977467)
(0.365076 0 0.00569631)
(0.356067 -3.58539e-21 -0.00656529)
(0.337968 0 -0.0015583)
(0.338258 0 -0.00196659)
(0.33647 0 -0.00172843)
(0.336541 -2.12968e-24 -0.00188257)
(0.336268 0 -0.00184172)
(0.336284 3.5913e-27 -0.00183882)
(0.336296 0 -0.00181628)
(0.336368 0 -0.00180991)
(0.33639 -2.7758e-24 -0.00180109)
(0.336424 2.9178e-24 -0.00178606)
(0.336467 2.84124e-24 -0.00177105)
(0.336515 4.44046e-28 -0.00176014)
(0.336554 -1.95583e-24 -0.00175005)
(0.336586 1.64258e-24 -0.00174115)
(0.336614 1.45766e-24 -0.00173176)
(0.336638 -4.91746e-29 -0.00172536)
(0.336651 -9.97568e-25 -0.0017183)
(0.336666 0 -0.00171139)
(0.336677 1.05469e-28 -0.00170654)
(0.336685 3.98258e-25 -0.001702)
(0.336691 0 -0.00169827)
(0.336695 0 -0.00169502)
(0.336697 9.40093e-29 -0.00169241)
(0.3367 0 -0.00169027)
(0.336699 8.60836e-29 -0.00168859)
(0.336702 0 -0.00168585)
(0.336705 0 -0.0016857)
(0.336705 -5.47226e-26 -0.00168457)
(0.336706 0 -0.00168454)
(0.336705 -3.89226e-29 -0.00168387)
(0.336705 3.61348e-26 -0.00168385)
(0.336703 0 -0.00168366)
(0.336704 0 -0.00168229)
(0.336707 -1.69665e-26 -0.00168279)
(0.336707 0 -0.00168295)
(0.336708 -1.01067e-29 -0.00168299)
(0.336706 -2.34442e-30 -0.00168335)
(0.336707 0 -0.00168321)
(0.336704 0 -0.00168362)
(0.336706 0 -0.00168218)
(0.336708 0 -0.00168332)
(0.336708 0 -0.00168287)
(0.336708 0 -0.00168365)
(0.336708 8.92423e-27 -0.00168335)
(0.336707 0 -0.00168389)
(0.336705 6.35154e-27 -0.00168365)
(0.336707 0 -0.00168283)
(0.336709 0 -0.00168325)
(0.336709 -1.56351e-26 -0.0016835)
(0.336709 1.44159e-26 -0.00168356)
(0.336708 0 -0.00168378)
(0.336708 3.00749e-26 -0.00168384)
(0.336705 -6.72872e-30 -0.00168391)
(0.336707 -1.12502e-25 -0.00168277)
(0.336708 -1.18926e-29 -0.00168353)
(0.336709 -4.29078e-31 -0.00168341)
(0.336708 6.41587e-30 -0.00168379)
(0.336708 0 -0.00168364)
(0.336706 9.72441e-30 -0.00168408)
(0.336705 -4.9325e-30 -0.00168369)
(0.336705 -7.59571e-26 -0.0016832)
(0.336709 -1.17634e-26 -0.00168302)
(0.336706 0 -0.00168403)
(0.336709 5.76009e-26 -0.0016831)
(0.336705 0 -0.00168453)
(0.336707 7.12405e-26 -0.00168308)
(0.336703 0 -0.00168483)
(0.336704 3.96639e-29 -0.00168184)
(0.336709 0 -0.00168401)
(0.336703 0 -0.00168384)
(0.336714 0 -0.00168257)
(0.336697 3.74301e-29 -0.00168548)
(0.336715 0 -0.00168164)
(0.33669 0 -0.00168681)
(0.336716 4.42294e-25 -0.00167931)
(0.336689 -6.06267e-29 -0.00168785)
(0.336722 0 -0.00167825)
(0.336683 6.13344e-25 -0.0016897)
(0.336726 -6.7493e-25 -0.00167658)
(0.336675 9.43502e-29 -0.00169185)
(0.33673 -1.26963e-28 -0.00167313)
(0.336671 0 -0.0016943)
(0.336738 0 -0.00167066)
(0.336663 0 -0.00169767)
(0.336745 1.96293e-28 -0.0016675)
(0.336651 2.01385e-28 -0.00170142)
(0.336751 -2.32014e-24 -0.00166231)
(0.336645 0 -0.00170561)
(0.336762 0 -0.00165799)
(0.336634 0 -0.00171084)
(0.33677 3.38935e-24 -0.00165291)
(0.336619 3.59322e-28 -0.00171651)
(0.336779 0 -0.00164578)
(0.336611 -4.61894e-24 -0.0017226)
(0.336791 -4.98428e-24 -0.00163954)
(0.336598 5.47859e-24 -0.00172968)
(0.3368 0 -0.00163261)
(0.336583 0 -0.00173708)
(0.336808 0 -0.00162382)
(0.336574 -6.42183e-28 -0.00174474)
(0.33682 0 -0.00161616)
(0.336562 0 -0.00175313)
(0.336827 0 -0.00160793)
(0.336549 0 -0.00176053)
(0.336839 0 -0.00159927)
(0.33654 0 -0.00176942)
(0.336847 1.11533e-23 -0.00159109)
(0.336529 0 -0.00177785)
(0.336851 0 -0.00158198)
(0.336526 9.95785e-28 -0.00178563)
(0.336857 0 -0.0015748)
(0.336521 -1.39645e-23 -0.00179325)
(0.336859 0 -0.00156806)
(0.336516 0 -0.00179901)
(0.336864 0 -0.00156177)
(0.336515 0 -0.00180533)
(0.336864 1.59073e-23 -0.00155676)
(0.336514 1.62894e-23 -0.00181054)
(0.336861 0 -0.00155145)
(0.336519 0 -0.00181452)
(0.33686 0 -0.00154846)
(0.336523 1.3535e-27 -0.00181802)
(0.336854 1.72255e-23 -0.0015462)
(0.336526 1.7308e-23 -0.00181946)
(0.336853 0 -0.00154452)
(0.336534 1.43359e-27 -0.00182127)
(0.336846 1.74684e-23 -0.00154425)
(0.336539 0 -0.00182183)
(0.336837 0 -0.0015438)
(0.336552 1.74458e-23 -0.00182105)
(0.33683 1.48612e-27 -0.00154577)
(0.336561 -1.72157e-23 -0.00181968)
(0.336819 -1.6951e-23 -0.00154851)
(0.336571 0 -0.00181618)
(0.336813 -1.65119e-23 -0.00155183)
(0.336584 0 -0.00181291)
(0.336802 0 -0.00155638)
(0.336595 0 -0.00180764)
(0.336798 0 -0.00156131)
(0.336609 1.49901e-23 -0.00180297)
(0.336788 -1.38569e-27 -0.00156725)
(0.336621 0 -0.00179646)
(0.336785 0 -0.00157337)
(0.336634 -1.30789e-27 -0.0017908)
(0.336778 -1.25871e-27 -0.00158034)
(0.336644 -1.24426e-27 -0.00178452)
(0.336769 -1.19871e-27 -0.00158645)
(0.336658 0 -0.00177753)
(0.336765 -1.13392e-27 -0.00159411)
(0.336668 1.1014e-27 -0.00177064)
(0.336759 1.05997e-27 -0.00160065)
(0.336681 9.84724e-24 -0.00176346)
(0.336756 0 -0.00160855)
(0.336688 0 -0.00175671)
(0.336751 0 -0.00161493)
(0.3367 8.81318e-28 -0.00174969)
(0.336749 0 -0.00162238)
(0.336705 0 -0.00174314)
(0.336745 0 -0.00162843)
(0.336715 -6.77955e-28 -0.00173667)
(0.336744 0 -0.00163549)
(0.336718 5.8488e-24 -0.00173088)
(0.336741 -5.58706e-24 -0.00164082)
(0.336725 0 -0.00172491)
(0.33674 -4.84046e-24 -0.00164685)
(0.336727 0 -0.00171965)
(0.336737 0 -0.0016515)
(0.336732 0 -0.0017148)
(0.336736 0 -0.0016568)
(0.336732 -2.97323e-28 -0.00171086)
(0.336734 -3.85545e-24 -0.00166027)
(0.336736 -8.09217e-28 -0.00170641)
(0.336733 9.60147e-28 -0.00166452)
(0.336738 2.34016e-24 -0.00170192)
(0.336735 0 -0.00166784)
(0.336739 6.81642e-28 -0.00169965)
(0.336733 5.88341e-28 -0.00167138)
(0.336737 -5.81415e-28 -0.00169637)
(0.336734 0 -0.00167367)
(0.336737 0 -0.00169432)
(0.336732 0 -0.00167594)
(0.336735 3.05112e-28 -0.00169127)
(0.336733 0 -0.00167774)
(0.336733 -8.96172e-25 -0.00169044)
(0.336731 -6.63328e-25 -0.00167863)
(0.336734 7.67738e-25 -0.0016893)
(0.336731 5.65692e-25 -0.00168021)
(0.336731 0 -0.0016882)
(0.336729 -2.13198e-28 -0.00168014)
(0.336731 1.10723e-28 -0.00168678)
(0.336727 0 -0.0016818)
(0.336728 2.67874e-25 -0.0016856)
(0.336728 0 -0.00168253)
(0.336726 6.41466e-29 -0.00168608)
(0.336727 0 -0.0016819)
(0.336727 -9.10879e-29 -0.00168532)
(0.336727 -2.43944e-25 -0.00168248)
(0.336725 -6.96655e-26 -0.00168505)
(0.336725 0 -0.00168227)
(0.336725 0 -0.00168507)
(0.336723 -1.15181e-29 -0.00168341)
(0.336722 6.21489e-29 -0.00168458)
(0.336725 0 -0.00168309)
(0.336721 9.50593e-26 -0.00168454)
(0.336724 6.66086e-29 -0.00168208)
(0.336723 6.50134e-27 -0.00168422)
(0.336725 0 -0.00168299)
(0.33672 0 -0.00168485)
(0.336722 0 -0.0016828)
(0.336721 0 -0.00168534)
(0.336721 7.55478e-26 -0.00168262)
(0.33672 6.85178e-29 -0.00168433)
(0.336724 -2.42637e-25 -0.00168219)
(0.336721 3.95159e-27 -0.00168428)
(0.336723 0 -0.0016822)
(0.336723 -1.21901e-25 -0.00168438)
(0.336724 0 -0.00168318)
(0.33672 -3.89002e-25 -0.00168573)
(0.336718 3.28464e-25 -0.00168044)
(0.336733 0 -0.00168534)
(0.336708 -4.80148e-25 -0.00168352)
(0.336764 -5.04658e-26 -0.00167912)
(0.336668 0 -0.00169315)
(0.336755 4.33531e-24 -0.00164972)
(0.336797 -4.55894e-24 -0.00171506)
(0.336657 1.71624e-25 -0.00168993)
(0.33673 -4.56213e-25 -0.0016813)
(0.336578 -2.50965e-28 -0.00168697)
(0.336865 -2.23565e-24 -0.00165741)
(0.336162 -6.37624e-24 -0.00169553)
(0.337589 -2.8647e-23 -0.00139958)
(0.337148 0 -0.00248041)
(0.33362 0 -0.000745978)
(0.34868 -2.31504e-25 -0.00346739)
(0.311207 0 -0.0120983)
(0.291168 1.55104e-25 -0.00145584)
(0.302353 1.86471e-26 -0.00151177)
(0.304892 0 -0.00152446)
)
;

boundaryField
{
    inlet
    {
        type            calculated;
        value           uniform (0 0 0);
    }
    outlet
    {
        type            calculated;
        value           uniform (0 0 0);
    }
    sideWall
    {
        type            empty;
    }
}


// ************************************************************************* //
