/*--------------------------------*- C++ -*----------------------------------*\
| =========                 |                                                 |
| \\      /  F ield         | foam-extend: Open Source CFD                    |
|  \\    /   O peration     | Version:     3.2                                |
|   \\  /    A nd           | Web:         http://www.foam-extend.org         |
|    \\/     M anipulation  | For copyright notice see file Copyright         |
\*---------------------------------------------------------------------------*/
FoamFile
{
    version     2.0;
    format      ascii;
    class       areaVectorField;
    location    "2000";
    object      Wt;
}
// * * * * * * * * * * * * * * * * * * * * * * * * * * * * * * * * * * * * * //

dimensions      [1 1 -2 0 0 0 0];

internalField   nonuniform List<vector> 
300
(
(2.06482e-08 0 -1.03241e-10)
(2.06482e-08 0 -1.03241e-10)
(2.06482e-08 0 -1.03241e-10)
(2.06482e-08 0 -1.03241e-10)
(2.06482e-08 -1.74897e-24 -1.03241e-10)
(2.06482e-08 -1.74897e-24 -1.03241e-10)
(2.06482e-08 -1.74897e-24 -1.03241e-10)
(2.06482e-08 -1.74897e-24 -1.03241e-10)
(2.06482e-08 0 -1.03241e-10)
(2.06482e-08 -1.74897e-24 -1.03241e-10)
(2.06482e-08 0 -1.03241e-10)
(2.06482e-08 1.74897e-24 -1.03241e-10)
(2.06482e-08 0 -1.03241e-10)
(2.06482e-08 1.74897e-24 -1.03241e-10)
(2.06482e-08 0 -1.03241e-10)
(2.06482e-08 0 -1.03241e-10)
(2.06482e-08 1.74897e-24 -1.03241e-10)
(2.06482e-08 -1.74897e-24 -1.03241e-10)
(2.06482e-08 1.74897e-24 -1.03241e-10)
(2.06482e-08 0 -1.03241e-10)
(2.06482e-08 0 -1.03241e-10)
(2.06482e-08 -1.74897e-24 -1.03241e-10)
(2.06482e-08 0 -1.03241e-10)
(2.06482e-08 0 -1.03241e-10)
(2.06482e-08 0 -1.03241e-10)
(2.06482e-08 -1.74897e-24 -1.03241e-10)
(2.06482e-08 0 -1.03241e-10)
(2.06482e-08 0 -1.03241e-10)
(2.06482e-08 0 -1.03241e-10)
(2.06482e-08 -1.74897e-24 -1.03241e-10)
(2.06482e-08 0 -1.03241e-10)
(2.06482e-08 0 -1.03241e-10)
(2.06482e-08 0 -1.03241e-10)
(2.06482e-08 0 -1.03241e-10)
(2.06482e-08 0 -1.03241e-10)
(2.06482e-08 0 -1.03241e-10)
(2.06482e-08 0 -1.03241e-10)
(2.06482e-08 0 -1.03241e-10)
(2.06482e-08 0 -1.03241e-10)
(2.06482e-08 0 -1.03241e-10)
(2.06482e-08 0 -1.03241e-10)
(2.06482e-08 -1.74897e-24 -1.03241e-10)
(2.06482e-08 0 -1.03241e-10)
(2.06482e-08 -1.74897e-24 -1.03241e-10)
(2.06482e-08 0 -1.03241e-10)
(2.06482e-08 0 -1.03241e-10)
(2.06482e-08 -1.74897e-24 -1.03241e-10)
(2.06482e-08 0 -1.03241e-10)
(2.06482e-08 -1.74897e-24 -1.03241e-10)
(2.06482e-08 0 -1.03241e-10)
(2.06482e-08 0 -1.03241e-10)
(2.06482e-08 -1.74897e-24 -1.03241e-10)
(2.06482e-08 0 -1.03241e-10)
(2.06482e-08 -1.74897e-24 -1.03241e-10)
(2.06482e-08 0 -1.03241e-10)
(2.06482e-08 0 -1.03241e-10)
(2.06482e-08 -1.74897e-24 -1.03241e-10)
(2.06482e-08 0 -1.03241e-10)
(2.06482e-08 0 -1.03241e-10)
(-1.25845e-07 0 -3.8384e-09)
(-6.44211e-08 0 -1.00517e-09)
(7.61201e-08 6.99369e-24 -1.40353e-09)
(1.90411e-08 0 -8.77946e-11)
(2.4009e-08 0 -1.39585e-10)
(2.12137e-08 0 -1.08974e-10)
(2.31007e-08 1.74896e-24 -1.29223e-10)
(2.26177e-08 0 -1.23876e-10)
(2.2581e-08 0 -1.23474e-10)
(2.23034e-08 0 -1.20457e-10)
(2.22205e-08 0 -1.19563e-10)
(2.21108e-08 -1.74897e-24 -1.18385e-10)
(2.19241e-08 1.74897e-24 -1.16394e-10)
(2.1737e-08 1.74897e-24 -1.14416e-10)
(2.16001e-08 0 -1.1298e-10)
(2.14737e-08 -1.74897e-24 -1.11661e-10)
(2.13625e-08 1.74897e-24 -1.10508e-10)
(2.12455e-08 1.74897e-24 -1.09301e-10)
(2.11655e-08 0 -1.08479e-10)
(2.10781e-08 -1.74897e-24 -1.07584e-10)
(2.09924e-08 0 -1.06712e-10)
(2.09322e-08 0 -1.061e-10)
(2.0876e-08 1.74897e-24 -1.05532e-10)
(2.08299e-08 0 -1.05066e-10)
(2.07898e-08 0 -1.04662e-10)
(2.07577e-08 0 -1.04339e-10)
(2.07313e-08 0 -1.04073e-10)
(2.07107e-08 0 -1.03867e-10)
(2.0677e-08 0 -1.03529e-10)
(2.06749e-08 0 -1.03508e-10)
(2.0661e-08 -1.74897e-24 -1.03369e-10)
(2.06606e-08 0 -1.03365e-10)
(2.06525e-08 0 -1.03283e-10)
(2.06522e-08 -1.74897e-24 -1.03281e-10)
(2.065e-08 0 -1.03259e-10)
(2.06331e-08 0 -1.0309e-10)
(2.06391e-08 1.74897e-24 -1.0315e-10)
(2.06411e-08 0 -1.0317e-10)
(2.06415e-08 0 -1.03174e-10)
(2.0646e-08 0 -1.03219e-10)
(2.06443e-08 0 -1.03201e-10)
(2.06494e-08 0 -1.03253e-10)
(2.06316e-08 0 -1.03075e-10)
(2.06455e-08 0 -1.03214e-10)
(2.064e-08 0 -1.03159e-10)
(2.06496e-08 0 -1.03255e-10)
(2.06459e-08 1.74897e-24 -1.03217e-10)
(2.06526e-08 0 -1.03285e-10)
(2.06497e-08 1.74897e-24 -1.03256e-10)
(2.06396e-08 0 -1.03154e-10)
(2.06446e-08 0 -1.03205e-10)
(2.06477e-08 1.74897e-24 -1.03236e-10)
(2.06484e-08 -1.74897e-24 -1.03242e-10)
(2.06511e-08 0 -1.0327e-10)
(2.06519e-08 -1.74897e-24 -1.03278e-10)
(2.0653e-08 0 -1.03289e-10)
(2.06389e-08 -1.74897e-24 -1.03148e-10)
(2.06481e-08 0 -1.0324e-10)
(2.06466e-08 0 -1.03225e-10)
(2.06513e-08 0 -1.03272e-10)
(2.06494e-08 0 -1.03253e-10)
(2.0655e-08 0 -1.03309e-10)
(2.06503e-08 0 -1.03262e-10)
(2.06443e-08 -1.74897e-24 -1.03202e-10)
(2.06418e-08 -1.74897e-24 -1.03177e-10)
(2.06544e-08 0 -1.03303e-10)
(2.06427e-08 1.74897e-24 -1.03186e-10)
(2.06605e-08 0 -1.03364e-10)
(2.06427e-08 1.74897e-24 -1.03186e-10)
(2.06643e-08 0 -1.03402e-10)
(2.06276e-08 0 -1.03035e-10)
(2.06539e-08 0 -1.03298e-10)
(2.06522e-08 0 -1.03281e-10)
(2.0636e-08 0 -1.03119e-10)
(2.06727e-08 0 -1.03486e-10)
(2.06245e-08 0 -1.03004e-10)
(2.06895e-08 0 -1.03654e-10)
(2.05958e-08 1.74897e-24 -1.02718e-10)
(2.07022e-08 0 -1.03782e-10)
(2.05825e-08 0 -1.02585e-10)
(2.07253e-08 -1.74897e-24 -1.04014e-10)
(2.05618e-08 -1.74897e-24 -1.02379e-10)
(2.07521e-08 0 -1.04283e-10)
(2.05192e-08 0 -1.01955e-10)
(2.07825e-08 0 -1.04588e-10)
(2.04884e-08 0 -1.01649e-10)
(2.08243e-08 0 -1.05009e-10)
(2.04493e-08 0 -1.01261e-10)
(2.0871e-08 0 -1.05481e-10)
(2.03852e-08 -1.74897e-24 -1.00628e-10)
(2.09228e-08 0 -1.06005e-10)
(2.03317e-08 0 -1.001e-10)
(2.09876e-08 0 -1.06663e-10)
(2.02689e-08 1.74897e-24 -9.94823e-11)
(2.10581e-08 0 -1.0738e-10)
(2.01809e-08 0 -9.86203e-11)
(2.11333e-08 1.74897e-24 -1.08149e-10)
(2.01036e-08 -1.74898e-24 -9.78669e-11)
(2.1221e-08 -1.74897e-24 -1.09048e-10)
(2.00182e-08 0 -9.70364e-11)
(2.13128e-08 0 -1.09994e-10)
(1.99099e-08 0 -9.59894e-11)
(2.14073e-08 0 -1.10972e-10)
(1.98153e-08 0 -9.50794e-11)
(2.1511e-08 0 -1.12049e-10)
(1.9714e-08 0 -9.41095e-11)
(2.16026e-08 0 -1.13006e-10)
(1.96071e-08 0 -9.30919e-11)
(2.17123e-08 0 -1.14156e-10)
(1.95063e-08 1.74898e-24 -9.21378e-11)
(2.18164e-08 0 -1.15254e-10)
(1.93944e-08 0 -9.10834e-11)
(2.19121e-08 0 -1.16267e-10)
(1.93061e-08 0 -9.02554e-11)
(2.2006e-08 1.74897e-24 -1.17265e-10)
(1.92234e-08 0 -8.94839e-11)
(2.20769e-08 0 -1.18023e-10)
(1.91459e-08 0 -8.87644e-11)
(2.21545e-08 0 -1.18854e-10)
(1.90846e-08 1.74898e-24 -8.81965e-11)
(2.22186e-08 -1.74897e-24 -1.19542e-10)
(1.90196e-08 0 -8.75967e-11)
(2.2267e-08 0 -1.20064e-10)
(1.8983e-08 0 -8.72602e-11)
(2.23097e-08 0 -1.20525e-10)
(1.89557e-08 1.74898e-24 -8.70089e-11)
(2.23272e-08 -1.74897e-24 -1.20714e-10)
(1.89351e-08 0 -8.68202e-11)
(2.23489e-08 0 -1.20949e-10)
(1.89322e-08 1.74898e-24 -8.67937e-11)
(2.23555e-08 0 -1.2102e-10)
(1.89271e-08 0 -8.67469e-11)
(2.23451e-08 -1.74897e-24 -1.20908e-10)
(1.89518e-08 0 -8.6973e-11)
(2.23276e-08 1.74897e-24 -1.20718e-10)
(1.89859e-08 -1.74898e-24 -8.7287e-11)
(2.2284e-08 0 -1.20248e-10)
(1.90269e-08 -1.74898e-24 -8.76644e-11)
(2.2243e-08 0 -1.19806e-10)
(1.90834e-08 0 -8.81853e-11)
(2.21776e-08 0 -1.19102e-10)
(1.91441e-08 0 -8.87478e-11)
(2.21194e-08 -1.74897e-24 -1.18477e-10)
(1.92174e-08 0 -8.94285e-11)
(2.20388e-08 0 -1.17615e-10)
(1.92927e-08 0 -9.01301e-11)
(2.19685e-08 0 -1.16866e-10)
(1.93786e-08 0 -9.09348e-11)
(2.18908e-08 0 -1.16041e-10)
(1.94539e-08 0 -9.16432e-11)
(2.18042e-08 0 -1.15124e-10)
(1.95481e-08 0 -9.25327e-11)
(2.17191e-08 0 -1.14227e-10)
(1.96287e-08 0 -9.32969e-11)
(2.16302e-08 -1.74897e-24 -1.13294e-10)
(1.97257e-08 0 -9.42221e-11)
(2.15468e-08 0 -1.12423e-10)
(1.98043e-08 0 -9.49741e-11)
(2.14601e-08 0 -1.11519e-10)
(1.98957e-08 0 -9.5853e-11)
(2.13793e-08 0 -1.10682e-10)
(1.99702e-08 0 -9.65719e-11)
(2.12994e-08 0 -1.09856e-10)
(2.00569e-08 0 -9.74119e-11)
(2.12282e-08 -1.74897e-24 -1.09122e-10)
(2.01224e-08 -1.74898e-24 -9.80494e-11)
(2.11545e-08 0 -1.08366e-10)
(2.01963e-08 -1.74897e-24 -9.87717e-11)
(2.10899e-08 0 -1.07705e-10)
(2.02535e-08 0 -9.93315e-11)
(2.10301e-08 0 -1.07096e-10)
(2.03185e-08 0 -9.99705e-11)
(2.09818e-08 0 -1.06604e-10)
(2.03613e-08 -1.74897e-24 -1.00391e-10)
(2.0927e-08 0 -1.06048e-10)
(2.04134e-08 0 -1.00906e-10)
(2.08718e-08 -1.74897e-24 -1.05489e-10)
(2.04541e-08 0 -1.01309e-10)
(2.08439e-08 0 -1.05208e-10)
(2.04976e-08 0 -1.01741e-10)
(2.08038e-08 0 -1.04802e-10)
(2.05256e-08 0 -1.02019e-10)
(2.07786e-08 0 -1.04549e-10)
(2.05536e-08 0 -1.02297e-10)
(2.07413e-08 0 -1.04174e-10)
(2.05755e-08 0 -1.02515e-10)
(2.07314e-08 1.74897e-24 -1.04074e-10)
(2.05866e-08 -1.74897e-24 -1.02626e-10)
(2.07172e-08 -1.74897e-24 -1.03932e-10)
(2.06059e-08 1.74897e-24 -1.02819e-10)
(2.0704e-08 0 -1.038e-10)
(2.06053e-08 0 -1.02812e-10)
(2.06866e-08 0 -1.03625e-10)
(2.06257e-08 0 -1.03016e-10)
(2.06723e-08 -1.74897e-24 -1.03482e-10)
(2.06347e-08 0 -1.03106e-10)
(2.06783e-08 0 -1.03542e-10)
(2.0627e-08 0 -1.03029e-10)
(2.06689e-08 0 -1.03448e-10)
(2.06341e-08 -1.74897e-24 -1.031e-10)
(2.06657e-08 1.74897e-24 -1.03416e-10)
(2.06316e-08 0 -1.03075e-10)
(2.0666e-08 0 -1.03418e-10)
(2.06457e-08 0 -1.03216e-10)
(2.06601e-08 0 -1.0336e-10)
(2.06416e-08 0 -1.03175e-10)
(2.06598e-08 -1.74897e-24 -1.03356e-10)
(2.06293e-08 0 -1.03052e-10)
(2.06556e-08 1.74897e-24 -1.03315e-10)
(2.06404e-08 0 -1.03163e-10)
(2.06635e-08 0 -1.03394e-10)
(2.06383e-08 0 -1.03142e-10)
(2.06695e-08 0 -1.03454e-10)
(2.06361e-08 1.74897e-24 -1.0312e-10)
(2.06571e-08 0 -1.0333e-10)
(2.06307e-08 -1.74897e-24 -1.03066e-10)
(2.06565e-08 1.74897e-24 -1.03324e-10)
(2.06309e-08 0 -1.03068e-10)
(2.06576e-08 1.74897e-24 -1.03335e-10)
(2.06428e-08 0 -1.03187e-10)
(2.06743e-08 1.74897e-24 -1.03502e-10)
(2.06096e-08 1.74897e-24 -1.02855e-10)
(2.06687e-08 0 -1.03446e-10)
(2.06479e-08 -1.74897e-24 -1.03238e-10)
(2.05906e-08 1.74897e-24 -1.02666e-10)
(2.07686e-08 0 -1.04448e-10)
(2.02306e-08 1.74897e-24 -9.91067e-11)
(2.10293e-08 1.74897e-24 -1.07087e-10)
(2.07297e-08 -1.74897e-24 -1.04057e-10)
(2.06194e-08 -1.74897e-24 -1.02953e-10)
(2.06983e-08 0 -1.03743e-10)
(2.03183e-08 1.74897e-24 -9.99677e-11)
(2.08291e-08 -1.74897e-24 -1.05058e-10)
(1.71208e-08 -1.74899e-24 -7.09795e-11)
(3.0381e-08 0 -2.23514e-10)
(9.23413e-09 0 -2.06477e-11)
(4.10636e-08 0 -4.0835e-10)
(1.60304e-07 0 -6.2319e-09)
(2.06482e-08 0 -1.03241e-10)
(2.06482e-08 0 -1.03241e-10)
(2.06482e-08 0 -1.03241e-10)
)
;

boundaryField
{
    inlet
    {
        type            calculated;
        value           uniform (0 0 0);
    }
    outlet
    {
        type            calculated;
        value           uniform (0 0 0);
    }
    sideWall
    {
        type            empty;
    }
}


// ************************************************************************* //
