/*--------------------------------*- C++ -*----------------------------------*\
| =========                 |                                                 |
| \\      /  F ield         | foam-extend: Open Source CFD                    |
|  \\    /   O peration     | Version:     3.2                                |
|   \\  /    A nd           | Web:         http://www.foam-extend.org         |
|    \\/     M anipulation  | For copyright notice see file Copyright         |
\*---------------------------------------------------------------------------*/
FoamFile
{
    version     2.0;
    format      ascii;
    class       areaScalarField;
    location    "2000";
    object      zCo;
}
// * * * * * * * * * * * * * * * * * * * * * * * * * * * * * * * * * * * * * //

dimensions      [0 1 0 0 0 0 0];

internalField   nonuniform List<scalar> 
300
(
-0.000125
-0.000375
-0.000625
-0.000875
-0.001125
-0.001375
-0.001625
-0.001875
-0.002125
-0.002375
-0.002625
-0.002875
-0.003125
-0.003375
-0.003625
-0.003875
-0.004125
-0.004375
-0.004625
-0.004875
-0.005125
-0.005375
-0.005625
-0.005875
-0.006125
-0.006375
-0.006625
-0.006875
-0.007125
-0.007375
-0.007625
-0.007875
-0.008125
-0.008375
-0.008625
-0.008875
-0.009125
-0.009375
-0.009625
-0.009875
-0.010125
-0.010375
-0.010625
-0.010875
-0.011125
-0.011375
-0.011625
-0.011875
-0.012125
-0.012375
-0.012625
-0.012875
-0.013125
-0.013375
-0.013625
-0.013875
-0.014125
-0.014375
-0.014625
-0.0139875
-0.0128349
-0.0129058
-0.013482
-0.0137426
-0.0140164
-0.0142846
-0.0145614
-0.014835
-0.0151068
-0.0153763
-0.0156447
-0.0159112
-0.0161756
-0.0164379
-0.0166987
-0.016958
-0.0172159
-0.0174727
-0.0177284
-0.0179831
-0.0182369
-0.01849
-0.0187425
-0.0189944
-0.019246
-0.0194971
-0.019748
-0.0199986
-0.0202489
-0.0204991
-0.0207493
-0.0209994
-0.0212494
-0.0214995
-0.0217494
-0.0219992
-0.0222492
-0.0224991
-0.022749
-0.022999
-0.023249
-0.0234989
-0.0237487
-0.0239987
-0.0242486
-0.0244986
-0.0247486
-0.0249987
-0.0252486
-0.0254986
-0.0257485
-0.0259985
-0.0262486
-0.0264986
-0.0267486
-0.0269986
-0.0272486
-0.0274986
-0.0277486
-0.0279986
-0.0282486
-0.0284987
-0.0287487
-0.0289986
-0.0292486
-0.0294986
-0.0297487
-0.0299987
-0.0302488
-0.0304987
-0.0307486
-0.0309987
-0.0312487
-0.0314987
-0.0317487
-0.0319988
-0.0322488
-0.0324988
-0.0327487
-0.0329988
-0.0332487
-0.0334988
-0.0337487
-0.0339987
-0.0342485
-0.0344986
-0.0347485
-0.0349987
-0.0352484
-0.0354985
-0.0357482
-0.0359984
-0.0362481
-0.0364983
-0.036748
-0.0369981
-0.0372477
-0.0374979
-0.0377475
-0.0379977
-0.0382473
-0.0384974
-0.038747
-0.0389972
-0.0392467
-0.0394968
-0.0397463
-0.0399965
-0.040246
-0.0404961
-0.0407456
-0.0409957
-0.0412452
-0.0414953
-0.0417449
-0.0419949
-0.0422445
-0.0424945
-0.0427442
-0.0429942
-0.0432438
-0.0434938
-0.0437435
-0.0439935
-0.0442433
-0.0444932
-0.044743
-0.0449929
-0.0452428
-0.0454928
-0.0457427
-0.0459926
-0.0462426
-0.0464924
-0.0467426
-0.0469924
-0.0472425
-0.0474923
-0.0477425
-0.0479923
-0.0482424
-0.0484922
-0.0487425
-0.0489922
-0.0492425
-0.0494922
-0.0497425
-0.0499924
-0.0502427
-0.0504924
-0.0507428
-0.0509926
-0.0512429
-0.0514927
-0.051743
-0.0519929
-0.0522432
-0.052493
-0.0527434
-0.0529933
-0.0532436
-0.0534934
-0.0537438
-0.0539937
-0.054244
-0.0544939
-0.0547443
-0.0549942
-0.0552445
-0.0554944
-0.0557447
-0.0559947
-0.056245
-0.056495
-0.0567452
-0.0569952
-0.0572453
-0.0574954
-0.0577456
-0.0579957
-0.0582459
-0.0584959
-0.0587461
-0.0589961
-0.0592462
-0.0594963
-0.0597464
-0.0599965
-0.0602466
-0.0604967
-0.0607468
-0.0609968
-0.0612469
-0.0614969
-0.0617469
-0.061997
-0.0622471
-0.0624971
-0.0627471
-0.0629972
-0.0632472
-0.0634972
-0.0637473
-0.0639973
-0.0642473
-0.0644974
-0.0647473
-0.0649973
-0.0652473
-0.0654973
-0.0657473
-0.0659974
-0.0662475
-0.0664974
-0.0667474
-0.0669973
-0.0672473
-0.0674972
-0.0677472
-0.0679974
-0.0682473
-0.0684972
-0.0687473
-0.068997
-0.0692473
-0.0694955
-0.0697453
-0.0699981
-0.0702484
-0.0704986
-0.0707469
-0.070996
-0.0712257
-0.0715133
-0.0717531
-0.0720576
-0.0732781
-0.074375
-0.074625
-0.074875
)
;

boundaryField
{
    inlet
    {
        type            calculated;
        value           uniform 0;
    }
    outlet
    {
        type            calculated;
        value           uniform 0;
    }
    sideWall
    {
        type            empty;
    }
}


// ************************************************************************* //
