/*--------------------------------*- C++ -*----------------------------------*\
| =========                 |                                                 |
| \\      /  F ield         | foam-extend: Open Source CFD                    |
|  \\    /   O peration     | Version:     3.2                                |
|   \\  /    A nd           | Web:         http://www.foam-extend.org         |
|    \\/     M anipulation  | For copyright notice see file Copyright         |
\*---------------------------------------------------------------------------*/
FoamFile
{
    version     2.0;
    format      ascii;
    class       volScalarField;
    location    "2000";
    object      zDim;
}
// * * * * * * * * * * * * * * * * * * * * * * * * * * * * * * * * * * * * * //

dimensions      [0 1 0 0 0 0 0];

internalField   nonuniform List<scalar> 
2400
(
0.004
0.004
0.004
0.004
0.004
0.004
0.004
0.004
0.004
0.004
0.004
0.004
0.004
0.004
0.004
0.004
0.004
0.004
0.004
0.004
0.004
0.004
0.004
0.004
0.004
0.004
0.004
0.004
0.004
0.004
0.004
0.004
0.004
0.004
0.004
0.004
0.004
0.004
0.004
0.004
0.004
0.004
0.004
0.004
0.004
0.004
0.004
0.004
0.004
0.004
0.004
0.004
0.004
0.004
0.004
0.004
0.00399999
0.00400008
0.00399903
0.0052687
0.00451542
0.00465718
0.00398245
0.00403634
0.00400368
0.00402609
0.00402051
0.00402006
0.00401676
0.00401578
0.00401448
0.00401226
0.00401002
0.00400838
0.00400687
0.00400554
0.00400414
0.00400318
0.00400213
0.00400111
0.00400038
0.00399971
0.00399915
0.00399867
0.00399828
0.00399797
0.00399772
0.00399731
0.00399728
0.00399712
0.00399711
0.00399702
0.00399701
0.00399699
0.00399678
0.00399685
0.00399688
0.00399688
0.00399694
0.00399691
0.00399698
0.00399676
0.00399693
0.00399686
0.00399698
0.00399693
0.00399701
0.00399698
0.00399686
0.00399692
0.00399696
0.00399696
0.003997
0.00399701
0.00399702
0.00399685
0.00399696
0.00399694
0.003997
0.00399698
0.00399704
0.00399699
0.00399691
0.00399688
0.00399704
0.0039969
0.00399711
0.0039969
0.00399715
0.00399672
0.00399703
0.00399701
0.00399682
0.00399726
0.00399668
0.00399746
0.00399634
0.00399761
0.00399618
0.00399788
0.00399593
0.0039982
0.00399542
0.00399856
0.00399505
0.00399906
0.00399459
0.00399962
0.00399382
0.00400024
0.00399318
0.00400101
0.00399243
0.00400185
0.00399138
0.00400275
0.00399046
0.00400379
0.00398944
0.00400489
0.00398815
0.00400601
0.00398702
0.00400725
0.00398581
0.00400834
0.00398454
0.00400965
0.00398334
0.00401089
0.003982
0.00401203
0.00398095
0.00401314
0.00397996
0.00401399
0.00397904
0.00401491
0.00397831
0.00401568
0.00397753
0.00401625
0.0039771
0.00401676
0.00397677
0.00401697
0.00397653
0.00401723
0.00397649
0.0040173
0.00397643
0.00401718
0.00397673
0.00401697
0.00397714
0.00401645
0.00397762
0.00401596
0.0039783
0.00401518
0.00397902
0.00401449
0.0039799
0.00401353
0.00398079
0.00401269
0.00398182
0.00401176
0.00398272
0.00401073
0.00398384
0.00400972
0.0039848
0.00400865
0.00398596
0.00400766
0.0039869
0.00400663
0.00398799
0.00400567
0.00398887
0.00400471
0.00398991
0.00400387
0.00399069
0.00400299
0.00399157
0.00400222
0.00399225
0.00400151
0.00399303
0.00400093
0.00399354
0.00400028
0.00399416
0.00399962
0.00399464
0.00399929
0.00399516
0.00399881
0.0039955
0.00399851
0.00399583
0.00399807
0.00399609
0.00399795
0.00399622
0.00399778
0.00399646
0.00399763
0.00399645
0.00399742
0.00399669
0.00399724
0.0039968
0.00399732
0.00399671
0.00399721
0.0039968
0.00399717
0.00399676
0.00399717
0.00399693
0.0039971
0.00399688
0.0039971
0.00399674
0.00399705
0.00399687
0.00399714
0.00399684
0.00399721
0.00399681
0.00399707
0.00399676
0.00399706
0.00399675
0.00399707
0.00399689
0.00399726
0.00399649
0.00399721
0.00399697
0.00399628
0.0039984
0.00399195
0.0040015
0.00399797
0.00399662
0.00399756
0.003993
0.00399908
0.00395461
0.0041136
0.0038607
0.00424224
0.00568305
0.00401274
0.00399899
0.00400008
0.004
0.004
0.004
0.004
0.004
0.004
0.004
0.004
0.004
0.004
0.004
0.004
0.004
0.004
0.004
0.004
0.004
0.004
0.004
0.004
0.004
0.004
0.004
0.004
0.004
0.004
0.004
0.004
0.004
0.004
0.004
0.004
0.004
0.004
0.004
0.004
0.004
0.004
0.004
0.004
0.004
0.004
0.004
0.004
0.004
0.004
0.004
0.004
0.004
0.004
0.004
0.004
0.004
0.004
0.004
0.00400001
0.00399991
0.00400118
0.00398525
0.00522525
0.00446476
0.00459826
0.00396322
0.00400665
0.00397675
0.00399832
0.00399356
0.00399334
0.00399044
0.00398972
0.0039887
0.00398674
0.00398472
0.00398327
0.00398193
0.00398074
0.00397947
0.00397861
0.00397765
0.0039767
0.00397603
0.00397541
0.00397489
0.00397444
0.00397408
0.00397378
0.00397355
0.00397316
0.00397313
0.00397297
0.00397296
0.00397287
0.00397287
0.00397284
0.00397264
0.00397271
0.00397273
0.00397273
0.00397278
0.00397276
0.00397282
0.00397261
0.00397277
0.00397271
0.00397282
0.00397278
0.00397286
0.00397282
0.0039727
0.00397276
0.0039728
0.00397281
0.00397284
0.00397285
0.00397286
0.0039727
0.0039728
0.00397279
0.00397284
0.00397282
0.00397289
0.00397283
0.00397276
0.00397273
0.00397288
0.00397274
0.00397295
0.00397275
0.00397299
0.00397257
0.00397287
0.00397285
0.00397267
0.00397309
0.00397254
0.00397328
0.00397221
0.00397342
0.00397206
0.00397369
0.00397182
0.00397399
0.00397133
0.00397433
0.00397098
0.00397481
0.00397054
0.00397534
0.0039698
0.00397593
0.00396919
0.00397667
0.00396847
0.00397747
0.00396746
0.00397832
0.00396658
0.00397931
0.00396561
0.00398036
0.00396437
0.00398143
0.00396328
0.0039826
0.00396213
0.00398364
0.0039609
0.00398488
0.00395975
0.00398606
0.00395847
0.00398714
0.00395746
0.00398821
0.00395651
0.003989
0.00395562
0.00398988
0.00395492
0.00399061
0.00395418
0.00399115
0.00395376
0.00399163
0.00395345
0.00399182
0.00395321
0.00399207
0.00395318
0.00399214
0.00395312
0.00399202
0.0039534
0.00399182
0.00395379
0.00399132
0.00395425
0.00399086
0.0039549
0.00399011
0.00395559
0.00398945
0.00395643
0.00398853
0.00395728
0.00398773
0.00395827
0.00398685
0.00395912
0.00398586
0.0039602
0.0039849
0.00396112
0.00398388
0.00396223
0.00398294
0.00396312
0.00398196
0.00396417
0.00398104
0.00396502
0.00398013
0.00396601
0.00397933
0.00396676
0.0039785
0.00396761
0.00397777
0.00396826
0.00397709
0.003969
0.00397654
0.00396949
0.00397592
0.00397009
0.0039753
0.00397055
0.00397498
0.00397104
0.00397452
0.00397137
0.00397426
0.00397171
0.00397384
0.00397195
0.00397371
0.00397206
0.00397355
0.00397229
0.00397342
0.00397231
0.00397323
0.00397253
0.00397304
0.0039726
0.0039731
0.00397253
0.00397303
0.00397266
0.00397301
0.00397261
0.00397297
0.00397272
0.00397288
0.00397269
0.00397294
0.00397262
0.00397291
0.00397272
0.00397293
0.00397261
0.00397297
0.00397262
0.00397292
0.00397267
0.00397295
0.00397262
0.00397285
0.00397262
0.00397299
0.0039723
0.00397307
0.00397292
0.00397224
0.0039742
0.00396793
0.00397713
0.00397383
0.00397249
0.00397334
0.00396898
0.00397439
0.00393219
0.00408512
0.0038423
0.00422222
0.00563351
0.00403196
0.00399734
0.00400022
0.004
0.004
0.004
0.004
0.004
0.004
0.004
0.004
0.004
0.004
0.004
0.004
0.004
0.004
0.004
0.004
0.004
0.004
0.004
0.004
0.004
0.004
0.004
0.004
0.004
0.004
0.004
0.004
0.004
0.004
0.004
0.004
0.004
0.004
0.004
0.004
0.004
0.004
0.004
0.004
0.004
0.004
0.004
0.004
0.004
0.004
0.004
0.004
0.004
0.004
0.004
0.004
0.004
0.004
0.004
0.00400002
0.00399976
0.00400285
0.00396594
0.00513164
0.00436618
0.00449206
0.00391746
0.0039492
0.00392326
0.0039437
0.00394023
0.00394058
0.00393843
0.00393825
0.00393777
0.00393634
0.0039348
0.00393373
0.00393272
0.00393183
0.00393082
0.00393017
0.0039294
0.00392861
0.00392807
0.00392755
0.00392712
0.00392674
0.00392643
0.00392617
0.00392596
0.0039256
0.00392558
0.00392544
0.00392543
0.00392535
0.00392534
0.00392532
0.00392513
0.00392518
0.0039252
0.0039252
0.00392525
0.00392523
0.00392529
0.00392509
0.00392523
0.00392517
0.00392528
0.00392524
0.00392531
0.00392528
0.00392517
0.00392522
0.00392525
0.00392526
0.00392529
0.0039253
0.00392532
0.00392516
0.00392526
0.00392524
0.00392529
0.00392528
0.00392534
0.00392529
0.00392522
0.00392519
0.00392533
0.00392521
0.0039254
0.00392521
0.00392544
0.00392505
0.00392532
0.00392531
0.00392514
0.00392553
0.00392502
0.00392571
0.00392471
0.00392584
0.00392457
0.00392608
0.00392436
0.00392637
0.0039239
0.00392668
0.00392357
0.00392712
0.00392316
0.00392761
0.00392247
0.00392814
0.00392191
0.00392882
0.00392124
0.00392956
0.0039203
0.00393034
0.00391948
0.00393126
0.00391857
0.00393221
0.00391741
0.00393319
0.00391641
0.00393427
0.00391533
0.00393522
0.00391418
0.00393636
0.00391311
0.00393744
0.00391191
0.00393842
0.00391097
0.0039394
0.00391009
0.00394012
0.00390925
0.00394093
0.0039086
0.00394159
0.0039079
0.00394207
0.0039075
0.00394252
0.00390721
0.00394268
0.00390698
0.00394291
0.00390695
0.00394297
0.00390689
0.00394285
0.00390715
0.00394267
0.00390751
0.0039422
0.00390794
0.00394177
0.00390854
0.00394108
0.00390917
0.00394047
0.00390995
0.00393961
0.00391074
0.00393888
0.00391165
0.00393807
0.00391245
0.00393716
0.00391345
0.00393627
0.0039143
0.00393534
0.00391533
0.00393447
0.00391616
0.00393357
0.00391714
0.00393273
0.00391793
0.00393189
0.00391885
0.00393116
0.00391954
0.00393039
0.00392035
0.00392973
0.00392095
0.0039291
0.00392163
0.00392861
0.00392209
0.00392805
0.00392268
0.00392748
0.0039231
0.00392719
0.00392354
0.00392676
0.00392385
0.00392653
0.0039242
0.00392617
0.00392443
0.00392604
0.00392449
0.00392587
0.00392472
0.00392578
0.00392479
0.00392564
0.00392499
0.00392543
0.00392499
0.00392545
0.00392493
0.00392543
0.00392514
0.00392547
0.00392508
0.00392537
0.00392508
0.00392523
0.00392507
0.00392535
0.00392513
0.0039254
0.00392521
0.00392535
0.00392495
0.00392528
0.00392499
0.00392533
0.00392522
0.00392549
0.00392515
0.00392527
0.00392491
0.00392523
0.00392462
0.00392546
0.00392554
0.0039249
0.00392659
0.00392063
0.00392921
0.00392626
0.00392498
0.00392571
0.00392167
0.00392605
0.00388749
0.00403024
0.00380404
0.00417913
0.00553617
0.00405165
0.00399559
0.00400036
0.004
0.004
0.004
0.004
0.004
0.004
0.004
0.004
0.004
0.004
0.004
0.004
0.004
0.004
0.004
0.004
0.004
0.004
0.004
0.004
0.004
0.004
0.004
0.004
0.004
0.004
0.004
0.004
0.004
0.004
0.004
0.004
0.004
0.004
0.004
0.004
0.004
0.004
0.004
0.004
0.004
0.004
0.004
0.004
0.004
0.004
0.004
0.004
0.004
0.004
0.004
0.004
0.004
0.004
0.004
0.00400003
0.00399961
0.00400453
0.00394714
0.00497452
0.00421156
0.00434019
0.00384461
0.00386602
0.00384482
0.00386381
0.00386204
0.00386326
0.00386222
0.00386285
0.00386317
0.00386253
0.00386169
0.0038612
0.00386071
0.00386026
0.00385966
0.00385932
0.00385885
0.00385831
0.00385795
0.0038576
0.0038573
0.00385702
0.0038568
0.00385661
0.00385645
0.00385614
0.00385613
0.00385601
0.00385601
0.00385593
0.00385593
0.0038559
0.00385573
0.00385577
0.00385578
0.00385578
0.00385583
0.00385581
0.00385585
0.00385567
0.00385579
0.00385574
0.00385583
0.0038558
0.00385587
0.00385584
0.00385573
0.00385577
0.00385581
0.00385581
0.00385585
0.00385586
0.00385587
0.00385573
0.00385581
0.0038558
0.00385585
0.00385583
0.00385589
0.00385585
0.00385578
0.00385575
0.00385588
0.00385577
0.00385594
0.00385578
0.00385598
0.00385563
0.00385587
0.00385587
0.00385571
0.00385606
0.00385561
0.00385623
0.00385534
0.00385633
0.00385521
0.00385656
0.00385502
0.00385681
0.00385461
0.00385708
0.00385431
0.00385747
0.00385395
0.0038579
0.00385333
0.00385837
0.00385281
0.00385897
0.00385222
0.00385963
0.00385137
0.0038603
0.00385063
0.00386111
0.00384982
0.00386196
0.00384877
0.00386281
0.00384786
0.00386377
0.00384689
0.00386459
0.00384585
0.00386559
0.00384489
0.00386654
0.0038438
0.00386739
0.00384294
0.00386825
0.00384215
0.00386887
0.00384138
0.00386957
0.00384079
0.00387014
0.00384015
0.00387056
0.00383979
0.00387094
0.00383952
0.00387108
0.0038393
0.00387127
0.00383927
0.00387132
0.0038392
0.0038712
0.00383943
0.00387104
0.00383976
0.00387062
0.00384013
0.00387024
0.00384067
0.00386961
0.00384123
0.00386907
0.00384192
0.00386831
0.00384263
0.00386766
0.00384345
0.00386695
0.00384416
0.00386614
0.00384506
0.00386536
0.00384582
0.00386453
0.00384674
0.00386377
0.00384748
0.00386297
0.00384837
0.00386224
0.00384908
0.0038615
0.0038499
0.00386085
0.00385053
0.00386018
0.00385126
0.00385962
0.00385181
0.00385906
0.00385242
0.00385862
0.00385283
0.00385814
0.00385339
0.00385766
0.00385377
0.00385741
0.00385415
0.003857
0.00385442
0.00385683
0.00385479
0.00385655
0.003855
0.00385643
0.00385501
0.00385623
0.00385521
0.00385619
0.00385535
0.00385612
0.00385555
0.00385592
0.00385546
0.00385586
0.0038554
0.00385587
0.0038557
0.00385601
0.00385567
0.00385589
0.00385553
0.00385564
0.0038555
0.0038558
0.00385574
0.00385601
0.00385583
0.00385589
0.00385537
0.00385564
0.00385537
0.00385575
0.00385586
0.00385615
0.00385585
0.00385586
0.00385528
0.00385549
0.00385493
0.00385581
0.00385624
0.00385572
0.00385706
0.00385154
0.00385923
0.00385674
0.00385557
0.00385616
0.00385255
0.00385576
0.00382179
0.00395042
0.00374738
0.00410734
0.00538088
0.00406605
0.00399432
0.00400046
0.004
0.004
0.004
0.004
0.004
0.004
0.004
0.004
0.004
0.004
0.004
0.004
0.004
0.004
0.004
0.004
0.004
0.004
0.004
0.004
0.004
0.004
0.004
0.004
0.004
0.004
0.004
0.004
0.004
0.004
0.004
0.004
0.004
0.004
0.004
0.004
0.004
0.004
0.004
0.004
0.004
0.004
0.004
0.004
0.004
0.004
0.004
0.004
0.004
0.004
0.004
0.004
0.004
0.004
0.004
0.00400004
0.00399951
0.00400567
0.00393435
0.00474131
0.00399474
0.00414477
0.00374577
0.00375979
0.00374388
0.00376106
0.00376127
0.00376365
0.00376403
0.0037657
0.00376704
0.00376744
0.00376753
0.00376781
0.003768
0.00376814
0.00376807
0.00376816
0.00376807
0.00376787
0.00376778
0.00376764
0.00376752
0.00376739
0.00376728
0.00376718
0.00376708
0.00376685
0.00376686
0.00376676
0.00376677
0.00376671
0.00376671
0.00376669
0.00376653
0.00376656
0.00376657
0.00376656
0.0037666
0.00376658
0.00376662
0.00376645
0.00376655
0.00376651
0.00376658
0.00376655
0.00376661
0.00376659
0.00376649
0.00376653
0.00376655
0.00376656
0.00376659
0.0037666
0.00376661
0.00376649
0.00376656
0.00376655
0.00376659
0.00376658
0.00376663
0.0037666
0.00376654
0.00376651
0.00376662
0.00376653
0.00376668
0.00376654
0.00376672
0.00376641
0.00376661
0.00376661
0.00376648
0.00376678
0.0037664
0.00376693
0.00376617
0.00376701
0.00376606
0.0037672
0.0037659
0.00376741
0.00376555
0.00376763
0.00376529
0.00376796
0.00376498
0.00376833
0.00376445
0.00376871
0.00376401
0.00376921
0.0037635
0.00376976
0.00376277
0.00377032
0.00376213
0.00377099
0.00376143
0.00377169
0.00376053
0.00377239
0.00375975
0.00377318
0.00375891
0.00377386
0.00375801
0.00377468
0.00375717
0.00377546
0.00375623
0.00377615
0.00375549
0.00377686
0.00375479
0.00377736
0.00375412
0.00377792
0.0037536
0.00377839
0.00375304
0.00377872
0.00375272
0.00377903
0.00375247
0.00377912
0.00375227
0.00377927
0.00375224
0.0037793
0.00375217
0.00377919
0.00375236
0.00377905
0.00375263
0.00377869
0.00375295
0.00377836
0.0037534
0.00377783
0.00375387
0.00377738
0.00375446
0.00377673
0.00375505
0.00377619
0.00375575
0.00377559
0.00375636
0.00377491
0.00375713
0.00377426
0.00375778
0.00377357
0.00375857
0.00377294
0.0037592
0.00377227
0.00375996
0.00377167
0.00376058
0.00377106
0.00376128
0.00377052
0.00376181
0.00376997
0.00376246
0.00376952
0.00376295
0.00376907
0.00376346
0.0037687
0.00376381
0.00376829
0.00376432
0.00376794
0.00376467
0.00376774
0.00376498
0.00376738
0.00376519
0.00376723
0.00376556
0.00376706
0.00376578
0.00376698
0.00376574
0.00376675
0.00376588
0.00376671
0.00376608
0.00376676
0.00376631
0.00376661
0.00376615
0.00376645
0.00376603
0.00376644
0.00376641
0.00376672
0.00376647
0.00376664
0.00376621
0.00376625
0.00376608
0.00376635
0.00376646
0.00376676
0.00376668
0.00376671
0.00376606
0.0037662
0.0037659
0.00376624
0.00376659
0.00376695
0.00376678
0.00376677
0.00376597
0.00376599
0.00376537
0.00376615
0.00376695
0.00376667
0.00376769
0.00376281
0.00376929
0.00376736
0.00376636
0.00376681
0.00376371
0.00376581
0.00373703
0.00384768
0.00367454
0.00400271
0.00515732
0.00407062
0.00399393
0.00400048
0.004
0.004
0.004
0.004
0.004
0.004
0.004
0.004
0.004
0.004
0.004
0.004
0.004
0.004
0.004
0.004
0.004
0.004
0.004
0.004
0.004
0.004
0.004
0.004
0.004
0.004
0.004
0.004
0.004
0.004
0.004
0.004
0.004
0.004
0.004
0.004
0.004
0.004
0.004
0.004
0.004
0.004
0.004
0.004
0.004
0.004
0.004
0.004
0.004
0.004
0.004
0.004
0.004
0.004
0.004
0.00400004
0.00399949
0.00400589
0.00393174
0.00441982
0.00371199
0.00390791
0.00362366
0.00363368
0.00362351
0.00363843
0.00364083
0.00364459
0.00364666
0.00364956
0.0036521
0.00365375
0.00365498
0.00365619
0.00365721
0.00365807
0.00365865
0.00365927
0.00365965
0.00365987
0.0036601
0.00366024
0.00366034
0.00366039
0.00366043
0.00366044
0.00366043
0.00366029
0.00366032
0.00366027
0.00366029
0.00366025
0.00366025
0.00366024
0.00366011
0.00366012
0.00366011
0.0036601
0.00366012
0.00366011
0.00366013
0.00366
0.00366007
0.00366003
0.00366008
0.00366006
0.00366011
0.00366009
0.00366001
0.00366003
0.00366005
0.00366006
0.00366008
0.0036601
0.00366011
0.00366001
0.00366006
0.00366005
0.00366008
0.00366008
0.00366012
0.0036601
0.00366005
0.00366003
0.00366011
0.00366004
0.00366016
0.00366006
0.0036602
0.00365996
0.00366011
0.00366011
0.00366
0.00366025
0.00365995
0.00366037
0.00365977
0.00366043
0.00365969
0.00366057
0.00365957
0.00366074
0.00365928
0.0036609
0.00365908
0.00366115
0.00365883
0.00366144
0.00365841
0.00366172
0.00365805
0.0036621
0.00365765
0.00366251
0.00365707
0.00366292
0.00365656
0.00366343
0.003656
0.00366397
0.00365528
0.00366448
0.00365465
0.00366507
0.00365398
0.00366557
0.00365324
0.00366617
0.00365257
0.00366675
0.00365181
0.00366725
0.00365119
0.00366776
0.00365063
0.00366812
0.00365007
0.00366852
0.00364965
0.00366886
0.00364918
0.00366908
0.0036489
0.0036693
0.0036487
0.00366935
0.00364852
0.00366944
0.00364848
0.00366945
0.00364842
0.00366935
0.00364855
0.00366923
0.00364876
0.00366895
0.003649
0.00366869
0.00364935
0.00366828
0.00364971
0.00366792
0.00365017
0.00366742
0.00365063
0.003667
0.00365118
0.00366655
0.00365166
0.00366603
0.00365226
0.00366554
0.00365278
0.00366501
0.0036534
0.00366454
0.0036539
0.00366402
0.00365451
0.00366359
0.00365501
0.00366313
0.00365557
0.00366273
0.00365599
0.00366231
0.00365652
0.003662
0.00365693
0.00366168
0.00365735
0.0036614
0.00365762
0.00366108
0.00365803
0.00366085
0.00365835
0.00366075
0.0036586
0.00366045
0.00365874
0.00366031
0.00365907
0.00366026
0.00365931
0.00366026
0.00365927
0.00366003
0.00365932
0.00365995
0.00365952
0.00366009
0.0036598
0.00366006
0.00365964
0.00365983
0.00365944
0.00365971
0.00365978
0.00366009
0.00365998
0.00366017
0.00365973
0.00365969
0.00365945
0.00365959
0.00365981
0.00366015
0.00366021
0.00366032
0.00365966
0.00365964
0.00365925
0.0036594
0.00365988
0.00366031
0.00366038
0.0036605
0.00365964
0.00365944
0.00365868
0.00365912
0.00366008
0.00366011
0.00366092
0.00365697
0.00366196
0.00366067
0.0036599
0.00366023
0.00365772
0.00365886
0.00363578
0.0037243
0.00358842
0.00386326
0.00485452
0.00406228
0.00399467
0.00400041
0.004
0.004
0.004
0.004
0.004
0.004
0.004
0.004
0.004
0.004
0.004
0.004
0.004
0.004
0.004
0.004
0.004
0.004
0.004
0.004
0.004
0.004
0.004
0.004
0.004
0.004
0.004
0.004
0.004
0.004
0.004
0.004
0.004
0.004
0.004
0.004
0.004
0.004
0.004
0.004
0.004
0.004
0.004
0.004
0.004
0.004
0.004
0.004
0.004
0.004
0.004
0.004
0.004
0.004
0.004
0.00400004
0.00399957
0.004005
0.00394203
0.00399847
0.00336215
0.00363164
0.00348222
0.00349114
0.00348725
0.00349927
0.00350403
0.00350934
0.00351331
0.00351756
0.00352144
0.00352452
0.00352705
0.00352933
0.0035313
0.00353299
0.00353433
0.00353554
0.00353649
0.00353719
0.0035378
0.00353827
0.00353863
0.0035389
0.00353911
0.00353926
0.00353936
0.00353933
0.00353939
0.00353939
0.00353942
0.0035394
0.00353941
0.0035394
0.00353931
0.0035393
0.00353928
0.00353927
0.00353927
0.00353926
0.00353927
0.00353918
0.0035392
0.00353917
0.0035392
0.00353919
0.00353922
0.00353921
0.00353916
0.00353916
0.00353917
0.00353917
0.00353919
0.00353921
0.00353922
0.00353915
0.00353918
0.00353917
0.00353919
0.00353919
0.00353923
0.00353922
0.00353919
0.00353916
0.00353921
0.00353917
0.00353925
0.00353919
0.00353929
0.00353913
0.00353922
0.00353923
0.00353915
0.00353932
0.00353913
0.00353941
0.00353902
0.00353944
0.00353895
0.00353954
0.00353888
0.00353965
0.00353869
0.00353974
0.00353854
0.0035399
0.00353838
0.00354008
0.00353809
0.00354024
0.00353784
0.00354047
0.00353756
0.00354074
0.00353716
0.00354097
0.0035368
0.00354128
0.00353642
0.00354161
0.00353592
0.0035419
0.00353547
0.00354225
0.003535
0.00354254
0.00353448
0.00354288
0.003534
0.00354322
0.00353346
0.00354349
0.00353301
0.00354378
0.0035326
0.00354396
0.00353219
0.00354417
0.00353187
0.00354436
0.00353153
0.00354445
0.00353131
0.00354455
0.00353115
0.00354455
0.003531
0.00354458
0.00353095
0.00354457
0.00353089
0.00354447
0.00353096
0.00354439
0.0035311
0.0035442
0.00353124
0.00354402
0.00353147
0.00354375
0.0035317
0.00354351
0.003532
0.00354319
0.0035323
0.00354292
0.00353267
0.00354264
0.00353299
0.00354231
0.0035334
0.00354201
0.00353375
0.00354168
0.00353418
0.0035414
0.00353452
0.00354108
0.00353493
0.00354082
0.00353529
0.00354056
0.00353568
0.00354033
0.00353598
0.00354006
0.00353634
0.0035399
0.00353665
0.00353974
0.00353696
0.00353959
0.00353715
0.00353938
0.00353743
0.00353927
0.00353769
0.00353927
0.0035379
0.00353909
0.00353798
0.00353897
0.00353819
0.00353899
0.00353843
0.0035391
0.00353846
0.00353893
0.00353844
0.0035388
0.00353854
0.00353895
0.00353883
0.00353907
0.00353879
0.00353888
0.00353855
0.00353864
0.00353872
0.00353898
0.00353901
0.00353924
0.00353894
0.00353884
0.00353856
0.00353852
0.0035387
0.003539
0.0035392
0.00353944
0.00353897
0.00353886
0.00353842
0.0035383
0.00353865
0.00353908
0.00353935
0.00353969
0.00353908
0.00353878
0.00353795
0.00353788
0.00353861
0.00353884
0.00353952
0.00353684
0.00354006
0.00353953
0.00353905
0.00353928
0.00353745
0.00353781
0.00352108
0.00358264
0.00349258
0.00368911
0.00446107
0.0040396
0.00399663
0.00400025
0.004
0.004
0.004
0.004
0.004
0.004
0.004
0.004
0.004
0.004
0.004
0.004
0.004
0.004
0.004
0.004
0.004
0.004
0.004
0.004
0.004
0.004
0.004
0.004
0.004
0.004
0.004
0.004
0.004
0.004
0.004
0.004
0.004
0.004
0.004
0.004
0.004
0.004
0.004
0.004
0.004
0.004
0.004
0.004
0.004
0.004
0.004
0.004
0.004
0.004
0.004
0.004
0.004
0.004
0.004
0.00400002
0.00399975
0.0040029
0.00396631
0.00371631
0.00319646
0.00331785
0.00332627
0.00333569
0.0033388
0.00334713
0.00335437
0.00336131
0.00336734
0.00337303
0.00337832
0.00338296
0.00338692
0.00339039
0.00339339
0.00339599
0.00339817
0.00340006
0.00340162
0.00340288
0.00340392
0.00340475
0.00340541
0.00340593
0.00340633
0.00340664
0.00340686
0.00340697
0.00340707
0.00340712
0.00340716
0.00340718
0.00340719
0.0034072
0.00340714
0.00340711
0.00340708
0.00340706
0.00340705
0.00340704
0.00340704
0.00340698
0.00340697
0.00340694
0.00340694
0.00340694
0.00340695
0.00340696
0.00340693
0.00340691
0.00340691
0.00340691
0.00340692
0.00340694
0.00340695
0.00340692
0.00340692
0.00340691
0.00340692
0.00340693
0.00340695
0.00340696
0.00340695
0.00340693
0.00340694
0.00340693
0.00340697
0.00340695
0.003407
0.00340694
0.00340695
0.00340697
0.00340693
0.003407
0.00340694
0.00340706
0.00340691
0.00340706
0.00340687
0.00340709
0.00340685
0.00340714
0.00340677
0.00340715
0.00340669
0.00340719
0.00340663
0.00340725
0.00340651
0.00340727
0.00340638
0.00340733
0.00340626
0.00340741
0.00340609
0.00340744
0.0034059
0.00340751
0.00340573
0.00340759
0.0034055
0.00340763
0.00340528
0.00340769
0.00340506
0.00340772
0.00340478
0.00340776
0.00340454
0.00340782
0.00340428
0.00340781
0.00340403
0.00340783
0.00340382
0.00340782
0.00340358
0.0034078
0.0034034
0.0034078
0.00340321
0.00340774
0.00340306
0.00340772
0.00340295
0.00340766
0.00340284
0.00340761
0.00340278
0.00340757
0.00340273
0.00340749
0.00340272
0.00340744
0.00340277
0.00340736
0.00340281
0.00340729
0.00340289
0.00340718
0.00340296
0.00340709
0.00340307
0.00340698
0.00340317
0.00340688
0.00340332
0.00340682
0.00340346
0.00340671
0.00340363
0.00340664
0.00340378
0.00340655
0.00340396
0.00340649
0.00340412
0.0034064
0.0034043
0.00340636
0.00340447
0.00340631
0.00340466
0.00340629
0.00340481
0.00340623
0.00340497
0.00340623
0.00340514
0.00340624
0.00340533
0.00340626
0.00340544
0.0034062
0.00340555
0.0034062
0.0034057
0.0034063
0.00340588
0.0034063
0.00340591
0.00340623
0.00340598
0.00340628
0.00340615
0.00340647
0.00340629
0.00340644
0.00340624
0.00340631
0.00340621
0.00340638
0.00340644
0.00340662
0.00340657
0.00340658
0.00340638
0.00340629
0.00340628
0.00340643
0.00340656
0.0034068
0.00340676
0.00340667
0.00340644
0.00340624
0.00340622
0.0034064
0.00340665
0.00340698
0.0034069
0.00340677
0.00340641
0.00340607
0.00340608
0.00340634
0.0034067
0.00340719
0.00340712
0.00340688
0.00340619
0.00340565
0.00340576
0.00340602
0.00340656
0.00340543
0.00340656
0.00340693
0.00340684
0.00340694
0.00340597
0.00340561
0.00339628
0.00342498
0.00339108
0.00348226
0.00396525
0.00400296
0.00399975
0.004
)
;

boundaryField
{
    inlet
    {
        type            calculated;
        value           uniform 0;
    }
    outlet
    {
        type            calculated;
        value           uniform 0;
    }
    sideWall
    {
        type            empty;
    }
    bed
    {
        type            calculated;
        value           uniform 0;
    }
    topWall
    {
        type            calculated;
        value           uniform 0;
    }
}


// ************************************************************************* //
