/*--------------------------------*- C++ -*----------------------------------*\
| =========                 |                                                 |
| \\      /  F ield         | foam-extend: Open Source CFD                    |
|  \\    /   O peration     | Version:     3.2                                |
|   \\  /    A nd           | Web:         http://www.foam-extend.org         |
|    \\/     M anipulation  | For copyright notice see file Copyright         |
\*---------------------------------------------------------------------------*/
FoamFile
{
    version     2.0;
    format      ascii;
    class       regIOobject;
    location    "160/uniform";
    object      profilingInfo;
}
// * * * * * * * * * * * * * * * * * * * * * * * * * * * * * * * * * * * * * //

profilingInfo
(

    {
        id              33;
        parentId        30;
        description     "Foam::Time::writeObject - outputTime";
        calls           140;
        totalTime       518.726;
        childTime       0;
        onStack         1;
    }

    {
        id              30;
        parentId        1;
        description     "Foam::Time::writeObject";
        calls           14000;
        totalTime       518.775;
        childTime       518.726;
        onStack         1;
    }

    {
        id              1;
        description     "application::main";
        calls           1;
        totalTime       83841.3;
        childTime       65260.4;
        onStack         1;
    }

    {
        id              32;
        parentId        31;
        description     "FO::fieldMinMax1::execute";
        calls           13999;
        totalTime       0.598964;
        childTime       0;
        onStack         0;
    }

    {
        id              7;
        parentId        6;
        description     "FO::fieldMinMax1::start";
        calls           1;
        totalTime       0.000126;
        childTime       0;
        onStack         0;
    }

    {
        id              15;
        parentId        1;
        description     "MULES::explicitSolve";
        calls           28000;
        totalTime       383.321;
        childTime       0;
        onStack         0;
    }

    {
        id              6;
        parentId        5;
        description     "functionObjectList::read";
        calls           1;
        totalTime       0.000379;
        childTime       0.000126;
        onStack         0;
    }

    {
        id              31;
        parentId        1;
        description     "functionObjects_.execute()";
        calls           13999;
        totalTime       0.664404;
        childTime       0.598964;
        onStack         0;
    }

    {
        id              5;
        parentId        1;
        description     "functionObjects_.start()";
        calls           1;
        totalTime       0.000393;
        childTime       0.000379;
        onStack         0;
    }

    {
        id              8;
        parentId        1;
        description     "fvMatrix::solve_C1";
        calls           14000;
        totalTime       820.048;
        childTime       786.557;
        onStack         0;
    }

    {
        id              11;
        parentId        1;
        description     "fvMatrix::solve_C2";
        calls           14000;
        totalTime       37.241;
        childTime       29.2089;
        onStack         0;
    }

    {
        id              16;
        parentId        1;
        description     "fvMatrix::solve_U";
        calls           14000;
        totalTime       696.37;
        childTime       607.799;
        onStack         0;
    }

    {
        id              27;
        parentId        1;
        description     "fvMatrix::solve_k";
        calls           14000;
        totalTime       155.589;
        childTime       144.232;
        onStack         0;
    }

    {
        id              24;
        parentId        1;
        description     "fvMatrix::solve_omega";
        calls           14000;
        totalTime       268.03;
        childTime       232.521;
        onStack         0;
    }

    {
        id              2;
        parentId        1;
        description     "fvMatrix::solve_pcorr";
        calls           2;
        totalTime       0.85509;
        childTime       0.851597;
        onStack         0;
    }

    {
        id              21;
        parentId        1;
        description     "fvMatrix::solve_pd";
        calls           56000;
        totalTime       41288.4;
        childTime       41093.4;
        onStack         0;
    }

    {
        id              10;
        parentId        9;
        description     "lduMatrix::smoother_C1";
        calls           14000;
        totalTime       757.409;
        childTime       0;
        onStack         0;
    }

    {
        id              18;
        parentId        17;
        description     "lduMatrix::smoother_Ux";
        calls           14000;
        totalTime       240.495;
        childTime       0;
        onStack         0;
    }

    {
        id              20;
        parentId        19;
        description     "lduMatrix::smoother_Uz";
        calls           14000;
        totalTime       305.083;
        childTime       0;
        onStack         0;
    }

    {
        id              29;
        parentId        28;
        description     "lduMatrix::smoother_k";
        calls           14000;
        totalTime       115.566;
        childTime       0;
        onStack         0;
    }

    {
        id              26;
        parentId        25;
        description     "lduMatrix::smoother_omega";
        calls           14000;
        totalTime       203.018;
        childTime       0;
        onStack         0;
    }

    {
        id              9;
        parentId        8;
        description     "lduMatrix::solver_C1";
        calls           14000;
        totalTime       786.557;
        childTime       757.409;
        onStack         0;
    }

    {
        id              12;
        parentId        11;
        description     "lduMatrix::solver_C2";
        calls           14000;
        totalTime       29.2089;
        childTime       0;
        onStack         0;
    }

    {
        id              17;
        parentId        16;
        description     "lduMatrix::solver_Ux";
        calls           14000;
        totalTime       273.053;
        childTime       240.495;
        onStack         0;
    }

    {
        id              19;
        parentId        16;
        description     "lduMatrix::solver_Uz";
        calls           14000;
        totalTime       334.746;
        childTime       305.083;
        onStack         0;
    }

    {
        id              4;
        parentId        3;
        description     "lduMatrix::solver_coarsestLevelCorr";
        calls           51;
        totalTime       0.059135;
        childTime       0;
        onStack         0;
    }

    {
        id              23;
        parentId        22;
        description     "lduMatrix::solver_coarsestLevelCorr";
        calls           2542703;
        totalTime       2937.66;
        childTime       0;
        onStack         0;
    }

    {
        id              28;
        parentId        27;
        description     "lduMatrix::solver_k";
        calls           14000;
        totalTime       144.232;
        childTime       115.566;
        onStack         0;
    }

    {
        id              13;
        parentId        1;
        description     "lduMatrix::solver_motionUx";
        calls           14001;
        totalTime       955.953;
        childTime       0;
        onStack         0;
    }

    {
        id              14;
        parentId        1;
        description     "lduMatrix::solver_motionUz";
        calls           14001;
        totalTime       20135.2;
        childTime       0;
        onStack         0;
    }

    {
        id              25;
        parentId        24;
        description     "lduMatrix::solver_omega";
        calls           14000;
        totalTime       232.521;
        childTime       203.018;
        onStack         0;
    }

    {
        id              3;
        parentId        2;
        description     "lduMatrix::solver_pcorr";
        calls           2;
        totalTime       0.851597;
        childTime       0.059135;
        onStack         0;
    }

    {
        id              22;
        parentId        21;
        description     "lduMatrix::solver_pd";
        calls           56000;
        totalTime       41093.4;
        childTime       2937.66;
        onStack         0;
    }
);


// ************************************************************************* //
