/*--------------------------------*- C++ -*----------------------------------*\
| =========                 |                                                 |
| \\      /  F ield         | foam-extend: Open Source CFD                    |
|  \\    /   O peration     | Version:     3.2                                |
|   \\  /    A nd           | Web:         http://www.foam-extend.org         |
|    \\/     M anipulation  | For copyright notice see file Copyright         |
\*---------------------------------------------------------------------------*/
FoamFile
{
    version     2.0;
    format      ascii;
    class       surfaceScalarField;
    location    "120";
    object      AdSS2;
}
// * * * * * * * * * * * * * * * * * * * * * * * * * * * * * * * * * * * * * //

dimensions      [0 3 -1 0 0 0 0];

internalField   nonuniform List<scalar> 
65390
(
3.3631e-05
4.29559e-07
3.31624e-05
3.29138e-07
3.25528e-05
4.70135e-07
3.19548e-05
4.58489e-07
3.13371e-05
4.78181e-07
3.07661e-05
4.31617e-07
3.01995e-05
4.27057e-07
2.96675e-05
3.9257e-07
2.91441e-05
3.83889e-07
2.86484e-05
3.56306e-07
2.81653e-05
3.43611e-07
2.7707e-05
3.18768e-07
2.72643e-05
3.03299e-07
2.68388e-05
2.85986e-07
2.64273e-05
2.72076e-07
2.60337e-05
2.54086e-07
2.56573e-05
2.3697e-07
2.5298e-05
2.19839e-07
2.49526e-05
2.05878e-07
2.46205e-05
1.92634e-07
2.43011e-05
1.79959e-07
2.39946e-05
1.6697e-07
2.37015e-05
1.5371e-07
2.34222e-05
1.39775e-07
2.3157e-05
1.25737e-07
2.2906e-05
1.11487e-07
2.26688e-05
9.77916e-08
2.24406e-05
8.86916e-08
2.22243e-05
7.68524e-08
2.20242e-05
6.06204e-08
2.18411e-05
4.36639e-08
2.16729e-05
2.86987e-08
2.15143e-05
1.91508e-08
2.1363e-05
1.1835e-08
2.12179e-05
5.62822e-09
2.10795e-05
-1.1332e-09
2.09481e-05
-7.99345e-09
2.08233e-05
-1.47218e-08
2.07051e-05
-2.12439e-08
2.05932e-05
-2.76028e-08
2.04876e-05
-3.38089e-08
2.03878e-05
-3.97e-08
2.02936e-05
-4.52543e-08
2.02046e-05
-5.046e-08
2.01204e-05
-5.53411e-08
2.00409e-05
-5.99404e-08
1.99657e-05
-6.43074e-08
1.98947e-05
-6.845e-08
1.98276e-05
-7.23874e-08
1.97643e-05
-7.61185e-08
1.97045e-05
-7.96486e-08
1.9648e-05
-8.30176e-08
1.95947e-05
-8.61839e-08
1.95443e-05
-8.90871e-08
1.94966e-05
-9.17524e-08
1.94514e-05
-9.42258e-08
1.94085e-05
-9.65761e-08
1.93678e-05
-9.87792e-08
1.93291e-05
-1.00787e-07
1.92923e-05
-1.02648e-07
1.92572e-05
-1.0439e-07
1.92238e-05
-1.06035e-07
1.91919e-05
-1.07619e-07
1.91616e-05
-1.09121e-07
1.91326e-05
-1.10518e-07
1.9105e-05
-1.1181e-07
1.90785e-05
-1.12994e-07
1.90531e-05
-1.14089e-07
1.90287e-05
-1.15095e-07
1.90053e-05
-1.16024e-07
1.89827e-05
-1.16879e-07
1.89609e-05
-1.17668e-07
1.89398e-05
-1.18391e-07
1.89194e-05
-1.19108e-07
1.88998e-05
-1.19805e-07
1.88807e-05
-1.2036e-07
1.8862e-05
-1.20774e-07
1.88437e-05
-1.21164e-07
1.88258e-05
-1.21634e-07
1.88085e-05
-1.22104e-07
1.87915e-05
-1.22508e-07
1.87749e-05
-1.22887e-07
1.87587e-05
-1.23246e-07
1.87428e-05
-1.23592e-07
1.87273e-05
-1.23909e-07
1.8712e-05
-1.24202e-07
1.8697e-05
-1.24498e-07
1.86823e-05
-1.24802e-07
1.8668e-05
-1.25084e-07
1.86538e-05
-1.25265e-07
1.86397e-05
-1.25369e-07
1.86257e-05
-1.25541e-07
1.8612e-05
-1.25768e-07
1.85985e-05
-1.25998e-07
1.85853e-05
-1.26223e-07
1.85723e-05
-1.26464e-07
1.85596e-05
-1.26778e-07
1.85473e-05
-1.27154e-07
1.85352e-05
-1.27418e-07
1.85233e-05
-1.27569e-07
1.85116e-05
-1.27691e-07
1.84999e-05
-1.27776e-07
1.84882e-05
-1.27836e-07
1.84766e-05
-1.27865e-07
1.8465e-05
-1.27866e-07
1.84534e-05
-1.27838e-07
1.84417e-05
-1.27787e-07
1.84299e-05
-1.27715e-07
1.84181e-05
-1.27629e-07
1.84062e-05
-1.2753e-07
1.83942e-05
-1.27472e-07
1.83821e-05
-1.27371e-07
1.83698e-05
-1.27163e-07
1.83573e-05
-1.27038e-07
1.83448e-05
-1.26949e-07
1.83321e-05
-1.26814e-07
1.83194e-05
-1.26683e-07
1.83064e-05
-1.26544e-07
1.82934e-05
-1.26407e-07
1.82802e-05
-1.26267e-07
1.82668e-05
-1.26129e-07
1.82533e-05
-1.25989e-07
1.82397e-05
-1.2585e-07
1.8226e-05
-1.25709e-07
1.82121e-05
-1.25568e-07
1.8198e-05
-1.25429e-07
1.81838e-05
-1.25294e-07
1.81695e-05
-1.25163e-07
1.81551e-05
-1.25042e-07
1.81406e-05
-1.24937e-07
1.8126e-05
-1.2485e-07
1.81113e-05
-1.24782e-07
1.80965e-05
-1.24731e-07
1.80818e-05
-1.24697e-07
1.8067e-05
-1.24678e-07
1.80522e-05
-1.24671e-07
1.80374e-05
-1.24677e-07
1.80226e-05
-1.24695e-07
1.80078e-05
-1.24724e-07
1.79931e-05
-1.2476e-07
1.79785e-05
-1.24803e-07
1.79638e-05
-1.24853e-07
1.79493e-05
-1.24912e-07
1.79348e-05
-1.2498e-07
1.79204e-05
-1.25056e-07
1.79061e-05
-1.2514e-07
1.78918e-05
-1.25229e-07
1.78777e-05
-1.25322e-07
1.78636e-05
-1.2542e-07
1.78497e-05
-1.25521e-07
1.78358e-05
-1.25624e-07
1.78221e-05
-1.25725e-07
1.78084e-05
-1.25824e-07
1.77949e-05
-1.2592e-07
1.77814e-05
-1.26015e-07
1.77681e-05
-1.26108e-07
1.77548e-05
-1.262e-07
1.77416e-05
-1.26291e-07
1.77285e-05
-1.26384e-07
1.77155e-05
-1.26479e-07
1.77026e-05
-1.26583e-07
1.76899e-05
-1.26693e-07
1.76772e-05
-1.26813e-07
1.76647e-05
-1.2694e-07
1.76523e-05
-1.27074e-07
1.764e-05
-1.27215e-07
1.76279e-05
-1.27364e-07
1.7616e-05
-1.2752e-07
1.76042e-05
-1.27681e-07
1.75926e-05
-1.27849e-07
1.75811e-05
-1.28024e-07
1.75699e-05
-1.28209e-07
1.75588e-05
-1.28403e-07
1.75479e-05
-1.28605e-07
1.75373e-05
-1.28812e-07
1.75268e-05
-1.29027e-07
1.75166e-05
-1.29247e-07
1.75066e-05
-1.29469e-07
1.74968e-05
-1.29693e-07
1.74873e-05
-1.29916e-07
1.74779e-05
-1.30142e-07
1.74688e-05
-1.3037e-07
1.746e-05
-1.306e-07
1.74513e-05
-1.30832e-07
1.74429e-05
-1.31061e-07
1.74347e-05
-1.3129e-07
1.74268e-05
-1.31515e-07
1.7419e-05
-1.31735e-07
1.74115e-05
-1.3195e-07
1.74042e-05
-1.32162e-07
1.73971e-05
-1.3237e-07
1.73902e-05
-1.32576e-07
1.73835e-05
-1.32778e-07
1.7377e-05
-1.32976e-07
1.73707e-05
-1.33169e-07
1.73646e-05
-1.33357e-07
1.73587e-05
-1.33542e-07
1.73529e-05
-1.33723e-07
1.73474e-05
-1.33901e-07
1.7342e-05
-1.34076e-07
1.73368e-05
-1.34249e-07
1.73317e-05
-1.34419e-07
1.73268e-05
-1.34587e-07
1.73221e-05
-1.3472e-07
1.73174e-05
-1.34791e-07
1.73128e-05
-1.34833e-07
1.73082e-05
-1.34878e-07
1.73036e-05
-1.34919e-07
1.72991e-05
-1.34957e-07
1.72946e-05
-1.34991e-07
1.72902e-05
-1.35026e-07
1.72858e-05
-1.35059e-07
1.72814e-05
-1.35091e-07
1.7277e-05
-1.35116e-07
1.72727e-05
-1.35135e-07
1.72684e-05
-1.35144e-07
1.7264e-05
-1.35142e-07
1.72597e-05
-1.35125e-07
1.72553e-05
-1.35095e-07
1.72509e-05
-1.35051e-07
1.72464e-05
-1.34995e-07
1.72419e-05
-1.34928e-07
1.72373e-05
-1.34852e-07
1.72326e-05
-1.34767e-07
1.72278e-05
-1.34676e-07
1.72229e-05
-1.34582e-07
1.72179e-05
-1.34486e-07
1.72128e-05
-1.34388e-07
1.72076e-05
-1.34289e-07
1.72024e-05
-1.34188e-07
1.7197e-05
-1.34089e-07
1.71915e-05
-1.33992e-07
1.71859e-05
-1.339e-07
1.71803e-05
-1.33816e-07
1.71745e-05
-1.33743e-07
1.71688e-05
-1.33682e-07
1.71629e-05
-1.33632e-07
1.7157e-05
-1.33594e-07
1.71511e-05
-1.33564e-07
1.71452e-05
-1.33544e-07
1.71393e-05
-1.3353e-07
1.71333e-05
-1.33522e-07
1.71274e-05
-1.3352e-07
1.71214e-05
-1.33519e-07
1.71155e-05
-1.33521e-07
1.71095e-05
-1.33521e-07
1.71036e-05
-1.3352e-07
1.70976e-05
-1.33517e-07
1.70917e-05
-1.33515e-07
1.70857e-05
-1.33512e-07
1.70797e-05
-1.33508e-07
1.70738e-05
-1.33501e-07
1.70678e-05
-1.33489e-07
1.70618e-05
-1.33474e-07
1.70558e-05
-1.33455e-07
1.70497e-05
-1.33437e-07
1.70437e-05
-1.33423e-07
1.70376e-05
-1.33415e-07
1.70316e-05
-1.33418e-07
1.70255e-05
-1.33427e-07
1.70195e-05
-1.3344e-07
1.70135e-05
-1.33457e-07
1.70075e-05
-1.33481e-07
1.70015e-05
-1.33512e-07
1.69956e-05
-1.33552e-07
1.69898e-05
-1.33603e-07
1.6984e-05
-1.33667e-07
1.69782e-05
-1.33744e-07
1.69726e-05
-1.33834e-07
1.69671e-05
-1.33934e-07
1.69616e-05
-1.34043e-07
1.69563e-05
-1.34161e-07
1.69511e-05
-1.34289e-07
1.69461e-05
-1.34423e-07
1.69412e-05
-1.34559e-07
1.69364e-05
-1.34695e-07
1.69318e-05
-1.34829e-07
1.69273e-05
-1.34959e-07
1.69229e-05
-1.3508e-07
1.69186e-05
-1.35192e-07
1.69144e-05
-1.35296e-07
1.69103e-05
-1.35387e-07
1.69063e-05
-1.35466e-07
1.69024e-05
-1.35535e-07
1.68985e-05
-1.35599e-07
1.68947e-05
-1.35659e-07
1.6891e-05
-1.35717e-07
1.68873e-05
-1.35771e-07
1.68836e-05
-1.35822e-07
1.688e-05
-1.35869e-07
1.68764e-05
-1.35913e-07
1.68729e-05
-1.35951e-07
1.68694e-05
-1.35986e-07
1.6866e-05
-1.36018e-07
1.68626e-05
-1.3605e-07
1.68592e-05
-1.36083e-07
1.68558e-05
-1.36124e-07
1.68525e-05
-1.36177e-07
1.68493e-05
-1.36228e-07
1.68461e-05
-1.36275e-07
1.6843e-05
-1.36328e-07
1.68399e-05
-1.36388e-07
1.68369e-05
-1.36459e-07
1.68339e-05
-1.36533e-07
1.68311e-05
-1.36607e-07
1.68283e-05
-1.36681e-07
1.68256e-05
-1.36755e-07
1.68229e-05
-1.3683e-07
1.68204e-05
-1.36907e-07
1.68179e-05
-1.36985e-07
1.68155e-05
-1.37071e-07
1.68132e-05
-1.37162e-07
1.6811e-05
-1.37254e-07
1.68088e-05
-1.37342e-07
1.68068e-05
-1.3743e-07
1.68048e-05
-1.37515e-07
1.6803e-05
-1.37597e-07
1.68012e-05
-1.37671e-07
1.67994e-05
-1.37738e-07
1.67977e-05
-1.37795e-07
1.67961e-05
-1.3784e-07
1.67945e-05
-1.37868e-07
1.67929e-05
-1.37869e-07
1.67913e-05
-1.37846e-07
1.67896e-05
-1.37814e-07
1.67879e-05
-1.37773e-07
1.67862e-05
-1.37723e-07
1.67844e-05
-1.37664e-07
1.67825e-05
-1.37592e-07
1.67805e-05
-1.37508e-07
1.67785e-05
-1.37411e-07
1.67763e-05
-1.37301e-07
1.6774e-05
-1.37181e-07
1.67716e-05
-1.3705e-07
1.6769e-05
-1.36909e-07
1.67663e-05
-1.36761e-07
1.67635e-05
-1.36608e-07
1.67605e-05
-1.36457e-07
1.67573e-05
-1.36311e-07
1.6754e-05
-1.36176e-07
1.67506e-05
-1.36052e-07
1.67471e-05
-1.35938e-07
1.67434e-05
-1.35833e-07
1.67397e-05
-1.35731e-07
1.67358e-05
-1.35633e-07
1.67319e-05
-1.35536e-07
1.67279e-05
-1.3544e-07
1.67237e-05
-1.35344e-07
1.67195e-05
-1.35252e-07
1.67152e-05
-1.35167e-07
1.67108e-05
-1.35087e-07
1.67064e-05
-1.35012e-07
1.67019e-05
-1.34939e-07
1.66972e-05
-1.34866e-07
1.66926e-05
-1.34791e-07
1.66878e-05
-1.34713e-07
1.6683e-05
-1.34631e-07
1.6678e-05
-1.34541e-07
1.6673e-05
-1.34449e-07
1.66679e-05
-1.34358e-07
1.66627e-05
-1.34275e-07
1.66574e-05
-1.34197e-07
1.66521e-05
-1.34129e-07
1.66467e-05
-1.34064e-07
1.66412e-05
-1.34003e-07
1.66357e-05
-1.33941e-07
1.66301e-05
-1.3388e-07
1.66245e-05
-1.33819e-07
1.66187e-05
-1.3376e-07
1.6613e-05
-1.33703e-07
1.66072e-05
-1.33649e-07
1.66013e-05
-1.33597e-07
1.65954e-05
-1.33543e-07
1.65894e-05
-1.33489e-07
1.65833e-05
-1.33434e-07
1.65772e-05
-1.33379e-07
1.65711e-05
-1.33322e-07
1.65649e-05
-1.33266e-07
1.65586e-05
-1.33212e-07
1.65523e-05
-1.33163e-07
1.6546e-05
-1.33118e-07
1.65396e-05
-1.33077e-07
1.65332e-05
-1.33036e-07
1.65267e-05
-1.32995e-07
1.65202e-05
-1.32951e-07
1.65136e-05
-1.32903e-07
1.6507e-05
-1.32849e-07
1.65003e-05
-1.32792e-07
1.64935e-05
-1.3273e-07
1.64867e-05
-1.32665e-07
1.64799e-05
-1.32598e-07
1.64729e-05
-1.32532e-07
1.64659e-05
-1.32467e-07
1.64589e-05
-1.32399e-07
1.64517e-05
-1.32332e-07
1.64445e-05
-1.3227e-07
1.64373e-05
-1.32211e-07
1.64299e-05
-1.32157e-07
1.64226e-05
-1.32112e-07
1.64152e-05
-1.32077e-07
1.64078e-05
-1.32056e-07
1.64004e-05
-1.3205e-07
1.6393e-05
-1.32062e-07
1.63856e-05
-1.32093e-07
1.63783e-05
-1.32146e-07
1.6371e-05
-1.32217e-07
1.63638e-05
-1.32309e-07
1.63568e-05
-1.32416e-07
1.63499e-05
-1.32543e-07
1.63431e-05
-1.32685e-07
1.63364e-05
-1.32841e-07
1.633e-05
-1.33003e-07
1.63237e-05
-1.33169e-07
1.63175e-05
-1.33331e-07
1.63115e-05
-1.33483e-07
1.63057e-05
-1.33622e-07
1.63e-05
-1.33742e-07
1.62943e-05
-1.33843e-07
1.62888e-05
-1.33925e-07
1.62833e-05
-1.33991e-07
1.62779e-05
-1.34043e-07
1.62725e-05
-1.34087e-07
1.62672e-05
-1.34126e-07
1.62619e-05
-1.34163e-07
1.62566e-05
-1.34201e-07
1.62514e-05
-1.3424e-07
1.62462e-05
-1.34285e-07
1.6241e-05
-1.34336e-07
1.6236e-05
-1.34392e-07
1.62309e-05
-1.34456e-07
1.6226e-05
-1.34528e-07
1.62211e-05
-1.3461e-07
1.62164e-05
-1.34701e-07
1.62117e-05
-1.34805e-07
1.62072e-05
-1.34921e-07
1.62027e-05
-1.35049e-07
1.61985e-05
-1.35187e-07
1.61943e-05
-1.35333e-07
1.61903e-05
-1.35482e-07
1.61865e-05
-1.35633e-07
1.61828e-05
-1.35778e-07
1.61792e-05
-1.35919e-07
1.61758e-05
-1.36052e-07
1.61725e-05
-1.36181e-07
1.61694e-05
-1.36301e-07
1.61663e-05
-1.36415e-07
1.61634e-05
-1.3652e-07
1.61605e-05
-1.36621e-07
1.61578e-05
-1.36712e-07
1.61551e-05
-1.36793e-07
1.61525e-05
-1.36857e-07
1.61499e-05
-1.36904e-07
1.61474e-05
-1.36929e-07
1.61448e-05
-1.36936e-07
1.61423e-05
-1.36923e-07
1.61397e-05
-1.36898e-07
1.61371e-05
-1.36863e-07
1.61344e-05
-1.3682e-07
1.61317e-05
-1.36773e-07
1.6129e-05
-1.36721e-07
1.61262e-05
-1.36662e-07
1.61233e-05
-1.36598e-07
1.61204e-05
-1.36528e-07
1.61174e-05
-1.36458e-07
1.61143e-05
-1.36388e-07
1.61111e-05
-1.36319e-07
1.61079e-05
-1.36254e-07
1.61046e-05
-1.36194e-07
1.61013e-05
-1.36139e-07
1.60979e-05
-1.36091e-07
1.60945e-05
-1.36048e-07
1.6091e-05
-1.3601e-07
1.60876e-05
-1.35976e-07
1.6084e-05
-1.35946e-07
1.60805e-05
-1.35912e-07
1.60769e-05
-1.35873e-07
1.60732e-05
-1.35827e-07
1.60695e-05
-1.35774e-07
1.60658e-05
-1.35708e-07
1.60619e-05
-1.35632e-07
1.6058e-05
-1.35543e-07
1.6054e-05
-1.3545e-07
1.60499e-05
-1.35349e-07
1.60456e-05
-1.35244e-07
1.60413e-05
-1.35131e-07
1.60368e-05
-1.3502e-07
1.60323e-05
-1.349e-07
1.60276e-05
-1.3478e-07
1.60228e-05
-1.34649e-07
1.60178e-05
-1.34515e-07
1.60127e-05
-1.34365e-07
1.60074e-05
-1.34215e-07
1.6002e-05
-1.34053e-07
1.59965e-05
-1.33912e-07
1.59908e-05
-1.33777e-07
1.5985e-05
-1.33666e-07
1.59791e-05
-1.33565e-07
1.59731e-05
-1.33494e-07
1.5967e-05
-1.33423e-07
1.59609e-05
-1.33369e-07
1.59548e-05
-1.33297e-07
1.59485e-05
-1.33227e-07
1.59422e-05
-1.33126e-07
1.59357e-05
-1.33022e-07
1.59291e-05
-1.3288e-07
1.59224e-05
-1.32745e-07
1.59155e-05
-1.32575e-07
1.59085e-05
-1.32423e-07
1.59012e-05
-1.32232e-07
1.58938e-05
-1.32074e-07
1.58862e-05
-1.31871e-07
1.58785e-05
-1.31714e-07
1.58705e-05
-1.31498e-07
1.58624e-05
-1.31349e-07
1.5854e-05
-1.3113e-07
1.58456e-05
-1.31015e-07
1.58369e-05
-1.30823e-07
1.58282e-05
-1.30766e-07
1.58194e-05
-1.30596e-07
1.58105e-05
-1.30582e-07
1.58014e-05
-1.30394e-07
1.57923e-05
-1.30385e-07
1.5783e-05
-1.3013e-07
1.57736e-05
-1.30083e-07
1.57638e-05
-1.29677e-07
1.57537e-05
-1.29407e-07
1.57431e-05
-1.28871e-07
1.57314e-05
-1.27732e-07
1.57183e-05
-1.26414e-07
1.57026e-05
-1.23734e-07
1.56834e-05
-1.20245e-07
1.56588e-05
-1.14931e-07
1.56266e-05
-1.07211e-07
1.55839e-05
-9.68308e-08
1.5527e-05
-8.25281e-08
1.54461e-05
-5.8546e-08
1.53629e-05
-5.63317e-08
1.50849e-05
1.38592e-07
1.4586e-05
3.59353e-07
1.40739e-05
3.72668e-07
1.34414e-05
4.9299e-07
1.25514e-05
7.50623e-07
1.12486e-05
1.16327e-06
9.58794e-06
1.52121e-06
7.39404e-06
2.05443e-06
4.00781e-06
3.24675e-06
9.053e-07
2.96304e-06
-9.70752e-07
1.73658e-06
-2.65157e-06
1.54135e-06
-2.79104e-06
3.39968e-05
6.32733e-07
3.37935e-05
5.32479e-07
3.34334e-05
8.30211e-07
3.30643e-05
8.27572e-07
3.27145e-05
8.28028e-07
3.23922e-05
7.53887e-07
3.20717e-05
7.47533e-07
3.18067e-05
6.57638e-07
3.15705e-05
6.20014e-07
3.13696e-05
5.57266e-07
3.1177e-05
5.36189e-07
3.09967e-05
4.9905e-07
3.08156e-05
4.84394e-07
3.06387e-05
4.62873e-07
3.04599e-05
4.50954e-07
3.02807e-05
4.33243e-07
3.00921e-05
4.25561e-07
2.9898e-05
4.13934e-07
2.97028e-05
4.01067e-07
2.95089e-05
3.86554e-07
2.93164e-05
3.72495e-07
2.91244e-05
3.58981e-07
2.89335e-05
3.44599e-07
2.87439e-05
3.29338e-07
2.85561e-05
3.13592e-07
2.83695e-05
2.9808e-07
2.81847e-05
2.82523e-07
2.80017e-05
2.7175e-07
2.78231e-05
2.55387e-07
2.76503e-05
2.33428e-07
2.74864e-05
2.07594e-07
2.73312e-05
1.83847e-07
2.71821e-05
1.68308e-07
2.70375e-05
1.56461e-07
2.68953e-05
1.4777e-07
2.67564e-05
1.37769e-07
2.66206e-05
1.27802e-07
2.64885e-05
1.17386e-07
2.63601e-05
1.07214e-07
2.62355e-05
9.69943e-08
2.61149e-05
8.6757e-08
2.59983e-05
7.68817e-08
2.58855e-05
6.75622e-08
2.57763e-05
5.87252e-08
2.56707e-05
5.02836e-08
2.55685e-05
4.22425e-08
2.54693e-05
3.48911e-08
2.53729e-05
2.80022e-08
2.52791e-05
2.13649e-08
2.5188e-05
1.49544e-08
2.50996e-05
8.77975e-09
2.50138e-05
2.76342e-09
2.49307e-05
-3.03277e-09
2.48501e-05
-8.51465e-09
2.4772e-05
-1.36901e-08
2.46964e-05
-1.85834e-08
2.46231e-05
-2.33179e-08
2.45522e-05
-2.78683e-08
2.44835e-05
-3.20867e-08
2.44169e-05
-3.6056e-08
2.43524e-05
-3.98418e-08
2.42898e-05
-4.34745e-08
2.42292e-05
-4.70082e-08
2.41705e-05
-5.0401e-08
2.41136e-05
-5.35964e-08
2.40584e-05
-5.66102e-08
2.40048e-05
-5.94283e-08
2.39528e-05
-6.20839e-08
2.39023e-05
-6.45802e-08
2.38532e-05
-6.69301e-08
2.38055e-05
-6.91423e-08
2.3759e-05
-7.12453e-08
2.37139e-05
-7.323e-08
2.367e-05
-7.51888e-08
2.36273e-05
-7.71566e-08
2.35858e-05
-7.8876e-08
2.35453e-05
-8.02831e-08
2.35058e-05
-8.16097e-08
2.34672e-05
-8.30818e-08
2.34297e-05
-8.45942e-08
2.33931e-05
-8.59352e-08
2.33575e-05
-8.72197e-08
2.33227e-05
-8.84628e-08
2.32888e-05
-8.96828e-08
2.32557e-05
-9.08594e-08
2.32235e-05
-9.19719e-08
2.31921e-05
-9.309e-08
2.31615e-05
-9.42167e-08
2.31317e-05
-9.53162e-08
2.31027e-05
-9.62128e-08
2.30742e-05
-9.69157e-08
2.30463e-05
-9.75866e-08
2.30189e-05
-9.83497e-08
2.29919e-05
-9.90597e-08
2.29654e-05
-9.97155e-08
2.29392e-05
-1.00266e-07
2.29132e-05
-1.00754e-07
2.28875e-05
-1.01477e-07
2.28622e-05
-1.02071e-07
2.2837e-05
-1.02383e-07
2.28119e-05
-1.02654e-07
2.27871e-05
-1.02883e-07
2.27623e-05
-1.03071e-07
2.27376e-05
-1.03213e-07
2.27131e-05
-1.03312e-07
2.26886e-05
-1.03356e-07
2.26642e-05
-1.03366e-07
2.26398e-05
-1.03336e-07
2.26155e-05
-1.03292e-07
2.25912e-05
-1.03228e-07
2.25669e-05
-1.03216e-07
2.25428e-05
-1.03217e-07
2.25185e-05
-1.02957e-07
2.24943e-05
-1.02813e-07
2.24702e-05
-1.02826e-07
2.24461e-05
-1.02717e-07
2.2422e-05
-1.0262e-07
2.2398e-05
-1.02516e-07
2.2374e-05
-1.0241e-07
2.23501e-05
-1.02312e-07
2.23261e-05
-1.02218e-07
2.23023e-05
-1.02134e-07
2.22785e-05
-1.02053e-07
2.22548e-05
-1.01975e-07
2.22311e-05
-1.01894e-07
2.22075e-05
-1.01816e-07
2.21839e-05
-1.01738e-07
2.21604e-05
-1.01666e-07
2.2137e-05
-1.01608e-07
2.21136e-05
-1.01577e-07
2.20904e-05
-1.01577e-07
2.20672e-05
-1.01614e-07
2.20441e-05
-1.01684e-07
2.20212e-05
-1.01785e-07
2.19985e-05
-1.01913e-07
2.19759e-05
-1.02066e-07
2.19534e-05
-1.02242e-07
2.19312e-05
-1.0244e-07
2.19091e-05
-1.02656e-07
2.18872e-05
-1.02885e-07
2.18655e-05
-1.03125e-07
2.18441e-05
-1.03376e-07
2.18228e-05
-1.03643e-07
2.18017e-05
-1.03923e-07
2.17809e-05
-1.04215e-07
2.17603e-05
-1.04515e-07
2.17399e-05
-1.04819e-07
2.17197e-05
-1.05126e-07
2.16997e-05
-1.0544e-07
2.16799e-05
-1.05759e-07
2.16604e-05
-1.06079e-07
2.16411e-05
-1.06394e-07
2.16219e-05
-1.06701e-07
2.1603e-05
-1.06998e-07
2.15843e-05
-1.07287e-07
2.15657e-05
-1.07569e-07
2.15474e-05
-1.07845e-07
2.15292e-05
-1.08116e-07
2.15112e-05
-1.0838e-07
2.14934e-05
-1.08644e-07
2.14757e-05
-1.08919e-07
2.14582e-05
-1.09207e-07
2.14409e-05
-1.09512e-07
2.14238e-05
-1.09829e-07
2.14069e-05
-1.10157e-07
2.13902e-05
-1.10496e-07
2.13737e-05
-1.10847e-07
2.13573e-05
-1.11211e-07
2.13413e-05
-1.11587e-07
2.13254e-05
-1.11976e-07
2.13097e-05
-1.12381e-07
2.12943e-05
-1.12802e-07
2.12792e-05
-1.1324e-07
2.12643e-05
-1.13692e-07
2.12496e-05
-1.14148e-07
2.12352e-05
-1.14614e-07
2.1221e-05
-1.15082e-07
2.12071e-05
-1.15549e-07
2.11934e-05
-1.16012e-07
2.118e-05
-1.16471e-07
2.11668e-05
-1.16932e-07
2.11538e-05
-1.17396e-07
2.1141e-05
-1.1786e-07
2.11285e-05
-1.18325e-07
2.11162e-05
-1.18777e-07
2.11042e-05
-1.19222e-07
2.10923e-05
-1.19648e-07
2.10806e-05
-1.2006e-07
2.10691e-05
-1.20457e-07
2.10578e-05
-1.20839e-07
2.10467e-05
-1.21213e-07
2.10357e-05
-1.21579e-07
2.10248e-05
-1.21938e-07
2.10141e-05
-1.22286e-07
2.10036e-05
-1.22621e-07
2.09932e-05
-1.22951e-07
2.09829e-05
-1.23273e-07
2.09728e-05
-1.23595e-07
2.09628e-05
-1.23917e-07
2.0953e-05
-1.24238e-07
2.09433e-05
-1.24563e-07
2.09337e-05
-1.24884e-07
2.09244e-05
-1.25204e-07
2.09151e-05
-1.25491e-07
2.09061e-05
-1.25739e-07
2.08972e-05
-1.25971e-07
2.08885e-05
-1.262e-07
2.088e-05
-1.26414e-07
2.08717e-05
-1.26615e-07
2.08635e-05
-1.26802e-07
2.08555e-05
-1.26982e-07
2.08476e-05
-1.27155e-07
2.08398e-05
-1.2732e-07
2.08321e-05
-1.27465e-07
2.08246e-05
-1.2759e-07
2.08171e-05
-1.27685e-07
2.08097e-05
-1.27748e-07
2.08024e-05
-1.27774e-07
2.07951e-05
-1.27765e-07
2.07877e-05
-1.27723e-07
2.07804e-05
-1.27654e-07
2.0773e-05
-1.27563e-07
2.07656e-05
-1.27452e-07
2.07582e-05
-1.27326e-07
2.07507e-05
-1.27191e-07
2.07432e-05
-1.2705e-07
2.07356e-05
-1.26903e-07
2.07279e-05
-1.26749e-07
2.07202e-05
-1.26587e-07
2.07125e-05
-1.26419e-07
2.07046e-05
-1.26248e-07
2.06967e-05
-1.26081e-07
2.06887e-05
-1.25925e-07
2.06807e-05
-1.25784e-07
2.06726e-05
-1.25666e-07
2.06645e-05
-1.25572e-07
2.06564e-05
-1.255e-07
2.06482e-05
-1.25448e-07
2.06401e-05
-1.25413e-07
2.06319e-05
-1.25393e-07
2.06238e-05
-1.25387e-07
2.06157e-05
-1.25391e-07
2.06076e-05
-1.25407e-07
2.05995e-05
-1.25427e-07
2.05914e-05
-1.25452e-07
2.05834e-05
-1.25475e-07
2.05753e-05
-1.25497e-07
2.05673e-05
-1.25513e-07
2.05593e-05
-1.2553e-07
2.05514e-05
-1.25543e-07
2.05434e-05
-1.25555e-07
2.05355e-05
-1.2556e-07
2.05275e-05
-1.25556e-07
2.05196e-05
-1.25543e-07
2.05117e-05
-1.25522e-07
2.05037e-05
-1.25499e-07
2.04958e-05
-1.25482e-07
2.04879e-05
-1.25479e-07
2.04799e-05
-1.25497e-07
2.0472e-05
-1.2553e-07
2.04642e-05
-1.25575e-07
2.04564e-05
-1.25626e-07
2.04486e-05
-1.25689e-07
2.04408e-05
-1.25761e-07
2.04331e-05
-1.25852e-07
2.04255e-05
-1.25966e-07
2.04179e-05
-1.26105e-07
2.04104e-05
-1.2627e-07
2.04031e-05
-1.26462e-07
2.03958e-05
-1.26673e-07
2.03887e-05
-1.26903e-07
2.03816e-05
-1.27148e-07
2.03748e-05
-1.27413e-07
2.0368e-05
-1.27689e-07
2.03615e-05
-1.27971e-07
2.0355e-05
-1.28253e-07
2.03487e-05
-1.28531e-07
2.03426e-05
-1.288e-07
2.03365e-05
-1.2905e-07
2.03306e-05
-1.29283e-07
2.03248e-05
-1.29497e-07
2.03191e-05
-1.29686e-07
2.03135e-05
-1.29851e-07
2.0308e-05
-1.29996e-07
2.03025e-05
-1.30128e-07
2.02971e-05
-1.30254e-07
2.02917e-05
-1.30376e-07
2.02865e-05
-1.30492e-07
2.02812e-05
-1.30604e-07
2.02761e-05
-1.3071e-07
2.0271e-05
-1.30814e-07
2.02659e-05
-1.30909e-07
2.0261e-05
-1.30995e-07
2.0256e-05
-1.31073e-07
2.02511e-05
-1.31149e-07
2.02462e-05
-1.31224e-07
2.02414e-05
-1.31307e-07
2.02367e-05
-1.31408e-07
2.02319e-05
-1.31508e-07
2.02273e-05
-1.31608e-07
2.02227e-05
-1.31718e-07
2.02181e-05
-1.31845e-07
2.02137e-05
-1.31991e-07
2.02093e-05
-1.32142e-07
2.02049e-05
-1.32291e-07
2.02007e-05
-1.32434e-07
2.01965e-05
-1.32574e-07
2.01924e-05
-1.32711e-07
2.01883e-05
-1.3285e-07
2.01843e-05
-1.32994e-07
2.01804e-05
-1.33154e-07
2.01766e-05
-1.33325e-07
2.01728e-05
-1.33501e-07
2.01692e-05
-1.33673e-07
2.01656e-05
-1.33847e-07
2.01621e-05
-1.34017e-07
2.01587e-05
-1.34184e-07
2.01553e-05
-1.34336e-07
2.01521e-05
-1.34477e-07
2.01489e-05
-1.34595e-07
2.01457e-05
-1.34693e-07
2.01426e-05
-1.34757e-07
2.01395e-05
-1.34789e-07
2.01365e-05
-1.34796e-07
2.01335e-05
-1.34776e-07
2.01304e-05
-1.34734e-07
2.01274e-05
-1.34668e-07
2.01243e-05
-1.34577e-07
2.01211e-05
-1.34455e-07
2.01179e-05
-1.34305e-07
2.01146e-05
-1.34125e-07
2.01113e-05
-1.33919e-07
2.01078e-05
-1.33692e-07
2.01042e-05
-1.33444e-07
2.01004e-05
-1.33175e-07
2.00966e-05
-1.32889e-07
2.00925e-05
-1.32594e-07
2.00884e-05
-1.32299e-07
2.00841e-05
-1.32012e-07
2.00797e-05
-1.31744e-07
2.00751e-05
-1.31501e-07
2.00705e-05
-1.31284e-07
2.00657e-05
-1.31087e-07
2.00609e-05
-1.30901e-07
2.0056e-05
-1.30718e-07
2.0051e-05
-1.30532e-07
2.00459e-05
-1.30343e-07
2.00407e-05
-1.30155e-07
2.00354e-05
-1.29976e-07
2.003e-05
-1.29811e-07
2.00246e-05
-1.29658e-07
2.00191e-05
-1.29519e-07
2.00136e-05
-1.29387e-07
2.0008e-05
-1.29258e-07
2.00023e-05
-1.29131e-07
1.99966e-05
-1.28996e-07
1.99908e-05
-1.28851e-07
1.99849e-05
-1.28686e-07
1.9979e-05
-1.28511e-07
1.9973e-05
-1.28332e-07
1.99669e-05
-1.2817e-07
1.99607e-05
-1.28023e-07
1.99545e-05
-1.27901e-07
1.99482e-05
-1.27788e-07
1.99419e-05
-1.27679e-07
1.99355e-05
-1.27565e-07
1.99291e-05
-1.27448e-07
1.99226e-05
-1.27328e-07
1.9916e-05
-1.2721e-07
1.99094e-05
-1.271e-07
1.99028e-05
-1.26996e-07
1.98961e-05
-1.26899e-07
1.98893e-05
-1.26799e-07
1.98825e-05
-1.26701e-07
1.98757e-05
-1.26598e-07
1.98688e-05
-1.2649e-07
1.98619e-05
-1.26374e-07
1.98549e-05
-1.26257e-07
1.98478e-05
-1.26143e-07
1.98407e-05
-1.26039e-07
1.98335e-05
-1.25946e-07
1.98263e-05
-1.25862e-07
1.9819e-05
-1.25783e-07
1.98117e-05
-1.25705e-07
1.98044e-05
-1.2562e-07
1.9797e-05
-1.25528e-07
1.97896e-05
-1.25424e-07
1.97821e-05
-1.25311e-07
1.97746e-05
-1.25187e-07
1.9767e-05
-1.25055e-07
1.97593e-05
-1.24919e-07
1.97515e-05
-1.24786e-07
1.97437e-05
-1.24656e-07
1.97359e-05
-1.24534e-07
1.9728e-05
-1.24421e-07
1.972e-05
-1.2431e-07
1.9712e-05
-1.24201e-07
1.97039e-05
-1.24096e-07
1.96958e-05
-1.24005e-07
1.96877e-05
-1.23933e-07
1.96795e-05
-1.23888e-07
1.96713e-05
-1.23868e-07
1.96631e-05
-1.23878e-07
1.9655e-05
-1.2392e-07
1.96468e-05
-1.24002e-07
1.96387e-05
-1.24118e-07
1.96307e-05
-1.24274e-07
1.96227e-05
-1.24459e-07
1.96149e-05
-1.24687e-07
1.96071e-05
-1.24949e-07
1.95995e-05
-1.25245e-07
1.95921e-05
-1.25556e-07
1.95848e-05
-1.25877e-07
1.95777e-05
-1.26193e-07
1.95707e-05
-1.26494e-07
1.95638e-05
-1.2677e-07
1.95571e-05
-1.27009e-07
1.95505e-05
-1.27213e-07
1.95439e-05
-1.27377e-07
1.95374e-05
-1.27508e-07
1.9531e-05
-1.27613e-07
1.95246e-05
-1.27703e-07
1.95183e-05
-1.27785e-07
1.9512e-05
-1.27867e-07
1.95057e-05
-1.2795e-07
1.94995e-05
-1.28039e-07
1.94934e-05
-1.28135e-07
1.94873e-05
-1.28243e-07
1.94813e-05
-1.28362e-07
1.94753e-05
-1.28493e-07
1.94694e-05
-1.28637e-07
1.94636e-05
-1.28799e-07
1.94579e-05
-1.28976e-07
1.94522e-05
-1.2918e-07
1.94467e-05
-1.29404e-07
1.94413e-05
-1.29656e-07
1.94361e-05
-1.29926e-07
1.9431e-05
-1.30214e-07
1.9426e-05
-1.30511e-07
1.94212e-05
-1.30813e-07
1.94165e-05
-1.31109e-07
1.9412e-05
-1.31397e-07
1.94076e-05
-1.31671e-07
1.94033e-05
-1.31929e-07
1.93992e-05
-1.32166e-07
1.93952e-05
-1.32387e-07
1.93913e-05
-1.3259e-07
1.93874e-05
-1.32784e-07
1.93837e-05
-1.32965e-07
1.938e-05
-1.33131e-07
1.93764e-05
-1.3327e-07
1.93729e-05
-1.33379e-07
1.93694e-05
-1.33444e-07
1.93659e-05
-1.33468e-07
1.93625e-05
-1.33448e-07
1.9359e-05
-1.33397e-07
1.93554e-05
-1.33323e-07
1.93518e-05
-1.33236e-07
1.93482e-05
-1.33143e-07
1.93445e-05
-1.33041e-07
1.93408e-05
-1.3293e-07
1.9337e-05
-1.32803e-07
1.93331e-05
-1.32664e-07
1.93292e-05
-1.32515e-07
1.93252e-05
-1.32365e-07
1.93211e-05
-1.3221e-07
1.93169e-05
-1.32065e-07
1.93126e-05
-1.31929e-07
1.93083e-05
-1.31808e-07
1.93039e-05
-1.31698e-07
1.92994e-05
-1.31605e-07
1.9295e-05
-1.31519e-07
1.92904e-05
-1.31451e-07
1.92859e-05
-1.31391e-07
1.92813e-05
-1.3134e-07
1.92767e-05
-1.31278e-07
1.92721e-05
-1.3121e-07
1.92674e-05
-1.31117e-07
1.92627e-05
-1.31005e-07
1.9258e-05
-1.3086e-07
1.92531e-05
-1.30705e-07
1.92482e-05
-1.30528e-07
1.92432e-05
-1.30354e-07
1.92381e-05
-1.30161e-07
1.9233e-05
-1.29971e-07
1.92277e-05
-1.29761e-07
1.92224e-05
-1.29558e-07
1.92169e-05
-1.29329e-07
1.92114e-05
-1.29107e-07
1.92057e-05
-1.28845e-07
1.91999e-05
-1.28578e-07
1.9194e-05
-1.28266e-07
1.91879e-05
-1.2797e-07
1.91816e-05
-1.27658e-07
1.91752e-05
-1.27399e-07
1.91687e-05
-1.27142e-07
1.91621e-05
-1.26969e-07
1.91554e-05
-1.26803e-07
1.91487e-05
-1.26711e-07
1.91419e-05
-1.26581e-07
1.91351e-05
-1.26495e-07
1.91282e-05
-1.26322e-07
1.91213e-05
-1.26175e-07
1.91142e-05
-1.25918e-07
1.9107e-05
-1.2569e-07
1.90996e-05
-1.2536e-07
1.90921e-05
-1.25079e-07
1.90844e-05
-1.24701e-07
1.90765e-05
-1.24382e-07
1.90684e-05
-1.23984e-07
1.90602e-05
-1.23657e-07
1.90518e-05
-1.23273e-07
1.90432e-05
-1.2295e-07
1.90345e-05
-1.22567e-07
1.90256e-05
-1.22247e-07
1.90165e-05
-1.21899e-07
1.90073e-05
-1.21619e-07
1.89979e-05
-1.21368e-07
1.89884e-05
-1.21135e-07
1.89788e-05
-1.2096e-07
1.89691e-05
-1.20718e-07
1.89592e-05
-1.20537e-07
1.89493e-05
-1.20219e-07
1.89392e-05
-1.19974e-07
1.8929e-05
-1.19403e-07
1.89184e-05
-1.18815e-07
1.89073e-05
-1.17846e-07
1.88954e-05
-1.15774e-07
1.88824e-05
-1.13427e-07
1.88672e-05
-1.0858e-07
1.88494e-05
-1.02437e-07
1.88271e-05
-9.25631e-08
1.87987e-05
-7.88685e-08
1.87604e-05
-5.85483e-08
1.87104e-05
-3.2516e-08
1.86317e-05
2.01861e-08
1.85375e-05
3.78413e-08
1.83339e-05
3.42164e-07
1.80224e-05
6.70859e-07
1.75925e-05
8.02601e-07
1.70184e-05
1.06713e-06
1.62636e-05
1.50539e-06
1.51791e-05
2.24774e-06
1.3543e-05
3.15738e-06
1.12873e-05
4.31008e-06
8.05203e-06
6.48203e-06
3.79751e-06
7.21757e-06
3.33254e-07
5.20083e-06
-1.55217e-06
3.42677e-06
-4.34321e-06
3.3999e-05
8.3378e-07
3.38018e-05
7.29659e-07
3.34443e-05
1.18772e-06
3.31215e-05
1.15038e-06
3.27989e-05
1.15062e-06
3.25282e-05
1.02457e-06
3.22979e-05
9.7783e-07
3.21024e-05
8.53115e-07
3.19423e-05
7.80166e-07
3.18038e-05
6.95706e-07
3.16922e-05
6.47821e-07
3.15905e-05
6.00745e-07
3.14901e-05
5.84746e-07
3.14083e-05
5.44702e-07
3.13373e-05
5.22017e-07
3.12729e-05
4.97637e-07
3.12096e-05
4.88774e-07
3.11476e-05
4.76004e-07
3.10852e-05
4.63436e-07
3.10221e-05
4.49656e-07
3.09571e-05
4.37525e-07
3.08902e-05
4.25853e-07
3.08208e-05
4.14048e-07
3.07484e-05
4.01668e-07
3.06727e-05
3.8935e-07
3.05931e-05
3.776e-07
3.05096e-05
3.66086e-07
3.04207e-05
3.60638e-07
3.03268e-05
3.49311e-07
3.0229e-05
3.31244e-07
3.0131e-05
3.05555e-07
3.00333e-05
2.81495e-07
2.99349e-05
2.66733e-07
2.98351e-05
2.56303e-07
2.97322e-05
2.50654e-07
2.9627e-05
2.42987e-07
2.95195e-05
2.35316e-07
2.94105e-05
2.26363e-07
2.93004e-05
2.17328e-07
2.91897e-05
2.07653e-07
2.90789e-05
1.97523e-07
2.89684e-05
1.87442e-07
2.88582e-05
1.77738e-07
2.87487e-05
1.68279e-07
2.86399e-05
1.58992e-07
2.85323e-05
1.49868e-07
2.84261e-05
1.41133e-07
2.83214e-05
1.32693e-07
2.82184e-05
1.24402e-07
2.81171e-05
1.16229e-07
2.80176e-05
1.08215e-07
2.79201e-05
1.0027e-07
2.78246e-05
9.2478e-08
2.77311e-05
8.49624e-08
2.76397e-05
7.77317e-08
2.75503e-05
7.08024e-08
2.7463e-05
6.39832e-08
2.73779e-05
5.73119e-08
2.72947e-05
5.1062e-08
2.72135e-05
4.51484e-08
2.71342e-05
3.9435e-08
2.70568e-05
3.39077e-08
2.69812e-05
2.86587e-08
2.69071e-05
2.36553e-08
2.68347e-05
1.88521e-08
2.67638e-05
1.42275e-08
2.66946e-05
9.80717e-09
2.6627e-05
5.54799e-09
2.65609e-05
1.45158e-09
2.64965e-05
-2.48278e-09
2.64336e-05
-6.25623e-09
2.63723e-05
-9.90837e-09
2.63125e-05
-1.3414e-08
2.62542e-05
-1.68927e-08
2.61974e-05
-2.04441e-08
2.61422e-05
-2.36538e-08
2.60883e-05
-2.63567e-08
2.60356e-05
-2.89005e-08
2.59842e-05
-3.16629e-08
2.59341e-05
-3.4523e-08
2.58852e-05
-3.70789e-08
2.58375e-05
-3.95114e-08
2.57909e-05
-4.18519e-08
2.57454e-05
-4.41446e-08
2.57009e-05