/*--------------------------------*- C++ -*----------------------------------*\
| =========                 |                                                 |
| \\      /  F ield         | foam-extend: Open Source CFD                    |
|  \\    /   O peration     | Version:     3.2                                |
|   \\  /    A nd           | Web:         http://www.foam-extend.org         |
|    \\/     M anipulation  | For copyright notice see file Copyright         |
\*---------------------------------------------------------------------------*/
FoamFile
{
    version     2.0;
    format      ascii;
    class       areaScalarField;
    location    "120";
    object      Ce1;
}
// * * * * * * * * * * * * * * * * * * * * * * * * * * * * * * * * * * * * * //

dimensions      [1 -3 0 0 0 0 0];

internalField   nonuniform List<scalar> 
550
(
0.00284097
0.00508808
0.00826396
0.0124535
0.017645
0.0236946
0.0303655
0.0373223
0.044227
0.0507377
0.0565982
0.0616093
0.0656834
0.0687841
0.0709511
0.0722572
0.0728143
0.0727387
0.0721592
0.0712194
0.070004
0.0685845
0.0670229
0.0653719
0.0636779
0.0619778
0.0603014
0.0586774
0.0571112
0.0554164
0.0540371
0.0527263
0.0514832
0.0503017
0.0491901
0.0481488
0.0471766
0.0462704
0.0454269
0.0446424
0.0439132
0.0432358
0.0426065
0.0420218
0.041478
0.0409721
0.0405013
0.0400631
0.039655
0.0392748
0.0389202
0.0385889
0.038279
0.0379885
0.0377157
0.037459
0.0372169
0.0369884
0.0367723
0.0365676
0.0363733
0.0361886
0.0360127
0.0358449
0.0356846
0.0355311
0.0353838
0.0352421
0.0351055
0.0349737
0.0348463
0.0347229
0.0346033
0.0344874
0.0343751
0.0342659
0.0341595
0.0340558
0.0339545
0.0338555
0.0337587
0.0336637
0.0335704
0.0334786
0.033388
0.0332985
0.0332099
0.0331222
0.0330353
0.0329492
0.0328637
0.0327789
0.0326948
0.0326114
0.0325289
0.0324471
0.0323663
0.0322864
0.0322074
0.0321289
0.0320507
0.0319726
0.0318944
0.0318159
0.031737
0.0316575
0.0315774
0.0314967
0.0314154
0.0313334
0.0312507
0.0311675
0.0310835
0.0309987
0.0309132
0.0308271
0.0307403
0.0306531
0.0305653
0.0304772
0.0303887
0.0303
0.0302111
0.0301219
0.0300327
0.0299433
0.0298539
0.0297645
0.029675
0.0295856
0.0294964
0.0294074
0.0293186
0.0292301
0.029142
0.0290543
0.028967
0.0288804
0.0287943
0.0287089
0.0286242
0.0285402
0.028457
0.0283746
0.0282931
0.0282125
0.0281328
0.0280541
0.0279763
0.0278996
0.0278238
0.0277491
0.0276755
0.027603
0.0275315
0.0274613
0.0273922
0.0273242
0.0272575
0.027192
0.0271277
0.0270646
0.0270029
0.0269424
0.0268833
0.0268254
0.0267689
0.0267136
0.0266597
0.026607
0.0265557
0.0265056
0.0264568
0.0264091
0.0263625
0.026317
0.0262725
0.026229
0.0261864
0.0261447
0.0261038
0.0260638
0.0260246
0.0259861
0.0259484
0.0259114
0.0258752
0.0258396
0.0258047
0.0257704
0.0257368
0.0257038
0.0256714
0.0256395
0.0256082
0.0255774
0.0255471
0.0255173
0.025488
0.0254592
0.0254308
0.0254029
0.0253753
0.0253481
0.0253212
0.0252945
0.025268
0.0252414
0.0252145
0.0251871
0.0251594
0.0251313
0.0251028
0.0250739
0.0250446
0.0250151
0.0249853
0.0249553
0.024925
0.0248946
0.0248641
0.0248335
0.0248029
0.0247722
0.0247416
0.0247111
0.0246807
0.0246505
0.0246206
0.024591
0.0245617
0.0245328
0.0245042
0.0244761
0.0244484
0.0244212
0.0243945
0.0243682
0.0243425
0.0243172
0.0242925
0.0242682
0.0242445
0.0242212
0.0241984
0.0241761
0.0241542
0.0241328
0.0241119
0.0240915
0.0240715
0.024052
0.024033
0.0240144
0.0239963
0.0239786
0.0239614
0.0239445
0.023928
0.023912
0.0238963
0.0238811
0.0238663
0.0238519
0.023838
0.0238245
0.0238115
0.023799
0.023787
0.0237756
0.0237648
0.0237545
0.0237448
0.0237358
0.0237274
0.0237196
0.0237124
0.0237057
0.0236996
0.0236939
0.0236886
0.0236836
0.0236787
0.0236739
0.023669
0.0236639
0.0236586
0.0236529
0.0236467
0.02364
0.0236327
0.0236246
0.0236159
0.0236065
0.0235963
0.0235854
0.0235738
0.0235616
0.0235488
0.0235355
0.0235217
0.0235075
0.0234928
0.0234778
0.0234625
0.0234468
0.0234309
0.0234146
0.0233981
0.0233813
0.0233643
0.0233469
0.0233292
0.0233112
0.0232929
0.0232743
0.0232553
0.0232359
0.0232162
0.0231962
0.0231759
0.0231553
0.0231344
0.0231132
0.0230918
0.0230701
0.0230483
0.0230262
0.023004
0.0229816
0.0229591
0.0229364
0.0229136
0.0228906
0.0228674
0.0228439
0.0228202
0.0227963
0.022772
0.0227474
0.0227225
0.0226973
0.0226717
0.0226458
0.0226196
0.0225931
0.0225662
0.022539
0.0225115
0.0224837
0.0224558
0.0224277
0.0223995
0.0223713
0.0223432
0.0223151
0.0222873
0.0222596
0.0222321
0.0222049
0.022178
0.0221515
0.0221253
0.0220994
0.0220738
0.0220484
0.0220232
0.0219981
0.021973
0.0219479
0.0219228
0.0218976
0.0218722
0.0218466
0.0218209
0.021795
0.0217689
0.0217427
0.0217163
0.0216898
0.0216633
0.0216368
0.0216103
0.021584
0.0215578
0.0215319
0.0215063
0.021481
0.0214561
0.0214316
0.0214076
0.021384
0.021361
0.0213385
0.0213166
0.0212952
0.0212745
0.0212542
0.0212344
0.0212151
0.0211962
0.0211777
0.0211595
0.0211417
0.021124
0.0211065
0.021089
0.0210715
0.0210539
0.0210362
0.0210182
0.0209998
0.0209812
0.0209621
0.0209426
0.0209226
0.0209021
0.0208813
0.02086
0.0208384
0.0208166
0.0207945
0.0207723
0.0207501
0.0207278
0.0207056
0.0206834
0.0206613
0.0206393
0.0206174
0.0205956
0.0205738
0.0205521
0.0205302
0.0205083
0.0204863
0.020464
0.0204415
0.0204187
0.0203956
0.0203722
0.0203484
0.0203242
0.0202996
0.0202747
0.0202494
0.0202237
0.0201977
0.0201714
0.0201447
0.0201177
0.0200905
0.0200629
0.0200351
0.020007
0.0199787
0.0199503
0.0199217
0.0198931
0.0198644
0.0198356
0.0198068
0.0197779
0.0197491
0.0197202
0.0196912
0.0196621
0.0196328
0.0196033
0.0195735
0.0195434
0.019513
0.0194822
0.0194511
0.0194196
0.0193878
0.0193558
0.0193236
0.0192913
0.019259
0.0192267
0.0191947
0.0191629
0.0191314
0.0191003
0.0190696
0.0190394
0.0190096
0.0189803
0.0189514
0.0189231
0.0188953
0.0188679
0.0188411
0.0188146
0.0187885
0.0187626
0.0187369
0.0187112
0.0186856
0.0186599
0.0186342
0.0186083
0.0185825
0.0185566
0.0185307
0.0185047
0.0184788
0.0184527
0.0184267
0.0184005
0.0183743
0.0183479
0.0183215
0.0182948
0.0182682
0.0182412
0.0182143
0.0181871
0.01816
0.0181327
0.0181057
0.0180783
0.0180511
0.0180234
0.0179956
0.0179668
0.0179376
0.017906
0.0178732
0.0178346
0.0177926
0.0177378
0.0176739
0.0175824
0.0174692
0.0172937
0.017071
0.0165705
0.0160556
0.0159438
0.0149617
0.0134771
0.0115615
0.00910585
0.00618185
0.00256574
0.000395757
0.000812578
0.00272607
)
;

boundaryField
{
    inlet
    {
        type            calculated;
        value           uniform 0;
    }
    endWall
    {
        type            calculated;
        value           uniform 0;
    }
    sideWall
    {
        type            empty;
    }
}


// ************************************************************************* //
