/*--------------------------------*- C++ -*----------------------------------*\
| =========                 |                                                 |
| \\      /  F ield         | foam-extend: Open Source CFD                    |
|  \\    /   O peration     | Version:     3.2                                |
|   \\  /    A nd           | Web:         http://www.foam-extend.org         |
|    \\/     M anipulation  | For copyright notice see file Copyright         |
\*---------------------------------------------------------------------------*/
FoamFile
{
    version     2.0;
    format      ascii;
    class       areaScalarField;
    location    "120";
    object      Cs;
}
// * * * * * * * * * * * * * * * * * * * * * * * * * * * * * * * * * * * * * //

dimensions      [0 0 0 0 0 0 0];

internalField   nonuniform List<scalar> 
550
(
0.434383
0.434383
0.434383
0.434383
0.434383
0.434383
0.434383
0.434383
0.434383
0.434383
0.434383
0.434383
0.434383
0.434383
0.434383
0.434383
0.434383
0.434383
0.434383
0.434383
0.434383
0.434383
0.434383
0.434383
0.434383
0.434383
0.434383
0.434383
0.434383
0.433329
0.433357
0.433312
0.433186
0.433003
0.432798
0.432587
0.432383
0.43219
0.432012
0.431852
0.431711
0.431588
0.431481
0.431389
0.431311
0.431244
0.431187
0.431139
0.431098
0.431061
0.431027
0.430992
0.430956
0.430917
0.430874
0.430829
0.430782
0.430734
0.430685
0.430636
0.430587
0.430537
0.430488
0.430439
0.43039
0.430341
0.430292
0.430243
0.430195
0.430149
0.430104
0.430063
0.430024
0.429991
0.429963
0.429938
0.429917
0.4299
0.429889
0.429883
0.429879
0.429878
0.429877
0.429876
0.429873
0.429868
0.42986
0.42985
0.429837
0.429821
0.429803
0.429786
0.429769
0.429753
0.42974
0.429729
0.42972
0.429714
0.429709
0.429702
0.429695
0.429686
0.429674
0.429661
0.429646
0.429628
0.42961
0.429591
0.429571
0.429552
0.429532
0.429513
0.429494
0.429475
0.429456
0.429438
0.429421
0.429404
0.429389
0.429375
0.429363
0.429353
0.429344
0.429337
0.429331
0.429328
0.429325
0.429324
0.429324
0.429325
0.429326
0.429328
0.429331
0.429334
0.429336
0.429338
0.42934
0.429342
0.429344
0.429346
0.429348
0.429349
0.429351
0.429354
0.429357
0.42936
0.429365
0.429369
0.429375
0.429381
0.429389
0.429397
0.429406
0.429416
0.429428
0.429442
0.429457
0.429474
0.429492
0.429512
0.429533
0.429556
0.42958
0.429606
0.429632
0.429659
0.429686
0.429713
0.42974
0.429766
0.429791
0.429815
0.429838
0.429859
0.429876
0.429891
0.429901
0.429908
0.42991
0.429908
0.429901
0.429889
0.429872
0.42985
0.429823
0.429792
0.429757
0.429716
0.429672
0.429623
0.42957
0.429513
0.429451
0.429386
0.429316
0.429242
0.429164
0.429082
0.428996
0.428907
0.428816
0.428721
0.428624
0.428525
0.428424
0.428325
0.428228
0.42813
0.428031
0.427931
0.427829
0.427725
0.42762
0.427513
0.427405
0.427297
0.427189
0.427081
0.426974
0.426868
0.426764
0.426662
0.426562
0.426466
0.426373
0.426284
0.4262
0.426122
0.42605
0.425985
0.425926
0.425875
0.425832
0.425796
0.425768
0.425747
0.425735
0.425729
0.425731
0.42574
0.425755
0.425777
0.425806
0.42584
0.425879
0.425925
0.425975
0.426031
0.426092
0.426159
0.42623
0.426306
0.426387
0.426472
0.426562
0.426656
0.426753
0.426855
0.426959
0.427066
0.427175
0.427286
0.427399
0.427514
0.427631
0.42775
0.42787
0.427992
0.428116
0.428241
0.428369
0.428499
0.428632
0.428768
0.428907
0.429049
0.429194
0.429342
0.429492
0.429644
0.429797
0.42995
0.430101
0.43025
0.430394
0.430532
0.430663
0.430786
0.430899
0.431002
0.431093
0.431171
0.431237
0.43129
0.43133
0.431357
0.431372
0.431375
0.431366
0.431346
0.431314
0.431273
0.431221
0.43116
0.431089
0.43101
0.430922
0.430827
0.430723
0.430611
0.43049
0.430362
0.430225
0.43008
0.429927
0.429766
0.429598
0.429424
0.429244
0.429059
0.428871
0.428681
0.42849
0.428299
0.428111
0.427925
0.427744
0.427569
0.427401
0.42724
0.427089
0.426946
0.426814
0.42669
0.426576
0.426471
0.426375
0.426286
0.426204
0.426128
0.426057
0.425989
0.425925
0.425863
0.425803
0.425743
0.425684
0.425625
0.425565
0.425506
0.425447
0.425388
0.425331
0.425275
0.425223
0.425175
0.425132
0.425095
0.425065
0.425042
0.425027
0.42502
0.425022
0.425033
0.425052
0.425078
0.425112
0.425152
0.425197
0.425248
0.425302
0.425359
0.425419
0.42548
0.425543
0.425608
0.425674
0.42574
0.425807
0.425875
0.425944
0.426014
0.426086
0.42616
0.426237
0.426317
0.426402
0.426492
0.426586
0.426687
0.426793
0.426906
0.427026
0.427153
0.427287
0.427428
0.427576
0.427729
0.427888
0.428052
0.42822
0.428392
0.428565
0.428739
0.428913
0.429084
0.429252
0.429414
0.429569
0.429716
0.429854
0.429981
0.430097
0.430201
0.430293
0.430374
0.430444
0.430503
0.430553
0.430594
0.430627
0.430654
0.430677
0.430695
0.430709
0.430721
0.43073
0.430736
0.43074
0.430742
0.43074
0.430734
0.430724
0.430707
0.430684
0.430653
0.430613
0.430563
0.430504
0.430434
0.430354
0.430263
0.430162
0.430051
0.42993
0.429801
0.429662
0.429515
0.429361
0.429198
0.429029
0.428853
0.428673
0.428489
0.428302
0.428114
0.427926
0.427738
0.427552
0.427367
0.427185
0.427004
0.426827
0.426651
0.426477
0.426303
0.426129
0.425955
0.425778
0.425597
0.425413
0.425223
0.425029
0.42483
0.424627
0.42442
0.424211
0.424
0.42379
0.423583
0.423379
0.42318
0.42299
0.422808
0.422637
0.422478
0.422331
0.422198
0.422079
0.421973
0.421883
0.421807
0.421746
0.421698
0.421663
0.421637
0.42162
0.421609
0.421603
0.421599
0.421598
0.421598
0.4216
0.421603
0.421608
0.421614
0.421624
0.421635
0.42165
0.421666
0.421686
0.421708
0.421734
0.421762
0.421795
0.421831
0.42187
0.421913
0.42196
0.422009
0.422062
0.422119
0.422178
0.42224
0.422304
0.42237
0.422437
0.422505
0.422573
0.422641
0.422708
0.422764
0.422806
0.422808
0.42275
0.422552
0.422213
0.421172
0.421795
0.424974
0.434383
0.434383
0.434383
0.434383
0.434383
0.434383
0.434383
0.434383
0.434383
0.434383
)
;

boundaryField
{
    inlet
    {
        type            calculated;
        value           uniform 0;
    }
    endWall
    {
        type            calculated;
        value           uniform 0;
    }
    sideWall
    {
        type            empty;
    }
}


// ************************************************************************* //
