/*--------------------------------*- C++ -*----------------------------------*\
| =========                 |                                                 |
| \\      /  F ield         | foam-extend: Open Source CFD                    |
|  \\    /   O peration     | Version:     3.2                                |
|   \\  /    A nd           | Web:         http://www.foam-extend.org         |
|    \\/     M anipulation  | For copyright notice see file Copyright         |
\*---------------------------------------------------------------------------*/
FoamFile
{
    version     2.0;
    format      ascii;
    class       areaScalarField;
    location    "120";
    object      ddmax;
}
// * * * * * * * * * * * * * * * * * * * * * * * * * * * * * * * * * * * * * //

dimensions      [0 1 0 0 0 0 0];

internalField   nonuniform List<scalar> 
550
(
0.000405
0.000405
0.000405
0.000405
0.000405
0.000405
0.000405
0.000405
0.000405
0.000405
0.000405
0.000405
0.000405
0.000405
0.000405
0.000405
0.000405
0.000405
0.000405
0.000405
0.000405
0.000405
0.000405
0.000405
0.000405
0.000405
0.000405
0.000405
0.000405
0.000405042
0.000412464
0.000426936
0.000446196
0.00046702
0.000486946
0.000505505
0.000522489
0.000537995
0.000552147
0.000565078
0.000576916
0.000587791
0.000597827
0.000607121
0.000615742
0.000623733
0.000631132
0.000637983
0.000644345
0.000650277
0.000655838
0.000661077
0.00066604
0.000670767
0.000675286
0.000679615
0.000683761
0.000687732
0.000691546
0.00069522
0.000698761
0.000702178
0.000705475
0.000708665
0.000711761
0.000714777
0.000717722
0.0007206
0.000723413
0.000726161
0.000728844
0.00073146
0.000734005
0.000736479
0.000738897
0.000741272
0.000743613
0.000745912
0.000748165
0.000750378
0.000752562
0.000754724
0.000756871
0.000759008
0.000761139
0.000763265
0.000765382
0.000767486
0.000769578
0.000771668
0.000773749
0.000775808
0.000777835
0.000779828
0.000781788
0.000783709
0.000785587
0.000787439
0.000789294
0.000791174
0.000793089
0.000795042
0.000797037
0.000799071
0.000801143
0.00080325
0.000805388
0.000807553
0.000809741
0.000811948
0.000814172
0.000816419
0.000818692
0.00082098
0.000823272
0.000825566
0.000827862
0.000830153
0.000832438
0.000834711
0.000836972
0.000839216
0.000841445
0.000843656
0.00084585
0.000848026
0.000850182
0.000852317
0.000854426
0.000856507
0.000858559
0.000860581
0.000862572
0.00086453
0.000866452
0.000868337
0.000870183
0.000871989
0.000873756
0.000875483
0.000877169
0.000878813
0.000880413
0.000881969
0.000883482
0.00088495
0.000886375
0.000887756
0.000889092
0.000890382
0.000891629
0.000892831
0.000893986
0.000895095
0.000896157
0.000897171
0.000898139
0.00089906
0.000899935
0.000900762
0.00090154
0.000902269
0.00090295
0.000903583
0.000904171
0.000904712
0.000905207
0.000905657
0.000906065
0.00090643
0.000906754
0.000907041
0.000907295
0.000907519
0.000907715
0.000907883
0.000908026
0.000908147
0.000908246
0.000908324
0.000908383
0.000908422
0.000908444
0.000908449
0.000908436
0.000908408
0.000908366
0.000908309
0.00090824
0.000908158
0.000908065
0.000907961
0.000907846
0.000907723
0.000907593
0.000907456
0.000907311
0.000907159
0.000907
0.000906834
0.000906664
0.000906492
0.000906324
0.000906164
0.000906019
0.000905893
0.000905796
0.000905736
0.000905706
0.000905701
0.000905716
0.000905748
0.000905792
0.000905847
0.000905909
0.000905978
0.000906052
0.00090613
0.00090621
0.000906291
0.000906371
0.000906448
0.000906522
0.000906589
0.000906647
0.000906695
0.000906732
0.000906755
0.000906762
0.000906754
0.000906729
0.000906687
0.000906626
0.000906546
0.000906447
0.000906328
0.00090619
0.000906033
0.000905857
0.000905662
0.000905447
0.000905214
0.000904963
0.000904695
0.000904408
0.000904103
0.00090378
0.000903439
0.00090308
0.000902703
0.000902307
0.000901893
0.000901462
0.000901015
0.000900552
0.000900075
0.000899583
0.000899076
0.000898555
0.000898021
0.000897474
0.00089691
0.000896331
0.000895737
0.000895127
0.000894497
0.000893846
0.000893175
0.000892482
0.000891767
0.000891032
0.000890274
0.000889496
0.000888697
0.00088788
0.000887045
0.000886195
0.000885335
0.000884471
0.000883606
0.000882742
0.000881886
0.000881039
0.000880202
0.000879379
0.000878572
0.000877785
0.000877021
0.000876281
0.000875567
0.00087488
0.00087422
0.000873586
0.000872977
0.000872392
0.000871828
0.000871284
0.000870764
0.000870274
0.000869809
0.000869353
0.000868904
0.000868466
0.000868039
0.000867623
0.000867219
0.000866826
0.000866447
0.000866084
0.000865737
0.000865406
0.000865091
0.000864793
0.000864509
0.000864238
0.000863979
0.000863733
0.0008635
0.000863278
0.000863068
0.000862869
0.000862679
0.000862496
0.000862321
0.000862152
0.000861988
0.000861829
0.000861676
0.000861528
0.000861382
0.000861241
0.000861105
0.000860977
0.000860857
0.000860746
0.000860644
0.000860553
0.000860474
0.000860405
0.000860346
0.000860298
0.00086026
0.000860231
0.000860211
0.0008602
0.000860197
0.000860202
0.000860213
0.000860227
0.000860241
0.000860253
0.000860261
0.000860263
0.000860257
0.00086024
0.000860212
0.000860172
0.00086012
0.000860055
0.000859975
0.000859882
0.000859778
0.000859662
0.000859539
0.000859411
0.000859282
0.000859155
0.000859031
0.000858912
0.000858798
0.000858689
0.000858587
0.000858491
0.0008584
0.000858313
0.000858229
0.000858147
0.000858065
0.00085798
0.000857892
0.000857797
0.000857692
0.000857576
0.000857447
0.000857303
0.000857141
0.000856963
0.000856766
0.000856551
0.000856317
0.000856061
0.000855783
0.000855485
0.000855165
0.000854825
0.000854468
0.000854093
0.000853703
0.0008533
0.000852885
0.00085246
0.000852026
0.000851585
0.000851142
0.000850699
0.000850259
0.000849824
0.000849397
0.00084898
0.000848577
0.00084819
0.000847816
0.000847453
0.000847103
0.000846764
0.000846437
0.000846119
0.000845808
0.000845501
0.000845195
0.000844889
0.00084458
0.000844268
0.000843951
0.000843629
0.000843303
0.000842973
0.00084264
0.000842304
0.000841967
0.000841631
0.000841297
0.000840968
0.000840647
0.000840334
0.000840031
0.000839738
0.000839458
0.000839191
0.000838936
0.000838695
0.000838466
0.000838249
0.000838043
0.000837847
0.000837662
0.000837486
0.00083732
0.000837162
0.000837013
0.000836872
0.000836738
0.00083661
0.000836486
0.000836366
0.000836247
0.000836129
0.000836011
0.000835893
0.000835773
0.000835654
0.000835533
0.000835412
0.000835294
0.000835179
0.000835069
0.000834966
0.000834872
0.000834788
0.000834716
0.000834655
0.000834604
0.000834561
0.000834525
0.000834494
0.000834464
0.000834433
0.000834398
0.000834356
0.000834304
0.000834239
0.000834159
0.000834063
0.00083395
0.000833822
0.000833677
0.000833518
0.000833344
0.000833156
0.000832952
0.000832733
0.000832501
0.000832256
0.000832004
0.000831748
0.00083149
0.000831233
0.00083098
0.000830732
0.000830488
0.000830247
0.000830009
0.000829772
0.000829535
0.000829298
0.00082906
0.000828821
0.000828584
0.000828348
0.000828115
0.000827885
0.000827658
0.000827434
0.000827213
0.000826996
0.000826781
0.000826568
0.000826353
0.000826138
0.00082592
0.000825702
0.000825484
0.000825273
0.000825073
0.000824894
0.000824747
0.000824651
0.000824638
0.000824754
0.000825069
0.00082569
0.000826768
0.000828525
0.000831277
0.000835421
0.000841607
0.000847797
0.000855907
0.000750101
0.000521831
0.000405
0.000405
0.000405
0.000405
0.000405
0.000405
0.000405
0.000405
0.000405
0.000405
)
;

boundaryField
{
    inlet
    {
        type            calculated;
        value           uniform 0;
    }
    endWall
    {
        type            calculated;
        value           uniform 0;
    }
    sideWall
    {
        type            empty;
    }
}


// ************************************************************************* //
