/*--------------------------------*- C++ -*----------------------------------*\
| =========                 |                                                 |
| \\      /  F ield         | foam-extend: Open Source CFD                    |
|  \\    /   O peration     | Version:     3.2                                |
|   \\  /    A nd           | Web:         http://www.foam-extend.org         |
|    \\/     M anipulation  | For copyright notice see file Copyright         |
\*---------------------------------------------------------------------------*/
FoamFile
{
    version     2.0;
    format      ascii;
    class       areaScalarField;
    location    "120";
    object      deltaHb;
}
// * * * * * * * * * * * * * * * * * * * * * * * * * * * * * * * * * * * * * //

dimensions      [0 1 -1 0 0 0 0];

internalField   nonuniform List<scalar> 
550
(
0
0
0
-1.14773e-08
-3.68018e-08
-5.94356e-08
-7.44881e-08
-8.40322e-08
-8.73631e-08
-8.47714e-08
-7.72724e-08
-6.63021e-08
-5.33527e-08
-3.96855e-08
-2.63907e-08
-1.42297e-08
-3.68573e-09
5.01324e-09
1.16061e-08
1.64112e-08
1.99752e-08
2.24774e-08
2.40735e-08
2.48948e-08
2.50743e-08
2.47501e-08
2.39984e-08
2.29314e-08
2.25999e-08
2.15853e-08
1.95929e-08
1.81662e-08
1.67402e-08
1.54361e-08
1.4303e-08
1.32522e-08
1.22817e-08
1.13766e-08
1.0535e-08
9.75252e-09
9.02648e-09
8.35457e-09
7.7345e-09
7.16338e-09
6.6378e-09
6.15372e-09
5.7074e-09
5.29601e-09
4.91725e-09
4.56929e-09
4.25039e-09
3.9585e-09
3.69203e-09
3.44965e-09
3.22957e-09
3.02966e-09
2.84753e-09
2.68132e-09
2.52973e-09
2.39136e-09
2.26487e-09
2.14905e-09
2.04274e-09
1.94533e-09
1.8564e-09
1.7754e-09
1.70178e-09
1.63485e-09
1.57389e-09
1.51817e-09
1.46697e-09
1.41964e-09
1.37562e-09
1.33459e-09
1.29673e-09
1.26231e-09
1.23108e-09
1.20234e-09
1.1755e-09
1.1505e-09
1.12742e-09
1.10623e-09
1.0868e-09
1.06905e-09
1.05294e-09
1.03818e-09
1.02438e-09
1.01141e-09
9.99373e-10
9.88649e-10
9.78936e-10
9.69459e-10
9.60039e-10
9.5068e-10
9.41333e-10
9.31849e-10
9.2205e-10
9.12611e-10
9.04637e-10
8.98621e-10
8.94727e-10
8.92926e-10
8.93001e-10
8.94724e-10
8.97847e-10
9.02108e-10
9.07216e-10
9.12886e-10
9.18921e-10
9.25187e-10
9.31409e-10
9.37872e-10
9.44867e-10
9.51621e-10
9.57851e-10
9.6371e-10
9.68993e-10
9.73638e-10
9.77596e-10
9.80859e-10
9.83434e-10
9.8538e-10
9.86788e-10
9.87693e-10
9.88145e-10
9.8814e-10
9.87633e-10
9.86536e-10
9.84741e-10
9.82211e-10
9.78946e-10
9.74978e-10
9.70297e-10
9.64876e-10
9.58757e-10
9.51951e-10
9.44472e-10
9.36418e-10
9.2791e-10
9.19016e-10
9.09722e-10
9.00007e-10
8.89907e-10
8.79479e-10
8.68753e-10
8.57768e-10
8.4657e-10
8.35131e-10
8.23456e-10
8.11621e-10
7.99668e-10
7.8757e-10
7.75281e-10
7.62803e-10
7.50165e-10
7.37389e-10
7.24504e-10
7.11522e-10
6.9841e-10
6.85083e-10
6.71525e-10
6.57741e-10
6.43765e-10
6.29685e-10
6.1551e-10
6.01231e-10
5.86886e-10
5.72536e-10
5.58215e-10
5.43951e-10
5.29803e-10
5.15904e-10
5.02368e-10
4.89246e-10
4.76478e-10
4.64051e-10
4.5201e-10
4.40371e-10
4.29134e-10
4.18215e-10
4.0763e-10
3.97385e-10
3.87428e-10
3.77791e-10
3.68435e-10
3.59334e-10
3.50542e-10
3.42015e-10
3.33723e-10
3.25677e-10
3.17834e-10
3.10211e-10
3.02839e-10
2.95735e-10
2.88928e-10
2.82357e-10
2.75998e-10
2.69863e-10
2.63948e-10
2.58268e-10
2.52891e-10
2.47964e-10
2.43582e-10
2.3998e-10
2.37543e-10
2.3635e-10
2.36733e-10
2.38607e-10
2.41285e-10
2.44405e-10
2.47688e-10
2.51005e-10
2.54253e-10
2.57331e-10
2.60205e-10
2.6288e-10
2.65356e-10
2.67623e-10
2.69659e-10
2.71413e-10
2.7288e-10
2.74109e-10
2.75052e-10
2.75681e-10
2.76021e-10
2.76054e-10
2.75779e-10
2.75188e-10
2.74296e-10
2.73117e-10
2.71652e-10
2.69929e-10
2.67973e-10
2.6577e-10
2.63334e-10
2.60733e-10
2.57983e-10
2.55115e-10
2.5213e-10
2.49005e-10
2.45795e-10
2.42549e-10
2.39282e-10
2.35987e-10
2.32678e-10
2.29351e-10
2.26003e-10
2.22647e-10
2.1928e-10
2.15898e-10
2.12473e-10
2.09028e-10
2.05604e-10
2.02254e-10
1.98977e-10
1.9574e-10
1.92502e-10
1.89231e-10
1.85911e-10
1.82482e-10
1.78932e-10
1.75263e-10
1.71443e-10
1.67386e-10
1.63143e-10
1.58839e-10
1.54387e-10
1.49725e-10
1.44882e-10
1.39889e-10
1.34807e-10
1.29641e-10
1.24398e-10
1.19152e-10
1.13991e-10
1.09009e-10
1.04283e-10
9.98859e-11
9.5843e-11
9.22751e-11
8.93561e-11
8.70809e-11
8.55239e-11
8.47169e-11
8.45504e-11
8.49829e-11
8.60101e-11
8.76229e-11
8.97488e-11
9.2319e-11
9.52935e-11
9.85788e-11
1.02051e-10
1.05571e-10
1.0901e-10
1.12261e-10
1.15302e-10
1.18011e-10
1.20079e-10
1.21702e-10
1.23292e-10
1.2471e-10
1.25828e-10
1.26764e-10
1.27579e-10
1.28296e-10
1.28964e-10
1.29623e-10
1.30234e-10
1.30821e-10
1.31526e-10
1.32379e-10
1.33303e-10
1.34302e-10
1.35497e-10
1.36904e-10
1.38478e-10
1.40231e-10
1.42141e-10
1.44218e-10
1.46482e-10
1.48901e-10
1.5148e-10
1.54233e-10
1.57104e-10
1.60102e-10
1.63274e-10
1.66618e-10
1.7007e-10
1.73572e-10
1.77165e-10
1.80912e-10
1.84825e-10
1.88901e-10
1.93111e-10
1.97405e-10
2.01758e-10
2.06135e-10
2.10433e-10
2.14594e-10
2.18599e-10
2.22411e-10
2.26026e-10
2.29427e-10
2.32653e-10
2.35746e-10
2.38626e-10
2.41216e-10
2.43453e-10
2.45298e-10
2.46735e-10
2.47793e-10
2.48491e-10
2.48775e-10
2.48672e-10
2.48289e-10
2.47708e-10
2.46926e-10
2.45912e-10
2.44696e-10
2.43366e-10
2.41998e-10
2.40675e-10
2.39533e-10
2.38701e-10
2.38266e-10
2.38293e-10
2.3871e-10
2.39421e-10
2.4041e-10
2.41615e-10
2.42999e-10
2.4451e-10
2.4605e-10
2.47561e-10
2.49009e-10
2.5032e-10
2.51373e-10
2.52127e-10
2.52561e-10
2.52586e-10
2.52177e-10
2.51342e-10
2.50094e-10
2.48448e-10
2.46418e-10
2.44065e-10
2.41458e-10
2.38599e-10
2.35477e-10
2.32094e-10
2.28443e-10
2.24598e-10
2.20664e-10
2.16693e-10
2.12735e-10
2.08859e-10
2.05134e-10
2.01561e-10
1.98154e-10
1.94955e-10
1.91953e-10
1.89206e-10
1.86811e-10
1.848e-10
1.83178e-10
1.81959e-10
1.81164e-10
1.80787e-10
1.80767e-10
1.81093e-10
1.81805e-10
1.82882e-10
1.84239e-10
1.85786e-10
1.87421e-10
1.89062e-10
1.9057e-10
1.91821e-10
1.92751e-10
1.93325e-10
1.93524e-10
1.93337e-10
1.92827e-10
1.92056e-10
1.91052e-10
1.89841e-10
1.88499e-10
1.87109e-10
1.85785e-10
1.84593e-10
1.83576e-10
1.82795e-10
1.82286e-10
1.82031e-10
1.82037e-10
1.82332e-10
1.82881e-10
1.83681e-10
1.84732e-10
1.85996e-10
1.87406e-10
1.88899e-10
1.90469e-10
1.92042e-10
1.93603e-10
1.95164e-10
1.96692e-10
1.98208e-10
1.99753e-10
2.0134e-10
2.0295e-10
2.04559e-10
2.06106e-10
2.07533e-10
2.08854e-10
2.10062e-10
2.11109e-10
2.11999e-10
2.12761e-10
2.13387e-10
2.13914e-10
2.14433e-10
2.15022e-10
2.15733e-10
2.16593e-10
2.17661e-10
2.19e-10
2.2059e-10
2.22436e-10
2.24513e-10
2.26671e-10
2.28823e-10
2.30922e-10
2.32855e-10
2.34528e-10
2.35883e-10
2.36877e-10
2.3739e-10
2.37384e-10
2.36877e-10
2.35875e-10
2.34432e-10
2.32659e-10
2.30677e-10
2.286e-10
2.26433e-10
2.24205e-10
2.21913e-10
2.19562e-10
2.17117e-10
2.14639e-10
2.12249e-10
2.10118e-10
2.08304e-10
2.06931e-10
2.0595e-10
2.05407e-10
2.05229e-10
2.05335e-10
2.05579e-10
2.05901e-10
2.06216e-10
2.06541e-10
2.06712e-10
2.06855e-10
2.06976e-10
2.07226e-10
2.07548e-10
2.08092e-10
2.08711e-10
2.09531e-10
2.10381e-10
2.11437e-10
2.12484e-10
2.13635e-10
2.14533e-10
2.15317e-10
2.15721e-10
2.16066e-10
2.16159e-10
2.16433e-10
2.16989e-10
2.18314e-10
2.20529e-10
2.2479e-10
2.30445e-10
2.42033e-10
2.56904e-10
2.84841e-10
3.22206e-10
3.86564e-10
4.72671e-10
6.1298e-10
7.99953e-10
1.05335e-09
1.44703e-09
3.74861e-10
1.24115e-09
4.39064e-09
5.86466e-09
5.8448e-09
2.66944e-09
0
0
0
0
0
0
0
)
;

boundaryField
{
    inlet
    {
        type            zeroGradient;
    }
    endWall
    {
        type            zeroGradient;
    }
    sideWall
    {
        type            empty;
    }
}


// ************************************************************************* //
