/*--------------------------------*- C++ -*----------------------------------*\
| =========                 |                                                 |
| \\      /  F ield         | foam-extend: Open Source CFD                    |
|  \\    /   O peration     | Version:     3.2                                |
|   \\  /    A nd           | Web:         http://www.foam-extend.org         |
|    \\/     M anipulation  | For copyright notice see file Copyright         |
\*---------------------------------------------------------------------------*/
FoamFile
{
    version     2.0;
    format      ascii;
    class       volScalarField;
    location    "120";
    object      DiSSt;
}
// * * * * * * * * * * * * * * * * * * * * * * * * * * * * * * * * * * * * * //

dimensions      [0 2 -1 0 0 0 0];

internalField   nonuniform List<scalar> 
33000
(
7.20198e-06
8.46283e-06
9.74596e-06
1.10205e-05
1.22571e-05
1.34256e-05
1.45038e-05
1.54719e-05
1.63204e-05
1.70432e-05
1.76428e-05
1.81234e-05
1.84954e-05
1.87682e-05
1.89541e-05
1.90643e-05
1.91109e-05
1.91046e-05
1.89498e-05
1.82736e-05
1.76217e-05
1.70177e-05
1.6451e-05
1.59311e-05
1.54529e-05
1.50197e-05
1.46311e-05
1.42812e-05
1.39552e-05
1.36683e-05
1.34113e-05
1.31819e-05
1.29764e-05
1.27852e-05
1.26162e-05
1.2462e-05
1.23267e-05
1.22054e-05
1.20987e-05
1.20038e-05
1.1921e-05
1.18479e-05
1.17851e-05
1.1731e-05
1.16855e-05
1.16471e-05
1.16161e-05
1.15925e-05
1.15759e-05
1.15657e-05
1.15613e-05
1.15622e-05
1.1568e-05
1.1578e-05
1.15915e-05
1.16082e-05
1.16278e-05
1.16497e-05
1.16736e-05
1.16995e-05
1.17268e-05
1.17556e-05
1.17854e-05
1.18163e-05
1.1848e-05
1.18805e-05
1.19134e-05
1.19468e-05
1.19803e-05
1.20141e-05
1.20477e-05
1.20813e-05
1.21146e-05
1.21477e-05
1.21804e-05
1.22124e-05
1.22438e-05
1.22745e-05
1.23045e-05
1.23339e-05
1.23624e-05
1.23903e-05
1.24172e-05
1.24436e-05
1.24689e-05
1.24935e-05
1.2517e-05
1.25398e-05
1.25614e-05
1.25822e-05
1.26017e-05
1.26205e-05
1.26388e-05
1.26564e-05
1.26739e-05
1.26908e-05
1.27084e-05
1.27265e-05
1.27447e-05
1.2763e-05
1.27816e-05
1.28001e-05
1.28186e-05
1.28369e-05
1.28551e-05
1.2873e-05
1.28906e-05
1.29078e-05
1.29247e-05
1.2941e-05
1.2957e-05
1.29726e-05
1.29872e-05
1.30016e-05
1.30154e-05
1.30285e-05
1.30411e-05
1.3053e-05
1.30644e-05
1.30751e-05
1.30852e-05
1.30946e-05
1.31034e-05
1.31115e-05
1.31189e-05
1.31257e-05
1.31318e-05
1.31373e-05
1.31423e-05
1.31466e-05
1.31505e-05
1.31538e-05
1.31566e-05
1.3159e-05
1.31609e-05
1.31625e-05
1.31636e-05
1.31644e-05
1.31648e-05
1.31649e-05
1.31646e-05
1.3164e-05
1.31632e-05
1.31621e-05
1.31607e-05
1.3159e-05
1.31572e-05
1.31552e-05
1.31531e-05
1.31508e-05
1.31483e-05
1.31457e-05
1.3143e-05
1.31402e-05
1.31374e-05
1.31344e-05
1.31314e-05
1.31284e-05
1.31253e-05
1.31223e-05
1.31194e-05
1.31165e-05
1.31137e-05
1.3111e-05
1.31084e-05
1.3106e-05
1.31037e-05
1.31017e-05
1.30998e-05
1.30981e-05
1.30966e-05
1.30953e-05
1.30942e-05
1.30934e-05
1.30927e-05
1.30924e-05
1.30923e-05
1.30925e-05
1.30931e-05
1.3094e-05
1.30952e-05
1.30968e-05
1.30987e-05
1.31009e-05
1.31035e-05
1.31065e-05
1.31099e-05
1.31137e-05
1.31179e-05
1.31225e-05
1.31276e-05
1.31332e-05
1.31392e-05
1.31456e-05
1.31525e-05
1.31598e-05
1.31676e-05
1.31758e-05
1.31844e-05
1.31933e-05
1.32025e-05
1.32121e-05
1.32219e-05
1.32319e-05
1.32419e-05
1.32514e-05
1.32605e-05
1.3269e-05
1.32771e-05
1.32846e-05
1.32918e-05
1.32985e-05
1.33047e-05
1.33106e-05
1.33161e-05
1.33212e-05
1.3326e-05
1.33305e-05
1.33347e-05
1.33387e-05
1.33424e-05
1.33459e-05
1.33492e-05
1.33522e-05
1.3355e-05
1.33575e-05
1.33597e-05
1.33617e-05
1.33635e-05
1.3365e-05
1.33663e-05
1.33674e-05
1.33683e-05
1.3369e-05
1.33696e-05
1.33699e-05
1.33701e-05
1.33701e-05
1.337e-05
1.33698e-05
1.33694e-05
1.33689e-05
1.33684e-05
1.33677e-05
1.33669e-05
1.33661e-05
1.33651e-05
1.33641e-05
1.3363e-05
1.33618e-05
1.33606e-05
1.33593e-05
1.33579e-05
1.33565e-05
1.3355e-05
1.33535e-05
1.3352e-05
1.33505e-05
1.33489e-05
1.33474e-05
1.33459e-05
1.33443e-05
1.33428e-05
1.33414e-05
1.334e-05
1.33386e-05
1.33374e-05
1.33362e-05
1.3335e-05
1.3334e-05
1.3333e-05
1.33322e-05
1.33314e-05
1.33307e-05
1.33301e-05
1.33295e-05
1.3329e-05
1.33286e-05
1.33283e-05
1.3328e-05
1.33278e-05
1.33277e-05
1.33276e-05
1.33276e-05
1.33277e-05
1.33279e-05
1.33282e-05
1.33286e-05
1.33291e-05
1.33296e-05
1.33303e-05
1.3331e-05
1.33318e-05
1.33327e-05
1.33337e-05
1.33348e-05
1.33359e-05
1.33373e-05
1.33388e-05
1.33404e-05
1.33422e-05
1.33442e-05
1.33462e-05
1.33484e-05
1.33508e-05
1.33533e-05
1.33559e-05
1.33588e-05
1.33618e-05
1.33651e-05
1.33685e-05
1.33722e-05
1.33759e-05
1.33799e-05
1.3384e-05
1.33882e-05
1.33924e-05
1.33968e-05
1.34012e-05
1.34056e-05
1.34099e-05
1.34142e-05
1.34183e-05
1.34174e-05
1.34166e-05
1.34156e-05
1.34145e-05
1.34133e-05
1.34119e-05
1.34104e-05
1.34088e-05
1.34069e-05
1.34049e-05
1.34027e-05
1.34002e-05
1.33976e-05
1.33949e-05
1.33919e-05
1.33888e-05
1.33855e-05
1.33821e-05
1.33786e-05
1.33749e-05
1.33712e-05
1.33673e-05
1.33634e-05
1.33594e-05
1.33553e-05
1.33512e-05
1.33471e-05
1.33429e-05
1.33386e-05
1.33343e-05
1.333e-05
1.33256e-05
1.33212e-05
1.33167e-05
1.33122e-05
1.33076e-05
1.33029e-05
1.32982e-05
1.32934e-05
1.32885e-05
1.32835e-05
1.32784e-05
1.32733e-05
1.32681e-05
1.32627e-05
1.32574e-05
1.32519e-05
1.32463e-05
1.32407e-05
1.3235e-05
1.32293e-05
1.32235e-05
1.32176e-05
1.32117e-05
1.32057e-05
1.31997e-05
1.31937e-05
1.31876e-05
1.31815e-05
1.31754e-05
1.31693e-05
1.31632e-05
1.31571e-05
1.31509e-05
1.31447e-05
1.31386e-05
1.31324e-05
1.31262e-05
1.31199e-05
1.31137e-05
1.3107e-05
1.30985e-05
1.30899e-05
1.30813e-05
1.30726e-05
1.3064e-05
1.30554e-05
1.30469e-05
1.30384e-05
1.30301e-05
1.30218e-05
1.30138e-05
1.30059e-05
1.29983e-05
1.29909e-05
1.29838e-05
1.2977e-05
1.29704e-05
1.2964e-05
1.29579e-05
1.2952e-05
1.29462e-05
1.29407e-05
1.29353e-05
1.293e-05
1.29249e-05
1.29198e-05
1.29149e-05
1.29101e-05
1.29054e-05
1.29007e-05
1.28961e-05
1.28915e-05
1.2887e-05
1.28826e-05
1.28782e-05
1.2874e-05
1.28698e-05
1.28657e-05
1.28618e-05
1.28581e-05
1.28545e-05
1.28511e-05
1.28479e-05
1.28448e-05
1.2842e-05
1.28393e-05
1.28368e-05
1.28343e-05
1.28321e-05
1.28299e-05
1.28278e-05
1.28259e-05
1.28241e-05
1.28225e-05
1.28209e-05
1.28195e-05
1.2818e-05
1.28166e-05
1.28152e-05
1.28136e-05
1.28121e-05
1.28105e-05
1.28088e-05
1.28071e-05
1.28053e-05
1.28034e-05
1.28014e-05
1.27993e-05
1.27971e-05
1.27948e-05
1.27926e-05
1.27902e-05
1.2788e-05
1.27856e-05
1.27834e-05
1.27811e-05
1.2779e-05
1.27767e-05
1.27746e-05
1.27723e-05
1.277e-05
1.27667e-05
1.27633e-05
1.276e-05
1.27566e-05
1.27532e-05
1.27497e-05
1.27462e-05
1.27426e-05
1.27389e-05
1.27351e-05
1.27312e-05
1.27273e-05
1.27232e-05
1.27189e-05
1.27146e-05
1.27101e-05
1.27054e-05
1.27001e-05
1.26928e-05
1.26874e-05
1.26796e-05
1.26742e-05
1.26659e-05
1.26604e-05
1.26516e-05
1.26461e-05
1.26367e-05
1.26313e-05
1.26213e-05
1.26161e-05
1.26057e-05
1.26007e-05
1.25897e-05
1.25851e-05
1.25734e-05
1.25692e-05
1.25567e-05
1.25528e-05
1.25391e-05
1.25356e-05
1.25208e-05
1.25177e-05
1.25019e-05
1.24996e-05
1.24826e-05
1.24812e-05
1.24631e-05
1.24626e-05
1.24429e-05
1.24433e-05
1.24214e-05
1.24217e-05
1.23984e-05
1.23961e-05
1.23693e-05
1.23606e-05
1.23244e-05
1.23047e-05
1.22483e-05
1.22131e-05
1.21205e-05
1.20904e-05
1.20333e-05
1.12796e-05
1.0639e-05
1.03862e-05
9.56479e-06
8.82389e-06
7.5462e-06
7.08872e-06
5.61708e-06
7.00974e-06
4.66563e-06
5.35381e-06
2.49143e-05
5.16367e-05
3.16586e-05
2.31288e-05
1.86449e-05
1.59768e-05
1.43147e-05
1.32499e-05
1.25563e-05
1.2123e-05
1.18582e-05
1.17248e-05
1.16782e-05
1.16962e-05
1.17628e-05
1.18745e-05
1.2025e-05
1.22153e-05
1.24545e-05
1.27464e-05
1.30922e-05
1.35026e-05
1.39881e-05
1.45114e-05
1.50843e-05
1.57181e-05
1.64212e-05
1.71942e-05
1.78135e-05
1.81954e-05
1.8586e-05
1.89824e-05
1.93767e-05
1.9769e-05
2.01471e-05
2.05184e-05
2.08789e-05
2.12338e-05
2.15799e-05
2.19187e-05
2.22491e-05
2.25719e-05
2.2887e-05
2.31948e-05
2.34958e-05
2.37901e-05
2.40781e-05
2.43612e-05
2.46399e-05
2.49141e-05
2.51838e-05
2.54486e-05
2.57085e-05
2.59631e-05
2.6212e-05
2.64547e-05
2.66912e-05
2.69215e-05
2.71452e-05
2.73626e-05
2.75742e-05
2.77802e-05
2.79805e-05
2.81755e-05
2.8366e-05
2.85518e-05
2.8733e-05
2.89094e-05
2.90811e-05
2.92478e-05
2.94096e-05
2.95664e-05
2.97184e-05
2.98652e-05
3.00073e-05
3.01444e-05
3.02762e-05
3.04029e-05
3.05249e-05
3.06423e-05
3.07551e-05
3.08629e-05
3.09667e-05
3.1066e-05
3.11617e-05
3.12531e-05
3.13412e-05
3.14252e-05
3.15065e-05
3.15837e-05
3.16588e-05
3.17293e-05
3.17991e-05
3.18679e-05
3.19352e-05
3.20012e-05
3.20657e-05
3.21285e-05
3.21899e-05
3.22488e-05
3.23052e-05
3.23594e-05
3.24111e-05
3.24605e-05
3.25074e-05
3.25519e-05
3.25938e-05
3.26334e-05
3.26705e-05
3.27054e-05
3.27379e-05
3.27683e-05
3.27965e-05
3.28219e-05
3.28461e-05
3.28681e-05
3.28879e-05
3.2906e-05
3.29221e-05
3.29367e-05
3.29496e-05
3.2961e-05
3.29709e-05
3.29794e-05
3.29866e-05
3.29926e-05
3.29975e-05
3.30013e-05
3.30042e-05
3.30063e-05
3.30077e-05
3.30084e-05
3.30086e-05
3.30084e-05
3.30078e-05
3.30069e-05
3.30057e-05
3.30044e-05
3.30029e-05
3.30013e-05
3.29997e-05
3.29981e-05
3.29966e-05
3.29952e-05
3.2994e-05
3.29929e-05
3.2992e-05
3.29914e-05
3.29911e-05
3.29911e-05
3.29914e-05
3.29922e-05
3.29933e-05
3.29949e-05
3.29969e-05
3.29995e-05
3.30025e-05
3.30061e-05
3.30104e-05
3.30153e-05
3.30209e-05
3.30273e-05
3.30346e-05
3.30428e-05
3.3052e-05
3.30622e-05
3.30735e-05
3.30859e-05
3.30995e-05
3.31144e-05
3.31305e-05
3.31479e-05
3.31666e-05
3.31868e-05
3.32082e-05
3.3231e-05
3.32551e-05
3.32805e-05
3.33074e-05
3.33355e-05
3.33651e-05
3.33959e-05
3.34279e-05
3.34612e-05
3.34955e-05
3.35309e-05
3.35672e-05
3.36044e-05
3.36426e-05
3.36815e-05
3.37213e-05
3.37617e-05
3.38029e-05
3.38448e-05
3.38873e-05
3.39303e-05
3.39739e-05
3.4018e-05
3.40626e-05
3.41076e-05
3.41529e-05
3.41985e-05
3.42443e-05
3.42901e-05
3.43358e-05
3.4372e-05
3.43973e-05
3.4421e-05
3.44434e-05
3.44645e-05
3.44847e-05
3.45039e-05
3.45224e-05
3.45401e-05
3.4557e-05
3.45731e-05
3.45884e-05
3.46028e-05
3.46164e-05
3.4629e-05
3.46408e-05
3.46516e-05
3.46616e-05
3.46708e-05
3.46792e-05
3.46868e-05
3.46936e-05
3.46997e-05
3.4705e-05
3.47095e-05
3.47133e-05
3.47162e-05
3.47185e-05
3.47202e-05
3.47213e-05
3.47219e-05
3.47221e-05
3.4722e-05
3.47215e-05
3.47207e-05
3.47197e-05
3.47184e-05
3.4717e-05
3.47154e-05
3.47137e-05
3.47119e-05
3.471e-05
3.47081e-05
3.47062e-05
3.47042e-05
3.47022e-05
3.47001e-05
3.4698e-05
3.46959e-05
3.46938e-05
3.46918e-05
3.46898e-05
3.4688e-05
3.46864e-05
3.46851e-05
3.46841e-05
3.46835e-05
3.46834e-05
3.46839e-05
3.46848e-05
3.46864e-05
3.46887e-05
3.46916e-05
3.46951e-05
3.46994e-05
3.47043e-05
3.47098e-05
3.47159e-05
3.47224e-05
3.47293e-05
3.47365e-05
3.47439e-05
3.47514e-05
3.4759e-05
3.47665e-05
3.47739e-05
3.47813e-05
3.47885e-05
3.47957e-05
3.48027e-05
3.48098e-05
3.48169e-05
3.4824e-05
3.48313e-05
3.48388e-05
3.48465e-05
3.48544e-05
3.48626e-05
3.48711e-05
3.48798e-05
3.48887e-05
3.4898e-05
3.49075e-05
3.49173e-05
3.49275e-05
3.49379e-05
3.49487e-05
3.49598e-05
3.49712e-05
3.49827e-05
3.49945e-05
3.50063e-05
3.50181e-05
3.50299e-05
3.50417e-05
3.50535e-05
3.50652e-05
3.5077e-05
3.50887e-05
3.51003e-05
3.51118e-05
3.51233e-05
3.51348e-05
3.51461e-05
3.51573e-05
3.51682e-05
3.51786e-05
3.51884e-05
3.51976e-05
3.52062e-05
3.52141e-05
3.5221e-05
3.52268e-05
3.52313e-05
3.52343e-05
3.52357e-05
3.52353e-05
3.5233e-05
3.52285e-05
3.52218e-05
3.52132e-05
3.52026e-05
3.51903e-05
3.51765e-05
3.51613e-05
3.51449e-05
3.51275e-05
3.51093e-05
3.50904e-05
3.50711e-05
3.50514e-05
3.50313e-05
3.50111e-05
3.49907e-05
3.49702e-05
3.49497e-05
3.49292e-05
3.49088e-05
3.48884e-05
3.4868e-05
3.48475e-05
3.48269e-05
3.48061e-05
3.4785e-05
3.47637e-05
3.47421e-05
3.47202e-05
3.4698e-05
3.46756e-05
3.46529e-05
3.46299e-05
3.46065e-05
3.45827e-05
3.45585e-05
3.4534e-05
3.45091e-05
3.44839e-05
3.44585e-05
3.44329e-05
3.44071e-05
3.43811e-05
3.43551e-05
3.4329e-05
3.43028e-05
3.42767e-05
3.42507e-05
3.42249e-05
3.41993e-05
3.41739e-05
3.41488e-05
3.4124e-05
3.40994e-05
3.4075e-05
3.40509e-05
3.40269e-05
3.40031e-05
3.39795e-05
3.39562e-05
3.39331e-05
3.39102e-05
3.38877e-05
3.38656e-05
3.38438e-05
3.38224e-05
3.38014e-05
3.37808e-05
3.37607e-05
3.37411e-05
3.37221e-05
3.37038e-05
3.36862e-05
3.36694e-05
3.36535e-05
3.36385e-05
3.36244e-05
3.36113e-05
3.35991e-05
3.35878e-05
3.35772e-05
3.35673e-05
3.35579e-05
3.3549e-05
3.35403e-05
3.35318e-05
3.35234e-05
3.3515e-05
3.35067e-05
3.34984e-05
3.34901e-05
3.34819e-05
3.34737e-05
3.34657e-05
3.34578e-05
3.34501e-05
3.34426e-05
3.34354e-05
3.34286e-05
3.34222e-05
3.34162e-05
3.34108e-05
3.3406e-05
3.34017e-05
3.33981e-05
3.3395e-05
3.33925e-05
3.33905e-05
3.3389e-05
3.33877e-05
3.33868e-05
3.33859e-05
3.33852e-05
3.33845e-05
3.33838e-05
3.33831e-05
3.33823e-05
3.33815e-05
3.33804e-05
3.33791e-05
3.33774e-05
3.33752e-05
3.33723e-05
3.33686e-05
3.33641e-05
3.33588e-05
3.33525e-05
3.33455e-05
3.33375e-05
3.33286e-05
3.33189e-05
3.33084e-05
3.32972e-05
3.32853e-05
3.32729e-05
3.326e-05
3.32468e-05
3.32334e-05
3.32197e-05
3.32059e-05
3.31919e-05
3.31779e-05
3.31637e-05
3.31494e-05
3.3135e-05
3.31203e-05
3.31053e-05
3.30899e-05
3.30741e-05
3.30579e-05
3.30412e-05
3.30239e-05
3.3006e-05
3.29874e-05
3.29679e-05
3.29478e-05
3.29267e-05
3.29048e-05
3.28819e-05
3.28583e-05
3.28338e-05
3.28091e-05
3.27837e-05
3.27584e-05
3.27328e-05
3.27076e-05
3.26823e-05
3.26575e-05
3.26326e-05
3.26081e-05
3.25832e-05
3.25589e-05
3.25339e-05
3.25094e-05
3.24841e-05
3.24593e-05
3.24336e-05
3.24085e-05
3.23822e-05
3.23568e-05
3.23301e-05
3.23042e-05
3.22768e-05
3.22506e-05
3.22225e-05
3.2196e-05
3.21676e-05
3.2141e-05
3.21126e-05
3.20865e-05
3.20582e-05
3.20328e-05
3.20046e-05
3.19791e-05
3.19505e-05
3.19227e-05
3.18906e-05
3.18566e-05
3.18147e-05
3.17673e-05
3.17046e-05
3.16298e-05
3.15289e-05
3.13908e-05
3.12639e-05
3.06657e-05
2.98038e-05
2.86168e-05
2.83613e-05
2.69853e-05
2.54605e-05
2.28003e-05
2.12479e-05
1.77764e-05
1.42355e-05
1.54635e-05
1.29433e-05
1.99172e-05
0.000146221
0.000110947
8.43156e-05
6.67785e-05
5.46656e-05
4.60715e-05
3.8675e-05
3.29489e-05
2.85705e-05
2.52743e-05
2.27119e-05
2.07091e-05
1.91081e-05
1.78182e-05
1.6769e-05
1.59119e-05
1.52082e-05
1.4631e-05
1.41607e-05
1.3782e-05
1.34849e-05
1.32648e-05
1.31217e-05
1.30555e-05
1.30648e-05
1.31471e-05
1.33004e-05
1.35195e-05
1.37951e-05
1.41266e-05
1.4508e-05
1.49374e-05
1.54181e-05
1.5923e-05
1.64425e-05
1.69751e-05
1.75207e-05
1.8079e-05
1.86502e-05
1.92347e-05
1.98328e-05
2.04448e-05
2.10723e-05
2.17165e-05
2.23796e-05
2.30635e-05
2.36593e-05
2.42038e-05
2.47484e-05
2.52936e-05
2.58398e-05
2.63871e-05
2.69349e-05
2.74831e-05
2.80306e-05
2.85763e-05
2.91186e-05
2.96565e-05
3.01892e-05
3.07159e-05
3.12359e-05
3.17488e-05
3.22552e-05
3.27549e-05
3.32477e-05
3.37335e-05
3.42122e-05
3.46836e-05
3.51476e-05
3.5604e-05
3.6053e-05
3.64941e-05
3.69276e-05
3.73528e-05
3.77701e-05
3.81789e-05
3.85804e-05
3.89738e-05
3.93598e-05
3.97376e-05
4.01093e-05
4.04739e-05
4.08331e-05
4.11858e-05
4.15343e-05
4.18772e-05
4.22174e-05
4.25524e-05
4.28849e-05
4.32127e-05
4.35392e-05
4.38648e-05
4.41869e-05
4.45057e-05
4.48195e-05
4.51144e-05
4.53468e-05
4.55714e-05
4.57887e-05
4.59986e-05
4.62014e-05
4.63974e-05
4.65867e-05
4.67696e-05
4.69462e-05
4.71167e-05
4.72814e-05
4.74403e-05
4.75937e-05
4.77417e-05
4.78845e-05
4.80224e-05
4.8155e-05
4.82827e-05
4.84057e-05
4.85242e-05
4.86382e-05
4.8748e-05
4.88538e-05
4.89557e-05
4.90541e-05
4.91491e-05
4.9241e-05
4.93299e-05
4.94161e-05
4.94997e-05
4.95809e-05
4.96599e-05
4.97369e-05
4.9812e-05
4.98854e-05
4.99573e-05
5.00277e-05
5.0097e-05
5.01651e-05
5.02324e-05
5.02989e-05
5.03648e-05
5.04301e-05
5.0495e-05
5.05596e-05
5.06239e-05
5.06881e-05
5.07523e-05
5.08164e-05
5.08807e-05
5.0945e-05
5.10096e-05
5.10743e-05
5.11394e-05
5.12048e-05
5.12706e-05
5.13368e-05
5.14036e-05
5.14709e-05
5.15389e-05
5.16076e-05
5.16771e-05
5.17476e-05
5.18191e-05
5.18919e-05
5.19662e-05
5.2042e-05
5.21196e-05
5.21991e-05
5.22807e-05
5.23645e-05
5.24506e-05
5.25392e-05
5.26302e-05
5.2724e-05
5.28204e-05
5.29196e-05
5.30215e-05
5.31261e-05
5.32333e-05
5.33429e-05
5.34547e-05
5.35687e-05
5.36846e-05
5.38021e-05
5.39212e-05
5.40416e-05
5.4163e-05
5.42852e-05
5.44079e-05
5.45309e-05
5.46538e-05
5.47767e-05
5.48991e-05
5.50211e-05
5.51425e-05
5.52632e-05
5.53831e-05
5.55021e-05
5.56203e-05
5.57375e-05
5.58539e-05
5.59693e-05
5.60837e-05
5.61972e-05
5.63097e-05
5.64209e-05
5.65309e-05
5.66394e-05
5.67463e-05
5.68513e-05
5.69542e-05
5.70549e-05
5.71534e-05
5.72495e-05
5.73432e-05
5.74345e-05
5.75234e-05
5.76096e-05
5.76932e-05
5.77739e-05
5.78518e-05
5.79266e-05
5.79985e-05
5.80673e-05
5.81333e-05
5.81964e-05
5.82568e-05
5.83145e-05
5.83697e-05
5.84222e-05
5.84721e-05
5.85195e-05
5.85643e-05
5.86067e-05
5.86467e-05
5.86846e-05
5.87205e-05
5.87546e-05
5.87872e-05
5.88184e-05
5.88482e-05
5.88769e-05
5.89044e-05
5.89311e-05
5.89568e-05
5.89819e-05
5.90063e-05
5.90302e-05
5.90536e-05
5.90765e-05
5.90991e-05
5.91213e-05
5.91431e-05
5.91645e-05
5.91857e-05
5.92066e-05
5.92272e-05
5.92478e-05
5.92685e-05
5.92893e-05
5.93106e-05
5.93325e-05
5.93554e-05
5.93792e-05
5.94044e-05
5.9431e-05
5.94591e-05
5.94889e-05
5.95205e-05
5.9554e-05
5.95893e-05
5.96264e-05
5.96652e-05
5.97055e-05
5.97472e-05
5.97901e-05
5.98338e-05
5.98782e-05
5.99229e-05
5.99678e-05
6.00126e-05
6.00572e-05
6.01014e-05
6.01453e-05
6.01887e-05
6.02318e-05
6.02746e-05
6.03173e-05
6.036e-05
6.0403e-05
6.04463e-05
6.049e-05
6.05344e-05
6.05794e-05
6.06251e-05
6.06715e-05
6.07187e-05
6.07667e-05
6.08154e-05
6.08649e-05
6.09152e-05
6.09663e-05
6.10182e-05
6.10708e-05
6.11239e-05
6.11776e-05
6.12316e-05
6.12856e-05
6.13397e-05
6.13935e-05
6.14472e-05
6.15006e-05
6.15538e-05
6.1607e-05
6.16601e-05
6.17131e-05
6.1766e-05
6.18188e-05
6.18715e-05
6.19239e-05
6.19758e-05
6.2027e-05
6.2077e-05
6.21256e-05
6.21722e-05
6.22165e-05
6.22581e-05
6.22964e-05
6.23311e-05
6.23618e-05
6.2388e-05
6.24093e-05
6.24254e-05
6.2436e-05
6.24411e-05
6.24404e-05
6.24342e-05
6.24225e-05
6.24057e-05
6.23842e-05
6.23582e-05
6.23284e-05
6.22952e-05
6.22591e-05
6.22208e-05
6.21807e-05
6.21392e-05
6.20967e-05
6.20534e-05
6.20096e-05
6.19654e-05
6.1921e-05
6.18766e-05
6.18322e-05
6.17878e-05
6.17435e-05
6.1699e-05
6.16544e-05
6.16095e-05
6.15642e-05
6.15182e-05
6.14715e-05
6.1424e-05
6.13758e-05
6.13267e-05
6.12769e-05
6.12263e-05
6.11747e-05
6.11221e-05
6.10684e-05
6.10135e-05
6.09574e-05
6.09002e-05
6.0842e-05
6.07829e-05
6.0723e-05
6.06625e-05
6.06015e-05
6.05401e-05
6.04784e-05
6.04166e-05
6.03548e-05
6.02933e-05
6.02323e-05
6.01718e-05
6.01121e-05
6.0053e-05
5.99946e-05
5.9937e-05
5.988e-05
5.98236e-05
5.97679e-05
5.97127e-05
5.96582e-05
5.96043e-05
5.9551e-05
5.94984e-05
5.94464e-05
5.93951e-05
5.93445e-05
5.92946e-05
5.92456e-05
5.91974e-05
5.91504e-05
5.91046e-05
5.90604e-05
5.90178e-05
5.89772e-05
5.89387e-05
5.89025e-05
5.88688e-05
5.88376e-05
5.88092e-05
5.87833e-05
5.87599e-05
5.87388e-05
5.87196e-05
5.87021e-05
5.8686e-05
5.8671e-05
5.86568e-05
5.86432e-05
5.863e-05
5.86172e-05
5.86047e-05
5.85926e-05
5.85807e-05
5.85692e-05
5.85581e-05
5.85475e-05
5.85375e-05
5.85281e-05
5.85195e-05
5.85119e-05
5.85054e-05
5.85001e-05
5.84962e-05
5.84938e-05
5.8493e-05
5.84937e-05
5.84959e-05
5.84996e-05
5.85045e-05
5.85104e-05
5.85172e-05
5.85245e-05
5.85322e-05
5.854e-05
5.85478e-05
5.85556e-05
5.85631e-05
5.85704e-05
5.85774e-05
5.85838e-05
5.85894e-05
5.85939e-05
5.85969e-05
5.85981e-05
5.85972e-05
5.8594e-05
5.85884e-05
5.85802e-05
5.85694e-05
5.85561e-05
5.85401e-05
5.85218e-05
5.85011e-05
5.84782e-05
5.84535e-05
5.84272e-05
5.83996e-05
5.83709e-05
5.83415e-05
5.83114e-05
5.82809e-05
5.825e-05
5.8219e-05
5.81877e-05
5.81562e-05
5.81244e-05
5.8092e-05
5.8059e-05
5.80249e-05
5.79899e-05
5.79535e-05
5.79159e-05
5.78766e-05
5.78357e-05
5.77928e-05
5.77479e-05
5.77007e-05
5.76514e-05
5.75996e-05
5.75456e-05
5.74894e-05
5.74312e-05
5.73712e-05
5.73102e-05
5.72482e-05
5.71859e-05
5.71235e-05
5.70614e-05
5.69995e-05
5.6938e-05
5.68765e-05
5.68153e-05
5.67538e-05
5.66923e-05
5.66303e-05
5.6568e-05
5.6505e-05
5.64416e-05
5.63772e-05
5.63123e-05
5.62465e-05
5.61802e-05
5.6113e-05
5.60451e-05
5.59763e-05
5.59071e-05
5.58373e-05
5.57674e-05
5.56975e-05
5.56279e-05
5.55588e-05
5.54902e-05
5.54225e-05
5.5355e-05
5.52879e-05
5.52202e-05
5.51499e-05
5.50768e-05
5.49962e-05
5.49064e-05
5.48012e-05
5.46746e-05
5.45163e-05
5.43185e-05
5.40306e-05
5.37431e-05
5.28133e-05
5.13314e-05
4.995e-05
4.82659e-05
4.60267e-05
4.28657e-05
3.77023e-05
3.14195e-05
2.64685e-05
1.96436e-05
1.84899e-05
2.04761e-05
3.12526e-05
0.000179034
0.000142339
8.82557e-05
9.15891e-05
9.67683e-05
0.000105073
9.22543e-05
8.16209e-05
7.25633e-05
6.50734e-05
5.87902e-05
5.35334e-05
4.90448e-05
4.5259e-05
4.20118e-05
3.92185e-05
3.67763e-05
3.464e-05
3.27612e-05
3.11055e-05
2.9638e-05
2.83257e-05
2.71251e-05
2.5993e-05
2.49133e-05
2.38953e-05
2.29527e-05
2.20915e-05
2.13195e-05
2.06367e-05
2.00392e-05
1.95188e-05
1.90671e-05
1.86813e-05
1.83588e-05
1.80978e-05
1.78964e-05
1.77526e-05
1.76647e-05
1.7632e-05
1.76608e-05
1.77616e-05
1.7931e-05
1.81624e-05
1.8452e-05
1.87992e-05
1.91928e-05
1.96164e-05
2.00694e-05
2.05513e-05
2.10615e-05
2.15991e-05
2.21628e-05
2.27512e-05
2.33625e-05
2.39947e-05
2.46458e-05
2.53134e-05
2.59957e-05
2.66915e-05
2.74002e-05
2.81209e-05
2.87747e-05
2.93713e-05
2.99741e-05
3.05836e-05
3.12015e-05
3.18284e-05
3.24658e-05
3.31136e-05
3.37726e-05
3.44426e-05
3.51244e-05
3.58183e-05
3.65236e-05
3.72393e-05
3.7968e-05
3.87101e-05
3.94648e-05
4.02272e-05
4.09993e-05
4.17791e-05
4.25684e-05
4.33623e-05
4.41648e-05
4.49694e-05
4.57807e-05
4.65895e-05
4.74062e-05
4.82171e-05
4.90321e-05
4.96437e-05
5.02456e-05
5.08387e-05
5.14233e-05
5.19994e-05
5.25662e-05
5.31234e-05
5.367e-05
5.42055e-05
5.47296e-05
5.52425e-05
5.57441e-05
5.62346e-05
5.67139e-05
5.71818e-05
5.76383e-05
5.80833e-05
5.85168e-05
5.89389e-05
5.93495e-05
5.97491e-05
6.0137e-05
6.05137e-05
6.08797e-05
6.12351e-05
6.15804e-05
6.19157e-05
6.22416e-05
6.25584e-05
6.28665e-05
6.31663e-05
6.34583e-05
6.37427e-05
6.40201e-05
6.42907e-05
6.45548e-05
6.48129e-05
6.50651e-05
6.53118e-05
6.55533e-05
6.57898e-05
6.60218e-05
6.62495e-05
6.64732e-05
6.66933e-05
6.69102e-05
6.7124e-05
6.73352e-05
6.75439e-05
6.77504e-05
6.79548e-05
6.81575e-05
6.83586e-05
6.85584e-05
6.87569e-05
6.89543e-05
6.91507e-05
6.93463e-05
6.95412e-05
6.97355e-05
6.99293e-05
7.01228e-05
7.03161e-05
7.05094e-05
7.07027e-05
7.08965e-05
7.10908e-05
7.12859e-05
7.14823e-05
7.16801e-05
7.18798e-05
7.20819e-05
7.22866e-05
7.24943e-05
7.27055e-05
7.29202e-05
7.31389e-05
7.33618e-05
7.35889e-05
7.38206e-05
7.40569e-05
7.42979e-05
7.45433e-05
7.47931e-05
7.5047e-05
7.53047e-05
7.55656e-05
7.58294e-05
7.60956e-05
7.63638e-05
7.66334e-05
7.69039e-05
7.71748e-05
7.74456e-05
7.77158e-05
7.79848e-05
7.82521e-05
7.85174e-05
7.87804e-05
7.90409e-05
7.92986e-05
7.95536e-05
7.98056e-05
8.00547e-05
8.03009e-05
8.05442e-05
8.07847e-05
8.10225e-05
8.12577e-05
8.14903e-05
8.17202e-05
8.19474e-05
8.21715e-05
8.23925e-05
8.26099e-05
8.28236e-05
8.30332e-05
8.32385e-05
8.34394e-05
8.36358e-05
8.38275e-05
8.40145e-05
8.41966e-05
8.43737e-05
8.45456e-05
8.4712e-05
8.48728e-05
8.50278e-05
8.51771e-05
8.53207e-05
8.54586e-05
8.55911e-05
8.57182e-05
8.58401e-05
8.5957e-05
8.6069e-05
8.6176e-05
8.62783e-05
8.63758e-05
8.64688e-05
8.65574e-05
8.6642e-05
8.6723e-05
8.68006e-05
8.68754e-05
8.69475e-05
8.70172e-05
8.70847e-05
8.71503e-05
8.72142e-05
8.72765e-05
8.73376e-05
8.73975e-05
8.74564e-05
8.75145e-05
8.75719e-05
8.76284e-05
8.76843e-05
8.77394e-05
8.77939e-05
8.78478e-05
8.79012e-05
8.79542e-05
8.80071e-05
8.80603e-05
8.8114e-05
8.81688e-05
8.82252e-05
8.82837e-05
8.83446e-05
8.84084e-05
8.84755e-05
8.85461e-05
8.86204e-05
8.86985e-05
8.87804e-05
8.88662e-05
8.89556e-05
8.90483e-05
8.91439e-05
8.9242e-05
8.93421e-05
8.94435e-05
8.95458e-05
8.96484e-05
8.97509e-05
8.98528e-05
8.9954e-05
9.00542e-05
9.01534e-05
9.02516e-05
9.03491e-05
9.04461e-05
9.05429e-05
9.06398e-05
9.07371e-05
9.08353e-05
9.09344e-05
9.10347e-05
9.11363e-05
9.12395e-05
9.13441e-05
9.14503e-05
9.1558e-05
9.16673e-05
9.17781e-05
9.18904e-05
9.20041e-05
9.2119e-05
9.22349e-05
9.23514e-05
9.24682e-05
9.25847e-05
9.27006e-05
9.28154e-05
9.29291e-05
9.30414e-05
9.31523e-05
9.32621e-05
9.3371e-05
9.3479e-05
9.35864e-05
9.36931e-05
9.37991e-05
9.39045e-05
9.40089e-05
9.41121e-05
9.42137e-05
9.4313e-05
9.44092e-05
9.45017e-05
9.45894e-05
9.46715e-05
9.47472e-05
9.48156e-05
9.48759e-05
9.49271e-05
9.49686e-05
9.49999e-05
9.50204e-05
9.50301e-05
9.50291e-05
9.50175e-05
9.49959e-05
9.49647e-05
9.49248e-05
9.48769e-05
9.4822e-05
9.47611e-05
9.46953e-05
9.46257e-05
9.45532e-05
9.44786e-05
9.44027e-05
9.43258e-05
9.42483e-05
9.41706e-05
9.4093e-05
9.40155e-05
9.39383e-05
9.38614e-05
9.37846e-05
9.37078e-05
9.36307e-05
9.35532e-05
9.3475e-05
9.33959e-05
9.33155e-05
9.32338e-05
9.31509e-05
9.30666e-05
9.2981e-05
9.28939e-05
9.28052e-05
9.27145e-05
9.26218e-05
9.25268e-05
9.24296e-05
9.23301e-05
9.22285e-05
9.21251e-05
9.20201e-05
9.19138e-05
9.18064e-05
9.16983e-05
9.15897e-05
9.14811e-05
9.13728e-05
9.12651e-05
9.11585e-05
9.10531e-05
9.09492e-05
9.08467e-05
9.07458e-05
9.06463e-05
9.05481e-05
9.04514e-05
9.03559e-05
9.02617e-05
9.01686e-05
9.00768e-05
8.9986e-05
8.98964e-05
8.98079e-05
8.97203e-05
8.96338e-05
8.95482e-05
8.94638e-05
8.93809e-05
8.92998e-05
8.92208e-05
8.91445e-05
8.90713e-05
8.90016e-05
8.89358e-05
8.88744e-05
8.88176e-05
8.87656e-05
8.87186e-05
8.86765e-05
8.86391e-05
8.86059e-05
8.85765e-05
8.85504e-05
8.8527e-05
8.85057e-05
8.84862e-05
8.8468e-05
8.84509e-05
8.84347e-05
8.84194e-05
8.84048e-05
8.8391e-05
8.8378e-05
8.83658e-05
8.83545e-05
8.83442e-05
8.83351e-05
8.83274e-05
8.83213e-05
8.83171e-05
8.83151e-05
8.83154e-05
8.83183e-05
8.8324e-05
8.83323e-05
8.83433e-05
8.83566e-05
8.83719e-05
8.83888e-05
8.8407e-05
8.84259e-05
8.8445e-05
8.84641e-05
8.84828e-05
8.85009e-05
8.85182e-05
8.85347e-05
8.85501e-05
8.85642e-05
8.85764e-05
8.85863e-05
8.85932e-05
8.85964e-05
8.85954e-05
8.85898e-05
8.85794e-05
8.85638e-05
8.85431e-05
8.85172e-05
8.84863e-05
8.84506e-05
8.84103e-05
8.83658e-05
8.83177e-05
8.82664e-05
8.82125e-05
8.81566e-05
8.8099e-05
8.80403e-05
8.79807e-05
8.79207e-05
8.78605e-05
8.78002e-05
8.77398e-05
8.76791e-05
8.76179e-05
8.75557e-05
8.74921e-05
8.74267e-05
8.73592e-05
8.72894e-05
8.72167e-05
8.71409e-05
8.70614e-05
8.69783e-05
8.68911e-05
8.68e-05
8.67047e-05
8.66056e-05
8.65025e-05
8.63963e-05
8.6287e-05
8.61758e-05
8.6063e-05
8.59498e-05
8.58363e-05
8.57236e-05
8.5611e-05
8.54993e-05
8.53876e-05
8.52764e-05
8.51646e-05
8.50529e-05
8.494e-05
8.48268e-05
8.47116e-05
8.45956e-05
8.44773e-05
8.4358e-05
8.42364e-05
8.41139e-05
8.39891e-05
8.38636e-05
8.37359e-05
8.3608e-05
8.34787e-05
8.33499e-05
8.32207e-05
8.30929e-05
8.29655e-05
8.28401e-05
8.27156e-05
8.25929e-05
8.24705e-05
8.23484e-05
8.22229e-05
8.20945e-05
8.19562e-05
8.18064e-05
8.16357e-05
8.1437e-05
8.11936e-05
8.08959e-05
8.04678e-05
7.99885e-05
7.87835e-05
7.6908e-05
7.48944e-05
7.20176e-05
6.71593e-05
6.01712e-05
5.14538e-05
4.0865e-05
3.59809e-05
2.56786e-05
2.21238e-05
2.45379e-05
3.45287e-05
0.000162939
0.000129881
8.48251e-05
8.59394e-05
9.11209e-05
0.000100812
0.000119067
0.000133757
0.00012473
0.000116315
0.000108589
0.000101598
9.52288e-05
8.95081e-05
8.43415e-05
7.96826e-05
7.54468e-05
7.15984e-05
6.80954e-05
6.49035e-05
6.19897e-05
5.93188e-05
5.68307e-05
5.44649e-05
5.21947e-05
5.00237e-05
4.79657e-05
4.60215e-05
4.42114e-05
4.25408e-05
4.10093e-05
3.96058e-05
3.83071e-05
3.71022e-05
3.59792e-05
3.4936e-05
3.39692e-05
3.30774e-05
3.22579e-05
3.15064e-05
3.07843e-05
3.0028e-05
2.92464e-05
2.84815e-05
2.77647e-05
2.71127e-05
2.6534e-05
2.60325e-05
2.56084e-05
2.52597e-05
2.49842e-05
2.47792e-05
2.46418e-05
2.45698e-05
2.45608e-05
2.46129e-05
2.47247e-05
2.48951e-05
2.51233e-05
2.54079e-05
2.57479e-05
2.61424e-05
2.65898e-05
2.70886e-05
2.76382e-05
2.82381e-05
2.88883e-05
2.95888e-05
3.03383e-05
3.11268e-05
3.1955e-05
3.28231e-05
3.37308e-05
3.46774e-05
3.56621e-05
3.66834e-05
3.77399e-05
3.88297e-05
3.99511e-05
4.11019e-05
4.22798e-05
4.34818e-05
4.47044e-05
4.59433e-05
4.71933e-05
4.84489e-05
4.97042e-05
5.09526e-05
5.21881e-05
5.3405e-05
5.46006e-05
5.57717e-05
5.69166e-05
5.80347e-05
5.91258e-05
6.01904e-05
6.1229e-05
6.22419e-05
6.32291e-05
6.41918e-05
6.51311e-05
6.60476e-05
6.69419e-05
6.78136e-05
6.86619e-05
6.94864e-05
7.02875e-05
7.10655e-05
7.18208e-05
7.25539e-05
7.32655e-05
7.39561e-05
7.46257e-05
7.5276e-05
7.59079e-05
7.6522e-05
7.71191e-05
7.77002e-05
7.8266e-05
7.8817e-05
7.93538e-05
7.9877e-05
8.03873e-05
8.08853e-05
8.13714e-05
8.18463e-05
8.23104e-05
8.27643e-05
8.32084e-05
8.36432e-05
8.40694e-05
8.44873e-05
8.48975e-05
8.53004e-05
8.56967e-05
8.60868e-05
8.64713e-05
8.68508e-05
8.72257e-05
8.75965e-05
8.79636e-05
8.83273e-05
8.8688e-05
8.90461e-05
8.94019e-05
8.97556e-05
9.01075e-05
9.04576e-05
9.08063e-05
9.11538e-05
9.15001e-05
9.18455e-05
9.219e-05
9.2534e-05
9.28777e-05
9.32212e-05
9.35651e-05
9.39096e-05
9.42554e-05
9.46028e-05
9.49524e-05
9.53051e-05
9.56613e-05
9.60218e-05
9.63872e-05
9.6758e-05
9.71346e-05
9.75174e-05
9.79067e-05
9.83029e-05
9.87058e-05
9.91156e-05
9.95321e-05
9.99548e-05
0.000100383
0.000100817
0.000101255
0.000101696
0.00010214
0.000102585
0.000103031
0.000103477
0.000103921
0.000104364
0.000104803
0.000105239
0.00010567
0.000106096
0.000106516
0.000106929
0.000107336
0.000107737
0.000108131
0.000108518
0.000108899
0.000109274
0.000109643
0.000110007
0.000110365
0.000110718
0.000111066
0.000111409
0.000111748
0.000112081
0.000112408
0.00011273
0.000113045
0.000113354
0.000113656
0.000113952
0.00011424
0.00011452
0.000114793
0.000115059
0.000115317
0.000115566
0.000115808
0.000116041
0.000116265
0.00011648
0.000116687
0.000116886
0.000117077
0.000117259
0.000117434
0.000117602
0.000117763
0.000117916
0.000118063
0.000118203
0.000118336
0.000118464
0.000118586
0.000118703
0.000118815
0.000118924
0.00011903
0.000119132
0.000119232
0.000119329
0.000119424
0.000119518
0.00011961
0.0001197
0.00011979
0.000119879
0.000119967
0.000120055
0.000120141